/*--------------------------------*- C++ -*----------------------------------*\
| =========                 |                                                 |
| \\      /  F ield         | OpenFOAM: The Open Source CFD Toolbox           |
|  \\    /   O peration     | Version:  2.4.0                                 |
|   \\  /    A nd           | Web:      www.OpenFOAM.org                      |
|    \\/     M anipulation  |                                                 |
\*---------------------------------------------------------------------------*/
FoamFile
{
    version     2.0;
    format      ascii;
    class       volVectorField;
    location    "4.8";
    object      U;
}
// * * * * * * * * * * * * * * * * * * * * * * * * * * * * * * * * * * * * * //

dimensions      [0 1 -1 0 0 0 0];

internalField   nonuniform List<vector> 
5625
(
(0.272551 -0.0161179 4.16474e-18)
(0.0738317 -0.0136559 -4.94382e-18)
(0.0326156 -0.00802853 0)
(0.0189832 -0.00478159 0)
(0.0109813 -0.00285762 0)
(0.00609397 -0.00170931 0)
(0.00275546 -0.00094551 8.13332e-18)
(0.000417035 -0.000424777 4.19471e-18)
(-0.00128291 -6.30602e-05 4.29353e-18)
(-0.00254232 0.000191947 0)
(-0.00349085 0.000370184 4.42626e-18)
(-0.00421913 0.000495447 -4.46826e-18)
(-0.00478213 0.000580237 -4.49819e-18)
(-0.00522696 0.000637268 0)
(-0.00557808 0.000671338 0)
(-0.00586281 0.000690363 0)
(-0.00609118 0.000695399 0)
(-0.00628088 0.000692208 0)
(-0.00643438 0.000679776 4.54863e-18)
(-0.0065646 0.000663 4.54582e-18)
(-0.00666963 0.000639522 -2.27122e-18)
(-0.00675998 0.000614051 0)
(-0.00683081 0.000583206 -2.26723e-18)
(-0.00689178 0.000551943 -2.26529e-18)
(-0.00693554 0.000515901 0)
(-0.00697183 0.00048065 -2.26246e-18)
(-0.00699097 0.000440742 0)
(-0.00700315 0.000402724 0)
(-0.00699784 0.000359882 0)
(-0.0069836 0.000319853 1.13145e-18)
(-0.00694426 0.000276013 0)
(-0.00689853 0.000236261 0)
(-0.00682308 0.000192911 0)
(-0.00673801 0.000153344 1.13779e-18)
(-0.00661328 0.000105011 -1.14053e-18)
(-0.00647612 6.65661e-05 0)
(-0.0062858 2.13665e-05 1.43427e-19)
(-0.00608056 -1.11539e-05 0)
(-0.0058028 -4.86421e-05 -1.4454e-19)
(-0.00550922 -7.10562e-05 -2.90371e-19)
(-0.00511676 -0.000101932 1.1673e-18)
(-0.00471235 -0.000114493 -1.17348e-18)
(-0.00417026 -0.00013436 0)
(-0.00362808 -0.000129694 0)
(-0.00289383 -0.000132349 0)
(-0.00218527 -0.000102644 -1.20336e-18)
(-0.00120607 -7.96943e-05 2.42431e-18)
(-0.00030782 -1.93176e-05 0)
(0.000980294 4.29274e-05 -4.92145e-18)
(0.00208836 0.000147091 2.47895e-18)
(0.0037638 0.000251067 2.49878e-18)
(0.0050774 0.00041006 2.51682e-18)
(0.00722532 0.000576268 2.53675e-18)
(0.00871988 0.000801559 0)
(0.0114244 0.00106039 2.57189e-18)
(0.0130453 0.00136101 -5.16994e-18)
(0.0163897 0.00173582 -5.20153e-18)
(0.0180568 0.00211338 0)
(0.0221228 0.00263213 1.06736e-21)
(0.0237398 0.00308342 5.2301e-18)
(0.0286133 0.00377842 0)
(0.0300832 0.00429649 -5.19509e-18)
(0.0358702 0.00520472 0)
(0.0371134 0.00572462 0)
(0.0439532 0.00694053 5.02282e-18)
(0.0449068 0.00742481 0)
(0.0530294 0.00898332 -4.75009e-18)
(0.0536273 0.00944712 4.53036e-18)
(0.0634199 0.0114541 0)
(0.0635783 0.0118731 3.95743e-18)
(0.0757805 0.0145072 -3.59877e-18)
(0.075328 0.0148392 0)
(0.0916772 0.0184824 0)
(0.0902892 0.0186331 0)
(0.117574 0.024356 1.67886e-18)
(0.558516 -0.0356209 0)
(0.237181 -0.0359854 0)
(0.119558 -0.0231417 0)
(0.0736211 -0.0146063 4.2386e-18)
(0.0469555 -0.00918066 -4.53656e-18)
(0.0302794 -0.00578086 -4.74932e-18)
(0.0187914 -0.00348019 -2.05508e-21)
(0.0106121 -0.00188967 -1.95602e-21)
(0.00458763 -0.000770513 -5.08617e-18)
(5.74033e-05 2.85936e-05 5.1329e-18)
(-0.00340287 0.000596181 0)
(-0.00609545 0.00100294 5.1772e-18)
(-0.00820545 0.00128602 1.03639e-17)
(-0.00989138 0.00148373 0)
(-0.0112386 0.00161064 0)
(-0.0123397 0.00169067 5.15387e-18)
(-0.013232 0.00172733 0)
(-0.0139754 0.00173793 0)
(-0.0145822 0.0017199 0)
(-0.0150953 0.00168775 -7.6218e-18)
(-0.0155124 0.00163502 5.06225e-18)
(-0.0158677 0.0015754 -2.52193e-18)
(-0.0161493 0.00149955 2.38169e-22)
(-0.0163877 0.00142164 2.50594e-18)
(-0.0165631 0.00132969 0)
(-0.0167055 0.00123922 0)
(-0.0167879 0.00113573 0)
(-0.0168414 0.00103673 0)
(-0.016835 0.000925723 0)
(-0.0167954 0.000819869 -1.23982e-18)
(-0.016679 0.00069902 1.23958e-18)
(-0.0165373 0.000591293 0)
(-0.0163061 0.000462468 -1.24107e-18)
(-0.0160427 0.000355334 -1.24279e-18)
(-0.0156623 0.000224385 6.22622e-19)
(-0.0152422 0.000123152 -3.12066e-19)
(-0.0146701 -1.41687e-06 -1.56512e-19)
(-0.0140534 -8.74703e-05 0)
(-0.0132334 -0.000197832 1.57728e-19)
(-0.0123697 -0.000261462 6.33859e-19)
(-0.0112328 -0.00035683 -6.37237e-19)
(-0.0100648 -0.000390695 1.28179e-18)
(-0.00851958 -0.000458848 1.29002e-18)
(-0.00698075 -0.000444023 0)
(-0.00491745 -0.000469124 -1.30849e-18)
(-0.00293878 -0.000385575 1.31862e-18)
(-0.000220318 -0.000340345 0)
(0.00225033 -0.000172153 -2.68206e-18)
(0.00579379 -2.56932e-05 5.41399e-18)
(0.00878892 0.000269195 0)
(0.0133676 0.000534354 -2.7586e-18)
(0.0168573 0.000984949 -2.78419e-18)
(0.0227059 0.00142458 -2.98043e-22)
(0.0265997 0.00205415 0)
(0.033964 0.00273947 -2.86639e-18)
(0.0380874 0.00356567 8.66814e-18)
(0.0472222 0.00457531 0)
(0.0513368 0.00560103 -5.86756e-18)
(0.062505 0.00702208 2.07713e-21)
(0.066335 0.0082299 5.93073e-18)
(0.0798187 0.0101634 0)
(0.0830889 0.0115218 3.68733e-21)
(0.0992182 0.0140879 0)
(0.101692 0.0155026 0)
(0.12091 0.0188989 0)
(0.122374 0.0203028 5.73245e-18)
(0.145352 0.024705 5.62781e-18)
(0.145601 0.026077 0)
(0.173431 0.0318022 5.17965e-18)
(0.172182 0.0330311 0)
(0.206888 0.0406436 8.85602e-18)
(0.203614 0.0414621 0)
(0.249732 0.0520272 -3.15652e-18)
(0.243518 0.052156 0)
(0.315865 0.067995 -2.15693e-18)
(0.731769 -0.0354935 0)
(0.394685 -0.0482761 0)
(0.22195 -0.035331 0)
(0.142877 -0.0241224 5.0973e-22)
(0.0959821 -0.0161025 4.53839e-18)
(0.0659955 -0.0107439 9.50083e-18)
(0.0451293 -0.00700741 -1.45039e-21)
(0.0300868 -0.00436476 -5.01174e-18)
(0.018897 -0.0024688 -5.08445e-18)
(0.0103948 -0.00108856 -5.1342e-18)
(0.00383839 -8.70691e-05 0)
(-0.00130935 0.00064915 -5.17825e-18)
(-0.00537877 0.00117816 -5.18227e-18)
(-0.00865469 0.00156369 0)
(-0.0112927 0.00182805 -5.16769e-18)
(-0.0134607 0.00201229 -6.991e-22)
(-0.0152292 0.00212084 0)
(-0.0167073 0.0021842 -5.11902e-18)
(-0.01792 0.00219666 0)
(-0.0189463 0.00218433 5.08094e-18)
(-0.0197843 0.00213482 -2.23107e-22)
(-0.0204969 0.00207311 2.04755e-22)
(-0.0210649 0.00198181 2.51362e-18)
(-0.0215442 0.0018868 0)
(-0.0219014 0.00176608 0)
(-0.0221909 0.00164802 0)
(-0.0223669 0.00150612 0)
(-0.0224854 0.00137238 0)
(-0.0224923 0.0012168 1.24054e-18)
(-0.0224386 0.001071 0)
(-0.0222504 0.000893248 -1.23959e-18)
(-0.0220164 0.000736082 1.23994e-18)
(-0.0216265 0.000539923 3.76204e-23)
(-0.0211805 0.000385225 6.21389e-19)
(-0.0205387 0.000191278 0)
(-0.0198344 4.65785e-05 3.12066e-19)
(-0.0188795 -0.000142062 1.56512e-19)
(-0.017859 -0.000266839 0)
(-0.0165091 -0.000443998 -2.55536e-24)
(-0.015101 -0.000540928 -3.16927e-19)
(-0.0132537 -0.000700187 0)
(-0.0113771 -0.000750861 -6.40893e-19)
(-0.0088996 -0.000875431 -1.45081e-23)
(-0.00646336 -0.000853836 -1.29876e-18)
(-0.00319484 -0.000919711 1.3085e-18)
(-0.000106834 -0.000799276 0)
(0.00415531 -0.000763913 -1.32973e-18)
(0.00795328 -0.000515853 6.89777e-23)
(0.0134654 -0.000342299 -5.41393e-18)
(0.0179937 9.64914e-05 0)
(0.0250725 0.000451479 0)
(0.0302549 0.00112116 0)
(0.0392635 0.00174159 -2.81243e-18)
(0.0449247 0.00266913 0)
(0.0562611 0.00365236 0)
(0.0621028 0.00485274 -5.77806e-18)
(0.0761913 0.00632961 5.83079e-18)
(0.0818211 0.00779928 1.42624e-21)
(0.0991095 0.00991323 5.91276e-18)
(0.104087 0.0116132 -2.09911e-21)
(0.125059 0.0145299 -5.95709e-18)
(0.128949 0.0163956 5.95033e-18)
(0.154168 0.0203137 0)
(0.156579 0.0222682 0)
(0.186777 0.0274351 0)
(0.18736 0.0293872 -5.73448e-18)
(0.223593 0.0361469 0)
(0.222006 0.0379831 0)
(0.265961 0.0468406 -1.05685e-20)
(0.261734 0.0483685 0)
(0.31645 0.0601848 -4.42266e-18)
(0.308755 0.0609912 0)
(0.38073 0.0772963 3.15911e-18)
(0.36859 0.0767736 0)
(0.47578 0.0994348 0)
(0.843549 -0.0287869 0)
(0.535711 -0.0541025 3.27081e-18)
(0.332571 -0.0446871 0)
(0.224343 -0.0328199 -4.24259e-18)
(0.157124 -0.023102 -4.53835e-18)
(0.11288 -0.0161768 -4.75137e-18)
(0.0816536 -0.0111713 -4.90421e-18)
(0.0588446 -0.0075398 0)
(0.041705 -0.00488183 1.01705e-17)
(0.0285554 -0.00290974 0)
(0.0183281 -0.00145157 0)
(0.010235 -0.000356381 0)
(0.00379022 0.000450192 0)
(-0.00143072 0.00105653 0)
(-0.00566094 0.0014903 6.44908e-22)
(-0.00915391 0.00181062 -5.94492e-22)
(-0.0120174 0.00202078 -5.1373e-18)
(-0.0144181 0.00216622 5.05507e-22)
(-0.0163956 0.00223608 2.54997e-18)
(-0.0180714 0.00227025 -5.08084e-18)
(-0.0194444 0.00224812 -2.53109e-18)
(-0.0206122 0.0022086 5.04383e-18)
(-0.0215469 0.0021235 0)
(-0.0223355 0.00203359 0)
(-0.0229286 0.00190349 0)
(-0.023411 0.0017783 -2.49269e-18)
(-0.0237144 0.00161519 0)
(-0.0239266 0.00146581 0)
(-0.0239642 0.00128017 -1.24056e-18)
(-0.0239117 0.00111286 0)
(-0.0236601 0.000892929 1.23951e-18)
(-0.0233414 0.000704322 -4.20575e-23)
(-0.0227915 0.000464749 1.24105e-18)
(-0.022167 0.000278482 0)
(-0.0212609 3.45153e-05 0)
(-0.0202786 -0.00014214 0)
(-0.0189418 -0.000384707 0)
(-0.0175334 -0.000540263 0)
(-0.0156659 -0.000774639 -1.57725e-19)
(-0.0137475 -0.000896694 0)
(-0.011223 -0.00111194 0)
(-0.00870172 -0.00117794 0)
(-0.00535749 -0.00135452 -1.29002e-18)
(-0.00213102 -0.00133642 1.50402e-23)
(0.00222975 -0.00143659 0)
(0.00625863 -0.00129947 0)
(0.0118909 -0.0012859 2.65948e-18)
(0.0167659 -0.00098552 2.68211e-18)
(0.0239927 -0.000806247 5.72203e-23)
(0.0297028 -0.000276156 2.7314e-18)
(0.038928 0.000135787 0)
(0.0453341 0.000942264 0)
(0.0570319 0.00169672 0)
(0.0638627 0.00281184 -2.83734e-18)
(0.0785687 0.00403935 0)
(0.0854023 0.00547473 5.77768e-18)
(0.103703 0.00734359 -8.7466e-18)
(0.110004 0.0090825 5.86758e-18)
(0.132528 0.0117829 0)
(0.137709 0.0137665 -2.06062e-21)
(0.165139 0.0175183 5.95816e-18)
(0.168626 0.0196527 0)
(0.201746 0.0247193 0)
(0.203022 0.0268852 0)
(0.242826 0.0335983 -5.84499e-18)
(0.241432 0.0356491 0)
(0.28931 0.0444625 -5.60907e-18)
(0.284787 0.0462158 5.38596e-18)
(0.342909 0.0577895 -5.17419e-18)
(0.334656 0.0589956 0)
(0.406792 0.0743732 4.39567e-18)
(0.393871 0.074605 0)
(0.487559 0.0955462 0)
(0.46972 0.0939958 0)
(0.602479 0.120934 -9.6197e-19)
(0.916234 -0.0222018 2.97213e-18)
(0.656007 -0.0560158 -3.27236e-18)
(0.444094 -0.051361 0)
(0.314367 -0.0403163 0)
(0.228648 -0.0298066 4.5399e-18)
(0.170115 -0.0217659 0)
(0.127986 -0.0157126 0)
(0.096737 -0.0111973 0)
(0.0729852 -0.00782372 -5.08593e-18)
(0.0545781 -0.00527468 0)
(0.0401386 -0.00335755 0)
(0.0286255 -0.00189149 -5.17758e-18)
(0.0193948 -0.000790289 -5.18163e-18)
(0.011873 5.67042e-05 0)
(0.00574556 0.000681042 5.16838e-18)
(0.0006637 0.00115901 -5.15442e-18)
(-0.00351982 0.00149231 5.1378e-18)
(-0.00703817 0.00174104 5.11943e-18)
(-0.0099456 0.00188895 -2.55016e-18)
(-0.0124142 0.00198975 5.08077e-18)
(-0.0144422 0.00201449 0)
(-0.0161695 0.00201604 -1.64053e-22)
(-0.0175563 0.00195549 -2.51333e-18)
(-0.0187286 0.00188847 2.50555e-18)
(-0.0196165 0.00176633 2.49865e-18)
(-0.0203437 0.0016508 2.49275e-18)
(-0.0208125 0.00148301 2.48767e-18)
(-0.0211529 0.00133395 -2.48371e-18)
(-0.0212433 0.00113427 0)
(-0.0212142 0.000960375 0)
(-0.0209112 0.00071103 -1.23952e-18)
(-0.0205214 0.000509033 -3.98295e-23)
(-0.0198158 0.000239869 -1.24098e-18)
(-0.0190242 3.64124e-05 0)
(-0.0178557 -0.000243667 0)
(-0.0166099 -0.000439932 0)
(-0.0148965 -0.000724498 0)
(-0.0131247 -0.00090092 0)
(-0.0107549 -0.00118124 0)
(-0.00836941 -0.00132092 0)
(-0.00520119 -0.00158261 0)
(-0.00210714 -0.00166303 0)
(0.00204078 -0.00187954 1.29001e-18)
(0.00594556 -0.00187017 1.27124e-23)
(0.011297 -0.00200093 0)
(0.0160939 -0.00185647 0)
(0.0229434 -0.00186719 -1.32976e-18)
(0.0286506 -0.00153728 0)
(0.0373706 -0.00135735 2.70702e-18)
(0.0439285 -0.000778094 -2.73149e-18)
(0.0549947 -0.000320932 0)
(0.0621916 0.000556346 0)
(0.0761729 0.00142337 2.81216e-18)
(0.0836392 0.00263174 2.62719e-22)
(0.101193 0.00407023 -2.86562e-18)
(0.108391 0.00561686 -5.77732e-18)
(0.130251 0.00782529 2.91549e-18)
(0.136518 0.00967941 -5.86552e-18)
(0.163482 0.012885 0)
(0.168108 0.0149688 -2.10639e-21)
(0.201041 0.0194347 0)
(0.203338 0.0216276 5.94351e-18)
(0.24323 0.0276701 0)
(0.24258 0.0298126 0)
(0.290655 0.0378331 1.1688e-17)
(0.286512 0.0397333 0)
(0.344438 0.0502694 5.61105e-18)
(0.336275 0.0516931 -5.3881e-18)
(0.406568 0.0655184 0)
(0.393764 0.0661501 0)
(0.480612 0.0844393 -4.39817e-18)
(0.462431 0.0837935 0)
(0.573574 0.108278 0)
(0.551203 0.105769 -2.0315e-18)
(0.701634 0.135073 9.57011e-19)
(0.962314 -0.0171351 -2.97398e-18)
(0.754697 -0.0553411 0)
(0.550325 -0.0555054 0)
(0.408511 -0.0463053 0)
(0.308017 -0.0358508 -4.53926e-18)
(0.23632 -0.027198 0)
(0.183386 -0.0203799 0)
(0.143386 -0.0151355 -5.01135e-18)
(0.112568 -0.0111295 0)
(0.0884162 -0.00804598 0)
(0.0692944 -0.00568853 0)
(0.0539268 -0.00385596 1.03563e-17)
(0.0415212 -0.002456 5.16662e-22)
(0.0313528 -0.00135889 0)
(0.0230261 -0.000531544 0)
(0.01609 0.00011846 5.15402e-18)
(0.0103575 0.000590191 0)
(0.00552089 0.000958081 0)
(0.0015122 0.00120005 2.54997e-18)
(-0.00189964 0.00138334 -5.08073e-18)
(-0.00470929 0.00147072 0)
(-0.00710774 0.00152895 -1.40237e-22)
(-0.00903886 0.00150813 2.51343e-18)
(-0.0106771 0.00147901 -1.23577e-22)
(-0.011925 0.00137942 -1.14658e-22)
(-0.0129562 0.00128799 0)
(-0.0136352 0.00112949 -2.48771e-18)
(-0.014146 0.000994586 3.72558e-18)
(-0.0143179 0.000794109 -1.24045e-18)
(-0.0143424 0.000628915 1.23962e-18)
(-0.0140066 0.000362563 0)
(-0.0135682 0.000160284 -1.23988e-18)
(-0.0127177 -0.000125786 1.24098e-18)
(-0.0117798 -0.000334037 6.21326e-19)
(-0.0103576 -0.000638032 0)
(-0.00887254 -0.000842519 0)
(-0.00679421 -0.00115728 0)
(-0.00469357 -0.00134426 0)
(-0.00184194 -0.00165883 0)
(0.000958318 -0.00180924 0)
(0.00473338 -0.0021067 0)
(0.00832144 -0.00219681 -6.40869e-19)
(0.0132128 -0.0024445 -1.29001e-18)
(0.0176763 -0.00243952 1.29876e-18)
(0.0239267 -0.00260208 0)
(0.0293211 -0.00245293 -1.31859e-18)
(0.0372518 -0.00248326 0)
(0.0435579 -0.00214152 1.34104e-18)
(0.0535793 -0.00195845 0)
(0.0606785 -0.00136243 0)
(0.0733233 -0.000861814 0)
(0.0809283 3.52318e-05 0)
(0.0968436 0.00100578 -2.81232e-18)
(0.104492 0.00223356 2.83745e-18)
(0.124439 0.00386055 3.25586e-22)
(0.13149 0.00541969 5.77693e-18)
(0.156329 0.00792626 -2.91472e-18)
(0.162019 0.00977424 5.86618e-18)
(0.192691 0.0134157 0)
(0.196212 0.0154586 -2.18194e-21)
(0.23375 0.0205308 5.95268e-18)
(0.234324 0.0226253 -5.94461e-18)
(0.279897 0.0294846 0)
(0.276834 0.0314417 0)
(0.33186 0.0405402 -5.32874e-21)
(0.324564 0.0421323 0)
(0.390921 0.0540714 0)
(0.378857 0.0550245 0)
(0.459276 0.0706502 0)
(0.441932 0.070616 0)
(0.540718 0.0911469 0)
(0.517855 0.0896731 3.73458e-18)
(0.642294 0.116602 -3.08217e-18)
(0.616974 0.113521 2.03304e-18)
(0.778826 0.143574 0)
(0.989863 -0.0133861 0)
(0.832607 -0.0530067 0)
(0.646664 -0.0574204 -3.86944e-18)
(0.502154 -0.050626 0)
(0.392024 -0.0409237 4.54062e-18)
(0.309498 -0.0321663 -4.75079e-18)
(0.246651 -0.0249101 0)
(0.19809 -0.0191362 9.16287e-22)
(0.160065 -0.0146187 0)
(0.129875 -0.0110724 0)
(0.105724 -0.00831613 0)
(0.0861433 -0.0061394 -5.17862e-18)
(0.0702203 -0.00445087 4.15846e-22)
(0.0570866 -0.0031058 0)
(0.0462737 -0.00207258 0)
(0.0372244 -0.00124413 -5.15449e-18)
(0.0297155 -0.000625515 -2.56876e-18)
(0.0233577 -0.000128413 -2.55956e-18)
(0.0180722 0.00021839 -2.55012e-18)
(0.0135607 0.000495669 5.08072e-18)
(0.00983603 0.000657334 0)
(0.006647 0.000784245 -2.52186e-18)
(0.00407179 0.000814991 2.51328e-18)
(0.00187737 0.000835799 -2.50558e-18)
(0.000195897 0.000770539 -2.49867e-18)
(-0.00120737 0.000715007 0)
(-0.00214956 0.000577389 -2.48757e-18)
(-0.00288223 0.000468197 -2.48364e-18)
(-0.00317275 0.000278153 1.24046e-18)
(-0.00329125 0.000134581 -2.47922e-18)
(-0.00294962 -0.000137838 1.23942e-18)
(-0.00249524 -0.000328959 0)
(-0.00151977 -0.000620577 0)
(-0.000467208 -0.000823096 -6.21327e-19)
(0.00119115 -0.00113965 6.22537e-19)
(0.00287997 -0.00134243 0)
(0.00530325 -0.00167629 0)
(0.0076873 -0.00186428 0)
(0.0109929 -0.00220213 0)
(0.0141454 -0.00235536 0)
(0.0184865 -0.00267808 -6.372e-19)
(0.0224805 -0.00276977 6.40872e-19)
(0.0280552 -0.00304345 0)
(0.0329547 -0.00303807 0)
(0.040017 -0.00322355 -1.30851e-18)
(0.0458428 -0.0030737 1.31861e-18)
(0.054732 -0.00311418 0)
(0.0614191 -0.00277375 -2.5643e-23)
(0.0725734 -0.00257928 0)
(0.0799405 -0.0019912 0)
(0.0939354 -0.00144194 0)
(0.101623 -0.000564128 0)
(0.119166 0.000508903 -2.81209e-18)
(0.126631 0.00170066 0)
(0.148564 0.00350298 5.7311e-18)
(0.155085 0.00500231 -5.77649e-18)
(0.182368 0.00777537 2.915e-18)
(0.187104 0.00953052 2.93194e-18)
(0.220802 0.0135491 2.95372e-18)
(0.222871 0.0154538 -5.92678e-18)
(0.264153 0.0210359 -5.95362e-18)
(0.26272 0.0229297 0)
(0.312906 0.0304591 0)
(0.307235 0.0321314 0)
(0.367898 0.0420946 -5.83908e-18)
(0.357383 0.0432924 -5.70949e-18)
(0.430545 0.0563316 5.59229e-18)
(0.414711 0.0567591 0)
(0.503186 0.0737518 0)
(0.481759 0.0730681 0)
(0.589726 0.0951953 -4.35957e-18)
(0.563183 0.0930691 -3.7367e-18)
(0.697065 0.121446 1.97996e-20)
(0.670389 0.1182 0)
(0.838968 0.147854 -8.7533e-19)
(1.0046 -0.0106581 0)
(0.891558 -0.0497638 0)
(0.730168 -0.0575245 3.87099e-18)
(0.591067 -0.0532803 0)
(0.477085 -0.0448167 4.53804e-18)
(0.387085 -0.0364082 4.75199e-18)
(0.316063 -0.0290515 0)
(0.259736 -0.0229786 5.01257e-18)
(0.214775 -0.0181023 0)
(0.178534 -0.0141932 0)
(0.14919 -0.0111031 0)
(0.125162 -0.00862366 0)
(0.105461 -0.00667229 5.18274e-18)
(0.0890959 -0.00509418 0)
(0.0755431 -0.00386271 5.16838e-18)
(0.0641422 -0.00285823 0)
(0.0546405 -0.00209171 2.56895e-18)
(0.0465635 -0.0014617 2.55972e-18)
(0.0398262 -0.00100483 -2.55003e-18)
(0.034056 -0.000626704 -5.08073e-18)
(0.0292785 -0.000383398 2.53085e-18)
(0.0251731 -0.000179578 -2.52174e-18)
(0.021847 -8.8787e-05 -2.51335e-18)
(0.0189976 -9.07152e-06 -2.50546e-18)
(0.0168008 -3.09954e-05 -2.49855e-18)
(0.0149478 -4.13137e-05 0)
(0.0136804 -0.000148829 2.4876e-18)
(0.0126639 -0.000222958 1.24181e-18)
(0.0122079 -0.00039349 -1.2404e-18)
(0.0119436 -0.00050718 1.2396e-18)
(0.0122541 -0.000773371 -1.23942e-18)
(0.0126799 -0.000943655 1.2398e-18)
(0.0137501 -0.00123109 -6.20452e-19)
(0.0148733 -0.00141846 0)
(0.0167399 -0.00173768 -6.22537e-19)
(0.0185842 -0.00192966 0)
(0.0213226 -0.00227239 1.56496e-19)
(0.0239322 -0.0024527 0)
(0.0276555 -0.0028037 -1.57716e-19)
(0.0310863 -0.00295128 0)
(0.0359463 -0.00328902 6.37203e-19)
(0.0402496 -0.00337626 0)
(0.0464446 -0.00366524 0)
(0.051654 -0.00365716 0)
(0.0594433 -0.0038528 2.61704e-18)
(0.0655391 -0.00370521 0)
(0.0752725 -0.0037433 1.32978e-18)
(0.0821401 -0.00341359 -2.68213e-18)
(0.0942745 -0.0031954 2.70704e-18)
(0.101671 -0.00263334 0)
(0.116811 -0.00202567 0)
(0.124314 -0.00119527 0)
(0.143207 -1.60461e-05 2.81224e-18)
(0.150211 0.00110086 2.83692e-18)
(0.173755 0.00307068 -2.86558e-18)
(0.17948 0.00446165 5.77596e-18)
(0.208711 0.00747519 2.91407e-18)
(0.212264 0.00908184 -2.93225e-18)
(0.248338 0.0134251 -2.95408e-18)
(0.248795 0.0151328 0)
(0.292992 0.021136 0)
(0.289482 0.022773 0)
(0.343242 0.0308355 0)
(0.335014 0.0321774 0)
(0.400024 0.0428046 0)
(0.386499 0.0435852 6.8449e-21)
(0.464861 0.0574368 -5.59398e-18)
(0.445687 0.0573588 0)
(0.540193 0.075307 0)
(0.51543 0.0740716 0)
(0.629963 0.0971981 4.36166e-18)
(0.600917 0.0946491 0)
(0.74089 0.123626 1.9511e-20)
(0.71418 0.120552 0)
(0.886124 0.149077 8.73485e-19)
(1.01085 -0.00874175 0)
(0.934006 -0.0461674 -3.4105e-18)
(0.799426 -0.0562727 0)
(0.671831 -0.0544061 0)
(0.559618 -0.0474412 -2.84866e-21)
(0.466126 -0.0397334 4.7486e-18)
(0.389416 -0.0325882 0)
(0.326757 -0.0264557 0)
(0.275618 -0.0213942 -5.08567e-18)
(0.233665 -0.0172453 0)
(0.199219 -0.0139075 0)
(0.170688 -0.0111852 -5.17866e-18)
(0.147071 -0.00901228 0)
(0.127297 -0.00722918 0)
(0.11081 -0.00581811 -5.16881e-18)
(0.0968586 -0.00464927 0)
(0.0851744 -0.00374166 0)
(0.0751963 -0.00298176 2.55967e-18)
(0.0668415 -0.00241531 2.55015e-18)
(0.0596572 -0.00193461 5.08077e-18)
(0.0536893 -0.00160662 -2.53095e-18)
(0.048539 -0.00132153 2.52182e-18)
(0.0443505 -0.00116564 -2.51327e-18)
(0.0407407 -0.00102112 6.14163e-23)
(0.0379393 -0.000993519 5.64489e-23)
(0.0355498 -0.000951783 0)
(0.0338859 -0.00102231 0)
(0.0325129 -0.00105419 1.24177e-18)
(0.0318339 -0.00119818 1.24041e-18)
(0.0313603 -0.00127729 0)
(0.0315922 -0.00152491 1.23938e-18)
(0.0319318 -0.00166634 -1.2398e-18)
(0.0330551 -0.00194138 6.20452e-19)
(0.0341912 -0.00210532 6.21293e-19)
(0.0362266 -0.00241883 0)
(0.0381646 -0.00259184 3.12024e-19)
(0.041177 -0.00293401 -3.1299e-19)
(0.0439412 -0.00309904 0)
(0.0480359 -0.00345307 3.15431e-19)
(0.0516596 -0.00358823 -3.16902e-19)
(0.0569827 -0.00393011 0)
(0.0614902 -0.00400808 -6.40864e-19)
(0.0682367 -0.0042999 0)
(0.0736266 -0.00428709 0)
(0.0820563 -0.00447936 -2.61707e-18)
(0.0882654 -0.00433557 0)
(0.098732 -0.00435711 -1.32981e-18)
(0.105597 -0.00404457 3.18337e-23)
(0.118566 -0.00378854 -4.06065e-18)
(0.125789 -0.00326472 0)
(0.141879 -0.0025872 0)
(0.148987 -0.0018226 0)
(0.168969 -0.000532143 2.81191e-18)
(0.175311 0.000485846 -2.8371e-18)
(0.200115 0.00261652 -2.86497e-18)
(0.204879 0.00387093 -5.77533e-18)
(0.235589 0.0071004 -2.91434e-18)
(0.237856 0.00852883 0)
(0.275693 0.0131468 0)
(0.27452 0.0146303 -2.96051e-18)
(0.320844 0.0209707 0)
(0.315352 0.0223317 -5.93386e-18)
(0.371691 0.0307984 0)
(0.36114 0.0318069 0)
(0.429259 0.0429099 -5.82491e-18)
(0.413129 0.0432982 7.04099e-21)
(0.495159 0.0576939 0)
(0.473263 0.0571815 -5.34972e-18)
(0.571896 0.0757065 0)
(0.544687 0.0740625 0)
(0.663426 0.0976602 4.33492e-18)
(0.633024 0.0949252 0)
(0.776336 0.123827 3.04844e-18)
(0.750534 0.121159 0)
(0.923528 0.148128 0)
(1.01188 -0.00745082 0)
(0.962776 -0.0425807 6.85004e-18)
(0.85434 -0.054097 0)
(0.742085 -0.054236 0)
(0.636427 -0.0488231 -4.53768e-18)
(0.543543 -0.0420402 -4.74969e-18)
(0.464138 -0.0353599 0)
(0.397152 -0.0293909 -5.01e-18)
(0.341097 -0.0243226 1.01716e-17)
(0.294178 -0.0200703 0)
(0.255033 -0.0165868 0)
(0.222174 -0.0136972 1.0358e-17)
(0.19468 -0.0113585 0)
(0.171442 -0.00941108 0)
(0.151919 -0.00784996 0)
(0.135285 -0.00653791 0)
(0.121275 -0.00550409 0)
(0.109246 -0.00462433 -5.11953e-18)
(0.0991305 -0.00395475 0)
(0.0903906 -0.00337506 -2.54044e-18)
(0.0831031 -0.00296388 -2.53091e-18)
(0.0767822 -0.00259723 -2.52177e-18)
(0.0716201 -0.00237475 2.51333e-18)
(0.0671411 -0.00216276 5.01095e-18)
(0.0636413 -0.00208224 4.9971e-18)
(0.0606212 -0.00198431 -2.49247e-18)
(0.0584819 -0.00201323 0)
(0.0566701 -0.00199788 -1.24177e-18)
(0.0557005 -0.00211016 0)
(0.0549427 -0.0021508 0)
(0.0550381 -0.00237048 -2.47875e-18)
(0.0552204 -0.00247681 0)
(0.0563431 -0.0027325 0)
(0.0574212 -0.00286653 -5.38285e-24)
(0.0595734 -0.0031666 0)
(0.0615296 -0.0033141 -3.12024e-19)
(0.0647628 -0.00364705 1.56494e-19)
(0.0675974 -0.00379048 0)
(0.0720054 -0.00413784 -1.57715e-19)
(0.0757249 -0.00425512 3.16903e-19)
(0.0814455 -0.00459037 0)
(0.0860435 -0.00465496 2.70901e-24)
(0.0932646 -0.0049374 0)
(0.0987023 -0.00491785 0)
(0.10768 -0.00509327 2.61709e-18)
(0.113851 -0.00495395 0)
(0.124937 -0.00494467 0)
(0.131632 -0.00465327 1.34109e-18)
(0.145292 -0.00434555 4.27197e-23)
(0.152168 -0.00386717 2.73135e-18)
(0.16902 -0.00310921 0)
(0.175569 -0.00242035 -2.78355e-18)
(0.196388 -0.00101509 -2.81207e-18)
(0.201933 -0.000107686 2.83652e-18)
(0.227662 0.00217559 5.72986e-18)
(0.23138 0.00328173 2.88761e-18)
(0.263126 0.00670169 0)
(0.264096 0.00794256 0)
(0.30312 0.0127866 0)
(0.300403 0.0140423 2.96089e-18)
(0.34812 0.0206404 -2.97228e-18)
(0.340849 0.0217329 3.89851e-21)
(0.398847 0.0304843 0)
(0.386316 0.031185 0)
(0.456402 0.0425914 5.82621e-18)
(0.438174 0.0426419 5.70003e-18)
(0.522468 0.0573397 0)
(0.498549 0.05649 5.35139e-18)
(0.599603 0.0752583 0)
(0.570838 0.0733606 -4.72062e-18)
(0.691771 0.0969866 -4.33682e-18)
(0.66099 0.0942717 0)
(0.805514 0.122592 -3.01191e-18)
(0.781191 0.120466 0)
(0.953685 0.145662 -8.1065e-19)
(1.01015 -0.00660931 0)
(0.980809 -0.0392152 -3.43955e-18)
(0.895844 -0.051372 0)
(0.800602 -0.0530533 4.2485e-18)
(0.705011 -0.0490835 0)
(0.616455 -0.0433184 0)
(0.537511 -0.0372757 0)
(0.468595 -0.0316537 1.00192e-17)
(0.409331 -0.0267434 -5.08586e-18)
(0.3586 -0.0225247 -5.13365e-18)
(0.315502 -0.0190054 0)
(0.27877 -0.0160349 -5.17924e-18)
(0.24765 -0.0135972 -5.18281e-18)
(0.221064 -0.0115371 0)
(0.198529 -0.00986552 2.58444e-18)
(0.179176 -0.00844039 0)
(0.16277 -0.0073032 0)
(0.148595 -0.00632062 2.55984e-18)
(0.136613 -0.00556052 0)
(0.126204 -0.00489083 2.54043e-18)
(0.117487 -0.00440272 2.53097e-18)
(0.109883 -0.00395843 2.52183e-18)
(0.103643 -0.00367157 2.5133e-18)
(0.098189 -0.00339283 -5.01095e-18)
(0.0938968 -0.00325892 -2.49856e-18)
(0.0901492 -0.00310341 2.49249e-18)
(0.0874507 -0.00308848 0)
(0.0851103 -0.00302322 1.24175e-18)
(0.0837748 -0.00310041 0)
(0.0826481 -0.00309363 1.23953e-18)
(0.0825388 -0.00328475 1.23937e-18)
(0.0824809 -0.00335185 -1.23976e-18)
(0.0835381 -0.00358258 0)
(0.084474 -0.00368189 -2.2481e-24)
(0.0866793 -0.00396184 -6.22515e-19)
(0.0885648 -0.00407879 0)
(0.0919532 -0.00439477 -1.56494e-19)
(0.0947611 -0.00451169 0)
(0.0994126 -0.00484347 1.57715e-19)
(0.10312 -0.00493859 0)
(0.10916 -0.00525708 6.37206e-19)
(0.113727 -0.00530507 1.34542e-24)
(0.121336 -0.00556665 0)
(0.126686 -0.00553873 1.29877e-18)
(0.136111 -0.00568458 -1.30856e-18)
(0.142098 -0.00554989 -1.31862e-18)
(0.153681 -0.00549669 1.32981e-18)
(0.160056 -0.00522836 0)
(0.174256 -0.00485701 2.70709e-18)
(0.180641 -0.00442705 -2.73144e-18)
(0.198063 -0.00358072 0)
(0.203929 -0.00297069 2.78368e-18)
(0.225338 -0.00145021 -2.8116e-18)
(0.230001 -0.000655363 -5.67293e-18)
(0.256336 0.0017693 -2.86489e-18)
(0.258978 0.0027278 -2.88651e-18)
(0.291349 0.00631111 0)
(0.291068 0.00736965 -2.92946e-18)
(0.330754 0.0123918 0)
(0.326636 0.0134324 0)
(0.375084 0.0202138 2.97269e-18)
(0.36629 0.0210621 5.93183e-18)
(0.425123 0.0299894 0)
(0.410999 0.0304246 0)
(0.48204 0.0419814 5.81529e-18)
(0.462248 0.0417625 0)
(0.547579 0.0565518 5.56679e-18)
(0.522318 0.0554684 0)
(0.624344 0.0741994 0)
(0.594816 0.0721903 4.72239e-18)
(0.716322 0.0954939 4.30994e-18)
(0.685908 0.092955 0)
(0.830086 0.120342 6.00831e-18)
(0.807517 0.118809 -1.9304e-18)
(0.978494 0.142154 8.09958e-19)
(1.00732 -0.00606693 0)
(0.990923 -0.0361734 0)
(0.925606 -0.0483974 -3.9078e-18)
(0.847221 -0.0511513 -1.36346e-21)
(0.763756 -0.04841 0)
(0.682468 -0.0436405 0)
(0.606929 -0.0383191 0)
(0.538621 -0.0331713 -2.97954e-21)
(0.478154 -0.0285531 -5.08263e-18)
(0.425113 -0.0244921 1.02669e-17)
(0.379142 -0.0210442 0)
(0.339285 -0.0180823 -5.17833e-18)
(0.30504 -0.015619 5.18319e-18)
(0.275421 -0.0135055 0)
(0.250062 -0.0117709 -1.30805e-22)
(0.228081 -0.0102705 0)
(0.209307 -0.00905994 0)
(0.192967 -0.00799819 -2.55983e-18)
(0.179075 -0.00716608 -2.55022e-18)
(0.166928 -0.00642076 -5.08096e-18)
(0.156705 -0.00586669 0)
(0.147729 -0.00535303 0)
(0.140325 -0.00500776 -5.02666e-18)
(0.133802 -0.00466646 2.50549e-18)
(0.128631 -0.00448176 0)
(0.124062 -0.00427013 0)
(0.12072 -0.00421155 0)
(0.117759 -0.0040961 -1.24175e-18)
(0.115979 -0.0041369 1.24037e-18)
(0.114391 -0.00407728 -4.29462e-24)
(0.114 -0.00423953 -1.23937e-18)
(0.11361 -0.00426522 1.23975e-18)
(0.114527 -0.00446683 0)
(0.115226 -0.00452826 -1.24256e-18)
(0.117409 -0.00478268 6.22513e-19)
(0.119123 -0.00486561 0)
(0.122589 -0.00515797 1.56493e-19)
(0.125263 -0.00524492 0)
(0.130075 -0.00555322 -1.57715e-19)
(0.133652 -0.00562316 0)
(0.139924 -0.00591578 -6.37209e-19)
(0.144332 -0.00594497 1.28175e-18)
(0.15223 -0.00617534 0)
(0.157356 -0.00613794 -1.29879e-18)
(0.167115 -0.00624306 1.30857e-18)
(0.172776 -0.00611282 2.20592e-23)
(0.184727 -0.00600477 -1.32984e-18)
(0.190643 -0.00575981 -1.34104e-18)
(0.205226 -0.00531589 -5.82454e-23)
(0.210996 -0.00493398 0)
(0.228796 -0.00399505 0)
(0.233881 -0.00346176 0)
(0.255643 -0.00182954 5.62313e-18)
(0.259368 -0.00114229 2.83642e-18)
(0.286008 0.00140927 -2.86396e-18)
(0.287577 0.00222911 5.7727e-18)
(0.320199 0.00594702 2.91198e-18)
(0.318742 0.00683766 2.92974e-18)
(0.358626 0.0119915 0)
(0.353268 0.012839 0)
(0.401872 0.0197351 0)
(0.39182 0.0203723 0)
(0.450782 0.029379 0)
(0.435444 0.0295975 0)
(0.506585 0.0411729 -1.16267e-17)
(0.485723 0.0407545 5.68053e-18)
(0.571077 0.0554599 -5.56822e-18)
(0.54507 0.0542381 5.3252e-18)
(0.646905 0.0727072 -5.09477e-18)
(0.617254 0.070703 0)
(0.7381 0.0934226 -4.31167e-18)
(0.708563 0.0911617 3.64731e-18)
(0.851316 0.117389 -5.9743e-18)
(0.830566 0.116442 1.9315e-18)
(0.99937 0.137941 0)
(1.00445 -0.00570668 0)
(0.995627 -0.0334826 -3.51485e-18)
(0.945714 -0.0453916 3.90942e-18)
(0.882676 -0.0488006 -8.49874e-18)
(0.811989 -0.0470237 -4.5251e-18)
(0.739897 -0.0431423 0)
(0.670172 -0.0385441 0)
(0.604857 -0.033934 -5.00698e-18)
(0.545287 -0.0296988 2.69746e-21)
(0.491661 -0.0258935 -5.13321e-18)
(0.444168 -0.0226105 0)
(0.402206 -0.0197417 5.17872e-18)
(0.365588 -0.0173259 0)
(0.333471 -0.0152211 0)
(0.305659 -0.0134755 -2.58458e-18)
(0.281294 -0.0119432 -2.57741e-18)
(0.260308 -0.0106948 0)
(0.241885 -0.00958299 2.5599e-18)
(0.22612 -0.00870258 2.55028e-18)
(0.212232 -0.00790089 2.70027e-23)
(0.200478 -0.00729632 -2.531e-18)
(0.190081 -0.00672571 0)
(0.181458 -0.00633173 2.51335e-18)
(0.173795 -0.00593554 0)
(0.167674 -0.00570566 -1.24928e-18)
(0.1622 -0.00544231 0)
(0.15814 -0.00534277 1.24375e-18)
(0.154468 -0.00517934 0)
(0.152165 -0.00518431 -1.24037e-18)
(0.15002 -0.00508523 -2.47905e-18)
(0.149268 -0.0052048 1.23936e-18)
(0.148449 -0.00518789 6.19879e-19)
(0.149145 -0.00535778 -6.20438e-19)
(0.149503 -0.00537992 -3.68086e-24)
(0.15158 -0.00560475 0)
(0.153014 -0.00565182 -3.12022e-19)
(0.15647 -0.00591519 0)
(0.158892 -0.00597022 0)
(0.163773 -0.00624839 0)
(0.167095 -0.00629147 3.16906e-19)
(0.173497 -0.00655043 0)
(0.177614 -0.00655968 1.06285e-24)
(0.18569 -0.00675012 6.45035e-19)
(0.190455 -0.00670268 -6.49395e-19)