/*--------------------------------*- C++ -*----------------------------------*\
| =========                 |                                                 |
| \\      /  F ield         | OpenFOAM: The Open Source CFD Toolbox           |
|  \\    /   O peration     | Version:  2.4.0                                 |
|   \\  /    A nd           | Web:      www.OpenFOAM.org                      |
|    \\/     M anipulation  |                                                 |
\*---------------------------------------------------------------------------*/
FoamFile
{
    version     2.0;
    format      ascii;
    class       volVectorField;
    location    "0.28";
    object      U_0;
}
// * * * * * * * * * * * * * * * * * * * * * * * * * * * * * * * * * * * * * //

dimensions      [0 1 -1 0 0 0 0];

internalField   nonuniform List<vector> 
2320
(
(1.24837 0.039255 0)
(0.641201 -0.0286166 0)
(1.3701 0.0068872 0)
(0.46076 0.0156673 0)
(1.36884 -0.0328492 0)
(0.515602 0.0375255 0)
(1.18209 -0.0491286 0)
(0.635229 0.0166965 0)
(1.2821 0.0112752 0)
(0.37125 -0.0719302 0)
(1.56859 0.120434 0)
(0.289895 -0.111587 0)
(1.51341 0.00359647 0)
(0.370265 0.171325 0)
(1.60813 -0.26396 0)
(0.279364 0.262926 0)
(1.60453 0.0827025 0)
(0.699903 -0.235896 0)
(1.59838 0.288753 0)
(0.34252 0.0558196 0)
(1.00057 0.028326 0)
(1.03985 -0.0663229 0)
(1.02065 0.110075 0)
(0.999786 -0.0417554 0)
(0.996115 0.036086 0)
(1.07355 0.0199721 0)
(0.839128 0.0301779 0)
(1.09431 -0.113376 0)
(0.981782 0.146197 0)
(0.953673 -0.106825 0)
(0.989595 -0.0536407 0)
(1.38637 0.113514 0)
(0.524764 -0.0107586 0)
(1.4981 -0.2682 0)
(1.15808 0.354667 0)
(0.544725 -0.319939 0)
(1.83505 -0.223772 0)
(0.741835 0.135651 0)
(1.27937 -0.0204881 0)
(1.36284 -0.162435 0)
(1.0919 0.0393552 0)
(0.784656 -0.0674636 0)
(1.21683 0.0684317 0)
(0.714165 -0.00346793 0)
(1.18621 -0.0315424 0)
(0.816147 0.0738323 0)
(1.03837 -0.0149682 0)
(0.829531 -0.0829884 0)
(1.09646 0.135884 0)
(0.586908 -0.113019 0)
(1.19082 -0.0461442 0)
(0.618366 0.0848509 0)
(1.18407 -0.0562548 0)
(0.720628 -0.119851 0)
(1.00282 0.201062 0)
(1.07036 -0.156372 0)
(0.713737 0.0831498 0)
(1.40027 -0.0397818 0)
(0.644784 0.0726 0)
(1.42792 -0.0223026 0)
(1.05256 0.0963939 0)
(0.911821 -0.165717 0)
(1.13803 0.161839 0)
(0.921617 -0.0543625 0)
(1.05819 0.0117901 0)
(0.999524 0.0618926 0)
(0.999139 0.0602081 0)
(0.826792 -0.182723 0)
(1.22761 0.26865 0)
(0.666782 -0.15723 0)
(1.17891 -0.0514755 0)
(0.791262 0.121402 0)
(1.14964 -0.0353782 0)
(0.809376 -0.233144 0)
(1.04046 0.301948 0)
(1.01837 -0.203201 0)
(1.05805 -0.332815 0)
(1.06512 0.110209 0)
(0.906375 0.0636085 0)
(1.26397 -0.254242 0)
(1.05093 0.0799501 0)
(0.87698 -0.138038 0)
(1.12256 0.111958 0)
(0.938588 0.0116276 0)
(0.948958 -0.0337787 0)
(1.10755 0.058908 0)
(0.89351 0.127069 0)
(0.861334 -0.261612 0)
(1.2561 0.269216 0)
(0.644479 -0.125244 0)
(1.19199 -0.0882839 0)
(0.823789 0.0691044 0)
(1.14365 -0.0298505 0)
(0.781609 -0.0816721 0)
(1.14641 0.130223 0)
(0.654052 -0.221358 0)
(1.29761 0.143078 0)
(0.550771 -0.054048 0)
(1.23185 0.00795493 0)
(1.16243 -0.280233 0)
(1.09321 0.134987 0)
(0.827219 -0.22865 0)
(1.14675 0.145084 0)
(0.939683 0.00547959 0)
(0.985756 -0.0513746 0)
(1.04687 0.0594095 0)
(1.02399 0.202833 0)
(0.828885 -0.390053 0)
(1.20817 0.363743 0)
(0.941025 -0.10137 0)
(0.981294 -0.177207 0)
(1.08556 0.147479 0)
(1.01438 -0.0112015 0)
(0.910437 -0.309394 0)
(1.47761 0.345926 0)
(0.609913 -0.370096 0)
(1.78726 -0.256691 0)
(0.616724 0.143518 0)
(2.02033 -0.160375 0)
(0.867426 -0.242914 0)
(1.089 0.135803 0)
(0.859308 -0.193542 0)
(1.06853 0.0957094 0)
(1.04181 0.0667081 0)
(0.901951 -0.050822 0)
(1.12228 -0.00434205 0)
(1.02832 0.286426 0)
(0.899327 -0.40926 0)
(1.08801 0.293436 0)
(1.09791 0.00697896 0)
(0.838488 -0.184426 0)
(1.17137 0.0633209 0)
(1.00331 0.0855186 0)
(1.12319 -0.318325 0)
(0.946426 0.3682 0)
(1.45837 -0.366917 0)
(0.817618 0.156231 0)
(1.35937 -0.26211 0)
(1.34354 -0.0811444 0)
(1.42398 -0.0940741 0)
(1.1393 0.159987 0)
(0.81053 -0.227545 0)
(1.11115 0.0689145 0)
(0.932939 0.0761758 0)
(1.07845 -0.0804492 0)
(0.938113 -0.0256872 0)
(1.17311 0.316206 0)
(0.922095 -0.423447 0)
(1.08744 0.23724 0)
(1.09552 0.0264304 0)
(1.05177 -0.267842 0)
(0.926484 0.128231 0)
(1.30566 -0.0285548 0)
(0.74737 -0.267762 0)
(1.39948 0.19157 0)
(0.977582 -0.260655 0)
(1.04773 -0.170131 0)
(1.30621 -0.124009 0)
(0.537662 -0.090933 0)
(2.02853 -0.341449 0)
(1.12439 0.166378 0)
(0.905081 -0.196227 0)
(1.05899 0.0456961 0)
(0.987576 0.0707594 0)
(1.11968 -0.0295748 0)
(0.932195 -0.0927384 0)
(1.15258 0.337871 0)
(1.12819 -0.339382 0)
(0.799657 0.235864 0)
(1.387 0.0408535 0)
(0.661081 -0.115669 0)
(1.29304 -0.0539904 0)
(0.900664 0.159072 0)
(1.2052 -0.388336 0)
(1.05082 0.196128 0)
(1.4853 -0.241294 0)
(1.03926 -0.0523286 0)
(1.47657 -0.0747129 0)
(1.14112 -0.446371 0)
(1.30071 -0.1017 0)
(1.12268 0.14285 0)
(0.946229 -0.177917 0)
(1.04558 0.0235199 0)
(0.925413 0.0642761 0)
(1.1974 -0.064214 0)
(0.833498 -0.0396019 0)
(1.20498 0.218625 0)
(1.04258 -0.228277 0)
(0.892866 0.0797542 0)
(1.13266 0.125753 0)
(0.954883 -0.281958 0)
(1.05569 0.0776264 0)
(0.950223 -0.0466756 0)
(1.22209 -0.236131 0)
(0.857278 0.0109201 0)
(1.35397 -0.118767 0)
(0.642889 -0.2091 0)
(1.62347 -0.0483524 0)
(0.60389 -0.023217 0)
(1.16291 -0.423869 0)
(1.11488 0.131907 0)
(1.00507 -0.155726 0)
(1.02102 0.0407978 0)
(0.954016 -0.00276907 0)
(1.18076 0.0110064 0)
(0.891538 -0.105606 0)
(1.13343 0.233287 0)
(1.17865 -0.203549 0)
(0.768756 0.167351 0)
(1.37101 0.0263316 0)
(0.65652 -0.0863526 0)
(1.32905 -0.0384764 0)
(0.657915 0.0395626 0)
(1.39156 -0.344051 0)
(0.665025 0.0885428 0)
(1.40517 -0.197119 0)
(0.57375 -0.204269 0)
(1.48645 -0.140436 0)
(0.737865 -0.241286 0)
(1.21984 -0.2751 0)
(1.08719 0.0709037 0)
(1.04045 -0.0945807 0)
(0.898964 0.0277377 0)
(1.00725 0.00636479 0)
(1.01458 -0.0545094 0)
(0.937808 0.012388 0)
(1.02421 0.0532819 0)
(1.05092 0.00160037 0)
(0.749084 -0.0592 0)
(1.18431 0.233511 0)
(0.822935 -0.336615 0)
(1.13927 0.162311 0)
(0.988622 -0.139582 0)
(1.25707 -0.115863 0)
(0.678986 -0.0713792 0)
(1.50132 0.0739765 0)
(0.264666 -0.306014 0)
(1.86867 0.0404024 0)
(0.102307 -0.00489022 0)
(1.83862 -0.394103 0)
(1.27952 0.0599936 0)
(0.766633 -0.0553445 0)
(1.1596 0.043223 0)
(0.631462 -0.0545556 0)
(1.27791 0.0338818 0)
(0.594476 -0.10257 0)
(1.24731 0.159608 0)
(0.780806 -0.0850174 0)
(1.06302 0.102007 0)
(0.831289 -0.0103632 0)
(1.23158 -0.0559535 0)
(0.711449 -0.116864 0)
(1.24129 -0.0698466 0)
(0.837667 -0.21096 0)
(1.28583 -0.0646641 0)
(0.898103 -0.0117702 0)
(1.21695 -0.444566 0)
(1.45753 -0.169402 0)
(0.998762 -0.133611 0)
(1.5958 -0.401975 0)
(1.39408 0.0326727 0)
(0.571328 -0.00917604 0)
(1.31158 0.0668137 0)
(0.536065 -0.0277754 0)
(1.29727 -0.0535597 0)
(0.622877 0.056717 0)
(1.16943 -0.0569257 0)
(0.902005 0.131597 0)
(0.927861 -0.120132 0)
(1.10855 0.211132 0)
(0.83902 -0.324397 0)
(1.11349 0.228464 0)
(0.866907 -0.257366 0)
(0.994618 -0.0399429 0)
(1.0098 -0.167984 0)
(0.897065 0.240362 0)
(1.16226 -0.68881 0)
(0.793569 0.344178 0)
(1.22652 -0.276014 0)
(1.06033 0.244828 0)
(1.48819 0.0700913 0)
(0.582804 0.000323006 0)
(1.38954 0.0521125 0)
(0.59577 -0.0473624 0)
(1.357 -0.00817036 0)
(0.676016 -0.0458627 0)
(1.25836 0.0362821 0)
(0.862319 -0.00511075 0)
(1.12724 0.0209157 0)
(1.08836 -0.0253281 0)
(1.04121 -0.0394213 0)
(1.0723 -0.184977 0)
(1.27002 0.0470626 0)
(0.84194 -0.346211 0)
(1.283 0.0138512 0)
(1.24444 -0.170176 0)
(1.16525 -0.256983 0)
(1.30656 -0.26796 0)
(1.46818 -0.186099 0)
(1.19563 0.00977547 0)
(1.13672 -0.00615302 0)
(0.905288 0.0613508 0)
(1.28086 0.0363308 0)
(0.809506 0.0155489 0)
(1.23315 -0.122267 0)
(0.870829 0.135192 0)
(1.13694 -0.174903 0)
(0.879846 0.23704 0)
(1.11741 -0.259771 0)
(0.944913 0.318567 0)
(1.04 -0.359194 0)
(0.850375 0.169152 0)
(1.15646 -0.202735 0)
(0.502672 0.0168907 0)
(1.28415 -0.43191 0)
(0.57538 0.412193 0)
(1.23592 -1.03346 0)
(1.33201 0.409628 0)
(1.3111 -0.406125 0)
(1.3326 1.05777 0)
(1.05316 0.0499663 0)
(0.914693 -0.0772613 0)
(1.15443 0.105748 0)
(1.03124 -0.0374884 0)
(1.03946 -0.0146568 0)
(1.02164 -0.0333727 0)
(0.996799 0.0762219 0)
(1.0514 -0.0557569 0)
(0.906798 0.0561517 0)
(1.08923 -0.0729054 0)
(0.879254 0.0904296 0)
(0.940579 -0.314005 0)
(0.88757 0.285481 0)
(0.912747 -0.521847 0)
(0.973265 0.090615 0)
(0.767365 -0.257397 0)
(1.65372 -0.429764 0)
(0.760696 -0.487304 0)
(1.18025 -0.244665 0)
(0.645519 0.386356 0)
(0.899969 0.00114961 0)
(1.13127 0.023948 0)
(0.87397 -0.02754 0)
(1.25447 0.0804351 0)
(0.791756 -0.132586 0)
(1.23679 0.172489 0)
(0.730137 -0.202621 0)
(1.31168 0.300221 0)
(0.707512 -0.319387 0)
(1.2751 0.376071 0)
(0.861661 -0.318927 0)
(1.15736 0.167604 0)
(0.736357 -0.146479 0)
(1.43375 -0.0231444 0)
(0.131938 -0.326212 0)
(1.81625 -0.0201386 0)
(0.894664 -0.834051 0)
(0.839652 0.815179 0)
(1.1376 -0.3431 0)
(0.539458 1.39646 0)
(0.828184 0.0375543 0)
(1.2059 -0.0710443 0)
(0.7837 0.0628029 0)
(1.29382 -0.0249932 0)
(0.726599 0.0233979 0)
(1.29222 -0.0373866 0)
(0.74166 0.0744377 0)
(1.27176 -0.0906355 0)
(0.926972 0.13912 0)
(1.04839 -0.202717 0)
(1.20075 0.230872 0)
(0.878041 -0.332705 0)
(1.02361 0.226927 0)
(1.16789 -0.315922 0)
(0.333417 -0.00578346 0)
(1.501 -0.787425 0)
(0.2687 -0.144071 0)
(1.38382 -0.780667 0)
(0.459532 -0.194576 0)
(-0.00905103 0.463141 0)
(0.69579 -0.0199464 0)
(1.34015 0.0439747 0)
(0.626656 -0.0597948 0)
(1.3864 0.0920541 0)
(0.714298 -0.116659 0)
(1.24552 0.159629 0)
(0.906493 -0.179047 0)
(1.07098 0.2137 0)
(1.09339 -0.215347 0)
(0.97853 0.223361 0)
(1.06624 -0.221654 0)
(1.08957 0.221527 0)
(0.741082 -0.243696 0)
(1.15505 0.259428 0)
(0.569669 -0.363873 0)
(0.428349 -0.0410414 0)
(-1.32909 -0.465075 0)
(-0.902515 0.794473 0)
(-1.56018 0.452306 0)
(-0.0164536 1.33669 0)
(1.66274 -0.386472 0)
(1.77809 0.264464 0)
(1.04697 0.00499632 0)
(1.59609 -0.291634 0)
(1.49282 0.171186 0)
(1.74941 -0.449205 0)
(2.85617 -0.161748 0)
(2.28941 0.0221796 0)
(1.24139 -0.230592 0)
(1.55543 -0.0675713 0)
(1.87099 0.156868 0)
(1.18763 0.0336647 0)
(2.19325 -0.227321 0)
(2.42342 -0.140818 0)
(1.4287 -0.22164 0)
(2.89011 0.0228407 0)
(0.595696 -0.474959 0)
(2.31232 -0.0660081 0)
(0.338746 0.309737 0)
(2.29905 -0.672413 0)
(1.46357 -0.392505 0)
(2.28977 -0.129393 0)
(1.80225 -0.38337 0)
(2.78462 -0.415591 0)
(1.41398 -0.571978 0)
(1.06368 -0.0430531 0)
(1.75912 0.23429 0)
(1.42015 -0.400212 0)
(1.31367 -0.274287 0)
(2.23587 -0.221315 0)
(1.85505 -0.60607 0)
(3.16678 -0.3063 0)
(0.971615 -0.248441 0)
(1.04133 -0.268884 0)
(1.62794 0.104945 0)
(1.85183 -0.561134 0)
(2.20386 -0.704492 0)
(1.81664 -0.36606 0)
(2.81985 -0.901101 0)
(2.87076 -0.383585 0)
(1.60288 -0.467896 0)
(1.30314 -0.471248 0)
(1.38812 -0.105146 0)
(2.36608 -0.597118 0)
(1.61087 -0.430662 0)
(2.12209 -0.549093 0)
(2.75253 -0.944675 0)
(2.21321 -0.340773 0)
(1.34364 -0.444227 0)
(0.919484 -0.171656 0)
(1.96381 -0.437606 0)
(1.2532 -0.603375 0)
(1.41701 -0.479238 0)
(2.42962 -1.04281 0)
(2.04167 -0.855393 0)
(2.68685 -0.789271 0)
(0.591541 -0.15662 0)
(1.62365 -0.832675 0)
(1.78176 -0.33368 0)
(1.23335 -0.373515 0)
(2.36766 -0.974282 0)
(2.36332 -0.939045 0)
(2.40374 -0.955282 0)
(3.63307 -1.26892 0)
(1.48781 -0.295532 0)
(1.60483 -0.647486 0)
(0.926786 -0.220732 0)
(1.42651 -0.992513 0)
(2.32038 -0.93095 0)
(2.03916 -1.24655 0)
(3.31192 -1.38299 0)
(3.06879 -1.36563 0)
(1.04918 -0.369 0)
(1.0458 -0.451471 0)
(1.05144 -0.252108 0)
(1.60746 -1.17627 0)
(2.68796 -1.23796 0)
(2.72603 -1.5784 0)
(3.12043 -1.29556 0)
(2.73885 -1.24924 0)
(0.95196 -0.439579 0)
(0.756607 -0.534684 0)
(1.56974 -0.574635 0)
(2.01344 -1.59595 0)
(2.94164 -1.41722 0)
(2.27191 -1.50165 0)
(2.70079 -1.31189 0)
(3.35669 -1.66579 0)
(0.241455 -0.168658 0)
(1.16579 -0.700814 0)
(1.89044 -1.04391 0)
(2.09547 -1.77832 0)
(2.64272 -1.39183 0)
(2.18732 -1.65214 0)
(3.34136 -1.78282 0)
(2.69804 -1.44678 0)
(0.198012 -0.233608 0)
(1.53354 -1.2068 0)
(1.99895 -1.32507 0)
(2.17292 -1.78122 0)
(2.5903 -1.4851 0)
(2.59916 -1.91652 0)
(2.66043 -1.37282 0)
(2.12306 -1.34337 0)
(0.296079 -0.26607 0)
(1.82259 -1.40628 0)
(1.88916 -1.55993 0)
(2.20333 -1.91486 0)
(2.60013 -1.63159 0)
(1.81885 -1.72986 0)
(2.66636 -1.50453 0)
(2.44181 -1.71322 0)
(0.325287 -0.820948 0)
(2.04874 -1.82747 0)
(1.89996 -1.79934 0)
(2.07948 -1.90391 0)
(2.06978 -1.46608 0)
(2.19438 -1.99396 0)
(2.73132 -1.5441 0)
(1.90186 -1.64392 0)
(0.751141 -0.735088 0)
(2.0688 -1.76834 0)
(1.70973 -1.72774 0)
(1.93449 -1.87856 0)
(2.24701 -1.72916 0)
(1.89222 -1.90924 0)
(1.97217 -1.36255 0)
(2.27265 -1.96658 0)
(0.790019 -1.59718 0)
(1.95083 -2.12571 0)
(1.72841 -2.0231 0)
(1.90678 -1.96386 0)
(1.59563 -1.6144 0)
(1.85362 -1.88465 0)
(2.24392 -1.69211 0)
(2.31209 -2.37392 0)
(1.16934 -1.62085 0)
(1.93624 -1.86999 0)
(1.39316 -1.79293 0)
(1.71765 -1.74987 0)
(1.81208 -1.81546 0)
(1.90321 -2.00298 0)
(1.69179 -1.67526 0)
(1.93382 -2.46312 0)
(1.11579 -2.67953 0)
(1.64553 -2.19365 0)
(1.46293 -2.12448 0)
(1.75009 -2.04673 0)
(1.41327 -1.84221 0)
(1.39288 -1.71837 0)
(1.65475 -1.96111 0)
(1.92369 -2.45553 0)
(1.26939 -2.49679 0)
(1.59473 -1.90697 0)
(1.2827 -1.84997 0)
(1.55557 -1.63639 0)
(1.23714 -1.72886 0)
(1.75435 -1.98169 0)
(1.43741 -1.91779 0)
(1.08996 -1.86196 0)
(2.94012 -0.18565 0)
(3.10264 0.10272 0)
(3.02588 -0.290514 0)
(3.72182 -0.0137003 0)
(3.5369 -0.286926 0)
(4.55442 -0.0139709 0)
(4.09004 -0.257224 0)
(5.10678 0.0194822 0)
(4.25686 -0.0953523 0)
(5.60991 -0.0505875 0)
(4.13028 0.0136342 0)
(5.77646 -0.0392015 0)
(3.99369 0.0274878 0)
(5.86935 -0.0742711 0)
(4.33155 0.132457 0)
(5.38461 -0.142185 0)
(4.43456 0.293114 0)
(3.75933 -0.141082 0)
(4.8086 0.0730675 0)
(2.73049 0.126507 0)
(4.15083 -0.510004 0)
(3.30376 0.547832 0)
(2.33644 -0.777014 0)
(4.09141 0.0102457 0)
(2.38269 0.201971 0)
(3.15762 -0.700436 0)
(3.11768 -0.220795 0)
(4.49478 0.16556 0)
(2.40499 -0.279985 0)
(3.57584 -0.159456 0)
(2.92006 0.0421345 0)
(3.81443 -0.346125 0)
(3.74234 -0.0982096 0)
(4.25144 -0.24639 0)
(4.4356 -0.0866039 0)
(4.61903 -0.0865339 0)
(4.83848 -0.159314 0)
(5.08278 0.0973957 0)
(4.89486 -0.0515144 0)
(5.25094 0.109219 0)
(4.76918 -0.055843 0)
(5.29096 -0.0773634 0)
(4.90372 0.11693 0)
(5.13416 0.106633 0)
(4.15475 0.43478 0)
(4.77907 0.0275102 0)
(3.29744 0.281215 0)
(4.52628 0.297657 0)
(3.02294 0.0980835 0)
(3.38798 0.373364 0)
(3.64035 0.280417 0)
(2.17358 0.0365635 0)
(3.77327 0.123579 0)
(3.10151 0.485436 0)
(2.70684 -0.681191 0)
(3.39176 -0.0724696 0)
(2.59516 -0.563027 0)
(2.83281 -0.0986875 0)
(3.25271 -0.378965 0)
(3.72441 -0.462144 0)
(3.64253 -0.455197 0)
(4.48149 -0.327955 0)
(4.23673 -0.455762 0)
(4.90488 -0.194586 0)
(4.84404 -0.272692 0)
(5.12306 -0.11292 0)
(5.31868 0.00448822 0)
(5.30965 0.00175662 0)
(5.32599 0.0174727 0)
(5.07172 -0.136171 0)
(5.21938 0.184509 0)
(4.89389 0.25848 0)
(4.58804 0.446234 0)
(4.30875 0.353807 0)
(3.84157 0.252928 0)
(3.15823 0.324142 0)
(4.07743 0.0906707 0)
(2.16306 0.369263 0)
(4.07117 -0.148047 0)
(2.33549 0.038914 0)
(3.08632 -0.223669 0)
(3.34746 -0.227976 0)
(3.08049 -0.211132 0)
(2.85113 -0.520861 0)
(1.76861 -0.34595 0)
(3.68904 -0.55401 0)
(3.09249 -0.333458 0)
(4.02513 -0.645138 0)
(4.08455 -0.486729 0)
(4.28276 -0.502464 0)
(4.69701 -0.400468 0)
(4.69479 -0.368362 0)
(5.27919 -0.250021 0)
(4.94097 -0.193615 0)
(5.58636 -0.0479875 0)
(5.5145 0.0800987 0)
(5.74704 0.11012 0)
(5.2443 -0.0157919 0)
(5.53439 0.241422 0)
(4.77776 0.421067 0)
(4.70379 0.584862 0)
(4.08606 0.410473 0)
(4.36813 0.632204 0)
(2.96113 0.301078 0)
(4.09787 0.358731 0)
(2.5865 0.490287 0)
(3.82633 0.0406772 0)
(2.38317 0.491646 0)
(3.61153 -0.366922 0)
(2.49762 0.244266 0)
(3.2998 -0.309742 0)
(3.31895 -0.206756 0)
(2.60762 -0.784384 0)
(4.12458 -0.780158 0)
(2.93182 -0.520882 0)
(4.71431 -0.935616 0)
(3.92808 -0.622295 0)
(4.69026 -0.590846 0)
(4.81467 -0.68389 0)
(4.9606 -0.505613 0)
(5.40974 -0.380258 0)
(5.23843 -0.270444 0)
(5.93484 -0.240345 0)
(5.74592 -0.0639427 0)
(5.89474 0.149426 0)
(5.51328 -0.0234103 0)
(5.71085 0.409531 0)
(5.18487 0.728178 0)
(4.90027 0.855487 0)
(4.04131 0.511117 0)
(4.11415 0.93016 0)
(3.51525 0.412051 0)
(3.35101 0.364375 0)
(3.37552 0.515565 0)
(3.41798 0.0337106 0)
(3.10075 0.156202 0)
(3.21449 -0.0721209 0)
(3.17245 -0.154717 0)
(3.2879 -0.453541 0)
(3.28358 -0.260157 0)
(3.4152 -0.858353 0)
(3.24924 -0.84168 0)
(3.64879 -0.682516 0)
(4.21517 -1.01872 0)
(3.72213 -0.601065 0)
(4.92536 -0.894823 0)
(4.37574 -0.637561 0)
(5.31787 -0.620782 0)
(5.12749 -0.420358 0)
(5.4948 -0.53182 0)
(5.91613 -0.220086 0)
(5.65044 0.0487381 0)
(5.69114 0.264707 0)
(5.41706 0.0550598 0)
(5.63517 0.397137 0)
(5.34283 0.686105 0)
(5.20023 1.04401 0)
(4.81498 0.793559 0)
(3.80234 0.8416 0)
(4.63543 0.742864 0)
(3.02524 0.394833 0)
(3.96269 0.449713 0)
(3.32764 0.227702 0)
(3.69574 0.383667 0)
(3.25986 -0.24209 0)
(3.57317 -0.0493017 0)
(3.43714 -0.165381 0)
(3.53211 -0.516918 0)
(3.58926 -1.12835 0)
(3.25089 -0.901752 0)
(3.93541 -0.980351 0)
(3.93718 -1.01081 0)
(4.41645 -0.88297 0)
(4.7103 -0.974951 0)
(4.29415 -0.870444 0)
(5.36947 -0.802725 0)
(4.9367 -0.564177 0)
(5.54753 -0.534758 0)
(5.43282 -0.264794 0)
(5.67532 0.124248 0)
(5.26272 0.215989 0)
(5.68274 0.0846617 0)
(4.98671 0.520355 0)
(5.44659 0.915142 0)
(4.48418 1.17476 0)
(5.1467 1.08647 0)
(3.78573 1.11038 0)
(4.39342 0.739305 0)
(3.5841 0.667352 0)
(3.80799 0.38188 0)
(3.57878 0.181093 0)
(3.37784 0.217014 0)
(3.73828 0.0101999 0)
(3.27772 -0.250075 0)
(3.42086 -0.408327 0)
(3.21384 -0.213791 0)
(3.25649 -1.12804 0)
(3.72652 -1.0143 0)
(3.9947 -1.18107 0)
(3.9147 -1.19146 0)
(4.3552 -0.99811 0)
(4.19694 -1.04289 0)
(4.30533 -0.826112 0)
(5.08547 -0.903204 0)
(4.77719 -0.59496 0)
(5.75423 -0.733335 0)
(5.29122 -0.264046 0)
(6.04114 0.168288 0)
(4.92062 0.200128 0)
(5.77497 0.218918 0)
(4.81174 0.602976 0)
(5.49527 1.00572 0)
(4.30661 1.19021 0)
(4.88044 1.12615 0)
(4.11274 1.19389 0)
(4.08327 0.927158 0)
(3.9653 0.648369 0)
(3.80571 0.496669 0)
(3.37506 0.417426 0)
(3.49283 0.207592 0)
(3.35724 -0.0949834 0)
(3.75546 0.0113672 0)
(3.1853 -0.139497 0)
(3.16779 -0.583752 0)
(2.97563 -1.08975 0)
(3.86763 -1.24623 0)
(3.57106 -1.19431 0)
(3.40941 -0.951617 0)
(3.96883 -1.05803 0)
(3.84852 -1.0212 0)
(4.59157 -1.20384 0)
(4.7734 -1.16551 0)
(5.21961 -0.921202 0)
(5.40761 -0.880579 0)
(5.27498 -0.357582 0)
(5.78621 0.257583 0)
(4.81454 0.274262 0)
(5.25213 0.223332 0)
(5.03485 0.5958 0)
(5.16973 1.07343 0)
(4.62363 1.33446 0)
(4.17502 1.27173 0)
(4.23028 1.34852 0)
(3.78101 0.875808 0)
(3.75096 0.764487 0)
(3.82696 0.673748 0)
(3.09036 0.36114 0)
(3.79352 0.200771 0)
(3.27423 -0.14316 0)
(3.23356 -0.174883 0)
(3.80739 -0.0781465 0)
(3.21498 -0.457111 0)
(3.57266 -1.45139 0)
(3.59876 -1.30178 0)
(3.09509 -1.0178 0)
(3.64041 -1.24647 0)
(4.07979 -1.33921 0)
(4.00619 -1.3855 0)
(4.78578 -1.33047 0)
(4.54851 -1.30041 0)
(5.00003 -0.940239 0)
(4.68407 -0.769144 0)
(5.11106 -0.278235 0)
(5.0526 0.333951 0)
(4.63289 0.399271 0)
(4.44867 0.200984 0)
(4.8205 0.676853 0)
(4.55205 1.24904 0)
(4.46016 1.53288 0)
(3.97042 1.39527 0)
(3.90402 1.40382 0)
(3.71383 1.12963 0)
(3.5823 0.67247 0)
(3.78674 0.840021 0)
(3.52408 0.502475 0)
(3.76573 0.107115 0)
(3.53659 0.221775 0)
(3.28882 -0.251142 0)
(3.18805 -0.0791984 0)
(3.29726 -0.304638 0)
(3.04454 -1.35095 0)
(2.64773 -1.08136 0)
(3.35844 -1.23781 0)
(3.71693 -1.39511 0)
(3.87928 -1.39987 0)
(3.77392 -1.41136 0)
(4.24639 -1.43532 0)
(3.85933 -1.22611 0)
(4.26646 -0.983113 0)
(4.27142 -0.908594 0)
(4.60016 -0.231389 0)
(4.35922 0.394968 0)
(4.11228 0.51949 0)
(3.7984 0.204154 0)
(4.07363 0.673385 0)
(4.07911 1.25817 0)
(3.90619 1.53756 0)
(3.80555 1.47415 0)
(3.46778 1.47881 0)
(3.59749 1.02819 0)
(3.1739 0.790817 0)
(3.68001 0.66174 0)
(3.45088 0.393114 0)
(3.34678 0.218704 0)
(3.36335 0.0225342 0)
(2.80249 0.053854 0)
(3.03784 -0.160626 0)
(2.68664 -0.171268 0)
(2.39627 -1.05732 0)
(3.26832 -1.46932 0)
(3.46194 -1.51757 0)
(3.6367 -1.4703 0)
(3.6511 -1.44066 0)
(3.41211 -1.46879 0)
(3.47373 -1.3496 0)
(3.45143 -1.27503 0)
(4.01518 -1.21529 0)
(3.56071 -0.971409 0)
(4.13452 -0.207292 0)
(3.90902 0.428632 0)
(3.92146 0.569353 0)
(3.38457 0.340026 0)
(3.49002 0.66752 0)
(3.57978 1.29173 0)
(3.30829 1.60064 0)
(3.22857 1.64552 0)
(3.18775 1.50599 0)
(2.98841 1.23002 0)
(3.02101 0.726084 0)
(3.22584 0.721312 0)
(2.89503 0.551803 0)
(3.04768 0.222089 0)
(2.76449 0.439921 0)
(2.76365 -0.0578608 0)
(2.78557 0.0116843 0)
(2.47573 0.0396372 0)
(3.21427 -1.50756 0)
(3.12427 -1.69033 0)
(3.38867 -1.42052 0)
(3.36238 -1.43255 0)
(2.87232 -1.34969 0)
(2.73071 -1.33064 0)
(2.87055 -1.53465 0)
(3.03443 -1.48613 0)
(2.88521 -1.26463 0)
(2.58795 -0.896583 0)
(2.88998 -0.234462 0)
(3.27981 0.34614 0)
(2.94836 0.661875 0)
(3.07647 0.402101 0)
(2.55777 0.741825 0)
(2.87466 1.34993 0)
(2.54571 1.58044 0)
(2.45413 1.54391 0)
(2.63231 1.51061 0)
(2.49151 1.08152 0)
(2.71434 0.654482 0)
(2.46827 0.716658 0)
(2.74601 0.406997 0)
(2.4473 0.296497 0)
(2.78108 0.160339 0)
(2.57525 0.0160361 0)
(2.50317 0.00628146 0)
(2.98018 -0.187288 0)
(2.89583 -1.61685 0)
(2.94994 -1.64031 0)
(3.36904 -1.42941 0)
(2.65707 -1.22188 0)
(2.18096 -1.17834 0)
(2.31116 -1.46764 0)
(2.12717 -1.45834 0)
(1.78456 -1.20321 0)
(1.84777 -0.9984 0)
(1.32905 -0.866768 0)
(1.93525 -0.375 0)
(1.57086 0.318596 0)
(2.13587 0.559143 0)
(1.753 0.533649 0)
(1.7143 0.911581 0)
(1.71066 1.4111 0)
(1.97014 1.6588 0)
(1.63585 1.58449 0)
(2.10911 1.44812 0)
(2.23954 1.13604 0)
(2.27277 0.833869 0)
(2.36876 0.712076 0)
(2.64714 0.528375 0)
(2.46199 0.282079 0)
(2.73601 0.372849 0)
(2.57515 0.121585 0)
(2.70197 -0.180409 0)
(2.81505 -0.0608391 0)
(3.05728 -1.76853 0)
(3.13007 -1.83772 0)
(2.68599 -1.17265 0)
(2.03005 -0.933312 0)
(1.86115 -1.23561 0)
(1.46799 -1.29039 0)
(1.11968 -1.32761 0)
(1.3573 -1.23857 0)
(0.812432 -1.02339 0)
(0.369713 -0.707164 0)
(0.462029 -0.325666 0)
(0.310316 0.200587 0)
(0.518263 0.643458 0)
(0.479127 0.548051 0)
(0.615235 0.894783 0)
(0.891198 1.21796 0)
(0.747203 1.65162 0)
(1.20721 1.49018 0)
(1.55909 1.31316 0)
(1.85041 0.986803 0)
(1.95704 0.723949 0)
(2.30865 0.550635 0)
(2.35147 0.394508 0)
(2.39048 0.228297 0)
(2.36683 0.133513 0)
(2.60217 0.00862243 0)
(2.3848 -0.0972139 0)
(2.28711 -0.0873158 0)
(3.14622 -2.15516 0)
(2.37197 -1.43273 0)
(2.11201 -0.927853 0)
(1.28372 -0.817031 0)
(0.686467 -0.811836 0)
(0.746347 -1.32248 0)
(0.651813 -1.42176 0)
(0.139436 -0.96893 0)
(-0.183822 -0.75507 0)
(-0.707378 -0.812656 0)
(-0.616606 -0.171834 0)
(-1.14238 0.252228 0)
(-0.144343 0.302276 0)
(-0.800906 0.51103 0)
(-0.54866 1.01564 0)
(-0.454721 1.32871 0)
(0.194033 1.38628 0)
(0.473893 1.15909 0)
(1.25259 1.12703 0)
(1.51907 0.963576 0)
(1.75677 0.609303 0)
(2.03465 0.465663 0)
(2.00169 0.472864 0)
(2.06885 0.272248 0)
(2.14884 0.261881 0)
(2.32815 0.0962288 0)
(2.08442 0.0201122 0)
(2.1649 0.0623501 0)
(2.68095 -1.90439 0)
(1.90623 -1.18141 0)
(1.09932 -0.461819 0)
(0.446163 -0.509041 0)
(0.514049 -0.996375 0)
(-0.0904848 -1.04923 0)
(-0.974036 -1.04858 0)
(-0.974168 -0.835969 0)
(-1.73902 -0.488722 0)
(-1.87222 -0.458448 0)
(-2.02876 -0.191132 0)
(-1.87767 0.0574956 0)
(-1.81419 0.523992 0)
(-2.06932 0.586734 0)
(-1.19472 0.659564 0)
(-0.995222 0.85189 0)
(-0.749652 1.25642 0)
(0.0868829 0.875979 0)
(0.259574 0.688155 0)
(1.33756 0.662603 0)
(1.25242 0.614808 0)
(1.39965 0.355118 0)
(1.4743 0.382809 0)
(1.55255 0.067372 0)
(1.69198 0.080837 0)
(1.80419 0.0254054 0)
(1.65944 -0.0088497 0)
(1.75953 -0.00217361 0)
(2.19702 -1.76638 0)
(0.77297 -0.769252 0)
(0.584226 -0.158719 0)
(-0.381944 -0.396303 0)
(-0.856691 -0.499409 0)
(-1.00607 -0.880259 0)
(-1.75523 -0.852205 0)
(-2.5693 -0.507104 0)
(-2.30232 -0.507161 0)
(-3.24512 -0.461076 0)
(-3.03957 -0.0709709 0)
(-3.19694 0.0590249 0)
(-2.84378 0.295116 0)
(-3.05201 0.36896 0)
(-1.84431 0.620888 0)
(-2.48512 0.969122 0)
(-1.18528 0.847738 0)
(-1.02613 0.597433 0)
(-0.347521 0.606379 0)
(-0.279284 0.496217 0)
(0.988409 0.453732 0)
(0.701043 0.446063 0)
(1.12081 0.450951 0)
(0.975933 0.111241 0)
(1.15352 0.191783 0)
(1.19447 0.0417866 0)
(1.11157 0.0943659 0)
(1.18293 0.0840591 0)
(0.914271 -1.26104 0)
(-0.590063 -0.269122 0)
(-0.486375 0.0591389 0)
(-1.25606 -0.0250489 0)
(-1.00602 -0.675754 0)
(-1.98064 -0.610217 0)
(-3.10088 -0.301432 0)
(-3.34477 -0.40701 0)
(-3.57369 -0.181055 0)
(-4.12508 -0.220571 0)
(-3.98973 -0.235553 0)
(-4.16921 0.120391 0)
(-3.97268 0.28306 0)
(-3.65607 0.0780425 0)
(-3.21382 0.434971 0)
(-2.99046 0.528386 0)
(-1.56248 0.422969 0)
(-2.12434 0.376294 0)
(-1.02449 0.143312 0)
(-0.603529 0.0626205 0)
(-1.13691 0.201491 0)
(-0.0406342 0.18481 0)
(0.329949 0.284162 0)
(0.131568 -0.0583351 0)
(0.610055 0.0850011 0)
(0.511758 -0.0183658 0)
(0.606458 0.0403595 0)
(0.723071 -0.0422026 0)
(-0.776656 -0.385202 0)
(-2.47095 0.161944 0)
(-0.858094 0.170893 0)
(-2.00259 -0.113027 0)
(-1.47312 -0.0231719 0)
(-3.21768 0.101409 0)
(-2.82329 -0.28801 0)
(-4.26623 -0.286125 0)
(-4.1589 -0.025353 0)
(-4.74486 -0.192694 0)
(-4.93464 0.0360341 0)
(-5.10514 -0.0423497 0)
(-4.89286 -0.00888025 0)
(-4.64983 0.243894 0)
(-3.98715 0.137347 0)
(-3.79004 0.241308 0)
(-2.40472 0.525692 0)
(-2.02292 0.289151 0)
(-1.22998 -0.0442682 0)
(-1.9647 0.567892 0)
(0.324923 0.032606 0)
(-1.6223 -0.180511 0)
(0.465181 0.331649 0)
(-0.399502 -0.0468512 0)
(0.196862 0.0592418 0)
(-0.0683992 -0.0201091 0)
(0.0942548 0.0454447 0)
(0.129673 0.0501288 0)
(2.90975 -1.10961 0)
(2.78772 -0.62374 0)
(2.72225 -1.30206 0)
(2.91246 -1.45552 0)
(2.006 -1.15001 0)
(2.58374 -1.34843 0)
(1.15902 -1.71213 0)
(0.241724 -0.958999 0)
(3.83507 -0.261874 0)
(3.34674 -1.85079 0)
(1.77423 -1.97329 0)
(1.28516 -1.31644 0)
(1.07585 -1.59818 0)
(2.06391 -1.04201 0)
(1.17615 -0.386748 0)
(1.11504 -0.79004 0)
(2.72048 -1.14041 0)
(3.76727 -0.400187 0)
(2.87536 -0.137881 0)
(2.41301 -0.985741 0)
(2.13086 -1.37144 0)
(1.8249 -1.15557 0)
(1.24104 -0.941516 0)
(-0.34118 -0.562606 0)
(2.75765 -0.454544 0)
(2.59661 -1.33265 0)
(2.83866 -1.26303 0)
(2.83849 -1.05794 0)
(2.47658 -1.05935 0)
(1.3759 -0.757321 0)
(0.562248 0.35012 0)
(1.34071 0.0308577 0)
(3.44077 -0.629329 0)
(3.32074 -0.92744 0)
(3.0127 -0.663106 0)
(2.36638 -0.71714 0)
(3.0516 -0.794862 0)
(1.99686 -0.398856 0)
(1.41361 -0.482229 0)
(3.84963 -1.65124 0)
(3.30656 -0.375268 0)
(3.53575 -0.892513 0)
(2.5681 -0.417217 0)
(3.228 -1.11072 0)
(2.31306 -0.714448 0)
(1.96433 -0.0284109 0)
(3.35084 -0.84098 0)
(2.14124 -0.444138 0)
(3.61399 -0.53095 0)
(3.45513 -0.571688 0)
(2.42201 -0.812361 0)
(3.52368 -0.535312 0)
(2.18586 -0.271296 0)
(2.50682 -0.775556 0)
(2.73344 -0.413354 0)
(1.37611 -0.166041 0)
(3.48677 -0.537151 0)
(3.51414 -0.401452 0)
(3.21011 -0.321315 0)
(2.87936 -0.926072 0)
(2.59247 -0.20096 0)
(2.79065 -0.345761 0)
(2.19631 -0.374597 0)
(2.15409 -0.10148 0)
(3.3633 -0.595307 0)
(2.83697 -0.407113 0)
(3.39861 -0.458813 0)
(2.82238 -0.31084 0)
(2.08593 -0.355144 0)
(2.66169 -0.374857 0)
(2.11029 -0.232309 0)
(2.15813 0.0234095 0)
(2.46722 -0.348954 0)
(2.95246 -0.412606 0)
(2.56579 -0.409617 0)
(2.58253 -0.181997 0)
(2.26466 -0.0980292 0)
(2.44182 -0.378034 0)
(1.71637 -0.110748 0)
(1.84883 0.0889575 0)
(2.3239 -0.341032 0)
(2.41022 -0.499917 0)
(1.76877 -0.184033 0)
(2.37125 -0.222137 0)
(2.31335 -0.351482 0)
(1.97174 -0.0599297 0)
(1.72994 0.0763026 0)
(2.08095 -0.0953541 0)
(2.76033 -0.214959 0)
(2.3305 -0.151419 0)
(2.11177 -0.383274 0)
(2.54204 -0.393056 0)
(1.95091 0.0637254 0)
(1.99493 -0.0612541 0)
(2.15982 -0.211593 0)
(2.0259 0.0577632 0)
(2.70972 -0.20706 0)
(2.52324 -0.200566 0)
(2.39926 -0.275526 0)
(2.11279 -0.183098 0)
(2.03389 -0.0832843 0)
(2.34419 -0.147293 0)
(1.90969 0.0298525 0)
(2.06147 0.00754997 0)
(2.44189 0.0283094 0)
(2.51286 -0.0474214 0)
(2.40584 -0.138776 0)
(2.12042 -0.190019 0)
(2.05589 -0.0549386 0)
(2.27545 0.0465454 0)
(2.09682 -0.0824941 0)
(2.26509 -0.0950666 0)
(2.13497 -0.0482272 0)
(2.29335 -0.158925 0)
(2.06173 -0.0506494 0)
(2.00667 -0.0372676 0)
(1.93122 -0.192336 0)
(2.10354 -0.143296 0)
(1.77153 -0.0195384 0)
(1.73623 0.107706 0)
(1.94477 0.00758739 0)
(2.04005 -0.0437009 0)
(1.94279 0.00446973 0)
(2.14683 -0.13251 0)
(1.72736 -0.0655836 0)
(1.74567 0.139109 0)
(1.49256 0.065092 0)
(1.63148 0.00197149 0)
(1.57335 -0.0105138 0)
(1.59643 -0.123758 0)
(1.49257 -0.0379933 0)
(1.62303 0.0263768 0)
(1.20495 0.0107147 0)
(1.63007 -0.0104321 0)
(1.43045 -0.00878054 0)
(1.58498 -0.0576654 0)
(1.1864 0.0460154 0)
(1.21891 -0.00378213 0)
(1.15024 -0.0132832 0)
(1.33216 -0.04918 0)
(1.15394 -0.0203554 0)
(1.31731 0.0284165 0)
(0.894535 0.0572999 0)
(1.04148 0.0168516 0)
(0.611516 -0.0432546 0)
(0.697202 -0.0682666 0)
(0.533601 -0.0447065 0)
(0.543965 -0.00667963 0)
(0.379689 0.050761 0)
(0.647529 0.101472 0)
(0.474502 0.0846301 0)
(0.693768 -0.0176787 0)
(0.0881954 0.0458262 0)
(0.137123 0.0403804 0)
(0.0430668 0.0537569 0)
(0.184485 -0.0160523 0)
(-0.0236748 -0.0351716 0)
(0.23859 -0.003922 0)
(0.148723 0.0360412 0)
(0.440919 0.016711 0)
(-1.06563 -0.294799 0)
(0.859199 0.130464 0)
(1.38773 0.866226 0)
(1.66909 1.05857 1.19026e-17)
(2.30313 1.30325 6.08464e-19)
(2.55088 1.06693 0)
(3.30246 0.976612 5.19967e-18)
(3.00315 0.722989 3.40999e-19)
(3.41655 0.728134 4.64191e-18)
(3.08429 0.648975 4.7406e-18)
(3.54936 0.673469 0)
(3.2303 0.537362 4.03206e-18)
(3.85519 0.562714 -1.68163e-19)
(3.4671 0.460824 3.29425e-18)
(3.74028 0.500483 4.12458e-20)
(3.35693 0.409867 -4.55074e-20)
(3.61202 0.492272 -9.98312e-19)
(3.29576 0.395697 6.55281e-19)
(3.68957 0.497662 2.49774e-21)
(3.45507 0.176412 1.8741e-21)
(0.742911 -0.607381 0)
(1.10288 0.296721 0)
(1.42931 0.76706 -5.29917e-19)
(1.75605 1.03394 -2.42152e-17)
(2.30555 1.32868 -6.76023e-19)
(2.63015 0.980646 8.83087e-18)
(3.11149 0.685953 -5.09089e-18)
(2.8267 0.42034 2.53144e-18)
(3.15224 0.420788 5.21207e-18)
(2.92382 0.331961 -4.7569e-18)
(3.28064 0.393036 0)
(3.17786 0.351462 3.96611e-18)
(3.69821 0.522167 5.26963e-20)
(3.52405 0.526855 -3.3232e-18)
(3.63408 0.582599 6.31241e-21)
(3.45211 0.505431 0)
(3.59649 0.567198 -1.87984e-20)
(3.41735 0.400477 0)
(3.69915 0.497505 0)
(3.5528 0.0537942 0)
(0.108684 0.308738 0)
(1.43748 0.753091 -6.72565e-19)
(1.659 0.947014 1.14095e-18)
(1.99763 0.969636 -1.58355e-19)