/*--------------------------------*- C++ -*----------------------------------*\
| =========                 |                                                 |
| \\      /  F ield         | OpenFOAM: The Open Source CFD Toolbox           |
|  \\    /   O peration     | Version:  2.4.0                                 |
|   \\  /    A nd           | Web:      www.OpenFOAM.org                      |
|    \\/     M anipulation  |                                                 |
\*---------------------------------------------------------------------------*/
FoamFile
{
    version     2.0;
    format      ascii;
    class       volScalarField;
    location    "3.77";
    object      p;
}
// * * * * * * * * * * * * * * * * * * * * * * * * * * * * * * * * * * * * * //

dimensions      [0 2 -2 0 0 0 0];

internalField   nonuniform List<scalar> 
6000
(
-0.113996
0.242852
0.20011
0.21998
0.2126
0.217418
0.214473
0.216563
0.215367
0.216152
0.215281
0.214951
0.213886
0.213319
0.213285
0.214668
0.217315
0.21996
0.220291
0.218324
0.219636
0.223121
0.220122
0.21092
0.200675
0.192596
0.186549
0.182286
0.179558
0.178378
0.178797
0.180943
0.184964
0.190981
0.199163
0.209634
0.222495
0.237804
0.25555
0.275633
0.297816
0.321686
0.346546
0.371368
0.394607
0.414465
0.428761
0.435622
0.433211
0.421377
0.40018
0.372992
0.340004
0.30799
0.270099
0.242056
0.193606
0.177556
0.0866323
0.10612
-0.0876568
0.239437
0.200184
0.219827
0.21262
0.217402
0.214481
0.216558
0.215384
0.216181
0.215337
0.215018
0.213945
0.213336
0.213211
0.214455
0.216939
0.219462
0.219842
0.218165
0.219722
0.22349
0.220811
0.211585
0.201113
0.192883
0.186742
0.182405
0.179609
0.178361
0.178711
0.180789
0.184719
0.190707
0.198843
0.209268
0.222084
0.237347
0.255044
0.275069
0.29718
0.320959
0.345702
0.370376
0.393445
0.413147
0.427278
0.433973
0.431417
0.419478
0.398232
0.371051
0.338105
0.30615
0.26841
0.240408
0.192216
0.175828
0.0852494
0.104353
-0.0707683
0.235982
0.200213
0.219736
0.212628
0.217394
0.214483
0.21656
0.215399
0.21622
0.215393
0.215093
0.214012
0.213364
0.213149
0.214244
0.21654
0.218929
0.219376
0.218007
0.219824
0.223813
0.221378
0.212166
0.201596
0.193291
0.18707
0.182651
0.179772
0.178441
0.178708
0.180705
0.184563
0.190441
0.19848
0.208808
0.221526
0.236688
0.254278
0.274189
0.296175
0.319811
0.344392
0.368886
0.391763
0.411285
0.425251
0.431813
0.42918
0.417241
0.396073
0.36905
0.336296
0.304599
0.267016
0.23924
0.190945
0.174912
0.0838462
0.10367
-0.0585446
0.23213
0.200424
0.219652
0.212627
0.217386
0.214483
0.216565
0.215414
0.216259
0.215445
0.215164
0.214071
0.213387
0.213084
0.21404
0.216169
0.218455
0.218988
0.217877
0.219921
0.224032
0.221755
0.212556
0.201982
0.193664
0.187388
0.182896
0.179937
0.178522
0.178702
0.180608
0.184376
0.190154
0.198089
0.208313
0.220925
0.235979
0.253458
0.273253
0.295114
0.318615
0.343047
0.367382
0.390092
0.409431
0.423226
0.429644
0.426912
0.414949
0.393831
0.366948
0.33436
0.302893
0.265418
0.237908
0.189542
0.173875
0.082278
0.103121
-0.0467365
0.228003
0.200806
0.219571
0.212625
0.217374
0.214484
0.216568
0.215426
0.216293
0.21549
0.215225
0.214121
0.213403
0.213019
0.213851
0.215841
0.21806
0.218681
0.217794
0.220003
0.224167
0.221958
0.212765
0.202251
0.19396
0.187647
0.183095
0.180064
0.178572
0.178668
0.180488
0.184165
0.189851
0.197691
0.207819
0.220335
0.235293
0.252675
0.272369
0.294124
0.317512
0.341824
0.36603
0.3886
0.407775
0.421405
0.427671
0.424816
0.412791
0.39167
0.364879
0.332406
0.301144
0.263759
0.236532
0.188056
0.172829
0.0806031
0.102693
-0.0351508
0.223766
0.201314
0.219475
0.212631
0.217359
0.214484
0.216571
0.215436
0.216322
0.215528
0.215277
0.214163
0.213413
0.212953
0.213675
0.215547
0.217723
0.218445
0.21775
0.220085
0.224246
0.22203
0.212842
0.202433
0.19419
0.187853
0.18325
0.180153
0.178588
0.178607
0.180345
0.183937
0.189538
0.19729
0.207332
0.219761
0.234634
0.25193
0.271537
0.293202
0.316497
0.340708
0.364807
0.387255
0.406285
0.419761
0.425877
0.422889
0.410777
0.389619
0.362882
0.330491
0.299417
0.26211
0.235171
0.186554
0.171821
0.0788983
0.102384
-0.0244092
0.219519
0.201852
0.219352
0.212649
0.21734
0.214486
0.216572
0.215446
0.216348
0.215562
0.215323
0.214199
0.21342
0.212889
0.213507
0.215275
0.217426
0.218261
0.217746
0.220183
0.224292
0.222009
0.212831
0.202557
0.194372
0.188021
0.183371
0.180213
0.178579
0.178523
0.180184
0.183695
0.189214
0.196885
0.206846
0.219196
0.233989
0.251208
0.270737
0.292322
0.315534
0.339657
0.363663
0.386001
0.404903
0.418238
0.42421
0.421084
0.408873
0.387658
0.360954
0.328624
0.297726
0.260487
0.23384
0.185069
0.170865
0.07721
0.102187
-0.0145685
0.215333
0.20235
0.21921
0.212675
0.217319
0.214488
0.216572
0.215455
0.216372
0.215592
0.215365
0.214231
0.213424
0.212825
0.213346
0.215019
0.217157
0.218118
0.217782
0.220307
0.224321
0.221924
0.212762
0.20264
0.194519
0.188158
0.183467
0.18025
0.17855
0.178422
0.180007
0.183441
0.188882
0.196475
0.206358
0.218632
0.233352
0.250498
0.269955
0.291466
0.314602
0.338647
0.362568
0.384808
0.403594
0.416798
0.422633
0.419368
0.407047
0.385762
0.359077
0.326795
0.296065
0.258889
0.232537
0.183608
0.169957
0.0755585
0.102088
-0.0053988
0.211272
0.202756
0.219064
0.212695
0.217298
0.214491
0.216572
0.215465
0.216394
0.215621
0.215404
0.214261
0.213426
0.212762
0.21319
0.214776
0.216911
0.218008
0.217857
0.220467
0.224348
0.221801
0.212657
0.202696
0.194639
0.188272
0.183541
0.180268
0.178504
0.178306
0.179817
0.183176
0.188541
0.196058
0.205867
0.218069
0.232718
0.249794
0.269182
0.290624
0.31369
0.337663
0.361507
0.383657
0.402338
0.41542
0.42112
0.417715
0.405279
0.383912
0.357234
0.324991
0.294425
0.257311
0.231258
0.182174
0.169093
0.0739524
0.102075
0.00325457
0.207377
0.20305
0.218915
0.212711
0.217279
0.214496
0.216571
0.215474
0.216415
0.215649
0.21544
0.214289
0.213427
0.212699
0.213038
0.214541
0.216681
0.217926
0.217972
0.220669
0.224389
0.22166
0.212537
0.202735
0.19474
0.188368
0.183599
0.180271
0.178443
0.178176
0.179616
0.182901
0.188192
0.195635
0.205372
0.217503
0.232083
0.249092
0.268414
0.28979
0.312789
0.336694
0.360466
0.382535
0.401119
0.414084
0.419654
0.416107
0.403549
0.382092
0.355412
0.323203
0.292798
0.255748
0.23
0.180767
0.168272
0.0723951
0.102137
0.0114442
0.203668
0.203225
0.218746
0.212747
0.217262
0.214503
0.21657
0.215484
0.216435
0.215676
0.215476
0.214316
0.213428
0.212638
0.21289
0.214315
0.216464
0.217867
0.218124
0.220916
0.224455
0.22152
0.212416
0.202766
0.194827
0.188451
0.183645
0.180262
0.178372
0.178037
0.179406
0.182618
0.187835
0.195207
0.204872
0.216933
0.231445
0.248388
0.267645
0.288956
0.311891
0.335733
0.359435
0.381429
0.399922
0.412776
0.418218
0.414527
0.401842
0.380287
0.353599
0.321422
0.291178
0.254197
0.22876
0.179386
0.16749
0.0708882
0.102267
0.0191988
0.20016
0.203285
0.218552
0.212815
0.217244
0.214513
0.216569
0.215496
0.216455
0.215703
0.21551
0.214343
0.21343
0.212579
0.212745
0.214094
0.216257
0.217828
0.21831
0.221208
0.224556
0.221396
0.212306
0.202797
0.194908
0.188526
0.183682
0.180245
0.178292
0.177889
0.179188
0.182328
0.187473
0.194773
0.204367
0.216359
0.230804
0.24768
0.266872
0.28812
0.310991
0.334771
0.358407
0.38033
0.398736
0.411482
0.416797
0.412961
0.400143
0.378486
0.351786
0.319639
0.289559
0.252655
0.227535
0.17803
0.166746
0.0694318
0.102458
0.0265536
0.196863
0.203238
0.218324
0.212914
0.217221
0.21453
0.216568
0.215508
0.216475
0.21573
0.215545
0.214371
0.213432
0.212522
0.212605
0.213879
0.216057
0.217803
0.218529
0.221545
0.224696
0.2213
0.212218
0.202835
0.194986
0.188596
0.183713
0.180222
0.178206
0.177736
0.178964
0.182033
0.187106
0.194334
0.203858
0.21578
0.230157
0.246967
0.266094
0.287277
0.310085
0.333804
0.357376
0.37923
0.397552
0.410192
0.41538
0.411397
0.398441
0.376677
0.349962
0.317849
0.287936
0.251118
0.226323
0.1767
0.166038
0.0680252
0.102707
0.0335434
0.193782
0.203092
0.218057
0.213046
0.217184
0.214552
0.216569
0.215522
0.216495
0.215758
0.215579
0.214399
0.213435
0.212469
0.21247
0.213669
0.215864
0.21779
0.218777
0.221922
0.22488
0.221241
0.21216
0.202886
0.195068
0.188665
0.183742
0.180196
0.178118
0.17758
0.178738
0.181735
0.186735
0.193892
0.203344
0.215197
0.229505
0.246248
0.265308
0.286426
0.30917
0.332826
0.356336
0.378122
0.396361
0.408896
0.413958
0.409823
0.396726
0.374851
0.348121
0.316045
0.286305
0.249583
0.225122
0.175394
0.165365
0.0666673
0.10301
0.0401962
0.190921
0.202858
0.217746
0.213192
0.217144
0.214579
0.216573
0.215538
0.216515
0.215786
0.215615
0.214428
0.213441
0.212419
0.21234
0.213465
0.215675
0.217786
0.21905
0.222332
0.225108
0.221225
0.212137
0.202955
0.195156
0.188738
0.183772
0.18017
0.178028
0.177422
0.17851
0.181434
0.186363
0.193447
0.202828
0.214609
0.228848
0.245522
0.264514
0.285564
0.308245
0.331836
0.355284
0.377003
0.395159
0.407588
0.412521
0.408232
0.394989
0.373001
0.346256
0.314222
0.284662
0.248048
0.223929
0.174111
0.164725
0.0653564
0.103362
0.0465337
0.188277
0.20255
0.217392
0.213339
0.217112
0.214604
0.21658
0.215557
0.216538
0.215817
0.215651
0.214459
0.213449
0.212374
0.212216
0.213268
0.215492
0.21779
0.219343
0.22277
0.225378
0.221258
0.212155
0.203045
0.195256
0.188816
0.183805
0.180145
0.177939
0.177265
0.178282
0.181134
0.18599
0.193001
0.202309
0.214019
0.228186
0.244789
0.263712
0.284693
0.307306
0.330832
0.354217
0.375867
0.393939
0.406261
0.411062
0.406615
0.393221
0.371118
0.344359
0.312375
0.283003
0.246511
0.222743
0.17285
0.164116
0.0640911
0.10376
0.0525743
0.185845
0.202179
0.216996
0.213479
0.217087
0.214632
0.216592
0.215581
0.216562
0.215849
0.215688
0.214492
0.21346
0.212333
0.212099
0.213079
0.215315
0.2178
0.219654
0.223228
0.225685
0.221341
0.212215
0.203159
0.195369
0.188903
0.183843
0.180125
0.177853
0.17711
0.178056
0.180836
0.185618
0.192556
0.20179
0.213426
0.22752
0.244051
0.262902
0.283811
0.306355
0.329814
0.353133
0.374712
0.392697
0.404909
0.409574
0.404964
0.391415
0.369196
0.342427
0.3105
0.281325
0.244969
0.221564
0.171611
0.163538
0.0628697
0.104204
0.0583347
0.183622
0.201758
0.216562
0.213606
0.21707
0.214664
0.216609
0.21561
0.216589
0.215884
0.215727
0.214528
0.213474
0.212299
0.21199
0.212898
0.215144
0.217815
0.219977
0.223699
0.226025
0.221473
0.212319
0.2033
0.195499
0.189
0.183889
0.18011
0.177772
0.176959
0.177834
0.180541
0.185249
0.192112
0.201272
0.212833
0.226852
0.243308
0.262084
0.28292
0.30539
0.328779
0.352031
0.373535
0.391431
0.403528
0.408052
0.403273
0.389564
0.367228
0.340452
0.308593
0.279626
0.243422
0.220389
0.170393
0.16299
0.0616903
0.104691
0.0638297
0.1816
0.2013
0.216096
0.213714
0.217059
0.214708
0.216627
0.215644
0.216619
0.215923
0.215768
0.214566
0.213493
0.212271
0.211891
0.212728
0.214981
0.217834
0.220308
0.224176
0.226391
0.221654
0.212468
0.203469
0.195647
0.189111
0.183945
0.180104
0.177698
0.176815
0.177617
0.18025
0.184884
0.191672
0.200756
0.212241
0.226183
0.242562
0.261261
0.282019
0.304414
0.32773
0.350911
0.372335
0.390135
0.402113
0.40649
0.401536
0.387662
0.365209
0.338431
0.30665
0.277904
0.241866
0.219218
0.169195
0.162472
0.0605512
0.10522
0.069073
0.179772
0.200817
0.215603
0.213801
0.217049
0.21477
0.216641
0.215684
0.216655
0.215966
0.215812
0.214608
0.213515
0.21225
0.211802
0.21257
0.214828
0.217857
0.220644
0.224654
0.226776
0.221881
0.212662
0.203668
0.195816
0.189236
0.184012
0.180106
0.177632
0.176678
0.177408
0.179967
0.184525
0.191237
0.200244
0.211651
0.225515
0.241814
0.260433
0.281111
0.303426
0.326666
0.349771
0.371111
0.38881
0.40066
0.404883
0.399746
0.385703
0.363133
0.33636
0.304669
0.276156
0.240302
0.21805
0.168016
0.161983
0.0594506
0.105789
0.074077
0.178128
0.200318
0.215091
0.213863
0.217038
0.21485
0.216655
0.215728
0.216697
0.216015
0.21586
0.214654
0.213543
0.212237
0.211724
0.212425
0.214686
0.217884
0.220981
0.225128
0.227172
0.222149
0.212898
0.203897
0.196006
0.189377
0.184092
0.18012
0.177576
0.176551
0.177207
0.179691
0.184174
0.190809
0.199737
0.211065
0.224848
0.241066
0.259602
0.280196
0.302429
0.325589
0.348612
0.369862
0.387451
0.399167
0.403226
0.397898
0.38368
0.360995
0.334234
0.302647
0.274381
0.238728
0.216885
0.166857
0.161522
0.0583868
0.106399
0.0788534
0.176661
0.199812
0.214566
0.213899
0.217023
0.214944
0.21667
0.215779
0.216745
0.216071
0.215912
0.214704
0.213575
0.212232
0.211658
0.212295
0.214555
0.217913
0.221316
0.225593
0.227575
0.222453
0.213175
0.204156
0.196218
0.189536
0.184186
0.180146
0.177532
0.176434
0.177016
0.179426
0.183832
0.190389
0.199238
0.210485
0.224186
0.24032
0.25877
0.279277
0.301423
0.324499
0.347435
0.368586
0.386058
0.397629
0.401515
0.395986
0.381588
0.35879
0.332049
0.30058
0.272578
0.237144
0.215723
0.165716
0.16109
0.057358
0.107048
0.0834132
0.17536
0.199309
0.214033
0.213908
0.217002
0.215051
0.216692
0.21583
0.216798
0.216134
0.215971
0.214759
0.213614
0.212235
0.211604
0.212182
0.214439
0.217946
0.221644
0.226047
0.227977
0.222789
0.213489
0.204443
0.196454
0.189712
0.184296
0.180186
0.1775
0.176329
0.176838
0.179172
0.183501
0.189979
0.198749
0.209913
0.22353
0.239577
0.257939
0.278356
0.300412
0.323397
0.34624
0.367285
0.38463
0.396046
0.399745
0.394006
0.379421
0.356512
0.329802
0.298468
0.270744
0.235547
0.214564
0.164593
0.160687
0.0563623
0.107736
0.0877669
0.174216
0.198814
0.213499
0.213893
0.216974
0.215166
0.216723
0.215885
0.216854
0.216207
0.216036
0.214821
0.213659
0.212249
0.211565
0.212085
0.214337
0.217981
0.221963
0.226488
0.228376
0.223152
0.213837
0.204758
0.196712
0.189908
0.184422
0.180241
0.177482
0.176238
0.176672
0.17893
0.183183
0.189582
0.19827
0.209351
0.222882
0.238841
0.257111
0.277435
0.299396
0.322287
0.345029
0.365959
0.383165
0.394413
0.397914
0.391952
0.377175
0.354158
0.327489
0.296306
0.26888
0.233938
0.213407
0.163487
0.160312
0.0553979
0.108464
0.0919245
0.17322
0.198333
0.21297
0.213856
0.216937
0.215289
0.216764
0.215946
0.21691
0.216289
0.216109
0.21489
0.213711
0.212272
0.211539
0.212007
0.214251
0.21802
0.22227
0.226912
0.228767
0.223534
0.214214
0.205099
0.196993
0.190123
0.184565
0.180312
0.177479
0.176162
0.176521
0.178704
0.182879
0.189198
0.197804
0.2088
0.222244
0.238112
0.256289
0.276516
0.298379
0.321168
0.343803
0.364607
0.381664
0.39273
0.396017
0.389819
0.374843
0.351722
0.325108
0.294094
0.266984
0.232317
0.212254
0.162398
0.159967
0.054463
0.109232
0.0958957
0.172362
0.197872
0.21245
0.213799
0.216892
0.215415
0.216812
0.216018
0.216967
0.216377
0.216192
0.214968
0.213771
0.212305
0.211529
0.211947
0.214181
0.218061
0.222563
0.227317
0.229148
0.223933
0.214616
0.205465
0.197297
0.190359
0.184727
0.1804
0.177493
0.176101
0.176386
0.178493
0.18259
0.18883
0.197353
0.208264
0.221618
0.237394
0.255474
0.275602
0.297362
0.320044
0.342563
0.363232
0.380125
0.390994
0.394051
0.387604
0.372421
0.349201
0.322656
0.291831
0.265057
0.230682
0.211103
0.161325
0.15965
0.0535555
0.11004
0.0996897
0.171633
0.197433
0.211944
0.213725
0.21684
0.215544
0.21687
0.216102
0.217024
0.216468
0.216284
0.215056
0.21384
0.21235
0.211533
0.211906
0.214128
0.218105
0.22284
0.227702
0.229517
0.224338
0.215042
0.205854
0.197622
0.190614
0.184907
0.180505
0.177524
0.176058
0.176268
0.178299
0.182319
0.188478
0.196919
0.207743
0.221007
0.236689
0.254671
0.274695
0.296347
0.318917
0.341311
0.361833
0.378548
0.389204
0.392013
0.385301
0.369906
0.346591
0.32013
0.289515
0.263099
0.229034
0.209956
0.160267
0.159362
0.0526736
0.110887
0.103315
0.171024
0.19702
0.211455
0.213639
0.216782
0.215673
0.216935
0.216198
0.217085
0.216561
0.216383
0.215156
0.213921
0.212407
0.211554
0.211886
0.214093
0.218153
0.223099
0.228065
0.229873
0.224745
0.215485
0.206265
0.19797
0.190889
0.185106
0.180629
0.177573
0.176033
0.176169
0.178124
0.182066
0.188146
0.196503
0.20724
0.220413
0.235999
0.25388
0.273798
0.295338
0.317788
0.34005
0.360412
0.376935
0.38736
0.389902
0.382908
0.367292
0.34389
0.31753
0.287145
0.261109
0.227372
0.208814
0.159224
0.159105
0.0518153
0.111776
0.106781
0.170526
0.196634
0.210985
0.213544
0.21672
0.215801
0.217007
0.216307
0.21715
0.216654
0.216489
0.215266
0.214013
0.212478
0.21159
0.211886
0.214077
0.218205
0.22334
0.228404
0.230216
0.225153
0.215943
0.206696
0.198337
0.191184
0.185325
0.180772
0.177641
0.176027
0.176089
0.177969
0.181834
0.187834
0.196108
0.206757
0.219839
0.235328
0.253105
0.272913
0.294336
0.316662
0.338781
0.358972
0.375285
0.385461
0.387716
0.380422
0.364579
0.341095
0.314855
0.284723
0.259089
0.225696
0.207678
0.158195
0.158877
0.0509783
0.112705
0.110096
0.170132
0.196278
0.210539
0.213443
0.216657
0.215927
0.217085
0.216429
0.217224
0.216749
0.216598
0.215387
0.214117
0.212562
0.211643
0.211907
0.214082
0.218262
0.223562
0.228718
0.230545
0.225558
0.216411
0.207145
0.198725
0.1915
0.185563
0.180934
0.177729
0.176042
0.17603
0.177835
0.181624
0.187544
0.195735
0.206297
0.219285
0.234676
0.252348
0.272043
0.293345
0.315539
0.337506
0.357512
0.373601
0.383508
0.385454
0.377843
0.361765
0.338207
0.312106
0.282248
0.257041
0.224008
0.206548
0.157178
0.158681
0.0501607
0.113676
0.113266
0.169833
0.19595
0.210117
0.21334
0.216595
0.216052
0.21717
0.216562
0.217306
0.216847
0.216707
0.215518
0.214235
0.212662
0.211714
0.211947
0.214108
0.218325
0.223765
0.229006
0.23086
0.225957
0.216888
0.207609
0.199131
0.191834
0.18582
0.181116
0.177837
0.176077
0.175992
0.177724
0.181437
0.187278
0.195386
0.205861
0.218756
0.234047
0.251612
0.271192
0.292368
0.314423
0.336229
0.356037
0.371883
0.381501
0.383116
0.37517
0.358851
0.335228
0.309285
0.279724
0.254967
0.222307
0.205425
0.156173
0.158515
0.0493601
0.114689
0.1163
0.169622
0.195653
0.20972
0.213237
0.216535
0.216175
0.217259
0.216707
0.217399
0.216951
0.216816
0.215655
0.214366
0.212779
0.211804
0.212009
0.214154
0.218399
0.22395
0.229267
0.231162
0.226349
0.21737
0.208087
0.199554
0.192187
0.186098
0.181319
0.177966
0.176135
0.175978
0.177636
0.181274
0.187038
0.195063
0.205451
0.218253
0.233443
0.250899
0.27036
0.291407
0.313317
0.334952
0.354547
0.370133
0.379442
0.380705
0.372406
0.355841
0.332161
0.306398
0.277154
0.25287
0.220595
0.204312
0.155179
0.158381
0.0485743
0.115745
0.119205
0.169492
0.195386
0.20935
0.213136
0.21648
0.216298
0.217355
0.216862
0.217503
0.217064
0.216926
0.215796
0.21451
0.212913
0.211914
0.212093
0.21422
0.218484
0.224118
0.229505
0.231448
0.226732
0.217855
0.208576
0.199993
0.192559
0.186395
0.181542
0.178117
0.176215
0.175987
0.177574
0.181138
0.186825
0.194769
0.205069
0.217778
0.232867
0.250213
0.269553
0.290465
0.312224
0.333677
0.353046
0.368355
0.377334
0.378223
0.369555
0.352741
0.329016
0.303452
0.274543
0.250754
0.218873
0.20321
0.154194
0.158278
0.0478012
0.116843
0.121986
0.169436
0.195149
0.209007
0.213041
0.216431
0.216422
0.217457
0.217026
0.217619
0.217187
0.217039
0.21594
0.214664
0.213064
0.212045
0.2122
0.214307
0.21858
0.224276
0.229722
0.231713
0.227105
0.218341
0.209075
0.200447
0.192948
0.186711
0.181787
0.17829
0.176319
0.176021
0.177537
0.181029
0.18664
0.194504
0.204718
0.217334
0.232322
0.249555
0.268771
0.289546
0.311147
0.332408
0.351536
0.36655
0.375179
0.375675
0.366624
0.34956
0.325802
0.300457
0.271899
0.248626
0.217142
0.202121
0.153218
0.158208
0.0470385
0.117984
0.124652
0.169448
0.194942
0.208691
0.212954
0.216391
0.216549
0.217566
0.217198
0.217747
0.217322
0.217156
0.216086
0.214827
0.213231
0.212198
0.212332
0.214417
0.218688
0.224427
0.229917
0.231956
0.227467
0.218826
0.209582
0.200916
0.193355
0.187047
0.182053
0.178486
0.176447
0.176081
0.177528
0.180949
0.186486
0.19427
0.204399
0.216922
0.231809
0.248929
0.268019
0.288652
0.310088
0.331147
0.35002
0.364722
0.372983
0.373066
0.363621
0.346311
0.322534
0.297429
0.269234
0.246493
0.215407
0.201048
0.15225
0.15817
0.0462841
0.119169
0.127206
0.169523
0.194763
0.208402
0.212875
0.21636
0.216679
0.217683
0.217379
0.217887
0.21747
0.217282
0.216236
0.214997
0.213415
0.212373
0.212489
0.214551
0.218811
0.224573
0.230092
0.232176
0.227815
0.219308
0.210096
0.201398
0.193779
0.187403
0.18234
0.178706
0.1766
0.176168
0.177548
0.180899
0.186363
0.19407
0.204115
0.216546
0.231331
0.248338
0.267299
0.287786
0.309051
0.329898
0.348502
0.362875
0.370749
0.370402
0.360556
0.343008
0.319229
0.294382
0.266559
0.244362
0.213669
0.199991
0.151289
0.158165
0.0455359
0.120395
0.129656
0.169655
0.194613
0.20814
0.212805
0.21634
0.216814
0.21781
0.217569
0.218039
0.217632
0.217417
0.21639
0.215172
0.213613
0.21257
0.212673
0.21471
0.218949
0.224717
0.230248
0.232372
0.228148
0.219785
0.210616
0.201893
0.19422
0.187779
0.182649
0.178949
0.176778
0.176282
0.177597
0.180881
0.186274
0.193905
0.203867
0.216208
0.230891
0.247783
0.266614
0.286952
0.30804
0.328664
0.346984
0.361013
0.368483
0.367693
0.357442
0.339665
0.315904
0.291335
0.263887
0.242244
0.211935
0.198955
0.150333
0.158192
0.0447922
0.121664
0.132005
0.169838
0.19449
0.207904
0.212747
0.216332
0.216954
0.217947
0.217767
0.218203
0.217809
0.217565
0.216551
0.215353
0.213824
0.212789
0.212884
0.214896
0.219106
0.224862
0.230387
0.232545
0.228464
0.220256
0.21114
0.202399
0.194677
0.188174
0.18298
0.179216
0.176984
0.176425
0.177676
0.180895
0.186219
0.193776
0.203658
0.215909
0.230491
0.247268
0.265967
0.286152
0.307056
0.327448
0.345471
0.359139
0.366191
0.364947
0.35429
0.336301
0.312577
0.288303
0.261234
0.24015
0.210209
0.197943
0.149384
0.158252
0.0440511
0.122974
0.13426
0.170069
0.194395
0.207694
0.2127
0.216335
0.217101
0.218096
0.217974
0.218379
0.217999
0.217728
0.216724
0.215541
0.214047
0.213029
0.213122
0.215111
0.219284
0.225009
0.230511
0.232695
0.228761
0.220717
0.211666
0.202916
0.19515
0.188589
0.183334
0.179509
0.177216
0.176597
0.177788
0.180944
0.186201
0.193686
0.203489
0.215652
0.230134
0.246795
0.265361
0.28539
0.306105
0.326253
0.343965
0.357259
0.363879
0.362173
0.351115
0.332931
0.309265
0.285304
0.258612
0.23809
0.208498
0.196957
0.148442
0.158343
0.0433113
0.124324
0.136425
0.170343
0.194326
0.20751
0.212666
0.216351
0.217256
0.218258
0.218192
0.218568
0.218203
0.217905
0.216909
0.215738
0.214281
0.213288
0.213387
0.215356
0.219485
0.225162
0.230624
0.232823
0.229038
0.221166
0.212193
0.203444
0.19564
0.189023
0.18371
0.179826
0.177476
0.176799
0.177932
0.181027
0.186221
0.193637
0.203363
0.215439
0.229822
0.246368
0.2648
0.284669
0.305188
0.325082
0.342471
0.355377
0.361554
0.359381
0.34793
0.329572
0.305985
0.282352
0.256033
0.236073
0.206809
0.196001
0.147506
0.158466
0.0425715
0.125712
0.138503
0.170655
0.194282
0.20735
0.212644
0.216379
0.217418
0.218431
0.218422
0.218771
0.218422
0.218099
0.217109
0.215947
0.214527
0.213565
0.213679
0.21563
0.21971
0.225325
0.230727
0.232931
0.229293
0.221602
0.212718
0.20398
0.196144
0.189478
0.18411
0.18017
0.177764
0.177032
0.178109
0.181148
0.18628
0.193629
0.203281
0.215272
0.229558
0.245989
0.264285
0.283993
0.304309
0.32394
0.340992
0.353498
0.359224
0.356583
0.34475
0.32624
0.302752
0.279459
0.253507
0.234107
0.205147
0.195078
0.146579
0.158619
0.0418309
0.127136
0.1405
0.171002
0.194263
0.207214
0.212634
0.21642
0.217587
0.218618
0.218663
0.218988
0.218654
0.21831
0.217327
0.216171
0.214786
0.21386
0.213995
0.215933
0.219961
0.2255
0.230826
0.233021
0.229525
0.222021
0.21324
0.204524
0.196663
0.189952
0.184532
0.18054
0.178082
0.177297
0.178322
0.181305
0.18638
0.193665
0.203245
0.215155
0.229344
0.245661
0.263821
0.283363
0.303472
0.322828
0.339531
0.351626
0.356895
0.353788
0.341586
0.32295
0.299579
0.276637
0.251041
0.232198
0.203518
0.194192
0.145662
0.158801
0.041089
0.128593
0.142418
0.171381
0.194268
0.207102
0.212637
0.216474
0.217766
0.218818
0.218917
0.21922
0.218902
0.218539
0.217563
0.216411
0.21506
0.214172
0.214335
0.216265
0.220239
0.225689
0.230922
0.233095
0.229736
0.222421
0.213755
0.205074
0.197197
0.190446
0.184979
0.180937
0.17843
0.177596
0.178571
0.181503
0.186522
0.193747
0.203258
0.215088
0.229183
0.245387
0.26341
0.282785
0.302679
0.321751
0.338093
0.349768
0.354576
0.351007
0.338454
0.319715
0.296479
0.273894
0.248642
0.230351
0.201926
0.193345
0.144757
0.159012
0.0403457
0.130081
0.144262
0.171788
0.194296
0.207013
0.212653
0.21654
0.217952
0.21903
0.219183
0.219469
0.219165
0.218785
0.217819
0.216672
0.215352
0.214502
0.214698
0.216624
0.220544
0.225895
0.231019
0.233156
0.229924
0.222801
0.214262
0.205628
0.197744
0.19096
0.18545
0.181362
0.178808
0.177928
0.178856
0.18174
0.186707
0.193875
0.203322
0.215075
0.229077
0.245169
0.263056
0.282261
0.301934
0.320711
0.33668
0.347928
0.352274
0.348251
0.335366
0.31655
0.293462
0.271239
0.246316
0.228569
0.200375
0.192539
0.143867
0.159251
0.0396015
0.131596
0.146035
0.17222
0.194347
0.206947
0.212683
0.216619
0.218147
0.219254
0.219461
0.219735
0.219444
0.219049
0.218095
0.216954
0.215664
0.214851
0.215081
0.217009
0.220875
0.22612
0.231122
0.233209
0.230093
0.223159
0.214757
0.206184
0.198304
0.191493
0.185945
0.181815
0.179218
0.178294
0.17918
0.182019
0.186938
0.194053
0.203437
0.215117
0.22903
0.245011
0.262761
0.281794
0.30124
0.319711
0.335297
0.346112
0.349996
0.34553
0.332334
0.313466
0.290539
0.268676
0.244065
0.226854
0.198868
0.191775
0.142994
0.159518
0.0388575
0.133133
0.14774
0.172674
0.194419
0.206902
0.212725
0.21671
0.21835
0.21949
0.219751
0.220017
0.21974
0.219332
0.218392
0.217259
0.215998
0.215221
0.215486
0.217417
0.221231
0.226364
0.231232
0.233255
0.230243
0.223495
0.215238
0.206739
0.198874
0.192045
0.186465
0.182297
0.17966
0.178697
0.179543
0.182341
0.187216
0.194281
0.203607
0.215217
0.229043
0.244915
0.262529
0.281387
0.3006
0.318754
0.333946
0.344324
0.347749
0.342853
0.32937
0.310474
0.287715
0.266211
0.241892
0.225208
0.197406
0.191056
0.142141
0.159812
0.038115
0.13469
0.149379
0.173147
0.194512
0.206879
0.21278
0.216813
0.218561
0.219738
0.220052
0.220317
0.220055
0.219635
0.21871
0.217588
0.216357
0.215614
0.215912
0.217848
0.22161
0.226628
0.231351
0.233298
0.230377
0.223808
0.215702
0.207291
0.199453
0.192615
0.187009
0.182807
0.180135
0.179136
0.179947
0.182707
0.187542
0.194561
0.203834
0.215377
0.229119
0.244885
0.262362
0.281044
0.300016
0.317843
0.332631
0.34257
0.345542
0.340232
0.326484
0.307584
0.284999
0.263846
0.239797
0.223629
0.195991
0.190381
0.14131
0.160133
0.0373759
0.136261
0.150957
0.173638
0.194626
0.206877
0.212849
0.216928
0.21878
0.219996
0.220364
0.220631
0.220387
0.219958
0.21905
0.217942
0.216742
0.216031
0.21636
0.218299
0.22201
0.226912
0.231483
0.233342
0.230499
0.224101
0.21615
0.207838
0.200039
0.193202
0.187576
0.183347
0.180644
0.179613
0.180391
0.183119
0.187918
0.194895
0.204119
0.2156
0.229262
0.244922
0.262265
0.280767
0.299491
0.316978
0.331355
0.340854
0.343381
0.337674
0.323687
0.304804
0.282395
0.261583
0.237783
0.222119
0.194624
0.18975
0.140503
0.16048
0.0366426
0.137844
0.152475
0.174144
0.194759
0.206895
0.212931
0.217055
0.219008
0.220265
0.220687
0.220961
0.220736
0.220303
0.219412
0.21832
0.217154
0.216474
0.216831
0.218771
0.222429
0.227212
0.231628
0.233389
0.230612
0.224374
0.216579
0.208376
0.20063
0.193804
0.188168
0.183916
0.181187
0.180128
0.180879
0.183577
0.188344
0.195286
0.204464
0.215888
0.229473
0.245031
0.26224
0.280561
0.299028
0.316163
0.330121
0.339181
0.341272
0.335189
0.320987
0.30214
0.279905
0.259422
0.235848
0.220677
0.193305
0.189165
0.139723
0.160853
0.0359176
0.139434
0.153937
0.174662
0.19491
0.206933
0.213026
0.217194
0.219243
0.220544
0.22102
0.221305
0.221102
0.22067
0.219797
0.218725
0.217593
0.216944
0.217326
0.219262
0.222865
0.22753
0.231786
0.233443
0.230719
0.224632
0.216991
0.208905
0.201224
0.194421
0.188782
0.184514
0.181764
0.180682
0.18141
0.184083
0.188824
0.195734
0.204872
0.216243
0.229755
0.245215
0.26229
0.280426
0.298628
0.315399
0.328931
0.337555
0.339222
0.332783
0.318393
0.299599
0.277532
0.257363
0.233992
0.219301
0.192035
0.188624
0.13897
0.161252
0.0352037
0.141027
0.155343
0.175191
0.195079
0.20699
0.213134
0.217345
0.219487
0.220832
0.221362
0.221662
0.221484
0.221056
0.220205
0.219154
0.21806
0.217443
0.217846
0.219772
0.223316
0.227861
0.231958
0.233506
0.230824
0.224876
0.217386
0.209423
0.201818
0.195049
0.189417
0.185141
0.182376
0.181276
0.181985
0.184639
0.189358
0.196241
0.205345
0.216667
0.230111
0.245476
0.262419
0.280367
0.298293
0.314687
0.327787
0.335981
0.337235
0.330465
0.315911
0.297184
0.275276
0.255404
0.232213
0.217991
0.190814
0.188127
0.138248
0.161676
0.0345036
0.142622
0.156697
0.17573
0.195266
0.207066
0.213255
0.217507
0.219739
0.22113
0.221713
0.222032
0.22188
0.221463
0.220636
0.21961
0.218554
0.21797
0.218391
0.220302
0.223782
0.228205
0.232142
0.233579
0.23093
0.22511
0.217766
0.209931
0.202411
0.195688
0.190074
0.185797
0.183023
0.18191
0.182606
0.185245
0.189947
0.19681
0.205885
0.217164
0.230545
0.245817
0.26263
0.280386
0.298024
0.314028
0.326694
0.334461
0.335318
0.328241
0.313547
0.294897
0.273136
0.253543
0.23051
0.216746
0.189643
0.187674
0.137557
0.162125
0.0338202
0.144213
0.158001
0.176276
0.195469
0.20716
0.213389
0.217681
0.219999
0.221436
0.222072
0.222413
0.22229
0.221887
0.221089
0.220091
0.219076
0.218525
0.218961
0.220852
0.224262
0.228559
0.232339
0.233663
0.231041
0.225339
0.218135
0.210428
0.203002
0.196336
0.190749
0.186481
0.183704
0.182586
0.183273
0.185903
0.190594
0.197441
0.206493
0.217736
0.231058
0.246242
0.262925
0.280484
0.297821
0.313423
0.325651
0.332999
0.333475
0.326116
0.311307
0.292741
0.27111
0.251777
0.228882
0.215565
0.188521
0.187264
0.1369
0.162599
0.0331564
0.145799
0.159256
0.176828
0.195687
0.207271
0.213536
0.217867
0.220267
0.221752
0.22244
0.222805
0.222712
0.222328
0.221562
0.220598
0.219624
0.219108
0.219558
0.221422
0.224754
0.228923
0.232546
0.23376
0.23116
0.225567
0.218496
0.210918
0.203591
0.196992
0.191443
0.187191
0.18442
0.183302
0.183987
0.186613
0.1913
0.198138
0.207173
0.218384
0.231653
0.246754
0.263309
0.280664
0.297685
0.312872
0.324662
0.331597
0.331709
0.324095
0.309192
0.290713
0.269197
0.250104
0.227327
0.214447
0.18745
0.186898
0.136276
0.163096
0.032515
0.147378
0.160465
0.177385
0.195921
0.2074
0.213696
0.218065
0.220544
0.222076
0.222816
0.223207
0.223146
0.222784
0.222054
0.221128
0.220199
0.219718
0.22018
0.222012
0.22526
0.229295
0.232763
0.233869
0.231288
0.225798
0.218853
0.211401
0.204179
0.197654
0.192153