/*--------------------------------*- C++ -*----------------------------------*\
| =========                 |                                                 |
| \\      /  F ield         | OpenFOAM: The Open Source CFD Toolbox           |
|  \\    /   O peration     | Version:  2.4.0                                 |
|   \\  /    A nd           | Web:      www.OpenFOAM.org                      |
|    \\/     M anipulation  |                                                 |
\*---------------------------------------------------------------------------*/
FoamFile
{
    version     2.0;
    format      ascii;
    class       volScalarField;
    location    "0.47";
    object      epsilon;
}
// * * * * * * * * * * * * * * * * * * * * * * * * * * * * * * * * * * * * * //

dimensions      [0 2 -3 0 0 0 0];

internalField   nonuniform List<scalar> 
6000
(
1.00192
0.293125
0.0159423
0.0590715
0.04949
0.0372052
0.0202463
0.0121939
0.00803414
0.00736104
0.0113357
0.0165896
0.0218666
0.0264171
0.0296419
0.0313877
0.0319778
0.0319133
0.0315845
0.0312092
0.0309081
0.0306755
0.0304131
0.0301388
0.0298809
0.0296617
0.0294973
0.0294001
0.0293797
0.0294446
0.0296023
0.0298608
0.0302284
0.030715
0.0313321
0.0320935
0.0330156
0.0341182
0.0354238
0.0369592
0.0387611
0.0408835
0.0433887
0.0463536
0.0498756
0.0540807
0.0591327
0.0652485
0.0727176
0.0819344
0.0935096
0.10851
0.12804
0.153878
0.188321
0.236438
0.301323
0.404534
0.530521
0.81002
0.554986
0.275039
0.0107536
0.0164468
0.0104837
0.00702295
0.00504659
0.0041432
0.00391276
0.00427433
0.00500552
0.00582667
0.00676892
0.00784302
0.00892593
0.00975218
0.0101174
0.0100617
0.00978376
0.00945231
0.00913764
0.00884511
0.0085698
0.00831495
0.00808615
0.00788712
0.00771908
0.00758176
0.00747433
0.00739588
0.00734569
0.0073233
0.00732863
0.00736201
0.00742425
0.00751677
0.00764173
0.00780246
0.00800316
0.00824939
0.0085485
0.00890552
0.00932938
0.00983237
0.0104302
0.0111429
0.0119967
0.0130257
0.0142752
0.0158063
0.0177061
0.020112
0.0232107
0.0272496
0.0326464
0.0398389
0.0502475
0.0642378
0.0875416
0.121817
0.413812
0.335423
0.0170742
0.0114139
0.00700702
0.00521905
0.00420435
0.00360431
0.0033919
0.00340571
0.00349217
0.00358882
0.00371127
0.00389938
0.00416323
0.00442931
0.00458229
0.00457498
0.00445515
0.00429518
0.00413745
0.00399394
0.00386493
0.00374974
0.00364861
0.00356167
0.00348846
0.00342804
0.00337937
0.00334147
0.00331354
0.00329494
0.00328523
0.00328414
0.00329159
0.00330771
0.00333286
0.00336761
0.0034127
0.00346926
0.00353906
0.00362335
0.00372416
0.00384424
0.00398707
0.00415712
0.0043601
0.0046034
0.0048967
0.00525277
0.00568916
0.00623044
0.00691265
0.00778104
0.00891962
0.010383
0.0124969
0.0150587
0.0197161
0.0241767
0.365333
0.344912
0.0383716
0.013133
0.00798391
0.00592385
0.00452635
0.00365536
0.00324181
0.00307398
0.00300865
0.00296
0.00290201
0.00284779
0.00282719
0.00284419
0.0028634
0.00284882
0.002798
0.00273065
0.00266378
0.00260395
0.00255172
0.00250628
0.00246711
0.00243387
0.00240616
0.00238344
0.00236518
0.00235091
0.00234023
0.00233282
0.00232846
0.002327
0.00232836
0.00233256
0.00233966
0.00234984
0.0023633
0.00238045
0.00240173
0.0024276
0.00245876
0.00249608
0.00254068
0.00259395
0.00265766
0.00273408
0.00282612
0.00293753
0.00307336
0.00324026
0.00344785
0.00370743
0.00404171
0.00445834
0.00505278
0.0057166
0.00698928
0.00781342
0.34164
0.330483
0.0626336
0.0173699
0.0104043
0.00741277
0.00522837
0.00393919
0.00329213
0.00299524
0.00286132
0.00277104
0.002672
0.00255502
0.00244463
0.00236689
0.002322
0.00229149
0.00226182
0.00223152
0.00220353
0.00217947
0.00215917
0.002142
0.00212752
0.00211542
0.00210546
0.0020974
0.002091
0.00208606
0.0020824
0.0020799
0.00207846
0.00207802
0.00207855
0.00208005
0.00208256
0.00208612
0.00209086
0.00209699
0.00210463
0.00211398
0.00212535
0.00213913
0.00215579
0.00217597
0.00220042
0.00223015
0.00226641
0.00231086
0.00236564
0.00243357
0.00251863
0.00262545
0.00276309
0.00293456
0.00317745
0.00344832
0.00396404
0.00429988
0.32853
0.307593
0.0856263
0.0238923
0.0138634
0.00949752
0.00619427
0.00437463
0.00345623
0.00302417
0.00282187
0.0027028
0.00259401
0.00246713
0.00233511
0.00222672
0.00215588
0.00211518
0.00209074
0.00207385
0.00206114
0.00205133
0.00204358
0.00203729
0.00203212
0.00202786
0.0020244
0.00202162
0.00201945
0.00201779
0.0020166
0.00201582
0.00201542
0.00201538
0.0020157
0.00201638
0.00201744
0.00201891
0.00202085
0.00202332
0.00202644
0.0020303
0.00203505
0.00204091
0.0020481
0.00205697
0.00206792
0.00208149
0.0020984
0.00211955
0.00214618
0.0021799
0.002223
0.00227815
0.00235072
0.0024426
0.00257568
0.00272703
0.00302552
0.00325657
0.320661
0.283361
0.105469
0.0333351
0.0182735
0.0121963
0.00741571
0.0049377
0.00370084
0.00311403
0.00282783
0.00267328
0.00255748
0.00243417
0.00230288
0.00218844
0.00210922
0.00206384
0.00204028
0.00202788
0.00202075
0.00201621
0.00201303
0.00201059
0.00200861
0.00200696
0.00200559
0.00200448
0.0020036
0.00200293
0.00200246
0.00200217
0.00200206
0.00200213
0.00200237
0.0020028
0.00200343
0.00200428
0.00200539
0.00200679
0.00200853
0.00201068
0.00201334
0.00201663
0.0020207
0.00202576
0.00203207
0.00203998
0.00204994
0.00206258
0.00207874
0.00209953
0.00212659
0.00216188
0.00220929
0.00227088
0.00236204
0.00246763
0.00268806
0.00288065
0.315429
0.260794
0.120472
0.0463959
0.0236186
0.0155261
0.00889688
0.00561591
0.00401405
0.00324796
0.00286227
0.00266217
0.00253442
0.00241544
0.00229072
0.00217861
0.00209814
0.00205118
0.00202758
0.0020165
0.0020112
0.00200841
0.00200668
0.0020054
0.00200433
0.00200339
0.00200255
0.00200184
0.00200126
0.0020008
0.00200047
0.00200027
0.00200021
0.00200027
0.00200048
0.00200082
0.00200133
0.00200201
0.00200288
0.00200399
0.00200538
0.00200709
0.0020092
0.00201178
0.00201497
0.0020189
0.00202378
0.00202988
0.00203753
0.00204723
0.00205963
0.0020756
0.00209648
0.00212386
0.00216102
0.00220969
0.00228335
0.00236922
0.00255758
0.00273145
0.311623
0.240987
0.131003
0.0617085
0.0299879
0.019459
0.010643
0.00640523
0.00439675
0.00341924
0.00292054
0.00266535
0.00251904
0.00240143
0.00228358
0.00217596
0.0020966
0.0020493
0.00202548
0.00201464
0.00200981
0.00200748
0.00200612
0.0020051
0.0020042
0.00200336
0.0020026
0.00200193
0.00200136
0.00200091
0.00200058
0.00200038
0.0020003
0.00200035
0.00200053
0.00200086
0.00200134
0.002002
0.00200284
0.00200391
0.00200523
0.00200685
0.00200885
0.0020113
0.00201429
0.00201797
0.00202251
0.00202814
0.00203517
0.00204401
0.00205524
0.00206964
0.00208837
0.00211285
0.00214608
0.00218956
0.00225598
0.00233321
0.00250735
0.00267076
0.308704
0.224161
0.137414
0.077374
0.0378197
0.0239095
0.0126546
0.0073217
0.00484136
0.00362262
0.00300013
0.00268188
0.0025106
0.00239046
0.0022781
0.00217511
0.00209741
0.0020501
0.00202595
0.00201496
0.00201013
0.00200784
0.0020065
0.00200547
0.00200455
0.00200369
0.0020029
0.00200219
0.0020016
0.00200113
0.00200078
0.00200055
0.00200046
0.0020005
0.00200068
0.002001
0.00200147
0.00200212
0.00200297
0.00200403
0.00200536
0.00200699
0.00200899
0.00201143
0.00201442
0.00201808
0.00202258
0.00202814
0.00203506
0.00204374
0.00205471
0.0020687
0.00208684
0.00211044
0.00214237
0.00218402
0.0022477
0.0023214
0.00248899
0.00264608
0.306404
0.21015
0.140195
0.0912525
0.0471092
0.0287292
0.0149302
0.00838874
0.00533155
0.00385187
0.00309815
0.002711
0.00250916
0.00238249
0.00227378
0.00217493
0.00209889
0.00205156
0.00202697
0.00201566
0.00201065
0.00200827
0.00200686
0.00200577
0.0020048
0.00200389
0.00200305
0.00200232
0.0020017
0.0020012
0.00200084
0.0020006
0.0020005
0.00200053
0.00200071
0.00200102
0.0020015
0.00200216
0.002003
0.00200408
0.00200541
0.00200705
0.00200906
0.00201152
0.00201452
0.0020182
0.00202273
0.00202831
0.00203525
0.00204394
0.00205491
0.00206888
0.00208694
0.00211037
0.00214201
0.00218318
0.00224601
0.00231849
0.00248285
0.0026357
0.304555
0.198632
0.139979
0.102101
0.0565581
0.033613
0.0174366
0.00952038
0.00585047
0.00409914
0.00321085
0.00275144
0.00251466
0.0023777
0.00227064
0.00217526
0.0021007
0.00205327
0.00202815
0.0020164
0.00201115
0.00200862
0.00200711
0.00200595
0.00200492
0.00200397
0.00200311
0.00200235
0.00200171
0.0020012
0.00200083
0.00200058
0.00200048
0.00200051
0.00200068
0.00200099
0.00200147
0.00200212
0.00200298
0.00200405
0.00200539
0.00200704
0.00200906
0.00201153
0.00201455
0.00201825
0.0020228
0.00202841
0.00203539
0.00204411
0.00205513
0.00206915
0.00208726
0.00211075
0.00214242
0.00218358
0.00224627
0.00231847
0.00248094
0.00263057
0.303048
0.189251
0.137481
0.109256
0.0650971
0.0381843
0.0198425
0.0106437
0.00637549
0.00435503
0.00333383
0.00280149
0.00252679
0.0023762
0.00226876
0.00217609
0.0021028
0.00205518
0.00202943
0.00201718
0.00201163
0.00200893
0.00200731
0.00200608
0.002005
0.00200401
0.00200312
0.00200234
0.00200169
0.00200117
0.00200079
0.00200054
0.00200043
0.00200046
0.00200062
0.00200094
0.00200142
0.00200207
0.00200293
0.00200401
0.00200535
0.002007
0.00200903
0.00201151
0.00201454
0.00201825
0.00202281
0.00202844
0.00203545
0.00204421
0.00205527
0.00206935
0.00208753
0.00211111
0.00214289
0.00218417
0.00224693
0.00231918
0.00248019
0.00262707
0.301807
0.181665
0.133409
0.112607
0.0717454
0.0420227
0.0219331
0.011679
0.00687969
0.00460912
0.00346231
0.00285911
0.00254502
0.00237804
0.00226822
0.00217744
0.00210519
0.00205726
0.00203081
0.00201801
0.00201212
0.00200923
0.0020075
0.0020062
0.00200506
0.00200404
0.00200312
0.00200232
0.00200166
0.00200113
0.00200074
0.00200049
0.00200038
0.0020004
0.00200057
0.00200088
0.00200136
0.00200202
0.00200287
0.00200395
0.0020053
0.00200695
0.00200898
0.00201147
0.0020145
0.00201822
0.0020228
0.00202845
0.00203548
0.00204427
0.00205536
0.00206949
0.00208774
0.0021114
0.00214328
0.00218471
0.00224757
0.00231993
0.0024796
0.00262396
0.300779
0.175569
0.128399
0.11248
0.0758526
0.0447264
0.023532
0.01255
0.0073354
0.00485092
0.00359151
0.0029221
0.00256866
0.00238317
0.00226907
0.00217931
0.00210784
0.00205953
0.00203231
0.0020189
0.00201264
0.00200954
0.00200769
0.00200631
0.00200512
0.00200406
0.00200311
0.0020023
0.00200162
0.00200109
0.00200069
0.00200044
0.00200032
0.00200034
0.00200051
0.00200083
0.0020013
0.00200196
0.00200281
0.0020039
0.00200524
0.0020069
0.00200894
0.00201143
0.00201447
0.0020182
0.00202278
0.00202845
0.00203549
0.0020443
0.00205543
0.0020696
0.0020879
0.00211164
0.00214361
0.00218516
0.00224812
0.00232058
0.00247893
0.00262088
0.299923
0.170698
0.122985
0.109499
0.0771847
0.0460268
0.0245166
0.0131974
0.00771876
0.00507106
0.00371705
0.00298828
0.00259687
0.00239146
0.00227134
0.00218171
0.00211074
0.00206196
0.00203392
0.00201986
0.0020132
0.00200987
0.00200789
0.00200642
0.00200518
0.00200408
0.00200311
0.00200228
0.00200159
0.00200105
0.00200065
0.00200039
0.00200027
0.00200029
0.00200045
0.00200077
0.00200125
0.0020019
0.00200276
0.00200384
0.00200519
0.00200685
0.00200889
0.00201138
0.00201443
0.00201817
0.00202276
0.00202844
0.0020355
0.00204433
0.00205549
0.00206969
0.00208804
0.00211184
0.0021439
0.00218556
0.00224859
0.00232112
0.00247816
0.0026178
0.299208
0.16683
0.117573
0.104447
0.0759181
0.0458649
0.0248445
0.0135908
0.00801403
0.0052625
0.00383532
0.00305566
0.00262877
0.00240272
0.00227507
0.00218466
0.00211389
0.00206455
0.00203564
0.00202088
0.00201379
0.00201022
0.00200809
0.00200654
0.00200524
0.0020041
0.00200311
0.00200226
0.00200156
0.00200101
0.0020006
0.00200034
0.00200021
0.00200023
0.0020004
0.00200071
0.00200119
0.00200184
0.0020027
0.00200379
0.00200514
0.0020068
0.00200884
0.00201134
0.00201439
0.00201814
0.00202274
0.00202843
0.0020355
0.00204436
0.00205554
0.00206978
0.00208818
0.00211204
0.00214417
0.00218593
0.00224901
0.00232158
0.00247733
0.00261475
0.29861
0.163778
0.112453
0.0981349
0.07256
0.0444053
0.0245645
0.0137341
0.00821633
0.00542141
0.00394377
0.00312251
0.00266348
0.00241672
0.00228024
0.00218817
0.00211728
0.00206729
0.00203746
0.00202196
0.00201442
0.00201058
0.00200831
0.00200666
0.0020053
0.00200413
0.00200311
0.00200224
0.00200153
0.00200097
0.00200055
0.00200029
0.00200016
0.00200018
0.00200034
0.00200066
0.00200113
0.00200179
0.00200265
0.00200373
0.00200509
0.00200675
0.0020088
0.0020113
0.00201436
0.00201811
0.00202272
0.00202842
0.00203551
0.00204438
0.00205559
0.00206986
0.0020883
0.00211222
0.00214443
0.00218628
0.0022494
0.00232198
0.00247648
0.00261178
0.298108
0.161384
0.107808
0.091303
0.0678122
0.0419739
0.0238024
0.0136626
0.00833187
0.00554753
0.00404104
0.00318751
0.00270016
0.00243314
0.00228685
0.00219225
0.00212091
0.00207017
0.00203937
0.00202311
0.00201508
0.00201097
0.00200853
0.00200679
0.00200537
0.00200415
0.0020031
0.00200222
0.0020015
0.00200093
0.00200051
0.00200024
0.00200011
0.00200013
0.00200029
0.0020006
0.00200108
0.00200174
0.00200259
0.00200368
0.00200504
0.00200671
0.00200875
0.00201126
0.00201432
0.00201808
0.0020227
0.00202841
0.00203551
0.00204441
0.00205564
0.00206994
0.00208842
0.0021124
0.00214467
0.00218661
0.00224976
0.00232234
0.00247562
0.00260891
0.297686
0.159522
0.103734
0.08455
0.0624135
0.0389904
0.0227287
0.0134335
0.00837582
0.0056438
0.00412692
0.00324976
0.00273805
0.00245169
0.00229485
0.00219692
0.00212477
0.00207318
0.00204137
0.0020243
0.00201577
0.00201137
0.00200877
0.00200692
0.00200544
0.00200418
0.0020031
0.0020022
0.00200147
0.00200089
0.00200046
0.00200019
0.00200006
0.00200007
0.00200024
0.00200055
0.00200103
0.00200168
0.00200254
0.00200363
0.00200499
0.00200666
0.00200871
0.00201122
0.00201429
0.00201805
0.00202268
0.0020284
0.00203552
0.00204443
0.00205569
0.00207002
0.00208854
0.00211257
0.00214491
0.00218692
0.0022501
0.00232267
0.00247478
0.00260615
0.297331
0.158085
0.100261
0.0783022
0.0570031
0.0359266
0.0215332
0.0131138
0.00836855
0.00571538
0.00420216
0.00330876
0.00277654
0.00247203
0.00230417
0.00220217
0.00212886
0.00207632
0.00204345
0.00202556
0.00201649
0.00201179
0.00200901
0.00200706
0.00200551
0.00200421
0.00200311
0.00200219
0.00200144
0.00200085
0.00200042
0.00200014
0.00200001
0.00200002
0.00200018
0.0020005
0.00200097
0.00200163
0.00200249
0.00200358
0.00200494
0.00200661
0.00200867
0.00201118
0.00201425
0.00201802
0.00202266
0.00202839
0.00203552
0.00204445
0.00205573
0.00207009
0.00208866
0.00211273
0.00214513
0.00218722
0.00225042
0.00232297
0.00247396
0.00260351
0.297031
0.156989
0.0973733
0.0728148
0.052037
0.0331002
0.0203741
0.0127656
0.00833111
0.00576849
0.00426816
0.00336435
0.00281511
0.00249384
0.00231472
0.002208
0.00213318
0.00207958
0.00204562
0.00202686
0.00201725
0.00201223
0.00200926
0.00200721
0.00200559
0.00200424
0.00200311
0.00200217
0.00200141
0.00200081
0.00200038
0.0020001
0.00199996
0.00199997
0.00200013
0.00200045
0.00200092
0.00200158
0.00200244
0.00200353
0.00200489
0.00200657
0.00200863
0.00201114
0.00201422
0.002018
0.00202264
0.00202838
0.00203553
0.00204447
0.00205577
0.00207017
0.00208877
0.00211289
0.00214535
0.00218752
0.00225073
0.00232325
0.00247316
0.00260099
0.296778
0.156162
0.0950255
0.0681968
0.047771
0.0306678
0.0193398
0.0124312
0.00828062
0.00580915
0.00432666
0.00341666
0.00285339
0.00251681
0.00232641
0.00221441
0.00213773
0.00208296
0.00204786
0.00202821
0.00201803
0.00201268
0.00200953
0.00200735
0.00200566
0.00200427
0.00200311
0.00200215
0.00200138
0.00200078
0.00200034
0.00200005
0.00199992
0.00199993
0.00200008
0.0020004
0.00200088
0.00200153
0.00200239
0.00200349
0.00200485
0.00200653
0.00200859
0.00201111
0.00201419
0.00201797
0.00202262
0.00202838
0.00203553
0.00204449
0.00205582
0.00207024
0.00208887
0.00211304
0.00214556
0.00218779
0.00225102
0.0023235
0.00247238
0.00259858
0.296563
0.15555
0.0931567
0.0644486
0.0442914
0.0286833
0.0184721
0.0121365
0.00822997
0.00584272
0.00437949
0.003466
0.00289114
0.00254067
0.00233913
0.00222138
0.00214251
0.00208644
0.00205018
0.00202961
0.00201884
0.00201315
0.0020098
0.00200751
0.00200574
0.00200431
0.00200312
0.00200214
0.00200135
0.00200074
0.0020003
0.00200001
0.00199987
0.00199988
0.00200004
0.00200035
0.00200083
0.00200149
0.00200235
0.00200344
0.0020048
0.00200649
0.00200855
0.00201107
0.00201416
0.00201794
0.0020226
0.00202837
0.00203553
0.00204451
0.00205586
0.0020703
0.00208897
0.00211319
0.00214576
0.00218806
0.00225129
0.00232373
0.00247162
0.00259629
0.29638
0.155108
0.0916997
0.0615005
0.0415689
0.0271322
0.0177799
0.0118943
0.00818788
0.0058735
0.0044284
0.00351281
0.0029282
0.00256518
0.00235276
0.00222889
0.0021475
0.00209003
0.00205256
0.00203106
0.00201968
0.00201363
0.00201007
0.00200766
0.00200583
0.00200434
0.00200312
0.00200213
0.00200133
0.00200071
0.00200026
0.00199997
0.00199983
0.00199983
0.00199999
0.0020003
0.00200078
0.00200144
0.0020023
0.0020034
0.00200476
0.00200645
0.00200851
0.00201104
0.00201413
0.00201792
0.00202259
0.00202836
0.00203554
0.00204453
0.00205589
0.00207037
0.00208907
0.00211333
0.00214596
0.00218832
0.00225155
0.00232393
0.00247089
0.00259411
0.296224
0.154798
0.0905882
0.059246
0.0395107
0.025963
0.0172517
0.0117082
0.0081594
0.00590471
0.0044749
0.00355755
0.0029645
0.00259011
0.00236719
0.00223691
0.00215271
0.00209373
0.00205501
0.00203255
0.00202055
0.00201413
0.00201036
0.00200782
0.00200591
0.00200438
0.00200313
0.00200212
0.0020013
0.00200068
0.00200022
0.00199993
0.00199978
0.00199979
0.00199995
0.00200026
0.00200074
0.0020014
0.00200226
0.00200335
0.00200472
0.00200641
0.00200847
0.002011
0.0020141
0.00201789
0.00202257
0.00202835
0.00203554
0.00204455
0.00205593
0.00207043
0.00208917
0.00211347
0.00214614
0.00218856
0.00225179
0.00232413
0.00247019
0.00259203
0.296091
0.154594
0.089761
0.0575667
0.0380008
0.0251104
0.0168662
0.0115756
0.00814679
0.00593852
0.00452024
0.00360071
0.00300004
0.00261531
0.0023823
0.00224542
0.00215814
0.00209751
0.00205752
0.00203407
0.00202144
0.00201464
0.00201065
0.00200799
0.002006
0.00200442
0.00200314
0.0020021
0.00200128
0.00200065
0.00200019
0.00199989
0.00199974
0.00199975
0.0019999
0.00200021
0.00200069
0.00200135
0.00200222
0.00200331
0.00200468
0.00200637
0.00200844
0.00201097
0.00201407
0.00201787
0.00202255
0.00202834
0.00203554
0.00204456
0.00205597
0.00207049
0.00208926
0.0021136
0.00214632
0.0021888
0.00225202
0.0023243
0.00246951
0.00259007
0.295976
0.15447
0.0891639
0.0563486
0.0369239
0.0245092
0.0165987
0.0114907
0.00815032
0.00597618
0.00456535
0.0036427
0.00303484
0.00264062
0.00239798
0.00225438
0.00216377
0.00210139
0.00206008
0.00203564
0.00202235
0.00201516
0.00201095
0.00200816
0.00200609
0.00200446
0.00200315
0.00200209
0.00200126
0.00200062
0.00200015
0.00199985
0.0019997
0.0019997
0.00199986
0.00200017
0.00200065
0.00200131
0.00200218
0.00200327
0.00200464
0.00200633
0.0020084
0.00201094
0.00201404
0.00201785
0.00202254
0.00202833
0.00203554
0.00204458
0.002056
0.00207055
0.00208934
0.00211373
0.00214649
0.00218902
0.00225224
0.00232446
0.00246885
0.0025882
0.295878
0.154411
0.0887505
0.0554905
0.036179
0.0241017
0.0164256
0.0114465
0.00816897
0.00601825
0.00461087
0.00368391
0.00306896
0.00266594
0.00241413
0.00226376
0.00216959
0.00210535
0.0020627
0.00203724
0.00202328
0.0020157
0.00201126
0.00200833
0.00200618
0.0020045
0.00200316
0.00200208
0.00200124
0.00200059
0.00200012
0.00199981
0.00199966
0.00199966
0.00199982
0.00200013
0.00200061
0.00200127
0.00200214
0.00200324
0.00200461
0.0020063
0.00200837
0.00201091
0.00201401
0.00201783
0.00202252
0.00202832
0.00203555
0.0020446
0.00205603
0.0020706
0.00208943
0.00211385
0.00214665
0.00218923
0.00225244
0.0023246
0.00246823
0.00258643
0.295792
0.1544
0.0884823
0.0549076
0.0356825
0.0238403
0.0163271
0.0114359
0.00820101
0.00606478
0.00465721
0.00372461
0.00310247
0.00269116
0.00243065
0.00227351
0.00217561
0.0021094
0.00206536
0.00203887
0.00202423
0.00201624
0.00201157
0.0020085
0.00200627
0.00200454
0.00200317
0.00200208
0.00200122
0.00200056
0.00200008
0.00199977
0.00199962
0.00199963
0.00199978
0.00200009
0.00200057
0.00200123
0.0020021
0.0020032
0.00200457
0.00200626
0.00200834
0.00201088
0.00201399
0.00201781
0.0020225
0.00202832
0.00203555
0.00204461
0.00205606
0.00207065
0.00208951
0.00211396
0.00214681
0.00218943
0.00225263
0.00232473
0.00246762
0.00258476
0.295718
0.154426
0.0883273
0.0545318
0.0353693
0.0236874
0.0162855
0.0114518
0.00824438
0.00611551
0.0047046
0.00376503
0.00313543
0.00271622
0.00244745
0.0022836
0.00218181
0.00211352
0.00206806
0.00204053
0.0020252
0.0020168
0.00201189
0.00200868
0.00200637
0.00200459
0.00200318
0.00200207
0.0020012
0.00200053
0.00200005
0.00199974
0.00199959
0.00199959
0.00199974
0.00200005
0.00200053
0.0020012
0.00200206
0.00200316
0.00200454
0.00200623
0.00200831
0.00201085
0.00201396
0.00201778
0.00202249
0.00202831
0.00203555
0.00204462
0.00205609
0.0020707
0.00208958
0.00211407
0.00214696
0.00218962
0.00225281
0.00232484
0.00246704
0.00258319
0.295654
0.154479
0.0882597
0.0543102
0.0351896
0.0236143
0.0162852
0.0114884
0.00829715
0.00617003
0.0047531
0.00380533
0.00316791
0.00274106
0.00246444
0.00229399
0.00218818
0.00211772
0.00207081
0.00204222
0.00202619
0.00201737
0.00201222
0.00200887
0.00200647
0.00200463
0.0020032
0.00200206
0.00200118
0.00200051
0.00200002
0.00199971
0.00199955
0.00199955
0.00199971
0.00200002
0.0020005
0.00200116
0.00200203
0.00200313
0.0020045
0.0020062
0.00200828
0.00201082
0.00201394
0.00201777
0.00202247
0.0020283
0.00203555
0.00204464
0.00205612
0.00207075
0.00208965
0.00211417
0.00214709
0.0021898
0.00225298
0.00232495
0.00246649
0.00258171
0.295598
0.154553
0.0882586
0.0542018
0.0351065
0.0235992
0.0163158
0.011541
0.0083575
0.00622779
0.00480268
0.0038456
0.00319995
0.00276563
0.00248155
0.00230464
0.00219471
0.00212198
0.00207359
0.00204393
0.0020272
0.00201795
0.00201255
0.00200905
0.00200657
0.00200468
0.00200321
0.00200206
0.00200116
0.00200048
0.00199999
0.00199967
0.00199952
0.00199952
0.00199967
0.00199998
0.00200046
0.00200113
0.00200199
0.0020031
0.00200447
0.00200617
0.00200825
0.0020108
0.00201392
0.00201775
0.00202246
0.00202829
0.00203555
0.00204465
0.00205614
0.00207079
0.00208972
0.00211427
0.00214723
0.00218996
0.00225313
0.00232504
0.00246597
0.00258032
0.295549
0.154641
0.0883074
0.0541762
0.0350928
0.0236263
0.0163693
0.0116058
0.00842388
0.00628825
0.00485321
0.00388588
0.00323159
0.00278991
0.0024987
0.0023155
0.0022014
0.00212632
0.00207641
0.00204567
0.00202822
0.00201854
0.00201288
0.00200924
0.00200667
0.00200473
0.00200323
0.00200206
0.00200114
0.00200046
0.00199996
0.00199964
0.00199949
0.00199948
0.00199964
0.00199995
0.00200043
0.00200109
0.00200196
0.00200307
0.00200444
0.00200614
0.00200822
0.00201077
0.0020139
0.00201773
0.00202245
0.00202829
0.00203555
0.00204466
0.00205617
0.00207083
0.00208978
0.00211436
0.00214735
0.00219012
0.00225328
0.00232513
0.00246547
0.00257901
0.295506
0.154738
0.0883928
0.0542101
0.0351287
0.0236837
0.0164394
0.0116799
0.00849496
0.00635084
0.00490452
0.00392617
0.00326286
0.00281386
0.00251583
0.00232653
0.00220822
0.00213071
0.00207926
0.00204742
0.00202925
0.00201914
0.00201322
0.00200943
0.00200677
0.00200478
0.00200325
0.00200205
0.00200113
0.00200043
0.00199994
0.00199961
0.00199945
0.00199945
0.00199961
0.00199992
0.0020004
0.00200106
0.00200193
0.00200304
0.00200441
0.00200611
0.0020082
0.00201075
0.00201388
0.00201771
0.00202244
0.00202828
0.00203555
0.00204467
0.00205619
0.00207087
0.00208984
0.00211445
0.00214747
0.00219027
0.00225341
0.00232521
0.002465
0.0025778
0.295468
0.154841
0.088504
0.0542864
0.0351996
0.0237624
0.0165214
0.0117609
0.0085692
0.00641484
0.00495635
0.00396642
0.00329377
0.00283746
0.00253289
0.00233768
0.00221516
0.00213517
0.00208214
0.0020492
0.0020303
0.00201974
0.00201357
0.00200963
0.00200688
0.00200483
0.00200326
0.00200205
0.00200112
0.00200041
0.00199991
0.00199958
0.00199942
0.00199942
0.00199958
0.00199989
0.00200037
0.00200103
0.0020019
0.00200301
0.00200439
0.00200609
0.00200817
0.00201073
0.00201386
0.0020177
0.00202242
0.00202827
0.00203555
0.00204468
0.00205621
0.00207091
0.0020899
0.00211453
0.00214757
0.00219041
0.00225353
0.00232527
0.00246455
0.00257668
0.295435
0.154947
0.0886329
0.054392
0.0352948
0.023856
0.0166116
0.0118456
0.00864528
0.0064797
0.00500848
0.00400657
0.0033243
0.00286069
0.00254983
0.00234893
0.00222221
0.00213968
0.00208505
0.00205099
0.00203136
0.00202035
0.00201392
0.00200983
0.00200698
0.00200488
0.00200328
0.00200205
0.0020011
0.00200039
0.00199989
0.00199956
0.0019994
0.00199939
0.00199955
0.00199986
0.00200034
0.00200101
0.00200188
0.00200298
0.00200436
0.00200606
0.00200815
0.00201071
0.00201384
0.00201768
0.00202241
0.00202827
0.00203555
0.00204469
0.00205623
0.00207094
0.00208995
0.00211461
0.00214767
0.00219054
0.00225365
0.00232533
0.00246414
0.00257564
0.295406
0.155054
0.0887729
0.0545173
0.0354064
0.0239595
0.0167071
0.0119326
0.00872246
0.00654496
0.00506067
0.00404654
0.00335447
0.00288353
0.0025666
0.00236022
0.00222935
0.00214423
0.00208797
0.0020528
0.00203243
0.00202097
0.00201427
0.00201002
0.00200709
0.00200494
0.0020033
0.00200205
0.00200109
0.00200037
0.00199986
0.00199953
0.00199937
0.00199937
0.00199952
0.00199983
0.00200031
0.00200098
0.00200185
0.00200296
0.00200434
0.00200604
0.00200813
0.00201069
0.00201382
0.00201767
0.0020224
0.00202826
0.00203555
0.00204469
0.00205625
0.00207097
0.00209
0.00211468
0.00214777
0.00219065
0.00225375
0.00232539
0.00246375
0.00257468
0.295381
0.155159
0.0889189
0.0546548
0.0355282
0.024069
0.0168057
0.0120209
0.00880003
0.00661021
0.00511271
0.00408625
0.00338424
0.00290597
0.00258316
0.00237153
0.00223656
0.00214884
0.00209093
0.00205462
0.0020335
0.00202159
0.00201463
0.00201023
0.0020072
0.00200499
0.00200333
0.00200205
0.00200108
0.00200036
0.00199984
0.00199951
0.00199934
0.00199934
0.00199949
0.00199981
0.00200029
0.00200096
0.00200183
0.00200293
0.00200432
0.00200602
0.00200811
0.00201067
0.00201381
0.00201765
0.00202239
0.00202826
0.00203555
0.0020447
0.00205627
0.002071
0.00209004
0.00211474
0.00214785
0.00219076
0.00225384
0.00232544
0.00246338
0.00257381
0.295358
0.155262
0.0890671
0.0547991
0.0356559
0.0241817
0.0169055
0.0121095
0.00887735
0.00667507
0.00516438
0.00412561
0.00341359
0.00292799
0.00259947
0.00238282
0.00224383
0.00215348
0.0020939
0.00205646
0.00203459
0.00202222
0.00201499
0.00201043
0.00200731
0.00200505
0.00200335
0.00200206
0.00200107
0.00200034
0.00199982
0.00199949
0.00199932
0.00199932
0.00199947
0.00199978
0.00200027
0.00200093
0.00200181
0.00200291
0.00200429
0.002006
0.00200809
0.00201065
0.00201379
0.00201764
0.00202238
0.00202825
0.00203555
0.00204471
0.00205628
0.00207103
0.00209008
0.0021148
0.00214793
0.00219086
0.00225393
0.00232548
0.00246305
0.00257302
0.295339
0.155362
0.0892147
0.054946
0.0357861
0.0242953
0.0170052
0.0121975
0.0089539
0.00673922
0.00521551
0.00416451
0.0034425
0.00294958
0.00261552
0.00239405
0.00225114
0.00215816
0.00209688
0.0020583
0.00203568
0.00202285
0.00201535
0.00201063
0.00200742
0.00200511
0.00200337
0.00200206
0.00200106
0.00200033
0.0019998
0.00199947
0.0019993
0.00199929
0.00199945
0.00199976
0.00200025
0.00200091
0.00200179
0.00200289
0.00200428
0.00200598
0.00200807
0.00201064
0.00201378
0.00201763
0.00202237
0.00202824
0.00203555
0.00204471
0.00205629
0.00207105
0.00209012
0.00211485
0.002148
0.00219095
0.002254
0.00232552
0.00246274
0.00257232
0.295321
0.155458
0.0893594
0.0550925
0.0359161
0.0244082
0.0171039
0.0122842
0.00902926
0.00680237
0.0052659
0.00420287
0.00347092
0.00297072
0.00263128
0.00240519
0.00225848
0.00216286
0.00209988
0.00206015
0.00203678
0.00202348
0.00201571
0.00201084
0.00200754
0.00200516
0.0020034
0.00200206
0.00200106
0.00200031
0.00199978
0.00199945
0.00199928
0.00199927
0.00199943
0.00199974
0.00200023
0.00200089
0.00200177
0.00200288
0.00200426
0.00200597
0.00200806
0.00201062
0.00201376
0.00201762
0.00202237
0.00202824
0.00203555
0.00204472
0.00205631
0.00207107
0.00209015
0.0021149
0.00214807
0.00219103
0.00225407
0.00232555
0.00246246
0.00257169
0.295306
0.15555
0.0894998
0.0552363
0.0360441
0.0245191
0.0172005
0.0123691
0.00910306
0.00686429
0.00531541
0.00424061
0.00349884
0.00299141
0.00264672
0.00241623
0.00226581
0.00216758
0.00210289
0.00206201
0.00203788
0.00202412
0.00201608
0.00201105
0.00200765
0.00200522
0.00200342
0.00200207
0.00200105
0.0020003
0.00199977
0.00199943
0.00199926
0.00199926
0.00199941
0.00199972
0.00200021
0.00200088
0.00200175
0.00200286
0.00200424
0.00200595
0.00200805
0.00201061
0.00201375
0.00201761
0.00202236
0.00202824
0.00203555
0.00204472
0.00205632
0.00207109
0.00209018
0.00211494
0.00214812
0.0021911
0.00225413
0.00232558
0.0024622
0.00257115
0.295292
0.155637
0.0896348
0.0553759
0.0361688
0.0246271
0.0172946
0.0124518
0.00917504
0.00692479
0.0053639
0.00427765
0.00352621
0.00301164
0.00266182
0.00242713
0.00227314
0.00217232
0.00210591
0.00206387
0.00203898
0.00202476
0.00201645
0.00201126
0.00200777
0.00200528
0.00200345
0.00200208
0.00200105
0.00200029
0.00199975
0.00199941
0.00199924
0.00199924
0.00199939
0.00199971
0.00200019
0.00200086
0.00200174
0.00200285
0.00200423
0.00200594
0.00200803
0.0020106
0.00201374
0.0020176
0.00202235
0.00202823
0.00203555
0.00204473
0.00205633
0.00207111
0.00209021
0.00211498
0.00214817
0.00219116
0.00225418
0.00232561
0.00246198
0.00257068
0.295281
0.15572
0.0897637
0.0555101
0.0362891
0.0247314
0.0173858
0.0125321
0.00924498
0.0069837
0.00541126
0.0043139
0.003553
0.00303138
0.00267658
0.00243786
0.00228044
0.00217706
0.00210893
0.00206573
0.00204009
0.00202541
0.00201682
0.00201147
0.00200788
0.00200534
0.00200348
0.00200209
0.00200105
0.00200028
0.00199974
0.0019994
0.00199923
0.00199922
0.00199938
0.00199969
0.00200018
0.00200085
0.00200172
0.00200283
0.00200422
0.00200593
0.00200802
0.00201059
0.00201373
0.00201759
0.00202235
0.00202823
0.00203555
0.00204473
0.00205633
0.00207112
0.00209023
0.00211501
0.00214821
0.00219122
0.00225423
0.00232563
0.00246178
0.0025703
0.29527
0.155798
0.0898862
0.0556384
0.0364043
0.0248317
0.0174736
0.0126096
0.00931271
0.00704089
0.00545738
0.00434931
0.00357919
0.00305064
0.00269098
0.00244843
0.00228769
0.00218179
0.00211195
0.0020676
0.0020412
0.00202605
0.00201719
0.00201168
0.002008
0.00200541
0.00200351
0.0020021