/*--------------------------------*- C++ -*----------------------------------*\
| =========                 |                                                 |
| \\      /  F ield         | OpenFOAM: The Open Source CFD Toolbox           |
|  \\    /   O peration     | Version:  2.4.0                                 |
|   \\  /    A nd           | Web:      www.OpenFOAM.org                      |
|    \\/     M anipulation  |                                                 |
\*---------------------------------------------------------------------------*/
FoamFile
{
    version     2.0;
    format      ascii;
    class       volVectorField;
    location    "0.47";
    object      U;
}
// * * * * * * * * * * * * * * * * * * * * * * * * * * * * * * * * * * * * * //

dimensions      [0 1 -1 0 0 0 0];

internalField   nonuniform List<vector> 
6000
(
(0.518949 -0.0444701 -9.5146e-18)
(-0.280743 0.0587392 0)
(0.0347155 -0.00619546 6.65097e-18)
(-0.167819 0.0384809 0)
(-0.204195 0.0412034 0)
(-0.217447 0.0377243 0)
(-0.162105 0.0246076 3.80113e-18)
(-0.115624 0.0152447 7.55712e-21)
(-0.0685467 0.00661472 0)
(-0.0232486 -0.00153941 0)
(0.0266196 -0.00966473 5.23501e-18)
(0.079577 -0.0171647 -1.08403e-17)
(0.131487 -0.0232554 0)
(0.176901 -0.0273689 0)
(0.211733 -0.0293724 -2.8401e-18)
(0.235413 -0.0296711 0)
(0.250605 -0.0289139 0)
(0.260808 -0.0276081 -2.81398e-18)
(0.268353 -0.0259954 -2.79621e-18)
(0.274203 -0.0241629 0)
(0.278688 -0.022163 2.75972e-18)
(0.282079 -0.0200496 1.37165e-18)
(0.284699 -0.0178643 -1.36377e-18)
(0.286788 -0.0156303 0)
(0.288526 -0.0133636 0)
(0.290045 -0.0110742 0)
(0.291446 -0.00876814 6.70209e-19)
(0.292811 -0.00644786 -6.68533e-19)
(0.294203 -0.00411349 0)
(0.295678 -0.0017632 0)
(0.29728 0.00060641 8.33367e-20)
(0.299048 0.00300002 0)
(0.301017 0.00542341 6.68212e-19)
(0.303218 0.00788346 -6.69811e-19)
(0.30568 0.0103882 0)
(0.308434 0.0129473 0)
(0.311508 0.0155701 1.35631e-18)
(0.314929 0.0182604 0)
(0.318722 0.0210164 1.37293e-18)
(0.322909 0.023843 0)
(0.327526 0.0267611 0)
(0.332654 0.0297933 2.81209e-18)
(0.338354 0.0329583 -5.6754e-18)
(0.344688 0.0362806 0)
(0.351726 0.0397846 0)
(0.359553 0.0434961 2.92512e-18)
(0.368274 0.0474461 0)
(0.378011 0.0516718 0)
(0.388911 0.0562175 -6.02291e-18)
(0.401159 0.0611382 -6.07467e-18)
(0.414952 0.0664973 -6.11035e-18)
(0.430549 0.072372 -5.14259e-21)
(0.448174 0.0788388 6.10397e-18)
(0.468596 0.0860844 0)
(0.491424 0.0940884 -8.56475e-21)
(0.520297 0.10358 -5.67387e-18)
(0.548317 0.113463 5.23063e-18)
(0.598257 0.127671 4.63187e-18)
(0.617664 0.137641 1.89781e-20)
(0.736325 0.165217 0)
(0.73039 -0.111119 7.67737e-18)
(-0.185609 0.0599526 4.55695e-18)
(0.0153912 -0.00512415 -3.25699e-18)
(-0.215018 0.05573 -2.85064e-18)
(-0.22392 0.0516336 0)
(-0.223773 0.0428967 0)
(-0.161678 0.0265616 -3.72587e-18)
(-0.109687 0.0156092 8.54923e-18)
(-0.0570985 0.00585193 0)
(-0.00634383 -0.00357041 0)
(0.0494647 -0.0132914 -5.13501e-18)
(0.109453 -0.0224453 5.31487e-18)
(0.169619 -0.0298438 2.72385e-18)
(0.223906 -0.034664 0)
(0.266809 -0.0367122 2.79241e-18)
(0.296234 -0.0365665 0)
(0.314298 -0.0351548 0)
(0.325209 -0.0331862 0)
(0.33247 -0.0309653 0)
(0.337828 -0.0285632 0)
(0.341843 -0.0260105 -9.23951e-22)
(0.344725 -0.0233554 0)
(0.346712 -0.0206427 -1.34623e-18)
(0.348079 -0.0179005 0)
(0.34907 -0.0151462 0)
(0.349867 -0.0123884 6.64351e-19)
(0.350597 -0.00963098 -6.62498e-19)
(0.351356 -0.00687436 1.9142e-22)
(0.352219 -0.00411639 3.29839e-19)
(0.353248 -0.00135292 0)
(0.354494 0.00142171 -8.24112e-20)
(0.355998 0.00421433 -3.29798e-19)
(0.357799 0.0070327 -2.00988e-22)
(0.35993 0.00988532 6.62417e-19)
(0.362424 0.0127814 -6.64333e-19)
(0.365312 0.0157307 0)
(0.368627 0.0187429 0)
(0.372401 0.021822 0)
(0.376673 0.0250082 0)
(0.381505 0.0283302 0)
(0.386963 0.0317889 -2.7537e-18)
(0.39308 0.0353978 0)
(0.399905 0.0391805 2.80326e-18)
(0.407511 0.0431594 2.82852e-18)
(0.415983 0.0473613 0)
(0.425422 0.0518208 0)
(0.435947 0.056578 0)
(0.447698 0.0616799 0)
(0.460847 0.0671821 5.94033e-18)
(0.475601 0.0731525 0)
(0.492207 0.0796752 0)
(0.511002 0.086851 -6.02888e-18)
(0.532298 0.0947964 -6.00921e-18)
(0.556809 0.103678 0)
(0.584509 0.113651 -1.15955e-17)
(0.618159 0.125169 0)
(0.653463 0.137969 -1.02507e-17)
(0.708536 0.154944 -4.50079e-18)
(0.741118 0.169748 3.21816e-18)
(0.877159 0.204119 2.1237e-18)
(0.800341 -0.0935063 -3.39628e-19)
(-0.0601372 0.0485979 -4.27164e-18)
(0.0186791 0.000725411 0)
(-0.20467 0.0596301 2.76368e-18)
(-0.209761 0.0485873 0)
(-0.21472 0.0350407 0)
(-0.152861 0.0180564 0)
(-0.101075 0.00755685 -4.19346e-18)
(-0.048815 -0.00177168 0)
(0.00158336 -0.0113464 -4.81263e-18)
(0.0573595 -0.0215119 0)
(0.118303 -0.0310396 0)
(0.181045 -0.0385248 -2.68027e-18)
(0.239782 -0.0429988 0)
(0.288309 -0.0442795 0)
(0.322927 -0.0431288 0)
(0.344324 -0.0407242 0)
(0.356442 -0.037934 0)
(0.363542 -0.0350781 0)
(0.368255 -0.0321624 2.715e-18)
(0.371588 -0.0291564 -2.70063e-18)
(0.373815 -0.0260847 0)
(0.375124 -0.022994 3.97071e-22)
(0.375785 -0.0199174 -1.32932e-18)
(0.376073 -0.0168701 0)
(0.376203 -0.0138548 -1.31914e-18)
(0.376322 -0.0108689 0)
(0.376534 -0.00790797 6.56213e-19)
(0.376916 -0.00496591 -3.27601e-19)
(0.37753 -0.0020351 0)
(0.378427 0.000893256 0)
(0.379648 0.00382882 3.27594e-19)
(0.38123 0.00678194 -1.90518e-22)
(0.383204 0.00976371 0)
(0.385603 0.012786 1.31953e-18)
(0.388457 0.0158619 0)
(0.3918 0.0190065 1.33085e-18)
(0.395668 0.0222401 0)
(0.400108 0.0255667 0)
(0.40517 0.0289853 0)
(0.410905 0.0325272 2.73379e-18)
(0.417365 0.0362179 0)
(0.424614 0.0400905 0)
(0.432729 0.0441688 -2.80679e-18)
(0.441805 0.04848 0)
(0.451951 0.0530593 0)
(0.463298 0.0579478 2.88801e-18)
(0.476002 0.0631942 -2.91498e-18)
(0.49025 0.0688566 -2.93985e-18)
(0.506272 0.0750053 0)
(0.524337 0.0817269 0)
(0.544817 0.0891271 0)
(0.568065 0.0973289 5.93624e-18)
(0.594861 0.106511 5.86709e-18)
(0.625225 0.11683 5.73501e-18)
(0.662088 0.128785 0)
(0.701003 0.142064 5.06637e-18)
(0.760592 0.158774 8.89495e-18)
(0.796849 0.174752 0)
(0.94126 0.206864 -2.09987e-18)
(0.836747 -0.0619733 -2.67373e-19)
(0.0567664 0.0420103 3.87371e-18)
(0.0234535 0.0066065 -3.14735e-18)
(-0.183629 0.0612479 0)
(-0.191958 0.0469076 0)
(-0.201319 0.0308674 0)
(-0.141677 0.0121202 0)
(-0.0914564 0.00199012 0)
(-0.0410059 -0.00686552 0)
(0.00750162 -0.0164843 4.75595e-18)
(0.0615495 -0.0270513 4.95608e-18)
(0.121417 -0.036973 0)
(0.184202 -0.0446 0)
(0.24448 -0.0487946 0)
(0.295946 -0.0493502 2.72055e-18)
(0.334008 -0.0471946 0)
(0.358099 -0.0437824 2.73142e-18)
(0.371484 -0.0401957 -2.72289e-18)
(0.378656 -0.0367991 0)
(0.382887 -0.0335184 -2.69746e-18)
(0.385649 -0.0302293 0)
(0.387361 -0.0269107 -1.33414e-18)
(0.388196 -0.0236042 2.6556e-18)
(0.388392 -0.0203483 1.32199e-18)
(0.388229 -0.0171571 0)
(0.387937 -0.0140267 6.56014e-19)
(0.387673 -0.0109476 0)
(0.387545 -0.0079099 6.52494e-19)
(0.387631 -0.00490392 0)
(0.38799 -0.00191928 0)
(0.38867 0.00105505 0)
(0.38971 0.00403055 3.25765e-19)
(0.391146 0.00701906 -1.30528e-18)
(0.393009 0.0100327 0)
(0.395328 0.0130842 -6.56303e-19)
(0.398134 0.0161868 0)
(0.401461 0.0193535 -1.32384e-18)
(0.405342 0.0225955 0)
(0.409817 0.0259314 0)
(0.414936 0.0293914 0)
(0.420753 0.0329838 2.71543e-18)
(0.427325 0.0367216 0)
(0.434719 0.0406355 2.7606e-18)
(0.443013 0.0447549 -2.78535e-18)
(0.452303 0.0491121 0)
(0.462703 0.0537436 -2.83749e-18)
(0.474345 0.0586919 -5.72945e-18)
(0.487391 0.0640073 2.89116e-18)
(0.502033 0.0697497 5.82632e-18)
(0.518508 0.0759917 -5.86158e-18)
(0.537094 0.0828212 -5.88584e-18)
(0.558173 0.0903472 0)
(0.582117 0.0986967 -5.86951e-18)
(0.60971 0.108057 -5.79641e-18)
(0.641039 0.118585 -5.63902e-18)
(0.678963 0.130702 0)
(0.719322 0.144323 0)
(0.780031 0.161172 -4.36585e-18)
(0.818834 0.177594 0)
(0.963148 0.207191 2.00234e-18)
(0.860798 -0.0365445 -2.50043e-19)
(0.162654 0.0392645 -9.61095e-20)
(0.0413446 0.0130191 3.0553e-18)
(-0.159191 0.0623595 2.59459e-18)
(-0.170769 0.044662 0)
(-0.184644 0.0256768 -2.85695e-18)
(-0.128212 0.00562363 0)
(-0.0803219 -0.00393687 0)
(-0.0323807 -0.012165 0)
(0.0135907 -0.0217013 4.70493e-18)
(0.065216 -0.0325871 -4.91407e-18)
(0.123165 -0.0428495 0)
(0.184891 -0.0505715 0)
(0.245281 -0.0544321 0)
(0.298084 -0.0541912 -2.69781e-18)
(0.338232 -0.0509455 0)
(0.364286 -0.046445 -2.71473e-18)
(0.378826 -0.0420122 2.70853e-18)
(0.386279 -0.0380745 0)
(0.390286 -0.034474 0)
(0.392689 -0.0309719 1.33516e-18)
(0.394073 -0.0274816 1.32901e-18)
(0.394624 -0.0240309 -2.6451e-18)
(0.394555 -0.0206631 -1.3166e-18)
(0.394137 -0.0173931 0)
(0.393604 -0.0142114 6.53533e-19)
(0.393123 -0.0111015 0)
(0.392804 -0.00804833 -6.5055e-19)
(0.392724 -0.00503881 3.24713e-19)
(0.392941 -0.00206036 0)
(0.393502 0.000899709 0)
(0.394445 0.00385418 -6.49584e-19)
(0.395804 0.00681581 6.50683e-19)
(0.397608 0.00979744 0)
(0.399888 0.0128121 -6.53969e-19)
(0.402671 0.0158733 0)
(0.40599 0.0189956 1.31892e-18)
(0.409883 0.0221953 0)
(0.414392 0.0254858 0)
(0.419561 0.0288862 0)
(0.425433 0.0324272 -2.70582e-18)
(0.432072 0.0361235 -2.72584e-18)
(0.439547 0.0399964 -2.74966e-18)
(0.44794 0.0440717 1.33473e-21)
(0.457347 0.0483796 -2.79695e-18)
(0.467882 0.0529563 2.82362e-18)
(0.479679 0.0578437 5.69539e-18)
(0.492901 0.0630914 0)
(0.507741 0.0687581 -2.89348e-18)
(0.524438 0.0749148 5.82057e-18)
(0.543274 0.0816488 5.84018e-18)
(0.564634 0.0890655 0)
(0.588894 0.0972938 0)
(0.616844 0.106496 0)
(0.648578 0.116879 5.56918e-18)
(0.686956 0.128712 0)
(0.727905 0.142288 0)
(0.788982 0.158656 4.24345e-18)
(0.82892 0.17522 -2.96814e-18)
(0.971725 0.203019 -1.94716e-18)
(0.878954 -0.0158032 -2.30856e-19)
(0.25769 0.0392454 -3.52086e-18)
(0.0729449 0.0188774 0)
(-0.131397 0.0631929 -2.53865e-18)
(-0.145599 0.0418929 -2.18414e-18)
(-0.164226 0.0202357 1.88349e-20)
(-0.111941 -0.00107453 0)
(-0.0669616 -0.00997696 0)
(-0.0220082 -0.0175013 0)
(0.0209882 -0.0268748 -4.68262e-18)
(0.0696983 -0.0380212 0)
(0.125164 -0.0486003 0)
(0.185158 -0.0564202 2.5898e-18)
(0.244847 -0.0599602 0)
(0.298059 -0.0589175 0)
(0.33943 -0.0545394 0)
(0.366889 -0.0488813 0)
(0.38242 -0.0435371 -2.697e-18)
(0.390251 -0.039025 0)
(0.394203 -0.0351075 2.67574e-18)
(0.396395 -0.0314174 -1.33193e-18)
(0.397568 -0.0277865 -1.32521e-18)
(0.397942 -0.0242205 2.63892e-18)
(0.397717 -0.0207663 2.62789e-18)
(0.39715 -0.0174405 0)
(0.396477 -0.0142288 -6.52476e-19)
(0.39587 -0.0111074 0)
(0.395441 -0.00805588 0)
(0.395265 -0.00505749 -6.48413e-19)
(0.395402 -0.00209733 0)
(0.395898 0.000839142 0)
(0.396789 0.00376622 6.48527e-19)
(0.398108 0.00669796 0)
(0.399885 0.00964833 0)
(0.402148 0.0126315 6.53102e-19)
(0.404927 0.0156624 0)
(0.408255 0.018756 -1.3171e-18)
(0.412164 0.0219286 0)
(0.416691 0.0251974 0)
(0.421887 0.0285543 0)
(0.427803 0.0320342 0)
(0.434495 0.0356656 2.72094e-18)
(0.442034 0.0394725 2.74185e-18)
(0.450501 0.0434816 1.35834e-21)
(0.459993 0.0477229 2.79054e-18)
(0.470623 0.0522316 2.81331e-18)
(0.482528 0.0570487 -2.83886e-18)
(0.495869 0.0622229 0)
(0.510841 0.0678121 -2.87894e-18)
(0.527684 0.0738863 2.89373e-18)
(0.54668 0.0805308 -5.80221e-18)
(0.568215 0.08785 0)
(0.592667 0.0959682 0)
(0.620822 0.105056 -5.66417e-18)
(0.652795 0.115288 -5.50017e-18)
(0.691393 0.127025 5.23692e-18)
(0.732683 0.140319 4.78645e-18)
(0.793925 0.156275 -4.17895e-18)
(0.834552 0.172504 2.91179e-18)
(0.976014 0.198546 0)
(0.893633 0.00298348 -2.07283e-19)
(0.342622 0.0414278 0)
(0.114826 0.0244539 2.88424e-18)
(-0.099382 0.0637731 2.47812e-18)
(-0.116592 0.0387237 1.82627e-20)
(-0.139864 0.0145623 2.81691e-18)
(-0.0926123 -0.00793898 0)
(-0.0510682 -0.0161177 0)
(-0.00950784 -0.0228851 0)
(0.0301465 -0.0320119 2.32339e-18)
(0.0755241 -0.0433673 2.41848e-18)
(0.128046 -0.0542429 0)
(0.185805 -0.0621738 -2.57545e-18)
(0.244248 -0.0654304 2.6253e-18)
(0.29728 -0.0636192 0)
(0.339309 -0.0581109 0)
(0.367765 -0.0512631 0)
(0.384117 -0.0449625 9.4479e-22)
(0.392346 -0.0398425 0)
(0.396342 -0.0355985 -5.34178e-18)
(0.398415 -0.0317298 1.32915e-18)
(0.399449 -0.0279759 1.32352e-18)
(0.399707 -0.0243127 -4.02722e-22)
(0.399386 -0.0207882 -1.31244e-18)
(0.398731 -0.0174214 0)
(0.397978 -0.0141937 0)
(0.397297 -0.0110746 0)
(0.396804 -0.00803806 3.24284e-19)
(0.396575 -0.00506399 6.47801e-19)
(0.396668 -0.0021353 0)
(0.397128 0.00076398 0)
(0.397993 0.00364918 -6.47957e-19)
(0.399293 0.00653502 -3.24429e-19)
(0.40106 0.00943572 0)
(0.403319 0.0123652 0)
(0.406102 0.0153373 0)
(0.409438 0.0183652 0)
(0.413364 0.0214608 0)
(0.417922 0.0246433 0)
(0.42315 0.0279506 0)
(0.429101 0.0313826 0)
(0.435835 0.0349595 0)
(0.443424 0.0387058 -1.21923e-21)
(0.45195 0.0426486 2.76249e-18)
(0.461509 0.0468184 0)
(0.472216 0.0512501 -5.6186e-18)
(0.484206 0.0559847 -2.83171e-18)
(0.497644 0.0610702 0)
(0.512723 0.0665636 2.87406e-18)
(0.529684 0.0725337 -2.88804e-18)
(0.54881 0.0790642 5.7888e-18)
(0.570488 0.0862573 -5.77253e-18)
(0.595098 0.0942358 0)
(0.623425 0.103162 8.41579e-21)
(0.65559 0.113219 5.47301e-18)
(0.694388 0.124708 -1.03975e-17)
(0.735933 0.137777 -1.46618e-20)
(0.7973 0.153386 -4.10113e-18)
(0.838445 0.169203 2.83006e-18)
(0.978743 0.193851 1.80333e-18)
(0.905713 0.0203218 -3.07481e-18)
(0.418237 0.0453157 0)
(0.163299 0.0302695 1.30075e-21)
(-0.0621217 0.0639767 -9.66357e-21)
(-0.0842182 0.0352841 2.12772e-18)
(-0.111531 0.00872558 2.77185e-18)
(-0.0701751 -0.0148874 0)
(-0.0325917 -0.0222865 4.04049e-18)
(0.00519574 -0.0282715 0)
(0.0411903 -0.0370702 -2.31517e-18)
(0.0828794 -0.0485921 -4.7255e-21)
(0.132059 -0.0597515 -2.48601e-18)
(0.187165 -0.0678149 0)
(0.243944 -0.0708372 -5.22124e-18)
(0.296393 -0.0683094 0)
(0.338704 -0.0616978 0)
(0.367866 -0.0536523 0)
(0.384889 -0.0463647 2.68397e-18)
(0.393498 -0.0406067 0)
(0.397585 -0.0360205 2.66731e-18)
(0.399596 -0.0319733 -2.65528e-18)
(0.400533 -0.0281048 0)
(0.400712 -0.0243543 -3.87382e-22)
(0.400329 -0.0207682 0)
(0.399623 -0.0173679 0)
(0.398822 -0.0141309 -6.51087e-19)
(0.398099 -0.0110204 0)
(0.397569 -0.00800476 -6.48251e-19)
(0.39731 -0.00506037 -3.23751e-19)
(0.39738 -0.00216803 -8.08645e-20)
(0.397822 0.000689691 8.08717e-20)
(0.398674 0.00352919 3.23846e-19)
(0.399967 0.00636599 6.48601e-19)
(0.40173 0.00921492 0)
(0.403992 0.0120905 6.51956e-19)
(0.406781 0.0150075 0)
(0.410129 0.0179816 0)
(0.414071 0.0210328 0)
(0.418645 0.0241665 1.32916e-18)
(0.423898 0.0273959 0)
(0.429879 0.0307494 0)
(0.436649 0.03425 2.71444e-18)
(0.444279 0.0379195 -2.73727e-18)
(0.452851 0.0417833 0)
(0.462463 0.0458706 0)
(0.473231 0.0502156 2.80708e-18)
(0.485289 0.0548584 2.83006e-18)
(0.498803 0.0598461 -2.84956e-18)
(0.513969 0.0652345 0)
(0.531026 0.0710913 0)
(0.550261 0.0774984 0)
(0.572059 0.0845559 6.03935e-21)
(0.596804 0.0923843 0)
(0.625278 0.101142 5.6217e-18)
(0.657612 0.111007 0)
(0.696583 0.122275 5.17579e-18)
(0.738358 0.135076 -4.71433e-18)
(0.799848 0.150329 8.13939e-18)
(0.841438 0.165659 -2.80887e-18)
(0.980714 0.189112 -1.78459e-18)
(0.915633 0.0359956 1.72682e-19)
(0.485307 0.050395 -2.94796e-18)
(0.216247 0.0362554 -2.71249e-18)
(-0.0195818 0.0640667 -1.12103e-20)
(-0.0491105 0.031703 -2.07538e-18)
(-0.0793675 0.00278689 -2.76702e-18)
(-0.0447104 -0.0218335 0)
(-0.0116297 -0.0284328 -4.03545e-18)
(0.0220114 -0.0335879 0)
(0.0540903 -0.0420122 -2.29913e-18)
(0.0917983 -0.0536648 -2.39533e-18)
(0.137292 -0.0651005 2.47548e-18)
(0.189369 -0.0733232 -2.53907e-18)
(0.244127 -0.0761688 2.59669e-18)
(0.295682 -0.0729884 -2.63392e-18)
(0.338012 -0.0653151 2.6604e-18)
(0.36768 -0.0560782 0)
(0.38526 -0.047784 0)
(0.394216 -0.0413613 0)
(0.39841 -0.0364151 1.33157e-18)
(0.400387 -0.0321841 1.3264e-18)
(0.401253 -0.0282039 0)
(0.401371 -0.0243715 -1.31537e-18)
(0.400945 -0.0207288 0)
(0.400205 -0.0172987 0)
(0.399374 -0.0140557 6.50903e-19)
(0.398626 -0.0109568 -6.49088e-19)
(0.398074 -0.00796474 3.24013e-19)
(0.397797 -0.00505257 0)
(0.397853 -0.00219889 1.61681e-19)
(0.398286 0.00061517 -1.61698e-19)
(0.399132 0.00340705 0)
(0.400423 0.00619302 -3.24213e-19)
(0.402187 0.00898846 6.49719e-19)
(0.404453 0.0118083 -6.51885e-19)
(0.407249 0.0146673 0)
(0.410607 0.0175801 0)
(0.414563 0.0205579 0)
(0.419156 0.0236244 -1.329e-18)
(0.424428 0.0267934 0)
(0.430433 0.0300811 0)
(0.437231 0.0335098 -2.71401e-18)
(0.444893 0.0371029 0)
(0.453502 0.0408861 2.75697e-18)
(0.463156 0.0448883 -2.78014e-18)
(0.473972 0.0491433 0)
(0.486085 0.0536904 2.82598e-18)
(0.499661 0.0585757 5.69552e-18)
(0.514896 0.0638543 -2.86459e-18)
(0.532032 0.0695922 0)
(0.551357 0.0758699 0)
(0.573256 0.0827854 2.88057e-18)
(0.598115 0.0904566 0)
(0.626718 0.0990389 5.59998e-18)
(0.6592 0.108704 0)
(0.698327 0.119741 5.14416e-18)
(0.740311 0.132261 4.67606e-18)
(0.801917 0.147162 -4.04907e-18)
(0.843898 0.161977 0)
(0.98225 0.184365 1.73878e-18)
(0.923764 0.0500112 2.29825e-18)
(0.544568 0.0562342 8.19869e-20)
(0.27184 0.0423837 2.63562e-18)
(0.0283402 0.0640966 -1.24476e-20)
(-0.0120366 0.0282145 1.68022e-20)
(-0.0436207 -0.0032025 0)
(-0.0163759 -0.028682 0)
(0.0116716 -0.0344973 0)
(0.0408048 -0.0387544 -2.17557e-18)
(0.0687491 -0.0467927 4.57969e-18)
(0.10225 -0.0585479 0)
(0.143766 -0.0702564 2.456e-18)
(0.192476 -0.0786696 4.20788e-21)
(0.24488 -0.0814025 -2.57848e-18)
(0.295263 -0.0776429 2.10668e-21)
(0.337409 -0.0689604 -2.65096e-18)
(0.36744 -0.0585491 0)
(0.385491 -0.049236 0)
(0.394762 -0.0421257 0)
(0.399063 -0.0368015 -1.33039e-18)
(0.401018 -0.0323791 0)
(0.401823 -0.0282872 1.3193e-18)
(0.401889 -0.024376 1.31406e-18)
(0.401427 -0.0206794 -1.30916e-18)
(0.40066 -0.0172216 0)
(0.399808 -0.0139742 0)
(0.399041 -0.0108881 6.48974e-19)
(0.398473 -0.00792105 0)
(0.398185 -0.00504231 3.23381e-19)
(0.398232 -0.0022284 -8.08206e-20)
(0.398658 0.000540967 8.083e-20)
(0.399501 0.00328426 -3.23498e-19)
(0.400792 0.00601847 0)
(0.402558 0.00875945 -6.49677e-19)
(0.404829 0.0115224 0)
(0.407633 0.014322 0)
(0.411001 0.0171733 1.31363e-18)
(0.414969 0.0200931 0)
(0.419576 0.023092 0)
(0.424866 0.0261898 0)
(0.430892 0.029405 0)
(0.437714 0.0327588 0)
(0.445403 0.0362736 0)
(0.454043 0.0399743 -5.51216e-18)
(0.463733 0.0438896 2.77984e-18)
(0.474588 0.0480524 2.80159e-18)
(0.486747 0.0525013 -5.64958e-18)
(0.500374 0.0572816 -2.84641e-18)
(0.515668 0.0624471 2.86406e-18)
(0.532871 0.0680627 -2.87435e-18)
(0.552272 0.074207 0)
(0.574257 0.0809761 2.89002e-21)
(0.599215 0.0884852 -5.69094e-18)
(0.62793 0.0968865 -5.59727e-18)
(0.660543 0.106345 -5.41039e-18)
(0.69981 0.117147 -1.02687e-17)
(0.741981 0.129378 -4.67094e-18)
(0.803693 0.143925 4.00988e-18)
(0.84602 0.15822 2.73412e-18)
(0.983511 0.179626 -1.73306e-18)
(0.930453 0.0625693 -1.50487e-19)
(0.596713 0.062505 2.78204e-18)
(0.328472 0.048609 -7.61554e-21)
(0.081397 0.0640497 -1.31219e-20)
(0.0270956 0.0249486 2.0226e-18)
(-0.00458326 -0.00922855 2.70653e-18)
(0.014634 -0.0352959 -3.40801e-18)
(0.037111 -0.0404197 1.99763e-18)
(0.0613984 -0.0437194 2.63793e-21)
(0.0850347 -0.0513673 -2.28089e-18)
(0.114167 -0.0632039 -2.36461e-18)
(0.151473 -0.0751843 -2.44657e-18)
(0.196515 -0.083822 5.02108e-18)
(0.246247 -0.0865115 3.28638e-21)
(0.295192 -0.0822542 2.60944e-18)
(0.336966 -0.0726242 0)
(0.367245 -0.0610634 2.65845e-18)
(0.385702 -0.0507253 0)
(0.395259 -0.0429076 -2.66463e-18)
(0.399662 -0.0371879 -1.32856e-18)
(0.401596 -0.0325657 -1.32355e-18)
(0.402343 -0.028361 -3.36397e-22)
(0.402357 -0.0243727 -1.31353e-18)
(0.40186 -0.0206242 1.30875e-18)
(0.401069 -0.01714 0)
(0.400198 -0.013889 -6.50111e-19)
(0.399414 -0.0108166 0)
(0.398833 -0.00787517 0)
(0.398534 -0.00503055 -3.23349e-19)
(0.398573 -0.00225707 0)
(0.398996 0.000466993 0)
(0.399836 0.00316111 3.23478e-19)
(0.401127 0.00584298 0)
(0.402896 0.00852892 0)
(0.405172 0.0112344 6.51233e-19)
(0.407982 0.0139743 0)
(0.41136 0.0167636 -1.31358e-18)
(0.415339 0.0196163 0)
(0.41996 0.0225501 1.32749e-18)
(0.425267 0.0255794 0)
(0.431311 0.0287227 0)
(0.438154 0.032001 0)
(0.445868 0.0354366 0)
(0.454536 0.039054 2.75528e-18)
(0.464258 0.0428811 0)
(0.475149 0.0469504 -5.60134e-18)
(0.487348 0.0512996 2.82376e-18)
(0.501021 0.055973 -2.84264e-18)
(0.516367 0.0610235 2.85986e-18)
(0.533629 0.0665144 2.87401e-18)
(0.553096 0.0725227 0)
(0.575158 0.0791423 2.87042e-18)
(0.600203 0.0864859 8.53145e-18)
(0.629017 0.0947023 -5.5804e-18)
(0.661748 0.103951 5.40869e-18)
(0.701141 0.114512 5.12664e-18)
(0.743482 0.126449 0)
(0.805287 0.140638 -4.0069e-18)
(0.84792 0.154417 -5.44339e-18)
(0.984593 0.174899 0)
(0.935989 0.0738695 -1.65365e-18)
(0.642394 0.0689542 0)
(0.38477 0.0548574 -9.72046e-21)
(0.138342 0.0640871 -1.31276e-20)
(0.0695246 0.0218616 -1.9727e-18)
(0.0371351 -0.0152223 -5.36773e-18)
(0.0481578 -0.0416287 6.77027e-18)
(0.0644879 -0.0461001 -1.98942e-18)
(0.0836 -0.048436 2.15937e-18)
(0.102793 -0.0556936 0)
(0.127457 -0.0675975 4.6552e-21)
(0.160381 -0.0798511 0)
(0.201497 -0.0887483 -4.99186e-18)
(0.248259 -0.0914676 2.55257e-18)
(0.295501 -0.0868013 0)
(0.336718 -0.076294 0)
(0.367136 -0.0636158 -2.65146e-18)
(0.385943 -0.0522512 0)
(0.395761 -0.0437089 2.66144e-18)
(0.400255 -0.0375771 1.32744e-18)
(0.402167 -0.0327464 3.12952e-22)
(0.402853 -0.0284274 -1.31763e-18)
(0.402814 -0.0243633 -1.31236e-18)
(0.40228 -0.0205645 0)
(0.401463 -0.0170549 0)
(0.400571 -0.0138011 6.49996e-19)
(0.399771 -0.0107428 0)
(0.399177 -0.00782755 3.23543e-19)
(0.398868 -0.00501757 -3.2315e-19)
(0.3989 -0.002285 8.07426e-20)
(0.399317 0.000393305 -8.07534e-20)
(0.400156 0.00303781 3.23285e-19)
(0.401447 0.00566692 -3.2379e-19)
(0.403219 0.00829743 6.49064e-19)
(0.405499 0.010945 -6.51209e-19)
(0.408316 0.0136248 0)
(0.411702 0.0163517 0)
(0.415693 0.0191407 0)
(0.420327 0.0220066 -4.32929e-22)
(0.425649 0.0249658 1.33542e-18)
(0.431711 0.0280363 0)
(0.438575 0.0312386 0)
(0.446312 0.0345943 0)
(0.455006 0.0381275 0)
(0.464757 0.0418657 0)
(0.475682 0.0458406 1.39429e-21)
(0.487919 0.050089 0)
(0.501634 0.0546545 5.68323e-18)
(0.517027 0.0595885 -5.71744e-18)
(0.534343 0.0649532 -2.86949e-18)
(0.553872 0.0708236 0)
(0.576004 0.0772918 0)
(0.601129 0.0844673 -5.67944e-18)
(0.630035 0.0924959 7.48832e-21)
(0.662874 0.101531 -5.38989e-18)
(0.702382 0.111848 5.10406e-18)
(0.744879 0.123487 4.62807e-18)
(0.806764 0.137315 -3.97417e-18)
(0.84967 0.150585 5.40422e-18)
(0.985558 0.170189 1.68181e-18)
(0.940611 0.0840591 1.332e-19)
(0.682223 0.0753846 -2.50697e-18)
(0.439597 0.0610471 -4.91968e-18)
(0.197888 0.0643417 -1.26076e-20)
(0.115809 0.0189652 1.95155e-18)
(0.0810356 -0.0210607 2.664e-18)
(0.0839963 -0.0476466 -1.68503e-18)
(0.0935875 -0.0514469 0)
(0.107206 -0.0528512 0)
(0.121854 -0.0597326 2.25688e-18)
(0.142006 -0.0716973 2.34539e-18)
(0.170434 -0.0842262 0)
(0.207417 -0.0934181 2.48404e-18)
(0.250939 -0.0962425 0)
(0.296216 -0.091262 0)
(0.336686 -0.0799553 0)
(0.367131 -0.0661988 0)
(0.386234 -0.0538109 2.65535e-18)
(0.396289 -0.0445291 1.32851e-18)
(0.400864 -0.0379696 -1.32573e-18)
(0.402747 -0.0329219 2.91599e-22)
(0.403368 -0.0284867 0)
(0.403272 -0.0243482 1.31187e-18)
(0.402698 -0.0205006 0)
(0.401853 -0.0169667 0)
(0.40094 -0.0137105 6.49561e-19)
(0.400122 -0.0106669 -6.48026e-19)
(0.399513 -0.00777828 -3.23508e-19)
(0.399193 -0.00500339 3.23122e-19)
(0.399218 -0.00231217 -1.61453e-19)
(0.399631 0.000319964 1.61476e-19)
(0.400467 0.00291448 -3.23269e-19)
(0.401758 0.00549046 3.23776e-19)
(0.403532 0.00806516 -1.76453e-22)
(0.405816 0.0106545 -6.5082e-19)
(0.40864 0.0132739 0)
(0.412035 0.015938 0)
(0.416036 0.0186617 0)
(0.420682 0.02146 -2.6535e-18)
(0.426019 0.0243491 -1.33537e-18)
(0.432098 0.0273465 0)
(0.438982 0.0304721 0)
(0.446741 0.0337474 -2.72935e-18)
(0.455461 0.037196 0)
(0.465241 0.0408447 0)
(0.476197 0.0447244 5.5952e-18)
(0.48847 0.0488713 -2.81886e-18)
(0.502226 0.0533278 -5.67959e-18)
(0.517665 0.0581444 1.84675e-21)
(0.535032 0.0633817 5.73657e-18)
(0.554619 0.0691129 2.87053e-18)
(0.576817 0.0754279 0)
(0.602019 0.0824337 2.83791e-18)
(0.63101 0.0902723 5.5717e-18)
(0.66395 0.099092 5.3894e-18)
(0.703566 0.10916 -5.10348e-18)
(0.746207 0.1205 -4.62757e-18)
(0.808162 0.133963 3.97353e-18)
(0.851315 0.146735 -2.69224e-18)
(0.986444 0.165499 -1.68108e-18)
(0.94452 0.0932597 1.26021e-19)
(0.716786 0.0816489 2.48555e-18)
(0.492042 0.0670994 1.20993e-20)
(0.258794 0.0648573 -1.15088e-20)
(0.165735 0.016247 0)
(0.126963 -0.026609 0)
(0.12179 -0.0532427 -1.93206e-21)
(0.124152 -0.0563776 0)
(0.132001 -0.0569128 0)
(0.142037 -0.0634494 -3.23632e-21)
(0.157683 -0.0754757 0)
(0.181563 -0.0882828 0)
(0.214256 -0.0978032 2.46619e-18)
(0.254297 -0.100809 0)
(0.297359 -0.0956135 0)
(0.336886 -0.083593 0)
(0.367242 -0.0688041 0)
(0.386583 -0.0554005 -5.59592e-22)
(0.396849 -0.0453668 -1.32689e-18)
(0.401495 -0.0383648 2.64897e-18)
(0.403343 -0.0330919 2.70318e-22)
(0.403895 -0.0285387 1.31546e-18)
(0.403737 -0.024327 0)
(0.403119 -0.0204322 1.30634e-18)
(0.402243 -0.0168751 0)
(0.401306 -0.0136172 -6.49451e-19)
(0.400469 -0.0105888 1.5392e-22)
(0.399846 -0.00772728 0)
(0.399514 -0.00498796 0)
(0.39953 -0.00233852 1.99322e-23)
(0.399938 0.00024703 -2.02227e-23)
(0.400771 0.00279116 1.61543e-19)
(0.402062 0.00531365 0)
(0.403838 0.00783219 -6.48839e-19)
(0.406126 0.010363 6.50799e-19)
(0.408956 0.0129215 0)
(0.412359 0.0155225 -1.3119e-18)
(0.41637 0.0181807 0)
(0.421028 0.0209111 4.12174e-22)
(0.42638 0.0237295 0)
(0.432476 0.0266533 1.34363e-18)
(0.439378 0.029702 1.35355e-18)
(0.44716 0.0328964 1.04453e-21)
(0.455904 0.0362598 -2.75026e-18)
(0.465711 0.0398183 0)
(0.476699 0.0436023 -1.32941e-21)
(0.489007 0.047647 2.81874e-18)
(0.502802 0.0519938 1.61632e-21)
(0.518285 0.0566921 2.85564e-18)
(0.535702 0.061801 -2.0286e-21)
(0.555345 0.0673919 -2.30285e-21)
(0.577607 0.0735525 0)
(0.602881 0.080387 0)
(0.631954 0.0880339 0)
(0.664991 0.0966358 0)
(0.704709 0.106454 0)
(0.747487 0.117492 4.60286e-18)
(0.809504 0.130588 0)
(0.852881 0.142871 0)
(0.987274 0.160831 -1.65282e-18)
(0.94788 0.101585 4.84778e-19)
(0.746642 0.0876447 0)
(0.541405 0.0729417 1.24184e-20)
(0.319887 0.065625 -9.81493e-21)
(0.218654 0.0137653 0)
(0.174699 -0.0317456 1.31122e-18)
(0.161141 -0.0583209 -1.66499e-18)
(0.155886 -0.0608146 0)
(0.157756 -0.0605726 0)
(0.163153 -0.0668139 -2.24261e-18)
(0.174345 -0.07891 0)
(0.193679 -0.0919981 0)
(0.221981 -0.101878 -2.4577e-18)
(0.258339 -0.10514 0)
(0.298946 -0.099833 -2.55685e-18)
(0.337333 -0.0871909 0)
(0.367477 -0.0714224 0)
(0.386995 -0.0570156 -5.07464e-22)
(0.397446 -0.04622 0)
(0.40215 -0.0387618 -1.32324e-18)
(0.403957 -0.0332559 1.31936e-18)
(0.404434 -0.028583 -2.62939e-18)
(0.40421 -0.0242993 1.31002e-18)
(0.403544 -0.0203591 -1.30597e-18)
(0.402634 -0.0167798 0)
(0.401671 -0.013521 -6.49044e-19)
(0.400813 -0.0105084 1.29525e-18)
(0.400174 -0.00767447 0)
(0.39983 -0.00497119 -1.61415e-19)
(0.399837 -0.002364 8.06852e-20)
(0.400239 0.00017456 -8.06982e-20)
(0.401069 0.00266793 -1.61535e-19)
(0.402359 0.00513655 0)
(0.404136 0.00759858 -6.48476e-19)
(0.406428 0.0100705 6.50429e-19)
(0.409264 0.0125678 0)
(0.412675 0.0151053 1.31187e-18)
(0.416696 0.0176977 0)
(0.421366 0.0203598 1.32605e-18)
(0.426731 0.0231072 0)
(0.432844 0.025957 -1.34359e-18)
(0.439765 0.0289282 -1.3535e-18)
(0.447567 0.0320414 1.01844e-21)
(0.456336 0.035319 2.75017e-18)
(0.46617 0.0387869 0)
(0.477188 0.0424745 -2.79537e-18)
(0.48953 0.0464163 0)
(0.503363 0.0506528 2.83711e-18)
(0.518889 0.055232 0)
(0.536354 0.0602116 -2.86496e-18)
(0.556052 0.0656612 -5.73368e-18)
(0.578375 0.0716662 0)
(0.60372 0.0783281 0)
(0.632873 0.0857818 0)
(0.666003 0.0941642 2.68176e-18)
(0.705819 0.10373 0)
(0.748728 0.114466 -1.17845e-20)
(0.810799 0.127192 0)
(0.854381 0.138999 2.64403e-18)
(0.988062 0.156185 1.65284e-18)
(0.950829 0.109142 0)
(0.772325 0.0933071 2.28196e-18)
(0.587178 0.0785108 2.34177e-18)
(0.380063 0.0666148 -7.58451e-21)
(0.27366 0.0116046 0)
(0.223854 -0.0363521 -1.31117e-18)
(0.201607 -0.0627858 0)
(0.18846 -0.0646869 1.95835e-18)
(0.184233 -0.063788 2.12895e-18)
(0.18501 -0.0698012 2.23238e-18)
(0.191843 -0.0819825 2.31089e-18)
(0.206684 -0.0953541 2.37994e-18)
(0.230546 -0.105622 0)
(0.263059 -0.109212 0)
(0.300992 -0.103898 2.54738e-18)
(0.338043 -0.0907325 0)
(0.367845 -0.0740439 0)
(0.387473 -0.0586514 -2.63952e-18)
(0.39808 -0.0470865 0)
(0.402831 -0.0391596 -1.32167e-18)
(0.40459 -0.033413 0)
(0.404987 -0.0286188 1.31395e-18)
(0.404692 -0.0242645 -1.30955e-18)
(0.403973 -0.0202806 0)
(0.403026 -0.0166805 0)
(0.402035 -0.0134217 1.39906e-22)
(0.401155 -0.0104254 -6.47469e-19)
(0.400498 -0.00761972 0)
(0.400141 -0.00495301 1.61402e-19)
(0.400139 -0.00238853 8.06416e-20)
(0.400534 0.000102611 -8.0655e-20)
(0.401361 0.00254482 0)
(0.40265 0.00495921 0)
(0.404428 0.00736437 1.62636e-22)
(0.406724 0.00977704 -1.67302e-22)
(0.409565 0.0122128 0)
(0.412983 0.0146865 0)
(0.417013 0.0172128 1.31778e-18)
(0.421695 0.0198062 0)
(0.427074 0.0224822 0)
(0.433202 0.0252576 0)
(0.440142 0.028151 0)
(0.447965 0.0311824 2.727e-18)
(0.456757 0.0343739 2.74791e-18)
(0.466617 0.0377505 0)
(0.477665 0.0413413 0)
(0.490039 0.0451796 2.81425e-18)
(0.50391 0.0493051 0)
(0.519477 0.0537643 0)
(0.53699 0.0586138 -2.86094e-18)
(0.556741 0.0639211 2.86561e-18)
(0.579125 0.0697695 0)
(0.604538 0.0762575 0)
(0.633768 0.0835166 0)
(0.666988 0.0916781 -2.68168e-18)
(0.706899 0.10099 2.53141e-18)
(0.749933 0.111423 -9.17071e-18)
(0.812053 0.123778 0)
(0.855824 0.13512 -2.64354e-18)
(0.988817 0.151561 -1.62719e-18)
(0.953477 0.116027 0)
(0.794347 0.0986004 -2.27105e-18)
(0.629029 0.0837559 0)
(0.438311 0.0677897 -3.0995e-18)
(0.329685 0.0098444 0)
(0.273841 -0.0403115 -1.31335e-18)
(0.242685 -0.0665456 0)
(0.221516 -0.0679329 -1.95496e-18)
(0.211184 -0.0665244 -2.12514e-18)
(0.207418 -0.0723922 -2.22814e-18)
(0.210024 -0.0846801 -2.30591e-18)
(0.22047 -0.0983371 -2.37394e-18)
(0.239893 -0.109015 0)
(0.268443 -0.113002 0)
(0.303504 -0.107786 0)
(0.339026 -0.0942007 0)
(0.368353 -0.0766583 0)
(0.388021 -0.0603025 1.31684e-18)
(0.398753 -0.0479639 0)
(0.403538 -0.039557 1.32055e-18)
(0.405242 -0.0335626 0)
(0.405553 -0.0286457 1.31286e-18)
(0.405182 -0.0242223 1.30858e-18)
(0.404407 -0.0201965 0)
(0.403419 -0.016577 6.50286e-19)
(0.402398 -0.013319 6.48691e-19)
(0.401494 -0.0103398 6.47107e-19)
(0.400818 -0.00756291 0)