/*--------------------------------*- C++ -*----------------------------------*\
| =========                 |                                                 |
| \\      /  F ield         | OpenFOAM: The Open Source CFD Toolbox           |
|  \\    /   O peration     | Version:  2.4.0                                 |
|   \\  /    A nd           | Web:      www.OpenFOAM.org                      |
|    \\/     M anipulation  |                                                 |
\*---------------------------------------------------------------------------*/
FoamFile
{
    version     2.0;
    format      ascii;
    class       volScalarField;
    location    "1";
    object      p;
}
// * * * * * * * * * * * * * * * * * * * * * * * * * * * * * * * * * * * * * //

dimensions      [0 2 -2 0 0 0 0];

internalField   nonuniform List<scalar> 
5625
(
-0.09868
0.122857
0.181695
0.211982
0.241537
0.266191
0.284845
0.299581
0.311832
0.322095
0.330718
0.338034
0.344311
0.349833
0.354824
0.359446
0.363884
0.368284
0.372786
0.377373
0.381973
0.3865
0.390899
0.395185
0.399446
0.403793
0.408258
0.412728
0.416996
0.420856
0.424178
0.426879
0.429003
0.430627
0.431802
0.432606
0.43312
0.43339
0.433457
0.433336
0.433054
0.432603
0.432009
0.431245
0.43034
0.429252
0.428014
0.426574
0.424961
0.423126
0.421079
0.418777
0.41623
0.413362
0.410207
0.406645
0.402738
0.398301
0.393448
0.387886
0.381812
0.374762
0.367085
0.358011
0.348179
0.336251
0.323445
0.307323
0.290265
0.267663
0.244276
0.210801
0.178075
0.121583
0.081653
-0.0750354
0.120648
0.180115
0.210974
0.240622
0.265441
0.284314
0.299203
0.31155
0.321878
0.330548
0.337896
0.344194
0.349721
0.354712
0.359322
0.363717
0.368103
0.372587
0.377157
0.381749
0.386276
0.390671
0.394949
0.399193
0.403515
0.407952
0.412403
0.416667
0.420534
0.423875
0.426599
0.42874
0.430376
0.431564
0.432378
0.432899
0.433172
0.43324
0.433118
0.432833
0.432377
0.431778
0.431006
0.430093
0.428996
0.427748
0.426296
0.424671
0.42282
0.42076
0.418439
0.415875
0.412983
0.40981
0.40622
0.402291
0.397826
0.392941
0.387349
0.381229
0.37415
0.366405
0.357303
0.347372
0.335419
0.322471
0.306326
0.289064
0.266442
0.242744
0.2093
0.17604
0.119957
0.077953
-0.06025
0.119155
0.179005
0.210413
0.240192
0.265061
0.284026
0.299007
0.311418
0.321791
0.330491
0.337861
0.34417
0.349703
0.354693
0.359297
0.363685
0.368028
0.372476
0.377026
0.381603
0.386122
0.39051
0.394772
0.398991
0.403281
0.407685
0.412108
0.416355
0.420221
0.423576
0.42632
0.428479
0.430129
0.431336
0.432169
0.432704
0.432988
0.433064
0.432947
0.432667
0.432212
0.431615
0.430841
0.429929
0.428828
0.42758
0.426125
0.424497
0.422644
0.420578
0.418256
0.415681
0.412796
0.409597
0.406021
0.402051
0.397595
0.392667
0.387076
0.380911
0.373826
0.366029
0.356916
0.346921
0.33495
0.321916
0.305749
0.288365
0.265715
0.241822
0.208355
0.174973
0.118939
0.0760357
-0.0487494
0.118105
0.177943
0.20984
0.239677
0.264563
0.283629
0.298719
0.311211
0.321646
0.330394
0.337797
0.344129
0.349674
0.354667
0.359262
0.363624
0.367951
0.372374
0.376909
0.381479
0.385991
0.390371
0.394617
0.398808
0.403063
0.407437
0.411833
0.41606
0.419916
0.423279
0.426038
0.428206
0.429866
0.431088
0.431936
0.432484
0.432777
0.43286
0.432746
0.432467
0.432011
0.431411
0.430633
0.429715
0.428606
0.42735
0.425884
0.424247
0.42238
0.420303
0.417961
0.415374
0.412457
0.409253
0.405629
0.401668
0.397174
0.392233
0.386617
0.380416
0.373315
0.365458
0.356335
0.346251
0.334277
0.321114
0.30495
0.28738
0.264743
0.240555
0.207158
0.173506
0.116706
0.074667
-0.0380229
0.117226
0.176852
0.209209
0.239086
0.263984
0.283153
0.298357
0.310939
0.321445
0.330252
0.3377
0.344066
0.349632
0.354633
0.359225
0.363572
0.36788
0.372283
0.376801
0.381369
0.385878
0.390251
0.394483
0.398645
0.402866
0.407212
0.41159
0.415801
0.419643
0.423009
0.425777
0.427948
0.429608
0.430839
0.431699
0.432257
0.432559
0.432648
0.432539
0.432262
0.431806
0.431205
0.430423
0.429502
0.428387
0.427124
0.425651
0.424005
0.422128
0.420042
0.417689
0.415089
0.412163
0.408939
0.405319
0.401314
0.396806
0.391831
0.386189
0.379951
0.372818
0.36491
0.355754
0.345593
0.333588
0.320308
0.304115
0.286368
0.263701
0.239226
0.205833
0.171918
0.114252
0.0734397
-0.027746
0.116463
0.17576
0.208534
0.238446
0.263358
0.282625
0.297944
0.310617
0.321197
0.330068
0.337571
0.343979
0.349573
0.35459
0.359185
0.363526
0.367819
0.372202
0.376705
0.381266
0.385778
0.390147
0.394365
0.398502
0.402687
0.407007
0.411375
0.41558
0.419407
0.422771
0.425546
0.427716
0.429369
0.430601
0.431469
0.432035
0.432344
0.43244
0.432334
0.432059
0.431604
0.431001
0.430216
0.42929
0.42817
0.426901
0.42542
0.423766
0.42188
0.419783
0.417419
0.414806
0.411865
0.408624
0.404977
0.400959
0.396429
0.391427
0.385759
0.379485
0.372321
0.364363
0.355169
0.344936
0.332889
0.3195
0.303261
0.285347
0.262622
0.237879
0.204435
0.170306
0.111718
0.0722915
-0.0180513
0.115854
0.174707
0.207838
0.237779
0.262704
0.282064
0.297494
0.310255
0.320912
0.329848
0.33741
0.343867
0.349498
0.354536
0.359141
0.363483
0.367766
0.372131
0.376618
0.381173
0.385687
0.390052
0.394261
0.398375
0.402527
0.406819
0.411181
0.41539
0.419207
0.422566
0.425344
0.427512
0.429155
0.430381
0.431252
0.431823
0.432137
0.432237
0.432134
0.431861
0.431405
0.430801
0.430013
0.429083
0.427958
0.426682
0.425194
0.423531
0.421635
0.419528
0.417152
0.414526
0.411569
0.408312
0.404647
0.400609
0.396056
0.391028
0.385333
0.379024
0.371826
0.363822
0.354587
0.344287
0.332191
0.318701
0.302403
0.284334
0.261535
0.236544
0.203012
0.168729
0.109287
0.0712328
-0.00897627
0.115429
0.173714
0.207139
0.237093
0.262029
0.281479
0.297014
0.309863
0.320594
0.329597
0.337219
0.343731
0.349403
0.354469
0.359088
0.363439
0.367721
0.372072
0.376541
0.381087
0.385601
0.389966
0.39416
0.398263
0.402386
0.406649
0.411001
0.415225
0.419039
0.422391
0.425169
0.427334
0.428966
0.43018
0.431049
0.431621
0.431939
0.432041
0.431941
0.431668
0.431212
0.430606
0.429815
0.42888
0.42775
0.426467
0.424972
0.423301
0.421396
0.419279
0.41689
0.414251
0.41128
0.408007
0.404325
0.400266
0.395691
0.390637
0.384915
0.378571
0.371341
0.363291
0.354013
0.34365
0.331501
0.317918
0.301553
0.283343
0.260453
0.23524
0.201594
0.167212
0.107033
0.0702581
-0.000480241
0.115193
0.172788
0.206452
0.236395
0.261339
0.280875
0.296512
0.309446
0.32025
0.32932
0.337003
0.34357
0.34929
0.354387
0.359026
0.363391
0.36768
0.372024
0.376476
0.381009
0.385521
0.389885
0.394067
0.398155
0.402263
0.406497
0.410837
0.415078
0.4189
0.422245
0.425019
0.427179
0.428801
0.429997
0.430859
0.431431
0.43175
0.431853
0.431754
0.431481
0.431024
0.430416
0.429622
0.428682
0.427548
0.426258
0.424757
0.423077
0.421163
0.419035
0.416636
0.413984
0.410999
0.40771
0.404011
0.399932
0.395335
0.390256
0.384507
0.378131
0.370866
0.362773
0.353453
0.34303
0.330824
0.317155
0.300717
0.282379
0.259387
0.233975
0.200198
0.16577
0.104971
0.069356
0.00748823
0.115129
0.171933
0.205785
0.235694
0.260642
0.280259
0.295993
0.30901
0.319886
0.329023
0.336766
0.343389
0.349158
0.354293
0.358955
0.363337
0.36764
0.371985
0.376421
0.380939
0.385446
0.389809
0.393985
0.398053
0.40215
0.406361
0.410687
0.414943
0.418786
0.422125
0.424893
0.427044
0.428658
0.429835
0.430684
0.431252
0.43157
0.431673
0.431574
0.4313
0.430843
0.430231
0.429435
0.428491
0.427351
0.426055
0.424547
0.42286
0.420936
0.418799
0.416389
0.413725
0.410726
0.407422
0.403706
0.399608
0.39499
0.389887
0.384111
0.377704
0.370405
0.362271
0.352907
0.342427
0.330164
0.316415
0.299899
0.281446
0.258344
0.232756
0.198836
0.164405
0.103091
0.0685172
0.0149706
0.115217
0.17115
0.205145
0.234998
0.259942
0.279635
0.295463
0.308561
0.319508
0.328709
0.336512
0.343191
0.34901
0.354187
0.358878
0.36328
0.3676
0.371953
0.376377
0.380877
0.385375
0.389737
0.393909
0.397965
0.402044
0.406239
0.410554
0.414821
0.418692
0.422031
0.42479
0.426926
0.428535
0.429691
0.430524
0.431085
0.431399
0.431501
0.431401
0.431126
0.430667
0.430053
0.429254
0.428305
0.427161
0.425859
0.424345
0.422649
0.420718
0.418571
0.41615
0.413474
0.410463
0.407143
0.403411
0.399294
0.394656
0.389529
0.383728
0.377291
0.369958
0.361785
0.352376
0.341844
0.329523
0.315698
0.299103
0.280544
0.257328
0.231588
0.197512
0.163119
0.101376
0.0677353
0.022
0.115433
0.170444
0.204534
0.234313
0.259246
0.27901
0.294926
0.308101
0.319118
0.328384
0.336246
0.34298
0.34885
0.35407
0.358794
0.363221
0.36756
0.371923
0.376342
0.380825
0.385309
0.389669
0.393839
0.397887
0.401951
0.406133
0.410436
0.414709
0.418612
0.421964
0.424708
0.426823
0.428428
0.429567
0.430377
0.430928
0.431239
0.431337
0.431235
0.430959
0.430498
0.429881
0.429079
0.428125
0.426977
0.425669
0.424149
0.422446
0.420506
0.41835
0.415919
0.413231
0.410208
0.406874
0.403126
0.398991
0.394334
0.389184
0.383357
0.376892
0.369526
0.361316
0.351863
0.34128
0.3289
0.315006
0.29833
0.279674
0.25634
0.230473
0.19623
0.161911
0.0998075
0.0670055
0.0286006
0.115759
0.169814
0.203957
0.233643
0.258557
0.278386
0.294386
0.307636
0.318721
0.32805
0.335971
0.34276
0.348679
0.353943
0.358706
0.363162
0.36752
0.371895
0.376314
0.380782
0.38525
0.389605
0.393774
0.397818
0.401872
0.406042
0.410335
0.41461
0.418543
0.421918
0.424651
0.426734
0.428336
0.429461
0.430245
0.430783
0.431087
0.431182
0.431077
0.430798
0.430335
0.429715
0.42891
0.427952
0.4268
0.425485
0.42396
0.422249
0.420303
0.418138
0.415697
0.412998
0.409963
0.406614
0.402852
0.398699
0.394023
0.388851
0.383001
0.376507
0.369109
0.360864
0.351368
0.340738
0.328299
0.31434
0.297581
0.278839
0.255383
0.229414
0.194992
0.160777
0.0983693
0.0663239
0.0347928
0.116181
0.169258
0.203413
0.232993
0.25788
0.277767
0.293847
0.307169
0.318319
0.327711
0.335689
0.342532
0.348501
0.35381
0.358613
0.363101
0.367482
0.371869
0.376291
0.380748
0.385199
0.389546
0.393715
0.39776
0.401808
0.405969
0.410251
0.414522
0.418497
0.421877
0.424618
0.426656
0.428254
0.429369
0.430128
0.430647
0.430945
0.431035
0.430926
0.430644
0.430179
0.429555
0.428748
0.427785
0.426629
0.425309
0.423779
0.422061
0.420107
0.417933
0.415484
0.412773
0.409727
0.406365
0.402589
0.398418
0.393725
0.388531
0.382658
0.376137
0.368709
0.360429
0.35089
0.340216
0.327718
0.3137
0.296858
0.278038
0.254458
0.228408
0.193802
0.159715
0.097047
0.0656872
0.0405994
0.116683
0.168769
0.202906
0.232364
0.257218
0.277157
0.293311
0.306702
0.317916
0.327368
0.335404
0.342301
0.348318
0.353672
0.358518
0.363041
0.367445
0.371845
0.376271
0.38072
0.385157
0.389494
0.393664
0.397713
0.40176
0.405914
0.410184
0.41445
0.418486
0.421839
0.424593
0.42659
0.428182
0.42929
0.430025
0.430523
0.430811
0.430895
0.430783
0.430497
0.430029
0.429403
0.428592
0.427625
0.426466
0.42514
0.423604
0.42188
0.419919
0.417737
0.415279
0.412558
0.409501
0.406126
0.402336
0.398149
0.393439
0.388224
0.382329
0.375782
0.368324
0.360011
0.350432
0.339716
0.32716
0.313086
0.296161
0.277271
0.253565
0.227456
0.19266
0.158722
0.0958282
0.0650923
0.0460416
0.117249
0.168343
0.202433
0.231761
0.256574
0.276559
0.292781
0.306238
0.317514
0.327025
0.335117
0.342067
0.348132
0.353531
0.35842
0.36298
0.36741
0.371823
0.376254
0.380699
0.385124
0.38945
0.393621
0.397676
0.401729
0.405878
0.410135
0.414395
0.41849
0.42184
0.424551
0.426539
0.428117
0.429221
0.429936
0.430409
0.430686
0.430763
0.430647
0.430357
0.429886
0.429256
0.428443
0.427472
0.426309
0.424977
0.423437
0.421706
0.419739
0.417549
0.415083
0.412351
0.409285
0.405897
0.402094
0.397892
0.393165
0.387931
0.382014
0.375442
0.367956
0.359612
0.349992
0.339237
0.326624
0.312498
0.295491
0.276539
0.252708
0.226556
0.191568
0.157794
0.0947026
0.0645367
0.0511385
0.117864
0.167974
0.201995
0.231183
0.255949
0.275976
0.292261
0.305779
0.317115
0.326683
0.334829
0.341832
0.347946
0.353389
0.358321
0.36292
0.367376
0.371804
0.37624
0.380683
0.385098
0.389415
0.393587
0.397652
0.401713
0.405861
0.410106
0.414354
0.418472
0.421906
0.424497
0.426506
0.428059
0.429159
0.429859
0.430305
0.430569
0.430639
0.430518
0.430224
0.42975
0.429117
0.4283
0.427325
0.426159
0.424822
0.423278
0.421541
0.419567
0.41737
0.414896
0.412155
0.409079
0.405678
0.401864
0.397646
0.392904
0.387651
0.381713
0.375118
0.367604
0.35923
0.349572
0.338779
0.32611
0.311938
0.294848
0.275842
0.251885
0.225707
0.190525
0.156928
0.0936615
0.0640179
0.0559069
0.118517
0.167658
0.201591
0.230633
0.255347
0.275408
0.291752
0.305329
0.316721
0.326344
0.334544
0.341598
0.34776
0.353247
0.358222
0.36286
0.367344
0.371786
0.37623
0.380672
0.385079
0.38939
0.393563
0.397639
0.401713
0.405864
0.410098
0.41433
0.418441
0.421971
0.424476
0.426491
0.42801
0.429103
0.429791
0.430212
0.43046
0.430523
0.430395
0.430097
0.42962
0.428984
0.428164
0.427185
0.426015
0.424674
0.423126
0.421383
0.419404
0.417199
0.414718
0.411968
0.408882
0.405471
0.401644
0.397413
0.392655
0.387384
0.381427
0.37481
0.367269
0.358867
0.349171
0.338344
0.32562
0.311404
0.294234
0.275179
0.251098
0.224908
0.189533
0.15612
0.0926974
0.0635339
0.0603621
0.119194
0.16739
0.201219
0.230111
0.254768
0.27486
0.291258
0.304889
0.316335
0.326011
0.334262
0.341366
0.347575
0.353106
0.358124
0.362801
0.367313
0.371772
0.376223
0.380666
0.385068
0.389374
0.39355
0.397638
0.401727
0.405884
0.410107
0.414321
0.418419
0.421988
0.424513
0.426491
0.42797
0.429051
0.429732
0.430129
0.430358
0.430414
0.43028
0.429977
0.429497
0.428857
0.428035
0.427052
0.425879
0.424534
0.422981
0.421232
0.419248
0.417037
0.414549
0.41179
0.408696
0.405273
0.401436
0.397191
0.392419
0.387131
0.381155
0.374516
0.36695
0.358521
0.34879
0.337929
0.325154
0.310897
0.293648
0.274551
0.250348
0.224157
0.188592
0.155369
0.0918043
0.0630828
0.0645181
0.119887
0.167165
0.200879
0.229618
0.254213
0.274332
0.29078
0.304462
0.315959
0.325685
0.333986
0.341138
0.347393
0.352967
0.358028
0.362743
0.367284
0.37176
0.376219
0.380663
0.385063
0.389367
0.393548
0.397649
0.401754
0.40592
0.410135
0.414328
0.418406
0.421986
0.424575
0.426506
0.427941
0.429004
0.42968
0.430055
0.430265
0.430311
0.430172
0.429864
0.42938
0.428738
0.427913
0.426925
0.42575
0.4244
0.422844
0.42109
0.419101
0.416883
0.414389
0.411621
0.408519
0.405087
0.401239
0.396981
0.392195
0.386892
0.380898
0.374239
0.366648
0.358194
0.348429
0.337537
0.324711
0.310416
0.293091
0.273957
0.249635
0.223454
0.187701
0.154672
0.090977
0.062663
0.0683878
0.120584
0.166978
0.200569
0.229153
0.253685
0.273826
0.29032
0.304049
0.315594
0.325369
0.333717
0.340916
0.347216
0.352832
0.357933
0.362687
0.367256
0.37175
0.376218
0.380665
0.385065
0.38937
0.393556
0.39767
0.401793
0.40597
0.410178
0.41435
0.418403
0.421988
0.424635
0.426532
0.427923
0.428962
0.429632
0.42999
0.430179
0.430215
0.43007
0.429757
0.42927
0.428625
0.427797
0.426806
0.425628
0.424274
0.422714
0.420956
0.418962
0.416738
0.414237
0.411463
0.408353
0.404911
0.401053
0.396783
0.391985
0.386666
0.380655
0.373977
0.366363
0.357885
0.348087
0.337166
0.324291
0.309963
0.292564
0.273397
0.248959
0.222796
0.18686
0.154025
0.0902111
0.0622729
0.0719831
0.121276
0.166826
0.200288
0.228718
0.253183
0.273343
0.28988
0.303652
0.315242
0.325063
0.333456
0.3407
0.347043
0.3527
0.357842
0.362632
0.36723
0.371742
0.376219
0.38067
0.385072
0.389379
0.393573
0.397702
0.401842
0.40603
0.410234
0.414386
0.418412
0.421995
0.424688
0.426567
0.427914
0.428925
0.429587
0.429931
0.4301
0.430126
0.429975
0.429657
0.429167
0.428518
0.427687
0.426693
0.425513
0.424155
0.422592
0.420829
0.418831
0.416601
0.414095
0.411313
0.408196
0.404745
0.400878
0.396597
0.391787
0.386454
0.380427
0.373731
0.366095
0.357595
0.347766
0.336817
0.323896
0.309536
0.292066
0.272871
0.248321
0.222183
0.18607
0.153426
0.0895028
0.0619111
0.0753144
0.121956
0.166705
0.200033
0.228312
0.252708
0.272884
0.28946
0.303273
0.314905
0.32477
0.333205
0.340492
0.346877
0.352574
0.357754
0.36258
0.367206
0.371736
0.376223
0.380678
0.385083
0.389396
0.393599
0.397743
0.401901
0.4061
0.410301
0.414434
0.41843
0.422007
0.424735
0.426608
0.427913
0.428894
0.429547
0.42988
0.430029
0.430043
0.429886
0.429563
0.429069
0.428418
0.427585
0.426587
0.425404
0.424044
0.422477
0.42071
0.418708
0.416473
0.413962
0.411173
0.40805
0.40459
0.400715
0.396423
0.391601
0.386255
0.380213
0.3735
0.365844
0.357322
0.347464
0.336489
0.323525
0.309136
0.291598
0.272378
0.247721
0.221614
0.18533
0.152873
0.0888491
0.0615765
0.0783864
0.122619
0.166611
0.199804
0.227934
0.252261
0.272451
0.289062
0.302912
0.314584
0.32449
0.332966
0.340293
0.346717
0.352452
0.35767
0.36253
0.367183
0.371732
0.376228
0.380689
0.385098
0.389418
0.393632
0.397792
0.401966
0.406177
0.410376
0.414492
0.418458
0.422022
0.424775
0.426652
0.427918
0.428868
0.42951
0.429834
0.429965
0.429966
0.429803
0.429475
0.428978
0.428325
0.427489
0.426488
0.425303
0.423939
0.42237
0.420599
0.418594
0.416354
0.413838
0.411043
0.407913
0.404446
0.400562
0.39626
0.391428
0.386069
0.380013
0.373285
0.365609
0.357068
0.347182
0.336183
0.323178
0.308762
0.291159
0.271919
0.24716
0.221087
0.18464
0.152365
0.0882471
0.0612679
0.081204
0.123264
0.16654
0.199599
0.227585
0.251843
0.272043
0.288688
0.302572
0.31428
0.324224
0.332739
0.340104
0.346565
0.352337
0.357589
0.362482
0.367162
0.37173
0.376236
0.380702
0.385117
0.389445
0.393671
0.397847
0.402038
0.406258
0.410455
0.414556
0.418492
0.422039
0.424812
0.426698
0.427929
0.428848
0.429476
0.429793
0.429907
0.429895
0.429727
0.429394
0.428894
0.428239
0.427399
0.426396
0.425209
0.423842
0.422271
0.420496
0.418487
0.416243
0.413722
0.410922
0.407786
0.404312
0.40042
0.39611
0.391267
0.385897
0.379828
0.373086
0.365392
0.356833
0.34692
0.335899
0.322855
0.308415
0.290751
0.271493
0.246637
0.220601
0.183999
0.151899
0.0876946
0.0609843
0.0837761
0.123884
0.166489
0.199417
0.227264
0.251453
0.271662
0.288337
0.302252
0.313994
0.323974
0.332524
0.339925
0.346422
0.352228
0.357514
0.362438
0.367143
0.371729
0.376245
0.380717
0.385138
0.389474
0.393714
0.397906
0.402113
0.406343
0.410538
0.414623
0.418532
0.42206
0.424845
0.426743
0.427943
0.428832
0.429445
0.429756
0.429854
0.42983
0.429656
0.429318
0.428816
0.428159
0.427317
0.426311
0.425122
0.423753
0.422179
0.420401
0.418389
0.416141
0.413616
0.41081
0.407669
0.404188
0.40029
0.395971
0.391119
0.385738
0.379657
0.372901
0.36519
0.356615
0.346678
0.335637
0.322556
0.308094
0.290373
0.271099
0.246152
0.220155
0.183407
0.151474
0.0871895
0.0607249
0.0861106
0.124472
0.166454
0.199255
0.22697
0.251092
0.271308
0.288011
0.301955
0.313728
0.32374
0.332324
0.339758
0.346288
0.352126
0.357443
0.362396
0.367126
0.371728
0.376255
0.380733
0.38516
0.389506
0.39376
0.397969
0.40219
0.406428
0.410621
0.414692
0.418575
0.422082
0.424876
0.426783
0.42796
0.42882
0.429418
0.429722
0.429808
0.429771
0.429592
0.429249
0.428744
0.428086
0.427241
0.426232
0.425042
0.42367
0.422094
0.420314
0.418298
0.416047
0.413518
0.410707
0.407561
0.404074
0.40017
0.395843
0.390983
0.385593
0.3795
0.372732
0.365006
0.356415
0.346456
0.335396
0.322281
0.307799
0.290025
0.270738
0.245706
0.219748
0.182865
0.151088
0.0867301
0.0604889
0.0882142
0.125025
0.166431
0.199113
0.226703
0.25076
0.270983
0.28771
0.30168
0.313481
0.323524
0.332138
0.339603
0.346164
0.352031
0.357378
0.362357
0.36711
0.371729
0.376266
0.38075
0.385183
0.389539
0.393807
0.398032
0.402267
0.406512
0.410702
0.414761
0.418619
0.422106
0.424906
0.42682
0.42798
0.428811
0.429395
0.429692
0.429766
0.429718
0.429533
0.429186
0.428678
0.428019
0.427172
0.42616
0.424968
0.423595
0.422017
0.420234
0.418216
0.415961
0.413429
0.410614
0.407464
0.403971
0.400061
0.395727
0.39086
0.38546
0.379358
0.372578
0.364838
0.356233
0.346253
0.335176
0.322031
0.30753
0.289708
0.27041
0.245299
0.21938
0.18237
0.15074
0.0863149
0.0602755
0.090093
0.125538
0.166417
0.198988
0.226462
0.250458
0.270685
0.287435
0.301428
0.313254
0.323325
0.331968
0.339461
0.346049
0.351944
0.357318
0.362322
0.367095
0.371729
0.376277
0.380768
0.385207
0.389572
0.393854
0.398095
0.402343
0.406593
0.41078
0.414827
0.418664
0.422131
0.424933
0.426852
0.428
0.428805
0.429374
0.429664
0.429729
0.429671
0.42948
0.429129
0.428619
0.427959
0.427109
0.426095
0.424902
0.423526
0.421947
0.420162
0.418142
0.415884
0.413349
0.41053
0.407375
0.403878
0.399962
0.395622
0.390748
0.385341
0.379229
0.37244
0.364686
0.356068
0.34607
0.334978
0.321804
0.307287
0.28942
0.270113
0.244931
0.21905
0.181924
0.150429
0.0859427
0.0600842
0.0917529
0.126008
0.16641
0.198879
0.226247
0.250186
0.270417
0.287187
0.3012
0.313049
0.323145
0.331813
0.339332
0.345945
0.351865
0.357263
0.36229
0.367082
0.37173
0.376288
0.380785
0.385231
0.389604
0.393899
0.398155
0.402415
0.40667
0.410854
0.414889
0.418706
0.422155
0.424958
0.42688
0.42802
0.428801
0.429356
0.42964
0.429697
0.429629
0.429433
0.429078
0.428565
0.427906
0.427053
0.426036
0.424843
0.423466
0.421884
0.420097
0.418075
0.415815
0.413277
0.410454
0.407297
0.403795
0.399874
0.395529
0.390649
0.385234
0.379114
0.372316
0.36455
0.355921
0.345907
0.334801
0.321602
0.30707
0.289164
0.269849
0.244602
0.218756
0.181526
0.150153
0.0856122
0.0599144
0.0931998
0.12643
0.166407
0.198786
0.226058
0.249943
0.270177
0.286966
0.300997
0.312866
0.322984
0.331675
0.339216
0.345852
0.351795
0.357214
0.362261
0.36707
0.371732
0.376298
0.380802
0.385253
0.389635
0.393942
0.398211
0.402482
0.406741
0.410921
0.414946
0.418747
0.422179
0.42498
0.426905
0.428039
0.428799
0.42934
0.429619
0.42967
0.429592
0.429392
0.429033
0.428518
0.42786
0.427004
0.425984
0.424791
0.423412
0.421829
0.42004
0.418017
0.415754
0.413214
0.410388
0.407227
0.403721
0.399797
0.395447
0.390561
0.38514
0.379013
0.372207
0.364431
0.355792
0.345763
0.334645
0.321423
0.306879
0.288937
0.269616
0.244312
0.218499
0.181175
0.149912
0.0853227
0.0597656
0.094439
0.126801
0.166406
0.198706
0.225893
0.24973
0.269968
0.286773
0.300819
0.312705
0.322843
0.331554
0.339115
0.345771
0.351732
0.357171
0.362236
0.36706
0.371733
0.376307
0.380817
0.385273
0.389663
0.393981
0.398263
0.402543
0.406805
0.410981
0.414998
0.418783
0.422202
0.424999
0.426927
0.428057
0.428799
0.429327
0.429601
0.429646
0.42956
0.429356
0.428993
0.428477
0.42782
0.426961
0.425939
0.424745
0.423365
0.421782
0.419991
0.417966
0.415701
0.413159
0.410331
0.407167
0.403658
0.39973
0.395376
0.390485
0.385059
0.378925
0.372112
0.364328
0.35568
0.345638
0.33451
0.321269
0.306713
0.288741
0.269414
0.24406
0.218277
0.180872
0.149705
0.0850733
0.0596375
0.0954759
0.127119
0.166406
0.198639
0.225752
0.249548
0.269788
0.286607
0.300667
0.312568
0.322722
0.33145
0.339028
0.345701
0.351679
0.357134
0.362215
0.367051
0.371734
0.376316
0.380831
0.385292
0.389688
0.394016
0.398309
0.402597
0.406861
0.411033
0.415042
0.418816
0.422222
0.425016
0.426945
0.428072
0.428799
0.429317
0.429585
0.429626
0.429534
0.429326
0.42896
0.428442
0.427788
0.426926
0.4259
0.424707
0.423326
0.421742
0.41995
0.417923
0.415657
0.413113
0.410283
0.407117
0.403605
0.399674
0.395316
0.390421
0.384991
0.378851
0.372032
0.364241
0.355586
0.345533
0.334396
0.321138
0.306573
0.288575
0.269244
0.243847
0.21809
0.180616
0.14953
0.0848633
0.0595296
0.0963154
0.12738
0.166405
0.198584
0.225636
0.249397
0.26964
0.286471
0.300541
0.312454
0.322622
0.331364
0.338956
0.345643
0.351635
0.357104
0.362197
0.367043
0.371734
0.376323
0.380843
0.385308
0.389709
0.394045
0.398347
0.402642
0.406906
0.411076
0.415079
0.418844
0.42224
0.42503
0.426959
0.428085
0.428799
0.429308
0.429573
0.42961
0.429512
0.429301
0.428932
0.428413
0.427763
0.426896
0.425868
0.424676
0.423294
0.421709
0.419916
0.417888
0.41562
0.413075
0.410243
0.407075
0.403561
0.399628
0.395267
0.390369
0.384935
0.378791
0.371967
0.36417
0.355509
0.345447
0.334303
0.321032
0.306459
0.288439
0.269105
0.243673
0.217937
0.180406
0.149388
0.0846922
0.0594418
0.0969623
0.127583
0.166403
0.198541
0.225545
0.249278
0.269523
0.286363
0.300443
0.312365
0.322543
0.331297
0.3389
0.345598
0.351601
0.35708
0.362183
0.367038
0.371735
0.376328
0.380852
0.38532
0.389726
0.394069
0.398378
0.402677
0.406942
0.41111
0.41511
0.418866
0.422253
0.42504
0.426971
0.428095
0.428799
0.429302
0.429563
0.429598
0.429496
0.429282
0.428909
0.428394
0.427744
0.426872
0.425842
0.424651
0.423268
0.421683
0.419889
0.417861
0.415592
0.413046
0.410212
0.407043
0.403527
0.399592
0.395229
0.390328
0.384891
0.378744
0.371917
0.364114
0.355449
0.34538
0.33423
0.320949
0.30637
0.288333
0.268997
0.243537
0.217819
0.180244
0.149279
0.0845596
0.0593736
0.0974206
0.127727
0.1664
0.19851
0.225479
0.249192
0.269439
0.286286
0.300372
0.3123
0.322487
0.331248
0.338859
0.345565
0.351576
0.357062
0.362173
0.367034
0.371736
0.376332
0.380859
0.38533
0.389738
0.394087
0.398401
0.402702
0.406969
0.411135
0.415131
0.418882
0.422263
0.425048
0.426978
0.428103
0.4288
0.429297
0.429556
0.429589
0.429484
0.429269
0.428893
0.428385
0.427727
0.426853
0.425823
0.424634
0.42325
0.421665
0.41987
0.417841
0.415572
0.413025
0.41019
0.40702
0.403503
0.399566
0.395201
0.390299
0.38486
0.378711
0.371881
0.364075
0.355406
0.345332
0.334179
0.320889
0.306306
0.288258
0.26892
0.243441
0.217735
0.180128
0.1492
0.0844651
0.0593251
0.0976939
0.127813
0.166398
0.198491
0.225439
0.24914
0.269388
0.28624
0.300329
0.312262
0.322453
0.331219
0.338835
0.345545
0.351561
0.357052
0.362167
0.367031
0.371736
0.376335
0.380863
0.385335
0.389747
0.394098
0.398414
0.402718
0.406985
0.411151
0.415144
0.418891
0.422269
0.425052
0.426983
0.428107
0.4288
0.429294
0.429552
0.429584
0.429477
0.429261
0.428883
0.428382
0.427716
0.426841
0.425811
0.424623
0.42324
0.421654
0.419859
0.41783
0.41556
0.413012
0.410177
0.407006
0.403488
0.399551
0.395185
0.390282
0.384841
0.37869
0.371859
0.364051
0.35538
0.345303
0.334148
0.320854
0.306268
0.288212
0.268874
0.243382
0.217685
0.180058
0.149154
0.0844085
0.0592961
0.0977847
0.127842
0.166396
0.198485
0.225426
0.249122
0.269371
0.286224
0.300314
0.312249
0.322441
0.331209
0.338827
0.345539
0.351556
0.357049
0.362165
0.367031
0.371736
0.376336
0.380865
0.385338
0.38975
0.394102
0.398419
0.402723
0.406991
0.411156
0.415148
0.418894
0.42227
0.425053
0.426984
0.428108
0.4288
0.429293
0.42955
0.429582
0.429474
0.429258
0.42888
0.428382
0.427712
0.426837
0.425808
0.42462
0.423236
0.42165
0.419855
0.417826
0.415556
0.413008
0.410173
0.407002
0.403483
0.399546
0.395179
0.390276
0.384835
0.378684
0.371852
0.364043
0.355372
0.345294
0.334137
0.320842
0.306255
0.288197
0.268858
0.243363
0.217668
0.180035
0.149138
0.0843897
0.0592864
0.0976938
0.127813
0.166397
0.198491
0.225439
0.249139
0.269388
0.286239
0.300328
0.312261
0.322452
0.331219
0.338834
0.345545
0.35156
0.357052
0.362167
0.367032
0.371736
0.376335
0.380864
0.385336
0.389747
0.394099
0.398415
0.402719
0.406986
0.411151
0.415144
0.41889
0.422267
0.42505
0.426982
0.428107
0.4288
0.429294
0.429552
0.429584
0.429477
0.429261
0.428884
0.428383
0.427716
0.426841
0.425811
0.424623
0.42324
0.421654
0.419859
0.41783
0.41556
0.413012
0.410177
0.407006
0.403488
0.399551
0.395185
0.390282
0.384841
0.37869
0.371859
0.364051
0.35538
0.345303
0.334147
0.320853
0.306268
0.288212
0.268873
0.243382
0.217685
0.180058
0.149153
0.0844086
0.059296
0.0974203
0.127727
0.1664
0.198509
0.225478
0.249191
0.269438
0.286285
0.300371
0.312299
0.322486
0.331247
0.338859
0.345564
0.351575
0.357062
0.362173
0.367034
0.371736
0.376333
0.38086
0.385331
0.38974
0.394089
0.398403
0.402705
0.40697
0.411135
0.41513
0.418879
0.42226
0.425045
0.426977
0.428102
0.428799
0.429296
0.429556
0.42959
0.429484
0.429269
0.428893
0.428386
0.427727
0.426853
0.425823
0.424634
0.42325
0.421665
0.41987
0.417841
0.415572
0.413024
0.41019
0.40702
0.403502
0.399566
0.395201
0.390299
0.38486
0.37871
0.37188
0.364074
0.355406
0.345332
0.334178
0.320889
0.306306
0.288257
0.26892
0.24344
0.217735
0.180127
0.1492
0.0844653
0.0593251
0.0969619
0.127582
0.166402
0.19854
0.225544
0.249277
0.269522
0.286362
0.300441
0.312363
0.322542
0.331295
0.338899
0.345597
0.3516
0.357079
0.362183
0.367039
0.371736
0.37633
0.380854
0.385322
0.389728
0.394072
0.398382
0.40268
0.406944
0.41111
0.415107
0.418862
0.422249
0.425037
0.426968
0.428094
0.428798
0.429301
0.429563
0.429599
0.429496
0.429283
0.42891
0.428394
0.427744
0.426872
0.425842
0.424651
0.423268
0.421683
0.419889
0.417861
0.415592
0.413045
0.410212
0.407043
0.403527
0.399591
0.395228
0.390328
0.384891
0.378744
0.371916
0.364114
0.355448
0.345379
0.33423
0.320948
0.306369
0.288333
0.268997
0.243537
0.217819
0.180244
0.149278
0.0845598
0.0593736
0.0963149
0.127379
0.166404
0.198583
0.225635
0.249395
0.269638
0.286469
0.300539
0.312452
0.32262
0.331362
0.338955
0.345642
0.351634
0.357103
0.362197
0.367044
0.371736
0.376324
0.380845
0.385311
0.389712
0.394049
0.398352
0.402646
0.406909
0.411075
0.415076
0.418839
0.422234
0.425026
0.426957
0.428083
0.428798
0.429307
0.429573
0.429611
0.429513
0.429302
0.428932
0.428414
0.427764
0.426897
0.425868
0.424676
0.423293
0.421708
0.419916
0.417888
0.41562
0.413075
0.410242
0.407075
0.40356
0.399627
0.395266
0.390368
0.384934
0.37879
0.371967
0.364169
0.355508
0.345446
0.334302
0.321031
0.306458
0.288438
0.269104
0.243672
0.217937
0.180406
0.149388
0.0846925
0.0594417
0.0954752
0.127118
0.166405
0.198638
0.225751
0.249546
0.269786
0.286605
0.300665
0.312565
0.32272
0.331448
0.339026
0.3457
0.351678
0.357134
0.362215
0.367052
0.371735
0.376318
0.380834
0.385296
0.389692
0.394021
0.398314
0.402602
0.406863
0.411032
0.415038
0.41881
0.422215
0.425011
0.426941
0.42807
0.428797
0.429315
0.429585
0.429627
0.429535
0.429327
0.428961
0.428443
0.427789
0.426926
0.4259
0.424707
0.423326
0.421741
0.419949
0.417923
0.415656
0.413112
0.410282
0.407116
0.403604
0.399673
0.395315
0.39042
0.38499
0.37885
0.372032
0.36424
0.355585
0.345532
0.334395
0.321138
0.306572
0.288574
0.269243
0.243846
0.218089
0.180616
0.14953
0.0848637
0.0595295
0.0944381
0.1268
0.166405
0.198704
0.225891
0.249728
0.269965
0.28677
0.300817
0.312703
0.32284
0.331551
0.339113
0.345769
0.351731
0.357171
0.362237
0.367061
0.371735
0.37631
0.380821
0.385278
0.389668
0.393987
0.39827
0.40255
0.406809
0.410981
0.414993
0.418776
0.422194
0.424993
0.426923
0.428054
0.428797
0.429326
0.429601
0.429648
0.429562
0.429358
0.428994
0.428478
0.427821
0.426962