/*--------------------------------*- C++ -*----------------------------------*\
| =========                 |                                                 |
| \\      /  F ield         | OpenFOAM: The Open Source CFD Toolbox           |
|  \\    /   O peration     | Version:  2.4.0                                 |
|   \\  /    A nd           | Web:      www.OpenFOAM.org                      |
|    \\/     M anipulation  |                                                 |
\*---------------------------------------------------------------------------*/
FoamFile
{
    version     2.0;
    format      ascii;
    class       surfaceScalarField;
    location    "3";
    object      phi;
}
// * * * * * * * * * * * * * * * * * * * * * * * * * * * * * * * * * * * * * //

dimensions      [0 3 -1 0 0 0 0];

internalField   nonuniform List<scalar> 
11840
(
3.98603e-06
6.01397e-06
2.43886e-08
3.96165e-06
-5.29124e-07
5.53512e-07
-5.97227e-07
6.81037e-08
-6.18081e-07
2.08534e-08
-6.54674e-07
3.65938e-08
-6.83999e-07
2.93241e-08
-6.79129e-07
-4.86942e-09
-6.75451e-07
-3.67861e-09
-6.53573e-07
-2.18773e-08
-5.8782e-07
-6.57536e-08
-3.81838e-07
-2.05981e-07
1.2365e-07
-5.05488e-07
1.26356e-06
-1.13991e-06
3.18104e-06
-1.91748e-06
4.29628e-06
-1.11523e-06
3.67843e-06
6.1785e-07
2.62966e-06
1.04876e-06
1.00147e-06
1.62819e-06
-2.88652e-06
3.88799e-06
-6.77709e-06
3.89057e-06
-8.6852e-06
1.90811e-06
-9.87429e-06
1.18909e-06
-1.0786e-05
9.11726e-07
-1.15343e-05
7.48247e-07
-1.21596e-05
6.25358e-07
-1.2646e-05
4.8636e-07
-1.30071e-05
3.61139e-07
-1.32407e-05
2.33595e-07
-1.33485e-05
1.07794e-07
-1.33027e-05
-4.57685e-08
-1.30944e-05
-2.0833e-07
-1.27426e-05
-3.51789e-07
-1.21952e-05
-5.47392e-07
-1.14791e-05
-7.16101e-07
-1.05486e-05
-9.30571e-07
-9.38572e-06
-1.16283e-06
-7.85517e-06
-1.53055e-06
-5.96464e-06
-1.89053e-06
-3.83295e-06
-2.13168e-06
-1.58561e-06
-2.24735e-06
5.78929e-07
-2.16454e-06
2.62307e-06
-2.04414e-06
4.54913e-06
-1.92606e-06
6.16116e-06
-1.61203e-06
7.40087e-06
-1.23971e-06
8.23862e-06
-8.37751e-07
8.52326e-06
-2.84639e-07
8.32452e-06
1.98742e-07
7.88282e-06
4.417e-07
7.39971e-06
4.83107e-07
6.88598e-06
5.13733e-07
6.51535e-06
3.70632e-07
6.21159e-06
3.03757e-07
6.11472e-06
9.68726e-08
6.08153e-06
3.31875e-08
6.11191e-06
-3.03836e-08
6.23264e-06
-1.20726e-07
6.33904e-06
-1.06403e-07
-5.90911e-07
5.00955e-06
1.10044e-05
9.77183e-07
7.99402e-06
-4.6294e-07
1.99363e-06
-7.50544e-07
3.55708e-07
-7.7454e-07
4.48501e-08
-8.29874e-07
9.19275e-08
-8.75898e-07
7.53481e-08
-8.91532e-07
1.07644e-08
-9.02756e-07
7.54576e-09
-8.836e-07
-4.10333e-08
-8.17104e-07
-1.3225e-07
-6.06959e-07
-4.16127e-07
-8.10766e-08
-1.03137e-06
9.98696e-07
-2.21968e-06
2.92045e-06
-3.83924e-06
4.31289e-06
-2.50767e-06
4.05629e-06
8.74455e-07
3.00314e-06
2.10191e-06
4.42217e-07
4.18912e-06
-3.92675e-06
8.25696e-06
-7.36745e-06
7.33127e-06
-9.10155e-06
3.64221e-06
-1.03061e-05
2.39366e-06
-1.12394e-05
1.84497e-06
-1.19961e-05
1.50495e-06
-1.26018e-05
1.23105e-06
-1.30714e-05
9.55993e-07
-1.34113e-05
7.01051e-07
-1.36194e-05
4.41696e-07
-1.36912e-05
1.79554e-07
-1.36128e-05
-1.24158e-07
-1.33881e-05
-4.32987e-07
-1.29988e-05
-7.41118e-07
-1.24248e-05
-1.12142e-06
-1.1656e-05
-1.4849e-06
-1.06756e-05
-1.91092e-06
-9.42945e-06
-2.40899e-06
-7.83222e-06
-3.12778e-06
-5.88565e-06
-3.83711e-06
-3.68499e-06
-4.33234e-06
-1.38122e-06
-4.55112e-06
8.452e-07
-4.39095e-06
2.9689e-06
-4.16784e-06
4.97444e-06
-3.93161e-06
6.69077e-06
-3.32836e-06
8.05047e-06
-2.59941e-06
9.0498e-06
-1.83708e-06
9.62943e-06
-8.64268e-07
9.70436e-06
1.23808e-07
9.38197e-06
7.6409e-07
8.92843e-06
9.36652e-07
8.40569e-06
1.03647e-06
7.94567e-06
8.30658e-07
7.61661e-06
6.32818e-07
7.43947e-06
2.74004e-07
7.39398e-06
7.86843e-08
7.40554e-06
-4.19456e-08
7.55766e-06
-2.72844e-07
7.66438e-06
-2.13128e-07
-1.06961e-06
5.63802e-06
1.53664e-05
1.77474e-06
1.18573e-05
-1.25725e-07
3.8941e-06
-7.27926e-07
9.57909e-07
-7.86461e-07
1.03384e-07
-8.59554e-07
1.65021e-07
-9.20742e-07
1.36536e-07
-9.63358e-07
5.33803e-08
-9.99736e-07
4.39244e-08
-1.00798e-06
-3.27903e-08
-9.69611e-07
-1.70618e-07
-7.89895e-07
-5.95843e-07
-3.00042e-07
-1.52122e-06
6.9761e-07
-3.21733e-06
2.5131e-06
-5.65473e-06
4.00245e-06
-3.99702e-06
3.96336e-06
9.13545e-07
2.89733e-06
3.16794e-06
-1.83776e-07
7.27022e-06
-4.57533e-06
1.26485e-05
-7.44751e-06
1.02034e-05
-9.00691e-06
5.20161e-06
-1.01837e-05
3.57049e-06
-1.10889e-05
2.75012e-06
-1.18276e-05
2.24365e-06
-1.24124e-05
1.81587e-06
-1.28665e-05
1.41008e-06
-1.31902e-05
1.02472e-06
-1.33847e-05
6.36212e-07
-1.34449e-05
2.39741e-07
-1.3365e-05
-2.04e-07
-1.3141e-05
-6.57039e-07
-1.27565e-05
-1.12557e-06
-1.21948e-05
-1.68317e-06
-1.14381e-05
-2.24156e-06
-1.0468e-05
-2.88103e-06
-9.22007e-06
-3.65695e-06
-7.62868e-06
-4.71917e-06
-5.69006e-06
-5.77572e-06
-3.48822e-06
-6.53418e-06
-1.18436e-06
-6.85499e-06
1.04909e-06
-6.6244e-06
3.1864e-06
-6.30515e-06
5.19651e-06
-5.94172e-06
6.92576e-06
-5.0576e-06
8.3048e-06
-3.97845e-06
9.32727e-06
-2.85955e-06
9.96301e-06
-1.50001e-06
1.01893e-05
-1.02476e-07
1.00499e-05
9.03456e-07
9.69892e-06
1.28766e-06
9.22996e-06
1.50543e-06
8.78714e-06
1.27347e-06
8.44214e-06
9.77827e-07
8.22545e-06
4.90692e-07
8.14343e-06
1.60703e-07
8.12391e-06
-2.24259e-08
8.27145e-06
-4.20383e-07
8.37081e-06
-3.12492e-07
-1.50346e-06
6.15168e-06
1.92147e-05
2.55935e-06
1.54496e-05
3.09196e-07
6.14425e-06
-6.15624e-07
1.88273e-06
-7.54675e-07
2.42435e-07
-8.47614e-07
2.57961e-07
-9.22955e-07
2.11876e-07
-9.89142e-07
1.19567e-07
-1.05147e-06
1.0625e-07
-1.09624e-06
1.19775e-08
-1.09976e-06
-1.67094e-07
-9.67101e-07
-7.28501e-07
-5.33543e-07
-1.95478e-06
3.6988e-07
-4.12076e-06
2.0538e-06
-7.33864e-06
3.59465e-06
-5.53788e-06
3.71435e-06
7.93848e-07
2.54196e-06
4.34032e-06
-7.99593e-07
1.06118e-05
-4.95398e-06
1.68029e-05
-7.37121e-06
1.26207e-05
-8.80448e-06
6.63489e-06
-9.94965e-06
4.71566e-06
-1.08275e-05
3.62797e-06
-1.15476e-05
2.96379e-06
-1.21166e-05
2.38489e-06
-1.2559e-05
1.85244e-06
-1.28721e-05
1.33783e-06
-1.30587e-05
8.22789e-07
-1.3114e-05
2.9503e-07
-1.30336e-05
-2.844e-07
-1.28125e-05
-8.78132e-07
-1.24356e-05
-1.50243e-06
-1.18883e-05
-2.23055e-06
-1.115e-05
-2.97982e-06
-1.01985e-05
-3.83255e-06
-8.965e-06
-4.89041e-06
-7.39004e-06
-6.29414e-06
-5.46786e-06
-7.6979e-06
-3.27235e-06
-8.72969e-06
-9.74402e-07
-9.15294e-06
1.25579e-06
-8.85459e-06
3.39315e-06
-8.44251e-06
5.39584e-06
-7.94441e-06
7.11893e-06
-6.78069e-06
8.49164e-06
-5.35117e-06
9.50373e-06
-3.87163e-06
1.01369e-05
-2.1332e-06
1.0393e-05
-3.58587e-07
1.03228e-05
9.73672e-07
1.00386e-05
1.5719e-06
9.62013e-06
1.92387e-06
9.20911e-06
1.6845e-06
8.87584e-06
1.3111e-06
8.64034e-06
7.26184e-07
8.53132e-06
2.6973e-07
8.47556e-06
3.33341e-08
8.59349e-06
-5.38312e-07
8.66563e-06
-3.84637e-07
-1.8841e-06
6.58914e-06
2.26256e-05
3.27589e-06
1.87629e-05
8.08805e-07
8.61134e-06
-4.15252e-07
3.10679e-06
-6.9522e-07
5.22402e-07
-8.14654e-07
3.77396e-07
-9.05053e-07
3.02275e-07
-9.91335e-07
2.05849e-07
-1.07852e-06
1.93434e-07
-1.16194e-06
9.54005e-08
-1.21276e-06
-1.16273e-07
-1.13713e-06
-8.04132e-07
-7.74408e-07
-2.31751e-06
2.70567e-08
-4.92222e-06
1.5464e-06
-8.85799e-06
3.11729e-06
-7.10876e-06
3.38243e-06
5.28714e-07
2.06993e-06
5.65282e-06
-1.36008e-06
1.40418e-05
-5.16433e-06
2.06071e-05
-7.22607e-06
1.46824e-05
-8.56267e-06
7.97149e-06
-9.67277e-06
5.82576e-06
-1.0525e-05
4.48015e-06
-1.12265e-05
3.66529e-06
-1.17808e-05
2.93919e-06
-1.22117e-05
2.28335e-06
-1.25152e-05
1.64137e-06
-1.26944e-05
1.00201e-06
-1.2745e-05
3.45617e-07
-1.26629e-05
-3.66465e-07
-1.24435e-05
-1.09757e-06
-1.20731e-05
-1.87281e-06
-1.15387e-05
-2.76495e-06
-1.08187e-05
-3.69985e-06
-9.88776e-06
-4.76349e-06
-8.67425e-06
-6.10392e-06
-7.1198e-06
-7.8486e-06
-5.21685e-06
-9.60085e-06
-3.03081e-06
-1.09157e-05
-7.42042e-07
-1.14417e-05
1.48026e-06
-1.10769e-05
3.61185e-06
-1.05741e-05
5.60391e-06
-9.93647e-06
7.3154e-06
-8.49218e-06
8.67291e-06
-6.70867e-06
9.66504e-06
-4.86377e-06
1.02794e-05
-2.74752e-06
1.05319e-05
-6.11115e-07
1.04794e-05
1.02618e-06
1.0216e-05
1.83525e-06
9.81907e-06
2.32084e-06
9.42458e-06
2.07898e-06
9.08968e-06
1.64601e-06
8.85009e-06
9.65777e-07
8.71643e-06
4.03385e-07
8.64971e-06
1.0006e-07
8.7341e-06
-6.22703e-07
8.80045e-06
-4.50988e-07
-2.21154e-06
6.96692e-06
2.56586e-05
3.93108e-06
2.17987e-05
1.34964e-06
1.11928e-05
-1.45739e-07
4.60217e-06
-6.02535e-07
9.79198e-07
-7.64388e-07
5.39249e-07
-8.72203e-07
4.10089e-07
-9.765e-07
3.10146e-07
-1.08627e-06
3.03201e-07
-1.20608e-06
2.15214e-07
-1.30324e-06
-1.91092e-08
-1.28781e-06
-8.1957e-07
-1.00314e-06
-2.60217e-06
-3.19862e-07
-5.6055e-06
1.00993e-06
-1.01878e-05
2.58126e-06
-8.68009e-06
2.9964e-06
1.13566e-07
1.53163e-06
7.11759e-06
-1.87843e-06
1.74519e-05
-5.25966e-06
2.39884e-05
-7.03523e-06
1.6458e-05
-8.29668e-06
9.23295e-06
-9.36838e-06
6.89746e-06
-1.01955e-05
5.30722e-06
-1.08778e-05
4.34762e-06
-1.14172e-05
3.47856e-06
-1.18359e-05
2.70212e-06
-1.21295e-05
1.93497e-06
-1.23009e-05
1.17333e-06
-1.23459e-05
3.90693e-07
-1.22608e-05
-4.51558e-07
-1.20414e-05
-1.31698e-06
-1.16757e-05
-2.23856e-06
-1.11522e-05
-3.28841e-06
-1.04492e-05
-4.40287e-06
-9.5395e-06
-5.67319e-06
-8.3489e-06
-7.29452e-06
-6.81779e-06
-9.3797e-06
-4.9357e-06
-1.14829e-05
-2.76189e-06
-1.30895e-05
-4.85474e-07
-1.37181e-05
1.72575e-06
-1.32881e-05
3.8482e-06
-1.26966e-05
5.82841e-06
-1.19167e-05
7.52584e-06
-1.01896e-05
8.86372e-06
-8.04655e-06
9.83107e-06
-5.83113e-06
1.04199e-05
-3.33635e-06
1.06545e-05
-8.45717e-07
1.05974e-05
1.08325e-06
1.03341e-05
2.09857e-06
9.94125e-06
2.7137e-06
9.54899e-06
2.47123e-06
9.208e-06
1.987e-06
8.96505e-06
1.20873e-06
8.81143e-06
5.57008e-07
8.74211e-06
1.69373e-07
8.79777e-06
-6.78357e-07
8.87484e-06
-5.28062e-07
-2.48619e-06
7.29739e-06
2.83613e-05
4.53223e-06
2.45639e-05
1.912e-06
1.3813e-05
1.87238e-07
6.32693e-06
-4.70268e-07
1.6367e-06
-6.96269e-07
7.6525e-07
-8.25629e-07
5.39449e-07
-9.47454e-07
4.31971e-07
-1.07653e-06
4.32277e-07
-1.2273e-06
3.65984e-07
-1.36595e-06
1.19543e-07
-1.40725e-06
-7.78272e-07
-1.20041e-06
-2.80901e-06
-6.35539e-07
-6.17037e-06
4.67976e-07
-1.12913e-05
2.00313e-06
-1.02152e-05
2.56301e-06
-4.46312e-07
9.59858e-07
8.72075e-06
-2.34716e-06
2.07589e-05
-5.27359e-06
2.69148e-05
-6.8138e-06
1.79982e-05
-8.01188e-06
1.0431e-05
-9.04237e-06
7.92794e-06
-9.84413e-06
6.10898e-06
-1.05065e-05
5.00995e-06
-1.10303e-05
4.00238e-06
-1.14361e-05
3.10791e-06
-1.1719e-05
2.21794e-06
-1.18817e-05
1.33601e-06
-1.19203e-05
4.29343e-07
-1.1831e-05
-5.40913e-07
-1.16101e-05
-1.5379e-06
-1.1247e-05
-2.60159e-06
-1.07323e-05
-3.80319e-06
-1.00446e-05
-5.09051e-06
-9.15623e-06
-6.56158e-06
-7.99054e-06
-8.46021e-06
-6.4853e-06
-1.08849e-05
-4.62564e-06
-1.33426e-05
-2.46658e-06
-1.52486e-05
-2.05463e-07
-1.59792e-05
1.99199e-06
-1.54856e-05
4.10293e-06
-1.48075e-05
6.07079e-06
-1.38845e-05
7.75309e-06
-1.18719e-05
9.06914e-06
-9.36259e-06
1.00088e-05
-6.77081e-06
1.05679e-05
-3.89538e-06
1.07776e-05
-1.05548e-06
1.07046e-05
1.15627e-06
1.04306e-05
2.37255e-06
1.00337e-05
3.11065e-06
9.63809e-06
2.8668e-06
9.29013e-06
2.33496e-06
9.04375e-06
1.45511e-06
8.87538e-06
7.25381e-07
8.80991e-06
2.34841e-07
8.8413e-06
-7.09751e-07
8.93242e-06
-6.19179e-07
-2.71479e-06
7.58921e-06
3.0772e-05
5.08575e-06
2.70674e-05
2.47866e-06
1.64201e-05
5.74136e-07
8.23145e-06
-2.92703e-07
2.50354e-06
-6.07666e-07
1.08021e-06
-7.65e-07
6.96783e-07
-9.0476e-07
5.71731e-07
-1.05045e-06
5.77965e-07
-1.22618e-06
5.41718e-07
-1.3987e-06
2.9206e-07
-1.4891e-06
-6.87868e-07
-1.35484e-06
-2.94327e-06
-9.04971e-07
-6.62024e-06
-5.26001e-08
-1.21437e-05
1.40455e-06
-1.16724e-05
2.0782e-06
-1.11995e-06
3.71886e-07
1.04271e-05
-2.7593e-06
2.38901e-05
-5.22604e-06
2.93815e-05
-6.57087e-06
1.9343e-05
-7.71073e-06
1.15709e-05
-8.69788e-06
8.91509e-06
-9.47375e-06
6.88485e-06
-1.01152e-05
5.6514e-06
-1.06228e-05
4.50995e-06
-1.10148e-05
3.49996e-06
-1.12865e-05
2.48959e-06
-1.14399e-05
1.48941e-06
-1.14714e-05
4.60836e-07
-1.13768e-05
-6.35496e-07
-1.11531e-05
-1.7616e-06
-1.0791e-05
-2.9637e-06
-1.02826e-05
-4.31156e-06
-9.60857e-06
-5.76455e-06
-8.74117e-06
-7.42898e-06
-7.60171e-06
-9.59967e-06
-6.12457e-06
-1.23621e-05
-4.28899e-06
-1.51782e-05
-2.14678e-06
-1.73908e-05
9.66212e-08
-1.82226e-05
2.27765e-06
-1.76666e-05
4.37509e-06
-1.69049e-05
6.33032e-06
-1.58398e-05
7.99707e-06
-1.35387e-05
9.29026e-06
-1.06558e-05
1.02004e-05
-7.68099e-06
1.07265e-05
-4.42143e-06
1.09069e-05
-1.23586e-06
1.0811e-05
1.25219e-06
1.05199e-05
2.66364e-06
1.01144e-05
3.51608e-06
9.71285e-06
3.26838e-06
9.35756e-06
2.69025e-06
9.10688e-06
1.70579e-06
8.9276e-06
9.04656e-07
8.86361e-06
2.98832e-07
8.87836e-06
-7.24503e-07
8.98018e-06
-7.20997e-07
-2.90791e-06
7.84874e-06
3.29233e-05
5.59645e-06
2.93196e-05
3.04371e-06
1.89728e-05
1.00202e-06
1.02731e-05
-6.71997e-08
3.57277e-06
-4.94947e-07
1.50796e-06
-6.8921e-07
8.91046e-07
-8.48504e-07
7.31025e-07
-1.00872e-06
7.3818e-07
-1.20387e-06
7.36864e-07
-1.40263e-06
4.9082e-07
-1.53283e-06
-5.57662e-07
-1.46422e-06
-3.01188e-06
-1.12471e-06
-6.95975e-06
-5.06212e-07
-1.27622e-05
8.0332e-07
-1.29819e-05
1.52393e-06
-1.84057e-06
-2.32074e-07
1.21831e-05
-3.103e-06
2.6761e-05
-5.13028e-06
3.14088e-05
-6.3111e-06
2.05239e-05
-7.3947e-06
1.26545e-05
-8.33714e-06
9.85753e-06
-9.08649e-06
7.6342e-06
-9.70628e-06
6.2712e-06
-1.0197e-05
5.00066e-06
-1.05748e-05
3.87773e-06
-1.08346e-05
2.74945e-06
-1.09783e-05
1.63305e-06
-1.10021e-05
4.84669e-07
-1.09016e-05
-7.35981e-07
-1.06742e-05
-1.98906e-06
-1.03115e-05
-3.32641e-06
-9.80735e-06
-4.81566e-06
-9.14505e-06
-6.42686e-06
-8.29791e-06
-8.27611e-06
-7.18537e-06
-1.07122e-05
-5.73823e-06
-1.38092e-05
-3.92837e-06
-1.69881e-05
-1.80462e-06
-1.95146e-05
4.19038e-07
-2.04463e-05
2.58116e-06
-1.98287e-05
4.66322e-06
-1.8987e-05
6.60554e-06
-1.77821e-05
8.25656e-06
-1.51897e-05
9.52655e-06
-1.19258e-05
1.04061e-05
-8.56058e-06
1.08968e-05
-4.91205e-06
1.10443e-05
-1.38344e-06
1.09206e-05
1.37589e-06
1.06079e-05
2.97635e-06
1.01914e-05
3.93262e-06
9.78252e-06
3.67726e-06
9.41952e-06
3.05325e-06
9.1634e-06
1.96191e-06
8.97553e-06
1.09253e-06
8.9126e-06
3.61762e-07
8.91504e-06
-7.26937e-07
9.02292e-06
-8.2888e-07
-3.07385e-06
8.08039e-06
3.48429e-05
6.06752e-06
3.13325e-05
3.60218e-06
2.14382e-05
1.46259e-06
1.24127e-05
1.9993e-07
4.83542e-06
-3.53589e-07
2.06148e-06
-5.9667e-07
1.13413e-06
-7.78402e-07
9.12758e-07
-9.52024e-07
9.11802e-07
-1.16193e-06
9.46774e-07
-1.38057e-06
7.09461e-07
-1.54171e-06
-3.96527e-07
-1.5314e-06
-3.02219e-06
-1.29695e-06
-7.19421e-06
-8.95147e-07
-1.3164e-05
2.22487e-07
-1.40996e-05
9.09937e-07
-2.52802e-06
-8.45206e-07
1.39382e-05
-3.37257e-06
2.92884e-05
-4.99554e-06
3.30318e-05
-6.037e-06
2.15653e-05
-7.06501e-06
1.36825e-05
-7.96197e-06
1.07545e-05
-8.68419e-06
8.35642e-06
-9.28174e-06
6.86874e-06
-9.7551e-06
5.47403e-06
-1.01182e-05
4.24084e-06
-1.0366e-05
2.99724e-06
-1.04996e-05
1.76669e-06
-1.05155e-05
5.00561e-07
-1.04087e-05
-8.42771e-07
-1.01768e-05
-2.22096e-06
-9.81229e-06
-3.69095e-06
-9.31051e-06
-5.31743e-06
-8.65798e-06
-7.07938e-06
-7.83004e-06
-9.10406e-06
-6.74457e-06
-1.17977e-05
-5.32885e-06
-1.52249e-05
-3.54633e-06
-1.87706e-05
-1.44216e-06
-2.16187e-05
7.60392e-07
-2.26489e-05
2.9011e-06
-2.19694e-05
4.96592e-06
-2.10518e-05
6.89491e-06
-1.97111e-05
8.53e-06
-1.68248e-05
9.7768e-06
-1.31726e-05
1.06253e-05
-9.40904e-06
1.10786e-05
-5.36537e-06
1.11905e-05
-1.49531e-06
1.10353e-05
1.5311e-06
1.06976e-05
3.31397e-06
1.02682e-05
4.36205e-06
9.85176e-06
4.0937e-06
9.48024e-06
3.42477e-06
9.217e-06
2.22515e-06
9.02188e-06
1.28765e-06
8.95932e-06
4.24327e-07
8.95282e-06
-7.20442e-07
9.06314e-06
-9.39201e-07
-3.21829e-06
8.28767e-06
3.65553e-05
6.50138e-06
3.31188e-05
4.14981e-06
2.37897e-05
1.94842e-06
1.46141e-05
5.10153e-07
6.27369e-06
-1.80428e-07
2.75206e-06
-4.85433e-07
1.43913e-06
-6.93911e-07
1.12124e-06
-8.80808e-07
1.0987e-06
-1.10182e-06
1.16779e-06
-1.3351e-06
9.42741e-07
-1.5218e-06
-2.09829e-07
-1.56356e-06
-2.98043e-06
-1.42331e-06
-7.33447e-06
-1.20009e-06
-1.33872e-05
-3.18381e-07
-1.49813e-05
2.388e-07
-3.0852e-06
-1.42337e-06
1.56004e-05
-3.56607e-06
3.14311e-05
-4.82878e-06
3.42945e-05
-5.75003e-06
2.24866e-05
-6.72267e-06
1.46551e-05
-7.57394e-06
1.16058e-05
-8.26855e-06
9.05103e-06
-8.84344e-06
7.44363e-06
-9.29914e-06
5.92974e-06
-9.64736e-06
4.58905e-06
-9.88296e-06
3.23284e-06
-1.00065e-05
1.89025e-06
-1.00144e-05
5.08422e-07
-9.90112e-06
-9.56036e-07
-9.66437e-06
-2.45771e-06
-9.29704e-06
-4.05829e-06
-8.79589e-06
-5.81858e-06
-8.15114e-06
-7.72414e-06
-7.34095e-06
-9.91425e-06
-6.28221e-06
-1.28564e-05
-4.89882e-06
-1.66083e-05
-3.14513e-06
-2.05243e-05
-1.06131e-06
-2.37025e-05
1.11941e-06
-2.48296e-05
3.23631e-06
-2.40863e-05
5.28204e-06
-2.30976e-05
7.19725e-06
-2.16263e-05
8.81609e-06
-1.84436e-05
1.00397e-05
-1.43962e-05
1.08568e-05
-1.02261e-05
1.12715e-05
-5.78007e-06
1.13451e-05
-1.56888e-06
1.11553e-05
1.72094e-06
1.07901e-05
3.67908e-06
1.03464e-05
4.80575e-06
9.92195e-06
4.51819e-06
9.54145e-06
3.80526e-06
9.27021e-06
2.4964e-06
9.06835e-06
1.4895e-06
9.00573e-06
4.8695e-07
8.99228e-06
-7.06989e-07
9.10243e-06
-1.04935e-06
-3.34501e-06
8.4735e-06
3.80818e-05
6.90033e-06
3.4692e-05
4.68341e-06
2.60067e-05
2.45345e-06
1.68441e-05
8.61264e-07
7.86588e-06
2.59595e-08
3.58736e-06
-3.53314e-07
1.81841e-06
-5.94251e-07
1.36217e-06
-7.95351e-07
1.2998e-06
-1.0249e-06
1.39734e-06
-1.26875e-06
1.18659e-06
-1.47607e-06
-2.50356e-09
-1.56348e-06
-2.89302e-06
-1.50738e-06
-7.39057e-06
-1.43259e-06
-1.3462e-05
-8.24859e-07
-1.5589e-05
-4.47764e-07
-3.4623e-06
-1.94391e-06
1.70965e-05
-3.68122e-06
3.31684e-05
-4.63523e-06
3.52485e-05
-5.45118e-06
2.33025e-05
-6.36861e-06
1.55726e-05
-7.1744e-06
1.24115e-05
-7.84106e-06
9.71768e-06
-8.39309e-06
7.99566e-06
-8.83098e-06
6.36764e-06
-9.16423e-06
4.9223e-06
-9.38768e-06
3.4563e-06
-9.50127e-06
2.00384e-06
-9.50117e-06
5.08322e-07
-9.38145e-06
-1.07576e-06
-9.13967e-06
-2.6995e-06
-8.76886e-06
-4.42909e-06
-8.26689e-06
-6.32055e-06
-7.62795e-06
-8.36308e-06
-6.83384e-06
-1.07084e-05
-5.80096e-06
-1.38893e-05
-4.45026e-06
-1.7959e-05
-2.72675e-06
-2.22478e-05
-6.63777e-07
-2.57655e-05
1.4949e-06
-2.69882e-05
3.58602e-06
-2.61775e-05
5.61089e-06
-2.51224e-05
7.51162e-06
-2.3527e-05
9.11356e-06
-2.00456e-05
1.03141e-05
-1.55967e-05
1.10999e-05
-1.1012e-05
1.1475e-05
-6.15516e-06
1.15078e-05
-1.60168e-06
1.12807e-05
1.94804e-06
1.08859e-05
4.07386e-06
1.04265e-05
5.26512e-06
9.99334e-06
4.95139e-06
9.60352e-06
4.19509e-06
9.32421e-06
2.7757e-06
9.11608e-06
1.69763e-06
9.05288e-06
5.50153e-07
9.03351e-06
-6.87624e-07
9.1417e-06
-1.15754e-06
-3.45644e-06
8.64028e-06
3.94415e-05
7.26631e-06
3.60659e-05
5.20057e-06
2.80724e-05
2.97241e-06
1.90722e-05
1.24929e-06
9.589e-06
2.70942e-07
4.56572e-06
-1.97965e-07
2.28731e-06
-4.78423e-07
1.64263e-06
-6.95743e-07
1.51712e-06
-9.32279e-07
1.63387e-06
-1.18365e-06
1.43797e-06
-1.40804e-06
2.21878e-07
-1.53772e-06
-2.76334e-06
-1.55795e-06
-7.37034e-06
-1.60313e-06
-1.34168e-05
-1.28974e-06
-1.59024e-05
-1.11221e-06
-3.63982e-06
-2.38378e-06
1.83681e-05
-3.72316e-06
3.45077e-05
-4.41877e-06
3.59441e-05
-5.14117e-06
2.40249e-05
-6.00368e-06
1.64351e-05
-6.76461e-06
1.31725e-05
-7.40312e-06
1.03562e-05
-7.93224e-06
8.52477e-06
-8.3523e-06
6.7877e-06
-8.67064e-06
5.24064e-06
-8.88209e-06
3.66774e-06
-8.9859e-06
2.10765e-06
-8.97803e-06
5.00457e-07
-8.85201e-06
-1.20178e-06
-8.60521e-06
-2.94629e-06
-8.23051e-06
-4.80379e-06
-7.7265e-06
-6.82455e-06
-7.09152e-06
-8.99806e-06
-6.3116e-06
-1.14883e-05
-5.3033e-06
-1.48976e-05
-3.98506e-06
-1.92773e-05
-2.2929e-06
-2.39399e-05
-2.50777e-07
-2.78076e-05
1.88587e-06
-2.91249e-05
3.94972e-06
-2.82413e-05
5.95167e-06
-2.71244e-05
7.83723e-06
-2.54126e-05
9.4213e-06
-2.16296e-05
1.05985e-05
-1.67739e-05
1.13535e-05
-1.17669e-05
1.16883e-05
-6.49002e-06
1.16781e-05
-1.59143e-06
1.14115e-05
2.21464e-06
1.0985e-05
4.50029e-06
1.05084e-05
5.74179e-06
1.00657e-05
5.39407e-06
9.66629e-06
4.5945e-06
9.37948e-06
3.06252e-06
9.16564e-06
1.91147e-06
9.10129e-06
6.145e-07
9.07651e-06
-6.62843e-07
9.18146e-06
-1.26248e-06
-3.55417e-06
8.79011e-06
4.06514e-05
7.60084e-06
3.72552e-05
5.69849e-06
2.99747e-05
3.50005e-06
2.12707e-05
1.67004e-06
1.1419e-05
5.49938e-07
5.68582e-06
-1.65734e-08
2.85382e-06
-3.45203e-07
1.97126e-06
-5.81857e-07
1.75377e-06
-8.24856e-07
1.87687e-06
-1.08161e-06
1.69472e-06
-1.32044e-06
4.60706e-07
-1.48833e-06
-2.59544e-06
-1.57588e-06
-7.2828e-06
-1.723e-06
-1.32697e-05
-1.69507e-06
-1.59303e-05
-1.71417e-06
-3.62073e-06
-2.73212e-06
1.9386e-05
-3.69977e-06
3.54754e-05
-4.18219e-06
3.64265e-05
-4.82061e-06
2.46633e-05
-5.62871e-06
1.72432e-05
-6.34566e-06
1.38894e-05
-6.95599e-06
1.09665e-05
-7.46228e-06
9.03107e-06
-7.8646e-06
7.19001e-06
-8.16821e-06
5.54424e-06
-8.36787e-06
3.86741e-06
-8.46216e-06
2.20194e-06
-8.44681e-06
4.85107e-07
-8.31476e-06
-1.33384e-06
-8.06313e-06
-3.19792e-06
-7.68432e-06
-5.1826e-06
-7.17731e-06
-7.33156e-06
-6.54457e-06
-9.6308e-06
-5.77689e-06
-1.2256e-05
-4.7915e-06
-1.5883e-05
-3.50492e-06
-2.05638e-05
-1.84502e-06
-2.55998e-05
1.74522e-07
-2.98272e-05
2.29127e-06
-3.12416e-05
4.32672e-06
-3.02768e-05
6.30358e-06
-2.91012e-05
8.17363e-06
-2.72826e-05
9.7388e-06
-2.31948e-05
1.08921e-05
-1.79272e-05
1.16164e-05
-1.24913e-05
1.19109e-05
-6.78449e-06
1.18555e-05
-1.53602e-06
1.15474e-05
2.52273e-06
1.10875e-05
4.9602e-06
1.05915e-05
6.23781e-06
1.01385e-05
5.84704e-06
9.72976e-06
5.00325e-06
9.43619e-06
3.35609e-06
9.21715e-06
2.13051e-06
9.15113e-06
6.80517e-07
9.12117e-06
-6.32884e-07
9.22194e-06
-1.36325e-06
-3.63926e-06
8.92491e-06
4.17265e-05
7.90555e-06
3.82746e-05
6.17525e-06
3.1705e-05
4.03204e-06
2.34139e-05
2.11952e-06
1.33315e-05
8.63415e-07
6.94193e-06
1.89626e-07
3.52761e-06
-1.93187e-07
2.35407e-06
-4.53326e-07
2.01391e-06
-7.03292e-07
2.12684e-06
-9.64074e-07
1.9555e-06
-1.21543e-06
7.12066e-07
-1.41699e-06
-2.39388e-06
-1.56357e-06
-7.13622e-06
-1.79894e-06
-1.30343e-05
-2.01868e-06
-1.57106e-05
-2.21309e-06
-3.42632e-06
-2.9836e-06
2.01566e-05
-3.61995e-06
3.61118e-05
-3.928e-06
3.67346e-05
-4.48999e-06
2.52253e-05
-5.24448e-06
1.79976e-05
-5.91856e-06
1.45635e-05
-6.50079e-06
1.15488e-05
-6.98445e-06
9.51472e-06
-7.36918e-06
7.57475e-06
-7.65831e-06
5.83338e-06
-7.84647e-06
4.05556e-06
-7.93157e-06
2.28704e-06
-7.90908e-06
4.62618e-07
-7.77133e-06
-1.47159e-06
-7.51518e-06
-3.45407e-06
-7.13227e-06
-5.56551e-06
-6.62152e-06
-7.84232e-06
-5.98946e-06
-1.02629e-05
-5.23206e-06
-1.30134e-05
-4.26766e-06
-1.68474e-05
-3.01143e-06
-2.18201e-05
-1.38436e-06
-2.72269e-05
6.10357e-07
-3.18219e-05
2.70969e-06
-3.3341e-05
4.71629e-06
-3.22834e-05
6.66616e-06
-3.10511e-05
8.52049e-06
-2.91369e-05
1.00658e-05
-2.47401e-05
1.11941e-05
-1.90555e-05
1.1888e-05
-1.31853e-05
1.21421e-05
-7.03857e-06
1.20396e-05
-1.43353e-06
1.16883e-05
2.87409e-06
1.11932e-05
5.45521e-06
1.06747e-05
6.75636e-06
1.0211e-05
6.31073e-06
9.79445e-06
5.41978e-06
9.49449e-06
3.65605e-06
9.2704e-06
2.3546e-06
9.20231e-06
7.48609e-07
9.16734e-06
-5.97909e-07
9.26322e-06
-1.45913e-06
-3.71247e-06
9.04641e-06
4.26801e-05
8.18204e-06
3.91389e-05
6.62955e-06
3.32575e-05
4.56492e-06
2.54785e-05
2.59409e-06
1.53024e-05
1.21088e-06
8.32514e-06
4.25012e-07
4.31348e-06
-2.11503e-08
2.80024e-06
-3.09527e-07
2.30229e-06
-5.67984e-07
2.3853e-06
-8.32163e-07
2.21968e-06
-1.09465e-06
9.74553e-07
-1.32625e-06
-2.16228e-06
-1.52513e-06
-6.93734e-06
-1.83538e-06
-1.27241e-05
-2.24538e-06
-1.53006e-05
-2.58213e-06
-3.08956e-06
-3.13779e-06
2.07122e-05
-3.49295e-06
3.64669e-05
-3.65713e-06
3.68987e-05
-4.1498e-06
2.5718e-05
-4.85172e-06
1.86996e-05
-5.48418e-06
1.5196e-05
-6.03852e-06
1.21031e-05
-6.49982e-06
9.97603e-06
-6.86721e-06
7.94214e-06
-7.14218e-06
6.10834e-06
-7.31913e-06
4.23252e-06
-7.39539e-06
2.3633e-06
-7.36614e-06
4.33369e-07
-7.2231e-06
-1.61462e-06
-6.96285e-06
-3.71433e-06
-6.57601e-06
-5.95235e-06
-6.06101e-06
-8.35732e-06
-5.42829e-06
-1.08956e-05
-4.67925e-06
-1.37624e-05
-3.73376e-06
-1.77929e-05
-2.50607e-06
-2.30478e-05
-9.11908e-07
-2.88211e-05
1.05728e-06
-3.37911e-05
3.13981e-06
-3.54235e-05
5.11778e-06
-3.42613e-05
7.03891e-06
-3.29722e-05
8.87749e-06
-3.09755e-05
1.04021e-05
-2.62647e-05
1.1504e-05
-2.01574e-05
1.21675e-05
-1.38487e-05
1.23811e-05
-7.25225e-06
1.223e-05
-1.28239e-06
1.18337e-05
3.27039e-06
1.13021e-05
5.98679e-06
1.07586e-05
7.2999e-06
1.02831e-05
6.78622e-06
9.85954e-06
5.84334e-06
9.55389e-06
3.9617e-06
9.32508e-06
2.5834e-06
9.25462e-06
8.19076e-07
9.21479e-06
-5.58078e-07
9.30522e-06
-1.54956e-06
-3.77438e-06
9.15624e-06
4.35238e-05
8.43187e-06
3.98633e-05
7.05932e-06
3.46301e-05
5.09468e-06
2.74432e-05
3.09035e-06
1.73067e-05
1.59144e-06
9.82405e-06
6.90415e-07
5.2145e-06
1.73679e-07
3.31697e-06
-1.49545e-07
2.62551e-06
-4.19048e-07
2.6548e-06
-6.86684e-07
2.48732e-06
-9.59259e-07
1.24713e-06
-1.21802e-06
-1.90352e-06
-1.46182e-06
-6.69354e-06
-1.83425e-06
-1.23516e-05
-2.37691e-06
-1.47579e-05
-2.81616e-06
-2.65031e-06
-3.20148e-06
2.10975e-05
-3.32825e-06
3.65937e-05
-3.37058e-06
3.69411e-05
-3.80045e-06
2.61479e-05
-4.45112e-06
1.93502e-05
-5.04331e-06
1.57882e-05
-5.57007e-06
1.26299e-05
-6.00936e-06
1.04153e-05
-6.35969e-06
8.29247e-06
-6.62082e-06
6.36947e-06
-6.78691e-06
4.39861e-06
-6.8547e-06
2.43109e-06
-6.8191e-06
3.97762e-07
-6.6712e-06
-1.76252e-06
-6.40732e-06
-3.9782e-06
-6.01689e-06
-6.34278e-06
-5.49735e-06
-8.87685e-06
-4.86286e-06
-1.15301e-05
-4.12037e-06
-1.45049e-05
-3.19161e-06
-1.87216e-05
-1.9903e-06
-2.42491e-05
-4.28237e-07
-3.03831e-05
1.51359e-06
-3.57329e-05
3.58016e-06
-3.74901e-05
5.53057e-06
-3.62117e-05
7.4213e-06
-3.48629e-05
9.24417e-06
-3.27984e-05
1.07473e-05
-2.77678e-05
1.18213e-05
-2.12314e-05
1.2454e-05
-1.44814e-05
1.26274e-05
-7.42562e-06
1.24263e-05
-1.08125e-06
1.19834e-05
3.71321e-06
1.14141e-05
6.55613e-06
1.08436e-05
7.87047e-06
1.03548e-05
7.27497e-06
9.92447e-06
6.27366e-06
9.61385e-06
4.27232e-06
9.38078e-06
2.81647e-06
9.30777e-06
8.9209e-07
9.26327e-06
-5.13576e-07
9.3478e-06
-1.6341e-06
-3.82551e-06
9.25591e-06
4.42679e-05
8.65681e-06
4.04624e-05
7.46302e-06
3.58239e-05
5.61778e-06
2.92884e-05
3.60483e-06
1.93196e-05
2.00376e-06
1.14251e-05
9.87092e-07
6.23117e-06
3.91723e-07
3.91234e-06
2.7885e-08
2.98935e-06
-2.56317e-07
2.939e-06
-5.28127e-07
2.75913e-06
-8.10045e-07
1.52905e-06
-1.09364e-06
-1.61993e-06
-1.37605e-06
-6.41112e-06
-1.79923e-06
-1.19284e-05
-2.42706e-06
-1.41301e-05
-2.92499e-06
-2.15239e-06
-3.17582e-06
2.13484e-05
-3.12674e-06
3.65446e-05
-3.06956e-06
3.68839e-05
-3.44239e-06
2.65207e-05
-4.04334e-06
1.99512e-05
-4.59667e-06
1.63415e-05
-5.09622e-06
1.31294e-05
-5.51389e-06
1.0833e-05
-5.84747e-06
8.62605e-06
-6.09514e-06
6.61714e-06
-6.2507e-06
4.55417e-06
-6.3104e-06
2.4908e-06
-6.26885e-06
3.56204e-07
-6.11653e-06
-1.91484e-06
-5.8496e-06
-4.24514e-06
-5.45603e-06
-6.73635e-06
-4.93188e-06
-9.401e-06
-4.29471e-06
-1.21672e-05
-3.55715e-06
-1.52425e-05
-2.64294e-06
-1.96358e-05
-1.46554e-06
-2.54265e-05
6.6587e-08
-3.19153e-05
1.97799e-06
-3.76443e-05
4.02897e-06
-3.9541e-05
5.95386e-06
-3.81366e-05
7.81268e-06
-3.67218e-05
9.61985e-06
-3.46056e-05
1.11013e-05
-2.92493e-05
1.21455e-05
-2.22756e-05
1.27469e-05
-1.50829e-05
1.28802e-05
-7.5589e-06
1.26279e-05
-8.28975e-07
1.21371e-05
4.20408e-06
1.15291e-05
7.16409e-06
1.09299e-05
8.46968e-06
1.04261e-05
7.77881e-06
9.98888e-06
6.71083e-06
9.67392e-06
4.58729e-06
9.4371e-06
3.05329e-06
9.36147e-06
9.67718e-07
9.31251e-06
-4.64616e-07
9.3908e-06
-1.71239e-06
-3.86633e-06
9.34683e-06
4.49211e-05
8.85864e-06
4.09506e-05
7.83976e-06
3.68427e-05
6.13047e-06
3.09977e-05
4.13318e-06
2.13169e-05
2.44604e-06
1.31123e-05
1.31597e-06
7.36124e-06
6.34903e-07
4.59341e-06
2.23107e-07
3.40115e-06
-7.94324e-08
3.24154e-06
-3.56683e-07
3.03638e-06
-6.47484e-07
1.81985e-06
-9.53936e-07
-1.31348e-06
-1.27207e-06
-6.09299e-06
-1.7344e-06
-1.14661e-05
-2.41219e-06
-1.34523e-05
-2.93304e-06
-1.63153e-06
-3.07556e-06
2.14909e-05
-2.89409e-06
3.63631e-05
-2.75537e-06
3.67452e-05
-3.07606e-06
2.68414e-05
-3.62896e-06
2.05041e-05
-4.14486e-06
1.68574e-05
-4.61766e-06
1.36022e-05
-5.01414e-06
1.12295e-05
-5.33131e-06
8.94321e-06
-5.56587e-06
6.8517e-06
-5.71126e-06
4.69956e-06
-5.76325e-06
2.54279e-06
-5.71615e-06
3.09101e-07
-5.55987e-06
-2.07112e-06
-5.29046e-06
-4.51454e-06
-4.89435e-06
-7.13246e-06
-4.3657e-06
-9.92966e-06
-3.72518e-06
-1.28078e-05
-2.99109e-06
-1.59766e-05
-2.0893e-06
-2.05376e-05
-9.33161e-07
-2.65826e-05
5.68317e-07
-3.34167e-05
2.44952e-06
-3.95255e-05
4.48475e-06
-4.15763e-05
6.38667e-06
-4.00385e-05
8.21233e-06
-3.85474e-05
1.00036e-05
-3.63969e-05
1.14635e-05
-3.07092e-05
1.24757e-05
-2.32878e-05
1.30453e-05
-1.56524e-05
1.31389e-05
-7.65248e-06
1.28346e-05
-5.24735e-07
1.22942e-05
4.74454e-06
1.16469e-05
7.8113e-06
1.10178e-05
9.09881e-06
1.04968e-05
8.29978e-06
1.00526e-05
7.1551e-06
9.73374e-06
4.90612e-06
9.49367e-06
3.29336e-06
9.41544e-06
1.04596e-06
9.36226e-06
-4.11437e-07
9.43402e-06
-1.78415e-06
-3.89733e-06
9.43028e-06
4.54908e-05
9.03923e-06
4.13417e-05
8.18865e-06
3.76933e-05
6.62871e-06
3.25576e-05
4.67156e-06
2.32741e-05
2.91665e-06
1.48672e-05
1.67743e-06
8.60045e-06
9.05062e-07
5.36578e-06
4.38571e-07
3.86764e-06
1.1279e-07
3.56732e-06
-1.72254e-07
3.32142e-06
-4.71799e-07
2.11939e-06
-7.9934e-07
-9.85935e-07
-1.15173e-06
-5.7406e-06
-1.64379e-06
-1.09741e-05
-2.34464e-06
-1.27515e-05
-2.87192e-06
-1.10425e-06
-2.92512e-06
2.15441e-05
-2.6347e-06
3.60727e-05
-2.42925e-06
3.65397e-05
-2.70193e-06
2.71141e-05
-3.20856e-06
2.10107e-05
-3.68846e-06
1.73373e-05
-4.13501e-06
1.40487e-05
-4.51074e-06
1.16052e-05
-4.81183e-06
9.24431e-06
-5.03367e-06
7.07353e-06
-5.16921e-06
4.8351e-06
-5.21387e-06
2.58745e-06
-5.16162e-06
2.56849e-07
-5.00182e-06
-2.23092e-06
-4.73056e-06
-4.7858e-06
-4.33257e-06
-7.53044e-06
-3.79971e-06
-1.04625e-05
-3.15542e-06
-1.34521e-05
-2.42354e-06
-1.67084e-05
-1.53214e-06
-2.1429e-05
-3.94509e-07
-2.77202e-05
1.07999e-06
-3.48912e-05
2.92756e-06
-4.13731e-05
4.94605e-06
-4.35948e-05
6.82785e-06
-4.19203e-05
8.61945e-06
-4.0339e-05
1.03943e-05
-3.81717e-05
1.18329e-05