/*--------------------------------*- C++ -*----------------------------------*\
| =========                 |                                                 |
| \\      /  F ield         | OpenFOAM: The Open Source CFD Toolbox           |
|  \\    /   O peration     | Version:  2.4.0                                 |
|   \\  /    A nd           | Web:      www.OpenFOAM.org                      |
|    \\/     M anipulation  |                                                 |
\*---------------------------------------------------------------------------*/
FoamFile
{
    version     2.0;
    format      ascii;
    class       volScalarField;
    location    "5.02";
    object      epsilon;
}
// * * * * * * * * * * * * * * * * * * * * * * * * * * * * * * * * * * * * * //

dimensions      [0 2 -3 0 0 0 0];

internalField   nonuniform List<scalar> 
6000
(
0.995194
0.381671
0.0487357
0.00579184
0.000786148
0.00311114
0.00209628
0.00401074
0.00476644
0.00696884
0.00884592
0.0112887
0.013274
0.0150534
0.0161187
0.0166941
0.0170568
0.0182576
0.021429
0.0269684
0.0343465
0.0428705
0.0514867
0.0600284
0.0684802
0.0768626
0.0851988
0.0935062
0.101795
0.110111
0.118393
0.126633
0.13481
0.142895
0.150857
0.158667
0.16629
0.17371
0.180889
0.187856
0.194547
0.201085
0.207345
0.213561
0.220744
0.236662
0.253155
0.273342
0.293622
0.321326
0.347107
0.388507
0.421922
0.490004
0.533537
0.658133
0.714223
0.975097
1.05676
1.82003
0.558284
0.355006
0.0228198
0.00518869
0.000378299
0.00096694
0.000953567
0.00155729
0.00206016
0.00287909
0.00371768
0.004605
0.00538194
0.0060081
0.00644435
0.00674884
0.00710913
0.00789851
0.00950758
0.0120067
0.0151436
0.018613
0.0221191
0.0255914
0.0290217
0.0324171
0.0357876
0.0391416
0.0424879
0.0458662
0.0492459
0.0526184
0.0559793
0.0593227
0.0626413
0.065929
0.0691786
0.0723877
0.0755508
0.0786764
0.0817584
0.0848286
0.0878797
0.0909829
0.0943798
0.0998855
0.105767
0.112564
0.119776
0.128678
0.137946
0.150439
0.162917
0.18184
0.199589
0.230828
0.260284
0.316199
0.376117
0.511588
0.416732
0.411454
0.0305962
0.00378861
0.000309363
0.000582621
0.000713536
0.00109735
0.00152019
0.00210092
0.00272215
0.00334772
0.00389871
0.00434009
0.00466938
0.00493738
0.00529021
0.00599111
0.00730091
0.00924058
0.0115992
0.0141455
0.0167085
0.0192394
0.0217329
0.0241945
0.0266322
0.0290535
0.031467
0.0338965
0.036321
0.0387386
0.0411478
0.0435459
0.0459299
0.0482968
0.0506437
0.0529697
0.0552739
0.057561
0.0598327
0.0621057
0.0643919
0.0667365
0.0692385
0.0727006
0.0764704
0.0806823
0.0852801
0.0906331
0.0965329
0.103754
0.111762
0.122145
0.133771
0.149825
0.168994
0.195751
0.234832
0.291362
0.367365
0.406294
0.0520409
0.00235087
0.000301449
0.000473161
0.000633792
0.000952751
0.00133831
0.00184215
0.00238292
0.0029195
0.00338896
0.00376744
0.00406138
0.00432219
0.00467788
0.00535021
0.00654878
0.00827453
0.0103343
0.0125302
0.0147341
0.0169058
0.0190404
0.0211431
0.0232212
0.0252817
0.0273333
0.02939
0.0314389
0.0334795
0.0355113
0.0375327
0.0395418
0.0415367
0.0435156
0.0454778
0.0474233
0.0493554
0.0512778
0.0532019
0.0551468
0.0571414
0.0592368
0.0618891
0.0648065
0.0680013
0.0715422
0.0755276
0.0800593
0.085312
0.0914757
0.0988067
0.107819
0.118733
0.133517
0.150969
0.180596
0.214698
0.343016
0.376364
0.0745332
0.00181136
0.000321121
0.000437473
0.000606334
0.000898942
0.00126518
0.00173611
0.00223981
0.00273746
0.00317109
0.00352456
0.00380771
0.0040723
0.00443524
0.00509543
0.00623593
0.00785007
0.00975718
0.0117778
0.0138029
0.0157959
0.0177518
0.0196752
0.021573
0.0234523
0.0253211
0.0271887
0.0290467
0.0308952
0.0327341
0.0345624
0.0363785
0.038181
0.039968
0.0417389
0.0434937
0.0452347
0.0469664
0.0486975
0.0504515
0.0522383
0.0540982
0.0563195
0.0587724
0.0614236
0.0643863
0.067651
0.0714317
0.075671
0.0808164
0.0866265
0.0941777
0.102633
0.115006
0.128176
0.152666
0.17704
0.329442
0.340303
0.0979194
0.00278057
0.00037455
0.00043242
0.000603935
0.000883311
0.00123906
0.0016945
0.00218042
0.00266085
0.00307975
0.00342595
0.0037106
0.0039848
0.00435699
0.00501057
0.00611346
0.00765864
0.00947646
0.0113984
0.0133247
0.0152194
0.017077
0.0189016
0.0206998
0.0224785
0.0242455
0.026007
0.0277576
0.0294979
0.0312279
0.0329468
0.0346532
0.0363454
0.0380217
0.039681
0.0413232
0.0429498
0.0445653
0.0461772
0.0478111
0.0494579
0.0511635
0.0531179
0.0552757
0.0575863
0.0601788
0.0629959
0.0662943
0.0699155
0.0744051
0.0793115
0.0859189
0.0929575
0.103794
0.114572
0.135867
0.154905
0.321261
0.305837
0.115095
0.00805788
0.000507772
0.000447081
0.000617892
0.000888714
0.00123864
0.00168694
0.00216541
0.00264029
0.00305645
0.00340577
0.00369951
0.0039872
0.00436973
0.00501866
0.00609299
0.00759012
0.00935131
0.011215
0.0130851
0.014925
0.0167281
0.0184977
0.0202401
0.0219623
0.0236715
0.0253723
0.0270614
0.0287394
0.0304064
0.0320617
0.0337039
0.0353311
0.0369412
0.0385329
0.0401056
0.0416602
0.0432011
0.0447352
0.046286
0.0478328
0.0494287
0.0512022
0.053154
0.0552292
0.0575607
0.0600702
0.0630274
0.0662299
0.0702557
0.0745631
0.0805037
0.0866282
0.0963918
0.105663
0.12475
0.140435
0.315828
0.275748
0.126891
0.0179829
0.000837826
0.000481731
0.000645965
0.000908794
0.00125518
0.00170072
0.00217789
0.00265439
0.00307554
0.00343497
0.00374323
0.00404744
0.00444119
0.00508609
0.00613604
0.00759617
0.00931919
0.0111482
0.0129877
0.0147992
0.0165744
0.0183159
0.0200296
0.0217222
0.0234008
0.0250688
0.0267243
0.0283682
0.0300004
0.0316203
0.0332262
0.0348161
0.0363875
0.0379386
0.0394683
0.0409768
0.0424688
0.0439505
0.0454393
0.0469122
0.0484258
0.0500683
0.051867
0.0537682
0.055903
0.0581856
0.0608851
0.0637823
0.0674582
0.0713375
0.0767772
0.0822635
0.0912306
0.0994705
0.116919
0.130291
0.311895
0.25063
0.134091
0.0307543
0.00165323
0.000545314
0.000689384
0.000941627
0.00128509
0.00173007
0.00220976
0.00269262
0.0031242
0.00349892
0.00382603
0.0041494
0.00455528
0.00519632
0.00622375
0.00765284
0.00934857
0.0111577
0.012983
0.0147834
0.0165483
0.0182794
0.0199822
0.0216633
0.0233295
0.0249832
0.0266238
0.0282521
0.0298683
0.0314713
0.0330595
0.0346302
0.036181
0.0377091
0.0392133
0.0406931
0.042153
0.0435986
0.0450382
0.0464552
0.0479043
0.0494474
0.0511266
0.0528924
0.0548716
0.0569775
0.0594725
0.0621347
0.0655337
0.0690893
0.074135
0.079149
0.0874967
0.0949855
0.111152
0.122819
0.308899
0.230181
0.137438
0.044545
0.00373823
0.000661619
0.000752456
0.000987782
0.00132739
0.00177255
0.00225707
0.00274953
0.00319558
0.00358968
0.00393931
0.00428438
0.00470346
0.00534078
0.0063464
0.00774748
0.00942233
0.0112208
0.0130431
0.0148441
0.0166111
0.0183443
0.0200489
0.0217312
0.0233976
0.0250501
0.0266888
0.0283147
0.0299277
0.0315269
0.03311
0.0346744
0.0362169
0.0377345
0.0392252
0.040688
0.0421274
0.0435465
0.0449469
0.0463202
0.0477171
0.0491816
0.0507639
0.0524199
0.0542711
0.0562334
0.0585598
0.0610328
0.0642045
0.0675038
0.0722285
0.0768764
0.0847244
0.0916392
0.106764
0.117106
0.306551
0.213779
0.137739
0.0574724
0.00843457
0.000886999
0.000843634
0.00104984
0.00138279
0.00182762
0.00231816
0.00282241
0.00328596
0.00370281
0.00407823
0.00444753
0.00488115
0.005515
0.00649895
0.00787332
0.00953085
0.0113246
0.0131513
0.0149614
0.0167393
0.0184839
0.0201995
0.0218922
0.0235682
0.025229
0.0268754
0.0285083
0.0301276
0.0317322
0.0333196
0.0348867
0.0364299
0.0379455
0.0394312
0.0408854
0.0423126
0.0437105
0.0450797
0.0464179
0.047771
0.0491711
0.0506723
0.0522362
0.0539786
0.0558202
0.0580031
0.0603182
0.0632973
0.0663861
0.0708412
0.0751943
0.082627
0.0890852
0.103333
0.112609
0.304675
0.200741
0.135802
0.0685439
0.0149841
0.00134203
0.000978332
0.00113264
0.00145346
0.0018961
0.00239281
0.00291019
0.00339351
0.00383593
0.00424014
0.00463624
0.00508602
0.00571691
0.00667908
0.00802696
0.00966881
0.0114615
0.0132976
0.0151229
0.0169183
0.018681
0.0204146
0.0221249
0.0238175
0.0254937
0.0271549
0.0288019
0.0304345
0.0320513
0.0336497
0.0352261
0.0367764
0.0382965
0.0397834
0.0412349
0.0426552
0.0440349
0.0453795
0.0466886
0.048004
0.0493497
0.050781
0.0522652
0.0539126
0.0556494
0.0577069
0.059886
0.0626979
0.0656082
0.0698312
0.073939
0.0810173
0.0870998
0.100593
0.108982
0.303153
0.190434
0.132365
0.0772413
0.0228017
0.00231424
0.00118513
0.00124419
0.00154314
0.00198003
0.00248197
0.003013
0.00351769
0.003988
0.00442377
0.00484933
0.00531717
0.00594589
0.00688615
0.00820707
0.00983355
0.011627
0.013476
0.0153207
0.0171385
0.0189245
0.0206815
0.0224148
0.0241294
0.0258266
0.0275079
0.0291742
0.0308254
0.0324596
0.034074
0.0356645
0.0372266
0.0387556
0.0402482
0.0417014
0.043117
0.0444818
0.0458064
0.0470906
0.0483726
0.0496707
0.0510404
0.0524538
0.0540163
0.0556597
0.0576052
0.0596641
0.0623275
0.0650821
0.069101
0.0729988
0.0797681
0.0855322
0.0983601
0.105996
0.301904
0.182317
0.128046
0.0834346
0.0310044
0.00454508
0.00151961
0.0013975
0.00165759
0.00208272
0.00258762
0.00313196
0.00365893
0.00415899
0.00462885
0.00508656
0.00557468
0.00620238
0.00712065
0.00841371
0.0100242
0.011819
0.0136827
0.0155499
0.0173937
0.019207
0.0209916
0.0227522
0.024493
0.0262152
0.0279209
0.0296106
0.0312842
0.0329396
0.0345736
0.0361818
0.0377591
0.0393003
0.0408015
0.0422595
0.0436704
0.0450236
0.0463313
0.0475935
0.0488451
0.0501007
0.0514145
0.0527636
0.0542486
0.0558071
0.0576505
0.0596007
0.0621296
0.0647452
0.0685811
0.0722948
0.078789
0.0842764
0.0965085
0.103493
0.300871
0.175941
0.123329
0.0872505
0.0391038
0.0083327
0.00208739
0.00161393
0.00180543
0.00220911
0.00271288
0.00326913
0.00381853
0.00434969
0.00485588
0.0053485
0.00585937
0.00648754
0.00738391
0.00864796
0.010241
0.0120368
0.0139162
0.0158077
0.0176802
0.0195239
0.0213392
0.0231303
0.0249005
0.0266512
0.0283843
0.0301005
0.0317993
0.0334787
0.0351349
0.0367632
0.038358
0.0399136
0.0414257
0.042889
0.0442957
0.0456397
0.0469327
0.0481746
0.0493978
0.0506142
0.0518764
0.0531659
0.0545789
0.0560586
0.0578073
0.0596573
0.0620625
0.0645515
0.0682206
0.071769
0.0780144
0.0832558
0.0949467
0.10136
0.300012
0.170945
0.118569
0.0889728
0.0466135
0.0135795
0.003094
0.00192958
0.00199955
0.0023662
0.00286219
0.00342762
0.00399868
0.00456167
0.0051061
0.00563633
0.00617268
0.00680316
0.00767794
0.0089117
0.0104855
0.012281
0.0141759
0.0160929
0.0179958
0.019872
0.0217205
0.0235448
0.0253469
0.0271283
0.0288912
0.0306361
0.0323623
0.0340675
0.0357477
0.0373977
0.0390115
0.0405829
0.0421069
0.0435743
0.044978
0.0463142
0.0475936
0.0488164
0.0500124
0.0511918
0.0524055
0.0536386
0.0549837
0.056389
0.0580488
0.0598047
0.0620945
0.064466
0.067981
0.0713783
0.0773951
0.0824137
0.0936069
0.0995138
0.299294
0.167039
0.11401
0.0889698
0.0531184
0.019824
0.00496077
0.00240704
0.00225952
0.002564
0.0030417
0.00361175
0.00420252
0.00479732
0.00538143
0.00595184
0.00651658
0.00715156
0.0080053
0.00920744
0.0107596
0.0125529
0.0144626
0.0164053
0.0183396
0.0202498
0.0221333
0.0239926
0.0258285
0.0276425
0.0294369
0.031212
0.0329669
0.0346991
0.0364043
0.0380769
0.0397104
0.0412982
0.0428338
0.0443041
0.0457055
0.0470346
0.048301
0.0495051
0.0506745
0.0518181
0.0529854
0.0541644
0.0554445
0.0567786
0.0583537
0.0600202
0.062201
0.0644618
0.0678324
0.0710894
0.0768933
0.081707
0.0924383
0.097892
0.298693
0.163991
0.109802
0.0876388
0.0583274
0.0265628
0.00794599
0.00315495
0.00261556
0.00281676
0.00325983
0.00382735
0.00443432
0.00505994
0.00568452
0.00629744
0.00689359
0.00753557
0.00836909
0.0095383
0.0110662
0.0128547
0.0147777
0.0167456
0.0187117
0.020657
0.0225765
0.0244721
0.0263431
0.028191
0.030018
0.0318241
0.0336085
0.0353683
0.037099
0.0387944
0.0404476
0.0420518
0.0435964
0.0450694
0.0464689
0.0477908
0.0490442
0.0502293
0.0513722
0.0524808
0.0536028
0.0547291
0.0559465
0.0572115
0.0587052
0.0602857
0.0623624
0.0645177
0.0677516
0.0708762
0.0764797
0.0811021
0.0914015
0.0964474
0.298187
0.161622
0.106028
0.0853651
0.0620901
0.0333108
0.0120301
0.00436207
0.00311524
0.0031451
0.00352812
0.00408219
0.00469971
0.00535387
0.00601888
0.00667622
0.00730679
0.00795852
0.00877292
0.00990796
0.0114087
0.0131894
0.0151235
0.0171155
0.0191132
0.0210937
0.02305
0.0249827
0.0268896
0.028772
0.0306322
0.0324698
0.0342838
0.0360712
0.0378271
0.039545
0.0412175
0.0428365
0.0443879
0.0458634
0.0472604
0.0485747
0.0498145
0.05098
0.0520958
0.0531694
0.0542468
0.0553214
0.0564773
0.0576749
0.0590895
0.0605865
0.0625629
0.0646166
0.0677198
0.0707182
0.0761312
0.080573
0.0904657
0.0951428
0.29776
0.159786
0.102722
0.0824947
0.0643895
0.0396253
0.0169701
0.00630377
0.00383442
0.00357914
0.00386245
0.0043866
0.00500605
0.00568474
0.00638899
0.00709203
0.00775985
0.00842429
0.00922093
0.0103207
0.0117912
0.0135606
0.0155029
0.0175173
0.0195457
0.0215611
0.0235543
0.0255244
0.0274675
0.0293846
0.031278
0.033147
0.0349904
0.0368049
0.0385854
0.0403249
0.0420156
0.0436455
0.0452031
0.0466801
0.0480737
0.0493793
0.0506044
0.0517493
0.0528373
0.0538755
0.0549084
0.0559316
0.0570268
0.058158
0.0594952
0.0609105
0.0627894
0.0647444
0.0677217
0.0705986
0.0758289
0.0800988
0.0896067
0.093949
0.2974
0.158371
0.0998794
0.0793181
0.0653204
0.0451392
0.0224952
0.00916406
0.00489425
0.00416333
0.00428485
0.00475434
0.00536289
0.00605976
0.00680053
0.00754962
0.00825715
0.00893733
0.00971781
0.0107812
0.0122182
0.0139723
0.0159195
0.0179538
0.0200114
0.022061
0.0240907
0.0260979
0.0280771
0.0300287
0.031955
0.0338547
0.0357267
0.0375673
0.0393712
0.041131
0.0428365
0.0444752
0.0460375
0.0475147
0.0489034
0.0501988
0.0514078
0.0525307
0.0535897
0.0545916
0.0555797
0.0565513
0.0575864
0.0586517
0.0599127
0.0612474
0.0630313
0.0648896
0.0677447
0.0705037
0.0755576
0.0796625
0.0888049
0.0928425
0.297095
0.157288
0.0974766
0.0760646
0.0650604
0.0495823
0.0282744
0.0129543
0.00647931
0.00496366
0.00482614
0.00520377
0.00578263
0.0064881
0.00726058
0.00805481
0.00880387
0.0095027
0.0102688
0.011295
0.0126951
0.0144295
0.0163775
0.0184287
0.0205134
0.0225958
0.0246611
0.0267047
0.0287194
0.0307047
0.0326631
0.0345925
0.0364917
0.038357
0.0401826
0.0419599
0.0436766
0.0453224
0.0468875
0.0483629
0.0497448
0.0510282
0.0522193
0.0533184
0.0543468
0.0553113
0.0562541
0.0571737
0.0581486
0.0591481
0.0603338
0.0615888
0.0632792
0.0650425
0.0677784
0.0704222
0.0753048
0.0792505
0.0880443
0.0918044
0.296836
0.156466
0.0954761
0.0729033
0.0638378
0.0527922
0.033949
0.0175577
0.00875063
0.00607743
0.0055297
0.00575951
0.00628135
0.0069814
0.00777802
0.00861469
0.00940611
0.0101262
0.0108799
0.0118681
0.0132277
0.0149376
0.0168818
0.0189461
0.0210552
0.0231683
0.0252678
0.0273467
0.0293957
0.0314135
0.0334026
0.0353602
0.037285
0.039173
0.0410179
0.0428081
0.0445339
0.0461844
0.0477501
0.0492214
0.0505941
0.0518632
0.0530341
0.0541074
0.0551035
0.0560292
0.0569255
0.0577925
0.0587069
0.0596406
0.0607514
0.0619271
0.0635255
0.0651948
0.0678139
0.0703446
0.0750602
0.0788515
0.087312
0.0908189
0.296615
0.155851
0.093834
0.0699497
0.0619008
0.0547159
0.03917
0.0227452
0.0118124
0.00762819
0.00645666
0.00645461
0.00687998
0.00755441
0.00836386
0.00923788
0.0100711
0.0108145
0.0115575
0.0125071
0.0138227
0.0155028
0.0174378
0.0195108
0.0216408
0.0237821
0.0259138
0.028026
0.0301078
0.0321565
0.0341746
0.0361584
0.0381065
0.0400148
0.0418739
0.0436744
0.0454065
0.0470591
0.0486225
0.0500868
0.0514478
0.0526998
0.0538481
0.0548933
0.0558551
0.0567401
0.0575888
0.0584022
0.0592557
0.0601232
0.0611593
0.0622561
0.0637632
0.0653395
0.0678436
0.0702628
0.0748149
0.078456
0.0865971
0.0898733
0.296427
0.155398
0.0925053
0.0672744
0.0594919
0.0554007
0.0436303
0.0282192
0.0156754
0.0097421
0.00768878
0.00733342
0.0076057
0.00822578
0.00903176
0.00993486
0.0108072
0.011575
0.012309
0.0132195
0.0144873
0.0161319
0.0180517
0.0201281
0.0222749
0.024441
0.0266023
0.0287456
0.030858
0.0329354
0.0349802
0.0369877
0.0389564
0.0408799
0.0427502
0.044558
0.0462932
0.0479446
0.0495024
0.0509566
0.0523026
0.0535346
0.0546576
0.055672
0.0565971
0.0574397
0.0582393
0.0589979
0.0597898
0.0605907
0.061552
0.0625699
0.0639867
0.0654704
0.0678611
0.0701702
0.0745616
0.0780563
0.0858908
0.0889567
0.296266
0.155073
0.0914458
0.0649123
0.0568293
0.054977
0.0470932
0.0336492
0.0202396
0.0125267
0.00932155
0.00845363
0.00849388
0.00901905
0.00979865
0.0107183
0.0116245
0.0124163
0.0131425
0.0140132
0.0152295
0.0168325
0.0187304
0.0208042
0.0229626
0.0251496
0.0273373
0.0295085
0.0316489
0.0337522
0.035821
0.0378487
0.0398332
0.0417685
0.0436466
0.045458
0.0471926
0.0488391
0.0503877
0.0518283
0.0531558
0.0543645
0.0554589
0.0564398
0.0573258
0.0581238
0.0588727
0.0595752
0.0603047
0.0610382
0.0619247
0.0628637
0.0641906
0.0655823
0.0678608
0.0700607
0.074294
0.0776457
0.0851856
0.0880601
0.296128
0.15485
0.0906149
0.0628719
0.0540948
0.0536336
0.049411
0.038702
0.0253089
0.0160339
0.0114576
0.00988416
0.00958981
0.00996403
0.0106854
0.0116036
0.0125349
0.0133482
0.0140669
0.0148973
0.0160581
0.0176129
0.0194814
0.0215455
0.0237098
0.0259127
0.028123
0.0303184
0.0324834
0.0346093
0.0366973
0.0387411
0.0407378
0.0426811
0.044563
0.0463739
0.0481039
0.0497414
0.0512767
0.0526995
0.0540047
0.0551864
0.0562491
0.0571933
0.0580375
0.0587886
0.059485
0.06013
0.0607961
0.0614616
0.0622731
0.0631331
0.0643704
0.0656705
0.0678378
0.0699295
0.074007
0.0772187
0.0844751
0.0871758
0.296009
0.154706
0.0899757
0.0611435
0.0514293
0.0515917
0.0505339
0.0430701
0.0306176
0.0202328
0.0141883
0.0117041
0.0109462
0.0110978
0.0117185
0.0126092
0.013552
0.0143817
0.0150922
0.0158812
0.0169825
0.0184821
0.0203129
0.0223594
0.0245227
0.0267358
0.028964
0.0311789
0.0333633
0.0355076
0.0376108
0.0396666
0.0416712
0.0436181
0.0454994
0.0473054
0.049026
0.05065
0.0521674
0.0535682
0.0548469
0.0559978
0.057025
0.0579293
0.0587288
0.0594306
0.0600726
0.0606585
0.0612601
0.061857
0.062593
0.0633738
0.0645221
0.0657308
0.0677878
0.0697722
0.0736958
0.0767706
0.0837539
0.0862973
0.295906
0.154624
0.0894959
0.0597055
0.048933
0.0490797
0.0505067
0.0464989
0.0358587
0.0250023
0.0175685
0.0139956
0.0126242
0.0124625
0.012929
0.0137589
0.0146922
0.0155295
0.0162292
0.0169754
0.0180131
0.0194498
0.0212338
0.0232536
0.0254075
0.0276238
0.029864
0.032093
0.0342919
0.0364498
0.0385636
0.0406267
0.0426345
0.0445803
0.0464559
0.0482519
0.0499582
0.0515636
0.0530583
0.0544322
0.0556799
0.0567958
0.0577837
0.0586447
0.0593966
0.0600465
0.060632
0.0611573
0.0616933
0.0622207
0.062881
0.0635825
0.0646418
0.0657595
0.0677072
0.0695849
0.0733566
0.0762974
0.0830175
0.085419
0.295817
0.154591
0.0891475
0.0585296
0.0466696
0.0463116
0.049456
0.0488087
0.0407116
0.0301408
0.0215924
0.0168299
0.0146903
0.0141064
0.0143515
0.0150783
0.0159758
0.0168062
0.0174897
0.0181904
0.0191596
0.0205253
0.0222526
0.0242358
0.0263711
0.0285827
0.0308279
0.033065
0.0352728
0.0374388
0.039558
0.0416231
0.0436288
0.045568
0.0474326
0.049213
0.0508995
0.0524808
0.0539475
0.0552895
0.0565015
0.0575778
0.0585225
0.0593365
0.0600376
0.060633
0.0611599
0.0616231
0.0620923
0.0625494
0.0631336
0.0637557
0.0647264
0.0657535
0.0675925
0.0693645
0.072986
0.0757958
0.0822621
0.0845361
0.295739
0.154595
0.0889067
0.0575848
0.0446722
0.0434719
0.0475682
0.049911
0.044871
0.0353854
0.0261796
0.0202498
0.0172092
0.0160825
0.0160254
0.0165963
0.0174243
0.0182285
0.0188865
0.0195373
0.0204324
0.0217186
0.0233785
0.0253142
0.0274208
0.0296189
0.0318613
0.0340993
0.0363095
0.0384776
0.0405963
0.0426575
0.0446552
0.0465819
0.0484294
0.0501883
0.0518489
0.0534004
0.0548333
0.056138
0.0573091
0.0583413
0.0592384
0.0600018
0.0606488
0.061187
0.0616533
0.0620526
0.062454
0.06284
0.0633478
0.0638904
0.0647729
0.0657096
0.0674408
0.069108
0.0725811
0.0752627
0.0814844
0.0836444
0.295671
0.154629
0.0887532
0.0568399
0.0429505
0.0407074
0.0450643
0.0498136
0.0480752
0.0404362
0.0311737
0.0242503
0.0202326
0.0184442
0.017993
0.018345
0.019062
0.0198144
0.0204339
0.021028
0.0218424
0.0230399
0.0246212
0.0264974
0.0285644
0.030739
0.0329694
0.0352004
0.0374059
0.039569
0.0416805
0.0437314
0.0457145
0.0476221
0.0494461
0.051177
0.0528054
0.0543207
0.0557139
0.0569755
0.0581004
0.0590835
0.0599288
0.0606375
0.0612273
0.0617056
0.062109
0.0624428
0.0627752
0.0630895
0.0635207
0.0639838
0.0647784
0.0656254
0.0672496
0.0688129
0.0721394
0.0746959
0.0806814
0.0827404
0.295612
0.154683
0.08867
0.056265
0.0414972
0.0381242
0.0421732
0.0486155
0.0501314
0.0449817
0.0363522
0.0287652
0.0237854
0.0212385
0.0202974
0.0203584
0.0209149
0.0215836
0.022147
0.0226746
0.0234006
0.0244995
0.0259902
0.0277944
0.0298094
0.0319495
0.0341579
0.036373
0.0385653
0.0407158
0.0428127
0.0448459
0.0468074
0.0486889
0.0504823
0.0521782
0.0537674
0.0552399
0.056587
0.0577995
0.0588728
0.0598017
0.0605906
0.0612408
0.06177
0.0621856
0.0625241
0.0627908
0.0630532
0.0632951
0.0636495
0.0640333
0.0647404
0.0654983
0.0670165
0.0684771
0.0716588
0.0740932
0.0798508
0.0818209
0.29556
0.154754
0.088643
0.0558329
0.0402938
0.03579
0.0391094
0.0464911
0.0509358
0.0487266
0.0414436
0.0336619
0.0278516
0.0244967
0.0229773
0.0226706
0.0230098
0.0235568
0.0240413
0.0244899
0.0251179
0.0261077
0.0274951
0.0292136
0.0311635
0.033257
0.0354321
0.0376211
0.0397912
0.0419204
0.0439945
0.0460021
0.0479341
0.0497819
0.0515371
0.0531905
0.0547334
0.0561561
0.0574503
0.0586075
0.0596233
0.0604929
0.0612207
0.0618086
0.0622738
0.0626241
0.0628955
0.0630936
0.0632851
0.0634542
0.0637317
0.0640364
0.0646566
0.0653262
0.0667394
0.0680985
0.0711373
0.0734528
0.0789906
0.0808831
0.295514
0.154835
0.0886603
0.0555194
0.0393157
0.0337398
0.0360555
0.0436656
0.0504844
0.0514194
0.0461486
0.0387447
0.0323626
0.0282237
0.0260614
0.025312
0.0253731
0.0257546
0.0261327
0.0264862
0.027005
0.0278742
0.029145
0.0307635
0.032634
0.0346676
0.036797
0.0389487
0.0410863
0.0431847
0.045227
0.0472004
0.0490946
0.0509004
0.0526093
0.0542124
0.0557012
0.0570667
0.0583012
0.0593966
0.0603489
0.061154
0.0618162
0.0623375
0.0627355
0.0630179
0.0632203
0.0633485
0.0634682
0.0635641
0.0637648
0.0639908
0.0645249
0.0651071
0.0664165
0.0676754
0.0705735
0.0727732
0.0780989
0.0799249
0.295474
0.154924
0.0887118
0.0553034
0.0385354
0.0319827
0.033153
0.0403871
0.0488717
0.0528787
0.0501652
0.043767
0.0371922
0.0323862
0.0295595
0.0283054
0.0280273
0.028196
0.028436
0.0286749
0.0290715
0.0298077
0.0309481
0.0324514
0.0342274
0.0361871
0.038257
0.0403591
0.042453
0.0445101
0.046511
0.0484407
0.050288
0.052043
0.053697
0.0552414
0.0566682
0.0579689
0.0591364
0.0601634
0.0610464
0.0617814
0.0623733
0.0628244
0.0631519
0.0633638
0.0634954
0.0635524
0.0635997
0.0636223
0.0637465
0.0638944
0.0643433
0.0648392
0.066046
0.0672065
0.0699659
0.0720532
0.0771743
0.078944
0.295439
0.155018
0.0887894
0.0551666
0.0379252
0.0305089
0.0304994
0.0368984
0.0462784
0.053015
0.0532151
0.0484473
0.042158
0.0369051
0.0334545
0.0316592
0.0309884
0.0308965
0.0309637
0.0310659
0.0313253
0.0319154
0.0329112
0.0342837
0.0359492
0.03782
0.0398155
0.0418547
0.0438927
0.0458973
0.047846
0.0497221
0.0515127
0.0532076
0.0547977
0.0562748
0.0576312
0.0588592
0.0599525
0.0609043
0.0617118
0.0623716
0.0628886
0.0632655
0.0635195
0.0636586
0.0637178
0.0637026
0.063677
0.0636263
0.0636744
0.0637451
0.0641098
0.0645208
0.0656266
0.0666904
0.0693134
0.0712918
0.0762156
0.0779387
0.295408
0.155113
0.0888862
0.0550935
0.0374587
0.0292969
0.0281511
0.0334141
0.0429475
0.0518424
0.0550719
0.0524909
0.0470292
0.0416508
0.0376936
0.0353615
0.0342606
0.0338648
0.0337243
0.0336659
0.0337719
0.0342023
0.035039
0.0362649
0.0378034
0.0395699
0.0414748
0.0434368
0.0454059
0.0473457
0.049231
0.0510426
0.0527664
0.0543913
0.0559081
0.0573087
0.0585862
0.0597335
0.060745
0.0616149
0.0623409
0.0629202
0.063358
0.0636571
0.0638348
0.063899
0.0638842
0.0637961
0.0636974
0.0635736
0.0635464
0.0635408
0.0638227
0.0641504
0.0651568
0.0661259
0.068615
0.070488
0.0752216
0.0769074
0.29538
0.155209
0.0889967
0.0550713
0.0371119
0.0283183
0.0261301
0.0301042
0.0391532
0.0494803
0.0555875
0.0556145
0.0515402
0.0464443
0.0421824
0.0393723
0.0378316
0.0370999
0.0367199
0.0364771
0.0364131
0.03667
0.0373335
0.0383971
0.039792
0.0414373
0.0432355
0.0451053
0.0469914
0.0488536
0.0506633
0.0523991
0.0540454
0.05559
0.0570238
0.0583387
0.0595285
0.0605869
0.0615093
0.0622905
0.0629292
0.0634228
0.0637771
0.063995
0.0640937
0.0640812
0.0639914
0.0638299
0.0636582
0.0634619
0.0633602
0.0632798
0.0634803
0.0637265
0.0646354
0.0655121
0.0678699
0.0696413
0.0741915
0.0758489
0.295356
0.155303
0.0891162
0.0550887
0.0368638
0.0275423
0.0244324
0.0270879
0.0351686
0.0461397
0.0547126
0.0575729
0.0554088
0.0510638
0.0467822
0.0436183
0.0416665
0.0405862
0.0399432
0.039495
0.0392455
0.0393161
0.0397929
0.0406791
0.041914
0.0434207
0.0450961
0.0468579
0.0486465
0.0504176
0.052139
0.0537872
0.0553446
0.0567985
0.0581391
0.059359
0.0604522
0.0614137
0.0622395
0.0629256
0.0634711
0.0638744
0.0641411
0.0642748
0.0642923
0.0642015
0.0640359
0.0638009
0.0635565
0.0632887
0.0631137
0.0629601
0.0630811
0.0632478
0.0640614
0.0648481
0.0670774
0.0687511
0.0731247
0.0747619
0.295335
0.155395
0.089241
0.0551368
0.0366958
0.0269382
0.0230363
0.0244342
0.0312363
0.042098
0.052509
0.0581869
0.058358
0.0552559
0.051312
0.0479884
0.0457032
0.0442896
0.0433741
0.0427063
0.0422589
0.0421323
0.0424107
0.0431058
0.0441651
0.045516
0.0470521
0.0486901
0.0503661
0.0520321
0.0536523
0.0552005
0.0566577
0.05801
0.0592474
0.0603626
0.0613507
0.0622071
0.0629292
0.0635138
0.0639608
0.0642692
0.0644449
0.0644916
0.0644261
0.064256
0.0640143
0.0637059
0.0633896
0.0630515
0.0628049
0.0625799
0.0626235
0.0627131
0.0634338
0.0641333
0.0662371
0.067817
0.0720205
0.0736456
0.295316
0.155485
0.0893682
0.0552078
0.0365925
0.0264776
0.0219101
0.0221688
0.0275479
0.037664
0.0491475
0.0573685
0.0601418
0.058752
0.0555541
0.0523328
0.0498476
0.0481526
0.0469762
0.0460858
0.0454343
0.0451034
0.0451746
0.0456668
0.0465364
0.0477155
0.0490962
0.0505945
0.0521429
0.0536894
0.055195
0.056631
0.0579763
0.0592161
0.0603401
0.0613414
0.0622156
0.0629593
0.0635709
0.0640481
0.0643916
0.064601
0.0646827
0.0646403
0.0644903
0.0642404
0.0639226
0.0635416
0.0631547
0.0627479
0.0624316
0.0621376
0.0621061
0.0621213
0.0627518
0.063367
0.0653485
0.0668388
0.0708785
0.072499
0.2953
0.155571
0.0894956
0.0552955
0.0365404
0.026135
0.0210175
0.0202846
0.0242337
0.0331405
0.0448916
0.0551394
0.0605724
0.0612886
0.0592653
0.0564662
0.0539722
0.0520912
0.0506934
0.0495937
0.0487414
0.0482053
0.0480647
0.0483458
0.049014
0.0500066
0.0512168
0.0525601
0.0539659
0.0553789
0.0567568
0.058068
0.0592899
0.0604064
0.0614072
0.0622854
0.0630376
0.0636612
0.0641559
0.0645203
0.0647559
0.064863
0.0648482
0.064715
0.06448
0.0641503
0.063757
0.0633046
0.0628487
0.0623754
0.0619918
0.0616313
0.0615276
0.0614713
0.0620145
0.0625487
0.0644114
0.0658163
0.0696986
0.0713215
0.295285
0.155653
0.0896214
0.0553949
0.0365285
0.0258881
0.0203221
0.0187525
0.0213635
0.0287893
0.0400665
0.0516385
0.0595468
0.0626309
0.0621918
0.0601737
0.0579165
0.0559923
0.0544466
0.0531728
0.0521366
0.0514032
0.0510525
0.0511189
0.0515777
0.0523717
0.0533979
0.0545719
0.0558212
0.0570871
0.0583242
0.0594986
0.0605857
0.0615687
0.0624366
0.0631832
0.0638056
0.0643025
0.0646744
0.0649213
0.0650455
0.0650476
0.0649344
0.0647098
0.0643896
0.0639807
0.0635133
0.0629914
0.0624688
0.0619314
0.0614833
0.0610595
0.0608866
0.0607622
0.0612213
0.0616781
0.0634256
0.0647495
0.0684804
0.0701126
0.295272
0.155732
0.0897443
0.0555017
0.0365476
0.025718
0.0197899
0.017531
0.0189557
0.0248081
0.0350176
0.0471138
0.0570691
0.0625995
0.0640881
0.0632223
0.0614914
0.0597139
0.0581318
0.056746
0.0555608
0.05465
0.0540995
0.0539538
0.0541997
0.0547868
0.055618
0.0566105
0.0576904
0.0587964
0.0598807
0.0609068
0.0618486
0.0626881
0.0634143
0.0640212
0.0645069
0.0648711
0.0651155
0.0652411
0.0652509
0.0651463
0.064934
0.0646179
0.0642133
0.0637267
0.0631872
0.0625983
0.0620117
0.0614134
0.0609041
0.0604205
0.0601819
0.059993
0.0603716
0.0607548
0.062391
0.0636385
0.0672241
0.0688719
0.295261
0.155807
0.0898634
0.0556126
0.0365901
0.0256091
0.0193906
0.0165744
0.0169901
0.0213202
0.030067
0.041897
0.0532634
0.0610973
0.0647404
0.0653751
0.0644862
0.063087
0.0616193
0.0602143
0.0589371
0.0578843
0.0571552
0.0568084
0.0568444
0.0572208
0.0578497
0.058651
0.0595506
0.0604857
0.0614062
0.0622736
0.0630602
0.0637474
0.0643239
0.0647842
0.0651272
0.0653537
0.0654668
0.0654683
0.065362
0.0651499
0.0648387
0.0644321
0.0639448
0.0633829
0.0627741
0.0621213
0.0614742
0.0608189
0.0602522
0.0597126
0.0594122
0.059163
0.059465
0.0597787
0.0613076
0.0624834
0.0659295
0.067599
0.295251
0.155877
0.089978
0.0557253
0.0366497
0.025548
0.019098
0.0158373
0.0154227
0.0183773
0.0254763
0.0363635
0.0483718
0.0581328
0.0639918
0.0664106
0.0666807
0.0659216
0.0647561
0.0634571
0.0621698
0.0610289
0.0601563
0.0596296
0.0594667
0.0596351
0.0600589
0.0606629
0.0613741
0.0621293
0.0628767
0.0635764
0.0641995
0.0647267
0.0651467
0.0654545
0.06565
0.0657353
0.0657144
0.0655903
0.0653676
0.0650484
0.0646396
0.0641447
0.0635775
0.0629436
0.0622692
0.0615566
0.0608532
0.0601451
0.0595253
0.0589344
0.0585765
0.0582714
0.058501
0.0587497
0.0601756
0.0612845
0.0645969
0.0662938
0.295242
0.155944
0.0900878
0.0558377
0.0367215
0.025524
0.0188901
0.0152786
0.0141974
0.0159736
0.0214231
0.0308823
0.0427346
0.0538357
0.0617687
0.0661445
0.0678597
0.0680156
0.0673693
0.0663328
0.0651441
0.0639902
0.0630255
0.0623528
0.0620114
0.0619822
0.0622042
0.0626092
0.0631276
0.0636966
0.0642641
0.0647892
0.0652421
0.0656032
0.0658615
0.0660125
0.0660573
0.0659992
0.0658432
0.0655935
0.0652552
0.064831
0.0643273
0.0637475
0.0631044
0.0624028
0.0616675
0.0608999
0.0601453
0.0593895
0.0587216
0.0580842
0.0576737
0.0573175
0.0574792
0.0576676
0.0589952
0.0600421
0.0632266
0.0649562
0.295234
0.156007
0.0901924
0.0559483
0.0368013
0.0255282
0.0187489
0.0148623
0.0132563
0.014064
0.0179959
0.0257682
0.0367509
0.0484586
0.0581044
0.0644553
0.0678323
0.0691665
0.0692733
0.0686822
0.0677274
0.0666583
0.0656709
0.0649006
0.0644131
0.0642058
0.0642365
0.0644466
0.0647721
0.0651524
0.0655361
0.065882
0.0661603
0.0663513
0.0664444
0.0664363
0.0663289
0.0661269
0.0658365
0.0654629
0.0650118
0.0644859
0.0638916
0.0632316
0.0625179