/*--------------------------------*- C++ -*----------------------------------*\
| =========                 |                                                 |
| \\      /  F ield         | OpenFOAM: The Open Source CFD Toolbox           |
|  \\    /   O peration     | Version:  2.4.0                                 |
|   \\  /    A nd           | Web:      www.OpenFOAM.org                      |
|    \\/     M anipulation  |                                                 |
\*---------------------------------------------------------------------------*/
FoamFile
{
    version     2.0;
    format      ascii;
    class       volScalarField;
    location    "6.42";
    object      epsilon;
}
// * * * * * * * * * * * * * * * * * * * * * * * * * * * * * * * * * * * * * //

dimensions      [0 2 -3 0 0 0 0];

internalField   nonuniform List<scalar> 
6000
(
54.173
1.09757
0.0202899
0.134483
0.072546
0.0863291
0.0616069
0.057561
0.0461022
0.0419174
0.0364683
0.0341711
0.0321136
0.031738
0.0319646
0.033298
0.0353378
0.0382973
0.0420489
0.0467083
0.0522543
0.0587498
0.0661865
0.0745645
0.0838261
0.0938926
0.104637
0.115881
0.127371
0.13878
0.149698
0.15964
0.168057
0.174329
0.177821
0.177938
0.174192
0.166227
0.154026
0.137853
0.118697
0.0978609
0.0775
0.0670192
0.104427
0.160241
0.237996
0.352081
0.499945
0.720415
0.977535
1.40044
1.81011
2.67543
3.2381
5.26683
5.69888
11.4342
10.3335
29.1777
17.7229
0.97546
0.0253688
0.0742198
0.0418217
0.0473865
0.0343734
0.0316223
0.0254885
0.0230006
0.020028
0.0186501
0.0174622
0.0171229
0.0171101
0.0176392
0.0185122
0.0198093
0.0214601
0.023501
0.0259098
0.0287004
0.0318581
0.0353731
0.0392153
0.0433495
0.0477258
0.052279
0.0569206
0.0615388
0.0659962
0.0701323
0.0737636
0.0766748
0.078652
0.0794735
0.0789402
0.0768746
0.0731902
0.0678693
0.0611402
0.0533544
0.0453063
0.0417449
0.0601705
0.0860225
0.120167
0.167679
0.227253
0.312376
0.410881
0.56585
0.720603
1.02495
1.24663
1.93279
2.16459
4.02939
3.93386
9.81493
7.13598
0.71115
0.0303069
0.0435421
0.0252883
0.0273076
0.0200748
0.0182023
0.0147586
0.0132362
0.0115507
0.0107168
0.0100281
0.00979585
0.00975713
0.0100074
0.010446
0.011105
0.0119471
0.0129847
0.0142045
0.0156096
0.0171914
0.0189436
0.0208525
0.0229032
0.025076
0.0273456
0.0296783
0.0320316
0.0343538
0.0365835
0.0386487
0.0404637
0.0419419
0.0429796
0.0434775
0.0433334
0.0424677
0.0408169
0.0384152
0.0353574
0.0319984
0.031116
0.0418234
0.0561505
0.0741729
0.0978843
0.126525
0.165346
0.209668
0.275579
0.343203
0.465688
0.565059
0.827876
0.953588
1.63463
1.71372
3.76083
3.42004
0.518233
0.0345357
0.0274544
0.0160621
0.0164816
0.0122295
0.0109324
0.00891174
0.00795535
0.00696976
0.00646432
0.0060697
0.00593682
0.0059284
0.00608815
0.00636377
0.00676895
0.00728452
0.00791563
0.00865565
0.00950575
0.0104618
0.0115208
0.0126766
0.0139226
0.0152502
0.0166483
0.0181017
0.0195915
0.0210942
0.0225816
0.0240178
0.0253711
0.0265914
0.027626
0.028421
0.0289183
0.0290654
0.0288135
0.0281573
0.0271192
0.0258789
0.0261951
0.0332088
0.0422936
0.053335
0.0672282
0.0835692
0.104647
0.128472
0.161718
0.196673
0.254215
0.305648
0.420924
0.493113
0.773251
0.859262
1.65146
1.89782
0.395525
0.0386503
0.0190398
0.0107891
0.0104255
0.00776284
0.00683679
0.0055984
0.00498256
0.00439277
0.00408966
0.00387248
0.00381557
0.00384455
0.00398015
0.00419464
0.00449467
0.00487067
0.00532555
0.00585645
0.00646428
0.00714723
0.00790389
0.00873111
0.00962558
0.0105829
0.0115973
0.012661
0.0137642
0.0148952
0.0160397
0.0171801
0.0183047
0.0193833
0.0203884
0.0212908
0.022057
0.022654
0.0230473
0.0232218
0.023172
0.0229976
0.0238828
0.0289292
0.0352958
0.0428309
0.0519797
0.0625688
0.0757031
0.0905589
0.110143
0.131361
0.163072
0.194123
0.252841
0.298758
0.430081
0.497928
0.842111
1.19136
0.318419
0.0429762
0.0149622
0.00776921
0.00694119
0.00514206
0.00445153
0.00365692
0.00325038
0.00289185
0.00271556
0.00260745
0.00260414
0.00266377
0.00279662
0.00298791
0.00324155
0.00355313
0.00392488
0.00435593
0.0048472
0.00539803
0.00600773
0.00667469
0.00739721
0.00817314
0.00899962
0.00987289
0.0107884
0.0117406
0.0127225
0.0137282
0.0147509
0.0157729
0.0167782
0.0177493
0.0186648
0.0195011
0.0202326
0.0208424
0.0213161
0.0217147
0.0228808
0.0267888
0.0316055
0.0371794
0.0437389
0.0512335
0.0602346
0.0704643
0.0833545
0.0977893
0.117667
0.138873
0.173222
0.205651
0.275954
0.328152
0.49661
0.829185
0.268834
0.0475669
0.0135342
0.0061235
0.00490764
0.00357064
0.00302459
0.00248715
0.00221094
0.00199099
0.00189508
0.00185478
0.00188764
0.0019692
0.002105
0.00228736
0.00251922
0.00279903
0.00312886
0.00350897
0.00394044
0.00442331
0.00495757
0.00554272
0.00617836
0.00686404
0.00759902
0.00838216
0.00921198
0.0100864
0.011002
0.0119589
0.0129497
0.0139636
0.01499
0.0160164
0.0170273
0.0180051
0.0189297
0.0197866
0.0205587
0.0212865
0.0225965
0.0257945
0.0296532
0.0340327
0.0390467
0.0447025
0.0513046
0.0588253
0.0679622
0.0784784
0.0920778
0.107666
0.129992
0.154546
0.196763
0.238068
0.329283
0.628421
0.235882
0.0523304
0.0138404
0.00540421
0.00373697
0.00262079
0.00215499
0.00176706
0.00157197
0.00143634
0.00139156
0.00139373
0.00145051
0.00154715
0.00168709
0.00186671
0.00208868
0.00235311
0.00266216
0.00301684
0.00341851
0.00386789
0.00436566
0.00491231
0.00550856
0.00615517
0.00685282
0.00760186
0.00840237
0.00925384
0.010155
0.0111058
0.0120998
0.0131293
0.0141862
0.0152605
0.0163403
0.0174112
0.0184581
0.0194692
0.0204242
0.0213548
0.0227394
0.025465
0.0286878
0.0322848
0.0363056
0.0407832
0.0458794
0.0516758
0.058506
0.0665111
0.0763812
0.088305
0.103909
0.123134
0.150825
0.184085
0.23743
0.510221
0.213249
0.0571111
0.0153574
0.0053637
0.00311859
0.00205792
0.0016227
0.00131851
0.0011725
0.00108819
0.00107585
0.00110489
0.00117772
0.00128517
0.00142976
0.00161028
0.00182938
0.00208825
0.00238923
0.00273394
0.00312414
0.00356118
0.00404639
0.00458104
0.00516663
0.00580469
0.00649665
0.00724355
0.00804614
0.00890447
0.00981789
0.0107849
0.0118004
0.0128579
0.0139505
0.0150696
0.0162053
0.0173459
0.0184793
0.0195965
0.0206697
0.0217337
0.0231552
0.0255488
0.0283238
0.0313749
0.0347152
0.0383888
0.042478
0.0471088
0.0524263
0.0587223
0.0662043
0.0755666
0.0870477
0.102347
0.121737
0.148647
0.18178
0.437373
0.197245
0.0617383
0.0177425
0.00586844
0.00289307
0.00175317
0.00130504
0.00104087
0.000921808
0.000867918
0.000875918
0.000922306
0.0010065
0.00112256
0.00127258
0.0014568
0.00167798
0.00193803
0.00223957
0.00258475
0.00297573
0.0034144
0.00390263
0.00444223
0.00503514
0.00568331
0.00638851
0.00715202
0.00797478
0.00885697
0.00979727
0.0107934
0.0118409
0.012934
0.0140661
0.0152295
0.0164154
0.0176137
0.0188149
0.020009
0.0211637
0.022319
0.0237557
0.025905
0.0283484
0.0309979
0.0338458
0.0369403
0.0403181
0.0441203
0.0483921
0.0534746
0.0593429
0.0668541
0.0756406
0.0879753
0.102248
0.124077
0.145762
0.390905
0.185658
0.0660577
0.0207412
0.006839
0.00298449
0.00163813
0.00113376
0.00087694
0.00076813
0.000730648
0.00075097
0.000808916
0.000901872
0.00102569
0.0011822
0.00137253
0.00159962
0.00186589
0.00217428
0.00252738
0.00292774
0.00337769
0.00387946
0.0044352
0.00504708
0.00571725
0.00644756
0.00723933
0.00809348
0.00900992
0.00998604
0.0110195
0.012106
0.0132399
0.0144146
0.0156226
0.0168561
0.0181057
0.0193637
0.0206142
0.0218287
0.0230482
0.0244861
0.0264485
0.0286358
0.0309765
0.0334511
0.0361084
0.038959
0.0421459
0.0456604
0.0498496
0.0545773
0.0607198
0.0676593
0.0777438
0.0886794
0.106502
0.121405
0.360498
0.177122
0.0699514
0.0241404
0.00822571
0.00335299
0.00168066
0.00107224
0.000794614
0.000682004
0.000650682
0.000677696
0.00074356
0.000843886
0.000975345
0.00113955
0.00133814
0.00157424
0.00185068
0.0021707
0.00253729
0.00295331
0.00342143
0.00394412
0.00452373
0.00516252
0.00586269
0.0066261
0.00745392
0.008347
0.00930434
0.0103224
0.0113988
0.0125291
0.0137074
0.014927
0.0161804
0.0174599
0.0187568
0.0200634
0.0213556
0.0226159
0.0238804
0.0253104
0.0271244
0.029107
0.0312009
0.0333808
0.0356947
0.0381379
0.0408496
0.0437924
0.0473018
0.0511906
0.056298
0.0619194
0.0702881
0.0789445
0.0936581
0.104374
0.340228
0.170763
0.0733478
0.02775
0.00998262
0.00397859
0.00187238
0.00110317
0.000776874
0.000647075
0.000613457
0.000642762
0.00071405
0.000820985
0.000960343
0.00113344
0.0013422
0.0015899
0.00187971
0.00221515
0.00259952
0.00303598
0.0035274
0.00407646
0.00468557
0.00535699
0.00609291
0.0068951
0.00776453
0.00870198
0.00970469
0.010769
0.0118923
0.0130697
0.014295
0.0155612
0.0168601
0.0181846
0.0195259
0.0208718
0.022197
0.0234927
0.0247878
0.0262032
0.0278955
0.029709
0.0315992
0.0335383
0.0355729
0.0376895
0.0400215
0.0425167
0.0454924
0.0487413
0.0530478
0.0576936
0.0647411
0.0717777
0.0840935
0.0921139
0.326536
0.166004
0.0762217
0.0313979
0.0120561
0.00485364
0.00221361
0.00122191
0.000816205
0.000655004
0.000611091
0.000638716
0.000713433
0.000826484
0.000974129
0.00115725
0.00137788
0.00163942
0.00194526
0.00229922
0.00270484
0.00316551
0.00368428
0.0042639
0.00490681
0.00561519
0.00639117
0.00723641
0.00815162
0.00913742
0.0101886
0.0113023
0.0124753
0.0137021
0.014976
0.0162894
0.0176339
0.019002
0.0203842
0.0217604
0.023113
0.0244354
0.0257499
0.0271454
0.0287345
0.0304045
0.0321217
0.033858
0.0356584
0.0375049
0.0395241
0.0416571
0.044202
0.0469466
0.0506186
0.0545185
0.0605339
0.0663773
0.0768384
0.0830476
0.317206
0.162446
0.0785872
0.0349344
0.014379
0.00597298
0.00270775
0.00143326
0.000911653
0.000702689
0.000639948
0.000661769
0.000737991
0.000856696
0.00101302
0.00120722
0.00144123
0.00171857
0.00204276
0.00241785
0.00284762
0.00333562
0.00388499
0.00449854
0.00517866
0.00592743
0.00674683
0.00763845
0.0086026
0.00963931
0.0107415
0.0119067
0.0131312
0.0144087
0.015732
0.0170929
0.0184821
0.0198922
0.0213089
0.0227099
0.0240848
0.0254264
0.0267509
0.0281221
0.029621
0.0311659
0.0327323
0.0342932
0.0358922
0.0375088
0.0392636
0.041095
0.0432831
0.0456185
0.0487767
0.0520888
0.0572846
0.06222
0.0712324
0.0761718
0.310816
0.159806
0.0804882
0.0382381
0.0168704
0.00732499
0.00336135
0.00174623
0.0010674
0.000790825
0.000699335
0.000710602
0.000786163
0.000909927
0.00107522
0.00128145
0.00153023
0.00182511
0.00216969
0.0025682
0.0030246
0.00354255
0.00412526
0.00477552
0.00549566
0.00628754
0.00715305
0.00809364
0.0091092
0.0101985
0.0113534
0.0125716
0.0138485
0.0151773
0.01655
0.0179578
0.0193905
0.0208393
0.022283
0.0237055
0.0250977
0.0264516
0.027778
0.0291209
0.0305386
0.0319717
0.0334038
0.0348094
0.036231
0.0376475
0.0391734
0.0407474
0.0426332
0.044628
0.047361
0.0501975
0.0547306
0.0589546
0.0668199
0.0708326
0.306431
0.157877
0.0819865
0.0412212
0.0194389
0.00888687
0.00418245
0.00216886
0.00129227
0.000923259
0.00079087
0.000785753
0.000857967
0.000985924
0.00116034
0.0013794
0.00164418
0.00195819
0.00232498
0.00274895
0.00323415
0.00378433
0.0044027
0.00509202
0.00585447
0.00669172
0.00760546
0.00859706
0.00966594
0.0108088
0.0120174
0.0132892
0.0146189
0.0159989
0.0174202
0.0188737
0.0203479
0.0218284
0.0232951
0.0247353
0.0261396
0.0274993
0.0288202
0.0301309
0.0314734
0.0328046
0.0341144
0.0353798
0.0366421
0.0378805
0.0392045
0.0405541
0.0421786
0.0438834
0.0462576
0.0487002
0.0526879
0.05634
0.063282
0.0665934
0.303426
0.156499
0.0831519
0.0438308
0.0219899
0.0106219
0.00517415
0.00271045
0.00159689
0.00110679
0.000918215
0.000889321
0.000954701
0.00108557
0.00126902
0.00150157
0.00178345
0.00211802
0.00250867
0.0029599
0.00347583
0.00406023
0.00471627
0.00544661
0.00625329
0.00713769
0.00810133
0.0091455
0.0102691
0.0114658
0.0127286
0.014054
0.0154362
0.0168664
0.018335
0.0198323
0.021343
0.0228491
0.0243356
0.0257891
0.0272002
0.0285593
0.0298678
0.0311426
0.0324137
0.0336498
0.0348464
0.0359829
0.0370997
0.038177
0.0393197
0.04047
0.0418646
0.0433178
0.0453838
0.0474933
0.0510243
0.0542063
0.0603926
0.0631559
0.301375
0.155549
0.0840541
0.0460473
0.024434
0.0124795
0.00633123
0.00338113
0.00199015
0.00135127
0.00108706
0.00102486
0.00107881
0.00121073
0.00140279
0.00164929
0.00194921
0.00230564
0.00272164
0.00320176
0.00375013
0.00437047
0.00506589
0.0058389
0.00669137
0.00762434
0.00863912
0.00973696
0.0109156
0.0121664
0.0134832
0.0148617
0.0162952
0.0177743
0.0192881
0.0208256
0.0223653
0.0238938
0.0253959
0.0268581
0.0282704
0.0296225
0.0309122
0.0321471
0.0333488
0.0344946
0.0355846
0.0366008
0.0375828
0.0385121
0.0394896
0.0404603
0.0416498
0.042881
0.0446782
0.0465009
0.0496433
0.0524309
0.0579884
0.0603118
0.299986
0.154932
0.0847573
0.0478791
0.0266945
0.0143977
0.00763739
0.00418728
0.00248227
0.00166648
0.00130521
0.00119743
0.00123383
0.00136417
0.00156401
0.00182468
0.00214339
0.00252282
0.00296548
0.00347593
0.00405823
0.00471601
0.00545225
0.00626928
0.00716874
0.00815133
0.00921812
0.0103704
0.0116035
0.0129083
0.0142783
0.0157087
0.0171921
0.0187178
0.0202741
0.0218435
0.0234086
0.0249554
0.0264685
0.027934
0.0293418
0.0306805
0.031945
0.033136
0.0342689
0.0353277
0.0363159
0.0372182
0.0380738
0.0388655
0.0396907
0.0404974
0.0415015
0.0425342
0.0440937
0.045666
0.0484726
0.0509239
0.0559496
0.0579121
0.299055
0.154568
0.0853167
0.0493557
0.0287138
0.016308
0.00906391
0.00512898
0.00308305
0.00206122
0.00158253
0.00141363
0.00142445
0.00154955
0.00175576
0.00203052
0.00236856
0.00277195
0.00324242
0.00378445
0.00440196
0.00509843
0.00587666
0.00673873
0.00768607
0.00871898
0.00983822
0.0110452
0.0123319
0.0136899
0.0151119
0.0165924
0.0181234
0.0196928
0.0212838
0.0228808
0.024467
0.0260273
0.0275462
0.0290095
0.0304065
0.0317252
0.0329583
0.0341012
0.035165
0.0361384
0.0370283
0.0378217
0.0385574
0.0392199
0.0399035
0.040559
0.0413938
0.0422471
0.043594
0.0449446
0.0474574
0.0496178
0.054187
0.0558483
0.298442
0.154397
0.0857773
0.0505205
0.0304563
0.018142
0.01057
0.00619753
0.003799
0.00254553
0.00192769
0.00168181
0.00165656
0.00177142
0.00198189
0.00227025
0.00262789
0.00305601
0.00355523
0.00412989
0.00478366
0.00551982
0.00634091
0.00724874
0.0082445
0.00932806
0.0104998
0.0117616
0.0131
0.01451
0.0159821
0.0175102
0.019086
0.0206915
0.0223124
0.0239326
0.0255349
0.0271033
0.0286222
0.030077
0.0314568
0.032749
0.0339443
0.0350346
0.0360281
0.0369171
0.037711
0.0383991
0.0390202
0.0395604
0.0401113
0.0406264
0.0413054
0.0419951
0.0431501
0.0443025
0.0465552
0.048461
0.0526332
0.05404
0.298046
0.154368
0.0861738
0.0514238
0.031909
0.019838
0.0121051
0.00737383
0.00463121
0.00312783
0.00234982
0.00201069
0.00193733
0.00203526
0.00224696
0.00254794
0.00292512
0.0033785
0.0039072
0.0045153
0.00520614
0.00598272
0.00684724
0.00780121
0.00884554
0.00997969
0.0112036
0.0125189
0.0139076
0.0153676
0.0168873
0.0184599
0.0200727
0.0217097
0.0233558
0.024994
0.0266067
0.0281773
0.0296899
0.0311297
0.0324854
0.0337442
0.0348955
0.0359286
0.0368498
0.0376542
0.0383536
0.0389394
0.0394503
0.0398741
0.0402997
0.0406837
0.0412185
0.0417581
0.0427385
0.0437125
0.0457326
0.0474136
0.0512362
0.0524263
0.2978
0.154442
0.0865316
0.0521173
0.0330787
0.0213465
0.0136132
0.0086278
0.0055732
0.00381322
0.00285755
0.00240872
0.00227496
0.00234747
0.0025562
0.0028682
0.0032645
0.00374341
0.00430205
0.00494416
0.0056726
0.00649001
0.00739821
0.00839831
0.00949099
0.0106753
0.0119505
0.0133174
0.0147542
0.0162619
0.0178246
0.0194352
0.0210804
0.022744
0.0244098
0.0260601
0.027677
0.0292432
0.0307426
0.0321603
0.0334848
0.0347031
0.035804
0.0367752
0.0376216
0.0383409
0.0389465
0.0394322
0.0398366
0.040149
0.0404561
0.0407172
0.0411179
0.0415193
0.0423401
0.0431524
0.0449629
0.0464439
0.0499559
0.0509604
0.297654
0.154587
0.0868679
0.0526497
0.0339878
0.0226344
0.0150382
0.00991946
0.00660932
0.00460157
0.00345737
0.00288394
0.00267743
0.00271556
0.00291549
0.00323614
0.00365069
0.00415509
0.00474387
0.00542028
0.00618654
0.00704487
0.00799663
0.00904246
0.0101828
0.0114164
0.0127418
0.0141573
0.0156398
0.0171889
0.0187899
0.0204337
0.0221062
0.0237907
0.02547
0.0271259
0.02874
0.0302947
0.0317735
0.0331616
0.0344475
0.0356183
0.0366623
0.0375665
0.0383353
0.0389682
0.0394804
0.0398678
0.0401688
0.0403745
0.0405692
0.0407147
0.0409907
0.0412645
0.0419389
0.0426043
0.0442247
0.0455269
0.0487603
0.0496061
0.297576
0.154779
0.0871933
0.0530638
0.0346697
0.0236863
0.0163296
0.0112017
0.00771397
0.00548563
0.00415198
0.00344283
0.00315185
0.00314671
0.00333212
0.00365718
0.00408862
0.00461813
0.00523696
0.00594766
0.00675166
0.00765065
0.00864544
0.00973618
0.0109231
0.0122046
0.0135785
0.0150368
0.0165606
0.0181469
0.0197813
0.0214528
0.0231467
0.0248457
0.0265318
0.0281861
0.0297899
0.0313252
0.0327756
0.0341264
0.035366
0.0364818
0.0374624
0.0382945
0.0389826
0.0395277
0.0399466
0.040237
0.0404375
0.0405406
0.0406286
0.0406657
0.0408254
0.0409816
0.0415212
0.0420531
0.0435003
0.0446424
0.0476243
0.0483346
0.297541
0.155
0.0875136
0.0533958
0.0351632
0.0245041
0.0174473
0.0124245
0.00885217
0.00644962
0.00493857
0.00408896
0.00370399
0.00364685
0.00381186
0.00413798
0.00458426
0.00513715
0.00578567
0.00653037
0.0073717
0.0083107
0.0093476
0.0104819
0.011713
0.0130392
0.014458
0.015955
0.0175156
0.0191341
0.0207963
0.0224896
0.0241983
0.0259047
0.02759
0.029235
0.0308204
0.0323281
0.0337418
0.0350469
0.0362322
0.0372857
0.0381963
0.0389513
0.0395552
0.0400108
0.0403362
0.040531
0.0406337
0.0406384
0.040625
0.0405605
0.0406121
0.0406598
0.0410758
0.0414862
0.0427752
0.0437737
0.0465275
0.0471231
0.297533
0.155235
0.0878311
0.0536739
0.0355089
0.0251038
0.0183657
0.0135397
0.00998167
0.00746852
0.00580714
0.00482142
0.00433713
0.00422054
0.00435933
0.00468289
0.00514206
0.00571725
0.00639461
0.00717243
0.00804996
0.00902752
0.0101047
0.0112803
0.0125529
0.0139209
0.0153796
0.0169112
0.0185033
0.0201486
0.0218322
0.0235404
0.0252568
0.0269628
0.0286393
0.0302663
0.0318247
0.0332961
0.0346643
0.0359152
0.0370382
0.0380217
0.0388558
0.0395285
0.0400449
0.0404093
0.0406408
0.0407413
0.0407488
0.0406592
0.04055
0.0403905
0.0403418
0.0402902
0.0405927
0.040893
0.0420374
0.0429075
0.0454536
0.0459533
0.297542
0.155474
0.0881457
0.0539194
0.035745
0.0255124
0.0190745
0.0145066
0.0110564
0.00850864
0.00673937
0.00563321
0.00505061
0.00486991
0.00497754
0.00529507
0.00576514
0.00636148
0.0070667
0.00787654
0.00878887
0.00980318
0.0109183
0.0121325
0.0134434
0.0148497
0.0163427
0.0179038
0.0195218
0.0211874
0.0228855
0.0246012
0.0263172
0.0280145
0.0296732
0.0312734
0.0327955
0.0342213
0.0355351
0.0367231
0.0377754
0.0386815
0.0394325
0.0400178
0.0404433
0.0407147
0.0408523
0.0408597
0.0407749
0.0405951
0.0403956
0.0401478
0.0400066
0.0398645
0.0400635
0.0402646
0.041277
0.0420325
0.0443893
0.0448105
0.29756
0.155711
0.0884561
0.0541475
0.0359053
0.0257629
0.0195785
0.0152954
0.0120309
0.00952952
0.00770825
0.0065099
0.00583837
0.00559339
0.00566687
0.00597567
0.00645499
0.00707149
0.00780366
0.00864439
0.00958994
0.0106389
0.0117893
0.0130388
0.0143843
0.0158252
0.0173459
0.0189307
0.0205681
0.022247
0.023952
0.0256669
0.0273739
0.0290533
0.030685
0.0322487
0.0337249
0.0350956
0.0363455
0.0374617
0.038435
0.0392562
0.0399178
0.0404109
0.0407421
0.0409189
0.0409626
0.0408785
0.0407044
0.0404389
0.0401546
0.0398254
0.0395996
0.0393757
0.0394808
0.0395934
0.0404855
0.0411396
0.0433235
0.0436824
0.297582
0.15594
0.0887603
0.0543679
0.036018
0.0258909
0.0198953
0.0158906
0.0128655
0.0104872
0.0086789
0.00742887
0.00668767
0.0063844
0.00642396
0.00672288
0.00721063
0.00784682
0.0086054
0.00947602
0.0104532
0.0115345
0.0127173
0.0139984
0.0153743
0.0168442
0.0183866
0.0199887
0.0216382
0.0233227
0.0250261
0.0267314
0.0284201
0.0300721
0.0316668
0.033184
0.0346042
0.0359099
0.0370864
0.0381218
0.0390078
0.0397368
0.0403029
0.040699
0.0409331
0.041014
0.0409641
0.0407903
0.0405301
0.0401836
0.0398206
0.039417
0.0391146
0.0388179
0.0388387
0.0388729
0.039656
0.0402213
0.0422476
0.0425592
0.297606
0.156158
0.0890563
0.0545863
0.0361053
0.0259308
0.0200516
0.0162909
0.0135301
0.0113384
0.00961069
0.00835945
0.00757809
0.00723012
0.00724051
0.00753088
0.00802767
0.00868407
0.00946919
0.0103692
0.0113767
0.0124881
0.0137001
0.0150089
0.0164107
0.0179029
0.0194607
0.0210731
0.0227268
0.0244085
0.0261013
0.0277876
0.029448
0.0310623
0.0326097
0.0340699
0.0354239
0.0366545
0.037748
0.0386935
0.0394842
0.0401139
0.0405787
0.0408736
0.0410079
0.0409921
0.0408492
0.040588
0.0402455
0.039823
0.0393875
0.0389169
0.0385461
0.0381856
0.0381317
0.038098
0.0387829
0.0392714
0.0411543
0.0414331
0.297629
0.156365
0.0893421
0.0548054
0.0361834
0.0259136
0.0200796
0.0165089
0.0140079
0.0120456
0.0104606
0.00926426
0.00848146
0.00811059
0.00810222
0.00838879
0.00889733
0.00957592
0.0103889
0.0113185
0.0123555
0.0134952
0.0147334
0.0160658
0.0174889
0.018996
0.0205625
0.0221774
0.023827
0.0254968
0.0271695
0.0288266
0.0304485
0.0320145
0.0335038
0.0348963
0.0361734
0.0373188
0.0383198
0.0391667
0.0398541
0.0403779
0.040736
0.040926
0.0409584
0.0408454
0.0406108
0.040265
0.0398444
0.0393514
0.0388501
0.0383203
0.0378896
0.0374745
0.0373555
0.0372641
0.0378615
0.038285
0.0400378
0.0402974
0.29765
0.156558
0.0896164
0.0550259
0.0362633
0.0258654
0.0200128
0.0165673
0.0142961
0.0125807
0.0111877
0.0101018
0.00936265
0.00899845
0.00898802
0.00927978
0.00980553
0.0105102
0.0113538
0.0123148
0.0133815
0.014548
0.0158098
0.0171619
0.0186016
0.0201162
0.0216839
0.0232933
0.0249299
0.0265783
0.0282208
0.0298384
0.0314108
0.0329175
0.0343377
0.0356516
0.0368414
0.0378916
0.0387906
0.0395303
0.0401071
0.0405187
0.0407655
0.0408474
0.0407766
0.0405666
0.0402423
0.0398153
0.0393214
0.038764
0.038204
0.037623
0.0371412
0.036681
0.0365067
0.0363679
0.0368882
0.0372581
0.0388938
0.039147
0.297669
0.156739
0.0898782
0.0552472
0.0363517
0.0258066
0.0198834
0.0164962
0.0144054
0.0129285
0.0117574
0.0108303
0.0101817
0.00985962
0.0098699
0.0101805
0.0107321
0.0114693
0.0123483
0.0133438
0.0144416
0.0156348
0.0169182
0.0182866
0.0197377
0.0212527
0.0228144
0.0244098
0.0260243
0.0276415
0.0292434
0.0308106
0.0323227
0.0337589
0.0350989
0.0363234
0.0374153
0.0383604
0.0391484
0.039773
0.0402323
0.0405264
0.0406579
0.0406294
0.0404547
0.0401489
0.0397374
0.0392333
0.0386715
0.0380564
0.0374453
0.0368217
0.036298
0.0358024
0.0355826
0.0354067
0.0358605
0.0361879
0.0377188
0.0379778
0.297685
0.156907
0.0901271
0.0554679
0.0364519
0.0257523
0.0197197
0.0163288
0.014358
0.0130881
0.0121457
0.0114118
0.0108969
0.010655
0.0107135
0.011061
0.0116505
0.0124291
0.0133505
0.0143858
0.0155181
0.0167392
0.0180434
0.0194253
0.0208822
0.022392
0.0239401
0.0255133
0.0270963
0.0286724
0.0302233
0.0317291
0.0331697
0.0345244
0.0357732
0.0368977
0.0378816
0.0387122
0.0393809
0.039883
0.0402189
0.0403908
0.040404
0.0402638
0.0399855
0.0395857
0.0390905
0.0385143
0.0378908
0.0372252
0.0365713
0.035914
0.0353577
0.0348367
0.0345815
0.034379
0.0347764
0.0350725
0.0365103
0.0367868
0.297699
0.157063
0.0903628
0.0556866
0.0365649
0.0257124
0.019545
0.0160978
0.0141836
0.0130721
0.0123424
0.011817
0.0114692
0.0113436
0.01148
0.0118857
0.0125281
0.0133594
0.0143326
0.015415
0.0165872
0.0178391
0.0191649
0.0205588
0.0220168
0.0235161
0.0250439
0.0265867
0.0281292
0.0296544
0.0311438
0.0325777
0.0339358
0.0351981
0.0363451
0.0373592
0.0382257
0.0389331
0.0394747
0.039848
0.0400554
0.0401017
0.0399948
0.0397425
0.039362
0.0388714
0.038297
0.0376544
0.0369761
0.036268
0.0355799
0.0348983
0.0343193
0.033783
0.0335026
0.0332837
0.0336352
0.0339105
0.0352668
0.0355718
0.297711
0.157208
0.0905856
0.0559017
0.0366898
0.0256926
0.019377
0.0158332
0.013916
0.0129046
0.0123512
0.0120288
0.0118663
0.0118858
0.0121286
0.012615
0.0133272
0.0142244
0.0152604
0.0163993
0.0176187
0.0189067
0.0202566
0.0216627
0.0231187
0.0246032
0.0261046
0.0276095
0.0291029
0.0305678
0.0319858
0.0333374
0.0346027
0.0357622
0.0367974
0.0376917
0.038432
0.0390085
0.0394165
0.0396556
0.0397307
0.0396493
0.0394216
0.0390583
0.0385783
0.038001
0.037353
0.0366507
0.0359254
0.0351834
0.0344703
0.0337742
0.0331825
0.0326412
0.0323459
0.0321211
0.0324367
0.0327018
0.0339877
0.0343315
0.29772
0.157344
0.0907961
0.056112
0.0368249
0.0256954
0.0192282
0.0155599
0.013589
0.0126172
0.0121897
0.0120443
0.012067
0.0122485
0.0126201
0.0132082
0.014007
0.0149839
0.0160945
0.0173009
0.0185768
0.0199079
0.0212866
0.022707
0.0241599
0.0256266
0.0270966
0.0285573
0.0299939
0.0313899
0.0327273
0.0339871
0.03515
0.0361972
0.0371114
0.0378776
0.038484
0.0389231
0.0391922
0.0392934
0.039234
0.039024
0.0386766
0.0382049
0.0376295
0.0369708
0.0362559
0.0355018
0.0347379
0.0339712
0.0332429
0.0325424
0.0319482
0.0314124
0.0311124
0.0308919
0.0311818
0.0314469
0.032673
0.0330652
0.297728
0.15747
0.0909948
0.0563164
0.0369679
0.0257208
0.0191061
0.0152974
0.0132335
0.0122452
0.0118862
0.0118755
0.0120641
0.0124087
0.0129216
0.0136269
0.0145265
0.0155954
0.0167924
0.0180772
0.01942
0.0208032
0.0222174
0.0236562
0.025107
0.0265548
0.0279902
0.0294016
0.0307752
0.032095
0.0333437
0.0345033
0.0355552
0.0364819
0.0372674
0.0378983
0.0383648
0.0386614
0.038788
0.0387492
0.0385547
0.0382174
0.0377529
0.037177
0.0365116
0.0357786
0.0350047
0.0342073
0.0334144
0.0326329
0.0318995
0.0312049
0.0306187
0.0300986
0.0298042
0.0295982
0.0298723
0.030147
0.0313238
0.031773
0.297734
0.157588
0.0911825
0.0565142
0.0371165
0.0257671
0.0190143
0.0150595
0.0128755
0.0118236
0.0114756
0.011547
0.0118656
0.0123572
0.0130104
0.0138395
0.0148484
0.0160181
0.0173104
0.0186835
0.0201035
0.0215485
0.0230064
0.0244697
0.0259217
0.0273516
0.0287512
0.0301102
0.0314161
0.032654
0.0338077
0.0348602
0.0357943
0.0365938
0.0372444
0.0377346
0.0380569
0.0382081
0.0381905
0.0380116
0.0376835
0.037222
0.0366449
0.0359708
0.0352228
0.0344237
0.0335999
0.0327692
0.0319574
0.0311714
0.0304434
0.0297653
0.0291974
0.0287034
0.0284247
0.0282427
0.0285106
0.0288044
0.0299416
0.030456
0.297738
0.157698
0.0913601
0.0567051
0.0372685
0.0258318
0.0189536
0.0148548
0.0125353
0.0113842
0.0109957
0.011093
0.0114938
0.0121004
0.0128776
0.0138249
0.0149431
0.0162158
0.0176077
0.0190756
0.020581
0.022097
0.0236075
0.0251028
0.0265618
0.0279769
0.0293417
0.0306475
0.0318831
0.0330354
0.0340897
0.0350302
0.0358415
0.0365092
0.0370209
0.0373673
0.0375432
0.0375481
0.0373871
0.0370702
0.0366124
0.0360319
0.0353491
0.0345848
0.0337631
0.0329077
0.0320445
0.031191
0.0303712
0.0295916
0.0288798
0.0282286
0.0276894
0.0272314
0.026978
0.0268296
0.0271005
0.027422
0.0285291
0.0291155
0.297742
0.157802
0.0915283
0.0568889
0.037422
0.0259118
0.0189224
0.0146876
0.012227
0.010953
0.0104826
0.0105529
0.0109825
0.0116598
0.0125302
0.0135769
0.014793
0.0161621
0.0176504
0.0192136
0.0208086
0.0224024
0.0239736
0.0255088
0.026982
0.0283877
0.029721
0.0309749
0.0321403
0.0332058
0.0341585
0.0349846
0.0356707
0.0362043
0.0365755
0.0367773
0.0368074
0.0366679
0.0363667
0.0359167
0.0353355
0.0346438
0.0338643
0.0330197
0.0321352
0.0312348
0.0303437
0.0294792
0.0286628
0.0279007
0.0272159
0.0266018
0.0261013
0.0256888
0.0254701
0.0253638
0.0256466
0.0260037
0.0270896
0.0277539
0.297744
0.157901
0.091688
0.0570655
0.0375754
0.0260039
0.0189179
0.0145585
0.0119592
0.01055
0.00996784
0.00996644
0.0103722
0.0110697
0.0119911
0.0131052
0.0143959
0.0158441
0.0174162
0.019067
0.0207491
0.0224227
0.0240597
0.0256416
0.027137
0.02854
0.0298471
0.031053
0.0321506
0.0331307
0.0339825
0.0346945
0.0352555
0.0356558
0.0358877
0.0359472
0.0358348
0.0355557
0.0351206
0.0345452
0.0338497
0.0330572
0.0321924
0.0312798
0.030345
0.0294124
0.0285061
0.0276429
0.0268417
0.0261083
0.0254609
0.024894
0.0244415
0.0240833
0.0239079
0.0238517
0.0241545
0.0245542
0.025627
0.026374
0.297746
0.157994
0.09184
0.0572353
0.0377274
0.0261053
0.0189367
0.0144661
0.0117357
0.0101885
0.0094767
0.00936992
0.00970612
0.0103728
0.0112966
0.0124361
0.0137668
0.0152654
0.0168981
0.0186188
0.0203765
0.0221246
0.0238274
0.0254597
0.026984
0.0283916
0.0296791
0.0308429
0.0318776
0.0327764
0.0335308
0.0341319
0.0345713
0.0348419
0.0349391
0.0348619
0.0346137
0.034203
0.0336434
0.0329534
0.0321557
0.0312755
0.0303393
0.0293729
0.0284023
0.0274516
0.0265436
0.0256945
0.0249205
0.0242267
0.023627
0.0231163
0.0227205
0.0224245
0.0223
0.0223009
0.0226308
0.0230794
0.0241464
0.0249796
0.297747
0.158082
0.0919851
0.0573984
0.0378771
0.0262134
0.0189748
0.014407
0.011557
0.00987576
0.00902715
0.00879343
0.00902458
0.00961526
0.0104926
0.0116103
0.0129377
0.0144483
0.0161077
0.0178699
0.0196812
0.0214891
0.0232499
0.0249305
0.0264874
0.0279055
0.0291805
0.0303092
0.031288
0.032112
0.0327754
0.033272
0.0335964
0.0337445
0.0337149
0.0335099
0.0331363
0.0326055
0.0319343
0.0311437
0.030259
0.029307
0.0283158
0.0273118
0.0263213
0.0253677
0.0244725
0.0236504
0.0229154
0.0222717
0.0217288
0.0212825
0.0209509
0.0207236
0.0206567
0.0207202
0.0210837
0.0215858
0.0226534
0.0235749
0.297748
0.158167
0.092124
0.0575554
0.038024
0.0263259
0.0190287
0.0143773
0.0114208
0.00961463
0.00863032
0.0082594
0.00836209
0.00884139
0.00962884
0.0106777
0.0119551
0.0134326
0.0150763
0.0168413
0.0186733
0.0205156
0.0223169
0.0240359
0.0256233
0.0270546
0.0283227
0.0294237
0.0303546
0.0311125
0.0316938
0.0320953
0.0323145
0.0323507
0.0322059
0.0318858
0.0314006
0.0307649
0.0299984
0.0291248
0.0281711
0.027166
0.0261383
0.025115
0.0241218
0.0231814
0.0223133
0.0215312
0.0208463
0.020262
0.0197842
0.019409
0.0191475
0.0189939
0.0189897
0.01912
0.019522
0.0200811
0.0211547
0.0221651
0.297749
0.158249
0.0922575
0.0577065
0.0381675
0.0264411
0.0190948
0.0143725
0.0113231
0.00940413
0.00829137
0.00778241
0.00774497
0.00808951
0.00875331
0.00969249
0.0108748
0.0122723
0.013853
0.015575
0.0173854
0.0192259
0.0210396
0.0227773
0.0243851
0.0258267
0.0270902
0.0281692
0.0290605
0.0297619
0.030272
0.0305902
0.0307171
0.0306554
0.0304105
0.0299916
0.0294123
0.0286905
0.0278485
0.0269124
0.0259109
0.0248737
0.0238301
0.0228071
0.0218294
0.0209185
0.020092
0.019362
0.0187373
0.0182205
0.017814
0.0175148
0.0173276
0.0172508
0.0173125
0.017512
0.0179561
0.0185739
0.0196578
0.0207558
0.297749
0.158328
0.0923862
0.0578524
0.0383075
0.0265575
0.0191704
0.0143883
0.0112592
0.00924083
0.00801079
0.00736999
0.00719084
0.00738922
0.00790771
0.00870637
0.00975562
0.01103
0.012501
0.0141312
0.0158718
0.0176657