/*--------------------------------*- C++ -*----------------------------------*\
| =========                 |                                                 |
| \\      /  F ield         | OpenFOAM: The Open Source CFD Toolbox           |
|  \\    /   O peration     | Version:  2.4.0                                 |
|   \\  /    A nd           | Web:      www.OpenFOAM.org                      |
|    \\/     M anipulation  |                                                 |
\*---------------------------------------------------------------------------*/
FoamFile
{
    version     2.0;
    format      ascii;
    class       volScalarField;
    location    "0.6";
    object      k;
}
// * * * * * * * * * * * * * * * * * * * * * * * * * * * * * * * * * * * * * //

dimensions      [0 2 -2 0 0 0 0];

internalField   nonuniform List<scalar> 
6000
(
0.00510096
0.00645279
0.00771268
0.00881052
0.00970874
0.0103982
0.0108902
0.0112091
0.0113856
0.0114509
0.011434
0.0113597
0.0112478
0.011114
0.0109698
0.0108238
0.0106818
0.0105476
0.0104237
0.0103111
0.0102102
0.0101204
0.0100408
0.00997001
0.00990643
0.00984852
0.00979487
0.00974429
0.00969592
0.00964916
0.00960368
0.0095593
0.00951593
0.00947356
0.00943219
0.00939183
0.00935251
0.00931426
0.00927711
0.00924105
0.00920597
0.00917165
0.00913765
0.00910326
0.0090674
0.00902859
0.00898486
0.00893371
0.00887194
0.00879559
0.00869966
0.00857782
0.00842198
0.00822157
0.00796344
0.00762879
0.00720188
0.00664366
0.00601335
0.00512455
0.0035494
0.00344488
0.00340553
0.00341541
0.00345867
0.00352241
0.00359885
0.00368414
0.00377667
0.00387624
0.00398333
0.00409868
0.0042229
0.00435623
0.00449845
0.00464881
0.00480599
0.00496821
0.00513322
0.00529846
0.0054612
0.00561873
0.00576856
0.00590856
0.00603715
0.00615327
0.0062564
0.00634645
0.00642364
0.00648841
0.00654131
0.00658293
0.00661391
0.0066349
0.00664653
0.00664943
0.00664426
0.00663172
0.00661265
0.00658814
0.00655954
0.00652857
0.00649725
0.00646783
0.00644263
0.00642394
0.00641394
0.00641467
0.00642818
0.0064568
0.00650357
0.00657287
0.00667136
0.0068096
0.00700445
0.00728409
0.00769458
0.00831703
0.0092427
0.011426
0.00348321
0.00325648
0.00306425
0.00290018
0.00275854
0.00263419
0.00252332
0.00242364
0.00233402
0.0022541
0.00218401
0.0021241
0.00207482
0.00203657
0.0020097
0.00199442
0.00199083
0.00199891
0.00201846
0.00204917
0.00209053
0.00214189
0.00220238
0.00227097
0.00234645
0.00242746
0.00251257
0.0026003
0.00268918
0.0027778
0.00286483
0.00294907
0.00302943
0.00310494
0.00317481
0.00323836
0.00329504
0.00334443
0.00338624
0.00342028
0.00344656
0.00346532
0.00347715
0.00348303
0.00348439
0.00348307
0.00348122
0.00348125
0.00348568
0.00349724
0.003519
0.0035548
0.00361006
0.00369321
0.00381813
0.00400916
0.00430991
0.00480363
0.00563821
0.00742923
0.00347969
0.00324256
0.00303442
0.00285067
0.00268758
0.00254191
0.00241089
0.0022922
0.00218399
0.0020848
0.00199351
0.00190928
0.00183153
0.00175982
0.00169387
0.00163348
0.00157855
0.00152901
0.00148484
0.00144603
0.00141259
0.00138453
0.00136182
0.00134441
0.0013322
0.00132504
0.00132268
0.00132482
0.00133107
0.00134101
0.00135415
0.00136994
0.00138786
0.00140735
0.00142787
0.00144891
0.00146996
0.00149055
0.00151022
0.00152855
0.00154512
0.00155964
0.00157195
0.00158212
0.0015905
0.00159776
0.0016049
0.00161321
0.00162426
0.00163991
0.0016624
0.00169458
0.00174034
0.0018054
0.00189887
0.00203596
0.00224502
0.00257746
0.00315504
0.00426732
0.00347951
0.00324163
0.00303199
0.00284603
0.00268015
0.00253139
0.00239731
0.00227586
0.00216532
0.00206426
0.00197147
0.00188596
0.00180687
0.00173352
0.00166531
0.00160177
0.00154249
0.00148714
0.00143545
0.00138717
0.00134214
0.00130017
0.00126115
0.00122495
0.00119147
0.00116063
0.00113232
0.00110645
0.00108293
0.00106163
0.00104246
0.00102528
0.00100997
0.00099641
0.000984485
0.000974084
0.000965105
0.000957454
0.000951037
0.000945762
0.000941529
0.000938245
0.000935827
0.000934227
0.000933448
0.000933575
0.000934791
0.000937405
0.000941881
0.000948886
0.00095937
0.000974706
0.000996958
0.00102934
0.00107716
0.00114945
0.00126353
0.00145025
0.00179103
0.00242671
0.0034795
0.00324152
0.00303169
0.00284546
0.00267923
0.00253007
0.00239557
0.00227374
0.00216291
0.00206168
0.00196888
0.0018835
0.00180468
0.00173171
0.00166394
0.00160084
0.00154195
0.00148686
0.00143524
0.00138677
0.0013412
0.0012983
0.00125787
0.00121975
0.00118376
0.00114979
0.00111772
0.00108742
0.00105882
0.00103182
0.00100636
0.00098235
0.000959751
0.000938515
0.000918608
0.000900009
0.000882709
0.000866707
0.00085201
0.000838625
0.000826561
0.00081582
0.000806398
0.000798284
0.000791461
0.000785913
0.000781633
0.00077864
0.000777
0.000776857
0.000778486
0.000782364
0.000789313
0.000800735
0.000819113
0.000848921
0.000899095
0.000986931
0.00115867
0.00149636
0.00347949
0.00324148
0.00303159
0.00284531
0.00267901
0.00252977
0.0023952
0.0022733
0.00216243
0.00206119
0.00196842
0.00188313
0.00180446
0.00173169
0.00166418
0.00160139
0.00154286
0.00148816
0.00143694
0.00138887
0.00134368
0.00130112
0.00126097
0.00122305
0.00118718
0.0011532
0.00112099
0.00109043
0.00106141
0.00103384
0.00100765
0.00098277
0.000959154
0.000936764
0.000915574
0.00089557
0.000876752
0.000859127
0.000842706
0.000827506
0.000813543
0.000800829
0.000789368
0.000779157
0.000770181
0.000762414
0.000755824
0.000750376
0.000746045
0.00074283
0.000740779
0.000740035
0.000740892
0.000743924
0.000750204
0.00076176
0.000782651
0.000821571
0.000900587
0.00107059
0.00347949
0.00324145
0.00303152
0.0028452
0.00267887
0.0025296
0.00239499
0.00227306
0.00216217
0.00206092
0.00196815
0.00188288
0.00180424
0.00173152
0.0016641
0.00160142
0.00154301
0.00148846
0.00143741
0.00138954
0.00134456
0.00130222
0.00126231
0.00122461
0.00118896
0.00115521
0.0011232
0.00109282
0.00106396
0.00103653
0.00101044
0.000985633
0.000962053
0.000939662
0.000918434
0.000898354
0.000879418
0.00086163
0.000844999
0.000829537
0.000815256
0.000802164
0.00079026
0.000779539
0.000769983
0.000761564
0.000754245
0.000747983
0.000742732
0.000738457
0.000735146
0.000732831
0.000731631
0.000731809
0.000733888
0.000738873
0.000748642
0.000767527
0.000804422
0.000889421
0.00347949
0.00324143
0.00303147
0.00284512
0.00267876
0.00252946
0.00239482
0.00227288
0.00216196
0.0020607
0.00196792
0.00188264
0.00180401
0.0017313
0.00166389
0.00160123
0.00154285
0.00148835
0.00143735
0.00138954
0.00134463
0.00130237
0.00126255
0.00122495
0.00118941
0.00115576
0.00112387
0.00109361
0.00106487
0.00103755
0.00101158
0.000986889
0.000963418
0.000941132
0.000920001
0.000900009
0.000881152
0.00086343
0.00084685
0.000831421
0.000817153
0.000804049
0.000792108
0.00078132
0.000771663
0.000763109
0.000755619
0.000749147
0.000743645
0.00073907
0.000735392
0.000732615
0.000730798
0.000730102
0.000730848
0.000733653
0.00073955
0.000750969
0.000771093
0.000816755
0.00347949
0.00324142
0.00303143
0.00284505
0.00267866
0.00252934
0.00239469
0.00227272
0.00216179
0.00206051
0.00196772
0.00188243
0.00180379
0.00173108
0.00166366
0.00160101
0.00154264
0.00148814
0.00143715
0.00138936
0.00134447
0.00130224
0.00126244
0.00122487
0.00118937
0.00115576
0.00112391
0.00109369
0.001065
0.00103774
0.00101182
0.000987185
0.000963773
0.000941545
0.000920474
0.000900542
0.000881744
0.000864079
0.000847554
0.000832176
0.000817954
0.000804889
0.000792979
0.000782211
0.000772565
0.000764009
0.000756504
0.000750002
0.000744456
0.000739821
0.000736063
0.00073318
0.000731212
0.000730285
0.00073065
0.000732774
0.000737378
0.000746081
0.000760073
0.000788759
0.00347949
0.00324141
0.0030314
0.002845
0.00267859
0.00252924
0.00239457
0.00227258
0.00216164
0.00206035
0.00196755
0.00188225
0.0018036
0.00173088
0.00166346
0.00160081
0.00154243
0.00148794
0.00143695
0.00138916
0.00134427
0.00130204
0.00126225
0.0012247
0.0011892
0.0011556
0.00112377
0.00109357
0.00106489
0.00103765
0.00101175
0.000987134
0.000963745
0.000941542
0.000920497
0.000900593
0.000881824
0.000864188
0.000847693
0.000832346
0.000818154
0.000805118
0.000793236
0.000782494
0.00077287
0.000764333
0.000756843
0.000750352
0.000744811
0.000740177
0.000736415
0.000733519
0.000731528
0.000730553
0.000730817
0.000732727
0.00073688
0.000744516
0.000756267
0.000777765
0.00347949
0.0032414
0.00303137
0.00284495
0.00267852
0.00252916
0.00239447
0.00227247
0.00216151
0.00206021
0.0019674
0.00188209
0.00180344
0.00173071
0.00166329
0.00160063
0.00154225
0.00148775
0.00143677
0.00138897
0.00134409
0.00130186
0.00126207
0.00122451
0.00118902
0.00115543
0.0011236
0.0010934
0.00106473
0.00103749
0.0010116
0.000986994
0.000963614
0.000941421
0.000920387
0.000900495
0.000881738
0.000864117
0.000847638
0.000832307
0.000818132
0.000805114
0.00079325
0.000782526
0.00077292
0.0007644
0.000756925
0.000750448
0.00074492
0.000740295
0.000736542
0.000733652
0.000731662
0.000730678
0.000730909
0.000732731
0.000736681
0.000743791
0.000754568
0.000772744
0.00347949
0.00324139
0.00303135
0.00284491
0.00267847
0.00252909
0.00239438
0.00227237
0.0021614
0.00206009
0.00196727
0.00188195
0.00180329
0.00173056
0.00166314
0.00160047
0.00154209
0.00148759
0.0014366
0.00138881
0.00134392
0.0013017
0.0012619
0.00122435
0.00118886
0.00115527
0.00112344
0.00109324
0.00106457
0.00103734
0.00101145
0.000986845
0.000963469
0.000941281
0.000920252
0.000900366
0.000881617
0.000864004
0.000847534
0.000832213
0.000818049
0.000805043
0.000793191
0.00078248
0.000772888
0.00076438
0.000756918
0.000750452
0.000744934
0.000740319
0.000736573
0.000733689
0.0007317
0.00073071
0.000730919
0.000732679
0.00073649
0.000743245
0.000753424
0.000769707
0.00347948
0.00324138
0.00303134
0.00284488
0.00267842
0.00252903
0.00239431
0.00227228
0.0021613
0.00205998
0.00196715
0.00188183
0.00180317
0.00173043
0.001663
0.00160033
0.00154196
0.00148745
0.00143646
0.00138867
0.00134378
0.00130155
0.00126176
0.00122421
0.00118871
0.00115512
0.00112329
0.0010931
0.00106443
0.0010372
0.00101131
0.000986709
0.000963335
0.00094115
0.000920125
0.000900244
0.000881499
0.000863892
0.000847428
0.000832115
0.000817959
0.000804963
0.00079312
0.00078242
0.000772837
0.000764341
0.000756888
0.000750432
0.000744922
0.000740314
0.000736573
0.000733692
0.000731703
0.000730705
0.00073089
0.000732591
0.000736278
0.000742736
0.000752427
0.000767353
0.00347948
0.00324138
0.00303132
0.00284486
0.00267838
0.00252897
0.00239424
0.00227221
0.00216122
0.00205989
0.00196706
0.00188173
0.00180306
0.00173032
0.00166288
0.00160021
0.00154183
0.00148733
0.00143634
0.00138854
0.00134365
0.00130142
0.00126163
0.00122408
0.00118859
0.001155
0.00112317
0.00109297
0.00106431
0.00103707
0.00101119
0.000986589
0.000963217
0.000941034
0.000920012
0.000900134
0.000881394
0.000863792
0.000847334
0.000832027
0.000817878
0.000804889
0.000793055
0.000782363
0.000772789
0.000764302
0.000756857
0.000750409
0.000744907
0.000740304
0.000736568
0.000733688
0.000731697
0.000730688
0.000730848
0.000732492
0.000736061
0.000742251
0.000751496
0.000765311
0.00347948
0.00324138
0.00303131
0.00284483
0.00267835
0.00252893
0.00239419
0.00227214
0.00216115
0.00205981
0.00196697
0.00188164
0.00180296
0.00173022
0.00166278
0.00160011
0.00154173
0.00148722
0.00143623
0.00138843
0.00134354
0.00130131
0.00126152
0.00122397
0.00118848
0.00115489
0.00112306
0.00109287
0.0010642
0.00103697
0.00101108
0.000986484
0.000963114
0.000940933
0.000919914
0.000900039
0.000881302
0.000863704
0.000847251
0.00083195
0.000817807
0.000804825
0.000792998
0.000782314
0.000772748
0.000764268
0.000756832
0.00075039
0.000744894
0.000740296
0.000736563
0.000733685
0.00073169
0.000730672
0.000730807
0.000732395
0.000735853
0.000741799
0.000750631
0.000763492
0.00347948
0.00324137
0.0030313
0.00284481
0.00267832
0.00252889
0.00239414
0.00227209
0.00216108
0.00205974
0.0019669
0.00188156
0.00180288
0.00173013
0.00166269
0.00160002
0.00154164
0.00148713
0.00143613
0.00138833
0.00134345
0.00130122
0.00126143
0.00122387
0.00118838
0.00115479
0.00112296
0.00109277
0.00106411
0.00103687
0.00101099
0.000986393
0.000963025
0.000940846
0.000919828
0.000899956
0.000881223
0.000863629
0.00084718
0.000831884
0.000817746
0.00080477
0.00079295
0.000782273
0.000772714
0.000764241
0.000756812
0.000750377
0.000744886
0.000740293
0.000736563
0.000733685
0.000731687
0.000730659
0.000730771
0.000732308
0.000735663
0.000741391
0.000749844
0.00076188
0.00347948
0.00324137
0.00303129
0.0028448
0.00267829
0.00252886
0.0023941
0.00227204
0.00216103
0.00205968
0.00196683
0.00188149
0.00180281
0.00173006
0.00166262
0.00159994
0.00154156
0.00148705
0.00143605
0.00138825
0.00134336
0.00130114
0.00126134
0.00122379
0.0011883
0.00115471
0.00112288
0.00109269
0.00106403
0.00103679
0.00101091
0.000986315
0.000962948
0.000940771
0.000919755
0.000899886
0.000881155
0.000863565
0.00084712
0.000831828
0.000817696
0.000804725
0.000792911
0.000782239
0.000772687
0.000764221
0.000756797
0.000750368
0.000744883
0.000740293
0.000736566
0.000733689
0.000731688
0.00073065
0.000730741
0.000732232
0.000735495
0.000741029
0.000749143
0.000760468
0.00347948
0.00324137
0.00303129
0.00284479
0.00267828
0.00252883
0.00239407
0.002272
0.00216098
0.00205963
0.00196678
0.00188143
0.00180275
0.00173
0.00166255
0.00159987
0.00154149
0.00148698
0.00143598
0.00138818
0.00134329
0.00130106
0.00126127
0.00122372
0.00118823
0.00115464
0.00112281
0.00109262
0.00106396
0.00103673
0.00101085
0.000986249
0.000962883
0.000940707
0.000919693
0.000899826
0.000881098
0.000863511
0.000847069
0.000831781
0.000817653
0.000804688
0.000792879
0.000782213
0.000772667
0.000764206
0.000756788
0.000750364
0.000744883
0.000740298
0.000736573
0.000733696
0.000731693
0.000730646
0.000730718
0.000732168
0.00073535
0.000740715
0.000748532
0.000759253
0.00347948
0.00324137
0.00303128
0.00284478
0.00267826
0.00252881
0.00239404
0.00227197
0.00216095
0.00205959
0.00196673
0.00188138
0.0018027
0.00172994
0.0016625
0.00159982
0.00154143
0.00148692
0.00143593
0.00138812
0.00134323
0.00130101
0.00126121
0.00122366
0.00118817
0.00115458
0.00112275
0.00109256
0.0010639
0.00103667
0.00101079
0.000986193
0.000962828
0.000940654
0.000919642
0.000899777
0.000881051
0.000863466
0.000847028
0.000831743
0.00081762
0.000804658
0.000792854
0.000782193
0.000772652
0.000764196
0.000756784
0.000750364
0.000744888
0.000740306
0.000736583
0.000733706
0.000731701
0.000730647
0.000730701
0.000732116
0.000735229
0.00074045
0.000748012
0.000758224
0.00347948
0.00324137
0.00303128
0.00284477
0.00267825
0.00252879
0.00239402
0.00227194
0.00216092
0.00205956
0.0019667
0.00188134
0.00180265
0.0017299
0.00166245
0.00159977
0.00154138
0.00148687
0.00143588
0.00138808
0.00134319
0.00130096
0.00126117
0.00122361
0.00118812
0.00115453
0.0011227
0.00109251
0.00106385
0.00103662
0.00101074
0.000986148
0.000962784
0.000940611
0.0009196
0.000899737
0.000881013
0.000863431
0.000846995
0.000831714
0.000817593
0.000804635
0.000792835
0.000782179
0.000772642
0.000764192
0.000756783
0.000750368
0.000744896
0.000740317
0.000736596
0.00073372
0.000731712
0.000730652
0.000730692
0.000732077
0.00073513
0.000740232
0.00074758
0.000757373
0.00347948
0.00324137
0.00303128
0.00284476
0.00267824
0.00252878
0.002394
0.00227192
0.00216089
0.00205953
0.00196667
0.00188131
0.00180262
0.00172987
0.00166242
0.00159974
0.00154135
0.00148684
0.00143584
0.00138804
0.00134315
0.00130092
0.00126113
0.00122357
0.00118808
0.00115449
0.00112267
0.00109248
0.00106381
0.00103659
0.00101071
0.000986113
0.00096275
0.000940577
0.000919568
0.000899706
0.000880984
0.000863403
0.00084697
0.000831692
0.000817574
0.00080462
0.000792823
0.000782171
0.000772638
0.000764191
0.000756787
0.000750376
0.000744907
0.000740331
0.000736612
0.000733736
0.000731726
0.000730661
0.000730689
0.00073205
0.000735056
0.000740062
0.000747236
0.000756689
0.00347948
0.00324137
0.00303127
0.00284476
0.00267823
0.00252877
0.00239399
0.00227191
0.00216088
0.00205951
0.00196665
0.00188129
0.0018026
0.00172984
0.00166239
0.00159971
0.00154132
0.00148681
0.00143581
0.00138801
0.00134312
0.00130089
0.0012611
0.00122355
0.00118805
0.00115447
0.00112264
0.00109245
0.00106379
0.00103656
0.00101068
0.000986087
0.000962724
0.000940553
0.000919545
0.000899684
0.000880963
0.000863384
0.000846953
0.000831677
0.000817562
0.00080461
0.000792817
0.000782167
0.000772638
0.000764195
0.000756794
0.000750387
0.000744921
0.000740347
0.00073663
0.000733755
0.000731744
0.000730673
0.000730692
0.000732035
0.000735005
0.000739937
0.000746978
0.000756165
0.00347948
0.00324137
0.00303127
0.00284475
0.00267822
0.00252876
0.00239398
0.0022719
0.00216086
0.0020595
0.00196663
0.00188128
0.00180258
0.00172982
0.00166238
0.00159969
0.0015413
0.00148679
0.00143579
0.00138799
0.0013431
0.00130087
0.00126108
0.00122353
0.00118804
0.00115445
0.00112262
0.00109243
0.00106377
0.00103654
0.00101066
0.00098607
0.000962708
0.000940537
0.00091953
0.00089967
0.000880951
0.000863373
0.000846943
0.000831669
0.000817556
0.000804607
0.000792816
0.000782169
0.000772643
0.000764203
0.000756805
0.000750401
0.000744937
0.000740366
0.00073665
0.000733775
0.000731763
0.000730689
0.000730702
0.000732031
0.000734977
0.000739859
0.000746805
0.000755796
0.00347948
0.00324137
0.00303127
0.00284475
0.00267822
0.00252876
0.00239398
0.00227189
0.00216086
0.00205949
0.00196662
0.00188127
0.00180257
0.00172982
0.00166237
0.00159968
0.00154129
0.00148678
0.00143578
0.00138798
0.00134309
0.00130086
0.00126107
0.00122352
0.00118803
0.00115444
0.00112261
0.00109242
0.00106376
0.00103653
0.00101066
0.000986062
0.000962701
0.000940531
0.000919524
0.000899665
0.000880946
0.00086337
0.000846941
0.000831668
0.000817557
0.000804609
0.00079282
0.000782176
0.000772652
0.000764215
0.00075682
0.000750417
0.000744956
0.000740387
0.000736672
0.000733798
0.000731785
0.000730709
0.000730717
0.000732039
0.000734972
0.000739827
0.000746716
0.000755578
0.00347948
0.00324137
0.00303127
0.00284475
0.00267822
0.00252876
0.00239398
0.00227189
0.00216086
0.00205949
0.00196662
0.00188127
0.00180257
0.00172982
0.00166237
0.00159968
0.00154129
0.00148678
0.00143578
0.00138798
0.00134309
0.00130086
0.00126107
0.00122352
0.00118803
0.00115444
0.00112261
0.00109242
0.00106376
0.00103653
0.00101066
0.000986064
0.000962702
0.000940533
0.000919526
0.000899668
0.00088095
0.000863374
0.000846946
0.000831674
0.000817564
0.000804618
0.00079283
0.000782188
0.000772666
0.00076423
0.000756837
0.000750437
0.000744977
0.00074041
0.000736696
0.000733822
0.000731808
0.000730731
0.000730738
0.000732059
0.00073499
0.000739841
0.000746712
0.00075551
0.00347948
0.00324137
0.00303127
0.00284475
0.00267822
0.00252876
0.00239398
0.0022719
0.00216086
0.0020595
0.00196663
0.00188128
0.00180258
0.00172982
0.00166238
0.00159969
0.0015413
0.00148679
0.00143579
0.00138799
0.0013431
0.00130087
0.00126108
0.00122353
0.00118804
0.00115445
0.00112262
0.00109243
0.00106377
0.00103654
0.00101067
0.000986074
0.000962713
0.000940543
0.000919537
0.000899679
0.000880961
0.000863386
0.000846959
0.000831687
0.000817578
0.000804632
0.000792846
0.000782204
0.000772684
0.000764249
0.000756858
0.000750459
0.000745001
0.000740434
0.000736721
0.000733847
0.000731833
0.000730756
0.000730764
0.000732089
0.000735032
0.000739901
0.000746793
0.000755593
0.00347948
0.00324137
0.00303127
0.00284476
0.00267823
0.00252877
0.00239399
0.00227191
0.00216088
0.00205951
0.00196665
0.00188129
0.0018026
0.00172984
0.00166239
0.00159971
0.00154132
0.00148681
0.00143581
0.00138801
0.00134312
0.00130089
0.0012611
0.00122355
0.00118806
0.00115447
0.00112264
0.00109245
0.00106379
0.00103656
0.00101069
0.000986093
0.000962732
0.000940563
0.000919557
0.000899698
0.000880981
0.000863406
0.000846978
0.000831707
0.000817598
0.000804653
0.000792867
0.000782226
0.000772706
0.000764272
0.000756881
0.000750484
0.000745026
0.00074046
0.000736748
0.000733874
0.00073186
0.000730784
0.000730795
0.000732131
0.000735096
0.000740009
0.000746962
0.00075583
0.00347948
0.00324137
0.00303128
0.00284476
0.00267824
0.00252878
0.002394
0.00227192
0.00216089
0.00205953
0.00196667
0.00188131
0.00180262
0.00172987
0.00166242
0.00159974
0.00154135
0.00148684
0.00143584
0.00138804
0.00134315
0.00130092
0.00126113
0.00122358
0.00118808
0.0011545
0.00112267
0.00109248
0.00106382
0.00103659
0.00101071
0.000986122
0.000962761
0.000940591
0.000919585
0.000899726
0.000881008
0.000863433
0.000847006
0.000831734
0.000817624
0.000804679
0.000792893
0.000782252
0.000772732
0.000764299
0.000756908
0.000750511
0.000745054
0.000740488
0.000736775
0.000733901
0.000731888
0.000730813
0.000730831
0.000732183
0.000735184
0.000740165
0.00074722
0.00075623
0.00347948
0.00324137
0.00303128
0.00284477
0.00267825
0.00252879
0.00239402
0.00227194
0.00216092
0.00205956
0.0019667
0.00188134
0.00180265
0.0017299
0.00166245
0.00159977
0.00154138
0.00148687
0.00143588
0.00138808
0.00134319
0.00130096
0.00126117
0.00122361
0.00118812
0.00115453
0.00112271
0.00109252
0.00106386
0.00103663
0.00101075
0.00098616
0.000962798
0.000940628
0.000919622
0.000899763
0.000881044
0.000863468
0.00084704
0.000831768
0.000817658
0.000804712
0.000792925
0.000782283
0.000772763
0.000764329
0.000756938
0.00075054
0.000745083
0.000740517
0.000736804
0.00073393
0.000731917
0.000730845
0.000730871
0.000732246
0.000735295
0.000740371
0.000747573
0.000756802
0.00347948
0.00324137
0.00303128
0.00284478
0.00267826
0.00252881
0.00239404
0.00227197
0.00216095
0.00205959
0.00196673
0.00188138
0.0018027
0.00172994
0.0016625
0.00159982
0.00154143
0.00148692
0.00143593
0.00138813
0.00134324
0.00130101
0.00126122
0.00122366
0.00118817
0.00115458
0.00112276
0.00109257
0.00106391
0.00103668
0.0010108
0.000986207
0.000962846
0.000940675
0.000919668
0.000899808
0.000881089
0.000863512
0.000847083
0.000831809
0.000817698
0.000804751
0.000792962
0.00078232
0.000772798
0.000764363
0.000756971
0.000750573
0.000745114
0.000740547
0.000736834
0.000733959
0.000731946
0.000730878
0.000730915
0.000732319
0.000735429
0.000740629
0.000748025
0.00075756
0.00347948
0.00324137
0.00303129
0.00284479
0.00267828
0.00252883
0.00239407
0.002272
0.00216099
0.00205963
0.00196678
0.00188143
0.00180275
0.00173
0.00166255
0.00159988
0.00154149
0.00148698
0.00143598
0.00138818
0.0013433
0.00130107
0.00126128
0.00122372
0.00118823
0.00115464
0.00112282
0.00109263
0.00106397
0.00103674
0.00101086
0.000986265
0.000962903
0.000940732
0.000919724
0.000899863
0.000881143
0.000863565
0.000847134
0.000831859
0.000817746
0.000804796
0.000793006
0.000782361
0.000772838
0.000764401
0.000757008
0.000750607
0.000745147
0.000740579
0.000736864
0.000733988
0.000731976
0.000730912
0.000730963
0.000732402
0.000735588
0.000740941
0.000748582
0.000758523
0.00347948
0.00324137
0.00303129
0.0028448
0.0026783
0.00252886
0.0023941
0.00227204
0.00216103
0.00205968
0.00196683
0.00188149
0.00180281
0.00173006
0.00166262
0.00159994
0.00154156
0.00148705
0.00143605
0.00138825
0.00134337
0.00130114
0.00126135
0.00122379
0.0011883
0.00115471
0.00112289
0.0010927
0.00106404
0.00103681
0.00101093
0.000986334
0.000962971
0.000940799
0.00091979
0.000899928
0.000881207
0.000863627
0.000847194
0.000831917
0.000817801
0.000804849
0.000793057
0.000782409
0.000772883
0.000764443
0.000757047
0.000750645
0.000745183
0.000740612
0.000736895
0.000734018
0.000732006
0.000730948
0.000731015
0.000732495
0.00073577
0.00074131
0.000749252
0.000759717
0.00347948
0.00324137
0.0030313
0.00284481
0.00267832
0.00252889
0.00239414
0.00227209
0.00216108
0.00205974
0.0019669
0.00188156
0.00180288
0.00173013
0.00166269
0.00160002
0.00154164
0.00148713
0.00143614
0.00138834
0.00134345
0.00130122
0.00126143
0.00122388
0.00118839
0.0011548
0.00112297
0.00109278
0.00106412
0.00103689
0.00101101
0.000986415
0.000963051
0.000940878
0.000919867
0.000900004
0.000881281
0.000863698
0.000847263
0.000831983
0.000817865
0.00080491
0.000793114
0.000782463
0.000772933
0.00076449
0.000757091
0.000750685
0.00074522
0.000740646
0.000736926
0.000734048
0.000732037
0.000730984
0.000731069
0.000732597
0.000735976
0.00074174
0.000750043
0.000761173
0.00347948
0.00324138
0.00303131
0.00284483
0.00267835
0.00252893
0.00239419
0.00227214
0.00216115
0.00205981
0.00196697
0.00188164
0.00180296
0.00173022
0.00166278
0.00160011
0.00154173
0.00148722
0.00143623
0.00138843
0.00134354
0.00130132
0.00126153
0.00122397
0.00118848
0.00115489
0.00112307
0.00109288
0.00106421
0.00103698
0.0010111
0.000986508
0.000963143
0.000940968
0.000919957
0.000900091
0.000881366
0.000863781
0.000847343
0.00083206
0.000817938
0.000804979
0.000793179
0.000782524
0.00077299
0.000764542
0.000757138
0.000750728
0.000745259
0.000740681
0.000736958
0.000734077
0.000732067
0.00073102
0.000731126
0.000732707
0.000736207
0.000742235
0.000750966
0.000762935
0.00347948
0.00324138
0.00303132
0.00284486
0.00267838
0.00252897
0.00239424
0.00227221
0.00216122
0.00205989
0.00196706
0.00188173
0.00180306
0.00173032
0.00166289
0.00160022
0.00154183
0.00148733
0.00143634
0.00138854
0.00134366
0.00130143
0.00126164
0.00122409
0.00118859
0.001155
0.00112318
0.00109299
0.00106432
0.00103709
0.00101121
0.000986615
0.000963249
0.000941073
0.000920059
0.000900192
0.000881464
0.000863876
0.000847435
0.000832147
0.000818021
0.000805057
0.000793252
0.000782592
0.000773052
0.0007646
0.00075719
0.000750774
0.0007453
0.000740718
0.000736991
0.000734107
0.000732096
0.000731056
0.000731184
0.000732826
0.000736461
0.000742798
0.000752033
0.000765057
0.00347948
0.00324138
0.00303134
0.00284488
0.00267842
0.00252903
0.00239431
0.00227228
0.0021613
0.00205998
0.00196715
0.00188183
0.00180317
0.00173043
0.001663
0.00160034
0.00154196
0.00148745
0.00143646
0.00138867
0.00134378
0.00130155
0.00126176
0.00122421
0.00118872
0.00115513
0.0011233
0.00109311
0.00106445
0.00103722
0.00101133
0.000986737
0.000963369
0.000941192
0.000920176
0.000900306
0.000881574
0.000863983
0.000847538
0.000832246
0.000818114
0.000805145
0.000793334
0.000782667
0.000773121
0.000764662
0.000757246
0.000750823
0.000745342
0.000740754
0.000737022
0.000734135
0.000732124
0.000731091
0.000731243
0.000732951
0.000736738
0.000743435
0.000753257
0.000767613
0.00347949
0.00324139
0.00303135
0.00284491
0.00267847
0.00252909
0.00239438
0.00227237
0.0021614
0.00206009
0.00196727
0.00188195
0.00180329
0.00173056
0.00166314
0.00160047
0.0015421
0.0014876
0.00143661
0.00138881
0.00134393
0.0013017
0.00126191
0.00122436
0.00118886
0.00115527
0.00112345
0.00109325
0.00106459
0.00103736
0.00101147
0.000986875
0.000963506
0.000941325
0.000920307
0.000900433
0.000881698
0.000864102
0.000847651
0.000832354
0.000818216
0.00080524
0.000793421
0.000782747
0.000773193
0.000764725
0.000757301
0.00075087
0.000745382
0.000740786
0.000737049
0.000734157
0.000732146
0.00073112
0.000731298
0.000733079
0.000737035
0.000744149
0.000754653
0.000770701
0.00347949
0.0032414
0.00303137
0.00284495
0.00267852
0.00252916
0.00239447
0.00227247
0.00216151
0.00206021
0.0019674
0.00188209
0.00180344
0.00173071
0.00166329
0.00160063
0.00154226
0.00148776
0.00143677
0.00138897
0.00134409
0.00130186
0.00126207
0.00122452
0.00118903
0.00115544
0.00112361
0.00109341
0.00106475
0.00103751
0.00101163
0.000987026
0.000963653
0.000941469
0.000920445
0.000900566
0.000881825
0.000864223
0.000847765
0.000832459
0.000818313
0.000805328
0.0007935
0.000782815
0.000773251
0.000764773
0.000757339
0.000750899
0.000745402
0.000740798
0.000737054
0.000734158
0.000732146
0.000731128
0.000731335
0.000733194
0.000737339
0.000744936
0.000756233
0.00077445
0.00347949
0.00324141
0.0030314
0.002845
0.00267859
0.00252924
0.00239457
0.00227258
0.00216164
0.00206035
0.00196755
0.00188225
0.0018036
0.00173088
0.00166346
0.00160081
0.00154244
0.00148794
0.00143695
0.00138916
0.00134427
0.00130205
0.00126226
0.0012247
0.00118921
0.00115561
0.00112378
0.00109358
0.00106491
0.00103767
0.00101178
0.000987168
0.000963787
0.000941594
0.000920561
0.000900671
0.000881919
0.000864304
0.000847833
0.000832515
0.000818355
0.000805356
0.000793515
0.000782818
0.000773241
0.00076475
0.000757305
0.000750854
0.000745348
0.000740737
0.000736987
0.000734089
0.000732078
0.000731072
0.00073131
0.000733257
0.000737613
0.000745767
0.000757989
0.000779024
0.00347949
0.00324142
0.00303143
0.00284505
0.00267866
0.00252934
0.00239469
0.00227272
0.00216179
0.00206051
0.00196772
0.00188243
0.00180379
0.00173108
0.00166366
0.00160101
0.00154264
0.00148814
0.00143716
0.00138936
0.00134447
0.00130224
0.00126244
0.00122488
0.00118937
0.00115577
0.00112392
0.00109371
0.00106502
0.00103776
0.00101185
0.000987223
0.000963819
0.000941603
0.000920545
0.000900631
0.000881852
0.000864211
0.000847715
0.000832371
0.000818188
0.000805168
0.000793307
0.000782592
0.000772999
0.000764497
0.000757041
0.000750584
0.000745073
0.000740462
0.000736713
0.00073382
0.000731819
0.000730831
0.000731111
0.000733157
0.00073775
0.000746549
0.000759861
0.00078461
0.00347949
0.00324143
0.00303147
0.00284512
0.00267876
0.00252946
0.00239482
0.00227288
0.00216196
0.0020607
0.00196792
0.00188264
0.00180401
0.0017313
0.00166389
0.00160123
0.00154286
0.00148835
0.00143735
0.00138954
0.00134463
0.00130238
0.00126255
0.00122496
0.00118942
0.00115577
0.00112389
0.00109363
0.00106489
0.00103758
0.00101162
0.000986932
0.000963473
0.0009412
0.000920085
0.000900114
0.000881281
0.000863588
0.000847043
0.000831655
0.000817434
0.000804383
0.000792499
0.000781769
0.00077217
0.000763668
0.000756222
0.00074978
0.00074429
0.000739702
0.000735981
0.000733114
0.000731142
0.000730188
0.000730521
0.000732674
0.000737528
0.000747056
0.000761659
0.000791367
0.00347949
0.00324145
0.00303152
0.0028452
0.00267887
0.0025296
0.00239499
0.00227306
0.00216217
0.00206092
0.00196815
0.00188288
0.00180424
0.00173153
0.0016641
0.00160142
0.00154301
0.00148847
0.00143742
0.00138954
0.00134456
0.00130223
0.00126231
0.00122462
0.00118898
0.00115522
0.00112322
0.00109284
0.00106399
0.00103656
0.00101048
0.000985685
0.000962117
0.000939742
0.000918532
0.000898475
0.000879564
0.000861806
0.000845209
0.000829785
0.000815544
0.00080249
0.000790624
0.000779931
0.00077039
0.000761966
0.000754611
0.00074827
0.000742883
0.000738394
0.000734758
0.000731962
0.00073004
0.00072912