/*--------------------------------*- C++ -*----------------------------------*\
| =========                 |                                                 |
| \\      /  F ield         | OpenFOAM: The Open Source CFD Toolbox           |
|  \\    /   O peration     | Version:  2.4.0                                 |
|   \\  /    A nd           | Web:      www.OpenFOAM.org                      |
|    \\/     M anipulation  |                                                 |
\*---------------------------------------------------------------------------*/
FoamFile
{
    version     2.0;
    format      ascii;
    class       surfaceScalarField;
    location    "1.12";
    object      phi;
}
// * * * * * * * * * * * * * * * * * * * * * * * * * * * * * * * * * * * * * //

dimensions      [0 3 -1 0 0 0 0];

internalField   nonuniform List<scalar> 
11840
(
7.75215e-07
9.22478e-06
-9.47492e-07
1.72271e-06
5.49497e-07
-1.49699e-06
3.01548e-07
2.47949e-07
9.09501e-07
-6.07953e-07
2.02791e-06
-1.11841e-06
2.30431e-06
-2.764e-07
1.16974e-06
1.13456e-06
-1.59846e-06
2.7682e-06
-5.0986e-06
3.50014e-06
-8.24777e-06
3.14917e-06
-1.01868e-05
1.93902e-06
-1.05317e-05
3.44921e-07
-9.55635e-06
-9.75356e-07
-7.74797e-06
-1.80838e-06
-5.63767e-06
-2.1103e-06
-3.73272e-06
-1.90495e-06
-2.21273e-06
-1.51998e-06
-1.05602e-06
-1.15672e-06
-1.65736e-07
-8.90279e-07
5.96343e-07
-7.62079e-07
1.2719e-06
-6.75559e-07
1.91452e-06
-6.42617e-07
2.5388e-06
-6.24279e-07
3.1398e-06
-6.00998e-07
3.70462e-06
-5.64823e-07
4.21932e-06
-5.14699e-07
4.67362e-06
-4.54298e-07
5.06334e-06
-3.8972e-07
5.39049e-06
-3.27158e-07
5.66153e-06
-2.71035e-07
5.88483e-06
-2.23305e-07
6.06877e-06
-1.83932e-07
6.22064e-06
-1.51871e-07
6.34649e-06
-1.25856e-07
6.45125e-06
-1.04758e-07
6.5389e-06
-8.76491e-08
6.61266e-06
-7.37595e-08
6.67511e-06
-6.24479e-08
6.72829e-06
-5.31861e-08
6.77385e-06
-4.55539e-08
6.81307e-06
-3.92225e-08
6.84701e-06
-3.39413e-08
6.87653e-06
-2.95168e-08
6.90233e-06
-2.58011e-08
6.92503e-06
-2.27049e-08
6.94512e-06
-2.00859e-08
6.96304e-06
-1.79194e-08
6.97917e-06
-1.61336e-08
6.99393e-06
-1.47563e-08
7.0076e-06
-1.36679e-08
7.02074e-06
-1.31465e-08
7.03297e-06
-1.22301e-08
7.04691e-06
-1.39374e-08
7.05693e-06
-1.00197e-08
7.08187e-06
-2.49419e-08
7.075e-06
6.87427e-09
7.17635e-06
-1.01352e-07
7.04368e-06
1.32669e-07
-5.78523e-07
2.42923e-06
1.67956e-05
-5.362e-07
4.68814e-06
2.07247e-07
-2.24044e-06
-3.70231e-08
4.92219e-07
7.78741e-07
-1.42372e-06
1.75502e-06
-2.09469e-06
1.77026e-06
-2.9164e-07
-4.68185e-07
3.37301e-06
-4.51949e-06
6.81951e-06
-8.23735e-06
7.218e-06
-1.04554e-05
5.36724e-06
-1.12592e-05
2.74278e-06
-1.10663e-05
1.52018e-07
-9.95534e-06
-2.0863e-06
-8.04814e-06
-3.71559e-06
-5.8498e-06
-4.30864e-06
-3.82664e-06
-3.92811e-06
-2.17708e-06
-3.16954e-06
-8.92063e-07
-2.44174e-06
1.34193e-07
-1.91654e-06
1.01119e-06
-1.63907e-06
1.80788e-06
-1.47225e-06
2.57156e-06
-1.40631e-06
3.31595e-06
-1.36866e-06
4.03411e-06
-1.31916e-06
4.70939e-06
-1.2401e-06
5.3236e-06
-1.12892e-06
5.86316e-06
-9.93853e-07
6.32244e-06
-8.49e-07
6.70413e-06
-7.0885e-07
7.01687e-06
-5.8377e-07
7.27175e-06
-4.78188e-07
7.47952e-06
-3.91706e-07
7.64922e-06
-3.21564e-07
7.78802e-06
-2.6466e-07
7.9017e-06
-2.18437e-07
7.99497e-06
-1.80923e-07
8.07173e-06
-1.50522e-07
8.13515e-06
-1.25862e-07
8.18774e-06
-1.05778e-07
8.2315e-06
-8.93135e-08
8.268e-06
-7.57191e-08
8.29848e-06
-6.44251e-08
8.32396e-06
-5.49973e-08
8.34526e-06
-4.7102e-08
8.36304e-06
-4.0484e-08
8.37789e-06
-3.49363e-08
8.39027e-06
-3.02981e-08
8.40058e-06
-2.64451e-08
8.40916e-06
-2.33307e-08
8.41636e-06
-2.08687e-08
8.42256e-06
-1.935e-08
8.42781e-06
-1.74749e-08
8.43347e-06
-1.96056e-08
8.43703e-06
-1.35749e-08
8.45011e-06
-3.80269e-08
8.4448e-06
1.21854e-08
8.52583e-06
-1.82375e-07
8.5018e-06
1.56699e-07
-1.04935e-06
3.57945e-06
2.32161e-05
-3.53861e-08
8.30298e-06
-9.72357e-08
-2.17859e-06
-2.85031e-07
6.80015e-07
4.42841e-07
-2.15159e-06
1.16274e-06
-2.81458e-06
7.35897e-07
1.35203e-07
-2.11439e-06
6.22329e-06
-5.97872e-06
1.06838e-05
-8.78143e-06
1.00207e-05
-1.03747e-05
6.9605e-06
-1.1166e-05
3.53405e-06
-1.10387e-05
2.47427e-08
-9.92917e-06
-3.19581e-06
-8.03487e-06
-5.60989e-06
-5.84367e-06
-6.49985e-06
-3.80632e-06
-5.96546e-06
-2.13052e-06
-4.84533e-06
-8.16668e-07
-3.75559e-06
2.41792e-07
-2.975e-06
1.1479e-06
-2.54518e-06
1.98253e-06
-2.30688e-06
2.79204e-06
-2.21582e-06
3.59198e-06
-2.16861e-06
4.3755e-06
-2.10267e-06
5.12314e-06
-1.98774e-06
5.81151e-06
-1.81729e-06
6.4208e-06
-1.60314e-06
6.94018e-06
-1.36839e-06
7.36973e-06
-1.13839e-06
7.71827e-06
-9.32313e-07
7.99902e-06
-7.58937e-07
8.22529e-06
-6.17975e-07
8.40815e-06
-5.04421e-07
8.55605e-06
-4.1256e-07
8.67549e-06
-3.3788e-07
8.77175e-06
-2.77186e-07
8.84928e-06
-2.28054e-07
8.91182e-06
-1.88395e-07
8.96238e-06
-1.5634e-07
9.00336e-06
-1.30292e-07
9.03661e-06
-1.08974e-07
9.0636e-06
-9.14088e-08
9.08546e-06
-7.68626e-08
9.10314e-06
-6.47771e-08
9.11738e-06
-5.47268e-08
9.12879e-06
-4.63437e-08
9.13787e-06
-3.93792e-08
9.14505e-06
-3.36293e-08
9.15072e-06
-2.89968e-08
9.15513e-06
-2.52768e-08
9.15872e-06
-2.29457e-08
9.16153e-06
-2.02872e-08
9.16476e-06
-2.28269e-08
9.16635e-06
-1.51708e-08
9.17571e-06
-4.73847e-08
9.17134e-06
1.65546e-08
9.2346e-06
-2.45637e-07
9.22382e-06
1.6748e-07
-1.46381e-06
4.49635e-06
2.87198e-05
6.81073e-07
1.21183e-05
-3.42775e-07
-1.15474e-06
-4.8446e-07
8.217e-07
7.30443e-08
-2.70909e-06
4.55719e-07
-3.19726e-06
-3.73071e-07
9.63994e-07
-3.30179e-06
9.15201e-06
-6.47795e-06
1.386e-05
-8.6261e-06
1.21689e-05
-1.01337e-05
8.4681e-06
-1.10149e-05
4.41523e-06
-1.09273e-05
-6.28179e-08
-9.8272e-06
-4.29593e-06
-7.95568e-06
-7.48141e-06
-5.78385e-06
-8.67167e-06
-3.75567e-06
-7.99364e-06
-2.08218e-06
-6.51882e-06
-7.68924e-07
-5.06885e-06
2.89191e-07
-4.03311e-06
1.1958e-06
-3.45179e-06
2.03596e-06
-3.14704e-06
2.85733e-06
-3.03719e-06
3.67755e-06
-2.98882e-06
4.49118e-06
-2.91631e-06
5.27855e-06
-2.77511e-06
6.01377e-06
-2.55251e-06
6.67239e-06
-2.26176e-06
7.23809e-06
-1.93409e-06
7.70649e-06
-1.60679e-06
8.08447e-06
-1.3103e-06
8.38581e-06
-1.06027e-06
8.62573e-06
-8.57903e-07
8.81735e-06
-6.96035e-07
8.9705e-06
-5.65709e-07
9.09243e-06
-4.59817e-07
9.18888e-06
-3.73628e-07
9.26468e-06
-3.03859e-07
9.32404e-06
-2.47755e-07
9.37045e-06
-2.02747e-07
9.40668e-06
-1.66525e-07
9.43488e-06
-1.37174e-07
9.45669e-06
-1.13218e-07
9.47338e-06
-9.3557e-08
9.48597e-06
-7.73641e-08
9.49525e-06
-6.40084e-08
9.50188e-06
-5.29751e-08
9.50639e-06
-4.38826e-08
9.50918e-06
-3.64209e-08
9.51062e-06
-3.04422e-08
9.511e-06
-2.56494e-08
9.51063e-06
-2.25811e-08
9.50953e-06
-1.91805e-08
9.50878e-06
-2.20839e-08
9.50633e-06
-1.27212e-08
9.51087e-06
-5.19231e-08
9.50329e-06
2.41364e-08
9.55416e-06
-2.96507e-07
9.54798e-06
1.73663e-07
-1.80733e-06
5.27031e-06
3.34494e-05
1.4069e-06
1.59817e-05
-3.30554e-07
5.82714e-07
-6.32256e-07
1.1234e-06
-3.30414e-07
-3.01094e-06
-2.58994e-07
-3.26868e-06
-1.36714e-06
2.07214e-06
-4.00175e-06
1.17866e-05
-6.50876e-06
1.6367e-05
-8.36663e-06
1.40267e-05
-9.92962e-06
1.00311e-05
-1.08436e-05
5.32926e-06
-1.07602e-05
-1.4631e-07
-9.66958e-06
-5.3865e-06
-7.81546e-06
-9.33553e-06
-5.66567e-06
-1.08215e-05
-3.65993e-06
-9.99938e-06
-2.00656e-06
-8.17219e-06
-7.11485e-07
-6.36392e-06
3.30353e-07
-5.07495e-06
1.22324e-06
-4.34468e-06
2.05431e-06
-3.97811e-06
2.87243e-06
-3.85531e-06
3.69657e-06
-3.81295e-06
4.52232e-06
-3.74206e-06
5.33018e-06
-3.58297e-06
6.09305e-06
-3.31538e-06
6.78362e-06
-2.95233e-06
7.38151e-06
-2.53198e-06
7.87836e-06
-2.10364e-06
8.27851e-06
-1.71045e-06
8.59525e-06
-1.37701e-06
8.84497e-06
-1.10762e-06
9.04242e-06
-8.93485e-07
9.19877e-06
-7.22059e-07
9.322e-06
-5.83049e-07
9.41817e-06
-4.69795e-07
9.49236e-06
-3.78051e-07
9.54905e-06
-3.04442e-07
9.59205e-06
-2.45747e-07
9.62444e-06
-1.98917e-07
9.6486e-06
-1.61333e-07
9.66631e-06
-1.30935e-07
9.67895e-06
-1.06194e-07
9.68756e-06
-8.59776e-08
9.69299e-06
-6.9432e-08
9.69588e-06
-5.58692e-08
9.69677e-06
-4.47715e-08
9.69608e-06
-3.57248e-08
9.69413e-06
-2.84999e-08
9.69121e-06
-2.27246e-08
9.68756e-06
-1.89364e-08
9.68338e-06
-1.49955e-08
9.67918e-06
-1.78816e-08
9.67433e-06
-7.8756e-09
9.67359e-06
-5.11821e-08
9.66705e-06
3.06804e-08
9.70091e-06
-3.30369e-07
9.70849e-06
1.66081e-07
-2.06894e-06
5.94065e-06
3.75088e-05
2.14827e-06
1.9774e-05
-1.18628e-07
2.84961e-06
-7.06825e-07
1.7116e-06
-6.58207e-07
-3.05955e-06
-8.76824e-07
-3.05006e-06
-2.10556e-06
3.30088e-06
-4.31639e-06
1.39975e-05
-6.34676e-06
1.83974e-05
-8.11493e-06
1.57949e-05
-9.71698e-06
1.16331e-05
-1.06269e-05
6.23917e-06
-1.05429e-05
-2.3025e-07
-9.45496e-06
-6.47449e-06
-7.60892e-06
-1.11816e-05
-5.4789e-06
-1.29515e-05
-3.50388e-06
-1.19744e-05
-1.88431e-06
-9.79176e-06
-6.21795e-07
-7.62644e-06
3.91634e-07
-6.08838e-06
1.25954e-06
-5.21259e-06
2.07101e-06
-4.78958e-06
2.87582e-06
-4.66012e-06
3.69383e-06
-4.63096e-06
4.52135e-06
-4.56958e-06
5.33893e-06
-4.40054e-06
6.11846e-06
-4.09491e-06
6.83036e-06
-3.66423e-06
7.45102e-06
-3.15264e-06
7.9687e-06
-2.62131e-06
8.38535e-06
-2.12709e-06
8.71348e-06
-1.70514e-06
8.97015e-06
-1.3643e-06
9.17147e-06
-1.0948e-06
9.3298e-06
-8.8039e-07
9.45382e-06
-7.07069e-07
9.54985e-06
-5.65826e-07
9.62308e-06
-4.51283e-07
9.6781e-06
-3.59465e-07
9.71892e-06
-2.86562e-07
9.74881e-06
-2.28804e-07
9.7703e-06
-1.82827e-07
9.7853e-06
-1.45936e-07
9.79523e-06
-1.16124e-07
9.80118e-06
-9.1922e-08
9.80398e-06
-7.22336e-08
9.8043e-06
-5.61932e-08
9.80267e-06
-4.3142e-08
9.7995e-06
-3.25532e-08
9.79512e-06
-2.41205e-08
9.78978e-06
-1.73857e-08
9.78373e-06
-1.28875e-08
9.77708e-06
-8.3437e-09
9.77038e-06
-1.11831e-08
9.7632e-06
-6.88841e-10
9.75883e-06
-4.68103e-08
9.75358e-06
3.5929e-08
9.77256e-06
-3.49352e-07
9.79852e-06
1.40121e-07
-2.25728e-06
6.52654e-06
4.09823e-05
2.87781e-06
2.34228e-05
1.89704e-07
5.53772e-06
-6.8545e-07
2.58675e-06
-8.7234e-07
-2.87266e-06
-1.33194e-06
-2.59046e-06
-2.55599e-06
4.52492e-06
-4.3697e-06
1.58112e-05
-6.11206e-06
2.01397e-05
-7.86771e-06
1.75506e-05
-9.47661e-06
1.3242e-05
-1.03774e-05
7.13993e-06
-1.02936e-05
-3.1405e-07
-9.20048e-06
-7.56758e-06
-7.34769e-06
-1.30344e-05
-5.22554e-06
-1.50736e-05
-3.2814e-06
-1.39185e-05
-1.7046e-06
-1.13686e-05
-4.86551e-07
-8.84449e-06
4.88327e-07
-7.06326e-06
1.32104e-06
-6.0453e-06
2.1034e-06
-5.57194e-06
2.88597e-06
-5.44268e-06
3.68936e-06
-5.43435e-06
4.51059e-06
-5.39081e-06
5.33028e-06
-5.22023e-06
6.11936e-06
-4.88399e-06
6.84606e-06
-4.39093e-06
7.48372e-06
-3.7903e-06
8.01747e-06
-3.15507e-06
8.44697e-06
-2.55659e-06
8.78383e-06
-2.042e-06
9.04559e-06
-1.62606e-06
9.24948e-06
-1.2987e-06
9.40901e-06
-1.03991e-06
9.53351e-06
-8.31574e-07
9.62957e-06
-6.6188e-07
9.70239e-06
-5.24107e-07
9.75659e-06
-4.13667e-07
9.79625e-06
-3.26218e-07
9.82476e-06
-2.57315e-07
9.84478e-06
-2.02842e-07
9.85827e-06
-1.59436e-07
9.86672e-06
-1.24574e-07
9.87123e-06
-9.64261e-08
9.87264e-06
-7.3642e-08
9.87161e-06
-5.51705e-08
9.86868e-06
-4.02072e-08
9.86424e-06
-2.81103e-08
9.8586e-06
-1.84834e-08
9.85203e-06
-1.08129e-08
9.84472e-06
-5.578e-09
9.83692e-06
-5.50539e-10
9.82878e-06
-3.03454e-09
9.82082e-06
7.26668e-09
9.81371e-06
-3.96963e-08
9.81026e-06
3.9373e-08
9.81757e-06
-3.56658e-07
9.85782e-06
9.98652e-08
-2.38904e-06
7.03905e-06
4.39432e-05
3.5868e-06
2.6875e-05
5.93613e-07
8.5309e-06
-5.65119e-07
3.74548e-06
-9.60839e-07
-2.47694e-06
-1.58072e-06
-1.97058e-06
-2.7497e-06
5.6939e-06
-4.2637e-06
1.73252e-05
-5.84953e-06
2.17256e-05
-7.6106e-06
1.93116e-05
-9.21081e-06
1.48422e-05
-1.01099e-05
8.03905e-06
-1.00314e-05
-3.92609e-07
-8.92932e-06
-8.66963e-06
-7.05339e-06
-1.49103e-05
-4.91851e-06
-1.72085e-05
-2.99561e-06
-1.58414e-05
-1.46466e-06
-1.28995e-05
-3.00185e-07
-1.0009e-05
6.28773e-07
-7.99221e-06
1.41737e-06
-6.8339e-06
2.16191e-06
-6.31648e-06
2.91378e-06
-6.19456e-06
3.69448e-06
-6.21504e-06
4.50191e-06
-6.19825e-06
5.31705e-06
-6.03537e-06
6.10999e-06
-5.67693e-06
6.84676e-06
-5.12771e-06
7.49756e-06
-4.4411e-06
8.04429e-06
-3.7018e-06
8.48424e-06
-2.99654e-06
8.82806e-06
-2.38582e-06
9.09358e-06
-1.89158e-06
9.2991e-06
-1.50421e-06
9.45917e-06
-1.19998e-06
9.58383e-06
-9.56239e-07
9.6799e-06
-7.57954e-07
9.7526e-06
-5.96807e-07
9.80649e-06
-4.6755e-07
9.84563e-06
-3.65365e-07
9.8735e-06
-2.85181e-07
9.89281e-06
-2.22153e-07
9.9056e-06
-1.72228e-07
9.91337e-06
-1.32344e-07
9.91724e-06
-1.00289e-07
9.91804e-06
-7.44464e-08
9.91645e-06
-5.35755e-08
9.91296e-06
-3.67241e-08
9.90799e-06
-2.31365e-08
9.90183e-06
-1.2329e-08
9.89473e-06
-3.70488e-09
9.88685e-06
2.29332e-09
9.87847e-06
7.83101e-09
9.86968e-06
5.75402e-09
9.86134e-06
1.5613e-08
9.85308e-06
-3.14394e-08
9.85096e-06
4.14961e-08
9.8513e-06
-3.57001e-07
9.8998e-06
5.13651e-08
-2.48114e-06
7.48658e-06
4.64566e-05
4.26934e-06
3.00923e-05
1.09449e-06
1.17058e-05
-3.63535e-07
5.20351e-06
-9.4569e-07
-1.89479e-06
-1.65196e-06
-1.26431e-06
-2.75188e-06
6.79383e-06
-4.06705e-06
1.86403e-05
-5.57283e-06
2.32313e-05
-7.33654e-06
2.10753e-05
-8.92667e-06
1.64324e-05
-9.83495e-06
8.94733e-06
-9.7694e-06
-4.58166e-07
-8.66018e-06
-9.77885e-06
-6.74936e-06
-1.68211e-05
-4.57729e-06
-1.93806e-05
-2.65657e-06
-1.77622e-05
-1.16791e-06
-1.43882e-05
-6.66381e-08
-1.11102e-05
8.15948e-07
-8.8748e-06
1.55332e-06
-7.57127e-06
2.25252e-06
-7.01568e-06
2.96595e-06
-6.90799e-06
3.71616e-06
-6.96526e-06
4.50241e-06
-6.9845e-06
5.30651e-06
-6.83947e-06
6.09806e-06
-6.46848e-06
6.84095e-06
-5.8706e-06
7.50202e-06
-5.10216e-06
8.05964e-06
-4.25942e-06
8.50846e-06
-3.44536e-06
8.858e-06
-2.73535e-06
9.12629e-06
-2.15987e-06
9.33263e-06
-1.71055e-06
9.49264e-06
-1.35999e-06
9.61707e-06
-1.08067e-06
9.71299e-06
-8.53878e-07
9.78562e-06
-6.69431e-07
9.8394e-06
-5.21338e-07
9.87838e-06
-4.04345e-07
9.90602e-06
-3.12821e-07
9.92509e-06
-2.41216e-07
9.93765e-06
-1.84791e-07
9.94524e-06
-1.39928e-07
9.94896e-06
-1.04015e-07
9.94968e-06
-7.51605e-08
9.94803e-06
-5.19306e-08
9.94453e-06
-3.32241e-08
9.93956e-06
-1.81701e-08
9.93343e-06
-6.19588e-09
9.92638e-06
3.34796e-09
9.91857e-06
1.01027e-08
9.91023e-06
1.61671e-08
9.90143e-06
1.45622e-08
9.89312e-06
2.39213e-08
9.8844e-06
-2.27182e-08
9.88312e-06
4.27678e-08
9.87967e-06
-3.53543e-07
9.93146e-06
-4.33203e-10
-2.54587e-06
7.87665e-06
4.858e-05
4.91981e-06
3.30491e-05
1.65983e-06
1.49657e-05
-1.02008e-07
6.96535e-06
-8.58795e-07
-1.138e-06
-1.60022e-06
-5.22886e-07
-2.62862e-06
7.82222e-06
-3.81984e-06
1.98315e-05
-5.28408e-06
2.46956e-05
-7.04395e-06
2.28352e-05
-8.62858e-06
1.8017e-05
-9.55438e-06
9.87314e-06
-9.50922e-06
-5.03323e-07
-8.40031e-06
-1.08878e-05
-6.45293e-06
-1.87685e-05
-4.22301e-06
-2.16105e-05
-2.27887e-06
-1.97063e-05
-8.21872e-07
-1.58452e-05
2.39128e-07
-1.21712e-05
1.04917e-06
-9.68484e-06
1.73003e-06
-8.25213e-06
2.37797e-06
-7.66362e-06
3.0463e-06
-7.57632e-06
3.75884e-06
-7.6778e-06
4.51666e-06
-7.74232e-06
5.30314e-06
-7.62594e-06
6.088e-06
-7.25335e-06
6.83326e-06
-6.61585e-06
7.50219e-06
-5.7711e-06
8.06924e-06
-4.82647e-06
8.52598e-06
-3.90211e-06
8.88047e-06
-3.08984e-06
9.15085e-06
-2.43025e-06
9.35737e-06
-1.91707e-06
9.51677e-06
-1.51939e-06
9.64054e-06
-1.20444e-06
9.73604e-06
-9.49388e-07
9.80849e-06
-7.41873e-07
9.86221e-06
-5.75062e-07
9.90116e-06
-4.4329e-07
9.92876e-06
-3.40427e-07
9.94781e-06
-2.60262e-07
9.96039e-06
-1.97376e-07
9.96805e-06
-1.47588e-07
9.97191e-06
-1.07875e-07
9.97282e-06
-7.60649e-08
9.97141e-06
-5.0524e-08
9.96819e-06
-3.00025e-08
9.96353e-06
-1.35142e-08
9.95773e-06
-3.95097e-10
9.95102e-06
1.00618e-08
9.94355e-06
1.75672e-08
9.93558e-06
2.41463e-08
9.9271e-06
2.30377e-08
9.91918e-06
3.18457e-08
9.91059e-06
-1.41373e-08
9.90995e-06
4.34108e-08
9.90464e-06
-3.48234e-07
9.95671e-06
-5.25051e-08
-2.59111e-06
8.21608e-06
5.03639e-05
5.53371e-06
3.57315e-05
2.27113e-06
1.82283e-05
2.52268e-07
8.98421e-06
-7.21856e-07
-1.63877e-07
-1.47207e-06
2.27329e-07
-2.42957e-06
8.77973e-06
-3.54301e-06
2.0945e-05
-4.98216e-06
2.61347e-05
-6.73296e-06
2.4586e-05
-8.31628e-06
1.96003e-05
-9.26226e-06
1.08191e-05
-9.24184e-06
-5.23745e-07
-8.14421e-06
-1.19854e-05
-6.17027e-06
-2.07424e-05
-3.87328e-06
-2.39075e-05
-1.87967e-06
-2.16999e-05
-4.37815e-07
-1.7287e-05
5.79902e-07
-1.3189e-05
1.32523e-06
-1.04302e-05
1.94616e-06
-8.87307e-06
2.53867e-06
-8.25613e-06
3.15667e-06
-8.19432e-06
3.82526e-06
-8.34639e-06
4.54782e-06
-8.46488e-06
5.31004e-06
-8.38816e-06
6.08265e-06
-8.02596e-06
6.8263e-06
-7.35951e-06
7.50077e-06
-6.44557e-06
8.07609e-06
-5.40179e-06
8.54023e-06
-4.36624e-06
8.89933e-06
-3.44894e-06
9.17142e-06
-2.70234e-06
9.37768e-06
-2.12334e-06
9.53601e-06
-1.67772e-06
9.65872e-06
-1.32714e-06
9.75352e-06
-1.04419e-06
9.82561e-06
-8.13957e-07
9.87919e-06
-6.28649e-07
9.91811e-06
-4.82205e-07
9.94574e-06
-3.68054e-07
9.96485e-06
-2.79373e-07
9.97755e-06
-2.10084e-07
9.9854e-06
-1.55437e-07
9.98952e-06
-1.11991e-07
9.99074e-06
-7.7286e-08
9.9897e-06
-4.94886e-08
9.9869e-06
-2.71994e-08
9.9827e-06
-9.31616e-09
9.9774e-06
4.91085e-09
9.9712e-06
1.6259e-08
9.96427e-06
2.44953e-08
9.95684e-06
3.1577e-08
9.94891e-06
3.09699e-08
9.94153e-06
3.92221e-08
9.9334e-06
-6.00787e-09
9.93325e-06
4.35651e-08
9.92722e-06
-3.42203e-07
9.97777e-06
-1.03059e-07
-2.62184e-06
8.51097e-06
5.18529e-05
6.10777e-06
3.81347e-05
2.91009e-06
2.1426e-05
6.70342e-07
1.1224e-05
-5.34194e-07
1.04066e-06
-1.29781e-06
9.90942e-07
-2.18585e-06
9.66777e-06
-3.24654e-06
2.20057e-05
-4.66556e-06
2.75538e-05
-6.40324e-06
2.63237e-05
-7.98563e-06
2.11827e-05
-8.94812e-06
1.17816e-05
-8.95283e-06
-5.19042e-07
-7.87795e-06
-1.30603e-05
-5.89591e-06
-2.27244e-05
-3.53785e-06
-2.62656e-05
-1.47589e-06
-2.37619e-05
-3.84077e-08
-1.87245e-05
9.56388e-07
-1.41837e-05
1.63965e-06
-1.11134e-05
2.19881e-06
-9.43224e-06
2.73325e-06
-8.79056e-06
3.29726e-06
-8.75833e-06
3.91691e-06
-8.96604e-06
4.59808e-06
-9.14604e-06
5.32957e-06
-9.11966e-06
6.08412e-06
-8.78051e-06
6.82183e-06
-8.09722e-06
7.49924e-06
-7.12297e-06
8.08169e-06
-5.98424e-06
8.55289e-06
-4.83744e-06
8.91655e-06
-3.81261e-06
9.19026e-06
-2.97605e-06
9.39603e-06
-2.32911e-06
9.55297e-06
-1.83466e-06
9.67429e-06
-1.44846e-06
9.76811e-06
-1.13801e-06
9.83964e-06
-8.85493e-07
9.89298e-06
-6.81987e-07
9.93181e-06
-5.21035e-07
9.95944e-06
-3.95687e-07
9.97863e-06
-2.98559e-07
9.99148e-06
-2.22935e-07
9.99955e-06
-1.63501e-07
1.00039e-05
-1.16395e-07
1.00055e-05
-7.88617e-08
1.00049e-05
-4.88666e-08
1.00026e-05
-2.48613e-08
9.99888e-06
-5.62879e-09
9.99412e-06
9.66717e-09
9.98851e-06
2.18716e-08
9.98219e-06
3.08119e-08
9.97539e-06
3.83759e-08
9.96811e-06
3.82579e-08
9.96136e-06
4.59634e-08
9.95385e-06
1.50664e-09
9.95411e-06
4.33086e-08
9.94799e-06
-3.36089e-07
9.99595e-06
-1.51017e-07
-2.64122e-06
8.76676e-06
5.30862e-05
6.63994e-06
4.02615e-05
3.56036e-06
2.45056e-05
1.13942e-06
1.36449e-05
-2.92834e-07
2.47292e-06
-1.0947e-06
1.79281e-06
-1.9148e-06
1.04879e-05
-2.93471e-06
2.30256e-05
-4.333e-06
2.8952e-05
-6.05343e-06
2.80441e-05
-7.63061e-06
2.27599e-05
-8.60116e-06
1.27522e-05
-8.62837e-06
-4.91835e-07
-7.58589e-06
-1.41028e-05
-5.61697e-06
-2.46934e-05
-3.21704e-06
-2.86655e-05
-1.0808e-06
-2.58981e-05
4.14965e-07
-2.02203e-05
1.36187e-06
-1.51306e-05
1.98723e-06
-1.17388e-05
2.48419e-06
-9.92919e-06
2.95922e-06
-9.2656e-06
3.46705e-06
-9.26616e-06
4.03416e-06
-9.53315e-06
4.66884e-06
-9.78072e-06
5.3636e-06
-9.81442e-06
6.09422e-06
-9.51112e-06
6.82127e-06
-8.82427e-06
7.49861e-06
-7.80031e-06
8.0868e-06
-6.57243e-06
8.56474e-06
-5.31538e-06
8.93307e-06
-4.18094e-06
9.20848e-06
-3.25146e-06
9.4137e-06
-2.53433e-06
9.56904e-06
-1.99001e-06
9.68871e-06
-1.56814e-06
9.78132e-06
-1.23061e-06
9.85213e-06
-9.56303e-07
9.9051e-06
-7.34957e-07
9.94377e-06
-5.59708e-07
9.97137e-06
-4.23284e-07
9.9906e-06
-3.17794e-07
1.00036e-05
-2.35913e-07
1.00119e-05
-1.71772e-07
1.00165e-05
-1.21081e-07
1.00185e-05
-8.0788e-08
1.00183e-05
-4.86559e-08
1.00164e-05
-2.29884e-08
1.00132e-05
-2.45488e-09
1.0009e-05
1.38685e-08
1.0004e-05
2.68906e-08
9.9983e-06
3.65019e-08
9.99215e-06
4.45215e-08
9.98554e-06
4.48698e-08
9.97946e-06
5.20405e-08
9.97263e-06
8.34453e-09
9.97324e-06
4.26969e-08
9.96733e-06
-3.30185e-07
1.00121e-05
-1.95803e-07
-2.65122e-06
8.98834e-06
5.40978e-05
7.1293e-06
4.21205e-05
4.20928e-06
2.74256e-05
1.65764e-06
1.61965e-05
1.4062e-08
4.1165e-06
-8.71523e-07
2.67839e-06
-1.62555e-06
1.12419e-05
-2.60915e-06
2.40092e-05
-3.98342e-06
3.03263e-05
-5.68139e-06
2.97421e-05
-7.24524e-06
2.43237e-05
-8.21307e-06
1.372e-05
-8.25877e-06
-4.46134e-07
-7.2557e-06
-1.51058e-05
-5.31918e-06
-2.66299e-05
-2.90357e-06
-3.10811e-05
-7.02115e-07
-2.80996e-05
8.51768e-07
-2.17742e-05
1.78708e-06
-1.6066e-05
2.36213e-06
-1.23138e-05
2.79804e-06
-1.03651e-05
3.21335e-06
-9.68091e-06
3.66406e-06
-9.71686e-06
4.17643e-06
-1.00455e-05
4.76073e-06
-1.0365e-05
5.4135e-06
-1.04672e-05
6.11447e-06
-1.02121e-05
6.82591e-06
-9.53571e-06
7.49977e-06
-8.47417e-06
8.09196e-06
-7.16461e-06
8.57615e-06
-5.79957e-06
8.94925e-06
-4.55404e-06
9.22656e-06
-3.52877e-06
9.43127e-06
-2.73904e-06
9.58492e-06
-2.14365e-06
9.70276e-06
-1.68599e-06
9.79396e-06
-1.32181e-06
9.86389e-06
-1.02623e-06
9.91638e-06
-7.87449e-07
9.95482e-06
-5.98152e-07
9.98234e-06
-4.50796e-07
1.00016e-05
-3.37043e-07
1.00147e-05
-2.48992e-07
1.00231e-05
-1.80226e-07
1.00281e-05
-1.26027e-07
1.00303e-05
-8.3045e-08
1.00305e-05
-4.88377e-08
1.00291e-05
-2.15619e-08
1.00264e-05
2.22736e-10
1.00227e-05
1.75318e-08
1.00183e-05
3.13313e-08
1.00132e-05
4.15778e-08
1.00077e-05
5.00239e-08
1.00018e-05
5.08109e-08
9.99636e-06
5.74587e-08
9.9902e-06
1.45003e-08
9.99112e-06
4.17799e-08
9.98552e-06
-3.2459e-07
1.00269e-05
-2.37135e-07
-2.65312e-06
9.18015e-06
5.49177e-05
7.57593e-06
4.37248e-05
4.84687e-06
3.01547e-05
2.21691e-06
1.88265e-05
3.12592e-07
6.02082e-06
-6.30698e-07
3.62168e-06
-1.32296e-06
1.19342e-05
-2.27035e-06
2.49566e-05
-3.6159e-06
3.16719e-05
-5.28477e-06
3.1411e-05
-6.8248e-06
2.58638e-05
-7.7789e-06
1.46741e-05
-7.83895e-06
-3.86092e-07
-6.87991e-06
-1.60649e-05
-4.99111e-06
-2.85187e-05
-2.58658e-06
-3.34856e-05
-3.4183e-07
-3.03443e-05
1.27844e-06
-2.33944e-05
2.22204e-06
-1.70096e-05
2.75778e-06
-1.28496e-05
3.13585e-06
-1.07432e-05
3.49206e-06
-1.00371e-05
3.88567e-06
-1.01105e-05
4.34235e-06
-1.05022e-05
4.87367e-06
-1.08963e-05
5.4801e-06
-1.10736e-05
6.14616e-06
-1.08782e-05
6.83696e-06
-1.02265e-05
7.50356e-06
-9.14077e-06
8.09762e-06
-7.75868e-06
8.58733e-06
-6.28927e-06
8.96523e-06
-4.93194e-06
9.24468e-06
-3.80822e-06
9.44901e-06
-2.94337e-06
9.60092e-06
-2.29555e-06
9.7168e-06
-1.80186e-06
9.80642e-06
-1.41144e-06
9.87534e-06
-1.09514e-06
9.92725e-06
-8.39364e-07
9.9654e-06
-6.36297e-07
9.99277e-06
-4.78174e-07
1.0012e-05
-3.56269e-07
1.00251e-05
-2.62141e-07
1.00338e-05
-1.88836e-07
1.00389e-05
-1.3121e-07
1.00415e-05
-8.56095e-08
1.00421e-05
-4.93894e-08
1.00411e-05
-2.05597e-08
1.00388e-05
2.42784e-09
1.00357e-05
2.06792e-08
1.00318e-05
3.52167e-08
1.00273e-05
4.60624e-08
1.00225e-05
5.49051e-08
1.00172e-05
5.61023e-08
1.00124e-05
6.224e-08
1.00069e-05
1.99947e-08
1.00081e-05
4.06052e-08
1.00028e-05
-3.19295e-07
1.00405e-05
-2.74896e-07
-2.64776e-06
9.34617e-06
5.55715e-05
7.98074e-06
4.50902e-05
5.46513e-06
3.26703e-05
2.80899e-06
2.14826e-05
6.8059e-07
8.14922e-06
-3.68446e-07
4.67072e-06
-1.00998e-06
1.25757e-05
-1.91837e-06
2.5865e-05
-3.22963e-06
3.29831e-05
-4.86158e-06
3.30429e-05
-6.36638e-06
2.73686e-05
-7.29668e-06
1.56044e-05
-7.36732e-06
-3.15448e-07
-6.45529e-06
-1.69769e-05
-4.62556e-06
-3.03484e-05
-2.25541e-06
-3.58558e-05
1.55123e-08
-3.26152e-05
1.68975e-06
-2.50687e-05
2.6573e-06
-1.79771e-05
3.16705e-06
-1.33593e-05
3.4928e-06
-1.10689e-05
3.79162e-06
-1.03359e-05
4.12894e-06
-1.04478e-05
4.53001e-06
-1.09033e-05
5.00692e-06
-1.13733e-05
5.56374e-06
-1.16304e-05
6.19024e-06
-1.15047e-05
6.85547e-06
-1.08917e-05
7.51082e-06
-9.79611e-06
8.10429e-06
-8.35215e-06
8.59847e-06
-6.78345e-06
8.98105e-06
-5.31452e-06
9.26285e-06
-4.09002e-06
9.46698e-06
-3.14751e-06
9.61717e-06
-2.44574e-06
9.73097e-06
-1.91567e-06
9.8189e-06
-1.49936e-06
9.88667e-06
-1.16291e-06
9.93791e-06
-8.9061e-07
9.9757e-06
-6.7408e-07
1.00029e-05
-5.05374e-07
1.00221e-05
-3.75438e-07
1.00353e-05
-2.75331e-07
1.0044e-05
-1.97577e-07
1.00494e-05
-1.36605e-07
1.00522e-05
-8.84596e-08
1.00531e-05
-5.02895e-08
1.00525e-05
-1.99606e-08
1.00508e-05
4.1822e-09
1.00481e-05
2.33332e-08
1.00448e-05
3.85699e-08
1.00409e-05
4.99791e-08
1.00366e-05
5.91894e-08
1.00319e-05
6.0769e-08
1.00277e-05
6.6412e-08
1.00229e-05
2.48598e-08
1.00243e-05
3.92165e-08
1.00192e-05
-3.14243e-07
1.00534e-05
-3.09069e-07
-2.63571e-06
9.48998e-06
5.60815e-05
8.34526e-06
4.62349e-05
6.05775e-06
3.49578e-05
3.42422e-06
2.41162e-05
1.10395e-06
1.04695e-05
-7.9518e-08
5.85419e-06
-6.89247e-07
1.31854e-05
-1.55322e-06
2.67289e-05
-2.82404e-06
3.42539e-05
-4.41046e-06
3.46294e-05
-5.86874e-06
2.88268e-05
-6.76658e-06
1.65022e-05
-6.84458e-06
-2.37448e-07
-5.98135e-06
-1.78401e-05
-4.219e-06
-3.21108e-05
-1.90193e-06
-3.81728e-05
3.71648e-07
-3.48888e-05
2.08453e-06
-2.67815e-05
3.08515e-06
-1.89777e-05
3.58268e-06
-1.38569e-05
3.86385e-06
-1.13501e-05
4.10826e-06
-1.05803e-05
4.39078e-06
-1.07303e-05
4.73713e-06
-1.12496e-05
5.15929e-06
-1.17954e-05
5.66428e-06
-1.21354e-05
6.24732e-06
-1.20877e-05
6.88238e-06
-1.15268e-05
7.52236e-06
-1.04361e-05
8.11246e-06
-8.94225e-06
8.6098e-06
-7.28079e-06
8.99676e-06
-5.70149e-06
9.28106e-06
-4.37432e-06
9.48517e-06
-3.35162e-06
9.63369e-06
-2.59425e-06
9.74536e-06
-2.02734e-06
9.83146e-06
-1.58546e-06
9.89797e-06
-1.22942e-06
9.94846e-06
-9.41098e-07
9.98582e-06
-7.11441e-07
1.00128e-05
-5.32354e-07
1.00319e-05
-3.94519e-07
1.00451e-05
-2.88537e-07
1.00539e-05
-2.06426e-07
1.00595e-05
-1.42192e-07
1.00626e-05
-9.15753e-08
1.00639e-05
-5.15187e-08
1.00637e-05
-1.97454e-08
1.00623e-05
5.5052e-09
1.00601e-05
2.55136e-08
1.00573e-05
4.14115e-08
1.00539e-05
5.33496e-08
1.00502e-05
6.28996e-08
1.00462e-05
6.48358e-08
1.00426e-05
7.00018e-08
1.00383e-05
2.91309e-08
1.00399e-05
3.76527e-08
1.0035e-05
-3.09351e-07
1.00656e-05
-3.39692e-07
-2.6174e-06
9.61478e-06
5.64667e-05
8.67157e-06
4.71781e-05
6.61984e-06
3.70095e-05
4.05291e-06
2.66831e-05
1.58139e-06
1.2941e-05
2.38378e-07
7.19721e-06
-3.64605e-07
1.37884e-05
-1.17502e-06
2.75393e-05
-2.3988e-06
3.54777e-05
-3.93081e-06
3.61614e-05
-5.33211e-06
3.02281e-05
-6.19024e-06
1.73604e-05
-6.27275e-06
-1.54947e-07
-5.45928e-06
-1.86536e-05
-3.7704e-06
-3.37997e-05
-1.52134e-06
-4.04219e-05
7.26996e-07
-3.71372e-05
2.46464e-06
-2.85192e-05
3.50032e-06
-2.00134e-05
3.99784e-06
-1.43544e-05
4.24381e-06
-1.15961e-05
4.43817e-06
-1.07747e-05
4.66808e-06
-1.09602e-05
4.96123e-06
-1.15428e-05
5.32918e-06
-1.21634e-05
5.78117e-06
-1.25874e-05
6.31769e-06
-1.26242e-05
6.9184e-06
-1.21275e-05
7.53893e-06
-1.10566e-05
8.12266e-06
-9.52598e-06
8.62156e-06
-7.77969e-06
9.01242e-06
-6.09236e-06
9.29929e-06
-4.66119e-06
9.50356e-06
-3.55589e-06
9.65048e-06
-2.74117e-06
9.75996e-06
-2.13683e-06
9.84413e-06
-1.66962e-06
9.90927e-06
-1.29457e-06
9.95892e-06
-9.90745e-07
9.9958e-06
-7.48321e-07
1.00225e-05
-5.59074e-07
1.00415e-05
-4.13482e-07
1.00547e-05
-3.01733e-07
1.00636e-05
-2.15362e-07
1.00694e-05
-1.47951e-07
1.00727e-05
-9.49383e-08
1.00743e-05
-5.30598e-08
1.00744e-05
-1.98971e-08
1.00735e-05
6.41412e-09
1.00718e-05
2.72379e-08
1.00694e-05
4.37596e-08
1.00666e-05
5.61931e-08
1.00634e-05
6.60563e-08
1.006e-05
6.83251e-08
1.00569e-05
7.30347e-08
1.00532e-05
3.28418e-08
1.00549e-05
3.59479e-08
1.00501e-05
-3.04537e-07
1.00772e-05
-3.66832e-07
-2.59315e-06
9.72343e-06
5.67433e-05
8.96211e-06
4.79394e-05
7.14778e-06
3.88238e-05
4.68574e-06
2.91451e-05
2.10773e-06
1.5519e-05
5.89028e-07
8.71591e-06
-3.20894e-08
1.44095e-05
-7.84205e-07
2.82915e-05
-1.95394e-06
3.66475e-05
-3.42286e-06
3.76303e-05
-4.75781e-06
3.15631e-05
-5.57031e-06
1.81729e-05
-5.65474e-06
-7.05259e-08
-4.8913e-06
-1.9417e-05
-3.28031e-06
-3.54106e-05
-1.11073e-06
-4.25915e-05
1.09081e-06
-3.93387e-05
2.8337e-06
-3.02621e-05
3.90013e-06
-2.10798e-05
4.40679e-06
-1.4861e-05
4.62756e-06
-1.18168e-05
4.77758e-06
-1.09247e-05
4.9578e-06
-1.11404e-05
5.19979e-06
-1.17848e-05
5.51478e-06
-1.24784e-05
5.9135e-06
-1.29861e-05
6.40131e-06
-1.3112e-05
6.96406e-06
-1.26903e-05
7.5612e-06
-1.16538e-05
8.13541e-06
-1.01002e-05
8.63403e-06
-8.27832e-06
9.02811e-06
-6.48643e-06
9.31752e-06
-4.95059e-06
9.5221e-06
-3.76046e-06
9.66751e-06
-2.88658e-06
9.77478e-06
-2.2441e-06
9.85692e-06
-1.75176e-06
9.9206e-06
-1.35824e-06
9.96932e-06
-1.03947e-06
1.00057e-05
-7.84663e-07
1.00321e-05
-5.85494e-07
1.00509e-05
-4.32297e-07
1.00641e-05
-3.14897e-07
1.00731e-05
-2.24363e-07
1.0079e-05
-1.53864e-07
1.00826e-05
-9.85314e-08
1.00844e-05
-5.48962e-08
1.00849e-05
-2.03997e-08
1.00844e-05
6.92472e-09
1.00831e-05
2.85223e-08
1.00812e-05
4.56311e-08
1.00789e-05
5.85272e-08
1.00763e-05
6.8678e-08
1.00733e-05
7.12578e-08
1.00709e-05
7.55337e-08
1.00677e-05
3.60247e-08
1.00695e-05
3.41323e-08
1.00647e-05
-2.99721e-07
1.00884e-05
-3.90578e-07
-2.56326e-06
9.81843e-06
5.69249e-05
9.2196e-06
4.85382e-05
7.63911e-06
4.04043e-05
5.31413e-06
3.14701e-05
2.67546e-06
1.81577e-05
9.74588e-07
1.04168e-05
2.94795e-07
1.50893e-05
-3.82448e-07
2.89687e-05
-1.48986e-06
3.77549e-05
-2.88749e-06
3.90279e-05
-4.14801e-06
3.28236e-05
-4.9101e-06
1.8935e-05
-4.99405e-06
1.34234e-08
-4.28025e-06
-2.01308e-05
-2.75024e-06
-3.69407e-05
-6.69073e-07
-4.46726e-05
1.46775e-06
-4.14755e-05
3.19593e-06
-3.19902e-05
4.28406e-06
-2.2168e-05
4.80519e-06
-1.53822e-05
5.01039e-06
-1.2022e-05
5.12277e-06
-1.10371e-05
5.25699e-06
-1.12746e-05
5.45029e-06
-1.19781e-05
5.71414e-06
-1.27422e-05
6.06012e-06
-1.33321e-05
6.49788e-06
-1.35498e-05
7.01966e-06
-1.32121e-05
7.58974e-06
-1.22238e-05
8.15123e-06
-1.06617e-05
8.64753e-06
-8.77461e-06
9.04393e-06
-6.88284e-06
9.33573e-06
-5.2424e-06
9.54075e-06
-3.96548e-06
9.68475e-06
-3.03058e-06
9.7898e-06
-2.34916e-06
9.86983e-06
-1.83179e-06
9.93194e-06
-1.42035e-06
9.97966e-06
-1.08718e-06
1.00154e-05
-8.20407e-07
1.00415e-05
-6.11573e-07
1.00601e-05
-4.50936e-07
1.00732e-05
-3.28004e-07
1.00823e-05
-2.33409e-07
1.00883e-05
-1.59912e-07
1.00921e-05
-1.02338e-07
1.00942e-05
-5.70123e-08