/*--------------------------------*- C++ -*----------------------------------*\
| =========                 |                                                 |
| \\      /  F ield         | OpenFOAM: The Open Source CFD Toolbox           |
|  \\    /   O peration     | Version:  2.4.0                                 |
|   \\  /    A nd           | Web:      www.OpenFOAM.org                      |
|    \\/     M anipulation  |                                                 |
\*---------------------------------------------------------------------------*/
FoamFile
{
    version     2.0;
    format      ascii;
    class       volScalarField;
    location    "6.5";
    object      k;
}
// * * * * * * * * * * * * * * * * * * * * * * * * * * * * * * * * * * * * * //

dimensions      [0 2 -2 0 0 0 0];

internalField   nonuniform List<scalar> 
6000
(
0.168224
0.0132711
0.000978496
0.00362157
0.00250565
0.00292601
0.00242142
0.00239082
0.00212433
0.00204898
0.00191469
0.00187597
0.00183806
0.00185901
0.0019008
0.00198469
0.00209512
0.00223989
0.00241261
0.0026159
0.00284674
0.00310504
0.00338803
0.00369327
0.00401659
0.0043535
0.00469844
0.00504487
0.00538478
0.00570883
0.00600633
0.00626549
0.00647358
0.00661681
0.0066813
0.0066541
0.00652417
0.00628222
0.00592528
0.00545462
0.00488757
0.00424893
0.00359095
0.00319025
0.00422996
0.00554282
0.00709473
0.00904083
0.0111895
0.0139564
0.0166889
0.0206423
0.0237825
0.0298742
0.0327514
0.0435599
0.0439882
0.0667114
0.0591443
0.111305
0.0762047
0.0101513
0.000944482
0.00240528
0.00171407
0.00192202
0.00160839
0.00156892
0.00140105
0.00134463
0.00125918
0.00123046
0.00120568
0.00121631
0.00124122
0.00129135
0.00135795
0.00144463
0.00154766
0.00166795
0.00180364
0.00195435
0.00211848
0.00229468
0.00248088
0.00267501
0.00287465
0.00307712
0.00327919
0.00347724
0.00366728
0.00384502
0.004006
0.00414519
0.00425807
0.00434052
0.00438957
0.00440342
0.00438334
0.00433326
0.00426449
0.00419216
0.00413598
0.00415827
0.00466286
0.00524975
0.00592844
0.006769
0.00770247
0.00889893
0.010107
0.0118269
0.0132723
0.0159195
0.0173953
0.0220257
0.0227883
0.0322961
0.0303866
0.0515695
0.0412217
0.00803004
0.000973309
0.00168808
0.00122337
0.00131297
0.00110723
0.00106702
0.000957344
0.000915571
0.000861002
0.000842182
0.000829179
0.00083936
0.000860856
0.000899445
0.000950277
0.00101514
0.00109202
0.00118135
0.0012822
0.00139442
0.00151731
0.00165035
0.00179275
0.0019438
0.00210274
0.00226878
0.00244101
0.00261847
0.00280021
0.00298539
0.00317332
0.00336292
0.00355358
0.00374525
0.00393877
0.00413599
0.00434041
0.00455716
0.0047939
0.00505827
0.00534569
0.00560579
0.00591188
0.00618872
0.00646989
0.00679248
0.00714677
0.00760155
0.0080778
0.00876674
0.00938742
0.0105033
0.0112312
0.0132339
0.0138481
0.0179583
0.0178045
0.0268076
0.0260623
0.00677423
0.00107066
0.00126679
0.000916201
0.000934335
0.000789956
0.000751352
0.000676969
0.00064638
0.000612325
0.000602699
0.000600338
0.000615
0.000640046
0.000678686
0.000728393
0.000790268
0.000863459
0.000948438
0.00104502
0.00115347
0.00127379
0.00140613
0.00155055
0.00170723
0.00187639
0.00205829
0.00225323
0.00246157
0.00268378
0.00292056
0.00317277
0.00344017
0.00372335
0.00402342
0.00434185
0.00468075
0.00504275
0.00543105
0.00584858
0.00629594
0.00675323
0.00713504
0.00742556
0.00763127
0.00778719
0.00791296
0.00802161
0.00813893
0.00825903
0.00844549
0.0086274
0.00899556
0.0092711
0.0100417
0.0103864
0.0121028
0.0123573
0.0162927
0.0187963
0.00609217
0.00123208
0.00103246
0.000726713
0.00069619
0.000585752
0.000548614
0.000495983
0.000473938
0.000454268
0.000453195
0.000460846
0.000482829
0.00051556
0.000561025
0.000618168
0.00068795
0.000770367
0.000866147
0.000975725
0.00109978
0.00123888
0.00139368
0.00156481
0.00175295
0.00195886
0.00218332
0.00242711
0.00269103
0.00297593
0.00328275
0.00361221
0.00396278
0.00433518
0.00472985
0.00514715
0.00558775
0.00605234
0.0065417
0.00705574
0.0075918
0.00812294
0.00856943
0.00890954
0.00914899
0.00931539
0.00941697
0.00947016
0.00947986
0.00946502
0.0094357
0.00940338
0.0094073
0.00941218
0.00956956
0.00966375
0.0102363
0.0104473
0.0121957
0.015049
0.00576628
0.00144809
0.000925016
0.000616993
0.000547602
0.000453957
0.000417054
0.00037782
0.000362325
0.00035335
0.000360417
0.000377886
0.000409105
0.000452323
0.000509009
0.000579084
0.000663626
0.000763258
0.000879016
0.0010118
0.00116262
0.00133241
0.00152211
0.00173259
0.00196471
0.00221936
0.00249734
0.00279938
0.00312609
0.00347801
0.00385564
0.00425789
0.0046824
0.00512938
0.00559813
0.00608773
0.00659752
0.00712681
0.00767505
0.00824115
0.00882189
0.0093857
0.00987327
0.0102697
0.0105669
0.0107855
0.0109274
0.0110081
0.0110222
0.0109944
0.0109113
0.010812
0.0106732
0.0105516
0.0104225
0.0103491
0.0103646
0.0104325
0.0112181
0.0130163
0.00565589
0.00170748
0.000909844
0.000565148
0.000459
0.000370559
0.000332144
0.000300875
0.00029039
0.00028984
0.000304832
0.000332214
0.000374096
0.000429847
0.000500765
0.000587429
0.000691107
0.000812855
0.000953954
0.00111558
0.00129891
0.00150502
0.00173489
0.00198936
0.00226921
0.00257513
0.00290771
0.00326731
0.00365411
0.00406805
0.00450906
0.00497318
0.00545903
0.00596573
0.00649167
0.00703501
0.0075942
0.0081678
0.0087547
0.00935369
0.00996063
0.0105423
0.0110594
0.0115015
0.0118503
0.012121
0.0123125
0.0124396
0.0124921
0.012497
0.0124298
0.0123399
0.0121761
0.0120294
0.0118007
0.0116597
0.011432
0.0114
0.0117624
0.011878
0.00567207
0.00199808
0.000965374
0.000559023
0.00041303
0.000321108
0.000279119
0.000252031
0.000245303
0.000251715
0.000274534
0.000312053
0.00036568
0.00043545
0.000522622
0.000628192
0.000753583
0.000900096
0.00106914
0.00126198
0.00147983
0.00172372
0.00199451
0.00229289
0.00261939
0.00297446
0.00335834
0.00377098
0.00421208
0.004681
0.00517649
0.00569336
0.00623062
0.00678657
0.00735891
0.00794512
0.00854309
0.0091509
0.00976716
0.0103908
0.011015
0.0116089
0.0121481
0.0126233
0.0130107
0.0133221
0.0135542
0.0137221
0.0138131
0.0138562
0.0138218
0.013765
0.0136214
0.0134982
0.0132616
0.0131262
0.0128251
0.0127713
0.0129513
0.0112304
0.00575859
0.00230725
0.00107762
0.000590867
0.00039963
0.000296861
0.000248953
0.000223166
0.000219079
0.000231425
0.000261993
0.00030987
0.000376007
0.000460787
0.000565439
0.000691173
0.000839485
0.00101177
0.00120947
0.00143384
0.00168603
0.00196695
0.00227732
0.0026176
0.0029881
0.00338895
0.0038201
0.00428109
0.00477117
0.00528922
0.00583226
0.00639537
0.00697732
0.00757574
0.00818782
0.00881046
0.00944112
0.0100776
0.0107182
0.0113622
0.0119975
0.0126014
0.0131566
0.0136539
0.0140679
0.0144076
0.0146684
0.0148657
0.0149859
0.0150593
0.0150539
0.0150295
0.0149144
0.0148271
0.0146148
0.0145181
0.0142216
0.0142029
0.014302
0.0108621
0.00588
0.00262252
0.00123555
0.000655894
0.000413337
0.000292642
0.000236132
0.000209196
0.000206659
0.000224101
0.000262283
0.00032064
0.00039975
0.00050009
0.000622809
0.000769174
0.000940684
0.00113874
0.00136476
0.00161996
0.00190542
0.00222192
0.00257002
0.00294997
0.00336182
0.00380543
0.00428043
0.004786
0.00532097
0.00588389
0.00646942
0.00707423
0.00769624
0.00833252
0.00897982
0.00963455
0.0102938
0.0109552
0.0116169
0.012277
0.01292
0.0135313
0.0140974
0.0146082
0.0150387
0.0153964
0.0156753
0.0158914
0.0160303
0.016124
0.0161391
0.0161387
0.0160476
0.0159924
0.0158093
0.0157574
0.0154917
0.0155323
0.0155874
0.010657
0.00601447
0.00293245
0.001429
0.000750722
0.000451458
0.000305615
0.00023738
0.000206975
0.000204818
0.000226552
0.000272097
0.000340913
0.000433183
0.000549281
0.000690204
0.00085717
0.00105164
0.001275
0.00152862
0.00181371
0.00213124
0.0024819
0.00286608
0.0032838
0.00373485
0.00421882
0.00473504
0.0052823
0.00585908
0.00646315
0.00708797
0.00773107
0.00838966
0.00906032
0.00973939
0.0104229
0.0111075
0.0117907
0.0124708
0.0131423
0.0137907
0.0144072
0.0149796
0.0154969
0.0159361
0.0163032
0.0165917
0.0168177
0.0169667
0.0170718
0.0170988
0.0171139
0.0170392
0.0170082
0.0168495
0.0168377
0.0166056
0.0167083
0.01673
0.0105488
0.00614911
0.00322747
0.00164788
0.000872957
0.000512105
0.000334571
0.000250925
0.00021464
0.000211544
0.000236692
0.000289201
0.000368296
0.000473694
0.000605505
0.000764511
0.000951814
0.00116884
0.00141691
0.00169743
0.00201153
0.00236013
0.0027438
0.00316273
0.00361672
0.00410529
0.00462773
0.00518309
0.0057698
0.00638597
0.00702819
0.00768974
0.00836837
0.00906068
0.00976281
0.0104708
0.0111801
0.0118873
0.0125896
0.0132848
0.0139635
0.0146157
0.0152347
0.0158091
0.0163275
0.0167691
0.017139
0.0174303
0.0176593
0.0178115
0.0179207
0.0179528
0.0179757
0.0179106
0.0178959
0.0177552
0.0177755
0.0175722
0.0177307
0.0177202
0.0104986
0.00627688
0.00350046
0.00188199
0.0010198
0.000593874
0.00037953
0.000276063
0.000231237
0.000225664
0.000253206
0.000312114
0.000401161
0.0005195
0.000666843
0.000843705
0.00105103
0.00129019
0.00156249
0.00186929
0.00221173
0.00259062
0.00300638
0.00345903
0.0039481
0.00447281
0.00503218
0.00562495
0.00624922
0.00690282
0.00758062
0.00827666
0.00898841
0.00971191
0.0104429
0.0111771
0.0119095
0.0126367
0.0133556
0.0140617
0.0147447
0.0153986
0.0160175
0.0165902
0.0171052
0.0175441
0.0179115
0.0182002
0.0184267
0.0185767
0.0186844
0.0187161
0.0187409
0.0186798
0.0186748
0.0185461
0.0185912
0.0184101
0.0186156
0.0185721
0.0104827
0.00639444
0.0037469
0.00212145
0.00118753
0.000695893
0.00044061
0.000312894
0.000256484
0.000246623
0.000275347
0.000339916
0.000438455
0.000569445
0.000732086
0.000926565
0.00115363
0.00141462
0.00171074
0.0020434
0.00241364
0.0028222
0.00326934
0.00375483
0.00427797
0.00483765
0.00543258
0.00606128
0.00672144
0.00741068
0.00812176
0.0088502
0.00959283
0.0103452
0.0111026
0.0118604
0.0126135
0.013358
0.0140906
0.0148031
0.0154883
0.0161418
0.0167579
0.0173256
0.0178335
0.0182656
0.0186261
0.018908
0.0191275
0.0192711
0.0193729
0.0194
0.0194221
0.0193605
0.0193602
0.0192386
0.0193021
0.0191374
0.0193816
0.0193041
0.010487
0.00650068
0.00396473
0.00235722
0.00137133
0.000817214
0.000517717
0.000362177
0.000290632
0.000274347
0.000302807
0.000372112
0.000479561
0.000622844
0.000800533
0.00101242
0.00125902
0.00154159
0.00186128
0.00221944
0.00261708
0.00305481
0.00353269
0.00405028
0.00460656
0.00520013
0.0058294
0.00649261
0.0071871
0.00790987
0.0086525
0.00941133
0.0101827
0.0109616
0.011743
0.0125221
0.0132933
0.0140526
0.0147947
0.0155105
0.016196
0.0168468
0.0174574
0.018017
0.0185146
0.0189364
0.0192865
0.0195581
0.0197672
0.019901
0.0199934
0.0200126
0.0200285
0.0199632
0.0199633
0.0198452
0.019922
0.019769
0.0200443
0.0199327
0.0105025
0.00659577
0.00415391
0.00258169
0.0015654
0.000956176
0.000610801
0.000424759
0.000334385
0.000309159
0.00033563
0.000408544
0.000524191
0.000679352
0.000871836
0.00110097
0.00136695
0.00167095
0.00201399
0.00239741
0.0028221
0.00328853
0.00379659
0.00434556
0.00493413
0.00556056
0.00622295
0.00691932
0.00764663
0.00840092
0.00917332
0.00996056
0.0107585
0.0115617
0.0123647
0.0131626
0.0139494
0.0147205
0.0154678
0.0161847
0.0168682
0.017514
0.0181166
0.0186652
0.0191498
0.0195585
0.0198952
0.0201536
0.0203494
0.0204708
0.0205511
0.0205599
0.0205669
0.0204953
0.0204928
0.0203753
0.0204613
0.0203163
0.0206163
0.0204712
0.0105238
0.0066805
0.00431594
0.00278901
0.00176331
0.00111015
0.000719801
0.000501026
0.000388851
0.000351727
0.000374164
0.000449325
0.000572307
0.00073886
0.000945877
0.00119212
0.00147738
0.00180271
0.00216895
0.00257739
0.00302882
0.00352353
0.00406119
0.00464083
0.00526083
0.00591909
0.00661339
0.00734158
0.00810024
0.008884
0.00968437
0.010498
0.0113204
0.0121455
0.0129678
0.0137821
0.0145819
0.0153604
0.01611
0.0168259
0.0175051
0.0181434
0.0187356
0.0192707
0.0197399
0.0201327
0.0204536
0.0206964
0.0208768
0.0209835
0.0210497
0.0210462
0.0210421
0.0209624
0.0209549
0.0208359
0.0209278
0.0207882
0.0211074
0.02093
0.0105474
0.00675592
0.0044533
0.0029753
0.00195854
0.00127546
0.000844022
0.000591272
0.000455141
0.000403037
0.000419028
0.000494801
0.000624067
0.000801434
0.00102269
0.00128592
0.00159037
0.00193695
0.00232627
0.00275952
0.00323737
0.00375992
0.00432663
0.00493621
0.00558675
0.00627578
0.00700077
0.0077594
0.00854793
0.00935909
0.0101855
0.0110235
0.0118682
0.012713
0.0135521
0.0143801
0.0151893
0.0159714
0.0167211
0.0174337
0.0181063
0.0187348
0.019314
0.0198333
0.0202848
0.0206598
0.0209626
0.0211878
0.0213509
0.0214412
0.0214917
0.0214744
0.0214577
0.0213685
0.0213541
0.0212322
0.0213273
0.0211912
0.0215249
0.0213172
0.0105712
0.0068231
0.00456901
0.00313858
0.00214502
0.00144747
0.000981906
0.000695697
0.000533916
0.000464366
0.000471105
0.000545533
0.000679799
0.000867269
0.0011024
0.00138249
0.00170606
0.00207384
0.0024861
0.00294395
0.00344789
0.00399783
0.00459296
0.00523173
0.00591188
0.0066306
0.00738499
0.00817263
0.0089891
0.00982592
0.0106765
0.0115367
0.0124014
0.0132634
0.0141168
0.0149558
0.0157699
0.0165532
0.0173006
0.0180074
0.018671
0.0192873
0.0198512
0.0203525
0.0207843
0.0211395
0.0214225
0.0216285
0.0217726
0.0218453
0.0218788
0.0218466
0.0218162
0.0217165
0.021694
0.0215681
0.0216643
0.0215304
0.0218745
0.021639
0.0105941
0.00688304
0.00466623
0.00327853
0.00231764
0.00162092
0.0011309
0.000813918
0.000625725
0.000536902
0.000531527
0.000602294
0.00073999
0.000936674
0.00118524
0.00148201
0.0018246
0.00221353
0.00264859
0.00313081
0.00366048
0.00423731
0.00486022
0.00552737
0.00623615
0.0069834
0.00776584
0.00858102
0.00942337
0.0102841
0.0111568
0.012037
0.0129194
0.0137962
0.0146613
0.0155063
0.0163228
0.0171048
0.0178474
0.0185462
0.0191983
0.0198001
0.0203465
0.0208277
0.021238
0.0215715
0.0218331
0.0220184
0.0221425
0.0221965
0.0222122
0.0221643
0.0221194
0.0220087
0.0219771
0.0218465
0.0219422
0.0218096
0.0221608
0.0219004
0.0106153
0.0069366
0.00474805
0.00339616
0.00247258
0.0017903
0.00128744
0.000944761
0.000730817
0.000621524
0.000601666
0.00066607
0.000805287
0.00101006
0.00127147
0.0015847
0.00194619
0.00235618
0.00281389
0.00332021
0.00387523
0.0044784
0.00512839
0.00582304
0.00655942
0.00733396
0.00814304
0.00898424
0.00985032
0.010733
0.0116257
0.0125237
0.0134214
0.0143104
0.0151827
0.0160309
0.016847
0.0176253
0.0183606
0.0190487
0.0196871
0.0202719
0.0207986
0.0212578
0.0216449
0.0219553
0.0221941
0.0223576
0.0224606
0.0224951
0.0224923
0.0224283
0.0223686
0.0222465
0.0222053
0.0220697
0.0221634
0.0220318
0.0223874
0.0221053
0.0106345
0.00698453
0.00481727
0.00349342
0.0026075
0.00195034
0.00144713
0.00108612
0.000848845
0.000718794
0.000682935
0.000738053
0.000876501
0.00108795
0.00136143
0.00169079
0.002071
0.00250195
0.00298212
0.00351225
0.00409218
0.0047211
0.0053974
0.0061186
0.00688145
0.00768201
0.00851622
0.00938186
0.0102694
0.0111721
0.0120826
0.0129959
0.0139063
0.0148032
0.0156796
0.0165284
0.0173416
0.0181134
0.0188389
0.0195138
0.0201359
0.0207016
0.0212064
0.0216418
0.0220041
0.02229
0.0225047
0.0226454
0.0227266
0.0227412
0.0227196
0.0226394
0.0225647
0.0224311
0.0223799
0.0222393
0.0223301
0.0221995
0.0225571
0.022257
0.0106516
0.00702745
0.00487629
0.00357283
0.0027215
0.00209651
0.001605
0.00123491
0.000978679
0.000828815
0.000776203
0.000819939
0.000954622
0.00117098
0.0014555
0.00180055
0.00219921
0.00265099
0.00315337
0.00370697
0.00431132
0.00496534
0.00566712
0.00641386
0.00720197
0.00802717
0.00888491
0.00977306
0.01068
0.0116006
0.0125265
0.0134527
0.0143713
0.0152731
0.016151
0.0169975
0.0178052
0.0185678
0.0192808
0.01994
0.0205434
0.0210876
0.0215685
0.0219784
0.0223145
0.0225745
0.0227643
0.0228814
0.0229402
0.0229345
0.022894
0.0227976
0.022708
0.0225633
0.0225021
0.0223567
0.0224439
0.0223146
0.0226723
0.022358
0.0106666
0.00706586
0.00492717
0.00363716
0.002815
0.00222534
0.00175594
0.00138713
0.00111827
0.000951051
0.000881842
0.000913011
0.00104133
0.00125988
0.00155413
0.00191424
0.00233098
0.00280338
0.0033277
0.00390439
0.00453262
0.00521102
0.00593737
0.00670854
0.00752062
0.00836899
0.00924858
0.010157
0.0110812
0.0120176
0.0129558
0.0138909
0.0148149
0.015719
0.0165955
0.0174371
0.0182362
0.0189871
0.0196848
0.0203258
0.020908
0.0214285
0.0218835
0.0222662
0.0225747
0.0228079
0.0229717
0.0230646
0.0231007
0.0230746
0.0230154
0.0229031
0.0227989
0.0226436
0.0225725
0.0224228
0.0225061
0.0223786
0.0227351
0.0224106
0.0106796
0.00710023
0.00497153
0.00368915
0.00288944
0.00233466
0.00189515
0.00153812
0.0012646
0.00108415
0.000999672
0.00101775
0.0011382
0.00135627
0.00165781
0.0020321
0.00246643
0.00295917
0.00350509
0.00410442
0.00475593
0.00545793
0.00620786
0.00700227
0.00783692
0.00870692
0.00960659
0.010533
0.0114723
0.0124206
0.0133682
0.0143094
0.0152361
0.0161394
0.0170117
0.0178454
0.0186333
0.0193694
0.0200493
0.0206694
0.021228
0.0217226
0.0221499
0.0225038
0.0227835
0.0229887
0.0231259
0.0231941
0.0232075
0.0231611
0.0230834
0.0229557
0.0228376
0.0226723
0.022592
0.0224386
0.0225178
0.0223929
0.0227472
0.0224168
0.0106909
0.00713093
0.00501065
0.00373137
0.00294698
0.00242364
0.00201855
0.00168286
0.00141371
0.00122584
0.00112879
0.00113416
0.00124567
0.00146153
0.00176839
0.00215438
0.00260561
0.00311831
0.00368542
0.0043069
0.00498103
0.00570576
0.00647821
0.00729457
0.00815032
0.0090403
0.00995819
0.0108989
0.0118505
0.0128081
0.0137624
0.0147068
0.0156333
0.016533
0.0173981
0.018221
0.0189947
0.0197133
0.0203725
0.0209692
0.0215019
0.0219684
0.0223661
0.0226897
0.0229395
0.0231159
0.0232258
0.0232691
0.0232597
0.0231933
0.0230977
0.0229553
0.022824
0.0226496
0.0225607
0.0224046
0.0224798
0.0223586
0.02271
0.022378
0.0107005
0.00715831
0.00504554
0.00376607
0.0029902
0.0024927
0.00212317
0.00181643
0.00156096
0.00137284
0.0012674
0.00126159
0.0013638
0.00157593
0.0018864
0.00228266
0.0027494
0.00328062
0.00386843
0.0045115
0.00520753
0.00595408
0.0067479
0.00758484
0.00845974
0.00936709
0.0103008
0.0112533
0.0122146
0.0131788
0.0141369
0.0150817
0.016005
0.0168981
0.017753
0.0185621
0.0193185
0.0200167
0.0206526
0.0212233
0.0217276
0.022164
0.0225303
0.0228223
0.0230411
0.0231879
0.0232702
0.0232885
0.0232564
0.0231705
0.0230577
0.0229016
0.0227581
0.0225758
0.0224792
0.0223214
0.022393
0.0222766
0.022625
0.0222957
0.0107087
0.00718268
0.00507691
0.00379513
0.00302182
0.00254334
0.00220732
0.00193441
0.00170124
0.00152098
0.00141275
0.00139856
0.001492
0.00169935
0.00201175
0.00241673
0.00289775
0.00344656
0.00405418
0.00471791
0.00543476
0.00620184
0.00701552
0.0078713
0.00876343
0.00968608
0.0106328
0.0115948
0.0125631
0.0135312
0.0144901
0.0154323
0.0163495
0.0172328
0.0180743
0.0188666
0.0196029
0.0202779
0.0208876
0.0214298
0.0219034
0.0223076
0.022641
0.0229001
0.0230869
0.0232036
0.023258
0.0232512
0.0231968
0.0230922
0.022963
0.0227944
0.0226399
0.022451
0.0223478
0.0221896
0.0222581
0.022148
0.0224934
0.0221713
0.0107156
0.00720434
0.00510534
0.00382007
0.00304448
0.00257777
0.00227066
0.00203337
0.00182951
0.00166539
0.00156108
0.00154265
0.00162892
0.00183109
0.002144
0.00255607
0.00304998
0.00361528
0.00424172
0.00492511
0.00566162
0.00644788
0.00727986
0.00815268
0.00906003
0.00999584
0.0109528
0.0119217
0.0128943
0.0138635
0.0148203
0.0157569
0.0166647
0.0175352
0.0183603
0.0191326
0.0198458
0.0204946
0.0210755
0.0215866
0.0220274
0.0223975
0.0226963
0.0229213
0.0230754
0.0231615
0.0231878
0.0231562
0.0230802
0.0229575
0.0228131
0.0226332
0.0224691
0.0222751
0.0221667
0.0220095
0.0220758
0.0219735
0.0223164
0.0220058
0.0107215
0.00722356
0.00513122
0.00384205
0.00306056
0.00259872
0.00231409
0.00211111
0.00194114
0.00180079
0.00170778
0.00169043
0.00177231
0.00196976
0.00228216
0.00269974
0.00320505
0.00378563
0.00442978
0.00513172
0.0058867
0.00669074
0.00753939
0.00842739
0.00934789
0.0102947
0.011259
0.0122323
0.0132064
0.0141737
0.0151254
0.0160532
0.0169486
0.017803
0.0186085
0.0193579
0.0200449
0.0206647
0.0212142
0.0216918
0.0220976
0.0224317
0.0226945
0.0228844
0.0230051
0.0230603
0.0230586
0.0230026
0.0229055
0.0227659
0.0226076
0.0224179
0.0222458
0.0220484
0.0219362
0.0217817
0.0218469
0.021754
0.022095
0.0218003
0.0107263
0.00724059
0.00515485
0.00386193
0.00307211
0.00260903
0.00233952
0.0021668
0.00203245
0.00192195
0.00184758
0.0018375
0.00191892
0.0021131
0.00242455
0.00284629
0.00336146
0.00395597
0.00461665
0.00533598
0.00610817
0.00692855
0.00779221
0.0086935
0.00962503
0.0105803
0.0115494
0.0125244
0.0134971
0.0144596
0.015403
0.0163189
0.0171987
0.0180339
0.0188167
0.01954
0.0201979
0.0207859
0.0213014
0.0217431
0.0221119
0.0224084
0.0226338
0.0227878
0.0228745
0.0228987
0.0228692
0.0227894
0.0226722
0.0225168
0.022346
0.0221482
0.0219699
0.0217709
0.0216567
0.0215067
0.0215718
0.0214903
0.0218304
0.021556
0.0107304
0.00725566
0.00517647
0.00388031
0.00308081
0.00261151
0.00234961
0.00220101
0.00210099
0.00202418
0.00197497
0.00197871
0.00206451
0.00225788
0.00256868
0.00299356
0.00351713
0.00412418
0.0048001
0.00553562
0.00632374
0.007159
0.00803599
0.00894865
0.00988906
0.0108502
0.0118215
0.0127955
0.013764
0.0147187
0.0156507
0.0165515
0.0174125
0.0182253
0.0189822
0.0196764
0.0203023
0.0208558
0.0213347
0.0217384
0.0220682
0.0223256
0.0225125
0.0226298
0.0226823
0.0226754
0.0226186
0.0225157
0.0223795
0.0222098
0.0220281
0.021824
0.0216414
0.0214429
0.0213286
0.0211849
0.0212515
0.0211833
0.0215235
0.0212737
0.0107337
0.007269
0.00519627
0.00389758
0.00308793
0.0026087
0.00234741
0.00221551
0.00214581
0.00210375
0.00208461
0.00210841
0.00220401
0.00239994
0.00271119
0.00313866
0.00366931
0.0042875
0.00497734
0.00572779
0.00653054
0.00737924
0.00826788
0.00918999
0.0101371
0.0111015
0.0120724
0.0130428
0.0140041
0.0149479
0.0158654
0.016748
0.017587
0.0183743
0.0191022
0.0197644
0.0203555
0.0208719
0.0213119
0.0216755
0.0219645
0.0221814
0.0223289
0.0224089
0.022427
0.0223895
0.0223059
0.0221808
0.0220269
0.0218444
0.0216537
0.0214453
0.0212605
0.0210646
0.0209522
0.0208171
0.0208866
0.0208339
0.0211756
0.0209545
0.0107365
0.0072808
0.0052144
0.003914
0.00309441
0.00260278
0.00233608
0.00221301
0.00216741
0.0021583
0.00217186
0.00222091
0.00233174
0.00253424
0.00284781
0.00327787
0.00381454
0.00444249
0.00514489
0.00590901
0.00672509
0.00758579
0.00848445
0.00941413
0.0103659
0.0113308
0.0122989
0.0132629
0.0142141
0.0151441
0.016044
0.0169052
0.0177192
0.0184778
0.0191738
0.0198011
0.0203547
0.0208315
0.0212304
0.021552
0.0217988
0.021974
0.0220813
0.0221237
0.0221075
0.0220397
0.0219302
0.0217842
0.021614
0.0214205
0.0212227
0.0210122
0.0208274
0.0206366
0.0205281
0.0204037
0.0204779
0.0204428
0.0207876
0.0205994
0.0107388
0.00729126
0.005231
0.00392969
0.00310087
0.00259551
0.00231862
0.00219681
0.0021677
0.00218704
0.00223326
0.00231099
0.00244185
0.00265515
0.00297349
0.00340669
0.00394859
0.004585
0.0052986
0.00607508
0.00690322
0.00777452
0.00868163
0.00961705
0.0105713
0.0115344
0.0124972
0.013452
0.0143903
0.0153036
0.0161829
0.0170197
0.0178056
0.0185326
0.0191938
0.0197834
0.020297
0.0207319
0.0210877
0.0213656
0.0215688
0.0217015
0.0217682
0.0217728
0.0217227
0.0216253
0.021491
0.0213254
0.0211406
0.0209379
0.0207353
0.020525
0.0203427
0.0201592
0.0200571
0.0199457
0.0200265
0.0200113
0.0203607
0.0202093
0.0107407
0.00730053
0.0052462
0.00394473
0.00310769
0.00258822
0.00229772
0.00217045
0.00214963
0.00219082
0.00226688
0.00237439
0.00252876
0.00275677
0.00308262
0.00351994
0.00406657
0.00471023
0.00543363
0.00622114
0.00706005
0.00794062
0.00885466
0.00979411
0.0107487
0.0117077
0.0126628
0.013606
0.0145287
0.0154224
0.0162782
0.0170876
0.0178424
0.018535
0.0191587
0.0197081
0.0201794
0.0205704
0.0208812
0.021114
0.0212727
0.0213621
0.0213879
0.0213551
0.0212717
0.0211457
0.0209877
0.0208042
0.0206067
0.0203971
0.0201918
0.0199842
0.0198068
0.0196333
0.0195399
0.019444
0.0195333
0.0195403
0.0198962
0.0197854
0.0107422
0.00730876
0.00526011
0.00395913
0.00311505
0.00258184
0.00227559
0.0021374
0.00211689
0.00217195
0.00227251
0.00240828
0.00258775
0.00283342
0.00316935
0.00361197
0.00416305
0.00481278
0.00554452
0.00634166
0.00719003
0.00807857
0.00899812
0.00993997
0.0108928
0.0118458
0.012791
0.01372
0.0146245
0.0154959
0.0163254
0.0171047
0.0178258
0.0184814
0.0190651
0.019572
0.0199987
0.020344
0.0206085
0.0207951
0.0209084
0.0209544
0.0209394
0.0208696
0.0207537
0.0206003
0.0204204
0.0202207
0.0200126
0.0197982
0.0195928
0.0193905
0.0192206
0.0190598
0.0189776
0.0188996
0.0189995
0.019031
0.0193953
0.0193287
0.0107434
0.0073161
0.00527285
0.00397291
0.00312301
0.00257695
0.00225398
0.00210081
0.00207348
0.00213394
0.00225174
0.00241163
0.00261541
0.00288015
0.00322805
0.00367703
0.0042323
0.0048869
0.00562539
0.0064306
0.00728704
0.00818222
0.00910591
0.0100487
0.0109979
0.0119431
0.0128762
0.0137889
0.0146727
0.0155193
0.01632
0.0170667
0.0177515
0.0183676
0.018909
0.0193714
0.019752
0.02005
0.0202671
0.0204066
0.0204743
0.0204768
0.0204215
0.0203156
0.0201684
0.0199892
0.0197891
0.0195754
0.0193589
0.0191423
0.0189393
0.0187448
0.0185852
0.0184397
0.0183713
0.0183137
0.0184265
0.0184848
0.0188594
0.0188403
0.0107444
0.00732265
0.00528452
0.00398606
0.00313151
0.00257385
0.00223414
0.00206336
0.00202338
0.00208103
0.00220767
0.0023853
0.00261013
0.00289335
0.00325388
0.0037097
0.00426868
0.00492675
0.00567015
0.00648162
0.00734451
0.00824492
0.0091714
0.0101136
0.0110577
0.0119934
0.0129126
0.0138068
0.0146679
0.0154874
0.0162569
0.0169686
0.017615
0.0181896
0.0186869
0.019103
0.019436
0.0196857
0.0198545
0.0199467
0.0199688
0.0199282
0.0198335
0.0196927
0.0195157
0.0193126
0.0190944
0.018869
0.0186466
0.0184304
0.0182324
0.0180486
0.017902
0.0177745
0.0177225
0.0176879
0.0178156
0.017903
0.0182899
0.0183216
0.0107452
0.00732852
0.00529524
0.00399857
0.00314047
0.00257264
0.00221688
0.00202716
0.00197019
0.00201782
0.0021446
0.00233202
0.0025723
0.00287113
0.00324328
0.00370543
0.00426708
0.00492681
0.00567286
0.00648835
0.00735575
0.00825975
0.00918757
0.0101279
0.0110654
0.0119902
0.0128937
0.0137678
0.0146041
0.0153946
0.016131
0.0168058
0.0174119
0.0179431
0.0183947
0.0187633
0.0190477
0.0192484
0.0193687
0.0194137
0.0193906
0.019308
0.0191751
0.019001
0.0187962
0.0185713
0.0183375
0.0181028
0.0178773
0.017664
0.017474
0.0173036
0.0171727
0.017066
0.0170329
0.0170237
0.0171686
0.0172874
0.0176886
0.0177738
0.0107458
0.00733381
0.00530508
0.00401045
0.00314976
0.00257323
0.00220264
0.00199374
0.00191699
0.00194877
0.00206756
0.00225605
0.00250438
0.00281374
0.00319452
0.00366109
0.00422345
0.00488234
0.00562816
0.00644482
0.00731425
0.00821981
0.00914731
0.0100843
0.0110139
0.0119264
0.0128129
0.0136653
0.0144753
0.0152351
0.0159368
0.0165731
0.0171373
0.017624
0.0180288
0.0183491
0.0185843
0.0187359
0.0188078
0.0188062
0.018739
0.0186157
0.0184464
0.0182411
0.0180109
0.0177667
0.0175199
0.0172788
0.0170528
0.0168455
0.0166661
0.0165119
0.0163994
0.0163161
0.0163046
0.0163232
0.0164874
0.0166397
0.0170571
0.0171985
0.0107463
0.0073386
0.00531415
0.00402171
0.00315925
0.00257547
0.00219155
0.00196411
0.00186618
0.00187793
0.00198176
0.00216274
0.00241065
0.00272361
0.00310806
0.00357544
0.00413532
0.00478996
0.00553181
0.00634598
0.0072142
0.00811867
0.00904375
0.00997565
0.0108962
0.0117951
0.0126634
0.0134929
0.0142754
0.0150032
0.0156689
0.0162655
0.0167869
0.0172281
0.0175855
0.0178572
0.0180432
0.0181461
0.0181705
0.0181234
0.0180137
0.0178517
0.0176482
0.0174143
0.0171614
0.0169008
0.016644
0.0163994
0.016176
0.0159774
0.0158115
0.0156762
0.0155849
0.0155275
0.0155399
0.0155885
0.0157743
0.015962
0.0163975
0.0165973
0.0107467
0.00734295
0.00532253
0.00403236
0.00316883
0.00257914
0.00218354
0.00193879
0.00181952
0.00180866
0.00189217
0.00205797
0.00229679
0.00260525
0.00298665
0.00344954
0.00400234
0.00464814
0.00538127
0.00618823
0.00705101
0.00795088
0.00887077
0.00979548
0.0107055
0.0115897
0.0124387
0.0132442
0.0139982
0.0146932
0.0153221
0.0158783
0.0163564
0.0167518
0.0170618
0.017285
0.0174226
0.0174778
0.0174561
0.0173653
0.0172153
0.0170171
0.0167823
0.0165227
0.0162503
0.0159766
0.015713
0.0154681
0.0152503
0.0150634
0.0149137
0.0147999
0.0147323
0.0147031
0.0147418
0.0148225
0.0150316
0.0152565
0.0157118
0.0159719
0.010747
0.00734694
0.0053303
0.00404244
0.00317839
0.00258399
0.00217839
0.00191797
0.00177808
0.00174357
0.00180315
0.00194756
0.00216932
0.00246477
0.0028353
0.00328691
0.00382661
0.00445773
0.00517618
0.00597005
0.00682194
0.0077126
0.00862359
0.00953827
0.0104359
0.011304
0.0121327
0.0129134
0.0136383
0.0142999
0.0148915
0.0154072
0.0158419
0.0161919
0.016455
0.0166308
0.0167212
0.0167303
0.0166646
0.0165327
0.0163452
0.0161139
0.0158514
0.0155697
0.0152813
0.0149981
0.0147312
0.0144893
0.0142802
0.0141077
0.0139769
0.013887
0.0138453
0.0138465
0.0139134
0.0140279
0.0142622
0.0145257
0.0150025
0.0153242
0.0107473
0.0073506
0.00533752
0.00405196
0.00318784
0.00258978
0.00217579
0.00190151
0.00174244
0.00168443
0.00171819
0.00183683
0.00203488
0.00230938
0.00266081
0.00309342
0.0036128
0.00422223
0.00491889
0.00569253
0.00652677
0.00740224
0.00829944
0.00920027
0.010083
0.0109332
0.0117404
0.0124956
0.0131908
0.0138188
0.0143733
0.0148488
0.0152407
0.015546
0.0157634
0.0158934
0.0159386
0.0159041
0.0157972
0.0156274
0.015406
0.0151456
0.0148592
0.0145595
0.0142593
0.0139704
0.0137039
0.0134684
0.013271
0.0131157
0.0130063
0.0129424
0.0129285
0.0129617
0.0130586
0.0132085
0.0134694
0.0137726
0.0142722
0.0146564
0.0107475
0.00735399
0.00534426
0.00406097
0.00319711
0.00259628
0.00217537
0.00188912
0.00171269
0.0016323
0.00163985
0.00173021
0.00189973
0.00214657
0.0024712
0.00287685
0.00336807
0.00394794
0.00461471
0.00535983
0.00616832
0.00702119
0.00789828
0.00878018
0.00964449
0.0104744
0.0112585
0.0119872
0.0126524
0.0132469
0.0137647
0.0142006
0.0145509
0.0148131
0.0149868
0.0150732
0.015076
0.0150011
0.0148566
0.0146529
0.014402
0.0141169
0.0138113
0.0134983
0.0131907
0.0129003
0.012638
0.0124122
0.0122296
0.0120939
0.0120079
0.0119717
0.0119873
0.0120538
0.0121819
0.012368
0.0126568
0.0130004
0.0135238
0.0139709
0.0107476
0.00735716
0.00535058
0.0040695
0.00320617
0.00260331
0.00217679
0.00188039
0.00168863
0.00158762
0.00156979
0.00163106
0.00176919
0.00198349
0.00227489
0.00264626
0.00310152
0.00364369
0.00427192
0.0049794
0.00575291
0.00657438