/*--------------------------------*- C++ -*----------------------------------*\
| =========                 |                                                 |
| \\      /  F ield         | OpenFOAM: The Open Source CFD Toolbox           |
|  \\    /   O peration     | Version:  2.4.0                                 |
|   \\  /    A nd           | Web:      www.OpenFOAM.org                      |
|    \\/     M anipulation  |                                                 |
\*---------------------------------------------------------------------------*/
FoamFile
{
    version     2.0;
    format      ascii;
    class       volVectorField;
    location    "1.75";
    object      U;
}
// * * * * * * * * * * * * * * * * * * * * * * * * * * * * * * * * * * * * * //

dimensions      [0 1 -1 0 0 0 0];

internalField   nonuniform List<vector> 
2320
(
(0.87487 0.0115897 0)
(1.10586 0.0258173 0)
(0.649697 -0.0654364 0)
(1.4821 0.0455536 0)
(0.419004 -0.0466805 0)
(1.58612 0.0230934 0)
(0.44319 0.0181773 0)
(1.44411 -0.0518725 0)
(0.568819 0.0421818 0)
(1.35719 -0.00450992 0)
(0.483116 -0.0405547 0)
(1.45214 0.0646444 0)
(0.319269 -0.0537207 0)
(1.52932 -0.0286167 0)
(0.446021 0.0730223 0)
(1.31358 -0.122143 0)
(0.713453 0.0194588 0)
(1.24356 0.0317207 0)
(0.681006 -0.0661596 0)
(1.26386 -0.0195617 0)
(0.959611 -0.00124033 0)
(1.07263 0.0847256 0)
(0.887965 -0.140679 0)
(1.19682 0.0675553 0)
(0.97534 0.00133214 0)
(1.05197 -0.050323 0)
(1.0781 0.0706774 0)
(1.03879 -0.016056 0)
(0.925759 -0.00878572 0)
(1.13923 0.0575405 0)
(0.972008 -0.0201845 0)
(0.961795 0.0125665 0)
(1.18868 0.0328585 0)
(0.867002 -0.0497934 0)
(1.06247 0.0496345 0)
(1.06553 -0.0108267 0)
(0.815807 0.000848332 0)
(1.06474 -0.00392978 0)
(1.02527 0.0404289 0)
(0.896126 -0.0319174 0)
(1.04322 -0.00232044 0)
(1.00638 0.0639474 0)
(1.03452 -0.112392 0)
(0.959187 0.0223747 0)
(1.1066 0.0266506 0)
(0.897787 -0.0431671 0)
(1.07807 0.036451 0)
(0.950767 0.0134751 0)
(1.03232 -0.00663738 0)
(0.937347 -0.00606619 0)
(1.18352 0.0393866 0)
(0.767336 -0.036391 0)
(1.27315 0.00408061 0)
(0.811162 0.0063037 0)
(1.12163 -0.0122207 0)
(1.01182 -0.00497292 0)
(1.00329 0.0255822 0)
(0.963498 -0.0580481 0)
(1.03464 0.0102437 0)
(1.02339 -0.0322144 0)
(1.03163 -0.0224217 0)
(0.998776 0.0790104 0)
(1.02897 -0.111014 0)
(0.938375 0.0199932 0)
(1.01885 0.0297998 0)
(0.98749 -0.0425253 0)
(0.986679 0.0557374 0)
(0.976256 -0.00121565 0)
(1.04483 -0.00434127 0)
(0.908334 -0.0164688 0)
(1.12101 0.0522372 0)
(0.902498 -0.0382677 0)
(1.09752 0.0186542 0)
(0.945743 0.0160319 0)
(1.04602 -0.036251 0)
(0.996353 0.0366862 0)
(1.03753 0.0179891 0)
(0.969385 -0.0186981 0)
(1.00907 -0.00427113 0)
(1.03746 -0.0129113 0)
(0.9867 -0.0156224 0)
(1.00058 0.0582794 0)
(1.05925 -0.0798309 0)
(0.900674 0.0265561 0)
(1.06427 0.0136206 0)
(0.943541 -0.0365495 0)
(1.01228 0.0547784 0)
(0.988752 -0.0206652 0)
(1.02021 0.0265696 0)
(0.967248 -0.0352828 0)
(1.02949 0.0421961 0)
(1.02007 -0.0178641 0)
(0.96528 -0.00384916 0)
(1.04681 0.0148437 0)
(0.947827 -0.0247572 0)
(1.05809 -0.00417698 0)
(0.947887 0.0425385 0)
(1.08401 -0.0289516 0)
(0.912862 -0.0309767 0)
(1.09643 0.0195708 0)
(0.993403 -0.0129489 0)
(0.997933 0.0356962 0)
(1.04416 -0.0522829 0)
(0.903827 0.013085 0)
(1.08049 0.0146559 0)
(0.921051 -0.0267793 0)
(1.04029 0.038404 0)
(0.975418 -0.00804047 0)
(1.0247 0.00707064 0)
(0.968812 -0.0204433 0)
(1.0319 0.0230829 0)
(0.994851 -0.0118147 0)
(1.00571 0.00904285 0)
(1.0024 0.0133783 0)
(1.00985 -0.0320426 0)
(1.00093 0.0279751 0)
(0.99556 0.00476483 0)
(1.03923 -0.00148072 0)
(0.973883 -0.0209302 0)
(1.0272 0.00422216 0)
(0.997785 -0.00823458 0)
(1.0062 0.0253135 0)
(1.00567 -0.0308604 0)
(0.960019 0.00135332 0)
(1.02548 0.0113641 0)
(0.975888 -0.0230254 0)
(1.00969 0.0330358 0)
(1.00717 -0.0160673 0)
(1.00566 0.0271592 0)
(0.987377 -0.0338637 0)
(1.01414 0.0229616 0)
(1.00606 -0.00242729 0)
(0.995567 -0.00142609 0)
(1.02245 0.00520418 0)
(1.00274 -0.0134414 0)
(1.00261 -0.000525208 0)
(1.00716 0.0221269 0)
(1.01444 -0.00942073 0)
(1.02303 -0.0287718 0)
(0.997182 0.00473882 0)
(1.00326 -0.0111288 0)
(0.995786 0.0241518 0)
(1.01725 -0.0223311 0)
(0.963118 -0.00209417 0)
(1.01775 0.013738 0)
(0.980168 -0.0233697 0)
(1.00851 0.0255935 0)
(1.00803 -0.00669425 0)
(0.997125 0.0166998 0)
(1.00544 -0.0230609 0)
(0.994515 0.0127619 0)
(1.01255 -0.00251212 0)
(0.999593 0.00341754 0)
(1.01329 0.00204815 0)
(1.00239 -0.0154702 0)
(1.00082 0.0192584 0)
(0.984233 0.000309002 0)
(1.04165 -0.0083929 0)
(0.997258 -0.0174788 0)
(1.00988 0.0122285 0)
(0.998853 -0.00462378 0)
(0.990915 0.0125357 0)
(1.02352 -0.00889718 0)
(0.964072 -0.00278732 0)
(1.01325 0.00700336 0)
(0.987646 -0.021936 0)
(1.00672 0.0203819 0)
(1.01039 -0.00892827 0)
(0.997239 0.0241808 0)
(1.00554 -0.0261261 0)
(0.985945 0.0140899 0)
(1.01148 -0.00274655 0)
(0.992579 5.19454e-05 0)
(1.01775 -0.000944134 0)
(0.999776 -0.00183606 0)
(0.983855 0.00726172 0)
(1.01355 -0.000486359 0)
(1.00963 -0.0101908 0)
(1.01226 -0.0166917 0)
(1.00034 0.0130621 0)
(0.987689 -0.00219642 0)
(1.00716 0.00424818 0)
(1.01152 -0.00325626 0)
(0.983012 -0.00127289 0)
(1.01059 0.00577029 0)
(0.98499 -0.0220979 0)
(1.012 0.0141269 0)
(0.994397 -0.000929329 0)
(1.00777 0.0165491 0)
(1.00106 -0.0139476 0)
(0.986322 0.00676528 0)
(1.00751 -0.00447547 0)
(0.991145 0.00179378 0)
(1.02354 -0.00582366 0)
(0.984518 0.00676064 0)
(1.00685 0.00805989 0)
(1.00967 -0.0109523 0)
(0.998922 -0.00762841 0)
(1.032 -0.0117111 0)
(0.965444 0.0196075 0)
(0.9883 0.000862621 0)
(1.01617 -0.00547949 0)
(0.994381 0.00725804 0)
(1.00519 -0.00489816 0)
(0.994729 0.00825703 0)
(0.999182 -0.0231926 0)
(0.991061 0.0139259 0)
(0.993341 -0.00360876 0)
(1.01441 0.015712 0)
(0.991794 -0.0095851 0)
(1.00778 0.00620322 0)
(0.988595 -0.00303585 0)
(1.0043 -0.00709863 0)
(1.016 -0.000321276 0)
(0.981342 0.00942732 0)
(1.02583 -0.0069749 0)
(0.996663 0.00214548 0)
(1.01998 -0.0206108 0)
(0.990277 0.000398117 0)
(1.00651 0.00472061 0)
(1.00427 -0.00109367 0)
(0.999189 -0.00519605 0)
(0.991195 0.00685609 0)
(1.01051 -0.00413162 0)
(0.990958 0.0112528 0)
(1.00851 -0.0210249 0)
(0.970504 0.0166749 0)
(1.00415 -0.0109592 0)
(1.00358 0.0147562 0)
(1.00275 -0.00764203 0)
(1.00954 0.00639111 0)
(0.989941 -0.00325755 0)
(1.01294 -0.00842728 0)
(0.993608 -3.23393e-05 0)
(1.00156 0.00893533 0)
(1.01276 -0.00556316 0)
(0.996538 -0.00208157 0)
(1.01991 -0.00982009 0)
(0.975963 0.00227238 0)
(1.01771 -0.00673926 0)
(1.01293 0.00169189 0)
(0.985583 -0.00415293 0)
(0.997731 0.00488432 0)
(0.995827 -0.00632516 0)
(1.00561 0.0105631 0)
(1.00105 -0.0126004 0)
(0.978145 0.0140058 0)
(1.00841 -0.0172874 0)
(0.995557 0.0127572 0)
(1.01258 -0.00866551 0)
(0.997419 0.00987258 0)
(1.00742 -0.00432723 0)
(1.00179 -0.0074852 0)
(0.991206 0.00199408 0)
(1.00043 0.00283184 0)
(1.00779 -0.00774945 0)
(0.994075 0.00251894 0)
(1.01046 -0.01612 0)
(0.985939 0.00858882 0)
(1.01321 -0.0218232 0)
(1.00966 0.00243522 0)
(0.987117 -0.0030639 0)
(1.00334 0.00560109 0)
(0.989659 -0.0106424 0)
(1.00802 0.0115153 0)
(0.997956 -0.00943464 0)
(0.993122 0.014148 0)
(1.008 -0.0213108 0)
(0.99583 0.0148725 0)
(1.00817 -0.0113351 0)
(0.992633 0.0141981 0)
(1.01211 -0.0129881 0)
(1.00267 0.00899434 0)
(0.991018 -0.00985427 0)
(1.00241 0.0122072 0)
(1.00016 -0.0131767 0)
(0.992535 0.00681963 0)
(1.00187 -0.0146716 0)
(0.997539 0.00967184 0)
(1.01376 -0.024958 0)
(1.00411 0.00471751 0)
(0.989639 -0.00453362 0)
(1.00919 0.0056224 0)
(0.989123 -0.00914266 0)
(1.00431 0.00693737 0)
(0.997723 -0.00450133 0)
(1.00205 0.00704265 0)
(1.0103 -0.0166979 0)
(0.990357 0.0107878 0)
(1.01296 -0.00524718 0)
(0.984296 0.00659631 0)
(1.01524 -0.00913605 0)
(0.998034 0.00320702 0)
(0.995249 0.00264129 0)
(1.00889 -0.00367775 0)
(0.987446 -0.000851738 0)
(1.01043 0.0011076 0)
(0.980629 -0.0216254 0)
(1.01366 0.00842449 0)
(1.00609 -0.0320716 0)
(0.996374 0.00743743 0)
(0.999234 -0.00909183 0)
(1.00657 0.00860916 0)
(0.997247 -0.0104899 0)
(1.00172 0.0102655 0)
(0.997414 -0.0111532 0)
(1.0107 0.0109275 0)
(1.00033 -0.0203691 0)
(0.996787 0.0197435 0)
(1.00353 -0.0155819 0)
(0.993661 0.0227103 0)
(1.00378 -0.0319893 0)
(0.998749 0.0330073 0)
(0.998143 -0.0297455 0)
(1.00203 0.0316747 0)
(0.994936 -0.0290257 0)
(1.00219 0.0248039 0)
(0.988842 -0.0286051 0)
(1.00943 0.00581258 0)
(1.00058 -0.0233703 0)
(0.995555 0.00554898 0)
(1.00177 -0.00718658 0)
(1.00464 0.00372682 0)
(0.999416 -0.00305478 0)
(1.00172 0.00266776 0)
(0.999297 -0.00379483 0)
(1.0092 -0.000779907 0)
(0.997936 -0.00249665 0)
(0.995911 0.00130292 0)
(1.00136 0.00526469 0)
(0.999002 -0.00418669 0)
(1.00057 0.00148051 0)
(0.995161 -0.00927053 0)
(0.99835 0.0177249 0)
(1.00782 -0.0205142 0)
(0.977654 0.0176086 0)
(1.02884 -0.0140477 0)
(0.964021 -0.00812904 0)
(1.02094 -0.0101931 0)
(0.989832 -0.0199863 0)
(1.00115 0.007474 0)
(1.00081 -0.0100412 0)
(1.00571 0.00688474 0)
(0.997251 -0.00711252 0)
(1.00633 0.0081636 0)
(0.994402 -0.013224 0)
(1.01243 0.0107321 0)
(0.98636 -0.0151296 0)
(1.01244 0.0213606 0)
(0.982573 -0.0224984 0)
(1.02194 0.0315627 0)
(0.978097 -0.042467 0)
(1.01846 0.0483385 0)
(0.975725 -0.0518333 0)
(1.02584 0.0590921 0)
(0.971662 -0.0569413 0)
(1.02786 0.04881 0)
(0.969446 -0.0398992 0)
(1.02958 0.00200393 0)
(0.946946 -0.0101091 0)
(1.02741 0.000759874 0)
(0.979844 -0.00152149 0)
(1.02604 -0.00173946 0)
(0.978731 0.00329216 0)
(1.02671 -0.00391577 0)
(0.977206 0.00240402 0)
(1.0237 -0.00620805 0)
(0.97262 0.00801939 0)
(1.02565 -0.00867759 0)
(0.972776 0.0138978 0)
(1.03113 -0.0170263 0)
(0.969012 0.0214221 0)
(1.02739 -0.0279256 0)
(0.956624 0.0361544 0)
(1.04507 -0.041967 0)
(0.929423 0.0406142 0)
(1.06676 -0.0361503 0)
(0.899216 0.0130286 0)
(1.06301 -0.0178954 0)
(0.904182 -0.00811961 0)
(1.16109 0.000652729 0)
(0.834127 -0.00246332 0)
(1.17004 0.00119654 0)
(0.817948 -0.00216788 0)
(1.18565 0.00267432 0)
(0.799548 -0.00532568 0)
(1.19738 0.00656114 0)
(0.782354 -0.00982366 0)
(1.21298 0.0149882 0)
(0.773926 -0.019304 0)
(1.22512 0.0281865 0)
(0.771344 -0.0373429 0)
(1.2213 0.0524924 0)
(0.790069 -0.0620198 0)
(1.20272 0.0780653 0)
(0.82788 -0.0778971 0)
(1.16112 0.076928 0)
(0.881754 -0.049708 0)
(1.09346 0.0127933 0)
(0.909087 0.00910593 0)
(0.807976 0.0365544 0)
(1.1951 -0.0510694 0)
(0.804292 -0.0200751 0)
(1.41349 0.0779633 0)
(0.320951 -0.0355266 0)
(1.60639 -0.0259305 0)
(0.302006 0.0297482 0)
(1.38912 -0.0848204 0)
(1.07679 -0.0155572 0)
(0.989283 0.0655687 0)
(0.958423 -0.109505 0)
(1.14944 0.153246 0)
(0.90944 -0.0469266 0)
(1.26451 0.0100723 0)
(0.901137 0.107241 0)
(1.03281 -0.131145 0)
(1.01394 -0.0164908 0)
(0.993913 0.0215401 0)
(1.09752 -0.102565 0)
(0.928423 0.136059 0)
(1.10916 -0.0850288 0)
(0.953802 -0.0457457 0)
(1.16872 0.149245 0)
(0.925049 -0.128745 0)
(0.923133 -0.0115255 0)
(1.11559 0.0254518 0)
(0.941695 -0.0775043 0)
(0.96363 0.131605 0)
(1.12574 -0.0374314 0)
(0.807312 -0.0459163 0)
(1.13534 0.138211 0)
(1.02852 -0.0763064 0)
(0.88315 -0.0584621 0)
(1.12983 0.0139948 0)
(0.879073 -0.0321926 0)
(1.08374 0.0418596 0)
(1.01095 0.0015086 0)
(1.00949 -0.055621 0)
(0.973646 0.0651235 0)
(1.16983 -0.0823536 0)
(1.01651 -0.0294218 0)
(0.964329 0.0230151 0)
(1.0421 -0.0486354 0)
(0.974036 0.0523962 0)
(1.07908 0.00847482 0)
(0.96038 -0.0482406 0)
(1.07049 0.0571708 0)
(1.03461 -0.0422109 0)
(1.00324 -0.0245196 0)
(0.998088 -0.00158744 0)
(1.01502 -0.0266674 0)
(0.968985 0.0192048 0)
(1.05777 0.0144869 0)
(0.978735 -0.0499361 0)
(1.01783 0.031007 0)
(1.07424 -0.0457852 0)
(0.984458 -0.0274178 0)
(1.01662 0.007221 0)
(0.998719 -0.0266851 0)
(1.00004 0.0208685 0)
(1.01347 0.0113969 0)
(1.01027 -0.0375459 0)
(1.01837 0.0150695 0)
(1.0356 -0.0196849 0)
(0.987929 -0.021907 0)
(1.02282 -0.0158049 0)
(0.999449 -0.00839328 0)
(0.999412 0.00553398 0)
(1.0137 0.0127231 0)
(1.01598 -0.0501878 0)
(1.00272 0.0121326 0)
(1.03424 -0.0250587 0)
(1.03983 -0.0311006 0)
(0.979551 -0.00904552 0)
(1.02093 -0.0058893 0)
(0.990844 0.00599713 0)
(1.00451 0.0101979 0)
(1.02551 -0.0364324 0)
(0.974954 0.00819666 0)
(1.04175 -0.0208666 0)
(1.02518 -0.020323 0)
(0.977037 -0.0154899 0)
(1.03134 -0.00523574 0)
(0.969088 0.00576467 0)
(1.02764 -0.00131233 0)
(0.994228 -0.036976 0)
(0.981458 -0.000328726 0)
(1.0294 -0.0280385 0)
(1.00964 -0.00610605 0)
(0.997693 -0.0226146 0)
(1.00903 0.0107325 0)
(0.977884 -0.0022593 0)
(1.02991 0.00904203 0)
(0.975988 -0.0204152 0)
(1.00893 -0.00163043 0)
(0.999659 -0.0251926 0)
(1.00728 -0.00171595 0)
(1.00617 -0.0269642 0)
(1.00624 0.0149763 0)
(0.999327 -0.0183421 0)
(1.01597 0.0101133 0)
(0.98999 -0.0408861 0)
(0.997806 -0.00239012 0)
(0.994216 -0.0452903 0)
(0.998167 0.00770389 0)
(1.01893 -0.0320022 0)
(0.996472 0.0317018 0)
(1.00347 -0.020262 0)
(1.00648 0.0353135 0)
(0.985612 -0.0270664 0)
(1.00023 0.0193775 0)
(0.980783 -0.0598376 0)
(1.0042 0.00198204 0)
(1.01762 -0.0383769 0)
(1.0118 0.033633 0)
(1.01857 -0.0447603 0)
(1.00409 0.0348432 0)
(0.975203 -0.0672263 0)
(0.993908 0.024077 0)
(0.955375 -0.10101 0)
(1.00459 0.00479626 0)
(1.02375 -0.0374454 0)
(1.00959 0.0492497 0)
(1.00335 -0.0302286 0)
(1.00062 0.0864178 0)
(0.958783 -0.0423416 0)
(0.986767 0.0680865 0)
(0.94787 -0.119203 0)
(1.00286 -0.0272803 0)
(1.02089 -0.0323874 0)
(1.04227 0.0443346 0)
(1.0158 -0.0605405 0)
(1.01147 0.0730443 0)
(0.934616 -0.099507 0)
(0.958803 0.0645876 0)
(0.890479 -0.199379 0)
(1.04305 -0.0224278 0)
(1.00932 -0.0404383 0)
(1.06355 0.0479444 0)
(0.963445 -0.019692 0)
(1.04344 0.15653 0)
(0.892068 -0.033993 0)
(0.9837 0.13869 0)
(0.836536 -0.196519 0)
(1.03164 -0.104994 0)
(1.00145 0.00661951 0)
(1.0845 0.0211775 0)
(1.00766 -0.0240474 0)
(0.996994 0.106297 0)
(0.794707 -0.0964141 0)
(0.859141 0.121658 0)
(0.662136 -0.325092 0)
(1.07024 -0.0877613 0)
(0.846661 -0.0339751 0)
(1.15658 0.0182954 0)
(0.938135 0.042879 0)
(1.2635 0.24908 0)
(0.886938 0.0204215 0)
(1.12041 0.255667 0)
(0.626693 -0.337481 0)
(0.720793 0.00894828 0)
(1.22978 0.000340559 0)
(0.642802 0.00419415 0)
(1.31891 0.00219509 0)
(0.376048 -0.0493958 0)
(1.65158 0.0461381 0)
(-0.147471 -0.0337408 0)
(1.86836 -0.0242937 0)
(0.274556 0.0802241 0)
(1.31013 -0.213742 0)
(0.829954 -0.0698457 0)
(1.54226 0.0533824 0)
(0.519034 -0.0462315 0)
(1.80128 -0.0890125 0)
(0.686925 -0.011643 0)
(1.87271 -0.0973433 0)
(1.15118 0.00500471 0)
(1.9005 -0.0822798 0)
(1.66629 -0.00734074 0)
(1.72631 -0.0245099 0)
(1.96034 -0.0516963 0)
(2.01266 -0.0543194 0)
(1.9965 -0.0144114 0)
(2.49771 -0.0654452 0)
(1.99246 -0.00159481 0)
(2.77042 -0.0405758 0)
(1.97017 0.0330186 0)
(2.78694 -0.0273675 0)
(0.977934 0.0427512 0)
(1.04456 0.0644447 0)
(0.87584 -0.0795549 0)
(1.30494 0.145639 0)
(0.633891 -0.138466 0)
(1.53074 0.17782 0)
(0.720661 -0.013351 0)
(1.23517 -0.227267 0)
(1.04057 0.202018 0)
(1.25503 -0.0458988 0)
(0.619134 -0.102476 0)
(1.49206 0.0934183 0)
(0.786786 -0.0467366 0)
(1.57537 -0.0401669 0)
(0.785069 0.0198415 0)
(1.69791 -0.180633 0)
(1.08167 -0.0012504 0)
(1.72577 -0.177388 0)
(1.45671 0.062359 0)
(1.85199 -0.0977446 0)
(1.68294 -0.100871 0)
(2.06824 -0.000883482 0)
(1.81563 -0.160531 0)
(2.40987 -0.00999481 0)
(1.8424 -0.0488855 0)
(2.6529 -0.0413058 0)
(1.84131 0.0761836 0)
(2.7177 0.0387603 0)
(1.08469 -0.00184012 0)
(0.957056 0.0840442 0)
(1.13209 -0.151603 0)
(1.02502 0.147431 0)
(1.12906 -0.168137 0)
(1.10696 0.0167181 0)
(1.36046 0.140048 0)
(0.868906 -0.243266 0)
(1.20882 0.0714499 0)
(1.14451 0.0451644 0)
(1.32603 -0.179167 0)
(1.00253 -0.0119487 0)
(1.39242 -0.0529137 0)
(1.30162 -0.122628 0)
(1.37152 -0.0281506 0)
(1.32337 -0.261486 0)
(1.4635 0.00979806 0)
(1.44178 -0.243503 0)
(1.61879 -0.109171 0)
(1.82252 -0.0777714 0)
(1.6849 -0.199811 0)
(2.20706 -0.0991681 0)
(1.84149 -0.18458 0)
(2.50172 -0.0977394 0)
(1.87948 -0.0992541 0)
(2.76787 -0.0511446 0)
(1.76283 0.0222943 0)
(2.87188 0.0845647 0)
(1.03009 0.0123273 0)
(1.00956 0.0617491 0)
(1.1042 -0.117021 0)
(0.945521 0.156356 0)
(1.1868 -0.140918 0)
(0.803927 0.0157632 0)
(1.29642 0.122827 0)
(0.900371 -0.168436 0)
(1.20354 0.0989244 0)
(0.986934 -0.0828623 0)
(1.39045 -0.0781955 0)
(0.786209 0.0447732 0)
(1.45513 -0.190038 0)
(0.973548 -0.0748697 0)
(1.50086 0.0281605 0)
(1.0893 -0.265883 0)
(1.62317 -0.0566086 0)
(1.30716 -0.243551 0)
(1.78184 -0.156239 0)
(1.56582 -0.0969703 0)
(2.05501 -0.318649 0)
(1.92875 -0.0981151 0)
(2.23009 -0.263033 0)
(2.28021 -0.0992803 0)
(2.25839 -0.107827 0)
(2.54581 -0.0424451 0)
(2.15598 0.0674608 0)
(2.60407 0.133816 0)
(0.89052 0.00336148 0)
(1.19209 0.0466268 0)
(0.91516 -0.124814 0)
(1.11749 0.0867848 0)
(1.08495 -0.0863051 0)
(0.97068 -0.0367049 0)
(1.10402 0.106589 0)
(1.1056 -0.192921 0)
(1.01403 0.0377085 0)
(1.19911 -0.0750239 0)
(0.986806 -0.074754 0)
(1.22551 -0.044046 0)
(1.15147 -0.120794 0)
(1.13867 -0.154716 0)
(1.28133 -0.0575976 0)
(1.36806 -0.324774 0)
(1.4381 -0.0919958 0)
(1.46397 -0.302046 0)
(1.76284 -0.289878 0)
(1.59061 -0.175446 0)
(2.12353 -0.401261 0)
(1.82094 -0.203922 0)
(2.3714 -0.302929 0)
(2.10128 -0.179686 0)
(2.45306 -0.151956 0)
(2.38546 -0.0707334 0)
(2.35639 0.0636992 0)
(2.49765 0.106284 0)
(1.01682 -0.0133032 0)
(1.05069 0.061276 0)
(1.05511 -0.0890233 0)
(1.01941 0.058527 0)
(1.17388 -0.0532666 0)
(0.909048 -0.0212218 0)
(1.2146 0.0723789 0)
(0.988556 -0.13484 0)
(1.12369 0.0212647 0)
(1.07052 -0.0304376 0)
(1.11907 -0.097227 0)
(1.08151 -0.0540792 0)
(1.26079 -0.114122 0)
(1.11436 -0.166732 0)
(1.35009 -0.0799577 0)
(1.2831 -0.329083 0)
(1.374 -0.147938 0)
(1.53433 -0.353852 0)
(1.62492 -0.270523 0)
(1.64298 -0.249049 0)
(2.06021 -0.445589 0)
(1.82229 -0.242673 0)
(2.33535 -0.345327 0)
(2.10501 -0.217135 0)
(2.48029 -0.164111 0)
(2.36858 -0.0654022 0)
(2.42425 0.0702586 0)
(2.48219 0.160476 0)
(0.968532 -0.00837604 0)
(1.06525 0.035051 0)
(1.04261 -0.09478 0)
(1.00822 0.0195012 0)
(1.1175 -0.0226335 0)
(0.952866 -0.054654 0)
(1.11914 0.0536874 0)
(1.0478 -0.124302 0)
(1.05959 -0.0121308 0)
(1.05759 -0.056638 0)
(1.15982 -0.0965884 0)
(0.999098 -0.0940718 0)
(1.26367 -0.150554 0)
(1.01987 -0.195799 0)
(1.38889 -0.160911 0)
(1.17049 -0.306657 0)
(1.46131 -0.258062 0)
(1.44171 -0.381556 0)
(1.57551 -0.366863 0)
(1.72509 -0.375268 0)
(1.97988 -0.488946 0)
(1.91142 -0.344849 0)
(2.31524 -0.410606 0)
(2.21599 -0.291715 0)
(2.48782 -0.21618 0)
(2.43832 -0.0881601 0)
(2.45911 0.051056 0)
(2.51444 0.170407 0)
(0.989981 -0.0171995 0)
(1.05897 0.0214842 0)
(1.03379 -0.0568613 0)
(1.03305 0.00362588 0)
(1.06233 -0.0146666 0)
(1.00665 -0.0318924 0)
(1.06961 0.0256135 0)
(1.06539 -0.0941712 0)
(1.02482 -0.00791154 0)
(1.07103 -0.0685322 0)
(1.05854 -0.0804901 0)
(1.08092 -0.110155 0)
(1.15354 -0.126534 0)
(1.07355 -0.2151 0)
(1.27441 -0.193349 0)
(1.17673 -0.321673 0)
(1.44264 -0.337253 0)
(1.37442 -0.376738 0)
(1.64305 -0.441174 0)
(1.73875 -0.468818 0)
(1.92539 -0.511964 0)
(2.02589 -0.451088 0)
(2.3108 -0.46754 0)
(2.31296 -0.353692 0)
(2.48974 -0.232867 0)
(2.49833 -0.0985481 0)
(2.49711 0.0661956 0)
(2.55761 0.201332 0)
(1.01048 -0.0236829 0)
(1.02667 0.0150044 0)
(1.06614 -0.0707048 0)
(1.00485 -0.00265895 0)
(1.07002 -0.000593267 0)
(1.00391 -0.0555288 0)
(1.06609 0.0128636 0)
(1.04905 -0.0822601 0)
(1.02313 -0.029225 0)
(1.06235 -0.0571737 0)
(1.04201 -0.106899 0)
(1.0791 -0.131919 0)
(1.07397 -0.139194 0)
(1.13348 -0.250768 0)
(1.17041 -0.226065 0)
(1.2218 -0.35922 0)
(1.33875 -0.396879 0)
(1.35344 -0.449691 0)
(1.63961 -0.563093 0)
(1.65992 -0.536657 0)
(1.92565 -0.592612 0)
(2.08576 -0.593198 0)
(2.25984 -0.53668 0)
(2.28878 -0.41921 0)
(2.39331 -0.282848 0)
(2.42494 -0.132513 0)
(2.4066 0.0488717 0)
(2.48783 0.20323 0)
(0.985475 -0.0193251 0)
(1.05149 -0.00548849 0)
(1.0422 -0.0412142 0)
(0.990231 -0.00791906 0)
(1.07682 -0.00906357 0)
(0.994213 -0.0319974 0)
(1.06583 -0.00684063 0)
(1.02825 -0.0580662 0)
(1.0238 -0.0339285 0)
(1.02951 -0.0626806 0)
(1.06076 -0.0985082 0)
(1.03093 -0.124012 0)
(1.07955 -0.161774 0)
(1.07958 -0.250459 0)
(1.10587 -0.260404 0)
(1.2168 -0.385366 0)
(1.25245 -0.427646 0)
(1.37039 -0.511567 0)
(1.56347 -0.600126 0)
(1.6379 -0.636982 0)
(1.98647 -0.711386 0)
(1.98922 -0.667567 0)
(2.11148 -0.542375 0)
(2.09712 -0.444191 0)
(2.16922 -0.282655 0)
(2.16511 -0.125612 0)
(2.15151 0.0649776 0)
(2.20418 0.209069 0)
(0.984665 -0.0322382 0)
(1.06069 -0.0122439 0)
(1.0129 -0.0335233 0)
(1.03307 -0.0252285 0)
(1.02698 0.00161925 0)
(1.03397 -0.0466665 0)
(1.04357 -0.0117966 0)
(1.01523 -0.0455882 0)
(1.04457 -0.0437438 0)
(0.996657 -0.0615427 0)
(1.06194 -0.118009 0)
(1.00369 -0.126551 0)
(1.07884 -0.174739 0)
(1.02828 -0.250604 0)
(1.1049 -0.314701 0)
(1.15656 -0.408736 0)
(1.20334 -0.486315 0)
(1.33253 -0.595246 0)
(1.51734 -0.705075 0)
(1.68039 -0.7689 0)
(1.84269 -0.765177 0)
(1.6941 -0.665089 0)
(1.86249 -0.562779 0)
(1.74185 -0.46771 0)
(1.82841 -0.282622 0)
(1.7499 -0.131838 0)
(1.78713 0.0593508 0)
(1.79901 0.200417 0)
(1.01824 -0.0372852 0)
(1.04757 -0.0137599 0)
(1.03116 -0.0251914 0)
(1.0364 -0.0206642 0)
(1.01879 -0.00745106 0)
(1.05702 -0.0422136 0)
(0.995551 -0.0046576 0)
(1.0557 -0.0507399 0)
(0.982111 -0.0344917 0)
(1.04048 -0.0686898 0)
(1.01269 -0.101467 0)
(1.00016 -0.135161 0)
(1.03875 -0.177967 0)
(1.00174 -0.248074 0)
(1.06991 -0.34307 0)
(1.0899 -0.422844 0)
(1.14772 -0.527337 0)
(1.31092 -0.682231 0)
(1.4765 -0.788874 0)
(1.51779 -0.800214 0)
(1.48078 -0.729443 0)
(1.41754 -0.658419 0)
(1.51407 -0.563044 0)
(1.324 -0.429809 0)
(1.42414 -0.246819 0)
(1.33075 -0.129503 0)
(1.41248 0.0547375 0)
(1.38645 0.186279 0)
(1.02966 -0.0558954 0)
(1.03046 -0.0138341 0)
(1.05356 -0.0269722 0)
(1.02109 -0.018546 0)
(1.03987 -0.0117266 0)
(1.02513 -0.0274793 0)
(1.00842 -0.0160395 0)
(1.02631 -0.0294518 0)
(0.983494 -0.0388351 0)
(1.0301 -0.0743542 0)
(0.966987 -0.0884794 0)
(1.02175 -0.142182 0)
(0.96635 -0.168549 0)
(0.994906 -0.265801 0)
(1.02603 -0.362689 0)
(0.99895 -0.435917 0)
(1.13159 -0.607434 0)
(1.26041 -0.772228 0)
(1.28302 -0.808124 0)
(1.19492 -0.756968 0)
(1.16788 -0.71402 0)
(1.08126 -0.658608 0)
(1.04747 -0.526127 0)
(0.890324 -0.40732 0)
(1.00471 -0.278508 0)
(0.876506 -0.140698 0)
(0.925157 0.0539741 0)
(0.913151 0.210546 0)
(1.04072 -0.0456575 0)
(1.02813 -0.0180463 0)
(1.05938 -0.0214267 0)
(1.01688 -0.0183052 0)
(1.05145 -0.0145588 0)
(1.00607 -0.023791 0)
(1.02146 -0.0157313 0)
(0.986792 -0.0296692 0)
(1.0103 -0.0462112 0)
(0.98081 -0.0574847 0)
(0.977076 -0.0986741 0)
(0.978316 -0.134308 0)
(0.936304 -0.163017 0)
(0.989774 -0.277417 0)
(0.9225 -0.34225 0)
(0.962408 -0.47573 0)
(1.09581 -0.66917 0)
(1.06425 -0.760412 0)
(0.984001 -0.752985 0)
(0.897957 -0.73336 0)
(0.790422 -0.675099 0)
(0.624311 -0.582321 0)
(0.577597 -0.464723 0)
(0.462712 -0.387056 0)
(0.471497 -0.243485 0)
(0.328338 -0.0820773 0)
(0.442067 0.0373727 0)
(0.451573 0.165114 0)
(1.04441 -0.0606294 0)
(1.01846 -0.0220946 0)
(1.05309 -0.0236465 0)
(1.01492 -0.0114554 0)
(1.0442 -0.00832437 0)
(1.00224 -0.00422093 0)
(1.0179 -0.00997922 0)
(0.982171 -0.0159325 0)
(0.996034 -0.0400993 0)
(0.964651 -0.0495549 0)
(0.970191 -0.0882402 0)
(0.932289 -0.116077 0)
(0.933406 -0.171786 0)
(0.916553 -0.255404 0)
(0.858862 -0.339211 0)
(0.924313 -0.521073 0)
(0.931161 -0.663855 0)
(0.815648 -0.720745 0)
(0.688862 -0.708144 0)
(0.507365 -0.643474 0)
(0.34481 -0.58667 0)
(0.206625 -0.553819 0)
(0.121183 -0.44652 0)
(-0.0429849 -0.338043 0)
(-0.0660878 -0.227161 0)
(-0.145084 -0.130148 0)
(-0.0677866 0.00793394 0)
(-0.170696 0.183243 0)
(1.04924 -0.0419174 0)
(1.03026 -0.0315527 0)
(1.03959 -0.0312379 0)
(1.02344 -0.018025 0)
(1.03609 -0.0111612 0)
(0.996061 -0.00901064 0)
(1.01646 -0.0116356 0)
(0.971184 -0.0162853 0)
(0.996925 -0.0407855 0)
(0.928164 -0.0446567 0)
(0.970527 -0.08595 0)
(0.88816 -0.108061 0)
(0.915321 -0.165455 0)
(0.844347 -0.232433 0)
(0.807255 -0.344361 0)
(0.805064 -0.518217 0)
(0.730935 -0.623202 0)
(0.523441 -0.627552 0)
(0.291513 -0.594335 0)
(0.116692 -0.572911 0)
(-0.0556669 -0.515087 0)
(-0.286206 -0.43697 0)
(-0.401875 -0.361324 0)
(-0.511932 -0.288719 0)
(-0.608065 -0.175112 0)
(-0.671899 -0.0765914 0)
(-0.647655 0.0426084 0)
(-0.670922 0.13924 0)
(1.0386 -0.0476458 0)
(1.00392 -0.0286049 0)
(1.01166 -0.0213848 0)
(1.00694 -0.00354968 0)
(1.00799 0.00819598 0)
(0.992163 0.00875721 0)
(0.988605 0.00164116 0)
(0.971327 -0.00443549 0)
(0.968252 -0.0179517 0)
(0.932302 -0.031807 0)
(0.928263 -0.0664842 0)
(0.870021 -0.0831603 0)
(0.867039 -0.146805 0)
(0.768813 -0.190329 0)
(0.72944 -0.320714 0)
(0.646417 -0.483092 0)
(0.446897 -0.520571 0)
(0.18757 -0.511364 0)
(-0.0244227 -0.49775 0)
(-0.330232 -0.45773 0)
(-0.52152 -0.424438 0)
(-0.700147 -0.392217 0)
(-0.891242 -0.314992 0)
(-1.00547 -0.247302 0)
(-1.10536 -0.173627 0)
(-1.17042 -0.0984106 0)
(-1.16687 0.00092929 0)
(-1.15814 0.0861186 0)
(1.04626 -0.0519845 0)
(0.962595 -0.0610854 0)
(0.966214 -0.0378056 0)
(0.963612 -0.0150408 0)
(0.959299 -0.00310502 0)
(0.952386 -0.000597443 0)
(0.950443 -0.00282221 0)
(0.93012 -0.00903258 0)
(0.924248 -0.0185302 0)
(0.901929 -0.028383 0)
(0.879106 -0.0528896 0)
(0.821676 -0.0737746 0)
(0.789599 -0.117381 0)
(0.673649 -0.15708 0)
(0.61475 -0.285124 0)
(0.411442 -0.389437 0)
(0.151925 -0.397125 0)
(-0.146531 -0.377577 0)
(-0.434472 -0.336427 0)
(-0.704114 -0.324869 0)
(-0.952756 -0.295331 0)
(-1.16392 -0.251085 0)
(-1.34562 -0.211795 0)
(-1.49858 -0.149547 0)
(-1.59498 -0.0926469 0)
(-1.66988 -0.0392403 0)
(-1.66617 0.0311263 0)
(-1.64423 0.100804 0)
(0.947834 -0.0129501 0)
(0.810834 -0.0285433 0)
(0.827715 -0.00336273 0)
(0.82934 0.008915 0)
(0.833022 0.0146188 0)
(0.834834 0.0130837 0)
(0.833192 0.0123836 0)
(0.835769 0.00733422 0)
(0.821611 -0.00137139 0)
(0.815019 -0.0109128 0)
(0.77274 -0.0212982 0)
(0.734605 -0.0389557 0)
(0.665353 -0.0688617 0)
(0.553415 -0.0961233 0)
(0.443319 -0.195577 0)
(0.148971 -0.265539 0)
(-0.154088 -0.270561 0)
(-0.490958 -0.254945 0)
(-0.77378 -0.236448 0)
(-1.05223 -0.226546 0)
(-1.31675 -0.223107 0)
(-1.55706 -0.194131 0)
(-1.75864 -0.163306 0)
(-1.93018 -0.128316 0)
(-2.03836 -0.0910854 0)
(-2.11746 -0.0551913 0)
(-2.11301 -0.0108752 0)
(-2.08666 0.0316295 0)
(0.987117 -0.0753999 0)
(0.667387 -0.0666492 0)
(0.671264 -0.0331617 0)
(0.658095 -0.0163101 0)
(0.651013 -0.00788266 0)
(0.666493 -0.00464672 0)
(0.665489 -0.00410938 0)
(0.683355 -0.00517635 0)
(0.668033 -0.00577405 0)
(0.671964 -0.00752449 0)
(0.629996 -0.0116359 0)
(0.610358 -0.0213158 0)
(0.510467 -0.0286429 0)
(0.429825 -0.0416984 0)
(0.243133 -0.0917708 0)
(-0.168554 -0.0826277 0)
(-0.490031 -0.0535587 0)
(-0.848547 -0.044825 0)
(-1.11766 -0.036576 0)
(-1.40233 -0.0492775 0)
(-1.69975 -0.0347339 0)
(-1.93857 -0.0300318 0)
(-2.15796 -0.0185893 0)
(-2.3217 -0.00882988 0)
(-2.43665 0.00068987 0)
(-2.50163 0.0100996 0)
(-2.50286 0.0265666 0)
(-2.46517 0.0385263 0)
(1.75362 0.220479 0)
(2.45407 0.120981 0)
(1.43251 0.388523 0)
(2.03567 -0.0290265 0)
(0.919597 0.0429767 0)
(0.866145 0.205863 0)
(1.09154 -0.624757 0)
(0.366982 -0.881448 0)
(1.65782 0.264886 0)
(2.74528 0.229051 0)
(1.29259 0.100207 0)
(2.58391 -0.00896281 0)
(1.15065 0.425537 0)
(2.07707 0.228587 0)
(0.909696 -0.107644 0)
(1.80029 -0.84902 0)
(1.54776 0.18152 0)
(2.76524 0.221326 0)
(1.54557 0.364621 0)
(2.39631 0.125674 0)
(1.29551 0.311053 0)
(2.05447 0.368111 0)
(1.33813 -0.258543 0)
(1.33373 -0.631203 0)
(2.02594 0.225411 0)
(2.45062 0.301685 0)
(1.96541 0.359947 0)
(2.17522 0.203477 0)
(1.72599 0.363516 0)
(1.81739 0.321057 0)
(1.82988 0.174265 0)
(1.10375 0.0475592 0)
(2.21531 0.295532 0)
(2.39603 0.247183 0)
(2.08237 0.45718 0)
(2.18515 0.25396 0)
(1.802 0.421277 0)
(1.90293 0.340947 0)
(1.60021 0.231818 0)
(1.52737 0.00120382 0)
(2.27013 0.310293 0)
(2.40394 0.32175 0)
(2.09615 0.488567 0)
(2.21763 0.369563 0)
(1.81718 0.491487 0)
(1.86869 0.389109 0)
(1.58405 0.426048 0)
(1.45981 0.235377 0)
(2.31413 0.326813 0)
(2.4155 0.360562 0)
(2.1097 0.52342 0)
(2.18807 0.453309 0)
(1.86129 0.526231 0)
(1.83194 0.472071 0)
(1.60852 0.479377 0)
(1.50545 0.332811 0)
(2.38121 0.375438 0)
(2.43925 0.410762 0)
(2.1739 0.584696 0)
(2.17469 0.520138 0)
(1.88991 0.621425 0)
(1.8222 0.548758 0)
(1.60006 0.610175 0)
(1.53415 0.416682 0)
(2.34891 0.385147 0)
(2.41859 0.460721 0)
(2.18922 0.644536 0)
(2.17307 0.598989 0)
(1.90056 0.69785 0)
(1.82339 0.606167 0)
(1.56387 0.692117 0)
(1.51629 0.497462 0)
(2.15384 0.415457 0)
(2.2163 0.474796 0)
(2.12112 0.691324 0)
(2.10549 0.667141 0)
(1.91538 0.791246 0)
(1.85577 0.696283 0)
(1.59667 0.75536 0)
(1.50403 0.61467 0)
(1.81876 0.420231 0)
(1.85204 0.48345 0)
(1.85527 0.696724 0)
(1.92212 0.686017 0)
(1.78787 0.828402 0)
(1.77323 0.793419 0)
(1.61602 0.828169 0)
(1.53289 0.631105 0)
(1.45048 0.383807 0)
(1.4743 0.468273 0)
(1.49286 0.703078 0)
(1.59453 0.703556 0)
(1.61622 0.842677 0)
(1.61242 0.781539 0)
(1.5336 0.931872 0)
(1.48626 0.80228 0)
(0.977739 0.367719 0)
(1.02624 0.428111 0)
(1.15581 0.630955 0)
(1.13994 0.64439 0)
(1.29757 0.867972 0)
(1.35596 0.76612 0)
(1.40333 0.837546 0)
(1.42856 0.724832 0)
(0.518217 0.333558 0)
(0.490801 0.443157 0)
(0.728106 0.629946 0)
(0.753274 0.561634 0)
(0.939899 0.800173 0)
(1.00245 0.758759 0)
(1.1571 0.967044 0)
(1.24976 0.812913 0)
(0.041329 0.279052 0)
(0.00582631 0.334109 0)
(0.254444 0.533736 0)
(0.209493 0.538226 0)
(0.579418 0.735681 0)
(0.616198 0.521321 0)
(0.87929 0.764062 0)
(1.04222 0.702294 0)
(-0.437714 0.269407 0)
(-0.611755 0.366126 0)
(-0.150274 0.469036 0)
(-0.237052 0.415005 0)
(0.174945 0.690027 0)
(0.12413 0.623178 0)
(0.534134 0.800571 0)
(0.712014 0.616511 0)
(-0.999155 0.203367 0)
(-1.06781 0.223898 0)
(-0.54301 0.337875 0)
(-0.881069 0.388971 0)
(-0.167531 0.490913 0)
(-0.210647 0.259646 0)
(0.214611 0.565123 0)
(0.324189 0.5357 0)
(-1.52916 0.18347 0)
(-1.48522 0.191543 0)
(-1.12116 0.328654 0)
(-1.30069 0.282212 0)
(-0.387079 0.374234 0)
(-0.882637 0.487147 0)
(-0.177467 0.535454 0)
(-0.0351124 0.348227 0)
(-1.98063 0.0675201 0)
(-1.87187 0.0801118 0)
(-1.60986 0.156159 0)
(-1.57753 0.0765341 0)
(-0.984391 0.203502 0)
(-1.27332 0.153117 0)
(-0.0416936 0.0990165 0)
(-0.61509 0.271837 0)
(-2.36756 0.0541408 0)
(-2.23626 0.0628616 0)
(-2.03953 0.0948229 0)
(-1.90032 0.0746767 0)
(-1.54253 0.134763 0)
(-1.4441 0.111588 0)
(-0.863339 0.200211 0)
(-1.01741 0.282176 0)
(-0.588103 -0.199033 0)
(0.804468 0.513596 0)