/*--------------------------------*- C++ -*----------------------------------*\
| =========                 |                                                 |
| \\      /  F ield         | OpenFOAM: The Open Source CFD Toolbox           |
|  \\    /   O peration     | Version:  2.4.0                                 |
|   \\  /    A nd           | Web:      www.OpenFOAM.org                      |
|    \\/     M anipulation  |                                                 |
\*---------------------------------------------------------------------------*/
FoamFile
{
    version     2.0;
    format      ascii;
    class       volScalarField;
    location    "0.12";
    object      p;
}
// * * * * * * * * * * * * * * * * * * * * * * * * * * * * * * * * * * * * * //

dimensions      [0 2 -2 0 0 0 0];

internalField   nonuniform List<scalar> 
6000
(
0.0333175
0.260909
0.280233
0.359239
0.420923
0.469905
0.501762
0.523605
0.540256
0.55363
0.564412
0.57306
0.579996
0.585566
0.590033
0.593597
0.596412
0.598595
0.600241
0.601423
0.602198
0.602614
0.602706
0.602503
0.602027
0.601296
0.60032
0.59911
0.59767
0.596001
0.594103
0.59197
0.589596
0.586972
0.584081
0.580908
0.577431
0.573625
0.569458
0.564893
0.559885
0.554383
0.548323
0.541627
0.534205
0.525945
0.516706
0.506334
0.494581
0.481278
0.465872
0.448431
0.427281
0.404143
0.372602
0.343052
0.288008
0.259124
0.136101
0.149128
0.0483344
0.258895
0.279616
0.358031
0.419936
0.469211
0.501342
0.523331
0.540055
0.553477
0.564297
0.572976
0.579935
0.585522
0.590003
0.593577
0.596399
0.598588
0.600238
0.601423
0.602201
0.602618
0.602711
0.602508
0.602031
0.601297
0.60032
0.599107
0.597664
0.595991
0.594089
0.591951
0.589572
0.586942
0.584045
0.580865
0.57738
0.573564
0.569387
0.564811
0.559792
0.554276
0.5482
0.541488
0.534046
0.525764
0.5165
0.506099
0.494312
0.480969
0.465519
0.448016
0.426814
0.403569
0.371985
0.342221
0.287227
0.257768
0.135185
0.146714
0.0622528
0.256568
0.279003
0.356868
0.418954
0.468527
0.500928
0.523058
0.53985
0.553316
0.564172
0.57288
0.579861
0.585465
0.589958
0.593541
0.59637
0.598564
0.600218
0.601405
0.602184
0.602601
0.602694
0.602489
0.602011
0.601276
0.600296
0.59908
0.597634
0.595958
0.594051
0.591909
0.589526
0.586889
0.583986
0.580799
0.577307
0.573484
0.569298
0.564713
0.559683
0.554155
0.548066
0.541338
0.533879
0.525578
0.516292
0.505865
0.49405
0.480672
0.465182
0.44763
0.426373
0.403049
0.371399
0.341475
0.286444
0.256569
0.134161
0.144578
0.073923
0.25414
0.27843
0.355751
0.418034
0.46789
0.500544
0.522798
0.539649
0.553153
0.56404
0.572772
0.579771
0.585388
0.589891
0.593482
0.596316
0.598514
0.600171
0.601359
0.602139
0.602556
0.602648
0.602442
0.601962
0.601225
0.600243
0.599024
0.597574
0.595895
0.593984
0.591838
0.58945
0.586808
0.5839
0.580707
0.577208
0.573378
0.569184
0.564589
0.55955
0.554011
0.54791
0.541169
0.533694
0.525376
0.516069
0.50562
0.493778
0.480368
0.464842
0.447244
0.425938
0.402542
0.37083
0.340765
0.28569
0.25546
0.133172
0.14278
0.0842713
0.251765
0.277895
0.354651
0.41714
0.467263
0.500161
0.522532
0.53944
0.552979
0.563893
0.572646
0.579661
0.58529
0.589802
0.593399
0.596237
0.598438
0.600096
0.601286
0.602066
0.602483
0.602574
0.602367
0.601885
0.601146
0.600161
0.59894
0.597487
0.595804
0.593889
0.591739
0.589346
0.5867
0.583786
0.580587
0.577082
0.573244
0.569042
0.564439
0.55939
0.55384
0.547727
0.540973
0.533484
0.525148
0.515822
0.505351
0.493483
0.480043
0.464483
0.446841
0.425489
0.402023
0.370253
0.340051
0.284943
0.254371
0.132219
0.141198
0.0938803
0.24957
0.277433
0.353572
0.416246
0.466616
0.499754
0.522247
0.539214
0.55279
0.563729
0.572501
0.579531
0.585171
0.589691
0.593294
0.596136
0.59834
0.6
0.601191
0.601971
0.602388
0.602478
0.60227
0.601787
0.601046
0.600059
0.598835
0.597379
0.595692
0.593774
0.59162
0.589222
0.58657
0.583651
0.580446
0.576934
0.573089
0.568879
0.564267
0.559208
0.553648
0.547522
0.540755
0.53325
0.524898
0.515553
0.505059
0.493166
0.479696
0.464102
0.446418
0.42502
0.401486
0.369663
0.339327
0.284193
0.253287
0.131292
0.139764
0.102928
0.247656
0.277098
0.352539
0.415351
0.465936
0.499315
0.521937
0.538973
0.552587
0.563551
0.572342
0.579386
0.585036
0.589563
0.593172
0.596019
0.598226
0.599888
0.60108
0.601861
0.602278
0.602368
0.602159
0.601675
0.600932
0.599943
0.598717
0.597258
0.595568
0.593646
0.591488
0.589085
0.586429
0.583504
0.580292
0.576773
0.572921
0.568703
0.564082
0.559013
0.553441
0.547304
0.540522
0.533002
0.524632
0.515268
0.504751
0.492833
0.479333
0.463705
0.445979
0.424537
0.400935
0.369061
0.338593
0.283438
0.252211
0.13039
0.138458
0.111499
0.24609
0.276946
0.351588
0.414466
0.465225
0.498843
0.521604
0.538718
0.552375
0.563364
0.572172
0.57923
0.58489
0.589426
0.593041
0.595892
0.598102
0.599767
0.600961
0.601743
0.602161
0.60225
0.602041
0.601556
0.600812
0.599821
0.598592
0.59713
0.595438
0.593512
0.59135
0.588943
0.586282
0.583351
0.580133
0.576608
0.572748
0.568521
0.563891
0.558811
0.553229
0.547079
0.540283
0.532747
0.52436
0.514975
0.504436
0.492491
0.478961
0.4633
0.445531
0.424045
0.400376
0.368452
0.337857
0.282683
0.251148
0.129517
0.137266
0.119681
0.244912
0.277017
0.350752
0.413608
0.464495
0.498344
0.521252
0.538454
0.552158
0.563172
0.571997
0.579068
0.584739
0.589283
0.592903
0.59576
0.597974
0.599641
0.600837
0.601621
0.602039
0.602129
0.60192
0.601434
0.600688
0.599696
0.598465
0.597001
0.595306
0.593377
0.591211
0.5888
0.586133
0.583197
0.579974
0.576441
0.572574
0.568339
0.563699
0.55861
0.553016
0.546853
0.540043
0.532491
0.524086
0.514681
0.504119
0.492148
0.478588
0.462892
0.445081
0.423551
0.399816
0.367842
0.337121
0.281932
0.250101
0.128672
0.136175
0.127551
0.244138
0.277339
0.350061
0.412794
0.463759
0.49783
0.52089
0.538186
0.551941
0.56298
0.571822
0.578905
0.584586
0.589137
0.592764
0.595625
0.597843
0.599513
0.600712
0.601497
0.601916
0.602007
0.601798
0.601311
0.600565
0.599571
0.598339
0.596873
0.595174
0.593242
0.591073
0.588658
0.585986
0.583045
0.579815
0.576276
0.572401
0.568159
0.56351
0.55841
0.552805
0.54663
0.539806
0.532238
0.523815
0.51439
0.503805
0.491809
0.478218
0.462488
0.444634
0.42306
0.399259
0.367236
0.336393
0.281188
0.249073
0.127856
0.135171
0.135167
0.243767
0.277924
0.349535
0.412042
0.463032
0.497313
0.520527
0.537919
0.551726
0.562791
0.571648
0.578744
0.584434
0.588993
0.592626
0.595492
0.597713
0.599387
0.600587
0.601374
0.601795
0.601886
0.601677
0.60119
0.600443
0.599448
0.598214
0.596746
0.595045
0.59311
0.590937
0.588518
0.585841
0.582895
0.57966
0.576114
0.572232
0.567981
0.563324
0.558214
0.552598
0.54641
0.539573
0.53199
0.523549
0.514105
0.503497
0.491475
0.477854
0.462091
0.444195
0.422578
0.398712
0.36664
0.335676
0.280456
0.24807
0.127071
0.134242
0.142567
0.243784
0.278768
0.349188
0.411365
0.462327
0.496805
0.52017
0.537658
0.551518
0.562608
0.57148
0.578586
0.584285
0.588851
0.592489
0.59536
0.597585
0.599262
0.600464
0.601253
0.601675
0.601767
0.601558
0.601071
0.600323
0.599327
0.598092
0.596621
0.594918
0.59298
0.590803
0.58838
0.5857
0.582748
0.579507
0.575956
0.572067
0.567808
0.563142
0.558023
0.552396
0.546196
0.539345
0.531747
0.523289
0.513825
0.503196
0.491149
0.477499
0.461702
0.443765
0.422106
0.398176
0.366056
0.334975
0.27974
0.247095
0.126316
0.133379
0.149776
0.244165
0.279858
0.349023
0.410773
0.461658
0.496316
0.519828
0.537409
0.551319
0.562433
0.571317
0.578433
0.584141
0.588713
0.592357
0.595231
0.59746
0.599139
0.600344
0.601135
0.601558
0.60165
0.601442
0.600955
0.600206
0.599209
0.597972
0.596499
0.594794
0.592853
0.590673
0.588246
0.585561
0.582605
0.579359
0.575801
0.571905
0.567639
0.562964
0.557835
0.552198
0.545987
0.539122
0.53151
0.523036
0.513553
0.502902
0.490831
0.477152
0.461324
0.443347
0.421645
0.397654
0.365487
0.334292
0.279044
0.246151
0.125594
0.132573
0.15681
0.244878
0.281174
0.349039
0.410272
0.461031
0.495854
0.519506
0.537173
0.55113
0.562266
0.571163
0.578288
0.584002
0.588579
0.592228
0.595106
0.597338
0.59902
0.600228
0.60102
0.601444
0.601537
0.601328
0.600841
0.600092
0.599094
0.597855
0.596381
0.594673
0.592729
0.590546
0.588115
0.585426
0.582465
0.579213
0.575649
0.571747
0.567473
0.56279
0.557653
0.552005
0.545782
0.538905
0.531278
0.522788
0.513287
0.502615
0.49052
0.476814
0.460954
0.442939
0.421197
0.397146
0.364933
0.333628
0.278368
0.245239
0.124905
0.13182
0.163681
0.245891
0.282691
0.349229
0.409866
0.460453
0.495425
0.519209
0.536956
0.550955
0.562111
0.571017
0.578149
0.583869
0.588451
0.592104
0.594986
0.597221
0.598905
0.600114
0.600908
0.601333
0.601426
0.601218
0.60073
0.599981
0.598981
0.597741
0.596265
0.594554
0.592608
0.590422
0.587987
0.585294
0.582328
0.579071
0.575502
0.571593
0.567312
0.562621
0.557474
0.551817
0.545583
0.538693
0.531052
0.522546
0.513027
0.502335
0.490217
0.476484
0.460595
0.442541
0.420761
0.396652
0.364396
0.332984
0.277714
0.24436
0.124251
0.131113
0.170394
0.247172
0.284383
0.349582
0.409557
0.459931
0.495032
0.518941
0.536759
0.550794
0.561966
0.570881
0.578018
0.583742
0.588329
0.591984
0.594869
0.597107
0.598793
0.600004
0.600799
0.601225
0.601319
0.601111
0.600623
0.599872
0.598872
0.59763
0.596152
0.594439
0.59249
0.590301
0.587863
0.585166
0.582195
0.578933
0.575358
0.571443
0.567155
0.562456
0.557301
0.551633
0.545388
0.538487
0.530832
0.522311
0.512775
0.502063
0.489922
0.476163
0.460244
0.442154
0.420336
0.396171
0.363873
0.332359
0.277081
0.243514
0.12363
0.130448
0.176954
0.248689
0.286223
0.350084
0.409344
0.459467
0.494679
0.518703
0.536584
0.550649
0.561834
0.570754
0.577895
0.583623
0.588212
0.59187
0.594757
0.596997
0.598685
0.599897
0.600693
0.60112
0.601214
0.601006
0.600518
0.599767
0.598765
0.597522
0.596042
0.594327
0.592376
0.590183
0.587742
0.585041
0.582066
0.578799
0.575218
0.571296
0.567002
0.562295
0.557131
0.551455
0.545199
0.538286
0.530618
0.522081
0.512529
0.501797
0.489635
0.47585
0.459903
0.441778
0.419923
0.395703
0.363365
0.331753
0.276467
0.242698
0.12304
0.12982
0.183365
0.250413
0.288188
0.350721
0.409226
0.459064
0.494368
0.518498
0.536431
0.55052
0.561713
0.570637
0.57778
0.58351
0.588101
0.591761
0.59465
0.596891
0.59858
0.599794
0.600591
0.601018
0.601113
0.600905
0.600416
0.599664
0.598662
0.597417
0.595935
0.594218
0.592264
0.590069
0.587624
0.584919
0.58194
0.578668
0.575082
0.571154
0.566853
0.562139
0.556967
0.551281
0.545015
0.53809
0.53041
0.521858
0.512289
0.501539
0.489356
0.475546
0.459571
0.441411
0.419521
0.395249
0.362871
0.331165
0.275874
0.241913
0.12248
0.129225
0.18963
0.252317
0.290257
0.351481
0.4092
0.458723
0.4941
0.518325
0.536302
0.550408
0.561606
0.570531
0.577674
0.583404
0.587995
0.591657
0.594547
0.596789
0.59848
0.599694
0.600492
0.60092
0.601015
0.600807
0.600317
0.599565
0.598561
0.597315
0.595832
0.594113
0.592156
0.589958
0.58751
0.584801
0.581817
0.578541
0.57495
0.571016
0.566708
0.561987
0.556807
0.551112
0.544836
0.5379
0.530207
0.521642
0.512056
0.501288
0.489084
0.47525
0.459248
0.441055
0.419131
0.394807
0.362392
0.330595
0.275299
0.241157
0.121947
0.128658
0.195752
0.254378
0.29241
0.352349
0.409263
0.458446
0.493876
0.518185
0.536197
0.550313
0.561511
0.570434
0.577576
0.583304
0.587896
0.591557
0.594448
0.596691
0.598383
0.599598
0.600396
0.600824
0.60092
0.600711
0.600222
0.599468
0.598464
0.597216
0.595731
0.59401
0.592051
0.58985
0.587399
0.584686
0.581699
0.578418
0.574821
0.570882
0.566568
0.56184
0.556652
0.550948
0.544663
0.537716
0.53001
0.521431
0.51183
0.501044
0.48882
0.474963
0.458935
0.440709
0.418752
0.394379
0.361927
0.330042
0.274743
0.240429
0.12144
0.128117
0.201733
0.256575
0.294631
0.353315
0.40941
0.458233
0.493697
0.518079
0.536117
0.550235
0.56143
0.570348
0.577486
0.583212
0.587802
0.591463
0.594354
0.596598
0.59829
0.599505
0.600304
0.600733
0.600828
0.600619
0.600129
0.599375
0.598369
0.597121
0.595634
0.593911
0.591949
0.589745
0.587291
0.584575
0.581584
0.578298
0.574697
0.570752
0.566432
0.561697
0.556501
0.550789
0.544494
0.537537
0.529819
0.521227
0.511611
0.500808
0.488564
0.474685
0.458631
0.440374
0.418384
0.393963
0.361476
0.329507
0.274204
0.239728
0.120956
0.1276
0.207577
0.258889
0.296906
0.354366
0.409638
0.458082
0.493561
0.518006
0.53606
0.550174
0.561361
0.570272
0.577404
0.583127
0.587715
0.591375
0.594265
0.596508
0.598201
0.599416
0.600215
0.600644
0.600739
0.60053
0.60004
0.599285
0.598278
0.597028
0.59554
0.593814
0.591851
0.589644
0.587187
0.584468
0.581472
0.578183
0.574576
0.570626
0.5663
0.561559
0.556355
0.550635
0.544331
0.537363
0.529634
0.521029
0.511398
0.500579
0.488317
0.474415
0.458337
0.440049
0.418027
0.39356
0.361039
0.328989
0.273684
0.239053
0.120496
0.127103
0.213289
0.261306
0.299225
0.355495
0.409944
0.457995
0.49347
0.517965
0.536028
0.550131
0.561305
0.570206
0.577331
0.583048
0.587633
0.591291
0.59418
0.596423
0.598115
0.599331
0.60013
0.600558
0.600654
0.600444
0.599953
0.599198
0.59819
0.596938
0.595448
0.593721
0.591755
0.589546
0.587086
0.584363
0.581364
0.578071
0.57446
0.570505
0.566173
0.561425
0.556214
0.550486
0.544173
0.537195
0.529456
0.520838
0.511193
0.500357
0.488077
0.474153
0.458052
0.439734
0.417682
0.393171
0.360617
0.328489
0.273182
0.238404
0.120057
0.126627
0.218872
0.263809
0.301577
0.356691
0.410323
0.457969
0.493423
0.517958
0.53602
0.550105
0.561263
0.570151
0.577266
0.582977
0.587557
0.591212
0.5941
0.596342
0.598033
0.599249
0.600048
0.600476
0.600571
0.600362
0.59987
0.599113
0.598105
0.596852
0.59536
0.593631
0.591663
0.589452
0.586989
0.584263
0.58126
0.577963
0.574347
0.570387
0.566049
0.561295
0.556078
0.550342
0.544021
0.537033
0.529283
0.520653
0.510994
0.500143
0.487845
0.473901
0.457776
0.43943
0.417349
0.392794
0.360209
0.328006
0.272698
0.237781
0.119639
0.126171
0.22433
0.266389
0.303955
0.357948
0.410771
0.458004
0.493419
0.517982
0.536035
0.550097
0.561233
0.570106
0.57721
0.582912
0.587487
0.591138
0.594024
0.596265
0.597956
0.599171
0.599969
0.600397
0.600492
0.600282
0.59979
0.599032
0.598023
0.596769
0.595276
0.593545
0.591575
0.589361
0.586895
0.584166
0.58116
0.577858
0.574238
0.570273
0.565931
0.561171
0.555947
0.550203
0.543874
0.536877
0.529116
0.520474
0.510803
0.499936
0.487621
0.473657
0.45751
0.439137
0.417027
0.392431
0.359815
0.32754
0.272231
0.237184
0.119241
0.125732
0.229668
0.269033
0.306352
0.359259
0.411285
0.458098
0.493458
0.518038
0.536074
0.550106
0.561217
0.570071
0.577161
0.582855
0.587423
0.59107
0.593953
0.596192
0.597882
0.599096
0.599894
0.600322
0.600416
0.600206
0.599713
0.598955
0.597944
0.596689
0.595194
0.593461
0.591489
0.589273
0.586804
0.584073
0.581063
0.577758
0.574134
0.570164
0.565816
0.56105
0.55582
0.55007
0.543732
0.536726
0.528955
0.520302
0.510618
0.499737
0.487405
0.473422
0.457254
0.438854
0.416717
0.392081
0.359435
0.327092
0.271783
0.236611
0.118862
0.125312
0.234891
0.271732
0.308763
0.360618
0.411862
0.45825
0.493539
0.518125
0.536136
0.550131
0.561214
0.570046
0.577121
0.582804
0.587364
0.591007
0.593886
0.596123
0.597811
0.599025
0.599823
0.60025
0.600343
0.600132
0.599639
0.59888
0.597868
0.596612
0.595116
0.593381
0.591407
0.589189
0.586718
0.583983
0.58097
0.577661
0.574033
0.570059
0.565706
0.560935
0.555699
0.549941
0.543596
0.536582
0.528801
0.520137
0.51044
0.499546
0.487198
0.473196
0.457007
0.438582
0.416419
0.391744
0.35907
0.326662
0.271352
0.236063
0.118502
0.124909
0.240003
0.274478
0.311183
0.36202
0.412497
0.458459
0.493662
0.518242
0.53622
0.550174
0.561223
0.570031
0.577089
0.582759
0.587312
0.590948
0.593824
0.596058
0.597745
0.598958
0.599754
0.600181
0.600274
0.600062
0.599568
0.598808
0.597795
0.596538
0.59504
0.593304
0.591329
0.589108
0.586634
0.583897
0.580881
0.577569
0.573937
0.569958
0.565601
0.560824
0.555582
0.549818
0.543465
0.536442
0.528653
0.519978
0.51027
0.499362
0.486999
0.47298
0.456771
0.438321
0.416132
0.391421
0.35872
0.326249
0.270939
0.235539
0.11816
0.124524
0.245009
0.277263
0.313609
0.36346
0.413188
0.458722
0.493826
0.51839
0.536327
0.550234
0.561245
0.570027
0.577065
0.582722
0.587265
0.590895
0.593766
0.595998
0.597683
0.598894
0.59969
0.600115
0.600208
0.599995
0.5995
0.59874
0.597726
0.596467
0.594968
0.593231
0.591253
0.58903
0.586554
0.583814
0.580796
0.57748
0.573844
0.569862
0.565499
0.560718
0.55547
0.549699
0.54334
0.536309
0.52851
0.519826
0.510107
0.499185
0.486808
0.472772
0.456544
0.438071
0.415858
0.391111
0.358384
0.325853
0.270544
0.23504
0.117836
0.124156
0.249914
0.280081
0.316036
0.364934
0.413931
0.459038
0.49403
0.518566
0.536456
0.55031
0.56128
0.570032
0.577049
0.582691
0.587224
0.590847
0.593713
0.595941
0.597624
0.598834
0.599628
0.600053
0.600145
0.599932
0.599436
0.598675
0.59766
0.5964
0.5949
0.593161
0.591181
0.588956
0.586478
0.583736
0.580714
0.577395
0.573756
0.56977
0.565403
0.560616
0.555363
0.549586
0.54322
0.536182
0.528375
0.519681
0.50995
0.499017
0.486626
0.472573
0.456327
0.437831
0.415595
0.390815
0.358063
0.325476
0.270167
0.234564
0.117529
0.123805
0.254723
0.282925
0.318463
0.366438
0.414723
0.459404
0.494272
0.518771
0.536606
0.550402
0.561327
0.570047
0.577042
0.582667
0.587188
0.590804
0.593665
0.595889
0.597569
0.598777
0.59957
0.599994
0.600085
0.599871
0.599375
0.598612
0.597597
0.596336
0.594834
0.593094
0.591113
0.588886
0.586406
0.583661
0.580636
0.577314
0.573672
0.569682
0.565311
0.560519
0.555261
0.549479
0.543106
0.53606
0.528245
0.519542
0.509801
0.498856
0.486452
0.472384
0.45612
0.437603
0.415345
0.390533
0.357757
0.325116
0.269808
0.234113
0.117239
0.12347
0.259438
0.285789
0.320886
0.367969
0.415561
0.459819
0.494552
0.519004
0.536777
0.55051
0.561387
0.570071
0.577041
0.58265
0.587159
0.590765
0.593621
0.595841
0.597518
0.598724
0.599516
0.599939
0.600029
0.599814
0.599317
0.598554
0.597537
0.596275
0.594772
0.59303
0.591047
0.588819
0.586336
0.583589
0.580562
0.577237
0.573592
0.569598
0.565223
0.560427
0.555164
0.549376
0.542997
0.535945
0.528122
0.51941
0.50966
0.498703
0.486286
0.472203
0.455923
0.437386
0.415106
0.390264
0.357466
0.324774
0.269467
0.233685
0.116966
0.123153
0.264067
0.288669
0.323303
0.369524
0.416441
0.460281
0.494868
0.519263
0.536969
0.550634
0.561458
0.570106
0.577049
0.582639
0.587134
0.590732
0.593581
0.595797
0.597471
0.598675
0.599465
0.599887
0.599976
0.59976
0.599262
0.598498
0.59748
0.596217
0.594713
0.59297
0.590986
0.588755
0.586271
0.583521
0.580492
0.577164
0.573516
0.569518
0.56514
0.56034
0.555072
0.549279
0.542894
0.535835
0.528005
0.519285
0.509525
0.498558
0.486129
0.472032
0.455737
0.437179
0.41488
0.390009
0.35719
0.324449
0.269143
0.23328
0.116709
0.122852
0.268611
0.29156
0.325712
0.371098
0.417361
0.460788
0.49522
0.519549
0.53718
0.550773
0.561541
0.570149
0.577064
0.582634
0.587116
0.590704
0.593546
0.595757
0.597428
0.598629
0.599418
0.599838
0.599926
0.599709
0.59921
0.598445
0.597427
0.596163
0.594657
0.592913
0.590927
0.588695
0.586209
0.583457
0.580426
0.577095
0.573444
0.569443
0.565061
0.560257
0.554985
0.549187
0.542796
0.535732
0.527894
0.519167
0.509398
0.498421
0.48598
0.47187
0.45556
0.436984
0.414666
0.389768
0.356928
0.324143
0.268838
0.232899
0.116468
0.122569
0.273077
0.294457
0.328112
0.37269
0.418317
0.461337
0.495606
0.519861
0.537411
0.550926
0.561636
0.570201
0.577087
0.582636
0.587103
0.59068
0.593515
0.595721
0.597388
0.598587
0.599374
0.599793
0.599879
0.599662
0.599162
0.598396
0.597376
0.596111
0.594605
0.592859
0.590872
0.588639
0.586151
0.583397
0.580363
0.577031
0.573376
0.569373
0.564987
0.560179
0.554903
0.5491
0.542704
0.535634
0.52779
0.519055
0.509278
0.498292
0.48584
0.471718
0.455393
0.436801
0.414465
0.389541
0.356682
0.323854
0.268551
0.232542
0.116243
0.122302
0.277467
0.297357
0.3305
0.374296
0.419308
0.461926
0.496026
0.520196
0.53766
0.551094
0.561741
0.570263
0.577117
0.582644
0.587095
0.590661
0.593488
0.595689
0.597353
0.598549
0.599333
0.599751
0.599836
0.599618
0.599117
0.59835
0.59733
0.596063
0.594556
0.592809
0.590821
0.588586
0.586096
0.583341
0.580305
0.57697
0.573313
0.569306
0.564917
0.560106
0.554826
0.549019
0.542618
0.535542
0.527692
0.51895
0.509166
0.49817
0.485709
0.471575
0.455237
0.436628
0.414276
0.389327
0.356451
0.323584
0.268282
0.232207
0.116033
0.122051
0.281786
0.300255
0.332875
0.375915
0.420329
0.462554
0.496477
0.520556
0.537927
0.551276
0.561858
0.570333
0.577155
0.582658
0.587093
0.590648
0.593466
0.595661
0.597321
0.598514
0.599296
0.599712
0.599796
0.599577
0.599075
0.598307
0.597286
0.596019
0.59451
0.592762
0.590772
0.588536
0.586045
0.583288
0.58025
0.576913
0.573253
0.569244
0.564853
0.560038
0.554754
0.548943
0.542538
0.535457
0.527601
0.518853
0.509061
0.498057
0.485586
0.471441
0.455091
0.436467
0.414099
0.389128
0.356236
0.323331
0.26803
0.231895
0.115838
0.121817
0.286038
0.303149
0.335235
0.377543
0.421379
0.463218
0.496958
0.520938
0.538212
0.551471
0.561985
0.570412
0.577199
0.582678
0.587096
0.590638
0.593449
0.595638
0.597292
0.598482
0.599263
0.599677
0.59976
0.599539
0.599036
0.598268
0.597245
0.595977
0.594468
0.592719
0.590728
0.58849
0.585997
0.583239
0.580199
0.57686
0.573198
0.569187
0.564792
0.559975
0.554687
0.548872
0.542463
0.535377
0.527516
0.518762
0.508963
0.497951
0.485472
0.471316
0.454955
0.436317
0.413935
0.388943
0.356035
0.323096
0.267797
0.231606
0.115659
0.1216
0.290226
0.306035
0.337578
0.379179
0.422455
0.463916
0.497469
0.521342
0.538513
0.55168
0.562123
0.570499
0.57725
0.582704
0.587104
0.590634
0.593435
0.595618
0.597268
0.598455
0.599232
0.599645
0.599726
0.599504
0.599001
0.598231
0.597208
0.595939
0.594429
0.592679
0.590687
0.588448
0.585954
0.583193
0.580152
0.576811
0.573147
0.569134
0.564736
0.559916
0.554625
0.548807
0.542394
0.535304
0.527438
0.518678
0.508873
0.497854
0.485366
0.471201
0.45483
0.436179
0.413783
0.388772
0.35585
0.322879
0.267582
0.231339
0.115493
0.1214
0.294355
0.308911
0.339904
0.38082
0.423554
0.464646
0.498008
0.521767
0.538831
0.551901
0.562271
0.570594
0.577309
0.582736
0.587117
0.590634
0.593426
0.595602
0.597247
0.598431
0.599206
0.599616
0.599696
0.599473
0.598968
0.598198
0.597174
0.595904
0.594393
0.592642
0.590649
0.588409
0.585914
0.583152
0.580109
0.576766
0.573101
0.569085
0.564685
0.559862
0.554569
0.548747
0.54233
0.535236
0.527366
0.518601
0.50879
0.497765
0.48527
0.471096
0.454715
0.436052
0.413643
0.388615
0.35568
0.32268
0.267384
0.231095
0.115343
0.121216
0.298428
0.311772
0.342211
0.382464
0.424674
0.465406
0.498573
0.522212
0.539163
0.552134
0.562428
0.570697
0.577373
0.582774
0.587136
0.590639
0.593421
0.59559
0.597231
0.59841
0.599183
0.599591
0.599669
0.599445
0.598939
0.598168
0.597143
0.595873
0.594361
0.592609
0.590615
0.588373
0.585877
0.583114
0.58007
0.576725
0.573058
0.56904
0.564639
0.559814
0.554517
0.548693
0.542273
0.535175
0.5273
0.518531
0.508714
0.497683
0.485181
0.471
0.45461
0.435936
0.413517
0.388472
0.355525
0.322499
0.267205
0.230874
0.115206
0.121049
0.302449
0.314617
0.344497
0.384109
0.425812
0.466194
0.499163
0.522677
0.539511
0.552379
0.562594
0.570808
0.577445
0.582817
0.587159
0.590648
0.59342
0.595582
0.597217
0.598393
0.599163
0.599569
0.599646
0.599421
0.598914
0.598142
0.597116
0.595844
0.594332
0.592579
0.590584
0.588342
0.585844
0.58308
0.580035
0.576689
0.57302
0.569001
0.564597
0.55977
0.554471
0.548644
0.542221
0.53512
0.527241
0.518467
0.508647
0.49761
0.485102
0.470914
0.454516
0.435832
0.413402
0.388343
0.355386
0.322337
0.267044
0.230675
0.115084
0.120899
0.306421
0.317444
0.346761
0.385754
0.426967
0.467007
0.499778
0.523159
0.539872
0.552634
0.56277
0.570926
0.577522
0.582866
0.587188
0.590662
0.593424
0.595578
0.597208
0.59838
0.599146
0.599551
0.599626
0.599399
0.598891
0.598118
0.597092
0.595819
0.594306
0.592552
0.590557
0.588314
0.585815
0.58305
0.580003
0.576656
0.572986
0.568965
0.56456
0.55973
0.55443
0.5486
0.542174
0.53507
0.527189
0.518411
0.508586
0.497545
0.485032
0.470837
0.454432
0.435739
0.413301
0.388229
0.355262
0.322192
0.2669
0.230498
0.114975
0.120765
0.310347
0.320248
0.349002
0.387395
0.428136
0.467845
0.500415
0.523658
0.540246
0.5529
0.562954
0.571051
0.577606
0.58292
0.587221
0.59068
0.593431
0.595578
0.597202
0.59837
0.599134
0.599535
0.599609
0.599381
0.598872
0.598098
0.597071
0.595798
0.594284
0.592529
0.590533
0.588289
0.58579
0.583024
0.579976
0.576628
0.572956
0.568934
0.564527
0.559696
0.554393
0.548562
0.542134
0.535027
0.527143
0.518362
0.508533
0.497488
0.48497
0.470769
0.454358
0.435658
0.413212
0.388129
0.355154
0.322065
0.266775
0.230344
0.114881
0.120648
0.314232
0.32303
0.35122
0.389033
0.429317
0.468705
0.501073
0.524174
0.540633
0.553176
0.563146
0.571183
0.577695
0.582979
0.587259
0.590703
0.593443
0.595581
0.5972
0.598363
0.599124
0.599524
0.599595
0.599366
0.598856
0.598081
0.597053
0.595779
0.594265
0.59251
0.590512
0.588268
0.585768
0.583001
0.579952
0.576603
0.572931
0.568907
0.564499
0.559667
0.554362
0.548529
0.542099
0.53499
0.527103
0.51832
0.508488
0.497439
0.484917
0.470712
0.454295
0.435589
0.413136
0.388043
0.355061
0.321956
0.266667
0.230211
0.1148
0.120547
0.318078
0.325785
0.353411
0.390665
0.430508
0.469586
0.501751
0.524705
0.541031
0.553461
0.563346
0.571322
0.577791
0.583044
0.587301
0.59073
0.593459
0.595589
0.597201
0.598361
0.599118
0.599515
0.599585
0.599354
0.598843
0.598068
0.597039
0.595764
0.594249
0.592493
0.590496
0.58825
0.58575
0.582982
0.579933
0.576583
0.57291
0.568885
0.564476
0.559642
0.554337
0.548502
0.54207
0.53496
0.527071
0.518285
0.50845
0.497398
0.484873
0.470664
0.454243
0.435531
0.413072
0.387971
0.354983
0.321866
0.266578
0.230101
0.114733
0.120463
0.321889
0.328512
0.355577
0.39229
0.431707
0.470485
0.502447
0.52525
0.54144
0.553756
0.563553
0.571467
0.577891
0.583113
0.587348
0.590761
0.593478
0.5956
0.597206
0.598361
0.599115
0.59951
0.599578
0.599346
0.598834
0.598057
0.597028
0.595753
0.594237
0.592481
0.590482
0.588237
0.585735
0.582967
0.579917
0.576567
0.572893
0.568867
0.564457
0.559623
0.554316
0.54848
0.542047
0.534935
0.527044
0.518257
0.50842
0.497366
0.484837
0.470625
0.454201
0.435484
0.413021
0.387914
0.354921
0.321793
0.266506
0.230013
0.114679
0.120396
0.325668
0.331209
0.357715
0.393905
0.432913
0.471401
0.503161
0.525808
0.541859
0.554058
0.563767
0.571618
0.577997
0.583188
0.5874
0.590796
0.593502
0.595615
0.597215
0.598365
0.599116
0.599508
0.599575
0.599341
0.598827
0.59805
0.59702
0.595744
0.594228
0.592471
0.590472
0.588226
0.585725
0.582956
0.579906
0.576555
0.57288
0.568854
0.564443
0.559608
0.554301
0.548464
0.54203
0.534917
0.527025
0.518235
0.508397
0.497341
0.484811
0.470596
0.454169
0.435449
0.412983
0.387871
0.354875
0.321739
0.266452
0.229947
0.114639
0.120345
0.329419
0.333874
0.359824
0.395511
0.434123
0.472332
0.50389
0.526378
0.542288
0.554368
0.563987
0.571774
0.578109
0.583266
0.587456
0.590836
0.593529
0.595633
0.597227
0.598373
0.59912
0.59951
0.599574
0.599339
0.598824
0.598046
0.597015
0.595739
0.594222
0.592465
0.590466
0.58822
0.585718
0.582949
0.579898
0.576547
0.572872
0.568845
0.564434
0.559598
0.55429
0.548453
0.542018
0.534904
0.527012
0.518221
0.508382
0.497325
0.484793
0.470577
0.454148
0.435426
0.412958
0.387842
0.354844
0.321703
0.266417
0.229903
0.114613
0.120312
0.333144
0.336504
0.361904
0.397105
0.435336
0.473276
0.504634
0.526959
0.542725
0.554685
0.564214
0.571936
0.578225
0.58335
0.587516
0.590879
0.59356
0.595656
0.597243
0.598384
0.599128
0.599515
0.599577
0.59934
0.598825
0.598046
0.597014
0.595737
0.59422
0.592463
0.590463
0.588216
0.585714
0.582945
0.579894
0.576543
0.572867
0.568841
0.564429
0.559593
0.554285
0.548448
0.542012
0.534898
0.527005
0.518214
0.508375
0.497317
0.484784
0.470567
0.454137
0.435415
0.412945
0.387828
0.354828
0.321685
0.266399
0.229881
0.114599
0.120295
0.336848
0.339098
0.363953
0.398686
0.436551
0.474233
0.505392
0.527551
0.543169
0.555008
0.564446
0.572103
0.578346
0.583438
0.58758
0.590926
0.593595
0.595682
0.597262
0.598398
0.599138
0.599523
0.599583
0.599345
0.598828
0.598048
0.597016
0.595739
0.594221
0.592463
0.590464
0.588217
0.585715
0.582946
0.579894
0.576543
0.572868
0.568841
0.56443
0.559594
0.554285
0.548448
0.542012
0.534898
0.527005
0.518214
0.508375
0.497317
0.484784
0.470567
0.454137
0.435415
0.412945
0.387828
0.354828
0.321685
0.266399
0.229881
0.114599
0.120295
0.340534
0.341653
0.36597
0.400252
0.437765
0.4752
0.506161
0.528151
0.543621
0.555337
0.564684
0.572275
0.578471
0.58353
0.587649
0.590977
0.593634
0.595711
0.597285
0.598416
0.599152
0.599534
0.599592
0.599353
0.598835
0.598054
0.597021
0.595744
0.594226
0.592468
0.590468
0.588221
0.585719
0.58295
0.579899
0.576547
0.572872
0.568845
0.564434
0.559598
0.55429
0.548453
0.542018
0.534904
0.527012
0.518221
0.508382
0.497325
0.484793
0.470577
0.454148
0.435426
0.412958
0.387842
0.354844
0.321703
0.266417
0.229903
0.114613
0.120312
0.344204
0.344167
0.367955
0.401804
0.438977
0.476175
0.506942
0.52876
0.544078
0.555671
0.564926
0.572451
0.578601
0.583627
0.587721
0.591032
0.593676
0.595744
0.597311
0.598437
0.59917
0.599549
0.599605
0.599364
0.598845
0.598063
0.59703
0.595752
0.594233
0.592475
0.590476
0.588229
0.585727
0.582958
0.579907
0.576555
0.572881
0.568854
0.564444
0.559608
0.554301
0.548464
0.54203
0.534917
0.527025
0.518236
0.508397
0.497341
0.484811
0.470596
0.454169
0.435449
0.412983
0.387871
0.354875
0.321739
0.266452
0.229947
0.114639
0.120345
0.347863
0.346639
0.369906
0.403339
0.440187
0.477159
0.507731
0.529375
0.544541
0.55601
0.565172
0.572632
0.578734
0.583727
0.587797
0.591091
0.593722
0.595781
0.597341
0.598462
0.599191
0.599567
0.599621
0.599378
0.598858
0.598075
0.597041
0.595763
0.594245
0.592487
0.590487
0.58824
0.585738
0.582969
0.579919
0.576568
0.572894
0.568868
0.564458
0.559623
0.554316
0.54848
0.542047
0.534935
0.527044
0.518257
0.50842
0.497366
0.484837
0.470625
0.454201
0.435484
0.413021
0.387914
0.354921
0.321793
0.266506
0.230013
0.114679
0.120396
0.351514
0.349066
0.371823
0.404856
0.441392
0.478148
0.508529
0.529997
0.545008
0.556353
0.565423
0.572817
0.578872
0.583831
0.587877
0.591153
0.593771
0.595821
0.597374
0.59849
0.599215
0.599588
0.59964
0.599396
0.598874
0.598091
0.597056
0.595778
0.594259
0.592501
0.590501
0.588255
0.585753
0.582985
0.579935
0.576584
0.572911