/*--------------------------------*- C++ -*----------------------------------*\
| =========                 |                                                 |
| \\      /  F ield         | OpenFOAM: The Open Source CFD Toolbox           |
|  \\    /   O peration     | Version:  2.4.0                                 |
|   \\  /    A nd           | Web:      www.OpenFOAM.org                      |
|    \\/     M anipulation  |                                                 |
\*---------------------------------------------------------------------------*/
FoamFile
{
    version     2.0;
    format      ascii;
    class       volScalarField;
    location    "6.9";
    object      epsilon;
}
// * * * * * * * * * * * * * * * * * * * * * * * * * * * * * * * * * * * * * //

dimensions      [0 2 -3 0 0 0 0];

internalField   nonuniform List<scalar> 
6000
(
54.1729
1.09759
0.020287
0.134488
0.0725462
0.0863253
0.0615996
0.0575486
0.0460818
0.0418813
0.0364046
0.034061
0.0319352
0.0314646
0.0315693
0.0327513
0.0346125
0.0373656
0.0408885
0.0453016
0.0505924
0.0568339
0.0640316
0.0722003
0.0812986
0.0912605
0.101968
0.113253
0.124866
0.136479
0.147679
0.157972
0.166787
0.173495
0.177428
0.177965
0.174589
0.16691
0.154878
0.138731
0.119421
0.0982603
0.0774944
0.0616235
0.0971581
0.15068
0.225906
0.336806
0.481691
0.697695
0.951928
1.36768
1.77629
2.6277
3.19643
5.19391
5.65233
11.3126
10.2825
28.9004
17.7229
0.975468
0.0253669
0.0742222
0.0418219
0.0473847
0.0343698
0.0316161
0.025478
0.0229819
0.0199946
0.0185927
0.0173696
0.0169823
0.0169086
0.0173635
0.0181505
0.0193505
0.0208962
0.0228263
0.0251232
0.027805
0.0308625
0.0342918
0.0380679
0.0421598
0.04652
0.0510852
0.0557673
0.0604534
0.0650042
0.0692547
0.0730146
0.0760657
0.0781836
0.0791388
0.0787235
0.0767505
0.0731224
0.0678127
0.0610319
0.0531279
0.0448953
0.038757
0.0564222
0.0813997
0.11462
0.161008
0.21955
0.303174
0.400689
0.553352
0.707639
1.00769
1.2309
1.9078
2.14667
3.99001
3.91328
9.73121
7.13598
0.711153
0.0303055
0.0435434
0.0252884
0.0273067
0.0200729
0.0181989
0.0147526
0.0132253
0.011531
0.0106831
0.00997403
0.00971418
0.00964074
0.00984907
0.0102394
0.0108442
0.0116277
0.0126039
0.0137614
0.0151056
0.0166302
0.0183314
0.0201977
0.0222157
0.0243664
0.0266249
0.0289576
0.0313214
0.0336636
0.0359213
0.0380204
0.0398731
0.0413916
0.0424692
0.0430037
0.0428896
0.0420435
0.040397
0.0379733
0.0348609
0.0313907
0.0290874
0.0394091
0.0533174
0.0709046
0.0940969
0.122243
0.160377
0.204178
0.269081
0.33631
0.457085
0.556637
0.816094
0.943542
1.61741
1.70155
3.72825
3.42004
0.518234
0.0345346
0.027455
0.0160622
0.0164811
0.0122283
0.0109303
0.00890778
0.00794794
0.00695636
0.00644145
0.00603323
0.0058821
0.00585065
0.00598255
0.00622581
0.00659443
0.00707005
0.00765865
0.00835471
0.00916061
0.0100736
0.011092
0.0122109
0.0134245
0.0147247
0.0161006
0.0175371
0.0190151
0.0205107
0.0219951
0.0234324
0.0247867
0.0260118
0.0270518
0.0278518
0.0283517
0.0284972
0.0282367
0.0275585
0.026481
0.0251556
0.0246116
0.031388
0.0402284
0.0510149
0.0646063
0.0806389
0.101304
0.124755
0.157399
0.19195
0.248544
0.29969
0.413313
0.485625
0.76262
0.849606
1.63356
1.89782
0.395525
0.0386494
0.01904
0.0107891
0.0104251
0.00776209
0.00683528
0.00559541
0.00497679
0.00438226
0.00407182
0.00384426
0.00377351
0.00378499
0.00389926
0.00408869
0.00436005
0.00470425
0.0051247
0.00561928
0.00618976
0.00683528
0.00755539
0.00834781
0.00920982
0.0101374
0.0111249
0.0121646
0.0132468
0.0143592
0.0154873
0.0166124
0.0177228
0.0187889
0.019782
0.0206719
0.0214246
0.0220064
0.0223814
0.0225308
0.0224476
0.0222026
0.0225282
0.0274058
0.0336068
0.0409678
0.0499135
0.0602836
0.0731358
0.0877001
0.106867
0.127707
0.158774
0.189381
0.247048
0.292512
0.421997
0.489391
0.829273
1.19136
0.318419
0.0429753
0.0149622
0.00776914
0.00694093
0.00514149
0.00445032
0.00365438
0.00324533
0.00288264
0.00270006
0.0025832
0.00256831
0.00261327
0.00272814
0.00289809
0.00312706
0.00341093
0.00375227
0.0041508
0.0046081
0.00512427
0.00569939
0.0063325
0.00702233
0.00776697
0.00856373
0.00940881
0.0102975
0.0112242
0.0121818
0.0131627
0.0141621
0.0151617
0.0161451
0.0170944
0.0179878
0.018802
0.0195104
0.0200936
0.0205367
0.020874
0.0216532
0.0254291
0.0301211
0.0355636
0.0419726
0.0493005
0.0580953
0.0680965
0.0806837
0.0947959
0.114208
0.13496
0.168565
0.200353
0.269411
0.320659
0.48651
0.829186
0.268834
0.0475661
0.013534
0.00612336
0.0049074
0.00357017
0.00302353
0.00248481
0.00220621
0.00198237
0.00188071
0.00183257
0.00185512
0.00192364
0.0020434
0.00220656
0.00241604
0.00267045
0.00297215
0.00332184
0.00372115
0.00417075
0.00467121
0.00522256
0.00582474
0.00647746
0.00718011
0.00793159
0.00873037
0.00957438
0.0104603
0.0113871
0.0123492
0.0133353
0.0143347
0.0153345
0.016319
0.0172709
0.0181697
0.0189986
0.0197415
0.0204136
0.0214431
0.0245316
0.0282895
0.0325634
0.0374587
0.0429819
0.0494257
0.0567653
0.065676
0.0759299
0.0891875
0.104375
0.126161
0.15007
0.191403
0.231627
0.32125
0.628421
0.235882
0.0523297
0.0138401
0.005404
0.00373673
0.00262036
0.00215399
0.00176481
0.00156737
0.00142799
0.0013778
0.00137268
0.00141998
0.00150461
0.00162971
0.00179146
0.00199244
0.00223287
0.0025151
0.0028405
0.00321087
0.00362744
0.00409139
0.00460363
0.0051652
0.00577705
0.00644004
0.00715465
0.00792104
0.00873885
0.00960673
0.0105246
0.011487
0.0124857
0.0135126
0.0145576
0.0156082
0.0166509
0.0176697
0.0186515
0.0195781
0.0204565
0.0216303
0.0242616
0.0273994
0.0309079
0.0348312
0.0392001
0.0441708
0.0498216
0.0564781
0.0642727
0.0738869
0.0854799
0.100686
0.119343
0.146398
0.178639
0.231035
0.510222
0.213249
0.0571104
0.0153569
0.0053634
0.00311832
0.0020575
0.00162173
0.00131629
0.00116795
0.00107998
0.00106245
0.00108459
0.00114847
0.00124459
0.00137512
0.0015386
0.00173756
0.00197322
0.00224807
0.00256399
0.0029231
0.00332719
0.00377804
0.00427734
0.00482691
0.00542856
0.00608394
0.00679433
0.0075606
0.00838307
0.00926112
0.0101935
0.0111753
0.0122
0.0132606
0.0143486
0.0154532
0.0165636
0.0176673
0.0187539
0.0197993
0.0208135
0.0220721
0.0243828
0.0270837
0.0300586
0.0333168
0.0368996
0.0408867
0.0453989
0.05058
0.0567067
0.063993
0.0730874
0.08427
0.099097
0.118022
0.144056
0.176634
0.437373
0.197245
0.0617376
0.017742
0.00586805
0.00289275
0.00175274
0.00130408
0.00103866
0.000917269
0.000859775
0.000862731
0.000902475
0.000978082
0.00108324
0.00121966
0.00138732
0.00158882
0.00182604
0.00210167
0.00241808
0.00277776
0.00318299
0.00363608
0.00413928
0.00469491
0.00530523
0.0059723
0.00669769
0.00748251
0.00832723
0.00923084
0.010191
0.0112034
0.0122622
0.0133608
0.0144915
0.0156447
0.0168113
0.0179811
0.0191447
0.0202709
0.0213789
0.0226864
0.0247619
0.0271395
0.0297222
0.0324998
0.0355172
0.0388109
0.0425156
0.0466786
0.0516243
0.0573403
0.0646353
0.0731936
0.0851425
0.0990685
0.120175
0.141538
0.390905
0.185658
0.066057
0.0207405
0.00683851
0.00298411
0.00163766
0.00113278
0.000874714
0.000763577
0.000722513
0.000737872
0.000789319
0.000873886
0.000987025
0.00113018
0.00130417
0.00151173
0.00175521
0.00203759
0.00236165
0.00273022
0.00314604
0.00361178
0.00413008
0.00470353
0.0053346
0.0060255
0.00677785
0.00759273
0.00847055
0.00940891
0.0104053
0.0114555
0.0125538
0.0136938
0.014868
0.0160672
0.0172838
0.0185091
0.01973
0.0209147
0.022089
0.0234226
0.0253185
0.0274467
0.0297281
0.0321416
0.0347331
0.0375136
0.0406199
0.044047
0.0481255
0.0527336
0.0587014
0.0654637
0.0752344
0.0859056
0.103141
0.117858
0.360499
0.177122
0.0699508
0.0241397
0.00822511
0.00335252
0.00168015
0.00107123
0.00079236
0.000677405
0.000642485
0.000664548
0.000723956
0.000815954
0.000936802
0.00108769
0.00126993
0.0014864
0.00173985
0.00203353
0.00237058
0.00275418
0.00318736
0.00367312
0.00421428
0.00481357
0.00547354
0.0061964
0.00698367
0.00783633
0.00875418
0.00973354
0.010772
0.0118648
0.0130065
0.0141903
0.0154088
0.0166529
0.0179157
0.0191893
0.0204518
0.0216814
0.0229028
0.0242468
0.0260007
0.0279296
0.0299705
0.032097
0.0343544
0.036739
0.0393841
0.0422567
0.0456765
0.049471
0.0544373
0.05992
0.0680332
0.0764854
0.0907224
0.101335
0.340228
0.170763
0.0733473
0.0277492
0.00998192
0.00397803
0.0018718
0.00110213
0.000774575
0.000642395
0.000605119
0.000629411
0.000694181
0.000792726
0.000921386
0.00108103
0.00127324
0.00150103
0.00176745
0.00207604
0.00243025
0.00283353
0.00328919
0.00380037
0.00437005
0.00500098
0.00569566
0.00645625
0.00728412
0.00818006
0.00914259
0.0101674
0.0112518
0.0123909
0.0135786
0.014808
0.0160713
0.0173591
0.0186653
0.0199792
0.0212737
0.0225379
0.023792
0.0251353
0.026773
0.0285376
0.0303801
0.0322723
0.0342584
0.0363261
0.0386034
0.0410423
0.0439461
0.0471211
0.0513139
0.0558512
0.0626903
0.069568
0.0814961
0.0894664
0.326536
0.166004
0.0762212
0.0313971
0.0120553
0.00485297
0.00221295
0.00122081
0.000813849
0.000650211
0.000602531
0.000624999
0.000693034
0.000797508
0.00093423
0.00110362
0.00130734
0.00154852
0.00183043
0.0021569
0.00253163
0.0029583
0.0034404
0.00398121
0.00458371
0.00525064
0.00598439
0.00678705
0.00765974
0.0086031
0.00961344
0.0106869
0.0118202
0.0130078
0.0142432
0.015519
0.0168272
0.0181576
0.0195048
0.0208493
0.0221703
0.0234607
0.024736
0.0260702
0.0276096
0.0292348
0.0309091
0.0326042
0.0343631
0.036169
0.0381437
0.0402323
0.0427201
0.0454077
0.0489889
0.0528044
0.05865
0.0643699
0.0745147
0.0807106
0.317206
0.162446
0.0785868
0.0349336
0.0143781
0.00597219
0.00270699
0.00143209
0.000909229
0.000697754
0.000631086
0.000647522
0.000716793
0.000826613
0.000971655
0.00115171
0.00136832
0.0016247
0.0019243
0.00227116
0.00266921
0.00312232
0.0036341
0.00420787
0.00484661
0.00555297
0.00632919
0.00717725
0.00809796
0.00909166
0.0101521
0.0112764
0.0124605
0.0136981
0.0149821
0.0163045
0.017657
0.0190284
0.0204113
0.0217799
0.0231225
0.024432
0.0257191
0.0270372
0.0284908
0.0299948
0.0315228
0.0330476
0.0346112
0.0361946
0.0379137
0.0397111
0.0418548
0.0441475
0.0472339
0.0504817
0.0555394
0.0603797
0.069134
0.0740869
0.310816
0.159807
0.0804879
0.0382373
0.0168694
0.00732408
0.00336048
0.00174498
0.0010649
0.00078573
0.000690104
0.000695673
0.0007639
0.000878349
0.00103189
0.00122341
0.00145417
0.00172739
0.0020466
0.00241603
0.00283981
0.00332194
0.00386608
0.00447557
0.00515333
0.00590187
0.00672324
0.00761929
0.00859052
0.0096363
0.0107487
0.0119252
0.0131611
0.0144494
0.0157821
0.0171507
0.0185464
0.0199567
0.0213669
0.0227564
0.0241159
0.0254376
0.0267283
0.0280247
0.0294011
0.030797
0.0321946
0.033569
0.0349608
0.0363506
0.0378488
0.0393977
0.0412502
0.0432145
0.0458921
0.0486812
0.0531028
0.0572551
0.0649097
0.0689566
0.306431
0.157877
0.0819863
0.0412205
0.0194379
0.00888585
0.00418145
0.00216752
0.00128969
0.000917994
0.000781221
0.000770006
0.000834389
0.000952473
0.00111452
0.0013182
0.00156423
0.00185575
0.00219629
0.00259024
0.00304185
0.0035552
0.004134
0.00478151
0.00550057
0.00629352
0.00716216
0.00810824
0.00913188
0.0102308
0.0113961
0.0126258
0.0139139
0.0152526
0.0166335
0.018047
0.0194842
0.0209274
0.02236
0.0237668
0.0251382
0.026466
0.0277529
0.0290223
0.0303272
0.0316246
0.0329038
0.0341424
0.0353801
0.0365979
0.0379012
0.0392337
0.0408346
0.0425197
0.0448525
0.0472621
0.0511606
0.0547608
0.0615315
0.0648934
0.303426
0.156499
0.0831518
0.0438302
0.0219889
0.0106208
0.00517303
0.002709
0.00159423
0.00110136
0.000908122
0.000872648
0.00092958
0.00104988
0.00122021
0.00143658
0.00169885
0.00201
0.00237342
0.00279361
0.0032749
0.00382141
0.0044368
0.00512428
0.0058865
0.00672566
0.00764322
0.00864087
0.00971837
0.0108707
0.0120895
0.0133723
0.0147123
0.0161009
0.0175286
0.0189851
0.02046
0.0219292
0.0233811
0.0248011
0.0261794
0.0275069
0.0287831
0.030021
0.0312578
0.0324635
0.0336332
0.034747
0.0358442
0.0369063
0.0380347
0.0391752
0.040555
0.0419977
0.0440347
0.0461236
0.0495845
0.0527311
0.0587791
0.0616064
0.301376
0.155549
0.084054
0.0460468
0.0244331
0.0124783
0.00632997
0.00337955
0.0019874
0.00134569
0.00107652
0.0010072
0.00105195
0.00117247
0.00135053
0.0015799
0.00185924
0.00219119
0.00257886
0.00302683
0.00353943
0.00412076
0.00477442
0.00550346
0.00631037
0.00719715
0.00816486
0.00921517
0.0103474
0.0115529
0.0128251
0.0141607
0.0155517
0.0169885
0.0184612
0.0199583
0.0214627
0.0229543
0.0244218
0.0258504
0.0272302
0.0285514
0.0298104
0.0310121
0.0321828
0.0333015
0.0343681
0.0353656
0.0363326
0.0372519
0.0382211
0.0391884
0.0403708
0.0415999
0.0433788
0.0451919
0.0482805
0.051047
0.0564939
0.0588924
0.299986
0.154932
0.0847572
0.0478787
0.0266936
0.0143964
0.00763603
0.00418558
0.00247941
0.00166077
0.00129426
0.00117874
0.0012051
0.00132304
0.00150783
0.00175028
0.00204731
0.00240107
0.00281422
0.00329131
0.00383663
0.00445421
0.00514753
0.00591945
0.00677221
0.00770766
0.00872637
0.00983002
0.0110167
0.0122753
0.0136002
0.0149874
0.0164278
0.0179109
0.019426
0.0209565
0.0224857
0.023996
0.0254745
0.0269068
0.0282825
0.029591
0.0308265
0.0319876
0.0330927
0.0341274
0.0350959
0.0359833
0.0368282
0.0376148
0.0384372
0.0392466
0.0402506
0.0412887
0.0428394
0.0444114
0.0471784
0.049621
0.0545595
0.0566064
0.299055
0.154568
0.0853166
0.0493554
0.028713
0.0163068
0.00906246
0.00512714
0.00308006
0.00205537
0.00157124
0.00139396
0.00139377
0.00150532
0.00169527
0.00195053
0.00226565
0.00264206
0.0030817
0.00358907
0.00416832
0.00482334
0.00555743
0.00637322
0.00727268
0.0082575
0.00932766
0.010485
0.0117251
0.0130362
0.0144126
0.0158497
0.0173374
0.0188641
0.020415
0.0219734
0.0235235
0.0250477
0.0265323
0.0279628
0.0293284
0.030618
0.0318238
0.0329397
0.0339787
0.0349313
0.0358048
0.0365871
0.0373163
0.0379782
0.0386642
0.0393279
0.0401691
0.0410344
0.0423809
0.0437396
0.046225
0.0483873
0.0528894
0.0546429
0.298442
0.154397
0.0857773
0.0505203
0.0304556
0.0181409
0.0105685
0.00619559
0.0037959
0.00253955
0.00191609
0.00166124
0.00162393
0.00172392
0.00191673
0.00218414
0.00251746
0.00291713
0.00338411
0.0039227
0.00453685
0.00523024
0.00600594
0.00686629
0.00781293
0.00884746
0.00996914
0.01118
0.0124722
0.0138345
0.0152604
0.0167454
0.0182774
0.0198413
0.0214223
0.0230042
0.0245705
0.0261034
0.0275885
0.0290112
0.0303605
0.0316247
0.0327945
0.0338606
0.0348322
0.0357034
0.0364843
0.0371651
0.0377837
0.0383278
0.0388858
0.0394142
0.0401054
0.0408132
0.0419752
0.0431431
0.0453789
0.047296
0.0514179
0.0529236
0.298046
0.154368
0.0861739
0.0514237
0.0319085
0.019837
0.0121036
0.0073718
0.00462801
0.00312175
0.00233796
0.00198934
0.00190284
0.00198443
0.00217685
0.00245522
0.00280652
0.00322984
0.00372473
0.00429526
0.00494503
0.00567746
0.0064953
0.00740056
0.0083945
0.00947871
0.0106516
0.0119156
0.0132576
0.0146692
0.0161424
0.0176723
0.0192417
0.0208374
0.0224439
0.0240443
0.0256213
0.0271571
0.0286366
0.0300451
0.0313714
0.0326035
0.0337312
0.0347427
0.0356449
0.0364347
0.0371244
0.0377065
0.0382188
0.0386506
0.0390879
0.03949
0.0400423
0.0406055
0.0415995
0.0425956
0.0446079
0.0463081
0.050095
0.0513894
0.2978
0.154442
0.0865317
0.0521172
0.0330783
0.0213456
0.0136117
0.00862572
0.00556993
0.00380707
0.00284551
0.00238669
0.00223877
0.00229337
0.00248101
0.0027685
0.00313717
0.00358421
0.00410735
0.00471027
0.0053961
0.00616793
0.00702812
0.00797828
0.00901924
0.0101527
0.011376
0.0126912
0.0140811
0.0155397
0.0170567
0.0186242
0.0202266
0.0218492
0.0234758
0.0250889
0.0266706
0.0282028
0.0296701
0.0310576
0.032354
0.0335471
0.0346263
0.0355784
0.0364087
0.0371164
0.0377157
0.0382012
0.0386108
0.0389351
0.0392582
0.0395418
0.0399649
0.040395
0.0412352
0.0420754
0.043886
0.0453931
0.0488814
0.0499949
0.297654
0.154587
0.0868679
0.0526496
0.0339875
0.0226336
0.0150369
0.00991741
0.00660602
0.00459539
0.00344524
0.0028614
0.00263971
0.00265833
0.00283522
0.00312921
0.00351416
0.00398469
0.00453613
0.00517161
0.00589365
0.00670489
0.00760727
0.00860194
0.0096892
0.0108711
0.0121436
0.0135073
0.0149428
0.0164431
0.0179983
0.0195989
0.0212291
0.022873
0.0245138
0.0261332
0.0277129
0.0292345
0.0306823
0.0320415
0.0333007
0.0344479
0.0354722
0.0363599
0.0371155
0.0377399
0.038249
0.0386396
0.0389494
0.0391708
0.0393855
0.0395578
0.0398606
0.0401676
0.0408665
0.041565
0.0431923
0.0445266
0.0477465
0.0487048
0.297576
0.154779
0.0871933
0.0530638
0.0346695
0.0236857
0.0163284
0.0111997
0.0077107
0.0054795
0.00413988
0.00341999
0.00311289
0.0030866
0.00324684
0.00354297
0.00394258
0.00443601
0.00501548
0.00568339
0.00644145
0.00729179
0.00823582
0.00927416
0.0104065
0.0116356
0.0129556
0.014363
0.015839
0.0173769
0.0189655
0.020594
0.0222461
0.0239052
0.0255534
0.0271721
0.0287424
0.0302458
0.0316665
0.0329896
0.0342041
0.0352982
0.0362612
0.0370794
0.037757
0.0382966
0.0387155
0.0390126
0.0392254
0.0393479
0.0394597
0.0395274
0.039718
0.0399115
0.0404803
0.0410496
0.0425096
0.0436888
0.0466658
0.0474914
0.297541
0.155
0.0875136
0.0533958
0.0351632
0.0245037
0.0174463
0.0124227
0.00884901
0.00644362
0.00492662
0.00406608
0.00366418
0.00358428
0.00372188
0.00401657
0.00442846
0.00494296
0.00554991
0.00624981
0.00704338
0.00793213
0.00891683
0.00999757
0.0111734
0.0124458
0.0138107
0.0152568
0.0167691
0.0183395
0.0199562
0.0216066
0.0232742
0.0249414
0.0265898
0.0282
0.029753
0.0312301
0.0326155
0.0338945
0.0350565
0.0360902
0.0369852
0.0377288
0.038325
0.0387782
0.0391067
0.0393114
0.0394298
0.0394573
0.0394714
0.039441
0.0395273
0.039616
0.0400653
0.040517
0.0418238
0.0428636
0.0456195
0.0463324
0.297533
0.155235
0.0878311
0.0536739
0.0355089
0.0251036
0.0183649
0.0135381
0.00997869
0.00746274
0.0057955
0.00479877
0.00429692
0.00415608
0.00426519
0.00455466
0.00497663
0.00551089
0.00614429
0.00687517
0.00770304
0.00862868
0.0096522
0.010773
0.0119895
0.0133025
0.0147077
0.016188
0.0177317
0.0193292
0.0209677
0.0226334
0.0243094
0.0259771
0.0276176
0.0292111
0.0307382
0.0321804
0.0335218
0.0347484
0.0358498
0.0368156
0.0376363
0.0383
0.0388114
0.0391762
0.039414
0.0395274
0.039554
0.0394905
0.039412
0.03929
0.0392795
0.0392722
0.0396117
0.0399567
0.0411231
0.0420378
0.0445917
0.0452101
0.297542
0.155474
0.0881457
0.0539195
0.0357451
0.0255123
0.0190739
0.0145052
0.0110537
0.0085032
0.00672821
0.0056111
0.00501051
0.00480428
0.00488001
0.00516068
0.00559054
0.00614315
0.00680183
0.00756244
0.0084231
0.00938375
0.0104438
0.0116019
0.0128559
0.0142059
0.0156459
0.0171557
0.0187251
0.0203434
0.0219968
0.0236705
0.0253469
0.0270069
0.0286308
0.0301986
0.0316908
0.033089
0.0343775
0.0355429
0.0365756
0.037466
0.0382059
0.0387846
0.0392078
0.0394824
0.0396292
0.0396525
0.0395898
0.0394393
0.0392737
0.0390665
0.0389667
0.0388719
0.039111
0.0393597
0.0403975
0.0412006
0.0435694
0.04411
0.29756
0.155711
0.0884561
0.0541475
0.0359054
0.0257629
0.0195782
0.0152944
0.0120286
0.00952453
0.00769774
0.00648864
0.00579895
0.00552744
0.00556696
0.00583609
0.00627201
0.00684175
0.00752459
0.0083136
0.00920536
0.0101988
0.0112926
0.0124849
0.0137725
0.0151558
0.0166243
0.0181578
0.0197465
0.0213786
0.0230394
0.0247131
0.0263813
0.0280246
0.0296227
0.0311553
0.032603
0.0339477
0.0351741
0.0362695
0.0372252
0.0380327
0.0386854
0.0391742
0.0395058
0.0396885
0.0397441
0.0396788
0.0395296
0.0392962
0.0390489
0.0387631
0.0385817
0.0384079
0.0385559
0.0387185
0.0396389
0.0403428
0.042542
0.0430204
0.297582
0.15594
0.0887603
0.0543679
0.0360181
0.025891
0.0198952
0.0158899
0.0128636
0.0104828
0.00866922
0.00740877
0.0066495
0.00631906
0.00632289
0.0065794
0.00702047
0.00760665
0.00831285
0.00912908
0.0100502
0.0110741
0.0121987
0.0134214
0.0147384
0.0161508
0.0176405
0.0191914
0.0207923
0.0224305
0.0240904
0.0257553
0.0274062
0.0290232
0.0305856
0.0320731
0.0334664
0.0347477
0.0359025
0.0369189
0.0377893
0.0385066
0.0390659
0.03946
0.0396969
0.0397862
0.0397508
0.0395984
0.0393659
0.0390542
0.0387308
0.0383734
0.038118
0.0378738
0.03794
0.0380265
0.0388402
0.0394569
0.0415008
0.0419315
0.297606
0.156158
0.0890563
0.0545863
0.0361054
0.025931
0.0200517
0.0162906
0.0135287
0.0113347
0.009602
0.00834082
0.00754177
0.00716637
0.00713967
0.00738511
0.00783193
0.00843488
0.00916435
0.0100071
0.010956
0.012008
0.0131602
0.0144093
0.0157512
0.0171861
0.0186908
0.020252
0.0218575
0.0234934
0.0251435
0.0267902
0.028414
0.0299944
0.0315109
0.0329429
0.0342714
0.0354793
0.0365529
0.0374813
0.0382582
0.0388783
0.0393382
0.0396333
0.0397726
0.0397675
0.0396415
0.0394042
0.0390919
0.0387067
0.0383133
0.0378914
0.03757
0.0372643
0.0372579
0.0372783
0.0379956
0.0385367
0.0404387
0.0408355
0.297629
0.156365
0.0893421
0.0548054
0.0361835
0.0259138
0.0200798
0.0165088
0.014007
0.0120426
0.0104531
0.00924739
0.00844754
0.00804942
0.00800312
0.00824262
0.00869803
0.00931961
0.0100734
0.0109427
0.0119185
0.0129965
0.0141732
0.0154446
0.0168065
0.0182568
0.0197698
0.0213337
0.0229353
0.02456
0.0261908
0.0278093
0.0293956
0.030929
0.0323887
0.0337545
0.0350078
0.0361322
0.0371149
0.0379465
0.038622
0.0391379
0.039493
0.0396851
0.0397246
0.0396244
0.0394089
0.0390892
0.0387009
0.0382476
0.0377907
0.0373117
0.0369327
0.0365745
0.0365049
0.0364691
0.0371004
0.0375772
0.0393499
0.039726
0.29765
0.156558
0.0896164
0.0550259
0.0362634
0.0258656
0.0200132
0.0165676
0.0142956
0.0125785
0.0111814
0.010087
0.00933164
0.00894084
0.00889221
0.00913529
0.00960503
0.0102492
0.01103
0.0119272
0.0129298
0.0140323
0.0152307
0.0165205
0.0178975
0.0193557
0.0208698
0.0224283
0.0240173
0.0256213
0.0272227
0.0288026
0.0303406
0.0318161
0.0332081
0.0344967
0.0356642
0.0366948
0.0375772
0.0383034
0.0388699
0.0392754
0.0395209
0.0396066
0.0395446
0.0393493
0.0390458
0.0386467
0.0381871
0.0376714
0.0371579
0.0366299
0.0362018
0.0358004
0.0356772
0.0355954
0.0361508
0.0365744
0.0382299
0.0385978
0.297669
0.156739
0.0898782
0.0552472
0.0363518
0.0258069
0.0198838
0.0164967
0.0144054
0.0129271
0.0117524
0.0108176
0.010154
0.00980646
0.00977892
0.0100399
0.0105331
0.0112064
0.0120189
0.0129471
0.0139777
0.0151044
0.0163223
0.0176268
0.0190144
0.0204729
0.0219807
0.0235254
0.0250926
0.026666
0.0282277
0.0297581
0.031237
0.0326432
0.0339563
0.035157
0.036228
0.0371551
0.037928
0.0385406
0.0389912
0.0392806
0.0394122
0.0393889
0.0392244
0.0389348
0.0385456
0.0380711
0.0375452
0.0369735
0.0364108
0.0358421
0.0353739
0.0349388
0.0347718
0.0346541
0.0351437
0.0355251
0.0370752
0.0374467
0.297685
0.156907
0.090127
0.0554679
0.036452
0.0257526
0.0197202
0.0163294
0.0143584
0.0130874
0.0121422
0.0114014
0.0108729
0.0106071
0.0106289
0.0109266
0.011456
0.0121677
0.013019
0.0139832
0.0150449
0.0161966
0.0174332
0.0187495
0.0201428
0.021595
0.023089
0.0246115
0.0261476
0.0276806
0.0291919
0.0306621
0.0320705
0.0333964
0.0346196
0.0357215
0.0366859
0.0374999
0.0381547
0.0386461
0.0389746
0.0391431
0.0391575
0.0390235
0.0387565
0.0383741
0.0379024
0.0373569
0.0367707
0.03615
0.0355459
0.0349452
0.0344462
0.0339873
0.0337864
0.0336432
0.0340771
0.0344271
0.0358831
0.0362696
0.297699
0.157063
0.0903628
0.0556866
0.036565
0.0257126
0.0195455
0.0160986
0.0141844
0.0130722
0.0123401
0.011809
0.0114491
0.0113015
0.0114029
0.0117596
0.0123411
0.0131031
0.0140027
0.0150103
0.0161083
0.0172878
0.0185434
0.01987
0.021264
0.0227047
0.024178
0.0256701
0.027166
0.0286485
0.0300992
0.0314982
0.0328252
0.0340598
0.0351823
0.0361751
0.0370232
0.0377152
0.0382441
0.0386078
0.0388087
0.0388525
0.0387475
0.0385022
0.0381338
0.0376611
0.0371111
0.0365
0.0358599
0.0351978
0.0345609
0.0339374
0.0334172
0.0329446
0.0327198
0.0325613
0.0329498
0.033279
0.034652
0.0350641
0.297711
0.157208
0.0905856
0.0559017
0.0366899
0.0256928
0.0193775
0.0158339
0.013917
0.0129053
0.0123502
0.0120231
0.0118501
0.0118499
0.01206
0.0124993
0.0131507
0.0139771
0.0149365
0.015997
0.0171386
0.0183508
0.0196277
0.0209644
0.0223556
0.0237806
0.0252269
0.026681
0.028128
0.0295506
0.0309305
0.032248
0.0334831
0.0346158
0.0356275
0.0365015
0.0372244
0.0377864
0.0381826
0.0384129
0.0384823
0.0383987
0.0381734
0.0378175
0.0373498
0.0367907
0.0361673
0.035497
0.0348105
0.0341152
0.0334544
0.0328176
0.0322861
0.0318099
0.0315716
0.0314082
0.0317614
0.0320802
0.0333811
0.0338289
0.29772
0.157344
0.0907961
0.056112
0.0368249
0.0256956
0.0192287
0.0155607
0.0135901
0.0126183
0.0121898
0.0120407
0.0120547
0.0122189
0.0125609
0.0131044
0.0138438
0.0147494
0.0157814
0.016906
0.0181004
0.0193522
0.0206549
0.0220034
0.0233903
0.0247964
0.0262106
0.0276202
0.0290104
0.0303645
0.0316642
0.0328905
0.0340238
0.035045
0.0359366
0.0366832
0.037273
0.0376982
0.0379561
0.0380489
0.0379841
0.0377723
0.0374272
0.0369627
0.0363994
0.0357589
0.0350684
0.0343462
0.0336213
0.0329018
0.0322265
0.0315862
0.0310535
0.0305841
0.0303424
0.0301844
0.0305123
0.0308308
0.0320701
0.0325632
0.297728
0.15747
0.0909948
0.0563164
0.0369679
0.025721
0.0191065
0.0152982
0.0132347
0.0122466
0.0118871
0.0118738
0.0120555
0.0123854
0.0128721
0.0135364
0.0143791
0.0153776
0.0164948
0.0176952
0.018953
0.0202533
0.0215882
0.0229523
0.0243355
0.0257213
0.0271
0.0284598
0.0297866
0.0310645
0.0322759
0.0334024
0.0344252
0.0353264
0.0360898
0.0367017
0.037152
0.0374352
0.0375509
0.0375038
0.037304
0.0369646
0.036502
0.0359327
0.0352788
0.0345632
0.0338132
0.0330472
0.0322931
0.0315587
0.0308787
0.030245
0.0297213
0.029269
0.0290341
0.0288915
0.029204
0.0295321
0.03072
0.0312669
0.297734
0.157588
0.0911825
0.0565142
0.0371165
0.0257673
0.0190147
0.0150602
0.0128767
0.0118253
0.0114772
0.0115469
0.0118603
0.01234
0.0129706
0.0137628
0.0147187
0.0158203
0.0170329
0.01832
0.019652
0.0210105
0.0223857
0.0237712
0.0251537
0.0265197
0.0278613
0.0291679
0.0304266
0.0316223
0.0327387
0.0337582
0.0346633
0.0354377
0.0360665
0.0365379
0.0368442
0.036982
0.0369536
0.0367661
0.0364323
0.0359681
0.0353922
0.0347237
0.0339861
0.0332033
0.0324023
0.031602
0.0308282
0.0300889
0.0294143
0.0287975
0.0282929
0.0278676
0.0276495
0.0275321
0.0278389
0.0281859
0.0293323
0.0299408
0.297738
0.157698
0.0913601
0.0567051
0.0372685
0.0258319
0.0189539
0.0148555
0.0125365
0.0113859
0.0109977
0.0110942
0.0114913
0.0120887
0.0128471
0.0137624
0.0148323
0.0160407
0.0173547
0.0187361
0.0201514
0.0215778
0.023002
0.0244163
0.0258032
0.0271524
0.0284575
0.0297095
0.0308971
0.0320068
0.0330232
0.0339306
0.034713
0.0353554
0.0358453
0.0361728
0.0363326
0.036324
0.0361517
0.0358258
0.0353615
0.0347773
0.0340946
0.0333344
0.0325218
0.0316812
0.0308392
0.0300148
0.0292317
0.0284979
0.0278389
0.0272489
0.0267735
0.0263849
0.0261932
0.0261103
0.0264206
0.0267952
0.0279095
0.0285865
0.297742
0.157802
0.0915283
0.0568889
0.037422
0.0259118
0.0189226
0.0146881
0.0122281
0.0109548
0.0104848
0.010555
0.0109823
0.0116528
0.0125083
0.013528
0.0147015
0.0160115
0.0174255
0.0189034
0.0204074
0.0219091
0.0233908
0.0248416
0.0262397
0.027577
0.0288484
0.0300469
0.031163
0.0321848
0.033099
0.0338915
0.0345481
0.0350562
0.0354051
0.0355878
0.0356013
0.0354477
0.0351346
0.0346747
0.034086
0.0333895
0.0326085
0.0317665
0.0308892
0.0300017
0.0291299
0.0282925
0.0275111
0.0267933
0.0261602
0.0256068
0.02517
0.0248273
0.0246711
0.0246311
0.0249537
0.0253638
0.0264548
0.0272062
0.297744
0.157901
0.091688
0.0570655
0.0375754
0.026004
0.0189181
0.014559
0.0119602
0.0105517
0.00997023
0.00996917
0.0103738
0.0110666
0.0119768
0.0130689
0.0143234
0.0157188
0.0172218
0.0187906
0.0203824
0.0219626
0.0235074
0.0250017
0.0264187
0.0277504
0.028993
0.0301413
0.0311878
0.0321228
0.0329349
0.0336123
0.0341431
0.034517
0.0347261
0.0347658
0.0346361
0.0343421
0.0338941
0.0333078
0.0326035
0.0318048
0.0309369
0.0300249
0.0290954
0.0281734
0.0272841
0.0264457
0.0256773
0.0249861
0.0243888
0.0238812
0.0234918
0.0232033
0.0230906
0.0231012
0.0234441
0.0238967
0.0249726
0.0258029
0.297746
0.157994
0.09184
0.0572353
0.0377274
0.0261054
0.0189368
0.0144665
0.0117366
0.01019
0.00947906
0.00937297
0.00970893
0.0103728
0.0112886
0.0124112
0.0137121
0.0151652
0.0167356
0.0183794
0.0200495
0.0217046
0.0233136
0.0248554
0.0262982
0.0276311
0.0288512
0.0299547
0.030936
0.0317877
0.0325008
0.0330659
0.0334739
0.0337171
0.0337904
0.0336924
0.033426
0.0329993
0.0324257
0.0317236
0.0309158
0.0300279
0.0290869
0.0281192
0.0271516
0.0262092
0.0253157
0.0244886
0.0237446
0.0230903
0.0225382
0.0220848
0.0217506
0.0215232
0.0214613
0.0215288
0.021899
0.0223999
0.023468
0.0243805
0.297747
0.158082
0.0919851
0.0573984
0.0378771
0.0262134
0.0189749
0.0144074
0.0115578
0.00987714
0.00902939
0.00879657
0.00902814
0.0096175
0.0104897
0.011595
0.0128991
0.0143719
0.0159771
0.0176693
0.0193979
0.0211151
0.0227822
0.0243705
0.0258429
0.0271829
0.0283872
0.0294526
0.0303752
0.0311496
0.0317697
0.0322285
0.0325198
0.0326391
0.0325843
0.0323573
0.0319642
0.0314163
0.0307299
0.0299261
0.0290299
0.0280688
0.027071
0.026064
0.0250743
0.0241265
0.023243
0.0224398
0.0217315
0.0211237
0.0206252
0.0202331
0.0199606
0.0198
0.0197946
0.0199239
0.0203273
0.0208807
0.0219474
0.0229437
0.297748
0.158167
0.092124
0.0575554
0.038024
0.026326
0.0190288
0.0143776
0.0114214
0.00961584
0.00863236
0.00826246
0.008366
0.0088451
0.0096296
0.0106701
0.0119301
0.0133776
0.0149759
0.0166796
0.018436
0.0201922
0.0219019
0.0235284
0.0250291
0.0263793
0.0275732
0.0286075
0.0294791
0.0301846
0.0307201
0.0310814
0.0312656
0.0312712
0.0310997
0.0307562
0.0302502
0.0295962
0.0288134
0.0279253
0.0269591
0.0259436
0.024908
0.02388
0.0228857
0.0219487
0.0210895
0.0203229
0.0196608
0.0191083
0.0186704
0.0183451
0.0181391
0.0180489
0.0181039
0.0182981
0.0187389
0.0193477
0.0204181
0.0214983
0.297749
0.158249
0.0922575
0.0577065
0.0381675
0.0264411
0.0190949
0.0143728
0.0113236
0.00940516
0.00829318
0.00778526
0.00774893
0.00809404
0.00875664
0.00969068
0.0108608
0.0122357
0.0137802
0.0154504
0.0171942
0.0189556
0.0206821
0.0223292
0.0238495
0.0252078
0.0263941
0.0274032
0.0282318
0.0288777
0.0293391
0.0296146
0.0297042
0.0296099
0.0293365
0.0288926
0.0282913
0.02755
0.0266908
0.0257395
0.0247247
0.0236763
0.0226238
0.0215948
0.0206144
0.0197048
0.0188842
0.0181661
0.0175599
0.0170698
0.0166979
0.0164429
0.016306
0.0162877
0.0164049
0.0166649
0.0171458
0.0178107
0.0188886
0.0200507
0.297749
0.158328
0.0923862
0.0578524
0.0383075
0.0265575
0.0191704
0.0143885
0.0112596
0.00924169
0.00801236
0.00737256
0.00719462
0.00739406
0.00791258
0.00870863
0.00975015
0.0110085
0.012452
0.0140405
0.0157247