/*--------------------------------*- C++ -*----------------------------------*\
| =========                 |                                                 |
| \\      /  F ield         | OpenFOAM: The Open Source CFD Toolbox           |
|  \\    /   O peration     | Version:  2.4.0                                 |
|   \\  /    A nd           | Web:      www.OpenFOAM.org                      |
|    \\/     M anipulation  |                                                 |
\*---------------------------------------------------------------------------*/
FoamFile
{
    version     2.0;
    format      ascii;
    class       volScalarField;
    location    "0.8";
    object      nut;
}
// * * * * * * * * * * * * * * * * * * * * * * * * * * * * * * * * * * * * * //

dimensions      [0 2 -1 0 0 0 0];

internalField   nonuniform List<scalar> 
6000
(
4.76339e-05
1.1948e-05
3.13074e-06
8.57698e-06
8.02107e-06
9.26448e-06
7.24553e-06
7.02031e-06
1.07323e-05
1.85223e-05
2.6804e-05
3.24434e-05
3.37637e-05
3.1637e-05
2.73718e-05
2.20596e-05
1.65224e-05
1.15945e-05
8.31768e-06
8.36968e-06
1.17532e-05
1.46483e-05
1.71503e-05
1.93264e-05
2.11766e-05
2.27295e-05
2.3998e-05
2.50572e-05
2.59138e-05
2.66581e-05
2.72593e-05
2.78193e-05
2.82615e-05
2.87086e-05
2.90463e-05
2.94219e-05
2.96848e-05
3.00148e-05
3.0218e-05
3.05215e-05
3.06737e-05
3.09647e-05
3.10696e-05
3.13588e-05
3.14226e-05
3.17222e-05
3.17442e-05
3.20694e-05
3.20423e-05
3.24141e-05
3.23207e-05
3.27734e-05
3.25677e-05
3.31797e-05
3.27261e-05
3.37291e-05
3.26277e-05
3.46535e-05
3.15922e-05
3.76045e-05
3.04196e-05
7.26404e-06
1.92443e-06
6.81147e-06
6.49938e-06
7.24557e-06
6.03292e-06
6.52966e-06
9.59204e-06
1.46059e-05
1.90139e-05
2.1246e-05
2.1164e-05
1.95026e-05
1.6902e-05
1.38722e-05
1.08552e-05
8.64622e-06
7.76053e-06
8.59716e-06
1.0495e-05
1.21145e-05
1.34977e-05
1.4677e-05
1.56621e-05
1.64794e-05
1.71458e-05
1.77028e-05
1.81523e-05
1.85365e-05
1.88533e-05
1.9144e-05
1.93785e-05
1.96065e-05
1.97837e-05
1.99704e-05
2.01059e-05
2.02659e-05
2.03678e-05
2.05147e-05
2.05827e-05
2.07257e-05
2.07643e-05
2.08975e-05
2.0927e-05
2.10513e-05
2.10722e-05
2.11986e-05
2.12031e-05
2.13483e-05
2.13281e-05
2.15052e-05
2.14439e-05
2.1685e-05
2.15262e-05
2.19517e-05
2.14858e-05
2.24117e-05
2.09155e-05
2.36576e-05
2.18373e-05
6.64739e-06
1.59174e-06
5.64131e-06
5.46826e-06
5.88995e-06
5.31065e-06
6.24867e-06
8.74687e-06
1.19542e-05
1.4038e-05
1.45442e-05
1.38328e-05
1.25519e-05
1.09984e-05
9.4137e-06
8.11644e-06
7.76038e-06
8.01383e-06
8.64325e-06
9.57982e-06
1.04072e-05
1.11217e-05
1.17309e-05
1.22411e-05
1.26659e-05
1.30168e-05
1.33097e-05
1.35448e-05
1.37399e-05
1.39068e-05
1.40542e-05
1.41748e-05
1.42838e-05
1.437e-05
1.44523e-05
1.45129e-05
1.45805e-05
1.4617e-05
1.46812e-05
1.46922e-05
1.47439e-05
1.47469e-05
1.47799e-05
1.47846e-05
1.48102e-05
1.48136e-05
1.48379e-05
1.48373e-05
1.48682e-05
1.48629e-05
1.49014e-05
1.48931e-05
1.49462e-05
1.49211e-05
1.50539e-05
1.49e-05
1.52622e-05
1.45733e-05
1.55877e-05
1.81693e-05
6.76931e-06
1.68151e-06
4.92134e-06
4.82256e-06
5.0326e-06
4.96185e-06
6.12717e-06
8.13416e-06
1.00898e-05
1.07892e-05
1.05e-05
9.6353e-06
8.75518e-06
7.9702e-06
7.42871e-06
7.45901e-06
8.29973e-06
8.72701e-06
8.85395e-06
9.13379e-06
9.44236e-06
9.73742e-06
1.00031e-05
1.02358e-05
1.04358e-05
1.06069e-05
1.07478e-05
1.08578e-05
1.09457e-05
1.10223e-05
1.10836e-05
1.11313e-05
1.11665e-05
1.11907e-05
1.12068e-05
1.12133e-05
1.12244e-05
1.12099e-05
1.12131e-05
1.11844e-05
1.11675e-05
1.11363e-05
1.11075e-05
1.10764e-05
1.10431e-05
1.10128e-05
1.09783e-05
1.09495e-05
1.09175e-05
1.08936e-05
1.08595e-05
1.08515e-05
1.08105e-05
1.08247e-05
1.08146e-05
1.079e-05
1.08759e-05
1.06051e-05
1.07047e-05
1.73544e-05
7.11247e-06
2.01175e-06
4.57357e-06
4.5078e-06
4.58157e-06
4.91826e-06
6.15011e-06
7.74293e-06
8.78994e-06
8.83085e-06
8.27942e-06
7.64161e-06
7.2321e-06
7.11567e-06
7.46508e-06
8.57588e-06
9.88634e-06
9.88277e-06
9.4617e-06
9.25989e-06
9.20213e-06
9.21063e-06
9.24972e-06
9.3022e-06
9.35602e-06
9.40692e-06
9.44635e-06
9.47149e-06
9.48814e-06
9.49827e-06
9.49749e-06
9.48788e-06
9.46726e-06
9.43918e-06
9.40564e-06
9.36317e-06
9.32596e-06
9.26592e-06
9.21446e-06
9.14539e-06
9.0748e-06
9.00048e-06
8.92206e-06
8.84609e-06
8.76476e-06
8.69011e-06
8.60845e-06
8.53842e-06
8.45771e-06
8.39979e-06
8.31567e-06
8.28115e-06
8.18748e-06
8.18796e-06
8.10704e-06
8.11378e-06
8.06848e-06
7.97552e-06
7.66482e-06
1.87789e-05
7.18409e-06
2.53682e-06
4.54287e-06
4.50009e-06
4.493e-06
5.14235e-06
6.32517e-06
7.59018e-06
8.07508e-06
7.9641e-06
7.68025e-06
7.67835e-06
7.91767e-06
8.4999e-06
9.6492e-06
1.13124e-05
1.2188e-05
1.15621e-05
1.06245e-05
1.00438e-05
9.70122e-06
9.49024e-06
9.35684e-06
9.26982e-06
9.20904e-06
9.1618e-06
9.11929e-06
9.07815e-06
9.03424e-06
8.98482e-06
8.92939e-06
8.86554e-06
8.79356e-06
8.71335e-06
8.63269e-06
8.53955e-06
8.45265e-06
8.34418e-06
8.23892e-06
8.12108e-06
7.99754e-06
7.87052e-06
7.73941e-06
7.60898e-06
7.47472e-06
7.34564e-06
7.21077e-06
7.09015e-06
6.95605e-06
6.85323e-06
6.71946e-06
6.64287e-06
6.50625e-06
6.46665e-06
6.34067e-06
6.32891e-06
6.21675e-06
6.18234e-06
5.71852e-06
2.13977e-05
7.82887e-06
3.28398e-06
4.76788e-06
4.78291e-06
4.75285e-06
5.61577e-06
6.67778e-06
7.69872e-06
8.07022e-06
8.26716e-06
8.96557e-06
1.02884e-05
1.14364e-05
1.26198e-05
1.40366e-05
1.53021e-05
1.50852e-05
1.38173e-05
1.24437e-05
1.15485e-05
1.09623e-05
1.05584e-05
1.027e-05
1.00529e-05
9.88289e-06
9.73964e-06
9.62302e-06
9.51963e-06
9.41457e-06
9.3043e-06
9.19473e-06
9.07405e-06
8.94946e-06
8.81313e-06
8.68115e-06
8.53241e-06
8.39141e-06
8.22776e-06
8.06641e-06
7.88913e-06
7.70533e-06
7.515e-06
7.32051e-06
7.12352e-06
6.92267e-06
6.72724e-06
6.52395e-06
6.34091e-06
6.14032e-06
5.97778e-06
5.7844e-06
5.65083e-06
5.46426e-06
5.36997e-06
5.19838e-06
5.14277e-06
4.98324e-06
4.95464e-06
4.44798e-06
2.4307e-05
9.36979e-06
4.30175e-06
5.19621e-06
5.32221e-06
5.35036e-06
6.32847e-06
7.24543e-06
8.17434e-06
8.92464e-06
1.0109e-05
1.28675e-05
1.64584e-05
1.86067e-05
1.97904e-05
2.03262e-05
2.00801e-05
1.8495e-05
1.65978e-05
1.48994e-05
1.37553e-05
1.29562e-05
1.23707e-05
1.19289e-05
1.15789e-05
1.12887e-05
1.10516e-05
1.08671e-05
1.06906e-05
1.05232e-05
1.03483e-05
1.0186e-05
1.00043e-05
9.82721e-06
9.62938e-06
9.44286e-06
9.23259e-06
9.0351e-06
8.8097e-06
8.58894e-06
8.34329e-06
8.09155e-06
7.82662e-06
7.55532e-06
7.27789e-06
6.99267e-06
6.71608e-06
6.4276e-06
6.16182e-06
5.87948e-06
5.63509e-06
5.36739e-06
5.15583e-06
4.90543e-06
4.74255e-06
4.50892e-06
4.39503e-06
4.18205e-06
4.14592e-06
3.61313e-06
2.70304e-05
1.15375e-05
5.60497e-06
5.78992e-06
6.04592e-06
6.24474e-06
7.26943e-06
8.0684e-06
9.16271e-06
1.08084e-05
1.40519e-05
2.0028e-05
2.64935e-05
2.89767e-05
2.8964e-05
2.74484e-05
2.51727e-05
2.23006e-05
1.98128e-05
1.7882e-05
1.65304e-05
1.55689e-05
1.48121e-05
1.42144e-05
1.37222e-05
1.33156e-05
1.29868e-05
1.27271e-05
1.24769e-05
1.22498e-05
1.20132e-05
1.18023e-05
1.15621e-05
1.13359e-05
1.10722e-05
1.08342e-05
1.05568e-05
1.03087e-05
1.00188e-05
9.7388e-06
9.42143e-06
9.10083e-06
8.7527e-06
8.393e-06
8.02411e-06
7.64108e-06
7.26551e-06
6.87454e-06
6.50432e-06
6.12006e-06
5.76996e-06
5.40589e-06
5.09252e-06
4.75614e-06
4.50261e-06
4.1899e-06
4.00245e-06
3.71396e-06
3.66178e-06
3.08639e-06
2.95509e-05
1.39881e-05
7.16186e-06
6.58708e-06
6.88763e-06
7.34088e-06
8.42146e-06
9.16124e-06
1.07521e-05
1.38521e-05
2.03022e-05
3.02172e-05
3.85224e-05
4.035e-05
3.84275e-05
3.4491e-05
3.02362e-05
2.63171e-05
2.331e-05
2.11888e-05
1.96994e-05
1.85953e-05
1.77005e-05
1.69503e-05
1.63162e-05
1.57935e-05
1.53801e-05
1.5041e-05
1.47266e-05
1.44492e-05
1.41624e-05
1.39136e-05
1.36252e-05
1.33581e-05
1.30372e-05
1.27539e-05
1.24137e-05
1.21253e-05
1.17705e-05
1.14453e-05
1.10589e-05
1.06744e-05
1.02437e-05
9.79556e-06
9.32992e-06
8.84468e-06
8.35677e-06
7.85017e-06
7.35694e-06
6.85138e-06
6.37191e-06
5.88671e-06
5.44465e-06
4.9956e-06
4.62296e-06
4.20863e-06
3.92363e-06
3.54051e-06
3.44128e-06
2.80765e-06
3.17379e-05
1.6483e-05
8.91915e-06
7.54705e-06
7.81563e-06
8.5537e-06
9.75935e-06
1.0567e-05
1.2949e-05
1.82526e-05
2.88062e-05
4.15088e-05
5.01587e-05
5.06576e-05
4.69101e-05
4.09765e-05
3.50711e-05
3.03137e-05
2.68853e-05
2.45878e-05
2.30054e-05
2.18272e-05
2.08167e-05
1.99324e-05
1.91674e-05
1.8536e-05
1.80432e-05
1.76316e-05
1.72664e-05
1.69534e-05
1.66341e-05
1.6362e-05
1.60409e-05
1.57445e-05
1.53816e-05
1.50673e-05
1.46764e-05
1.43598e-05
1.39585e-05
1.36026e-05
1.31616e-05
1.27306e-05
1.22252e-05
1.17011e-05
1.11423e-05
1.05607e-05
9.96077e-06
9.33815e-06
8.71264e-06
8.07376e-06
7.44748e-06
6.81988e-06
6.22481e-06
5.63357e-06
5.11086e-06
4.56648e-06
4.15219e-06
3.65081e-06
3.46792e-06
2.75153e-06
3.35577e-05
1.89058e-05
1.08156e-05
8.67874e-06
8.78362e-06
9.79738e-06
1.12452e-05
1.2266e-05
1.58746e-05
2.39176e-05
3.82765e-05
5.20862e-05
5.97925e-05
5.88409e-05
5.38174e-05
4.65788e-05
3.95158e-05
3.40637e-05
3.02758e-05
2.78536e-05
2.62424e-05
2.50153e-05
2.39289e-05
2.29604e-05
2.20887e-05
2.13642e-05
2.07924e-05
2.03161e-05
1.99169e-05
1.95837e-05
1.92504e-05
1.89814e-05
1.8645e-05
1.83304e-05
1.79433e-05
1.76133e-05
1.71947e-05
1.68595e-05
1.64363e-05
1.60685e-05
1.56016e-05
1.51441e-05
1.45906e-05
1.40108e-05
1.33776e-05
1.27164e-05
1.20152e-05
1.12881e-05
1.05349e-05
9.76943e-06
8.9933e-06
8.213e-06
7.44903e-06
6.69293e-06
5.99211e-06
5.2874e-06
4.70967e-06
4.05826e-06
3.75289e-06
2.91962e-06
3.49936e-05
2.11758e-05
1.27877e-05
9.96641e-06
9.81747e-06
1.10127e-05
1.28253e-05
1.4232e-05
1.93674e-05
3.03368e-05
4.7682e-05
6.10551e-05
6.72542e-05
6.49751e-05
5.91835e-05
5.1236e-05
4.34051e-05
3.73283e-05
3.32896e-05
3.0753e-05
2.91584e-05
2.79708e-05
2.68774e-05
2.58494e-05
2.49051e-05
2.4109e-05
2.34631e-05
2.29434e-05
2.2524e-05
2.21844e-05
2.18519e-05
2.16003e-05
2.1277e-05
2.09539e-05
2.056e-05
2.02281e-05
1.98061e-05
1.94649e-05
1.90443e-05
1.86824e-05
1.82216e-05
1.77618e-05
1.71941e-05
1.65882e-05
1.59102e-05
1.51994e-05
1.44225e-05
1.36184e-05
1.27576e-05
1.18821e-05
1.09665e-05
1.0045e-05
9.1152e-06
8.18631e-06
7.29216e-06
6.40208e-06
5.6318e-06
4.79486e-06
4.329e-06
3.33483e-06
3.61155e-05
2.32461e-05
1.47748e-05
1.13835e-05
1.093e-05
1.22076e-05
1.4468e-05
1.63561e-05
2.33554e-05
3.71625e-05
5.58237e-05
6.83768e-05
7.28892e-05
6.9406e-05
6.3178e-05
5.49566e-05
4.66637e-05
4.01125e-05
3.5799e-05
3.31474e-05
3.15856e-05
3.05105e-05
2.94943e-05
2.84724e-05
2.74889e-05
2.66344e-05
2.59392e-05
2.53922e-05
2.49654e-05
2.46307e-05
2.43116e-05
2.40849e-05
2.37971e-05
2.34726e-05
2.30862e-05
2.27638e-05
2.23594e-05
2.20257e-05
2.16292e-05
2.12879e-05
2.08608e-05
2.04226e-05
1.98751e-05
1.92764e-05
1.85879e-05
1.78646e-05
1.70476e-05
1.62044e-05
1.52711e-05
1.43211e-05
1.32953e-05
1.22574e-05
1.11782e-05
1.00947e-05
9.01344e-06
7.92928e-06
6.95148e-06
5.89859e-06
5.23865e-06
4.04242e-06
3.69844e-05
2.50947e-05
1.67229e-05
1.28956e-05
1.21254e-05
1.33918e-05
1.6139e-05
1.85438e-05
2.74225e-05
4.36311e-05
6.2612e-05
7.41827e-05
7.71159e-05
7.24658e-05
6.59754e-05
5.77842e-05
4.92781e-05
4.23539e-05
3.77024e-05
3.49908e-05
3.34671e-05
3.25235e-05
3.16472e-05
3.06992e-05
2.9729e-05
2.88521e-05
2.81347e-05
2.75764e-05
2.7154e-05
2.68326e-05
2.65368e-05
2.63377e-05
2.60872e-05
2.57723e-05
2.54065e-05
2.5102e-05
2.47307e-05
2.4417e-05
2.40605e-05
2.37508e-05
2.33768e-05
2.29803e-05
2.24811e-05
2.19212e-05
2.12562e-05
2.05577e-05
1.97402e-05
1.88994e-05
1.79372e-05
1.69581e-05
1.58652e-05
1.47553e-05
1.35644e-05
1.23571e-05
1.11187e-05
9.85541e-06
8.67953e-06
7.39491e-06
6.52203e-06
5.09105e-06
3.76398e-05
2.67167e-05
1.85872e-05
1.44631e-05
1.3397e-05
1.45744e-05
1.78048e-05
2.07426e-05
3.13504e-05
4.95865e-05
6.81417e-05
7.86782e-05
8.02543e-05
7.44184e-05
6.77262e-05
5.9778e-05
5.12788e-05
4.40874e-05
3.91462e-05
3.63004e-05
3.47963e-05
3.39913e-05
3.32951e-05
3.24778e-05
3.15723e-05
3.07126e-05
2.99987e-05
2.94456e-05
2.90383e-05
2.87363e-05
2.84701e-05
2.8298e-05
2.80784e-05
2.77788e-05
2.74433e-05
2.71629e-05
2.68341e-05
2.655e-05
2.62431e-05
2.59726e-05
2.56618e-05
2.53205e-05
2.48882e-05
2.4391e-05
2.37786e-05
2.31362e-05
2.23555e-05
2.15554e-05
2.06096e-05
1.96485e-05
1.8539e-05
1.74103e-05
1.61599e-05
1.48811e-05
1.35312e-05
1.21263e-05
1.0791e-05
9.28112e-06
8.19778e-06
6.5128e-06
3.81258e-05
2.81201e-05
2.03339e-05
1.60453e-05
1.47292e-05
1.57579e-05
1.94331e-05
2.29166e-05
3.49556e-05
5.48548e-05
7.25719e-05
8.20441e-05
8.25172e-05
7.54719e-05
6.85599e-05
6.10002e-05
5.27143e-05
4.53751e-05
4.01811e-05
3.71245e-05
3.56464e-05
3.49619e-05
3.44603e-05
3.38113e-05
3.30121e-05
3.22037e-05
3.1516e-05
3.09834e-05
3.06005e-05
3.03218e-05
3.00889e-05
2.99404e-05
2.97401e-05
2.94591e-05
2.91599e-05
2.89076e-05
2.86249e-05
2.83762e-05
2.81229e-05
2.78963e-05
2.76501e-05
2.73704e-05
2.70133e-05
2.65923e-05
2.60529e-05
2.54884e-05
2.47745e-05
2.40449e-05
2.31556e-05
2.22535e-05
2.11759e-05
2.00829e-05
1.88306e-05
1.75395e-05
1.61409e-05
1.46498e-05
1.32179e-05
1.15173e-05
1.02549e-05
8.33361e-06
3.84795e-05
2.93294e-05
2.19405e-05
1.7603e-05
1.60993e-05
1.69378e-05
2.10003e-05
2.50322e-05
3.80933e-05
5.93588e-05
7.60629e-05
8.44123e-05
8.40525e-05
7.5785e-05
6.8595e-05
6.15118e-05
5.36312e-05
4.62853e-05
4.08863e-05
3.76528e-05
3.61089e-05
3.55231e-05
3.5209e-05
3.47459e-05
3.40797e-05
3.3347e-05
3.27029e-05
3.22026e-05
3.18515e-05
3.15982e-05
3.13992e-05
3.12687e-05
3.10755e-05
3.08164e-05
3.0556e-05
3.03334e-05
3.00958e-05
2.98853e-05
2.96844e-05
2.95033e-05
2.93172e-05
2.90989e-05
2.88145e-05
2.84751e-05
2.80186e-05
2.7541e-05
2.69123e-05
2.62752e-05
2.54702e-05
2.46594e-05
2.36566e-05
2.26416e-05
2.14437e-05
2.01959e-05
1.88194e-05
1.73067e-05
1.58542e-05
1.40235e-05
1.26396e-05
1.05349e-05
3.87307e-05
3.03521e-05
2.3394e-05
1.91012e-05
1.74804e-05
1.81037e-05
2.24864e-05
2.70586e-05
4.06768e-05
6.30853e-05
7.87371e-05
8.58766e-05
8.49637e-05
7.54857e-05
6.78801e-05
6.13767e-05
5.40667e-05
4.68736e-05
4.13354e-05
3.79422e-05
3.62908e-05
3.5777e-05
3.56278e-05
3.53514e-05
3.4831e-05
3.4188e-05
3.35979e-05
3.31372e-05
3.28232e-05
3.25954e-05
3.24283e-05
3.23087e-05
3.21122e-05
3.18805e-05
3.16578e-05
3.1464e-05
3.12682e-05
3.10956e-05
3.09424e-05
3.08059e-05
3.06722e-05
3.05094e-05
3.02892e-05
3.00292e-05
2.96552e-05
2.92656e-05
2.87295e-05
2.81943e-05
2.7489e-05
2.67898e-05
2.58908e-05
2.49867e-05
2.38863e-05
2.27316e-05
2.14377e-05
1.9969e-05
1.85717e-05
1.66918e-05
1.52585e-05
1.30534e-05
3.89036e-05
3.12138e-05
2.46907e-05
2.05107e-05
1.88442e-05
1.92409e-05
2.38742e-05
2.89632e-05
4.26673e-05
6.60583e-05
8.0665e-05
8.65346e-05
8.53005e-05
7.46051e-05
6.65275e-05
6.05688e-05
5.40497e-05
4.71778e-05
4.15865e-05
3.80581e-05
3.63259e-05
3.58092e-05
3.58028e-05
3.57039e-05
3.53318e-05
3.47833e-05
3.42512e-05
3.38331e-05
3.3559e-05
3.33547e-05
3.32148e-05
3.30988e-05
3.29011e-05
3.26954e-05
3.25066e-05
3.23398e-05
3.21804e-05
3.20432e-05
3.19315e-05
3.18367e-05
3.17449e-05
3.16261e-05
3.14659e-05
3.12742e-05
3.09776e-05
3.06701e-05
3.02256e-05
2.97903e-05
2.91905e-05
2.8608e-05
2.78281e-05
2.7053e-05
2.60783e-05
2.50531e-05
2.38868e-05
2.2519e-05
2.1241e-05
1.94054e-05
1.79905e-05
1.57862e-05
3.90167e-05
3.19368e-05
2.58345e-05
2.18098e-05
2.0163e-05
2.03327e-05
2.51486e-05
3.07106e-05
4.40529e-05
6.83327e-05
8.18733e-05
8.64903e-05
8.51004e-05
7.333e-05
6.50221e-05
5.9251e-05
5.36222e-05
4.72206e-05
4.16788e-05
3.8048e-05
3.62451e-05
3.57046e-05
3.58083e-05
3.58729e-05
3.56452e-05
3.51912e-05
3.47151e-05
3.43383e-05
3.41048e-05
3.39209e-05
3.38013e-05
3.36839e-05
3.34889e-05
3.33086e-05
3.31495e-05
3.30061e-05
3.28774e-05
3.27717e-05
3.2695e-05
3.26352e-05
3.25745e-05
3.24926e-05
3.23831e-05
3.22468e-05
3.20188e-05
3.17833e-05
3.14235e-05
3.10792e-05
3.05819e-05
3.01115e-05
2.94538e-05
2.88124e-05
2.7976e-05
2.71013e-05
2.60895e-05
2.48649e-05
2.37517e-05
2.20418e-05
2.07189e-05
1.86069e-05
3.90845e-05
3.25401e-05
2.68347e-05
2.29847e-05
2.14117e-05
2.13618e-05
2.62963e-05
3.22644e-05
4.48939e-05
6.99267e-05
8.23849e-05
8.58217e-05
8.42933e-05
7.18407e-05
6.31587e-05
5.77912e-05
5.27283e-05
4.70153e-05
4.1637e-05
3.79429e-05
3.60851e-05
3.55395e-05
3.57006e-05
3.59143e-05
3.58252e-05
3.5462e-05
3.5038e-05
3.46988e-05
3.45038e-05
3.43364e-05
3.4228e-05
3.41084e-05
3.39249e-05
3.37654e-05
3.36305e-05
3.35066e-05
3.34035e-05
3.33249e-05
3.32778e-05
3.32416e-05
3.32065e-05
3.31536e-05
3.30847e-05
3.29904e-05
3.28217e-05
3.26459e-05
3.23607e-05
3.20949e-05
3.16915e-05
3.13217e-05
3.07807e-05
3.02673e-05
2.95694e-05
2.88513e-05
2.80039e-05
2.69483e-05
2.6025e-05
2.45011e-05
2.33274e-05
2.13955e-05
3.91178e-05
3.30406e-05
2.77038e-05
2.40289e-05
2.25698e-05
2.23122e-05
2.73061e-05
3.359e-05
4.53293e-05
7.07995e-05
8.22085e-05
8.46091e-05
8.31032e-05
6.99209e-05
6.08558e-05
5.59396e-05
5.15995e-05
4.65866e-05
4.14762e-05
3.7763e-05
3.58669e-05
3.53264e-05
3.55381e-05
3.58757e-05
3.59139e-05
3.56308e-05
3.52559e-05
3.49516e-05
3.47909e-05
3.46364e-05
3.453e-05
3.44141e-05
3.42444e-05
3.41038e-05
3.39881e-05
3.38796e-05
3.37971e-05
3.37418e-05
3.37168e-05
3.36955e-05
3.36824e-05
3.3651e-05
3.36132e-05
3.35497e-05
3.34298e-05
3.33019e-05
3.30801e-05
3.28792e-05
3.25582e-05
3.22743e-05
3.18391e-05
3.14409e-05
3.08729e-05
3.03058e-05
2.96197e-05
2.87428e-05
2.80163e-05
2.67152e-05
2.57282e-05
2.40471e-05
3.91251e-05
3.3453e-05
2.8456e-05
2.49429e-05
2.36222e-05
2.31709e-05
2.81689e-05
3.46576e-05
4.54642e-05
7.09636e-05
8.1337e-05
8.3004e-05
8.14448e-05
6.76199e-05
5.8415e-05
5.36605e-05
5.02879e-05
4.59059e-05
4.12047e-05
3.75224e-05
3.56016e-05
3.50769e-05
3.53429e-05
3.57974e-05
3.59502e-05
3.57382e-05
3.54023e-05
3.51269e-05
3.49953e-05
3.48517e-05
3.47402e-05
3.4635e-05
3.44793e-05
3.43542e-05
3.42529e-05
3.41561e-05
3.409e-05
3.4056e-05
3.40428e-05
3.40328e-05
3.4037e-05
3.40212e-05
3.40061e-05
3.39646e-05
3.38837e-05
3.37927e-05
3.36239e-05
3.34745e-05
3.32236e-05
3.30101e-05
3.26676e-05
3.23679e-05
3.19168e-05
3.14865e-05
3.09499e-05
3.0249e-05
2.97123e-05
2.86487e-05
2.78666e-05
2.64838e-05
3.91186e-05
3.37906e-05
2.91062e-05
2.57329e-05
2.45596e-05
2.3929e-05
2.88781e-05
3.54409e-05
4.53935e-05
7.04546e-05
7.97929e-05
8.10497e-05
7.91188e-05
6.5154e-05
5.59561e-05
5.13432e-05
4.86675e-05
4.50467e-05
4.08286e-05
3.72341e-05
3.52937e-05
3.47997e-05
3.51158e-05
3.56793e-05
3.59645e-05
3.58215e-05
3.5506e-05
3.52506e-05
3.51411e-05
3.50057e-05
3.48846e-05
3.47966e-05
3.46513e-05
3.45398e-05
3.44489e-05
3.43606e-05
3.4308e-05
3.42908e-05
3.42839e-05
3.42823e-05
3.42989e-05
3.42938e-05
3.42945e-05
3.42688e-05
3.42183e-05
3.41543e-05
3.40299e-05
3.39198e-05
3.37275e-05
3.35693e-05
3.33063e-05
3.30862e-05
3.27392e-05
3.24256e-05
3.20229e-05
3.1486e-05
3.11228e-05
3.02939e-05
2.9719e-05
2.86583e-05
3.90966e-05
3.4064e-05
2.96684e-05
2.64094e-05
2.53789e-05
2.45826e-05
2.94298e-05
3.59281e-05
4.51856e-05
6.93142e-05
7.76991e-05
7.87425e-05
7.64447e-05
6.25239e-05
5.34952e-05
4.90521e-05
4.68425e-05
4.40853e-05
4.0361e-05
3.69178e-05
3.49501e-05
3.44937e-05
3.48704e-05
3.55272e-05
3.5942e-05
3.58856e-05
3.55956e-05
3.53427e-05
3.52454e-05
3.51153e-05
3.49844e-05
3.49114e-05
3.47794e-05
3.46796e-05
3.45938e-05
3.45115e-05
3.44711e-05
3.44634e-05
3.44612e-05
3.44656e-05
3.44902e-05
3.4492e-05
3.45037e-05
3.44893e-05
3.44624e-05
3.44178e-05
3.43296e-05
3.42483e-05
3.41048e-05
3.39886e-05
3.37924e-05
3.36338e-05
3.33784e-05
3.31589e-05
3.28743e-05
3.24836e-05
3.22729e-05
3.16635e-05
3.12866e-05
3.05513e-05
3.90651e-05
3.42823e-05
3.01554e-05
2.69863e-05
2.60822e-05
2.51334e-05
2.98222e-05
3.61376e-05
4.48274e-05
6.7659e-05
7.5049e-05
7.61103e-05
7.34633e-05
5.97514e-05
5.10484e-05
4.68287e-05
4.49896e-05
4.30038e-05
3.97747e-05
3.6582e-05
3.45979e-05
3.41619e-05
3.46104e-05
3.53523e-05
3.58938e-05
3.59254e-05
3.56726e-05
3.54189e-05
3.53255e-05
3.51933e-05
3.50548e-05
3.49936e-05
3.48648e-05
3.47682e-05
3.47029e-05
3.46237e-05
3.45951e-05
3.45893e-05
3.45903e-05
3.45986e-05
3.46277e-05
3.4634e-05
3.46535e-05
3.46476e-05
3.46385e-05
3.46081e-05
3.45481e-05
3.44889e-05
3.43838e-05
3.42999e-05
3.41579e-05
3.4047e-05
3.38686e-05
3.37221e-05
3.35411e-05
3.32757e-05
3.31954e-05
3.27832e-05
3.25875e-05
3.21653e-05
3.90283e-05
3.44532e-05
3.05783e-05
2.74787e-05
2.66763e-05
2.55887e-05
3.00562e-05
3.60992e-05
4.42983e-05
6.57388e-05
7.18166e-05
7.32605e-05
7.02046e-05
5.68793e-05
4.86341e-05
4.46988e-05
4.31688e-05
4.17574e-05
3.91259e-05
3.622e-05
3.42536e-05
3.38046e-05
3.4331e-05
3.51626e-05
3.58263e-05
3.595e-05
3.57325e-05
3.5492e-05
3.53868e-05
3.52525e-05
3.51072e-05
3.50533e-05
3.49219e-05
3.48318e-05
3.47761e-05
3.46993e-05
3.4682e-05
3.46788e-05
3.46816e-05
3.46923e-05
3.47243e-05
3.47338e-05
3.47596e-05
3.47602e-05
3.47641e-05
3.47445e-05
3.47059e-05
3.46634e-05
3.4588e-05
3.45289e-05
3.44299e-05
3.4356e-05
3.42405e-05
3.41508e-05
3.40561e-05
3.38963e-05
3.39251e-05
3.36845e-05
3.36493e-05
3.35176e-05
3.8989e-05
3.4583e-05
3.09461e-05
2.79011e-05
2.71708e-05
2.59607e-05
3.0135e-05
3.58501e-05
4.35794e-05
6.34541e-05
6.82888e-05
7.02358e-05
6.66807e-05
5.39589e-05
4.62824e-05
4.26676e-05
4.14233e-05
4.04782e-05
3.84152e-05
3.58264e-05
3.39228e-05
3.34374e-05
3.40307e-05
3.49613e-05
3.57427e-05
3.5966e-05
3.57829e-05
3.55486e-05
3.54467e-05
3.52978e-05
3.51457e-05
3.5098e-05
3.49692e-05
3.48801e-05
3.48302e-05
3.47575e-05
3.4746e-05
3.4744e-05
3.47456e-05
3.47572e-05
3.47904e-05
3.48027e-05
3.48337e-05
3.48395e-05
3.48529e-05
3.48416e-05
3.48187e-05
3.4789e-05
3.47362e-05
3.46959e-05
3.46304e-05
3.45851e-05
3.45198e-05
3.44743e-05
3.44496e-05
3.43767e-05
3.44956e-05
3.44006e-05
3.4504e-05
3.46341e-05
3.89495e-05
3.46775e-05
3.12663e-05
2.82671e-05
2.75776e-05
2.62651e-05
3.00638e-05
3.54303e-05
4.26883e-05
6.07826e-05
6.4548e-05
6.71252e-05
6.28926e-05
5.10453e-05
4.4013e-05
4.07436e-05
3.97834e-05
3.92146e-05
3.76723e-05
3.53918e-05
3.36006e-05
3.3077e-05
3.37138e-05
3.4746e-05
3.56442e-05
3.59776e-05
3.58294e-05
3.55957e-05
3.54937e-05
3.53419e-05
3.51791e-05
3.51317e-05
3.50033e-05
3.49179e-05
3.48685e-05
3.47976e-05
3.479e-05
3.47866e-05
3.4791e-05
3.48012e-05
3.48349e-05
3.48495e-05
3.48848e-05
3.48946e-05
3.49151e-05
3.49101e-05
3.48987e-05
3.48785e-05
3.48428e-05
3.48168e-05
3.4777e-05
3.47536e-05
3.47278e-05
3.47166e-05
3.47478e-05
3.47447e-05
3.49372e-05
3.49635e-05
3.5184e-05
3.55444e-05
3.89115e-05
3.47418e-05
3.15438e-05
2.85893e-05
2.79094e-05
2.65189e-05
2.9904e-05
3.49756e-05
4.17504e-05
5.77512e-05
6.0818e-05
6.39152e-05
5.89985e-05
4.81867e-05
4.18293e-05
3.89549e-05
3.82695e-05
3.79993e-05
3.68903e-05
3.49257e-05
3.32778e-05
3.27461e-05
3.33879e-05
3.45146e-05
3.55301e-05
3.59872e-05
3.58761e-05
3.56379e-05
3.55318e-05
3.53796e-05
3.5208e-05
3.51603e-05
3.50341e-05
3.49494e-05
3.48895e-05
3.48241e-05
3.48154e-05
3.48158e-05
3.48188e-05
3.48303e-05
3.48641e-05
3.48806e-05
3.49195e-05
3.49324e-05
3.49583e-05
3.49579e-05
3.4955e-05
3.49419e-05
3.49189e-05
3.49035e-05
3.48833e-05
3.48766e-05
3.48815e-05
3.48968e-05
3.49722e-05
3.50234e-05
3.52761e-05
3.54016e-05
3.57195e-05
3.62786e-05
3.88764e-05
3.47809e-05
3.17818e-05
2.88788e-05
2.81788e-05
2.67446e-05
2.95923e-05
3.43656e-05
4.05687e-05
5.44405e-05
5.71958e-05
6.05945e-05
5.51197e-05
4.54067e-05
3.97516e-05
3.73284e-05
3.68912e-05
3.68576e-05
3.60785e-05
3.44404e-05
3.29472e-05
3.24322e-05
3.30635e-05
3.42689e-05
3.5398e-05
3.59961e-05
3.59257e-05
3.56785e-05
3.55645e-05
3.54131e-05
3.52346e-05
3.51808e-05
3.50617e-05
3.49761e-05
3.489e-05
3.4835e-05
3.4833e-05
3.48309e-05
3.48367e-05
3.48481e-05
3.48829e-05
3.4901e-05
3.49428e-05
3.4958e-05
3.4988e-05
3.4991e-05
3.49943e-05
3.49863e-05
3.49728e-05
3.49653e-05
3.49597e-05
3.49657e-05
3.49942e-05
3.50299e-05
3.51402e-05
3.52321e-05
3.55347e-05
3.57399e-05
3.61373e-05
3.68651e-05
3.88449e-05
3.47992e-05
3.19824e-05
2.91438e-05
2.83978e-05
2.69546e-05
2.91915e-05
3.36915e-05
3.92532e-05
5.10305e-05
5.36488e-05
5.72222e-05
5.13404e-05
4.27286e-05
3.78197e-05
3.58691e-05
3.5647e-05
3.58037e-05
3.52922e-05
3.39371e-05
3.26055e-05
3.21314e-05
3.275e-05
3.40137e-05
3.52459e-05
3.60025e-05
3.59802e-05
3.57198e-05
3.55946e-05
3.54409e-05
3.52613e-05
3.52016e-05
3.5083e-05
3.4994e-05
3.48955e-05
3.48443e-05
3.48384e-05
3.48407e-05
3.48455e-05
3.48586e-05
3.48947e-05
3.4914e-05
3.49583e-05
3.49752e-05
3.50084e-05
3.50138e-05
3.50216e-05
3.50173e-05
3.50107e-05
3.5009e-05
3.50143e-05
3.50297e-05
3.50762e-05
3.51275e-05
3.52653e-05
3.53869e-05
3.57307e-05
3.5999e-05
3.64608e-05
3.73297e-05
3.88177e-05
3.48013e-05
3.21473e-05
2.93895e-05
2.85768e-05
2.71659e-05
2.87286e-05
3.30258e-05
3.79531e-05
4.76397e-05
5.01876e-05
5.38347e-05
4.77194e-05
4.02097e-05
3.60658e-05
3.45569e-05
3.45285e-05
3.4844e-05
3.45471e-05
3.34299e-05
3.22473e-05
3.18373e-05
3.24516e-05
3.37546e-05
3.50754e-05
3.59993e-05
3.60424e-05
3.57637e-05
3.56237e-05
3.54649e-05
3.5282e-05
3.52183e-05
3.50979e-05
3.50057e-05
3.49022e-05
3.48467e-05
3.48419e-05
3.48434e-05
3.48509e-05
3.48637e-05
3.49017e-05
3.49221e-05
3.49683e-05
3.49867e-05
3.50222e-05
3.50293e-05
3.50404e-05
3.50387e-05
3.50371e-05
3.50396e-05
3.5053e-05
3.50754e-05
3.51355e-05
3.51987e-05
3.53579e-05
3.55015e-05
3.5878e-05
3.61962e-05
3.67093e-05
3.76949e-05
3.8795e-05
3.47914e-05
3.22784e-05
2.96185e-05
2.87251e-05
2.73849e-05
2.82496e-05
3.23494e-05
3.66169e-05
4.4391e-05
4.68891e-05
5.04778e-05
4.431e-05
3.79162e-05
3.44979e-05
3.33714e-05
3.35263e-05
3.398e-05
3.38551e-05
3.29314e-05
3.18892e-05
3.15443e-05
3.21728e-05
3.34971e-05
3.48924e-05
3.59701e-05
3.61215e-05
3.58118e-05
3.56531e-05
3.54864e-05
3.5305e-05
3.52372e-05
3.51062e-05
3.50089e-05
3.49089e-05
3.48495e-05
3.48439e-05
3.48456e-05
3.48505e-05
3.48656e-05
3.49056e-05
3.4927e-05
3.49749e-05
3.49942e-05
3.50316e-05
3.504e-05
3.50533e-05
3.50535e-05
3.50553e-05
3.50609e-05
3.50801e-05
3.51078e-05
3.5178e-05
3.52502e-05
3.54262e-05
3.5586e-05
3.59878e-05
3.63453e-05
3.6899e-05
3.79799e-05
3.87768e-05
3.47728e-05
3.23781e-05
2.98312e-05
2.8851e-05
2.76039e-05
2.78297e-05
3.16017e-05
3.5309e-05
4.13612e-05
4.38348e-05
4.71839e-05
4.1173e-05
3.58796e-05
3.31132e-05
3.23089e-05
3.26327e-05
3.32097e-05
3.32236e-05
3.24531e-05
3.15284e-05
3.12494e-05
3.19006e-05
3.32459e-05
3.47048e-05
3.59174e-05
3.62069e-05
3.58642e-05
3.56835e-05
3.55067e-05
3.53312e-05
3.52515e-05
3.51037e-05
3.50033e-05
3.49218e-05
3.48481e-05
3.48429e-05
3.4842e-05
3.48498e-05
3.48646e-05
3.4907e-05
3.49297e-05
3.49792e-05
3.49993e-05
3.5038e-05
3.50473e-05
3.50622e-05
3.50637e-05
3.50679e-05
3.50756e-05
3.5099e-05
3.51305e-05
3.52084e-05
3.52873e-05
3.54761e-05
3.56482e-05
3.60693e-05
3.64572e-05
3.70428e-05
3.82008e-05
3.87627e-05
3.47517e-05
3.24492e-05
3.0027e-05
2.89618e-05
2.78179e-05
2.75493e-05
3.07103e-05
3.41034e-05
3.86141e-05
4.11009e-05
4.3935e-05
3.83901e-05
3.41019e-05
3.19098e-05
3.137e-05
3.18402e-05
3.25279e-05
3.26558e-05
3.20036e-05
3.11719e-05
3.09486e-05
3.16337e-05
3.30019e-05
3.45179e-05
3.58471e-05
3.62895e-05
3.59201e-05
3.57155e-05
3.55269e-05
3.53516e-05
3.52632e-05
3.51094e-05
3.50034e-05
3.49194e-05
3.48409e-05
3.48396e-05
3.48387e-05
3.48471e-05
3.48627e-05
3.49069e-05
3.49311e-05
3.4982e-05
3.50027e-05
3.50425e-05
3.50524e-05
3.50683e-05
3.50706e-05
3.50764e-05
3.50856e-05
3.5112e-05
3.51463e-05
3.52298e-05
3.53138e-05
3.55125e-05
3.56939e-05
3.61295e-05
3.65408e-05
3.71512e-05
3.83709e-05
3.87525e-05
3.47276e-05
3.24949e-05
3.02042e-05
2.90635e-05
2.80145e-05
2.74078e-05
2.97852e-05
3.29708e-05
3.62166e-05
3.87177e-05
4.07689e-05
3.597e-05
3.25718e-05
3.0883e-05
3.05523e-05
3.11408e-05
3.19278e-05
3.21518e-05
3.15884e-05
3.08262e-05
3.0646e-05
3.13699e-05
3.27676e-05
3.43354e-05
3.57637e-05
3.63642e-05
3.59783e-05
3.57492e-05
3.55477e-05
3.5369e-05
3.52762e-05
3.51165e-05
3.50063e-05
3.49208e-05
3.48399e-05
3.48368e-05
3.48386e-05
3.48441e-05
3.48616e-05
3.49066e-05
3.49317e-05
3.4984e-05
3.50052e-05
3.50457e-05
3.5056e-05
3.50725e-05
3.50753e-05
3.50822e-05
3.50924e-05
3.51209e-05
3.51572e-05
3.52448e-05
3.53326e-05
3.55389e-05
3.57272e-05
3.61738e-05
3.66031e-05
3.72325e-05
3.8501e-05
3.87456e-05
3.47044e-05
3.25191e-05
3.03612e-05
2.91606e-05
2.81832e-05
2.73815e-05
2.89484e-05
3.18854e-05
3.4243e-05
3.6626e-05
3.78218e-05
3.38617e-05
3.1276e-05
3.00238e-05
2.98504e-05
3.05259e-05
3.14014e-05
3.17097e-05
3.12104e-05
3.04971e-05
3.03474e-05
3.11066e-05
3.25369e-05
3.4158e-05
3.5671e-05
3.64289e-05
3.60383e-05
3.57848e-05
3.55686e-05
3.53891e-05
3.52916e-05
3.51262e-05
3.50119e-05
3.49259e-05
3.48439e-05
3.48378e-05
3.48359e-05
3.48441e-05
3.48608e-05
3.49064e-05
3.4932e-05
3.49855e-05
3.50071e-05
3.50482e-05
3.50586e-05
3.50755e-05
3.50786e-05
3.5086e-05
3.50968e-05
3.51268e-05
3.51646e-05
3.52552e-05
3.53459e-05
3.55579e-05
3.57513e-05
3.62061e-05
3.66495e-05
3.72931e-05
3.86e-05
3.87415e-05
3.46842e-05
3.25261e-05
3.04966e-05
2.92552e-05
2.83277e-05
2.74356e-05
2.83286e-05
3.07955e-05
3.27111e-05
3.47714e-05
3.51814e-05
3.20734e-05
3.02007e-05
2.93192e-05
2.92565e-05
2.99871e-05
3.0941e-05
3.13139e-05
3.08703e-05
3.01887e-05
3.00542e-05
3.08419e-05
3.23141e-05
3.39871e-05
3.55714e-05
3.6481e-05
3.61021e-05
3.58224e-05
3.559e-05
3.54103e-05
3.53037e-05
3.51375e-05
3.50198e-05
3.49282e-05
3.48451e-05
3.48375e-05
3.48384e-05
3.48438e-05
3.48613e-05
3.49065e-05
3.49321e-05
3.49866e-05
3.50086e-05
3.50502e-05
3.50607e-05
3.50776e-05
3.50808e-05
3.50885e-05
3.50997e-05
3.51306e-05
3.51695e-05
3.52623e-05
3.53551e-05
3.55715e-05
3.57688e-05
3.62297e-05
3.66837e-05
3.7338e-05
3.86747e-05
3.87398e-05
3.46675e-05
3.252e-05
3.06099e-05
2.93476e-05
2.84512e-05
2.75203e-05
2.79132e-05
2.97972e-05
3.1446e-05
3.31944e-05
3.29425e-05
3.06074e-05
2.93271e-05
2.87528e-05
2.87616e-05
2.95167e-05
3.05285e-05
3.09576e-05
3.05693e-05
2.99046e-05
2.97712e-05
3.05739e-05
3.20931e-05
3.38195e-05
3.54702e-05
3.65155e-05
3.61753e-05
3.5862e-05
3.56126e-05
3.54288e-05
3.53143e-05
3.51491e-05
3.50285e-05
3.49233e-05
3.48455e-05
3.48392e-05
3.48374e-05
3.48452e-05
3.4861e-05
3.49065e-05
3.4932e-05
3.49876e-05
3.50099e-05
3.50519e-05
3.50624e-05
3.50792e-05
3.50824e-05
3.50901e-05
3.51015e-05
3.5133e-05
3.51726e-05