/*--------------------------------*- C++ -*----------------------------------*\
| =========                 |                                                 |
| \\      /  F ield         | OpenFOAM: The Open Source CFD Toolbox           |
|  \\    /   O peration     | Version:  2.4.0                                 |
|   \\  /    A nd           | Web:      www.OpenFOAM.org                      |
|    \\/     M anipulation  |                                                 |
\*---------------------------------------------------------------------------*/
FoamFile
{
    version     2.0;
    format      ascii;
    class       volScalarField;
    location    "6.15";
    object      k;
}
// * * * * * * * * * * * * * * * * * * * * * * * * * * * * * * * * * * * * * //

dimensions      [0 2 -2 0 0 0 0];

internalField   nonuniform List<scalar> 
6000
(
0.0117122
0.00656294
0.00175536
0.00044521
0.000122411
0.000315225
0.000246529
0.000388978
0.000432512
0.000551952
0.000633496
0.00074049
0.000831712
0.000940345
0.00105678
0.00119437
0.00134496
0.00150703
0.00167383
0.00184362
0.00201611
0.00220549
0.0023941
0.0025819
0.00276844
0.00295336
0.0031363
0.00331699
0.00349512
0.00367035
0.00384344
0.00401263
0.00417753
0.00433763
0.00449232
0.004641
0.00478295
0.00491766
0.00504425
0.0051625
0.00527105
0.00537067
0.00545863
0.00553744
0.00560356
0.00568107
0.00591424
0.00617857
0.00642866
0.00674324
0.00701368
0.00741894
0.00770786
0.00828696
0.00858002
0.00950961
0.00976196
0.0114564
0.0116117
0.0156727
0.0120372
0.0117117
0.00208954
0.000675916
0.000134433
0.000271495
0.000357847
0.000492532
0.000624564
0.000792433
0.000953096
0.00113473
0.00131058
0.00150901
0.00172766
0.0019847
0.00227317
0.00258912
0.00292085
0.00326289
0.0036104
0.00396311
0.00431669
0.00467152
0.00502712
0.00538325
0.00573975
0.00609665
0.00645404
0.00681195
0.00716901
0.00752397
0.00787786
0.00823029
0.0085807
0.00892851
0.00927302
0.00961365
0.00994945
0.0102801
0.0106042
0.0109223
0.0112317
0.0115346
0.0118289
0.0121154
0.012418
0.0127225
0.0130102
0.0133183
0.0135938
0.0139278
0.0141927
0.0145992
0.014856
0.0154271
0.0156745
0.0166016
0.0170435
0.0192483
0.011568
0.0151657
0.00288274
0.00064743
0.000183264
0.000320876
0.000451254
0.000612702
0.000786641
0.000996486
0.00120388
0.00143318
0.00165979
0.00191314
0.00219468
0.00252337
0.00289206
0.0032943
0.00371637
0.00415085
0.0045917
0.00503679
0.00548314
0.00593065
0.0063787
0.00682692
0.00727508
0.00772314
0.0081712
0.00861947
0.00906596
0.00951046
0.0099533
0.010394
0.0108318
0.0112661
0.0116961
0.012121
0.0125397
0.0129519
0.013356
0.0137523
0.0141387
0.0145163
0.0148861
0.0152397
0.0155976
0.015949
0.0162873
0.0166316
0.0169557
0.017312
0.0176313
0.0180397
0.0183733
0.0189133
0.0193035
0.0201351
0.0208418
0.0228945
0.0114637
0.0160713
0.00401146
0.000531017
0.000230641
0.000369351
0.000523021
0.000709177
0.000912924
0.00115489
0.00139695
0.00166116
0.00192572
0.00221977
0.00254779
0.00292817
0.003354
0.0038171
0.0043028
0.00480241
0.00530925
0.00582029
0.00633273
0.00684609
0.00735959
0.00787276
0.00838527
0.00889704
0.00940817
0.00991895
0.0104272
0.010933
0.0114362
0.0119364
0.0124327
0.0129243
0.0134103
0.0138899
0.0143619
0.0148258
0.01528
0.0157247
0.0161582
0.0165811
0.0169959
0.0173881
0.0177811
0.0181621
0.0185331
0.0189003
0.0192575
0.0196285
0.0199886
0.0203998
0.0207966
0.0213203
0.0218325
0.0226107
0.0235962
0.0255123
0.0113763
0.0157667
0.00532496
0.000480965
0.000273847
0.000411464
0.000582449
0.00079008
0.00101831
0.00128704
0.00155793
0.00185128
0.00214761
0.00247557
0.00284183
0.00326427
0.00373628
0.00424857
0.00478583
0.00533842
0.00589907
0.00646411
0.00703065
0.00759788
0.00816489
0.00873107
0.00929602
0.00985961
0.0104219
0.0109832
0.0115412
0.0120961
0.0126475
0.0131948
0.0137372
0.0142736
0.0148032
0.015325
0.0158378
0.0163408
0.0168327
0.0173132
0.0177813
0.018237
0.0186832
0.0191019
0.0195188
0.0199196
0.0203124
0.020694
0.0210735
0.0214527
0.0218415
0.0222523
0.0226971
0.0232063
0.0238157
0.0245518
0.0257578
0.0275423
0.0113034
0.0149417
0.00672782
0.000605465
0.000315284
0.00044867
0.000634221
0.000860812
0.00111045
0.0014027
0.00169907
0.00201836
0.00234289
0.00270076
0.0031003
0.00355902
0.00407076
0.00462548
0.00520741
0.00580607
0.00641369
0.00702599
0.00763993
0.00825437
0.00886826
0.00948087
0.0100917
0.0107006
0.0113075
0.0119127
0.0125139
0.0131111
0.0137039
0.0142916
0.0148731
0.0154475
0.0160137
0.0165707
0.0171171
0.0176521
0.0181744
0.0186834
0.0191788
0.0196603
0.0201289
0.020567
0.0210009
0.0214152
0.0218226
0.022213
0.022607
0.02299
0.0233985
0.0238068
0.0242876
0.0247835
0.0254704
0.0261718
0.0275493
0.0292062
0.0112435
0.0139423
0.0077631
0.00113685
0.000363209
0.000482802
0.000680993
0.00092451
0.00119349
0.00150708
0.0018268
0.00217001
0.00252044
0.00290557
0.00333502
0.00382612
0.00437324
0.00496591
0.00558798
0.00622826
0.00687844
0.0075337
0.00819077
0.00884821
0.00950482
0.0101597
0.0108124
0.0114624
0.0121098
0.0127549
0.013395
0.0140303
0.0146602
0.0152838
0.0159001
0.016508
0.0171062
0.0176937
0.0182691
0.0188313
0.0193791
0.0199118
0.0204294
0.0209316
0.0214162
0.0218688
0.0223145
0.0227376
0.0231542
0.0235493
0.0239519
0.0243356
0.0247569
0.0251608
0.0256684
0.026152
0.0269011
0.027573
0.0290849
0.0306174
0.0111888
0.01294
0.00846392
0.00207151
0.000438604
0.000515923
0.000724601
0.000983222
0.00126998
0.00160331
0.0019449
0.00231067
0.00268543
0.00309591
0.00355282
0.00407342
0.00465277
0.00528015
0.00593913
0.00661787
0.00730752
0.00800276
0.00870002
0.00939758
0.0100941
0.0107885
0.0114801
0.0121685
0.0128537
0.0135356
0.0142118
0.0148822
0.0155462
0.0162027
0.0168507
0.0174888
0.0181158
0.0187305
0.0193313
0.0199172
0.0204868
0.0210395
0.0215756
0.0220939
0.0225899
0.0230531
0.0235065
0.0239348
0.0243563
0.0247526
0.0251593
0.0255407
0.0259693
0.0263673
0.0268942
0.0273661
0.028165
0.0288116
0.0304286
0.0318398
0.011136
0.0120148
0.00888007
0.00319725
0.000587236
0.00055093
0.000766623
0.00103849
0.00134171
0.00169351
0.00205589
0.00244324
0.00284119
0.00327561
0.0037581
0.00430597
0.00491511
0.00557469
0.00626814
0.00698295
0.00770978
0.00844279
0.0091781
0.00991368
0.010648
0.0113798
0.0121084
0.0128332
0.013554
0.0142709
0.014981
0.0156843
0.01638
0.0170672
0.0177444
0.0184103
0.0190636
0.0197027
0.0203263
0.020933
0.0215215
0.0220911
0.0226425
0.0231729
0.0236768
0.0241473
0.0246051
0.0250354
0.0254582
0.0258528
0.0262595
0.0266362
0.0270676
0.0274582
0.0279982
0.0284587
0.029297
0.0299213
0.0316194
0.0329127
0.0110858
0.0111985
0.00905962
0.00433596
0.000898216
0.000592835
0.000808756
0.00109168
0.00141009
0.00177927
0.00216157
0.00256978
0.00299006
0.00344733
0.00395391
0.00452728
0.0051642
0.005854
0.00657993
0.00732895
0.00809117
0.00886023
0.00963193
0.0104039
0.0111745
0.0119422
0.0127062
0.0134658
0.0142208
0.0149709
0.0157132
0.0164477
0.0171735
0.0178894
0.0185939
0.0192857
0.019963
0.0206245
0.0212685
0.0218936
0.0224986
0.0230825
0.0236466
0.0241849
0.0246941
0.025169
0.0256282
0.0260576
0.0264785
0.0268688
0.0272722
0.0276419
0.028072
0.0284538
0.0290016
0.0294507
0.0303199
0.0309239
0.0326831
0.0338624
0.0110393
0.0104974
0.00905243
0.00534164
0.00147798
0.00065142
0.000853214
0.00114417
0.00147634
0.00186189
0.00226339
0.00269188
0.00313384
0.0036131
0.00414256
0.00473992
0.00540299
0.0061213
0.00687809
0.00765976
0.0084559
0.00925965
0.0100664
0.0108736
0.0116791
0.0124816
0.0132797
0.014073
0.0148608
0.0156427
0.0164159
0.0171802
0.0179345
0.0186776
0.0194079
0.0201237
0.0208233
0.0215052
0.0221676
0.0228091
0.0234283
0.0240242
0.024598
0.0251411
0.0256533
0.0261298
0.0265878
0.0270139
0.02743
0.0278134
0.0282105
0.028571
0.0289965
0.0293678
0.029919
0.0303563
0.0312489
0.0318342
0.0336377
0.0347071
0.010997
0.00990582
0.00890709
0.00615851
0.00223018
0.000746119
0.000903332
0.00119761
0.00154173
0.00194259
0.00236258
0.00281087
0.00327399
0.00377453
0.00432587
0.00494597
0.00563375
0.00637912
0.00716535
0.00797834
0.00880716
0.00964443
0.0104852
0.0113264
0.012166
0.0130021
0.0138334
0.0146592
0.0154788
0.0162915
0.0170944
0.0178872
0.0186688
0.0194377
0.0201922
0.0209306
0.0216509
0.0223515
0.0230305
0.0236863
0.0243177
0.0249235
0.0255041
0.0260494
0.0265623
0.027038
0.0274923
0.0279126
0.0283214
0.0286957
0.0290836
0.029433
0.0298506
0.0302101
0.0307605
0.0311857
0.032095
0.0326626
0.0344961
0.03546
0.010959
0.00941241
0.00866739
0.00676686
0.00306214
0.000917355
0.000964651
0.00125412
0.00160763
0.00202259
0.00246031
0.00292795
0.00341177
0.00393303
0.00450539
0.00514712
0.00585835
0.00662949
0.0074439
0.00828703
0.00914744
0.0100172
0.010891
0.0117654
0.0126381
0.0135069
0.0143706
0.015228
0.0160786
0.0169209
0.0177525
0.0185727
0.0193804
0.0201739
0.0209513
0.0217108
0.0224503
0.023168
0.0238618
0.0245302
0.0251718
0.0257855
0.0263696
0.0269153
0.0274268
0.0278994
0.0283476
0.0287599
0.029159
0.029522
0.0298983
0.0302345
0.0306415
0.0309876
0.0315337
0.031946
0.0328664
0.0334167
0.0352678
0.0361312
0.010925
0.00900422
0.00837014
0.00717188
0.00387594
0.00124916
0.00104696
0.0013167
0.00167568
0.00210322
0.00255776
0.00304428
0.00354839
0.00408986
0.0046825
0.00534489
0.00607843
0.00687414
0.00771558
0.00858777
0.00947878
0.0103801
0.0112861
0.0121929
0.0130978
0.0139987
0.0148938
0.0157821
0.0166628
0.0175339
0.0183931
0.0192397
0.0200724
0.0208893
0.0216884
0.0224676
0.0232248
0.023958
0.0246651
0.0253443
0.0259944
0.0266136
0.0271986
0.0277428
0.0282509
0.0287181
0.0291582
0.0295603
0.0299475
0.0302971
0.0306594
0.0309805
0.0313744
0.0317055
0.0322441
0.0326427
0.0335689
0.0341023
0.0359606
0.0367284
0.010895
0.00866854
0.00804455
0.00739321
0.00462776
0.00177283
0.00116727
0.00138983
0.00174804
0.00218604
0.00265623
0.00316106
0.00368502
0.00424625
0.00485851
0.00554067
0.00629545
0.00711462
0.00798199
0.00888223
0.00980289
0.010735
0.0116723
0.0126107
0.0135472
0.0144793
0.0154052
0.0163235
0.0172335
0.0181324
0.0190183
0.0198904
0.0207469
0.0215861
0.0224056
0.0232033
0.0239768
0.0247241
0.0254429
0.0261312
0.0267879
0.0274099
0.0279937
0.0285348
0.0290374
0.0294973
0.0299271
0.030317
0.0306901
0.0310243
0.0313705
0.0316746
0.032053
0.0323677
0.0328959
0.0332799
0.0342073
0.0347239
0.0365802
0.0372578
0.0108685
0.00839374
0.00771256
0.00745806
0.00528272
0.00245091
0.00135483
0.00148044
0.00182754
0.00227296
0.00275717
0.0032796
0.00382288
0.00440343
0.00503468
0.00573577
0.00651079
0.00735236
0.0082446
0.00917189
0.0101213
0.0110833
0.0120511
0.0130204
0.0139877
0.0149504
0.0159063
0.0168539
0.0177924
0.0187182
0.01963
0.0205265
0.0214058
0.0222661
0.0231049
0.0239197
0.0247081
0.0254679
0.0261968
0.0268926
0.027554
0.0281761
0.0287572
0.0292932
0.0297885
0.0302389
0.0306565
0.0310324
0.0313894
0.0317063
0.0320343
0.0323198
0.0326805
0.0329772
0.0334924
0.0338609
0.0347853
0.0352848
0.0371315
0.0377245
0.0108453
0.00816957
0.00738972
0.00739677
0.00581576
0.00320478
0.00166031
0.00159953
0.00191822
0.00236643
0.00286233
0.00340137
0.00396332
0.00456269
0.0052123
0.00593152
0.00672581
0.00758871
0.00850478
0.00945814
0.0104354
0.0114264
0.0124241
0.0134235
0.0144209
0.0154134
0.0163985
0.0173746
0.0183407
0.0192927
0.0202294
0.0211492
0.0220504
0.0229306
0.0237873
0.0246179
0.0254199
0.0261907
0.0269281
0.0276297
0.0282933
0.0289136
0.0294903
0.0300196
0.0305057
0.0309448
0.0313483
0.0317082
0.0320472
0.032345
0.0326529
0.0329181
0.0332591
0.0335364
0.0340361
0.0343881
0.0353057
0.035788
0.0376185
0.0381324
0.0108249
0.00798727
0.00708634
0.00723977
0.00621321
0.0039644
0.00211295
0.00176429
0.00202582
0.00246965
0.00297385
0.00352808
0.0041078
0.00472541
0.00539273
0.00612927
0.00694185
0.00782504
0.00876386
0.00974228
0.0107464
0.0117656
0.0127923
0.013821
0.0148478
0.0158694
0.016883
0.0178869
0.0188797
0.0198569
0.0208175
0.0217597
0.0226815
0.0235805
0.0244539
0.025299
0.026113
0.0268934
0.0276377
0.0283432
0.0290064
0.0296233
0.030194
0.0307149
0.03119
0.0316159
0.0320035
0.0323456
0.0326649
0.0329419
0.0332279
0.0334711
0.0337906
0.0340471
0.0345291
0.0348636
0.035771
0.0362357
0.0380444
0.0384851
0.0108072
0.00783943
0.00680855
0.00701543
0.00647233
0.00467628
0.00269637
0.00200071
0.00215874
0.00258694
0.00309441
0.00366181
0.00425804
0.00489314
0.00557742
0.00633044
0.0071603
0.00806269
0.00902316
0.0100256
0.0110557
0.0121022
0.013157
0.0142143
0.0152696
0.0163194
0.0173608
0.0183915
0.0194101
0.0204117
0.0213951
0.0223586
0.0232999
0.0242165
0.0251053
0.0259634
0.026788
0.0275764
0.028326
0.029033
0.029694
0.0303059
0.030869
0.0313796
0.031842
0.0322529
0.0326229
0.0329455
0.0332433
0.0334979
0.0337604
0.0339801
0.0342763
0.0345107
0.0349729
0.0352889
0.036183
0.0366299
0.0384121
0.0387853
0.0107918
0.00771986
0.00655936
0.00674873
0.00659959
0.00530073
0.00336165
0.00234221
0.00232924
0.0027241
0.00322744
0.00380506
0.00441602
0.00506762
0.00576799
0.00653655
0.00738263
0.00830306
0.00928403
0.0103094
0.0113643
0.0124371
0.0135192
0.0146042
0.0156873
0.0167645
0.0178327
0.0188894
0.0199328
0.0209577
0.0219629
0.0229466
0.0239061
0.024839
0.0257418
0.0266115
0.0274452
0.02824
0.0289929
0.029699
0.0303563
0.0309617
0.0315154
0.0320142
0.0324622
0.0328562
0.033207
0.0335084
0.0337833
0.0340138
0.0342512
0.0344459
0.0347173
0.0349284
0.035369
0.0356655
0.0365434
0.0369721
0.038724
0.0390356
0.0107784
0.00762344
0.00633957
0.00646053
0.00660853
0.00581062
0.00405905
0.00280794
0.00255498
0.00288902
0.00337734
0.00396089
0.00458409
0.00525083
0.00596619
0.00674926
0.00761039
0.00854765
0.00954785
0.0105949
0.0116736
0.0127717
0.01388
0.0149917
0.0161016
0.0172053
0.0182994
0.0193812
0.0204483
0.0214954
0.0225214
0.023524
0.0245004
0.0254482
0.0263636
0.0272435
0.0280847
0.0288842
0.0296378
0.0303415
0.0309934
0.0315906
0.0321334
0.0326186
0.0330505
0.0334261
0.033756
0.0340347
0.034285
0.03449
0.034701
0.0348694
0.0351145
0.035301
0.0357182
0.0359943
0.0368536
0.0372639
0.0389822
0.039238
0.0107668
0.00754593
0.00614841
0.00616738
0.00651748
0.00619013
0.00474208
0.00338715
0.00286032
0.00309234
0.00354982
0.00413312
0.00476505
0.00544509
0.00617404
0.00697037
0.00784525
0.00879799
0.00981607
0.0108835
0.0119847
0.013107
0.0142404
0.0153779
0.0165136
0.0176428
0.0187617
0.0198675
0.0209572
0.0220254
0.0230708
0.024091
0.0250831
0.0260444
0.0269709
0.0278593
0.0287064
0.0295081
0.0302605
0.0309602
0.0316051
0.0321926
0.0327227
0.0331928
0.0336069
0.0339625
0.03427
0.0345245
0.0347488
0.034927
0.03511
0.035251
0.0354684
0.0356292
0.0360216
0.0362765
0.0371148
0.0375065
0.0391886
0.0393945
0.0107568
0.00748385
0.00598418
0.00588168
0.00634725
0.00643365
0.00537005
0.00404572
0.0032669
0.00334793
0.00375224
0.00432645
0.00496225
0.00565304
0.00639378
0.0072019
0.00808904
0.00905577
0.0100902
0.0111766
0.012299
0.0134441
0.0146015
0.0157635
0.0169239
0.0180775
0.0192202
0.0203489
0.0214598
0.0225479
0.0236115
0.024648
0.0256542
0.0266275
0.0275634
0.0284588
0.0293094
0.0301113
0.030861
0.0315549
0.0321913
0.0327673
0.0332832
0.0337365
0.0341312
0.0344652
0.0347488
0.0349776
0.0351746
0.0353247
0.0354786
0.035591
0.0357796
0.0359137
0.0362799
0.0365127
0.037328
0.0377009
0.0393449
0.0395065
0.0107481
0.00743436
0.00584459
0.00561214
0.00611921
0.00654452
0.00590967
0.00473988
0.00378076
0.0036732
0.00399407
0.00454663
0.00517971
0.00587779
0.00662797
0.00744607
0.00834375
0.00932277
0.0103719
0.0114756
0.0126176
0.0137842
0.0149642
0.0161495
0.0173334
0.0185101
0.0196754
0.0208258
0.0219566
0.0230632
0.0241435
0.0251948
0.0262135
0.0271973
0.0281411
0.029041
0.0298931
0.0306935
0.0314387
0.0321253
0.0327514
0.0333142
0.0338143
0.0342492
0.0346229
0.0349338
0.0351921
0.035394
0.0355624
0.0356832
0.0358069
0.0358896
0.0360483
0.0361549
0.0364936
0.0367036
0.0374941
0.0378481
0.0394524
0.0395757
0.0107405
0.00739511
0.00572711
0.00536431
0.00585359
0.00653352
0.00633606
0.00542488
0.00438813
0.00408406
0.00428738
0.00480064
0.00542217
0.00612291
0.0068795
0.00770535
0.00861155
0.00960094
0.0106628
0.0117821
0.0129421
0.0141285
0.0153297
0.0165368
0.0177428
0.0189413
0.0201278
0.0212986
0.0224478
0.0235714
0.0246669
0.0257314
0.0267611
0.0277536
0.0287028
0.0296053
0.0304571
0.0312542
0.0319932
0.0326707
0.0332848
0.0338329
0.0343154
0.0347303
0.0350817
0.035368
0.0355996
0.0357733
0.0359119
0.0360023
0.0360948
0.0361469
0.0362748
0.0363531
0.0366632
0.0368498
0.037614
0.0379491
0.0395126
0.0396031
0.010734
0.00736419
0.00562914
0.00514122
0.00556839
0.00641707
0.00663348
0.00605957
0.0050598
0.00458655
0.00464669
0.00509702
0.00569526
0.00639247
0.00715163
0.00798246
0.0088948
0.00989235
0.0109649
0.0120976
0.0132737
0.0144781
0.0156988
0.0169263
0.0181528
0.0193717
0.0205778
0.0217676
0.0229336
0.0240726
0.0251816
0.0262577
0.0272966
0.0282952
0.0292479
0.0301511
0.0310008
0.0317929
0.032524
0.0331906
0.033791
0.0343226
0.034786
0.0351793
0.0355067
0.0357671
0.0359707
0.036115
0.0362229
0.0362819
0.0363423
0.036363
0.0364592
0.0365085
0.0367891
0.0369518
0.0376883
0.0380047
0.0395266
0.0395899
0.0107283
0.00734005
0.00554819
0.00494394
0.00527865
0.00621521
0.00679554
0.00660856
0.00575756
0.00517504
0.00508206
0.0054466
0.00600599
0.00669109
0.00744797
0.00828039
0.00919606
0.0101992
0.0112799
0.0124239
0.0136139
0.0148344
0.0160727
0.0173187
0.0185641
0.0198016
0.0210258
0.0222328
0.0234139
0.0245667
0.0256876
0.0267729
0.0278188
0.0288215
0.0297759
0.030678
0.0315237
0.0323089
0.0330302
0.0336842
0.0342691
0.0347825
0.0352252
0.0355954
0.0358974
0.0361304
0.0363049
0.0364187
0.0364948
0.0365217
0.0365492
0.0365378
0.0366017
0.0366214
0.0368718
0.0370101
0.0377177
0.0380156
0.0394956
0.0395371
0.0107234
0.00732141
0.00548191
0.00477217
0.00499615
0.00594961
0.00682476
0.00704374
0.00644018
0.00583109
0.00559812
0.00585771
0.00636242
0.00702507
0.00777248
0.00860235
0.00951807
0.0105239
0.01161
0.0127627
0.0139641
0.0151986
0.0164524
0.017715
0.0189773
0.0202317
0.0214722
0.0226945
0.023889
0.0250532
0.0261837
0.0272764
0.0283272
0.0293322
0.0302863
0.0311853
0.032025
0.0328014
0.033511
0.0341505
0.0347182
0.0352118
0.0356321
0.0359776
0.0362529
0.0364573
0.0366015
0.0366839
0.0367273
0.0367212
0.0367151
0.0366712
0.0367022
0.0366919
0.0369114
0.037025
0.0377028
0.0379825
0.0394206
0.0394457
0.0107191
0.00730721
0.00542817
0.00462462
0.00472947
0.00564179
0.00673158
0.00734533
0.00706757
0.00652566
0.00619103
0.0063364
0.00677116
0.00739977
0.00813036
0.00895254
0.00986398
0.0108688
0.0119572
0.0131156
0.0143259
0.0155718
0.0168389
0.0181158
0.0193931
0.0206622
0.0219169
0.0231521
0.0243579
0.0255317
0.0266696
0.0277676
0.0288213
0.0298266
0.0307784
0.0316722
0.032504
0.0332696
0.0339655
0.0345887
0.0351374
0.0356094
0.0360057
0.0363252
0.0365723
0.036747
0.0368598
0.0369098
0.0369197
0.0368801
0.0368399
0.036763
0.0367606
0.0367201
0.0369082
0.036997
0.0376443
0.0379062
0.0393025
0.0393165
0.0107153
0.00729661
0.00538506
0.00449944
0.00448429
0.00531161
0.00653274
0.00750267
0.00760363
0.00722296
0.00684682
0.00688429
0.00723751
0.00782013
0.00852565
0.00933422
0.0102369
0.0112369
0.012324
0.0134848
0.0147009
0.0159552
0.0172329
0.0185217
0.0198115
0.0210932
0.0223598
0.0236056
0.0248206
0.0260017
0.027145
0.0282461
0.0293006
0.030304
0.0312512
0.0321378
0.0329596
0.0337124
0.0343928
0.0349977
0.0355256
0.0359744
0.0363452
0.0366371
0.0368548
0.0369986
0.037079
0.0370957
0.0370716
0.0369978
0.0369231
0.0368129
0.0367769
0.0367061
0.0368624
0.0369264
0.0375425
0.0377872
0.0391422
0.0391501
0.0107121
0.00728889
0.00535091
0.00439443
0.00426382
0.00497618
0.00624936
0.00751446
0.00801834
0.00788444
0.00754193
0.00749642
0.00776414
0.00829018
0.00896207
0.00975051
0.0106394
0.0116302
0.0127122
0.0138718
0.0150902
0.0163499
0.0176352
0.0189332
0.0202329
0.0215246
0.0228008
0.0240549
0.0252766
0.0264629
0.0276092
0.0287112
0.0297642
0.0307634
0.031704
0.0325812
0.0333908
0.0341287
0.0347916
0.0353764
0.0358816
0.0363056
0.0366493
0.0369123
0.0370993
0.037211
0.0372583
0.037241
0.0371822
0.0370739
0.0369644
0.0368207
0.036751
0.0366498
0.0367742
0.0368135
0.0373979
0.0376262
0.0389405
0.0389474
0.0107092
0.00728348
0.00532425
0.0043073
0.00406929
0.0046493
0.00590474
0.00738838
0.0082895
0.00847207
0.00824529
0.00815999
0.0083495
0.00881214
0.00944247
0.0102041
0.0110739
0.0120509
0.0131235
0.014278
0.0154951
0.0167568
0.0180465
0.0193507
0.0206575
0.0219566
0.0232399
0.0244996
0.0257257
0.0269146
0.0280616
0.0291621
0.0302112
0.031204
0.0321356
0.0330012
0.0337964
0.0345174
0.0351607
0.0357235
0.0362043
0.0366017
0.0369169
0.0371496
0.0373048
0.0373835
0.0373967
0.0373448
0.0372509
0.0371077
0.0369633
0.0367861
0.0366827
0.0365512
0.0366438
0.0366585
0.0372112
0.0374237
0.0386982
0.0387088
0.0107068
0.00727991
0.00530382
0.00423581
0.00390046
0.00434121
0.00552232
0.00714005
0.00840403
0.00895105
0.00892123
0.00885426
0.0089864
0.0093853
0.00996826
0.0106968
0.0115422
0.0125006
0.0135594
0.0147045
0.0159165
0.0171765
0.0184673
0.0197745
0.0210855
0.0223891
0.0236768
0.0249392
0.0261671
0.0273561
0.0285013
0.0295978
0.0306406
0.0316246
0.0325448
0.0333965
0.0341752
0.034877
0.0354988
0.0360376
0.0364923
0.0368615
0.0371467
0.0373478
0.0374701
0.0375148
0.0374933
0.0374063
0.0372769
0.0370988
0.0369193
0.0367088
0.0365719
0.0364104
0.0364712
0.0364618
0.0369827
0.0371804
0.038416
0.0384351
0.0107046
0.00727779
0.00528853
0.0041778
0.00375607
0.00405876
0.00512384
0.00679126
0.0083588
0.00929214
0.00953241
0.00955161
0.00966118
0.0100049
0.0105385
0.0112292
0.0120453
0.0129804
0.0140208
0.0151524
0.016355
0.0176096
0.0188979
0.0202047
0.0215165
0.0228216
0.0241109
0.0253732
0.0266
0.0277865
0.0289273
0.0300173
0.0310512
0.0320239
0.0329304
0.0337658
0.0345257
0.0352063
0.0358045
0.0363175
0.0367443
0.0370837
0.0373374
0.0375057
0.037594
0.037604
0.0375471
0.0374246
0.0372595
0.0370463
0.036832
0.0365884
0.0364183
0.0362273
0.0362566
0.0362235
0.0367128
0.0368967
0.0380946
0.0381267
0.0107027
0.0072768
0.00527746
0.00413131
0.0036342
0.00380583
0.00472798
0.00636781
0.00816069
0.0094737
0.0100425
0.0102195
0.0103536
0.0106613
0.0111493
0.0117998
0.0125828
0.0134903
0.0145082
0.0156218
0.016811
0.0180561
0.0193381
0.0206409
0.0219503
0.0232537
0.0245412
0.0258006
0.0270236
0.0282046
0.0293383
0.030419
0.0314415
0.0324005
0.0332907
0.0341075
0.0348464
0.0355036
0.0360761
0.0365614
0.0369586
0.0372667
0.0374876
0.037622
0.0376754
0.0376499
0.0375571
0.0373988
0.0371979
0.0369498
0.0367009
0.0364245
0.0362217
0.0360017
0.0360001
0.0359441
0.0364019
0.0365733
0.0377346
0.0377843
0.010701
0.00727669
0.00526982
0.00409456
0.0035326
0.00358386
0.00434954
0.00589698
0.00782592
0.00948335
0.0104187
0.0108225
0.0110374
0.0113392
0.0117926
0.0124047
0.0131527
0.0140295
0.0150208
0.0161125
0.0172841
0.0185156
0.0197874
0.0210826
0.0223861
0.0236844
0.0249669
0.0262202
0.0274363
0.0286091
0.0297328
0.0308016
0.03181
0.0327526
0.0336242
0.0344199
0.0351356
0.0357672
0.0363121
0.0367679
0.0371338
0.0374091
0.037596
0.0376953
0.037713
0.0376514
0.0375222
0.0373279
0.0370913
0.0368086
0.0365254
0.0362169
0.0359819
0.0357338
0.0357018
0.0356236
0.0360506
0.0362106
0.0373368
0.0374081
0.0106995
0.00727724
0.00526494
0.004066
0.00344889
0.00339245
0.00399914
0.00540521
0.00737847
0.00931918
0.0106342
0.011325
0.011682
0.0120179
0.0124561
0.0130366
0.0137508
0.0145951
0.015557
0.016623
0.0177732
0.0189872
0.0202449
0.0215287
0.0228226
0.0241124
0.0253864
0.0266306
0.0278368
0.0289984
0.0301092
0.0311633
0.0321549
0.0330785
0.033929
0.0347013
0.0353913
0.0359954
0.0365107
0.0369351
0.0372681
0.0375093
0.0376608
0.0377242
0.0377054
0.0376072
0.0374415
0.0372111
0.0369389
0.0366219
0.036305
0.0359651
0.0356988
0.0354233
0.0353617
0.0352623
0.0356591
0.0358091
0.0369016
0.0369989
0.0106983
0.00727829
0.00526226
0.00404424
0.00338073
0.00322992
0.00368342
0.00491603
0.00684774
0.00899021
0.01067
0.0116933
0.0122538
0.0126718
0.0131225
0.0136847
0.01437
0.0151824
0.0161134
0.017151
0.0182763
0.0194691
0.0207089
0.0219775
0.0232583
0.024536
0.0257981
0.0270299
0.028223
0.0293704
0.0304655
0.031502
0.0324741
0.0333762
0.0342029
0.0349495
0.0356117
0.036186
0.0366699
0.0370612
0.0373598
0.0375655
0.0376807
0.0377072
0.0376513
0.0375161
0.0373136
0.0370474
0.0367399
0.036389
0.0360392
0.0356688
0.0353719
0.0350703
0.03498
0.0348606
0.0352279
0.0353694
0.0364297
0.0365569
0.0106971
0.0072797
0.00526132
0.00402811
0.00332591
0.00309382
0.00340551
0.00444859
0.00626574
0.00851588
0.0105174
0.0118982
0.0127183
0.0132711
0.0137702
0.014334
0.015
0.0157844
0.0166848
0.0176925
0.0187902
0.0199585
0.0211769
0.0224268
0.0236908
0.0249532
0.0261998
0.0274159
0.0285928
0.0297229
0.0307993
0.0318154
0.0327653
0.0336432
0.0344438
0.0351623
0.0357945
0.0363371
0.0367876
0.0371443
0.037407
0.037576
0.0376539
0.0376428
0.0375492
0.0373768
0.0371376
0.0368356
0.0364933
0.0361094
0.0357274
0.0353275
0.0350013
0.0346746
0.0345568
0.0344186
0.0347574
0.034892
0.0359217
0.0360826
0.0106961
0.00728137
0.00526173
0.00401657
0.00328241
0.00298127
0.00316578
0.0040169
0.00566407
0.0079245
0.0101787
0.0119174
0.0130425
0.0137839
0.0143733
0.0149654
0.0156273
0.0163911
0.0172639
0.0182417
0.0193103
0.0204516
0.0216456
0.0228734
0.0241174
0.0253609
0.0265886
0.0277859
0.0289434
0.0300532
0.0311079
0.0321009
0.0330259
0.0338771
0.0346491
0.0353372
0.0359374
0.0364463
0.0368617
0.0371822
0.0374077
0.0375389
0.0375786
0.0375294
0.0373978
0.0371881
0.0369123
0.036575
0.0361985
0.0357823
0.0353691
0.0349409
0.0345866
0.0342363
0.0340922
0.0339367
0.034248
0.0343773
0.0353782
0.0355764
0.0106952
0.00728322
0.00526315
0.00400875
0.00324841
0.0028893
0.00296258
0.00362981
0.00507117
0.00725073
0.0096684
0.0117374
0.0131968
0.0141772
0.0149027
0.0155561
0.0162344
0.0169896
0.0178407
0.018791
0.0198304
0.0209432
0.0221104
0.0233134
0.0245341
0.0257558
0.0269612
0.0281365
0.0292717
0.0303582
0.0313885
0.0323555
0.033253
0.034075
0.0348161
0.0354716
0.0360377
0.0365111
0.0368899
0.0371727
0.0373599
0.0374523
0.0374532
0.0373653
0.0371956
0.0369485
0.0366365
0.0362644
0.0358545
0.035407
0.0349639
0.0345086
0.0341276
0.0337552
0.0335863
0.033415
0.0337002
0.033826
0.0347997
0.0350388
0.0106945
0.00728517
0.00526534
0.00400391
0.00322232
0.00281503
0.00279297
0.00329143
0.00451026
0.00653221
0.00901219
0.0113563
0.0131577
0.0144192
0.0153275
0.0160797
0.0168005
0.0175636
0.0184027
0.0193304
0.0203425
0.0214266
0.0225656
0.0237415
0.0249365
0.0261332
0.0273136
0.028464
0.0295739
0.0306343
0.0316374
0.0325759
0.0334434
0.0342338
0.0349417
0.0355627
0.0360928
0.036529
0.0368696
0.0371135
0.0372614
0.0373143
0.0372757
0.0371489
0.036941
0.0366569
0.036309
0.0359029
0.0354605
0.0349829
0.0345111
0.0340303
0.0336242
0.0332315
0.0330393
0.0328539
0.0331144
0.0332386
0.0341868
0.0344702
0.0106938
0.00728717
0.00526809
0.00400144
0.00320275
0.00275577
0.00265331
0.0030021
0.00399809
0.00580592
0.00824532
0.0107843
0.0129099
0.0144811
0.0156162
0.0165078
0.0173019
0.0180939
0.0189345
0.0198476
0.0208364
0.0218934
0.023004
0.0241515
0.0253187
0.0264881
0.027641
0.0287638
0.0298457
0.0308774
0.0318507
0.0327583
0.0335934
0.03435
0.0350228
0.0356072
0.0360996
0.0364971
0.0367983
0.0370022
0.0371098
0.0371226
0.0370443
0.0368785
0.0366325
0.0363117
0.0359287
0.0354895
0.0350157
0.0345094
0.0340103
0.0335058
0.0330763
0.032665
0.0324513
0.0322537
0.0324911
0.0326156
0.0335401
0.033871
0.0106932
0.0072892
0.00527121
0.0040008
0.00318851
0.0027091
0.00253973
0.00275939
0.0035447
0.00510469
0.00740949
0.0100448
0.0124494
0.0143402
0.0157389
0.0168105
0.017712
0.0185584
0.019418
0.0203276
0.0213
0.0223332
0.0234167
0.0245358
0.0256741
0.0268143
0.0279376
0.0290306
0.0300822
0.0310829
0.0320241
0.0328984
0.033699
0.0344198
0.0350555
0.0356018
0.0360549
0.0364125
0.036673
0.0368361
0.0369029
0.0368752
0.0367569
0.0365522
0.0362686
0.0359117
0.0354945
0.0350231
0.0345192
0.0339857
0.0334612
0.0329347
0.0324836
0.0320559
0.0318226
0.0316148
0.0318307
0.0319575
0.0328602
0.0332417
0.0106927
0.00729121
0.00527459
0.00400158
0.00317857
0.00267288
0.00244844
0.0025591
0.00315408
0.00445447
0.00654879
0.00917288
0.0117844
0.0139816
0.0156687
0.0169581
0.0180029
0.0189325
0.0198323
0.0207533
0.0217186
0.022734
0.0237933
0.0248851
0.0259945
0.0271046
0.0281969
0.0292584
0.0302778
0.0312454
0.0321526
0.0329917
0.0337559
0.0344392
0.0350362
0.0355428
0.0359554
0.0362719
0.036491
0.0366126
0.0366381
0.0365696
0.0364116
0.0361683
0.0358476
0.0354555
0.035005
0.0345029
0.0339705
0.0334114
0.0328632
0.0323168
0.0318463
0.0314043
0.0311534
0.0309376
0.0311337
0.0312651
0.0321477
0.0325826
0.0106922
0.00729318
0.00527811
0.00400343
0.00317208
0.00264525
0.0023759
0.00239617
0.00282533
0.00387287
0.00570507
0.00821319
0.0109374
0.0134012
0.0153848
0.0169227
0.0181461
0.0191901
0.0201546
0.0211049
0.0220758
0.0230814
0.0241217
0.0251889
0.0262706
0.0273506
0.0284114
0.0294403
0.0304262
0.0313592
0.0322308
0.0330331
0.0337593
0.0344036
0.0349606
0.0354263
0.0357974
0.0360719
0.036249
0.0363287
0.0363128
0.0362038
0.0360063
0.035725
0.0353679
0.0349417
0.0344593
0.0339279
0.0333686
0.0327859
0.0322161
0.031652
0.0311643
0.0307103
0.030444
0.0302224
0.0304008
0.0305388
0.0314032
0.0318943
0.0106918
0.0072951
0.00528169
0.00400606
0.00316831
0.00262462
0.00231895
0.00226531
0.00255416
0.00336903
0.00491383
0.00721558
0.00994414
0.0126079
0.0148746
0.0166806
0.018114
0.0193041
0.0203603
0.0213609
0.0223527
0.0233594
0.0243879
0.0254352
0.0264917
0.0275429
0.0285725
0.0295686
0.0305201
0.0314177
0.0322524
0.0330168
0.033704
0.0343081
0.0348241
0.0352481
0.035577
0.0358091
0.0359438
0.0359816
0.0359244
0.0357752
0.0355388
0.0352203
0.0348281
0.034369
0.0338561
0.0332973
0.032713
0.0321087
0.0315196
0.0309401
0.0304376
0.0299741
0.0296947
0.0294698
0.0296325
0.0297794
0.0306274
0.0311772
0.0106915
0.00729696
0.00528528
0.00400924
0.00316666
0.00260964
0.00227482
0.00216141
0.00233428
0.00294457
0.00420106
0.00622994
0.00885221
0.0116252
0.0141363
0.016214
0.017882
0.019248
0.0204239
0.0214981
0.0225289
0.0235501
0.0245763
0.0256101
0.0266458
0.0276708
0.0286707
0.0296345
0.0305519
0.0314135
0.032211
0.0329368
0.0335842
0.0341476
0.034622