/*--------------------------------*- C++ -*----------------------------------*\
| =========                 |                                                 |
| \\      /  F ield         | OpenFOAM: The Open Source CFD Toolbox           |
|  \\    /   O peration     | Version:  2.4.0                                 |
|   \\  /    A nd           | Web:      www.OpenFOAM.org                      |
|    \\/     M anipulation  |                                                 |
\*---------------------------------------------------------------------------*/
FoamFile
{
    version     2.0;
    format      ascii;
    class       surfaceScalarField;
    location    "7.48";
    object      phi;
}
// * * * * * * * * * * * * * * * * * * * * * * * * * * * * * * * * * * * * * //

dimensions      [0 3 -1 0 0 0 0];

internalField   nonuniform List<scalar> 
11840
(
7.83339e-07
9.21666e-06
-9.35799e-07
1.71914e-06
6.60247e-07
-1.59605e-06
1.50724e-07
5.09523e-07
-1.96534e-07
3.47258e-07
-2.94249e-07
9.77147e-08
-3.91917e-07
9.76679e-08
-4.73612e-07
8.16954e-08
-6.24787e-07
1.51174e-07
-7.39001e-07
1.14214e-07
-9.26673e-07
1.87672e-07
-1.08937e-06
1.62694e-07
-1.30319e-06
2.13826e-07
-1.50611e-06
2.0292e-07
-1.73374e-06
2.27625e-07
-1.95691e-06
2.23174e-07
-2.18775e-06
2.30836e-07
-2.41389e-06
2.26142e-07
-2.63748e-06
2.23589e-07
-2.85167e-06
2.14192e-07
-3.05377e-06
2.02095e-07
-3.23997e-06
1.86204e-07
-3.41185e-06
1.71882e-07
-3.56958e-06
1.57726e-07
-3.71127e-06
1.41689e-07
-3.83452e-06
1.23253e-07
-3.93716e-06
1.02644e-07
-4.01691e-06
7.97485e-08
-4.07132e-06
5.44071e-08
-4.09728e-06
2.59578e-08
-4.09119e-06
-6.08866e-09
-4.05285e-06
-3.83388e-08
-3.98232e-06
-7.05346e-08
-3.87799e-06
-1.04329e-07
-3.73871e-06
-1.39281e-07
-3.56341e-06
-1.75295e-07
-3.35164e-06
-2.1177e-07
-3.10272e-06
-2.48918e-07
-2.81736e-06
-2.85367e-07
-2.49479e-06
-3.22561e-07
-2.13802e-06
-3.56772e-07
-1.74465e-06
-3.93371e-07
-1.32269e-06
-4.21957e-07
-8.64813e-07
-4.57881e-07
-3.87666e-07
-4.77148e-07
1.21977e-07
-5.09642e-07
6.33397e-07
-5.1142e-07
1.18564e-06
-5.52239e-07
1.7068e-06
-5.21163e-07
2.29721e-06
-5.90414e-07
2.79283e-06
-4.95616e-07
3.42692e-06
-6.3409e-07
3.83746e-06
-4.10543e-07
4.54842e-06
-7.10955e-07
4.7769e-06
-2.28486e-07
5.64535e-06
-8.68451e-07
5.54143e-06
1.03928e-07
6.73462e-06
-1.1932e-06
6.18799e-06
5.46638e-07
-2.29255e-06
2.45131e-06
1.67654e-05
-5.06416e-07
4.67686e-06
3.69339e-07
-2.4718e-06
-8.20768e-08
9.60938e-07
-3.03667e-07
5.68848e-07
-4.62493e-07
2.56541e-07
-5.6019e-07
1.95365e-07
-6.62082e-07
1.83587e-07
-8.16741e-07
3.05833e-07
-9.52508e-07
2.49981e-07
-1.13951e-06
3.74676e-07
-1.32032e-06
3.43499e-07
-1.53029e-06
4.23799e-07
-1.74066e-06
4.13295e-07
-1.96247e-06
4.49427e-07
-2.18347e-06
4.44175e-07
-2.40576e-06
4.5313e-07
-2.62344e-06
4.43824e-07
-2.83543e-06
4.35572e-07
-3.03789e-06
4.16655e-07
-3.22909e-06
3.93295e-07
-3.40732e-06
3.64431e-07
-3.57172e-06
3.36288e-07
-3.72035e-06
3.06356e-07
-3.85099e-06
2.72331e-07
-3.96141e-06
2.33673e-07
-4.04949e-06
1.90719e-07
-4.11311e-06
1.43368e-07
-4.15024e-06
9.1541e-08
-4.15923e-06
3.49447e-08
-4.13926e-06
-2.60627e-08
-4.08816e-06
-8.9433e-08
-4.00379e-06
-1.54909e-07
-3.88468e-06
-2.2343e-07
-3.7297e-06
-2.94262e-07
-3.53792e-06
-3.67077e-07
-3.30882e-06
-4.40871e-07
-3.04208e-06
-5.15663e-07
-2.738e-06
-5.89444e-07
-2.39686e-06
-6.63698e-07
-2.02011e-06
-7.33529e-07
-1.60847e-06
-8.05005e-07
-1.16492e-06
-8.65511e-07
-6.90792e-07
-9.32007e-07
-1.90426e-07
-9.77514e-07
3.3391e-07
-1.03398e-06
8.74269e-07
-1.05178e-06
1.43562e-06
-1.11359e-06
2.00015e-06
-1.08569e-06
2.58495e-06
-1.17521e-06
3.14937e-06
-1.06004e-06
3.74593e-06
-1.23065e-06
4.27531e-06
-9.39923e-07
4.88423e-06
-1.31987e-06
5.32384e-06
-6.68102e-07
5.98113e-06
-1.52574e-06
6.24347e-06
-1.58409e-07
7.06221e-06
-2.01194e-06
7.13315e-06
4.75695e-07
-3.77336e-06
3.60687e-06
2.31585e-05
1.75259e-08
8.26621e-06
5.84788e-08
-2.51275e-06
-3.01444e-07
1.32086e-06
-3.63312e-07
6.30717e-07
-5.31132e-07
4.2436e-07
-6.17694e-07
2.81927e-07
-7.27936e-07
2.93829e-07
-8.70529e-07
4.48426e-07
-1.0141e-06
3.93552e-07
-1.18924e-06
5.49815e-07
-1.37121e-06
5.25466e-07
-1.57102e-06
6.23615e-07
-1.77658e-06
6.1885e-07
-1.98904e-06
6.61886e-07
-2.20249e-06
6.57634e-07
-2.41569e-06
6.66327e-07
-2.62497e-06
6.53101e-07
-2.82831e-06
6.38917e-07
-3.02301e-06
6.11354e-07
-3.20733e-06
5.77615e-07
-3.37963e-06
5.36728e-07
-3.53822e-06
4.94881e-07
-3.6809e-06
4.49033e-07
-3.80548e-06
3.96909e-07
-3.90979e-06
3.37989e-07
-3.99175e-06
2.72677e-07
-4.04933e-06
2.00942e-07
-4.08062e-06
1.22836e-07
-4.084e-06
3.83205e-08
-4.05808e-06
-5.1979e-08
-4.0009e-06
-1.46616e-07
-3.91045e-06
-2.45353e-07
-3.7854e-06
-3.48487e-07
-3.62459e-06
-4.55065e-07
-3.42718e-06
-5.64494e-07
-3.19262e-06
-6.75429e-07
-2.92069e-06
-7.87593e-07
-2.61161e-06
-8.98527e-07
-2.26588e-06
-1.00942e-06
-1.8846e-06
-1.11481e-06
-1.46919e-06
-1.22041e-06
-1.02153e-06
-1.31318e-06
-5.44651e-07
-1.40888e-06
-4.04806e-08
-1.48168e-06
4.8594e-07
-1.5604e-06
1.03219e-06
-1.59803e-06
1.59454e-06
-1.67595e-06
2.16793e-06
-1.65909e-06
2.74948e-06
-1.75676e-06
3.32962e-06
-1.64018e-06
3.91247e-06
-1.8135e-06
4.47443e-06
-1.50188e-06
5.04442e-06
-1.88985e-06
5.55621e-06
-1.1799e-06
6.11507e-06
-2.0846e-06
6.53694e-06
-5.80283e-07
7.12959e-06
-2.60458e-06
7.51563e-06
8.96594e-08
-4.77577e-06
4.52839e-06
2.86301e-05
7.56453e-07
1.20381e-05
-2.35016e-07
-1.52128e-06
-4.58866e-07
1.54471e-06
-3.96217e-07
5.68068e-07
-5.63938e-07
5.9208e-07
-6.41092e-07
3.59082e-07
-7.56559e-07
4.09296e-07
-8.89048e-07
5.80914e-07
-1.03517e-06
5.39677e-07
-1.20185e-06
7.16488e-07
-1.38117e-06
7.04796e-07
-1.57333e-06
8.15766e-07
-1.77317e-06
8.18692e-07
-1.97813e-06
8.66849e-07
-2.18476e-06
8.6426e-07
-2.39058e-06
8.72147e-07
-2.59282e-06
8.55347e-07
-2.7892e-06
8.3529e-07
-2.97743e-06
7.99584e-07
-3.15574e-06
7.55934e-07
-3.32244e-06
7.0342e-07
-3.4755e-06
6.47949e-07
-3.61269e-06
5.8622e-07
-3.73185e-06
5.1607e-07
-3.83086e-06
4.37001e-07
-3.90766e-06
3.49476e-07
-3.96028e-06
2.53557e-07
-3.98686e-06
1.49418e-07
-3.98574e-06
3.72018e-08
-3.95534e-06
-8.23834e-08
-3.89374e-06
-2.08208e-07
-3.79915e-06
-3.39945e-07
-3.67022e-06
-4.77418e-07
-3.50584e-06
-6.19445e-07
-3.30517e-06
-7.65165e-07
-3.06769e-06
-9.12911e-07
-2.7932e-06
-1.06208e-06
-2.4819e-06
-1.20983e-06
-2.13438e-06
-1.35694e-06
-1.75161e-06
-1.49758e-06
-1.33523e-06
-1.63679e-06
-8.86782e-07
-1.76163e-06
-4.09731e-07
-1.88593e-06
9.45671e-08
-1.98598e-06
6.20794e-07
-2.08662e-06
1.16778e-06
-2.14502e-06
1.72926e-06
-2.23743e-06
2.30396e-06
-2.23378e-06
2.88285e-06
-2.33565e-06
3.46623e-06
-2.22356e-06
4.04245e-06
-2.38972e-06
4.61336e-06
-2.07279e-06
5.16713e-06
-2.44362e-06
5.70284e-06
-1.71561e-06
6.22145e-06
-2.6032e-06
6.70349e-06
-1.06233e-06
7.19963e-06
-3.10072e-06
7.71176e-06
-4.22479e-07
-5.54307e-06
5.30448e-06
3.33256e-05
1.4902e-06
1.58524e-05
-2.62162e-07
2.3108e-07
-5.51613e-07
1.83416e-06
-4.18252e-07
4.34707e-07
-5.81145e-07
7.54973e-07
-6.50919e-07
4.28856e-07
-7.68765e-07
5.27142e-07
-8.93697e-07
7.05846e-07
-1.03935e-06
6.85325e-07
-1.19945e-06
8.76592e-07
-1.37473e-06
8.80072e-07
-1.56023e-06
1.00127e-06
-1.75416e-06
1.01262e-06
-1.95233e-06
1.06502e-06
-2.15244e-06
1.06437e-06
-2.35151e-06
1.07121e-06
-2.54721e-06
1.05105e-06
-2.73715e-06
1.02523e-06
-2.91929e-06
9.81723e-07
-3.09182e-06
9.28463e-07
-3.25295e-06
8.64557e-07
-3.40056e-06
7.95555e-07
-3.53239e-06
7.18049e-07
-3.64633e-06
6.30009e-07
-3.74029e-06
5.3096e-07
-3.81223e-06
4.21424e-07
-3.86024e-06
3.01561e-07
-3.88248e-06
1.71655e-07
-3.87725e-06
3.19778e-08
-3.84289e-06
-1.16744e-07
-3.77755e-06
-2.73552e-07
-3.67953e-06
-4.37963e-07
-3.54751e-06
-6.09434e-07
-3.38041e-06
-7.86551e-07
-3.17739e-06
-9.68183e-07
-2.93795e-06
-1.15235e-06
-2.66191e-06
-1.33812e-06
-2.34946e-06
-1.52228e-06
-2.00123e-06
-1.70517e-06
-1.61812e-06
-1.88069e-06
-1.20189e-06
-2.05303e-06
-7.53913e-07
-2.2096e-06
-2.77753e-07
-2.36209e-06
2.25373e-07
-2.48911e-06
7.50269e-07
-2.61152e-06
1.29607e-06
-2.69082e-06
1.85559e-06
-2.79695e-06
2.42895e-06
-2.80714e-06
3.00479e-06
-2.9115e-06
3.58733e-06
-2.8061e-06
4.15853e-06
-2.96092e-06
4.73089e-06
-2.64516e-06
5.27518e-06
-2.98791e-06
5.81902e-06
-2.25945e-06
6.317e-06
-3.10118e-06
6.82387e-06
-1.5692e-06
7.2731e-06
-3.54995e-06
7.83621e-06
-9.85589e-07
-6.17946e-06
5.97537e-06
3.73502e-05
2.23959e-06
1.95882e-05
-6.63839e-08
2.53705e-06
-5.84278e-07
2.35206e-06
-4.36546e-07
2.86974e-07
-5.8958e-07
9.08008e-07
-6.53433e-07
4.92709e-07
-7.71695e-07
6.45404e-07
-8.90563e-07
8.24714e-07
-1.03418e-06
8.28944e-07
-1.18852e-06
1.03093e-06
-1.35913e-06
1.05068e-06
-1.53837e-06
1.18052e-06
-1.72631e-06
1.20056e-06
-1.91796e-06
1.25667e-06
-2.11166e-06
1.25807e-06
-2.30421e-06
1.26377e-06
-2.49355e-06
1.24038e-06
-2.67724e-06
1.20893e-06
-2.85339e-06
1.15787e-06
-3.02015e-06
1.09522e-06
-3.17568e-06
1.0201e-06
-3.3178e-06
9.37671e-07
-3.44427e-06
8.44523e-07
-3.55303e-06
7.38761e-07
-3.642e-06
6.19934e-07
-3.70919e-06
4.88616e-07
-3.75271e-06
3.45073e-07
-3.77073e-06
1.89681e-07
-3.76156e-06
2.28075e-08
-3.72348e-06
-1.54824e-07
-3.6547e-06
-3.42335e-07
-3.5536e-06
-5.39059e-07
-3.41889e-06
-7.44147e-07
-3.24948e-06
-9.55956e-07
-3.04458e-06
-1.17308e-06
-2.80368e-06
-1.39325e-06
-2.52663e-06
-1.61517e-06
-2.2136e-06
-1.83531e-06
-1.86524e-06
-2.05352e-06
-1.48245e-06
-2.26348e-06
-1.06699e-06
-2.46849e-06
-6.20186e-07
-2.6564e-06
-1.45558e-07
-2.83672e-06
3.55665e-07
-2.99033e-06
8.78498e-07
-3.13435e-06
1.42206e-06
-3.23438e-06
1.97885e-06
-3.35374e-06
2.54954e-06
-3.37782e-06
3.12183e-06
-3.48378e-06
3.70166e-06
-3.38593e-06
4.26809e-06
-3.52735e-06
4.83873e-06
-3.2158e-06
5.37584e-06
-3.52502e-06
5.9214e-06
-2.805e-06
6.40627e-06
-3.58605e-06
6.92364e-06
-2.08656e-06
7.34608e-06
-3.9724e-06
7.92928e-06
-1.56878e-06
-6.73006e-06
6.56062e-06
4.07896e-05
2.97351e-06
2.31753e-05
2.28188e-07
5.28238e-06
-5.38156e-07
3.1184e-06
-4.52664e-07
2.01482e-07
-5.92062e-07
1.04741e-06
-6.50967e-07
5.51613e-07
-7.68429e-07
7.62866e-07
-8.82035e-07
9.3832e-07
-1.02279e-06
9.69694e-07
-1.17171e-06
1.17985e-06
-1.33731e-06
1.21628e-06
-1.51045e-06
1.35365e-06
-1.69231e-06
1.38243e-06
-1.87754e-06
1.44189e-06
-2.06487e-06
1.4454e-06
-2.25098e-06
1.44988e-06
-2.43398e-06
1.42338e-06
-2.61147e-06
1.38641e-06
-2.7816e-06
1.328e-06
-2.94253e-06
1.25614e-06
-3.09237e-06
1.16994e-06
-3.22892e-06
1.07422e-06
-3.34998e-06
9.65583e-07
-3.4535e-06
8.42288e-07
-3.53747e-06
7.03901e-07
-3.5999e-06
5.51052e-07
-3.63894e-06
3.84108e-07
-3.65278e-06
2.03526e-07
-3.63972e-06
9.74458e-09
-3.59803e-06
-1.96518e-07
-3.52596e-06
-4.14402e-07
-3.42197e-06
-6.4305e-07
-3.28477e-06
-8.81344e-07
-3.11331e-06
-1.12742e-06
-2.90681e-06
-1.37959e-06
-2.66475e-06
-1.6353e-06
-2.38702e-06
-1.89291e-06
-2.07377e-06
-2.14856e-06
-1.72569e-06
-2.4016e-06
-1.34363e-06
-2.64555e-06
-9.29373e-07
-2.88274e-06
-4.84223e-07
-3.10155e-06
-1.15911e-08
-3.30935e-06
4.87216e-07
-3.48914e-06
1.00743e-06
-3.65457e-06
1.54805e-06
-3.77501e-06
2.10151e-06
-3.9072e-06
2.66867e-06
-3.94498e-06
3.23691e-06
-4.05202e-06
3.81294e-06
-3.96196e-06
4.37447e-06
-4.08888e-06
4.94169e-06
-3.78302e-06
5.47246e-06
-4.05579e-06
6.01653e-06
-3.34907e-06
6.49169e-06
-4.06121e-06
7.01262e-06
-2.60749e-06
7.41758e-06
-4.37736e-06
8.00635e-06
-2.15755e-06
-7.21748e-06
7.07166e-06
4.3718e-05
3.68609e-06
2.65609e-05
6.52215e-07
8.31625e-06
-4.08672e-07
4.17929e-06
-4.62688e-07
2.55499e-07
-5.89777e-07
1.1745e-06
-6.44493e-07
6.06329e-07
-7.60454e-07
8.78827e-07
-8.69246e-07
1.04711e-06
-1.00664e-06
1.10709e-06
-1.1503e-06
1.32351e-06
-1.3107e-06
1.37669e-06
-1.47777e-06
1.52072e-06
-1.6535e-06
1.55815e-06
-1.8323e-06
1.6207e-06
-2.01322e-06
1.62632e-06
-2.19289e-06
1.62955e-06
-2.36954e-06
1.60003e-06
-2.54077e-06
1.55765e-06
-2.70482e-06
1.49205e-06
-2.8598e-06
1.41112e-06
-3.00383e-06
1.31397e-06
-3.13469e-06
1.20508e-06
-3.25024e-06
1.08113e-06
-3.34845e-06
9.40504e-07
-3.42734e-06
7.82791e-07
-3.48497e-06
6.08676e-07
-3.51949e-06
4.18625e-07
-3.52912e-06
2.13163e-07
-3.51216e-06
-7.21504e-09
-3.46689e-06
-2.41791e-07
-3.39161e-06
-4.89682e-07
-3.28482e-06
-7.49838e-07
-3.14526e-06
-1.0209e-06
-2.9719e-06
-1.30078e-06
-2.76396e-06
-1.58753e-06
-2.52097e-06
-1.8783e-06
-2.24279e-06
-2.17109e-06
-1.9296e-06
-2.46175e-06
-1.58207e-06
-2.74913e-06
-1.20106e-06
-3.02656e-06
-7.88349e-07
-3.29546e-06
-3.45215e-07
-3.54469e-06
1.25046e-07
-3.77961e-06
6.21021e-07
-3.98511e-06
1.13815e-06
-4.17169e-06
1.67527e-06
-4.31213e-06
2.22489e-06
-4.45682e-06
2.78789e-06
-4.50798e-06
3.35162e-06
-4.61575e-06
3.92308e-06
-4.53341e-06
4.47945e-06
-4.64526e-06
5.04218e-06
-4.34574e-06
5.56689e-06
-4.58051e-06
6.1076e-06
-3.88978e-06
6.57469e-06
-4.5283e-06
7.09531e-06
-3.12811e-06
7.48755e-06
-4.7696e-06
8.07421e-06
-2.74421e-06
-7.65468e-06
7.5171e-06
4.62009e-05
4.37104e-06
2.97069e-05
1.17934e-06
1.15079e-05
-2.09765e-07
5.5684e-06
-4.56787e-07
5.02521e-07
-5.82854e-07
1.30056e-06
-6.34375e-07
6.57851e-07
-7.48503e-07
9.92955e-07
-8.52762e-07
1.15137e-06
-9.86529e-07
1.24086e-06
-1.12498e-06
1.46196e-06
-1.28005e-06
1.53176e-06
-1.44105e-06
1.68172e-06
-1.61056e-06
1.72767e-06
-1.78291e-06
1.79305e-06
-1.95736e-06
1.80077e-06
-2.13052e-06
1.80271e-06
-2.30074e-06
1.77025e-06
-2.46564e-06
1.72255e-06
-2.62349e-06
1.6499e-06
-2.7724e-06
1.56003e-06
-2.91048e-06
1.45205e-06
-3.03553e-06
1.33013e-06
-3.14544e-06
1.19105e-06
-3.23823e-06
1.0333e-06
-3.31195e-06
8.56507e-07
-3.36468e-06
6.61401e-07
-3.3946e-06
4.48548e-07
-3.39997e-06
2.18532e-07
-3.37907e-06
-2.81104e-08
-3.33021e-06
-2.90651e-07
-3.25174e-06
-5.68152e-07
-3.1422e-06
-8.59379e-07
-3.00035e-06
-1.16275e-06
-2.82518e-06
-1.47595e-06
-2.61594e-06
-1.79677e-06
-2.37215e-06
-2.12209e-06
-2.0937e-06
-2.44954e-06
-1.78077e-06
-2.77469e-06
-1.43404e-06
-3.09586e-06
-1.05434e-06
-3.40626e-06
-6.43446e-07
-3.70635e-06
-2.02636e-07
-3.9855e-06
2.64921e-07
-4.24717e-06
7.57703e-07
-4.4779e-06
1.27133e-06
-4.68532e-06
1.80449e-06
-4.8453e-06
2.34982e-06
-5.00215e-06
2.90814e-06
-5.0663e-06
3.46692e-06
-5.17454e-06
4.0332e-06
-5.09969e-06
4.5841e-06
-5.19615e-06
5.14155e-06
-4.9032e-06
5.66021e-06
-5.09916e-06
6.19633e-06
-4.4259e-06
6.65618e-06
-4.98815e-06
7.1741e-06
-3.64604e-06
7.5562e-06
-5.1517e-06
8.13631e-06
-3.32433e-06
-8.04983e-06
7.90462e-06
4.82962e-05
5.02251e-06
3.2589e-05
1.77242e-06
1.4758e-05
5.51192e-08
7.28569e-06
-4.24773e-07
9.82413e-07
-5.70373e-07
1.44616e-06
-6.20594e-07
7.08071e-07
-7.32882e-07
1.10524e-06
-8.3284e-07
1.25133e-06
-9.62834e-07
1.37085e-06
-1.09612e-06
1.59525e-06
-1.24576e-06
1.68139e-06
-1.40066e-06
1.83662e-06
-1.56388e-06
1.89089e-06
-1.72972e-06
1.95889e-06
-1.89762e-06
1.96866e-06
-2.0642e-06
1.96929e-06
-2.22789e-06
1.93394e-06
-2.38634e-06
1.881e-06
-2.53787e-06
1.80143e-06
-2.68056e-06
1.70272e-06
-2.81254e-06
1.58403e-06
-2.93163e-06
1.44922e-06
-3.03577e-06
1.29519e-06
-3.12302e-06
1.12055e-06
-3.19144e-06
9.24929e-07
-3.23916e-06
7.09122e-07
-3.2644e-06
4.73783e-07
-3.26542e-06
2.19551e-07
-3.24053e-06
-5.30031e-08
-3.18804e-06
-3.43132e-07
-3.10637e-06
-6.49822e-07
-2.99409e-06
-9.71659e-07
-2.84999e-06
-1.30685e-06
-2.67308e-06
-1.65287e-06
-2.46262e-06
-2.00724e-06
-2.21815e-06
-2.36655e-06
-1.93957e-06
-2.72811e-06
-1.62707e-06
-3.08719e-06
-1.28132e-06
-3.44161e-06
-9.0316e-07
-3.78442e-06
-4.94336e-07
-4.11517e-06
-5.61233e-08
-4.42371e-06
4.08423e-07
-4.71172e-06
8.9768e-07
-4.96715e-06
1.40742e-06
-5.19506e-06
1.93621e-06
-5.37409e-06
2.47683e-06
-5.54277e-06
3.03e-06
-5.61946e-06
3.58343e-06
-5.72797e-06
4.14402e-06
-5.66028e-06
4.6891e-06
-5.74123e-06
5.24067e-06
-5.45477e-06
5.75313e-06
-5.61163e-06
6.28378e-06
-4.95655e-06
6.73677e-06
-5.44114e-06
7.25039e-06
-4.15966e-06
7.62376e-06
-5.52507e-06
8.19461e-06
-3.89517e-06
-8.40853e-06
8.2412e-06
5.0055e-05
5.63588e-06
3.51944e-05
2.40991e-06
1.7984e-05
4.32515e-07
9.26308e-06
-3.56592e-07
1.77152e-06
-5.49996e-07
1.63957e-06
-6.02782e-07
7.60857e-07
-7.13603e-07
1.21607e-06
-8.09529e-07
1.34725e-06
-9.35725e-07
1.49705e-06
-1.06388e-06
1.7234e-06
-1.20803e-06
1.82555e-06
-1.3568e-06
1.98539e-06
-1.51367e-06
2.04776e-06
-1.67293e-06
2.11815e-06
-1.83418e-06
2.12992e-06
-1.99408e-06
2.12919e-06
-2.15113e-06
2.091e-06
-2.30302e-06
2.03288e-06
-2.44807e-06
1.94648e-06
-2.5844e-06
1.83904e-06
-2.71012e-06
1.70976e-06
-2.82311e-06
1.5622e-06
-2.92133e-06
1.39342e-06
-3.0029e-06
1.20211e-06
-3.06589e-06
9.87929e-07
-3.10849e-06
7.51717e-07
-3.12893e-06
4.94221e-07
-3.1255e-06
2.16125e-07
-3.09654e-06
-8.19692e-08
-3.04038e-06
-3.99286e-07
-2.95548e-06
-7.34721e-07
-2.84046e-06
-1.08669e-06
-2.69412e-06
-1.45319e-06
-2.51549e-06
-1.83149e-06
-2.30388e-06
-2.21885e-06
-2.05882e-06
-2.61161e-06
-1.78024e-06
-3.00669e-06
-1.46831e-06
-3.39912e-06
-1.12373e-06
-3.78619e-06
-7.47303e-07
-4.16084e-06
-3.40773e-07
-4.5217e-06
9.45895e-08
-4.85907e-06
5.55835e-07
-5.17296e-06
1.04125e-06
-5.45257e-06
1.54675e-06
-5.70056e-06
2.07079e-06
-5.89812e-06
2.6063e-06
-6.07829e-06
3.1539e-06
-6.16706e-06
3.70158e-06
-6.27564e-06
4.25603e-06
-6.21473e-06
4.79492e-06
-6.28012e-06
5.34009e-06
-5.99995e-06
5.84614e-06
-6.11767e-06
6.37062e-06
-5.48103e-06
6.81689e-06
-5.88741e-06
7.32506e-06
-4.66783e-06
7.69047e-06
-5.89048e-06
8.25028e-06
-4.45498e-06
-8.73481e-06
8.53304e-06
5.1522e-05
6.20786e-06
3.75195e-05
3.06963e-06
2.11222e-05
8.66039e-07
1.14667e-05
-2.26053e-07
2.86361e-06
-5.16957e-07
1.93047e-06
-5.80114e-07
8.24014e-07
-6.90424e-07
1.32637e-06
-7.8271e-07
1.43954e-06
-9.052e-07
1.61954e-06
-1.02828e-06
1.84648e-06
-1.16694e-06
1.96421e-06
-1.30955e-06
2.128e-06
-1.46e-06
2.1982e-06
-1.6126e-06
2.27074e-06
-1.76711e-06
2.28443e-06
-1.92023e-06
2.28231e-06
-2.07053e-06
2.24129e-06
-2.21571e-06
2.17806e-06
-2.35415e-06
2.08492e-06
-2.48395e-06
1.96885e-06
-2.60326e-06
1.82907e-06
-2.70998e-06
1.66892e-06
-2.80215e-06
1.48558e-06
-2.87788e-06
1.27784e-06
-2.93532e-06
1.04537e-06
-2.97266e-06
7.8906e-07
-2.98818e-06
5.09745e-07
-2.98021e-06
2.08152e-07
-2.94709e-06
-1.15094e-07
-2.88719e-06
-4.59177e-07
-2.79902e-06
-8.22892e-07
-2.68123e-06
-1.20448e-06
-2.53265e-06
-1.60177e-06
-2.35234e-06
-2.01179e-06
-2.13963e-06
-2.43157e-06
-1.89406e-06
-2.85717e-06
-1.61558e-06
-3.28518e-06
-1.30435e-06
-3.71035e-06
-9.61089e-07
-4.12945e-06
-5.86592e-07
-4.53534e-06
-1.82566e-07
-4.92573e-06
2.49705e-07
-5.29134e-06
7.07369e-07
-5.63063e-06
1.18864e-06
-5.93384e-06
1.68956e-06
-6.20148e-06
2.20847e-06
-6.41703e-06
2.73851e-06
-6.60833e-06
3.28015e-06
-6.7087e-06
3.82167e-06
-6.81717e-06
4.36955e-06
-6.76261e-06
4.9019e-06
-6.81246e-06
5.44022e-06
-6.53826e-06
5.93958e-06
-6.61703e-06
6.45733e-06
-5.99878e-06
6.89684e-06
-6.32693e-06
7.39869e-06
-5.16967e-06
7.75651e-06
-6.2483e-06
8.30409e-06
-5.00256e-06
-9.03175e-06
8.78571e-06
5.27363e-05
6.73651e-06
3.95687e-05
3.7356e-06
2.41232e-05
1.36016e-06
1.38421e-05
-1.45769e-08
4.23835e-06
-4.62365e-07
2.37826e-06
-5.51036e-07
9.12684e-07
-6.62825e-07
1.43816e-06
-7.52101e-07
1.52882e-06
-8.71118e-07
1.73855e-06
-9.8923e-07
1.96459e-06
-1.12242e-06
2.0974e-06
-1.25887e-06
2.26446e-06
-1.40285e-06
2.34218e-06
-1.54873e-06
2.41662e-06
-1.69641e-06
2.43212e-06
-1.84264e-06
2.42853e-06
-1.98606e-06
2.38471e-06
-2.1244e-06
2.3164e-06
-2.25608e-06
2.2166e-06
-2.3792e-06
2.09197e-06
-2.49194e-06
1.94182e-06
-2.59224e-06
1.76922e-06
-2.67819e-06
1.57153e-06
-2.74794e-06
1.34759e-06
-2.79968e-06
1.09711e-06
-2.83164e-06
8.21019e-07
-2.84213e-06
5.20235e-07
-2.8295e-06
1.95524e-07
-2.79213e-06
-1.52468e-07
-2.72843e-06
-5.22876e-07
-2.63694e-06
-9.14385e-07
-2.51634e-06
-1.32508e-06
-2.36552e-06
-1.75259e-06
-2.18355e-06
-2.19376e-06
-1.96976e-06
-2.64535e-06
-1.72376e-06
-3.10318e-06
-1.44546e-06
-3.56347e-06
-1.13507e-06
-4.02074e-06
-7.93274e-07
-4.47125e-06
-4.20883e-07
-4.90773e-06
-1.95637e-08
-5.32705e-06
4.09381e-07
-5.72029e-06
8.63191e-07
-6.08444e-06
1.34003e-06
-6.41067e-06
1.83603e-06
-6.69749e-06
2.34947e-06
-6.93047e-06
2.87366e-06
-7.13252e-06
3.40895e-06
-7.24399e-06
3.94394e-06
-7.35216e-06
4.48486e-06
-7.30353e-06
5.01029e-06
-7.33789e-06
5.54132e-06
-7.0693e-06
6.0337e-06
-7.10941e-06
6.54423e-06
-6.50931e-06
6.97686e-06
-6.75956e-06
7.47167e-06
-5.66448e-06
7.82203e-06
-6.59865e-06
8.35659e-06
-5.53712e-06
-9.30174e-06
9.00419e-06
5.37321e-05
7.22107e-06
4.13519e-05
4.39568e-06
2.69485e-05
1.90464e-06
1.63332e-05
2.33153e-07
5.90984e-06
-3.72071e-07
2.98348e-06
-5.12796e-07
1.05341e-06
-6.29934e-07
1.5553e-06
-7.17243e-07
1.61613e-06
-8.33203e-07
1.85451e-06
-9.46536e-07
2.07792e-06
-1.07434e-06
2.2252e-06
-1.20466e-06
2.39477e-06
-1.34215e-06
2.47967e-06
-1.48123e-06
2.5557e-06
-1.62201e-06
2.5729e-06
-1.76124e-06
2.56776e-06
-1.89766e-06
2.52113e-06
-2.02903e-06
2.44777e-06
-2.1538e-06
2.34136e-06
-2.27009e-06
2.20826e-06
-2.37611e-06
2.04784e-06
-2.46984e-06
1.86295e-06
-2.54941e-06
1.6511e-06
-2.61304e-06
1.41121e-06
-2.65894e-06
1.14301e-06
-2.68538e-06
8.47463e-07
-2.69072e-06
5.25569e-07
-2.67332e-06
1.78131e-07
-2.63161e-06
-1.94184e-07
-2.56403e-06
-5.90457e-07
-2.46916e-06
-1.00926e-06
-2.34573e-06
-1.44851e-06
-2.19264e-06
-1.90567e-06
-2.00902e-06
-2.37739e-06
-1.7942e-06
-2.86016e-06
-1.54782e-06
-3.34956e-06
-1.2698e-06
-3.84149e-06
-9.6035e-07
-4.33019e-06
-6.2017e-07
-4.81143e-06
-2.50056e-07
-5.27785e-06
1.48357e-07
-5.72546e-06
5.73747e-07
-6.14568e-06
1.02344e-06
-6.53413e-06
1.49554e-06
-6.88278e-06
1.98631e-06
-7.18826e-06
2.49394e-06
-7.4381e-06
3.01192e-06
-7.6505e-06
3.54049e-06
-7.77256e-06
4.06858e-06
-7.88024e-06
4.60214e-06
-7.83709e-06
5.12028e-06
-7.85603e-06
5.64362e-06
-7.59264e-06
6.1287e-06
-7.59448e-06
6.63156e-06
-7.01217e-06
7.05712e-06
-7.18512e-06
7.5443e-06
-6.15166e-06
7.88717e-06
-6.94152e-06
8.40814e-06
-6.05809e-06
-9.54674e-06
9.193e-06
5.45391e-05
7.66183e-06
4.2883e-05
5.04036e-06
2.957e-05
2.49046e-06
1.8883e-05
5.71808e-07
7.82849e-06
-2.33391e-07
3.78868e-06
-4.60886e-07
1.28091e-06
-5.90373e-07
1.68479e-06
-6.77453e-07
1.70321e-06
-7.91029e-07
1.96809e-06
-8.9989e-07
2.18678e-06
-1.02248e-06
2.34779e-06
-1.14671e-06
2.51901e-06
-1.27772e-06
2.61068e-06
-1.40998e-06
2.68796e-06
-1.54378e-06
2.70669e-06
-1.67592e-06
2.69991e-06
-1.80523e-06
2.65044e-06
-1.9295e-06
2.57204e-06
-2.04721e-06
2.45908e-06
-2.15652e-06
2.31756e-06
-2.25566e-06
2.14698e-06
-2.34267e-06
1.94996e-06
-2.41572e-06
1.72416e-06
-2.47308e-06
1.46857e-06
-2.513e-06
1.18294e-06
-2.5338e-06
8.68261e-07
-2.53386e-06
5.25628e-07
-2.5116e-06
1.55867e-07
-2.46545e-06
-2.40334e-07
-2.39391e-06
-6.61994e-07
-2.29561e-06
-1.10756e-06
-2.1693e-06
-1.57482e-06
-2.01395e-06
-2.06103e-06
-1.82867e-06
-2.56266e-06
-1.61286e-06
-3.07597e-06
-1.36615e-06
-3.59628e-06
-1.0885e-06
-4.11914e-06
-7.80106e-07
-4.63858e-06
-4.41679e-07
-5.14985e-06
-7.40094e-08
-5.64552e-06
3.213e-07
-6.12077e-06
7.42907e-07
-6.56728e-06
1.18821e-06
-6.97943e-06
1.6553e-06
-7.34987e-06
2.14052e-06
-7.67347e-06
2.642e-06
-7.93958e-06
3.15342e-06
-8.16192e-06
3.67491e-06
-8.29405e-06
4.19571e-06
-8.40104e-06
4.72154e-06
-8.36291e-06
5.23202e-06
-8.36652e-06
5.74729e-06
-8.10791e-06
6.22473e-06
-8.07192e-06
6.7195e-06
-7.50695e-06
7.13776e-06
-7.60337e-06
7.6168e-06
-6.63071e-06
7.95205e-06
-7.27677e-06
8.45902e-06
-6.56506e-06
-9.76838e-06
9.3562e-06
5.51829e-05
8.05991e-06
4.41793e-05
5.66202e-06
3.19679e-05
3.10729e-06
2.14378e-05
9.90423e-07
9.94536e-06
-4.36438e-08
4.82275e-06
-3.88737e-07
1.626e-06
-5.42013e-07
1.83806e-06
-6.31757e-07
1.79295e-06
-7.43994e-07
2.08033e-06
-8.48862e-07
2.29165e-06
-9.66488e-07
2.46542e-06
-1.08477e-06
2.63729e-06
-1.20934e-06
2.73525e-06
-1.33477e-06
2.81339e-06
-1.46153e-06
2.83345e-06
-1.5865e-06
2.82488e-06
-1.7086e-06
2.77254e-06
-1.82565e-06
2.68909e-06
-1.93618e-06
2.56962e-06
-2.03837e-06
2.41975e-06
-2.13049e-06
2.2391e-06
-2.21062e-06
2.03009e-06
-2.27702e-06
1.79056e-06
-2.32797e-06
1.51952e-06
-2.36178e-06
1.21675e-06
-2.37681e-06
8.83288e-07
-2.37147e-06
5.20295e-07
-2.34423e-06
1.28627e-07
-2.29356e-06
-2.91007e-07
-2.21799e-06
-7.37558e-07
-2.1162e-06
-1.20935e-06
-1.98699e-06
-1.70403e-06
-1.82935e-06
-2.21868e-06
-1.64243e-06
-2.74958e-06
-1.42566e-06
-3.29274e-06
-1.17868e-06
-3.84326e-06
-9.01475e-07
-4.39635e-06
-5.94252e-07
-4.94581e-06
-2.57715e-07
-5.48639e-06
1.07343e-07
-6.01057e-06
4.99351e-07
-6.51278e-06
9.1695e-07
-6.98488e-06
1.35761e-06
-7.42009e-06
1.81941e-06
-7.81167e-06
2.29876e-06
-8.15282e-06
2.79376e-06
-8.43458e-06
3.29827e-06
-8.66643e-06
3.81233e-06
-8.80811e-06
4.32547e-06
-8.91418e-06
4.84318e-06
-8.88063e-06
5.34564e-06
-8.86897e-06
5.85245e-06
-8.61473e-06
6.32191e-06
-8.54137e-06
6.80821e-06
-7.99325e-06
7.21888e-06
-8.01404e-06
7.68934e-06
-7.10117e-06
8.01677e-06
-7.60421e-06
8.50946e-06
-7.05775e-06
-9.96801e-06
9.49744e-06
5.56855e-05
8.41708e-06
4.52597e-05
6.25467e-06
3.41303e-05
3.74439e-06
2.39481e-05
1.47961e-06
1.22101e-05
2.27133e-07
6.07522e-06
-2.87974e-07
2.14111e-06
-4.81603e-07
2.03169e-06
-5.78788e-07
1.89014e-06
-6.91274e-07
2.19281e-06
-7.92878e-07
2.39325e-06
-9.05941e-07
2.57848e-06
-1.01848e-06
2.74983e-06
-1.13671e-06
2.85348e-06
-1.25533e-06
2.93201e-06
-1.37503e-06
2.95315e-06
-1.49278e-06
2.94262e-06
-1.60757e-06
2.88733e-06
-1.7173e-06
2.79882e-06
-1.82053e-06
2.67285e-06
-1.91546e-06
2.51469e-06
-2.00043e-06
2.32406e-06
-2.07356e-06
2.10323e-06
-2.13316e-06
1.85016e-06
-2.17757e-06
1.56392e-06
-2.20514e-06
1.24432e-06
-2.21428e-06
8.92425e-07
-2.20344e-06
5.0946e-07
-2.17113e-06
9.63119e-08
-2.11585e-06
-3.46289e-07
-2.03619e-06
-8.1722e-07
-1.93086e-06
-1.31468e-06
-1.79871e-06
-1.83617e-06
-1.63876e-06
-2.37863e-06
-1.45021e-06
-2.93812e-06
-1.23251e-06
-3.51044e-06
-9.85327e-07
-4.09044e-06
-7.08652e-07
-4.67302e-06
-4.0271e-07
-5.25175e-06
-6.82017e-08
-5.8209e-06
2.94078e-07
-6.37285e-06
6.82587e-07
-6.90129e-06
1.09595e-06
-7.39825e-06
1.53171e-06
-7.85585e-06
1.98793e-06
-8.26789e-06
2.46111e-06
-8.626e-06
2.94931e-06
-8.92279e-06
3.44656e-06
-9.16368e-06
3.95282e-06
-9.31437e-06
4.45794e-06
-9.4193e-06
4.96717e-06
-9.38986e-06
5.46123e-06
-9.36303e-06
5.95921e-06
-9.11271e-06
6.42034e-06
-9.0025e-06
6.89779e-06
-8.4707e-06
7.30059e-06
-8.41684e-06
7.76203e-06
-7.56262e-06
8.08141e-06
-7.92359e-06
8.55962e-06
-7.53596e-06
-1.01468e-05
9.61996e-06
5.60655e-05
8.73564e-06
4.6144e-05
6.81372e-06
3.60522e-05
4.39128e-06
2.63705e-05
2.02679e-06
1.45746e-05
5.59621e-07
7.54239e-06
-1.44405e-07
2.84513e-06
-4.04267e-07
2.29156e-06
-5.16628e-07
2.0025e-06
-6.31758e-07
2.30794e-06
-7.31188e-07
2.49268e-06
-8.4027e-07
2.68756e-06
-9.47377e-07
2.85693e-06
-1.05945e-06
2.96556e-06
-1.17133e-06
3.04389e-06
-1.284e-06
3.06582e-06
-1.39448e-06
3.05311e-06
-1.50191e-06
2.99476e-06
-1.60422e-06
2.90113e-06
-1.70004e-06
2.76867e-06
-1.78761e-06
2.60226e-06
-1.86531e-06
2.40176e-06
-1.93131e-06
2.16924e-06
-1.98399e-06
1.90283e-06
-2.02174e-06
1.60167e-06
-2.04295e-06
1.26554e-06
-2.04609e-06
8.9556e-07
-2.02965e-06
4.93022e-07
-1.99217e-06
5.88314e-08
-1.9322e-06
-4.06258e-07
-1.84838e-06
-9.01041e-07
-1.73947e-06
-1.42359e-06
-1.60435e-06
-1.97129e-06
-1.4421e-06
-2.54088e-06
-1.25194e-06
-3.12828e-06
-1.03334e-06
-3.72903e-06
-7.86012e-07
-4.33778e-06
-5.09956e-07
-4.94908e-06
-2.05408e-07
-5.5563e-06
1.26932e-07
-6.15324e-06
4.86263e-07
-6.73219e-06
8.71074e-07
-7.2861e-06
1.27998e-06
-7.80715e-06
1.71058e-06
-8.28645e-06
2.16094e-06
-8.71825e-06
2.62763e-06
-9.09269e-06
3.10871e-06
-9.40387e-06
3.59837e-06
-9.65334e-06
4.09648e-06
-9.81248e-06
4.59321e-06
-9.91603e-06
5.09359e-06
-9.89024e-06
5.57887e-06
-9.8483e-06
6.06765e-06
-9.6015e-06
6.5201e-06
-9.45494e-06
6.98833e-06
-8.93894e-06
7.38295e-06
-8.81145e-06
7.835e-06
-8.01467e-06
8.14606e-06
-8.23465e-06
8.60963e-06
-7.99953e-06
-1.03058e-05
9.72665e-06
5.63389e-05
9.01825e-06
4.68524e-05
7.33584e-06
3.77346e-05
5.03812e-06
2.86682e-05
2.62005e-06
1.69927e-05
9.55646e-07
9.2068e-06
5.24117e-08
3.74837e-06
-3.03118e-07
2.64709e-06
-4.42598e-07
2.14198e-06
-5.63962e-07
2.42931e-06
-6.62821e-07
2.59154e-06
-7.68757e-07
2.7935e-06
-8.70903e-07
2.95908e-06
-9.77092e-07
3.07175e-06
-1.08238e-06
3.14918e-06
-1.18806e-06
3.1715e-06
-1.29129e-06
3.15633e-06
-1.39132e-06
3.0948e-06
-1.48616e-06
2.99596e-06
-1.57449e-06
2.857e-06
-1.65459e-06
2.68236e-06
-1.7249e-06
2.47207e-06
-1.78368e-06
2.22801e-06
-1.82932e-06
1.94848e-06
-1.86029e-06
1.63264e-06
-1.87505e-06
1.2803e-06
-1.87208e-06
8.92595e-07
-1.84995e-06
4.7089e-07
-1.80722e-06
1.61039e-08
-1.7425e-06
-4.70981e-07
-1.65447e-06
-9.89074e-07
-1.54193e-06
-1.53613e-06
-1.40383e-06
-2.10939e-06
-1.23927e-06
-2.70545e-06
-1.04751e-06
-3.32004e-06
-8.28072e-07
-3.94848e-06
-5.8066e-07
-4.58519e-06
-3.05315e-07
-5.22442e-06
-2.27866e-09
-5.85933e-06
3.27749e-07
-6.48326e-06
6.83961e-07
-7.0884e-06
1.06487e-06
-7.66701e-06
1.46909e-06
-8.21137e-06
1.89427e-06
-8.71164e-06
2.3385e-06
-9.16248e-06
2.7984e-06
-9.55259e-06
3.27203e-06
-9.8775e-06
3.75375e-06
-1.01351e-05
4.24336e-06
-1.03021e-05
4.73133e-06
-1.0404e-05
5.2225e-06
-1.03814e-05
5.69863e-06
-1.03244e-05
6.17785e-06
-1.00807e-05
6.62126e-06
-9.89835e-06
7.07992e-06
-9.3976e-06
7.46602e-06
-9.19756e-06
7.90831e-06
-8.45695e-06
8.21076e-06
-8.5371e-06
8.6596e-06
-8.44837e-06
-1.04459e-05
9.82003e-06
5.65188e-05
9.26786e-06
4.74046e-05
7.81892e-06
3.91836e-05
5.67594e-06
3.08112e-05
3.24851e-06
1.94201e-05
1.41369e-06
1.10416e-05
2.99735e-07
4.86232e-06
-1.69511e-07
3.11633e-06
-3.53012e-07
2.32548e-06
-4.85904e-07
2.5622e-06
-5.86533e-07
2.69217e-06
-6.90499e-07
2.89746e-06
-7.88353e-07
3.05693e-06
-8.89053e-07
3.17245e-06
-9.87981e-07
3.2481e-06
-1.08681e-06
3.27032e-06
-1.18283e-06
3.25236e-06
-1.27547e-06
3.18744e-06
-1.36278e-06
3.08328e-06
-1.44356e-06
2.93778e-06
-1.51613e-06
2.75493e-06
-1.57898e-06
2.53492e-06
-1.63042e-06
2.27945e-06
-1.66894e-06
1.987e-06
-1.69305e-06
1.65674e-06
-1.70125e-06
1.2885e-06
-1.6921e-06
8.83443e-07
-1.66419e-06
4.42985e-07
-1.61615e-06
-3.19404e-08
-1.54661e-06
-5.40516e-07
-1.45432e-06
-1.08136e-06
-1.33814e-06
-1.65231e-06
-1.19704e-06
-2.25049e-06
-1.03018e-06
-2.87231e-06
-8.36854e-07
-3.51336e-06
-6.16613e-07
-4.16872e-06
-3.69196e-07
-4.83261e-06
-9.46584e-08