/*--------------------------------*- C++ -*----------------------------------*\
| =========                 |                                                 |
| \\      /  F ield         | OpenFOAM: The Open Source CFD Toolbox           |
|  \\    /   O peration     | Version:  2.4.0                                 |
|   \\  /    A nd           | Web:      www.OpenFOAM.org                      |
|    \\/     M anipulation  |                                                 |
\*---------------------------------------------------------------------------*/
FoamFile
{
    version     2.0;
    format      ascii;
    class       volScalarField;
    location    "4.7";
    object      k;
}
// * * * * * * * * * * * * * * * * * * * * * * * * * * * * * * * * * * * * * //

dimensions      [0 2 -2 0 0 0 0];

internalField   nonuniform List<scalar> 
6000
(
0.0149532
0.00358688
0.000534058
0.000603002
0.000526336
0.000576472
0.000568715
0.000595164
0.00061481
0.000691944
0.000788522
0.000915788
0.00101688
0.00106882
0.00107021
0.0010176
0.000968445
0.00105307
0.00147177
0.00192585
0.00225411
0.0025659
0.00286337
0.00314668
0.00342066
0.00368843
0.00394945
0.00420514
0.00445598
0.00470128
0.00494036
0.00517302
0.00539795
0.00561464
0.00582179
0.00601761
0.00620319
0.00637578
0.00653405
0.0066774
0.00680615
0.00691451
0.00701636
0.00718488
0.00742986
0.00768698
0.0079283
0.00820687
0.00845015
0.00879752
0.0090158
0.00952132
0.00971373
0.010443
0.0105818
0.0117821
0.0117875
0.0138403
0.0137932
0.0184206
0.0113611
0.00497707
0.000850839
0.000445336
0.000595786
0.000668239
0.000722639
0.000773755
0.000839067
0.000974988
0.00116227
0.0014134
0.00164795
0.00177944
0.00182944
0.00179476
0.00171329
0.00183312
0.00260599
0.00354515
0.00421099
0.00482902
0.00542132
0.00598943
0.00654188
0.00708366
0.00761703
0.00814465
0.00866772
0.00918415
0.00969572
0.0102024
0.0107022
0.0111952
0.0116799
0.0121545
0.0126175
0.0130663
0.0134979
0.0139115
0.0143058
0.0146747
0.0150333
0.0153661
0.0157216
0.0160196
0.0163558
0.016598
0.016944
0.0171688
0.0174908
0.017807
0.0181106
0.0185124
0.0188419
0.0194834
0.0197847
0.0210097
0.0213959
0.0246191
0.0115461
0.00596116
0.00171241
0.000627041
0.000783847
0.000864381
0.00093194
0.000991119
0.00107643
0.00124971
0.00148992
0.00179626
0.00208767
0.00225288
0.00231232
0.00228113
0.00221496
0.00241868
0.00337741
0.00452343
0.00536274
0.00614269
0.00688696
0.0076016
0.00829515
0.00897445
0.00964197
0.0103012
0.0109535
0.0115987
0.0122368
0.0128679
0.013491
0.0141053
0.0147094
0.015301
0.0158782
0.0164378
0.0169774
0.0174941
0.0179877
0.0184479
0.0188958
0.0193008
0.0197257
0.0200728
0.0204738
0.0207435
0.0211562
0.0213856
0.0217802
0.0220921
0.0224726
0.0228636
0.0232959
0.0239007
0.0243738
0.0255178
0.0261746
0.0296326
0.011629
0.00680942
0.00267564
0.000983552
0.00098257
0.00104945
0.00111713
0.001178
0.00127291
0.00146997
0.00174493
0.00208817
0.0024139
0.0026052
0.00267372
0.0026514
0.0026045
0.00287393
0.00394661
0.00522119
0.00618404
0.00707804
0.0079289
0.00874598
0.00953788
0.0103125
0.0110726
0.0118221
0.0125624
0.0132942
0.0140171
0.0147312
0.0154359
0.01613
0.0168122
0.0174798
0.0181311
0.0187621
0.0193712
0.0199531
0.02051
0.0210275
0.0215309
0.0219822
0.0224518
0.022832
0.0232737
0.0235634
0.0240173
0.0242508
0.0246969
0.0249998
0.0254424
0.0258208
0.0263426
0.0269127
0.0275511
0.0286155
0.0295171
0.0331045
0.0117505
0.007344
0.00348362
0.00145043
0.00121335
0.00123638
0.00129446
0.00135253
0.00145075
0.00166329
0.00196357
0.00233531
0.00268557
0.00290133
0.00298154
0.00297249
0.00294626
0.00326728
0.00441482
0.00578113
0.00684433
0.00783032
0.00876709
0.00966652
0.0105373
0.0113882
0.012222
0.013043
0.0138528
0.0146526
0.0154418
0.0162207
0.0169887
0.0177447
0.0184873
0.0192138
0.0199223
0.0206083
0.0212707
0.0219027
0.0225079
0.0230692
0.0236143
0.0241007
0.0246028
0.0250081
0.0254777
0.0257828
0.0262632
0.0264991
0.0269827
0.0272729
0.0277645
0.0281275
0.0287228
0.0292574
0.0300398
0.0310273
0.032134
0.0357795
0.0118283
0.00764505
0.00414189
0.00198483
0.00149325
0.00143898
0.00147551
0.0015258
0.00162207
0.00184354
0.00216259
0.00255715
0.00292714
0.00316699
0.00326216
0.00326936
0.00326463
0.00362566
0.00482173
0.0062571
0.00740646
0.00847153
0.00948227
0.0104525
0.011391
0.0123071
0.0132037
0.0140856
0.0149543
0.0158114
0.0166565
0.0174897
0.0183108
0.0191187
0.0199118
0.0206875
0.0214438
0.0221759
0.0228827
0.0235566
0.0242018
0.0247997
0.0253787
0.0258942
0.0264216
0.0268474
0.0273369
0.0276549
0.0281523
0.0283903
0.0289007
0.0291777
0.0297079
0.0300553
0.0307096
0.0312127
0.0321168
0.0330352
0.0343163
0.037971
0.0118649
0.0077906
0.00465831
0.00252466
0.00183588
0.00166759
0.00166839
0.00170452
0.0017939
0.00201832
0.0023507
0.00276375
0.00315065
0.00341447
0.00352819
0.00355373
0.00357126
0.00396222
0.00518719
0.00667531
0.00790054
0.00903594
0.0101127
0.011146
0.012145
0.013119
0.0140714
0.0150071
0.0159277
0.0168352
0.0177293
0.0186101
0.0194777
0.0203307
0.021168
0.0219867
0.0227847
0.0235571
0.0243028
0.0250132
0.0256931
0.0263229
0.0269309
0.0274714
0.0280196
0.0284628
0.0289669
0.0292961
0.0298039
0.030044
0.0305729
0.0308376
0.0313978
0.0317309
0.0324317
0.0329093
0.033914
0.0347737
0.0362045
0.0398328
0.0118804
0.00781779
0.00504344
0.00303069
0.00223629
0.00193119
0.00187959
0.00189366
0.00197106
0.00219255
0.0025333
0.00296114
0.00336313
0.00365066
0.0037862
0.00383251
0.00387238
0.00428464
0.00552293
0.00705085
0.00834354
0.00954274
0.0106798
0.0117707
0.0128248
0.0138516
0.0148547
0.0158391
0.0168067
0.0177596
0.0186977
0.0196213
0.0205305
0.0214241
0.0223009
0.0231581
0.0239935
0.0248021
0.0255825
0.0263258
0.0270368
0.027695
0.0283286
0.0288914
0.029457
0.0299155
0.0304304
0.0307696
0.0312829
0.0315252
0.032066
0.0323196
0.0329026
0.033223
0.0339596
0.0344181
0.0355046
0.0363168
0.0378765
0.0414504
0.011887
0.00779847
0.00531706
0.00348245
0.00266967
0.00223789
0.00211412
0.00209741
0.0021572
0.00236998
0.00271423
0.00315344
0.00356922
0.00388024
0.0040404
0.00410936
0.00417167
0.00459796
0.00583675
0.00739347
0.00874622
0.0100039
0.0111967
0.0123409
0.0134461
0.0145216
0.0155716
0.0166009
0.0176117
0.0186062
0.0195845
0.0205472
0.0214944
0.0224249
0.0233378
0.02423
0.0250996
0.0259411
0.0267533
0.0275265
0.0282657
0.0289498
0.0296064
0.0301893
0.0307699
0.031242
0.031765
0.0321129
0.0326282
0.0328726
0.03342
0.0336641
0.0342636
0.034573
0.0353363
0.0357819
0.0369333
0.0377091
0.0393801
0.0428758
0.0118912
0.00774805
0.00549569
0.00386746
0.00310634
0.00258963
0.00237735
0.00231945
0.00235538
0.00255372
0.00289648
0.00334373
0.0037723
0.00410625
0.00429347
0.00438674
0.00447156
0.00490569
0.00613432
0.00771006
0.00911597
0.0104275
0.0116722
0.0128662
0.0140192
0.0151405
0.0162342
0.0173053
0.0183562
0.0193893
0.0204049
0.0214036
0.0223858
0.0233504
0.0242964
0.0252209
0.0261219
0.0269937
0.0278351
0.028636
0.0294011
0.0301091
0.0307865
0.0313878
0.0319817
0.0324659
0.0329948
0.0333504
0.0338649
0.0341113
0.034661
0.034897
0.0355076
0.0358077
0.0365898
0.0370277
0.0382297
0.0389794
0.0407455
0.044144
0.0118987
0.00766922
0.00559748
0.00417946
0.00352303
0.00297971
0.00267371
0.0025631
0.0025684
0.00274657
0.00308265
0.00353452
0.00397491
0.00433092
0.00454716
0.00466642
0.00477373
0.00521052
0.00642003
0.00800582
0.00945824
0.0108193
0.0121126
0.0133535
0.0145516
0.0157159
0.0168508
0.0179611
0.0190496
0.0201187
0.0211691
0.0222013
0.0232159
0.024212
0.0251887
0.0261431
0.0270732
0.0279732
0.0288418
0.0296683
0.0304574
0.0311876
0.0318841
0.0325024
0.0331079
0.0336031
0.0341362
0.0344985
0.0350103
0.0352584
0.0358069
0.0360359
0.0366527
0.0369452
0.0377392
0.0381728
0.0394152
0.0401465
0.0419919
0.0452818
0.0119104
0.0075852
0.00562173
0.00441476
0.00390114
0.00339429
0.00300518
0.00283169
0.00279904
0.00295119
0.00327517
0.00372796
0.00417878
0.00455628
0.00480272
0.00494965
0.0050794
0.00551462
0.00669742
0.00828495
0.00977731
0.0111839
0.0125227
0.0138078
0.0150485
0.0162536
0.0174274
0.0185749
0.0196987
0.0208017
0.0218846
0.0229481
0.0239929
0.0250183
0.0260235
0.0270057
0.0279629
0.028889
0.0297828
0.0306333
0.0314446
0.0321955
0.0329097
0.0335436
0.0341596
0.0346647
0.0352007
0.0355688
0.0360762
0.0363256
0.0368701
0.0370934
0.037712
0.0379978
0.0387987
0.0392301
0.0405047
0.0412225
0.0431345
0.0463083
0.0119261
0.00750421
0.00560643
0.00457637
0.00422579
0.00381508
0.00337021
0.00312866
0.0030498
0.0031701
0.00347639
0.00392605
0.0043855
0.00478386
0.00506118
0.00523733
0.00538954
0.00581979
0.00696947
0.00855092
0.0100767
0.0115247
0.0129061
0.014233
0.0155142
0.0167579
0.0179687
0.0191513
0.0203086
0.0214435
0.0225569
0.0236497
0.0247227
0.0257755
0.0268072
0.0278152
0.0287974
0.029748
0.0306652
0.031538
0.0323702
0.0331404
0.0338709
0.0345193
0.0351448
0.0356588
0.0361967
0.0365697
0.0370714
0.0373216
0.0378599
0.0380781
0.0386951
0.0389746
0.0397786
0.0402089
0.0415091
0.0422165
0.0441844
0.0472375
0.011945
0.00743097
0.00556323
0.00467339
0.00448585
0.00422152
0.00376364
0.00345616
0.00332318
0.0034057
0.0036887
0.00413073
0.00459654
0.00501478
0.00532342
0.00553016
0.00570494
0.00612754
0.00723876
0.00880677
0.0103594
0.0118447
0.0132658
0.0146322
0.0159518
0.0172323
0.0184783
0.0196943
0.0208833
0.0220482
0.0231903
0.0243106
0.02541
0.0264881
0.0275444
0.0285764
0.029582
0.0305552
0.0314943
0.0323879
0.0332394
0.0340276
0.0347732
0.0354352
0.0360692
0.0365912
0.0371303
0.0375073
0.0380025
0.0382529
0.038783
0.0389965
0.039609
0.0398826
0.0406867
0.0411163
0.0424366
0.0431357
0.04515
0.0480804
0.011966
0.00737029
0.00548813
0.00469815
0.00467053
0.00459201
0.00417695
0.00381429
0.00362148
0.00366038
0.00391449
0.00434395
0.00481335
0.0052501
0.00559017
0.00582865
0.00602626
0.00643922
0.00750763
0.00905522
0.0106281
0.0121466
0.0136045
0.015008
0.016364
0.0176796
0.018959
0.0202067
0.0214257
0.0226191
0.0237882
0.0249342
0.0260581
0.0271598
0.028239
0.0292931
0.0303203
0.0313145
0.0322739
0.0331868
0.0340564
0.0348612
0.035621
0.0362954
0.0369373
0.0374665
0.0380059
0.0383861
0.0388741
0.0391242
0.0396448
0.0398537
0.0404593
0.040727
0.0415288
0.0419578
0.0432935
0.0439856
0.0460379
0.0488453
0.0119878
0.00732462
0.00539961
0.00468673
0.00477619
0.00491099
0.00459165
0.00420059
0.0039466
0.00393651
0.00415611
0.0045677
0.00503736
0.00549082
0.00586199
0.00613321
0.00635406
0.00675606
0.00777815
0.00929872
0.0108852
0.0124325
0.0139242
0.0153625
0.0167531
0.018102
0.0194132
0.0206911
0.0219386
0.0231588
0.0243533
0.0255232
0.02667
0.0277936
0.0288939
0.0299684
0.0310155
0.032029
0.033007
0.0339379
0.0348242
0.0356446
0.0364174
0.0371033
0.0377522
0.0382879
0.0388272
0.0392098
0.0396901
0.0399392
0.0404491
0.0406535
0.0412501
0.0415121
0.0423094
0.0427377
0.0440847
0.0447705
0.0468534
0.0495392
0.0120093
0.0072941
0.00530328
0.00465314
0.00480305
0.0051683
0.00498991
0.00460983
0.00429979
0.00423625
0.00441587
0.00480403
0.00527006
0.00573794
0.00613941
0.00644416
0.00668883
0.0070792
0.00805223
0.00953959
0.0111331
0.0127047
0.014227
0.0156979
0.017121
0.0185015
0.019843
0.0211495
0.022424
0.0236695
0.0248877
0.0260801
0.027248
0.0283917
0.0295113
0.0306045
0.0316697
0.032701
0.0336961
0.0346435
0.0355452
0.0363799
0.0371648
0.0378612
0.0385166
0.039058
0.0395966
0.0399809
0.0404532
0.0407006
0.041199
0.0413989
0.0419847
0.042241
0.0430322
0.0434594
0.044814
0.0454942
0.0476008
0.0501675
0.0120296
0.00727949
0.00520687
0.00458515
0.00478322
0.00535041
0.00535815
0.00503409
0.00468038
0.00456127
0.00469597
0.00505504
0.005513
0.00599247
0.00642291
0.00676175
0.00703096
0.00740975
0.0083316
0.00977999
0.0113738
0.012965
0.0145148
0.0160157
0.0174694
0.0188798
0.02025
0.0215837
0.0228837
0.024153
0.0253934
0.0266065
0.0277939
0.0289561
0.0300932
0.0312033
0.032285
0.0333323
0.034343
0.0353054
0.0362212
0.037069
0.0378649
0.0385711
0.0392322
0.0397787
0.0403163
0.0407017
0.0411656
0.0414109
0.041897
0.0420922
0.0426657
0.0429163
0.0436999
0.0441258
0.0454847
0.0461594
0.0482837
0.0507348
0.0120471
0.00728208
0.00511675
0.00449628
0.00472604
0.00544255
0.00569362
0.00545839
0.00508577
0.00491269
0.00499849
0.0053228
0.00576777
0.00625547
0.00671297
0.00708617
0.00738076
0.00774872
0.00861791
0.010022
0.0116096
0.0132155
0.0147893
0.0163177
0.0178
0.0192385
0.0206359
0.0219953
0.0233193
0.0246108
0.025872
0.0271042
0.0283095
0.0294883
0.0306412
0.0317665
0.0328629
0.0339245
0.0349492
0.0359251
0.0368536
0.0377134
0.0385194
0.0392344
0.0399006
0.0404515
0.0409877
0.0413735
0.0418289
0.0420715
0.0425449
0.0427353
0.0432953
0.0435402
0.0443149
0.044739
0.0460994
0.0467688
0.048905
0.0512449
0.012062
0.00729227
0.00503699
0.00439284
0.00462724
0.0054365
0.0059798
0.00587076
0.00551171
0.00529045
0.00532519
0.0056093
0.00603602
0.00652804
0.00701014
0.00741759
0.00773846
0.00809702
0.0089127
0.0102676
0.0118423
0.0134579
0.0150521
0.0166053
0.0181141
0.0195791
0.021002
0.0223855
0.0237321
0.0250444
0.0263248
0.0275745
0.0287959
0.0299897
0.0311567
0.0322952
0.0334046
0.0344787
0.0355158
0.0365038
0.0374436
0.0383141
0.0391291
0.0398521
0.0405229
0.0410775
0.0416121
0.0419977
0.0424445
0.0426839
0.0431442
0.0433296
0.0438752
0.0441143
0.0448791
0.0453009
0.0466602
0.0473242
0.0494675
0.0517011
0.0120737
0.00731423
0.00496973
0.0042796
0.00450247
0.0053738
0.00620021
0.00626265
0.00594914
0.00569305
0.00567728
0.00591637
0.00631936
0.00681134
0.00731497
0.0077561
0.00810418
0.00845543
0.00921744
0.0105188
0.0120742
0.0136942
0.015305
0.0168802
0.0184132
0.0199027
0.0213496
0.0227557
0.0241234
0.025455
0.026753
0.0280187
0.0292545
0.0304614
0.0316406
0.0327907
0.0339111
0.0349961
0.0360438
0.0370422
0.037992
0.038872
0.039695
0.040425
0.0410998
0.0416577
0.0421902
0.0425752
0.0430134
0.0432491
0.0436961
0.0438763
0.0444066
0.0446401
0.045394
0.045813
0.0471688
0.0478276
0.0499733
0.0521061
0.0120818
0.00734531
0.00491968
0.00416183
0.00436264
0.00523062
0.00633472
0.00662659
0.00638605
0.00611759
0.00605466
0.00624581
0.00661939
0.00710654
0.00762807
0.00810178
0.00847799
0.0088246
0.00953349
0.0107774
0.012307
0.0139261
0.0155494
0.0171437
0.0186986
0.0202108
0.0216799
0.0231071
0.0244943
0.0258437
0.0271577
0.0284377
0.0296863
0.0309046
0.0320941
0.0332538
0.0343834
0.0354773
0.0365339
0.0375412
0.0384995
0.0393876
0.0402176
0.0409538
0.0416319
0.0421925
0.0427228
0.0431067
0.0435363
0.043768
0.0442016
0.0443765
0.0448909
0.0451186
0.0458608
0.0462766
0.047627
0.0482805
0.0504245
0.0524625
0.0120869
0.0073826
0.00488465
0.00404304
0.00421432
0.00501898
0.0063659
0.00694624
0.00681172
0.00655941
0.00645607
0.00659895
0.0069375
0.0074148
0.00795008
0.00845461
0.00885987
0.00920499
0.00986208
0.0110453
0.0125429
0.0141555
0.0157872
0.0173973
0.0189717
0.0205044
0.0219939
0.0234406
0.0248458
0.0262115
0.0275399
0.0288326
0.0300921
0.03132
0.032518
0.0336853
0.0348222
0.0359232
0.0369869
0.0380012
0.0389666
0.0398616
0.0406975
0.0414389
0.0421197
0.0426824
0.0432103
0.0435927
0.0440138
0.0442411
0.0446614
0.0448307
0.0453288
0.0455508
0.0462806
0.0466929
0.0480359
0.0486841
0.0508227
0.0527722
0.0120874
0.00742317
0.00487055
0.00392722
0.00406303
0.00476838
0.00630606
0.00720418
0.00721501
0.00701152
0.00687906
0.00697618
0.00727487
0.00773721
0.00828164
0.00881457
0.00924972
0.00959683
0.0102043
0.0113241
0.0127837
0.0143841
0.0160197
0.0176424
0.0192335
0.0207847
0.0222929
0.0237573
0.025179
0.0265593
0.0279005
0.0292041
0.0304729
0.0317085
0.032913
0.034086
0.0352281
0.0363342
0.0374031
0.0384228
0.0393937
0.0402941
0.0411347
0.0418805
0.0425635
0.0431277
0.043653
0.0440336
0.0444463
0.0446689
0.045076
0.0452397
0.0457212
0.0459375
0.0466543
0.0470628
0.0483968
0.0490396
0.0511697
0.0530372
0.0120862
0.00746402
0.00487518
0.0038181
0.00391374
0.00451956
0.00613462
0.0073776
0.00759052
0.00746081
0.00731966
0.00737645
0.00763239
0.00807472
0.00862335
0.00918165
0.00964727
0.0100001
0.0105611
0.0116156
0.0130314
0.0146139
0.0162488
0.0178804
0.0194855
0.0210529
0.0225777
0.0240582
0.0254946
0.026888
0.0282404
0.0295532
0.0308294
0.0320708
0.0332798
0.0344565
0.0356017
0.0367108
0.037783
0.0388063
0.039781
0.0406855
0.0415297
0.0422789
0.0429633
0.0435286
0.0440511
0.0444296
0.044834
0.0450518
0.0454459
0.0456039
0.0460686
0.0462794
0.0469828
0.047387
0.0487106
0.0493481
0.0514668
0.053259
0.0120831
0.00750408
0.00489056
0.00371772
0.0037688
0.00427544
0.00584219
0.00744695
0.0079206
0.00789687
0.00777226
0.00779714
0.00801043
0.00842799
0.00897574
0.00955579
0.0100521
0.0104147
0.0109331
0.0119212
0.0132878
0.0148465
0.0164759
0.0181127
0.0197288
0.0213099
0.0228494
0.0243441
0.0257936
0.0271984
0.0285602
0.0298805
0.0311622
0.0324075
0.033619
0.0347972
0.0359435
0.0370536
0.038127
0.039152
0.0401288
0.0410358
0.0418824
0.042634
0.0433193
0.0438852
0.0444046
0.0447809
0.0451772
0.0453901
0.0457714
0.0459237
0.0463717
0.046577
0.0472667
0.0476664
0.0489783
0.0496106
0.0517154
0.0534391
0.0120775
0.0075414
0.00492275
0.00362686
0.00363616
0.00404184
0.00546717
0.00740885
0.0081839
0.00831188
0.00822673
0.00823395
0.00840849
0.00879726
0.00933917
0.00993691
0.0104635
0.0108399
0.0113207
0.0122422
0.0135547
0.0150839
0.0167027
0.0183406
0.0199647
0.021557
0.0231089
0.0246159
0.0260767
0.0274911
0.0288606
0.0301866
0.031472
0.0327191
0.0339311
0.0351086
0.0362538
0.0373626
0.0384352
0.03946
0.0404371
0.0413452
0.0421929
0.042946
0.0436314
0.0441974
0.0447137
0.0450874
0.0454759
0.0456838
0.0460527
0.0461994
0.0466308
0.0468308
0.0475065
0.0479016
0.0492007
0.0498279
0.0519166
0.0535788
0.0120708
0.00757363
0.00497062
0.00354979
0.00350204
0.00382454
0.0050389
0.00726245
0.00835963
0.00869054
0.0086734
0.00868101
0.0088248
0.00918222
0.00971369
0.0103248
0.0108809
0.0112749
0.0117239
0.0125797
0.0138337
0.0153276
0.0169307
0.0185657
0.0201943
0.0217951
0.0233571
0.0248744
0.0263446
0.0277668
0.0291423
0.0304721
0.0317593
0.0330062
0.0342164
0.0353912
0.036533
0.0376383
0.0387079
0.0397304
0.0407061
0.0416135
0.0424612
0.0432146
0.0438995
0.0444652
0.0449781
0.0453493
0.0457301
0.0459332
0.0462901
0.0464312
0.0468463
0.0470411
0.0477027
0.048093
0.0493785
0.0500007
0.0520715
0.0536794
0.0120636
0.00760015
0.00502697
0.00349842
0.00336836
0.00362307
0.00463033
0.00695574
0.00842573
0.00901349
0.00910147
0.00913117
0.0092555
0.00958203
0.010099
0.0107191
0.0113032
0.0117187
0.0121423
0.0129345
0.0141263
0.0155795
0.0171615
0.0187891
0.0204187
0.0220251
0.0235949
0.0251204
0.0265979
0.0280261
0.0294057
0.0307375
0.0320244
0.0332691
0.0344755
0.0356451
0.0367813
0.0378808
0.0389452
0.0399632
0.0409356
0.0418409
0.042687
0.0434398
0.0441235
0.0446883
0.0451979
0.0455664
0.0459399
0.0461382
0.0464836
0.0466193
0.0470186
0.0472085
0.047856
0.0482414
0.0495125
0.0501299
0.0521813
0.0537416
0.0120566
0.00761965
0.00509194
0.00346131
0.00323575
0.00343306
0.00426312
0.00651427
0.00837937
0.00926185
0.00949693
0.00957591
0.00969455
0.0099947
0.0104941
0.011119
0.0117293
0.0121696
0.012575
0.0133069
0.0144338
0.0158408
0.0173966
0.0190123
0.0206392
0.0222481
0.023823
0.0253544
0.0268374
0.0282696
0.0296513
0.0309831
0.0322678
0.0335082
0.0347085
0.0358707
0.0369988
0.0380903
0.039147
0.0401586
0.0411257
0.0420269
0.0428702
0.0436213
0.0443031
0.0448667
0.0453727
0.0457385
0.0461051
0.0462989
0.0466333
0.0467638
0.0471478
0.047333
0.0479665
0.048347
0.0496031
0.0502161
0.0522466
0.0537665
0.0120504
0.00763237
0.00515797
0.00346196
0.0031131
0.00325624
0.00393094
0.00598003
0.0082162
0.00941616
0.00984329
0.0100044
0.0101348
0.0104167
0.0108975
0.0115235
0.0121577
0.012626
0.0130205
0.0136968
0.0147571
0.0161131
0.0176373
0.0192364
0.0208566
0.0224649
0.0240422
0.0255771
0.0270633
0.0284975
0.0298795
0.0312093
0.0324898
0.0337236
0.0349156
0.0360681
0.0371857
0.0382666
0.0393135
0.0403163
0.041276
0.0421716
0.0430105
0.0437589
0.044438
0.0449999
0.0455023
0.0458656
0.0462255
0.0464152
0.0467392
0.0468648
0.0472342
0.047415
0.0480346
0.0484101
0.0496507
0.0502596
0.0522685
0.0537554
0.0120456
0.0076383
0.00522287
0.00347415
0.00300075
0.00309363
0.00363033
0.00539463
0.00790346
0.00945543
0.0101231
0.0104029
0.010568
0.0108426
0.0113067
0.0119309
0.0125869
0.0130856
0.0134769
0.0141033
0.0150967
0.0163974
0.0178848
0.0194625
0.021072
0.0226762
0.024253
0.0257889
0.0272762
0.0287103
0.0300905
0.0314163
0.0326904
0.0339156
0.0350969
0.0362372
0.037342
0.0384098
0.0394444
0.0404361
0.0413865
0.0422746
0.0431077
0.0438521
0.0445278
0.0450876
0.0455863
0.0459471
0.0463008
0.0464867
0.0468008
0.046922
0.0472773
0.0474543
0.0480606
0.0484314
0.0496565
0.0502617
0.0522482
0.0537088
0.0120424
0.00763731
0.0052844
0.00350369
0.00290348
0.00294697
0.0033576
0.00478217
0.00745467
0.00938206
0.0103184
0.0107562
0.0109836
0.011266
0.0117181
0.012339
0.0130145
0.0135457
0.0139416
0.014525
0.0154527
0.0166944
0.0181401
0.0196916
0.0212862
0.0228827
0.024456
0.0259903
0.0274762
0.028908
0.0302843
0.031604
0.0328697
0.034084
0.0352523
0.0363782
0.0374675
0.0385198
0.0395395
0.0405179
0.0414564
0.0423349
0.0431604
0.0438997
0.0445712
0.0451287
0.0456238
0.0459823
0.0463306
0.0465133
0.0468186
0.0469359
0.0472785
0.047452
0.0480454
0.0484115
0.0496207
0.0502227
0.0521861
0.0536275
0.0120417
0.00763354
0.00533829
0.00355752
0.0028172
0.00282101
0.0031151
0.00423786
0.00684603
0.0091722
0.0104093
0.0110471
0.0113689
0.0116784
0.0121265
0.0127445
0.0134379
0.0140035
0.0144114
0.0149597
0.0158245
0.0170045
0.0184039
0.0199244
0.0214998
0.0230849
0.0246515
0.0261814
0.0276635
0.0290907
0.0304609
0.0317725
0.0330275
0.0342287
0.0353818
0.0364906
0.0375621
0.0385963
0.0395983
0.0405604
0.0414853
0.0423527
0.0431696
0.0439029
0.0445697
0.0451244
0.0456159
0.0459724
0.0463156
0.0464956
0.0467928
0.0469066
0.0472374
0.0474079
0.0479889
0.0483505
0.0495439
0.0501432
0.0520832
0.0535122
0.0120425
0.00762554
0.00538314
0.00362443
0.00275785
0.00270011
0.00290623
0.00377781
0.00612734
0.00880344
0.0103821
0.0112582
0.0117093
0.0120698
0.0125257
0.0131434
0.0138537
0.0144552
0.0148826
0.0154045
0.0162105
0.0173274
0.0186765
0.0201614
0.0217132
0.023283
0.0248396
0.0263622
0.0278379
0.0292582
0.0306202
0.0319213
0.0331636
0.0343494
0.0354849
0.0365743
0.0376253
0.0386382
0.0396204
0.0405646
0.0414737
0.042328
0.0431345
0.0438604
0.0445217
0.0450734
0.0455614
0.0459162
0.046255
0.046433
0.046723
0.046834
0.047154
0.0473221
0.0478913
0.0482488
0.0494265
0.0500237
0.0519401
0.0533634
0.0120447
0.00761542
0.00541572
0.00370385
0.00271643
0.00258324
0.00272153
0.00338678
0.00536039
0.00828661
0.0102346
0.0113712
0.011989
0.0124279
0.0129075
0.0135303
0.0142579
0.0148967
0.0153508
0.0158557
0.0166086
0.0176623
0.0189578
0.0204027
0.0219265
0.0234772
0.0250203
0.0265327
0.0279993
0.0294102
0.0307616
0.0320502
0.0332774
0.0344456
0.0355611
0.0366285
0.037656
0.038646
0.039606
0.0405295
0.0414205
0.0422597
0.0430542
0.0437716
0.0444267
0.0449752
0.0454598
0.0458133
0.0461484
0.0463252
0.0466091
0.0467179
0.0470285
0.0471947
0.0477531
0.0481067
0.0492691
0.0498646
0.0517576
0.0531819
0.0120491
0.00760459
0.00543737
0.00378587
0.00271751
0.00247894
0.00256099
0.00305384
0.00457978
0.00762536
0.00992573
0.0113669
0.0121906
0.012739
0.013262
0.0138987
0.0146453
0.0153233
0.0158107
0.0163086
0.0170155
0.0180077
0.0192468
0.0206478
0.0221395
0.023667
0.0251932
0.0266922
0.0281469
0.029546
0.0308845
0.0321582
0.0333683
0.0345166
0.0356096
0.0366524
0.0376548
0.038619
0.0395539
0.0404543
0.0413249
0.042147
0.0429279
0.0436358
0.044284
0.0448291
0.0453104
0.0456633
0.0459954
0.046172
0.0464508
0.0465583
0.046861
0.047026
0.0475744
0.0479246
0.049072
0.0496667
0.0515363
0.0529682
0.0120548
0.00759555
0.00544497
0.00386697
0.00273159
0.00238935
0.00242283
0.00276932
0.0039377
0.00678752
0.00945415
0.011248
0.0122967
0.0129876
0.0135776
0.0142403
0.0150097
0.0157294
0.0162566
0.0167578
0.0174269
0.0183609
0.0195423
0.0208959
0.0223515
0.023852
0.0253576
0.0268401
0.0282801
0.0296646
0.0309878
0.0322445
0.0334352
0.0345611
0.0356293
0.0366458
0.0376203
0.0385559
0.0394633
0.0403382
0.0411861
0.0419892
0.042755
0.0434523
0.044093
0.0446344
0.0451129
0.0454657
0.0457958
0.0459732
0.046248
0.0463552
0.0466516
0.046816
0.0473555
0.0477028
0.0488357
0.0494303
0.0512769
0.0527228
0.0120614
0.00758867
0.00544213
0.00394317
0.00276597
0.00231239
0.00231092
0.0025341
0.0034062
0.0058592
0.00882002
0.0109729
0.0122889
0.0131568
0.0138409
0.0145453
0.0153439
0.0161083
0.016682
0.0171969
0.0178377
0.0187183
0.0198418
0.0211454
0.0225612
0.0240309
0.0255124
0.0269751
0.0283975
0.0297649
0.0310705
0.0323078
0.0334766
0.0345781
0.0356197
0.0366071
0.0375512
0.0384559
0.0393331
0.0401801
0.0410031
0.0417853
0.0425345
0.04322
0.0438527
0.0443905
0.0448665
0.0452199
0.0455489
0.0457283
0.0460006
0.0461084
0.0464002
0.0465649
0.0470966
0.0474416
0.0485607
0.049156
0.0509801
0.0524463
0.0120681
0.00758705
0.00543357
0.00400966
0.00282464
0.00225743
0.00220257
0.00234227
0.00297382
0.00491285
0.00803172
0.0105317
0.0121646
0.0132294
0.0140367
0.0148024
0.0156392
0.0164527
0.0170793
0.0176186
0.0182416
0.0190751
0.0201422
0.0213939
0.0227667
0.024202
0.0256561
0.0270957
0.0284976
0.0298452
0.0311306
0.0323461
0.0334911
0.0345663
0.0355788
0.0365349
0.0374462
0.0383175
0.0391622
0.0399788
0.0407748
0.0415342
0.0422652
0.0429382
0.0435622
0.0440965
0.0445704
0.0449253
0.0452545
0.0454371
0.0457083
0.0458179
0.046107
0.0462727
0.046798
0.0471414
0.0482475
0.0488443
0.0506464
0.052139
0.0120745
0.00758893
0.00541623
0.00406311
0.0028985
0.00223312
0.00210425
0.00218246
0.00262299
0.00404513
0.00708555
0.00991794
0.0118832
0.0131909
0.0141487
0.0149985
0.0158854
0.0167539
0.0174403
0.0180146
0.0186313
0.0194254
0.0204391
0.0216382
0.0229655
0.0243632
0.0257863
0.0271998
0.0285783
0.0299034
0.0311661
0.0323577
0.033477
0.0345236
0.0355048
0.0364274
0.0373037
0.0381393
0.038949
0.0397331
0.0404999
0.0412347
0.0419461
0.0426055
0.0432207
0.0437515
0.044224
0.0445814
0.0449119
0.0450993
0.045371
0.0454835
0.0457719
0.0459396
0.04646
0.0468024
0.0478965
0.0484956
0.0502766
0.0518015
0.0120803
0.00759432
0.00539531
0.00409979
0.00297631
0.00223923
0.00202104
0.00205094
0.00233775
0.00336256
0.00600053
0.00912553
0.0114335
0.0130268
0.0141591
0.0151188
0.016071
0.017002
0.0177555
0.0183758
0.0189981
0.0197622
0.0207271
0.0218739
0.023154
0.0245112
0.0259003
0.0272846
0.0286369
0.0299367
0.0311746
0.0323403
0.0334317
0.0344476
0.0353956
0.0362826
0.0371217
0.0379193
0.0386919
0.0394412
0.0401768
0.0408854
0.0415759
0.042221
0.0428268
0.0433546
0.0438263
0.0441874
0.0445207
0.0447144
0.0449883
0.0451053
0.0453951
0.0455657
0.0460828
0.0464249
0.047508
0.0481105
0.0498711
0.0514342
0.0120847
0.00760531
0.00537249
0.00412382
0.00305698
0.00226105
0.00195382
0.00194954
0.00211577
0.00282563
0.00488214
0.00816299
0.0108054
0.0127009
0.0140601
0.0151471
0.0161826
0.017186
0.0180146
0.0186918
0.0193325
0.020077
0.0209992
0.0220956
0.0233277
0.0246423
0.0259947
0.0273469
0.02867
0.0299424
0.0311532
0.0322907
0.0333522
0.0343356
0.0352484
0.036098
0.036898
0.0376556
0.0383888
0.0391014
0.0398038
0.0404846
0.041153
0.0417831
0.0423795
0.0429046
0.0433765
0.0437426
0.0440802
0.044282
0.04456
0.044683
0.0449765
0.0451511
0.0456666
0.0460094
0.0470827
0.0476895
0.0494306
0.0510375
0.0120877
0.00762078
0.0053525
0.0041254
0.00313032
0.00230806
0.0019035
0.00185304
0.00194389
0.0024137
0.00387382
0.0070269
0.00998602
0.0122068
0.0138184
0.0150721
0.0162056
0.0172931
0.018206
0.0189513
0.0196237
0.0203603
0.0212475
0.0222968
0.023481
0.0247515
0.0260648
0.0273823
0.0286741
0.0299165
0.031098
0.0322054
0.0332352
0.0341844
0.0350604
0.0358707
0.0366298
0.0373455
0.0380375
0.0387115
0.0393791
0.0400306
0.0406757
0.0412904
0.0418774
0.0424004
0.0428736
0.0432462
0.0435899
0.0438018
0.0440858
0.0442166
0.0445161
0.0446959
0.0452116
0.045556
0.0466209
0.0472331
0.0489557
0.0506118
0.0120882
0.00763892
0.00533756
0.00411983
0.00319226
0.00237254
0.00189325
0.00177033
0.00180787
0.00209732
0.00310469
0.00575463
0.0089737
0.0115261
0.0134149
0.0148687
0.0161286
0.0173096
0.0183168
0.0191418
0.0198595
0.0206011
0.0214624
0.0224696
0.0236072
0.024833
0.0261054
0.0273864
0.0286444
0.0298547
0.0310049
0.0320803
0.0330768
0.0339903
0.0348278
0.0355975
0.0363142
0.0369864
0.0376354
0.0382691
0.0389003
0.0395214
0.0401424
0.0407412
0.041319
0.0418407
0.0423165
0.0426972
0.043049
0.0432733
0.0435653
0.043706
0.0440139
0.0442001
0.0447181
0.0450652
0.046123
0.0467418
0.0484469
0.0501574
0.0120874
0.00765935
0.00532731
0.00410563
0.00323857
0.00244388
0.00190336
0.00170491
0.00170858
0.00186522
0.00252411
0.00447728
0.00778321
0.0106448
0.012835
0.0145138
0.015928
0.0172241
0.0183328
0.0192497
0.0200269
0.0207872
0.0216331
0.0226045
0.0236983
0.0248796
0.0261103
0.027353
0.0285755
0.0297517
0.0308689
0.0319107
0.0328725
0.033749
0.0345469
0.0352746
0.0359475
0.0365749
0.0371794
0.0377716
0.038365
0.0389546
0.0395508
0.0401337
0.0407028
0.0412242
0.0417041
0.0420949
0.0424569
0.0426959
0.0429984
0.0431511
0.0434698
0.0436638
0.0441863
0.0445372
0.0455896
0.0462161
0.0479049
0.0496748
0.0120853
0.00767973
0.00532792
0.00408367
0.00326939
0.00251858
0.00193195
0.00165394
0.00161896
0.00169555
0.00209959
0.00341196
0.00641019
0.0095543
0.0120581
0.0139919
0.0155832
0.0170136
0.0182423
0.01926
0.0201112
0.0209049
0.0217474
0.022691
0.0237451
0.0248834
0.0260723
0.0272756
0.0284611
0.0296017
0.0306845
0.0316914
0.0326172
0.0334557
0.0342129
0.0348978
0.035526
0.0361075
0.0366664
0.0372159
0.0377705
0.0383279
0.0388988
0.0394659
0.0400268
0.0405493
0.041035
0.0414382
0.0418128
0.0420691
0.0423845
0.0425519
0.0428838
0.0430872
0.0436165
0.0439724
0.045021
0.0456565
0.0473303
0.0491642
0.0120813
0.00769918
0.00533271
0.00406005
0.00327861
0.00258587
0.00198534
0.00164125
0.00154444
0.00157039
0.00179395
0.00263374
0.00495518
0.00826272
0.0110689
0.0132811
0.0150775
0.0166598
0.0180227
0.0191599
0.020097
0.0209391
0.0217916
0.0227169
0.0237369
0.0248349
0.0259826
0.0271462
0.0282939
0.0293979
0.0304452
0.0314162
0.0323053
0.0331051
0.033821
0.0344623
0.0350452
0.0355801
0.0360926
0.0365987
0.0371137
0.0376384
0.0381838
0.0387357
0.0392894