/*--------------------------------*- C++ -*----------------------------------*\
| =========                 |                                                 |
| \\      /  F ield         | OpenFOAM: The Open Source CFD Toolbox           |
|  \\    /   O peration     | Version:  2.4.0                                 |
|   \\  /    A nd           | Web:      www.OpenFOAM.org                      |
|    \\/     M anipulation  |                                                 |
\*---------------------------------------------------------------------------*/
FoamFile
{
    version     2.0;
    format      ascii;
    class       volScalarField;
    location    "280";
    object      nut;
}
// * * * * * * * * * * * * * * * * * * * * * * * * * * * * * * * * * * * * * //

dimensions      [0 2 -1 0 0 0 0];

internalField   nonuniform List<scalar> 
6000
(
4.90129e-05
2.03385e-05
8.40504e-06
7.00158e-06
1.04739e-05
1.00444e-05
1.08294e-05
1.0594e-05
1.08308e-05
1.07358e-05
1.08757e-05
1.09327e-05
1.11474e-05
1.13782e-05
1.17211e-05
1.21053e-05
1.25602e-05
1.30487e-05
1.35764e-05
1.4126e-05
1.46986e-05
1.52878e-05
1.58929e-05
1.65081e-05
1.71223e-05
1.7711e-05
1.82488e-05
1.87142e-05
1.90914e-05
1.93713e-05
1.95518e-05
1.96333e-05
1.96165e-05
1.95009e-05
1.92824e-05
1.89522e-05
1.84945e-05
1.78884e-05
1.71094e-05
1.61298e-05
1.49325e-05
1.35136e-05
1.19408e-05
1.34778e-05
1.51314e-05
1.68494e-05
1.85848e-05
2.03681e-05
2.20421e-05
2.37477e-05
2.51541e-05
2.67244e-05
2.76536e-05
2.92343e-05
2.93581e-05
3.14728e-05
3.00705e-05
3.4026e-05
2.96361e-05
3.92438e-05
3.02149e-05
1.43817e-05
6.63663e-06
6.07859e-06
8.14985e-06
7.85388e-06
8.31528e-06
8.16201e-06
8.30556e-06
8.25801e-06
8.36434e-06
8.43727e-06
8.62032e-06
8.83116e-06
9.12337e-06
9.45568e-06
9.84241e-06
1.02625e-05
1.07181e-05
1.12e-05
1.17088e-05
1.22418e-05
1.27988e-05
1.33773e-05
1.39719e-05
1.45715e-05
1.51658e-05
1.57468e-05
1.63104e-05
1.68551e-05
1.73818e-05
1.78918e-05
1.83867e-05
1.88694e-05
1.93449e-05
1.9824e-05
2.03274e-05
2.08943e-05
2.15974e-05
2.25688e-05
2.40543e-05
2.64982e-05
3.03054e-05
2.81148e-05
2.46404e-05
2.21852e-05
2.06405e-05
1.97717e-05
1.93693e-05
1.931e-05
1.93872e-05
1.96846e-05
1.98415e-05
2.03455e-05
2.02803e-05
2.1129e-05
2.04262e-05
2.21915e-05
2.00599e-05
2.44353e-05
2.1511e-05
1.16509e-05
5.72818e-06
5.57204e-06
6.64655e-06
6.37299e-06
6.59404e-06
6.4766e-06
6.5563e-06
6.54268e-06
6.64128e-06
6.7482e-06
6.94666e-06
7.19249e-06
7.51329e-06
7.88756e-06
8.32144e-06
8.80575e-06
9.34208e-06
9.9288e-06
1.05683e-05
1.12626e-05
1.20151e-05
1.28296e-05
1.37097e-05
1.46597e-05
1.56848e-05
1.67923e-05
1.79907e-05
1.92878e-05
2.0689e-05
2.21949e-05
2.38109e-05
2.55467e-05
2.74254e-05
2.94945e-05
3.18428e-05
3.46235e-05
3.80954e-05
4.26923e-05
4.91364e-05
5.85826e-05
7.11832e-05
6.29942e-05
5.01983e-05
3.99892e-05
3.25161e-05
2.71437e-05
2.34347e-05
2.08169e-05
1.90416e-05
1.77849e-05
1.69166e-05
1.63461e-05
1.58455e-05
1.57202e-05
1.52069e-05
1.5626e-05
1.4595e-05
1.60992e-05
1.76198e-05
1.04796e-05
5.50428e-06
5.37394e-06
5.76021e-06
5.41791e-06
5.4328e-06
5.31441e-06
5.34491e-06
5.35784e-06
5.47064e-06
5.63447e-06
5.89625e-06
6.23831e-06
6.67363e-06
7.19648e-06
7.81085e-06
8.51969e-06
9.32875e-06
1.02467e-05
1.12827e-05
1.24492e-05
1.37602e-05
1.5234e-05
1.68944e-05
1.87722e-05
2.0899e-05
2.3306e-05
2.60211e-05
2.90637e-05
3.24368e-05
3.61278e-05
4.01401e-05
4.44802e-05
4.91821e-05
5.4331e-05
6.00921e-05
6.67463e-05
7.47449e-05
8.47898e-05
9.79232e-05
0.000115541
0.000135988
0.000122489
9.87089e-05
7.75431e-05
6.06198e-05
4.75112e-05
3.78441e-05
3.05934e-05
2.54213e-05
2.14764e-05
1.87372e-05
1.65333e-05
1.50799e-05
1.38117e-05
1.30149e-05
1.23398e-05
1.17049e-05
1.14875e-05
1.63511e-05
1.02511e-05
5.77849e-06
5.41656e-06
5.37923e-06
4.89164e-06
4.70039e-06
4.54715e-06
4.53265e-06
4.56917e-06
4.71849e-06
4.97146e-06
5.35587e-06
5.87637e-06
6.54135e-06
7.36242e-06
8.3494e-06
9.52279e-06
1.09008e-05
1.25102e-05
1.43769e-05
1.65336e-05
1.90179e-05
2.18786e-05
2.51788e-05
2.89943e-05
3.33954e-05
3.84404e-05
4.41679e-05
5.05888e-05
5.76298e-05
6.52434e-05
7.33805e-05
8.19945e-05
9.10826e-05
0.000100718
0.000111084
0.000122503
0.000135477
0.000150742
0.000169286
0.000192139
0.000215657
0.000199927
0.000168288
0.000136916
0.000109397
8.62581e-05
6.78424e-05
5.31619e-05
4.2086e-05
3.33327e-05
2.70301e-05
2.18767e-05
1.8449e-05
1.53403e-05
1.36122e-05
1.16311e-05
1.08377e-05
9.34641e-06
1.6695e-05
1.06858e-05
6.42529e-06
5.68162e-06
5.43037e-06
4.74997e-06
4.33076e-06
4.10721e-06
4.04361e-06
4.10419e-06
4.31647e-06
4.70548e-06
5.29492e-06
6.1148e-06
7.18063e-06
8.529e-06
1.01869e-05
1.22029e-05
1.46189e-05
1.74907e-05
2.08712e-05
2.48241e-05
2.94218e-05
3.47565e-05
4.09446e-05
4.81108e-05
5.63475e-05
6.57023e-05
7.61665e-05
8.76451e-05
9.98965e-05
0.00011279
0.000126165
0.00013987
0.000153826
0.000168048
0.000182681
0.000198004
0.000214459
0.000232666
0.000253443
0.000277241
0.000299588
0.000284228
0.000249458
0.000211713
0.000175887
0.000143456
0.000115628
9.19286e-05
7.27865e-05
5.69193e-05
4.48139e-05
3.47349e-05
2.76598e-05
2.13887e-05
1.76701e-05
1.36829e-05
1.20884e-05
9.27237e-06
1.80761e-05
1.16228e-05
7.3609e-06
6.172e-06
5.8245e-06
4.97049e-06
4.30074e-06
3.96896e-06
3.84539e-06
3.93358e-06
4.24319e-06
4.83665e-06
5.75028e-06
7.04961e-06
8.77174e-06
1.09897e-05
1.37597e-05
1.71678e-05
2.12868e-05
2.62042e-05
3.19991e-05
3.87615e-05
4.65922e-05
5.56176e-05
6.59908e-05
7.78486e-05
9.1243e-05
0.000106131
0.000122378
0.000139637
0.000157532
0.000175821
0.00019423
0.000212519
0.00023054
0.000248258
0.000265769
0.000283288
0.000301174
0.000319926
0.000340186
0.000362003
0.000380996
0.000367146
0.000332724
0.000292535
0.000251966
0.000213061
0.000177558
0.000145538
0.000117965
9.39271e-05
7.4368e-05
5.75655e-05
4.49302e-05
3.38169e-05
2.65802e-05
1.94312e-05
1.60979e-05
1.15152e-05
2.00643e-05
1.29361e-05
8.52e-06
6.87756e-06
6.44287e-06
5.51178e-06
4.60768e-06
4.13482e-06
3.93733e-06
4.06054e-06
4.51359e-06
5.40816e-06
6.81363e-06
8.84546e-06
1.1576e-05
1.51217e-05
1.95721e-05
2.50467e-05
3.1639e-05
3.94501e-05
4.85617e-05
5.9062e-05
7.10498e-05
8.46509e-05
0.000100013
0.000117227
0.000136239
0.000156861
0.000178786
0.000201394
0.000224286
0.000247124
0.000269565
0.000291318
0.000312193
0.000332119
0.000351147
0.000369433
0.00038726
0.000405033
0.000423207
0.000441728
0.00045667
0.000444421
0.000412114
0.000372137
0.000329808
0.000287411
0.000246867
0.00020864
0.000173975
0.000142408
0.000115194
9.09867e-05
7.15053e-05
5.42096e-05
4.18457e-05
3.0237e-05
2.39057e-05
1.6892e-05
2.22985e-05
1.45053e-05
9.84337e-06
7.76928e-06
7.18619e-06
6.28177e-06
5.23592e-06
4.61544e-06
4.33721e-06
4.50935e-06
5.16614e-06
6.48814e-06
8.60064e-06
1.16804e-05
1.58388e-05
2.1228e-05
2.79549e-05
3.61474e-05
4.58877e-05
5.72532e-05
7.02913e-05
8.50522e-05
0.0001016
0.000120027
0.000140441
0.000162854
0.00018709
0.000212826
0.000239559
0.000266562
0.000293433
0.000319777
0.000345214
0.000369419
0.000392173
0.000413369
0.000433014
0.00045121
0.000468172
0.00048422
0.000499687
0.00051456
0.000525482
0.000514427
0.000484786
0.000446418
0.000404248
0.000360597
0.000317365
0.000275229
0.000235487
0.000198031
0.000164211
0.00013316
0.00010668
8.27552e-05
6.41949e-05
4.71764e-05
3.65524e-05
2.64884e-05
2.44999e-05
1.62124e-05
1.12739e-05
8.80718e-06
8.00692e-06
7.16727e-06
6.12202e-06
5.39781e-06
5.05692e-06
5.30353e-06
6.23672e-06
8.13062e-06
1.11873e-05
1.56441e-05
2.16384e-05
2.93291e-05
3.88069e-05
5.01677e-05
6.34438e-05
7.86544e-05
9.57864e-05
0.000114833
0.00013581
0.000158764
0.000183755
0.000210719
0.000239382
0.000269331
0.000299866
0.000330331
0.00036029
0.000389314
0.000416992
0.000442967
0.000466983
0.000488897
0.000508668
0.000526344
0.000542089
0.00055613
0.0005688
0.000580112
0.000587321
0.000576899
0.000549792
0.00051356
0.000472578
0.000429079
0.000384856
0.000340675
0.000297773
0.000256264
0.000217441
0.000180843
0.000148176
0.00011807
9.31239e-05
7.03965e-05
5.45773e-05
4.11131e-05
2.64921e-05
1.79503e-05
1.27575e-05
9.94796e-06
8.89233e-06
8.09414e-06
7.15393e-06
6.41809e-06
6.06896e-06
6.43109e-06
7.71663e-06
1.03178e-05
1.45287e-05
2.06315e-05
2.87617e-05
3.90442e-05
5.15151e-05
6.62032e-05
8.30659e-05
0.00010205
0.00012308
0.000146092
0.000171057
0.000197982
0.000226881
0.000257634
0.000289906
0.000323215
0.000356757
0.000389974
0.00042239
0.000453545
0.000482992
0.000510332
0.000535266
0.000557604
0.00057726
0.000594233
0.000608635
0.000620653
0.000630647
0.000638654
0.00064251
0.000632177
0.000607152
0.000573065
0.000533692
0.000491111
0.000446974
0.000402066
0.000357518
0.000313553
0.000271349
0.000230704
0.000193154
0.000157876
0.000127134
9.90209e-05
7.77528e-05
6.08522e-05
2.81949e-05
1.9633e-05
1.4245e-05
1.11498e-05
9.83482e-06
9.03371e-06
8.2308e-06
7.57361e-06
7.2912e-06
7.81793e-06
9.51782e-06
1.29187e-05
1.84156e-05
2.63128e-05
3.67126e-05
4.96694e-05
6.51366e-05
8.30587e-05
0.000103313
0.000125781
0.00015033
0.000176855
0.000205288
0.000235599
0.000267767
0.000301638
0.000336845
0.000372836
0.000408831
0.000444314
0.000478778
0.000511724
0.000542662
0.000571138
0.000596805
0.000619423
0.000638855
0.000655059
0.0006681
0.000678197
0.0006857
0.000690693
0.00069153
0.000680822
0.000657319
0.000625115
0.000587401
0.00054607
0.000502629
0.00045784
0.000412723
0.000367535
0.000323329
0.000280027
0.000238996
0.000199762
0.000164283
0.000131518
0.000105166
8.50106e-05
2.95965e-05
2.12e-05
1.56952e-05
1.23749e-05
1.08204e-05
9.98031e-06
9.30251e-06
8.76973e-06
8.6158e-06
9.34313e-06
1.14844e-05
1.57091e-05
2.25195e-05
3.22229e-05
4.4865e-05
6.04075e-05
7.87076e-05
9.96247e-05
0.000122963
0.000148548
0.000176208
0.000205799
0.000237222
0.000270413
0.000305322
0.000341778
0.000379408
0.00041759
0.000455651
0.000493075
0.000529322
0.000563851
0.000596115
0.0006256
0.000651901
0.000674725
0.000693886
0.000709298
0.000721035
0.000729332
0.000734534
0.000736785
0.000734883
0.000723434
0.000700895
0.000670191
0.000633981
0.000593962
0.000551507
0.000507331
0.000462358
0.000416831
0.00037169
0.000326883
0.000283644
0.00024165
0.000202651
0.000166158
0.000135502
0.000112374
3.07228e-05
2.26163e-05
1.70758e-05
1.35912e-05
1.18298e-05
1.09308e-05
1.03524e-05
9.95498e-06
9.95667e-06
1.08911e-05
1.3453e-05
1.84517e-05
2.65035e-05
3.7911e-05
5.26529e-05
7.05893e-05
9.14776e-05
0.000115099
0.000141192
0.000169541
0.000199937
0.000232208
0.000266221
0.000301882
0.000339115
0.000377745
0.000417411
0.000457433
0.000497287
0.000536427
0.00057428
0.000610254
0.000643741
0.000674157
0.000701032
0.000724019
0.000742879
0.000757515
0.000768022
0.000774633
0.000777704
0.000777449
0.00077304
0.000760573
0.0007385
0.000708881
0.000673918
0.00063512
0.000593733
0.000550424
0.00050603
0.00046076
0.00041546
0.000370042
0.000325647
0.000281946
0.000240602
0.000201333
0.000167336
0.000141549
3.16152e-05
2.38673e-05
1.83645e-05
1.4773e-05
1.28422e-05
1.1878e-05
1.13755e-05
1.11117e-05
1.12731e-05
1.23908e-05
1.53119e-05
2.09742e-05
3.01201e-05
4.30533e-05
5.96858e-05
7.97768e-05
0.000102985
0.000129019
0.00015756
0.000188357
0.00022117
0.000255796
0.000292074
0.000329875
0.000369103
0.000409584
0.000450965
0.000492591
0.000534032
0.000574718
0.000614044
0.000651364
0.000685998
0.000717286
0.000744692
0.000767808
0.000786348
0.000800246
0.000809587
0.000814613
0.000815704
0.000813144
0.000806416
0.000792735
0.000770706
0.000741778
0.000707771
0.000670019
0.000629661
0.000587311
0.000543736
0.000499102
0.00045418
0.00040881
0.000364076
0.000319542
0.000276874
0.000235717
0.00019935
0.000171226
3.23171e-05
2.49536e-05
1.95474e-05
1.59008e-05
1.38384e-05
1.28109e-05
1.23666e-05
1.2232e-05
1.25524e-05
1.38216e-05
1.70145e-05
2.31953e-05
3.32429e-05
4.74799e-05
6.57621e-05
8.7754e-05
0.000113015
0.000141191
0.000171903
0.000204872
0.000239828
0.000276538
0.000314809
0.00035448
0.000395434
0.00043751
0.000480353
0.000523388
0.000566247
0.000608341
0.000649029
0.000687607
0.000723321
0.000755428
0.000783323
0.000806521
0.000824759
0.000837951
0.000846183
0.000849713
0.000848951
0.000844257
0.000835368
0.000820343
0.000798019
0.000769432
0.000736092
0.000699182
0.000659744
0.000618347
0.000575699
0.000531923
0.000487729
0.000442875
0.00039841
0.000353733
0.000310575
0.000268308
0.00023045
0.000200313
3.28674e-05
2.58852e-05
2.06182e-05
1.69607e-05
1.4802e-05
1.37178e-05
1.33181e-05
1.33077e-05
1.37863e-05
1.51977e-05
1.85569e-05
2.51039e-05
3.58433e-05
5.11438e-05
7.08237e-05
9.44628e-05
0.000121522
0.000151588
0.000184224
0.000219122
0.000255982
0.000294542
0.000334575
0.000375887
0.000418341
0.000461792
0.000505889
0.000550165
0.000594294
0.000637666
0.00067961
0.000719361
0.000756086
0.000788955
0.000817271
0.000840548
0.000858494
0.000871008
0.000878181
0.000880294
0.000877793
0.000871112
0.000860201
0.000843755
0.000820876
0.000792333
0.000759397
0.00072312
0.000684464
0.000643958
0.000602259
0.000559454
0.000516202
0.000472183
0.000428419
0.000384126
0.000341131
0.000298405
0.000259799
0.000227978
3.32987e-05
2.66769e-05
2.15768e-05
1.79442e-05
1.57205e-05
1.45878e-05
1.42215e-05
1.43279e-05
1.49644e-05
1.65165e-05
1.99885e-05
2.67242e-05
3.79486e-05
5.40703e-05
7.48969e-05
9.99368e-05
0.000128554
0.000160278
0.00019461
0.000231217
0.000269768
0.000309969
0.00035156
0.000394314
0.00043807
0.000482703
0.000527878
0.000573238
0.000618494
0.000663018
0.00070611
0.000746941
0.0007846
0.000818137
0.000846848
0.000870198
0.00088786
0.000899721
0.000905882
0.00090665
0.000902516
0.00089398
0.00088117
0.000863269
0.000839645
0.000810909
0.000778149
0.000742314
0.000704294
0.000664586
0.000623807
0.000582013
0.000539822
0.000496842
0.000454075
0.000410557
0.000368214
0.000325563
0.000286809
0.000253635
3.36372e-05
2.73455e-05
2.2427e-05
1.8847e-05
1.6585e-05
1.5412e-05
1.50687e-05
1.52815e-05
1.60729e-05
1.77683e-05
2.13333e-05
2.81319e-05
3.96065e-05
5.6317e-05
7.80467e-05
0.000104251
0.000134197
0.000167362
0.000203181
0.000241295
0.000281343
0.000322995
0.000365961
0.000409977
0.000454859
0.000500488
0.00054659
0.000592885
0.000639128
0.000684673
0.000728794
0.000770603
0.000809065
0.000843225
0.000872305
0.000895716
0.000913099
0.000924332
0.000929527
0.000929022
0.000923351
0.000913083
0.000898491
0.000879137
0.000854638
0.000825526
0.000792757
0.000757194
0.000719673
0.000680662
0.000640747
0.000599959
0.00055888
0.000517062
0.000475484
0.000433022
0.000391686
0.000349533
0.000311105
0.000276904
3.39035e-05
2.79076e-05
2.31754e-05
1.96681e-05
1.73899e-05
1.61843e-05
1.58538e-05
1.61583e-05
1.70967e-05
1.89374e-05
2.25857e-05
2.93948e-05
4.09137e-05
5.7947e-05
8.03478e-05
0.000107492
0.000138551
0.000172954
0.000210063
0.000249497
0.000290859
0.000333788
0.000377959
0.000423073
0.000468916
0.000515375
0.00056226
0.000609343
0.00065643
0.000702858
0.000747869
0.000790501
0.000829692
0.00086442
0.000893834
0.000917291
0.0009344
0.00094503
0.000949307
0.0009476
0.000940489
0.000928605
0.000912346
0.000891568
0.000866117
0.000836497
0.000803573
0.000768146
0.000731002
0.000692591
0.00065347
0.000613657
0.000573699
0.000533107
0.000492833
0.00045162
0.000411541
0.000370217
0.000332477
0.00029757
3.41136e-05
2.8379e-05
2.38305e-05
2.04092e-05
1.81324e-05
1.69006e-05
1.65732e-05
1.69513e-05
1.80224e-05
2.00058e-05
2.37321e-05
3.05165e-05
4.1978e-05
5.90818e-05
8.18689e-05
0.000109739
0.000141707
0.000177156
0.000215372
0.000255947
0.000298454
0.000342496
0.000387714
0.000433773
0.000480424
0.000527561
0.000575089
0.000622812
0.000670596
0.000717726
0.000763466
0.000806812
0.000846647
0.000881879
0.000911588
0.000935074
0.000951913
0.000961967
0.000965376
0.000962542
0.000954087
0.000940701
0.00092289
0.000900741
0.000874303
0.000844089
0.000810905
0.000775506
0.00073864
0.000700742
0.000662346
0.000623462
0.000584607
0.000545264
0.000506356
0.000466519
0.000427864
0.000387623
0.000350844
0.000315538
3.42797e-05
2.87737e-05
2.44013e-05
2.10739e-05
1.88118e-05
1.75594e-05
1.72257e-05
1.76568e-05
1.884e-05
2.09564e-05
2.47548e-05
3.14904e-05
4.28146e-05
5.98399e-05
8.27769e-05
0.000111062
0.000143744
0.000180058
0.000219205
0.000260756
0.000304247
0.000349247
0.000395362
0.000442221
0.000489533
0.000537211
0.000585246
0.000633452
0.000681725
0.000729407
0.000775738
0.000819681
0.000860063
0.000895728
0.000925685
0.00094918
0.000965756
0.000975264
0.000977859
0.000973975
0.000964274
0.0009495
0.000930253
0.000906806
0.000879383
0.000848528
0.000815016
0.000779567
0.000742902
0.000705445
0.000667712
0.000629709
0.000591926
0.000553831
0.000516311
0.000477927
0.000440801
0.000401833
0.000366218
0.000330802
3.44115e-05
2.91039e-05
2.48968e-05
2.16668e-05
1.94294e-05
1.81609e-05
1.78121e-05
1.82744e-05
1.95442e-05
2.17755e-05
2.5636e-05
3.23043e-05
4.3428e-05
6.02469e-05
8.31492e-05
0.000111642
0.000144787
0.000181734
0.000221647
0.000264016
0.000308338
0.000354149
0.000401018
0.00044854
0.000496372
0.000544446
0.000592813
0.000641353
0.000689961
0.000738041
0.000784817
0.000829228
0.000870051
0.000906069
0.000936222
0.000959704
0.000976022
0.000985019
0.000986859
0.000982005
0.000971159
0.000955115
0.000934551
0.000909892
0.000881515
0.000850009
0.000816132
0.000780586
0.000744068
0.000706999
0.000669876
0.000632709
0.00059596
0.000559094
0.00052296
0.000486071
0.000450531
0.000412976
0.000378673
0.000343417
3.45162e-05
2.938e-05
2.53259e-05
2.21936e-05
1.99878e-05
1.87066e-05
1.8335e-05
1.8807e-05
2.01341e-05
2.24548e-05
2.63607e-05
3.2944e-05
4.38164e-05
6.03193e-05
8.3018e-05
0.000111524
0.000144931
0.000182319
0.000222815
0.000265828
0.000310817
0.00035728
0.000404755
0.000452795
0.000501006
0.00054935
0.000597914
0.000646638
0.000695429
0.000743748
0.000790816
0.000835557
0.000876705
0.000912988
0.000943282
0.000966726
0.000982793
0.000991313
0.00099246
0.000986723
0.000974836
0.00095764
0.000935882
0.000910113
0.000880837
0.000848696
0.000814447
0.000778782
0.000742382
0.000705665
0.000669113
0.000632743
0.000596991
0.00056133
0.000526563
0.000491184
0.000457255
0.000421214
0.000388328
0.000353479
3.45997e-05
2.9611e-05
2.56968e-05
2.26598e-05
2.04902e-05
1.91992e-05
1.87984e-05
1.92596e-05
2.06135e-05
2.29919e-05
2.69194e-05
3.33975e-05
4.39759e-05
6.0068e-05
8.24088e-05
0.000110742
0.000144215
0.000181859
0.000222759
0.00026625
0.000311748
0.000358713
0.000406649
0.00045507
0.00050353
0.000552021
0.000600653
0.000649416
0.000698238
0.000746633
0.000793836
0.00083876
0.00088011
0.000916563
0.000946935
0.000970314
0.000986137
0.000994219
0.000994738
0.000988205
0.000975386
0.000957159
0.000934335
0.000907566
0.000877467
0.000844734
0.000810131
0.000774349
0.000738058
0.000701675
0.00066567
0.000630068
0.000595281
0.000560796
0.000527371
0.0004935
0.000461183
0.000426724
0.000395326
0.000361108
3.46663e-05
2.98044e-05
2.60169e-05
2.30714e-05
2.09405e-05
1.96419e-05
1.92068e-05
1.9639e-05
2.09893e-05
2.33901e-05
2.7309e-05
3.36574e-05
4.39034e-05
5.95023e-05
8.13438e-05
0.000109327
0.000142675
0.000180392
0.000221524
0.000265331
0.000311184
0.000358506
0.000406766
0.000455433
0.000504022
0.000552544
0.00060112
0.000649783
0.000698484
0.000746794
0.000793969
0.000838925
0.000880346
0.000916866
0.00094725
0.000970534
0.000986119
0.000993801
0.000993761
0.000986524
0.000972882
0.000953749
0.000929989
0.000902339
0.000871509
0.000838246
0.00080333
0.000767455
0.000731282
0.000695233
0.000659765
0.000624913
0.000591066
0.000557731
0.000525617
0.000493242
0.000462522
0.000429691
0.000399827
0.000366443
3.47195e-05
2.99664e-05
2.62931e-05
2.34341e-05
2.1343e-05
2.00387e-05
1.95654e-05
1.9953e-05
2.12714e-05
2.36578e-05
2.75331e-05
3.37228e-05
4.36002e-05
5.86328e-05
7.98452e-05
0.000107306
0.000140342
0.000177952
0.000219143
0.000263109
0.00030917
0.000356709
0.000405161
0.000453944
0.000502551
0.000550993
0.000599394
0.000647823
0.000696256
0.000744322
0.000791305
0.000836136
0.000877491
0.000913971
0.000944294
0.000967449
0.0009828
0.000990121
0.00098959
0.000981743
0.000967392
0.000947478
0.000922915
0.000894511
0.000863055
0.000829342
0.000794172
0.000758246
0.00072222
0.00068652
0.000651593
0.000617485
0.000584561
0.000552356
0.000521523
0.000490625
0.000461478
0.0004303
0.000401997
0.000369627
3.4762e-05
3.01022e-05
2.65311e-05
2.37531e-05
2.17019e-05
2.03933e-05
1.98794e-05
2.02098e-05
2.14711e-05
2.38073e-05
2.76016e-05
3.35999e-05
4.30733e-05
5.74746e-05
7.79388e-05
0.000104713
0.00013725
0.000174569
0.00021565
0.000259617
0.000305741
0.000353362
0.000401877
0.000450654
0.000499175
0.000547432
0.000595545
0.000643612
0.000691637
0.000739302
0.000785931
0.00083048
0.000871627
0.000907953
0.000938137
0.000961125
0.000976243
0.000983241
0.000982288
0.000973925
0.000958978
0.000938413
0.000913183
0.000884156
0.000852188
0.000818119
0.00078277
0.000746851
0.000711017
0.000675697
0.000641327
0.000607969
0.000575961
0.000544869
0.000515293
0.00048585
0.000458245
0.000428734
0.000402007
0.000370809
3.4796e-05
3.02163e-05
2.67364e-05
2.40334e-05
2.20215e-05
2.07098e-05
2.0154e-05
2.04175e-05
2.16004e-05
2.38534e-05
2.75292e-05
3.33015e-05
4.23365e-05
5.60484e-05
7.56559e-05
0.000101584
0.000133434
0.000170278
0.000211073
0.000254886
0.000300929
0.0003485
0.000396956
0.000445611
0.000493943
0.000541915
0.000589635
0.000637221
0.000684704
0.000731817
0.000777932
0.000822041
0.000862837
0.000898891
0.000928853
0.000951631
0.000966513
0.000973223
0.000971916
0.000963132
0.000947704
0.000926616
0.000900855
0.000871341
0.000838984
0.000804666
0.000769226
0.000733387
0.000697801
0.000662905
0.000629124
0.000596532
0.000565442
0.000535455
0.000507114
0.000479105
0.000453011
0.000425171
0.000400021
0.000370134
3.48232e-05
3.03121e-05
2.69134e-05
2.42796e-05
2.23056e-05
2.09921e-05
2.0394e-05
2.05841e-05
2.16714e-05
2.38125e-05
2.73346e-05
3.28464e-05
4.14104e-05
5.43822e-05
7.30354e-05
9.79647e-05
0.000128941
0.000165117
0.000205448
0.000248945
0.000294765
0.000342154
0.000390429
0.000438856
0.000486902
0.000534493
0.000581721
0.000628715
0.000675529
0.000721948
0.000767395
0.000810908
0.000851208
0.00088687
0.000916523
0.000939043
0.000953683
0.000960136
0.00095854
0.000949427
0.000933631
0.000912149
0.000885995
0.000856133
0.000823516
0.000789062
0.000753631
0.000717956
0.000682689
0.000648272
0.000615121
0.000583322
0.000553163
0.000524281
0.000497159
0.000470566
0.000445951
0.000419777
0.000396201
0.000367746
3.4845e-05
3.03927e-05
2.70661e-05
2.44957e-05
2.25582e-05
2.12438e-05
2.06042e-05
2.07166e-05
2.16957e-05
2.37012e-05
2.70384e-05
3.22579e-05
4.03211e-05
5.25101e-05
7.01241e-05
9.39116e-05
0.000123828
0.000159137
0.000198815
0.00024183
0.000287278
0.000334354
0.00038233
0.000430424
0.000478089
0.000525209
0.000571853
0.000618152
0.000664182
0.000709774
0.000754407
0.000797173
0.000836834
0.00087198
0.000901232
0.000923442
0.000937827
0.000944051
0.000942227
0.000932875
0.000916823
0.000895075
0.000868667
0.000838595
0.000805852
0.000771385
0.00073607
0.000700653
0.000665785
0.000631915
0.000599445
0.000568475
0.00053927
0.000511498
0.000485589
0.000460394
0.00043723
0.000412716
0.000390704
0.000363783
3.48623e-05
3.04607e-05
2.7198e-05
2.46855e-05
2.27826e-05
2.14683e-05
2.07887e-05
2.08217e-05
2.16839e-05
2.35357e-05
2.66623e-05
3.15616e-05
3.90994e-05
5.04719e-05
6.69762e-05
8.94916e-05
0.000118163
0.000152401
0.000191226
0.000233581
0.000278502
0.00032513
0.000372688
0.000420348
0.000467541
0.000514104
0.000560078
0.000605589
0.000650729
0.000695371
0.000739053
0.000780929
0.000819812
0.000854319
0.000883077
0.000904917
0.00091903
0.000925046
0.000923051
0.000913545
0.000897346
0.000875458
0.000848931
0.000818791
0.000786059
0.000751705
0.000716623
0.000681567
0.000647188
0.00061394
0.000582212
0.000552118
0.000523895
0.000497249
0.00047255
0.000448743
0.000427003
0.000404137
0.000383679
0.000358379
3.48761e-05
3.0518e-05
2.73121e-05
2.48523e-05
2.2982e-05
2.16688e-05
2.09512e-05
2.0905e-05
2.16456e-05
2.33309e-05
2.62273e-05
3.07847e-05
3.77784e-05
4.83114e-05
6.3652e-05
8.47816e-05
0.000112033
0.000144988
0.00018275
0.000224252
0.000268482
0.00031452
0.000361537
0.000408664
0.000455294
0.000501218
0.000546441
0.000591079
0.000635232
0.000678814
0.00072142
0.000762271
0.000800241
0.000833988
0.000862156
0.000883566
0.000897383
0.000903205
0.00090109
0.000891511
0.00087527
0.000853366
0.000826856
0.000796787
0.000764204
0.000730096
0.000695367
0.000660782
0.000626989
0.000594445
0.00056353
0.000534364
0.000507161
0.000481663
0.000458179
0.000435753
0.000415417
0.000394187
0.000375268
0.000351662
3.48871e-05
3.05665e-05
2.74108e-05
2.49989e-05
2.31594e-05
2.18482e-05
2.10951e-05
2.09715e-05
2.15888e-05
2.31003e-05
2.57532e-05
2.99536e-05
3.6392e-05
4.60737e-05
6.02152e-05
7.98669e-05
0.000105537
0.000137
0.000173474
0.000213916
0.000257273
0.000302567
0.000348914
0.000395406
0.000441383
0.000486587
0.000530984
0.000574673
0.000617754
0.000660176
0.000701593
0.000741295
0.000778225
0.000811097
0.000838578
0.000859492
0.000872984
0.000878622
0.000876431
0.000866854
0.000850672
0.000828869
0.000802509
0.000772651
0.000740356
0.000706628
0.000672378
0.00063838
0.000605277
0.000573527
0.0005435
0.000515323
0.000489185
0.000464862
0.000442606
0.000421558
0.000402608
0.000383002
0.000365607
0.000343756
3.48958e-05
3.06076e-05
2.74964e-05
2.51278e-05
2.33173e-05
2.20089e-05
2.12231e-05
2.10253e-05
2.15207e-05
2.28553e-05
2.52577e-05
2.90931e-05
3.49731e-05
4.38037e-05
5.67303e-05
7.48376e-05
9.87863e-05
0.000128553
0.000163508
0.000202664
0.000244949
0.000289332
0.00033487
0.000380618
0.000425848
0.000470253
0.000513753
0.00055642
0.000598355
0.000639531
0.000679658
0.000718099
0.000753873
0.000785756
0.000812456
0.000832806
0.00084594
0.000851397
0.000849166
0.00083966
0.00082363
0.000802045
0.000775964
0.000746455
0.000714587
0.000681375
0.000647735
0.000614442
0.000582138
0.000551279
0.000522221
0.0004951
0.000470077
0.000446963
0.000425951
0.000406282
0.000388707
0.000370712
0.000354828
0.000334776
3.49026e-05
3.06426e-05
2.75707e-05
2.52415e-05
2.34579e-05
2.21531e-05
2.13379e-05
2.10698e-05
2.14468e-05
2.26057e-05
2.47563e-05
2.82255e-05
3.35521e-05
4.15437e-05
5.32596e-05
6.97847e-05
9.19006e-05
0.000119785
0.000152988
0.000190617
0.00023161
0.000274894
0.000319468
0.000364352
0.000408737
0.00045226
0.000494793
0.000536374
0.000577095
0.00061695
0.0006557
0.000692781
0.000727292
0.000758082
0.000783909
0.000803628
0.000816365
0.000821636
0.000819398
0.000810025
0.000794236
0.000772979
0.000747302
0.000718277
0.000686976
0.000654417
0.000621519
0.000589055
0.000557661
0.000527793
0.000499791
0.000473796
0.000449945
0.000428077
0.000408332
0.000390048
0.000373838
0.000357442
0.000343055
0.000324839
3.4908e-05
3.06723e-05
2.76354e-05
2.53418e-05
2.35834e-05
2.2283e-05
2.14414e-05
2.11079e-05
2.13716e-05
2.23594e-05
2.42617e-05
2.73699e-05
3.21559e-05
3.93316e-05
4.98603e-05
6.47959e-05
8.50029e-05
0.000110844
0.000142069
0.000177922
0.000217383
0.000259357
0.000302792
0.000346678
0.000390109
0.000432663
0.000474157
0.000514591
0.000554038
0.000592509
0.000629807
0.000665441
0.000698595
0.000728197
0.000753064
0.000772082
0.000784381
0.000789459
0.000787236
0.00077805
0.000762586
0.000741761
0.000716611
0.000688203
0.000657607
0.00062584
0.000593816
0.000562307
0.00053194
0.000503166
0.00047631
0.000451516
0.000428894
0.000408315
0.000389862
0.000372972
0.000358123
0.000343312
0.00033041
0.000314053
3.49121e-05
3.06977e-05
2.76919e-05
2.54305e-05
2.36956e-05
2.24002e-05
2.15354e-05
2.11417e-05
2.12988e-05
2.21223e-05
2.37841e-05
2.65421e-05
3.0807e-05
3.72e-05
4.65825e-05
5.99511e-05
7.82131e-05
0.000101887
0.00013093
0.000164755
0.000202426
0.000242856
0.000284954
0.000327685
0.000370039
0.00041153
0.000451911
0.000491136
0.000529256
0.000566285
0.000602069
0.000636184
0.000667898
0.000696225
0.000720051
0.000738303
0.000750122
0.000754991
0.000752802
0.000743853
0.000728789
0.000708497
0.000683991
0.00065633
0.000626575
0.000595737
0.000564722
0.000534297
0.000505074
0.0004775
0.000451881
0.000428365
0.000407034
0.000387787
0.000370655
0.000355169
0.00034168
0.000328441
0.000317009
0.000302527
3.49154e-05
3.07196e-05
2.77414e-05
2.5509e-05
2.37961e-05
2.25063e-05
2.16214e-05
2.11729e-05
2.12308e-05
2.1899e-05
2.33313e-05
2.57544e-05
2.95234e-05
3.51751e-05
4.34676e-05
5.53195e-05
7.16422e-05
9.3072e-05
0.000119762
0.000151319
0.000186935
0.000225565
0.000266101
0.000307494
0.000348628
0.000388947
0.000428133
0.000466087
0.000502827
0.000538367
0.000572585
0.000605119
0.000635324
0.000662301
0.000685011
0.000702433
0.000713729
0.000718374
0.000716231
0.000707561
0.000692967
0.000673302
0.000649555
0.000622768
0.000593988
0.000564216
0.000534346
0.000505131
0.000477172
0.000450904
0.000426617
0.000404455
0.000384478
0.000366606
0.000350825
0.000336754
0.000324625
0.000312945
0.00030297
0.000290365
3.49179e-05
3.07384e-05
2.77849e-05
2.55788e-05
2.38862e-05
2.26025e-05
2.17005e-05
2.12028e-05
2.11694e-05
2.16927e-05
2.29088e-05
2.50158e-05
2.83187e-05
3.32768e-05
4.0547e-05
5.0957e-05
6.53865e-05
8.45463e-05
0.000108759
0.000137837
0.000171135
0.000207693
0.000246417
0.000286258
0.000326007
0.000365027
0.000402924
0.000439538
0.000474847
0.000508854
0.000541461
0.000572366
0.000601003
0.000626565
0.000648094
0.000664629
0.000675359
0.000679759
0.000677671
0.000669317
0.00065526
0.000636312
0.000613433
0.000587644
0.000559972
0.000531402
0.000502809
0.000474934
0.000448357
0.000423501
0.000400637
0.000379907
0.000361345
0.000344893
0.000330492
0.000317846
0.000307076
0.000296939
0.000288407
0.000277673
3.49197e-05
3.07546e-05
2.78232e-05
2.5641e-05
2.39673e-05
2.269e-05
2.17738e-05
2.12323e-05
2.11159e-05
2.15055e-05
2.25203e-05
2.43324e-05
2.72021e-05
3.15184e-05
3.78429e-05
4.69045e-05
5.95239e-05
7.64414e-05
9.81115e-05
0.000124544
0.00015528
0.000189491
0.000226133
0.000264175
0.000302345
0.000339918
0.000376418
0.000411613
0.000445434
0.000477865
0.000508825
0.00053806
0.000565083
0.000589175
0.000609467
0.000625061
0.000635185
0.000639321
0.000637293
0.000629288
0.000615827
0.000597682
0.000575777
0.000551106
0.000524673
0.000497439
0.000470256
0.000443846
0.000418767
0.000395429
0.000374078
0.000354853