/*--------------------------------*- C++ -*----------------------------------*\
| =========                 |                                                 |
| \\      /  F ield         | OpenFOAM: The Open Source CFD Toolbox           |
|  \\    /   O peration     | Version:  2.4.0                                 |
|   \\  /    A nd           | Web:      www.OpenFOAM.org                      |
|    \\/     M anipulation  |                                                 |
\*---------------------------------------------------------------------------*/
FoamFile
{
    version     2.0;
    format      ascii;
    class       volScalarField;
    location    "4.53";
    object      k;
}
// * * * * * * * * * * * * * * * * * * * * * * * * * * * * * * * * * * * * * //

dimensions      [0 2 -2 0 0 0 0];

internalField   nonuniform List<scalar> 
6000
(
0.168225
0.0132701
0.00097903
0.00362113
0.00250573
0.00292664
0.00242266
0.00239277
0.00212733
0.00205349
0.0019212
0.00188521
0.00185181
0.00188045
0.00193388
0.00203281
0.00216055
0.00232443
0.00251882
0.00274843
0.00301274
0.00331373
0.00364955
0.00401747
0.00441206
0.00482714
0.00525506
0.0056871
0.00611317
0.00652183
0.00690026
0.00723428
0.00750842
0.007706
0.00780881
0.00779989
0.00766361
0.00738655
0.00696189
0.00639048
0.00569176
0.00490299
0.00408543
0.00400059
0.00526864
0.0068473
0.00872284
0.011012
0.0135585
0.0166718
0.0198148
0.023991
0.0275043
0.0335312
0.0367713
0.0470121
0.0479685
0.0692122
0.0628123
0.110994
0.0762048
0.0101508
0.000944862
0.00240505
0.00171413
0.00192242
0.00160918
0.00157018
0.00140302
0.00134762
0.00126357
0.00123678
0.00121521
0.00123119
0.00126413
0.00132469
0.00140358
0.00150429
0.00162372
0.00176414
0.00192516
0.00210747
0.00230979
0.00253029
0.00276589
0.00301332
0.00326882
0.00352842
0.0037878
0.00404235
0.00428718
0.00451717
0.00472693
0.00491059
0.00506215
0.0051763
0.00524874
0.00527661
0.00526037
0.00520465
0.00512249
0.00503426
0.00495688
0.00509574
0.00564393
0.00628176
0.00703121
0.00794926
0.00898453
0.0102632
0.0115859
0.0133446
0.014902
0.0174778
0.0190774
0.0234357
0.0244056
0.0332742
0.0318371
0.051396
0.0412217
0.0080298
0.000973592
0.00168796
0.00122344
0.00131325
0.00110778
0.00106792
0.000958807
0.000917853
0.000864467
0.000847353
0.000837177
0.000851987
0.00088042
0.000928264
0.000990608
0.00106948
0.00116364
0.00127466
0.00140277
0.00154856
0.00171145
0.00189041
0.00208373
0.00228961
0.00250612
0.00273141
0.00296367
0.00320121
0.00344252
0.0036863
0.00393154
0.00417698
0.00442132
0.00466435
0.00490671
0.0051502
0.00539836
0.00565687
0.0059339
0.00623719
0.00654839
0.00682877
0.00710129
0.00732937
0.00755617
0.00782061
0.00812358
0.00852219
0.00895931
0.00958635
0.0101822
0.0112072
0.0119327
0.0137768
0.0144393
0.0182503
0.0182606
0.0265477
0.0260623
0.0067741
0.00107088
0.00126675
0.000916279
0.000934561
0.000790391
0.000752084
0.000678216
0.000648409
0.00061554
0.00060771
0.000608325
0.000627792
0.00066007
0.000708686
0.000771473
0.000850144
0.000944849
0.00105728
0.0011884
0.00133914
0.0015096
0.00169938
0.00190754
0.00213303
0.00237475
0.00263174
0.0029032
0.00318857
0.00348759
0.0038004
0.0041275
0.00446814
0.0048221
0.00519051
0.00557464
0.00597631
0.00639792
0.00684237
0.00731197
0.00780512
0.00828342
0.00864995
0.00888458
0.00900569
0.00905343
0.00905399
0.00902718
0.00900285
0.00898432
0.00902973
0.00908806
0.00932097
0.0095015
0.0101336
0.0104263
0.0119699
0.0122314
0.0157955
0.0187963
0.00609211
0.00123227
0.00103247
0.000726806
0.000696394
0.000586135
0.000549288
0.000497189
0.000475987
0.000457648
0.000458669
0.000469778
0.000497309
0.000538432
0.000595767
0.000669002
0.000760069
0.00087023
0.0010016
0.00115585
0.00133436
0.00153772
0.00176589
0.00201823
0.00229385
0.0025918
0.00291119
0.00325127
0.00361152
0.00399167
0.00439181
0.00481204
0.00524923
0.00570372
0.00617578
0.00666537
0.00717263
0.00769777
0.00824106
0.0088016
0.00937451
0.00991304
0.0103346
0.0106129
0.0107562
0.0107939
0.0107406
0.010616
0.0104338
0.0102162
0.00998295
0.00974913
0.00955984
0.0093876
0.00937622
0.00933253
0.00975826
0.00987207
0.0113568
0.015049
0.00576626
0.00144827
0.00092508
0.000617109
0.000547806
0.000454328
0.000417736
0.000379094
0.000364574
0.000357179
0.000366782
0.00038843
0.000426319
0.00047966
0.000550863
0.000640931
0.000752219
0.000886838
0.00104735
0.00123593
0.00145428
0.00170317
0.00198255
0.00229163
0.00262924
0.00299404
0.00338471
0.00380002
0.0042389
0.00470047
0.00518411
0.00568787
0.00620728
0.00674257
0.00729276
0.00785645
0.00843234
0.00901918
0.00961592
0.0102208
0.0108274
0.0113881
0.0118468
0.0121766
0.0123704
0.0124491
0.0124198
0.0122996
0.0120921
0.0118225
0.0114911
0.011134
0.0107477
0.0103789
0.0100294
0.00973884
0.00957892
0.00945693
0.00998457
0.0130163
0.00565588
0.00170764
0.000909948
0.000565291
0.00045922
0.000370945
0.000332878
0.00030229
0.000292964
0.000294319
0.000312403
0.000344853
0.000394788
0.000462757
0.000551278
0.000662277
0.000798509
0.000962634
0.0011575
0.00138554
0.00164848
0.00194703
0.00228086
0.00264876
0.00304905
0.00347983
0.00393918
0.00442527
0.00493632
0.00547074
0.00602721
0.00660051
0.00718728
0.00778679
0.00839703
0.00901557
0.00964011
0.0102686
0.0108993
0.0115306
0.012153
0.0127239
0.0132074
0.0135765
0.0138137
0.0139341
0.013941
0.0138501
0.0136601
0.0133967
0.0130504
0.012664
0.0122109
0.0117636
0.0112635
0.0108364
0.0103825
0.010072
0.0101412
0.0118779
0.00567208
0.00199824
0.000965515
0.000559199
0.000413276
0.000321526
0.000279932
0.000253638
0.000248291
0.000256994
0.000283542
0.000327133
0.000390355
0.000474628
0.000582658
0.000716955
0.000880522
0.00107627
0.00130714
0.0015756
0.00188329
0.00223072
0.00261721
0.00304109
0.00350018
0.00399204
0.00451417
0.00506413
0.00563948
0.00623795
0.0068571
0.00748956
0.00813318
0.0087861
0.00944551
0.0101082
0.0107711
0.0114316
0.0120878
0.012738
0.0133675
0.0139444
0.0144434
0.0148372
0.0151037
0.0152536
0.015288
0.0152224
0.0150531
0.014807
0.0144699
0.0140885
0.0136247
0.0131624
0.0126144
0.012139
0.0115616
0.0111528
0.010996
0.0112303
0.0057586
0.00230742
0.0010778
0.000591079
0.000399913
0.000297324
0.000249863
0.000224996
0.000222543
0.000237608
0.000272597
0.000327615
0.000404959
0.00050657
0.000635278
0.000793879
0.000985448
0.00121294
0.00147927
0.00178689
0.00213735
0.00253099
0.00296681
0.00344275
0.00395616
0.00450411
0.00508352
0.00569141
0.00632469
0.0069805
0.00765462
0.00833936
0.00903276
0.00973209
0.0104338
0.0111341
0.0118293
0.0125164
0.0131932
0.013857
0.0144893
0.0150691
0.0155759
0.0159824
0.0162649
0.0164313
0.0164814
0.0164305
0.016274
0.01604
0.0157122
0.0153406
0.0148816
0.0144263
0.013873
0.0133964
0.0127845
0.012351
0.0120789
0.0108621
0.00588002
0.00262269
0.00123576
0.000656146
0.000413664
0.00029316
0.000237149
0.000211269
0.000210634
0.000231253
0.00027458
0.00034117
0.000433092
0.000552516
0.00070228
0.00088523
0.0011044
0.00136269
0.00166301
0.0020078
0.00239862
0.00283565
0.00331765
0.00384219
0.00440616
0.00500614
0.00563852
0.00629977
0.0069862
0.00769446
0.0084179
0.00914994
0.00988807
0.0106288
0.0113679
0.0121011
0.0128241
0.0135337
0.0142277
0.0148996
0.0155323
0.016112
0.01662
0.0170296
0.0173174
0.0174897
0.0175449
0.0174987
0.0173459
0.0171157
0.016791
0.0164246
0.0159698
0.0155238
0.0149769
0.0145154
0.0139057
0.0134878
0.0131497
0.010657
0.00601448
0.00293261
0.00142924
0.000751017
0.000451836
0.000306193
0.000238509
0.000209296
0.000209321
0.000234704
0.000286126
0.000364255
0.000470882
0.00060817
0.000778844
0.000985655
0.00123155
0.00151937
0.00185207
0.00223216
0.00266119
0.00313927
0.0036649
0.00423526
0.00484681
0.00549565
0.00617763
0.00688869
0.00762454
0.00838122
0.00914983
0.00992525
0.0107041
0.0114821
0.0122547
0.0130169
0.013764
0.0144926
0.0151999
0.0158751
0.0165062
0.0170825
0.0175861
0.0179912
0.0182762
0.0184457
0.0184977
0.018448
0.0182913
0.0180577
0.0177296
0.0173621
0.016907
0.0164664
0.0159257
0.0154805
0.0148835
0.0144956
0.0141113
0.0105488
0.00614912
0.00322763
0.00164814
0.000873295
0.000512537
0.000335215
0.000252166
0.000217205
0.000216572
0.000245844
0.000304956
0.000394408
0.000515617
0.00067055
0.000861724
0.00109172
0.0013634
0.00167957
0.00204327
0.00245709
0.00292264
0.00343989
0.00400711
0.00462106
0.00527779
0.00597289
0.00670168
0.00745962
0.00824182
0.00904318
0.00985384
0.0106693
0.0114853
0.0122971
0.0130996
0.0138873
0.0146551
0.0153994
0.0161151
0.01679
0.0174171
0.0179867
0.0184811
0.0188758
0.0191514
0.0193116
0.0193541
0.0192946
0.0191282
0.0188853
0.0185487
0.0181747
0.017715
0.0172747
0.0167368
0.0163044
0.0157199
0.0153635
0.0149405
0.0104986
0.00627689
0.0035006
0.00188227
0.00102018
0.000594363
0.000380246
0.000277413
0.000234033
0.000231195
0.000263333
0.000329553
0.000429951
0.000565454
0.000737684
0.000948876
0.00120139
0.00149804
0.0018416
0.00223521
0.00268156
0.00318225
0.00373715
0.00434425
0.00499991
0.00569972
0.00643883
0.00721201
0.00801426
0.0088401
0.00968283
0.0105327
0.011385
0.0122351
0.0130774
0.0139064
0.0147163
0.0155014
0.0162579
0.0169765
0.0176488
0.0182692
0.0188287
0.0193096
0.0196892
0.0199502
0.0200959
0.0201239
0.02005
0.0198694
0.0196131
0.0192642
0.0188798
0.0184118
0.0179679
0.0174294
0.0170057
0.0164305
0.0161022
0.0156437
0.0104827
0.00639445
0.00374703
0.00212174
0.00118795
0.000696443
0.000441399
0.000314348
0.00025949
0.000252623
0.000286401
0.000358968
0.000469803
0.000619216
0.000808355
0.00103912
0.00131361
0.00163459
0.00200481
0.00242748
0.00290537
0.00344006
0.0040313
0.00467677
0.00537244
0.00611343
0.00689447
0.00770979
0.00855396
0.00942099
0.010302
0.0111882
0.0120746
0.0129555
0.0138252
0.0146775
0.0155062
0.0163054
0.0170693
0.0177871
0.0184541
0.019065
0.019611
0.0200746
0.0204351
0.0206773
0.0208045
0.0208142
0.0207223
0.0205244
0.0202516
0.0198877
0.0194903
0.0190117
0.0185612
0.0180195
0.017601
0.0170319
0.0167273
0.0162355
0.010487
0.00650069
0.00396485
0.00235752
0.00137178
0.000817824
0.000518581
0.00036373
0.000293822
0.000280769
0.00031472
0.000392688
0.000513329
0.000676211
0.000881883
0.00113185
0.00142789
0.00177273
0.00216903
0.00262008
0.00312868
0.00369637
0.00432273
0.00500519
0.00573924
0.0065196
0.00734059
0.00819589
0.00907967
0.00998522
0.0109017
0.0118217
0.0127391
0.013648
0.0145419
0.0154142
0.0162586
0.0170682
0.017834
0.0185483
0.0192073
0.0198057
0.0203349
0.0207779
0.021116
0.021336
0.0214413
0.0214297
0.0213171
0.0210997
0.0208083
0.0204277
0.0200155
0.0195249
0.0190661
0.0185195
0.0181037
0.0175382
0.0172532
0.0167305
0.0105025
0.00659578
0.00415402
0.00258198
0.00156588
0.000956844
0.000611743
0.000426404
0.00033773
0.000315944
0.000348318
0.000430535
0.000560229
0.000736093
0.000957941
0.00122681
0.00154409
0.00191243
0.00233438
0.00281324
0.0033518
0.00395154
0.00461188
0.00532994
0.00610079
0.00691873
0.0077777
0.00867083
0.00959195
0.0105332
0.0114827
0.0124337
0.0133793
0.0143131
0.015228
0.0161172
0.016974
0.0177888
0.018553
0.0192609
0.0199089
0.0204918
0.0210012
0.0214205
0.0217331
0.0219281
0.0220088
0.0219737
0.0218383
0.0215997
0.0212885
0.0208902
0.0204623
0.019959
0.0194909
0.0189387
0.0185239
0.0179605
0.0176918
0.0171406
0.0105238
0.00668051
0.00431603
0.00278928
0.0017638
0.00111087
0.000720822
0.00050276
0.000392321
0.000358807
0.000387525
0.000472602
0.000610452
0.000798752
0.00103642
0.00132395
0.00166223
0.00205382
0.00250105
0.0030072
0.00357503
0.00420591
0.00489907
0.00565138
0.00645744
0.00731115
0.00820611
0.00913492
0.0100911
0.0110651
0.0120451
0.0130243
0.0139952
0.0149508
0.0158837
0.0167865
0.0176514
0.0184666
0.0192263
0.0199249
0.0205589
0.0211233
0.0216099
0.0220026
0.0222873
0.0224547
0.0225087
0.0224481
0.0222885
0.0220276
0.0216957
0.0212794
0.0208355
0.0203196
0.0198418
0.0192839
0.0188693
0.0183072
0.0180521
0.0174756
0.0105474
0.00675592
0.00445338
0.00297555
0.00195902
0.00127621
0.000845119
0.000593096
0.000458708
0.000410337
0.000432946
0.000519216
0.000664138
0.000864244
0.00111737
0.00142334
0.00178242
0.00219706
0.00266926
0.00320223
0.00379865
0.00445974
0.00518458
0.00596974
0.00680939
0.00769702
0.00862596
0.00958823
0.0105772
0.011581
0.0125888
0.0135935
0.0145868
0.0155611
0.0165086
0.0174215
0.018289
0.0191016
0.0198537
0.0205399
0.0211569
0.0216999
0.0221607
0.0225243
0.0227787
0.0229164
0.0229417
0.0228542
0.0226693
0.0223855
0.0220327
0.0215984
0.0211387
0.0206105
0.0201234
0.0195602
0.0191454
0.0185846
0.0183411
0.0177428
0.0105712
0.0068231
0.00456907
0.00313879
0.00214549
0.00144825
0.00098307
0.000697609
0.000537568
0.000471811
0.000485445
0.000570914
0.000721592
0.000932751
0.00120092
0.00152513
0.00190483
0.00234235
0.00283922
0.00339855
0.00402287
0.00471326
0.00546858
0.00628519
0.00715676
0.0080764
0.00903725
0.0100307
0.0110499
0.0120807
0.0131137
0.0141409
0.0151535
0.0161433
0.0171022
0.0180199
0.0188863
0.0196931
0.0204345
0.0211053
0.0217023
0.0222208
0.0226531
0.0229851
0.023207
0.0233131
0.0233083
0.0231926
0.0229817
0.0226746
0.0223009
0.0218491
0.0213742
0.0208347
0.020339
0.0197714
0.0193566
0.0187977
0.0185643
0.017948
0.0105941
0.00688304
0.00466628
0.00327871
0.00231807
0.0016217
0.00113211
0.000815911
0.000629456
0.000544432
0.000546148
0.000628446
0.000783274
0.00100456
0.00128724
0.00162947
0.00202962
0.00248985
0.00301112
0.00359635
0.00424788
0.00496661
0.00575121
0.0065978
0.00749957
0.00844926
0.0094399
0.0104622
0.0115088
0.012564
0.0136193
0.0146661
0.0156947
0.0166969
0.0176622
0.0185805
0.0194427
0.0202405
0.020968
0.0216202
0.0221941
0.0226852
0.0230862
0.0233844
0.0235719
0.0236447
0.0236082
0.0234636
0.0232261
0.0228959
0.0225017
0.0220331
0.021544
0.0209944
0.0204911
0.0199205
0.019506
0.0189503
0.018726
0.0180957
0.0106153
0.00693661
0.00474809
0.00339631
0.00247297
0.00179105
0.00128869
0.000946819
0.000734616
0.000629114
0.000616428
0.000692774
0.000849797
0.00108004
0.00137661
0.00173657
0.00215694
0.00263974
0.00318511
0.00379577
0.00447381
0.00521991
0.00603253
0.00690759
0.0078378
0.0088155
0.00983372
0.0108825
0.0119535
0.0130303
0.014105
0.0151683
0.0162099
0.0172196
0.018187
0.0191026
0.0199573
0.0207428
0.0214531
0.0220836
0.0226312
0.023092
0.0234591
0.0237213
0.0238725
0.0239104
0.0238413
0.0236669
0.0234028
0.0230495
0.0226355
0.0221512
0.0216492
0.0210911
0.0205815
0.0200095
0.0195963
0.0190452
0.0188293
0.0181896
0.0106345
0.00698454
0.00481729
0.00349354
0.00260784
0.00195106
0.00144838
0.00108822
0.000852692
0.00072641
0.000697759
0.000765075
0.000921943
0.00115969
0.0014693
0.00184663
0.00228695
0.00279214
0.0033613
0.00399691
0.00470074
0.0054732
0.00631255
0.00721453
0.00817134
0.00917495
0.0102185
0.0112913
0.0123835
0.0134792
0.0145703
0.015647
0.0166966
0.0177096
0.0186758
0.0195853
0.0204291
0.0211989
0.0218888
0.0224942
0.0230125
0.0234401
0.0237708
0.0239948
0.024108
0.0241098
0.024007
0.0238023
0.0235114
0.0231357
0.0227028
0.0222041
0.0216907
0.0211259
0.0206118
0.0200403
0.0196295
0.0190848
0.0188773
0.0182327
0.0106516
0.00702745
0.00487632
0.00357292
0.00272178
0.00209717
0.00160622
0.00123702
0.000982547
0.000836418
0.000791011
0.000847114
0.00100067
0.00124409
0.00156566
0.00195985
0.00241977
0.00294713
0.00353975
0.00419981
0.00492867
0.00572646
0.0065912
0.0075185
0.00850003
0.00952736
0.0105939
0.0116879
0.0127985
0.01391
0.0150144
0.0160993
0.0171532
0.0181661
0.0191275
0.0200276
0.0208569
0.0216076
0.0222737
0.0228508
0.0233367
0.0237283
0.0240201
0.024204
0.0242776
0.0242418
0.0241045
0.0238693
0.0235519
0.0231543
0.0227037
0.0221922
0.0216692
0.0210998
0.020583
0.0200143
0.0196072
0.019071
0.0188721
0.0182273
0.0106666
0.00706587
0.00492719
0.00363722
0.00281523
0.00222592
0.0017571
0.00138922
0.00112212
0.000958591
0.000896546
0.000940183
0.00108774
0.00133394
0.00166609
0.00207646
0.0025555
0.00310476
0.00372045
0.00440441
0.00515753
0.00597959
0.00686835
0.00781931
0.00882363
0.00987243
0.0109595
0.0120717
0.0131978
0.0143217
0.0154344
0.016524
0.0175788
0.018588
0.0195412
0.0204282
0.0212396
0.0219677
0.0226065
0.0231521
0.0236025
0.0239553
0.0242059
0.0243476
0.0243802
0.0243058
0.0241333
0.0238674
0.0235238
0.0231053
0.0226383
0.0221158
0.0215852
0.0210134
0.0204962
0.0199324
0.0195308
0.0190055
0.0188157
0.0181757
0.0106796
0.00710023
0.00497154
0.0036892
0.00288961
0.00233515
0.00189621
0.00154014
0.00126838
0.00109157
0.00101417
0.00104474
0.0011847
0.00143098
0.00177102
0.00219664
0.00269418
0.00326498
0.00390331
0.0046106
0.00538717
0.00623241
0.00714376
0.00811669
0.00914179
0.0102097
0.011315
0.012442
0.0135792
0.0147116
0.0158294
0.0169203
0.0179723
0.0189743
0.0199156
0.0207859
0.0215758
0.0222777
0.0228859
0.0233967
0.0238086
0.0241197
0.0243268
0.0244247
0.0244147
0.0243007
0.0240926
0.0237959
0.0234267
0.0229884
0.0225065
0.0219749
0.021439
0.0208674
0.020352
0.0197959
0.0194016
0.0188898
0.0187099
0.0180796
0.0106909
0.00713093
0.00501066
0.0037314
0.0029471
0.00242403
0.00201949
0.00168477
0.00141738
0.00123306
0.00114297
0.00116076
0.00129195
0.00153647
0.00188253
0.00232055
0.00283577
0.00342767
0.0040881
0.0048181
0.00561729
0.00648458
0.00741707
0.00841022
0.00945406
0.0105388
0.0116583
0.0127963
0.0139414
0.0150791
0.0161984
0.017287
0.0183326
0.0193237
0.0202494
0.0210992
0.0218641
0.0225362
0.0231103
0.023583
0.0239534
0.0242203
0.0243816
0.0244339
0.0243801
0.0242257
0.0239816
0.0236543
0.0232602
0.0228033
0.0223083
0.0217698
0.021231
0.0206622
0.0201513
0.0196055
0.0192206
0.018725
0.0185564
0.0179407
0.0107005
0.00715831
0.00504555
0.00376609
0.00299027
0.002493
0.00212397
0.00181816
0.00156444
0.0013798
0.00128115
0.00128759
0.00140951
0.00165062
0.00200084
0.00244975
0.00298144
0.00359258
0.00427447
0.0050265
0.00584743
0.00673562
0.00768776
0.00869875
0.00975846
0.0108572
0.0119879
0.0131336
0.0142834
0.0154228
0.0165401
0.0176228
0.0186583
0.0196348
0.0205411
0.0213668
0.0221028
0.0227416
0.0232782
0.0237096
0.0240355
0.0242556
0.024369
0.0243741
0.0242754
0.0240799
0.0237996
0.0234421
0.023024
0.0225499
0.0220438
0.0215007
0.0209616
0.0203984
0.0198947
0.0193623
0.018989
0.0185124
0.0183566
0.0177605
0.0107087
0.00718269
0.00507692
0.00379514
0.00302186
0.00254354
0.00220797
0.00193594
0.00170447
0.00152758
0.00142593
0.00142374
0.00153675
0.00177322
0.00212579
0.00258389
0.00313064
0.00375995
0.00446224
0.0052352
0.0060766
0.00698414
0.00795407
0.00898074
0.0100539
0.0111639
0.0123024
0.0134527
0.0146039
0.0157414
0.0168532
0.0179263
0.0189479
0.0199059
0.020789
0.0215868
0.0222903
0.0228922
0.0233878
0.0237748
0.0240534
0.0242242
0.0242878
0.0242441
0.0240995
0.0238625
0.023546
0.0231588
0.0227178
0.0222282
0.021713
0.0211678
0.0206311
0.0200766
0.0195831
0.019067
0.0187078
0.0182533
0.0181119
0.0175405
0.0107156
0.00720435
0.00510535
0.00382007
0.00304449
0.00257789
0.00227114
0.00203467
0.00183242
0.00167154
0.00157356
0.00156677
0.00167233
0.00190355
0.00225683
0.00272232
0.00328253
0.00392876
0.00465027
0.00544297
0.00630349
0.00722881
0.00821465
0.00925485
0.010339
0.0114575
0.0126005
0.0137522
0.0149013
0.0160335
0.0171361
0.0181958
0.0191996
0.0201353
0.0209914
0.0217575
0.0224248
0.0229862
0.0234376
0.023777
0.0240055
0.0241247
0.0241366
0.0240429
0.0238516
0.0235727
0.0232202
0.0228042
0.0223415
0.0218383
0.0213162
0.0207717
0.0202403
0.0196976
0.0192172
0.0187206
0.0183782
0.0179489
0.0178239
0.017282
0.0107215
0.00722357
0.00513123
0.00384205
0.00306055
0.00259876
0.00231441
0.00211215
0.00194368
0.00180639
0.00171941
0.00171325
0.00181396
0.00204015
0.00239289
0.00286398
0.00343593
0.00409765
0.00483707
0.00564822
0.00652648
0.00746796
0.00846784
0.0095194
0.0106121
0.0117363
0.0128805
0.0140304
0.015174
0.0162972
0.0173868
0.0184293
0.0194115
0.020321
0.0211463
0.0218769
0.0225043
0.0230218
0.0234255
0.0237144
0.0238902
0.0239557
0.0239142
0.0237694
0.0235309
0.02321
0.022822
0.0223781
0.0218953
0.0213804
0.0208539
0.0203128
0.0197899
0.0192621
0.0187981
0.0183243
0.0180013
0.0176003
0.017494
0.0169865
0.0107263
0.0072406
0.00515486
0.00386193
0.00307209
0.00260901
0.0023397
0.00216757
0.00203457
0.00192692
0.00185822
0.00185879
0.0019584
0.00218076
0.00253221
0.00300729
0.00358917
0.00426482
0.00502071
0.00584893
0.00674349
0.00769952
0.00871155
0.00977232
0.0108711
0.0119979
0.0131403
0.0142851
0.0154199
0.0165305
0.0176033
0.0186248
0.0195815
0.0204609
0.0212514
0.0219428
0.0225267
0.0229967
0.0233498
0.0235853
0.0237059
0.0237157
0.0236194
0.0234227
0.0231365
0.022774
0.0223512
0.0218806
0.0213794
0.020855
0.0203267
0.019792
0.0192807
0.0187713
0.0183269
0.0178792
0.0175785
0.0172091
0.0171238
0.0166552
0.0107304
0.00725567
0.00517648
0.00388031
0.00308078
0.00261145
0.00234966
0.00220152
0.00210268
0.00202844
0.00198449
0.00199824
0.00210142
0.00232215
0.0026723
0.00315002
0.00374006
0.00442797
0.00519877
0.00604261
0.00695197
0.00792092
0.00894324
0.0100111
0.0111135
0.0122398
0.0133775
0.0145139
0.0156364
0.0167307
0.0177831
0.0187797
0.019707
0.0205525
0.0213045
0.0219529
0.0224897
0.0229091
0.0232083
0.0233878
0.023451
0.0234034
0.0232512
0.0230019
0.0226681
0.0222643
0.0218078
0.021312
0.0207945
0.020263
0.0197357
0.0192104
0.018714
0.0182264
0.017805
0.0173867
0.0171112
0.0167767
0.0167147
0.0162898
0.0107337
0.00726901
0.00519628
0.00389758
0.00308789
0.00260861
0.00234736
0.00221578
0.00214704
0.00210726
0.0020929
0.00212599
0.00223798
0.00246017
0.00280976
0.00328921
0.00388572
0.00458416
0.00536824
0.00622617
0.00714882
0.00812904
0.00915982
0.0102327
0.0113363
0.0124591
0.0135892
0.014714
0.0158207
0.0168951
0.0179233
0.0188912
0.0197854
0.020593
0.0213028
0.0219047
0.022391
0.0227564
0.0229991
0.0231201
0.023124
0.0230175
0.0228085
0.0225064
0.0221253
0.0216812
0.0211922
0.0206732
0.0201414
0.0196055
0.0190821
0.0185695
0.0180912
0.017629
0.0172339
0.0168484
0.0166011
0.0163046
0.0162687
0.0158918
0.0107365
0.00728081
0.00521441
0.003914
0.00309437
0.00260267
0.00233594
0.00221306
0.00216821
0.00216103
0.00217885
0.00223638
0.00236246
0.00258985
0.00294037
0.00342113
0.00402262
0.00472983
0.00552548
0.00639591
0.00733029
0.00832016
0.0093576
0.0104334
0.0115358
0.0126524
0.0137719
0.014882
0.0159695
0.0170205
0.0180208
0.0189563
0.0198134
0.0205796
0.0212434
0.0217953
0.0222279
0.0225365
0.02272
0.0227804
0.0227233
0.0225569
0.0222907
0.0219359
0.0215082
0.0210249
0.0205053
0.019965
0.0194217
0.0188841
0.0183678
0.0178711
0.0174144
0.0169809
0.0166154
0.0162662
0.0160501
0.0157947
0.0157874
0.0154627
0.0107388
0.00729126
0.00523101
0.00392969
0.00310084
0.00259539
0.00231842
0.00219668
0.00216809
0.002189
0.00223891
0.00232421
0.00246904
0.00270562
0.00305914
0.00354131
0.00414651
0.00486076
0.00566618
0.00654744
0.00749196
0.00848988
0.00953223
0.010609
0.0117076
0.0128155
0.0139218
0.015014
0.0160791
0.0171032
0.0180719
0.0189713
0.0197879
0.0205089
0.0211234
0.021622
0.0219978
0.0222469
0.0223689
0.0223669
0.0222476
0.0220206
0.0216971
0.0212903
0.0208171
0.0202963
0.0197482
0.0191893
0.0186371
0.0181009
0.0175948
0.0171174
0.0166858
0.0162844
0.015952
0.0156421
0.0154601
0.015249
0.0152729
0.0150043
0.0107407
0.00730053
0.00524621
0.00394473
0.00310766
0.0025881
0.00229748
0.00217018
0.00214967
0.00219205
0.00227118
0.00238531
0.00255224
0.00280167
0.00316056
0.00364464
0.00425253
0.00497207
0.00578541
0.00667573
0.00762877
0.00863311
0.00967868
0.0107545
0.011847
0.0129439
0.0140342
0.0151056
0.0161452
0.0171389
0.0180728
0.0189326
0.019705
0.0203776
0.0209394
0.0213816
0.021698
0.0218852
0.0219438
0.021878
0.0216957
0.0214079
0.0210277
0.0205698
0.0200528
0.0194968
0.0189227
0.018348
0.0177902
0.0172587
0.0167662
0.0163114
0.0159082
0.0155422
0.0152461
0.0149788
0.0148338
0.0146697
0.0147275
0.0145185
0.0107422
0.00730877
0.00526012
0.00395914
0.00311503
0.00258173
0.00227533
0.00213702
0.00211663
0.00217253
0.00227553
0.0024169
0.00260741
0.00287244
0.00323892
0.00372561
0.00433532
0.00505843
0.00587767
0.00677515
0.00773497
0.00874412
0.00979124
0.0108643
0.0119487
0.0130322
0.014104
0.0151519
0.0161629
0.0171233
0.0180189
0.0188358
0.0195608
0.0201817
0.0206879
0.0210711
0.0213256
0.021449
0.0214427
0.0213122
0.0210666
0.0207185
0.0202825
0.0197753
0.0192169
0.0186283
0.0180314
0.0174442
0.0168841
0.0163608
0.0158853
0.0154566
0.015085
0.0147577
0.0145009
0.014279
0.0141737
0.0140595
0.0141535
0.0140075
0.0107434
0.0073161
0.00527286
0.00397292
0.00312299
0.00257685
0.00225372
0.00210037
0.00207299
0.00213394
0.00225357
0.00241802
0.00263126
0.00291313
0.00328878
0.00377865
0.00438933
0.00511416
0.0059371
0.00683963
0.00780434
0.00881657
0.00986359
0.0109321
0.0120064
0.0130747
0.0141257
0.0151475
0.0161272
0.0170512
0.0179056
0.0186766
0.0193512
0.0199175
0.0203655
0.0206872
0.0208779
0.020936
0.0208639
0.0206683
0.0203598
0.0199524
0.0194625
0.0189084
0.0183114
0.0176936
0.0170775
0.0164816
0.015923
0.0154114
0.0149565
0.0145571
0.0142203
0.0139346
0.01372
0.0135461
0.0134831
0.013421
0.0135538
0.0134736
0.0107444
0.00732265
0.00528453
0.00398607
0.0031315
0.00257376
0.00223389
0.00206288
0.00202272
0.00208057
0.00220844
0.00238963
0.00262229
0.00292028
0.0033055
0.00379862
0.00440917
0.00513364
0.00595775
0.00686285
0.00783027
0.0088437
0.00988891
0.0109512
0.0120137
0.0130647
0.0140929
0.0150863
0.0160322
0.0169173
0.0177277
0.0184501
0.0190716
0.019581
0.0199684
0.0202269
0.0203523
0.0203441
0.0202059
0.0199456
0.0195753
0.0191105
0.0185692
0.0179713
0.0173393
0.0166964
0.0160653
0.015465
0.014912
0.014416
0.0139851
0.0136181
0.0133191
0.0130776
0.0129076
0.0127841
0.0127655
0.0127576
0.0129313
0.0129192
0.0107452
0.00732853
0.00529524
0.00399858
0.00314046
0.00257256
0.00221665
0.00202667
0.00196943
0.002017
0.00214449
0.00233449
0.00258099
0.00289219
0.00328577
0.00378123
0.00439005
0.00511163
0.00593389
0.00683861
0.00780613
0.00881856
0.00986008
0.0109144
0.0119636
0.0129957
0.0139992
0.0149622
0.0158721
0.0167158
0.01748
0.0181514
0.0187177
0.019168
0.0194933
0.0196871
0.0197464
0.0196717
0.0194678
0.019144
0.0187138
0.0181942
0.0176049
0.0169673
0.0163049
0.0156417
0.0150004
0.0144003
0.0138573
0.0133808
0.0129774
0.0126458
0.0123871
0.012192
0.0120688
0.0119974
0.012025
0.012073
0.0122895
0.0123473
0.0107458
0.00733382
0.00530509
0.00401046
0.00314976
0.00257317
0.00220242
0.00199327
0.00191618
0.0019477
0.00206674
0.00225692
0.00250993
0.00282926
0.00322811
0.00372371
0.00432831
0.00504382
0.00586056
0.00676123
0.00772561
0.00873435
0.00976997
0.0108145
0.0118488
0.0128604
0.0138376
0.0147684
0.0156406
0.0164411
0.017157
0.0177756
0.0182849
0.0186747
0.0189367
0.0190652
0.0190583
0.0189176
0.0186493
0.018264
0.0177768
0.0172062
0.0165733
0.015901
0.0152136
0.0145355
0.0138896
0.0132949
0.0127666
0.0123135
0.0119409
0.0116474
0.0114312
0.0112841
0.0112092
0.011191
0.0112663
0.0113711
0.011632
0.0117609
0.0107463
0.0073386
0.00531416
0.00402172
0.00315925
0.00257542
0.00219136
0.00196367
0.00186537
0.00187671
0.00198042
0.00216231
0.00241347
0.00273409
0.00313322
0.00362517
0.00422195
0.00492733
0.00573401
0.00662609
0.00758325
0.00858488
0.00961187
0.0106446
0.0116623
0.0126519
0.0136013
0.0144986
0.0153314
0.0160873
0.0167535
0.0173179
0.0177692
0.0180976
0.0182958
0.0183591
0.0182867
0.0180814
0.0177509
0.0173073
0.0167671
0.0161502
0.0154794
0.0147784
0.0140724
0.013386
0.0127416
0.012158
0.0116491
0.0112235
0.0108848
0.0106314
0.0104593
0.0103612
0.0103354
0.0103711
0.0104948
0.0106568
0.010963
0.0111636
0.0107467
0.00734296
0.00532254
0.00403237
0.00316883
0.0025791
0.00218338
0.00193839
0.00181873
0.00180738
0.00189049
0.00205653
0.00229735
0.0026113
0.0030041
0.00348705
0.00407113
0.00476124
0.00555233
0.00643022
0.007375
0.00836514
0.00937999
0.0103983
0.0113974
0.0123635
0.0132838
0.0141463
0.0149388
0.0156489
0.0162646
0.016774
0.0171667
0.0174336
0.0175684
0.0175675
0.0174312
0.0171639
0.0167745
0.0162769
0.0156888
0.0150318
0.0143297
0.0136074
0.0128902
0.0122028
0.0115668
0.0110002
0.0105159
0.0101216
0.00981947
0.00960786
0.00948062
0.00943165
0.00945509
0.00954412
0.00971632
0.00993514
0.0102873
0.0105591
0.010747
0.00734694
0.0053303
0.00404245
0.00317839
0.00258396
0.00217826
0.00191761
0.00177735
0.00174228
0.00180126
0.00194542
0.00216809
0.00246712
0.00284596
0.00331321
0.00387844
0.00454705
0.00531593
0.00617289
0.00709888
0.00807196
0.00907009
0.0100707
0.0110488
0.0119895
0.0128795
0.0137061
0.0144574
0.0151212
0.0156858
0.0161402
0.0164745
0.0166808
0.0167534
0.0166902
0.0164928
0.016167
0.0157235
0.0151773
0.014548
0.0138584
0.0131332
0.0123979
0.0116782
0.0109979
0.0103778
0.0098347
0.00938003
0.00902059
0.00875723
0.00858824
0.00850589
0.00850517
0.00857684
0.00871782
0.0089377
0.00921205
0.00960993
0.0099517
0.0107473
0.0073506
0.00533752
0.00405197
0.00318784
0.00258976
0.00217568
0.0019012
0.00174177
0.0016832
0.00171624
0.00183425
0.00203236
0.00230877
0.00266575
0.00310983
0.00364908
0.00428898
0.00502803
0.00585613
0.00675564
0.00770469
0.00868026
0.00965871
0.0106127
0.0115258
0.0123838
0.0131737
0.0138832
0.0145004
0.0150143
0.0154141
0.0156911
0.0158381
0.0158509
0.0157285
0.0154739
0.0150947
0.0146029
0.0140154
0.013353
0.0126397
0.0119009
0.0111626
0.0104499
0.00978571
0.00918955
0.00867652
0.00825646
0.00793506
0.00771201
0.0075856
0.00754706
0.00759255
0.00771035
0.00790071
0.00816644
0.00849401
0.00893672
0.00934608
0.0107475
0.007354
0.00534426
0.00406098
0.00319712
0.00259627
0.00217528
0.00188887
0.0017121
0.00163116
0.00163794
0.00172741
0.00189635
0.00214377
0.00247156
0.00288489
0.0033906
0.00399399
0.00469487
0.00548523
0.0063493
0.00726592
0.00821159
0.00916211
0.0100876
0.0109702
0.0117943
0.0125464
0.0132137
0.0137846
0.0142483
0.0145949
0.0148164
0.0149068
0.0148631
0.0146857
0.0143794
0.0139531
0.0134207
0.0128006
0.0121148
0.0113882
0.0106468
0.00991651
0.00922143
0.00858319
0.00801927
0.00754293
0.00716214
0.00688139
0.00669936
0.00661443
0.00661746
0.00670584
0.00686637
0.00710225
0.00741089
0.00778821
0.00827391
0.00874732
0.0107476
0.00735716
0.00535058
0.00406951
0.00320617
0.0026033
0.00217672
0.00188017
0.00168812
0.0015866
0.00156798
0.00162823
0.00176534
0.0019792
0.0022718
0.00264759
0.00311246
0.00367151
0.0043256
0.00506881
0.00588755
0.00676205
0.007669