/*--------------------------------*- C++ -*----------------------------------*\
| =========                 |                                                 |
| \\      /  F ield         | OpenFOAM: The Open Source CFD Toolbox           |
|  \\    /   O peration     | Version:  2.4.0                                 |
|   \\  /    A nd           | Web:      www.OpenFOAM.org                      |
|    \\/     M anipulation  |                                                 |
\*---------------------------------------------------------------------------*/
FoamFile
{
    version     2.0;
    format      ascii;
    class       volScalarField;
    location    "1.74";
    object      p;
}
// * * * * * * * * * * * * * * * * * * * * * * * * * * * * * * * * * * * * * //

dimensions      [0 2 -2 0 0 0 0];

internalField   nonuniform List<scalar> 
6000
(
-0.0717424
0.285136
0.242124
0.261995
0.254339
0.259381
0.255234
0.259509
0.258278
0.239509
0.210795
0.203887
0.206938
0.186369
0.132349
0.0618577
-0.000200383
-0.038971
-0.0473625
-0.0247721
0.0243576
0.0929757
0.17115
0.247464
0.311809
0.359209
0.390215
0.408086
0.417158
0.420868
0.421636
0.420941
0.419655
0.418267
0.417014
0.415964
0.415084
0.414284
0.413446
0.412442
0.41114
0.409409
0.407122
0.40416
0.400408
0.395764
0.390126
0.383389
0.37543
0.366089
0.355149
0.342318
0.32717
0.309177
0.287398
0.261169
0.227413
0.188232
0.12512
0.0790638
-0.0454085
0.281725
0.24221
0.261849
0.254359
0.259373
0.255161
0.259295
0.258098
0.239562
0.210953
0.203875
0.207354
0.187665
0.133831
0.0624092
-0.000621846
-0.0399638
-0.0487994
-0.0267393
0.022486
0.0911534
0.169552
0.246239
0.311001
0.358748
0.389996
0.40799
0.417123
0.420845
0.421609
0.420904
0.419608
0.418213
0.416953
0.415897
0.415011
0.414203
0.413356
0.41234
0.411023
0.409274
0.406966
0.403977
0.400197
0.39552
0.389846
0.383069
0.375064
0.365672
0.354676
0.341782
0.326559
0.308478
0.286593
0.260231
0.226329
0.186883
0.123697
0.0771947
-0.0285279
0.278279
0.242239
0.261767
0.254358
0.259359
0.255076
0.259072
0.25787
0.239483
0.210784
0.203834
0.207593
0.187713
0.133054
0.0613033
-0.00169238
-0.0410403
-0.0499328
-0.0279563
0.0209211
0.0895297
0.168075
0.245099
0.310271
0.358354
0.389821
0.407912
0.417095
0.42082
0.421574
0.420857
0.419551
0.418147
0.416882
0.415822
0.414932
0.414121
0.413268
0.412246
0.410922
0.409165
0.406847
0.403847
0.400055
0.395365
0.389677
0.382886
0.374868
0.365462
0.35445
0.341536
0.326289
0.308177
0.286255
0.259828
0.22587
0.186257
0.123003
0.0763247
-0.0163178
0.274435
0.242442
0.261683
0.254353
0.259339
0.254988
0.258849
0.257689
0.239444
0.210637
0.203793
0.207612
0.186808
0.131048
0.0595218
-0.0030584
-0.0424588
-0.0516482
-0.0298758
0.0189512
0.0876231
0.166424
0.243885
0.309547
0.358009
0.389702
0.407867
0.417089
0.420805
0.421539
0.420802
0.419479
0.418064
0.416791
0.415725
0.414831
0.414014
0.413156
0.412127
0.410793
0.409025
0.406693
0.403677
0.399865
0.395153
0.389439
0.382619
0.374567
0.365124
0.354068
0.341104
0.3258
0.30762
0.285616
0.259106
0.225005
0.185328
0.121916
0.0753273
-0.00452768
0.270312
0.242805
0.2616
0.254355
0.259312
0.25489
0.258615
0.257531
0.239465
0.210529
0.203759
0.207332
0.185284
0.128711
0.0576091
-0.00462016
-0.0441799
-0.0536327
-0.0320521
0.016718
0.0854914
0.164601
0.242573
0.308798
0.357688
0.389636
0.40786
0.417116
0.420811
0.421513
0.420747
0.419403
0.417974
0.416691
0.415619
0.414719
0.413898
0.413034
0.411997
0.410655
0.408876
0.406532
0.403502
0.399673
0.394941
0.389207
0.382365
0.37429
0.364821
0.353738
0.340743
0.325403
0.307178
0.285122
0.258528
0.22438
0.184496
0.121001
0.0744308
0.00703652
0.266074
0.243287
0.261503
0.254372
0.259281
0.254776
0.25835
0.257348
0.239533
0.210522
0.203753
0.206764
0.183349
0.12622
0.0556008
-0.00645106
-0.0462366
-0.0559353
-0.0345334
0.0141854
0.0830778
0.16254
0.241098
0.307972
0.357357
0.389583
0.407895
0.417171
0.420837
0.421498
0.420696
0.419326
0.417879
0.416585
0.415506
0.414602
0.413775
0.412906
0.411863
0.410513
0.408724
0.406367
0.403322
0.399476
0.394726
0.388971
0.382105
0.374003
0.364505
0.353389
0.340355
0.324967
0.306687
0.28456
0.257891
0.223605
0.183652
0.120016
0.0735817
0.0177532
0.26182
0.243809
0.261377
0.254405
0.259248
0.254643
0.258033
0.257123
0.239654
0.210708
0.203817
0.206025
0.181146
0.123584
0.0534505
-0.00858775
-0.0486223
-0.0585658
-0.0373367
0.0113353
0.0803592
0.160213
0.239433
0.307048
0.357
0.389533
0.407959
0.417245
0.420876
0.421489
0.420646
0.419244
0.417778
0.416472
0.415387
0.414478
0.413648
0.412774
0.411725
0.410368
0.40857
0.406202
0.403143
0.399281
0.394511
0.388735
0.381846
0.373719
0.364192
0.353044
0.339973
0.324543
0.306212
0.284023
0.257275
0.222908
0.182831
0.119056
0.0727978
0.0275657
0.257626
0.244299
0.261231
0.254453
0.259214
0.254494
0.257654
0.256861
0.239849
0.211195
0.204092
0.205204
0.178813
0.120882
0.0511361
-0.0110135
-0.051316
-0.0615165
-0.0404626
0.00816451
0.0773277
0.157606
0.237557
0.306006
0.356605
0.389484
0.40804
0.417331
0.420924
0.421484
0.420593
0.419158
0.417669
0.416352
0.41526
0.414348
0.413515
0.412638
0.411584
0.410221
0.408415
0.406037
0.402965
0.399087
0.3943
0.388502
0.38159
0.373438
0.363884
0.352704
0.339598
0.324126
0.305744
0.283494
0.256669
0.222201
0.182027
0.11812
0.0720725
0.0367041
0.253552
0.244703
0.261083
0.254501
0.259182
0.254333
0.257218
0.256555
0.24016
0.212083
0.204693
0.20444
0.176468
0.118201
0.0486538
-0.0137029
-0.0543012
-0.0647741
-0.0438999
0.00468173
0.0739871
0.154714
0.235458
0.304825
0.356155
0.389431
0.408133
0.417425
0.420977
0.421479
0.420537
0.419065
0.417552
0.416222
0.415124
0.414208
0.413374
0.412495
0.411439
0.410071
0.408258
0.405871
0.402788
0.398895
0.394091
0.388274
0.381339
0.373163
0.363581
0.352372
0.339231
0.323718
0.305287
0.282976
0.256078
0.221516
0.181249
0.117222
0.0714016
0.0453237
0.249639
0.244997
0.260934
0.25454
0.259155
0.254165
0.256739
0.256211
0.240632
0.213476
0.205742
0.203812
0.174195
0.115578
0.0460111
-0.0166344
-0.0575604
-0.0683205
-0.0476305
0.000903705
0.0703502
0.151542
0.233128
0.303493
0.355632
0.38936
0.408232
0.417525
0.42103
0.421472
0.420476
0.418964
0.417426
0.416082
0.414977
0.41406
0.413224
0.412344
0.411286
0.409915
0.408098
0.405704
0.40261
0.398705
0.393884
0.388048
0.381093
0.372892
0.363285
0.352046
0.338872
0.323319
0.304841
0.282472
0.255504
0.220851
0.180498
0.116364
0.0707772
0.0534773
0.24591
0.245173
0.260763
0.254597
0.259134
0.253997
0.256235
0.25584
0.241298
0.21546
0.207306
0.203381
0.17205
0.113014
0.0432232
-0.0197865
-0.0610714
-0.0721319
-0.0516304
-0.00314687
0.066436
0.148102
0.230571
0.302
0.355021
0.389258
0.408327
0.417625
0.421082
0.421461
0.420409
0.418855
0.417291
0.415932
0.414821
0.413902
0.413066
0.412186
0.411127
0.409755
0.407934
0.405534
0.402432
0.398514
0.393679
0.387825
0.380849
0.372626
0.362994
0.351727
0.338521
0.32293
0.304406
0.281981
0.254944
0.220207
0.179771
0.115549
0.0701912
0.0611939
0.242378
0.245232
0.26057
0.254678
0.259119
0.253834
0.255722
0.255459
0.2422
0.218028
0.209396
0.203189
0.170072
0.110507
0.0403088
-0.0231345
-0.0648072
-0.0761801
-0.0558715
-0.00744284
0.0622682
0.144411
0.227795
0.300347
0.354315
0.389107
0.408409
0.417722
0.42113
0.421445
0.420336
0.418739
0.417147
0.415773
0.414656
0.413734
0.412899
0.412019
0.410961
0.409588
0.407765
0.405361
0.402251
0.398324
0.393474
0.387604
0.380609
0.372364
0.362707
0.351414
0.338176
0.322549
0.30398
0.281502
0.2544
0.219582
0.179067
0.114772
0.0696368
0.0685089
0.239053
0.245181
0.260346
0.254786
0.259104
0.25368
0.255215
0.255083
0.243332
0.221119
0.211962
0.203249
0.168286
0.108058
0.0372891
-0.0266508
-0.068737
-0.0804329
-0.0603216
-0.0119535
0.057874
0.14049
0.224812
0.298535
0.353508
0.388894
0.408464
0.417808
0.42117
0.421421
0.420254
0.418614
0.416995
0.415605
0.414481
0.413558
0.412723
0.411845
0.410788
0.409415
0.407592
0.405185
0.40207
0.398133
0.393271
0.387385
0.380371
0.372105
0.362425
0.351105
0.337838
0.322175
0.303564
0.281034
0.253868
0.218973
0.178385
0.114032
0.0691088
0.0754576
0.235941
0.245029
0.260081
0.254924
0.259076
0.253541
0.254724
0.254721
0.244656
0.224628
0.21491
0.203551
0.166704
0.10567
0.0341874
-0.0303055
-0.072827
-0.0848552
-0.0649462
-0.0166452
0.0532837
0.136363
0.221638
0.29657
0.352591
0.388622
0.408484
0.417875
0.421198
0.421388
0.420164
0.418481
0.416834
0.415429
0.414299
0.413374
0.412539
0.411662
0.410607
0.409236
0.407413
0.405005
0.401886
0.397941
0.393068
0.387167
0.380136
0.37185
0.362148
0.350803
0.337506
0.321809
0.303157
0.280576
0.25335
0.218382
0.177723
0.113326
0.0686035
0.0820681
0.233045
0.244786
0.25977
0.25508
0.259032
0.253418
0.254258
0.25438
0.246112
0.228424
0.218121
0.20407
0.165327
0.103344
0.0310285
-0.0340665
-0.0770415
-0.0894102
-0.0697084
-0.0214823
0.0485303
0.132055
0.218289
0.294461
0.35157
0.388281
0.408459
0.417918
0.42121
0.421343
0.420065
0.418341
0.416666
0.415246
0.414109
0.413182
0.412348
0.411473
0.41042
0.409052
0.407231
0.404822
0.4017
0.397749
0.392866
0.386951
0.379903
0.371599
0.361875
0.350505
0.33718
0.321451
0.302759
0.280129
0.252844
0.217806
0.177081
0.112652
0.0681182
0.0883621
0.230363
0.244464
0.259413
0.255242
0.258978
0.253314
0.25382
0.254063
0.24764
0.232308
0.221479
0.204778
0.164148
0.101088
0.027838
-0.0379006
-0.0813434
-0.09406
-0.0745707
-0.0264274
0.0436485
0.127597
0.214786
0.292219
0.35045
0.387871
0.408384
0.417929
0.421201
0.421284
0.419956
0.418192
0.416491
0.415056
0.413912
0.412983
0.41215
0.411277
0.410226
0.408861
0.407043
0.404636
0.401513
0.397557
0.392664
0.386737
0.379674
0.371351
0.361606
0.350213
0.336861
0.3211
0.30237
0.279693
0.252351
0.217246
0.176457
0.112007
0.0676512
0.0943584
0.227892
0.244075
0.259011
0.255394
0.258918
0.253228
0.253416
0.253775
0.249184
0.236183
0.224884
0.205643
0.163155
0.0989078
0.0246417
-0.0417743
-0.0856957
-0.0987665
-0.0794949
-0.0314427
0.0386746
0.123018
0.211149
0.289853
0.349235
0.387389
0.408254
0.417902
0.421167
0.421208
0.419836
0.418036
0.41631
0.414861
0.41371
0.41278
0.411946
0.411074
0.410027
0.408665
0.406851
0.404446
0.401323
0.397364
0.392463
0.386525
0.379447
0.371106
0.361342
0.349926
0.336548
0.320756
0.301989
0.279267
0.251869
0.216702
0.175852
0.11139
0.0672012
0.100074
0.225625
0.243633
0.258566
0.255528
0.258856
0.253158
0.253051
0.253516
0.250703
0.239961
0.228257
0.206637
0.162333
0.0968106
0.0214656
-0.0456542
-0.0900617
-0.103492
-0.0844433
-0.0364904
0.0336456
0.118351
0.207402
0.287379
0.34793
0.386836
0.408067
0.417833
0.421104
0.421114
0.419705
0.417872
0.416123
0.414661
0.413504
0.412571
0.411738
0.410867
0.409822
0.408464
0.406654
0.404253
0.401131
0.39717
0.392263
0.386315
0.379222
0.370866
0.361082
0.349645
0.336242
0.32042
0.301617
0.278851
0.251401
0.216173
0.175265
0.1108
0.0667672
0.105523
0.223558
0.243148
0.258084
0.255637
0.258796
0.253099
0.252729
0.253288
0.252165
0.243577
0.231546
0.207733
0.16167
0.0948048
0.0183347
-0.0495076
-0.0944057
-0.108201
-0.0893795
-0.0415334
0.0285983
0.113629
0.20357
0.28481
0.346544
0.386214
0.40782
0.417718
0.421009
0.420998
0.41956
0.417701
0.415932
0.414457
0.413295
0.412359
0.411525
0.410655
0.409612
0.408258
0.406453
0.404057
0.400938
0.396975
0.392064
0.386106
0.379001
0.370629
0.360827
0.349369
0.335943
0.320092
0.301255
0.278447
0.250945
0.21566
0.174697
0.110236
0.0663488
0.11072
0.221681
0.242633
0.257569
0.255714
0.258734
0.253059
0.252449
0.253093
0.253551
0.246994
0.234714
0.208906
0.16115
0.0928982
0.0152731
-0.053303
-0.0986939
-0.112857
-0.0942684
-0.0465358
0.023569
0.108885
0.199679
0.282161
0.345084
0.385523
0.407514
0.417555
0.420879
0.420859
0.4194
0.417521
0.415736
0.414251
0.413083
0.412145
0.41131
0.41044
0.409399
0.408048
0.406248
0.403858
0.400742
0.39678
0.391865
0.385899
0.378783
0.370396
0.360577
0.3491
0.33565
0.319772
0.300901
0.278053
0.250502
0.215162
0.174147
0.109696
0.0659455
0.115678
0.219988
0.242097
0.257028
0.255757
0.258666
0.25304
0.252214
0.252932
0.254846
0.250186
0.237736
0.210135
0.160758
0.0910986
0.0123039
-0.0570108
-0.102894
-0.11743
-0.0990771
-0.0514638
0.0185927
0.104152
0.195755
0.279449
0.343559
0.384766
0.407147
0.417342
0.420711
0.420694
0.419226
0.417334
0.415536
0.414043
0.41287
0.41193
0.411093
0.410222
0.409182
0.407835
0.40604
0.403655
0.400544
0.396584
0.391666
0.385694
0.378567
0.370167
0.360332
0.348836
0.335364
0.31946
0.300557
0.27767
0.250071
0.214679
0.173616
0.10918
0.0655568
0.120407
0.218469
0.241551
0.256467
0.255764
0.258588
0.253046
0.252029
0.252809
0.256043
0.253146
0.240599
0.211399
0.160482
0.089413
0.00944839
-0.0606031
-0.106977
-0.121887
-0.103775
-0.0562854
0.0137029
0.0994643
0.191826
0.276697
0.341971
0.383945
0.406721
0.417079
0.420504
0.420503
0.419035
0.417138
0.415333
0.413833
0.412657
0.411714
0.410875
0.410003
0.408963
0.407618
0.405829
0.40345
0.400345
0.396387
0.391469
0.385491
0.378355
0.369941
0.360091
0.348577
0.335085
0.319156
0.300222
0.277297
0.249653
0.214212
0.173103
0.108688
0.0651825
0.12492
0.217115
0.241003
0.255891
0.255734
0.258497
0.253074
0.251894
0.252731
0.257139
0.255869
0.243294
0.212681
0.160309
0.0878477
0.00672622
-0.064054
-0.110914
-0.126201
-0.108332
-0.0609709
0.00893147
0.094852
0.187918
0.27392
0.340333
0.383063
0.406234
0.416763
0.420258
0.420283
0.418827
0.416933
0.415126
0.413623
0.412444
0.411499
0.410657
0.409783
0.408742
0.407399
0.405615
0.403243
0.400144
0.39619
0.391272
0.385289
0.378145
0.36972
0.359856
0.348325
0.334813
0.31886
0.299897
0.276937
0.249249
0.213761
0.172608
0.108218
0.0648224
0.129226
0.215916
0.240459
0.255308
0.255669
0.258392
0.253123
0.251805
0.252711
0.258135
0.25836
0.245816
0.213964
0.160225
0.0864081
0.00415534
-0.06734
-0.11468
-0.130346
-0.112724
-0.0654929
0.00430794
0.0903456
0.184052
0.271141
0.338654
0.382124
0.405688
0.416396
0.41997
0.420035
0.418601
0.416719
0.414916
0.413413
0.412232
0.411285
0.410441
0.409563
0.40852
0.407179
0.405398
0.403033
0.399941
0.395993
0.391075
0.38509
0.377938
0.369503
0.359626
0.348079
0.334548
0.318573
0.299582
0.276587
0.248858
0.213326
0.172131
0.10777
0.0644763
0.133336
0.214864
0.239926
0.254722
0.255572
0.258271
0.25319
0.251758
0.252757
0.25903
0.260623
0.248164
0.215232
0.16022
0.0850986
0.00175183
-0.0704397
-0.118253
-0.134298
-0.116924
-0.0698261
-0.00014007
0.0859732
0.18025
0.268382
0.336946
0.381131
0.405084
0.415976
0.419641
0.419757
0.418356
0.416495
0.414703
0.413204
0.412023
0.411074
0.410226
0.409344
0.408299
0.406958
0.405181
0.402822
0.399737
0.395794
0.390879
0.384892
0.377734
0.36929
0.359401
0.34784
0.334291
0.318294
0.299276
0.276248
0.248479
0.212906
0.171672
0.107343
0.0641438
0.137259
0.213949
0.239409
0.254139
0.255445
0.258134
0.253272
0.251755
0.252869
0.259828
0.262664
0.250334
0.216471
0.160283
0.0839229
-0.000470081
-0.0733337
-0.12161
-0.138034
-0.120911
-0.0739473
-0.00438722
0.0817611
0.176542
0.265657
0.335217
0.380089
0.404422
0.415504
0.41927
0.419449
0.418092
0.416261
0.414487
0.412995
0.411816
0.410865
0.410014
0.409128
0.408079
0.406736
0.404962
0.40261
0.399532
0.395596
0.390684
0.384696
0.377533
0.369081
0.359181
0.347606
0.334041
0.318023
0.29898
0.275922
0.248114
0.212502
0.171232
0.106937
0.0638248
0.141005
0.213162
0.238911
0.253564
0.255292
0.257982
0.253366
0.251795
0.25304
0.260541
0.264488
0.252329
0.217667
0.160401
0.0828834
-0.00249799
-0.076005
-0.124733
-0.141534
-0.124664
-0.0778353
-0.00841045
0.0777343
0.172952
0.262981
0.333478
0.379001
0.403705
0.414981
0.418858
0.419111
0.417809
0.416017
0.414267
0.412787
0.411612
0.410661
0.409805
0.408914
0.40786
0.406516
0.404743
0.402396
0.399327
0.395397
0.390489
0.384502
0.377336
0.368876
0.358966
0.347379
0.333798
0.317761
0.298695
0.275606
0.247763
0.212114
0.170809
0.106551
0.0635191
0.144582
0.212494
0.238436
0.253
0.255118
0.257817
0.253469
0.251877
0.253254
0.261191
0.266097
0.254146
0.218808
0.160565
0.0819818
-0.00432137
-0.0784382
-0.127604
-0.144779
-0.128162
-0.0814706
-0.0121887
0.073915
0.169501
0.260372
0.331739
0.377873
0.402933
0.414407
0.418404
0.418742
0.417505
0.415761
0.414043
0.41258
0.411411
0.41046
0.409601
0.408704
0.407644
0.406296
0.404525
0.402183
0.399121
0.395199
0.390296
0.384309
0.377141
0.368675
0.358756
0.347158
0.333563
0.317508
0.298419
0.275303
0.247425
0.211741
0.170405
0.106185
0.0632266
0.147999
0.211937
0.237987
0.252451
0.254926
0.257641
0.253577
0.251998
0.253508
0.261795
0.267487
0.255788
0.21988
0.160764
0.0812189
-0.00593149
-0.0806204
-0.130208
-0.14775
-0.131387
-0.084835
-0.0157031
0.0703218
0.16621
0.257847
0.330007
0.376707
0.402108
0.413782
0.41791
0.418344
0.417182
0.415495
0.413815
0.412374
0.411215
0.410264
0.409402
0.408498
0.407432
0.406079
0.404308
0.40197
0.398915
0.395
0.390103
0.384119
0.376949
0.368479
0.358552
0.346943
0.333335
0.317264
0.298153
0.275011
0.247101
0.211384
0.170018
0.105838
0.062947
0.151265
0.211483
0.237564
0.25192
0.254721
0.257458
0.253688
0.252155
0.253798
0.262366
0.26867
0.25725
0.220867
0.160988
0.0805943
-0.00732079
-0.0825409
-0.132529
-0.150431
-0.134323
-0.0879104
-0.0189381
0.0669668
0.163107
0.25542
0.328294
0.37551
0.401233
0.413108
0.417374
0.417915
0.416838
0.415217
0.413583
0.412169
0.411022
0.410074
0.409207
0.408297
0.407223
0.405865
0.404092
0.401757
0.398709
0.394802
0.389912
0.383931
0.37676
0.368286
0.358353
0.346736
0.333116
0.317029
0.297898
0.27473
0.24679
0.211043
0.169649
0.105509
0.0626803
0.154386
0.211123
0.237169
0.25141
0.254507
0.257268
0.2538
0.252342
0.25412
0.262904
0.269667
0.258525
0.221757
0.161226
0.0800993
-0.00847912
-0.0841899
-0.134556
-0.152805
-0.136951
-0.0906798
-0.0218838
0.0638718
0.160208
0.253106
0.326606
0.374283
0.400308
0.412385
0.4168
0.417457
0.416474
0.414928
0.413347
0.411964
0.410833
0.409889
0.409019
0.408101
0.407019
0.405655
0.403879
0.401546
0.398504
0.394605
0.389722
0.383745
0.376575
0.368098
0.35816
0.346534
0.332903
0.316802
0.297653
0.274462
0.246493
0.210718
0.169298
0.105199
0.0624262
0.157371
0.210851
0.236802
0.250922
0.254288
0.257076
0.253912
0.252554
0.254468
0.26341
0.270487
0.259607
0.222539
0.161473
0.0797257
-0.0094115
-0.0855507
-0.136274
-0.154856
-0.139252
-0.0931304
-0.0245262
0.0610533
0.157528
0.250916
0.324952
0.373032
0.399336
0.411614
0.416186
0.416969
0.416091
0.414627
0.413106
0.411761
0.410647
0.409709
0.408837
0.407911
0.40682
0.405448
0.403668
0.401337
0.3983
0.394409
0.389533
0.383561
0.376393
0.367915
0.357972
0.34634
0.332699
0.316585
0.297419
0.274206
0.24621
0.210409
0.168965
0.104907
0.0621847
0.160226
0.210659
0.236464
0.250457
0.254066
0.256884
0.254022
0.252786
0.254836
0.263882
0.271135
0.260499
0.223207
0.16172
0.0794702
-0.0101138
-0.0866208
-0.137673
-0.15657
-0.141211
-0.0952443
-0.0268516
0.0585246
0.15508
0.248863
0.323338
0.37176
0.398318
0.410798
0.415534
0.416454
0.415688
0.414315
0.41286
0.411558
0.410466
0.409535
0.408661
0.407728
0.406627
0.405246
0.403461
0.40113
0.398098
0.394214
0.389346
0.383379
0.376214
0.367735
0.35779
0.346152
0.332503
0.316377
0.297195
0.273962
0.24594
0.210115
0.168649
0.104632
0.0619557
0.162958
0.210542
0.236155
0.250017
0.253846
0.256695
0.254131
0.253033
0.255217
0.264315
0.271621
0.261199
0.223756
0.161956
0.0793284
-0.0105873
-0.0873948
-0.138741
-0.157932
-0.142808
-0.0970072
-0.0288485
0.0562972
0.152876
0.246955
0.321771
0.37047
0.397258
0.409937
0.414844
0.41591
0.415266
0.413991
0.41261
0.411355
0.410289
0.409368
0.408492
0.407551
0.40644
0.40505
0.403259
0.400926
0.397898
0.394021
0.38916
0.3832
0.376038
0.36756
0.357613
0.345971
0.332315
0.316179
0.296982
0.27373
0.245685
0.209837
0.168351
0.104375
0.061739
0.165573
0.210492
0.235874
0.249602
0.25363
0.256509
0.254236
0.253288
0.255603
0.264702
0.271955
0.261705
0.224181
0.162173
0.0792952
-0.0108337
-0.087868
-0.139468
-0.158928
-0.144029
-0.098407
-0.0305064
0.0543815
0.150927
0.245202
0.320255
0.369164
0.396156
0.409032
0.414118
0.415339
0.414825
0.413657
0.412355
0.411153
0.410116
0.409206
0.408329
0.407382
0.40626
0.40486
0.403061
0.400725
0.3977
0.39383
0.388977
0.383024
0.375866
0.36739
0.357442
0.345796
0.332134
0.315989
0.296779
0.27351
0.245443
0.209576
0.16807
0.104134
0.0615346
0.168078
0.210505
0.235622
0.249212
0.253419
0.256329
0.254339
0.253546
0.255985
0.265034
0.272148
0.262014
0.224479
0.162362
0.079365
-0.0108552
-0.0880371
-0.139847
-0.159544
-0.144859
-0.0994329
-0.0318166
0.0527862
0.149241
0.24361
0.318795
0.367845
0.395014
0.408085
0.413357
0.414741
0.414366
0.413311
0.412095
0.410951
0.409947
0.40905
0.408174
0.40722
0.406087
0.404675
0.402868
0.400529
0.397506
0.393642
0.388796
0.38285
0.375697
0.367224
0.357277
0.345629
0.331962
0.315809
0.296587
0.273303
0.245216
0.209329
0.167806
0.10391
0.0613424
0.170478
0.210574
0.235397
0.248848
0.253216
0.256157
0.254439
0.253803
0.256355
0.265304
0.272211
0.262123
0.224647
0.162516
0.0795316
-0.0106546
-0.0879003
-0.139869
-0.159769
-0.145288
-0.100075
-0.0327711
0.0515192
0.147824
0.242184
0.317393
0.366516
0.393834
0.407098
0.412562
0.414118
0.41389
0.412954
0.41183
0.410749
0.409782
0.4089
0.408026
0.407065
0.405922
0.404498
0.402681
0.400337
0.397314
0.393456
0.388618
0.382679
0.375532
0.367063
0.357117
0.345468
0.331798
0.315639
0.296406
0.273108
0.245003
0.209099
0.16756
0.103702
0.0611623
0.172777
0.210695
0.235199
0.248509
0.253023
0.255994
0.254535
0.254054
0.256705
0.265505
0.27215
0.262033
0.22468
0.162628
0.0797882
-0.0102362
-0.0874565
-0.139527
-0.159592
-0.145304
-0.100327
-0.0333636
0.0505865
0.146683
0.240928
0.316052
0.365177
0.392618
0.406071
0.411734
0.413469
0.413396
0.412588
0.411562
0.410548
0.40962
0.408756
0.407885
0.406918
0.405764
0.404328
0.4025
0.40015
0.397127
0.393273
0.388443
0.382511
0.375371
0.366906
0.356963
0.345315
0.331643
0.315478
0.296236
0.272925
0.244804
0.208885
0.167332
0.10351
0.0609943
0.174982
0.210864
0.235028
0.248195
0.25284
0.25584
0.254628
0.254296
0.257028
0.26563
0.27197
0.261749
0.224577
0.162693
0.0801271
-0.00960553
-0.0867063
-0.138816
-0.159005
-0.1449
-0.10018
-0.033589
0.0499933
0.145822
0.239844
0.314772
0.36383
0.391367
0.405007
0.410873
0.412797
0.412886
0.412211
0.411289
0.410347
0.409462
0.408619
0.407752
0.406779
0.405614
0.404165
0.402326
0.399969
0.396944
0.393094
0.388271
0.382347
0.375214
0.366754
0.356815
0.345169
0.331496
0.315326
0.296078
0.272755
0.244619
0.208686
0.16712
0.103333
0.0608385
0.177097
0.211075
0.234882
0.247906
0.252668
0.255696
0.254717
0.254526
0.257317
0.265675
0.27167
0.261279
0.224334
0.162705
0.0805404
-0.00876905
-0.0856515
-0.137733
-0.158001
-0.144069
-0.0996322
-0.0334435
0.0497435
0.145243
0.238933
0.313553
0.362476
0.390082
0.403906
0.409982
0.412101
0.412359
0.411826
0.411012
0.410146
0.409308
0.408487
0.407626
0.406648
0.405472
0.40401
0.402159
0.399793
0.396766
0.392919
0.388102
0.382186
0.375061
0.366608
0.356673
0.345029
0.331357
0.315185
0.29593
0.272598
0.244448
0.208504
0.166926
0.103172
0.0606947
0.179126
0.211324
0.234762
0.247641
0.252507
0.255563
0.254802
0.25474
0.257567
0.265637
0.27125
0.260635
0.223946
0.162659
0.0810196
-0.00773456
-0.0842953
-0.136275
-0.156576
-0.142807
-0.0986795
-0.0329248
0.0498396
0.144948
0.238194
0.312394
0.361115
0.388766
0.40277
0.409061
0.411383
0.411818
0.411431
0.410731
0.409946
0.409158
0.408361
0.407507
0.406525
0.405338
0.403863
0.401999
0.399624
0.396593
0.392748
0.387937
0.382029
0.374911
0.366466
0.356537
0.344897
0.331226
0.315053
0.295793
0.272453
0.244291
0.208337
0.166749
0.103027
0.0605629
0.181072
0.211609
0.234666
0.2474
0.252359
0.25544
0.254884
0.254938
0.257774
0.265516
0.270708
0.259833
0.223411
0.162551
0.0815555
-0.00651117
-0.0826428
-0.134443
-0.154728
-0.141112
-0.0973221
-0.0320317
0.0502831
0.144935
0.237624
0.311294
0.359747
0.387418
0.401599
0.408111
0.410643
0.411263
0.411028
0.410447
0.409747
0.409011
0.408242
0.407396
0.40641
0.405213
0.403724
0.401847
0.399462
0.396426
0.392581
0.387776
0.381876
0.374767
0.366329
0.356407
0.344772
0.331104
0.31493
0.295667
0.272321
0.244149
0.208186
0.166588
0.102896
0.0604433
0.182941
0.211926
0.234594
0.247182
0.252224
0.255329
0.254962
0.255118
0.257936
0.265313
0.270045
0.258886
0.222729
0.162378
0.0821389
-0.00510938
-0.0807006
-0.13224
-0.152456
-0.138987
-0.0955619
-0.0307646
0.0510742
0.145203
0.237219
0.310249
0.358371
0.386041
0.400396
0.407132
0.409882
0.410693
0.410618
0.41016
0.409549
0.408868
0.408128
0.407292
0.406304
0.405097
0.403594
0.401702
0.399306
0.396264
0.39242
0.387619
0.381727
0.374627
0.366197
0.356283
0.344655
0.33099
0.314818
0.295553
0.272201
0.244021
0.208051
0.166445
0.102781
0.0603357
0.184736
0.21227
0.234544
0.246986
0.252102
0.255229
0.255037
0.25528
0.258052
0.265029
0.269261
0.257809
0.221902
0.162136
0.0827601
-0.00354122
-0.0784778
-0.12967
-0.149765
-0.136434
-0.0934029
-0.029125
0.0522121
0.145749
0.236973
0.309256
0.356988
0.384634
0.399162
0.406127
0.409101
0.410111
0.410201
0.409871
0.409352
0.40873
0.40802
0.407195
0.406206
0.404989
0.403472
0.401566
0.399158
0.396109
0.392264
0.387467
0.381583
0.374491
0.366071
0.356165
0.344545
0.330885
0.314716
0.29545
0.272095
0.243908
0.207932
0.166319
0.10268
0.0602403
0.186459
0.21264
0.234517
0.246813
0.251992
0.25514
0.25511
0.255424
0.258122
0.264668
0.268364
0.256614
0.220939
0.161823
0.0834099
-0.00182019
-0.0759854
-0.12674
-0.146661
-0.133461
-0.0908513
-0.0271156
0.0536947
0.146566
0.236881
0.308311
0.355596
0.383199
0.397896
0.405095
0.408302
0.409518
0.409777
0.409581
0.409156
0.408595
0.407918
0.407106
0.406116
0.40489
0.403359
0.401439
0.399018
0.395961
0.392113
0.387321
0.381443
0.37436
0.36595
0.356054
0.344442
0.330789
0.314623
0.295358
0.272001
0.243809
0.207829
0.166211
0.102594
0.0601572
0.188115
0.213032
0.234512
0.246662
0.251895
0.255061
0.25518
0.255551
0.258148
0.264235
0.26736
0.255313
0.219852
0.161438
0.0840793
3.88113e-05
-0.0732371
-0.123463
-0.143155
-0.13008
-0.0879156
-0.0247403
0.0555189
0.147648
0.236932
0.307408
0.354195
0.381736
0.396599
0.404038
0.407484
0.408913
0.409349
0.409289
0.408962
0.408464
0.407822
0.407024
0.406034
0.404799
0.403256
0.401319
0.398885
0.395819
0.391969
0.387179
0.381308
0.374235
0.365835
0.355949
0.344346
0.330701
0.31454
0.295277
0.27192
0.243724
0.207741
0.166119
0.102522
0.0600863
0.189706
0.213444
0.234527
0.246532
0.251812
0.254994
0.255248
0.255661
0.258132
0.263738
0.266262
0.253913
0.218658
0.160981
0.0847603
0.00201982
-0.0702493
-0.119851
-0.139259
-0.126303
-0.0846059
-0.0220034
0.0576805
0.148987
0.237118
0.306543
0.352783
0.380245
0.395273
0.402955
0.406649
0.408298
0.408916
0.408996
0.40877
0.408338
0.407732
0.406949
0.40596
0.404718
0.403161
0.401209
0.398761
0.395685
0.391831
0.387043
0.381178
0.374114
0.365725
0.355851
0.344259
0.330622
0.314468
0.295208
0.271851
0.243654
0.20767
0.166044
0.102465
0.0600278
0.191236
0.213873
0.234563
0.246423
0.251741
0.254938
0.255314
0.255757
0.258079
0.263182
0.265083
0.252427
0.217374
0.160456
0.0854462
0.00410626
-0.067041
-0.115922
-0.134992
-0.122147
-0.0809339
-0.0189104
0.0601739
0.150573
0.237428
0.30571
0.351359
0.378727
0.393917
0.401848
0.405798
0.407674
0.408479
0.408704
0.408581
0.408216
0.407648
0.406882
0.405895
0.404645
0.403075
0.401108
0.398645
0.395558
0.3917
0.386912
0.381054
0.373999
0.365622
0.355759
0.344178
0.330552
0.314405
0.29515
0.271796
0.243599
0.207614
0.165986
0.102422
0.0599819
0.192706
0.214318
0.234618
0.246335
0.251684
0.254892
0.255379
0.255838
0.257993
0.262576
0.263836
0.250866
0.21602
0.159868
0.0861319
0.00628157
-0.0636335
-0.111699
-0.130375
-0.117633
-0.0769122
-0.0154669
0.0629925
0.152393
0.237849
0.304903
0.349922
0.37718
0.392531
0.400717
0.404931
0.407043
0.40804
0.408413
0.408396
0.408099
0.40757
0.406822
0.405838
0.404582
0.402999
0.401016
0.398538
0.39544
0.391575
0.386788
0.380936
0.37389
0.365524
0.355674
0.344106
0.330491
0.314353
0.295104
0.271754
0.243558
0.207574
0.165945
0.102394
0.0599485
0.194119
0.214775
0.234692
0.246266
0.25164
0.254858
0.255444
0.255908
0.257879
0.261928
0.262537
0.249245
0.214614
0.159231
0.0868147
0.00853012
-0.0600502
-0.107204
-0.125434
-0.112783
-0.0725542
-0.0116789
0.0661286
0.154434
0.238371
0.304117
0.348471
0.375606
0.391116
0.399563
0.404049
0.406404
0.407599
0.408123
0.408213
0.407987
0.407499
0.406769
0.405789
0.404527
0.402931
0.400933
0.398439
0.395329
0.391458
0.386671
0.380823
0.373787
0.365432
0.355596
0.344041
0.330438
0.31431
0.295069
0.271724
0.243531
0.207551
0.16592
0.102379
0.059928
0.195478
0.215244
0.234784
0.246217
0.25161
0.254834
0.255508
0.255967
0.25774
0.261249
0.2612
0.247579
0.213175
0.158558
0.0874952
0.0108381
-0.0563153
-0.102468
-0.120198
-0.107621
-0.0678729
-0.00755253
0.0695729
0.15668
0.238979
0.303346
0.347003
0.374003
0.38967
0.398385
0.403153
0.40576
0.407158
0.407835
0.408035
0.40788
0.407433
0.406724
0.405749
0.404481
0.402873
0.400859
0.39835
0.395227
0.391348
0.38656
0.380717
0.373689
0.365347
0.355524
0.343984
0.330394
0.314278
0.295046
0.271707
0.243519
0.207543
0.165913
0.102379
0.0599206
0.196785
0.215723
0.234894
0.246187
0.251592
0.25482
0.255573
0.256017
0.257582
0.260546
0.259838
0.245887
0.21172
0.15787
0.0881772
0.0131947
-0.0524527
-0.0975191
-0.114699
-0.102171
-0.0628806
-0.00309378
0.0733145
0.159115
0.23966
0.302585
0.345519
0.37237
0.388194
0.397183
0.402244
0.40511
0.406717
0.407551
0.407862
0.407779
0.407374
0.406686
0.405716
0.404444
0.402825
0.400795
0.398269
0.395133
0.391246
0.386456
0.380617
0.373598
0.365268
0.35546
0.343935
0.33036
0.314256
0.295034
0.271704
0.243522
0.207551
0.165923
0.102393
0.0599264
0.198041
0.21621
0.23502
0.246176
0.251588
0.254818
0.255639
0.25606
0.257409
0.259828
0.258465
0.244186
0.210264
0.157186
0.0888694
0.0155929
-0.0484847
-0.0923889
-0.108968
-0.0964571
-0.0575877
0.00169143
0.0773408
0.161718
0.240401
0.30183
0.344015
0.370706
0.386685
0.395958
0.401323
0.404458
0.406277
0.40727
0.407693
0.407684
0.407322
0.406655
0.405692
0.404416
0.402785
0.40074
0.398198
0.395048
0.391151
0.386359
0.380523
0.373513
0.365196
0.355403
0.343894
0.330334
0.314244
0.295033
0.271713
0.243539
0.207575
0.16595
0.102421
0.0599453
0.19925
0.216703
0.235163
0.246183
0.251597
0.254826
0.255706
0.256096
0.257224
0.259104