/*--------------------------------*- C++ -*----------------------------------*\
| =========                 |                                                 |
| \\      /  F ield         | OpenFOAM: The Open Source CFD Toolbox           |
|  \\    /   O peration     | Version:  2.4.0                                 |
|   \\  /    A nd           | Web:      www.OpenFOAM.org                      |
|    \\/     M anipulation  |                                                 |
\*---------------------------------------------------------------------------*/
FoamFile
{
    version     2.0;
    format      ascii;
    class       volVectorField;
    location    "0.69";
    object      U;
}
// * * * * * * * * * * * * * * * * * * * * * * * * * * * * * * * * * * * * * //

dimensions      [0 1 -1 0 0 0 0];

internalField   nonuniform List<vector> 
2320
(
(0.999994 8.72954e-06 0)
(0.999922 2.93249e-05 0)
(0.999769 4.40121e-05 0)
(0.999571 4.70342e-05 0)
(0.999385 3.78607e-05 0)
(0.999261 1.90126e-05 0)
(0.999226 -6.67872e-06 0)
(0.999303 -3.77217e-05 0)
(0.99951 -7.44949e-05 0)
(0.999875 -0.000119606 0)
(1.00044 -0.000178787 0)
(1.00127 -0.000262279 0)
(1.00249 -0.000386545 0)
(1.00431 -0.000577189 0)
(1.00705 -0.000875208 0)
(1.01127 -0.00134919 0)
(1.01785 -0.0021153 0)
(1.0283 -0.00336665 0)
(1.0451 -0.00541348 0)
(1.07233 -0.00873883 0)
(0.999995 2.59617e-05 0)
(0.999924 8.72733e-05 0)
(0.999775 0.000131039 0)
(0.999581 0.000140119 0)
(0.9994 0.000112897 0)
(0.999277 5.68876e-05 0)
(0.999242 -1.94471e-05 0)
(0.999315 -0.000111612 0)
(0.999514 -0.000220647 0)
(0.999864 -0.000354167 0)
(1.0004 -0.000529 0)
(1.0012 -0.000775247 0)
(1.00236 -0.00114129 0)
(1.00408 -0.00170225 0)
(1.00667 -0.0025785 0)
(1.01064 -0.00397173 0)
(1.01681 -0.00622461 0)
(1.02659 -0.00990863 0)
(1.04233 -0.0159452 0)
(1.0679 -0.0257754 0)
(0.999995 4.25441e-05 0)
(0.999928 0.00014311 0)
(0.999786 0.000214962 0)
(0.999601 0.000229983 0)
(0.999429 0.000185534 0)
(0.999312 9.39778e-05 0)
(0.999277 -3.07139e-05 0)
(0.999342 -0.000181003 0)
(0.999527 -0.000358311 0)
(0.99985 -0.000574639 0)
(1.00034 -0.000856758 0)
(1.00107 -0.00125263 0)
(1.00212 -0.00183921 0)
(1.00366 -0.00273577 0)
(1.00596 -0.00413338 0)
(1.00944 -0.00635321 0)
(1.01483 -0.0099434 0)
(1.02334 -0.0158229 0)
(1.03704 -0.0254821 0)
(1.05938 -0.041269 0)
(0.999995 5.8086e-05 0)
(0.999933 0.000195476 0)
(0.999802 0.000293705 0)
(0.999631 0.000314362 0)
(0.999471 0.000253946 0)
(0.999362 0.00012941 0)
(0.999327 -4.0013e-05 0)
(0.999384 -0.000243706 0)
(0.999546 -0.000483055 0)
(0.999831 -0.0007735 0)
(1.00026 -0.00114995 0)
(1.00089 -0.00167506 0)
(1.00178 -0.00244912 0)
(1.00306 -0.00362698 0)
(1.00494 -0.00545661 0)
(1.00775 -0.0083566 0)
(1.01202 -0.0130461 0)
(1.01873 -0.0207399 0)
(1.02949 -0.0334238 0)
(1.04715 -0.0542636 0)
(0.999996 7.22079e-05 0)
(0.99994 0.000243091 0)
(0.999823 0.00036537 0)
(0.99967 0.000391294 0)
(0.999526 0.000316633 0)
(0.999427 0.000162586 0)
(0.999394 -4.66718e-05 0)
(0.999439 -0.000297425 0)
(0.999574 -0.000590503 0)
(0.999811 -0.000943544 0)
(1.00016 -0.00139725 0)
(1.00066 -0.00202487 0)
(1.00136 -0.0029431 0)
(1.00233 -0.00433107 0)
(1.0037 -0.00647529 0)
(1.00567 -0.00986198 0)
(1.00857 -0.0153341 0)
(1.01303 -0.0243295 0)
(1.02013 -0.0392223 0)
(1.03188 -0.0638653 0)
(0.999996 8.45642e-05 0)
(0.999949 0.000284796 0)
(0.999849 0.000428216 0)
(0.999717 0.000458938 0)
(0.999593 0.000372113 0)
(0.999507 0.000192777 0)
(0.999475 -5.03637e-05 0)
(0.999507 -0.000340524 0)
(0.999611 -0.000677404 0)
(0.999793 -0.00107944 0)
(1.00006 -0.00159044 0)
(1.00042 -0.00228941 0)
(1.00089 -0.00330143 0)
(1.00151 -0.0048166 0)
(1.00231 -0.00713814 0)
(1.00334 -0.0107839 0)
(1.00471 -0.0166628 0)
(1.00662 -0.026343 0)
(1.00953 -0.0424501 0)
(1.01449 -0.069318 0)
(0.999997 9.48511e-05 0)
(0.999959 0.000319563 0)
(0.999878 0.000480699 0)
(0.999771 0.00051562 0)
(0.99967 0.000419017 0)
(0.999599 0.000219244 0)
(0.999569 -5.09771e-05 0)
(0.999588 -0.000371897 0)
(0.999659 -0.000741529 0)
(0.999782 -0.00117765 0)
(0.999953 -0.00172428 0)
(1.00017 -0.00246115 0)
(1.00041 -0.00351302 0)
(1.00066 -0.00506662 0)
(1.00087 -0.00741802 0)
(1.00093 -0.0110765 0)
(1.00069 -0.0169511 0)
(0.999946 -0.0266283 0)
(0.998417 -0.0428345 0)
(0.996083 -0.0700383 0)
(0.999998 0.000102814 0)
(0.99997 0.000346532 0)
(0.99991 0.000521509 0)
(0.999831 0.000559912 0)
(0.999756 0.000456135 0)
(0.999701 0.000241246 0)
(0.999674 -4.86594e-05 0)
(0.99968 -0.000391059 0)
(0.999718 -0.000781802 0)
(0.999781 -0.00123661 0)
(0.999857 -0.00179696 0)
(0.999924 -0.00253822 0)
(0.999943 -0.00357631 0)
(0.999838 -0.00508021 0)
(0.999472 -0.00731469 0)
(0.9986 -0.0107384 0)
(0.996817 -0.0161916 0)
(0.993473 -0.0251503 0)
(0.987576 -0.0402862 0)
(0.977845 -0.0657242 0)
(0.999999 0.000108255 0)
(0.999981 0.000365023 0)
(0.999944 0.000549608 0)
(0.999895 0.000590662 0)
(0.999848 0.000482447 0)
(0.999811 0.000258053 0)
(0.999789 -4.37945e-05 0)
(0.999783 -0.000398125 0)
(0.999788 -0.000798279 0)
(0.999793 -0.00125674 0)
(0.999779 -0.00180993 0)
(0.999709 -0.00252434 0)
(0.999519 -0.00349923 0)
(0.999092 -0.00487262 0)
(0.998215 -0.00685536 0)
(0.996513 -0.00981517 0)
(0.99336 -0.0144542 0)
(0.987676 -0.0220075 0)
(0.977863 -0.0349099 0)
(0.961044 -0.0564834 0)
(0.999999 0.000111036 0)
(0.999993 0.000374562 0)
(0.99998 0.000564261 0)
(0.999962 0.000607029 0)
(0.999944 0.000497159 0)
(0.999927 0.000268995 0)
(0.999911 -3.69616e-05 0)
(0.999894 -0.000393751 0)
(0.999868 -0.000792057 0)
(0.99982 -0.00124024 0)
(0.999724 -0.0017677 0)
(0.999533 -0.00242833 0)
(0.999166 -0.0032984 0)
(0.998471 -0.00447413 0)
(0.997181 -0.00609321 0)
(0.994817 -0.00839788 0)
(0.990582 -0.0118854 0)
(0.983007 -0.0174393 0)
(0.970086 -0.0270198 0)
(0.947063 -0.042877 0)
(1 0.000111084 0)
(1.00001 0.000374891 0)
(1.00002 0.000565051 0)
(1.00003 0.00060851 0)
(1.00004 0.000499732 0)
(1.00005 0.000273493 0)
(1.00004 -2.88789e-05 0)
(1.00001 -0.000379045 0)
(0.999959 -0.000765113 0)
(0.999863 -0.00119082 0)
(0.999697 -0.00167728 0)
(0.999407 -0.00226324 0)
(0.998901 -0.00299767 0)
(0.998009 -0.00392766 0)
(0.996433 -0.0051038 0)
(0.993628 -0.00661783 0)
(0.988694 -0.00870285 0)
(0.979862 -0.0118143 0)
(0.964916 -0.0171604 0)
(0.937329 -0.0258562 0)
(1 0.000108395 0)
(1.00002 0.000365979 0)
(1.00005 0.000551905 0)
(1.0001 0.000594964 0)
(1.00014 0.000489923 0)
(1.00016 0.000271115 0)
(1.00016 -2.033e-05 0)
(1.00013 -0.000355446 0)
(1.00006 -0.000720082 0)
(0.999922 -0.00111332 0)
(0.999699 -0.00154747 0)
(0.999335 -0.00204508 0)
(0.998736 -0.00262601 0)
(0.997729 -0.00328514 0)
(0.99601 -0.00397943 0)
(0.993024 -0.00463683 0)
(0.987834 -0.00518288 0)
(0.978535 -0.00560163 0)
(0.962834 -0.00609457 0)
(0.933049 -0.00657354 0)
(1 0.00010303 0)
(1.00003 0.00034802 0)
(1.00009 0.00052509 0)
(1.00016 0.00056663 0)
(1.00023 0.000467815 0)
(1.00028 0.000261621 0)
(1.00029 -1.21038e-05 0)
(1.00025 -0.000324583 0)
(1.00016 -0.000660001 0)
(0.999993 -0.00101321 0)
(0.999729 -0.00138806 0)
(0.999317 -0.00179132 0)
(0.998672 -0.00221483 0)
(0.997634 -0.00260288 0)
(0.995922 -0.00282153 0)
(0.993029 -0.00263386 0)
(0.988056 -0.00163642 0)
(0.979182 0.000675729 0)
(0.964153 0.00529028 0)
(0.934984 0.0133475 0)
(1 9.51178e-05 0)
(1.00004 0.000321436 0)
(1.00012 0.000485218 0)
(1.00023 0.000524112 0)
(1.00032 0.000433885 0)
(1.00039 0.000245179 0)
(1.00041 -4.84521e-06 0)
(1.00037 -0.000288129 0)
(1.00026 -0.00058804 0)
(1.00007 -0.000896089 0)
(0.999782 -0.00120885 0)
(0.999348 -0.00151922 0)
(0.998699 -0.00179501 0)
(0.997709 -0.0019363 0)
(0.996146 -0.00173126 0)
(0.993618 -0.000789732 0)
(0.989329 0.00160531 0)
(0.981807 0.00645771 0)
(0.968834 0.01586 0)
(0.943186 0.0321491 0)
(1 8.48508e-05 0)
(1.00005 0.000286866 0)
(1.00015 0.000433231 0)
(1.00028 0.000468372 0)
(1.0004 0.000388753 0)
(1.00049 0.000221876 0)
(1.00052 8.68097e-07 0)
(1.00048 -0.000247667 0)
(1.00036 -0.000507255 0)
(1.00016 -0.000767272 0)
(0.999852 -0.00101885 0)
(0.999416 -0.00124426 0)
(0.998802 -0.00139392 0)
(0.997924 -0.00133456 0)
(0.99663 -0.000799607 0)
(0.994698 0.000755196 0)
(0.991525 0.00421303 0)
(0.986145 0.0110586 0)
(0.976635 0.0245065 0)
(0.957189 0.0481314 0)
(1 7.24797e-05 0)
(1.00006 0.000245153 0)
(1.00018 0.000370386 0)
(1.00033 0.000400735 0)
(1.00048 0.000333277 0)
(1.00058 0.000191727 0)
(1.00061 4.57179e-06 0)
(1.00058 -0.00020457 0)
(1.00045 -0.000420353 0)
(1.00024 -0.000631316 0)
(0.999931 -0.000825472 0)
(0.999509 -0.000978634 0)
(0.998955 -0.00103251 0)
(0.998235 -0.00083568 0)
(0.997309 -9.95094e-05 0)
(0.99612 0.00179798 0)
(0.994345 0.00585187 0)
(0.991789 0.01397 0)
(0.987049 0.0303771 0)
(0.976037 0.0594753 0)
(1 5.83111e-05 0)
(1.00007 0.000197308 0)
(1.0002 0.000298204 0)
(1.00037 0.000322831 0)
(1.00054 0.000268864 0)
(1.00065 0.000155473 0)
(1.0007 6.14657e-06 0)
(1.00066 -0.000159954 0)
(1.00053 -0.000329574 0)
(1.00032 -0.000491798 0)
(1.00001 -0.000633987 0)
(0.99961 -0.000730317 0)
(0.999129 -0.000723075 0)
(0.998584 -0.000462156 0)
(0.998048 0.000324102 0)
(0.99766 0.00225033 0)
(0.997516 0.00636603 0)
(0.998206 0.0148734 0)
(0.999192 0.0325786 0)
(0.998474 0.064236 0)
(1 4.26976e-05 0)
(1.00007 0.000144548 0)
(1.00022 0.000218501 0)
(1.0004 0.000236623 0)
(1.00058 0.000197205 0)
(1.00071 0.00011438 0)
(1.00076 5.78134e-06 0)
(1.00073 -0.000114637 0)
(1.0006 -0.000236622 0)
(1.00038 -0.000351183 0)
(1.00008 -0.00044733 0)
(0.999703 -0.000502476 0)
(0.999295 -0.000467938 0)
(0.998912 -0.000216889 0)
(0.998749 0.000472926 0)
(0.999115 0.00213358 0)
(1.00062 0.0057272 0)
(1.00463 0.0131657 0)
(1.0117 0.0311264 0)
(1.02353 0.0609524 0)
(1.00001 2.60284e-05 0)
(1.00008 8.82642e-05 0)
(1.00023 0.000133435 0)
(1.00043 0.000144522 0)
(1.00061 0.000120463 0)
(1.00075 7.00274e-05 0)
(1.0008 4.12327e-06 0)
(1.00077 -6.88187e-05 0)
(1.00064 -0.000142315 0)
(1.00042 -0.000210487 0)
(1.00013 -0.000265813 0)
(0.999774 -0.00029329 0)
(0.999422 -0.000259509 0)
(0.999166 -8.24657e-05 0)
(0.999283 0.000383333 0)
(1.00026 0.00151719 0)
(1.00306 0.00381454 0)
(1.01053 0.00949164 0)
(1.02322 0.0216956 0)
(1.04833 0.0547695 0)
(1.00001 8.73975e-06 0)
(1.00008 2.97079e-05 0)
(1.00023 4.49206e-05 0)
(1.00044 4.86608e-05 0)
(1.00063 4.05739e-05 0)
(1.00077 2.36433e-05 0)
(1.00083 1.57684e-06 0)
(1.00079 -2.28195e-05 0)
(1.00066 -4.73329e-05 0)
(1.00044 -6.99189e-05 0)
(1.00015 -8.79104e-05 0)
(0.999807 -9.5977e-05 0)
(0.999482 -8.27646e-05 0)
(0.999298 -1.70206e-05 0)
(0.999558 0.000136438 0)
(1.00082 0.000562469 0)
(1.00465 0.00139703 0)
(1.01292 0.00245381 0)
(1.03606 0.0135685 0)
(1.07289 0.00319701 0)
(1.11648 -0.0140625 0)
(1.18757 -0.0224194 0)
(1.30033 -0.0351397 0)
(1.47534 -0.0537963 0)
(1.73772 -0.0791987 0)
(2.11397 -0.111303 0)
(2.62032 -0.143406 0)
(3.23573 -0.161436 0)
(1.10949 -0.0415576 0)
(1.1768 -0.066417 0)
(1.28425 -0.104409 0)
(1.45274 -0.160416 0)
(1.70796 -0.236907 0)
(2.08008 -0.334546 0)
(2.59363 -0.432799 0)
(3.22852 -0.487481 0)
(1.09597 -0.066735 0)
(1.15584 -0.107094 0)
(1.25285 -0.169294 0)
(1.40816 -0.261938 0)
(1.6483 -0.389787 0)
(2.01343 -0.559004 0)
(2.54294 -0.733129 0)
(3.2126 -0.829545 0)
(1.07646 -0.0880946 0)
(1.12523 -0.142257 0)
(1.20671 -0.226677 0)
(1.34066 -0.354429 0)
(1.55831 -0.53511 0)
(1.91053 -0.787641 0)
(2.45259 -1.0503 0)
(3.1527 -1.19003 0)
(1.05184 -0.104168 0)
(1.08626 -0.169672 0)
(1.14638 -0.27293 0)
(1.25102 -0.433737 0)
(1.43708 -0.668151 0)
(1.7515 -1.0138 0)
(2.29031 -1.37578 0)
(3.00922 -1.55579 0)
(1.02328 -0.113722 0)
(1.04103 -0.18696 0)
(1.0721 -0.304587 0)
(1.14467 -0.495017 0)
(1.27111 -0.775291 0)
(1.51533 -1.22394 0)
(2.05816 -1.70499 0)
(2.79046 -1.91912 0)
(0.992476 -0.115874 0)
(0.991695 -0.191579 0)
(0.987199 -0.319244 0)
(1.02513 -0.527937 0)
(1.04053 -0.838395 0)
(1.22927 -1.42347 0)
(1.79831 -2.045 0)
(2.51348 -2.27013 0)
(0.961806 -0.110049 0)
(0.939909 -0.181704 0)
(0.901067 -0.314481 0)
(0.884818 -0.515988 0)
(0.758319 -0.856002 0)
(0.957862 -1.63456 0)
(1.524 -2.3834 0)
(2.16256 -2.58219 0)
(0.933986 -0.0959037 0)
(0.88822 -0.157248 0)
(0.824774 -0.285534 0)
(0.715935 -0.448352 0)
(0.48698 -0.850303 0)
(0.727029 -1.85493 0)
(1.21359 -2.68525 0)
(1.7337 -2.83629 0)
(0.911407 -0.0735974 0)
(0.841645 -0.119621 0)
(0.764122 -0.226938 0)
(0.532065 -0.331831 0)
(0.291815 -0.845323 0)
(0.515201 -2.04902 0)
(0.867039 -2.92565 0)
(1.25587 -3.03437 0)
(0.895948 -0.0442615 0)
(0.806899 -0.0707408 0)
(0.720499 -0.13849 0)
(0.369924 -0.187776 0)
(0.187132 -0.844401 0)
(0.311978 -2.1826 0)
(0.509993 -3.09611 0)
(0.759185 -3.18057 0)
(0.889165 -0.0100656 0)
(0.789738 -0.0129119 0)
(0.697336 -0.0276435 0)
(0.270885 -0.0386094 0)
(0.151058 -0.829506 0)
(0.132053 -2.23946 0)
(0.166671 -3.18979 0)
(0.264118 -3.2702 0)
(0.892391 0.0259571 0)
(0.793095 0.0491942 0)
(0.702018 0.0900409 0)
(0.262932 0.098015 0)
(0.170299 -0.779425 0)
(-0.00621503 -2.2144 0)
(-0.143619 -3.19853 0)
(-0.211046 -3.29322 0)
(0.906129 0.0606435 0)
(0.815179 0.109456 0)
(0.734615 0.199439 0)
(0.332368 0.22685 0)
(0.240458 -0.677481 0)
(-0.0884588 -2.10141 0)
(-0.400478 -3.11963 0)
(-0.650045 -3.24208 0)
(0.930164 0.0909351 0)
(0.851926 0.162848 0)
(0.790272 0.292458 0)
(0.449409 0.342042 0)
(0.346486 -0.527902 0)
(-0.107384 -1.90586 0)
(-0.582793 -2.95035 0)
(-1.03404 -3.11485 0)
(0.963277 0.114065 0)
(0.900017 0.205973 0)
(0.863784 0.364157 0)
(0.594648 0.440781 0)
(0.475999 -0.338437 0)
(-0.0642938 -1.64269 0)
(-0.672677 -2.69352 0)
(-1.3323 -2.90658 0)
(1.00383 0.128736 0)
(0.957226 0.237616 0)
(0.94557 0.411788 0)
(0.751012 0.519994 0)
(0.620924 -0.125191 0)
(0.0319004 -1.33356 0)
(-0.658816 -2.35271 0)
(-1.50156 -2.6029 0)
(1.05074 0.129293 0)
(1.02169 0.25574 0)
(1.02579 0.438502 0)
(0.903842 0.577534 0)
(0.774661 0.0872696 0)
(0.179524 -0.994455 0)
(-0.539662 -1.93362 0)
(-1.482 -2.16158 0)
(1.09997 0.133274 0)
(1.08646 0.272209 0)
(1.09011 0.450264 0)
(1.03059 0.609405 0)
(0.92734 0.288274 0)
(0.388826 -0.645069 0)
(-0.317912 -1.47799 0)
(-1.19424 -1.56283 0)
(1.18651 0.116428 0)
(1.23099 0.276476 0)
(1.20631 0.452362 0)
(1.14791 0.623802 0)
(1.05909 0.404998 0)
(0.65121 -0.325938 0)
(-0.0064652 -1.08752 0)
(-0.561843 -1.00506 0)
(3.89215 -0.158197 0)
(4.50524 -0.137917 0)
(5.0124 -0.108253 0)
(5.38473 -0.0749834 0)
(5.61753 -0.041701 0)
(5.71811 -0.0105134 0)
(5.6985 0.0177515 0)
(5.57202 0.042752 0)
(5.35265 0.0642955 0)
(5.05493 0.0820828 0)
(4.69449 0.0955884 0)
(4.28915 0.104165 0)
(3.85937 0.107319 0)
(3.42721 0.105046 0)
(3.01392 0.0980454 0)
(2.63694 0.0876509 0)
(2.30748 0.0754798 0)
(2.02982 0.0630141 0)
(1.8024 0.0513362 0)
(1.61993 0.0410795 0)
(1.47546 0.0325089 0)
(1.36182 0.0256198 0)
(1.27247 0.0202097 0)
(1.20204 0.0159899 0)
(1.1467 0.0122515 0)
(1.10519 0.00938795 0)
(1.08242 -0.00319182 0)
(1.09301 -0.00384309 0)
(3.90647 -0.47681 0)
(4.53471 -0.414254 0)
(5.04968 -0.323362 0)
(5.42472 -0.221956 0)
(5.65699 -0.121134 0)
(5.75486 -0.0273882 0)
(5.73141 0.0568959 0)
(5.60045 0.131096 0)
(5.37614 0.195009 0)
(5.07304 0.247885 0)
(4.70684 0.288115 0)
(4.29552 0.313648 0)
(3.85989 0.322911 0)
(3.42256 0.315844 0)
(3.00531 0.294554 0)
(2.6259 0.263083 0)
(2.29553 0.226328 0)
(2.01818 0.188763 0)
(1.79188 0.153638 0)
(1.61095 0.122838 0)
(1.4682 0.0971373 0)
(1.35629 0.0765005 0)
(1.26851 0.0603512 0)
(1.19926 0.0477832 0)
(1.14352 0.0375369 0)
(1.09926 0.0270026 0)
(1.0623 0.00872868 0)
(1.04275 -0.0337785 0)
(3.9224 -0.810783 0)
(4.56724 -0.702744 0)
(5.08675 -0.547068 0)
(5.46195 -0.374535 0)
(5.69499 -0.203774 0)
(5.79583 -0.0452252 0)
(5.77597 0.0969886 0)
(5.64706 0.221882 0)
(5.42165 0.329271 0)
(5.11336 0.418047 0)
(4.73789 0.485544 0)
(4.31434 0.528229 0)
(3.86535 0.543321 0)
(3.41565 0.530672 0)
(2.98879 0.493925 0)
(2.60347 0.440086 0)
(2.27082 0.377586 0)
(1.99403 0.314046 0)
(1.77011 0.254921 0)
(1.59251 0.203304 0)
(1.4534 0.160393 0)
(1.34506 0.126065 0)
(1.26041 0.0993951 0)
(1.19312 0.0791054 0)
(1.13706 0.0632818 0)
(1.08788 0.0487268 0)
(1.04147 0.0262166 0)
(1.00001 -0.0118816 0)
(3.88011 -1.15627 0)
(4.51827 -0.995705 0)
(5.01812 -0.77209 0)
(5.37605 -0.529365 0)
(5.6039 -0.292117 0)
(5.71595 -0.0717948 0)
(5.72072 0.127695 0)
(5.62266 0.305383 0)
(5.42627 0.460162 0)
(5.13823 0.589287 0)
(4.77029 0.687958 0)
(4.3415 0.750348 0)
(3.87815 0.77203 0)
(3.41058 0.752842 0)
(2.96773 0.698542 0)
(2.57162 0.619887 0)
(2.23417 0.529491 0)
(1.95752 0.438437 0)
(1.73695 0.354407 0)
(1.56434 0.281565 0)
(1.43078 0.22137 0)
(1.32783 0.173529 0)
(1.24775 0.13684 0)
(1.18325 0.109817 0)
(1.1271 0.0902285 0)
(1.07358 0.0738629 0)
(1.01902 0.0514518 0)
(0.963277 0.013538 0)
(3.72932 -1.49407 0)
(4.32556 -1.27121 0)
(4.77055 -0.97799 0)
(5.08233 -0.670812 0)
(5.28526 -0.377879 0)
(5.39971 -0.108639 0)
(5.43705 0.137294 0)
(5.3967 0.362386 0)
(5.27149 0.565772 0)
(5.05307 0.741977 0)
(4.7391 0.881443 0)
(4.34021 0.972864 0)
(3.88263 1.00751 0)
(3.4041 0.984061 0)
(2.94416 0.911 0)
(2.53349 0.804507 0)
(2.18815 0.683008 0)
(1.91035 0.561978 0)
(1.6934 0.451548 0)
(1.52701 0.356791 0)
(1.40061 0.279182 0)
(1.30464 0.218116 0)
(1.23041 0.172141 0)
(1.16963 0.139634 0)
(1.11433 0.117988 0)
(1.05848 0.101721 0)
(0.999462 0.0804899 0)
(0.938019 0.044236 0)
(3.47362 -1.8094 0)
(3.99187 -1.5122 0)
(4.3527 -1.14892 0)
(4.59674 -0.785105 0)
(4.75642 -0.449269 0)
(4.85468 -0.147296 0)
(4.90815 0.127335 0)
(4.92049 0.384166 0)
(4.88117 0.627058 0)
(4.76868 0.850681 0)
(4.56002 1.04028 0)
(4.2449 1.17529 0)
(3.83718 1.2372 0)
(3.37558 1.21905 0)
(2.91123 1.13063 0)
(2.48913 0.995049 0)
(2.1352 0.83923 0)
(1.85519 0.685102 0)
(1.64167 0.546145 0)
(1.48215 0.428402 0)
(1.36403 0.333119 0)
(1.27623 0.259172 0)
(1.20893 0.204763 0)
(1.15297 0.168005 0)
(1.1003 0.145582 0)
(1.04563 0.130407 0)
(0.98769 0.11065 0)
(0.927998 0.0760265 0)
(3.11929 -2.08507 0)
(3.53254 -1.70509 0)
(3.80106 -1.27699 0)
(3.97953 -0.867339 0)
(4.09678 -0.500738 0)
(4.17109 -0.178976 0)
(4.22005 0.108463 0)
(4.25617 0.377955 0)
(4.27849 0.641929 0)
(4.26683 0.901445 0)
(4.18463 1.14127 0)
(3.99597 1.33152 0)
(3.68867 1.43873 0)
(3.28796 1.44293 0)
(2.84875 1.34991 0)
(2.4306 1.18894 0)
(2.0742 0.997822 0)
(1.79381 0.807978 0)
(1.5843 0.638175 0)
(1.4322 0.496099 0)
(1.32308 0.382735 0)
(1.24425 0.296224 0)
(1.18473 0.234191 0)
(1.13494 0.194111 0)
(1.08748 0.171473 0)
(1.03857 0.157367 0)
(0.988067 0.13869 0)
(0.936845 0.105292 0)
(2.66468 -2.30317 0)
(2.97119 -1.84586 0)
(3.16529 -1.36717 0)
(3.30131 -0.924896 0)
(3.39236 -0.536619 0)
(3.44733 -0.20119 0)
(3.48113 0.091683 0)
(3.51241 0.360661 0)
(3.55457 0.626235 0)
(3.6035 0.901071 0)
(3.62672 1.17784 0)
(3.57234 1.4235 0)
(3.39805 1.58907 0)
(3.10153 1.6347 0)
(2.72689 1.55404 0)
(2.34054 1.37787 0)
(1.99765 1.15507 0)
(1.72467 0.929248 0)
(1.52263 0.72715 0)
(1.37954 0.559594 0)
(1.28032 0.427744 0)
(1.21115 0.328937 0)
(1.16025 0.259884 0)
(1.11824 0.216877 0)
(1.07915 0.193713 0)
(1.04097 0.179744 0)
(1.004 0.161326 0)
(0.967242 0.129209 0)
(2.13835 -2.46508 0)
(2.35499 -1.94859 0)
(2.50256 -1.43769 0)
(2.61909 -0.973953 0)
(2.69713 -0.567949 0)
(2.73925 -0.218792 0)
(2.75795 0.0802745 0)
(2.77153 0.345663 0)
(2.802 0.601188 0)
(2.86461 0.871027 0)
(2.94629 1.16265 0)
(2.99824 1.45001 0)
(2.95789 1.67478 0)
(2.79085 1.77507 0)
(2.51696 1.72459 0)
(2.19637 1.54828 0)
(1.89188 1.3028 0)
(1.64155 1.04472 0)
(1.45523 0.811145 0)
(1.32532 0.618025 0)
(1.23811 0.467703 0)
(1.1798 0.356929 0)
(1.13873 0.28119 0)
(1.10652 0.235031 0)
(1.07915 0.210232 0)
(1.05617 0.194857 0)
(1.03754 0.175747 0)
(1.01969 0.1453 0)
(1.5797 -2.58316 0)
(1.71896 -2.02844 0)
(1.83608 -1.5008 0)
(1.93616 -1.02126 0)
(1.99902 -0.598175 0)
(2.03027 -0.234684 0)
(2.04231 0.0723194 0)
(2.04661 0.336142 0)
(2.06186 0.579466 0)
(2.11341 0.832541 0)
(2.21049 1.11789 0)
(2.32432 1.42497 0)
(2.3915 1.69658 0)
(2.35403 1.85329 0)
(2.20235 1.84527 0)
(1.97811 1.68439 0)
(1.74066 1.42915 0)
(1.5343 1.14691 0)
(1.37729 0.886021 0)
(1.26843 0.669279 0)
(1.19755 0.501524 0)
(1.15269 0.379452 0)
(1.12361 0.297185 0)
(1.10388 0.247155 0)
(1.09151 0.219157 0)
(1.08701 0.20069 0)
(1.08925 0.180051 0)
(1.09226 0.151734 0)
(1.00689 -2.66259 0)
(1.07008 -2.08712 0)
(1.1519 -1.5512 0)
(1.21841 -1.05646 0)
(1.25485 -0.618637 0)
(1.2748 -0.245858 0)
(1.28897 0.0661367 0)
(1.30181 0.328364 0)
(1.31955 0.561302 0)
(1.36477 0.795505 0)
(1.4591 1.06231 0)
(1.59856 1.36813 0)
(1.7369 1.66638 0)
(1.80964 1.86947 0)
(1.78337 1.90648 0)
(1.67531 1.77239 0)
(1.53069 1.52098 0)
(1.39167 1.2259 0)
(1.28141 0.945339 0)
(1.20508 0.709565 0)
(1.1577 0.527014 0)
(1.13097 0.395019 0)
(1.1176 0.30646 0)
(1.11389 0.251704 0)
(1.11962 0.219042 0)
(1.1353 0.196255 0)
(1.15826 0.173715 0)
(1.18085 0.148005 0)
(0.425666 -2.70306 0)
(0.409828 -2.11619 0)
(0.434728 -1.57477 0)
(0.449922 -1.06657 0)
(0.454738 -0.621177 0)
(0.463771 -0.247766 0)
(0.48248 0.0593415 0)
(0.511784 0.314645 0)
(0.547105 0.539031 0)
(0.602243 0.757678 0)
(0.697927 1.00356 0)
(0.847181 1.29495 0)
(1.02795 1.59933 0)
(1.18527 1.83116 0)
(1.2744 1.90614 0)
(1.28988 1.8033 0)
(1.25605 1.56681 0)
(1.20507 1.27121 0)
(1.15967 0.981205 0)
(1.12946 0.733562 0)
(1.1151 0.540693 0)
(1.11332 0.401143 0)
(1.12109 0.306953 0)
(1.13776 0.246999 0)
(1.16421 0.208964 0)
(1.20005 0.18171 0)
(1.24097 0.15782 0)
(1.27859 0.135456 0)
(-0.157087 -2.70295 0)
(-0.255496 -2.10515 0)
(-0.313472 -1.56262 0)
(-0.354781 -1.05109 0)
(-0.3814 -0.608152 0)
(-0.384681 -0.240518 0)
(-0.364052 0.0557627 0)
(-0.321483 0.298401 0)
(-0.264333 0.511253 0)
(-0.189397 0.715803 0)
(-0.0832065 0.94229 0)
(0.0750761 1.21349 0)
(0.284895 1.50807 0)
(0.507577 1.74918 0)
(0.697591 1.84746 0)
(0.834431 1.77345 0)
(0.919945 1.55873 0)
(0.971353 1.27387 0)
(1.00597 0.985737 0)
(1.03496 0.735219 0)
(1.06388 0.538121 0)
(1.09504 0.394449 0)
(1.13018 0.296059 0)
(1.17139 0.231389 0)
(1.2198 0.188642 0)
(1.27355 0.15833 0)
(1.32705 0.134907 0)
(1.37254 0.117205 0)
(-0.728589 -2.65391 0)
(-0.920073 -2.04735 0)
(-1.07728 -1.51357 0)
(-1.17979 -1.01554 0)
(-1.24066 -0.587894 0)
(-1.25626 -0.237169 0)
(-1.23547 0.0425141 0)
(-1.18834 0.271961 0)
(-1.11511 0.472443 0)
(-1.01935 0.665083 0)
(-0.894871 0.876307 0)
(-0.720737 1.12532 0)
(-0.48389 1.39729 0)
(-0.205319 1.62928 0)
(0.0764437 1.73675 0)
(0.329127 1.68352 0)
(0.534037 1.4932 0)
(0.694027 1.2281 0)
(0.817906 0.952708 0)
(0.91562 0.708992 0)
(0.996288 0.514759 0)
(1.06732 0.371371 0)
(1.13463 0.271302 0)
(1.20209 0.203867 0)
(1.27026 0.15884 0)
(1.33598 0.128564 0)
(1.39372 0.108608 0)
(1.43812 0.0973648 0)
(-1.27376 -2.54333 0)
(-1.5739 -1.93614 0)
(-1.84129 -1.42388 0)
(-2.01689 -0.956018 0)
(-2.12036 -0.558794 0)
(-2.1559 -0.234547 0)
(-2.14161 0.0239904 0)
(-2.09105 0.236271 0)
(-2.0059 0.422649 0)
(-1.89125 0.602939 0)
(-1.74291 0.798823 0)
(-1.54178 1.02413 0)
(-1.2698 1.2659 0)
(-0.933487 1.47348 0)
(-0.564102 1.57707 0)
(-0.203078 1.53654 0)
(0.115994 1.37003 0)
(0.382474 1.1317 0)
(0.59723 0.878942 0)
(0.767166 0.651344 0)
(0.903415 0.467232 0)
(1.01703 0.329279 0)
(1.11648 0.231524 0)
(1.20599 0.165337 0)
(1.28541 0.122579 0)
(1.35196 0.0969337 0)
(1.4027 0.0839308 0)
(1.43712 0.0804727 0)
(-1.77853 -2.36404 0)
(-2.19806 -1.76316 0)
(-2.58799 -1.28457 0)
(-2.85151 -0.862883 0)
(-3.01328 -0.509763 0)
(-3.0812 -0.221595 0)
(-3.08076 0.00862741 0)
(-3.02977 0.199038 0)
(-2.93435 0.366995 0)
(-2.79922 0.530253 0)
(-2.6192 0.705598 0)
(-2.37699 0.901964 0)
(-2.05446 1.10726 0)
(-1.65162 1.28097 0)
(-1.19655 1.36821 0)
(-0.735967 1.33417 0)
(-0.312729 1.19298 0)
(0.050793 0.98599 0)
(0.348837 0.764213 0)
(0.586452 0.561849 0)
(0.775018 0.395242 0)
(0.92641 0.268836 0)
(1.04895 0.179199 0)
(1.14647 0.120292 0)
(1.22019 0.085672 0)
(1.27165 0.0692912 0)
(1.30455 0.065489 0)
(1.32526 0.0691622 0)
(-2.21944 -2.09973 0)
(-2.77289 -1.51949 0)
(-3.29254 -1.08883 0)
(-3.65339 -0.729223 0)
(-3.88655 -0.434836 0)
(-3.9997 -0.194303 0)
(-4.02141 -0.000149472 0)
(-3.97329 0.161898 0)
(-3.86677 0.305301 0)
(-3.70548 0.444461 0)
(-3.48405 0.591593 0)
(-3.18746 0.751897 0)
(-2.80082 0.914658 0)
(-2.32526 1.04871 0)
(-1.78916 1.11321 0)
(-1.24144 1.08298 0)
(-0.730026 0.967504 0)
(-0.285199 0.797728 0)
(0.0812632 0.611849 0)
(0.372171 0.442903 0)
(0.597841 0.301594 0)
(0.767221 0.194872 0)
(0.887725 0.122309 0)
(0.967031 0.0796639 0)
(1.01511 0.0600417 0)
(1.04396 0.0555268 0)
(1.06508 0.0586032 0)
(1.08777 0.0633776 0)
(-2.56827 -1.71166 0)
(-3.27907 -1.19383 0)
(-3.9292 -0.834994 0)
(-4.37873 -0.55425 0)
(-4.67877 -0.331438 0)
(-4.83735 -0.150202 0)
(-4.88348 -0.00251638 0)
(-4.83912 0.121488 0)
(-4.71923 0.232119 0)
(-4.52796 0.338902 0)
(-4.26095 0.449893 0)
(-3.90642 0.567698 0)
(-3.45455 0.683901 0)
(-2.91114 0.77662 0)
(-2.3068 0.818011 0)
(-1.69131 0.791157 0)
(-1.11546 0.701836 0)
(-0.615254 0.57233 0)
(-0.206738 0.429186 0)
(0.106671 0.298624 0)
(0.331514 0.194517 0)
(0.480823 0.122017 0)
(0.571971 0.0787785 0)
(0.625929 0.0569555 0)
(0.662325 0.0478268 0)
(0.695067 0.0447197 0)
(0.731037 0.0433798 0)
(0.772335 0.0414176 0)
(-2.80426 -1.14204 0)
(-3.69897 -0.776709 0)
(-4.47943 -0.529036 0)
(-4.99417 -0.348012 0)
(-5.33489 -0.207615 0)
(-5.51773 -0.0942302 0)
(-5.576 -0.00160162 0)
(-5.5314 0.0766364 0)
(-5.39716 0.146443 0)
(-5.17868 0.213455 0)
(-4.8732 0.282041 0)
(-4.47236 0.353186 0)
(-3.97142 0.421427 0)
(-3.38139 0.473736 0)
(-2.7362 0.493916 0)
(-2.08721 0.472263 0)
(-1.48742 0.412685 0)
(-0.976181 0.330179 0)
(-0.572488 0.243096 0)
(-0.278188 0.165664 0)
(-0.0791368 0.108978 0)
(0.0496116 0.0716835 0)
(0.131739 0.0484335 0)
(0.188344 0.0347152 0)
(0.233263 0.026887 0)
(0.273854 0.0227611 0)
(0.312463 0.0208652 0)
(0.349218 0.0199988 0)
(-2.92277 -0.382773 0)
(-3.98783 -0.274235 0)
(-4.89264 -0.179181 0)
(-5.46636 -0.116852 0)
(-5.84217 -0.0686054 0)
(-6.04263 -0.0303081 0)
(-6.10612 0.000717031 0)
(-6.05674 0.026806 0)
(-5.91212 0.0497833 0)
(-5.67792 0.0716182 0)
(-5.3531 0.093548 0)
(-4.93205 0.115704 0)
(-4.41383 0.136137 0)
(-3.81334 0.15059 0)
(-3.1669 0.154052 0)
(-2.52609 0.143935 0)
(-1.94234 0.122322 0)
(-1.45217 0.0949024 0)
(-1.07087 0.0678518 0)
(-0.794672 0.0447425 0)
(-0.605437 0.027712 0)
(-0.480654 0.0152718 0)
(-0.401108 0.00702268 0)
(-0.348532 0.00317461 0)
(-0.310451 0.00172808 0)
(-0.280378 0.00119264 0)
(-0.254356 0.00134402 0)
(-0.229743 0.00202333 0)
(1.13127 -0.16926 0)
(0.996063 -0.362945 0)
(0.7147 -0.406706 0)
(0.468262 -0.300624 0)
(0.295018 -0.197596 0)
(0.154926 -0.16484 0)
(0.122849 -0.131982 0)
(-0.0439701 -0.146225 0)
(1.00119 -0.160574 0)
(0.866735 -0.277847 0)
(0.656079 -0.291813 0)
(0.463651 -0.209058 0)
(0.336271 -0.125769 0)
(0.217381 -0.108732 0)
(0.143722 -0.0989068 0)
(0.0529272 -0.0756643 0)
(0.944295 -0.0931354 0)
(0.834828 -0.179375 0)
(0.670028 -0.202745 0)
(0.508081 -0.147833 0)
(0.40033 -0.0750724 0)
(0.297664 -0.0512011 0)
(0.199217 -0.0580004 0)
(0.0764237 -0.0488372 0)
(0.898249 -0.0527244 0)
(0.802515 -0.119476 0)
(0.66796 -0.134845 0)
(0.527934 -0.0897974 0)
(0.435262 -0.0271681 0)
(0.362278 0.00240908 0)
(0.291316 -0.00486385 0)
(0.140764 -0.00235648 0)
(0.871526 -0.0103228 0)
(0.787812 -0.0606289 0)
(0.677642 -0.0702685 0)
(0.555473 -0.0367531 0)
(0.466479 0.00835594 0)
(0.408346 0.0348616 0)
(0.375284 0.0367223 0)
(0.248449 0.0347899 0)
(0.865131 0.0271727 0)
(0.79179 -0.0142276 0)
(0.70206 -0.0194262 0)
(0.600663 0.00968962 0)
(0.515364 0.0429472 0)
(0.453934 0.0589308 0)
(0.435905 0.0604653 0)
(0.352563 0.0635712 0)
(0.882527 0.0600677 0)
(0.819628 0.0245509 0)
(0.746788 0.0226286 0)
(0.667867 0.050596 0)
(0.595524 0.0781215 0)
(0.530795 0.0840144 0)
(0.503921 0.0738943 0)
(0.438312 0.077712 0)
(0.925825 0.0876208 0)
(0.874492 0.0561858 0)
(0.815728 0.0553233 0)
(0.757175 0.0819738 0)
(0.706305 0.108164 0)
(0.654911 0.111733 0)
(0.627231 0.0921358 0)
(0.547551 0.0855507 0)
(0.994964 0.108254 0)
(0.957368 0.0811851 0)
(0.911268 0.0802745 0)
(0.868443 0.103345 0)
(0.838583 0.127269 0)
(0.810218 0.131416 0)
(0.803554 0.112212 0)
(0.722289 0.0954279 0)
(1.08635 0.12048 0)
(1.0648 0.0990996 0)
(1.03206 0.0987533 0)
(1.00162 0.116868 0)
(0.986877 0.135579 0)
(0.97871 0.137438 0)
(0.994959 0.120928 0)
(0.93776 0.100341 0)
(1.19281 0.123484 0)
(1.18777 0.109092 0)
(1.16979 0.110883 0)
(1.15177 0.124661 0)
(1.14818 0.136734 0)
(1.1543 0.133566 0)
(1.18381 0.117311 0)
(1.15491 0.0955053 0)
(1.30384 0.11812 0)
(1.3123 0.111104 0)
(1.30859 0.116011 0)
(1.30427 0.126811 0)
(1.31195 0.132712 0)
(1.32987 0.124185 0)
(1.36585 0.106953 0)
(1.35915 0.0845947 0)
(1.40373 0.10722 0)
(1.41975 0.106877 0)
(1.42696 0.114363 0)
(1.43586 0.122572 0)
(1.45577 0.123119 0)
(1.48527 0.110262 0)
(1.52501 0.0927414 0)
(1.53609 0.0715743 0)
(1.46727 0.0946653 0)
(1.48473 0.0994131 0)
(1.49891 0.107586 0)
(1.51916 0.112263 0)
(1.55076 0.107749 0)
(1.59068 0.0920111 0)
(1.63169 0.0757386 0)
(1.65639 0.058872 0)
(1.45881 0.0839594 0)
(1.47535 0.091044 0)
(1.49589 0.0969779 0)
(1.5272 0.0964746 0)
(1.56953 0.087119 0)
(1.61677 0.0705926 0)
(1.65469 0.0579167 0)
(1.68563 0.0493488 0)
(1.34224 0.0758305 0)
(1.36426 0.0813736 0)
(1.39756 0.0820701 0)
(1.44312 0.0755299 0)
(1.4943 0.0628019 0)
(1.54142 0.0486616 0)
(1.56722 0.0423993 0)
(1.59211 0.0457542 0)
(1.11848 0.065831 0)
(1.16008 0.0636169 0)
(1.21051 0.0562495 0)
(1.26248 0.0455972 0)
(1.30463 0.0358121 0)
(1.33087 0.0319211 0)
(1.3327 0.0369319 0)
(1.34703 0.0520329 0)
(0.817614 0.0380313 0)
(0.862706 0.0338279 0)
(0.901952 0.0302242 0)
(0.931362 0.0285887 0)
(0.949426 0.0296913 0)
(0.962286 0.0345875 0)
(0.965926 0.0416275 0)
(0.99603 0.0549165 0)
(0.383352 0.0194755 0)
(0.414452 0.0190761 0)
(0.442235 0.0188034 0)
(0.467971 0.0189538 0)
(0.489977 0.0196888 0)
(0.515491 0.0236962 0)
(0.535349 0.029945 0)
(0.582664 0.0373503 0)
(-0.20552 0.00293955 0)
(-0.18176 0.00405243 0)
(-0.15814 0.00578254 0)
(-0.133661 0.00795836 0)
(-0.107094 0.0101663 0)
(-0.0759147 0.0132129 0)
(-0.0425675 0.0148774 0)
(0.025056 0.00983891 0)
(-0.146618 -0.130878 0)
(0.00980444 -0.005877 0)
(0.0930657 0.0661503 0)
(0.210586 0.131427 1.21385e-17)
(0.368579 0.182687 1.33079e-18)
(0.58969 0.209685 0)
(0.775131 0.201288 8.61002e-18)
(0.862584 0.183673 4.69039e-19)
(0.892839 0.172151 6.31913e-18)
(0.933587 0.165418 6.25079e-18)