/*--------------------------------*- C++ -*----------------------------------*\
| =========                 |                                                 |
| \\      /  F ield         | OpenFOAM: The Open Source CFD Toolbox           |
|  \\    /   O peration     | Version:  2.4.0                                 |
|   \\  /    A nd           | Web:      www.OpenFOAM.org                      |
|    \\/     M anipulation  |                                                 |
\*---------------------------------------------------------------------------*/
FoamFile
{
    version     2.0;
    format      ascii;
    class       volScalarField;
    location    "5.54";
    object      epsilon;
}
// * * * * * * * * * * * * * * * * * * * * * * * * * * * * * * * * * * * * * //

dimensions      [0 2 -3 0 0 0 0];

internalField   nonuniform List<scalar> 
6000
(
54.173
1.09753
0.0202952
0.134472
0.072542
0.0863296
0.0616123
0.0575723
0.0461228
0.0419549
0.0365345
0.034284
0.0322968
0.0320239
0.0323903
0.0339059
0.036171
0.039404
0.0434779
0.0485121
0.054484
0.0614522
0.0693977
0.0783062
0.0881017
0.0986886
0.109925
0.121619
0.133506
0.14525
0.156433
0.166566
0.175095
0.181391
0.184819
0.184776
0.180768
0.172432
0.159752
0.14301
0.123233
0.101786
0.0808398
0.0759663
0.116397
0.175862
0.258136
0.377772
0.532486
0.761015
1.02795
1.46143
1.88424
2.76127
3.34112
5.37793
5.8352
11.555
10.5114
29.1706
17.723
0.975447
0.0253722
0.0742145
0.0418197
0.0473869
0.0343764
0.0316283
0.0254994
0.0230202
0.0200621
0.0187074
0.0175542
0.0172649
0.0173194
0.0179347
0.0189127
0.0203352
0.0221317
0.0243394
0.0269354
0.0299311
0.0333074
0.0370485
0.0411173
0.0454728
0.0500605
0.0548107
0.0596318
0.06441
0.0690065
0.0732588
0.0769818
0.0799574
0.0819703
0.082794
0.0822244
0.0800785
0.0762641
0.0707651
0.063818
0.0557959
0.0475287
0.0465204
0.0661913
0.0934448
0.129233
0.17864
0.240486
0.328122
0.429716
0.587738
0.746579
1.05396
1.28119
1.96861
2.20912
4.06672
3.99084
9.8128
7.13599
0.711145
0.0303093
0.0435395
0.0252873
0.027308
0.0200766
0.0182058
0.0147651
0.0132479
0.0115708
0.0107503
0.0100814
0.00987728
0.00987637
0.0101749
0.0106724
0.0114016
0.0123255
0.013457
0.0147826
0.0163043
0.0180113
0.0198946
0.0219373
0.0241217
0.026426
0.0288229
0.031277
0.0337449
0.0361734
0.0385
0.04065
0.0425386
0.0440742
0.0451511
0.0456662
0.0455136
0.0446099
0.0428916
0.0403966
0.0372304
0.0337845
0.0342341
0.0455813
0.0605899
0.0793664
0.103883
0.133434
0.173172
0.218588
0.285446
0.354406
0.477625
0.578787
0.84142
0.970121
1.64758
1.73354
3.75907
3.42004
0.518231
0.0345375
0.0274532
0.0160616
0.016482
0.0122307
0.0109348
0.00891618
0.00796331
0.0069835
0.00648698
0.00610549
0.00599118
0.00600769
0.00619942
0.00651437
0.00696689
0.00753822
0.00823403
0.00904764
0.00997966
0.0110246
0.0121779
0.0134313
0.0147765
0.0162033
0.0176991
0.0192476
0.0208288
0.0224181
0.0239863
0.0254961
0.0269158
0.0281927
0.0292729
0.0301011
0.0306167
0.0307655
0.0304981
0.0298108
0.0287293
0.027464
0.0285418
0.03594
0.0454203
0.0568817
0.0711982
0.0879911
0.109484
0.133769
0.167343
0.202751
0.260378
0.312314
0.427087
0.500139
0.778083
0.866226
1.64884
1.89782
0.395524
0.0386519
0.0190393
0.0107889
0.0104258
0.00776376
0.00683861
0.00560184
0.0049888
0.00440351
0.00410723
0.00389996
0.00385699
0.00390463
0.00406424
0.00430851
0.00464468
0.00506362
0.00556867
0.00615696
0.006829
0.007582
0.00841328
0.00931821
0.0102922
0.0113295
0.0124235
0.0135654
0.0147449
0.0159495
0.0171644
0.0183721
0.0195598
0.0206965
0.0217537
0.022701
0.0235033
0.0241257
0.0245324
0.0247082
0.0246476
0.0244769
0.0258322
0.0311371
0.0377623
0.0455619
0.0549657
0.0658131
0.0791684
0.0942499
0.113961
0.135336
0.166965
0.198078
0.256281
0.302219
0.432
0.500106
0.838982
1.19136
0.318419
0.0429775
0.0149622
0.00776925
0.00694154
0.00514283
0.00445306
0.00365986
0.00325576
0.00290107
0.00273052
0.00263057
0.00263859
0.00271329
0.00286555
0.003081
0.00336413
0.00371093
0.00412399
0.00460247
0.00514695
0.00575601
0.006428
0.0071602
0.00794998
0.00879436
0.00968984
0.0106322
0.0116164
0.0126367
0.0136853
0.0147575
0.0158441
0.0169271
0.0179897
0.0190131
0.0199742
0.0208481
0.0216074
0.0222352
0.022715
0.0231311
0.0246077
0.028704
0.0337042
0.0394583
0.0461838
0.0538363
0.0629629
0.0733078
0.0862432
0.100718
0.120481
0.141603
0.175513
0.207671
0.276824
0.328526
0.493637
0.829185
0.268834
0.0475682
0.0135345
0.00612369
0.00490801
0.00357133
0.00302597
0.00248982
0.00221585
0.00199936
0.00190848
0.00187519
0.00191765
0.00201189
0.00216404
0.00236684
0.00262375
0.00293365
0.00329895
0.00371997
0.00419754
0.0047312
0.00532019
0.00596326
0.00665936
0.00740747
0.0082064
0.00905464
0.00995036
0.0108911
0.011873
0.0128959
0.0139513
0.0150277
0.0161137
0.0171957
0.018257
0.0192783
0.0202384
0.0211229
0.0219107
0.022664
0.0241909
0.0275336
0.0315295
0.0360383
0.041165
0.0469195
0.0535913
0.0611641
0.0703022
0.0808003
0.0942809
0.109733
0.131703
0.155904
0.197255
0.237793
0.326821
0.62842
0.235882
0.0523316
0.013841
0.00540455
0.00373738
0.00262145
0.00215627
0.00176956
0.00157658
0.00144411
0.00140384
0.00141215
0.00147726
0.00158489
0.00173904
0.00193653
0.00218055
0.00247166
0.00281236
0.0032038
0.00364723
0.004143
0.00469127
0.00529198
0.0059453
0.00665154
0.00741091
0.00822336
0.00908855
0.0100055
0.0109725
0.0119888
0.0130474
0.0141398
0.0152572
0.0163886
0.017521
0.0186391
0.0197262
0.0207713
0.0217473
0.0227086
0.0242519
0.0270923
0.0304214
0.0341136
0.0382121
0.0427501
0.0478801
0.0536888
0.0604915
0.0684433
0.0781916
0.089958
0.105267
0.124132
0.151161
0.18362
0.235503
0.510221
0.213249
0.0571123
0.0153581
0.00536419
0.00311905
0.00205857
0.00162392
0.00132089
0.00117687
0.00109548
0.00108721
0.00112171
0.00120194
0.00131918
0.0014765
0.00167317
0.00191237
0.00219574
0.00252603
0.00290504
0.00333452
0.00381555
0.00434907
0.00493586
0.00557689
0.00627324
0.00702582
0.00783525
0.00870177
0.00962495
0.0106037
0.0116357
0.0127154
0.0138359
0.0149893
0.0161665
0.0173565
0.0185466
0.0197235
0.0208783
0.0219766
0.0230743
0.0246163
0.0271029
0.0299615
0.0330834
0.0364767
0.0401839
0.0442819
0.048898
0.0541676
0.0603869
0.0677427
0.0769359
0.0881585
0.103112
0.121977
0.148138
0.180256
0.437372
0.197245
0.0617394
0.0177435
0.00586907
0.00289361
0.00175384
0.00130624
0.00104316
0.000925968
0.000874791
0.00088651
0.000937869
0.00102879
0.00115383
0.00131563
0.00151491
0.001755
0.00203827
0.00236778
0.0027459
0.00317485
0.00365631
0.00419176
0.00478256
0.00543011
0.00613589
0.00690111
0.00772662
0.00861285
0.00955949
0.0105646
0.0116254
0.0127371
0.0138932
0.0150865
0.0163086
0.01755
0.0187996
0.0200466
0.02128
0.0224631
0.0236537
0.0251844
0.0274099
0.0299195
0.0326213
0.0355033
0.0386117
0.0419797
0.0457478
0.0499565
0.054946
0.0606828
0.0680174
0.0765667
0.0885699
0.102405
0.123553
0.14449
0.390904
0.185658
0.0660587
0.0207422
0.0068398
0.00298515
0.00163884
0.00113495
0.000879172
0.000772138
0.000737203
0.000760984
0.000823555
0.000922804
0.00105509
0.00122281
0.0014276
0.00167294
0.00196176
0.00229744
0.00268283
0.00312054
0.00361271
0.00416122
0.00476774
0.00543391
0.00616137
0.00695145
0.00780498
0.00872242
0.00970308
0.0107438
0.0118419
0.0129926
0.0141897
0.015426
0.0166934
0.0179833
0.0192856
0.0205911
0.0218807
0.0231267
0.0243817
0.0258948
0.0279198
0.0301593
0.0325374
0.0350312
0.037687
0.0405133
0.0436513
0.0470908
0.051175
0.0557663
0.0617269
0.0684412
0.0782063
0.0887589
0.105961
0.120273
0.360498
0.177122
0.0699523
0.0241416
0.00822668
0.00335378
0.00168145
0.00107347
0.000796833
0.000685928
0.000657041
0.000687345
0.000757623
0.000863994
0.00100366
0.00117878
0.00139155
0.00164562
0.00194434
0.0022914
0.00269004
0.0031432
0.00365337
0.00422267
0.00485297
0.00554598
0.00630342
0.00712658
0.00801621
0.00897267
0.00999422
0.011077
0.0122182
0.0134129
0.0146547
0.0159363
0.0172497
0.0185865
0.0199371
0.0212912
0.0226229
0.0239167
0.0252161
0.0267072
0.0285725
0.0305954
0.0327143
0.034901
0.0372008
0.0396079
0.0422591
0.0451173
0.0485125
0.0522601
0.057182
0.0625852
0.0706442
0.0789532
0.0930948
0.103315
0.340228
0.170763
0.0733487
0.0277513
0.00998377
0.00397953
0.00187329
0.00110447
0.000779127
0.000650996
0.000619759
0.000652273
0.000727882
0.000840762
0.000988234
0.00117218
0.00139506
0.00166073
0.00197281
0.00233529
0.00275175
0.0032254
0.00375896
0.00435474
0.00501468
0.00574048
0.00653385
0.00739601
0.00832753
0.00932871
0.0103958
0.0115251
0.0127136
0.0139557
0.015245
0.0165735
0.0179329
0.0193153
0.020711
0.0221032
0.0234687
0.0247987
0.0261277
0.0275932
0.0293269
0.0311705
0.033075
0.0350103
0.0370202
0.0390907
0.0413526
0.043755
0.0466093
0.0497129
0.0538312
0.0582632
0.0650089
0.0717222
0.0835043
0.0910906
0.326536
0.166004
0.0762224
0.0313992
0.0120574
0.00485477
0.00221467
0.00122332
0.000818545
0.000659009
0.000617483
0.00064832
0.000727365
0.000846379
0.00100218
0.00119624
0.00143111
0.00171077
0.00203908
0.00242028
0.0028582
0.0033563
0.00391746
0.00454409
0.00523814
0.00600124
0.00683505
0.00774068
0.00871843
0.0097682
0.0108843
0.0120635
0.013302
0.014594
0.0159323
0.0173085
0.0187137
0.0201403
0.0215763
0.0229982
0.0243914
0.0257483
0.0270949
0.0285316
0.0301535
0.0318444
0.0335665
0.0352895
0.037056
0.0388477
0.0407887
0.042822
0.0452395
0.0478351
0.0513171
0.0550059
0.0607265
0.0662635
0.076222
0.0820398
0.317206
0.162446
0.0785878
0.0349357
0.0143805
0.0059743
0.00270898
0.00143482
0.000914131
0.000706865
0.000646576
0.000671691
0.000752337
0.000877119
0.00104175
0.00124709
0.00149559
0.00179134
0.00213832
0.002541
0.00300342
0.00352921
0.00412137
0.00478236
0.00551409
0.00631804
0.0071958
0.00814835
0.00917566
0.0102767
0.0114444
0.0126757
0.0139661
0.0153093
0.0166974
0.0181213
0.0195715
0.0210405
0.0225088
0.0239558
0.025371
0.0267465
0.028101
0.0295059
0.0310298
0.0325873
0.0341501
0.0356893
0.037246
0.0388003
0.0404697
0.0421954
0.044251
0.0464343
0.049401
0.052504
0.057411
0.0620529
0.0705886
0.0751684
0.310816
0.159806
0.0804887
0.0382393
0.0168719
0.00732651
0.00336279
0.00174797
0.00107007
0.000795254
0.00070634
0.00072106
0.000801221
0.000931262
0.00110511
0.00132277
0.00158638
0.00190007
0.00226787
0.00269442
0.00318394
0.00374017
0.00436617
0.0050644
0.00583672
0.00668436
0.00760886
0.00861103
0.00969049
0.0108445
0.0120656
0.0133504
0.0146938
0.0160887
0.0175265
0.0189974
0.0204911
0.021998
0.0234923
0.0249603
0.0263921
0.0277787
0.0291325
0.0305024
0.0319379
0.0333761
0.0347966
0.0361729
0.0375447
0.0388918
0.0403261
0.0417891
0.043538
0.045378
0.0479184
0.0505475
0.0547972
0.058738
0.0661486
0.0698269
0.306431
0.157877
0.0819869
0.0412223
0.0194405
0.00888858
0.00418412
0.00217082
0.00129518
0.000928014
0.000798382
0.000796955
0.000874026
0.00100854
0.00119182
0.00142269
0.00170274
0.00203606
0.00242659
0.00287913
0.00339801
0.00398703
0.00464929
0.0053872
0.00620249
0.00709612
0.00806956
0.00912345
0.0102571
0.0114649
0.0127405
0.0140795
0.0154761
0.0169225
0.0184092
0.0199257
0.0214607
0.0229972
0.0245142
0.025999
0.0274417
0.0288325
0.0301778
0.0315095
0.0328631
0.034192
0.035483
0.0367118
0.0379176
0.0390803
0.0403069
0.0415407
0.0430246
0.0445722
0.0467532
0.0489897
0.0526991
0.0560765
0.0625831
0.065581
0.303426
0.156498
0.0831522
0.0438318
0.0219916
0.0106238
0.00517607
0.00271267
0.00160007
0.00111194
0.000926351
0.000901462
0.000972042
0.00110983
0.00130254
0.00154735
0.001845
0.00219946
0.00261446
0.00309488
0.00364513
0.00426901
0.00496959
0.0057492
0.00660944
0.0075509
0.00857499
0.00968218
0.010871
0.0121333
0.0134637
0.0148569
0.0163062
0.0178031
0.0193374
0.0208973
0.0224671
0.0240284
0.0255642
0.0270612
0.028509
0.0298969
0.0312267
0.0325168
0.0337924
0.0350195
0.0361903
0.0372835
0.0383373
0.0393331
0.0403733
0.0414035
0.0426544
0.0439483
0.0458208
0.0477256
0.0509829
0.0538977
0.0596656
0.0621334
0.301375
0.155549
0.0840543
0.0460481
0.0244356
0.0124815
0.00633339
0.00338363
0.00199365
0.00135686
0.00109591
0.00103813
0.0010977
0.00123699
0.00143879
0.00169809
0.00201435
0.00239133
0.00283235
0.00334236
0.00392574
0.00458627
0.00532693
0.00614994
0.00705671
0.00804743
0.00912343
0.010285
0.0115292
0.0128463
0.0142313
0.0156779
0.0171789
0.0187247
0.0203042
0.0219026
0.0235007
0.0250833
0.0266334
0.0281374
0.0295842
0.0309626
0.0322698
0.0335146
0.0347146
0.0358448
0.0369025
0.0378689
0.038782
0.0396244
0.0404947
0.0413415
0.0423844
0.0434548
0.0450583
0.046678
0.0495511
0.0520783
0.0572327
0.0592765
0.299986
0.154931
0.0847574
0.0478798
0.026696
0.0143997
0.00763977
0.00419009
0.00248612
0.00167255
0.00131487
0.00121197
0.00125455
0.00139281
0.00160294
0.00187703
0.00221273
0.00261344
0.00308188
0.00362298
0.00424104
0.00493975
0.00572197
0.00658973
0.00754428
0.00858529
0.00971405
0.0109308
0.0122298
0.0136013
0.0150402
0.016539
0.0180897
0.0196821
0.0213028
0.0229324
0.0245548
0.0261542
0.0277137
0.0292189
0.0306586
0.0320205
0.0332986
0.034494
0.0356192
0.0366559
0.0376055
0.0384519
0.0392329
0.0399327
0.0406466
0.0413261
0.0421812
0.0430518
0.044418
0.0457887
0.0483306
0.0505278
0.0551644
0.0568616
0.299055
0.154568
0.0853167
0.0493562
0.0287151
0.01631
0.00906647
0.00513208
0.00308728
0.00206781
0.00159303
0.00142958
0.00144725
0.00158094
0.00179811
0.00208699
0.00244273
0.00286821
0.00336528
0.00393878
0.00459285
0.00533104
0.006156
0.00706954
0.00807276
0.00916471
0.0103467
0.0116189
0.0129716
0.0143967
0.0158879
0.017437
0.0190351
0.0206703
0.0223245
0.0239809
0.0256231
0.0272342
0.0287974
0.0302979
0.0317238
0.0330622
0.0343046
0.0354464
0.0364965
0.0374416
0.0382867
0.0390183
0.0396742
0.0402402
0.0408086
0.041334
0.042018
0.0427083
0.0438624
0.0450134
0.0472658
0.0491782
0.0533713
0.0547805
0.298442
0.154397
0.0857773
0.0505209
0.0304575
0.018144
0.0105726
0.0062009
0.00380361
0.00255267
0.00193907
0.00169926
0.00168165
0.00180592
0.00202814
0.00233143
0.00270756
0.00315866
0.00368537
0.00429237
0.00498355
0.00576223
0.00663082
0.00759085
0.00864326
0.00978641
0.0110216
0.0123489
0.0137538
0.0152309
0.0167725
0.0183692
0.0200109
0.0216813
0.0233645
0.025043
0.0266996
0.0283168
0.0298775
0.0313666
0.0327719
0.0340798
0.0352798
0.0363635
0.0373371
0.0381916
0.0389347
0.0395555
0.0400918
0.0405312
0.0409634
0.0413458
0.0418726
0.0423989
0.0433621
0.0443171
0.0463139
0.0479777
0.0517858
0.0529527
0.298046
0.154368
0.0861738
0.0514241
0.03191
0.0198398
0.0121078
0.00737742
0.00463619
0.00313552
0.00236211
0.0020297
0.00196488
0.00207321
0.00229758
0.00261444
0.00301099
0.00348833
0.00404546
0.00468683
0.00541596
0.00623588
0.00714865
0.00815551
0.00925728
0.0104515
0.0117394
0.0131202
0.0145758
0.0161029
0.0176923
0.0193321
0.0210102
0.0227114
0.0244184
0.0261135
0.0277785
0.0293954
0.030947
0.0324176
0.033795
0.0350651
0.0362162
0.037237
0.0381323
0.0388961
0.0395387
0.0400518
0.0404731
0.0407921
0.0410961
0.0413453
0.0417268
0.0421032
0.0428931
0.0436721
0.0454409
0.0468859
0.050356
0.0513176
0.2978
0.154442
0.0865316
0.0521175
0.0330794
0.0213481
0.0136158
0.00863152
0.0055785
0.00382143
0.00287074
0.00242933
0.00230511
0.00238915
0.00261167
0.00294064
0.00335729
0.00386122
0.00444931
0.00512567
0.0058933
0.00675488
0.00771206
0.0087657
0.00991659
0.0111613
0.0125012
0.0139332
0.0154373
0.0170117
0.018643
0.0203202
0.0220302
0.0237566
0.0254819
0.0271873
0.0288541
0.0304637
0.0319988
0.0334436
0.0347855
0.0360104
0.0371058
0.0380587
0.0388731
0.0395456
0.0400887
0.0404964
0.0408067
0.0410106
0.0411934
0.041318
0.041565
0.0418037
0.0424357
0.0430561
0.0446201
0.0458711
0.0490415
0.0498284
0.297654
0.154587
0.0868678
0.0526497
0.0339883
0.0226358
0.0150407
0.00992322
0.00661486
0.00461024
0.0034714
0.00290611
0.00271025
0.00276125
0.00297625
0.00331514
0.00375113
0.00428172
0.00490104
0.00561271
0.00641911
0.00732243
0.00832387
0.00942383
0.0106231
0.0119173
0.013308
0.0147882
0.0163372
0.0179528
0.0196216
0.0213312
0.0230674
0.0248132
0.0265502
0.028259
0.0299203
0.0315151
0.033026
0.034437
0.0357356
0.0369078
0.0379405
0.0388204
0.0395509
0.040131
0.0405749
0.0408792
0.0410818
0.0411756
0.0412437
0.0412517
0.0413738
0.041486
0.0419738
0.0424506
0.0438295
0.0449081
0.0478105
0.048449
0.297576
0.154779
0.0871932
0.0530639
0.03467
0.0236874
0.0163318
0.0112054
0.00771963
0.00549466
0.00416675
0.00346646
0.00318731
0.00319654
0.0033986
0.00374331
0.00419743
0.00475442
0.00540495
0.00615199
0.00699707
0.00794186
0.00898701
0.0101324
0.011379
0.0127211
0.01416
0.0156826
0.0172725
0.0189247
0.0206258
0.0223622
0.0241185
0.025877
0.0276186
0.0293232
0.0309711
0.032543
0.0340213
0.0353902
0.0366374
0.037749
0.0387124
0.0395139
0.0401572
0.0406433
0.0409881
0.0411905
0.0412886
0.0412769
0.0412363
0.0411352
0.0411414
0.0411375
0.0414934
0.0418403
0.0430515
0.0439765
0.0466378
0.0471507
0.297541
0.155
0.0875136
0.0533957
0.0351634
0.0245049
0.0174492
0.0124279
0.00885782
0.00645885
0.0049539
0.00411386
0.00374195
0.00370083
0.00388428
0.00423172
0.00470226
0.00528391
0.00596537
0.00674754
0.00763091
0.00861652
0.0097044
0.0108938
0.0121846
0.0135719
0.0150547
0.0166158
0.0182419
0.0199257
0.0216533
0.02341
0.0251796
0.0269434
0.0286817
0.0303739
0.0319999
0.0335402
0.0349772
0.0362955
0.0374828
0.0385261
0.0394131
0.0401309
0.0406835
0.0410738
0.0413194
0.0414214
0.0414177
0.0413049
0.0411616
0.0409586
0.0408576
0.0407475
0.0409829
0.0412127
0.0422715
0.0430596
0.045503
0.0459109
0.297533
0.155235
0.0878311
0.0536738
0.035509
0.0251044
0.0183672
0.0135429
0.00998712
0.00747778
0.00582281
0.00484732
0.0043773
0.00427849
0.00443775
0.00478456
0.00526975
0.00587516
0.00658679
0.00740323
0.00832379
0.00934874
0.0104774
0.0117085
0.0130407
0.0144702
0.0159919
0.017587
0.0192439
0.0209534
0.0227011
0.0244711
0.0262463
0.0280073
0.0297338
0.0314048
0.0329999
0.0344993
0.035886
0.0371445
0.0382635
0.0392304
0.0400342
0.0406628
0.0411211
0.0414138
0.0415601
0.0415629
0.0414605
0.041251
0.0410108
0.040713
0.0405133
0.0403065
0.0404323
0.0405569
0.0414773
0.042144
0.0443898
0.0447113
0.297542
0.155474
0.0881457
0.0539194
0.035745
0.0255127
0.0190756
0.0145093
0.0110615
0.0085177
0.00675512
0.00565975
0.00509256
0.00493146
0.00506178
0.00540476
0.00590288
0.00653108
0.00727202
0.0081217
0.00907805
0.0101405
0.0113077
0.0125775
0.013948
0.0154162
0.0169708
0.0185947
0.0202764
0.022005
0.0237654
0.025541
0.0273135
0.029063
0.0307686
0.0324089
0.0339634
0.0354125
0.0367392
0.0379289
0.0389707
0.0398534
0.0405671
0.0411012
0.0414617
0.041655
0.0417017
0.0416068
0.0414087
0.0411071
0.0407759
0.0403905
0.0401004
0.0398064
0.039833
0.0398638
0.0406588
0.0412184
0.043285
0.0435372
0.29756
0.155711
0.0884561
0.0541474
0.0359052
0.025763
0.0195793
0.0152976
0.0120355
0.00953813
0.00772375
0.00653664
0.00588155
0.00565794
0.00575647
0.00609321
0.00660287
0.00725313
0.00802261
0.00890447
0.00989507
0.0109929
0.0121959
0.0135012
0.0149061
0.0164085
0.0179898
0.0196366
0.0213363
0.0230767
0.024842
0.0266145
0.0283753
0.0301039
0.0317788
0.0333786
0.0348824
0.0362711
0.0375281
0.0386395
0.0395955
0.0403861
0.041003
0.0414375
0.0416967
0.0417889
0.041736
0.0415452
0.0412546
0.0408655
0.0404494
0.0399839
0.0396119
0.03924
0.0391777
0.0391259
0.0398077
0.0402737
0.0421776
0.0423766
0.297582
0.15594
0.0887603
0.0543678
0.0360179
0.0258908
0.0198957
0.0158922
0.0128694
0.0104951
0.00869379
0.0074553
0.00673138
0.00645115
0.00651817
0.00684774
0.00736843
0.00804055
0.00883822
0.00975139
0.0107747
0.0119057
0.0131414
0.0144784
0.0159137
0.0174438
0.0190462
0.0207091
0.0224195
0.0241636
0.0259251
0.0276854
0.0294249
0.0311226
0.0327566
0.0343052
0.035748
0.0370659
0.0382432
0.039267
0.0401284
0.0408192
0.0413329
0.0416628
0.0418176
0.0418073
0.0416552
0.0413704
0.0409909
0.0405194
0.0400248
0.0394868
0.0390414
0.0386011
0.0384602
0.0383367
0.0389171
0.0393024
0.041059
0.0412197
0.297606
0.156158
0.0890563
0.0545862
0.0361051
0.0259306
0.0200517
0.016292
0.0135333
0.0113455
0.0096246
0.00838502
0.00762155
0.00729806
0.00733826
0.00766214
0.00819478
0.00888958
0.00971581
0.0106599
0.0117147
0.0128766
0.0141419
0.0155067
0.0169679
0.0185188
0.0201357
0.0218075
0.0235203
0.0252596
0.0270079
0.0287463
0.0304543
0.0321104
0.0336927
0.0351794
0.0365503
0.037787
0.0388746
0.0398013
0.0405597
0.0411432
0.0415475
0.0417684
0.041816
0.0417024
0.0414519
0.0410755
0.040611
0.0400626
0.0394962
0.0388935
0.0383836
0.0378847
0.0376753
0.0374909
0.0379813
0.0382985
0.0399221
0.0400588
0.297629
0.156365
0.0893421
0.0548054
0.0361832
0.0259133
0.0200794
0.0165094
0.0140102
0.0120515
0.0104732
0.0092884
0.00852379
0.00817851
0.00820212
0.00852512
0.00907265
0.00979244
0.0106488
0.0116244
0.01271
0.0139008
0.0151928
0.0165812
0.0180637
0.019628
0.0212523
0.022925
0.0246317
0.0263568
0.0280821
0.0297882
0.0314539
0.0330575
0.0345769
0.0359906
0.0372787
0.0384237
0.0394115
0.040232
0.040879
0.0413483
0.0416377
0.0417455
0.0416838
0.0414664
0.0411187
0.0406538
0.0401089
0.0394894
0.0388584
0.0381994
0.0376339
0.0370863
0.0368186
0.0365843
0.0369959
0.0372571
0.0387614
0.0388876
0.29765
0.156558
0.0896164
0.0550259
0.0362631
0.025865
0.0200124
0.0165674
0.0142975
0.0125853
0.0111986
0.010124
0.00940296
0.00906505
0.0090884
0.0094194
0.00998745
0.0107365
0.0116261
0.012635
0.0137517
0.0149704
0.0162864
0.0176944
0.0191931
0.0207634
0.0223876
0.024053
0.0257445
0.0274456
0.0291376
0.0308005
0.0324129
0.0339526
0.0353978
0.0367272
0.0379215
0.0389642
0.0398426
0.0405478
0.0410758
0.0414244
0.0415939
0.0415855
0.041413
0.041092
0.0406493
0.0400993
0.0394791
0.0387951
0.038107
0.0374003
0.0367888
0.0362025
0.035887
0.0356136
0.0359575
0.0361744
0.0375724
0.0377009
0.297669
0.156739
0.0898783
0.0552472
0.0363515
0.0258062
0.0198828
0.0164959
0.0144061
0.0129319
0.0117664
0.0108499
0.0102191
0.00992352
0.00996888
0.0103212
0.0109185
0.0117033
0.0126313
0.013677
0.0148266
0.016073
0.0174111
0.0188354
0.020344
0.0219142
0.0235308
0.0251803
0.0268471
0.0285141
0.0301623
0.0317709
0.0333185
0.0347829
0.0361424
0.0373762
0.038466
0.0393962
0.0401557
0.0407373
0.0411392
0.0413613
0.0414068
0.0412797
0.0409957
0.0405724
0.0400374
0.0394068
0.0387171
0.0379756
0.0372387
0.0364934
0.0358456
0.0352309
0.0348781
0.0345765
0.0348635
0.0350478
0.0363521
0.0364951
0.297685
0.156907
0.0901271
0.055468
0.0364518
0.0257519
0.019719
0.0163281
0.0143579
0.0130902
0.0121528
0.0114286
0.0109306
0.0107149
0.0108091
0.0112003
0.0118386
0.0126684
0.0136421
0.0147302
0.0159162
0.0171917
0.0185512
0.019989
0.0215021
0.0230661
0.0246676
0.0262926
0.0279254
0.0295481
0.0311416
0.0326849
0.0341563
0.0355339
0.0367963
0.0379235
0.0388982
0.0397062
0.040338
0.0407885
0.0410579
0.0411488
0.0410672
0.04082
0.040425
0.0399014
0.0392779
0.038572
0.0378193
0.0370281
0.036251
0.0354766
0.0348024
0.0341698
0.0337904
0.0334716
0.0337125
0.0338756
0.0350982
0.0352672
0.297699
0.157063
0.0903628
0.0556866
0.0365648
0.0257121
0.0195443
0.0160969
0.014183
0.0130731
0.0123474
0.0118307
0.0114985
0.0113981
0.0115702
0.012021
0.0127148
0.0136008
0.0146296
0.0157679
0.0169959
0.0183038
0.0196856
0.0211355
0.0226486
0.024201
0.0257803
0.0273727
0.028962
0.0305305
0.0320587
0.0335255
0.0349096
0.0361892
0.0373436
0.0383537
0.0392034
0.0398801
0.0403763
0.040689
0.0408207
0.0407769
0.0405662
0.0401988
0.0396943
0.0390737
0.0383665
0.0375915
0.0367831
0.0359506
0.0351425
0.0343489
0.0336587
0.033019
0.0326236
0.0322983
0.0325041
0.0326569
0.0338096
0.0340155
0.297711
0.157208
0.0905857
0.0559018
0.0366898
0.0256923
0.0193764
0.0158321
0.013915
0.0129046
0.0123543
0.0120393
0.0118908
0.011934
0.0122115
0.0127434
0.013509
0.014464
0.0155592
0.0167572
0.018035
0.0193807
0.0207876
0.02225
0.02376
0.0252963
0.0268473
0.0283994
0.0299366
0.0314413
0.0328939
0.0342738
0.0355597
0.0367307
0.0377667
0.0386499
0.0393656
0.039903
0.0402568
0.0404262
0.0404164
0.0402356
0.0398955
0.0394091
0.038798
0.038085
0.0373001
0.0364631
0.0356074
0.0347426
0.0339132
0.0331106
0.032415
0.0317789
0.0313783
0.0310574
0.0312385
0.0313918
0.032486
0.0327389
0.29772
0.157344
0.0907961
0.056112
0.0368248
0.0256952
0.0192276
0.0155588
0.0135876
0.0126163
0.0121911
0.0120516
0.0120865
0.0122895
0.0126941
0.0133271
0.0141803
0.0152175
0.0163907
0.0176595
0.0189967
0.0203876
0.0218245
0.0233016
0.0248075
0.0263247
0.0278424
0.0293477
0.030825
0.0322571
0.0336249
0.034908
0.036086
0.0371385
0.0380468
0.0387943
0.0393681
0.0397596
0.0399655
0.0399878
0.0398342
0.0395159
0.0390475
0.038445
0.0377318
0.0369323
0.0360768
0.0351862
0.0342922
0.0334049
0.0325646
0.0317636
0.0310732
0.0304514
0.0300563
0.0297504
0.0299173
0.0300814
0.031128
0.0314373
0.297728
0.15747
0.0909948
0.0563164
0.0369679
0.0257206
0.0191055
0.0152963
0.0132319
0.0122437
0.011886
0.0118798
0.0120786
0.0124421
0.0129854
0.0137339
0.0146877
0.0158185
0.0170809
0.0184315
0.0198387
0.021284
0.0227579
0.0242542
0.025757
0.0272539
0.0287352
0.0301886
0.0315997
0.0329517
0.0342264
0.0354042
0.0364654
0.037391
0.0381635
0.0387681
0.0391938
0.0394342
0.0394886
0.0393617
0.039064
0.0386095
0.0380159
0.0373019
0.0364928
0.0356143
0.0346969
0.033762
0.0328397
0.0319404
0.0310996
0.0303109
0.0296365
0.0290398
0.0286607
0.0283799
0.0285428
0.0287276
0.029737
0.0301113
0.297734
0.157588
0.0911826
0.0565143
0.0371165
0.025767
0.0190138
0.0150585
0.0128739
0.0118217
0.0114743
0.0115488
0.0118754
0.012383
0.0130633
0.0139326
0.0149942
0.0162262
0.0175859
0.0190278
0.0205151
0.0220248
0.0235442
0.0250657
0.0265694
0.0280473
0.0294908
0.0308893
0.0322294
0.0334956
0.0346705
0.035736
0.0366735
0.0374653
0.0380958
0.0385519
0.0388251
0.0389114
0.0388127
0.0385367
0.0380966
0.0375096
0.0367959
0.0359771
0.0350801
0.0341317
0.0331623
0.0321936
0.031254
0.0303535
0.0295232
0.0287577
0.0281099
0.0275486
0.0271957
0.0269499
0.0271185
0.0273333
0.0283155
0.0287624
0.297738
0.157698
0.0913601
0.0567052
0.0372685
0.0258317
0.0189532
0.0148539
0.0125337
0.011382
0.0109935
0.0110927
0.0114994
0.0121189
0.0129194
0.0139031
0.0150709
0.0164047
0.0178648
0.0194036
0.0209792
0.0225626
0.0241366
0.0256907
0.0272015
0.0286637
0.0300706
0.0314133
0.0326799
0.0338565
0.0349273
0.0358755
0.0366842
0.0373375
0.0378217
0.0381262
0.0382448
0.0381763
0.0379255
0.0375029
0.0369248
0.0362111
0.035385
0.0344703
0.0334953
0.0324878
0.0314778
0.0304869
0.0295414
0.0286511
0.0278425
0.0271108
0.0265
0.0259841
0.0256671
0.0254655
0.0256491
0.0259022
0.0268667
0.0273927
0.297742
0.157802
0.0915283
0.0568889
0.037422
0.0259117
0.0189221
0.0146868
0.0122255
0.0109508
0.0104798
0.010551
0.0109845
0.0116717
0.0125613
0.0136395
0.014901
0.0163284
0.017884
0.0195192
0.0211865
0.0228501
0.024487
0.0260819
0.0276073
0.0290594
0.0304332
0.0317215
0.0329147
0.0340005
0.0349651
0.0357935
0.0364708
0.0369834
0.0373198
0.037472
0.0374366
0.0372154
0.0368162
0.0362525
0.0355435
0.0347118
0.0337832
0.0327838
0.0317429
0.0306888
0.0296508
0.0286503
0.0277112
0.0268427
0.0260669
0.0253793
0.0248155
0.0243541
0.0240821
0.0239331
0.0241402
0.0244394
0.0253949
0.0260052
0.297744
0.157901
0.091688
0.0570656
0.0375754
0.0260039
0.0189177
0.0145578
0.0119578
0.0105478
0.00996481
0.0099634
0.0103714
0.0110759
0.0120122
0.0131526
0.0144833
0.0159851
0.0176219
0.0193441
0.0210997
0.022845
0.0245496
0.0261928
0.0277406
0.0291895
0.0305357
0.0317738
0.0328961
0.0338926
0.0347516
0.0354605
0.0360068
0.0363794
0.0365694
0.0365719
0.0363863
0.0360176
0.0354768
0.0347806
0.0339507
0.0330127
0.0319944
0.0309238
0.029831
0.0287445
0.0276925
0.0266958
0.0257756
0.0249407
0.0242083
0.0235748
0.023067
0.0226686
0.0224497
0.0223606
0.022599
0.0229506
0.023905
0.0246039
0.297746
0.157994
0.09184
0.0572353
0.0377274
0.0261053
0.0189365
0.0144655
0.0117345
0.0101864
0.00947361
0.0093662
0.00970326
0.0103744
0.0113091
0.0124695
0.0138337
0.01538
0.0170727
0.0188624
0.0206931
0.0225139
0.0242858
0.0259811
0.0275581
0.0290112
0.0303368
0.0315306
0.0325871
0.0334985
0.0342557
0.0348485
0.0352673
0.0355038
0.0355523
0.0354109
0.0350824
0.034575
0.033903
0.0330861
0.0321488
0.031119
0.0300265
0.0289008
0.0277721
0.0266689
0.0256179
0.0246389
0.0237506
0.0229606
0.0222819
0.0217113
0.0212677
0.0209394
0.0207806
0.0207574
0.0210337
0.0214429
0.0224032
0.0231932
0.297747
0.158082
0.0919851
0.0573985
0.0378772
0.0262134
0.0189747
0.0144065
0.011556
0.00987387
0.00902417
0.0087894
0.00902037
0.00961333
0.010498
0.0116312
0.0129856
0.0145366
0.0162496
0.018076
0.0199579
0.021838
0.0236685
0.0254137
0.0270234
0.0284869
0.029799
0.0309561
0.031954
0.0327872
0.033449
0.0339324
0.0342307
0.0343387
0.0342541
0.0339783
0.0335179
0.0328844
0.0320952
0.0311731
0.0301451
0.0290413
0.0278929
0.0267303
0.0255837
0.0244808
0.0234467
0.0224997
0.0216557
0.0209215
0.0203057
0.0198056
0.019433
0.0191802
0.0190871
0.0191342
0.0194538
0.0199245
0.0208965
0.0217787
0.297748
0.158167
0.092124
0.0575554
0.038024
0.0263259
0.0190286
0.0143769
0.0114199
0.00961297
0.00862755
0.00825536
0.00835715
0.00883708
0.00962873
0.0106883
0.011986
0.013496
0.0151855
0.017008
0.0189059
0.0208178
0.022688
0.0244718
0.0261126
0.0275892
0.0288937
0.0300215
0.0309692
0.0317331
0.032309
0.0326927
0.0328807
0.0328714
0.0326659
0.0322695
0.031692
0.0309488
0.0300603
0.0290521
0.0279537
0.0267966
0.025613
0.024434
0.0232889
0.0222044
0.0212033
0.0203025
0.0195148
0.018846
0.0183011
0.0178775
0.0175809
0.0174074
0.0173835
0.0175037
0.0178705
0.0184046
0.019393
0.0203666
0.297749
0.158249
0.0922575
0.0577066
0.0381675
0.0264411
0.0190948
0.0143722
0.0113223
0.0094027
0.00828889
0.00777858
0.0077398
0.00808378
0.00874937
0.00969502
0.0108914
0.0123136
0.0139313
0.0157024
0.0175718
0.019477
0.0213568
0.023158
0.0248192
0.026306
0.0276052
0.0287098
0.0296158
0.0303206
0.0308219
0.0311183
0.0312096
0.0310976
0.0307872
0.0302875
0.029612
0.0287793
0.0278132
0.0267417
0.0255961
0.0244092
0.0232137
0.0220403
0.0209174
0.0198697
0.0189178
0.0180764
0.017356
0.0167608
0.0162927
0.0159497
0.0157318
0.015639
0.0156862
0.0158799
0.0162959
0.0168936
0.0179017
0.018964
0.297749
0.158328
0.0923862
0.0578524
0.0383075
0.0265576
0.0191703
0.0143881
0.0112586
0.00923962
0.00800863
0.0073665
0.00718579
0.00738286
0.00790136
0.00870317
0.00976122
0.0110529
0.0125518
0.0142215
0.0160122
0.0178638
0.0197125
0.0214991