/*--------------------------------*- C++ -*----------------------------------*\
| =========                 |                                                 |
| \\      /  F ield         | OpenFOAM: The Open Source CFD Toolbox           |
|  \\    /   O peration     | Version:  2.4.0                                 |
|   \\  /    A nd           | Web:      www.OpenFOAM.org                      |
|    \\/     M anipulation  |                                                 |
\*---------------------------------------------------------------------------*/
FoamFile
{
    version     2.0;
    format      ascii;
    class       surfaceScalarField;
    location    "260";
    object      phi;
}
// * * * * * * * * * * * * * * * * * * * * * * * * * * * * * * * * * * * * * //

dimensions      [0 3 -1 0 0 0 0];

internalField   nonuniform List<scalar> 
19800
(
0.000192365
2.2937e-09
0.000192359
5.399e-09
0.000192352
7.77944e-09
0.000192342
9.68681e-09
0.000192331
1.12882e-08
0.000192318
1.26901e-08
0.000192304
1.39569e-08
0.000192289
1.51599e-08
0.000192273
1.63167e-08
0.000192255
1.75063e-08
0.000192236
1.86935e-08
0.000192216
2.00135e-08
0.000192195
2.12687e-08
0.000192172
2.27607e-08
0.000192149
2.35047e-08
0.000192125
2.4232e-08
0.000192105
1.9559e-08
0.000192093
1.21173e-08
0.00019213
-3.7205e-08
7.89214e-08
0.000192051
0.000197699
4.64855e-09
0.000197694
1.09435e-08
0.000197686
1.5767e-08
0.000197676
1.96329e-08
0.000197664
2.28764e-08
0.000197651
2.57148e-08
0.000197637
2.82782e-08
0.000197621
3.07083e-08
0.000197605
3.30452e-08
0.000197587
3.54374e-08
0.000197568
3.78331e-08
0.000197547
4.04668e-08
0.000197525
4.30367e-08
0.000197502
4.60216e-08
0.000197478
4.81082e-08
0.000197451
5.05945e-08
0.000197422
4.83211e-08
0.000197384
5.03964e-08
0.0001973
4.68141e-08
1.6686e-07
0.000197212
0.000203182
7.06541e-09
0.000203176
1.66336e-08
0.000203168
2.39629e-08
0.000203158
2.98363e-08
0.000203146
3.47605e-08
0.000203133
3.90661e-08
0.000203118
4.295e-08
0.000203102
4.66239e-08
0.000203085
5.01511e-08
0.000203067
5.37453e-08
0.000203047
5.73426e-08
0.000203026
6.12645e-08
0.000203004
6.51454e-08
0.000202981
6.96267e-08
0.000202955
7.33561e-08
0.000202928
7.82089e-08
0.000202896
8.03765e-08
0.000202855
9.09053e-08
0.000202795
1.06888e-07
1.90533e-07
0.000202771
0.000208817
9.54427e-09
0.000208811
2.2469e-08
0.000208802
3.23658e-08
0.000208792
4.02935e-08
0.00020878
4.69341e-08
0.000208766
5.2733e-08
0.000208751
5.79548e-08
0.000208735
6.28796e-08
0.000208717
6.75941e-08
0.000208699
7.23703e-08
0.000208679
7.71372e-08
0.000208658
8.22836e-08
0.000208636
8.74188e-08
0.000208612
9.3293e-08
0.000208587
9.86906e-08
0.000208559
1.05718e-07
0.000208528
1.1182e-07
0.000208492
1.2621e-07
0.000208452
1.47065e-07
2.01672e-07
0.000208441
0.000214607
1.20848e-08
0.000214601
2.84486e-08
0.000214593
4.09731e-08
0.000214582
5.09998e-08
0.00021457
5.93888e-08
0.000214556
6.67018e-08
0.00021454
7.32714e-08
0.000214524
7.94434e-08
0.000214506
8.53277e-08
0.000214487
9.12451e-08
0.000214467
9.71212e-08
0.000214446
1.03387e-07
0.000214424
1.09654e-07
0.0002144
1.16706e-07
0.000214376
1.23513e-07
0.000214349
1.32042e-07
0.000214321
1.40527e-07
0.000214291
1.55319e-07
0.000214264
1.74757e-07
2.09695e-07
0.000214256
0.000220559
1.46864e-08
0.000220553
3.45706e-08
0.000220544
4.97815e-08
0.000220533
6.1949e-08
0.00022052
7.21143e-08
0.000220506
8.09561e-08
0.00022049
8.88751e-08
0.000220473
9.62789e-08
0.000220456
1.033e-07
0.000220436
1.10296e-07
0.000220416
1.17191e-07
0.000220395
1.24431e-07
0.000220373
1.31641e-07
0.000220351
1.3956e-07
0.000220327
1.47327e-07
0.000220302
1.56527e-07
0.000220277
1.65841e-07
0.000220253
1.7909e-07
0.000220233
1.94654e-07
2.15945e-07
0.000220227
0.000226675
1.73483e-08
0.000226669
4.08328e-08
0.00022666
5.87863e-08
0.000226649
7.3133e-08
0.000226636
8.50979e-08
0.000226621
9.54765e-08
0.000226605
1.04737e-07
0.000226588
1.13345e-07
0.00022657
1.21452e-07
0.000226551
1.29442e-07
0.000226531
1.37236e-07
0.00022651
1.45268e-07
0.000226489
1.53174e-07
0.000226467
1.61588e-07
0.000226444
1.69771e-07
0.000226422
1.78832e-07
0.0002264
1.87694e-07
0.000226381
1.98325e-07
0.000226366
2.09213e-07
2.2082e-07
0.000226361
0.000232961
2.00693e-08
0.000232955
4.7232e-08
0.000232946
6.79816e-08
0.000232934
8.45423e-08
0.000232921
9.83247e-08
0.000232906
1.10241e-07
0.00023289
1.20826e-07
0.000232873
1.30597e-07
0.000232855
1.39723e-07
0.000232836
1.486e-07
0.000232816
1.57146e-07
0.000232795
1.65754e-07
0.000232774
1.74069e-07
0.000232753
1.82577e-07
0.000232732
1.90614e-07
0.000232712
1.98834e-07
0.000232694
2.063e-07
0.000232678
2.13801e-07
0.000232667
2.20062e-07
2.24667e-07
0.000232664
0.000239422
2.28479e-08
0.000239415
5.37641e-08
0.000239406
7.73605e-08
0.000239394
9.61655e-08
0.000239381
1.11777e-07
0.000239366
1.25224e-07
0.000239349
1.37106e-07
0.000239332
1.47984e-07
0.000239314
1.58047e-07
0.000239295
1.67684e-07
0.000239275
1.7681e-07
0.000239255
1.85755e-07
0.000239235
1.94169e-07
0.000239215
2.02368e-07
0.000239196
2.09738e-07
0.000239178
2.1656e-07
0.000239163
2.2201e-07
0.00023915
2.26237e-07
0.000239142
2.28287e-07
2.27698e-07
0.000239139
0.000246061
2.56822e-08
0.000246055
6.04243e-08
0.000246045
8.69143e-08
0.000246033
1.07989e-07
0.00024602
1.25436e-07
0.000246004
1.40397e-07
0.000245988
1.53537e-07
0.000245971
1.65456e-07
0.000245952
1.76353e-07
0.000245933
1.86606e-07
0.000245914
1.96119e-07
0.000245895
2.0515e-07
0.000245875
2.13344e-07
0.000245857
2.20857e-07
0.00024584
2.27113e-07
0.000245824
2.32131e-07
0.000245811
2.35213e-07
0.000245801
2.3624e-07
0.000245794
2.34599e-07
2.30053e-07
0.000245792
0.000252885
2.857e-08
0.000252878
6.72067e-08
0.000252868
9.6633e-08
0.000252856
1.19998e-07
0.000252843
1.39279e-07
0.000252827
1.55729e-07
0.000252811
1.70078e-07
0.000252793
1.82955e-07
0.000252775
1.94571e-07
0.000252756
2.05281e-07
0.000252738
2.14975e-07
0.000252719
2.23835e-07
0.000252701
2.31499e-07
0.000252684
2.37989e-07
0.000252668
2.42774e-07
0.000252654
2.45721e-07
0.000252643
2.46283e-07
0.000252635
2.44299e-07
0.00025263
2.39476e-07
2.31837e-07
0.000252629
0.000259898
3.15087e-08
0.000259891
7.41045e-08
0.000259881
1.06505e-07
0.000259869
1.32174e-07
0.000259855
1.5328e-07
0.00025984
1.71186e-07
0.000259823
1.86682e-07
0.000259805
2.00424e-07
0.000259787
2.12629e-07
0.000259769
2.23624e-07
0.000259751
2.33286e-07
0.000259733
2.4172e-07
0.000259716
2.48568e-07
0.0002597
2.53751e-07
0.000259686
2.56798e-07
0.000259674
2.57523e-07
0.000259665
2.55549e-07
0.000259658
2.50799e-07
0.000259655
2.43248e-07
2.33139e-07
0.000259653
0.000267105
3.44951e-08
0.000267098
8.11097e-08
0.000267088
1.16517e-07
0.000267076
1.44499e-07
0.000267062
1.67414e-07
0.000267046
1.86732e-07
0.00026703
2.03303e-07
0.000267012
2.17803e-07
0.000266994
2.30457e-07
0.000266977
2.41556e-07
0.000266959
2.50971e-07
0.000266942
2.58738e-07
0.000266926
2.64512e-07
0.000266912
2.68158e-07
0.000266899
2.69284e-07
0.000266889
2.6773e-07
0.000266881
2.63296e-07
0.000266876
2.56038e-07
0.000266873
2.46149e-07
2.34031e-07
0.000266872
0.000274513
3.75256e-08
0.000274506
8.82134e-08
0.000274495
1.26655e-07
0.000274483
1.5695e-07
0.000274469
1.81648e-07
0.000274453
2.02326e-07
0.000274437
2.1989e-07
0.000274419
2.35032e-07
0.000274402
2.47984e-07
0.000274384
2.59005e-07
0.000274367
2.6796e-07
0.000274351
2.74836e-07
0.000274336
2.79317e-07
0.000274323
2.81251e-07
0.000274312
2.80349e-07
0.000274303
2.76526e-07
0.000274297
2.69759e-07
0.000274293
2.60249e-07
0.000274291
2.48352e-07
2.34574e-07
0.00027429
0.000282125
4.05963e-08
0.000282118
9.54053e-08
0.000282108
1.36901e-07
0.000282095
1.69504e-07
0.000282081
1.95953e-07
0.000282065
2.17927e-07
0.000282049
2.36391e-07
0.000282032
2.5205e-07
0.000282015
2.65144e-07
0.000281998
2.75902e-07
0.000281982
2.84195e-07
0.000281967
2.8998e-07
0.000281953
2.92987e-07
0.000281941
2.93087e-07
0.000281931
2.9011e-07
0.000281924
2.84079e-07
0.000281918
2.75134e-07
0.000281915
2.63613e-07
0.000281913
2.49986e-07
2.34818e-07
0.000281913
0.000289949
4.37026e-08
0.000289942
1.02674e-07
0.000289932
1.47238e-07
0.000289919
1.82135e-07
0.000289905
2.10293e-07
0.000289889
2.33492e-07
0.000289873
2.52755e-07
0.000289856
2.68798e-07
0.000289839
2.81873e-07
0.000289823
2.92188e-07
0.000289807
2.99631e-07
0.000289793
3.0415e-07
0.000289781
3.05541e-07
0.00028977
3.03732e-07
0.000289762
2.98682e-07
0.000289755
2.90536e-07
0.000289751
2.79583e-07
0.000289748
2.6627e-07
0.000289747
2.51146e-07
2.34807e-07
0.000289747
0.00029799
4.68394e-08
0.000297983
1.10007e-07
0.000297972
1.57646e-07
0.00029796
1.94814e-07
0.000297945
2.24631e-07
0.00029793
2.48975e-07
0.000297914
2.68927e-07
0.000297897
2.85216e-07
0.000297881
2.98112e-07
0.000297865
3.07812e-07
0.000297851
3.14232e-07
0.000297838
3.1734e-07
0.000297826
3.17011e-07
0.000297817
3.13259e-07
0.000297809
3.06174e-07
0.000297804
2.9603e-07
0.0002978
2.83237e-07
0.000297798
2.68331e-07
0.000297797
2.5191e-07
2.34575e-07
0.000297797
0.000306254
5.00012e-08
0.000306246
1.1739e-07
0.000306236
1.68102e-07
0.000306223
2.07513e-07
0.000306209
2.38929e-07
0.000306194
2.6433e-07
0.000306178
2.84854e-07
0.000306162
3.01249e-07
0.000306146
3.13807e-07
0.000306131
3.22729e-07
0.000306117
3.27974e-07
0.000306105
3.29553e-07
0.000306095
3.27437e-07
0.000306086
3.2174e-07
0.00030608
3.12688e-07
0.000306075
3.00671e-07
0.000306072
2.86203e-07
0.000306071
2.69884e-07
0.00030607
2.52335e-07
2.34149e-07
0.000306071
0.000314747
5.3182e-08
0.000314739
1.24809e-07
0.000314729
1.78583e-07
0.000314716
2.20198e-07
0.000314702
2.53148e-07
0.000314687
2.7951e-07
0.000314671
3.00484e-07
0.000314656
3.16843e-07
0.00031464
3.28909e-07
0.000314626
3.36903e-07
0.000314613
3.40843e-07
0.000314602
3.40803e-07
0.000314593
3.36863e-07
0.000314585
3.2925e-07
0.00031458
3.18316e-07
0.000314576
3.04558e-07
0.000314573
2.88572e-07
0.000314572
2.70998e-07
0.000314572
2.52468e-07
2.33554e-07
0.000314573
0.000323475
5.6375e-08
0.000323468
1.32247e-07
0.000323457
1.89065e-07
0.000323445
2.32838e-07
0.000323431
2.67245e-07
0.000323416
2.94466e-07
0.0003234
3.15766e-07
0.000323385
3.31947e-07
0.000323371
3.43375e-07
0.000323357
3.50306e-07
0.000323345
3.52834e-07
0.000323335
3.51112e-07
0.000323327
3.45339e-07
0.00032332
3.35859e-07
0.000323315
3.23141e-07
0.000323312
3.07774e-07
0.00032331
2.90416e-07
0.000323309
2.71731e-07
0.00032331
2.52347e-07
2.32808e-07
0.00032331
0.000332446
5.95733e-08
0.000332438
1.39687e-07
0.000332428
1.99521e-07
0.000332415
2.45397e-07
0.000332401
2.81179e-07
0.000332387
3.09152e-07
0.000332372
3.30649e-07
0.000332357
3.46514e-07
0.000332344
3.57168e-07
0.000332331
3.62918e-07
0.00033232
3.63947e-07
0.00033231
3.60505e-07
0.000332303
3.52914e-07
0.000332297
3.41633e-07
0.000332293
3.27237e-07
0.00033229
3.10392e-07
0.000332289
2.91797e-07
0.000332289
2.72129e-07
0.000332289
2.52e-07
2.31927e-07
0.00033229
0.000341665
6.27692e-08
0.000341658
1.4711e-07
0.000341647
2.09923e-07
0.000341635
2.57838e-07
0.000341621
2.94906e-07
0.000341607
3.23518e-07
0.000341592
3.45085e-07
0.000341578
3.60501e-07
0.000341565
3.70256e-07
0.000341554
3.74724e-07
0.000341543
3.7419e-07
0.000341535
3.69014e-07
0.000341528
3.59639e-07
0.000341523
3.46635e-07
0.00034152
3.3067e-07
0.000341518
3.12472e-07
0.000341517
2.92765e-07
0.000341516
2.72229e-07
0.000341517
2.51453e-07
2.30923e-07
0.000341518
0.00035114
6.59545e-08
0.000351133
1.54497e-07
0.000351123
2.20242e-07
0.00035111
2.70125e-07
0.000351097
3.08384e-07
0.000351083
3.3752e-07
0.000351069
3.5903e-07
0.000351055
3.73871e-07
0.000351043
3.82614e-07
0.000351032
3.85716e-07
0.000351023
3.83577e-07
0.000351015
3.76671e-07
0.000351009
3.65561e-07
0.000351005
3.50923e-07
0.000351002
3.335e-07
0.000351
3.14067e-07
0.000351
2.93365e-07
0.000351
2.72062e-07
0.000351001
2.50726e-07
2.29807e-07
0.000351002
0.000360878
6.91209e-08
0.000360871
1.61827e-07
0.00036086
2.30447e-07
0.000360848
2.82219e-07
0.000360835
3.21568e-07
0.000360822
3.51112e-07
0.000360808
3.72442e-07
0.000360795
3.8659e-07
0.000360784
3.94222e-07
0.000360774
3.95894e-07
0.000360765
3.92126e-07
0.000360758
3.83511e-07
0.000360753
3.70729e-07
0.00036075
3.54549e-07
0.000360747
3.35778e-07
0.000360746
3.15224e-07
0.000360746
2.93632e-07
0.000360746
2.71656e-07
0.000360747
2.49834e-07
2.28588e-07
0.000360748
0.000370886
7.22592e-08
0.000370879
1.69079e-07
0.000370869
2.40508e-07
0.000370857
2.94082e-07
0.000370844
3.34416e-07
0.000370831
3.64251e-07
0.000370818
3.8528e-07
0.000370806
3.98628e-07
0.000370795
4.05065e-07
0.000370786
4.05259e-07
0.000370778
3.99856e-07
0.000370772
3.89569e-07
0.000370767
3.75188e-07
0.000370764
3.57561e-07
0.000370763
3.3755e-07
0.000370762
3.15981e-07
0.000370762
2.93597e-07
0.000370762
2.71031e-07
0.000370764
2.48793e-07
2.27272e-07
0.000370765
0.000381171
7.53603e-08
0.000381164
1.7623e-07
0.000381154
2.50393e-07
0.000381143
3.05676e-07
0.00038113
3.46885e-07
0.000381118
3.76895e-07
0.000381105
3.97511e-07
0.000381094
4.09961e-07
0.000381084
4.15134e-07
0.000381075
4.13819e-07
0.000381068
4.06791e-07
0.000381063
3.94882e-07
0.000381059
3.78981e-07
0.000381057
3.60005e-07
0.000381056
3.38856e-07
0.000381055
3.16372e-07
0.000381055
2.93286e-07
0.000381056
2.70206e-07
0.000381057
2.47614e-07
2.25867e-07
0.000381059
0.000391742
7.84145e-08
0.000391735
1.83258e-07
0.000391725
2.60068e-07
0.000391714
3.16961e-07
0.000391702
3.58936e-07
0.00039169
3.89006e-07
0.000391678
4.09102e-07
0.000391668
4.20569e-07
0.000391658
4.24424e-07
0.00039165
4.21585e-07
0.000391644
4.12957e-07
0.00039164
3.99485e-07
0.000391637
3.82146e-07
0.000391635
3.61919e-07
0.000391634
3.39733e-07
0.000391634
3.16428e-07
0.000391634
2.92722e-07
0.000391635
2.69198e-07
0.000391637
2.46306e-07
2.24376e-07
0.000391638
0.000402606
8.14119e-08
0.000402599
1.9014e-07
0.000402589
2.69502e-07
0.000402578
3.27899e-07
0.000402567
3.70527e-07
0.000402555
4.00547e-07
0.000402544
4.20026e-07
0.000402534
4.30437e-07
0.000402526
4.32934e-07
0.000402519
4.28571e-07
0.000402514
4.18379e-07
0.00040251
4.0341e-07
0.000402507
3.84722e-07
0.000402506
3.6334e-07
0.000402505
3.40212e-07
0.000402505
3.16174e-07
0.000402506
2.91924e-07
0.000402507
2.68018e-07
0.000402509
2.44879e-07
2.22805e-07
0.00040251
0.000413771
8.43425e-08
0.000413764
1.96853e-07
0.000413755
2.78663e-07
0.000413744
3.38454e-07
0.000413733
3.81622e-07
0.000413722
4.11486e-07
0.000413712
4.30259e-07
0.000413703
4.39552e-07
0.000413695
4.40667e-07
0.000413689
4.34792e-07
0.000413684
4.23084e-07
0.000413681
4.06692e-07
0.000413679
3.86744e-07
0.000413678
3.64301e-07
0.000413678
3.40322e-07
0.000413678
3.15632e-07
0.000413679
2.90909e-07
0.000413681
2.6668e-07
0.000413682
2.43338e-07
2.21157e-07
0.000413684
0.000425245
8.71961e-08
0.000425239
2.03372e-07
0.00042523
2.87518e-07
0.00042522
3.4859e-07
0.000425209
3.92186e-07
0.000425199
4.21793e-07
0.000425189
4.3978e-07
0.000425181
4.47909e-07
0.000425174
4.4763e-07
0.000425169
4.40268e-07
0.000425165
4.27098e-07
0.000425162
4.09362e-07
0.00042516
3.88244e-07
0.00042516
3.64832e-07
0.00042516
3.40087e-07
0.000425161
3.14824e-07
0.000425162
2.89692e-07
0.000425164
2.65193e-07
0.000425165
2.41691e-07
2.19435e-07
0.000425167
0.000437038
8.99625e-08
0.000437032
2.09674e-07
0.000437023
2.96035e-07
0.000437014
3.5827e-07
0.000437004
4.02185e-07
0.000436994
4.31442e-07
0.000436985
4.48575e-07
0.000436978
4.55504e-07
0.000436972
4.53831e-07
0.000436967
4.45017e-07
0.000436963
4.3045e-07
0.000436961
4.11451e-07
0.00043696
3.89251e-07
0.00043696
3.64958e-07
0.000436961
3.39531e-07
0.000436962
3.13765e-07
0.000436963
2.88286e-07
0.000436965
2.63566e-07
0.000436967
2.39943e-07
2.17643e-07
0.000436968
0.000449158
9.26316e-08
0.000449152
2.15737e-07
0.000449144
3.04185e-07
0.000449135
3.67464e-07
0.000449125
4.1159e-07
0.000449116
4.40409e-07
0.000449108
4.5663e-07
0.000449102
4.62336e-07
0.000449096
4.59282e-07
0.000449092
4.49062e-07
0.000449089
4.33166e-07
0.000449088
4.12986e-07
0.000449087
3.89793e-07
0.000449088
3.64706e-07
0.000449088
3.38674e-07
0.00044909
3.12473e-07
0.000449091
2.86702e-07
0.000449093
2.61806e-07
0.000449095
2.38099e-07
2.15782e-07
0.000449097
0.000461614
9.51935e-08
0.000461608
2.21538e-07
0.000461601
3.11937e-07
0.000461592
3.7614e-07
0.000461583
4.20373e-07
0.000461575
4.48676e-07
0.000461568
4.63938e-07
0.000461562
4.68409e-07
0.000461557
4.63997e-07
0.000461554
4.52423e-07
0.000461551
4.35272e-07
0.00046155
4.13996e-07
0.00046155
3.89896e-07
0.000461551
3.64097e-07
0.000461552
3.37534e-07
0.000461554
3.1096e-07
0.000461555
2.8495e-07
0.000461557
2.59921e-07
0.000461559
2.36162e-07
2.13855e-07
0.000461561
0.000474416
9.76385e-08
0.00047441
2.27055e-07
0.000474403
3.19265e-07
0.000474395
3.8427e-07
0.000474387
4.28511e-07
0.000474379
4.56227e-07
0.000474373
4.70493e-07
0.000474367
4.73729e-07
0.000474363
4.67992e-07
0.000474361
4.55123e-07
0.000474359
4.36793e-07
0.000474358
4.14506e-07
0.000474359
3.89584e-07
0.00047436
3.63151e-07
0.000474361
3.36126e-07
0.000474363
3.0924e-07
0.000474365
2.83039e-07
0.000474367
2.57916e-07
0.000474369
2.34137e-07
2.11863e-07
0.000474371
0.000487572
9.99571e-08
0.000487567
2.32268e-07
0.00048756
3.26142e-07
0.000487553
3.91827e-07
0.000487545
4.35982e-07
0.000487538
4.6305e-07
0.000487533
4.76294e-07
0.000487528
4.78305e-07
0.000487525
4.71284e-07
0.000487523
4.57185e-07
0.000487522
4.37755e-07
0.000487522
4.14541e-07
0.000487522
3.88879e-07
0.000487524
3.61887e-07
0.000487525
3.34467e-07
0.000487527
3.07324e-07
0.000487529
2.80978e-07
0.000487531
2.55798e-07
0.000487533
2.32027e-07
2.09809e-07
0.000487535
0.000501094
1.02141e-07
0.000501089
2.37156e-07
0.000501082
3.32544e-07
0.000501075
3.9879e-07
0.000501069
4.4277e-07
0.000501062
4.69137e-07
0.000501057
4.81343e-07
0.000501054
4.82147e-07
0.000501051
4.73892e-07
0.00050105
4.58632e-07
0.000501049
4.38182e-07
0.00050105
4.14124e-07
0.000501051
3.87802e-07
0.000501052
3.60323e-07
0.000501054
3.3257e-07
0.000501056
3.05222e-07
0.000501058
2.78773e-07
0.000501061
2.5357e-07
0.000501063
2.29835e-07
2.07694e-07
0.000501065
0.00051499
1.0418e-07
0.000514985
2.41703e-07
0.000514979
3.38449e-07
0.000514973
4.05137e-07
0.000514967
4.48861e-07
0.000514962
4.74482e-07
0.000514957
4.85644e-07
0.000514954
4.8527e-07
0.000514952
4.75833e-07
0.000514951
4.59485e-07
0.000514952
4.38096e-07
0.000514952
4.13276e-07
0.000514954
3.86371e-07
0.000514956
3.58475e-07
0.000514958
3.30447e-07
0.00051496
3.02943e-07
0.000514962
2.76433e-07
0.000514965
2.51239e-07
0.000514967
2.27564e-07
2.0552e-07
0.000514969
0.000529272
1.06069e-07
0.000529267
2.4589e-07
0.000529262
3.43839e-07
0.000529256
4.10854e-07
0.000529251
4.54245e-07
0.000529246
4.79085e-07
0.000529243
4.89204e-07
0.00052924
4.87687e-07
0.000529239
4.7713e-07
0.000529239
4.59767e-07
0.000529239
4.37521e-07
0.000529241
4.12019e-07
0.000529242
3.84605e-07
0.000529245
3.56356e-07
0.000529247
3.2811e-07
0.000529249
3.00496e-07
0.000529252
2.73962e-07
0.000529254
2.48807e-07
0.000529257
2.25217e-07
2.03288e-07
0.000529259
0.000543949
1.07799e-07
0.000543946
2.49705e-07
0.000543941
3.48697e-07
0.000543936
4.15925e-07
0.000543931
4.58915e-07
0.000543927
4.82946e-07
0.000543924
4.92034e-07
0.000543923
4.89416e-07
0.000543922
4.77801e-07
0.000543922
4.59501e-07
0.000543923
4.36478e-07
0.000543925
4.10372e-07
0.000543927
3.8252e-07
0.000543929
3.53981e-07
0.000543932
3.25569e-07
0.000543934
2.9789e-07
0.000543937
2.71366e-07
0.00054394
2.46279e-07
0.000543942
2.22796e-07
2.01e-07
0.000543944
0.000559034
1.09364e-07
0.000559031
2.53133e-07
0.000559026
3.53008e-07
0.000559022
4.20341e-07
0.000559018
4.62867e-07
0.000559015
4.86071e-07
0.000559013
4.94146e-07
0.000559012
4.90473e-07
0.000559012
4.77869e-07
0.000559013
4.58709e-07
0.000559014
4.34988e-07
0.000559016
4.08353e-07
0.000559018
3.80131e-07
0.000559021
3.51362e-07
0.000559024
3.22835e-07
0.000559027
2.95131e-07
0.000559029
2.68652e-07
0.000559032
2.43658e-07
0.000559034
2.20304e-07
1.98657e-07
0.000559037
0.000574537
1.1076e-07
0.000574534
2.56164e-07
0.000574531
3.56762e-07
0.000574527
4.24096e-07
0.000574524
4.66102e-07
0.000574521
4.88466e-07
0.00057452
4.95554e-07
0.000574519
4.90879e-07
0.00057452
4.77354e-07
0.000574521
4.57412e-07
0.000574523
4.33071e-07
0.000574525
4.05981e-07
0.000574528
3.77455e-07
0.000574531
3.48511e-07
0.000574534
3.19916e-07
0.000574537
2.92226e-07
0.00057454
2.65823e-07
0.000574542
2.40949e-07
0.000574545
2.17742e-07
1.96261e-07
0.000574547
0.00059047
1.11981e-07
0.000590468
2.58789e-07
0.000590465
3.59952e-07
0.000590461
4.27185e-07
0.000590459
4.68624e-07
0.000590457
4.90144e-07
0.000590457
4.96274e-07
0.000590457
4.90654e-07
0.000590458
4.76279e-07
0.00059046
4.55631e-07
0.000590462
4.30747e-07
0.000590465
4.03272e-07
0.000590468
3.74504e-07
0.000590471
3.4544e-07
0.000590474
3.16821e-07
0.000590477
2.89183e-07
0.00059048
2.62885e-07
0.000590483
2.38153e-07
0.000590485
2.15114e-07
1.93812e-07
0.000590488
0.000606845
1.13023e-07
0.000606843
2.61002e-07
0.00060684
3.62571e-07
0.000606838
4.29609e-07
0.000606836
4.70438e-07
0.000606835
4.91116e-07
0.000606835
4.96324e-07
0.000606836
4.89817e-07
0.000606838
4.74665e-07
0.00060684
4.53387e-07
0.000606843
4.28034e-07
0.000606846
4.00242e-07
0.000606849
3.71292e-07
0.000606852
3.42159e-07
0.000606855
3.13559e-07
0.000606859
2.86006e-07
0.000606862
2.59841e-07
0.000606864
2.35275e-07
0.000606867
2.1242e-07
1.91313e-07
0.00060687
0.000623674
1.13885e-07
0.000623672
2.628e-07
0.00062367
3.64619e-07
0.000623669
4.31372e-07
0.000623668
4.71554e-07
0.000623667
4.91397e-07
0.000623668
4.95724e-07
0.000623669
4.88392e-07
0.000623671
4.72534e-07
0.000623674
4.50702e-07
0.000623677
4.2495e-07
0.000623681
3.96907e-07
0.000623684
3.67833e-07
0.000623687
3.38677e-07
0.000623691
3.10137e-07
0.000623694
2.82702e-07
0.000623697
2.56697e-07
0.0006237
2.32318e-07
0.000623703
2.09664e-07
1.88764e-07
0.000623706
0.00064097
1.14565e-07
0.000640969
2.64179e-07
0.000640967
3.66096e-07
0.000640966
4.32478e-07
0.000640966
4.71984e-07
0.000640966
4.91005e-07
0.000640967
4.94495e-07
0.000640969
4.86399e-07
0.000640972
4.69908e-07
0.000640975
4.47594e-07
0.000640978
4.21514e-07
0.000640982
3.93282e-07
0.000640986
3.64137e-07
0.000640989
3.35006e-07
0.000640993
3.06562e-07
0.000640996
2.79277e-07
0.000641
2.53457e-07
0.000641003
2.29284e-07
0.000641005
2.06848e-07
1.86168e-07
0.000641008
0.000658745
1.15062e-07
0.000658744
2.65141e-07
0.000658743
3.67007e-07
0.000658743
4.32938e-07
0.000658743
4.71743e-07
0.000658744
4.8996e-07
0.000658746
4.92658e-07
0.000658749
4.83863e-07
0.000658752
4.66809e-07
0.000658755
4.44085e-07
0.000658759
4.17743e-07
0.000658763
3.89381e-07
0.000658767
3.60216e-07
0.000658771
3.31153e-07
0.000658774
3.02842e-07
0.000658778
2.75736e-07
0.000658781
2.50124e-07
0.000658784
2.26177e-07
0.000658787
2.03973e-07
1.83524e-07
0.00065879
0.000677014
1.15377e-07
0.000677013
2.65688e-07
0.000677013
3.67359e-07
0.000677013
4.32764e-07
0.000677014
4.70848e-07
0.000677015
4.88282e-07
0.000677018
4.90236e-07
0.000677021
4.80805e-07
0.000677024
4.63258e-07
0.000677028
4.40193e-07
0.000677032
4.13653e-07
0.000677037
3.85219e-07
0.000677041
3.56084e-07
0.000677045
3.27129e-07
0.000677049
2.98985e-07
0.000677052
2.72085e-07
0.000677056
2.46703e-07
0.000677059
2.22999e-07
0.000677062
2.01041e-07
1.80836e-07
0.000677064
0.000695788
1.15512e-07
0.000695788
2.65825e-07
0.000695788
3.6716e-07
0.000695789
4.31971e-07
0.000695791
4.69319e-07
0.000695793
4.85993e-07
0.000695796
4.87253e-07
0.0006958
4.77251e-07
0.000695804
4.59279e-07
0.000695808
4.35939e-07
0.000695812
4.09262e-07
0.000695817
3.80809e-07
0.000695821
3.51749e-07
0.000695825
3.22942e-07
0.000695829
2.94996e-07
0.000695833
2.68328e-07
0.000695836
2.43198e-07
0.00069584
2.19754e-07
0.000695843
1.98056e-07
1.78105e-07
0.000695845
0.000715084
1.15468e-07
0.000715084
2.6556e-07
0.000715085
3.66423e-07
0.000715086
4.30575e-07
0.000715088
4.67176e-07
0.000715091
4.83118e-07
0.000715095
4.83735e-07
0.000715099
4.73222e-07
0.000715103
4.54891e-07
0.000715108
4.3134e-07
0.000715113
4.04586e-07
0.000715117
3.76164e-07
0.000715122
3.47224e-07
0.000715126
3.18601e-07
0.00071513
2.90883e-07
0.000715134
2.64471e-07
0.000715138
2.39613e-07
0.000715141
2.16444e-07
0.000715144
1.95019e-07
1.75332e-07
0.000715147
0.000734915
1.15249e-07
0.000734915
2.649e-07
0.000734916
3.65163e-07
0.000734918
4.28596e-07
0.000734921
4.64443e-07
0.000734925
4.79681e-07
0.000734929
4.79705e-07
0.000734933
4.68744e-07
0.000734938
4.50118e-07
0.000734943
4.26417e-07
0.000734948
3.9964e-07
0.000734953
3.71299e-07
0.000734957
3.42519e-07
0.000734962
3.14114e-07
0.000734966
2.86652e-07
0.00073497
2.6052e-07
0.000734974
2.35951e-07
0.000734977
2.13073e-07
0.00073498
1.91933e-07
1.72519e-07
0.000734983
0.000755295
1.1486e-07
0.000755296
2.63857e-07
0.000755298
3.63396e-07
0.0007553
4.26055e-07
0.000755304
4.61144e-07
0.000755308
4.75708e-07
0.000755312
4.75189e-07
0.000755317
4.63839e-07
0.000755322
4.4498e-07
0.000755327
4.21188e-07
0.000755333
3.9444e-07
0.000755338
3.66225e-07
0.000755343
3.37645e-07
0.000755347
3.0949e-07
0.000755352
2.82311e-07
0.000755356
2.56479e-07
0.000755359
2.32218e-07
0.000755363
2.09644e-07
0.000755366
1.888e-07
1.69669e-07
0.000755369
0.000776241
1.14305e-07
0.000776242
2.62444e-07
0.000776244
3.61141e-07
0.000776247
4.22975e-07
0.000776251
4.57306e-07
0.000776256
4.71226e-07
0.000776261
4.70214e-07
0.000776266
4.58533e-07
0.000776272
4.39498e-07
0.000776277
4.1567e-07
0.000776283
3.89001e-07
0.000776288
3.60956e-07
0.000776293
3.32611e-07
0.000776298
3.04736e-07
0.000776302
2.77865e-07
0.000776306
2.52355e-07
0.00077631
2.28416e-07
0.000776313
2.06161e-07
0.000776317
1.85622e-07
1.66782e-07
0.000776319
0.000797767
1.13591e-07
0.000797769
2.60674e-07
0.000797772
3.58416e-07
0.000797775
4.19382e-07
0.00079778
4.52954e-07
0.000797785
4.66263e-07
0.00079779
4.64806e-07
0.000797796
4.52848e-07
0.000797802
4.33694e-07
0.000797807
4.09882e-07
0.000797813
3.83339e-07
0.000797818
3.55504e-07
0.000797824
3.27428e-07
0.000797829
2.99862e-07
0.000797833
2.73322e-07
0.000797837
2.48151e-07
0.000797841
2.24551e-07
0.000797845
2.02625e-07
0.000797848
1.82403e-07
1.63861e-07
0.000797851
0.000819891
1.12723e-07
0.000819893
2.58562e-07
0.000819896
3.55245e-07
0.0008199
4.15299e-07
0.000819905
4.48116e-07
0.00081991
4.60845e-07
0.000819916
4.5899e-07
0.000819922
4.46809e-07
0.000819928
4.27589e-07
0.000819934
4.03842e-07
0.00081994
3.77469e-07
0.000819946
3.49881e-07
0.000819951
3.22106e-07
0.000819956
2.94875e-07
0.000819961
2.68687e-07
0.000819965
2.43873e-07
0.000819969
2.20626e-07
0.000819973
1.99042e-07
0.000819976
1.79144e-07
1.60909e-07
0.000819979
0.000842628
1.11709e-07
0.00084263
2.56124e-07
0.000842634
3.51651e-07
0.000842638
4.10755e-07
0.000842644
4.42821e-07
0.000842649
4.55e-07
0.000842656
4.52792e-07
0.000842662
4.40439e-07
0.000842668
4.21203e-07
0.000842675
3.97568e-07
0.000842681
3.71405e-07
0.000842687
3.44099e-07
0.000842692
3.16655e-07
0.000842697
2.89783e-07
0.000842702
2.63967e-07
0.000842706
2.39527e-07
0.00084271
2.16646e-07
0.000842714
1.95413e-07
0.000842717
1.75849e-07
1.57927e-07
0.00084272
0.000865995
1.10556e-07
0.000865998
2.53379e-07
0.000866002
3.47655e-07
0.000866007
4.05776e-07
0.000866013
4.37097e-07
0.000866019
4.48757e-07
0.000866026
4.46239e-07
0.000866032
4.33761e-07
0.000866039
4.14555e-07
0.000866045
3.91075e-07
0.000866052
3.65161e-07
0.000866058
3.3817e-07
0.000866063
3.11084e-07
0.000866068
2.84594e-07
0.000866073
2.59169e-07
0.000866077
2.35117e-07
0.000866082
2.12614e-07
0.000866085
1.91743e-07
0.000866089
1.72521e-07
1.54918e-07
0.000866092
0.000890011
1.09272e-07
0.000890014
2.50343e-07
0.000890018
3.43284e-07
0.000890024
4.0039e-07
0.00089003
4.30974e-07
0.000890036
4.42144e-07
0.000890043
4.39357e-07
0.00089005
4.26798e-07
0.000890057
4.07667e-07
0.000890064
3.84382e-07
0.00089007
3.58752e-07
0.000890076
3.32106e-07
0.000890082
3.05404e-07
0.000890087
2.79316e-07
0.000890092
2.54299e-07
0.000890097
2.3065e-07
0.000890101
2.08535e-07
0.000890104
1.88035e-07
0.000890108
1.69161e-07
1.51883e-07
0.000890111
0.000914692
1.07865e-07
0.000914696
2.47036e-07
0.0009147
3.38562e-07
0.000914706
3.94626e-07
0.000914713
4.24479e-07
0.00091472
4.35188e-07
0.000914727
4.3217e-07
0.000914734
4.19573e-07
0.000914741
4.00557e-07
0.000914748
3.77505e-07
0.000914755
3.52191e-07
0.000914761
3.25919e-07
0.000914767
2.99623e-07
0.000914772
2.73957e-07
0.000914777
2.49363e-07
0.000914781
2.26129e-07
0.000914785
2.04414e-07
0.000914789
1.84292e-07
0.000914793
1.65774e-07
1.48826e-07
0.000914796
0.000940058
1.06344e-07
0.000940062
2.43475e-07
0.000940067
3.33514e-07
0.000940073
3.88512e-07
0.00094008
4.17641e-07
0.000940087
4.27916e-07
0.000940095
4.24704e-07
0.000940102
4.12108e-07
0.000940109
3.93245e-07
0.000940116
3.70459e-07
0.000940123
3.45493e-07
0.000940129
3.19619e-07
0.000940135
2.93751e-07
0.000940141
2.68524e-07
0.000940146
2.44369e-07
0.00094015
2.21561e-07
0.000940154
2.00254e-07
0.000940158
1.80518e-07
0.000940162
1.62362e-07
1.45749e-07
0.000940165
0.000966128
1.04716e-07
0.000966131
2.39681e-07
0.000966137
3.28165e-07
0.000966143
3.82075e-07
0.00096615
4.1049e-07
0.000966158
4.20355e-07
0.000966166
4.16983e-07
0.000966173
4.04424e-07
0.000966181
3.85749e-07
0.000966188
3.63262e-07
0.000966195
3.3867e-07
0.000966201
3.13218e-07
0.000966207
2.87797e-07
0.000966213
2.63026e-07
0.000966218
2.39321e-07
0.000966222
2.1695e-07
0.000966227
1.9606e-07
0.00096623
1.76717e-07
0.000966234
1.58927e-07
1.42654e-07
0.000966237
0.00099292
1.02991e-07
0.000992924
2.35672e-07
0.00099293
3.22541e-07
0.000992936
3.75343e-07
0.000992944
4.03052e-07
0.000992952
4.12532e-07
0.00099296
4.09031e-07
0.000992967
3.96543e-07
0.000992975
3.78088e-07
0.000992982
3.55928e-07
0.000992989
3.31735e-07
0.000992996
3.06726e-07
0.000993002
2.8177e-07
0.000993007
2.57469e-07
0.000993013
2.34226e-07
0.000993017
2.12301e-07
0.000993021
1.91836e-07
0.000993025
1.72893e-07
0.000993029
1.55474e-07
1.39544e-07
0.000993032
0.00102046
1.01176e-07
0.00102046
2.31467e-07
0.00102047
3.16666e-07
0.00102047
3.68345e-07
0.00102048
3.95355e-07