/*--------------------------------*- C++ -*----------------------------------*\
| =========                 |                                                 |
| \\      /  F ield         | OpenFOAM: The Open Source CFD Toolbox           |
|  \\    /   O peration     | Version:  2.4.0                                 |
|   \\  /    A nd           | Web:      www.OpenFOAM.org                      |
|    \\/     M anipulation  |                                                 |
\*---------------------------------------------------------------------------*/
FoamFile
{
    version     2.0;
    format      ascii;
    class       surfaceScalarField;
    location    "0.02";
    object      phi;
}
// * * * * * * * * * * * * * * * * * * * * * * * * * * * * * * * * * * * * * //

dimensions      [0 3 -1 0 0 0 0];

internalField   nonuniform List<scalar> 
26160
(
0.000634716
-2.27653e-07
0.000635279
-1.09178e-06
0.000635975
-1.1737e-06
0.000636554
-1.00434e-06
0.000637042
-8.63999e-07
0.000637474
-7.64495e-07
0.000637863
-6.81897e-07
0.000638214
-6.08397e-07
0.000638531
-5.43066e-07
-4.82793e-07
0.000638816
0.000597265
-4.73997e-07
0.000597035
-8.62323e-07
0.000596735
-8.73706e-07
0.000596465
-7.34175e-07
0.000596204
-6.02696e-07
0.000595936
-4.9626e-07
0.000595657
-4.03656e-07
0.00059537
-3.21117e-07
0.000595075
-2.47805e-07
-1.85365e-07
0.000594777
0.000561172
-3.94101e-07
0.000561516
-1.2062e-06
0.000561902
-1.25949e-06
0.000562243
-1.07565e-06
0.000562564
-9.23176e-07
0.000562879
-8.11427e-07
0.000563194
-7.18205e-07
0.000563509
-6.3651e-07
0.000563826
-5.65076e-07
-5.03452e-07
0.000564144
0.000527751
-5.16604e-07
0.000527855
-1.31061e-06
0.000527961
-1.36546e-06
0.000528047
-1.16107e-06
0.000528106
-9.82613e-07
0.000528144
-8.48822e-07
0.000528162
-7.36803e-07
0.000528164
-6.38852e-07
0.000528153
-5.53396e-07
-4.79262e-07
0.000528129
0.00049608
-5.7746e-07
0.000496322
-1.55233e-06
0.000496559
-1.60245e-06
0.000496761
-1.36297e-06
0.000496936
-1.1582e-06
0.000497091
-1.00414e-06
0.000497229
-8.74719e-07
0.000497352
-7.61465e-07
0.000497461
-6.62625e-07
-5.7798e-07
0.00049756
0.000466414
-6.88495e-07
0.000466671
-1.80901e-06
0.000466936
-1.86708e-06
0.000467159
-1.58631e-06
0.000467346
-1.34545e-06
0.000467506
-1.16363e-06
0.000467642
-1.01057e-06
0.000467757
-8.76517e-07
0.000467854
-7.59427e-07
-6.58835e-07
0.000467934
0.000438489
-8.09513e-07
0.000438791
-2.11121e-06
0.000439097
-2.17278e-06
0.000439354
-1.84352e-06
0.00043957
-1.56111e-06
0.000439753
-1.34741e-06
0.00043991
-1.16752e-06
0.000440044
-1.01023e-06
0.000440158
-8.73114e-07
-7.55905e-07
0.000440255
0.000412247
-9.50542e-07
0.000412592
-2.45643e-06
0.000412942
-2.52215e-06
0.000413235
-2.13735e-06
0.000413482
-1.80719e-06
0.000413691
-1.5567e-06
0.000413869
-1.34574e-06
0.00041402
-1.16146e-06
0.000414148
-1.00102e-06
-8.64277e-07
0.000414257
0.000387578
-1.11146e-06
0.00038797
-2.84775e-06
0.000388365
-2.91796e-06
0.000388698
-2.47024e-06
0.000388977
-2.08592e-06
0.000389214
-1.79361e-06
0.000389415
-1.54727e-06
0.000389586
-1.33223e-06
0.00038973
-1.14517e-06
-9.86223e-07
0.000389852
0.00036439
-1.29314e-06
0.000364829
-3.28689e-06
0.000365273
-3.36202e-06
0.000365647
-2.84413e-06
0.00036596
-2.39937e-06
0.000366227
-2.06024e-06
0.000366454
-1.77414e-06
0.000366646
-1.52439e-06
0.000366808
-1.3072e-06
-1.12311e-06
0.000366945
0.000342592
-1.49616e-06
0.000343079
-3.77432e-06
0.000343572
-3.85506e-06
0.000343988
-3.26033e-06
0.000344338
-2.74931e-06
0.000344637
-2.35865e-06
0.000344891
-2.02849e-06
0.000345107
-1.74007e-06
0.000345289
-1.48911e-06
-1.27676e-06
0.000345442
0.000322101
-1.7205e-06
0.000322636
-4.3089e-06
0.000323177
-4.39637e-06
0.000323636
-3.71921e-06
0.000324024
-3.13708e-06
0.000324356
-2.69079e-06
0.00032464
-2.31266e-06
0.000324882
-1.98172e-06
0.000325086
-1.6933e-06
-1.4495e-06
0.000325259
0.000302839
-1.9653e-06
0.000303417
-4.88751e-06
0.000304004
-4.98345e-06
0.000304505
-4.22005e-06
0.000304931
-3.56346e-06
0.000305299
-3.05854e-06
0.000305616
-2.62916e-06
0.000305886
-2.25222e-06
0.000306116
-1.92273e-06
-1.64421e-06
0.00030631
0.000284729
-2.22868e-06
0.000285346
-5.5047e-06
0.000285975
-5.61176e-06
0.000286515
-4.76077e-06
0.000286981
-4.02858e-06
0.000287386
-3.46358e-06
0.000287737
-2.98075e-06
0.00028804
-2.55493e-06
0.000288298
-2.18099e-06
-1.86458e-06
0.000288518
0.000267703
-2.50756e-06
0.000268351
-6.15246e-06
0.000269013
-6.2744e-06
0.00026959
-5.33773e-06
0.000270093
-4.53167e-06
0.000270537
-3.90731e-06
0.000270927
-3.37035e-06
0.000271265
-2.89372e-06
0.000271557
-2.47243e-06
-2.11514e-06
0.000271807
0.000251693
-2.79761e-06
0.000252361
-6.8201e-06
0.000253048
-6.96205e-06
0.000253656
-5.94555e-06
0.000254195
-5.07093e-06
0.000254679
-4.39071e-06
0.000255109
-3.80095e-06
0.000255489
-3.27295e-06
0.000255818
-2.80218e-06
-2.40142e-06
0.000256105
0.000236637
-3.09319e-06
0.000237312
-7.49438e-06
0.000238013
-7.66293e-06
0.000238644
-6.57694e-06
0.000239216
-5.64325e-06
0.00023974
-4.91401e-06
0.000240214
-4.27538e-06
0.000240638
-3.69733e-06
0.000241012
-3.17606e-06
-2.72998e-06
0.000241341
0.000222477
-3.38752e-06
0.000223143
-8.15984e-06
0.000223843
-8.363e-06
0.000224489
-7.22264e-06
0.000225089
-6.24392e-06
0.000225652
-5.47638e-06
0.000226172
-4.79599e-06
0.000226647
-4.17163e-06
0.000227071
-3.60047e-06
-3.10832e-06
0.000227449
0.000209158
-3.67283e-06
0.000209797
-8.79935e-06
0.000210481
-9.04634e-06
0.000211129
-7.87138e-06
0.000211752
-6.86637e-06
0.000212351
-6.07548e-06
0.000212919
-5.36413e-06
0.000213448
-4.70025e-06
0.000213929
-4.08203e-06
-3.54467e-06
0.000214366
0.000196627
-3.94084e-06
0.000197223
-9.39487e-06
0.000197872
-9.69565e-06
0.000198511
-8.51004e-06
0.000199146
-7.50187e-06
0.000199778
-6.70691e-06
0.000200393
-5.97957e-06
0.000200979
-5.28662e-06
0.000201524
-4.62707e-06
-4.04768e-06
0.000202027
0.000184838
-4.18316e-06
0.000185371
-9.92841e-06
0.000185969
-1.0293e-05
0.000186583
-9.12384e-06
0.00018722
-8.13936e-06
0.000187877
-7.36373e-06
0.000188537
-6.63975e-06
0.000189183
-5.93243e-06
0.000189797
-5.24092e-06
-4.62572e-06
0.000190375
0.000173745
-4.39178e-06
0.0001742
-1.03831e-05
0.000174728
-1.08207e-05
0.000175301
-9.69677e-06
0.000175927
-8.76537e-06
0.000176599
-8.03599e-06
0.000177298
-7.33903e-06
0.000178003
-6.63671e-06
0.000178689
-5.92701e-06
-5.28609e-06
0.000179349
0.000163308
-4.55958e-06
0.000163669
-1.0744e-05
0.000164111
-1.12622e-05
0.000164626
-1.02122e-05
0.000165225
-9.36424e-06
0.0001659
-8.71049e-06
0.000166629
-8.06811e-06
0.000167387
-7.39495e-06
0.000168146
-6.68582e-06
-6.03387e-06
0.000168893
0.000153488
-4.68072e-06
0.000153744
-1.09995e-05
0.000154085
-1.16032e-05
0.000154526
-1.06537e-05
0.00015508
-9.91847e-06
0.000155741
-9.37071e-06
0.000156486
-8.81349e-06
0.000157289
-8.19822e-06
0.000158117
-7.51382e-06
-6.87076e-06
0.000158954
0.000144249
-4.75096e-06
0.000144391
-1.11414e-05
0.00014462
-1.18323e-05
0.000144972
-1.10056e-05
0.000145463
-1.04095e-05
0.00014609
-9.99721e-06
0.000146834
-9.55738e-06
0.000147668
-9.03266e-06
0.000148557
-8.40266e-06
-7.79415e-06
0.00014948
0.000135558
-4.76776e-06
0.000135583
-1.11662e-05
0.000135693
-1.19419e-05
0.000135941
-1.12544e-05
0.000136351
-1.08186e-05
0.000136922
-1.05682e-05
0.000137642
-1.02779e-05
0.000138489
-9.87927e-06
0.000139425
-9.33895e-06
-8.79703e-06
0.000140428
0.000127384
-4.7303e-06
0.000127292
-1.10746e-05
0.000127279
-1.19285e-05
0.000127414
-1.1389e-05
0.000127723
-1.11279e-05
0.000128215
-1.10606e-05
0.000128887
-1.09494e-05
0.00012972
-1.07128e-05
0.000130686
-1.03048e-05
-9.87273e-06
0.000131762
0.000119696
-4.63892e-06
0.000119494
-1.08722e-05
0.000119358
-1.17928e-05
0.000119372
-1.14021e-05
0.000119566
-1.13223e-05
0.000119957
-1.14514e-05
0.000120552
-1.15443e-05
0.000121339
-1.14999e-05
0.000122306
-1.12724e-05
-1.10301e-05
0.000123464
0.000112467
-4.49397e-06
0.000112163
-1.05682e-05
0.000111909
-1.15394e-05
0.000111797
-1.12901e-05
0.000111865
-1.13904e-05
0.000112135
-1.17213e-05
0.000112628
-1.20371e-05
0.000113342
-1.22134e-05
0.000114289
-1.22195e-05
-1.22602e-05
0.000115519
0.000105669
-4.29812e-06
0.000105274
-1.01726e-05
0.000104908
-1.11732e-05
0.000104668
-1.10508e-05
0.0001046
-1.13226e-05
0.00010473
-1.18512e-05
0.000105083
-1.23903e-05
0.000105679
-1.28093e-05
0.000106541
-1.3081e-05
0.000107797
-1.35169e-05
0.000632975
5.65799e-06
0.000627659
5.13132e-06
0.000622889
4.58282e-06
0.000618695
4.00559e-06
0.000615108
3.39767e-06
0.00061216
2.76018e-06
0.000609879
2.09375e-06
0.000608297
1.39559e-06
0.000607465
6.48688e-07
0.000607423
-1.37164e-07
0.000607891
-6.44206e-07
0.00060893
-1.21005e-06
0.000610555
-1.79267e-06
0.00061277
-2.37816e-06
0.000615568
-2.9584e-06
0.000618939
-3.52689e-06
0.000622864
-4.07811e-06
0.000627323
-4.60739e-06
0.000632289
-5.11053e-06
-5.58558e-06
0.000637735
0.000589993
1.04424e-05
0.000585615
9.50936e-06
0.000581687
8.51046e-06
0.000578234
7.45935e-06
0.00057527
6.36169e-06
0.000572806
5.22398e-06
0.000570843
4.05604e-06
0.000569369
2.87019e-06
0.000568334
1.68356e-06
0.000567664
5.32752e-07
0.000567785
-7.65646e-07
0.000568704
-2.12845e-06
0.000570342
-3.43048e-06
0.00057266
-4.69655e-06
0.000575629
-5.92758e-06
0.000579223
-7.12098e-06
0.000583418
-8.27284e-06
0.000588189
-9.37824e-06
0.00059351
-1.04317e-05
-1.14263e-05
0.000599351
0.000558764
1.58223e-05
0.000553876
1.43975e-05
0.0005495
1.28868e-05
0.000545664
1.12957e-05
0.000542391
9.63478e-06
0.0005397
7.9148e-06
0.00053761
6.14534e-06
0.000536146
4.33418e-06
0.000535345
2.48478e-06
0.000535306
5.72016e-07
0.000535782
-1.24139e-06
0.000536702
-3.04898e-06
0.000538133
-4.86124e-06
0.000540086
-6.64965e-06
0.000542558
-8.39923e-06
0.000545534
-1.00969e-05
0.000548991
-1.17306e-05
0.000552902
-1.32892e-05
0.000557233
-1.47623e-05
-1.6141e-05
0.000561947
0.000523607
2.03437e-05
0.000519476
1.85288e-05
0.000515764
1.65985e-05
0.000512496
1.45642e-05
0.000509694
1.24362e-05
0.000507381
1.02278e-05
0.000505573
7.95324e-06
0.000504281
5.62697e-06
0.000503501
3.26421e-06
0.000503188
8.85029e-07
0.000503457
-1.5097e-06
0.000504305
-3.89714e-06
0.000505706
-6.26205e-06
0.000507646
-8.59064e-06
0.000510116
-1.08684e-05
0.000513101
-1.30818e-05
0.000516588
-1.52176e-05
0.000520562
-1.72632e-05
0.000525006
-1.92064e-05
-2.10357e-05
0.0005299
0.000493113
2.47901e-05
0.000489067
2.25753e-05
0.000485444
2.02212e-05
0.000482267
1.77417e-05
0.000479552
1.51504e-05
0.000477316
1.24637e-05
0.000475571
9.69848e-06
0.000474327
6.87167e-06
0.00047359
4.00054e-06
0.000473373
1.10264e-06
0.000473667
-1.80396e-06
0.000474471
-4.7009e-06
0.000475779
-7.57054e-06
0.000477584
-1.03954e-05
0.000479873
-1.31579e-05
0.000482632
-1.58408e-05
0.000485842
-1.84274e-05
0.00048948
-2.09015e-05
0.000493521
-2.32471e-05
-2.54499e-05
0.000497935
0.000463798
2.89269e-05
0.000460028
2.63445e-05
0.000456649
2.36008e-05
0.00045368
2.07108e-05
0.00045114
1.76898e-05
0.000449047
1.45572e-05
0.000447412
1.13331e-05
0.000446247
8.0371e-06
0.000445558
4.68954e-06
0.000445349
1.31106e-06
0.000445623
-2.07752e-06
0.000446377
-5.45534e-06
0.000447608
-8.80158e-06
0.000449309
-1.20956e-05
0.000451468
-1.53171e-05
0.000454073
-1.84462e-05
0.000457109
-2.14636e-05
0.000460559
-2.43508e-05
0.000464402
-2.709e-05
-2.96647e-05
0.000468617
0.000436362
3.28201e-05
0.000432815
2.98907e-05
0.000429637
2.6779e-05
0.000426846
2.3502e-05
0.00042446
2.00761e-05
0.000422493
1.65239e-05
0.000420958
1.2868e-05
0.000419865
9.13082e-06
0.000419219
5.33516e-06
0.000419025
1.50446e-06
0.000419286
-2.33769e-06
0.000419998
-6.16762e-06
0.000421158
-9.96176e-06
0.000422759
-1.36967e-05
0.000424792
-1.73495e-05
0.000427243
-2.08976e-05
0.000430099
-2.43191e-05
0.000433341
-2.75928e-05
0.000436949
-3.06985e-05
-3.36173e-05
0.000440902
0.000410596
3.64803e-05
0.000407263
3.32239e-05
0.000404276
2.97662e-05
0.000401653
2.61252e-05
0.00039941
2.23186e-05
0.000397562
1.83716e-05
0.000396121
1.43097e-05
0.000395094
1.01576e-05
0.000394489
5.94054e-06
0.000394308
1.68464e-06
0.000394555
-2.58395e-06
0.000395226
-6.83897e-06
0.000396319
-1.10543e-05
0.000397826
-1.52039e-05
0.000399738
-1.92622e-05
0.000402045
-2.32043e-05
0.000404732
-2.70059e-05
0.000407783
-3.06435e-05
0.000411179
-3.40946e-05
-3.73381e-05
0.000414899
0.00038641
3.99231e-05
0.000383275
3.63584e-05
0.000380467
3.25748e-05
0.000378
2.85914e-05
0.000375893
2.44264e-05
0.000374156
2.0108e-05
0.000372801
1.56643e-05
0.000371837
1.11219e-05
0.000371269
6.50866e-06
0.000371101
1.85294e-06
0.000371333
-2.81661e-06
0.000371966
-7.47133e-06
0.000372994
-1.20826e-05
0.000374412
-1.66221e-05
0.000376212
-2.10618e-05
0.000378382
-2.53745e-05
0.00038091
-2.95336e-05
0.00038378
-3.35134e-05
0.000386974
-3.72894e-05
-4.08383e-05
0.000390475
0.000363706
4.31621e-05
0.000360758
3.93064e-05
0.000358116
3.52161e-05
0.000355797
3.09105e-05
0.000353815
2.64083e-05
0.000352183
2.17404e-05
0.00035091
1.69375e-05
0.000350003
1.20282e-05
0.00034947
7.04232e-06
0.000349312
2.01069e-06
0.000349531
-3.03584e-06
0.000350126
-8.06632e-06
0.000351094
-1.30499e-05
0.000352427
-1.79559e-05
0.00035412
-2.27542e-05
0.000356161
-2.74154e-05
0.000358538
-3.19107e-05
0.000361237
-3.62124e-05
0.000364241
-4.02941e-05
-4.41302e-05
0.000367533
0.000342394
4.62101e-05
0.000339621
4.20797e-05
0.000337137
3.77003e-05
0.000334956
3.30917e-05
0.000333092
2.82722e-05
0.000331557
2.32755e-05
0.00033036
1.81347e-05
0.000329508
1.28803e-05
0.000329006
7.54414e-06
0.000328857
2.15912e-06
0.000329063
-3.24176e-06
0.000329622
-8.62543e-06
0.000330531
-1.39589e-05
0.000331785
-1.92095e-05
0.000333376
-2.43449e-05
0.000335294
-2.93336e-05
0.000337528
-3.4145e-05
0.000340065
-3.87494e-05
0.00034289
-4.31186e-05
-4.72245e-05
0.000345984
0.00032239
4.90783e-05
0.000319782
4.46884e-05
0.000317445
4.00369e-05
0.000315393
3.51432e-05
0.00031364
3.00251e-05
0.000312197
2.47191e-05
0.000311071
1.92607e-05
0.000310269
1.36819e-05
0.000309797
8.0165e-06
0.000309657
2.29938e-06
0.000309849
-3.43444e-06
0.000310374
-9.14995e-06
0.000311227
-1.48122e-05
0.000312404
-2.03865e-05
0.000313898
-2.58386e-05
0.000315699
-3.11351e-05
0.000317798
-3.62436e-05
0.000320181
-4.11323e-05
0.000322834
-4.57719e-05
-5.01312e-05
0.000325741
0.000303612
5.17767e-05
0.000301159
4.71417e-05
0.000298961
4.2234e-05
0.000297032
3.70725e-05
0.000295384
3.16736e-05
0.000294026
2.60767e-05
0.000292967
2.03198e-05
0.000292213
1.44362e-05
0.000291768
8.46148e-06
0.000291635
2.43248e-06
0.000291814
-3.61399e-06
0.000292305
-9.64109e-06
0.000293105
-1.5612e-05
0.000294209
-2.14902e-05
0.00029561
-2.72397e-05
0.0002973
-3.28252e-05
0.000299269
-3.82125e-05
0.000301505
-4.33682e-05
0.000303995
-4.82619e-05
-5.28585e-05
0.000306722
0.000285982
5.43137e-05
0.000283676
4.94472e-05
0.000281611
4.42985e-05
0.000279798
3.88857e-05
0.000278249
3.32229e-05
0.000276973
2.73527e-05
0.000275977
2.13156e-05
0.000275267
1.51459e-05
0.000274848
8.88089e-06
0.000274721
2.55925e-06
0.000274888
-3.78053e-06
0.000275347
-1.00999e-05
0.000276095
-1.63603e-05
0.000277128
-2.25235e-05
0.000278441
-2.85519e-05
0.000280024
-3.44084e-05
0.000281868
-4.00573e-05
0.000283963
-4.54631e-05
0.000286297
-5.05951e-05
-5.54137e-05
0.000288852
0.000269425
5.66957e-05
0.000267262
5.16108e-05
0.000265324
4.6236e-05
0.000263622
4.05878e-05
0.000262168
3.46776e-05
0.000260969
2.8551e-05
0.000260034
2.2251e-05
0.000259367
1.58132e-05
0.000258971
9.27614e-06
0.00025885
2.68032e-06
0.000259004
-3.93421e-06
0.000259431
-1.05273e-05
0.00026013
-1.70588e-05
0.000261095
-2.3489e-05
0.000262322
-2.97784e-05
0.000263802
-3.58885e-05
0.000265527
-4.17822e-05
0.000267486
-4.7422e-05
0.000269668
-5.27771e-05
-5.78023e-05
0.000272056
0.000253873
5.89271e-05
0.000251847
5.36368e-05
0.000250033
4.80505e-05
0.000248438
4.21826e-05
0.000247075
3.60408e-05
0.000245952
2.96742e-05
0.000245074
2.31284e-05
0.000244448
1.64397e-05
0.000244076
9.6483e-06
0.00024396
2.79612e-06
0.000244101
-4.07522e-06
0.000244498
-1.09241e-05
0.000245148
-1.7709e-05
0.000246047
-2.43885e-05
0.000247191
-3.09217e-05
0.000248571
-3.72685e-05
0.000250179
-4.33907e-05
0.000252006
-4.92486e-05
0.00025404
-5.48118e-05
-6.00282e-05
0.000256266
0.000239258
6.10101e-05
0.000237368
5.55271e-05
0.000235674
4.97441e-05
0.000234184
4.36723e-05
0.00023291
3.73147e-05
0.00023186
3.07241e-05
0.00023104
2.39492e-05
0.000230453
1.70266e-05
0.000230103
9.99798e-06
0.000229992
2.90685e-06
0.000230121
-4.20381e-06
0.000230488
-1.1291e-05
0.000231091
-1.83118e-05
0.000231926
-2.52234e-05
0.000232988
-3.19836e-05
0.00023427
-3.85506e-05
0.000235764
-4.48851e-05
0.00023746
-5.09451e-05
0.00023935
-5.67015e-05
-6.20937e-05
0.000241416
0.000225515
6.29443e-05
0.00022376
5.72819e-05
0.000222187
5.13172e-05
0.000220802
4.50574e-05
0.000219617
3.84998e-05
0.00021864
3.17015e-05
0.000217875
2.47138e-05
0.000217327
1.75742e-05
0.000217
1.03254e-05
0.000216894
3.01247e-06
0.000217011
-4.32022e-06
0.000217348
-1.16285e-05
0.000217904
-1.8868e-05
0.000218676
-2.59947e-05
0.000219657
-3.29649e-05
0.000220842
-3.97355e-05
0.000222223
-4.62661e-05
0.00022379
-5.25123e-05
0.000225536
-5.8447e-05
-6.39985e-05
0.00022744
0.000212583
6.47267e-05
0.000210966
5.88986e-05
0.000209516
5.27682e-05
0.000208236
4.63369e-05
0.00020714
3.95954e-05
0.000206236
3.26055e-05
0.000205528
2.54219e-05
0.00020502
1.80821e-05
0.000204716
1.06302e-05
0.000204615
3.11272e-06
0.00020472
-4.42471e-06
0.000205028
-1.19367e-05
0.000205538
-1.93777e-05
0.000206245
-2.67023e-05
0.000207146
-3.38656e-05
0.000208234
-4.08229e-05
0.000209501
-4.75333e-05
0.000210938
-5.39491e-05
0.000212537
-6.00467e-05
-6.57402e-05
0.000214279
0.000200403
6.63512e-05
0.000198929
6.03722e-05
0.000197605
5.4093e-05
0.000196434
4.75076e-05
0.00019543
4.05988e-05
0.000194602
3.34342e-05
0.000193952
2.60718e-05
0.000193485
1.85492e-05
0.000193203
1.09116e-05
0.000193109
3.20707e-06
0.000193202
-4.51749e-06
0.000193481
-1.22156e-05
0.000193943
-1.98405e-05
0.000194587
-2.73455e-05
0.000195405
-3.46844e-05
0.000196394
-4.18112e-05
0.000197545
-4.86843e-05
0.000198848
-5.52523e-05
0.000200298
-6.14967e-05
-6.73137e-05
0.000201871
0.000188917
6.7809e-05
0.000187594
6.16948e-05
0.000186402
5.52853e-05
0.000185345
4.85642e-05
0.000184439
4.15056e-05
0.000183689
3.41839e-05
0.0001831
2.66608e-05
0.000182676
1.89734e-05
0.000182419
1.11681e-05
0.000182332
3.29472e-06
0.000182413
-4.59873e-06
0.000182662
-1.24647e-05
0.000183077
-2.02552e-05
0.000183653
-2.79223e-05
0.000184387
-3.54187e-05
0.000185273
-4.26966e-05
0.000186303
-4.97145e-05
0.000187467
-5.64165e-05
0.000188761
-6.27906e-05
-6.87109e-05
0.000190159
0.00017807
6.90882e-05
0.000176909
6.2856e-05
0.000175858
5.63362e-05
0.000174923
4.94988e-05
0.00017412
4.23092e-05
0.000173454
3.48494e-05
0.00017293
2.71846e-05
0.000172552
1.93515e-05
0.000172323
1.13976e-05
0.000172243
3.37461e-06
0.000172312
-4.66848e-06
0.000172531
-1.26829e-05
0.000172895
-2.06196e-05
0.000173402
-2.84294e-05
0.000174048
-3.60639e-05
0.000174825
-4.34738e-05
0.000175728
-5.06173e-05
0.000176745
-5.74335e-05
0.000177873
-6.39192e-05
-6.9921e-05
0.000179083
0.000167807
7.01744e-05
0.000166821
6.38427e-05
0.000165923
5.7234e-05
0.00016512
5.03011e-05
0.000164429
4.30005e-05
0.000163856
3.54231e-05
0.000163403
2.76374e-05
0.000163075
1.96791e-05
0.000162876
1.15973e-05
0.000162805
3.44535e-06
0.000162863
-4.72658e-06
0.000163049
-1.28687e-05
0.00016336
-2.09307e-05
0.000163793
-2.88623e-05
0.000164343
-3.6614e-05
0.000165003
-4.41347e-05
0.00016577
-5.13834e-05
0.000166628
-5.82924e-05
0.00016758
-6.48707e-05
-7.09301e-05
0.000168589
0.000158077
7.10516e-05
0.00015728
6.46397e-05
0.000156549
5.79646e-05
0.000155893
5.09576e-05
0.000155326
4.35676e-05
0.000154854
3.58952e-05
0.00015448
2.80112e-05
0.000154209
1.99502e-05
0.000154043
1.17632e-05
0.000153983
3.50521e-06
0.000154029
-4.77263e-06
0.00015418
-1.30194e-05
0.000154433
-2.11837e-05
0.000154784
-2.9214e-05
0.00015523
-3.70599e-05
0.000155764
-4.46688e-05
0.000156381
-5.20003e-05
0.000157068
-5.89794e-05
0.000157828
-6.56309e-05
-7.1722e-05
0.00015862
0.000148829
7.17035e-05
0.000148237
6.52309e-05
0.00014769
5.85115e-05
0.000147196
5.14516e-05
0.000146768
4.39958e-05
0.00014641
3.62535e-05
0.000146125
2.8296e-05
0.000145918
2.01571e-05
0.000145791
1.18904e-05
0.000145744
3.55202e-06
0.000145778
-4.80605e-06
0.00014589
-1.31317e-05
0.000146079
-2.13726e-05
0.000146341
-2.94762e-05
0.000146672
-3.73911e-05
0.000147067
-4.50636e-05
0.00014752
-5.24532e-05
0.000148019
-5.94781e-05
0.000148569
-6.61813e-05
-7.22748e-05
0.000149122
0.000140015
7.21161e-05
0.000139644
6.5602e-05
0.000139299
5.88567e-05
0.000138988
5.17629e-05
0.000138717
4.42662e-05
0.000138489
3.64819e-05
0.000138306
2.84785e-05
0.000138173
2.02901e-05
0.000138091
1.19727e-05
0.00013806
3.5834e-06
0.000138079
-4.82558e-06
0.000138148
-1.3201e-05
0.000138265
-2.14896e-05
0.000138427
-2.96378e-05
0.000138629
-3.75931e-05
0.000138867
-4.53016e-05
0.000139135
-5.27213e-05
0.000139426
-5.97687e-05
0.000139746
-6.65019e-05
-7.25682e-05
0.00014004
0.000131597
7.22811e-05
0.000131454
6.57443e-05
0.000131329
5.89826e-05
0.000131223
5.18687e-05
0.00013113
4.43588e-05
0.000131049
3.65633e-05
0.000130984
2.85433e-05
0.000130938
2.03362e-05
0.000130909
1.20013e-05
0.000130897
3.59546e-06
0.000130902
-4.83003e-06
0.000130921
-1.32205e-05
0.000130953
-2.15218e-05
0.000130997
-2.96809e-05
0.000131048
-3.76448e-05
0.000131107
-4.53602e-05
0.000131167
-5.27815e-05
0.000131232
-5.98337e-05
0.000131301
-6.65707e-05
-7.25822e-05
0.000131315
0.000123545
7.22002e-05
0.000123621
6.56679e-05
0.000123728
5.88759e-05
0.000123863
5.17336e-05
0.000123987
4.42344e-05
0.000124083
3.64673e-05
0.000124156
2.8471e-05
0.000124207
2.02844e-05
0.000124237
1.19715e-05
0.000124244
3.58854e-06
0.000124227
-4.81253e-06
0.000124184
-1.31776e-05
0.000124117
-2.14549e-05
0.000124028
-2.95916e-05
0.000123916
-3.75334e-05
0.000123783
-4.5227e-05
0.000123623
-5.26213e-05
0.000123444
-5.96552e-05
0.000123221
-6.6348e-05
-7.22816e-05
0.000122921
0.000115877
7.18418e-05
0.000116157
6.53877e-05
0.000116464
5.85688e-05
0.000116815
5.13829e-05
0.000117157
4.38929e-05
0.000117453
3.61706e-05
0.000117696
2.82281e-05
0.000117879
2.01015e-05
0.000117996
1.1855e-05
0.00011804
3.54398e-06
0.000118015
-4.78772e-06
0.00011792
-1.30823e-05
0.000117755
-2.12903e-05
0.000117523
-2.93587e-05
0.000117223
-3.72342e-05
0.000116862
-4.48652e-05
0.00011644
-5.21992e-05
0.000115971
-5.91862e-05
0.000115425
-6.58027e-05
-7.17478e-05
0.000114891
0.000108429
7.12099e-05
0.000108987
6.48302e-05
0.000109587
5.79684e-05
0.000110241
5.07291e-05
0.000110863
4.32712e-05
0.000111394
3.56395e-05
0.00011182
2.78017e-05
0.000112135
1.97864e-05
0.000112332
1.16586e-05
0.000112406
3.47009e-06
0.000112349
-4.73098e-06
0.00011216
-1.28937e-05
0.000111841
-2.0971e-05
0.000111398
-2.89151e-05
0.000110841
-3.66774e-05
0.000110185
-4.421e-05
0.000109452
-5.14661e-05
0.00010867
-5.84042e-05
0.000107861
-6.49931e-05
0.000107253
-7.11403e-05
0.000637841
-2.12813e-07
0.000637942
-2.09273e-07
0.000638038
-2.04879e-07
0.000638128
-2.00188e-07
0.000638211
-1.95502e-07
0.000638289
-1.90614e-07
0.00063836
-1.85175e-07
0.000638425
-1.79014e-07
0.000638482
-1.7211e-07
0.000638531
-1.64454e-07
0.000638572
-1.55995e-07
0.000638605
-1.46669e-07
0.000638628
-1.36631e-07
0.000638643
-1.27765e-07
0.000638654
-1.22393e-07
0.000638639
-9.29477e-08
0.000638629
-9.54242e-08
0.000638603
-7.59383e-08
0.000638564
-5.83007e-08
0.000638509
-3.83312e-08
0.000638439
-1.77122e-08
0.000638354
3.28993e-09
0.000638255
2.44642e-08
0.000638142
4.60807e-08
0.000638001
8.36157e-08
0.00063784
1.12481e-07
0.000637667
1.35349e-07
0.000637495
1.45616e-07
0.000637341
1.39181e-07
0.000637189
1.4825e-07
0.000637035
1.62611e-07
0.000636879
1.78553e-07
0.000636719
1.9488e-07
0.000636558
2.11046e-07
0.000636397
2.26734e-07
0.000636236
2.41731e-07
0.000636077
2.55874e-07
0.000635922
2.69038e-07
0.000635771
2.81123e-07
0.000635626
2.92049e-07
0.000635488
3.01756e-07
0.000635359
3.10198e-07
0.000635238
3.17345e-07
0.000635128
3.23183e-07
0.000635028
3.27709e-07
0.000634938
3.30934e-07
0.00063486
3.32877e-07
0.000634793
3.33571e-07
0.000634736
3.33055e-07
0.00063469
3.31376e-07
0.000634654
3.28586e-07
0.000634628
3.24745e-07
0.00063461
3.19915e-07
0.000634601
3.14161e-07
0.000634598
3.0755e-07
0.000634602
3.00152e-07
0.000634611
2.92036e-07
0.000634625
2.83273e-07
0.000634642
2.73933e-07
0.000634662
2.64085e-07
0.000634684
2.53801e-07
0.000634707
2.43149e-07
0.000634732
2.32198e-07
0.000634756
2.21017e-07
0.000634781
2.09672e-07
0.000634805
1.9823e-07
0.000634829
1.86755e-07
0.000634851
1.7531e-07
0.000634873
1.63955e-07
0.000634893
1.52747e-07
0.000634911
1.41742e-07
0.000634929
1.30989e-07
0.000634945
1.20536e-07
0.000634959
1.10423e-07
0.000634973
1.00687e-07
0.000634985
9.13593e-08
0.000634995
8.24647e-08
0.000635005
7.40216e-08
0.000635013
6.60415e-08
0.000635021
5.85288e-08
0.000635027
5.148e-08
0.000635033
4.48832e-08
0.000635038
3.8717e-08
0.000635042
3.29499e-08
0.000635045
2.75383e-08
0.000635048
2.24245e-08
0.00063505
1.7534e-08
0.000635051
1.27729e-08
0.000635052
8.03378e-09
2.8638e-09
0.000599147
-8.81565e-09
0.000598955
-1.73033e-08
0.000598774
-2.37119e-08
0.000598602
-2.85626e-08
0.000598439
-3.2466e-08
0.000598284
-3.55131e-08
0.000598136
-3.76545e-08
0.000597996
-3.8911e-08
0.000597864
-3.92878e-08
0.000597738
-3.87681e-08
0.000597619
-3.7378e-08
0.000597508
-3.51569e-08
0.000597403
-3.21414e-08
0.000597304
-2.83832e-08
0.000597205
-2.34648e-08
0.000597129
-1.73409e-08
0.000597045
-1.12685e-08
0.000596973
-3.65334e-09
0.00059691
4.81097e-09
0.000596857
1.41864e-08
0.000596815
2.45241e-08
0.000596782
3.58283e-08
0.000596762
4.47132e-08
0.000596757
5.17459e-08
0.000596779
6.13192e-08
0.000596819
7.22542e-08
0.000596867
8.7019e-08
0.000596893
1.1987e-07
0.00059689
1.4207e-07
0.000596879
1.59289e-07
0.000596867
1.74463e-07
0.000596857
1.88509e-07
0.000596851
2.01808e-07
0.000596847
2.14516e-07
0.000596847
2.26682e-07
0.000596851
2.38303e-07
0.000596857
2.49349e-07
0.000596866
2.59776e-07
0.000596878
2.69535e-07
0.000596891
2.78576e-07
0.000596906
2.8685e-07
0.000596922
2.9431e-07
0.000596939
3.00917e-07
0.000596955
3.06631e-07
0.000596971
3.11418e-07
0.000596987
3.15251e-07
0.000597002
3.18103e-07
0.000597016
3.19954e-07
0.000597028
3.2079e-07
0.000597039
3.20603e-07
0.000597048
3.1939e-07
0.000597055
3.17157e-07
0.000597061
3.13917e-07
0.000597066
3.09694e-07
0.000597069
3.04519e-07
0.000597071
2.98432e-07
0.000597071
2.91483e-07
0.000597071
2.83729e-07
0.000597069
2.75235e-07
0.000597067
2.66072e-07
0.000597065
2.56317e-07
0.000597062
2.46051e-07
0.000597059
2.35357e-07
0.000597055
2.24318e-07
0.000597052
2.13018e-07
0.000597049
2.01542e-07
0.000597046
1.89969e-07
0.000597043
1.78377e-07
0.00059704
1.6684e-07
0.000597037
1.55427e-07
0.000597035
1.44202e-07
0.000597032
1.33225e-07
0.00059703
1.22547e-07
0.000597028
1.12216e-07
0.000597027
1.02272e-07
0.000597025
9.27487e-08
0.000597024
8.36722e-08
0.000597023
7.50622e-08
0.000597022
6.69307e-08
0.000597022
5.92819e-08
0.000597021
5.21119e-08
0.00059702
4.54081e-08
0.00059702
3.91482e-08
0.00059702
3.32995e-08
0.000597019
2.7817e-08
0.000597019
2.26411e-08
0.000597019
1.7694e-08
0.000597019
1.28729e-08
0.000597019
8.04113e-09
2.83089e-09
0.000562096
-1.57246e-07
0.000562231
-1.52436e-07
0.000562355
-1.47539e-07
0.000562468
-1.41858e-07
0.000562571
-1.35577e-07
0.000562665
-1.28888e-07
0.000562749
-1.217e-07
0.000562824
-1.13928e-07
0.00056289
-1.05563e-07
0.000562948
-9.66012e-08
0.000562997
-8.7025e-08
0.000563039
-7.6759e-08
0.000563073
-6.57481e-08
0.000563102
-5.73066e-08
0.000563118
-3.98254e-08
0.00056313
-2.89426e-08
0.00056313
-1.15012e-08
0.00056312
6.24191e-09
0.0005631
2.43154e-08
0.000563062
5.29345e-08
0.000563006
7.99574e-08
0.000562937
1.0488e-07
0.000562853
1.28528e-07
0.000562754
1.5091e-07
0.000562644
1.71206e-07
0.000562532
1.84191e-07
0.000562431
1.88838e-07
0.00056235
2.00473e-07
0.000562277
2.15228e-07
0.000562205
2.30763e-07
0.000562133
2.46258e-07
0.000562061
2.61257e-07
0.000561987
2.75499e-07
0.000561913
2.88813e-07
0.000561838
3.01077e-07
0.000561764
3.12204e-07
0.000561692
3.2213e-07
0.000561621
3.30812e-07
0.000561552
3.38223e-07
0.000561486
3.44353e-07
0.000561424
3.49204e-07
0.000561365
3.52792e-07
0.000561311
3.55142e-07
0.000561261
3.56289e-07
0.000561217
3.56279e-07
0.000561177
3.55161e-07
0.000561142
3.5299e-07
0.000561112
3.49825e-07
0.000561087
3.45728e-07
0.000561067
3.40762e-07
0.000561051
3.34989e-07
0.00056104
3.28472e-07
0.000561033
3.2127e-07
0.000561029
3.13443e-07
0.000561028
3.05048e-07
0.000561031
2.9614e-07
0.000561035
2.86772e-07
0.000561042
2.76996e-07
0.00056105
2.66862e-07
0.00056106
2.5642e-07
0.000561071
2.4572e-07
0.000561082
2.34809e-07
0.000561094
2.23738e-07
0.000561105
2.12556e-07
0.000561117
2.01312e-07
0.000561128
1.90055e-07
0.00056114
1.78836e-07
0.00056115
1.67702e-07
0.00056116
1.56702e-07
0.00056117
1.45883e-07
0.000561179
1.35287e-07
0.000561187
1.24959e-07
0.000561195
1.14936e-07
0.000561202
1.05255e-07
0.000561208
9.59453e-08
0.000561214
8.70347e-08
0.000561219
7.85443e-08
0.000561223
7.04898e-08
0.000561228
6.28808e-08
0.000561231
5.57203e-08
0.000561234
4.90041e-08
0.000561237
4.27203e-08
0.000561239
3.68481e-08
0.000561241
3.13572e-08
0.000561243
2.62056e-08
0.000561244
2.13384e-08
0.000561245
1.66839e-08
0.000561246
1.21512e-08
0.000561246
7.63082e-09
2.71313e-09
0.000529863
-1.19838e-07
0.000529823
-1.12754e-07
0.000529781
-1.05106e-07
0.000529736
-9.70682e-08
0.000529689
-8.82246e-08
0.000529638
-7.83919e-08
0.000529584
-6.74677e-08
0.000529525
-5.52246e-08
0.000529461
-4.12826e-08
0.000529389
-2.44189e-08
0.000529313
-1.07904e-08
0.000529234
1.62257e-09
0.000529154
1.49914e-08
0.00052907
2.61949e-08
0.000528992
3.82849e-08
0.000528913
5.0152e-08
0.000528838
6.34434e-08
0.000528766
7.77548e-08
0.000528698
9.29461e-08
0.000528642
1.08903e-07
0.000528596
1.25513e-07
0.000528559
1.42611e-07
0.000528527
1.6019e-07
0.000528499
1.78704e-07
0.000528471
1.99468e-07
0.000528431
2.23691e-07
0.000528374
2.46432e-07
0.000528308