/*--------------------------------*- C++ -*----------------------------------*\
| =========                 |                                                 |
| \\      /  F ield         | OpenFOAM: The Open Source CFD Toolbox           |
|  \\    /   O peration     | Version:  2.4.0                                 |
|   \\  /    A nd           | Web:      www.OpenFOAM.org                      |
|    \\/     M anipulation  |                                                 |
\*---------------------------------------------------------------------------*/
FoamFile
{
    version     2.0;
    format      ascii;
    class       surfaceScalarField;
    location    "5.4";
    object      phi;
}
// * * * * * * * * * * * * * * * * * * * * * * * * * * * * * * * * * * * * * //

dimensions      [0 3 -1 0 0 0 0];

internalField   nonuniform List<scalar> 
11100
(
2.52944e-06
1.08039e-05
8.05638e-07
1.7238e-06
4.33343e-07
3.72296e-07
2.63114e-07
1.70229e-07
1.58961e-07
1.04153e-07
8.66189e-08
7.23423e-08
3.31938e-08
5.34252e-08
-8.17666e-09
4.13705e-08
-4.08204e-08
3.26438e-08
-6.74689e-08
2.66485e-08
-8.94033e-08
2.19345e-08
-1.07957e-07
1.85535e-08
-1.23651e-07
1.56939e-08
-1.37338e-07
1.36879e-08
-1.49146e-07
1.18079e-08
-1.59717e-07
1.05707e-08
-1.68943e-07
9.22664e-09
-1.77385e-07
8.44183e-09
-1.84771e-07
7.38616e-09
-1.91651e-07
6.87961e-09
-1.97614e-07
5.96299e-09
-2.03243e-07
5.62918e-09
-2.07997e-07
4.75412e-09
-2.12528e-07
4.53099e-09
-2.16149e-07
3.62089e-09
-2.19617e-07
3.46871e-09
-2.22077e-07
2.45987e-09
-2.24433e-07
2.35612e-09
-2.25652e-07
1.21854e-09
-2.26684e-07
1.0326e-09
-2.26324e-07
-3.6052e-10
-2.25928e-07
-3.95791e-10
-2.23792e-07
-2.136e-09
-2.216e-07
-2.19216e-09
-2.17233e-07
-4.36705e-09
-2.1283e-07
-4.40307e-09
-2.05664e-07
-7.16562e-09
-1.98529e-07
-7.1355e-09
-1.87855e-07
-1.06741e-08
-1.77352e-07
-1.05026e-08
-1.62339e-07
-1.50131e-08
-1.47791e-07
-1.45484e-08
-1.27415e-07
-2.03754e-08
-1.08078e-07
-1.93374e-08
-8.12688e-08
-2.68089e-08
-5.63547e-08
-2.49142e-08
-2.23473e-08
-3.40074e-08
9.35395e-09
-3.17013e-08
5.13011e-08
-4.19471e-08
8.85637e-08
-3.72627e-08
1.40219e-07
-5.16554e-08
1.83022e-07
-4.28027e-08
2.43972e-07
-6.09501e-08
2.9141e-07
-4.74376e-08
3.60974e-07
-6.95646e-08
4.11555e-07
-5.05807e-08
4.88292e-07
-7.67367e-08
5.4014e-07
-5.18483e-08
6.21928e-07
-8.17882e-08
6.72989e-07
-5.10611e-08
7.5727e-07
-8.42811e-08
8.05575e-07
-4.83053e-08
8.89814e-07
-8.42399e-08
9.33539e-07
-4.3725e-08
1.01539e-06
-8.18541e-08
1.05351e-06
-3.8114e-08
1.13084e-06
-7.73363e-08
1.16298e-06
-3.21352e-08
1.23467e-06
-7.16905e-08
1.26122e-06
-2.6557e-08
1.3282e-06
-6.6976e-08
1.35176e-06
-2.3563e-08
1.42273e-06
-7.09679e-08
1.45882e-06
-3.60924e-08
-1.90301e-07
5.80593e-06
1.83313e-05
2.73146e-06
4.79828e-06
1.60138e-06
1.50237e-06
1.05189e-06
7.19718e-07
7.10749e-07
4.45297e-07
4.73408e-07
3.09683e-07
2.96868e-07
2.29965e-07
1.59993e-07
1.78246e-07
5.11451e-08
1.41491e-07
-3.74867e-08
1.1528e-07
-1.10613e-07
9.5061e-08
-1.7214e-07
8.00804e-08
-2.24231e-07
6.77844e-08
-2.69195e-07
5.86527e-08
-3.07995e-07
5.06075e-08
-3.42187e-07
4.47625e-08
-3.72062e-07
3.9102e-08
-3.98812e-07
3.51915e-08
-4.223e-07
3.0874e-08
-4.4356e-07
2.81396e-08
-4.62136e-07
2.45394e-08
-4.79024e-07
2.25169e-08
-4.93501e-07
1.92313e-08
-5.06607e-07
1.76365e-08
-5.17349e-07
1.43637e-08
-5.26888e-07
1.30069e-08
-5.33931e-07
9.50355e-09
-5.39854e-07
8.27845e-09
-5.43015e-07
4.37997e-09
-5.44752e-07
2.77002e-09
-5.43341e-07
-1.77244e-09
-5.40599e-07
-3.13705e-09
-5.34107e-07
-8.62829e-09
-5.26029e-07
-1.027e-08
-5.13204e-07
-1.71926e-08
-4.98573e-07
-1.90335e-08
-4.78094e-07
-2.76445e-08
-4.55504e-07
-2.97264e-08
-4.25654e-07
-4.05235e-08
-3.93479e-07
-4.26778e-08
-3.523e-07
-5.61919e-08
-3.08633e-07
-5.82151e-08
-2.53764e-07
-7.5245e-08
-1.9661e-07
-7.64911e-08
-1.2569e-07
-9.77294e-08
-5.28423e-08
-9.77615e-08
3.56508e-08
-1.225e-07
1.25607e-07
-1.21657e-07
2.34697e-07
-1.51037e-07
3.4161e-07
-1.44176e-07
4.71736e-07
-1.81781e-07
5.95358e-07
-1.66424e-07
7.46038e-07
-2.11631e-07
8.84334e-07
-1.85734e-07
1.05339e-06
-2.38616e-07
1.2028e-06
-1.99993e-07
1.38648e-06
-2.60415e-07
1.54238e-06
-2.07755e-07
1.73557e-06
-2.74975e-07
1.89268e-06
-2.08174e-07
2.08942e-06
-2.81018e-07
2.24247e-06
-2.01357e-07
2.43643e-06
-2.78202e-07
2.58122e-06
-1.88508e-07
2.76648e-06
-2.67118e-07
2.89969e-06
-1.7132e-07
3.07171e-06
-2.49361e-07
3.19177e-06
-1.52198e-07
3.3474e-06
-2.27319e-07
3.45552e-06
-1.34679e-07
3.59529e-06
-2.06743e-07
3.70003e-06
-1.28304e-07
3.83892e-06
-2.09859e-07
3.98562e-06
-1.82792e-07
-5.39547e-07
8.17456e-06
2.34901e-05
4.73364e-06
8.2392e-06
3.00965e-06
3.22636e-06
2.08017e-06
1.6492e-06
1.48737e-06
1.0381e-06
1.0704e-06
7.26652e-07
7.57886e-07
5.42482e-07
5.14474e-07
4.21658e-07
3.2002e-07
3.35945e-07
1.61391e-07
2.73909e-07
3.01935e-08
2.26259e-07
-8.00558e-08
1.9033e-07
-1.73461e-07
1.61189e-07
-2.53754e-07
1.38945e-07
-3.22992e-07
1.19846e-07
-3.83566e-07
1.05336e-07
-4.36427e-07
9.19628e-08
-4.8326e-07
8.20247e-08
-5.24341e-07
7.19543e-08
-5.60994e-07
6.47928e-08
-5.93025e-07
5.65704e-08
-6.21587e-07
5.10793e-08
-6.46129e-07
4.37734e-08
-6.67754e-07
3.92614e-08
-6.85584e-07
3.21938e-08
-7.00767e-07
2.819e-08
-7.12096e-07
2.08319e-08
-7.20867e-07
1.70495e-08
-7.25499e-07
9.01168e-09
-7.27132e-07
4.4037e-09
-7.2413e-07
-4.77502e-09
-7.18269e-07
-8.99743e-09
-7.06857e-07
-2.00402e-08
-6.92047e-07
-2.50808e-08
-6.70581e-07
-3.86584e-08
-6.45153e-07
-4.4462e-08
-6.11688e-07
-6.11088e-08
-5.7359e-07
-6.7825e-08
-5.25745e-07
-8.83687e-08
-4.72587e-07
-9.58352e-08
-4.07636e-07
-1.21143e-07
-3.36686e-07
-1.29165e-07
-2.51481e-07
-1.6045e-07
-1.59896e-07
-1.68076e-07
-5.15363e-08
-2.06089e-07
6.38049e-08
-2.13103e-07
1.9806e-07
-2.56756e-07
3.38269e-07
-2.61866e-07
5.00729e-07
-3.13497e-07
6.67107e-07
-3.10554e-07
8.57967e-07
-3.72641e-07
1.04966e-06
-3.58114e-07
1.26762e-06
-4.29596e-07
1.48181e-06
-3.9992e-07
1.72333e-06
-4.80136e-07
1.95513e-06
-4.31797e-07
2.21463e-06
-5.19913e-07
2.45753e-06
-4.50659e-07
2.72778e-06
-5.45225e-07
2.97427e-06
-4.54663e-07
3.24706e-06
-5.53809e-07
3.48954e-06
-4.4383e-07
3.75646e-06
-5.45128e-07
3.98828e-06
-4.20322e-07
4.24145e-06
-5.20291e-07
4.4577e-06
-3.87568e-07
4.6904e-06
-4.82059e-07
4.88879e-06
-3.50586e-07
5.0959e-06
-4.34434e-07
5.27852e-06
-3.173e-07
5.45878e-06
-3.86998e-07
5.63824e-06
-3.07766e-07
5.81027e-06
-3.81887e-07
6.04235e-06
-4.14873e-07
-9.54016e-07
9.98152e-06
2.68419e-05
6.67418e-06
1.15465e-05
4.58525e-06
5.3153e-06
3.31925e-06
2.9152e-06
2.47662e-06
1.88073e-06
1.87218e-06
1.33109e-06
1.41419e-06
1.00047e-06
1.0549e-06
7.80955e-07
7.66297e-07
6.24545e-07
5.30076e-07
5.1013e-07
3.34193e-07
4.22141e-07
1.69488e-07
3.55035e-07
2.98791e-08
3.00798e-07
-8.98756e-08
2.587e-07
-1.93026e-07
2.22996e-07
-2.82874e-07
1.95184e-07
-3.61087e-07
1.70177e-07
-4.29925e-07
1.50863e-07
-4.90107e-07
1.32136e-07
-5.4332e-07
1.18006e-07
-5.89645e-07
1.02896e-07
-6.30463e-07
9.18968e-08
-6.65389e-07
7.86991e-08
-6.95662e-07
6.95344e-08
-7.20498e-07
5.703e-08
-7.41118e-07
4.88101e-08
-7.56353e-07
3.60671e-08
-7.67534e-07
2.82306e-08
-7.73041e-07
1.45187e-08
-7.74008e-07
5.36996e-09
-7.68878e-07
-9.90438e-09
-7.59229e-07
-1.86467e-08
-7.42394e-07
-3.6875e-08
-7.20396e-07
-4.7079e-08
-6.89966e-07
-6.9088e-08
-6.53625e-07
-8.08031e-08
-6.07313e-07
-1.07421e-07
-5.54178e-07
-1.2096e-07
-4.89193e-07
-1.53354e-07
-4.16406e-07
-1.68622e-07
-3.29602e-07
-2.07948e-07
-2.33985e-07
-2.24782e-07
-1.21855e-07
-2.72579e-07
1.11422e-09
-2.91046e-07
1.4065e-07
-3.45625e-07
2.91523e-07
-3.63976e-07
4.63656e-07
-4.28888e-07
6.45579e-07
-4.43788e-07
8.50765e-07
-5.18684e-07
1.06476e-06
-5.2455e-07
1.30279e-06
-6.10671e-07
1.54761e-06
-6.0293e-07
1.8163e-06
-6.98283e-07
2.08847e-06
-6.72095e-07
2.38318e-06
-7.7485e-07
2.67693e-06
-7.25539e-07
2.99085e-06
-8.3384e-07
3.29843e-06
-7.58231e-07
3.62306e-06
-8.6986e-07
3.93558e-06
-7.67183e-07
4.26142e-06
-8.79649e-07
4.56991e-06
-7.52313e-07
4.88722e-06
-8.62443e-07
5.18367e-06
-7.16775e-07
5.48328e-06
-8.199e-07
5.76173e-06
-6.66015e-07
6.03553e-06
-7.55866e-07
6.29305e-06
-6.08101e-07
6.53482e-06
-6.76204e-07
6.7732e-06
-5.55685e-07
6.98133e-06
-5.95126e-07
7.21326e-06
-5.39691e-07
7.41048e-06
-5.79111e-07
7.68555e-06
-6.89939e-07
-1.4055e-06
1.13622e-05
2.8813e-05
8.46221e-06
1.44465e-05
6.23788e-06
7.53963e-06
4.72242e-06
4.43066e-06
3.65534e-06
2.94781e-06
2.86738e-06
2.11905e-06
2.26062e-06
1.60723e-06
1.77954e-06
1.26203e-06
1.39021e-06
1.01387e-06
1.06993e-06
8.30416e-07
8.03347e-07
6.88723e-07
5.78789e-07
5.79593e-07
3.88228e-07
4.9136e-07
2.24866e-07
4.22061e-07
8.42637e-08
3.63599e-07
-3.78543e-08
3.17302e-07
-1.43927e-07
2.76249e-07
-2.36833e-07
2.43769e-07
-3.17787e-07
2.13089e-07
-3.88879e-07
1.89098e-07
-4.50507e-07
1.64524e-07
-5.04313e-07
1.45702e-07
-5.50113e-07
1.24499e-07
-5.89312e-07
1.08734e-07
-6.2125e-07
8.89683e-08
-6.47246e-07
7.48057e-08
-6.66201e-07
5.50217e-08
-6.79489e-07
4.15188e-08
-6.85509e-07
2.05387e-08
-6.85422e-07
5.28347e-09
-6.77725e-07
-1.76019e-08
-6.63898e-07
-3.24741e-08
-6.41291e-07
-5.94819e-08
-6.1186e-07
-7.65093e-08
-5.72377e-07
-1.08571e-07
-5.2522e-07
-1.2796e-07
-4.66425e-07
-1.66216e-07
-3.98913e-07
-1.88472e-07
-3.17857e-07
-2.3441e-07
-2.26947e-07
-2.59533e-07
-1.20391e-07
-3.14503e-07
-2.00937e-09
-3.43164e-07
1.32837e-07
-4.07426e-07
2.80458e-07
-4.38666e-07
4.48363e-07
-5.1353e-07
6.28939e-07
-5.44553e-07
8.31423e-07
-6.31371e-07
1.04678e-06
-6.59145e-07
1.28497e-06
-7.56872e-07
1.53577e-06
-7.75353e-07
1.80875e-06
-8.83653e-07
2.0933e-06
-8.87475e-07
2.39804e-06
-1.00302e-06
2.71232e-06
-9.86381e-07
3.04336e-06
-1.10589e-06
3.38099e-06
-1.06317e-06
3.73079e-06
-1.18364e-06
4.08337e-06
-1.11081e-06
4.44281e-06
-1.2293e-06
4.80079e-06
-1.12517e-06
5.15984e-06
-1.2387e-06
5.51362e-06
-1.10609e-06
5.86203e-06
-1.21085e-06
6.20302e-06
-1.05776e-06
6.53106e-06
-1.14794e-06
6.85272e-06
-9.87672e-07
7.15171e-06
-1.05486e-06
7.45054e-06
-9.06926e-07
7.71376e-06
-9.39428e-07
7.99075e-06
-8.32671e-07
8.21697e-06
-8.21354e-07
8.4821e-06
-8.04822e-07
8.69937e-06
-7.96379e-07
8.98918e-06
-9.79741e-07
-1.86798e-06
1.23974e-05
2.9749e-05
1.00417e-05
1.68022e-05
7.88011e-06
9.70125e-06
6.22897e-06
6.0818e-06
4.98762e-06
4.18916e-06
4.03564e-06
3.07103e-06
3.28594e-06
2.35693e-06
2.68271e-06
1.86527e-06
2.18947e-06
1.50711e-06
1.78075e-06
1.23914e-06
1.43875e-06
1.03072e-06
1.14971e-06
8.68634e-07
9.03866e-07
7.37199e-07
6.92997e-07
6.32931e-07
5.11485e-07
5.45111e-07
3.54083e-07
4.74704e-07
2.17568e-07
4.12764e-07
9.84089e-08
3.62928e-07
-5.15316e-09
3.16651e-07
-9.55872e-08
2.79532e-07
-1.73703e-07
2.4264e-07
-2.41414e-07
2.13413e-07
-2.98772e-07
1.81857e-07
-3.47372e-07
1.57335e-07
-3.86712e-07
1.28308e-07
-4.18231e-07
1.06324e-07
-4.40931e-07
7.77224e-08
-4.56252e-07
5.68397e-08
-4.62654e-07
2.69401e-08
-4.61351e-07
3.98096e-09
-4.50923e-07
-2.80298e-08
-4.32761e-07
-5.06365e-08
-4.04308e-07
-8.79347e-08
-3.67468e-07
-1.13349e-07
-3.19117e-07
-1.56922e-07
-2.61511e-07
-1.85566e-07
-1.90876e-07
-2.36852e-07
-1.0989e-07
-2.69458e-07
-1.42424e-08
-3.30057e-07
9.32497e-08
-3.67025e-07
2.17305e-07
-4.38558e-07
3.54105e-07
-4.79964e-07
5.09753e-07
-5.63074e-07
6.79104e-07
-6.08017e-07
8.69059e-07
-7.03485e-07
1.07362e-06
-7.49113e-07
1.29962e-06
-8.57376e-07
1.54077e-06
-9.00292e-07
1.80319e-06
-1.01929e-06
2.08109e-06
-1.05324e-06
2.37825e-06
-1.18082e-06
2.69069e-06
-1.19992e-06
3.01881e-06
-1.33114e-06
3.36136e-06
-1.32893e-06
3.71441e-06
-1.45894e-06
4.08032e-06
-1.42907e-06
4.45041e-06
-1.55374e-06
4.83107e-06
-1.49146e-06
5.20899e-06
-1.60722e-06
5.59474e-06
-1.51092e-06
5.97051e-06
-1.61446e-06
6.3517e-06
-1.48729e-06
6.7152e-06
-1.57435e-06
7.0832e-06
-1.42576e-06
7.42479e-06
-1.48953e-06
7.77288e-06
-1.33576e-06
8.08396e-06
-1.36594e-06
8.40813e-06
-1.2311e-06
8.68226e-06
-1.21356e-06
8.98222e-06
-1.13264e-06
9.2195e-06
-1.05863e-06
9.50115e-06
-1.08647e-06
9.73427e-06
-1.02949e-06
1.00212e-05
-1.26663e-06
-2.32096e-06
1.315e-05
2.99323e-05
1.13837e-05
1.85684e-05
9.4364e-06
1.16486e-05
7.7709e-06
7.7473e-06
6.42576e-06
5.53429e-06
5.34614e-06
4.15065e-06
4.47099e-06
3.23208e-06
3.75294e-06
2.58332e-06
3.15768e-06
2.10237e-06
2.6595e-06
1.73732e-06
2.23958e-06
1.45064e-06
1.88288e-06
1.22533e-06
1.57838e-06
1.0417e-06
1.31668e-06
8.94633e-07
1.09113e-06
7.70657e-07
8.95605e-07
6.70232e-07
7.26116e-07
5.82253e-07
5.78489e-07
5.10555e-07
4.50449e-07
4.44691e-07
3.39014e-07
3.90967e-07
2.43057e-07
3.38597e-07
1.60331e-07
2.96139e-07
9.05203e-08
2.51668e-07
3.18171e-08
2.16038e-07
-1.54749e-08
1.756e-07
-5.2906e-08
1.43755e-07
-7.96486e-08
1.04465e-07
-9.72023e-08
7.43934e-08
-1.04136e-07
3.38735e-08
-1.01774e-07
1.61901e-09
-8.87485e-08
-4.10552e-08
-6.64039e-08
-7.2981e-08
-3.23865e-08
-1.21952e-07
1.15879e-08
-1.57324e-07
6.82104e-08
-2.13545e-07
1.35584e-07
-2.5294e-07
2.17099e-07
-3.18367e-07
3.10302e-07
-3.62661e-07
4.19268e-07
-4.39023e-07
5.41015e-07
-4.88772e-07
6.80176e-07
-5.77719e-07
8.33253e-07
-6.3304e-07
1.00535e-06
-7.35174e-07
1.19239e-06
-7.95051e-07
1.39954e-06
-9.1064e-07
1.62263e-06
-9.72198e-07
1.86585e-06
-1.10059e-06
2.12578e-06
-1.16023e-06
2.40459e-06
-1.29811e-06
2.7009e-06
-1.34955e-06
3.01288e-06
-1.4928e-06
3.34287e-06
-1.52991e-06
3.68361e-06
-1.67188e-06
4.04248e-06
-1.6878e-06
4.4056e-06
-1.82206e-06
4.78646e-06
-1.80994e-06
5.16407e-06
-1.93134e-06
5.55842e-06
-1.88581e-06
5.94153e-06
-1.99034e-06
6.34003e-06
-1.90942e-06
6.71915e-06
-1.99358e-06
7.11255e-06
-1.88069e-06
7.47815e-06
-1.93995e-06
7.85815e-06
-1.80576e-06
8.20122e-06
-1.8326e-06
8.56121e-06
-1.69575e-06
8.87382e-06
-1.67854e-06
9.20939e-06
-1.56668e-06
9.48599e-06
-1.49016e-06
9.79533e-06
-1.44198e-06
1.00379e-05
-1.30119e-06
1.03226e-05
-1.37112e-06
1.05665e-05
-1.27347e-06
1.08408e-05
-1.54095e-06
-2.74994e-06
1.36746e-05
2.9591e-05
1.24801e-05
1.9763e-05
1.08481e-05
1.32806e-05
9.2804e-06
9.31505e-06
7.91348e-06
6.90121e-06
6.75774e-06
5.3064e-06
5.78729e-06
4.20252e-06
4.97122e-06
3.39938e-06
4.28261e-06
2.79098e-06
3.69875e-06
2.32118e-06
3.20176e-06
1.94763e-06
2.77657e-06
1.65053e-06
2.41163e-06
1.40663e-06
2.09687e-06
1.2094e-06
1.8249e-06
1.04263e-06
1.58887e-06
9.06265e-07
1.38414e-06
7.86981e-07
1.20596e-06
6.88738e-07
1.05153e-06
5.99116e-07
9.17439e-07
5.25058e-07
8.02172e-07
4.53865e-07
7.03158e-07
3.95152e-07
6.19802e-07
3.35024e-07
5.5006e-07
2.8578e-07
4.94039e-07
2.31621e-07
4.49996e-07
1.87799e-07
4.18627e-07
1.35835e-07
3.98315e-07
9.47046e-08
3.9037e-07
4.18189e-08
3.93283e-07
-1.29407e-09
4.08434e-07
-5.62062e-08
4.34407e-07
-9.8954e-08
4.73403e-07
-1.60948e-07
5.23616e-07
-2.07536e-07
5.87746e-07
-2.77675e-07
6.63769e-07
-3.28962e-07
7.54844e-07
-4.09442e-07
8.58691e-07
-4.66508e-07
9.78882e-07
-5.59214e-07
1.11283e-06
-6.22716e-07
1.26435e-06
-7.29243e-07
1.43064e-06
-7.9933e-07
1.61556e-06
-9.20091e-07
1.8162e-06
-9.95699e-07
2.03586e-06
-1.13029e-06
2.27226e-06
-1.2086e-06
2.52683e-06
-1.35517e-06
2.7991e-06
-1.43249e-06
3.08728e-06
-1.58629e-06
3.39425e-06
-1.65652e-06
3.71294e-06
-1.81149e-06
4.05143e-06
-1.86839e-06
4.39572e-06
-2.01617e-06
4.76064e-06
-2.05272e-06
5.12402e-06
-2.18545e-06
5.50854e-06
-2.19445e-06
5.88328e-06
-2.30609e-06
6.27923e-06
-2.28176e-06
6.65688e-06
-2.36799e-06
7.05553e-06
-2.30807e-06
7.42734e-06
-2.36539e-06
7.82016e-06
-2.27351e-06
8.17753e-06
-2.29733e-06
8.55684e-06
-2.18507e-06
8.89178e-06
-2.16754e-06
9.25129e-06
-2.05526e-06
9.55696e-06
-1.98421e-06
9.89197e-06
-1.90169e-06
1.01642e-05
-1.76239e-06
1.04715e-05
-1.74923e-06
1.07142e-05
-1.54389e-06
1.09915e-05
-1.64849e-06
1.12403e-05
-1.52223e-06
1.14973e-05
-1.79799e-06
-3.14546e-06
1.40201e-05
2.89042e-05
1.33394e-05
2.04437e-05
1.20759e-05
1.4544e-05
1.06968e-05
1.06942e-05
9.39098e-06
8.20701e-06
8.22082e-06
6.47656e-06
7.19691e-06
5.22643e-06
6.3098e-06
4.28649e-06
5.54456e-06
3.55621e-06
4.88492e-06
2.98082e-06
4.3163e-06
2.51625e-06
3.82514e-06
2.14169e-06
3.40046e-06
1.83132e-06
3.03218e-06
1.57767e-06
2.71266e-06
1.36216e-06
2.43463e-06
1.1843e-06
2.19299e-06
1.02861e-06
1.98255e-06
8.99181e-07
1.80007e-06
7.81595e-07
1.64175e-06
6.83386e-07
1.50569e-06
5.89917e-07
1.38904e-06
5.11805e-07
1.2909e-06
4.33166e-07
1.20899e-06
3.67685e-07
1.1432e-06
2.97415e-07
1.09161e-06
2.39392e-07
1.05471e-06
1.72729e-07
1.0308e-06
1.18621e-07
1.02099e-06
5.16285e-08
1.0236e-06
-3.91162e-09
1.04e-06
-7.25982e-08
1.06867e-06
-1.27624e-07
1.11156e-06
-2.03843e-07
1.16693e-06
-2.62911e-07
1.23716e-06
-3.47903e-07
1.32036e-06
-4.12161e-07
1.41923e-06
-5.08316e-07
1.53177e-06
-5.79045e-07
1.66089e-06
-6.88328e-07
1.80447e-06
-7.66297e-07
1.96538e-06
-8.90153e-07
2.1416e-06
-9.7555e-07
2.33557e-06
-1.11407e-06
2.54571e-06
-1.20584e-06
2.77325e-06
-1.35783e-06
3.01792e-06
-1.45327e-06
3.27836e-06
-1.61561e-06
3.55694e-06
-1.71106e-06
3.84818e-06
-1.87753e-06
4.1588e-06
-1.96714e-06
4.47713e-06
-2.12982e-06
4.81614e-06
-2.20741e-06
5.15634e-06
-2.35637e-06
5.51848e-06
-2.41486e-06
5.87404e-06
-2.541e-06
6.25264e-06
-2.57306e-06
6.61618e-06
-2.66963e-06
7.00362e-06
-2.66921e-06
7.36735e-06
-2.73171e-06
7.7557e-06
-2.69642e-06
8.11181e-06
-2.7215e-06
8.49344e-06
-2.65514e-06
8.83448e-06
-2.63837e-06
9.20251e-06
-2.55311e-06
9.52176e-06
-2.48679e-06
9.87041e-06
-2.40391e-06
1.01624e-05
-2.27623e-06
1.04868e-05
-2.22612e-06
1.0749e-05
-2.02456e-06
1.10448e-05
-2.04504e-06
1.12827e-05
-1.78171e-06
1.15453e-05
-1.91112e-06
1.17922e-05
-1.76908e-06
1.20297e-05
-2.03556e-06
-3.50201e-06
1.42305e-05
2.8007e-05
1.39828e-05
2.06914e-05
1.30998e-05
1.5427e-05
1.1972e-05
1.1822e-05
1.08009e-05
9.37802e-06
9.68118e-06
7.59632e-06
8.65393e-06
6.25369e-06
7.73204e-06
5.20838e-06
6.91538e-06
4.37287e-06
6.19692e-06
3.69928e-06
5.56773e-06
3.14545e-06
5.01753e-06
2.69189e-06
4.53717e-06
2.31168e-06
4.11749e-06
1.99734e-06
3.75122e-06
1.72843e-06
3.43112e-06
1.50439e-06
3.15197e-06
1.30776e-06
2.90831e-06
1.14284e-06
2.69663e-06
9.9328e-07
2.51281e-06
8.67202e-07
2.35468e-06
7.48046e-07
2.2191e-06
6.47386e-07
2.1049e-06
5.47363e-07
2.0096e-06
4.62985e-07
1.93283e-06
3.74189e-07
1.87251e-06
2.99709e-07
1.82893e-06
2.16317e-07
1.80024e-06
1.47302e-07
1.78736e-06
6.45097e-08
1.7885e-06
-5.04683e-09
1.80484e-06
-8.89402e-08
1.83485e-06
-1.57637e-07
1.88016e-06
-2.49152e-07
1.93911e-06
-3.21854e-07
2.01365e-06
-4.22447e-07
2.10209e-06
-5.00604e-07
2.20659e-06
-6.12809e-07
2.32544e-06
-6.979e-07
2.4608e-06
-8.23687e-07
2.6111e-06
-9.16601e-07
2.77813e-06
-1.05718e-06
2.96075e-06
-1.15816e-06
3.15987e-06
-1.31319e-06
3.37527e-06
-1.42125e-06
3.60612e-06
-1.58868e-06
3.8541e-06
-1.70125e-06
4.11519e-06
-1.8767e-06
4.39436e-06
-1.99023e-06
4.68287e-06
-2.16605e-06
4.99071e-06
-2.27498e-06
5.30246e-06
-2.44157e-06
5.63492e-06
-2.53986e-06
5.96448e-06
-2.68594e-06
6.3162e-06
-2.76658e-06
6.65723e-06
-2.88202e-06
7.02183e-06
-2.93766e-06
7.36741e-06
-3.0152e-06
7.73794e-06
-3.03974e-06
8.08104e-06
-3.07481e-06
8.45049e-06
-3.06587e-06
8.78436e-06
-3.05536e-06
9.14611e-06
-3.01689e-06
9.46455e-06
-2.9568e-06
9.81267e-06
-2.90123e-06
1.01103e-05
-2.78446e-06
1.04396e-05
-2.7332e-06
1.07126e-05
-2.54921e-06
1.10183e-05
-2.53184e-06
1.12656e-05
-2.2718e-06
1.15427e-05
-2.32214e-06
1.17707e-05
-2.00974e-06
1.20135e-05
-2.15388e-06
1.22518e-05
-2.0074e-06
1.24687e-05
-2.25243e-06
-3.81674e-06
1.43444e-05
2.6996e-05
1.44403e-05
2.05955e-05
1.39175e-05
1.59499e-05
1.30737e-05
1.26659e-05
1.20942e-05
1.03575e-05
1.10851e-05
8.60547e-06
1.01077e-05
7.23106e-06
9.19391e-06
6.12217e-06
8.35854e-06
5.20825e-06
7.60538e-06
4.45243e-06
6.93292e-06
3.81791e-06
6.33582e-06
3.28898e-06
5.80808e-06
2.83942e-06
5.3425e-06
2.46292e-06
4.93293e-06
2.13801e-06
4.57278e-06
1.86453e-06
4.25709e-06
1.62346e-06
3.98046e-06
1.41946e-06
3.73932e-06
1.23443e-06
3.52941e-06
1.07711e-06
3.34836e-06
9.29097e-07
3.19285e-06
8.02896e-07
3.06148e-06
6.78735e-07
2.95159e-06
5.72872e-07
2.86258e-06
4.63203e-07
2.79223e-06
3.70053e-07
2.74059e-06
2.6796e-07
2.70574e-06
1.82152e-07
2.68826e-06
8.19884e-08
2.68643e-06
-3.21236e-09
2.70104e-06
-1.03553e-07
2.73065e-06
-1.87251e-07
2.77648e-06
-2.94979e-07
2.83697e-06
-3.8235e-07
2.91362e-06
-4.99097e-07
3.00495e-06
-5.9193e-07
3.11246e-06
-7.20318e-07
3.23485e-06
-8.20288e-07
3.37339e-06
-9.6223e-07
3.52714e-06
-1.07035e-06
3.69672e-06
-1.22676e-06
3.88191e-06
-1.34336e-06
4.08209e-06
-1.51337e-06
4.29838e-06
-1.63753e-06
4.52794e-06
-1.81824e-06
4.77428e-06
-1.94759e-06
5.03098e-06
-2.1334e-06
5.30525e-06
-2.2645e-06
5.58566e-06
-2.44646e-06
5.88474e-06
-2.57407e-06
6.18432e-06
-2.74115e-06
6.50384e-06
-2.85938e-06
6.81711e-06
-2.9992e-06
7.15173e-06
-3.1012e-06
7.47258e-06
-3.20287e-06
7.81632e-06
-3.2814e-06
8.13841e-06
-3.33729e-06
8.48506e-06
-3.38639e-06
8.80222e-06
-3.39197e-06
9.14577e-06
-3.40942e-06
9.4523e-06
-3.36189e-06
9.78721e-06
-3.35181e-06
1.00782e-05
-3.2478e-06
1.03995e-05
-3.22255e-06
1.06711e-05
-3.05603e-06
1.09743e-05
-3.03643e-06
1.1224e-05
-2.7989e-06
1.15047e-05
-2.81253e-06
1.17328e-05
-2.49993e-06
1.19857e-05
-2.57507e-06
1.21993e-05
-2.22331e-06
1.24187e-05
-2.37327e-06
1.26425e-05
-2.23118e-06
1.28377e-05
-2.44763e-06
-4.08857e-06
1.43941e-05
2.59352e-05
1.47466e-05
2.02429e-05
1.45415e-05
1.6155e-05
1.39867e-05
1.32207e-05
1.32342e-05
1.11099e-05
1.23846e-05
9.45512e-06
1.15073e-05
8.10829e-06
1.06469e-05
6.98259e-06
9.8307e-06
6.02447e-06
9.07307e-06
5.21006e-06
8.38071e-06
4.51027e-06
7.75437e-06
3.91532e-06
7.19234e-06
3.40146e-06
6.69038e-06
2.96488e-06
6.24431e-06
2.58408e-06
5.84884e-06
2.26e-06
5.49976e-06
1.97254e-06
5.19216e-06
1.72706e-06
4.92265e-06
1.50394e-06
4.6871e-06
1.31266e-06
4.48308e-06
1.13312e-06
4.30721e-06
9.7876e-07
4.15795e-06
8.28001e-07
4.03254e-06
6.98285e-07
3.93015e-06
5.65589e-07
3.8485e-06
4.517e-07
3.78737e-06
3.29088e-07
3.74482e-06
2.2471e-07
3.72108e-06
1.05725e-07
3.71439e-06
3.47954e-09
3.72537e-06
-1.14536e-07
3.7525e-06
-2.14384e-07
3.79659e-06
-3.39069e-07
3.85624e-06
-4.42e-07
3.9324e-06
-5.75251e-07
4.02384e-06
-6.83373e-07
4.13137e-06
-8.27851e-07
4.25412e-06
-9.43034e-07
4.39243e-06
-1.10054e-06
4.54601e-06
-1.22394e-06
4.71429e-06
-1.39504e-06
4.89798e-06
-1.52705e-06
5.09494e-06
-1.71033e-06
5.30757e-06
-1.85016e-06
5.53122e-06
-2.04188e-06
5.77094e-06
-2.18731e-06
6.01833e-06
-2.38079e-06
6.28237e-06
-2.52854e-06
6.5496e-06
-2.71369e-06
6.83431e-06
-2.85878e-06
7.11661e-06
-3.02345e-06
7.4174e-06
-3.16017e-06
7.70934e-06
-3.29114e-06
8.021e-06
-3.41286e-06
8.31684e-06
-3.49871e-06
8.63389e-06
-3.59845e-06
8.92792e-06
-3.63132e-06
9.24496e-06
-3.70344e-06
9.53189e-06
-3.6789e-06
9.84393e-06
-3.72146e-06
1.01192e-05
-3.63713e-06
1.04218e-05
-3.65439e-06
1.06817e-05
-3.5077e-06
1.09708e-05
-3.51171e-06
1.12128e-05
-3.29803e-06
1.14849e-05
-3.30846e-06
1.17079e-05
-3.02192e-06
1.19588e-05
-3.06346e-06
1.21643e-05
-2.70542e-06
1.23892e-05
-2.79998e-06
1.25841e-05
-2.41823e-06
1.27779e-05
-2.56699e-06
1.29821e-05
-2.43545e-06
1.31547e-05
-2.62014e-06
-4.3174e-06
1.44051e-05
2.48634e-05
1.49372e-05
1.97108e-05
1.49952e-05
1.6097e-05
1.47116e-05
1.35042e-05
1.41995e-05
1.16221e-05
1.35422e-05
1.01124e-05
1.28068e-05
8.84378e-06
1.20424e-05
7.74692e-06
1.12847e-05
6.78218e-06
1.05566e-05
5.93814e-06
9.87262e-06
5.19429e-06
9.23978e-06
4.54816e-06
8.66138e-06
3.97986e-06
8.13694e-06
3.48931e-06
7.66498e-06
3.05604e-06
7.24215e-06
2.68283e-06
6.86556e-06
2.34913e-06
6.53123e-06
2.06139e-06
6.23631e-06
1.79886e-06
5.97706e-06
1.57191e-06
5.75119e-06
1.35899e-06
5.55548e-06
1.17447e-06
5.38832e-06
9.95169e-07
5.24696e-06
8.39638e-07
5.13044e-06
6.82112e-07
5.03644e-06
5.45696e-07
4.96452e-06
4.01013e-07
4.91273e-06
2.76497e-07
4.88104e-06
1.37415e-07
4.86745e-06
1.70688e-08
4.87274e-06
-1.1982e-07
4.89507e-06
-2.3672e-07
4.93491e-06
-3.78903e-07
4.99102e-06
-4.98109e-07
5.06376e-06
-6.47995e-07
5.15223e-06
-7.7184e-07
5.25647e-06
-9.32096e-07
5.37607e-06
-1.06264e-06
5.51044e-06
-1.23491e-06
5.65993e-06
-1.37343e-06
5.82282e-06
-1.55792e-06
6.00069e-06
-1.70492e-06
6.19002e-06
-1.89967e-06
6.39431e-06
-2.05445e-06
6.60737e-06
-2.25494e-06
6.8355e-06
-2.41545e-06
7.06878e-06
-2.61406e-06
7.31739e-06
-2.77715e-06
7.5666e-06
-2.9629e-06
7.83165e-06
-3.12382e-06
8.09192e-06
-3.28372e-06
8.36872e-06
-3.43697e-06
8.6348e-06
-3.55723e-06
8.91837e-06
-3.69643e-06
9.18498e-06
-3.76532e-06
9.47041e-06
-3.88388e-06
9.73255e-06
-3.89346e-06
1.00153e-05
-3.98618e-06
1.02686e-05
-3.93218e-06
1.05447e-05
-3.99756e-06
1.07856e-05
-3.87804e-06
1.10516e-05
-3.92045e-06
1.12777e-05
-3.73375e-06
1.15307e-05
-3.76475e-06
1.17406e-05
-3.50792e-06
1.19778e-05
-3.5456e-06
1.21715e-05
-3.21572e-06
1.23894e-05
-3.28135e-06
1.25694e-05
-2.88541e-06
1.27637e-05
-2.99429e-06
1.29365e-05
-2.59101e-06
1.31031e-05
-2.73356e-06
1.3284e-05
-2.61635e-06
1.34328e-05
-2.76893e-06
-4.50372e-06
1.43961e-05
2.38007e-05
1.50451e-05
1.90618e-05
1.53079e-05
1.58342e-05
1.52623e-05
1.35498e-05
1.49841e-05
1.19003e-05
1.45342e-05
1.05622e-05
1.39693e-05
9.40873e-06
1.33364e-05
8.37982e-06
1.26738e-05
7.44476e-06
1.20099e-05
6.60207e-06
1.1365e-05
5.83916e-06
1.07521e-05
5.16106e-06
1.01794e-05
4.55259e-06
9.65047e-06
4.01821e-06
9.1671e-06
3.53941e-06
8.7284e-06
3.12153e-06
8.33327e-06
2.74426e-06
7.97913e-06
2.41554e-06
7.66401e-06
2.11398e-06
7.38491e-06
1.851e-06
7.13994e-06
1.60396e-06
6.92619e-06
1.38821e-06
6.74217e-06
1.17919e-06
6.58531e-06
9.96502e-07
6.45454e-06
8.12884e-07
6.34764e-06
6.52592e-07
6.26397e-06
4.84687e-07
6.20166e-06
3.388e-07
6.1603e-06
1.78774e-07
6.13815e-06
3.9226e-08
6.13547e-06
-1.17143e-07
6.15062e-06
-2.51865e-07
6.18354e-06
-4.1183e-07
6.23325e-06
-5.47813e-07
6.29948e-06
-7.14228e-07
6.38166e-06
-8.54021e-07
6.47909e-06
-1.02953e-06
6.59182e-06
-1.17536e-06
6.71833e-06
-1.36142e-06
6.85961e-06
-1.51471e-06
7.01286e-06
-1.71116e-06
7.18044e-06
-1.8725e-06
7.35764e-06
-2.07687e-06
7.54885e-06
-2.24566e-06
7.74666e-06
-2.45275e-06
7.95828e-06
-2.62706e-06
8.17274e-06
-2.82852e-06
8.40092e-06
-3.00533e-06
8.62751e-06
-3.18949e-06
8.86794e-06
-3.36426e-06
9.10178e-06
-3.51756e-06
9.34981e-06
-3.685e-06
9.58596e-06
-3.79338e-06
9.83695e-06
-3.94742e-06
1.00707e-05
-3.99903e-06
1.03203e-05
-4.13355e-06
1.05474e-05
-4.12049e-06
1.07921e-05
-4.23089e-06
1.10089e-05
-4.14905e-06
1.12457e-05
-4.23433e-06
1.14499e-05
-4.08227e-06
1.16764e-05
-4.14692e-06
1.18666e-05
-3.92396e-06
1.20808e-05
-3.97889e-06
1.22567e-05
-3.68385e-06
1.24564e-05
-3.74535e-06
1.26191e-05
-3.37841e-06
1.28019e-05
-3.46409e-06
1.29542e-05
-3.0377e-06
1.31163e-05
-3.15645e-06
1.32643e-05
-2.73893e-06
1.34028e-05
-2.87206e-06
1.35576e-05
-2.77116e-06
1.36817e-05
-2.89304e-06
-4.64837e-06
1.43795e-05
2.27545e-05
1.50983e-05
1.83429e-05
1.55113e-05
1.54212e-05
1.56618e-05
1.33993e-05
1.55956e-05
1.19666e-05
1.53513e-05
1.08065e-05
1.49707e-05
9.78925e-06
1.44936e-05
8.85695e-06
1.3956e-05
7.98237e-06
1.33876e-05
7.17042e-06
1.28124e-05
6.41443e-06
1.22473e-05
5.72611e-06
1.17049e-05
5.09498e-06
1.11927e-05
4.53038e-06
1.07158e-05
4.01634e-06
1.02761e-05
3.56129e-06
9.87451e-06
3.1458e-06
9.51032e-06
2.77973e-06
9.18279e-06
2.4415e-06
8.88993e-06
2.14386e-06
8.6305e-06
1.8634e-06
8.40219e-06
1.61652e-06
8.20376e-06
1.37762e-06
8.03298e-06
1.16728e-06
7.88881e-06
9.57051e-07
7.76924e-06
7.72158e-07
7.67349e-06
5.80441e-07
7.59986e-06
4.12431e-07
7.54762e-06
2.31018e-07
7.51526e-06
7.15811e-08
7.50266e-06
-1.04544e-07
7.50832e-06
-2.57527e-07
7.53175e-06
-4.35259e-07
7.57219e-06
-5.88247e-07
7.62878e-06
-7.70825e-07
7.70131e-06
-9.26546e-07
7.78834e-06
-1.11656e-06
7.89037e-06
-1.27739e-06
8.00506e-06
-1.4761e-06
8.13394e-06
-1.6436e-06
8.27327e-06
-1.85049e-06
8.42607e-06
-2.02531e-06
8.58667e-06
-2.23746e-06
8.7601e-06
-2.41909e-06
8.93811e-06
-2.63076e-06
9.12843e-06
-2.81738e-06
9.31956e-06
-3.01965e-06
9.52257e-06
-3.20834e-06
9.72219e-06
-3.38911e-06
9.93345e-06
-3.57552e-06
1.01368e-05
-3.72094e-06
1.03518e-05
-3.90001e-06
1.05544e-05
-3.99595e-06
1.0769e-05
-4.16198e-06
1.09666e-05
-4.19666e-06
1.11772e-05
-4.3441e-06
1.13664e-05
-4.30973e-06
1.15701e-05
-4.43464e-06
1.17485e-05
-4.32735e-06
1.19434e-05
-4.42929e-06
1.21093e-05
-4.24814e-06
1.22941e-05
-4.3317e-06
1.24471e-05
-4.07696e-06
1.26205e-05
-4.15237e-06
1.27613e-05
-3.82464e-06
1.29222e-05
-3.90625e-06
1.30526e-05
-3.50876e-06
1.3199e-05
-3.61054e-06
1.33221e-05
-3.1608e-06
1.34514e-05
-3.28572e-06
1.35726e-05
-2.86011e-06
1.36826e-05
-2.98204e-06
1.38095e-05
-2.89812e-06
1.39082e-05
-2.99173e-06
-4.75237e-06
1.43627e-05
2.17251e-05
1.51192e-05
1.75865e-05
1.56356e-05
1.49048e-05
1.59382e-05
1.30967e-05
1.60523e-05
1.18525e-05
1.59977e-05
1.08611e-05
1.5801e-05
9.98601e-06
1.54912e-05
9.16675e-06
1.50985e-05
8.37505e-06
1.46505e-05
7.61838e-06
1.41716e-05
6.89336e-06
1.3681e-05
6.21676e-06
1.31939e-05
5.58201e-06
1.27213e-05
5.00307e-06
1.22709e-05
4.46672e-06
1.18475e-05
3.98472e-06
1.14543e-05
3.53896e-06
1.10925e-05
3.14152e-06
1.07629e-05
2.77114e-06
1.04647e-05
2.44205e-06
1.01976e-05
2.13051e-06
9.96005e-06
1.85405e-06
9.75131e-06
1.58635e-06
9.56965e-06
1.34895e-06
9.41419e-06
1.11252e-06
9.28324e-06
9.03099e-07
9.17598e-06
6.87702e-07
9.09097e-06
4.97442e-07
9.02725e-06
2.94743e-07
8.9836e-06
1.15231e-07
8.95952e-06
-8.04672e-08
8.95375e-06
-2.51752e-07
8.96536e-06
-4.46873e-07
8.99388e-06
-6.16762e-07
9.03789e-06
-8.14844e-07
9.09753e-06
-9.86182e-07
9.1707e-06
-1.18973e-06
9.25833e-06
-1.36502e-06
9.35733e-06
-1.5751e-06
9.46972e-06
-1.75599e-06
9.591e-06
-1.97177e-06
9.72467e-06
-2.15898e-06
9.86436e-06
-2.37715e-06
1.00155e-05
-2.57025e-06
1.01694e-05
-2.78465e-06
1.03339e-05
-2.9819e-06
1.04975e-05
-3.18325e-06
1.0671e-05
-3.38181e-06
1.08397e-05
-3.5578e-06
1.10177e-05
-3.75353e-06
1.1187e-05
-3.89024e-06
1.13653e-05
-4.07833e-06
1.15311e-05
-4.16177e-06
1.17061e-05
-4.33694e-06
1.1865e-05
-4.35556e-06
1.20338e-05
-4.51287e-06
1.21831e-05
-4.45908e-06
1.23438e-05
-4.5953e-06
1.24819e-05
-4.46551e-06
1.26334e-05
-4.58079e-06
1.27598e-05
-4.37449e-06
1.29016e-05
-4.47354e-06
1.30166e-05
-4.19195e-06
1.31485e-05
-4.28426e-06
1.32535e-05
-3.92966e-06
1.3375e-05
-4.02768e-06
1.34723e-05
-3.60612e-06
1.35821e-05
-3.72035e-06
1.36752e-05
-3.25384e-06
1.37714e-05