/*--------------------------------*- C++ -*----------------------------------*\
| =========                 |                                                 |
| \\      /  F ield         | OpenFOAM: The Open Source CFD Toolbox           |
|  \\    /   O peration     | Version:  2.4.0                                 |
|   \\  /    A nd           | Web:      www.OpenFOAM.org                      |
|    \\/     M anipulation  |                                                 |
\*---------------------------------------------------------------------------*/
FoamFile
{
    version     2.0;
    format      ascii;
    class       volScalarField;
    location    "7";
    object      epsilon;
}
// * * * * * * * * * * * * * * * * * * * * * * * * * * * * * * * * * * * * * //

dimensions      [0 2 -3 0 0 0 0];

internalField   nonuniform List<scalar> 
1800
(
70.2366
89.0286
89.4505
86.5127
84.0404
82.6451
82.1
82.1356
82.5889
83.3631
84.3848
85.5933
86.9412
88.3927
89.9204
91.5036
93.1276
94.783
96.4648
98.1715
5.89501
11.8433
15.1975
16.8564
17.581
17.9375
18.1655
18.348
18.5181
18.6922
18.8781
19.0783
19.2933
19.5219
19.7631
20.0155
20.2779
20.5496
20.8301
21.1193
0.178936
0.85951
1.86037
2.77903
3.45537
3.9073
4.20006
4.39043
4.51705
4.60431
4.66745
4.71619
4.75681
4.79338
4.82862
4.8643
4.90165
4.94147
4.98429
5.03039
0.0258744
0.0308672
0.112143
0.274455
0.488085
0.707077
0.896501
1.04343
1.15023
1.22497
1.27598
1.31008
1.33241
1.34676
1.35587
1.36179
1.366
1.36961
1.37341
1.37795
0.0253652
0.00756815
0.00619244
0.0140362
0.0354006
0.0743322
0.128758
0.190932
0.25196
0.305448
0.348543
0.381148
0.404623
0.420777
0.431339
0.437785
0.441319
0.44291
0.443323
0.443138
0.0253601
0.00698514
0.00259516
0.00161004
0.00220759
0.00479237
0.0105993
0.0208194
0.0358046
0.0546585
0.0754784
0.0960672
0.114634
0.13014
0.14227
0.151216
0.157433
0.161467
0.163856
0.165076
0.02536
0.00697868
0.00247085
0.00108089
0.000613298
0.000553673
0.000860964
0.00172384
0.00346755
0.00646508
0.0109975
0.0170984
0.0244729
0.0325466
0.0406219
0.0480625
0.0544265
0.059512
0.0633275
0.0660229
0.02536
0.0069851
0.00247236
0.00106166
0.000531743
0.000309506
0.000226007
0.000240102
0.000372365
0.000689758
0.00129683
0.00232097
0.00388358
0.00605757
0.00882442
0.0120522
0.0155118
0.0189303
0.0220618
0.0247434
0.02536
0.00699216
0.00247864
0.00106531
0.000530631
0.000296707
0.000183425
0.000127445
0.00010712
0.000120684
0.000180993
0.000314911
0.000562288
0.000972075
0.00159325
0.00245997
0.00357427
0.00489392
0.00633545
0.00779661
0.02536
0.00699964
0.00248566
0.00107051
0.000534177
0.000298533
0.000182381
0.000119974
8.48064e-05
6.59276e-05
6.00129e-05
6.89744e-05
9.97825e-05
0.00016481
0.000281458
0.000470007
0.000748749
0.00112659
0.00159603
0.00213265
0.0253599
0.00700739
0.00249307
0.00107617
0.000538323
0.000301553
0.000184494
0.000121077
8.41865e-05
6.16443e-05
4.77428e-05
4.00688e-05
3.83949e-05
4.45045e-05
6.24184e-05
9.85118e-05
0.00016088
0.000257259
0.000391322
0.000559416
0.0253599
0.00701512
0.00250055
0.00108197
0.000542645
0.000304796
0.000186967
0.000122977
8.55856e-05
6.24294e-05
4.74481e-05
3.75304e-05
3.11278e-05
2.77142e-05
2.76687e-05
3.23808e-05
4.43709e-05
6.7033e-05
0.000103357
0.000153758
0.0253598
0.0070225
0.00250774
0.00108759
0.000546883
0.000308009
0.000189452
0.000124942
8.71682e-05
6.37087e-05
4.84362e-05
3.81259e-05
3.10037e-05
2.60965e-05
2.29566e-05
2.15914e-05
2.2529e-05
2.68704e-05
3.60445e-05
5.09093e-05
0.0253597
0.00702919
0.00251428
0.00109274
0.000550783
0.000310985
0.000191766
0.000126781
8.86604e-05
6.49421e-05
4.9469e-05
3.89886e-05
3.16868e-05
2.65129e-05
2.28571e-05
2.04034e-05
1.90952e-05
1.91602e-05
2.11284e-05
2.55343e-05
0.0253596
0.00703485
0.00251982
0.00109712
0.000554108
0.000313526
0.000193743
0.00012835
8.9928e-05
6.59815e-05
5.03311e-05
3.97089e-05
3.22884e-05
2.70043e-05
2.32189e-05
2.05574e-05
1.88254e-05
1.80314e-05
1.83958e-05
2.0213e-05
0.0253595
0.00703924
0.00252411
0.0011005
0.000556682
0.000315495
0.000195277
0.000129568
9.0914e-05
6.67918e-05
5.10045e-05
4.02717e-05
3.27578e-05
2.73901e-05
2.35233e-05
2.07733e-05
1.89314e-05
1.80002e-05
1.8223e-05
2.03352e-05
0.0254336
0.00715851
0.00265837
0.00123718
0.00069115
0.000446487
0.00032303
0.00025496
0.000215013
0.000190626
0.000175455
0.000166034
0.00016034
0.00015713
0.000155623
0.000155384
0.000156283
0.000158611
0.000164293
0.000191145
0.00346507
0.00356866
0.00366514
0.0037564
0.00384316
0.00392567
0.00400402
0.0040782
0.00414809
0.00421346
0.00427387
0.00432866
0.00437672
0.00441637
0.00444469
0.00445658
0.00443961
0.00436705
0.00414781
0.00363742
99.9029
101.659
103.438
105.238
107.057
21.417
21.7231
22.0373
22.3592
22.6884
5.07987
5.13271
5.18882
5.24811
5.31055
1.38352
1.39027
1.39825
1.40751
1.41808
0.442761
0.44245
0.442355
0.44258
0.44322
0.165514
0.165455
0.165092
0.164561
0.163975
0.0678113
0.0689038
0.069472
0.0696458
0.0695348
0.0269128
0.0285841
0.0298046
0.0306274
0.0311106
0.00918775
0.0104499
0.011548
0.0124547
0.0131521
0.00270514
0.00328871
0.00386682
0.00441857
0.0049152
0.000752124
0.000961623
0.00118661
0.00142466
0.00166499
0.000215142
0.000283918
0.000360765
0.000448008
0.000544112
7.05065e-05
9.26418e-05
0.000117475
0.000147025
0.000181984
3.20142e-05
3.90771e-05
4.66976e-05
5.60238e-05
6.78366e-05
2.30233e-05
2.52943e-05
2.71348e-05
2.94318e-05
3.27667e-05
2.3432e-05
2.45079e-05
2.41485e-05
2.3456e-05
2.3122e-05
0.000232744
0.000242441
0.000226834
0.000191918
0.000151336
0.00281946
0.00225833
0.00208261
0.00189579
0.00159484
108.893
110.745
112.612
114.495
116.393
118.311
120.253
122.229
124.264
126.435
129.052
133.204
136.855
151.104
12.6399
23.0246
23.3676
23.7174
24.0744
24.439
24.8126
25.1979
25.6003
26.0317
26.522
27.1484
28.0786
28.7194
26.7965
3.98072
5.37612
5.44482
5.51671
5.59195
5.67085
5.75404
5.84272
5.93926
6.04847
6.1802
6.35169
6.55708
6.49962
5.18366
1.23283
1.43003
1.4434
1.45827
1.47469
1.49284
1.51297
1.53554
1.56139
1.59202
1.62972
1.67515
1.7091
1.62568
1.21684
0.422516
0.444369
0.446107
0.448496
0.451595
0.455479
0.460253
0.466077
0.473194
0.481946
0.492559
0.503547
0.50552
0.467079
0.35277
0.168018
0.163444
0.163062
0.162904
0.163027
0.163482
0.16432
0.165602
0.167395
0.169756
0.172604
0.17507
0.173762
0.15933
0.12545
0.0766658
0.0692442
0.0688719
0.0684981
0.0681829
0.0679728
0.0679067
0.0680187
0.0683382
0.0688803
0.0696038
0.0701634
0.0694302
0.0641903
0.052893
0.0385114
0.0313256
0.0313514
0.0312612
0.0311135
0.0309533
0.0308163
0.0307315
0.0307236
0.0308103
0.0309955
0.0311681
0.0309627
0.0290743
0.0249421
0.0202468
0.0136448
0.0139616
0.0141432
0.0142291
0.0142533
0.0142449
0.0142289
0.0142276
0.0142613
0.0143506
0.014473
0.0145241
0.0139254
0.0124232
0.0107427
0.00533289
0.00566398
0.00591479
0.00609784
0.00622738
0.00631853
0.00638666
0.00644749
0.00651703
0.00661476
0.00674523
0.00688953
0.00679229
0.0063272
0.00566764
0.00189258
0.00209681
0.00227374
0.00242343
0.00254812
0.00265207
0.00274138
0.00282374
0.00290817
0.0030068
0.00312796
0.00327494
0.00334142
0.00326609
0.00297724
0.000643641
0.000741409
0.00083451
0.000921511
0.00100182
0.00107592
0.00114555
0.00121364
0.00128428
0.00136344
0.00145702
0.00157103
0.00166475
0.00171407
0.00157532
0.000220966
0.000262199
0.0003046
0.000347548
0.000390655
0.000433919
0.000477876
0.000523655
0.000572976
0.000628523
0.00069354
0.00077238
0.000850943
0.000924998
0.000852068
8.19683e-05
9.79549e-05
0.000115552
0.00013472
0.00015553
0.000178214
0.000203215
0.000231212
0.000263095
0.000300085
0.000343714
0.00039629
0.000453307
0.000518647
0.000477244
3.7247e-05
4.28192e-05
4.94951e-05
5.73772e-05
6.66739e-05
7.77468e-05
9.11153e-05
0.000107448
0.000127512
0.00015212
0.000182062
0.000218307
0.000259328
0.000310962
0.000281546
2.34454e-05
2.45632e-05
2.65229e-05
2.93835e-05
3.32954e-05
3.85591e-05
4.56545e-05
5.52472e-05
6.81573e-05
8.52814e-05
0.000107457
0.000135399
0.000168927
0.000214584
0.000178304
0.00011505
8.66197e-05
6.57737e-05
5.13328e-05
4.20729e-05
3.70707e-05
3.58392e-05
3.83478e-05
4.4988e-05
5.65155e-05
7.3991e-05
9.87556e-05
0.000132658
0.000190454
0.000123594
0.00125059
0.000926815
0.00065735
0.000452885
0.000306911
0.000206946
0.000140933
9.95052e-05
7.6306e-05
6.76394e-05
7.20607e-05
9.09307e-05
0.000128202
0.000271293
0.000105807
0.00137368
0.0101621
0.00792488
0.00571993
0.00422979
0.00116337
0.103086
0.0752332
0.0466498
0.029012
0.00107171
0.0439344
0.0838458
0.0725754
0.0574277
0.000762565
0.00864483
0.019589
0.033994
0.0367492
0.000360406
0.00272175
0.00570273
0.0102236
0.0130054
0.000177339
0.0011102
0.00208292
0.00352989
0.00440464
9.19504e-05
0.000515807
0.000945295
0.00144525
0.0016396
5.269e-05
0.000261929
0.000438711
0.000609167
0.000635606
3.32873e-05
0.000135943
0.000201785
0.000248629
0.000251962
2.49814e-05
7.37131e-05
9.35002e-05
8.55321e-05
9.42416e-05
2.30559e-05
4.401e-05
4.50759e-05
2.26548e-05
3.09054e-05
2.46705e-05
3.16906e-05
2.34965e-05
1.40635e-05
1.32315e-05
2.90643e-05
3.40314e-05
1.95043e-05
1.79422e-05
1.2485e-05
3.53801e-05
5.02964e-05
2.91294e-05
2.46301e-05
1.49635e-05
4.26043e-05
7.90595e-05
4.371e-05
3.19433e-05
1.75513e-05
5.00638e-05
0.000126529
7.81639e-05
3.94777e-05
2.29344e-05
5.4797e-05
0.000165739
0.000105836
4.56195e-05
3.15247e-05
0.000176842
0.000156418
0.000118138
7.00763e-05
4.3336e-05
0.00322169
0.00244901
0.00182815
0.00133017
0.000942645
0.000653221
0.000445699
0.000302445
0.000207654
0.00014935
0.00011995
0.000118781
0.000152373
0.000318469
0.00054719
0.0173127
0.0105513
0.00660291
0.00422861
0.00275286
0.00180912
0.00119447
0.000791516
0.000528579
0.000360456
0.000258806
0.000209827
0.00021754
0.000324864
0.000602496
0.0358178
0.0223813
0.0140561
0.00889683
0.00569183
0.00368559
0.00241516
0.0016012
0.0010757
0.000736924
0.000522997
0.000396833
0.000345629
0.000361587
0.000428805
0.0313365
0.0242648
0.017607
0.0122838
0.00838398
0.00566456
0.00382221
0.00259407
0.00178249
0.00124967
0.000904045
0.000685353
0.000556978
0.000488603
0.000447836
0.0153723
0.0165126
0.0147377
0.0120011
0.00923755
0.0068612
0.00498993
0.00359693
0.00259899
0.00190372
0.00143009
0.00111467
0.000910298
0.000781602
0.000701573
0.00505107
0.00733576
0.00863552
0.008476
0.00759052
0.00642389
0.00524206
0.00418925
0.0033248
0.00265617
0.00216474
0.0018236
0.00160724
0.00149219
0.00144746
0.00160222
0.00256715
0.00363671
0.00439653
0.00465252
0.00454153
0.00423044
0.00383456
0.00343819
0.00309643
0.00284275
0.00269693
0.00266847
0.0027448
0.00286809
0.00052108
0.000799539
0.00124677
0.00170235
0.00212478
0.00237691
0.00251212
0.00257542
0.00260804
0.002649
0.00273344
0.00288784
0.00311754
0.00338724
0.00361835
0.000162165
0.000204719
0.000339756
0.000484302
0.000678612
0.000845763
0.000991383
0.00112735
0.00126592
0.00142117
0.00160439
0.00181813
0.00204782
0.00226028
0.0024226
5.76871e-05
6.08321e-05
7.62128e-05
0.000105708
0.000139138
0.000176338
0.000212096
0.000248815
0.000288697
0.000333422
0.000383646
0.000438229
0.000495586
0.000556865
0.000626053
2.34606e-05
2.32489e-05
2.25508e-05
2.59961e-05
2.96634e-05
3.27512e-05
3.48533e-05
3.65641e-05
3.83538e-05
4.03356e-05
4.36543e-05
4.89664e-05
5.59866e-05
6.57922e-05
7.94858e-05
1.26375e-05
1.22944e-05
1.16437e-05
1.17105e-05
1.1899e-05
1.2004e-05
1.19465e-05
1.18049e-05
1.16747e-05
1.16202e-05
1.17653e-05
1.21934e-05
1.29288e-05
1.40626e-05
1.57035e-05
1.07353e-05
1.01914e-05
9.55251e-06
9.318e-06
9.1695e-06
9.04273e-06
8.91047e-06
8.78136e-06
8.67591e-06
8.6139e-06
8.61463e-06
8.68875e-06
8.83689e-06
9.05737e-06
9.34709e-06
1.09584e-05
9.78704e-06
9.06924e-06
8.832e-06
8.68387e-06
8.55545e-06
8.44474e-06
8.35128e-06
8.27479e-06
8.2212e-06
8.19835e-06
8.21054e-06
8.25731e-06
8.33482e-06
8.43714e-06
1.12016e-05
9.43148e-06
8.81853e-06
8.60947e-06
8.49836e-06
8.40912e-06
8.34027e-06
8.2862e-06
8.24031e-06
8.20372e-06
8.18094e-06
8.17466e-06
8.18552e-06
8.21335e-06
8.25711e-06
1.34876e-05
1.00694e-05
9.08204e-06
8.78345e-06
8.67201e-06
8.60911e-06
8.56731e-06
8.53696e-06
8.50954e-06
8.48477e-06
8.46643e-06
8.45684e-06
8.45689e-06
8.46734e-06
8.48853e-06
2.12398e-05
1.5456e-05
1.38215e-05
1.37416e-05
1.35897e-05
1.35663e-05
1.36043e-05
1.36858e-05
1.37839e-05
1.38883e-05
1.4001e-05
1.41232e-05
1.42544e-05
1.43935e-05
1.45398e-05
4.34818e-05
4.13723e-05
4.03883e-05
4.18961e-05
4.28603e-05
4.41229e-05
4.5655e-05
4.73183e-05
4.90337e-05
5.07972e-05
5.26174e-05
5.44892e-05
5.64052e-05
5.83638e-05
6.03636e-05
0.000510835
0.000581078
0.000644243
0.000697464
0.000745908
0.000790421
0.000829206
0.00086243
0.000892766
0.000926052
0.000999431
0.00107638
0.00117066
0.00129621
0.00147956
0.0016364
0.00172958
0.00187617
0.00259494
0.00571708
0.00684984
0.00733283
0.00739598
0.00722835
0.00691525
0.00651459
0.00607667
0.00564233
0.00524184
0.00489509
0.00461426
0.00440218
0.00425959
0.00417464
0.0041195
0.00387644
0.00428603
0.00361509
0.00326556
0.00304616
0.000634516
0.000675387
0.000785157
0.000958101
0.00119886
0.0015236
0.00195469
0.0025036
0.00315883
0.00392381
0.00533496
0.00673272
0.00810115
0.00950903
0.0109458
0.0117274
0.0123017
0.0139622
0.0176055
0.0188919
0.01799
0.0168312
0.0155055
0.0140449
0.0125159
0.0109952
0.00954843
0.00822196
0.0070427
0.00601989
0.00515028
0.00441418
0.00379271
0.00323239
0.00276323
0.00182078
0.00213742
0.00213752
0.00232374
0.0023548
0.00040909
0.000384452
0.000384992
0.00040836
0.000447673
0.000503932
0.000583191
0.00068913
0.000819552
0.000979394
0.00137326
0.00174716
0.0021255
0.00256174
0.00313082
0.00406005
0.00518145
0.00636414
0.00751297
0.00842599
0.00839131
0.00820275
0.00784509
0.00734031
0.00672113
0.00602999
0.00531103
0.00460268
0.00393386
0.003323
0.00277841
0.00230078
0.00188477
0.00153167
0.00124326
0.000775063
0.00101635
0.000948812
0.000877553
0.00079042
0.000407056
0.000371909
0.000343205
0.000322026
0.00030803
0.000300878
0.000301187
0.000309276
0.000324325
0.00034703
0.000426097
0.000504479
0.000586502
0.000686822
0.000835262
0.00115925
0.00164814
0.00213194
0.00239157
0.00231093
0.0022163
0.00211131
0.0019852
0.00184076
0.00167969
0.00150526
0.00132318
0.00114053
0.0009645
0.000801275
0.000655405
0.000529939
0.000426508
0.000346998
0.000290259
0.0002165
0.000375719
0.000374096
0.000344915
0.000316881
0.000645516
0.000591726
0.000533323
0.00047803
0.000430502
0.000390562
0.000357356
0.000330466
0.000309406
0.000293094
0.000284059
0.000283286
0.000287828
0.000299055
0.000323883
0.000402567
0.000550476
0.000705284
0.000767817
0.000685339
0.000620958
0.000556122
0.000491791
0.000430335
0.000373109
0.000320811
0.000273899
0.000232687
0.000197431
0.000168334
0.000145567
0.000129278
0.000119461
0.000115659
0.000116339
0.000121727
0.000174458
0.000181271
0.000174264
0.000167936
0.00142147
0.0013633
0.00126561
0.00115502
0.00104836
0.000948038
0.000854104
0.000768348
0.000692405
0.000623554
0.000535648
0.000473951
0.000426118
0.000385849
0.000351141
0.000333554
0.000343201
0.000363995
0.000362477
0.000320613
0.000289529
0.000259241
0.000230581
0.00020423
0.000180739
0.000160529
0.000143865
0.000130912
0.000121722
0.00011627
0.000114393
0.000115747
0.00011973
0.000125026
0.00013054
0.0001304
0.000139466
0.000140266
0.000136483
0.000133017
0.00294202
0.00289803
0.00275418
0.00256939
0.00237535
0.00217794
0.00198053
0.00179068
0.00161482
0.0014481
0.00122937
0.00106834
0.000937009
0.000820083
0.000709812
0.000610873
0.000530348
0.000465791
0.000406697
0.000349329
0.000318738
0.000288172
0.000260104
0.000235712
0.000215389
0.000199117
0.000186606
0.000177393
0.000170757
0.00016586
0.000161744
0.000157613
0.000153056
0.000147592
0.000141985
0.000121542
0.000121786
0.000117156
0.000110045
0.000104167
0.00373403
0.00371267
0.00359732
0.00343912
0.00325868
0.0030587
0.00284404
0.00262514
0.00241078
0.00219599
0.00191515
0.00169681
0.00150908
0.00133527
0.00116729
0.00101109
0.000870294
0.000744492
0.000631989
0.000539769
0.000492956
0.000446967
0.000405747
0.000368733
0.000335546
0.000305906
0.000279095
0.000253801
0.000229045
0.000204456
0.000180375
0.000157742
0.000137633
0.000120486
0.000106925
8.36245e-05
8.59262e-05
8.12417e-05
7.46155e-05
6.96745e-05
0.00252695
0.00258306
0.002605
0.00260012
0.00256754
0.00250586
0.00241797
0.00231031
0.00218854
0.00204993
0.00187012
0.00171461
0.00156728
0.00142171
0.00127611
0.00114268
0.00101753
0.000893459
0.000770879
0.000663481
0.000601451
0.000537231
0.000475977
0.000417832
0.000362881
0.000311233
0.000263286
0.000220036
0.00018125
0.000147312
0.000119034
9.67385e-05
8.00397e-05
6.79259e-05
5.95222e-05
4.79814e-05
5.16678e-05
4.98563e-05
4.67817e-05
4.46499e-05
0.000706795
0.000794311
0.000878193
0.000950662
0.00100868
0.00105195
0.00108021
0.00109277
0.00108957
0.00106853
0.0010456
0.00100868
0.00095943
0.00090222
0.000840985
0.000793408
0.000748623
0.000688432
0.000608774
0.000520841
0.000460391
0.000397
0.000336417
0.000280109
0.000228978
0.000183742
0.000144889
0.000112586
8.7603e-05
6.8583e-05
5.48579e-05
4.54416e-05
3.92702e-05
3.53009e-05
3.28261e-05
2.9367e-05
3.1987e-05
3.19378e-05
3.12602e-05
3.08031e-05
9.80193e-05
0.000120981
0.000146446
0.000172669
0.000198933
0.000224869
0.000249556
0.000271451
0.000289472
0.000302043
0.00032268
0.000331456
0.000331783
0.000327503
0.000320927
0.000325309
0.000332059
0.000323309
0.000292458
0.000245493
0.000211343
0.000177105
0.000145776
0.000118
9.4011e-05
7.3936e-05
5.77215e-05
4.51071e-05
3.58731e-05
2.97894e-05
2.60304e-05
2.38849e-05
2.2777e-05
2.22203e-05
2.19602e-05
2.11033e-05
2.2561e-05
2.29407e-05
2.29973e-05
2.29853e-05
1.79939e-05
2.09989e-05
2.46465e-05
2.8856e-05
3.36186e-05
3.89235e-05
4.46415e-05
5.04819e-05
5.61739e-05
6.12995e-05
6.93943e-05
7.49593e-05
7.86868e-05
8.1474e-05
8.3813e-05
9.05661e-05
9.92969e-05
0.000102184
9.50946e-05
7.97389e-05
6.90816e-05
5.84829e-05
4.88959e-05
4.05104e-05
3.34095e-05
2.76559e-05
2.32389e-05
2.00697e-05
1.80164e-05
1.69566e-05
1.65572e-05
1.65482e-05
1.67068e-05
1.6852e-05
1.69512e-05
1.65668e-05
1.737e-05
1.7662e-05
1.77516e-05
1.77427e-05
9.71091e-06
1.0154e-05
1.06766e-05
1.12835e-05
1.19865e-05
1.27952e-05
1.37042e-05
1.46873e-05
1.57083e-05
1.67234e-05
1.83289e-05
1.96208e-05
2.06918e-05
2.16726e-05
2.2665e-05
2.47254e-05
2.7527e-05
2.91583e-05
2.81771e-05
2.47677e-05
2.25235e-05
2.02296e-05
1.81485e-05
1.63653e-05
1.49306e-05
1.38767e-05
1.31973e-05
1.28443e-05
1.27892e-05
1.29274e-05
1.31651e-05
1.34158e-05
1.36062e-05
1.36857e-05
1.36965e-05
1.33776e-05
1.38185e-05
1.39673e-05
1.39943e-05
1.39597e-05
8.55931e-06
8.6969e-06
8.84588e-06
9.00359e-06
9.16817e-06
9.33777e-06
9.5093e-06
9.6795e-06
9.84324e-06
1.00022e-05
1.0237e-05
1.04261e-05
1.05921e-05
1.0752e-05
1.09336e-05
1.13089e-05
1.18516e-05
1.22404e-05
1.2155e-05
1.16036e-05
1.1272e-05
1.09409e-05
1.0671e-05
1.04885e-05
1.04036e-05
1.04164e-05
1.05095e-05
1.06602e-05
1.08598e-05
1.10646e-05
1.12443e-05
1.1369e-05
1.1421e-05
1.13936e-05
1.13335e-05
1.11096e-05
1.13143e-05
1.13629e-05
1.13517e-05
1.13101e-05
8.31531e-06
8.38577e-06
8.46554e-06
8.55115e-06
8.6385e-06
8.72324e-06
8.80102e-06
8.86846e-06
8.92257e-06
8.96508e-06
9.0051e-06
9.02381e-06
9.03153e-06
9.03107e-06
9.03143e-06
9.05443e-06
9.10088e-06
9.13796e-06
9.12107e-06
9.06031e-06
9.04246e-06
9.03886e-06
9.06205e-06
9.11761e-06
9.20217e-06
9.30727e-06
9.42965e-06
9.57056e-06
9.72273e-06
9.87625e-06
1.00139e-05
1.01141e-05
1.01633e-05
1.0151e-05
1.00925e-05
1.01466e-05
1.01052e-05
1.00235e-05
9.93476e-06
9.84437e-06
8.52027e-06
8.56179e-06
8.61165e-06
8.6678e-06
8.7276e-06
8.78806e-06
8.84607e-06
8.8989e-06
8.94396e-06
8.98094e-06
9.01061e-06
9.02589e-06
9.03127e-06
9.02731e-06
9.01708e-06
8.99824e-06
8.97083e-06
8.9413e-06
8.91616e-06
8.91253e-06
8.92735e-06
8.95951e-06
9.01292e-06
9.09038e-06
9.20553e-06
9.39647e-06
9.67632e-06
1.00621e-05
1.05659e-05
1.11967e-05
1.18943e-05
1.25702e-05
1.31456e-05
1.35538e-05
1.37484e-05
1.49522e-05
1.43621e-05
1.40205e-05
1.38154e-05
1.36654e-05
1.46921e-05
1.48498e-05
1.50127e-05
1.51799e-05
1.53504e-05
1.55232e-05
1.56973e-05
1.58722e-05
1.60471e-05
1.62213e-05
1.63879e-05
1.65627e-05
1.67412e-05
1.69226e-05
1.71078e-05
1.72434e-05
1.73305e-05
1.74437e-05
1.76899e-05
1.82216e-05
1.87614e-05
1.9413e-05
2.0188e-05
2.11689e-05
2.25578e-05
2.43801e-05
2.66934e-05
2.95231e-05
3.28139e-05
3.64079e-05
3.9988e-05
4.32641e-05
4.6056e-05
4.83014e-05
5.00805e-05
5.34364e-05
5.24148e-05
5.20428e-05
5.20409e-05
5.21652e-05
6.23929e-05
6.44601e-05
6.6572e-05
6.87251e-05
7.09194e-05
7.31569e-05
7.54418e-05
7.7778e-05
8.01747e-05
8.26031e-05
8.47878e-05
8.75707e-05
9.03088e-05
9.30381e-05
9.58088e-05
9.82829e-05
0.000100224
0.000102275
0.000105572
0.00011131
0.000117879
0.00012365
0.000130091
0.000137166
0.000144604
0.000152259
0.000159926
0.000167327
0.00017415
0.000180094
0.000184931
0.000188569
0.000191064
0.000192578
0.000193361
0.000192487
0.000190488
0.000185369
0.00018399
0.000184326
)
;

boundaryField
{
    inlet
    {
        type            fixedValue;
        value           uniform 0.127;
    }
    outlet
    {
        type            zeroGradient;
    }
    centerline
    {
        type            symmetry;
    }
    fixedWalls
    {
        Cmu             0.09;
        kappa           0.41;
        E               9.8;
        type            epsilonWallFunction;
        value           nonuniform List<scalar> 
156
(
0.00346507
0.00356866
0.00366514
0.0037564
0.00384316
0.00392567
0.00400402
0.0040782
0.00414809
0.00421346
0.00427387
0.00432866
0.00437672
0.00441637
0.00444469
0.00445658
0.00443961
0.00436705
0.00414781
0.00363742
0.00137368
0.00116337
0.00107171
0.000762565
0.000360406
0.000177339
9.19504e-05
5.269e-05
3.32873e-05
2.49814e-05
2.30559e-05
2.46705e-05
2.90643e-05
3.53801e-05
4.26043e-05
5.00638e-05
5.4797e-05
0.000176842
0.000176842
0.000156418
0.000118138
7.00763e-05
4.3336e-05
4.34818e-05
4.13723e-05
4.03883e-05
4.18961e-05
4.28603e-05
4.41229e-05
4.5655e-05
4.73183e-05
4.90337e-05
5.07972e-05
5.26174e-05
5.44892e-05
5.64052e-05
5.83638e-05
6.03636e-05
6.23929e-05
6.44601e-05
6.6572e-05
6.87251e-05
7.09194e-05
7.31569e-05
7.54418e-05
7.7778e-05
8.01747e-05
8.26031e-05
8.47878e-05
8.75707e-05
9.03088e-05
9.30381e-05
9.58088e-05
9.82829e-05
0.000100224
0.000102275
0.000105572
0.00011131
0.000117879
0.00012365
0.000130091
0.000137166
0.000144604
0.000152259
0.000159926
0.000167327
0.00017415
0.000180094
0.000184931
0.000188569
0.000191064
0.000192578
0.000193361
0.000192487
0.000190488
0.000185369
0.00018399
0.000184326
0.000510835
0.000581078
0.000644243
0.000697464
0.000745908
0.000790421
0.000829206
0.00086243
0.000892766
0.000926052
0.000999431
0.00107638
0.00117066
0.00129621
0.00147956
0.0016364
0.00172958
0.00187617
0.00259494
0.00571708
0.00684984
0.00733283
0.00739598
0.00722835
0.00691525
0.00651459
0.00607667
0.00564233
0.00524184
0.00489509
0.00461426
0.00440218
0.00425959
0.00417464
0.0041195
0.00387644
0.00428603
0.00361509
0.00326556
0.00304616
12.6399
3.98072
1.23283
0.422516
0.168018
0.0766658
0.0385114
0.0202468
0.0107427
0.00566764
0.00297724
0.00157532
0.000852068
0.000477244
0.000281546
0.000178304
0.000123594
0.000105807
)
;
    }
    frontAndBack
    {
        type            empty;
    }
}


// ************************************************************************* //
