/*--------------------------------*- C++ -*----------------------------------*\
| =========                 |                                                 |
| \\      /  F ield         | OpenFOAM: The Open Source CFD Toolbox           |
|  \\    /   O peration     | Version:  2.4.0                                 |
|   \\  /    A nd           | Web:      www.OpenFOAM.org                      |
|    \\/     M anipulation  |                                                 |
\*---------------------------------------------------------------------------*/
FoamFile
{
    version     2.0;
    format      ascii;
    class       volScalarField;
    location    "0.65";
    object      p;
}
// * * * * * * * * * * * * * * * * * * * * * * * * * * * * * * * * * * * * * //

dimensions      [0 2 -2 0 0 0 0];

internalField   nonuniform List<scalar> 
6000
(
0.048634
0.277429
0.274333
0.298441
0.305078
0.312642
0.3098
0.303485
0.30103
0.314316
0.342731
0.378572
0.41276
0.441082
0.463023
0.479997
0.493599
0.505042
0.514938
0.523458
0.530568
0.536243
0.540583
0.543794
0.546113
0.547735
0.548797
0.549392
0.54958
0.549404
0.548897
0.548077
0.546956
0.545537
0.543818
0.541791
0.539441
0.536749
0.533689
0.530228
0.526328
0.521939
0.517002
0.511446
0.505183
0.498108
0.490084
0.480967
0.470514
0.458567
0.444584
0.428637
0.409096
0.387635
0.357993
0.330336
0.277717
0.250851
0.1314
0.146322
0.0636554
0.275638
0.274374
0.298277
0.304976
0.312629
0.309963
0.303695
0.301064
0.314029
0.342116
0.37789
0.412156
0.440599
0.462653
0.479709
0.49337
0.504857
0.514786
0.523337
0.530476
0.536176
0.540535
0.543761
0.546089
0.547717
0.548784
0.54938
0.549569
0.549394
0.548885
0.548063
0.546939
0.545517
0.543794
0.541761
0.539405
0.536705
0.533636
0.530166
0.526253
0.521851
0.516898
0.511325
0.505041
0.497945
0.489896
0.480751
0.470265
0.458277
0.444252
0.428247
0.408652
0.387095
0.357402
0.329541
0.276953
0.249536
0.130509
0.14398
0.0775107
0.273559
0.274466
0.298146
0.304896
0.312648
0.310151
0.303906
0.301044
0.313653
0.341514
0.377231
0.411583
0.440151
0.462314
0.479446
0.49316
0.504683
0.514642
0.523223
0.53039
0.536115
0.540492
0.54373
0.546065
0.547698
0.548767
0.549365
0.549554
0.549379
0.548868
0.548044
0.546917
0.545492
0.543764
0.541727
0.539365
0.536658
0.533582
0.530103
0.526182
0.521768
0.516804
0.511217
0.504918
0.497803
0.489733
0.480562
0.470047
0.458025
0.44396
0.427904
0.408255
0.386615
0.356856
0.328832
0.27621
0.248372
0.129526
0.141891
0.0890022
0.271381
0.274602
0.29804
0.304843
0.312696
0.310349
0.304077
0.300931
0.313178
0.340848
0.376572
0.411048
0.439753
0.46202
0.479218
0.492974
0.504525
0.514512
0.523121
0.530316
0.536062
0.540455
0.543701
0.546042
0.547677
0.548748
0.549346
0.549535
0.549358
0.548846
0.548019
0.546889
0.54546
0.543728
0.541686
0.539318
0.536606
0.533522
0.530036
0.526105
0.521681
0.516705
0.511105
0.504791
0.497658
0.489568
0.480374
0.469831
0.457777
0.443675
0.427572
0.407871
0.386156
0.356335
0.328164
0.275504
0.247297
0.128581
0.140124
0.0990258
0.26921
0.274757
0.297958
0.304814
0.31277
0.310559
0.304205
0.300716
0.31259
0.340097
0.375885
0.410526
0.439384
0.461755
0.479011
0.492799
0.504374
0.514386
0.523024
0.530246
0.536014
0.540419
0.543672
0.546015
0.547651
0.548722
0.54932
0.549507
0.549328
0.548814
0.547984
0.546851
0.545418
0.543682
0.541635
0.539262
0.536543
0.533453
0.529958
0.526018
0.521584
0.516597
0.510983
0.504654
0.497504
0.489394
0.480177
0.469608
0.457522
0.443383
0.427234
0.407486
0.385696
0.355817
0.327502
0.27481
0.246248
0.127674
0.138558
0.108146
0.267116
0.27492
0.2979
0.304808
0.312869
0.310782
0.304293
0.300401
0.311885
0.33926
0.375157
0.409999
0.439028
0.461503
0.478812
0.492626
0.504221
0.514257
0.522924
0.530173
0.535962
0.54038
0.543638
0.545982
0.547617
0.548687
0.549283
0.549469
0.549288
0.548771
0.547938
0.546801
0.545364
0.543624
0.541571
0.539193
0.536468
0.53337
0.529867
0.525919
0.521475
0.516476
0.51085
0.504505
0.497339
0.489209
0.479969
0.469374
0.457257
0.443083
0.426889
0.407093
0.38523
0.355296
0.326837
0.274121
0.245207
0.126795
0.137125
0.116533
0.265143
0.275085
0.29786
0.304825
0.312989
0.311016
0.304341
0.29999
0.31107
0.33834
0.374386
0.40946
0.438674
0.461258
0.478613
0.492447
0.504059
0.514119
0.522815
0.530094
0.535905
0.540334
0.543595
0.545939
0.547572
0.54864
0.549235
0.549418
0.549235
0.548715
0.547879
0.546738
0.545297
0.543552
0.541495
0.539111
0.536379
0.533275
0.529764
0.525807
0.521353
0.516343
0.510704
0.504345
0.497162
0.489013
0.479751
0.469131
0.456983
0.442774
0.426535
0.406694
0.384757
0.354772
0.32617
0.273436
0.244174
0.125945
0.135804
0.124275
0.263315
0.275255
0.297831
0.304862
0.313129
0.311258
0.304348
0.299492
0.310158
0.337346
0.373574
0.408907
0.438321
0.461012
0.478409
0.492258
0.503884
0.513967
0.522695
0.530004
0.535838
0.540278
0.543543
0.545885
0.547516
0.548582
0.549174
0.549355
0.549169
0.548646
0.547806
0.546662
0.545217
0.543468
0.541405
0.539016
0.536278
0.533167
0.529649
0.525683
0.521219
0.516198
0.510547
0.504174
0.496974
0.488807
0.479523
0.468878
0.4567
0.442457
0.426174
0.406288
0.38428
0.354245
0.325501
0.272754
0.243152
0.125125
0.134584
0.13147
0.261647
0.275427
0.297809
0.304918
0.313283
0.311502
0.304317
0.298918
0.309163
0.336289
0.372727
0.408341
0.437967
0.460763
0.478196
0.492056
0.503693
0.513799
0.522559
0.529902
0.535759
0.540212
0.543479
0.54582
0.547449
0.548512
0.549102
0.54928
0.549091
0.548565
0.547722
0.546574
0.545125
0.543371
0.541304
0.538909
0.536166
0.533048
0.529522
0.525548
0.521075
0.516043
0.510379
0.503993
0.496777
0.488591
0.479286
0.468617
0.456409
0.442134
0.425807
0.405878
0.383799
0.353716
0.324833
0.272078
0.242144
0.124337
0.133452
0.138213
0.260145
0.275602
0.297792
0.304992
0.313442
0.311743
0.30425
0.298282
0.308103
0.335182
0.371853
0.407767
0.437612
0.46051
0.477975
0.491841
0.503485
0.513613
0.522407
0.529784
0.535667
0.540134
0.543405
0.545745
0.547371
0.548431
0.549018
0.549194
0.549002
0.548473
0.547627
0.546476
0.545023
0.543265
0.541193
0.538792
0.536043
0.532919
0.529386
0.525403
0.520921
0.515879
0.510203
0.503803
0.496572
0.488368
0.479042
0.468348
0.456112
0.441804
0.425435
0.405464
0.383315
0.353187
0.324167
0.271408
0.241151
0.123579
0.1324
0.144584
0.258814
0.275776
0.297776
0.305077
0.313601
0.311975
0.304152
0.297599
0.306993
0.33404
0.370963
0.407191
0.437257
0.460253
0.477745
0.491611
0.50326
0.513409
0.522238
0.529652
0.535563
0.540045
0.543321
0.54566
0.547283
0.548341
0.548925
0.549099
0.548904
0.548372
0.547523
0.546368
0.544912
0.543149
0.541073
0.538668
0.535913
0.532782
0.529242
0.525251
0.52076
0.515708
0.51002
0.503607
0.49636
0.488139
0.478793
0.468075
0.45581
0.441471
0.42506
0.405048
0.382831
0.352658
0.323505
0.270744
0.240176
0.12285
0.131417
0.150643
0.257657
0.275948
0.297759
0.305171
0.313754
0.312193
0.304026
0.296882
0.305853
0.33288
0.370065
0.406617
0.436904
0.459995
0.477508
0.491369
0.503018
0.513187
0.522051
0.529505
0.535447
0.539946
0.543228
0.545567
0.547188
0.548242
0.548825
0.548995
0.548798
0.548264
0.547412
0.546254
0.544794
0.543028
0.540947
0.538537
0.535776
0.532639
0.529092
0.525094
0.520594
0.515531
0.509833
0.503406
0.496145
0.487906
0.47854
0.467799
0.455507
0.441136
0.424684
0.404632
0.382349
0.352132
0.322849
0.270087
0.239221
0.122149
0.130496
0.156434
0.256676
0.276118
0.29774
0.305269
0.313895
0.312387
0.303876
0.296145
0.3047
0.331715
0.369169
0.406049
0.436554
0.459738
0.477267
0.491118
0.502762
0.512948
0.521848
0.529344
0.53532
0.539838
0.543127
0.545467
0.547086
0.548138
0.548718
0.548886
0.548687
0.54815
0.547295
0.546135
0.544671
0.542901
0.540816
0.538401
0.535636
0.532493
0.528939
0.524933
0.520425
0.515352
0.509642
0.503203
0.495927
0.487671
0.478285
0.467522
0.455202
0.440801
0.424309
0.404217
0.381869
0.351609
0.3222
0.269439
0.238288
0.121474
0.12963
0.161996
0.255869
0.276287
0.297718
0.305369
0.314019
0.312549
0.303707
0.295403
0.303551
0.330559
0.368287
0.405491
0.436211
0.459484
0.477024
0.490859
0.502494
0.512694
0.521631
0.529171
0.535183
0.539722
0.543021
0.545362
0.54698
0.548029
0.548607
0.548773
0.548572
0.548032
0.547175
0.546012
0.544545
0.542772
0.540683
0.538264
0.535493
0.532344
0.528784
0.524771
0.520254
0.515172
0.509451
0.502999
0.495708
0.487436
0.478031
0.467245
0.454898
0.440468
0.423937
0.403805
0.381393
0.351092
0.321561
0.2688
0.237378
0.120823
0.128815
0.167356
0.255235
0.276456
0.297692
0.305467
0.314121
0.312672
0.303522
0.294668
0.302422
0.32943
0.367427
0.404949
0.435878
0.459235
0.476782
0.490596
0.502216
0.512428
0.521401
0.528987
0.535038
0.539602
0.54291
0.545254
0.54687
0.547918
0.548493
0.548658
0.548454
0.547912
0.547053
0.545887
0.544417
0.542641
0.540548
0.538125
0.535349
0.532195
0.528628
0.524608
0.520083
0.514991
0.50926
0.502795
0.495491
0.487203
0.477778
0.466971
0.454597
0.440137
0.423568
0.403398
0.380924
0.350581
0.320932
0.268171
0.236491
0.120194
0.128045
0.172534
0.25477
0.276631
0.297663
0.30556
0.314198
0.312756
0.303321
0.293956
0.301331
0.328351
0.366595
0.404429
0.435557
0.458994
0.476544
0.49033
0.501931
0.512149
0.521158
0.528793
0.534887
0.539477
0.542797
0.545144
0.54676
0.547806
0.548378
0.548541
0.548335
0.547791
0.54693
0.545761
0.544289
0.54251
0.540413
0.537986
0.535205
0.532046
0.528473
0.524446
0.519913
0.514812
0.50907
0.502594
0.495276
0.486972
0.477529
0.4667
0.454301
0.439812
0.423205
0.402997
0.380462
0.350079
0.320315
0.267554
0.23563
0.119586
0.127316
0.177548
0.254469
0.276815
0.297631
0.305647
0.314245
0.312802
0.303096
0.293282
0.300324
0.327303
0.36581
0.403937
0.435252
0.458762
0.47631
0.490065
0.50164
0.511862
0.520906
0.528591
0.534731
0.53935
0.542684
0.545034
0.54665
0.547693
0.548264
0.548424
0.548216
0.547671
0.546807
0.545636
0.544161
0.542379
0.540279
0.537848
0.535063
0.531898
0.52832
0.524286
0.519745
0.514636
0.508884
0.502396
0.495064
0.486745
0.477283
0.466434
0.45401
0.439493
0.422849
0.402604
0.38001
0.349586
0.319712
0.266949
0.234794
0.118999
0.126624
0.182409
0.254326
0.277015
0.297599
0.305725
0.314261
0.312808
0.30286
0.29265
0.299389
0.32634
0.365086
0.403481
0.434966
0.458543
0.476084
0.489803
0.501347
0.511568
0.520645
0.528383
0.534571
0.539222
0.54257
0.544925
0.54654
0.547582
0.54815
0.548308
0.548098
0.547551
0.546685
0.545512
0.544035
0.54225
0.540147
0.537712
0.534923
0.531753
0.528169
0.524128
0.51958
0.514463
0.508701
0.502202
0.494857
0.486522
0.477044
0.466174
0.453725
0.43918
0.422501
0.402219
0.379568
0.349104
0.319124
0.266358
0.233985
0.118432
0.125968
0.187128
0.254333
0.277235
0.297568
0.305794
0.314246
0.312773
0.302617
0.29207
0.298548
0.325477
0.364433
0.403066
0.434702
0.458336
0.475868
0.489546
0.501054
0.511269
0.520377
0.528169
0.534409
0.539094
0.542459
0.544819
0.546433
0.547473
0.548038
0.548194
0.547982
0.547433
0.546566
0.545391
0.543911
0.542123
0.540017
0.537578
0.534785
0.53161
0.528021
0.523974
0.519419
0.514293
0.508522
0.502012
0.494654
0.486305
0.476809
0.46592
0.453448
0.438876
0.422161
0.401845
0.379138
0.348635
0.318552
0.265782
0.233204
0.117886
0.125345
0.191713
0.254484
0.277481
0.297543
0.305855
0.3142
0.312699
0.302372
0.291555
0.297817
0.32473
0.363865
0.402699
0.434463
0.458144
0.475663
0.489297
0.500764
0.510967
0.520104
0.527951
0.534246
0.538969
0.542351
0.544715
0.54633
0.547367
0.54793
0.548083
0.547869
0.547318
0.546448
0.545271
0.543789
0.541998
0.539889
0.537447
0.53465
0.531471
0.527876
0.523823
0.519261
0.514127
0.508347
0.501827
0.494457
0.486094
0.476581
0.465673
0.453178
0.43858
0.421832
0.401481
0.37872
0.348179
0.317997
0.265223
0.232451
0.11736
0.124753
0.19617
0.254767
0.277759
0.297527
0.305908
0.314126
0.312591
0.302132
0.291119
0.297215
0.324115
0.363391
0.402386
0.43425
0.457967
0.475469
0.489058
0.500479
0.510665
0.519827
0.527729
0.534083
0.538845
0.542246
0.544616
0.54623
0.547264
0.547824
0.547974
0.547758
0.547205
0.546334
0.545154
0.54367
0.541877
0.539765
0.537319
0.534519
0.531335
0.527735
0.523677
0.519108
0.513966
0.508177
0.501646
0.494265
0.485888
0.47636
0.465433
0.452915
0.438293
0.421512
0.401128
0.378315
0.347737
0.31746
0.264682
0.231726
0.116856
0.124191
0.200506
0.255176
0.27807
0.297525
0.305956
0.314028
0.312454
0.301907
0.290775
0.296755
0.323644
0.363021
0.402131
0.434065
0.457806
0.475288
0.48883
0.500202
0.510366
0.519548
0.527506
0.533921
0.538726
0.542147
0.544522
0.546135
0.547166
0.547722
0.54787
0.547651
0.547096
0.546222
0.545041
0.543554
0.541759
0.539644
0.537195
0.534391
0.531203
0.527598
0.523534
0.518959
0.51381
0.508012
0.501472
0.494079
0.485689
0.476145
0.465201
0.452662
0.438015
0.421202
0.400786
0.377923
0.347309
0.316941
0.26416
0.23103
0.116375
0.123658
0.204725
0.255701
0.278419
0.29754
0.306002
0.313911
0.312296
0.301705
0.290534
0.296451
0.32333
0.362763
0.401938
0.43391
0.457661
0.475121
0.488615
0.499935
0.510072
0.51927
0.527281
0.533759
0.53861
0.542053
0.544434
0.546045
0.547072
0.547625
0.547769
0.547547
0.54699
0.546114
0.544931
0.543442
0.541644
0.539527
0.537075
0.534267
0.531075
0.527466
0.523396
0.518814
0.513658
0.507852
0.501302
0.493899
0.485496
0.475938
0.464976
0.452416
0.437746
0.420903
0.400456
0.377544
0.346895
0.316441
0.263655
0.230363
0.115916
0.123153
0.208833
0.256332
0.278806
0.297578
0.306051
0.313783
0.312128
0.301539
0.290409
0.296316
0.323183
0.362624
0.401809
0.433785
0.457531
0.474966
0.488413
0.499679
0.509784
0.518995
0.527058
0.5336
0.538499
0.541965
0.544351
0.54596
0.546984
0.547532
0.547672
0.547448
0.546888
0.54601
0.544825
0.543334
0.541533
0.539413
0.536958
0.534147
0.530951
0.527337
0.523262
0.518675
0.513512
0.507698
0.501139
0.493724
0.48531
0.475737
0.464758
0.452178
0.437486
0.420614
0.400137
0.377179
0.346497
0.315959
0.26317
0.229725
0.115479
0.122674
0.212834
0.257062
0.279234
0.297641
0.306106
0.313649
0.31196
0.301421
0.290414
0.296361
0.32321
0.362607
0.401748
0.43369
0.457417
0.474823
0.488225
0.499437
0.509506
0.518724
0.526836
0.533444
0.538393
0.541883
0.544275
0.545882
0.5469
0.547443
0.547579
0.547352
0.546789
0.545909
0.544722
0.543229
0.541426
0.539304
0.536846
0.534031
0.530831
0.527213
0.523133
0.51854
0.51337
0.507548
0.500981
0.493556
0.48513
0.475543
0.464549
0.451949
0.437235
0.420335
0.399829
0.376827
0.346113
0.315496
0.262704
0.229114
0.115064
0.12222
0.216733
0.257882
0.279702
0.297732
0.306173
0.31352
0.311804
0.301365
0.290558
0.296594
0.323418
0.362716
0.401753
0.433624
0.457316
0.474692
0.488051
0.49921
0.50924
0.518459
0.526618
0.533292
0.538293
0.541808
0.544206
0.545809
0.546822
0.547359
0.547491
0.54726
0.546695
0.545813
0.544623
0.543128
0.541323
0.539198
0.536737
0.533919
0.530716
0.527093
0.523008
0.51841
0.513234
0.507405
0.500828
0.493394
0.484956
0.475356
0.464347
0.451729
0.436993
0.420067
0.399533
0.376488
0.345743
0.315051
0.262257
0.228531
0.114671
0.121791
0.220534
0.258784
0.28021
0.297855
0.306256
0.313403
0.311672
0.301384
0.290854
0.297024
0.323809
0.362951
0.401826
0.433588
0.457228
0.474572
0.48789
0.498997
0.508987
0.518203
0.526405
0.533144
0.538199
0.54174
0.544143
0.545742
0.546749
0.547281
0.547408
0.547173
0.546605
0.54572
0.544528
0.543031
0.541224
0.539096
0.536633
0.533811
0.530605
0.526978
0.522889
0.518284
0.513102
0.507266
0.500682
0.493238
0.484789
0.475176
0.464152
0.451517
0.436761
0.419809
0.399249
0.376163
0.345388
0.314624
0.261828
0.227975
0.114299
0.121384
0.224243
0.259761
0.280757
0.29801
0.306358
0.313306
0.311577
0.30149
0.291311
0.297655
0.324383
0.363311
0.401964
0.433579
0.457153
0.474462
0.487743
0.498801
0.508748
0.517956
0.526198
0.533002
0.538111
0.541679
0.544087
0.545682
0.546681
0.547207
0.547329
0.54709
0.546518
0.545631
0.544437
0.542938
0.541128
0.538998
0.536532
0.533708
0.530498
0.526868
0.522774
0.518164
0.512976
0.507133
0.500541
0.493088
0.484629
0.475004
0.463966
0.451313
0.436538
0.419561
0.398975
0.375851
0.345048
0.314216
0.261418
0.227446
0.113947
0.120998
0.227863
0.260806
0.281342
0.2982
0.306485
0.313237
0.311528
0.301695
0.291936
0.298488
0.325139
0.363792
0.402164
0.433597
0.457088
0.474361
0.487608
0.498621
0.508524
0.517722
0.525999
0.532865
0.53803
0.541625
0.544039
0.545628
0.546619
0.547138
0.547254
0.547011
0.546436
0.545546
0.54435
0.542848
0.541037
0.538905
0.536436
0.533609
0.530396
0.526762
0.522663
0.518049
0.512855
0.507006
0.500406
0.492945
0.484476
0.474839
0.463787
0.451118
0.436325
0.419324
0.398714
0.375552
0.344723
0.313826
0.261027
0.226942
0.113614
0.120634
0.231399
0.261912
0.281962
0.298424
0.306638
0.313202
0.311536
0.302009
0.292733
0.299522
0.32607
0.364389
0.402425
0.433639
0.457032
0.474268
0.487486
0.498457
0.508318
0.517501
0.525808
0.532736
0.537956
0.541579
0.543997
0.54558
0.546563
0.547074
0.547184
0.546937
0.546358
0.545466
0.544267
0.542763
0.54095
0.538815
0.536344
0.533514
0.530298
0.52666
0.522558
0.517939
0.51274
0.506884
0.500277
0.492808
0.484329
0.474681
0.463616
0.450931
0.436121
0.419097
0.398464
0.375267
0.344412
0.313453
0.260654
0.226464
0.1133
0.120288
0.234855
0.263074
0.282616
0.298683
0.306819
0.313207
0.311608
0.302437
0.293702
0.300753
0.327169
0.365095
0.40274
0.433703
0.456984
0.474181
0.487374
0.498309
0.508128
0.517294
0.525628
0.532615
0.537889
0.541541
0.543963
0.545539
0.546512
0.547015
0.547119
0.546866
0.546285
0.545389
0.544188
0.542682
0.540866
0.53873
0.536256
0.533424
0.530205
0.526563
0.522457
0.517834
0.512629
0.506768
0.500154
0.492677
0.484189
0.47453
0.463453
0.450753
0.435926
0.418881
0.398226
0.374995
0.344115
0.313099
0.260299
0.226011
0.113005
0.119962
0.238237
0.264285
0.283302
0.298976
0.307032
0.313256
0.31175
0.302983
0.294841
0.30217
0.328425
0.365902
0.403106
0.433787
0.456943
0.474099
0.487273
0.498176
0.507957
0.517102
0.525459
0.532502
0.537831
0.541511
0.543936
0.545503
0.546467
0.546961
0.547058
0.546801
0.546215
0.545317
0.544113
0.542605
0.540787
0.538649
0.536173
0.533338
0.530116
0.526471
0.522361
0.517734
0.512525
0.506657
0.500037
0.492552
0.484055
0.474386
0.463297
0.450584
0.435741
0.418675
0.397999
0.374736
0.343833
0.312762
0.259962
0.225582
0.112727
0.119655
0.241548
0.265541
0.284018
0.299302
0.307275
0.313353
0.311966
0.303647
0.296143
0.303762
0.329825
0.3668
0.403517
0.433888
0.456908
0.474022
0.48718
0.498059
0.507804
0.516928
0.525303
0.532398
0.53778
0.541488
0.543916
0.545475
0.546428
0.546912
0.547002
0.546739
0.54615
0.545248
0.544042
0.542532
0.540712
0.538572
0.536094
0.533256
0.530032
0.526384
0.52227
0.517639
0.512425
0.506552
0.499926
0.492434
0.483929
0.47425
0.46315
0.450424
0.435565
0.41848
0.397784
0.374491
0.343566
0.312443
0.259643
0.225177
0.112466
0.119365
0.244794
0.266837
0.284761
0.299661
0.307551
0.313498
0.312257
0.304427
0.297596
0.305514
0.331353
0.367778
0.403969
0.434005
0.456876
0.473948
0.487096
0.497956
0.507668
0.51677
0.52516
0.532305
0.537739
0.541473
0.543903
0.545452
0.546393
0.546868
0.54695
0.546682
0.546088
0.545184
0.543976
0.542463
0.540641
0.538499
0.536019
0.533179
0.529952
0.526301
0.522184
0.517549
0.512331
0.506453
0.499821
0.492322
0.483809
0.474122
0.463011
0.450272
0.435399
0.418295
0.39758
0.374259
0.343313
0.312142
0.259342
0.224797
0.112222
0.119092
0.247978
0.268168
0.285529
0.30005
0.307858
0.313693
0.312623
0.305317
0.299188
0.307406
0.332992
0.368826
0.404454
0.434134
0.456848
0.473876
0.487019
0.497866
0.507551
0.516631
0.525032
0.532222
0.537706
0.541466
0.543897
0.545436
0.546365
0.546829
0.546903
0.546629
0.546031
0.545124
0.543913
0.542399
0.540575
0.53843
0.535948
0.533107
0.529877
0.526223
0.522103
0.517464
0.512242
0.50636
0.499722
0.492217
0.483697
0.474
0.46288
0.450128
0.435242
0.418121
0.397388
0.37404
0.343075
0.311858
0.259058
0.224439
0.111994
0.118836
0.251104
0.269531
0.28632
0.30047
0.308196
0.313937
0.313062
0.306308
0.300902
0.309419
0.334726
0.369931
0.404967
0.434274
0.456823
0.473806
0.486948
0.49779
0.507452
0.51651
0.524919
0.532151
0.537683
0.541468
0.543899
0.545426
0.546341
0.546795
0.546861
0.546581
0.545979
0.545068
0.543854
0.542338
0.540512
0.538366
0.535882
0.533038
0.529806
0.52615
0.522027
0.517385
0.512159
0.506272
0.499629
0.492118
0.483591
0.473886
0.462756
0.449994
0.435095
0.417958
0.397208
0.373835
0.342852
0.311593
0.258793
0.224106
0.111782
0.118597
0.254177
0.270921
0.287132
0.300917
0.308564
0.314229
0.31357
0.307392
0.30272
0.311532
0.336535
0.371083
0.405504
0.434422
0.456798
0.473737
0.486882
0.497725
0.507369
0.516407
0.524822
0.532093
0.537669
0.541478
0.543908
0.545422
0.546323
0.546765
0.546823
0.546537
0.54593
0.545016
0.5438
0.542281
0.540454
0.538306
0.53582
0.532974
0.52974
0.526082
0.521956
0.51731
0.512081
0.50619
0.499542
0.492025
0.483492
0.47378
0.462641
0.449868
0.434957
0.417805
0.39704
0.373644
0.342643
0.311345
0.258545
0.223795
0.111586
0.118375
0.257201
0.272335
0.287963
0.301391
0.308961
0.314567
0.314143
0.308557
0.304625
0.313724
0.338403
0.372271
0.406059
0.434577
0.456774
0.473668
0.486821
0.497672
0.507304
0.516324
0.524742
0.532047
0.537666
0.541496
0.543923
0.545424
0.546311
0.546741
0.546789
0.546497
0.545886
0.544968
0.54375
0.542229
0.5404
0.53825
0.535762
0.532915
0.529679
0.526018
0.52189
0.517241
0.512008
0.506113
0.499461
0.491939
0.4834
0.473681
0.462534
0.449751
0.43483
0.417663
0.396884
0.373465
0.342449
0.311114
0.258315
0.223507
0.111405
0.118169
0.26018
0.273769
0.288811
0.30189
0.309386
0.314949
0.314776
0.309793
0.306599
0.315974
0.340313
0.373485
0.406627
0.434736
0.45675
0.473599
0.486764
0.497629
0.507256
0.516259
0.524679
0.532015
0.537673
0.541523
0.543946
0.545432
0.546303
0.546721
0.54676
0.546461
0.545845
0.544924
0.543703
0.542181
0.540349
0.538198
0.535709
0.53286
0.529622
0.525959
0.521829
0.517177
0.511941
0.506043
0.499387
0.49186
0.483315
0.473589
0.462435
0.449644
0.434711
0.417532
0.396739
0.373301
0.34227
0.310901
0.258103
0.223242
0.111238
0.117979
0.263118
0.27522
0.289675
0.302413
0.309837
0.315373
0.315464
0.311089
0.308624
0.318265
0.34225
0.374716
0.407204
0.434897
0.456724
0.473529
0.486711
0.497596
0.507223
0.516213
0.524633
0.531998
0.537691
0.541558
0.543976
0.545445
0.546301
0.546706
0.546736
0.54643
0.545809
0.544885
0.543661
0.542136
0.540304
0.538151
0.53566
0.532809
0.52957
0.525905
0.521773
0.517119
0.51188
0.505978
0.499318
0.491787
0.483237
0.473506
0.462344
0.449544
0.434603
0.417412
0.396606
0.37315
0.342105
0.310706
0.257909
0.223
0.111087
0.117804
0.266018
0.276686
0.290553
0.302957
0.310313
0.315836
0.316201
0.312434
0.310686
0.320578
0.344201
0.375956
0.407787
0.435061
0.456697
0.473458
0.486659
0.497572
0.507205
0.516186
0.524606
0.531994
0.53772
0.541602
0.544013
0.545465
0.546304
0.546695
0.546716
0.546403
0.545777
0.544849
0.543623
0.542096
0.540262
0.538108
0.535616
0.532763
0.529522
0.525856
0.521721
0.517065
0.511824
0.505919
0.499256
0.49172
0.483166
0.473429
0.462262
0.449454
0.434504
0.417303
0.396486
0.373013
0.341956
0.310529
0.257732
0.22278
0.110949
0.117646
0.268885
0.278163
0.291443
0.303523
0.310813
0.316336
0.316983
0.313819
0.31277
0.322898
0.346153
0.377197
0.408371
0.435224
0.456669
0.473385
0.48661
0.497556
0.507202
0.516177
0.524597
0.532006
0.537761
0.541655
0.544056
0.54549
0.546311
0.546689
0.5467
0.54638
0.545749
0.544818
0.543589
0.54206
0.540224
0.538069
0.535576
0.532722
0.529479
0.525812
0.521675
0.517017
0.511773
0.505866
0.499199
0.491661
0.483102
0.47336
0.462187
0.449373
0.434416
0.417204
0.396377
0.372889
0.341821
0.31037
0.257573
0.222582
0.110826
0.117504
0.271721
0.279649
0.292343
0.304107
0.311335
0.31687
0.317805
0.315236
0.314864
0.325214
0.348097
0.378435
0.408955
0.435386
0.456637
0.473311
0.486563
0.497548
0.507213
0.516187
0.524606
0.532033
0.537813
0.541716
0.544107
0.545521
0.546324
0.546688
0.546688
0.546361
0.545726
0.544791
0.543559
0.542029
0.540191
0.538034
0.53554
0.532685
0.529441
0.525772
0.521634
0.516974
0.511728
0.505819
0.499149
0.491607
0.483045
0.473299
0.462121
0.449301
0.434337
0.417116
0.39628
0.372779
0.341701
0.310228
0.257432
0.222407
0.110718
0.117377
0.274532
0.281141
0.293252
0.30471
0.311878
0.317436
0.318662
0.316678
0.316959
0.327515
0.350025
0.379664
0.409535
0.435545
0.456602
0.473234
0.486517
0.497547
0.507238
0.516214
0.524633
0.532076
0.537877
0.541786
0.544164
0.545557
0.546341
0.546691
0.546681
0.546347
0.545706
0.544768
0.543534
0.542001
0.540162
0.538004
0.535508
0.532653
0.529408
0.525737
0.521598
0.516937
0.511689
0.505777
0.499105
0.491561
0.482995
0.473245
0.462063
0.449238
0.434267
0.417039
0.396196
0.372682
0.341596
0.310103
0.257308
0.222253
0.110623
0.117266
0.277319
0.282637
0.294168
0.305329
0.31244
0.318032
0.319551
0.318138
0.319046
0.329793
0.35193
0.380881
0.41011
0.435702
0.456564
0.473154
0.486472
0.497553
0.507276
0.516259
0.52468
0.532135
0.537953
0.541865
0.544227
0.545599
0.546363
0.546698
0.546678
0.546336
0.545691
0.544749
0.543512
0.541978
0.540137
0.537978
0.535481
0.532625
0.529379
0.525707
0.521567
0.516904
0.511655
0.505741
0.499068
0.491521
0.482952
0.473199
0.462013
0.449183
0.434208
0.416973
0.396123
0.3726
0.341506
0.309997
0.257202
0.222122
0.110542
0.117171
0.280087
0.284134
0.295091
0.305964
0.313021
0.318656
0.320469
0.319611
0.321119
0.33204
0.353808
0.382081
0.410679
0.435854
0.456522
0.473071
0.486427
0.497564
0.507326
0.516322
0.524744
0.532209
0.53804
0.541952
0.544297
0.545646
0.54639
0.54671
0.546679
0.54633
0.545679
0.544734
0.543495
0.541958
0.540117
0.537956
0.535459
0.532601
0.529355
0.525682
0.521541
0.516877
0.511627
0.505712
0.499036
0.491487
0.482917
0.473161
0.461972
0.449138
0.434158
0.416919
0.396062
0.372531
0.341431
0.309908
0.257113
0.222013
0.110474
0.117091
0.282838
0.285629
0.296018
0.306613
0.31362
0.319305
0.321412
0.321093
0.323173
0.334254
0.355654
0.383264
0.411239
0.436002
0.456475
0.472985
0.486382
0.497581
0.507388
0.516401
0.524828
0.5323
0.53814
0.542048
0.544373
0.545697
0.546421
0.546725
0.546684
0.546328
0.545672
0.544723
0.543481
0.541943
0.5401
0.537939
0.535441
0.532583
0.529335
0.525662
0.52152
0.516855
0.511604
0.505688
0.499011
0.49146
0.482888
0.47313
0.461939
0.449102
0.434119
0.416875
0.396014
0.372476
0.341371
0.309837
0.257043
0.221925
0.11042
0.117027
0.285577
0.287121
0.296947
0.307275
0.314235
0.31998
0.322378
0.32258
0.325205
0.33643
0.357467
0.384427
0.411791
0.436144
0.456423
0.472894
0.486336
0.497604
0.507461
0.516497
0.524929
0.532407
0.538252
0.542152
0.544455
0.545754
0.546456
0.546745
0.546693
0.54633
0.545669
0.544716
0.543472
0.541932
0.540088
0.537926
0.535427
0.532568
0.52932
0.525647
0.521504
0.516839
0.511587
0.50567
0.498992
0.49144
0.482867
0.473107
0.461914
0.449075
0.434089
0.416842
0.395978
0.372434
0.341326
0.309784
0.25699
0.22186
0.11038
0.116979
0.288306
0.288607
0.297879
0.307949
0.314865
0.320676
0.323364
0.324071
0.327213
0.338566
0.359246
0.38557
0.412332
0.43628
0.456366
0.4728
0.48629
0.497631
0.507545
0.516609
0.525049
0.532531
0.538376
0.542264
0.544543
0.545815
0.546496
0.546769
0.546706
0.546335
0.545669
0.544713
0.543467
0.541926
0.54008
0.537917
0.535418
0.532559
0.52931
0.525636
0.521493
0.516828
0.511575
0.505657
0.498979
0.491427
0.482852
0.473092
0.461897
0.449056
0.434069
0.416819
0.395953
0.372407
0.341296
0.309749
0.256955
0.221816
0.110354
0.116947
0.291029
0.290084
0.29881
0.308634
0.31551
0.321395
0.32437
0.325563
0.329194
0.340663
0.360988
0.386691
0.412862
0.436409
0.456302
0.4727
0.486243
0.497662
0.507641
0.516737
0.525187
0.53267
0.538512
0.542384
0.544637
0.545881
0.546539
0.546797
0.546724
0.546345
0.545674
0.544714
0.543466
0.541923
0.540077
0.537913
0.535413
0.532553
0.529305
0.525631
0.521488
0.516822
0.511569
0.505651
0.498973
0.49142
0.482845
0.473084
0.461888
0.449047
0.434059
0.416808
0.395941
0.372393
0.341281
0.309731
0.256937
0.221794
0.11034
0.116931
0.293749
0.29155
0.299741
0.309329
0.316168
0.322133
0.325392
0.327055
0.331149
0.342718
0.362694
0.387789
0.41338
0.43653
0.456231
0.472595
0.486195
0.497698
0.507746
0.516881
0.525343
0.532826
0.53866
0.542512
0.544736
0.545951
0.546587
0.546829
0.546745
0.546359
0.545683
0.54472
0.543469
0.541924
0.540077
0.537913
0.535413
0.532553
0.529304
0.52563
0.521487
0.516821
0.511568
0.505651
0.498972
0.49142
0.482845
0.473084
0.461888
0.449047
0.434059
0.416808
0.395941
0.372393
0.341281
0.309731
0.256937
0.221794
0.11034
0.116931
0.29647
0.293004
0.300669
0.310032
0.316839
0.32289
0.326431
0.328545
0.333077
0.344733
0.364365
0.388866
0.413887
0.436642
0.456152
0.472485
0.486144
0.497738
0.507862
0.51704
0.525516
0.532997
0.538819
0.542647
0.54484
0.546025
0.546639
0.546865
0.54677
0.546377
0.545696
0.544729
0.543476
0.54193
0.540082
0.537917
0.535417
0.532557
0.529308
0.525634
0.521491
0.516826
0.511573
0.505656
0.498978
0.491426
0.482851
0.473091
0.461896
0.449056
0.434069
0.416819
0.395953
0.372407
0.341296
0.309749
0.256955
0.221816
0.110354
0.116947
0.299194
0.294441
0.301592
0.310743
0.317521
0.323666
0.327484
0.330033
0.334978
0.346709
0.366001
0.38992
0.41438
0.436746
0.456065
0.472367
0.486091
0.497781
0.507988
0.517214
0.525706
0.533184
0.538988
0.542789
0.544948
0.546103
0.546694
0.546905
0.546799
0.546399
0.545712
0.544743
0.543487
0.54194
0.540091
0.537926
0.535425
0.532565
0.529317
0.525643
0.521501
0.516836
0.511584
0.505668
0.49899
0.491439
0.482865
0.473106
0.461913
0.449074
0.434089
0.416841
0.395977
0.372434
0.341326
0.309784
0.25699
0.22186
0.11038
0.116979
0.301925
0.295861
0.302511
0.311461
0.318215
0.324457
0.32855
0.331518
0.336852
0.348646
0.367602
0.390953
0.414861
0.436839
0.455968
0.472242
0.486035
0.497827
0.508123
0.517403
0.525914
0.533385
0.539169
0.542938
0.545061
0.546185
0.546753
0.546948
0.546832
0.546424
0.545733
0.54476
0.543502
0.541954
0.540104
0.537938
0.535438
0.532578
0.52933
0.525657
0.521515
0.516851
0.5116
0.505685
0.499009
0.491459
0.482887
0.473129
0.461938
0.449101
0.434118
0.416874
0.396014
0.372476
0.341371
0.309837
0.257043
0.221925
0.11042
0.117027
0.304666
0.29726
0.303423
0.312184
0.318918
0.325265
0.32963
0.333
0.338702
0.350546
0.36917
0.391964
0.415328
0.43692
0.45586
0.472109
0.485977
0.497877
0.508268
0.517607
0.526139
0.533602
0.53936
0.543093
0.545178
0.54627
0.546815
0.546995
0.546868
0.546454
0.545758
0.544781
0.543522
0.541972
0.540122