/*--------------------------------*- C++ -*----------------------------------*\
| =========                 |                                                 |
| \\      /  F ield         | OpenFOAM: The Open Source CFD Toolbox           |
|  \\    /   O peration     | Version:  2.4.0                                 |
|   \\  /    A nd           | Web:      www.OpenFOAM.org                      |
|    \\/     M anipulation  |                                                 |
\*---------------------------------------------------------------------------*/
FoamFile
{
    version     2.0;
    format      ascii;
    class       volScalarField;
    location    "0.93";
    object      k;
}
// * * * * * * * * * * * * * * * * * * * * * * * * * * * * * * * * * * * * * //

dimensions      [0 2 -2 0 0 0 0];

internalField   nonuniform List<scalar> 
6000
(
0.00510096
0.00645279
0.00771268
0.00881052
0.00970874
0.0103981
0.0108901
0.0112091
0.0113855
0.0114508
0.0114338
0.0113592
0.011247
0.0111127
0.0109678
0.0108205
0.0106768
0.0105402
0.0104131
0.0102966
0.0101909
0.0100959
0.0100108
0.00993483
0.00986685
0.00980576
0.00975044
0.00969981
0.00965289
0.00960878
0.00956671
0.00952603
0.0094862
0.0094468
0.00940749
0.00936799
0.0093281
0.0092876
0.00924632
0.009204
0.00916034
0.00911493
0.00906722
0.00901647
0.00896169
0.00890163
0.00883462
0.00875855
0.00867071
0.00856762
0.00844489
0.00829688
0.00811654
0.00789483
0.00762135
0.00728155
0.00686839
0.00635146
0.00580848
0.00506679
0.0035494
0.00344488
0.00340553
0.00341541
0.00345868
0.00352242
0.00359887
0.00368417
0.00377674
0.00387636
0.00398357
0.00409911
0.00422367
0.00435757
0.00450073
0.0046526
0.00481215
0.00497795
0.0051482
0.00532085
0.00549369
0.00566447
0.00583098
0.0059912
0.00614334
0.00628596
0.00641796
0.00653864
0.00664769
0.00674515
0.00683137
0.00690698
0.00697279
0.00702976
0.00707895
0.00712143
0.00715825
0.00719043
0.00721893
0.0072446
0.00726827
0.0072907
0.00731263
0.00733482
0.0073581
0.00738341
0.0074119
0.007445
0.0074846
0.00753317
0.00759414
0.00767231
0.00777457
0.00791117
0.00809742
0.00835792
0.00872921
0.00927351
0.010037
0.0118496
0.00348321
0.00325648
0.00306425
0.00290018
0.00275854
0.00263419
0.00252332
0.00242364
0.00233403
0.00225413
0.00218406
0.00212419
0.00207498
0.00203686
0.0020102
0.00199528
0.00199227
0.00200126
0.00202221
0.002055
0.00209942
0.00215513
0.00222169
0.00229855
0.00238503
0.00248034
0.00258358
0.00269377
0.00280983
0.00293064
0.00305504
0.00318187
0.00330999
0.00343833
0.00356587
0.00369172
0.0038151
0.00393536
0.00405201
0.00416471
0.00427323
0.00437751
0.00447762
0.00457376
0.00466628
0.00475565
0.00484253
0.00492781
0.00501267
0.00509871
0.00518823
0.00528456
0.00539279
0.00552099
0.00568226
0.00589956
0.00621129
0.00669625
0.00746054
0.00918194
0.00347969
0.00324256
0.00303442
0.00285067
0.00268758
0.00254191
0.00241089
0.0022922
0.00218399
0.0020848
0.00199351
0.00190929
0.00183155
0.00175986
0.00169393
0.0016336
0.00157876
0.00152936
0.00148542
0.00144697
0.00141408
0.00138684
0.00136533
0.00134967
0.00133996
0.00133629
0.00133877
0.00134746
0.00136244
0.00138373
0.00141136
0.0014453
0.00148549
0.00153185
0.00158423
0.00164247
0.00170634
0.0017756
0.00184996
0.00192911
0.00201276
0.00210061
0.00219238
0.00228786
0.00238693
0.00248957
0.00259596
0.00270648
0.00282185
0.0029432
0.00307227
0.00321163
0.00336508
0.00353836
0.00374037
0.00398582
0.00429959
0.00473335
0.00537664
0.00663644
0.00347951
0.00324163
0.00303199
0.00284603
0.00268015
0.00253139
0.00239731
0.00227586
0.00216532
0.00206426
0.00197147
0.00188596
0.00180687
0.00173352
0.00166531
0.00160177
0.0015425
0.00148717
0.00143549
0.00138726
0.00134229
0.00130044
0.00126158
0.00122563
0.00119254
0.00116226
0.00113478
0.00111008
0.00108819
0.00106914
0.00105298
0.00103976
0.00102957
0.00102248
0.0010186
0.00101804
0.00102092
0.00102736
0.00103752
0.00105156
0.00106968
0.00109208
0.00111904
0.00115089
0.00118804
0.00123103
0.00128056
0.00133756
0.0014033
0.00147948
0.00156846
0.00167346
0.00179899
0.00195141
0.00213988
0.00237775
0.00268598
0.00309876
0.00368279
0.00464658
0.0034795
0.00324152
0.00303169
0.00284546
0.00267923
0.00253007
0.00239557
0.00227374
0.00216291
0.00206168
0.00196888
0.0018835
0.00180468
0.0017317
0.00166393
0.00160083
0.00154194
0.00148685
0.00143523
0.00138676
0.00134119
0.00129829
0.00125787
0.00121976
0.00118381
0.0011499
0.00111791
0.00108776
0.00105937
0.00103267
0.00100761
0.000984149
0.000962262
0.000941927
0.000923138
0.000905898
0.000890222
0.00087614
0.000863696
0.000852952
0.000843993
0.000836935
0.000831929
0.000829179
0.000828957
0.000831633
0.00083771
0.000847881
0.000863113
0.000884767
0.000914787
0.000955972
0.00101242
0.00109018
0.00119838
0.00135063
0.00156861
0.00188375
0.00235747
0.00310095
0.00347949
0.00324148
0.00303159
0.00284531
0.00267901
0.00252977
0.0023952
0.0022733
0.00216243
0.00206119
0.00196842
0.00188313
0.00180446
0.00173168
0.00166418
0.00160139
0.00154286
0.00148815
0.00143693
0.00138886
0.00134366
0.0013011
0.00126095
0.00122302
0.00118713
0.00115314
0.00112091
0.00109033
0.00106127
0.00103366
0.0010074
0.00098242
0.000958654
0.000936044
0.000914541
0.000894102
0.000874691
0.000856278
0.000838844
0.000822375
0.000806868
0.000792331
0.000778788
0.000766284
0.000754892
0.000744725
0.000735956
0.000728846
0.000723787
0.000721378
0.00072254
0.000728709
0.000742163
0.000766575
0.000808013
0.000876497
0.000989477
0.00117461
0.00148717
0.00200559
0.00347949
0.00324145
0.00303152
0.0028452
0.00267887
0.0025296
0.00239499
0.00227306
0.00216217
0.00206092
0.00196815
0.00188288
0.00180424
0.00173152
0.0016641
0.00160142
0.00154301
0.00148846
0.00143741
0.00138954
0.00134456
0.00130222
0.0012623
0.0012246
0.00118895
0.00115518
0.00112315
0.00109274
0.00106382
0.0010363
0.00101007
0.000985061
0.000961187
0.000938381
0.000916579
0.000895724
0.000875766
0.000856656
0.000838355
0.000820826
0.000804037
0.000787962
0.000772581
0.000757883
0.000743866
0.000730543
0.000717948
0.00070615
0.000695266
0.000685499
0.000677186
0.000670899
0.000667613
0.000669029
0.000678189
0.000700613
0.000746867
0.000836142
0.00100914
0.00132825
0.00347949
0.00324143
0.00303147
0.00284512
0.00267876
0.00252946
0.00239482
0.00227288
0.00216196
0.0020607
0.00196792
0.00188264
0.00180401
0.0017313
0.00166388
0.00160123
0.00154285
0.00148835
0.00143735
0.00138954
0.00134463
0.00130238
0.00126256
0.00122496
0.00118942
0.00115577
0.00112386
0.00109357
0.00106478
0.00103738
0.00101127
0.000986372
0.000962599
0.00093988
0.000918146
0.000897337
0.000877397
0.000858274
0.000839921
0.000822294
0.000805354
0.000789065
0.000773394
0.000758312
0.000743797
0.00072983
0.000716403
0.000703518
0.000691201
0.000679509
0.000668557
0.000658559
0.000649908
0.000643328
0.000640192
0.000643152
0.000657582
0.000694568
0.000778657
0.000956339
0.00347949
0.00324142
0.00303143
0.00284505
0.00267866
0.00252934
0.00239469
0.00227272
0.00216179
0.00206051
0.00196772
0.00188243
0.00180379
0.00173108
0.00166366
0.00160101
0.00154264
0.00148814
0.00143716
0.00138936
0.00134448
0.00130225
0.00126245
0.00122489
0.00118938
0.00115577
0.00112392
0.00109368
0.00106494
0.0010376
0.00101155
0.000986718
0.00096301
0.000940356
0.000918688
0.000897943
0.000878065
0.000858999
0.000840698
0.000823117
0.000806212
0.000789947
0.000774285
0.000759194
0.000744643
0.000730609
0.000717068
0.000704009
0.000691427
0.000679335
0.000667774
0.000656834
0.000646689
0.000637671
0.000630418
0.000626195
0.000627564
0.000640393
0.000677345
0.000769372
0.00347949
0.00324141
0.0030314
0.002845
0.00267859
0.00252924
0.00239457
0.00227258
0.00216164
0.00206035
0.00196755
0.00188225
0.0018036
0.00173088
0.00166346
0.00160081
0.00154244
0.00148794
0.00143696
0.00138916
0.00134428
0.00130206
0.00126227
0.00122472
0.00118922
0.00115563
0.00112378
0.00109356
0.00106484
0.00103752
0.0010115
0.00098669
0.000963009
0.000940384
0.000918747
0.000898034
0.00087819
0.000859159
0.000840894
0.000823348
0.000806481
0.000790252
0.000774626
0.000759569
0.00074505
0.000731044
0.000717526
0.00070448
0.000691894
0.000679771
0.000668132
0.000657027
0.000646561
0.000636924
0.000628468
0.000621869
0.000618388
0.00062112
0.000635972
0.000681529
0.00347949
0.0032414
0.00303137
0.00284495
0.00267852
0.00252916
0.00239447
0.00227247
0.00216151
0.00206021
0.0019674
0.00188209
0.00180344
0.00173071
0.00166329
0.00160063
0.00154226
0.00148776
0.00143677
0.00138898
0.0013441
0.00130188
0.00126209
0.00122454
0.00118905
0.00115546
0.00112362
0.0010934
0.00106469
0.00103737
0.00101136
0.000986558
0.000962887
0.000940273
0.000918648
0.000897948
0.000878117
0.000859102
0.000840853
0.000823325
0.000806476
0.000790268
0.000774663
0.000759629
0.000745136
0.000731156
0.000717667
0.000704651
0.000692096
0.000680005
0.000668392
0.000657301
0.000646815
0.00063708
0.000628347
0.00062106
0.000615937
0.00061472
0.000620075
0.000642421
0.00347949
0.00324139
0.00303135
0.00284491
0.00267847
0.00252909
0.00239438
0.00227237
0.0021614
0.00206009
0.00196727
0.00188195
0.00180329
0.00173056
0.00166314
0.00160047
0.0015421
0.0014876
0.00143661
0.00138882
0.00134394
0.00130171
0.00126193
0.00122438
0.00118889
0.0011553
0.00112346
0.00109324
0.00106453
0.00103722
0.00101121
0.000986414
0.000962746
0.000940136
0.000918515
0.000897821
0.000877996
0.000858986
0.000840744
0.000823224
0.000806384
0.000790184
0.00077459
0.000759568
0.000745089
0.000731125
0.000717654
0.000704658
0.000692128
0.000680065
0.000668485
0.000657429
0.000646977
0.000637262
0.000628503
0.000621054
0.000615424
0.000612716
0.000614194
0.000625592
0.00347948
0.00324138
0.00303134
0.00284488
0.00267842
0.00252903
0.00239431
0.00227228
0.0021613
0.00205998
0.00196715
0.00188183
0.00180317
0.00173043
0.001663
0.00160034
0.00154196
0.00148746
0.00143647
0.00138868
0.00134379
0.00130157
0.00126178
0.00122424
0.00118875
0.00115516
0.00112332
0.0010931
0.0010644
0.00103709
0.00101108
0.00098628
0.000962614
0.000940006
0.000918387
0.000897695
0.000877873
0.000858866
0.000840627
0.000823111
0.000806275
0.000790081
0.000774492
0.000759477
0.000745005
0.00073105
0.00071759
0.000704608
0.000692094
0.00068005
0.000668493
0.000657466
0.000647046
0.000637365
0.000628628
0.000621157
0.000615378
0.000612092
0.000611986
0.00061832
0.00347948
0.00324138
0.00303132
0.00284486
0.00267838
0.00252897
0.00239424
0.00227221
0.00216122
0.00205989
0.00196706
0.00188173
0.00180306
0.00173032
0.00166289
0.00160022
0.00154184
0.00148734
0.00143635
0.00138855
0.00134367
0.00130145
0.00126166
0.00122411
0.00118862
0.00115503
0.00112319
0.00109298
0.00106427
0.00103696
0.00101096
0.000986161
0.000962497
0.00093989
0.000918273
0.000897582
0.000877761
0.000858757
0.00084052
0.000823006
0.000806173
0.000789982
0.000774398
0.000759387
0.000744921
0.000730972
0.00071752
0.000704547
0.000692045
0.000680016
0.000668477
0.000657471
0.000647075
0.000637421
0.000628707
0.00062124
0.000615411
0.000611866
0.000611056
0.00061496
0.00347948
0.00324138
0.00303131
0.00284483
0.00267835
0.00252893
0.00239419
0.00227214
0.00216115
0.00205981
0.00196697
0.00188164
0.00180296
0.00173022
0.00166278
0.00160011
0.00154173
0.00148723
0.00143624
0.00138844
0.00134356
0.00130134
0.00126155
0.001224
0.00118851
0.00115492
0.00112309
0.00109287
0.00106417
0.00103686
0.00101085
0.000986058
0.000962394
0.000939789
0.000918172
0.000897483
0.000877664
0.000858661
0.000840426
0.000822915
0.000806084
0.000789896
0.000774314
0.000759308
0.000744846
0.000730903
0.000717458
0.000704494
0.000692002
0.000679985
0.000668461
0.000657472
0.000647097
0.000637464
0.000628769
0.000621306
0.000615447
0.000611751
0.000610565
0.000613176
0.00347948
0.00324137
0.0030313
0.00284481
0.00267832
0.00252889
0.00239414
0.00227209
0.00216108
0.00205974
0.0019669
0.00188156
0.00180288
0.00173013
0.0016627
0.00160002
0.00154164
0.00148714
0.00143614
0.00138835
0.00134346
0.00130124
0.00126146
0.00122391
0.00118842
0.00115483
0.00112299
0.00109278
0.00106408
0.00103677
0.00101076
0.000985968
0.000962306
0.000939701
0.000918086
0.000897398
0.00087758
0.000858579
0.000840346
0.000822836
0.000806007
0.000789822
0.000774244
0.000759241
0.000744784
0.000730846
0.000717408
0.000704452
0.00069197
0.000679964
0.000668454
0.000657482
0.000647126
0.000637511
0.000628833
0.000621373
0.000615489
0.000611679
0.000610242
0.000612055
0.00347948
0.00324137
0.00303129
0.0028448
0.0026783
0.00252886
0.0023941
0.00227204
0.00216103
0.00205968
0.00196683
0.00188149
0.00180281
0.00173006
0.00166262
0.00159995
0.00154156
0.00148706
0.00143606
0.00138827
0.00134338
0.00130116
0.00126137
0.00122383
0.00118834
0.00115475
0.00112291
0.0010927
0.001064
0.00103669
0.00101068
0.000985891
0.000962229
0.000939626
0.000918011
0.000897325
0.000877508
0.000858508
0.000840277
0.000822769
0.000805943
0.00078976
0.000774185
0.000759186
0.000744733
0.000730801
0.000717369
0.000704421
0.000691949
0.000679956
0.00066846
0.000657504
0.000647165
0.00063757
0.000628907
0.000621451
0.000615546
0.000611642
0.000610008
0.000611259
0.00347948
0.00324137
0.00303129
0.00284479
0.00267828
0.00252883
0.00239407
0.002272
0.00216099
0.00205963
0.00196678
0.00188143
0.00180275
0.00173
0.00166256
0.00159988
0.00154149
0.00148699
0.00143599
0.0013882
0.00134331
0.00130109
0.0012613
0.00122376
0.00118827
0.00115468
0.00112284
0.00109263
0.00106393
0.00103662
0.00101062
0.000985825
0.000962165
0.000939562
0.000917949
0.000897263
0.000877447
0.000858449
0.000840219
0.000822713
0.000805889
0.000789709
0.000774137
0.000759142
0.000744694
0.000730768
0.000717342
0.000704402
0.00069194
0.000679958
0.000668477
0.000657537
0.000647217
0.000637641
0.000628995
0.000621547
0.000615626
0.000611646
0.000609848
0.000610666
0.00347948
0.00324137
0.00303128
0.00284478
0.00267826
0.00252881
0.00239404
0.00227197
0.00216095
0.00205959
0.00196673
0.00188138
0.0018027
0.00172995
0.0016625
0.00159982
0.00154144
0.00148693
0.00143594
0.00138814
0.00134326
0.00130103
0.00126125
0.0012237
0.00118821
0.00115462
0.00112279
0.00109258
0.00106387
0.00103657
0.00101056
0.00098577
0.000962111
0.000939508
0.000917896
0.000897212
0.000877397
0.0008584
0.000840172
0.000822668
0.000805846
0.000789668
0.0007741
0.000759108
0.000744665
0.000730744
0.000717326
0.000704394
0.000691942
0.000679972
0.000668505
0.000657582
0.000647281
0.000637725
0.000629099
0.000621661
0.000615732
0.000611693
0.000609761
0.000610234
0.00347948
0.00324137
0.00303128
0.00284477
0.00267825
0.00252879
0.00239402
0.00227194
0.00216092
0.00205956
0.0019667
0.00188135
0.00180266
0.0017299
0.00166246
0.00159978
0.00154139
0.00148688
0.00143589
0.00138809
0.00134321
0.00130098
0.0012612
0.00122365
0.00118816
0.00115457
0.00112274
0.00109253
0.00106383
0.00103652
0.00101052
0.000985726
0.000962067
0.000939465
0.000917854
0.00089717
0.000877357
0.000858361
0.000840135
0.000822632
0.000805813
0.000789638
0.000774072
0.000759084
0.000744645
0.00073073
0.000717319
0.000704395
0.000691953
0.000679996
0.000668543
0.000657638
0.000647357
0.000637822
0.000629217
0.000621794
0.000615866
0.000611786
0.000609747
0.000609948
0.00347948
0.00324137
0.00303128
0.00284476
0.00267824
0.00252878
0.002394
0.00227192
0.00216089
0.00205953
0.00196667
0.00188131
0.00180262
0.00172987
0.00166242
0.00159974
0.00154135
0.00148685
0.00143585
0.00138805
0.00134317
0.00130095
0.00126116
0.00122361
0.00118813
0.00115454
0.0011227
0.00109249
0.00106379
0.00103648
0.00101048
0.000985691
0.000962033
0.000939432
0.000917821
0.000897139
0.000877326
0.000858332
0.000840107
0.000822606
0.000805789
0.000789616
0.000774054
0.00075907
0.000744635
0.000730726
0.000717321
0.000704406
0.000691974
0.000680029
0.000668591
0.000657703
0.000647442
0.000637931
0.000629349
0.000621947
0.000616028
0.000611925
0.00060981
0.000609799
0.00347948
0.00324137
0.00303127
0.00284476
0.00267823
0.00252877
0.00239399
0.00227191
0.00216088
0.00205951
0.00196665
0.00188129
0.0018026
0.00172984
0.0016624
0.00159972
0.00154133
0.00148682
0.00143582
0.00138803
0.00134314
0.00130092
0.00126113
0.00122359
0.0011881
0.00115451
0.00112268
0.00109247
0.00106376
0.00103646
0.00101046
0.000985666
0.000962008
0.000939408
0.000917798
0.000897116
0.000877305
0.000858311
0.000840088
0.000822589
0.000805773
0.000789603
0.000774044
0.000759064
0.000744634
0.00073073
0.000717332
0.000704425
0.000692003
0.000680071
0.000668648
0.000657778
0.000647538
0.00063805
0.000629494
0.000622117
0.000616217
0.00061211
0.000609949
0.000609786
0.00347948
0.00324137
0.00303127
0.00284475
0.00267822
0.00252876
0.00239398
0.0022719
0.00216086
0.0020595
0.00196663
0.00188128
0.00180258
0.00172983
0.00166238
0.0015997
0.00154131
0.0014868
0.00143581
0.00138801
0.00134312
0.0013009
0.00126111
0.00122357
0.00118808
0.00115449
0.00112266
0.00109245
0.00106375
0.00103644
0.00101044
0.000985649
0.000961992
0.000939392
0.000917783
0.000897102
0.000877292
0.0008583
0.000840077
0.00082258
0.000805767
0.000789599
0.000774043
0.000759066
0.000744641
0.000730743
0.000717351
0.000704453
0.000692042
0.000680121
0.000668713
0.000657862
0.000647643
0.00063818
0.000629653
0.000622306
0.000616434
0.000612341
0.000610165
0.000609906
0.00347948
0.00324137
0.00303127
0.00284475
0.00267822
0.00252876
0.00239398
0.00227189
0.00216086
0.00205949
0.00196663
0.00188127
0.00180258
0.00172982
0.00166237
0.00159969
0.0015413
0.00148679
0.0014358
0.001388
0.00134311
0.00130089
0.00126111
0.00122356
0.00118807
0.00115448
0.00112265
0.00109244
0.00106374
0.00103643
0.00101043
0.000985642
0.000961985
0.000939386
0.000917777
0.000897097
0.000877288
0.000858297
0.000840076
0.00082258
0.000805768
0.000789603
0.00077405
0.000759077
0.000744656
0.000730763
0.000717379
0.000704489
0.000692088
0.00068018
0.000668787
0.000657953
0.000647757
0.00063832
0.000629823
0.000622512
0.000616678
0.000612619
0.000610459
0.000610159
0.00347948
0.00324137
0.00303127
0.00284475
0.00267822
0.00252876
0.00239398
0.00227189
0.00216086
0.00205949
0.00196663
0.00188127
0.00180258
0.00172982
0.00166237
0.00159969
0.0015413
0.00148679
0.0014358
0.001388
0.00134311
0.00130089
0.00126111
0.00122356
0.00118807
0.00115448
0.00112265
0.00109244
0.00106374
0.00103643
0.00101043
0.000985644
0.000961987
0.000939388
0.00091778
0.0008971
0.000877292
0.000858302
0.000840082
0.000822588
0.000805778
0.000789616
0.000774065
0.000759096
0.000744679
0.000730792
0.000717415
0.000704533
0.000692142
0.000680246
0.000668868
0.000658053
0.000647879
0.000638469
0.000630006
0.000622735
0.000616949
0.000612944
0.000610832
0.000610546
0.00347948
0.00324137
0.00303127
0.00284475
0.00267822
0.00252876
0.00239398
0.0022719
0.00216086
0.0020595
0.00196663
0.00188128
0.00180258
0.00172983
0.00166238
0.0015997
0.00154131
0.0014868
0.00143581
0.00138801
0.00134312
0.0013009
0.00126112
0.00122357
0.00118808
0.00115449
0.00112266
0.00109245
0.00106375
0.00103644
0.00101044
0.000985654
0.000961997
0.000939399
0.000917792
0.000897113
0.000877305
0.000858316
0.000840097
0.000822604
0.000805797
0.000789636
0.000774089
0.000759123
0.000744711
0.000730829
0.000717458
0.000704584
0.000692203
0.00068032
0.000668958
0.000658161
0.000648009
0.000638628
0.000630199
0.000622974
0.000617247
0.000613316
0.000611286
0.000611069
0.00347948
0.00324137
0.00303127
0.00284476
0.00267823
0.00252877
0.00239399
0.00227191
0.00216088
0.00205951
0.00196665
0.00188129
0.0018026
0.00172984
0.0016624
0.00159972
0.00154133
0.00148682
0.00143583
0.00138803
0.00134314
0.00130092
0.00126113
0.00122359
0.0011881
0.00115451
0.00112268
0.00109247
0.00106377
0.00103646
0.00101046
0.000985673
0.000962017
0.000939419
0.000917812
0.000897133
0.000877326
0.000858338
0.000840121
0.000822629
0.000805823
0.000789665
0.00077412
0.000759158
0.00074475
0.000730873
0.000717509
0.000704644
0.000692272
0.000680402
0.000669054
0.000658276
0.000648147
0.000638795
0.000630404
0.00062323
0.000617573
0.000613736
0.000611824
0.000611734
0.00347948
0.00324137
0.00303128
0.00284476
0.00267824
0.00252878
0.002394
0.00227192
0.00216089
0.00205953
0.00196667
0.00188131
0.00180262
0.00172987
0.00166242
0.00159974
0.00154135
0.00148685
0.00143585
0.00138806
0.00134317
0.00130095
0.00126116
0.00122362
0.00118813
0.00115454
0.00112271
0.0010925
0.0010638
0.00103649
0.00101049
0.000985702
0.000962046
0.000939448
0.000917841
0.000897163
0.000877356
0.000858369
0.000840153
0.000822663
0.000805858
0.000789702
0.00077416
0.000759201
0.000744797
0.000730926
0.000717568
0.000704711
0.000692349
0.00068049
0.000669158
0.000658398
0.000648293
0.00063897
0.00063062
0.000623501
0.000617925
0.000614206
0.000612447
0.000612549
0.00347948
0.00324137
0.00303128
0.00284477
0.00267825
0.00252879
0.00239402
0.00227194
0.00216092
0.00205956
0.0019667
0.00188135
0.00180266
0.0017299
0.00166246
0.00159978
0.00154139
0.00148688
0.00143589
0.00138809
0.00134321
0.00130099
0.0012612
0.00122365
0.00118817
0.00115458
0.00112275
0.00109254
0.00106383
0.00103653
0.00101053
0.00098574
0.000962084
0.000939486
0.000917879
0.000897202
0.000877396
0.000858409
0.000840193
0.000822705
0.000805902
0.000789748
0.000774208
0.000759252
0.000744853
0.000730986
0.000717635
0.000704785
0.000692433
0.000680587
0.000669269
0.000658528
0.000648446
0.000639154
0.000630845
0.000623789
0.000618305
0.000614727
0.000613162
0.000613524
0.00347948
0.00324137
0.00303128
0.00284478
0.00267826
0.00252881
0.00239404
0.00227197
0.00216095
0.00205959
0.00196673
0.00188138
0.0018027
0.00172995
0.0016625
0.00159982
0.00154144
0.00148693
0.00143594
0.00138814
0.00134326
0.00130103
0.00126125
0.0012237
0.00118821
0.00115463
0.00112279
0.00109258
0.00106388
0.00103658
0.00101058
0.000985787
0.000962131
0.000939534
0.000917927
0.00089725
0.000877444
0.000858458
0.000840243
0.000822756
0.000805955
0.000789802
0.000774265
0.000759312
0.000744917
0.000731055
0.00071771
0.000704868
0.000692526
0.000680691
0.000669387
0.000658664
0.000648606
0.000639345
0.000631081
0.000624092
0.000618712
0.000615301
0.000613972
0.000614673
0.00347948
0.00324137
0.00303129
0.00284479
0.00267828
0.00252883
0.00239407
0.002272
0.00216099
0.00205963
0.00196678
0.00188143
0.00180275
0.00173
0.00166256
0.00159988
0.00154149
0.00148699
0.001436
0.0013882
0.00134332
0.00130109
0.00126131
0.00122376
0.00118827
0.00115469
0.00112285
0.00109264
0.00106394
0.00103664
0.00101063
0.000985845
0.000962189
0.000939591
0.000917985
0.000897308
0.000877502
0.000858517
0.000840303
0.000822816
0.000806017
0.000789866
0.000774331
0.000759381
0.00074499
0.000731133
0.000717793
0.000704959
0.000692626
0.000680802
0.000669513
0.000658808
0.000648773
0.000639545
0.000631327
0.00062441
0.000619147
0.000615931
0.000614884
0.000616015
0.00347948
0.00324137
0.00303129
0.0028448
0.0026783
0.00252886
0.0023941
0.00227204
0.00216103
0.00205968
0.00196683
0.00188149
0.00180281
0.00173006
0.00166262
0.00159995
0.00154156
0.00148706
0.00143607
0.00138827
0.00134339
0.00130116
0.00126138
0.00122383
0.00118834
0.00115476
0.00112292
0.00109271
0.00106401
0.0010367
0.0010107
0.000985913
0.000962257
0.000939659
0.000918053
0.000897376
0.000877571
0.000858586
0.000840373
0.000822887
0.000806088
0.00078994
0.000774407
0.00075946
0.000745072
0.00073122
0.000717886
0.000705059
0.000692734
0.000680922
0.000669647
0.00065896
0.000648948
0.000639752
0.000631583
0.000624744
0.00061961
0.000616619
0.000615905
0.000617574
0.00347948
0.00324137
0.0030313
0.00284481
0.00267832
0.00252889
0.00239414
0.00227209
0.00216108
0.00205974
0.0019669
0.00188156
0.00180288
0.00173013
0.0016627
0.00160002
0.00154164
0.00148714
0.00143615
0.00138835
0.00134347
0.00130124
0.00126146
0.00122391
0.00118843
0.00115484
0.001123
0.00109279
0.00106409
0.00103678
0.00101078
0.000985993
0.000962337
0.000939739
0.000918133
0.000897455
0.000877651
0.000858666
0.000840453
0.000822968
0.000806171
0.000790024
0.000774493
0.000759549
0.000745164
0.000731316
0.000717988
0.000705168
0.000692852
0.000681051
0.000669789
0.00065912
0.000649131
0.000639968
0.000631849
0.000625093
0.000620102
0.00061737
0.000617043
0.00061938
0.00347948
0.00324138
0.00303131
0.00284483
0.00267835
0.00252893
0.00239419
0.00227214
0.00216115
0.00205981
0.00196697
0.00188164
0.00180296
0.00173022
0.00166279
0.00160011
0.00154173
0.00148723
0.00143624
0.00138845
0.00134356
0.00130134
0.00126156
0.00122401
0.00118852
0.00115493
0.0011231
0.00109289
0.00106418
0.00103688
0.00101087
0.000986085
0.000962429
0.000939831
0.000918224
0.000897547
0.000877742
0.000858758
0.000840546
0.000823062
0.000806265
0.000790119
0.000774591
0.000759649
0.000745267
0.000731424
0.000718101
0.000705287
0.000692979
0.000681188
0.00066994
0.000659287
0.000649322
0.000640191
0.000632124
0.000625458
0.000620623
0.000618187
0.00061831
0.000621475
0.00347948
0.00324138
0.00303132
0.00284486
0.00267838
0.00252897
0.00239424
0.00227221
0.00216122
0.00205989
0.00196706
0.00188173
0.00180306
0.00173032
0.00166289
0.00160022
0.00154184
0.00148734
0.00143635
0.00138855
0.00134367
0.00130145
0.00126166
0.00122412
0.00118863
0.00115504
0.00112321
0.00109299
0.00106429
0.00103698
0.00101098
0.000986192
0.000962534
0.000939936
0.000918329
0.000897652
0.000877847
0.000858863
0.000840651
0.000823167
0.000806372
0.000790227
0.0007747
0.00075976
0.000745382
0.000731542
0.000718223
0.000705416
0.000693116
0.000681335
0.000670099
0.000659463
0.00064952
0.000640423
0.000632408
0.000625836
0.000621173
0.000619075
0.000619716
0.000623909
0.00347948
0.00324138
0.00303134
0.00284488
0.00267842
0.00252903
0.00239431
0.00227228
0.0021613
0.00205998
0.00196716
0.00188183
0.00180317
0.00173043
0.001663
0.00160034
0.00154196
0.00148746
0.00143647
0.00138868
0.0013438
0.00130158
0.00126179
0.00122424
0.00118875
0.00115516
0.00112333
0.00109312
0.00106441
0.00103711
0.0010111
0.000986313
0.000962655
0.000940056
0.000918448
0.000897771
0.000877965
0.000858981
0.000840769
0.000823285
0.00080649
0.000790346
0.00077482
0.000759882
0.000745506
0.000731669
0.000718355
0.000705553
0.000693261
0.000681489
0.000670265
0.000659644
0.000649723
0.000640658
0.000632697
0.000626225
0.000621748
0.000620035
0.000621272
0.00062675
0.00347949
0.00324139
0.00303135
0.00284491
0.00267847
0.00252909
0.00239438
0.00227237
0.0021614
0.00206009
0.00196727
0.00188195
0.00180329
0.00173056
0.00166314
0.00160047
0.0015421
0.0014876
0.00143661
0.00138882
0.00134394
0.00130172
0.00126193
0.00122439
0.0011889
0.00115531
0.00112347
0.00109326
0.00106455
0.00103725
0.00101124
0.000986449
0.00096279
0.00094019
0.000918581
0.000897902
0.000878095
0.00085911
0.000840896
0.000823412
0.000806616
0.000790472
0.000774946
0.000760008
0.000745633
0.000731798
0.000718487
0.000705689
0.000693402
0.000681638
0.000670425
0.000659819
0.000649919
0.000640887
0.000632981
0.000626615
0.00062234
0.000621066
0.000622987
0.000630087
0.00347949
0.0032414
0.00303137
0.00284495
0.00267852
0.00252916
0.00239447
0.00227247
0.00216151
0.00206021
0.0019674
0.00188209
0.00180344
0.00173071
0.00166329
0.00160063
0.00154226
0.00148776
0.00143678
0.00138898
0.0013441
0.00130188
0.0012621
0.00122455
0.00118906
0.00115547
0.00112363
0.00109342
0.00106471
0.0010374
0.00101139
0.000986596
0.000962934
0.000940331
0.000918718
0.000898035
0.000878225
0.000859235
0.000841018
0.000823529
0.000806729
0.000790581
0.000775052
0.000760111
0.000745734
0.000731897
0.000718586
0.000705789
0.000693506
0.000681747
0.000670543
0.000659951
0.000650072
0.000641073
0.000633225
0.000626971
0.000622918
0.000622147
0.000624855
0.000634027
0.00347949
0.00324141
0.0030314
0.002845
0.00267859
0.00252924
0.00239457
0.00227258
0.00216164
0.00206035
0.00196755
0.00188225
0.0018036
0.00173088
0.00166347
0.00160081
0.00154244
0.00148794
0.00143696
0.00138917
0.00134429
0.00130206
0.00126228
0.00122473
0.00118923
0.00115564
0.0011238
0.00109358
0.00106486
0.00103755
0.00101153
0.00098673
0.000963059
0.000940446
0.000918823
0.00089813
0.000878307
0.000859305
0.000841076
0.000823575
0.000806762
0.000790602
0.000775061
0.000760111
0.000745724
0.00073188
0.000718562
0.000705762
0.000693478
0.000681722
0.000670526
0.000659947
0.00065009
0.000641127
0.000633342
0.000627211
0.000623404
0.000623212
0.000626835
0.000638693
0.00347949
0.00324142
0.00303143
0.00284505
0.00267866
0.00252934
0.00239469
0.00227272
0.00216179
0.00206051
0.00196772
0.00188243
0.00180379
0.00173108
0.00166367
0.00160101
0.00154264
0.00148815
0.00143716
0.00138937
0.00134448
0.00130225
0.00126246
0.0012249
0.00118939
0.00115579
0.00112393
0.0010937
0.00106496
0.00103763
0.00101159
0.000986762
0.000963065
0.000940425
0.000918774
0.00089805
0.000878198
0.000859166
0.000840906
0.000823376
0.000806535
0.000790349
0.000774784
0.000759813
0.000745409
0.000731551
0.000718223
0.000705418
0.000693134
0.000681384
0.0006702
0.000659642
0.000649815
0.000640897
0.000633184
0.000627189
0.000623655
0.000624125
0.000628813
0.000644203
0.00347949
0.00324143
0.00303147
0.00284512
0.00267876
0.00252946
0.00239482
0.00227288
0.00216196
0.0020607
0.00196792
0.00188264
0.00180401
0.0017313
0.00166389
0.00160123
0.00154286
0.00148835
0.00143736
0.00138955
0.00134464
0.00130239
0.00126256
0.00122497
0.00118943
0.00115578
0.00112388
0.00109359
0.0010648
0.00103741
0.00101131
0.000986424
0.000962664
0.00093996
0.000918246
0.000897462
0.000877552
0.000858467
0.000840159
0.000822587
0.000805713
0.000789501
0.00077392
0.000758941
0.00074454
0.000730696
0.000717392
0.000704621
0.000692382
0.000680686
0.000669563
0.000659071
0.000649312
0.000640467
0.00063284
0.000626972
0.000623694
0.000624845
0.000630702
0.000650728
0.00347949
0.00324145
0.00303152
0.0028452
0.00267887
0.0025296
0.00239499
0.00227306
0.00216217
0.00206092
0.00196815
0.00188288
0.00180424
0.00173152
0.0016641
0.00160142
0.00154301
0.00148847
0.00143742
0.00138954
0.00134456
0.00130223
0.00126231
0.00122461
0.00118896
0.0011552
0.00112317
0.00109276
0.00106385
0.00103633
0.00101012
0.00098512
0.000961261
0.000938471
0.000916689
0.000895856
0.000875922
0.000856839
0.000838564
0.000821057
0.000804281
0.0007882
0.000772782
0.000757994
0.000743806
0.000730206
0.000717176
0.000704704
0.000692784
0.000681417
0.000670617
0.000660423
0.000650914
0.000642244
0.000634697
0.000628817
0.000625512