/*--------------------------------*- C++ -*----------------------------------*\
| =========                 |                                                 |
| \\      /  F ield         | OpenFOAM: The Open Source CFD Toolbox           |
|  \\    /   O peration     | Version:  2.4.0                                 |
|   \\  /    A nd           | Web:      www.OpenFOAM.org                      |
|    \\/     M anipulation  |                                                 |
\*---------------------------------------------------------------------------*/
FoamFile
{
    version     2.0;
    format      ascii;
    class       volScalarField;
    location    "0.18";
    object      k;
}
// * * * * * * * * * * * * * * * * * * * * * * * * * * * * * * * * * * * * * //

dimensions      [0 2 -2 0 0 0 0];

internalField   nonuniform List<scalar> 
6000
(
0.168916
0.0121161
0.0017487
0.00642698
0.00361849
0.00468986
0.0105572
0.0152017
0.0180299
0.0195267
0.0203992
0.0210053
0.0214432
0.0217439
0.0219393
0.0220608
0.022133
0.0221734
0.0221944
0.022205
0.0222121
0.0222207
0.0222347
0.022257
0.0222902
0.0223362
0.022397
0.022474
0.0225689
0.0226834
0.022819
0.0229777
0.0231612
0.0233719
0.023612
0.0238848
0.0241936
0.0245426
0.0249364
0.0253804
0.0258813
0.0264467
0.0270859
0.0278104
0.0286332
0.0295724
0.0306454
0.0318859
0.0333081
0.0349942
0.036907
0.0393149
0.0418799
0.0456495
0.0488489
0.055798
0.0585282
0.0744419
0.0722115
0.111891
0.0764553
0.00960774
0.00161098
0.00398749
0.00268122
0.00391281
0.00685736
0.00893144
0.0100802
0.0106334
0.0109207
0.0110952
0.0111999
0.011251
0.0112636
0.0112513
0.0112243
0.0111897
0.0111521
0.0111151
0.0110809
0.0110515
0.011028
0.0110114
0.0110026
0.0110021
0.0110105
0.0110283
0.0110561
0.0110945
0.0111441
0.0112057
0.01128
0.0113679
0.0114703
0.0115891
0.0117256
0.0118818
0.0120598
0.0122621
0.012492
0.012753
0.0130496
0.0133872
0.0137722
0.0142131
0.0147187
0.015304
0.0159784
0.0167759
0.0176906
0.0188257
0.0200727
0.0218225
0.0234514
0.0265692
0.0282615
0.0350914
0.0353062
0.0515333
0.0413098
0.00778102
0.00160423
0.00279484
0.00228866
0.00326855
0.00476314
0.00573363
0.00623506
0.00645388
0.00654714
0.00658768
0.0065981
0.00658716
0.00656194
0.00652853
0.00649136
0.00645337
0.00641651
0.00638208
0.00635094
0.00632369
0.00630073
0.00628235
0.00626876
0.00626013
0.00625664
0.00625844
0.00626573
0.00627873
0.00629768
0.0063229
0.00635473
0.00639345
0.00643975
0.00649441
0.00655808
0.00663166
0.00671623
0.00681308
0.00692376
0.00705015
0.0071945
0.00735959
0.00754872
0.00776617
0.00801673
0.00830766
0.00864504
0.00904387
0.00950672
0.0100752
0.0107184
0.0115861
0.0124638
0.0139634
0.0150148
0.0181542
0.0188825
0.0258869
0.0260822
0.00667571
0.00170309
0.00224956
0.00213981
0.0028003
0.00355871
0.00403238
0.00427073
0.00436557
0.00439323
0.00439346
0.00438058
0.00435957
0.0043336
0.00430533
0.00427671
0.00424903
0.00422307
0.0041993
0.00417799
0.00415933
0.00414339
0.00413024
0.0041199
0.00411239
0.00410775
0.00410601
0.00410724
0.0041115
0.00411889
0.00412956
0.00414362
0.00416123
0.0041829
0.00420881
0.0042393
0.00427481
0.00431589
0.0043632
0.00441755
0.00447991
0.00455147
0.00463369
0.00472838
0.00483777
0.00496458
0.00511253
0.00528546
0.00549049
0.00573153
0.00602617
0.00636895
0.00681803
0.00730616
0.00806575
0.00871711
0.0102387
0.0109323
0.0140715
0.0187854
0.00607481
0.00188344
0.00205129
0.00210242
0.00249807
0.00287515
0.00311269
0.00323594
0.00328208
0.00328797
0.00327812
0.00326297
0.00324558
0.0032271
0.00320849
0.00319056
0.00317379
0.00315847
0.0031447
0.00313253
0.00312197
0.00311298
0.00310554
0.00309963
0.00309521
0.00309227
0.0030908
0.00309082
0.00309234
0.0030954
0.00310006
0.00310636
0.00311444
0.00312456
0.00313672
0.00315108
0.00316788
0.00318737
0.00320991
0.00323589
0.00326583
0.00330035
0.00334022
0.00338642
0.00344016
0.00350295
0.00357679
0.00366402
0.00376824
0.00389269
0.00404521
0.0042277
0.00446293
0.00473515
0.0051304
0.00552778
0.00629065
0.00682098
0.00826162
0.0150239
0.0057941
0.00212413
0.00204017
0.00212112
0.00232853
0.00250339
0.00262061
0.0026874
0.00271227
0.00271157
0.00270138
0.00268982
0.00267887
0.00266859
0.00265904
0.00265037
0.00264268
0.00263597
0.0026302
0.00262531
0.00262123
0.00261791
0.00261528
0.0026133
0.00261195
0.00261119
0.00261102
0.00261143
0.00261242
0.00261401
0.0026162
0.00261904
0.00262263
0.00262705
0.00263229
0.00263842
0.00264555
0.0026538
0.00266335
0.00267439
0.00268717
0.002702
0.00271929
0.00273954
0.00276337
0.00279162
0.00282534
0.00286591
0.00291518
0.0029754
0.00305022
0.00314282
0.0032621
0.00340882
0.00361271
0.00384675
0.00423346
0.00459707
0.00526406
0.0129854
0.00570825
0.00240522
0.00212814
0.00217078
0.00225209
0.00231631
0.00236711
0.00240179
0.00241553
0.0024135
0.00240603
0.00239935
0.00239472
0.0023916
0.0023895
0.00238818
0.0023875
0.00238734
0.00238756
0.00238807
0.00238878
0.00238963
0.00239058
0.00239158
0.00239263
0.00239371
0.0023948
0.00239592
0.00239707
0.00239824
0.00239946
0.00240072
0.00240213
0.00240367
0.00240534
0.00240717
0.0024092
0.00241149
0.00241411
0.00241714
0.0024207
0.00242493
0.00243001
0.00243617
0.00244372
0.00245309
0.00246479
0.00247957
0.00249837
0.00252257
0.00255387
0.00259496
0.00264915
0.00272124
0.00281967
0.00294851
0.00313888
0.0033677
0.00367228
0.0118455
0.00573581
0.00270727
0.00226612
0.00223708
0.0022331
0.0022343
0.00224584
0.0022598
0.00226653
0.00226507
0.00226129
0.00225957
0.00226054
0.00226328
0.00226699
0.00227121
0.00227565
0.00228013
0.00228449
0.00228864
0.00229252
0.00229609
0.00229932
0.00230222
0.00230478
0.00230702
0.00230895
0.00231059
0.00231193
0.00231301
0.00231382
0.00231437
0.00231471
0.00231482
0.00231469
0.00231435
0.00231379
0.00231303
0.00231208
0.00231097
0.00230973
0.0023084
0.00230704
0.00230574
0.00230461
0.00230384
0.00230366
0.00230443
0.00230656
0.00231082
0.00231796
0.00232979
0.00234731
0.00237527
0.00241433
0.00247647
0.00256043
0.00269095
0.00282209
0.0111987
0.00582463
0.00301201
0.00242627
0.0023105
0.00224482
0.00220838
0.00219613
0.0021961
0.00219804
0.00219798
0.00219823
0.00220122
0.00220694
0.00221426
0.00222222
0.00223026
0.00223804
0.00224538
0.00225217
0.00225834
0.00226387
0.00226878
0.00227309
0.00227683
0.00228003
0.00228273
0.00228496
0.00228676
0.00228814
0.00228912
0.00228973
0.00228995
0.00228981
0.00228929
0.0022884
0.00228712
0.00228544
0.00228336
0.00228086
0.0022779
0.00227448
0.00227058
0.00226619
0.0022613
0.00225593
0.00225012
0.00224393
0.00223749
0.00223095
0.00222468
0.00221891
0.00221476
0.00221224
0.00221499
0.00222103
0.00224235
0.00226799
0.00233175
0.00237901
0.0108327
0.00594212
0.00330383
0.00259191
0.0023848
0.00227023
0.00221006
0.00218398
0.00217499
0.00217384
0.00217562
0.00217983
0.00218699
0.00219644
0.00220696
0.00221758
0.00222774
0.00223717
0.00224573
0.00225339
0.00226015
0.00226605
0.00227116
0.00227555
0.00227927
0.0022824
0.00228498
0.00228708
0.00228872
0.00228995
0.00229078
0.00229124
0.00229131
0.00229102
0.00229034
0.00228926
0.00228779
0.00228589
0.00228354
0.00228069
0.0022773
0.00227332
0.0022687
0.00226337
0.00225729
0.00225039
0.00224262
0.00223396
0.00222439
0.00221391
0.00220265
0.00219061
0.00217841
0.00216566
0.00215493
0.00214352
0.00214129
0.00213581
0.00215731
0.00216455
0.0106307
0.00606876
0.00357125
0.00275236
0.00245626
0.0023
0.00222386
0.00219068
0.00217692
0.00217423
0.00217795
0.0021856
0.002196
0.00220791
0.00222012
0.0022318
0.00224252
0.0022521
0.00226052
0.00226782
0.00227408
0.00227943
0.00228394
0.00228774
0.00229091
0.00229352
0.00229564
0.00229734
0.00229865
0.00229961
0.00230025
0.00230058
0.0023006
0.00230031
0.0022997
0.00229877
0.00229749
0.00229584
0.00229379
0.00229128
0.00228826
0.00228466
0.00228041
0.00227542
0.00226959
0.00226282
0.00225502
0.00224608
0.00223591
0.00222439
0.00221154
0.0021972
0.00218171
0.00216454
0.00214747
0.00212781
0.00211323
0.00209245
0.00208947
0.00207879
0.0105261
0.00619367
0.00380759
0.00290072
0.00252296
0.00232982
0.00224191
0.00220593
0.00219072
0.00218782
0.00219333
0.00220353
0.00221592
0.0022289
0.00224136
0.00225271
0.00226271
0.00227133
0.00227866
0.00228482
0.00228997
0.00229424
0.00229777
0.00230068
0.00230306
0.00230498
0.00230653
0.00230775
0.00230868
0.00230935
0.00230979
0.00231002
0.00231003
0.00230981
0.00230936
0.00230868
0.00230775
0.00230654
0.00230502
0.00230313
0.00230083
0.00229804
0.00229468
0.00229066
0.00228586
0.00228017
0.00227344
0.00226553
0.00225629
0.00224555
0.0022332
0.00221903
0.00220318
0.00218508
0.00216601
0.00214352
0.0021236
0.0020967
0.0020814
0.00206411
0.0104795
0.00631149
0.00401071
0.00303312
0.00258407
0.0023581
0.00226045
0.00222398
0.00220961
0.00220753
0.00221449
0.00222618
0.00223929
0.00225205
0.0022636
0.00227362
0.00228209
0.00228912
0.00229489
0.00229959
0.0023034
0.00230648
0.00230896
0.00231096
0.00231256
0.00231383
0.00231484
0.00231562
0.00231621
0.00231664
0.00231692
0.00231706
0.00231707
0.00231693
0.00231666
0.00231623
0.00231564
0.00231487
0.00231388
0.00231264
0.0023111
0.00230919
0.00230686
0.00230399
0.0023005
0.00229624
0.00229108
0.00228484
0.00227735
0.0022684
0.00225782
0.00224532
0.00223093
0.00221405
0.00219566
0.00217356
0.00215263
0.00212485
0.00210516
0.00208696
0.0104674
0.0064201
0.00418202
0.00314823
0.00263946
0.0023845
0.0022779
0.00224168
0.00222936
0.00222872
0.00223675
0.00224897
0.00226173
0.00227332
0.00228321
0.00229138
0.00229798
0.00230323
0.00230738
0.00231064
0.0023132
0.0023152
0.00231677
0.002318
0.00231896
0.00231971
0.00232029
0.00232074
0.00232107
0.00232131
0.00232147
0.00232156
0.00232157
0.0023215
0.00232136
0.00232113
0.00232081
0.00232039
0.00231984
0.00231913
0.00231823
0.0023171
0.00231567
0.00231387
0.00231161
0.00230878
0.00230524
0.00230082
0.00229536
0.00228861
0.00228039
0.00227037
0.00225849
0.00224413
0.00222808
0.0022083
0.00218904
0.00216336
0.00214422
0.00212796
0.0104753
0.00651917
0.00432517
0.00324671
0.00268943
0.00240914
0.00229373
0.00225748
0.00224751
0.00224855
0.00225728
0.0022693
0.002281
0.0022909
0.00229884
0.00230502
0.00230977
0.00231337
0.00231609
0.00231813
0.00231966
0.00232082
0.00232169
0.00232235
0.00232285
0.00232323
0.00232351
0.00232373
0.00232389
0.00232401
0.00232409
0.00232414
0.00232415
0.00232413
0.00232408
0.00232399
0.00232386
0.00232368
0.00232344
0.00232311
0.00232269
0.00232213
0.0023214
0.00232044
0.00231919
0.00231756
0.00231543
0.00231268
0.00230914
0.00230459
0.00229884
0.00229155
0.00228265
0.00227146
0.00225869
0.00224238
0.00222642
0.00220453
0.00218894
0.00217599
0.0104942
0.00660918
0.00444481
0.00333056
0.00273458
0.00243228
0.00230792
0.00227081
0.00226291
0.00226554
0.00227466
0.00228605
0.00229632
0.00230439
0.0023104
0.00231477
0.00231791
0.00232014
0.00232172
0.00232284
0.00232362
0.00232418
0.00232457
0.00232484
0.00232504
0.00232517
0.00232527
0.00232535
0.0023254
0.00232544
0.00232547
0.0023255
0.00232552
0.00232553
0.00232553
0.00232553
0.00232551
0.00232549
0.00232544
0.00232537
0.00232525
0.00232508
0.00232484
0.00232448
0.00232396
0.00232324
0.00232222
0.00232081
0.00231888
0.00231625
0.00231276
0.00230809
0.00230217
0.00229434
0.00228523
0.00227295
0.00226122
0.00224403
0.00223374
0.00222477
0.0105184
0.00669091
0.00454569
0.00340236
0.00277564
0.00245417
0.00232065
0.00228171
0.00227526
0.00227919
0.00228847
0.00229902
0.00230782
0.00231417
0.00231847
0.00232133
0.0023232
0.0023244
0.00232516
0.00232562
0.0023259
0.00232606
0.00232614
0.00232618
0.00232619
0.00232618
0.00232617
0.00232616
0.00232615
0.00232615
0.00232616
0.00232617
0.00232619
0.00232621
0.00232625
0.00232629
0.00232635
0.00232641
0.00232648
0.00232656
0.00232663
0.00232671
0.00232677
0.0023268
0.00232678
0.00232668
0.00232645
0.00232603
0.00232534
0.00232425
0.00232263
0.00232023
0.00231701
0.00231235
0.00230688
0.00229874
0.00229162
0.00227953
0.00227544
0.00227078
0.0105446
0.00676515
0.00463202
0.00346477
0.00281336
0.00247503
0.0023322
0.00229049
0.00228477
0.00228967
0.00229894
0.0023086
0.00231605
0.00232092
0.00232386
0.00232556
0.00232649
0.00232696
0.00232715
0.00232719
0.00232715
0.00232706
0.00232696
0.00232685
0.00232676
0.00232667
0.0023266
0.00232655
0.00232651
0.00232648
0.00232647
0.00232648
0.0023265
0.00232653
0.00232658
0.00232665
0.00232674
0.00232685
0.00232699
0.00232715
0.00232733
0.00232755
0.00232779
0.00232806
0.00232835
0.00232865
0.00232895
0.00232922
0.00232941
0.00232945
0.00232928
0.0023287
0.00232775
0.00232585
0.0023237
0.00231949
0.00231695
0.00230999
0.00231236
0.00231215
0.0105707
0.00683256
0.00470724
0.00352008
0.00284843
0.00249501
0.00234281
0.00229756
0.00229193
0.00229744
0.00230657
0.00231541
0.00232173
0.00232542
0.00232733
0.00232818
0.00232845
0.00232843
0.00232826
0.00232803
0.00232779
0.00232757
0.00232736
0.00232718
0.00232703
0.0023269
0.0023268
0.00232672
0.00232666
0.00232662
0.00232661
0.00232661
0.00232663
0.00232667
0.00232673
0.00232681
0.00232692
0.00232705
0.00232722
0.00232742
0.00232767
0.00232796
0.0023283
0.00232871
0.00232918
0.00232973
0.00233036
0.00233107
0.00233185
0.00233269
0.00233356
0.00233436
0.00233518
0.00233555
0.00233624
0.00233552
0.00233723
0.00233514
0.00234382
0.00234802
0.0105953
0.0068937
0.00477393
0.00357012
0.00288137
0.0025142
0.00235268
0.00230335
0.00229725
0.00230308
0.002312
0.00232012
0.00232552
0.00232833
0.00232948
0.00232974
0.00232958
0.00232925
0.00232885
0.00232847
0.00232812
0.00232781
0.00232755
0.00232733
0.00232714
0.002327
0.00232688
0.00232679
0.00232672
0.00232668
0.00232666
0.00232666
0.00232668
0.00232672
0.00232678
0.00232687
0.00232699
0.00232714
0.00232732
0.00232754
0.00232782
0.00232815
0.00232855
0.00232903
0.0023296
0.00233029
0.00233112
0.0023321
0.00233326
0.00233462
0.00233622
0.00233799
0.00234014
0.00234226
0.00234526
0.00234749
0.00235293
0.00235524
0.00236976
0.00237819
0.010618
0.00694903
0.0048339
0.00361614
0.00291256
0.00253267
0.00236198
0.00230821
0.00230122
0.00230714
0.0023158
0.00232331
0.002328
0.00233017
0.00233079
0.00233066
0.00233022
0.00232969
0.00232916
0.00232869
0.00232827
0.00232792
0.00232763
0.00232739
0.00232719
0.00232703
0.00232691
0.00232681
0.00232674
0.0023267
0.00232667
0.00232667
0.00232669
0.00232674
0.0023268
0.00232689
0.00232701
0.00232717
0.00232736
0.00232759
0.00232788
0.00232823
0.00232866
0.00232918
0.00232981
0.00233058
0.00233151
0.00233265
0.00233405
0.00233573
0.0023378
0.00234025
0.00234333
0.00234677
0.00235155
0.00235614
0.00236472
0.00237084
0.00239053
0.0024029
0.0106383
0.00699892
0.00488838
0.00365898
0.00294221
0.00255043
0.00237081
0.00231241
0.00230424
0.00231007
0.00231845
0.00232546
0.00232961
0.00233131
0.00233158
0.00233119
0.00233057
0.00232992
0.00232932
0.00232879
0.00232834
0.00232797
0.00232766
0.00232741
0.00232721
0.00232704
0.00232691
0.00232682
0.00232674
0.0023267
0.00232667
0.00232667
0.00232669
0.00232674
0.0023268
0.0023269
0.00232702
0.00232717
0.00232737
0.00232761
0.0023279
0.00232826
0.0023287
0.00232924
0.0023299
0.00233071
0.00233171
0.00233294
0.00233447
0.00233635
0.00233872
0.00234161
0.00234533
0.0023497
0.0023558
0.00236223
0.00237333
0.00238264
0.00240673
0.00242262
0.0106563
0.00704373
0.00493813
0.00369908
0.00297041
0.00256747
0.00237925
0.00231616
0.00230661
0.00231223
0.00232034
0.00232691
0.00233065
0.00233203
0.00233205
0.0023315
0.00233077
0.00233004
0.0023294
0.00232884
0.00232837
0.00232799
0.00232767
0.00232742
0.00232721
0.00232704
0.00232691
0.00232681
0.00232674
0.00232669
0.00232667
0.00232667
0.00232669
0.00232673
0.0023268
0.00232689
0.00232702
0.00232717
0.00232737
0.00232761
0.00232791
0.00232827
0.00232872
0.00232927
0.00232994
0.00233077
0.00233181
0.00233309
0.00233469
0.00233669
0.00233924
0.00234241
0.00234655
0.00235156
0.0023586
0.00236641
0.00237947
0.00239134
0.00241905
0.00243801
0.0106719
0.00708379
0.00498365
0.00373666
0.00299718
0.00258378
0.00238734
0.00231962
0.00230855
0.00231388
0.00232171
0.00232793
0.00233135
0.00233248
0.00233235
0.00233168
0.00233088
0.00233011
0.00232944
0.00232886
0.00232839
0.002328
0.00232768
0.00232741
0.0023272
0.00232704
0.00232691
0.00232681
0.00232673
0.00232669
0.00232666
0.00232666
0.00232668
0.00232672
0.00232679
0.00232689
0.00232701
0.00232717
0.00232736
0.00232761
0.0023279
0.00232827
0.00232872
0.00232928
0.00232996
0.0023308
0.00233185
0.00233316
0.00233481
0.00233687
0.00233953
0.00234287
0.00234729
0.00235271
0.00236042
0.00236921
0.00238375
0.00239762
0.00242821
0.00244974
0.0106854
0.00711944
0.00502522
0.00377181
0.0030225
0.00259933
0.00239512
0.00232286
0.00231022
0.00231521
0.00232277
0.00232867
0.00233183
0.00233279
0.00233254
0.00233179
0.00233095
0.00233015
0.00232946
0.00232887
0.00232839
0.002328
0.00232767
0.00232741
0.0023272
0.00232703
0.0023269
0.0023268
0.00232673
0.00232668
0.00232665
0.00232665
0.00232667
0.00232672
0.00232678
0.00232688
0.002327
0.00232716
0.00232736
0.0023276
0.0023279
0.00232827
0.00232872
0.00232928
0.00232996
0.00233081
0.00233187
0.00233319
0.00233486
0.00233697
0.00233969
0.00234313
0.00234772
0.00235342
0.00236157
0.00237106
0.00238668
0.00240205
0.00243485
0.00245848
0.0106969
0.00715101
0.00506309
0.00380453
0.00304633
0.0026141
0.0024026
0.00232598
0.00231173
0.00231633
0.00232364
0.00232925
0.00233219
0.00233301
0.00233267
0.00233187
0.00233099
0.00233017
0.00232947
0.00232888
0.00232839
0.00232799
0.00232767
0.00232741
0.00232719
0.00232702
0.00232689
0.00232679
0.00232672
0.00232667
0.00232665
0.00232665
0.00232667
0.00232671
0.00232678
0.00232687
0.00232699
0.00232715
0.00232735
0.00232759
0.00232789
0.00232826
0.00232872
0.00232927
0.00232996
0.00233081
0.00233188
0.00233321
0.00233489
0.00233702
0.00233978
0.00234328
0.00234797
0.00235385
0.00236229
0.00237226
0.00238864
0.00240512
0.00243956
0.00246485
0.0107066
0.00717886
0.00509743
0.00383484
0.00306865
0.00262807
0.0024098
0.002329
0.00231313
0.00231733
0.00232438
0.00232974
0.00233249
0.00233319
0.00233277
0.00233193
0.00233103
0.00233019
0.00232948
0.00232888
0.00232839
0.00232799
0.00232766
0.0023274
0.00232719
0.00232702
0.00232688
0.00232678
0.00232671
0.00232666
0.00232664
0.00232664
0.00232666
0.0023267
0.00232677
0.00232686
0.00232699
0.00232715
0.00232734
0.00232759
0.00232789
0.00232826
0.00232871
0.00232927
0.00232996
0.00233082
0.00233188
0.00233322
0.00233491
0.00233705
0.00233983
0.00234337
0.00234812
0.00235411
0.00236273
0.00237303
0.00238994
0.00240721
0.00244282
0.00246937
0.0107149
0.00720333
0.00512843
0.00386275
0.00308945
0.00264125
0.00241671
0.00233196
0.00231449
0.00231825
0.00232506
0.00233017
0.00233274
0.00233334
0.00233286
0.00233199
0.00233105
0.00233021
0.00232949
0.00232888
0.00232839
0.00232799
0.00232766
0.00232739
0.00232718
0.00232701
0.00232688
0.00232678
0.0023267
0.00232666
0.00232663
0.00232663
0.00232665
0.00232669
0.00232676
0.00232686
0.00232698
0.00232714
0.00232734
0.00232758
0.00232788
0.00232825
0.00232871
0.00232927
0.00232996
0.00233081
0.00233188
0.00233322
0.00233492
0.00233707
0.00233986
0.00234342
0.00234821
0.00235427
0.00236302
0.00237352
0.00239078
0.0024086
0.00244502
0.0024725
0.0107217
0.00722475
0.0051563
0.00388832
0.00310874
0.00265365
0.00242334
0.00233488
0.00231582
0.00231914
0.0023257
0.00233058
0.00233298
0.00233348
0.00233295
0.00233203
0.00233108
0.00233022
0.00232949
0.00232889
0.00232839
0.00232798
0.00232766
0.00232739
0.00232718
0.002327
0.00232687
0.00232677
0.0023267
0.00232665
0.00232662
0.00232662
0.00232664
0.00232669
0.00232676
0.00232685
0.00232697
0.00232713
0.00232733
0.00232757
0.00232788
0.00232825
0.0023287
0.00232926
0.00232995
0.00233081
0.00233188
0.00233323
0.00233493
0.00233709
0.00233988
0.00234346
0.00234827
0.00235438
0.0023632
0.00237383
0.00239133
0.00240952
0.00244646
0.00247459
0.0107274
0.00724347
0.00518124
0.00391164
0.0031266
0.00266529
0.00242971
0.00233776
0.00231715
0.00232
0.00232633
0.00233097
0.00233322
0.00233362
0.00233303
0.00233208
0.00233111
0.00233024
0.0023295
0.00232889
0.00232839
0.00232798
0.00232765
0.00232738
0.00232717
0.002327
0.00232687
0.00232676
0.00232669
0.00232664
0.00232662
0.00232662
0.00232664
0.00232668
0.00232675
0.00232684
0.00232697
0.00232713
0.00232732
0.00232757
0.00232787
0.00232824
0.0023287
0.00232926
0.00232995
0.00233081
0.00233188
0.00233323
0.00233493
0.0023371
0.0023399
0.00234348
0.00234832
0.00235445
0.00236332
0.00237404
0.00239169
0.00241011
0.00244736
0.00247594
0.0107322
0.00725979
0.00520351
0.00393282
0.00314308
0.0026762
0.00243582
0.0023406
0.00231849
0.00232087
0.00232694
0.00233137
0.00233345
0.00233375
0.00233311
0.00233213
0.00233114
0.00233025
0.00232951
0.00232889
0.00232839
0.00232798
0.00232765
0.00232738
0.00232716
0.00232699
0.00232686
0.00232676
0.00232668
0.00232664
0.00232661
0.00232661
0.00232663
0.00232667
0.00232674
0.00232684
0.00232696
0.00232712
0.00232732
0.00232756
0.00232787
0.00232824
0.00232869
0.00232925
0.00232995
0.00233081
0.00233188
0.00233323
0.00233494
0.0023371
0.00233991
0.00234351
0.00234835
0.0023545
0.0023634
0.00237418
0.00239192
0.00241049
0.0024479
0.00247675
0.010736
0.00727399
0.00522333
0.00395202
0.00315824
0.00268643
0.00244168
0.00234342
0.00231984
0.00232173
0.00232756
0.00233176
0.00233368
0.00233389
0.00233319
0.00233218
0.00233116
0.00233027
0.00232951
0.00232889
0.00232839
0.00232798
0.00232764
0.00232738
0.00232716
0.00232699
0.00232685
0.00232675
0.00232668
0.00232663
0.00232661
0.0023266
0.00232662
0.00232667
0.00232674
0.00232683
0.00232695
0.00232711
0.00232731
0.00232756
0.00232786
0.00232823
0.00232869
0.00232925
0.00232995
0.00233081
0.00233188
0.00233323
0.00233494
0.00233711
0.00233993
0.00234352
0.00234838
0.00235454
0.00236346
0.00237428
0.00239208
0.00241072
0.00244819
0.00247718
0.0107392
0.00728635
0.00524095
0.00396939
0.00317217
0.00269601
0.0024473
0.00234621
0.0023212
0.0023226
0.00232817
0.00233216
0.00233392
0.00233403
0.00233327
0.00233222
0.00233119
0.00233028
0.00232952
0.0023289
0.00232839
0.00232797
0.00232764
0.00232737
0.00232715
0.00232698
0.00232685
0.00232675
0.00232667
0.00232662
0.0023266
0.0023266
0.00232662
0.00232666
0.00232673
0.00232682
0.00232695
0.00232711
0.00232731
0.00232755
0.00232786
0.00232823
0.00232868
0.00232925
0.00232994
0.00233081
0.00233188
0.00233323
0.00233495
0.00233712
0.00233994
0.00234354
0.0023484
0.00235458
0.00236352
0.00237436
0.00239219
0.00241087
0.00244832
0.00247737
0.0107418
0.00729712
0.00525661
0.00398509
0.00318496
0.00270499
0.0024527
0.00234896
0.00232259
0.00232348
0.00232879
0.00233256
0.00233417
0.00233417
0.00233335
0.00233227
0.00233122
0.0023303
0.00232953
0.0023289
0.00232839
0.00232797
0.00232764
0.00232737
0.00232715
0.00232698
0.00232684
0.00232674
0.00232667
0.00232662
0.00232659
0.00232659
0.00232661
0.00232666
0.00232672
0.00232682
0.00232694
0.0023271
0.0023273
0.00232755
0.00232785
0.00232822
0.00232868
0.00232924
0.00232994
0.00233081
0.00233188
0.00233324
0.00233495
0.00233713
0.00233995
0.00234356
0.00234843
0.00235461
0.00236356
0.00237442
0.00239226
0.00241096
0.00244835
0.00247739
0.0107439
0.00730649
0.00527052
0.00399929
0.00319674
0.00271341
0.00245788
0.00235169
0.00232399
0.00232437
0.00232942
0.00233297
0.00233441
0.00233432
0.00233344
0.00233232
0.00233125
0.00233031
0.00232954
0.0023289
0.00232839
0.00232797
0.00232763
0.00232736
0.00232715
0.00232697
0.00232684
0.00232674
0.00232666
0.00232661
0.00232659
0.00232659
0.00232661
0.00232665
0.00232672
0.00232681
0.00232694
0.0023271
0.0023273
0.00232754
0.00232785
0.00232822
0.00232868
0.00232924
0.00232994
0.0023308
0.00233188
0.00233324
0.00233495
0.00233713
0.00233996
0.00234357
0.00234845
0.00235464
0.0023636
0.00237447
0.00239232
0.00241101
0.00244831
0.0024773
0.0107455
0.00731468
0.00528291
0.00401215
0.0032076
0.00272133
0.00246286
0.00235439
0.00232541
0.00232527
0.00233006
0.00233339
0.00233467
0.00233447
0.00233353
0.00233237
0.00233127
0.00233033
0.00232954
0.00232891
0.00232839
0.00232797
0.00232763
0.00232736
0.00232714
0.00232697
0.00232683
0.00232673
0.00232666
0.00232661
0.00232658
0.00232658
0.0023266
0.00232665
0.00232671
0.00232681
0.00232693
0.00232709
0.00232729
0.00232754
0.00232784
0.00232822
0.00232867
0.00232924
0.00232994
0.0023308
0.00233188
0.00233324
0.00233496
0.00233714
0.00233997
0.00234359
0.00234846
0.00235467
0.00236363
0.00237451
0.00239236
0.00241104
0.00244824
0.00247715
0.0107469
0.00732184
0.00529396
0.00402383
0.00321763
0.00272879
0.00246765
0.00235706
0.00232685
0.00232619
0.0023307
0.00233381
0.00233492
0.00233462
0.00233362
0.00233242
0.0023313
0.00233034
0.00232955
0.00232891
0.00232839
0.00232797
0.00232763
0.00232736
0.00232714
0.00232696
0.00232683
0.00232673
0.00232665
0.0023266
0.00232658
0.00232658
0.0023266
0.00232664
0.00232671
0.0023268
0.00232693
0.00232709
0.00232729
0.00232753
0.00232784
0.00232821
0.00232867
0.00232924
0.00232994
0.0023308
0.00233188
0.00233324
0.00233496
0.00233714
0.00233998
0.0023436
0.00234848
0.00235469
0.00236366
0.00237455
0.0023924
0.00241106
0.00244815
0.00247696
0.0107479
0.00732813
0.00530385
0.00403445
0.00322693
0.00273583
0.00247227
0.00235969
0.0023283
0.00232712
0.00233135
0.00233423
0.00233518
0.00233478
0.00233371
0.00233248
0.00233133
0.00233036
0.00232956
0.00232891
0.00232839
0.00232797
0.00232763
0.00232735
0.00232713
0.00232696
0.00232683
0.00232672
0.00232665
0.0023266
0.00232657
0.00232657
0.00232659
0.00232664
0.00232671
0.0023268
0.00232693
0.00232708
0.00232728
0.00232753
0.00232783
0.00232821
0.00232867
0.00232923
0.00232993
0.0023308
0.00233188
0.00233324
0.00233496
0.00233715
0.00233998
0.00234361
0.0023485
0.00235471
0.00236369
0.00237458
0.00239243
0.00241107
0.00244804
0.00247676
0.0107487
0.00733368
0.00531274
0.00404416
0.00323558
0.00274249
0.00247671
0.00236228
0.00232977
0.00232805
0.002332
0.00233466
0.00233545
0.00233493
0.0023338
0.00233253
0.00233136
0.00233038
0.00232957
0.00232892
0.00232839
0.00232797
0.00232763
0.00232735
0.00232713
0.00232696
0.00232682
0.00232672
0.00232664
0.0023266
0.00232657
0.00232657
0.00232659
0.00232663
0.0023267
0.0023268
0.00232692
0.00232708
0.00232728
0.00232753
0.00232783
0.00232821
0.00232867
0.00232923
0.00232993
0.0023308
0.00233188
0.00233324
0.00233497
0.00233715
0.00233999
0.00234362
0.00234851
0.00235474
0.00236372
0.00237461
0.00239246
0.00241107
0.00244794
0.00247655
0.0107493
0.0073386
0.00532076
0.00405307
0.00324365
0.00274881
0.002481
0.00236484
0.00233124
0.00232901
0.00233266
0.0023351
0.00233572
0.00233509
0.00233389
0.00233258
0.00233139
0.00233039
0.00232958
0.00232892
0.00232839
0.00232797
0.00232762
0.00232735
0.00232713
0.00232695
0.00232682
0.00232672
0.00232664
0.00232659
0.00232657
0.00232657
0.00232659
0.00232663
0.0023267
0.00232679
0.00232692
0.00232708
0.00232728
0.00232752
0.00232783
0.0023282
0.00232866
0.00232923
0.00232993
0.0023308
0.00233188
0.00233324
0.00233497
0.00233716
0.00234
0.00234363
0.00234853
0.00235475
0.00236374
0.00237464
0.00239248
0.00241107
0.00244784
0.00247635
0.0107498
0.00734298
0.00532803
0.00406128
0.00325122
0.00275482
0.00248514
0.00236737
0.00233272
0.00232997
0.00233333
0.00233554
0.00233599
0.00233525
0.00233399
0.00233264
0.00233142
0.00233041
0.00232959
0.00232892
0.00232839
0.00232797
0.00232762
0.00232735
0.00232713
0.00232695
0.00232682
0.00232671
0.00232664
0.00232659
0.00232656
0.00232656
0.00232658
0.00232663
0.00232669
0.00232679
0.00232691
0.00232707
0.00232727
0.00232752
0.00232783
0.0023282
0.00232866
0.00232923
0.00232993
0.0023308
0.00233188
0.00233324
0.00233497
0.00233716
0.00234
0.00234364
0.00234854
0.00235477
0.00236376
0.00237467
0.0023925
0.00241107
0.00244775
0.00247616
0.0107501
0.00734691
0.00533468
0.00406889
0.00325834
0.00276055
0.00248915
0.00236986
0.00233421
0.00233094
0.002334
0.00233598
0.00233626
0.00233542
0.00233408
0.00233269
0.00233145
0.00233043
0.0023296
0.00232893
0.00232839
0.00232797
0.00232762
0.00232735
0.00232712
0.00232695
0.00232681
0.00232671
0.00232663
0.00232659
0.00232656
0.00232656
0.00232658
0.00232662
0.00232669
0.00232679
0.00232691
0.00232707
0.00232727
0.00232752
0.00232782
0.0023282
0.00232866
0.00232923
0.00232993
0.0023308
0.00233188
0.00233325
0.00233497
0.00233716
0.00234001
0.00234365
0.00234855
0.00235479
0.00236378
0.00237469
0.00239252
0.00241107
0.00244766
0.00247599
0.0107504
0.00735047
0.00534077
0.00407598
0.00326506
0.00276604
0.00249304
0.00237232
0.00233571
0.00233192
0.00233468
0.00233643
0.00233654
0.00233558
0.00233418
0.00233274
0.00233148
0.00233044
0.00232961
0.00232893
0.0023284
0.00232797
0.00232762
0.00232734
0.00232712
0.00232695
0.00232681
0.00232671
0.00232663
0.00232658
0.00232656
0.00232656
0.00232658
0.00232662
0.00232669
0.00232678
0.00232691
0.00232707
0.00232727
0.00232752
0.00232782
0.0023282
0.00232866
0.00232922
0.00232993
0.0023308
0.00233188
0.00233325
0.00233498
0.00233717
0.00234001
0.00234366
0.00234856
0.0023548
0.0023638
0.00237471
0.00239254
0.00241107
0.00244758
0.00247583
0.0107506
0.0073537
0.00534641
0.00408263
0.00327145
0.00277131
0.00249682
0.00237475
0.00233722
0.00233291
0.00233536
0.00233688
0.00233682
0.00233575
0.00233427
0.0023328
0.00233152
0.00233046
0.00232961
0.00232894
0.0023284
0.00232797
0.00232762
0.00232734
0.00232712
0.00232695
0.00232681
0.0023267
0.00232663
0.00232658
0.00232656
0.00232655
0.00232657
0.00232662
0.00232669
0.00232678
0.00232691
0.00232707
0.00232727
0.00232751
0.00232782
0.00232819
0.00232866
0.00232922
0.00232993
0.0023308
0.00233188
0.00233325
0.00233498
0.00233717
0.00234002
0.00234366
0.00234857
0.00235481
0.00236381
0.00237473
0.00239255
0.00241107
0.00244751
0.00247569
0.0107507
0.00735666
0.00535166
0.00408889
0.00327754
0.00277638
0.0025005
0.00237716
0.00233873
0.00233392
0.00233605
0.00233734
0.0023371
0.00233591
0.00233437
0.00233285
0.00233155
0.00233048
0.00232962
0.00232894
0.0023284
0.00232797
0.00232762
0.00232734
0.00232712
0.00232694
0.00232681
0.0023267
0.00232663
0.00232658
0.00232655
0.00232655
0.00232657
0.00232662
0.00232668
0.00232678
0.00232691
0.00232706
0.00232726
0.00232751
0.00232782
0.00232819
0.00232865
0.00232922
0.00232992
0.0023308
0.00233188
0.00233325
0.00233498