/*--------------------------------*- C++ -*----------------------------------*\
| =========                 |                                                 |
| \\      /  F ield         | OpenFOAM: The Open Source CFD Toolbox           |
|  \\    /   O peration     | Version:  2.4.0                                 |
|   \\  /    A nd           | Web:      www.OpenFOAM.org                      |
|    \\/     M anipulation  |                                                 |
\*---------------------------------------------------------------------------*/
FoamFile
{
    version     2.0;
    format      ascii;
    class       volVectorField;
    location    "350";
    object      U;
}
// * * * * * * * * * * * * * * * * * * * * * * * * * * * * * * * * * * * * * //

dimensions      [0 1 -1 0 0 0 0];

internalField   nonuniform List<vector> 
10000
(
(0.999999 4.59206e-07 0)
(0.999978 1.21646e-06 0)
(0.999944 1.97736e-06 0)
(0.999898 2.7789e-06 0)
(0.999844 3.65572e-06 0)
(0.999782 4.64013e-06 0)
(0.999713 5.76243e-06 0)
(0.999637 7.068e-06 0)
(0.999556 8.59077e-06 0)
(0.999468 1.04094e-05 0)
(0.999374 1.25529e-05 0)
(0.999274 1.51794e-05 0)
(0.999167 1.82147e-05 0)
(0.999054 2.20101e-05 0)
(0.99893 2.55884e-05 0)
(0.998813 2.95543e-05 0)
(0.998674 2.55282e-05 0)
(0.998632 1.44378e-05 0)
(0.998473 -8.41307e-05 0)
(0.999146 0.00109273 0)
(0.999999 1.38689e-06 0)
(0.999978 3.6792e-06 0)
(0.999944 5.98171e-06 0)
(0.999898 8.40723e-06 0)
(0.999844 1.10596e-05 0)
(0.999782 1.40369e-05 0)
(0.999713 1.74305e-05 0)
(0.999638 2.1376e-05 0)
(0.999556 2.59775e-05 0)
(0.999469 3.14664e-05 0)
(0.999375 3.79398e-05 0)
(0.999276 4.58503e-05 0)
(0.999169 5.50427e-05 0)
(0.999057 6.64871e-05 0)
(0.998933 7.7938e-05 0)
(0.998811 9.14482e-05 0)
(0.998659 9.04277e-05 0)
(0.998528 8.70554e-05 0)
(0.998188 -1.97402e-05 0)
(0.997816 0.000236067 0)
(0.999999 2.33624e-06 0)
(0.999978 6.20459e-06 0)
(0.999944 1.00885e-05 0)
(0.999899 1.41798e-05 0)
(0.999844 1.86515e-05 0)
(0.999782 2.36688e-05 0)
(0.999713 2.93848e-05 0)
(0.999638 3.60244e-05 0)
(0.999557 4.37639e-05 0)
(0.999471 5.29779e-05 0)
(0.999378 6.38468e-05 0)
(0.999279 7.70748e-05 0)
(0.999173 9.25533e-05 0)
(0.999063 0.000111741 0)
(0.99894 0.000132408 0)
(0.998816 0.000158435 0)
(0.998663 0.000178068 0)
(0.998508 0.000222007 0)
(0.998238 0.000277274 0)
(0.997983 0.000709637 0)
(0.999999 3.31217e-06 0)
(0.999979 8.7976e-06 0)
(0.999944 1.43035e-05 0)
(0.999899 2.01021e-05 0)
(0.999845 2.64368e-05 0)
(0.999783 3.35404e-05 0)
(0.999714 4.16277e-05 0)
(0.99964 5.10106e-05 0)
(0.999559 6.19372e-05 0)
(0.999473 7.4916e-05 0)
(0.999381 9.02128e-05 0)
(0.999284 0.000108755 0)
(0.99918 0.000130536 0)
(0.999072 0.000157449 0)
(0.998953 0.000187769 0)
(0.998831 0.000226836 0)
(0.998687 0.000268193 0)
(0.998537 0.000344422 0)
(0.998339 0.000462508 0)
(0.998172 0.000799328 0)
(0.999999 4.31321e-06 0)
(0.999979 1.14564e-05 0)
(0.999944 1.86239e-05 0)
(0.999899 2.61698e-05 0)
(0.999845 3.44082e-05 0)
(0.999784 4.36394e-05 0)
(0.999716 5.41385e-05 0)
(0.999642 6.63012e-05 0)
(0.999562 8.04435e-05 0)
(0.999477 9.71947e-05 0)
(0.999386 0.000116902 0)
(0.999291 0.000140674 0)
(0.99919 0.000168635 0)
(0.999085 0.000202982 0)
(0.998972 0.000242644 0)
(0.998855 0.000293489 0)
(0.998725 0.000352602 0)
(0.998592 0.000445914 0)
(0.998449 0.000579299 0)
(0.99834 0.000830267 0)
(0.999999 5.33876e-06 0)
(0.999979 1.41799e-05 0)
(0.999944 2.30476e-05 0)
(0.9999 3.2379e-05 0)
(0.999846 4.25589e-05 0)
(0.999785 5.39536e-05 0)
(0.999717 6.68971e-05 0)
(0.999644 8.18626e-05 0)
(0.999565 9.92287e-05 0)
(0.999481 0.000119727 0)
(0.999393 0.000143775 0)
(0.9993 0.000172611 0)
(0.999202 0.000206485 0)
(0.999101 0.000247717 0)
(0.998995 0.000295795 0)
(0.998887 0.000356208 0)
(0.998772 0.000427778 0)
(0.99866 0.000528047 0)
(0.998553 0.000659257 0)
(0.998481 0.000851913 0)
(0.999999 6.38849e-06 0)
(0.999979 1.69671e-05 0)
(0.999945 2.75726e-05 0)
(0.9999 3.87256e-05 0)
(0.999847 5.08813e-05 0)
(0.999786 6.44701e-05 0)
(0.999719 7.98816e-05 0)
(0.999647 9.76586e-05 0)
(0.999569 0.000118235 0)
(0.999487 0.00014242 0)
(0.999401 0.000170689 0)
(0.999311 0.000204342 0)
(0.999217 0.000243725 0)
(0.999121 0.000291091 0)
(0.999023 0.000346281 0)
(0.998924 0.000413816 0)
(0.998825 0.000493114 0)
(0.998733 0.00059467 0)
(0.998653 0.000718159 0)
(0.998604 0.000873158 0)
(0.999999 7.46205e-06 0)
(0.999979 1.98168e-05 0)
(0.999945 3.21963e-05 0)
(0.999901 4.52048e-05 0)
(0.999848 5.93667e-05 0)
(0.999788 7.51736e-05 0)
(0.999722 9.30669e-05 0)
(0.99965 0.000113649 0)
(0.999574 0.000137398 0)
(0.999494 0.000165176 0)
(0.99941 0.000197494 0)
(0.999323 0.000235645 0)
(0.999234 0.00028002 0)
(0.999144 0.000332636 0)
(0.999054 0.000393463 0)
(0.998966 0.000465796 0)
(0.998882 0.000548994 0)
(0.998807 0.00064838 0)
(0.998747 0.00076194 0)
(0.998713 0.000890377 0)
(0.999999 8.5589e-06 0)
(0.999979 2.27275e-05 0)
(0.999945 3.69153e-05 0)
(0.999901 5.18103e-05 0)
(0.999849 6.80045e-05 0)
(0.99979 8.60469e-05 0)
(0.999724 0.000106425 0)
(0.999654 0.00012979 0)
(0.99958 0.000156652 0)
(0.999502 0.000187895 0)
(0.99942 0.00022404 0)
(0.999338 0.00026631 0)
(0.999254 0.000315076 0)
(0.99917 0.000371993 0)
(0.999088 0.000436975 0)
(0.999011 0.00051207 0)
(0.99894 0.000596296 0)
(0.998879 0.000691525 0)
(0.998835 0.000794872 0)
(0.99881 0.000903862 0)
(0.999999 9.67837e-06 0)
(0.999979 2.5697e-05 0)
(0.999946 4.17257e-05 0)
(0.999902 5.85351e-05 0)
(0.99985 7.67827e-05 0)
(0.999792 9.70702e-05 0)
(0.999728 0.000119925 0)
(0.999659 0.000146033 0)
(0.999586 0.000175924 0)
(0.99951 0.000210473 0)
(0.999432 0.00025018 0)
(0.999354 0.000296142 0)
(0.999275 0.000348645 0)
(0.999198 0.000408913 0)
(0.999125 0.000476668 0)
(0.999057 0.000552854 0)
(0.998998 0.000636095 0)
(0.998949 0.000726181 0)
(0.998915 0.000819997 0)
(0.998897 0.000914374 0)
(0.999999 1.08196e-05 0)
(0.999979 2.8723e-05 0)
(0.999946 4.66227e-05 0)
(0.999903 6.53709e-05 0)
(0.999852 8.56877e-05 0)
(0.999794 0.000108222 0)
(0.999731 0.000133533 0)
(0.999664 0.000162329 0)
(0.999593 0.000195139 0)
(0.99952 0.000232805 0)
(0.999446 0.000275774 0)
(0.999371 0.000324969 0)
(0.999298 0.000380539 0)
(0.999228 0.000443245 0)
(0.999162 0.000512561 0)
(0.999104 0.000588531 0)
(0.999054 0.000669474 0)
(0.999016 0.000754066 0)
(0.99899 0.000839358 0)
(0.998977 0.000922443 0)
(0.999999 1.19817e-05 0)
(0.99998 3.18026e-05 0)
(0.999947 5.16008e-05 0)
(0.999904 7.23083e-05 0)
(0.999854 9.47042e-05 0)
(0.999797 0.000119478 0)
(0.999735 0.000147213 0)
(0.99967 0.000178623 0)
(0.999601 0.000214224 0)
(0.999531 0.000254791 0)
(0.99946 0.000300695 0)
(0.99939 0.000352644 0)
(0.999323 0.000410619 0)
(0.999259 0.000474928 0)
(0.999201 0.000544784 0)
(0.999151 0.000619567 0)
(0.99911 0.000697419 0)
(0.999079 0.000776537 0)
(0.999059 0.000854331 0)
(0.99905 0.00092844 0)
(0.999999 1.31634e-05 0)
(0.99998 3.49325e-05 0)
(0.999947 5.66537e-05 0)
(0.999905 7.93366e-05 0)
(0.999856 0.000103815 0)
(0.9998 0.000130812 0)
(0.99974 0.000160927 0)
(0.999676 0.000194861 0)
(0.99961 0.000233103 0)
(0.999543 0.000276334 0)
(0.999476 0.000324825 0)
(0.999411 0.00037905 0)
(0.999349 0.000438798 0)
(0.999291 0.000503967 0)
(0.99924 0.00057354 0)
(0.999198 0.000646447 0)
(0.999164 0.000720785 0)
(0.999139 0.000794651 0)
(0.999124 0.000865881 0)
(0.999117 0.000932674 0)
(0.999999 1.43635e-05 0)
(0.99998 3.81087e-05 0)
(0.999948 6.17743e-05 0)
(0.999907 8.6444e-05 0)
(0.999858 0.000113002 0)
(0.999804 0.000142196 0)
(0.999745 0.000174633 0)
(0.999683 0.000210987 0)
(0.99962 0.0002517 0)
(0.999556 0.000297343 0)
(0.999493 0.000348063 0)
(0.999432 0.000404096 0)
(0.999375 0.000465032 0)
(0.999324 0.000530423 0)
(0.99928 0.00059907 0)
(0.999243 0.000669642 0)
(0.999215 0.000740291 0)
(0.999196 0.000809227 0)
(0.999184 0.000874704 0)
(0.999179 0.000935407 0)
(0.999999 1.55804e-05 0)
(0.99998 4.13271e-05 0)
(0.999949 6.69545e-05 0)
(0.999908 9.36173e-05 0)
(0.999861 0.000122245 0)
(0.999807 0.000153601 0)
(0.99975 0.000188289 0)
(0.999691 0.000226944 0)
(0.99963 0.000269945 0)
(0.999569 0.000317734 0)
(0.99951 0.000370325 0)
(0.999454 0.000427717 0)
(0.999403 0.000489314 0)
(0.999357 0.000554391 0)
(0.999319 0.00062163 0)
(0.999288 0.000689583 0)
(0.999265 0.000756534 0)
(0.999249 0.000820901 0)
(0.999241 0.00088132 0)
(0.999237 0.000936861 0)
(0.999999 1.68124e-05 0)
(0.999981 4.45826e-05 0)
(0.99995 7.21854e-05 0)
(0.99991 0.000100842 0)
(0.999863 0.000131521 0)
(0.999811 0.000164996 0)
(0.999756 0.000201854 0)
(0.999699 0.000242676 0)
(0.999641 0.000287768 0)
(0.999584 0.000337432 0)
(0.999529 0.000391541 0)
(0.999477 0.000449871 0)
(0.999431 0.000511667 0)
(0.999391 0.000575993 0)
(0.999357 0.000641478 0)
(0.999331 0.000706661 0)
(0.999312 0.000770004 0)
(0.9993 0.000830168 0)
(0.999294 0.000886117 0)
(0.999292 0.000937219 0)
(0.999999 1.80575e-05 0)
(0.999981 4.78699e-05 0)
(0.999951 7.74573e-05 0)
(0.999912 0.000108104 0)
(0.999866 0.000140809 0)
(0.999816 0.000176347 0)
(0.999763 0.000215281 0)
(0.999708 0.000258128 0)
(0.999653 0.000305105 0)
(0.999599 0.000356371 0)
(0.999548 0.000411656 0)
(0.999501 0.000470541 0)
(0.999459 0.000532135 0)
(0.999424 0.000595366 0)
(0.999395 0.000658859 0)
(0.999373 0.000721219 0)
(0.999358 0.000781102 0)
(0.999348 0.000837416 0)
(0.999344 0.000889394 0)
(0.999343 0.000936633 0)
(0.999999 1.93137e-05 0)
(0.999981 5.1183e-05 0)
(0.999952 8.27596e-05 0)
(0.999914 0.000115384 0)
(0.999869 0.000150083 0)
(0.999821 0.000187622 0)
(0.999769 0.000228529 0)
(0.999717 0.000273245 0)
(0.999665 0.000321896 0)
(0.999615 0.000374492 0)
(0.999567 0.000430632 0)
(0.999525 0.000489725 0)
(0.999487 0.000550781 0)
(0.999456 0.000612652 0)
(0.999432 0.000674005 0)
(0.999414 0.000733554 0)
(0.999401 0.000790159 0)
(0.999394 0.000842951 0)
(0.999391 0.000891383 0)
(0.999391 0.000935228 0)
(0.999999 2.05787e-05 0)
(0.999982 5.45154e-05 0)
(0.999953 8.80808e-05 0)
(0.999916 0.000122667 0)
(0.999873 0.000159319 0)
(0.999826 0.000198785 0)
(0.999777 0.000241552 0)
(0.999727 0.000287977 0)
(0.999678 0.000338086 0)
(0.999631 0.00039175 0)
(0.999587 0.000448443 0)
(0.999549 0.000507438 0)
(0.999516 0.000567679 0)
(0.999489 0.000627993 0)
(0.999468 0.000687124 0)
(0.999453 0.000743925 0)
(0.999443 0.000797445 0)
(0.999438 0.000847016 0)
(0.999436 0.000892269 0)
(0.999437 0.000933104 0)
(0.999999 2.18499e-05 0)
(0.999982 5.78601e-05 0)
(0.999954 9.34084e-05 0)
(0.999918 0.000129932 0)
(0.999876 0.000168489 0)
(0.999831 0.000209802 0)
(0.999784 0.000254308 0)
(0.999737 0.000302274 0)
(0.999691 0.000353628 0)
(0.999647 0.000408106 0)
(0.999608 0.000465076 0)
(0.999573 0.000523707 0)
(0.999544 0.000582909 0)
(0.999521 0.000641529 0)
(0.999503 0.00069841 0)
(0.99949 0.000752552 0)
(0.999483 0.000803184 0)
(0.999479 0.000849808 0)
(0.999478 0.000892195 0)
(0.99948 0.000930344 0)
(0.999999 2.31245e-05 0)
(0.999983 6.12095e-05 0)
(0.999955 9.87295e-05 0)
(0.99992 0.000137161 0)
(0.99988 0.000177567 0)
(0.999837 0.000220637 0)
(0.999792 0.000266754 0)
(0.999747 0.000316091 0)
(0.999704 0.000368478 0)
(0.999664 0.000423532 0)
(0.999628 0.000480529 0)
(0.999597 0.000538568 0)
(0.999572 0.000596558 0)
(0.999552 0.000653392 0)
(0.999537 0.000708033 0)
(0.999527 0.000759626 0)
(0.999521 0.000807561 0)
(0.999518 0.000851484 0)
(0.999518 0.00089128 0)
(0.99952 0.000927017 0)
(0.999999 2.43996e-05 0)
(0.999983 6.45555e-05 0)
(0.999956 0.00010403 0)
(0.999923 0.000144333 0)
(0.999884 0.000186524 0)
(0.999843 0.000231257 0)
(0.9998 0.00027885 0)
(0.999758 0.000329387 0)
(0.999718 0.000382602 0)
(0.999682 0.000438006 0)
(0.999649 0.000494808 0)
(0.999622 0.000552065 0)
(0.999599 0.000608709 0)
(0.999582 0.000663709 0)
(0.99957 0.000716145 0)
(0.999562 0.000765309 0)
(0.999557 0.00081073 0)
(0.999556 0.000852176 0)
(0.999557 0.000889617 0)
(0.999559 0.000923179 0)
(0.999999 2.56721e-05 0)
(0.999984 6.78894e-05 0)
(0.999958 0.000109296 0)
(0.999925 0.000151427 0)
(0.999888 0.000195334 0)
(0.999849 0.000241625 0)
(0.999809 0.000290558 0)
(0.99977 0.000342123 0)
(0.999733 0.000395968 0)
(0.999699 0.000451517 0)
(0.99967 0.000507929 0)
(0.999646 0.000564246 0)
(0.999626 0.00061945 0)
(0.999612 0.000672593 0)
(0.999602 0.000722882 0)
(0.999595 0.000769741 0)
(0.999592 0.000812821 0)
(0.999592 0.00085199 0)
(0.999593 0.000887285 0)
(0.999596 0.000918874 0)
(0.999999 2.69387e-05 0)
(0.999984 7.12022e-05 0)
(0.999959 0.000114511 0)
(0.999928 0.00015842 0)
(0.999893 0.000203966 0)
(0.999855 0.00025171 0)
(0.999818 0.000301842 0)
(0.999781 0.000354266 0)
(0.999747 0.000408554 0)
(0.999717 0.000464058 0)
(0.999691 0.000519911 0)
(0.999669 0.000575164 0)
(0.999652 0.000628861 0)
(0.99964 0.000680153 0)
(0.999632 0.000728365 0)
(0.999628 0.000773043 0)
(0.999626 0.000813943 0)
(0.999626 0.000851014 0)
(0.999628 0.000884348 0)
(0.999631 0.000914142 0)
(0.999999 2.81959e-05 0)
(0.999985 7.44845e-05 0)
(0.999961 0.000119661 0)
(0.999931 0.000165292 0)
(0.999897 0.000212394 0)
(0.999862 0.000261478 0)
(0.999827 0.000312667 0)
(0.999793 0.000365787 0)
(0.999762 0.000420341 0)
(0.999734 0.000475631 0)
(0.999711 0.000530781 0)
(0.999692 0.000584872 0)
(0.999678 0.000637022 0)
(0.999668 0.000686485 0)
(0.999662 0.000732699 0)
(0.999659 0.000775318 0)
(0.999658 0.000814188 0)
(0.999659 0.000849324 0)
(0.999661 0.000880859 0)
(0.999664 0.000909012 0)
(0.999999 2.94399e-05 0)
(0.999985 7.77263e-05 0)
(0.999962 0.000124728 0)
(0.999934 0.000172019 0)
(0.999902 0.00022059 0)
(0.999869 0.000270898 0)
(0.999836 0.000323004 0)
(0.999805 0.00037666 0)
(0.999776 0.000431317 0)
(0.999752 0.000486241 0)
(0.999731 0.000540568 0)
(0.999715 0.000593424 0)
(0.999703 0.000644009 0)
(0.999695 0.000691679 0)
(0.99969 0.000735978 0)
(0.999688 0.000776656 0)
(0.999688 0.000813635 0)
(0.99969 0.000846982 0)
(0.999693 0.000876863 0)
(0.999696 0.000903513 0)
(0.999999 3.06671e-05 0)
(0.999986 8.09177e-05 0)
(0.999964 0.000129698 0)
(0.999937 0.00017858 0)
(0.999907 0.000228527 0)
(0.999876 0.000279941 0)
(0.999845 0.000332824 0)
(0.999816 0.000386865 0)
(0.999791 0.000441473 0)
(0.999769 0.0004959 0)
(0.999751 0.000549306 0)
(0.999737 0.000600874 0)
(0.999727 0.000649892 0)
(0.999721 0.000695815 0)
(0.999718 0.000738286 0)
(0.999717 0.000777135 0)
(0.999717 0.00081235 0)
(0.999719 0.000844041 0)
(0.999722 0.000872398 0)
(0.999726 0.000897666 0)
(0.999999 3.18735e-05 0)
(0.999987 8.40482e-05 0)
(0.999966 0.000134552 0)
(0.99994 0.000184953 0)
(0.999912 0.000236178 0)
(0.999883 0.000288579 0)
(0.999854 0.000342103 0)
(0.999828 0.000396385 0)
(0.999805 0.000450808 0)
(0.999786 0.000504623 0)
(0.999771 0.000557028 0)
(0.999759 0.000607274 0)
(0.999751 0.000654737 0)
(0.999746 0.000698967 0)
(0.999744 0.000739695 0)
(0.999744 0.000776823 0)
(0.999745 0.000810393 0)
(0.999748 0.000840546 0)
(0.999751 0.000867495 0)
(0.999755 0.000891489 0)
(0.999999 3.30551e-05 0)
(0.999987 8.71073e-05 0)
(0.999967 0.000139275 0)
(0.999943 0.000191115 0)
(0.999917 0.000243519 0)
(0.99989 0.000296788 0)
(0.999864 0.000350819 0)
(0.99984 0.000405208 0)
(0.99982 0.000459322 0)
(0.999803 0.000512427 0)
(0.99979 0.00056377 0)
(0.99978 0.000612674 0)
(0.999774 0.000658606 0)
(0.99977 0.000701202 0)
(0.999769 0.000740271 0)
(0.99977 0.000775779 0)
(0.999772 0.000807811 0)
(0.999775 0.000836538 0)
(0.999778 0.000862182 0)
(0.999782 0.000884999 0)
(0.999999 3.42079e-05 0)
(0.999988 9.00844e-05 0)
(0.999969 0.000143851 0)
(0.999947 0.000197046 0)
(0.999922 0.000250526 0)
(0.999897 0.000304544 0)
(0.999873 0.000358956 0)
(0.999852 0.000413325 0)
(0.999834 0.000467021 0)
(0.999819 0.000519334 0)
(0.999808 0.000569568 0)
(0.9998 0.000617125 0)
(0.999796 0.000661556 0)
(0.999793 0.000702578 0)
(0.999793 0.000740072 0)
(0.999794 0.000774056 0)
(0.999797 0.000804651 0)
(0.9998 0.000832048 0)
(0.999804 0.000856483 0)
(0.999808 0.000878209 0)
(0.999999 3.53278e-05 0)
(0.999989 9.29689e-05 0)
(0.999971 0.000148262 0)
(0.99995 0.000202726 0)
(0.999927 0.000257177 0)
(0.999904 0.000311827 0)
(0.999883 0.000366497 0)
(0.999864 0.000420732 0)
(0.999848 0.000473912 0)
(0.999836 0.000525365 0)
(0.999826 0.000574459 0)
(0.99982 0.000620673 0)
(0.999817 0.00066364 0)
(0.999816 0.000703151 0)
(0.999816 0.00073915 0)
(0.999818 0.000771698 0)
(0.999821 0.000800948 0)
(0.999825 0.000827107 0)
(0.999828 0.000850417 0)
(0.999833 0.000871132 0)
(0.999999 3.64108e-05 0)
(0.999989 9.57503e-05 0)
(0.999973 0.000152494 0)
(0.999953 0.000208134 0)
(0.999932 0.000263451 0)
(0.999912 0.000318619 0)
(0.999892 0.000373431 0)
(0.999876 0.000427427 0)
(0.999862 0.000480007 0)
(0.999851 0.000530545 0)
(0.999844 0.000578478 0)
(0.999839 0.000623362 0)
(0.999837 0.000664906 0)
(0.999837 0.00070297 0)
(0.999838 0.00073755 0)
(0.999841 0.000768747 0)
(0.999844 0.000796737 0)
(0.999848 0.000821741 0)
(0.999852 0.000844003 0)
(0.999856 0.000863777 0)
(1 3.74529e-05 0)
(0.99999 9.84184e-05 0)
(0.999975 0.00015653 0)
(0.999957 0.000213253 0)
(0.999937 0.00026933 0)
(0.999919 0.000324904 0)
(0.999902 0.00037975 0)
(0.999887 0.000433411 0)
(0.999875 0.000485319 0)
(0.999867 0.000534901 0)
(0.999861 0.000581662 0)
(0.999857 0.000625236 0)
(0.999856 0.000665401 0)
(0.999857 0.00070208 0)
(0.999859 0.000735315 0)
(0.999862 0.000765239 0)
(0.999865 0.000792047 0)
(0.99987 0.00081597 0)
(0.999874 0.000837256 0)
(0.999878 0.000856153 0)
(1 3.845e-05 0)
(0.999991 0.000100963 0)
(0.999977 0.000160357 0)
(0.99996 0.000218066 0)
(0.999943 0.000274798 0)
(0.999926 0.00033067 0)
(0.999911 0.000385448 0)
(0.999898 0.00043869 0)
(0.999888 0.000489864 0)
(0.999881 0.000538457 0)
(0.999877 0.000584045 0)
(0.999875 0.000626333 0)
(0.999875 0.000665167 0)
(0.999876 0.000700523 0)
(0.999879 0.000732482 0)
(0.999882 0.000761206 0)
(0.999886 0.000786905 0)
(0.99989 0.000809817 0)
(0.999895 0.00083019 0)
(0.999899 0.000848269 0)
(1 3.93985e-05 0)
(0.999991 0.000103375 0)
(0.999979 0.000163961 0)
(0.999963 0.000222557 0)
(0.999948 0.00027984 0)
(0.999933 0.000335906 0)
(0.99992 0.000390524 0)
(0.999909 0.00044327 0)
(0.999901 0.000493659 0)
(0.999896 0.000541241 0)
(0.999892 0.000585661 0)
(0.999892 0.000626693 0)
(0.999892 0.000664243 0)
(0.999894 0.000698334 0)
(0.999898 0.000729085 0)
(0.999901 0.000756678 0)
(0.999905 0.000781335 0)
(0.99991 0.000803299 0)
(0.999914 0.000822817 0)
(0.999919 0.000840132 0)
(1 4.02946e-05 0)
(0.999992 0.000105645 0)
(0.99998 0.000167329 0)
(0.999967 0.000226712 0)
(0.999953 0.000284443 0)
(0.99994 0.000340606 0)
(0.999929 0.000394975 0)
(0.99992 0.00044716 0)
(0.999913 0.000496724 0)
(0.999909 0.00054328 0)
(0.999907 0.000586543 0)
(0.999907 0.000626351 0)
(0.999909 0.000662664 0)
(0.999912 0.00069555 0)
(0.999915 0.000725155 0)
(0.999919 0.00075168 0)
(0.999924 0.000775357 0)
(0.999928 0.000796432 0)
(0.999933 0.00081515 0)
(0.999937 0.000831749 0)
(1 4.11349e-05 0)
(0.999993 0.000107764 0)
(0.999982 0.000170449 0)
(0.99997 0.000230519 0)
(0.999958 0.000288598 0)
(0.999947 0.000344764 0)
(0.999937 0.000398807 0)
(0.99993 0.000450371 0)
(0.999925 0.000499077 0)
(0.999922 0.000544601 0)
(0.999922 0.000586723 0)
(0.999923 0.000625341 0)
(0.999925 0.000660467 0)
(0.999928 0.000692203 0)
(0.999932 0.000720721 0)
(0.999936 0.000746237 0)
(0.999941 0.000768992 0)
(0.999946 0.000789231 0)
(0.99995 0.000807199 0)
(0.999954 0.000823127 0)
(1 4.19161e-05 0)
(0.999994 0.000109725 0)
(0.999984 0.000173311 0)
(0.999973 0.000233967 0)
(0.999963 0.000292296 0)
(0.999953 0.000348378 0)
(0.999945 0.000402023 0)
(0.99994 0.000452918 0)
(0.999936 0.00050074 0)
(0.999935 0.00054523 0)
(0.999935 0.000586231 0)
(0.999937 0.000623696 0)
(0.99994 0.00065768 0)
(0.999944 0.00068832 0)
(0.999948 0.000715808 0)
(0.999952 0.000740372 0)
(0.999957 0.000762257 0)
(0.999962 0.000781711 0)
(0.999966 0.000798973 0)
(0.999971 0.000814271 0)
(1 4.26354e-05 0)
(0.999994 0.000111521 0)
(0.999986 0.000175906 0)
(0.999977 0.000237048 0)
(0.999967 0.000295534 0)
(0.999959 0.000351448 0)
(0.999953 0.00040463 0)
(0.999949 0.000454813 0)
(0.999947 0.000501734 0)
(0.999947 0.000545194 0)
(0.999948 0.000585096 0)
(0.99995 0.000621445 0)
(0.999954 0.000654335 0)
(0.999958 0.00068393 0)
(0.999963 0.00071044 0)
(0.999968 0.000734104 0)
(0.999972 0.00075517 0)
(0.999977 0.000773883 0)
(0.999982 0.000790482 0)
(0.999986 0.000805188 0)
(1 4.329e-05 0)
(0.999995 0.000113145 0)
(0.999988 0.000178225 0)
(0.99998 0.000239756 0)
(0.999972 0.000298306 0)
(0.999966 0.000353977 0)
(0.999961 0.000406639 0)
(0.999958 0.000456075 0)
(0.999957 0.00050208 0)
(0.999958 0.000544519 0)
(0.99996 0.000583349 0)
(0.999963 0.000618619 0)
(0.999967 0.000650459 0)
(0.999972 0.000679058 0)
(0.999977 0.000704641 0)
(0.999982 0.000727453 0)
(0.999987 0.000747744 0)
(0.999991 0.00076576 0)
(0.999996 0.000781734 0)
(1 0.000795884 0)
(1 4.38776e-05 0)
(0.999996 0.000114593 0)
(0.999989 0.000180264 0)
(0.999983 0.000242084 0)
(0.999976 0.000300613 0)
(0.999971 0.000355968 0)
(0.999968 0.000408059 0)
(0.999967 0.000456719 0)
(0.999967 0.000501803 0)
(0.999968 0.000543232 0)
(0.999971 0.000581015 0)
(0.999975 0.000615243 0)
(0.99998 0.000646078 0)
(0.999984 0.000673728 0)
(0.99999 0.000698429 0)
(0.999995 0.000720435 0)
(1 0.000739995 0)
(1 0.000757353 0)
(1.00001 0.000772738 0)
(1.00001 0.000786363 0)
(1 4.43964e-05 0)
(0.999996 0.000115859 0)
(0.999991 0.000182017 0)
(0.999986 0.00024403 0)
(0.999981 0.000302455 0)
(0.999977 0.00035743 0)
(0.999975 0.000408904 0)
(0.999975 0.000456765 0)
(0.999976 0.000500924 0)
(0.999978 0.000541357 0)
(0.999982 0.000578121 0)
(0.999986 0.000611345 0)
(0.999991 0.000641217 0)
(0.999996 0.000667961 0)
(1 0.000691826 0)
(1.00001 0.000713067 0)
(1.00001 0.000731936 0)
(1.00002 0.000748672 0)
(1.00002 0.000763501 0)
(1.00003 0.000776631 0)
(1 4.48445e-05 0)
(0.999997 0.00011694 0)
(0.999993 0.00018348 0)
(0.999988 0.000245594 0)
(0.999985 0.000303836 0)
(0.999982 0.00035837 0)
(0.999982 0.000409188 0)
(0.999982 0.000456231 0)
(0.999984 0.000499465 0)
(0.999988 0.00053892 0)
(0.999992 0.000574694 0)
(0.999997 0.00060695 0)
(1 0.000635898 0)
(1.00001 0.000661779 0)
(1.00001 0.000684848 0)
(1.00002 0.000705365 0)
(1.00002 0.000723579 0)
(1.00003 0.000739727 0)
(1.00003 0.000754032 0)
(1.00004 0.000766694 0)
(1 4.52209e-05 0)
(0.999998 0.000117835 0)
(0.999994 0.000184653 0)
(0.999991 0.000246777 0)
(0.999989 0.00030476 0)
(0.999988 0.000358798 0)
(0.999988 0.000408926 0)
(0.999989 0.000455137 0)
(0.999992 0.000497451 0)
(0.999996 0.000535945 0)
(1 0.000570758 0)
(1.00001 0.00060208 0)
(1.00001 0.000630144 0)
(1.00002 0.000655201 0)
(1.00002 0.000677514 0)
(1.00003 0.000697343 0)
(1.00003 0.000714937 0)
(1.00004 0.000730529 0)
(1.00004 0.000744337 0)
(1.00005 0.000756557 0)
(1 4.55248e-05 0)
(0.999998 0.000118541 0)
(0.999996 0.000185535 0)
(0.999994 0.00024758 0)
(0.999992 0.000305236 0)
(0.999992 0.000358727 0)
(0.999994 0.000408135 0)
(0.999996 0.000453504 0)
(1 0.000494905 0)
(1 0.000532458 0)
(1.00001 0.000566337 0)
(1.00002 0.00059676 0)
(1.00002 0.000623976 0)
(1.00003 0.000648247 0)
(1.00003 0.00066984 0)
(1.00004 0.000689016 0)
(1.00004 0.000706021 0)
(1.00005 0.000721086 0)
(1.00005 0.000734424 0)
(1.00006 0.000746225 0)
(1 4.57557e-05 0)
(0.999999 0.000119059 0)
(0.999997 0.000186127 0)
(0.999996 0.000248009 0)
(0.999996 0.000305271 0)
(0.999997 0.00035817 0)
(0.999999 0.000406832 0)
(1 0.000451353 0)
(1.00001 0.000491848 0)
(1.00001 0.000528481 0)
(1.00002 0.000561455 0)
(1.00002 0.000591012 0)
(1.00003 0.000617416 0)
(1.00004 0.000640936 0)
(1.00004 0.000661843 0)
(1.00005 0.000680397 0)
(1.00005 0.000696844 0)
(1.00006 0.000711409 0)
(1.00006 0.0007243 0)
(1.00007 0.000735705 0)
(1 4.59137e-05 0)
(0.999999 0.000119389 0)
(0.999998 0.000186432 0)
(0.999998 0.00024807 0)
(0.999999 0.000304876 0)
(1 0.000357142 0)
(1 0.000405038 0)
(1.00001 0.000448705 0)
(1.00001 0.000488306 0)
(1.00002 0.000524038 0)
(1.00002 0.000556135 0)
(1.00003 0.000584858 0)
(1.00004 0.000610482 0)
(1.00004 0.000633284 0)
(1.00005 0.000653537 0)
(1.00005 0.0006715 0)
(1.00006 0.000687416 0)
(1.00006 0.000701506 0)
(1.00007 0.000713974 0)
(1.00007 0.000725003 0)
(1 4.59992e-05 0)
(1 0.000119533 0)
(1 0.000186455 0)
(1 0.00024777 0)
(1 0.000304064 0)
(1 0.000355659 0)
(1.00001 0.00040277 0)
(1.00001 0.000445582 0)
(1.00002 0.0004843 0)
(1.00002 0.000519152 0)
(1.00003 0.0005504 0)
(1.00004 0.000578319 0)
(1.00004 0.000603195 0)
(1.00005 0.00062531 0)
(1.00006 0.000644939 0)
(1.00006 0.000662339 0)
(1.00007 0.000677749 0)
(1.00007 0.000691388 0)
(1.00008 0.000703454 0)
(1.00008 0.000714125 0)
(1 4.6013e-05 0)
(1 0.000119493 0)
(1 0.000186201 0)
(1 0.00024712 0)
(1 0.000302846 0)
(1.00001 0.000353738 0)
(1.00001 0.000400048 0)
(1.00002 0.000442007 0)
(1.00002 0.000479853 0)
(1.00003 0.000513847 0)
(1.00004 0.00054427 0)
(1.00004 0.000571414 0)
(1.00005 0.000595572 0)
(1.00006 0.000617031 0)
(1.00006 0.000636063 0)
(1.00007 0.000652926 0)
(1.00007 0.000667854 0)
(1.00008 0.000681063 0)
(1.00008 0.000692746 0)
(1.00009 0.000703078 0)
(1 4.59562e-05 0)
(1 0.000119274 0)
(1 0.000185676 0)
(1 0.000246128 0)
(1.00001 0.000301239 0)
(1.00001 0.000351396 0)
(1.00002 0.000396895 0)
(1.00002 0.000438001 0)
(1.00003 0.000474989 0)
(1.00004 0.000508145 0)
(1.00004 0.00053777 0)
(1.00005 0.000564166 0)
(1.00006 0.000587633 0)
(1.00006 0.000608462 0)
(1.00007 0.000626924 0)
(1.00007 0.000643274 0)
(1.00008 0.000657743 0)
(1.00008 0.000670542 0)
(1.00009 0.000681861 0)
(1.00009 0.000691869 0)
(1 4.58304e-05 0)
(1 0.00011888 0)
(1 0.000184889 0)
(1.00001 0.000244808 0)
(1.00001 0.000299256 0)
(1.00001 0.000348653 0)
(1.00002 0.000393329 0)
(1.00003 0.000433587 0)
(1.00003 0.00046973 0)
(1.00004 0.000502069 0)
(1.00005 0.000530918 0)
(1.00005 0.000556592 0)
(1.00006 0.000579396 0)
(1.00007 0.000599621 0)
(1.00007 0.000617537 0)
(1.00008 0.000633396 0)
(1.00008 0.000647426 0)
(1.00009 0.000659834 0)
(1.00009 0.000670805 0)
(1.0001 0.000680505 0)
(1 4.56376e-05 0)
(1 0.000118315 0)
(1 0.000183849 0)
(1.00001 0.000243172 0)
(1.00001 0.000296915 0)
(1.00002 0.000345528 0)
(1.00002 0.000389374 0)
(1.00003 0.000428788 0)
(1.00004 0.000464099 0)
(1.00004 0.000495639 0)
(1.00005 0.000523737 0)
(1.00006 0.000548714 0)
(1.00006 0.000570879 0)
(1.00007 0.000590523 0)
(1.00008 0.000607915 0)
(1.00008 0.000623305 0)
(1.00009 0.000636916 0)
(1.00009 0.00064895 0)
(1.0001 0.000659589 0)
(1.0001 0.000668994 0)
(1 4.53798e-05 0)
(1 0.000117587 0)
(1 0.000182565 0)
(1.00001 0.000241233 0)
(1.00001 0.000294233 0)
(1.00002 0.00034204 0)
(1.00003 0.00038505 0)
(1.00003 0.000423624 0)
(1.00004 0.000458118 0)
(1.00005 0.000488878 0)
(1.00005 0.000516246 0)
(1.00006 0.000540549 0)
(1.00007 0.000562098 0)
(1.00007 0.000581184 0)
(1.00008 0.000598074 0)
(1.00009 0.000613014 0)
(1.00009 0.000626223 0)
(1.0001 0.0006379 0)
(1.0001 0.000648221 0)
(1.0001 0.000657344 0)
(1 4.50595e-05 0)
(1 0.000116701 0)
(1.00001 0.000181048 0)
(1.00001 0.000239006 0)
(1.00002 0.000291227 0)
(1.00002 0.00033821 0)
(1.00003 0.000380378 0)
(1.00004 0.00041812 0)
(1.00004 0.000451809 0)
(1.00005 0.000481808 0)
(1.00006 0.000508466 0)
(1.00007 0.000532117 0)
(1.00007 0.000553072 0)
(1.00008 0.000571621 0)
(1.00008 0.000588028 0)
(1.00009 0.000602536 0)
(1.00009 0.00061536 0)
(1.0001 0.000626694 0)
(1.0001 0.000636711 0)
(1.00011 0.000645564 0)
(1 4.46794e-05 0)
(1 0.000115665 0)
(1.00001 0.00017931 0)
(1.00001 0.000236507 0)
(1.00002 0.000287916 0)
(1.00002 0.000334058 0)
(1.00003 0.000375381 0)
(1.00004 0.000412296 0)
(1.00005 0.000445194 0)
(1.00005 0.000474449 0)
(1.00006 0.000500417 0)
(1.00007 0.000523436 0)
(1.00007 0.000543817 0)
(1.00008 0.000561848 0)
(1.00009 0.000577791 0)
(1.00009 0.000591883 0)
(1.0001 0.000604337 0)
(1.0001 0.000615342 0)
(1.00011 0.000625068 0)
(1.00011 0.000633662 0)
(1 4.42425e-05 0)
(1 0.000114486 0)
(1.00001 0.000177363 0)
(1.00001 0.00023375 0)
(1.00002 0.000284318 0)
(1.00002 0.000329605 0)
(1.00003 0.000370081 0)
(1.00004 0.000406176 0)
(1.00005 0.000438294 0)
(1.00006 0.000466821 0)
(1.00006 0.000492119 0)
(1.00007 0.000514525 0)
(1.00008 0.000534351 0)
(1.00008 0.000551882 0)
(1.00009 0.000567377 0)
(1.00009 0.00058107 0)
(1.0001 0.000593168 0)
(1.0001 0.000603857 0)
(1.00011 0.000613302 0)
(1.00011 0.000621647 0)
(1 4.37517e-05 0)
(1 0.000113172 0)
(1.00001 0.000175218 0)
(1.00001 0.000230752 0)
(1.00002 0.000280451 0)
(1.00003 0.000324871 0)
(1.00003 0.000364498 0)
(1.00004 0.000399779 0)
(1.00005 0.000431131 0)
(1.00006 0.000458946 0)
(1.00006 0.00048359 0)
(1.00007 0.000505401 0)
(1.00008 0.000524689 0)
(1.00008 0.000541737 0)
(1.00009 0.0005568 0)
(1.0001 0.000570108 0)
(1.0001 0.000581863 0)
(1.0001 0.000592248 0)
(1.00011 0.000601423 0)
(1.00011 0.000609529 0)
(1 4.32103e-05 0)
(1 0.000111732 0)
(1.00001 0.000172888 0)
(1.00001 0.000227529 0)
(1.00002 0.000276335 0)
(1.00003 0.000319876 0)
(1.00004 0.000358654 0)
(1.00004 0.000393129 0)
(1.00005 0.000423726 0)
(1.00006 0.000450844 0)
(1.00007 0.00047485 0)
(1.00007 0.000496082 0)
(1.00008 0.000514849 0)
(1.00009 0.00053143 0)
(1.00009 0.000546075 0)
(1.0001 0.00055901 0)
(1.0001 0.000570435 0)
(1.00011 0.000580526 0)
(1.00011 0.000589441 0)
(1.00011 0.000597318 0)
(1 4.26215e-05 0)
(1 0.000110174 0)
(1.00001 0.000170387 0)
(1.00001 0.000224097 0)
(1.00002 0.000271988 0)
(1.00003 0.000314641 0)
(1.00004 0.00035257 0)
(1.00004 0.000386244 0)
(1.00005 0.000416099 0)
(1.00006 0.000442533 0)
(1.00007 0.000465916 0)
(1.00007 0.000486585 0)
(1.00008 0.000504846 0)
(1.00009 0.000520974 0)
(1.00009 0.000535215 0)
(1.0001 0.000547791 0)
(1.0001 0.000558896 0)
(1.00011 0.000568704 0)
(1.00011 0.000577368 0)
(1.00011 0.000585022 0)
(1 4.19888e-05 0)
(1 0.000108507 0)
(1.00001 0.000167726 0)
(1.00001 0.000220473 0)
(1.00002 0.000267429 0)
(1.00003 0.000309185 0)
(1.00004 0.000346266 0)
(1.00004 0.000379148 0)
(1.00005 0.000408269 0)
(1.00006 0.000434033 0)
(1.00007 0.000456808 0)
(1.00007 0.000476928 0)
(1.00008 0.000494697 0)
(1.00009 0.000510385 0)
(1.00009 0.000524234 0)
(1.0001 0.000536461 0)
(1.0001 0.000547257 0)
(1.00011 0.000556791 0)
(1.00011 0.000565212 0)
(1.00011 0.000572652 0)
(1 4.13155e-05 0)
(1 0.000106738 0)
(1.00001 0.00016492 0)
(1.00001 0.000216671 0)
(1.00002 0.000262676 0)