/*--------------------------------*- C++ -*----------------------------------*\
| =========                 |                                                 |
| \\      /  F ield         | OpenFOAM: The Open Source CFD Toolbox           |
|  \\    /   O peration     | Version:  2.4.0                                 |
|   \\  /    A nd           | Web:      www.OpenFOAM.org                      |
|    \\/     M anipulation  |                                                 |
\*---------------------------------------------------------------------------*/
FoamFile
{
    version     2.0;
    format      ascii;
    class       volScalarField;
    location    "3.5";
    object      nut;
}
// * * * * * * * * * * * * * * * * * * * * * * * * * * * * * * * * * * * * * //

dimensions      [0 2 -1 0 0 0 0];

internalField   nonuniform List<scalar> 
5625
(
2.90459e-05
1.63358e-05
1.59281e-05
1.49404e-05
1.39162e-05
1.30361e-05
1.24211e-05
1.20464e-05
1.18702e-05
1.18338e-05
1.18812e-05
1.19533e-05
1.20293e-05
1.21023e-05
1.21905e-05
1.23002e-05
1.24217e-05
1.2547e-05
1.26825e-05
1.28255e-05
1.29768e-05
1.31406e-05
1.3303e-05
1.34619e-05
1.36215e-05
1.37806e-05
1.39383e-05
1.40942e-05
1.42466e-05
1.43936e-05
1.45361e-05
1.46725e-05
1.48027e-05
1.49255e-05
1.50424e-05
1.51506e-05
1.52514e-05
1.5344e-05
1.54284e-05
1.55051e-05
1.55713e-05
1.56325e-05
1.56782e-05
1.57245e-05
1.57497e-05
1.57825e-05
1.57891e-05
1.58073e-05
1.57983e-05
1.57956e-05
1.57783e-05
1.57494e-05
1.57298e-05
1.56683e-05
1.56553e-05
1.5554e-05
1.55559e-05
1.54097e-05
1.54365e-05
1.52406e-05
1.52979e-05
1.50681e-05
1.51433e-05
1.4895e-05
1.49755e-05
1.47251e-05
1.48135e-05
1.45706e-05
1.4665e-05
1.44378e-05
1.45322e-05
1.43468e-05
1.43029e-05
1.45743e-05
2.46621e-05
0.000181343
5.89844e-05
4.13237e-05
3.34875e-05
3.35345e-05
3.58531e-05
3.93956e-05
4.32888e-05
4.7781e-05
5.26004e-05
5.74787e-05
6.20891e-05
6.63129e-05
7.01625e-05
7.39379e-05
7.76346e-05
8.11145e-05
8.43499e-05
8.74402e-05
9.0416e-05
9.31813e-05
9.57999e-05
9.82067e-05
0.000100433
0.000102536
0.000104515
0.000106363
0.000108072
0.000109627
0.000111027
0.000112286
0.000113391
0.00011434
0.000115136
0.000115784
0.000116266
0.000116559
0.000116745
0.000116713
0.000116612
0.000116208
0.000115844
0.000115014
0.000114433
0.000113145
0.000112436
0.000110645
0.000109872
0.000107496
0.000106662
0.000103819
0.000102829
9.95402e-05
9.83926e-05
9.47314e-05
9.33605e-05
8.93678e-05
8.77504e-05
8.3515e-05
8.15252e-05
7.72964e-05
7.45241e-05
7.09519e-05
6.70094e-05
6.40949e-05
5.9437e-05
5.68149e-05
5.18737e-05
4.95057e-05
4.40412e-05
4.21058e-05
3.59408e-05
3.44476e-05
2.83001e-05
0.000143745
0.000174453
0.000112739
8.21608e-05
6.45616e-05
5.99735e-05
5.96679e-05
6.17941e-05
6.58028e-05
7.10344e-05
7.74771e-05
8.48605e-05
9.27573e-05
0.000100503
0.000108044
0.000115498
0.000122903
0.000130136
0.000137049
0.000143813
0.000150303
0.000156551
0.000162585
0.000168269
0.000173627
0.00017877
0.000183683
0.000188357
0.000192784
0.000196913
0.000200742
0.000204323
0.000207606
0.000210628
0.000213314
0.000215771
0.000217863
0.000219743
0.000221265
0.000222578
0.00022351
0.000224187
0.000224562
0.000224478
0.000224376
0.000223531
0.000223161
0.000221371
0.000220659
0.000218024
0.000216817
0.000213482
0.000211811
0.000207785
0.00020557
0.000200984
0.000198044
0.000192949
0.000189298
0.000183706
0.000179298
0.00017329
0.000167696
0.000162443
0.00015448
0.000150435
0.000140678
0.000137034
0.000126312
0.000122793
0.00011108
0.000107876
9.47004e-05
9.12827e-05
8.15226e-05
0.000141241
0.00016844
0.000147146
0.000115885
9.77592e-05
8.7264e-05
8.35282e-05
8.29082e-05
8.5124e-05
8.95434e-05
9.58285e-05
0.000103882
0.000112828
0.000122544
0.000132734
0.000142687
0.000152704
0.000162687
0.000172363
0.000181959
0.000191188
0.000200186
0.000208958
0.000217347
0.000225405
0.000233192
0.00024067
0.000247802
0.000254617
0.000261129
0.000267259
0.000273093
0.000278551
0.000283673
0.000288355
0.000292755
0.000296685
0.000300358
0.000303479
0.000306424
0.00030872
0.00031092
0.000312382
0.000313783
0.000314424
0.000314967
0.000315018
0.000314468
0.000314137
0.000312577
0.000311602
0.000309097
0.000307485
0.000304116
0.000301708
0.000297605
0.000294226
0.000289455
0.00028508
0.000279615
0.000274199
0.000268054
0.000261357
0.000255401
0.000246201
0.000241485
0.000229496
0.000225723
0.000211835
0.000208299
0.000192907
0.000189416
0.000172993
0.000167895
0.000165448
0.000143325
0.00016309
0.000162229
0.000138635
0.000124836
0.000111966
0.00010591
0.000103053
0.000102852
0.00010614
0.000110753
0.000118316
0.000127228
0.000137939
0.000149252
0.000160846
0.000172958
0.000184891
0.000196574
0.000208307
0.000219612
0.000230759
0.000241691
0.000252188
0.000262383
0.000272285
0.000281826
0.000290991
0.000299809
0.00030828
0.000316303
0.000323988
0.000331258
0.000338172
0.000344589
0.000350689
0.000356269
0.000361559
0.000366212
0.000370672
0.000374371
0.00037801
0.000380726
0.000383525
0.00038524
0.000387163
0.000387991
0.000388927
0.000388973
0.000388859
0.000388134
0.000386858
0.000385592
0.000383222
0.000381097
0.000377906
0.000374837
0.000370838
0.000366615
0.000361784
0.000356362
0.000350724
0.00034403
0.000337978
0.000329127
0.00032393
0.000312048
0.000308013
0.000293401
0.000290208
0.000273773
0.000270094
0.000253382
0.000247979
0.000255813
0.000147205
0.000158252
0.000165603
0.000151564
0.000143854
0.000132113
0.000125242
0.000121219
0.000119164
0.000121154
0.000124615
0.000130354
0.000138527
0.000148813
0.000160705
0.00017341
0.000186579
0.00019973
0.000213182
0.000226577
0.00023946
0.000252319
0.000264957
0.00027711
0.000289019
0.000300624
0.000311818
0.000322621
0.000333066
0.000343135
0.000352731
0.000361948
0.000370725
0.000379091
0.000386952
0.000394458
0.000401409
0.000408044
0.000414015
0.000419759
0.0004247
0.000429565
0.00043344
0.000437428
0.000440201
0.000443297
0.000445007
0.000447181
0.000447879
0.000449127
0.000448881
0.00044903
0.00044808
0.000446938
0.00044519
0.000442987
0.000440439
0.000437237
0.000433511
0.00042944
0.000424561
0.000419648
0.000413508
0.000407839
0.000399892
0.000394511
0.000383868
0.000379472
0.000365887
0.000362605
0.000347154
0.000343055
0.000327898
0.000322759
0.000337661
0.000151157
0.000153817
0.000162895
0.000157936
0.00015426
0.000147008
0.00014058
0.000136369
0.000133706
0.000134054
0.000137155
0.000140938
0.00014823
0.00015782
0.000168849
0.000181517
0.000195513
0.000209656
0.000224111
0.000238561
0.000252809
0.000267142
0.000281146
0.000294619
0.00030795
0.000320953
0.000333494
0.000345644
0.000357435
0.000368818
0.000379705
0.000390191
0.000400218
0.000409798
0.000418873
0.000427527
0.000435641
0.000443364
0.000450465
0.000457238
0.000463274
0.00046911
0.000474051
0.000478948
0.000482765
0.000486713
0.000489419
0.000492421
0.000494046
0.000496134
0.000496699
0.000497806
0.000497429
0.000497504
0.000496232
0.000495061
0.000492965
0.000490659
0.000487712
0.000484244
0.000480179
0.000475867
0.000470522
0.000465527
0.000458606
0.000453378
0.000444321
0.000439681
0.000427969
0.000424423
0.000410997
0.000406556
0.000393808
0.000389249
0.000408556
0.000154665
0.000149707
0.000157742
0.000159787
0.000158758
0.000155853
0.000151707
0.000148258
0.000145836
0.000144959
0.000147704
0.000150642
0.000155777
0.000164576
0.000175369
0.000187571
0.000200804
0.000215364
0.000230629
0.000245933
0.000261179
0.000276475
0.000291505
0.000306185
0.000320754
0.000334922
0.000348577
0.000361864
0.000374796
0.000387283
0.000399249
0.00041081
0.000421889
0.000432489
0.000442582
0.000452206
0.000461293
0.000469935
0.000477981
0.000485622
0.000492584
0.000499223
0.000505087
0.00051072
0.000515463
0.000520085
0.000523718
0.00052734
0.000529897
0.000532557
0.00053405
0.000535736
0.000536202
0.000536985
0.000536425
0.000536144
0.000534685
0.000533158
0.000530834
0.000528027
0.000524853
0.000521072
0.000516807
0.000512377
0.000506503
0.00050172
0.000494117
0.000489506
0.000479918
0.00047616
0.000465156
0.000460645
0.00045055
0.000446775
0.000468492
0.000157624
0.000145862
0.000152066
0.000158507
0.000159321
0.000159801
0.000158227
0.000156353
0.000154837
0.000153899
0.000155694
0.000159064
0.00016261
0.000169577
0.000179618
0.000191029
0.000204458
0.000218512
0.000233486
0.000249274
0.000265326
0.000281335
0.00029727
0.000312895
0.000328357
0.000343443
0.000358082
0.000372408
0.000386331
0.000399757
0.000412644
0.00042514
0.000437123
0.000448598
0.000459565
0.000470023
0.000479944
0.000489378
0.000498226
0.000506613
0.000514356
0.000521692
0.000528327
0.000534607
0.000540115
0.000545341
0.000549735
0.000553924
0.000557243
0.000560438
0.000562702
0.000564914
0.000566165
0.000567459
0.000567701
0.000567982
0.000567226
0.00056645
0.000564795
0.000562676
0.000560174
0.00055685
0.000553686
0.000549721
0.000545151
0.000540878
0.000534461
0.000530184
0.000522575
0.000518807
0.000510228
0.000506036
0.000498432
0.000495602
0.000518335
0.000160049
0.000142235
0.000146818
0.00015506
0.00015749
0.000160116
0.00016114
0.000160926
0.00016063
0.000160457
0.000161493
0.00016533
0.000168636
0.000173483
0.000182396
0.000192894
0.000205447
0.000219063
0.000234366
0.000249774
0.000265918
0.000282351
0.000298975
0.000315321
0.000331509
0.000347405
0.000362884
0.000378017
0.000392742
0.00040695
0.000420709
0.00043405
0.000446821
0.000459063
0.000470799
0.000481989
0.000492642
0.000502771
0.000512319
0.000521363
0.00052978
0.000537733
0.000545029
0.000551884
0.00055804
0.00056381
0.000568843
0.000573548
0.000577502
0.000581191
0.000584096
0.000586796
0.000588702
0.00059048
0.000591409
0.000592187
0.000592145
0.000591881
0.000590888
0.0005895
0.000587659
0.000584915
0.00058243
0.000578867
0.000575679
0.000571972
0.000566655
0.000562954
0.000556911
0.000553457
0.000547052
0.00054357
0.000538135
0.000536371
0.000559201
0.000161985
0.000138788
0.000142377
0.000150287
0.000154355
0.000158079
0.000160979
0.000162494
0.000163511
0.000164406
0.000165516
0.000168964
0.000173114
0.000176934
0.000183664
0.000193528
0.000205017
0.000217805
0.000232419
0.000247696
0.000263994
0.000280308
0.00029722
0.000314014
0.000330741
0.000347254
0.000363418
0.000379228
0.00039463
0.000409552
0.000424024
0.000438059
0.000451503
0.00046451
0.00047694
0.000488783
0.000500095
0.000510849
0.000521022
0.000530656
0.000539673
0.000548186
0.000556063
0.000563441
0.000570164
0.00057643
0.000582017
0.000587197
0.000591699
0.000595845
0.000599298
0.000602452
0.000604917
0.00060715
0.000608661
0.000609913
0.000610477
0.00061071
0.000610355
0.000609513
0.000608299
0.000606307
0.000604397
0.00060117
0.000599066
0.000595963
0.000591793
0.000588755
0.000584019
0.000581143
0.000576489
0.000573939
0.000570552
0.000569844
0.000592199
0.000163476
0.000135491
0.000138541
0.000145297
0.000150227
0.000154692
0.000158634
0.000161621
0.000163875
0.000165834
0.000167626
0.000170591
0.000175287
0.000179404
0.000184265
0.000192691
0.000203501
0.000215237
0.00022886
0.00024354
0.000259362
0.000275738
0.000292561
0.000309469
0.00032653
0.000343461
0.000360122
0.00037647
0.00039246
0.000408009
0.00042308
0.000437663
0.000451686
0.000465268
0.000478257
0.00049078
0.000502759
0.00051412
0.000524863
0.000535039
0.000544602
0.000553635
0.00056204
0.000569904
0.00057714
0.000583869
0.000589954
0.00059558
0.000600571
0.000605148
0.000609087
0.000612669
0.000615626
0.00061829
0.000620312
0.000622016
0.000623109
0.000623822
0.000624023
0.000623706
0.000623088
0.000621704
0.000620381
0.000617807
0.000616269
0.000613704
0.000610811
0.000608394
0.000604798
0.000602614
0.000599462
0.000597894
0.00059646
0.000596765
0.000618343
0.000164559
0.000132318
0.000135026
0.00014072
0.000145697
0.000150513
0.000154915
0.000158853
0.000162183
0.000165046
0.000167772
0.000170543
0.000175376
0.000180048
0.000184557
0.000190837
0.0002006
0.000211623
0.000224079
0.000237857
0.0002529
0.00026882
0.000285318
0.000302346
0.000319304
0.000336395
0.000353371
0.000370112
0.000386534
0.000402569
0.000418164
0.000433309
0.000447914
0.000462042
0.000475546
0.000488524
0.000500868
0.000512727
0.000524001
0.000534713
0.000544818
0.000554375
0.0005633
0.000571652
0.000579396
0.000586592
0.000593157
0.000599211
0.000604653
0.000609647
0.000614034
0.000618028
0.000621434
0.000624517
0.000627
0.000629143
0.000630714
0.000631893
0.000632595
0.000632788
0.000632708
0.000631893
0.000631134
0.00062929
0.00062821
0.000626056
0.000624419
0.000622574
0.00062001
0.000618545
0.000616747
0.000616133
0.000616545
0.000617812
0.00063852
0.000165263
0.000129248
0.000131793
0.000136575
0.000141222
0.000145893
0.000150444
0.00015485
0.000158933
0.000162465
0.000166071
0.000169018
0.000173786
0.000178712
0.000183627
0.000188728
0.000196607
0.00020687
0.00021834
0.000231022
0.000245047
0.000260198
0.000276086
0.000292724
0.0003095
0.000326699
0.000343599
0.000360526
0.000377222
0.000393598
0.000409586
0.000425146
0.000440211
0.000454793
0.000468816
0.00048232
0.000495206
0.000507591
0.000519277
0.000530499
0.000541014
0.000550967
0.000560287
0.000569012
0.000577164
0.00058473
0.000591723
0.000598209
0.000604107
0.000609535
0.000614366
0.000618788
0.000622632
0.000626144
0.00062907
0.000631661
0.000633683
0.000635337
0.000636506
0.000637211
0.000637646
0.000637395
0.000637213
0.000636026
0.000635479
0.000633794
0.00063303
0.000631788
0.000630232
0.000629468
0.000628933
0.000629211
0.000631369
0.00063353
0.00065344
0.000165592
0.000126264
0.000128774
0.000132692
0.000136947
0.000141221
0.000145703
0.000150136
0.000154608
0.000158552
0.000162794
0.000166132
0.000170843
0.00017582
0.000180881
0.000186076
0.000192161
0.000201028
0.000211771
0.000223308
0.000236163
0.000250298
0.000265316
0.000281268
0.000297578
0.000314436
0.000331226
0.000348241
0.000364888
0.000381439
0.000397678
0.000413529
0.00042895
0.000443899
0.000458329
0.000472247
0.00048557
0.000498386
0.000510527
0.000522202
0.000533152
0.000543661
0.000553451
0.000562637
0.000571273
0.00057928
0.000586721
0.000593601
0.000599893
0.000605689
0.000610917
0.000615715
0.000619964
0.000623864
0.000627216
0.000630223
0.000632689
0.000634791
0.000636429
0.000637621
0.000638513
0.000638787
0.000639102
0.000638528
0.000638444
0.000637488
0.000637275
0.000636659
0.00063609
0.000635998
0.000636639
0.000637754
0.000641518
0.000644537
0.000663841
0.000165603
0.000123351
0.000125813
0.000129012
0.000132986
0.00013672
0.000140898
0.00014511
0.000149636
0.00015375
0.000158306
0.000162064
0.000166767
0.000171694
0.000176701
0.000182016
0.000187594
0.000194718
0.000204121
0.000214957
0.000226544
0.000239484
0.000253418
0.000268424
0.000283995
0.000300246
0.000316655
0.000333379
0.000349945
0.000366543
0.000382778
0.000398774
0.00041443
0.000429638
0.000444387
0.000458639
0.000472333
0.000485527
0.000498075
0.000510142
0.000521519
0.000532404
0.000542649
0.000552252
0.000561344
0.00056975
0.000577641
0.000584935
0.000591673
0.000597902
0.000603561
0.000608787
0.000613456
0.00061778
0.000621552
0.000624999
0.000627885
0.000630452
0.000632519
0.000634211
0.000635571
0.000636394
0.000637198
0.00063726
0.000637611
0.000637506
0.000637671
0.000637644
0.000638015
0.000638567
0.000640308
0.000642201
0.000647438
0.000651282
0.000670223
0.000165285
0.000120494
0.000122831
0.000125679
0.000129168
0.000132449
0.000136223
0.000140062
0.000144376
0.000148456
0.000152998
0.000157093
0.00016174
0.000166569
0.000171469
0.000176662
0.00018223
0.000188406
0.000196074
0.000205695
0.000216416
0.000228063
0.000240759
0.000254608
0.000269194
0.000284584
0.000300344
0.000316534
0.000332771
0.000349115
0.000365277
0.000381277
0.000396975
0.000412307
0.00042727
0.000441757
0.000455748
0.000469248
0.000482147
0.000494568
0.000506329
0.000517588
0.000528239
0.000538228
0.000547785
0.000556568
0.000564923
0.000572614
0.000579797
0.000586443
0.000592541
0.000598193
0.000603298
0.000608047
0.000612265
0.000616161
0.000619496
0.000622541
0.000625069
0.000627272
0.000629106
0.000630488
0.000631772
0.000632479
0.00063325
0.000634047
0.000634534
0.000635046
0.000636336
0.000637507
0.000640297
0.00064291
0.000649501
0.000654133
0.000673027
0.00016465
0.000117682
0.000119809
0.000122508
0.000125587
0.000128438
0.000131775
0.000135177
0.000139106
0.000142958
0.000147278
0.000151466
0.000156006
0.000160702
0.000165456
0.000170439
0.000175779
0.00018175
0.000188104
0.00019611
0.000205663
0.000216295
0.000227663
0.000240204
0.000253603
0.000267903
0.000282759
0.000298167
0.000313819
0.000329687
0.000345548
0.000361335
0.000376944
0.000392263
0.000407298
0.000421894
0.000436091
0.000449807
0.000462989
0.000475708
0.000487798
0.000499408
0.000510419
0.000520823
0.000530749
0.000539918
0.000548762
0.000556827
0.000564474
0.000571531
0.000578089
0.000584175
0.000589731
0.000594913
0.000599601
0.000603953
0.000607758
0.000611292
0.000614302
0.000617029
0.00061935
0.000621308
0.000623077
0.000624438
0.000625648
0.000627334
0.000628129
0.000629164
0.00063137
0.000633133
0.000636927
0.000640208
0.000648045
0.000653436
0.000672637
0.000163706
0.000114905
0.000116803
0.000119401
0.000122182
0.000124662
0.000127577
0.000130544
0.000134005
0.000137509
0.000141459
0.000145454
0.000149814
0.000154348
0.000158904
0.000163631
0.000168632
0.000174226
0.000180181
0.000186718
0.000194701
0.000204189
0.000214417
0.000225562
0.000237623
0.000250645
0.000264368
0.00027876
0.000293573
0.000308729
0.000324046
0.000339412
0.000354729
0.000369867
0.000384801
0.000399397
0.000413675
0.000427489
0.000440875
0.000453812
0.000466166
0.000478089
0.000489407
0.000500199
0.000510468
0.000520083
0.000529264
0.000537747
0.000545886
0.000553338
0.000560382
0.000566905
0.000572932
0.000578551
0.00058374
0.000588549
0.000592856
0.000596888
0.000600408
0.00060367
0.000606504
0.000609054
0.000611324
0.00061335
0.000615058
0.000617548
0.000618667
0.000620253
0.000623391
0.000625715
0.000630472
0.000634376
0.000643363
0.000649491
0.000669373
0.000162458
0.000112151
0.000113861
0.000116332
0.000118871
0.000121063
0.000123607
0.000126181
0.000129165
0.00013226
0.000135759
0.000139399
0.000143383
0.000147684
0.000152044
0.000156479
0.000161113
0.000166176
0.000171699
0.000177653
0.000184083
0.000192024
0.000201097
0.000211006
0.000221635
0.00023324
0.000245641
0.000258803
0.000272537
0.000286744
0.00030127
0.000315988
0.000330791
0.000345549
0.000360202
0.000374637
0.000388819
0.000402654
0.000416124
0.000429167
0.000441708
0.000453884
0.000465443
0.000476587
0.000487157
0.000497181
0.000506696
0.00051566
0.000524138
0.000532032
0.000539606
0.000546548
0.000553068
0.000559125
0.000564853
0.000570109
0.000574961
0.000579492
0.000583562
0.000587362
0.000590746
0.000593899
0.0005967
0.000599402
0.0006017
0.000604817
0.000606337
0.000608545
0.000612636
0.000615483
0.000621164
0.000625655
0.000635713
0.000642564
0.000663513
0.000160911
0.000109412
0.000110986
0.000113299
0.000115615
0.00011759
0.000119821
0.000122061
0.000124607
0.000127288
0.000130304
0.000133538
0.000137018
0.000140881
0.000145007
0.000149181
0.000153445
0.000157944
0.000162905
0.000168331
0.000174044
0.000180391
0.000187919
0.000196637
0.000205971
0.000216089
0.000227033
0.000238793
0.000251232
0.000264266
0.000277758
0.000291589
0.000305643
0.0003198
0.000333966
0.000348052
0.000361967
0.000375669
0.000389048
0.000402142
0.000414745
0.000427089
0.000438803
0.000450254
0.000461055
0.000471445
0.000481272
0.00049069
0.000499493
0.000507912
0.000515857
0.000523269
0.000530313
0.000536805
0.000543109
0.000548787
0.000554238
0.000559259
0.000563929
0.000568258
0.000572243
0.000575998
0.000579377
0.000582771
0.00058574
0.000589212
0.000591356
0.000594268
0.000599296
0.00060263
0.000609208
0.000614258
0.000625325
0.000632889
0.000655297
0.000159068
0.000106677
0.00010814
0.000110301
0.000112413
0.000114211
0.000116178
0.000118141
0.000120308
0.000122606
0.000125161
0.000127952
0.000130967
0.000134266
0.000137893
0.000141802
0.000145785
0.00014983
0.000154126
0.000158886
0.000164
0.000169565
0.000175517
0.000182652
0.000190719
0.000199547
0.000208965
0.000219207
0.000230183
0.000241848
0.000254079
0.000266789
0.00027985
0.000293172
0.000306623
0.000320148
0.000333601
0.000346985
0.000360117
0.000373099
0.000385648
0.000398029
0.000409828
0.000421514
0.000432429
0.000443143
0.000453243
0.000463072
0.000472168
0.000481108
0.000489352
0.000497353
0.000504796
0.00051178
0.000518684
0.000524737
0.000530861
0.000536339
0.000541674
0.000546505
0.000551159
0.000555496
0.000559523
0.000563584
0.000567177
0.000570875
0.000574062
0.000577619
0.000583505
0.000587316
0.000594786
0.000600376
0.000612403
0.000620677
0.00064494
0.000156931
0.000103935
0.000105302
0.000107319
0.000109255
0.000110898
0.000112642
0.000114373
0.000116226
0.000118186
0.000120335
0.00012269
0.00012526
0.000128045
0.000131126
0.000134426
0.000138104
0.000141871
0.000145666
0.000149671
0.00015408
0.000158905
0.00016413
0.000169727
0.000176156
0.000183645
0.000191789
0.000200476
0.000209888
0.000220043
0.000230821
0.000242195
0.00025403
0.000266275
0.000278773
0.000291502
0.000304273
0.000317128
0.000329827
0.000342511
0.000354856
0.000367126
0.000378909
0.0003906
0.000401702
0.000412602
0.000422904
0.000433083
0.000442412
0.000451871
0.000460366
0.000468949
0.000476659
0.00048435
0.000491531
0.000498343
0.000504953
0.000510912
0.000516975
0.000522247
0.000527662
0.000532532
0.000537271
0.000541808
0.000546146
0.000550192
0.0005547
0.000558687
0.000565365
0.00056968
0.000578064
0.000584182
0.000597135
0.000606123
0.000632637
0.000154502
0.000101177
0.000102459
0.000104335
0.000106122
0.000107627
0.000109182
0.000110716
0.000112311
0.000113983
0.000115789
0.000117751
0.000119904
0.000122227
0.000124797
0.000127559
0.000130604
0.000133895
0.000137413
0.000140967
0.000144664
0.000148614
0.000153087
0.000157891
0.000163005
0.000168777
0.000175446
0.000182937
0.000190783
0.000199368
0.000208554
0.000218426
0.000228827
0.000239769
0.000251074
0.000262763
0.000274616
0.000286706
0.00029876
0.000310932
0.000322888
0.00033487
0.00034649
0.00035806
0.000369187
0.00038018
0.000390605
0.000401038
0.000410529
0.000420503
0.000429143
0.000438305
0.000446226
0.000454655
0.000462054
0.000469644
0.000476509
0.000483349
0.000489705
0.000495851
0.000501707
0.000507288
0.00051274
0.000517735
0.000523027
0.000527341
0.000533305
0.000537584
0.000545011
0.000549864
0.000559198
0.000565838
0.000579701
0.000589413
0.000618581
0.000151783
9.83913e-05
9.9598e-05
0.000101335
0.000102992
0.000104377
0.000105769
0.000107133
0.000108516
0.000109945
0.000111466
0.000113097
0.000114877
0.000116796
0.000118903
0.000121186
0.000123668
0.000126387
0.00012929
0.000132454
0.000135783
0.00013914
0.000142682
0.000146622
0.000150883
0.000155659
0.000160626
0.000166479
0.000173001
0.000180248
0.000187767
0.000196065
0.000204882
0.000214337
0.000224233
0.000234644
0.000245337
0.000256411
0.000267583
0.000279008
0.000290356
0.000301842
0.00031311
0.000324402
0.000335377
0.000346322
0.000356766
0.000367304
0.000377007
0.000387141
0.000396072
0.000405714
0.000413768
0.000422985
0.000430484
0.000438862
0.000445948
0.000453669
0.000460318
0.00046733
0.000473637
0.000479928
0.000486119
0.000491538
0.000497868
0.000502602
0.000509862
0.00051438
0.000522613
0.000528026
0.000538337
0.000545502
0.000560274
0.00057073
0.000602964
0.000148777
9.55652e-05
9.67017e-05
9.83051e-05
9.98494e-05
0.000101125
0.000102379
0.000103594
0.0001048
0.000106028
0.000107312
0.000108671
0.000110133
0.000111708
0.000113414
0.000115274
0.000117272
0.000119473
0.000121817
0.000124392
0.000127104
0.000130074
0.000133184
0.000136357
0.000139677
0.000143459
0.000147519
0.000152089
0.000156879
0.000162568
0.000168772
0.000175621
0.00018276
0.000190636
0.000198955
0.00020789
0.0002172
0.00022701
0.000237054
0.000247477
0.000257974
0.000268729
0.000279416
0.000290234
0.000300859
0.00031157
0.000321892
0.000332368
0.000342174
0.000352365
0.000361545
0.000371419
0.000379866
0.000389345
0.000397178
0.000406269
0.000413505
0.000422143
0.000429015
0.000436912
0.000443628
0.000450643
0.000457544
0.000463547
0.000470997
0.000475971
0.000484271
0.000489282
0.000498395
0.000504337
0.000515631
0.000523333
0.000539033
0.000550263
0.000585999
0.000145488
9.26856e-05
9.37552e-05
9.52308e-05
9.66776e-05
9.78538e-05
9.89869e-05
0.000100073
0.00010113
0.000102189
0.000103277
0.000104415
0.000105615
0.000106903
0.000108275
0.000109772
0.000111364
0.000113115
0.000114976
0.000117021
0.000119184
0.000121544
0.000124041
0.000126741
0.00012962
0.00013257
0.000135643
0.000139134
0.000142936
0.000147246
0.000151705
0.000157048
0.000162828
0.000169227
0.000175862
0.000183223
0.000190975
0.000199311
0.000207998
0.000217166
0.000226552
0.000236321
0.000246171
0.000256278
0.000266326
0.00027658
0.00028659
0.000296816
0.000306557
0.000316667
0.000325971
0.000335922
0.000344697
0.000354336
0.000362648
0.000371962
0.000379846
0.000388718
0.000396363
0.000404578
0.000412163
0.000419564
0.000427368
0.000433814
0.000442175
0.000447692
0.000456892
0.000462438
0.000472504
0.000478963
0.00049125
0.000499506
0.000516172
0.000528221
0.000567933
0.000141925
8.97372e-05
9.07431e-05
9.20942e-05
9.34599e-05
9.45465e-05
9.55744e-05
9.65489e-05
9.74778e-05
9.83968e-05
9.93207e-05
0.000100277
0.000101265
0.000102318
0.00010342
0.000104615
0.000105876
0.000107251
0.00010871
0.000110299
0.000111993
0.000113821
0.000115783
0.000117866
0.00012014
0.000122492
0.000125113
0.00012785
0.000130624
0.000133747
0.000137193
0.000141219
0.00014524
0.000150071
0.000155351
0.000161263
0.000167337
0.00017409
0.000181254
0.000188943
0.000196981
0.000205506
0.00021425
0.000223381
0.000232593
0.000242134
0.000251595
0.000261349
0.000270807
0.000280656
0.000289921
0.000299766
0.000308746
0.000318414
0.000327101
0.000336539
0.000344978
0.000354044
0.000362372
0.000370876
0.000379249
0.000387031
0.000395682
0.000402591
0.000411812
0.000417916
0.000427971
0.000434043
0.000445102
0.00045208
0.000465385
0.000474221
0.000491916
0.000504844
0.00054907
0.000138103
8.6704e-05
8.76502e-05
8.88795e-05
9.01803e-05
9.11877e-05
9.21248e-05
9.30036e-05
9.38242e-05
9.46257e-05
9.54145e-05
9.62223e-05
9.70402e-05
9.79007e-05
9.87902e-05
9.97398e-05
0.000100736
0.000101806
0.00010294
0.000104158
0.000105462
0.000106852
0.000108354
0.000109939
0.000111663
0.000113478
0.000115431
0.00011754
0.00011976
0.000122277
0.000124765
0.000127494
0.000130489
0.000134053
0.000137752
0.00014193
0.000146665
0.000152011
0.000157564
0.000163627
0.000170167
0.000177222
0.000184608
0.000192497
0.000200599
0.000209147
0.000217782
0.000226808
0.000235719
0.000245078
0.000254083
0.000263619
0.000272616
0.000282144
0.000291062
0.000300486
0.000309354
0.000318522
0.000327429
0.000336153
0.000345227
0.00035334
0.000362779
0.000370125
0.000380165
0.000386836
0.000397748
0.000404324
0.00041639
0.000423902
0.000438267
0.00044772
0.000466537
0.000480433
0.000529805
0.000134046
8.357e-05
8.44625e-05
8.55744e-05
8.68267e-05
8.77674e-05
8.86294e-05
8.94292e-05
9.01606e-05
9.08655e-05
9.15448e-05
9.22309e-05
9.29138e-05
9.362e-05
9.4342e-05
9.50978e-05
9.58861e-05
9.67163e-05
9.75937e-05
9.85215e-05
9.95111e-05
0.000100559
0.000101682
0.000102873
0.000104144
0.000105512
0.000106942
0.00010852
0.000110138
0.000111973
0.000113843
0.000115943
0.000118267
0.0001206
0.000123189
0.000126082
0.00012952
0.000133069
0.000137174
0.000141836
0.000146927
0.000152327
0.000158205
0.000164639
0.000171371
0.000178649
0.000186167
0.000194175
0.000202247
0.000210835
0.000219305
0.000228289
0.000237054
0.000246232
0.000255177
0.000264408
0.000273536
0.000282664
0.000292013
0.000300844
0.000310511
0.000318863
0.000329011
0.00033673
0.000347545
0.000354723
0.000366494
0.000373554
0.000386633
0.000394699
0.000410191
0.000420314
0.000440396
0.000455376
0.000510658
0.000129794
8.0324e-05
8.11749e-05
8.21769e-05
8.33944e-05
8.42869e-05
8.50936e-05
8.58337e-05
8.64966e-05
8.71258e-05
8.77198e-05
8.83094e-05
8.88871e-05
8.94721e-05
9.00644e-05
9.06701e-05
9.12977e-05
9.19451e-05
9.26244e-05
9.3332e-05
9.4079e-05
9.48649e-05
9.56953e-05
9.65794e-05
9.75062e-05
9.85099e-05
9.95506e-05
0.000100689
0.000101873
0.000103159
0.000104542
0.000105984
0.000107638
0.000109307
0.000111247
0.000113359
0.00011556
0.000117942
0.000120738
0.00012394
0.000127348
0.000131327
0.000135877
0.000140734
0.000145902
0.000151714
0.000157854
0.00016455
0.000171486
0.000178989
0.000186612
0.000194749
0.000202979
0.000211548
0.000220254
0.000229068
0.000238221
0.000247122
0.000256724
0.000265503
0.000275615
0.000284074
0.000294821
0.000302811
0.000314337
0.000321938
0.000334549
0.000342084
0.000356182
0.000364834
0.000381553
0.000392431
0.00041398
0.000430196
0.000492316
0.000125411
7.69669e-05
7.78157e-05
7.86987e-05
7.98833e-05
8.07738e-05
8.15509e-05
8.22539e-05
8.28718e-05
8.34481e-05
8.39814e-05
8.44995e-05
8.49994e-05
8.54932e-05
8.5988e-05
8.64813e-05
8.69883e-05
8.74994e-05
8.8031e-05
8.85752e-05
8.91433e-05
8.97337e-05
9.03506e-05
9.10013e-05
9.16792e-05
9.2403e-05
9.31589e-05
9.3965e-05
9.48206e-05
9.57201e-05
9.66999e-05
9.77176e-05
9.88382e-05
0.000100035
0.000101308
0.000102763
0.000104266
0.000106001
0.00010793
0.000109988
0.000112137
0.000114801
0.000117814
0.000121082
0.000124904
0.000129312
0.000133873
0.000139044
0.000144607
0.000150713
0.000157183
0.000164137
0.000171503
0.000179139
0.000187287
0.000195402
0.000204288
0.00021272
0.000222321
0.000230843
0.000241191
0.000249586
0.000260776
0.0002689
0.000281044
0.000288962
0.000302384
0.000310389
0.000325535
0.000334825
0.000352926
0.000364676
0.000387967
0.000405602
0.000475654
0.000120994
7.35281e-05
7.43596e-05
7.52383e-05
7.63548e-05
7.73169e-05
7.80796e-05
7.87702e-05
7.93698e-05
7.99192e-05
8.04183e-05
8.08908e-05
8.13396e-05
8.17703e-05
8.2197e-05
8.26102e-05
8.30312e-05
8.34444e-05
8.38708e-05
8.42968e-05
8.47388e-05
8.51876e-05
8.56552e-05
8.61368e-05
8.66397e-05
8.71635e-05
8.77138e-05
8.82881e-05
8.88983e-05
8.95363e-05
9.02156e-05
9.09386e-05
9.16968e-05
9.25319e-05
9.33924e-05
9.43625e-05
9.53806e-05
9.65139e-05
9.77518e-05
9.91454e-05
0.000100626
0.00010244
0.000104297
0.000106303
0.000108813
0.000111627
0.000114743
0.000118553
0.000122665
0.000127136