/*--------------------------------*- C++ -*----------------------------------*\
| =========                 |                                                 |
| \\      /  F ield         | OpenFOAM: The Open Source CFD Toolbox           |
|  \\    /   O peration     | Version:  2.4.0                                 |
|   \\  /    A nd           | Web:      www.OpenFOAM.org                      |
|    \\/     M anipulation  |                                                 |
\*---------------------------------------------------------------------------*/
FoamFile
{
    version     2.0;
    format      ascii;
    class       volVectorField;
    location    "4.32";
    object      U;
}
// * * * * * * * * * * * * * * * * * * * * * * * * * * * * * * * * * * * * * //

dimensions      [0 1 -1 0 0 0 0];

internalField   nonuniform List<vector> 
6000
(
(0.165118 -0.00671297 1.29469e-18)
(-0.00974422 0.00185807 0)
(0.000830083 -0.000234537 7.23198e-18)
(-0.00663299 0.00128742 0)
(-0.00500598 0.000987441 0)
(-0.00607774 0.00114019 0)
(-0.00534627 0.000984522 4.01289e-18)
(-0.00551182 0.000962678 3.3359e-22)
(-0.00513079 0.000867373 0)
(-0.00513471 0.000823132 0)
(-0.00496324 0.000761355 3.91407e-18)
(-0.00499318 0.000724518 -7.7537e-18)
(-0.00499948 0.000688905 0)
(-0.00514296 0.000667793 0)
(-0.00533018 0.000652533 -1.881e-18)
(-0.00562115 0.000644419 0)
(-0.00597032 0.000639098 0)
(-0.00639852 0.00063524 -1.83292e-18)
(-0.0068898 0.000630986 -1.82e-18)
(-0.00745888 0.000625307 0)
(-0.00810641 0.000617034 1.79973e-18)
(-0.00884078 0.000604456 8.96293e-19)
(-0.00965905 0.000585404 -8.93793e-19)
(-0.010555 0.000557302 0)
(-0.0115136 0.000517677 0)
(-0.0125169 0.000464313 0)
(-0.013542 0.000395514 4.48006e-19)
(-0.0145628 0.000310212 -4.50025e-19)
(-0.01555 0.000208131 0)
(-0.0164708 8.9859e-05 0)
(-0.0172889 -4.30071e-05 5.763e-20)
(-0.0179652 -0.00018784 0)
(-0.0184568 -0.000341102 4.72988e-19)
(-0.0187184 -0.000499909 -4.8046e-19)
(-0.0187013 -0.000644389 0)
(-0.0183532 -0.000776517 0)
(-0.0176227 -0.000885267 1.018e-18)
(-0.0164563 -0.000958168 0)
(-0.0148039 -0.000981403 1.06574e-18)
(-0.0126142 -0.0009402 0)
(-0.00985157 -0.000818551 0)
(-0.00648954 -0.000601566 2.29401e-18)
(-0.00253225 -0.00027251 -4.69833e-18)
(0.00182178 0.000165092 0)
(0.00618071 0.000673915 0)
(0.0107303 0.0012637 2.50336e-18)
(0.0153707 0.00194194 0)
(0.0202857 0.00271996 0)
(0.0250971 0.00358184 -5.1828e-18)
(0.0302981 0.00455164 -5.19757e-18)
(0.0348988 0.00556156 -5.1628e-18)
(0.040427 0.00672205 -2.04937e-21)
(0.0442259 0.00780606 4.95718e-18)
(0.0507457 0.00923079 0)
(0.0526765 0.0102236 -3.36544e-21)
(0.0623519 0.0122564 -4.28975e-18)
(0.059999 0.0127202 3.46472e-18)
(0.0783017 0.0164284 3.44379e-18)
(0.0669053 0.0154945 4.57172e-21)
(0.103683 0.0229425 0)
(0.360299 -0.0164522 -1.79995e-18)
(0.00302181 0.00650481 4.28723e-18)
(0.00549615 -0.000894574 -4.33721e-18)
(-0.0149526 0.00337531 -4.60121e-18)
(-0.0124293 0.00257924 0)
(-0.0157727 0.00306035 0)
(-0.0142868 0.00266625 -4.58127e-18)
(-0.0148868 0.00262707 9.07464e-18)
(-0.0140432 0.00238512 0)
(-0.014114 0.00227331 0)
(-0.0137331 0.00211829 -4.34243e-18)
(-0.0138424 0.00202654 4.27824e-18)
(-0.0139009 0.00194144 2.10714e-18)
(-0.0143062 0.00189452 0)
(-0.0148347 0.00186397 2.04912e-18)
(-0.0156293 0.0018514 0)
(-0.0165777 0.00184533 0)
(-0.0177263 0.00184224 0)
(-0.0190365 0.00183796 0)
(-0.020543 0.0018302 0)
(-0.0222477 0.00181575 -8.39174e-24)
(-0.0241679 0.00178934 0)
(-0.0262912 0.00174415 -9.54119e-19)
(-0.0285939 0.00167217 0)
(-0.0310301 0.00156605 0)
(-0.0335459 0.00141954 4.74879e-19)
(-0.036076 0.00122809 -4.7572e-19)
(-0.038549 0.000989092 -7.3803e-24)
(-0.0408865 0.000702183 2.40033e-19)
(-0.0430036 0.000369397 0)
(-0.0448091 -4.4881e-06 -6.10333e-20)
(-0.0462057 -0.00041189 -2.4698e-19)
(-0.0470894 -0.000842488 1.27382e-23)
(-0.0473484 -0.00128446 5.0867e-19)
(-0.0468671 -0.00170368 -5.17733e-19)
(-0.0455234 -0.00209064 0)
(-0.0431922 -0.00241733 0)
(-0.0397451 -0.00265192 0)
(-0.0350596 -0.00275827 0)
(-0.02901 -0.00269716 0)
(-0.0215072 -0.00242455 -2.3731e-18)
(-0.0124908 -0.0018975 0)
(-0.00203475 -0.00105723 2.48289e-18)
(0.00923093 0.000104843 2.5426e-18)
(0.0204553 0.00147851 0)
(0.0321417 0.00305643 0)
(0.0440353 0.00486269 0)
(0.0565071 0.00692233 0)
(0.0687376 0.0092018 5.6393e-18)
(0.0817691 0.0117504 0)
(0.0935093 0.0144195 0)
(0.107178 0.0174462 -5.6548e-18)
(0.117211 0.0203277 -5.52748e-18)
(0.132953 0.0239929 0)
(0.139127 0.0267258 -1.01151e-17)
(0.161638 0.0318027 0)
(0.159032 0.0334664 -8.01423e-18)
(0.200303 0.0423422 -4.00244e-18)
(0.17905 0.0410573 1.72672e-18)
(0.261895 0.0578941 2.70776e-18)
(0.500825 -0.0113666 -1.73809e-19)
(0.0412874 0.00905921 -4.25045e-18)
(0.0141312 -0.00129441 0)
(-0.0188651 0.00483329 4.60855e-18)
(-0.0175025 0.00374063 0)
(-0.0234502 0.00457268 0)
(-0.0218202 0.00403623 0)
(-0.023014 0.00401146 -4.54285e-18)
(-0.021962 0.00367734 0)
(-0.0221782 0.00352236 -4.41385e-18)
(-0.0217035 0.00331033 0)
(-0.021927 0.00318561 0)
(-0.0220813 0.00307783 -2.10834e-18)
(-0.0227483 0.00302537 0)
(-0.023612 0.00299951 0)
(-0.024875 0.00299807 0)
(-0.0263747 0.00300506 0)
(-0.0281731 0.00301461 0)
(-0.0302148 0.00302222 0)
(-0.0325492 0.00302485 1.94079e-18)
(-0.0351789 0.00301755 -1.9263e-18)
(-0.0381244 0.00299075 0)
(-0.0413602 0.00293219 9.42045e-25)
(-0.0448406 0.0028276 -9.4922e-19)
(-0.048486 0.00266448 0)
(-0.0522044 0.00243276 -9.47038e-19)
(-0.0558881 0.00212553 0)
(-0.0594216 0.00173936 4.75643e-19)
(-0.0626807 0.00127457 -2.39014e-19)
(-0.0655341 0.000735359 0)
(-0.0678432 0.000130318 0)
(-0.0694626 -0.000527544 2.45509e-19)
(-0.0702401 -0.00122054 -4.11971e-24)
(-0.0700139 -0.00192553 0)
(-0.0686203 -0.00261213 1.02642e-18)
(-0.0658907 -0.00324743 0)
(-0.0616563 -0.00379048 1.06584e-18)
(-0.0557494 -0.00419515 0)
(-0.0480183 -0.00440867 0)
(-0.0383211 -0.00437422 0)
(-0.0265883 -0.00402668 2.31478e-18)
(-0.0128256 -0.00330012 0)
(0.00269675 -0.00209539 0)
(0.0191706 -0.000385234 -2.43832e-18)
(0.035962 0.0016922 0)
(0.0536474 0.00409921 0)
(0.0718003 0.00687947 2.67129e-18)
(0.0908338 0.0100524 -2.73108e-18)
(0.109634 0.0135872 -2.77456e-18)
(0.129524 0.0175142 0)
(0.14776 0.0216835 0)
(0.168518 0.0263176 0)
(0.184547 0.0308794 5.49091e-18)
(0.208045 0.0363878 5.39304e-18)
(0.219071 0.0409092 5.0481e-18)
(0.251654 0.0482413 0)
(0.251304 0.0516742 4.00945e-18)
(0.309434 0.0638363 8.02329e-18)
(0.28479 0.0639099 0)
(0.401861 0.0858044 -2.72708e-18)
(0.60505 0.000252707 -1.44287e-19)
(0.0970054 0.0110018 4.12594e-18)
(0.0279132 -0.00122955 -4.32566e-18)
(-0.0183172 0.0058425 0)
(-0.0200952 0.00456417 0)
(-0.0290475 0.00577214 0)
(-0.0278762 0.00514478 0)
(-0.0298501 0.00517025 0)
(-0.0288413 0.00477691 0)
(-0.029293 0.00460486 4.41662e-18)
(-0.0288387 0.00435772 4.34725e-18)
(-0.0292146 0.00422017 0)
(-0.0295051 0.00410797 0)
(-0.0304314 0.00406709 0)
(-0.0316177 0.00406096 2.04897e-18)
(-0.0333067 0.00408332 0)
(-0.035299 0.00411373 1.99736e-18)
(-0.0376639 0.00414491 -1.9749e-18)
(-0.0403332 0.00417305 0)
(-0.0433643 0.00419504 -1.93689e-18)
(-0.0467577 0.00420407 0)
(-0.0505303 0.00418557 -9.54138e-19)
(-0.0546388 0.00412094 1.8977e-18)
(-0.0590107 0.00398916 9.44866e-19)
(-0.0635312 0.00377269 0)
(-0.06807 0.00345819 4.70549e-19)
(-0.0724801 0.00303728 0)
(-0.0766069 0.00250664 4.71733e-19)
(-0.0802886 0.00186818 0)
(-0.0833576 0.00112895 0)
(-0.0856415 0.000301696 0)
(-0.0869634 -0.000595294 2.42286e-19)
(-0.0871419 -0.00153789 -9.80254e-19)
(-0.0859897 -0.00249557 0)
(-0.0833232 -0.0034313 -5.0358e-19)
(-0.078958 -0.00430101 0)
(-0.0727182 -0.0050535 -1.0402e-18)
(-0.0644385 -0.00563178 0)
(-0.0539847 -0.00597111 0)
(-0.0412516 -0.00600193 0)
(-0.0262384 -0.0056432 2.21734e-18)
(-0.00904544 -0.0048087 0)
(0.00990914 -0.00336958 2.25276e-18)
(0.0300196 -0.00129312 -2.29627e-18)
(0.0511036 0.00127918 0)
(0.0735982 0.00430902 -2.47584e-18)
(0.0969503 0.00786613 -5.11737e-18)
(0.121531 0.0119662 2.63246e-18)
(0.146044 0.0165816 5.37602e-18)
(0.171876 0.0217128 -5.46152e-18)
(0.195966 0.027225 -5.49316e-18)
(0.222862 0.0332759 0)
(0.24458 0.0393893 -5.4108e-18)
(0.274551 0.0464686 -5.33114e-18)
(0.290799 0.05272 -4.98675e-18)
(0.331074 0.0617915 0)
(0.334902 0.067129 0)
(0.404596 0.0814035 -3.99336e-18)
(0.381726 0.0835312 0)
(0.522251 0.10765 2.66887e-18)
(0.684217 0.0143658 -1.25458e-19)
(0.162892 0.0131442 -3.18913e-20)
(0.0478831 -0.000610598 4.29977e-18)
(-0.0132634 0.00653714 4.60197e-18)
(-0.0200883 0.00513257 0)
(-0.032518 0.00670724 -4.64075e-18)
(-0.0323954 0.0060249 0)
(-0.0353655 0.00612653 0)
(-0.0346461 0.00570079 0)
(-0.0354359 0.00553283 4.41756e-18)
(-0.0351122 0.00526992 -4.34814e-18)
(-0.0356825 0.00513661 0)
(-0.036145 0.00503566 0)
(-0.037326 0.00502056 0)
(-0.0388146 0.00504611 -2.04739e-18)
(-0.0408798 0.00510168 0)
(-0.0432954 0.00516247 -1.99414e-18)
(-0.0461308 0.00522063 1.97062e-18)
(-0.0493066 0.00527374 0)
(-0.052881 0.00531912 0)
(-0.0568481 0.00534773 9.56304e-19)
(-0.0612139 0.00533951 9.48813e-19)
(-0.0659128 0.00526892 -1.88485e-18)
(-0.0708429 0.00510821 -9.37232e-19)
(-0.0758559 0.00483537 0)
(-0.0807879 0.00443493 4.65359e-19)
(-0.0854606 0.00389822 0)
(-0.0896917 0.00322331 -4.6494e-19)
(-0.0932959 0.00241467 2.3293e-19)
(-0.0960867 0.00148289 0)
(-0.0978773 0.000445105 0)
(-0.0984816 -0.000675451 -4.73566e-19)
(-0.0977133 -0.00184922 4.77728e-19)
(-0.0953883 -0.00303991 0)
(-0.091328 -0.00420369 -4.87778e-19)
(-0.0853585 -0.00529028 0)
(-0.0773218 -0.00624131 1.00044e-18)
(-0.0670775 -0.0069924 0)
(-0.0545245 -0.00747071 0)
(-0.0395983 -0.00759715 0)
(-0.0223467 -0.00727778 -2.09673e-18)
(-0.00291133 -0.00640696 -2.10659e-18)
(0.0182685 -0.00483944 -2.11132e-18)
(0.0409077 -0.00254756 1.51231e-21)
(0.0651349 0.000331811 -2.23205e-18)
(0.0912217 0.0037799 2.32396e-18)
(0.118577 0.00789404 4.81822e-18)
(0.147539 0.0126984 0)
(0.176749 0.018176 -2.55742e-18)
(0.20755 0.0243059 5.22701e-18)
(0.236791 0.0309739 5.28591e-18)
(0.268999 0.0382569 0)
(0.296066 0.0457736 0)
(0.331565 0.0542119 0)
(0.353199 0.0620946 4.89083e-18)
(0.39948 0.0725412 0)
(0.408683 0.0798039 0)
(0.486119 0.0953674 3.92428e-18)
(0.468376 0.0998583 -1.66487e-18)
(0.623973 0.124317 -2.65197e-18)
(0.745568 0.0291084 -1.12212e-19)
(0.233435 0.0159973 -3.95235e-18)
(0.074592 0.000575563 0)
(-0.00362683 0.00707465 -4.59195e-18)
(-0.0173705 0.0055269 -4.61606e-18)
(-0.0338121 0.00742564 5.13086e-22)
(-0.0353197 0.00671008 0)
(-0.0395322 0.00690425 0)
(-0.0393447 0.00646638 0)
(-0.0405874 0.00631905 -4.41816e-18)
(-0.0405021 0.00605632 0)
(-0.0413123 0.00594105 0)
(-0.0419781 0.00586415 2.10682e-18)
(-0.0434061 0.00588579 0)
(-0.04517 0.0059518 0)
(-0.0475538 0.00604661 0)
(-0.0503124 0.00614121 0)
(-0.0535096 0.00622782 -1.96366e-18)
(-0.0570545 0.00630592 0)
(-0.0609996 0.00637348 1.91869e-18)
(-0.0653279 0.00641905 -9.49466e-19)
(-0.0700293 0.00641673 -9.40478e-19)
(-0.0750151 0.00633404 1.86499e-18)
(-0.080157 0.0061371 1.8511e-18)
(-0.0852803 0.0058006 0)
(-0.0901993 0.00530836 -4.57564e-19)
(-0.0947188 0.00465288 0)
(-0.0986458 0.00383472 0)
(-0.10179 0.00286165 -4.54623e-19)
(-0.103964 0.00174802 0)
(-0.104986 0.000515049 0)
(-0.104679 -0.00080992 4.58222e-19)
(-0.102869 -0.00219344 0)
(-0.0993873 -0.00359493 0)
(-0.0940687 -0.00496666 4.67427e-19)
(-0.0867562 -0.00625427 0)
(-0.0773106 -0.00739477 -9.52456e-19)
(-0.0656113 -0.00831872 0)
(-0.0515777 -0.00894728 0)
(-0.0351645 -0.00919321 0)
(-0.0164341 -0.00895088 0)
(0.00447601 -0.00809603 1.97842e-18)
(0.0271784 -0.006478 1.97897e-18)
(0.0516422 -0.00408109 1.54258e-21)
(0.0781254 -0.00103337 2.08674e-18)
(0.106775 0.00267371 2.16641e-18)
(0.137012 0.00715655 -2.24992e-18)
(0.169165 0.0124533 0)
(0.201917 0.0185616 -2.39556e-18)
(0.236553 0.0254551 2.45752e-18)
(0.270002 0.0330451 -4.99295e-18)
(0.306602 0.0413427 0)
(0.338463 0.0500656 0)
(0.378705 0.0596671 -4.99017e-18)
(0.405647 0.0690369 -4.71556e-18)
(0.456847 0.0806067 4.61993e-18)
(0.472016 0.0897317 3.81286e-18)
(0.554779 0.106054 -3.85496e-18)
(0.543989 0.112961 1.64224e-18)
(0.708752 0.13661 0)
(0.793859 0.043682 -1.01243e-19)
(0.304761 0.0197859 0)
(0.10796 0.0023325 4.2272e-18)
(0.0107138 0.00761586 4.57565e-18)
(-0.0118396 0.0058253 -6.10226e-23)
(-0.0328712 0.00797468 4.64008e-18)
(-0.0365893 0.00723387 0)
(-0.0423193 0.00752772 0)
(-0.0429057 0.00709121 0)
(-0.0447287 0.00697671 2.20869e-18)
(-0.0449877 0.00672626 2.17315e-18)
(-0.0460868 0.0066395 0)
(-0.0469836 0.00659622 -2.10496e-18)
(-0.0486485 0.00666227 2.07215e-18)
(-0.0506534 0.00677412 0)
(-0.0532913 0.00691078 0)
(-0.0563034 0.00703915 0)
(-0.0597443 0.00715196 5.77259e-23)
(-0.0635114 0.007251 0)
(-0.0676468 0.00733521 -3.80536e-18)
(-0.0721209 0.00739065 9.39692e-19)
(-0.0769073 0.00738584 9.28857e-19)
(-0.0818989 0.00728187 -2.07213e-23)
(-0.0869498 0.00703989 -9.09744e-19)
(-0.0918724 0.00663271 0)
(-0.0964736 0.00604481 0)
(-0.100557 0.00527086 0)
(-0.103935 0.00431445 2.21123e-19)
(-0.106423 0.00318662 4.40713e-19)
(-0.107846 0.00190498 0)
(-0.108034 0.000493926 0)
(-0.106825 -0.0010163 -4.4037e-19)
(-0.104059 -0.00258984 -2.20652e-19)
(-0.0995792 -0.00418382 0)
(-0.0932311 -0.00574824 0)
(-0.0848693 -0.00722584 0)
(-0.0743656 -0.00855031 0)
(-0.0616092 -0.00964814 0)
(-0.0465277 -0.0104353 0)
(-0.0290804 -0.0108168 0)
(-0.00932658 -0.0106759 0)
(0.0126187 -0.00987187 0)
(0.0364443 -0.00825601 -1.21416e-21)
(0.0622777 -0.00582965 1.89699e-18)
(0.090393 -0.00270892 0)
(0.120853 0.00114548 -4.05484e-18)
(0.153112 0.00585988 -2.09754e-18)
(0.187484 0.0114855 0)
(0.222742 0.0180313 2.23627e-18)
(0.260118 0.0254751 -2.29702e-18)
(0.296721 0.0337505 4.67828e-18)
(0.336662 0.0428284 -4.74433e-18)
(0.372468 0.0525132 0)
(0.416575 0.0630614 9.57899e-21)
(0.448366 0.0737046 4.50102e-18)
(0.503652 0.0861928 -8.85948e-18)
(0.524837 0.097021 -1.30886e-20)
(0.611501 0.113785 -3.71254e-18)
(0.608389 0.122983 1.57478e-18)
(0.778439 0.145206 2.50263e-18)
(0.83228 0.0576515 3.11355e-18)
(0.37429 0.0245364 0)
(0.147346 0.00467803 2.61621e-21)
(0.0298948 0.0082832 -2.76317e-22)
(-0.00339909 0.00613078 4.60293e-18)
(-0.0296244 0.00840266 4.6364e-18)
(-0.0361397 0.00763112 0)
(-0.0436895 0.0080223 4.5482e-18)
(-0.045295 0.00759361 0)
(-0.0478382 0.00751972 -2.20814e-18)
(-0.0485485 0.0072895 -9.42485e-23)
(-0.0499893 0.00723834 -2.13738e-18)
(-0.0511425 0.00723477 0)
(-0.053032 0.00734951 -4.13597e-18)
(-0.0552387 0.00750925 0)
(-0.0580618 0.00768718 0)
(-0.0612339 0.00784623 0)
(-0.0647998 0.00798011 1.93966e-18)
(-0.0686463 0.00809343 0)
(-0.0728051 0.00818644 1.88162e-18)
(-0.0772358 0.00824312 -1.85432e-18)
(-0.0819003 0.00822697 0)
(-0.0866817 0.0080936 -2.18513e-23)
(-0.0914277 0.00780037 0)
(-0.0959498 0.00731934 0)
(-0.10006 0.00663643 -4.35605e-19)
(-0.10357 0.00574875 0)
(-0.106302 0.00466267 -4.28312e-19)
(-0.108086 0.00339192 -2.12855e-19)
(-0.108758 0.00195651 -5.29732e-20)
(-0.10816 0.000382977 5.28309e-20)
(-0.106141 -0.00129663 2.11109e-19)
(-0.102552 -0.00304508 4.22129e-19)
(-0.0972405 -0.00481843 0)
(-0.0900598 -0.006565 4.24226e-19)
(-0.0808711 -0.00822518 0)
(-0.0695519 -0.00972978 0)
(-0.0559957 -0.0110016 0)
(-0.0401324 -0.0119517 8.69879e-19)
(-0.0219198 -0.0124775 0)
(-0.00140824 -0.0124524 0)
(0.0213161 -0.011722 1.76806e-18)
(0.0460188 -0.0101443 -1.77487e-18)
(0.0729112 -0.00773895 0)
(0.102227 -0.00460799 0)
(0.13398 -0.000681374 1.90942e-18)
(0.167654 0.00417106 1.9699e-18)
(0.20355 0.0100115 -2.02859e-18)
(0.240535 0.0168546 0)
(0.279784 0.0246862 0)
(0.31862 0.0334525 0)
(0.360931 0.0431057 8.23255e-21)
(0.399732 0.0535114 0)
(0.446755 0.0647882 4.44293e-18)
(0.482602 0.0764429 0)
(0.541138 0.0896536 4.19635e-18)
(0.567869 0.101928 -3.50163e-18)
(0.657488 0.11894 7.1091e-18)
(0.661977 0.130157 -1.52229e-18)
(0.834843 0.150719 -2.42438e-18)
(0.863049 0.0707542 8.43684e-20)
(0.440382 0.030148 -3.63478e-18)
(0.191714 0.00763484 -4.12212e-18)
(0.0539295 0.00918831 -1.83654e-22)
(0.00812575 0.00653405 -4.5906e-18)
(-0.0239892 0.00875984 -4.63142e-18)
(-0.0339008 0.00793806 0)
(-0.0435979 0.00841393 -4.54643e-18)
(-0.0464744 0.00799247 0)
(-0.0498911 0.00796243 -2.20692e-18)
(-0.0511624 0.00775619 -2.1705e-18)
(-0.0530025 0.00774429 2.13492e-18)
(-0.054437 0.00778298 -2.09819e-18)
(-0.0565389 0.00794748 2.06234e-18)
(-0.0589073 0.00815411 -2.02632e-18)
(-0.061848 0.00837021 1.99106e-18)
(-0.0650917 0.00855492 0)
(-0.0686757 0.00870351 0)
(-0.0724804 0.00882386 0)
(-0.0765293 0.00891811 9.28133e-19)
(-0.0807755 0.00896862 9.12502e-19)
(-0.0851751 0.00893457 0)
(-0.089609 0.00876695 -8.83333e-19)
(-0.0939271 0.0084202 0)
(-0.097948 0.00786617 0)
(-0.101494 0.00709242 4.23413e-19)
(-0.104388 0.00609819 -4.18532e-19)
(-0.106465 0.00489209 2.07201e-19)
(-0.107565 0.0034898 0)
(-0.107535 0.00191296 1.02088e-19)
(-0.106226 0.000189577 -1.0163e-19)
(-0.103493 -0.00164729 0)
(-0.0991929 -0.00355966 -2.02298e-19)
(-0.0931768 -0.00550294 4.04655e-19)
(-0.0853021 -0.00742389 -4.0566e-19)
(-0.0754347 -0.00926078 0)
(-0.0634553 -0.0109418 0)
(-0.0492592 -0.0123861 0)
(-0.0327768 -0.0135002 -8.30178e-19)
(-0.0139625 -0.0141743 0)
(0.0071445 -0.0142734 0)
(0.0304878 -0.0136327 -1.68981e-18)
(0.0559 -0.0121189 0)
(0.0836275 -0.00976782 1.71951e-18)
(0.113842 -0.00666666 -1.76065e-18)
(0.146526 -0.00271713 0)
(0.181197 0.00221124 1.85895e-18)
(0.218138 0.00818976 3.82228e-18)
(0.2563 0.0152339 -1.95685e-18)
(0.296806 0.0233393 0)
(0.337176 0.0324537 0)
(0.381096 0.0425258 2.07452e-18)
(0.422056 0.0534536 0)
(0.471145 0.065272 4.14035e-18)
(0.510152 0.0776808 0)
(0.571101 0.0914329 3.92492e-18)
(0.602558 0.104845 3.28301e-18)
(0.694347 0.121969 -3.3672e-18)
(0.705774 0.134832 0)
(0.879848 0.15373 2.29098e-18)
(0.887777 0.0828557 -3.36474e-18)
(0.502066 0.0364528 2.0022e-20)
(0.23982 0.011214 4.06784e-18)
(0.0827126 0.0104414 -1.63131e-22)
(0.0229187 0.00710185 -6.61768e-22)
(-0.0158687 0.00909862 0)
(-0.029797 0.00819238 0)
(-0.0419905 0.008729 0)
(-0.0464005 0.00830728 -2.2382e-18)
(-0.0508575 0.00831958 4.41073e-18)
(-0.0528051 0.00813686 0)
(-0.055109 0.00816449 2.1315e-18)
(-0.0568523 0.00824466 6.23437e-23)
(-0.0591583 0.00845711 -2.05506e-18)
(-0.0616522 0.00870731 5.71679e-23)
(-0.0646518 0.00895701 -1.97796e-18)
(-0.0678934 0.00916183 0)
(-0.071412 0.00931919 0)
(-0.0750862 0.00944055 0)
(-0.0789344 0.00953033 -9.14194e-19)
(-0.0829065 0.00956962 0)
(-0.0869569 0.00951391 8.79971e-19)
(-0.0909698 0.00931016 8.64115e-19)
(-0.0948019 0.00891039 -8.49268e-19)
(-0.0982826 0.00828645 0)
(-0.101245 0.00742735 0)
(-0.103527 0.00633404 4.06111e-19)
(-0.10497 0.00501677 0)
(-0.105426 0.00349261 1.98704e-19)
(-0.104747 0.00178436 -4.9293e-20)
(-0.102792 -7.8981e-05 4.90108e-20)
(-0.0994211 -0.0020638 -1.95089e-19)
(-0.0944912 -0.00413179 0)
(-0.087858 -0.00623759 -3.89029e-19)
(-0.0793823 -0.00832651 0)
(-0.0689331 -0.0103348 0)
(-0.0563933 -0.0121882 7.8561e-19)
(-0.0416596 -0.0138025 0)
(-0.0246617 -0.0150796 0)
(-0.00535056 -0.0159036 0)
(0.0162462 -0.016132 0)
(0.0400997 -0.0155928 0)
(0.0660979 -0.0141615 0)
(0.0944916 -0.0118866 -3.30862e-18)
(0.125385 -0.0088401 1.68929e-18)
(0.158745 -0.00489952 1.728e-18)
(0.194119 6.3964e-05 -3.54076e-18)
(0.231771 0.00612949 -1.81377e-18)
(0.270729 0.0133098 1.85245e-18)
(0.31206 0.0216106 -1.88697e-18)
(0.353463 0.0309731 0)
(0.398441 0.041352 3.84734e-21)
(0.44091 0.052652 -3.8607e-18)
(0.491393 0.0648683 -3.88001e-18)
(0.532757 0.0778146 -3.69679e-18)
(0.59539 0.0919574 -7.35148e-18)
(0.630643 0.106202 -3.08713e-18)
(0.723913 0.12334 3.14341e-18)
(0.741281 0.137433 1.33091e-18)
(0.915464 0.154794 -2.17399e-18)
(0.907675 0.0939126 -7.31357e-20)
(0.558828 0.0432585 3.49538e-18)
(0.290371 0.0154028 2.24845e-21)
(0.115979 0.012125 -2.03141e-22)
(0.04116 0.00790263 4.54984e-18)
(-0.00515442 0.00947216 4.61095e-18)
(-0.0237469 0.00843327 -4.57955e-18)
(-0.0388043 0.00899442 2.2694e-18)
(-0.0450238 0.00855826 4.42276e-23)
(-0.0507027 0.00860641 -2.20328e-18)
(-0.0534504 0.00844267 -2.16538e-18)
(-0.0562914 0.00850678 -2.12741e-18)
(-0.0583774 0.00862467 4.17426e-18)
(-0.0608871 0.00888097 5.21414e-23)
(-0.0634809 0.00916992 2.00475e-18)
(-0.0664961 0.00944827 0)
(-0.0696831 0.00966827 1.92097e-18)
(-0.0730806 0.00982985 0)
(-0.0765689 0.00994803 -1.83898e-18)
(-0.0801633 0.0100296 -8.99786e-19)
(-0.0838121 0.0100546 -8.80804e-19)
(-0.0874706 0.00997531 -2.41619e-23)
(-0.0910289 0.00973512 -8.45558e-19)
(-0.0943534 0.00928401 8.29529e-19)
(-0.0972854 0.00859382 0)
(-0.0996704 0.00765474 -4.00679e-19)
(-0.101356 0.00646902 0)
(-0.102194 0.00504811 0)
(-0.102041 0.00341004 -1.92702e-19)
(-0.100758 0.00157846 0)
(-0.0982076 -0.000416927 0)
(-0.0942524 -0.00254231 1.88637e-19)
(-0.0887501 -0.00475918 0)
(-0.0815599 -0.00702125 0)
(-0.0725459 -0.00927245 3.75971e-19)
(-0.0615795 -0.0114472 0)
(-0.0485459 -0.0134688 -7.58269e-19)
(-0.0333425 -0.0152498 0)
(-0.0158986 -0.0166881 7.68755e-19)
(0.00383803 -0.0176619 0)
(0.0258515 -0.0180228 0)
(0.050136 -0.0175938 0)
(0.076624 -0.0162587 0)
(0.105552 -0.014074 1.60019e-18)
(0.136961 -0.011097 0)
(0.17081 -0.00718576 -3.32458e-18)
(0.206675 -0.00221389 1.69769e-18)
(0.2448 0.00390458 -1.73058e-18)
(0.284281 0.0111772 1.76142e-18)
(0.326132 0.0196198 1.79375e-18)
(0.36821 0.0291605 0)
(0.413854 0.0397673 1.83112e-18)
(0.457352 0.0513312 5.45618e-18)
(0.508733 0.06384 -3.63264e-18)
(0.551808 0.0771555 3.47359e-18)
(0.615546 0.0915738 3.44522e-18)
(0.653745 0.106388 0)
(0.747923 0.123474 -2.95408e-18)
(0.770154 0.1384 -2.49151e-18)
(0.943681 0.154406 0)
(0.92368 0.103938 3.59209e-18)
(0.61047 0.0503741 0)
(0.342129 0.0201605 2.03245e-21)
(0.153299 0.0142957 -2.83375e-22)
(0.0629941 0.00899752 -4.52332e-18)
(0.00827527 0.00993935 -9.1925e-18)
(-0.015664 0.00870156 9.146e-18)
(-0.0339663 0.00923765 -2.26677e-18)
(-0.0422883 0.00876648 2.23408e-18)
(-0.0493863 0.00883887 0)
(-0.0530692 0.00868557 4.33971e-23)
(-0.0565323 0.00878007 0)
(-0.0590054 0.0089293 -4.16033e-18)
(-0.0617311 0.00922363 2.03681e-18)
(-0.0644137 0.00954571 0)
(-0.0674198 0.00984806 0)
(-0.0705221 0.0100794 -1.9017e-18)
(-0.0737681 0.0102421 0)
(-0.0770418 0.0103544 1.81364e-18)
(-0.0803562 0.0104253 8.85792e-19)
(-0.0836589 0.0104339 2.42006e-23)
(-0.0869074 0.0103298 -8.46407e-19)
(-0.0899994 0.0100533 -8.28262e-19)
(-0.0928123 0.00955268 0)
(-0.0951998 0.00879962 0)
(-0.0970194 0.0077853 3.90924e-19)
(-0.0981278 0.00651286 0)
(-0.0983859 0.00499459 1.89668e-19)
(-0.097656 0.00324921 -1.87431e-19)
(-0.0958029 0.00130097 4.6411e-20)
(-0.0926931 -0.000819962 -4.60526e-20)
(-0.0881913 -0.00307981 1.83055e-19)
(-0.0821565 -0.00543978 -1.82364e-19)
(-0.074451 -0.00785261 3.64224e-19)
(-0.0649419 -0.0102609 -3.64645e-19)
(-0.0535031 -0.0125973 0)
(-0.0400215 -0.0147829 0)
(-0.0243957 -0.0167271 0)
(-0.00655465 -0.018324 -2.79128e-22)
(0.0135569 -0.0194466 7.51257e-19)
(0.0359336 -0.0199419 0)
(0.0605883 -0.0196294 0)
(0.087488 -0.0184 0)
(0.116846 -0.016314 0)
(0.148645 -0.0134152 0)
(0.182843 -0.00954591 1.38353e-21)
(0.219039 -0.00458308 0)
(0.257463 0.00156552 3.33029e-18)
(0.297266 0.00890043 -3.37975e-18)
(0.339419 0.0174477 -1.71175e-18)
(0.381912 0.0271179 0)
(0.427938 0.0378966 0)
(0.472111 0.0496462 -3.44233e-18)
(0.524028 0.0623714 8.62415e-21)
(0.568319 0.0759302 -3.25925e-18)
(0.63273 0.0905393 3.22393e-18)
(0.673167 0.105713 2.68992e-18)
(0.76781 0.122704 -2.74888e-18)
(0.793911 0.138123 2.31204e-18)
(0.966262 0.152975 1.89122e-18)
(0.936534 0.112978 6.54505e-20)
(0.657004 0.0576256 -3.35385e-18)
(0.393982 0.0254205 -7.78962e-18)
(0.194093 0.0169859 -3.94008e-22)
(0.0884875 0.0104404 4.49085e-18)
(0.024559 0.0105578 4.57628e-18)
(-0.00545642 0.00904166 -2.28112e-18)
(-0.0273932 0.00948667 0)
(-0.0381308 0.00895409 0)
(-0.0468613 0.00903375 2.19773e-18)
(-0.0516289 0.00887856 2.15833e-18)
(-0.0558137 0.00899446 0)
(-0.058732 0.00916643 2.07276e-18)
(-0.0617011 0.00949163 0)
(-0.0644779 0.0098408 0)
(-0.0674689 0.0101629 0)
(-0.0704756 0.0104026 0)
(-0.0735587 0.0105644 1.83541e-18)
(-0.0766076 0.0106687 8.94745e-19)
(-0.0796331 0.0107269 -8.72654e-19)
(-0.0825822 0.0107172 2.32163e-23)
(-0.085416 0.0105872 0)
(-0.0880408 0.0102745 8.12672e-19)
(-0.0903461 0.0097258 0)
(-0.0921983 0.00891275 0)
(-0.0934661 0.00782718 3.82283e-19)
(-0.0940156 0.00647282 -3.7589e-19)
(-0.0937146 0.00486248 -1.85209e-19)
(-0.0924307 0.00301532 1.82915e-19)
(-0.0900328 0.00095606 -9.05366e-20)
(-0.0863908 -0.00128495 8.9764e-20)
(-0.0813696 -0.00367404 -1.78355e-19)
(-0.0748308 -0.00617203 1.77635e-19)
(-0.0666398 -0.00873065 -7.97772e-23)
(-0.0566664 -0.0112913 -3.54917e-19)
(-0.0447868 -0.0137848 0)
(-0.03089 -0.0161302 0)
(-0.0148759 -0.0182338 0)
(0.00332674 -0.0199864 -1.45222e-18)
(0.0237757 -0.0212563 -7.31801e-19)
(0.0464746 -0.0218865 0)
(0.0714508 -0.0216948 0)
(0.0986974 -0.0205775 -1.49879e-18)
(0.128399 -0.0185949 0)
(0.160492 -0.0157783 0)
(0.194929 -0.0119586 3.12474e-18)
(0.231335 -0.0070159 -1.58599e-18)
(0.269925 -0.000852463 -3.22117e-18)
(0.3099 0.0065242 2.07932e-21)
(0.35219 0.0151501 3.29565e-18)
(0.394902 0.0249148 1.65326e-18)
(0.441102 0.0358251 0)
(0.485686 0.0477037 1.64193e-18)
(0.537875 0.0605899 3.26503e-18)
(0.583006 0.0742982 3.09423e-18)
(0.647771 0.0890367 -3.05253e-18)
(0.689886 0.104407 -2.54045e-18)
(0.784663 0.121279 2.59118e-18)
(0.813803 0.136917 -1.08064e-18)
(0.984636 0.15081 -1.77849e-18)
(0.946831 0.121095 6.24722e-20)
(0.698588 0.064863 3.31462e-18)
(0.44498 0.031096 -1.57397e-21)
(0.237675 0.0202038 -5.30264e-22)
(0.117602 0.0122758 0)
(0.0438145 0.0113866 0)
(0.00699729 0.00949628 1.72071e-22)
(-0.0189902 0.0097706 0)
(-0.0324792 0.00914438 0)
(-0.0430729 0.00920868 -6.91163e-24)
(-0.0490913 0.00903567 0)
(-0.0541138 0.00916128 0)
(-0.0575516 0.00934533 2.06534e-18)
(-0.0608081 0.00969307 0)
(-0.063701 0.0100628 0)
(-0.0666867 0.0104006 0)
(-0.0696018 0.0106461 0)
(-0.0725243 0.0108052 -3.85746e-23)
(-0.0753497 0.0108998 -8.83729e-19)
(-0.0780875 0.0109431 1.72154e-18)
(-0.0806847 0.0109131 2.15726e-23)
(-0.0831064 0.0107557 8.18199e-19)
(-0.0852691 0.0104065 0)
(-0.0870744 0.0098108 7.8078e-19)
(-0.0884019 0.00894009 0)
(-0.0891311 0.00778661 -3.74787e-19)
(-0.0891371 0.00635438 2.64122e-23)
(-0.0882942 0.00465646 0)
(-0.0864747 0.00271226 0)
(-0.0835514 0.000546804 5.54779e-24)
(-0.0793967 -0.00180957 -6.43261e-24)
(-0.0738762 -0.00432335 8.71448e-20)
(-0.0668544 -0.00695478 0)
(-0.0581995 -0.00965463 -3.46585e-19)
(-0.0477843 -0.0123631 3.46856e-19)
(-0.0354872 -0.0150093 0)
(-0.0211995 -0.0175103 -6.99308e-19)
(-0.00482231 -0.0197696 0)
(0.0137152 -0.0216747 2.38908e-22)
(0.0344728 -0.0230896 0)
(0.0574613 -0.0238545 7.20935e-19)
(0.0827192 -0.0237861 7.27189e-19)
(0.110258 -0.0227847 7.40066e-22)
(0.140233 -0.0209074 -1.48354e-18)
(0.172541 -0.0181744 0)
(0.207133 -0.014408 -1.19764e-21)
(0.243653 -0.00949226 1.54661e-18)
(0.282305 -0.00332407 1.66551e-21)
(0.322335 0.00408016 1.58212e-18)
(0.364635 0.012766 -2.25394e-21)
(0.407416 0.0226002 -2.59075e-21)
(0.453631 0.0336124 0)
(0.498423 0.0455781 0)
(0.550686 0.058584 0)
(0.59637 0.0723719 0)
(0.661251 0.0871947 0)
(0.704612 0.102637 2.38849e-18)
(0.799281 0.119379 0)
(0.830788 0.135023 0)
(0.99989 0.148136 -1.65777e-18)
(0.95506 0.128363 -1.9281e-18)
(0.735471 0.071963 0)
(0.494343 0.0370874 -1.3823e-21)
(0.283286 0.0239342 -6.86434e-22)
(0.150177 0.0145377 0)
(0.0661283 0.0124831 2.26278e-18)
(0.0218343 0.0101072 -2.26634e-18)
(-0.00865126 0.0101197 0)
(-0.0252525 0.00936193 0)
(-0.037956 0.00938221 -2.1915e-18)
(-0.0454101 0.00917196 0)
(-0.0514042 0.00929285 0)
(-0.055453 0.00947638 -2.05846e-18)
(-0.0590576 0.00983705 0)
(-0.0621039 0.0102202 -1.95466e-18)
(-0.0651077 0.0105693 0)
(-0.0679465 0.0108179 0)
(-0.0707196 0.0109724 -3.05584e-23)
(-0.0733305 0.0110553 0)
(-0.0757882 0.0110814 -8.50237e-19)
(-0.0780405 0.0110286 8.27752e-19)
(-0.0800577 0.010842 -1.61304e-18)
(-0.0817665 0.0104557 7.86646e-19)
(-0.0830816 0.00981363 -7.68298e-19)
(-0.0838956 0.00888708 0)
(-0.0840988 0.00766848 -3.68252e-19)
(-0.0835748 0.00616182 7.23336e-19)
(-0.0822043 0.00438015 0)
(-0.0798641 0.00234299 -8.78266e-20)
(-0.0764305 7.55301e-05 4.3444e-20)
(-0.071778 -0.00239212 -4.30215e-20)
(-0.0657733 -0.00502649 -8.54373e-20)
(-0.0582844 -0.00778719 0)
(-0.0491821 -0.010624 -3.39609e-19)
(-0.0383419 -0.013476 3.39875e-19)
(-0.0256449 -0.0162708 0)
(-0.0109845 -0.0189233 6.85773e-19)
(0.00573644 -0.0213343 0)
(0.0245885 -0.0233884 6.95379e-19)
(0.045632 -0.0249459 0)
(0.0688835 -0.0258444 -7.0748e-19)
(0.0943893 -0.0259003 -7.14081e-19)
(0.122174 -0.0250166 7.0421e-22)
(0.152364 -0.0232446 1.45757e-18)
(0.184823 -0.0205943 0)
(0.2195 -0.0168826 -1.49482e-18)
(0.256059 -0.0119973 0)
(0.29469 -0.00583078 1.52987e-18)
(0.334681 0.00159136 0)
(0.37689 0.0103238 -1.55144e-18)
(0.41962 0.0202089 -3.09743e-18)
(0.465726 0.0313008 0)
(0.510568 0.0433221 0)
(0.562751 0.0564163 0)
(0.608765 0.0702307 1.40705e-18)
(0.673584 0.0851038 0)
(0.717851 0.100524 -1.0438e-20)
(0.812235 0.11713 0)
(0.845582 0.132619 9.28755e-19)
(1.01283 0.145112 1.56906e-18)
(0.961618 0.134858 0)
(0.767962 0.0788288 3.22611e-18)
(0.54146 0.0432895 3.74435e-18)
(0.330148 0.0281403 -8.5393e-22)
(0.185929 0.0172466 0)
(0.0915435 0.0138987 -2.24745e-18)
(0.0391917 0.0109163 0)
(0.00373799 0.0105665 2.24957e-18)
(-0.0163605 0.00963271 2.22232e-18)
(-0.0314345 0.00957369 2.18848e-18)
(-0.0405284 0.00930344 2.14735e-18)
(-0.0476461 0.00940241 2.10248e-18)
(-0.0524155 0.00957077 0)
(-0.0564454 0.00993327 0)
(-0.0596965 0.0103215 1.94452e-18)
(-0.0627532 0.0106769 0)
(-0.06554 0.0109256 0)
(-0.0681819 0.0110733 -1.78161e-18)
(-0.0705928 0.011142 0)
(-0.0727828 0.0111481 -8.41057e-19)
(-0.0747014 0.0110698 0)
(-0.0763248 0.010852 7.96389e-19)
(-0.0775906 0.0104273 -7.7615e-19)
(-0.0784269 0.00973918 0)
(-0.0787392 0.00875819 0)
(-0.0784286 0.00747674 1.89051e-23)
(-0.0773871 0.00589855 -3.5601e-19)
(-0.0755015 0.00403645 0)
(-0.0726529 0.00190989 8.64057e-20)
(-0.0687215 -0.000455941 4.2706e-20)
(-0.0635829 -0.00303124 -4.22807e-20)
(-0.0571062 -0.0057825 0)
(-0.0491624 -0.00866864 0)
(-0.0396254 -0.0116386 6.47615e-23)
(-0.0283733 -0.0146301 -7.17027e-23)
(-0.01529 -0.0175694 0)