/*--------------------------------*- C++ -*----------------------------------*\
| =========                 |                                                 |
| \\      /  F ield         | OpenFOAM: The Open Source CFD Toolbox           |
|  \\    /   O peration     | Version:  2.4.0                                 |
|   \\  /    A nd           | Web:      www.OpenFOAM.org                      |
|    \\/     M anipulation  |                                                 |
\*---------------------------------------------------------------------------*/
FoamFile
{
    version     2.0;
    format      ascii;
    class       surfaceScalarField;
    location    "2.48";
    object      phi;
}
// * * * * * * * * * * * * * * * * * * * * * * * * * * * * * * * * * * * * * //

dimensions      [0 3 -1 0 0 0 0];

internalField   nonuniform List<scalar> 
11840
(
7.85252e-07
9.21475e-06
-2.01115e-08
8.05364e-07
-4.79227e-08
2.78112e-08
-7.30196e-08
2.50969e-08
-8.39239e-08
1.09042e-08
-8.55522e-08
1.62836e-09
-8.97752e-08
4.22299e-09
-8.94952e-08
-2.80029e-10
-9.21813e-08
2.68606e-09
-9.37174e-08
1.53612e-09
-9.88895e-08
5.17209e-09
-1.04947e-07
6.05796e-09
-1.115e-07
6.55302e-09
-1.12241e-07
7.40861e-10
-1.01552e-07
-1.06897e-08
-7.50764e-08
-2.64752e-08
-3.6926e-08
-3.81504e-08
1.99094e-09
-3.89169e-08
2.72782e-08
-2.52873e-08
2.41556e-08
3.12263e-09
-2.54805e-08
4.9636e-08
-1.36738e-07
1.11257e-07
-3.11134e-07
1.74396e-07
-5.31902e-07
2.20768e-07
-7.72413e-07
2.4051e-07
-1.00642e-06
2.34004e-07
-1.2128e-06
2.06378e-07
-1.37465e-06
1.61857e-07
-1.47645e-06
1.01801e-07
-1.50233e-06
2.58741e-08
-1.43695e-06
-6.53808e-08
-1.27143e-06
-1.65515e-07
-1.01039e-06
-2.61037e-07
-6.75971e-07
-3.34422e-07
-3.05546e-07
-3.70425e-07
5.46679e-08
-3.60214e-07
3.68398e-07
-3.1373e-07
6.1584e-07
-2.47442e-07
7.82519e-07
-1.66679e-07
8.67962e-07
-8.5443e-08
8.851e-07
-1.71375e-08
8.53827e-07
3.12727e-08
7.9528e-07
5.85476e-08
7.26919e-07
6.83608e-08
6.60519e-07
6.63996e-08
6.0311e-07
5.74097e-08
5.58397e-07
4.47123e-08
5.28982e-07
2.94152e-08
5.1509e-07
1.38921e-08
5.17444e-07
-2.35408e-09
5.31581e-07
-1.41369e-08
5.59313e-07
-2.77318e-08
5.89287e-07
-2.99747e-08
6.34407e-07
-4.51191e-08
6.64581e-07
-3.01741e-08
7.27352e-07
-6.2771e-08
7.36555e-07
-9.20336e-09
8.41116e-07
-1.04561e-07
7.91687e-07
4.94288e-08
-3.02117e-07
1.91847e-06
1.72963e-05
1.02925e-07
2.62091e-06
-7.37933e-08
2.0453e-07
-1.77651e-07
1.28955e-07
-2.09967e-07
4.32198e-08
-2.28118e-07
1.97793e-08
-2.39289e-07
1.53936e-08
-2.44788e-07
5.21951e-09
-2.51993e-07
9.89091e-09
-2.5966e-07
9.20277e-09
-2.73868e-07
1.93807e-08
-2.91321e-07
2.35109e-08
-3.07135e-07
2.23667e-08
-3.06641e-07
2.47199e-10
-2.74757e-07
-4.25739e-08
-2.03428e-07
-9.78037e-08
-1.05246e-07
-1.36333e-07
-1.21183e-08
-1.32045e-07
3.40698e-08
-7.14754e-08
-1.01866e-08
4.73791e-08
-1.89061e-07
2.2851e-07
-5.26519e-07
4.48715e-07
-1.00385e-06
6.5173e-07
-1.56289e-06
7.79806e-07
-2.13294e-06
8.1056e-07
-2.6539e-06
7.54965e-07
-3.08244e-06
6.34922e-07
-3.38649e-06
4.65904e-07
-3.53776e-06
2.53069e-07
-3.50855e-06
-3.33538e-09
-3.27415e-06
-2.99781e-07
-2.82368e-06
-6.15991e-07
-2.17213e-06
-9.1258e-07
-1.36614e-06
-1.14041e-06
-4.83713e-07
-1.25286e-06
3.6582e-07
-1.20975e-06
1.09754e-06
-1.04545e-06
1.66814e-06
-8.18043e-07
2.05051e-06
-5.49056e-07
2.24608e-06
-2.81011e-07
2.28284e-06
-5.38989e-08
2.20544e-06
1.08678e-07
2.0618e-06
2.02183e-07
1.89341e-06
2.36755e-07
1.72963e-06
2.30175e-07
1.58849e-06
1.98554e-07
1.48001e-06
1.53194e-07
1.40982e-06
9.96043e-08
1.37906e-06
4.46518e-08
1.38635e-06
-9.64557e-09
1.42494e-06
-5.27281e-08
1.49083e-06
-9.36249e-08
1.57147e-06
-1.10607e-07
1.671e-06
-1.44647e-07
1.76479e-06
-1.23968e-07
1.8838e-06
-1.81787e-07
1.96306e-06
-8.84612e-08
2.12306e-06
-2.64556e-07
2.14434e-06
2.81427e-08
-7.94467e-07
2.91774e-06
2.43785e-05
3.97563e-07
5.14109e-06
-3.94682e-08
6.41561e-07
-2.38782e-07
3.28269e-07
-3.02605e-07
1.07043e-07
-3.4531e-07
6.24839e-08
-3.66442e-07
3.65258e-08
-3.81449e-07
2.02268e-08
-3.94535e-07
2.29767e-08
-4.1011e-07
2.47783e-08
-4.33478e-07
4.27484e-08
-4.61809e-07
5.18417e-08
-4.85028e-07
4.55859e-08
-4.81885e-07
-2.89585e-09
-4.30305e-07
-9.41536e-08
-3.21698e-07
-2.06411e-07
-1.78223e-07
-2.79807e-07
-5.19601e-08
-2.58308e-07
-9.43249e-09
-1.14003e-07
-1.22107e-07
1.60053e-07
-4.51174e-07
5.57577e-07
-1.0175e-06
1.01504e-06
-1.77248e-06
1.40671e-06
-2.61425e-06
1.62157e-06
-3.43343e-06
1.62975e-06
-4.1449e-06
1.46643e-06
-4.69194e-06
1.18196e-06
-5.0354e-06
8.09364e-07
-5.14278e-06
3.60451e-07
-4.98432e-06
-1.61798e-07
-4.5383e-06
-7.45797e-07
-3.80315e-06
-1.35114e-06
-2.81063e-06
-1.9051e-06
-1.63161e-06
-2.31943e-06
-3.80163e-07
-2.50431e-06
8.08295e-07
-2.3982e-06
1.8417e-06
-2.07886e-06
2.65713e-06
-1.63346e-06
3.21077e-06
-1.1027e-06
3.49867e-06
-5.68909e-07
3.55474e-06
-1.09968e-07
3.43908e-06
2.24338e-07
3.22096e-06
4.20301e-07
2.96302e-06
4.94695e-07
2.71151e-06
4.81687e-07
2.49537e-06
4.14697e-07
2.33071e-06
3.17852e-07
2.22533e-06
2.04984e-07
2.1807e-06
8.92798e-08
2.19253e-06
-2.14688e-08
2.25262e-06
-1.12817e-07
2.35026e-06
-1.91274e-07
2.47547e-06
-2.35812e-07
2.61877e-06
-2.8795e-07
2.77162e-06
-2.7682e-07
2.93095e-06
-3.41108e-07
3.0842e-06
-2.41713e-07
3.26831e-06
-4.48663e-07
3.39182e-06
-9.53704e-08
-1.35498e-06
3.80966e-06
3.05689e-05
8.14731e-07
8.13602e-06
5.38976e-08
1.40239e-06
-2.52235e-07
6.34401e-07
-3.61777e-07
2.16585e-07
-4.34905e-07
1.35612e-07
-4.70932e-07
7.25532e-08
-4.98132e-07
4.74264e-08
-5.19323e-07
4.41679e-08
-5.4394e-07
4.93954e-08
-5.76888e-07
7.56963e-08
-6.15412e-07
9.03655e-08
-6.44982e-07
7.51559e-08
-6.39223e-07
-8.65496e-09
-5.71613e-07
-1.61764e-07
-4.35042e-07
-3.42982e-07
-2.61397e-07
-4.53452e-07
-1.20954e-07
-3.98751e-07
-1.03674e-07
-1.31283e-07
-3.02575e-07
3.58955e-07
-7.89837e-07
1.04484e-06
-1.57153e-06
1.79673e-06
-2.56083e-06
2.39602e-06
-3.61258e-06
2.67332e-06
-4.58698e-06
2.60414e-06
-5.38522e-06
2.26467e-06
-5.94812e-06
1.74486e-06
-6.23925e-06
1.10049e-06
-6.23122e-06
3.52421e-07
-5.90209e-06
-4.90927e-07
-5.24141e-06
-1.40647e-06
-4.26177e-06
-2.33079e-06
-3.01098e-06
-3.15589e-06
-1.57868e-06
-3.75173e-06
-9.66324e-08
-3.98635e-06
1.31255e-06
-3.80739e-06
2.56164e-06
-3.32794e-06
3.56072e-06
-2.63254e-06
4.25089e-06
-1.79287e-06
4.61932e-06
-9.3734e-07
4.69845e-06
-1.89102e-07
4.5559e-06
3.66892e-07
4.27615e-06
7.0005e-07
3.94003e-06
8.30815e-07
3.61001e-06
8.11702e-07
3.32626e-06
6.98454e-07
3.11095e-06
5.33159e-07
2.97377e-06
3.42161e-07
2.91583e-06
1.47217e-07
2.93018e-06
-3.5816e-08
3.00663e-06
-1.89264e-07
3.12977e-06
-3.14417e-07
3.29002e-06
-3.9606e-07
3.46984e-06
-4.6777e-07
3.66874e-06
-4.75717e-07
3.8644e-06
-5.3677e-07
4.07323e-06
-4.50549e-07
4.28365e-06
-6.59079e-07
4.4871e-06
-2.98825e-07
-1.94223e-06
4.61622e-06
3.59527e-05
1.3261e-06
1.14261e-05
2.14588e-07
2.51391e-06
-2.1683e-07
1.06582e-06
-3.86283e-07
3.86038e-07
-4.96067e-07
2.45396e-07
-5.52027e-07
1.28514e-07
-5.94261e-07
8.96599e-08
-6.25763e-07
7.56706e-08
-6.60512e-07
8.41437e-08
-7.03383e-07
1.18568e-07
-7.51597e-07
1.38579e-07
-7.87119e-07
1.10678e-07
-7.7999e-07
-1.57839e-08
-7.01421e-07
-2.40334e-07
-5.4699e-07
-4.97413e-07
-3.57655e-07
-6.42787e-07
-2.19561e-07
-5.36844e-07
-2.42934e-07
-1.0791e-07
-5.38285e-07
6.54305e-07
-1.17957e-06
1.68612e-06
-2.14808e-06
2.76524e-06
-3.31331e-06
3.56125e-06
-4.49136e-06
3.85137e-06
-5.5238e-06
3.63658e-06
-6.31157e-06
3.05244e-06
-6.80462e-06
2.23792e-06
-6.97852e-06
1.27439e-06
-6.81862e-06
1.9252e-07
-6.31639e-06
-9.9315e-07
-5.4747e-06
-2.24817e-06
-4.3179e-06
-3.48759e-06
-2.90354e-06
-4.57025e-06
-1.32883e-06
-5.32644e-06
2.81108e-07
-5.59629e-06
1.8307e-06
-5.35698e-06
3.22886e-06
-4.72611e-06
4.36476e-06
-3.76845e-06
5.16643e-06
-2.59454e-06
5.6095e-06
-1.38041e-06
5.719e-06
-2.986e-07
5.56312e-06
5.22772e-07
5.23584e-06
1.02733e-06
4.83313e-06
1.23353e-06
4.43307e-06
1.21176e-06
4.08757e-06
1.04395e-06
3.82529e-06
7.95444e-07
3.65785e-06
5.09604e-07
3.58564e-06
2.19426e-07
3.59933e-06
-4.95072e-08
3.68643e-06
-2.76362e-07
3.82833e-06
-4.56326e-07
4.01445e-06
-5.82178e-07
4.22314e-06
-6.76457e-07
4.45632e-06
-7.08897e-07
4.68316e-06
-7.6361e-07
4.93183e-06
-6.99216e-07
5.16829e-06
-8.9554e-07
5.43061e-06
-5.61145e-07
-2.528e-06
5.3478e-06
4.06048e-05
1.90423e-06
1.48697e-05
4.50489e-07
3.96765e-06
-1.31429e-07
1.64774e-06
-3.74955e-07
6.29563e-07
-5.27956e-07
3.98397e-07
-6.09021e-07
2.09579e-07
-6.69302e-07
1.4994e-07
-7.13323e-07
1.19692e-07
-7.59268e-07
1.30088e-07
-8.12371e-07
1.7167e-07
-8.6998e-07
1.96188e-07
-9.11652e-07
1.5235e-07
-9.05361e-07
-2.20748e-08
-8.21744e-07
-3.23951e-07
-6.59545e-07
-6.59611e-07
-4.67573e-07
-8.34759e-07
-3.45232e-07
-6.59186e-07
-4.19503e-07
-3.36382e-08
-8.12981e-07
1.04778e-06
-1.59275e-06
2.46588e-06
-2.70661e-06
3.8791e-06
-3.97926e-06
4.8339e-06
-5.19742e-06
5.06953e-06
-6.19901e-06
4.63818e-06
-6.89908e-06
3.7525e-06
-7.26713e-06
2.60596e-06
-7.29692e-06
1.30419e-06
-6.98933e-06
-1.15069e-07
-6.3473e-06
-1.63519e-06
-5.38101e-06
-3.21445e-06
-4.11885e-06
-4.74975e-06
-2.61881e-06
-6.07028e-06
-9.74401e-07
-6.97085e-06
7.0682e-07
-7.27751e-06
2.34297e-06
-6.99313e-06
3.83511e-06
-6.21824e-06
5.06682e-06
-5.00016e-06
5.95823e-06
-3.48596e-06
6.47242e-06
-1.8946e-06
6.62173e-06
-4.47906e-07
6.46793e-06
6.76568e-07
6.10856e-06
1.38671e-06
5.65136e-06
1.69072e-06
5.18934e-06
1.67379e-06
4.78687e-06
1.44642e-06
4.47987e-06
1.10244e-06
4.28234e-06
7.07139e-07
4.19392e-06
3.07847e-07
4.20318e-06
-5.87727e-08
4.29523e-06
-3.6841e-07
4.4493e-06
-6.10396e-07
4.65301e-06
-7.85884e-07
4.88313e-06
-9.06582e-07
5.14063e-06
-9.6639e-07
5.39286e-06
-1.01585e-06
5.66898e-06
-9.75332e-07
5.92905e-06
-1.15561e-06
6.23264e-06
-8.64738e-07
-3.09477e-06
6.00994e-06
4.45949e-05
2.52618e-06
1.83535e-05
7.60006e-07
5.73382e-06
7.73384e-10
2.40697e-06
-3.26616e-07
9.56953e-07
-5.29656e-07
6.01436e-07
-6.41171e-07
3.21094e-07
-7.22701e-07
2.3147e-07
-7.81481e-07
1.78472e-07
-8.39692e-07
1.883e-07
-9.03331e-07
2.35309e-07
-9.70252e-07
2.6311e-07
-1.01876e-06
2.00861e-07
-1.01616e-06
-2.46733e-08
-9.33693e-07
-4.06422e-07
-7.73171e-07
-8.20134e-07
-5.89659e-07
-1.01827e-06
-4.93009e-07
-7.55837e-07
-6.2312e-07
9.64734e-08
-1.10877e-06
1.53344e-06
-2.00169e-06
3.3588e-06
-3.21033e-06
5.08774e-06
-4.51887e-06
6.14245e-06
-5.69883e-06
6.24949e-06
-6.60166e-06
5.54101e-06
-7.16934e-06
4.32018e-06
-7.39646e-06
2.83308e-06
-7.29396e-06
1.20168e-06
-6.87214e-06
-5.36884e-07
-6.13694e-06
-2.37039e-06
-5.09787e-06
-4.25352e-06
-3.78095e-06
-6.06667e-06
-2.23979e-06
-7.61145e-06
-5.60413e-07
-8.65022e-06
1.16318e-06
-9.0011e-06
2.84925e-06
-8.6792e-06
4.39265e-06
-7.76165e-06
5.68261e-06
-6.29012e-06
6.6388e-06
-4.44214e-06
7.21571e-06
-2.47151e-06
7.41147e-06
-6.43668e-07
7.27507e-06
8.12962e-07
6.90028e-06
1.7615e-06
6.40193e-06
2.18907e-06
5.88646e-06
2.18926e-06
5.43143e-06
1.90145e-06
5.08118e-06
1.45269e-06
4.8529e-06
9.35416e-07
4.74582e-06
4.14929e-07
4.74673e-06
-5.96805e-08
4.83838e-06
-4.60063e-07
4.9985e-06
-7.70516e-07
5.21261e-06
-9.99997e-07
5.45736e-06
-1.15133e-06
5.731e-06
-1.24003e-06
6.00278e-06
-1.28763e-06
6.29701e-06
-1.26956e-06
6.57693e-06
-1.43553e-06
6.90799e-06
-1.1958e-06
-3.63306e-06
6.60647e-06
4.79884e-05
3.17295e-06
2.1787e-05
1.13948e-06
7.76729e-06
1.97501e-07
3.34895e-06
-2.40003e-07
1.39446e-06
-5.00133e-07
8.61567e-07
-6.47649e-07
4.6861e-07
-7.53835e-07
3.37656e-07
-8.29683e-07
2.5432e-07
-9.01274e-07
2.59891e-07
-9.75784e-07
3.09819e-07
-1.05212e-06
3.39448e-07
-1.10851e-06
2.57244e-07
-1.11277e-06
-2.04104e-08
-1.03745e-06
-4.81741e-07
-8.86958e-07
-9.70625e-07
-7.20759e-07
-1.18447e-06
-6.56244e-07
-8.20352e-07
-8.42229e-07
2.82459e-07
-1.40748e-06
2.09868e-06
-2.38094e-06
4.33226e-06
-3.63008e-06
6.33688e-06
-4.90861e-06
7.42098e-06
-5.99084e-06
7.33171e-06
-6.7577e-06
6.30788e-06
-7.18419e-06
4.74668e-06
-7.28598e-06
2.93486e-06
-7.08217e-06
9.97876e-07
-6.58274e-06
-1.03631e-06
-5.79012e-06
-3.16301e-06
-4.71001e-06
-5.33363e-06
-3.36441e-06
-7.41228e-06
-1.80222e-06
-9.17364e-06
-1.02591e-07
-1.03498e-05
1.6458e-06
-1.07495e-05
3.35655e-06
-1.03899e-05
4.92157e-06
-9.32667e-06
6.23933e-06
-7.60788e-06
7.23391e-06
-5.43673e-06
7.85743e-06
-3.09503e-06
8.09778e-06
-8.84015e-07
7.98914e-06
9.21605e-07
7.61463e-06
2.13601e-06
7.08946e-06
2.71424e-06
6.53018e-06
2.74854e-06
6.02743e-06
2.4042e-06
5.63528e-06
1.84484e-06
5.3753e-06
1.19539e-06
5.24698e-06
5.43253e-07
5.23574e-06
-4.84414e-08
5.3222e-06
-5.46521e-07
5.48295e-06
-9.31264e-07
5.70142e-06
-1.21847e-06
5.9548e-06
-1.40471e-06
6.23805e-06
-1.52328e-06
6.52389e-06
-1.57347e-06
6.82933e-06
-1.575e-06
7.12476e-06
-1.73096e-06
7.47282e-06
-1.54386e-06
-4.1389e-06
7.14095e-06
5.08475e-05
3.8287e-06
2.50992e-05
1.5821e-06
1.00139e-05
4.43504e-07
4.48755e-06
-1.13186e-07
1.95115e-06
-4.38207e-07
1.18659e-06
-6.27521e-07
6.57923e-07
-7.61986e-07
4.72122e-07
-8.57326e-07
3.4966e-07
-9.43495e-07
3.4606e-07
-1.02927e-06
3.95599e-07
-1.11529e-06
4.25459e-07
-1.18077e-06
3.22727e-07
-1.19508e-06
-6.09886e-09
-1.13239e-06
-5.44425e-07
-9.98922e-07
-1.1041e-06
-8.56543e-07
-1.32685e-06
-8.27319e-07
-8.49576e-07
-1.0649e-06
5.20043e-07
-1.69191e-06
2.7257e-06
-2.70936e-06
5.34971e-06
-3.94718e-06
7.5747e-06
-5.14351e-06
8.61732e-06
-6.09364e-06
8.28184e-06
-6.717e-06
6.93124e-06
-7.01718e-06
5.04686e-06
-7.01998e-06
2.93765e-06
-6.74315e-06
7.21042e-07
-6.19112e-06
-1.58834e-06
-5.36143e-06
-3.9927e-06
-4.25611e-06
-6.43894e-06
-2.89359e-06
-8.7748e-06
-1.31921e-06
-1.0748e-05
3.91875e-07
-1.20609e-05
2.15369e-06
-1.25113e-05
3.87192e-06
-1.21082e-05
5.43924e-06
-1.0894e-05
6.76289e-06
-8.93152e-06
7.77297e-06
-6.4468e-06
8.42356e-06
-3.74562e-06
8.69808e-06
-1.15854e-06
8.6189e-06
1.00079e-06
8.25551e-06
2.49939e-06
7.71688e-06
3.25287e-06
7.12429e-06
3.34112e-06
6.57963e-06
2.94886e-06
6.14741e-06
2.27705e-06
5.85496e-06
1.48785e-06
5.70301e-06
6.952e-07
5.6762e-06
-2.163e-08
5.75331e-06
-6.23631e-07
5.91005e-06
-1.088e-06
6.12793e-06
-1.43635e-06
6.38487e-06
-1.66165e-06
6.67256e-06
-1.81097e-06
6.96757e-06
-1.86848e-06
7.27916e-06
-1.88658e-06
7.5858e-06
-2.0376e-06
7.9431e-06
-1.90116e-06
-4.61167e-06
7.61722e-06
5.32303e-05
4.48025e-06
2.82362e-05
2.07904e-06
1.24151e-05
7.44402e-07
5.82219e-06
5.58458e-08
2.6397e-06
-3.42558e-07
1.58499e-06
-5.79738e-07
8.95103e-07
-7.46323e-07
6.38707e-07
-8.63744e-07
4.67081e-07
-9.65819e-07
4.48135e-07
-1.06336e-06
4.93143e-07
-1.15942e-06
5.21515e-07
-1.23528e-06
3.98589e-07
-1.26262e-06
2.12395e-08
-1.2173e-06
-5.8974e-07
-1.10633e-06
-1.21508e-06
-9.91992e-07
-1.44118e-06
-9.98283e-07
-8.43286e-07
-1.27962e-06
8.01379e-07
-1.94707e-06
3.39315e-06
-2.97174e-06
6.37438e-06
-4.15427e-06
8.75723e-06
-5.23423e-06
9.69727e-06
-6.04108e-06
9.0887e-06
-6.5318e-06
7.42196e-06
-6.72748e-06
5.24254e-06
-6.65388e-06
2.86406e-06
-6.32266e-06
3.89819e-07
-5.73214e-06
-2.17886e-06
-4.87584e-06
-4.84901e-06
-3.75283e-06
-7.56195e-06
-2.37882e-06
-1.01488e-05
-7.96744e-07
-1.23301e-05
9.20698e-07
-1.37784e-05
2.68632e-06
-1.42769e-05
4.40045e-06
-1.38223e-05
5.95766e-06
-1.24512e-05
7.27225e-06
-1.02461e-05
8.28021e-06
-7.45477e-06
8.93965e-06
-4.40506e-06
9.23388e-06
-1.45277e-06
9.17823e-06
1.05643e-06
8.82981e-06
2.84782e-06
8.28743e-06
3.79525e-06
7.67145e-06
3.9571e-06
7.09143e-06
3.52888e-06
6.62179e-06
2.74669e-06
6.29666e-06
1.81298e-06
6.11917e-06
8.72682e-07
6.07389e-06
2.36504e-08
6.13821e-06
-6.87944e-07
6.2871e-06
-1.2369e-06
6.5004e-06
-1.64964e-06
6.75674e-06
-1.91799e-06
7.04488e-06
-2.09912e-06
7.34488e-06
-2.16848e-06
7.6589e-06
-2.20061e-06
7.9728e-06
-2.35151e-06
8.33365e-06
-2.262e-06
-5.05258e-06
8.03934e-06
5.51909e-05
5.11686e-06
3.11587e-05
2.62017e-06
1.49118e-05
1.09974e-06
7.34262e-06
2.68549e-07
3.4709e-06
-2.1176e-07
2.0653e-06
-5.03138e-07
1.18648e-06
-7.05895e-07
8.41464e-07
-8.48197e-07
6.09383e-07
-9.67695e-07
5.67633e-07
-1.07764e-06
6.03084e-07
-1.18421e-06
6.28086e-07
-1.27167e-06
4.86054e-07
-1.31464e-06
6.42097e-08
-1.29053e-06
-6.13848e-07
-1.20598e-06
-1.29963e-06
-1.12182e-06
-1.52534e-06
-1.16137e-06
-8.03741e-07
-1.47592e-06
1.11593e-06
-2.161e-06
4.07823e-06
-3.15928e-06
7.37266e-06
-4.25363e-06
9.85158e-06
-5.20024e-06
1.06439e-05
-5.8681e-06
9.75656e-06
-6.24345e-06
7.79731e-06
-6.35381e-06
5.3529e-06
-6.21935e-06
2.72959e-06
-5.84476e-06
1.5224e-08
-5.2234e-06
-2.80022e-06
-4.34584e-06
-5.72657e-06
-3.20882e-06
-8.69897e-06
-1.82601e-06
-1.15316e-05
-2.38885e-07
-1.39172e-05
1.48042e-06
-1.54977e-05
3.24288e-06
-1.60394e-05
4.94513e-06
-1.55246e-05
6.48414e-06
-1.39902e-05
7.77954e-06
-1.15415e-05
8.77254e-06
-8.44777e-06
9.42588e-06
-5.05839e-06
9.72526e-06
-1.75215e-06
9.68316e-06
1.09853e-06
9.34748e-06
3.1835e-06
8.80619e-06
4.33655e-06
8.17452e-06
4.58878e-06
7.56551e-06
4.13789e-06
7.06174e-06
3.25046e-06
6.70442e-06
2.1703e-06
6.50013e-06
1.07697e-06
6.43412e-06
8.96611e-08
6.4829e-06
-7.36725e-07
6.62091e-06
-1.37491e-06
6.82655e-06
-1.85527e-06
7.07898e-06
-2.17042e-06
7.36452e-06
-2.38466e-06
7.66607e-06
-2.47002e-06
7.9798e-06
-2.51434e-06
8.29752e-06
-2.66922e-06
8.65779e-06
-2.62227e-06
-5.46365e-06
8.41154e-06
5.67794e-05
5.73002e-06
3.38402e-05
3.19467e-06
1.74471e-05
1.50755e-06
9.02975e-06
5.27739e-07
4.45071e-06
-4.45057e-08
2.63755e-06
-3.96436e-07
1.53841e-06
-6.39621e-07
1.08465e-06
-8.09864e-07
7.79625e-07
-9.48543e-07
7.06312e-07
-1.07171e-06
7.26248e-07
-1.18934e-06
7.45721e-07
-1.2895e-06
5.86213e-07
-1.35021e-06
1.2492e-07
-1.35016e-06
-6.13897e-07
-1.2945e-06
-1.3553e-06
-1.24085e-06
-1.57898e-06
-1.30942e-06
-7.35176e-07
-1.64495e-06
1.45146e-06
-2.32525e-06
4.75852e-06
-3.26908e-06
8.3165e-06
-4.25394e-06
1.08364e-05
-5.06328e-06
1.14532e-05
-5.6038e-06
1.02971e-05
-5.88055e-06
8.07405e-06
-5.91986e-06
5.39221e-06
-5.73454e-06
2.54427e-06
-5.32306e-06
-3.96258e-07
-4.67512e-06
-3.44816e-06
-3.77913e-06
-6.62255e-06
-2.62995e-06
-9.84816e-06
-1.23976e-06
-1.29218e-05
3.50174e-07
-1.55072e-05
2.06795e-06
-1.72155e-05
3.8221e-06
-1.77935e-05
5.50722e-06
-1.72097e-05
7.02265e-06
-1.55056e-05
8.29196e-06
-1.28108e-05
9.26077e-06
-9.41657e-06
9.89641e-06
-5.69403e-06
1.01882e-05
-2.04392e-06
1.01486e-05
1.13813e-06
9.81975e-06
3.51233e-06
9.28e-06
4.87629e-06
8.63732e-06
5.23146e-06
8.0046e-06
4.77061e-06
7.47011e-06
3.78495e-06
7.08169e-06
2.55873e-06
6.84997e-06
1.30869e-06
6.76163e-06
1.78001e-07
6.79285e-06
-7.6794e-07
6.91766e-06
-1.49973e-06
7.11333e-06
-2.05094e-06
7.35932e-06
-2.41642e-06
7.64e-06
-2.66534e-06
7.94034e-06
-2.77036e-06
8.25179e-06
-2.82579e-06
8.57042e-06
-2.98786e-06
8.92719e-06
-2.97904e-06
-5.84712e-06
8.73811e-06
5.80413e-05
6.31324e-06
3.62651e-05
3.79165e-06
1.99687e-05
1.96425e-06
1.08571e-05
8.34607e-07
5.58035e-06
1.62005e-07
3.31015e-06
-2.58217e-07
1.95863e-06
-5.46272e-07
1.3727e-06
-7.47822e-07
9.81175e-07
-9.07735e-07
8.66225e-07
-1.04519e-06
8.637e-07
-1.17452e-06
8.75057e-07
-1.28827e-06
6.99959e-07
-1.36824e-06
2.04892e-07
-1.39411e-06
-5.88032e-07
-1.36849e-06
-1.38091e-06
-1.34426e-06
-1.60322e-06
-1.43619e-06
-6.43242e-07
-1.7798e-06
1.79508e-06
-2.4349e-06
5.41362e-06
-3.30285e-06
9.18445e-06
-4.16695e-06
1.17005e-05
-4.84326e-06
1.21295e-05
-5.27006e-06
1.07239e-05
-5.46208e-06
8.26607e-06
-5.44045e-06
5.37058e-06
-5.21077e-06
2.31459e-06
-4.7664e-06
-8.40627e-07
-4.09437e-06
-4.12018e-06
-3.18148e-06
-7.53544e-06
-2.02103e-06
-1.10086e-05
-6.24294e-07
-1.43185e-05
9.66946e-07
-1.70984e-05
2.68021e-06
-1.89287e-05
4.42228e-06
-1.95356e-05
6.08666e-06
-1.88741e-05
7.57481e-06
-1.69938e-05
8.81329e-06
-1.40493e-05
9.75133e-06
-1.03546e-05
1.03605e-05
-6.30321e-06
1.06342e-05
-2.31759e-06
1.05867e-05
1.18563e-06
1.02572e-05
3.8418e-06
9.71646e-06
5.41703e-06
9.06463e-06
5.88329e-06
8.4119e-06
5.42334e-06
7.84972e-06
4.34713e-06
7.43154e-06
2.97691e-06
7.17229e-06
1.56793e-06
7.06061e-06
2.89678e-07
7.07286e-06
-7.80182e-07
7.18283e-06
-1.6097e-06
7.36688e-06
-2.23499e-06
7.60458e-06
-2.65412e-06
7.87877e-06
-2.93953e-06
8.17575e-06
-3.06734e-06
8.4835e-06
-3.13353e-06
8.80064e-06
-3.30501e-06
9.15186e-06
-3.33025e-06
-6.20508e-06
9.02328e-06
5.9018e-05
6.86182e-06
3.84266e-05
4.40054e-06
2.243e-05
2.46479e-06
1.27929e-05
1.18965e-06
6.85549e-06
4.08629e-07
4.09117e-06
-8.66895e-08
2.45395e-06
-4.24446e-07
1.71046e-06
-6.61006e-07
1.21774e-06
-8.44545e-07
1.04976e-06
-9.9764e-07
1.01679e-06
-1.1394e-06
1.01681e-06
-1.26737e-06
8.27938e-07
-1.36751e-06
3.05025e-07
-1.42021e-06
-5.35323e-07
-1.42478e-06
-1.37635e-06
-1.4278e-06
-1.60019e-06
-1.53662e-06
-5.34426e-07
-1.87565e-06
2.13411e-06
-2.48816e-06
6.02613e-06
-3.26537e-06
9.96167e-06
-4.00509e-06
1.24403e-05
-4.55673e-06
1.26812e-05
-4.88275e-06
1.10499e-05
-5.00092e-06
8.38424e-06
-4.92554e-06
5.2952e-06
-4.65585e-06
2.0449e-06
-4.18123e-06
-1.31525e-06
-3.48668e-06
-4.81473e-06
-2.55769e-06
-8.46444e-06
-1.38636e-06
-1.21799e-05
1.6652e-08
-1.57215e-05
1.60764e-06
-1.86894e-05
3.31412e-06
-2.06352e-05
5.04132e-06
-2.12628e-05
6.68238e-06
-2.05151e-05
8.14067e-06
-1.84521e-05
9.34502e-06
-1.52537e-05
1.02477e-05
-1.12573e-05
1.08239e-05
-6.87947e-06
1.10712e-05
-2.56487e-06
1.10067e-05
1.25013e-06
1.06689e-05
4.17964e-06
1.01229e-05
5.963e-06
9.46165e-06
6.54455e-06
8.79101e-06
6.09399e-06
8.20351e-06
4.93463e-06
7.75693e-06
3.42349e-06
7.47038e-06
1.85448e-06
7.33482e-06
4.2524e-07
7.32719e-06
-7.72552e-07
7.42121e-06
-1.70372e-06
7.59256e-06
-2.40634e-06
7.82066e-06
-2.88222e-06
8.08726e-06
-3.20614e-06
8.37924e-06
-3.35931e-06
8.68229e-06
-3.43659e-06
8.99597e-06
-3.61869e-06
9.34027e-06
-3.67455e-06
-6.53929e-06
9.27118e-06
5.97468e-05
7.37266e-06
4.03251e-05
5.01148e-06
2.47912e-05
3.00281e-06
1.48016e-05
1.59226e-06
8.26605e-06
6.97246e-07
4.98618e-06
1.19981e-07
3.03122e-06
-2.7257e-07
2.10301e-06
-5.4818e-07
1.49335e-06
-7.58091e-07
1.25967e-06
-9.28514e-07
1.18722e-06
-1.08351e-06
1.1718e-06
-1.22611e-06
9.70545e-07
-1.3467e-06
4.25613e-07
-1.42639e-06
-4.55638e-07
-1.46048e-06
-1.34226e-06
-1.48797e-06
-1.5727e-06
-1.60691e-06
-4.1549e-07
-1.9297e-06
2.4569e-06
-2.48575e-06
6.58217e-06
-3.16316e-06
1.06391e-05
-3.77998e-06
1.30571e-05
-4.21689e-06
1.31181e-05
-4.45342e-06
1.12864e-05
-4.50615e-06
8.43696e-06
-4.3823e-06
5.17136e-06
-4.07575e-06
1.73835e-06
-3.57272e-06
-1.81828e-06
-2.85665e-06
-5.5308e-06
-1.91194e-06
-9.40915e-06
-7.29813e-07
-1.33621e-05
6.78398e-07
-1.71298e-05
2.2686e-06
-2.02796e-05
3.96657e-06
-2.23332e-05
5.67678e-06
-2.2973e-05
7.29257e-06
-2.21309e-05
8.71909e-06
-1.98786e-05
9.88708e-06
-1.64216e-05
1.07512e-05
-1.21214e-05
1.12899e-05
-7.41822e-06
1.15045e-05
-2.77943e-06
1.14154e-05
1.33918e-06
1.1062e-05
4.53308e-06
1.05059e-05
6.51914e-06
9.83345e-06
7.21695e-06
9.1457e-06
6.78174e-06
8.53454e-06
5.54579e-06
8.06078e-06
3.89724e-06
7.74734e-06
2.16792e-06
7.58767e-06
5.84909e-07
7.55965e-06
-7.44531e-07
7.63703e-06
-1.78109e-06
7.795e-06
-2.56432e-06
8.01263e-06
-3.09985e-06
8.27094e-06
-3.46445e-06
8.55669e-06
-3.64506e-06
8.8544e-06
-3.7343e-06
9.16297e-06
-3.92725e-06
9.49952e-06
-4.0111e-06
-6.85111e-06
9.48574e-06
6.02611e-05
7.84398e-06
4.19668e-05
5.61556e-06
2.70196e-05
3.57096e-06
1.68462e-05
2.04061e-06
9.79639e-06
1.02926e-06
5.99753e-06
3.63884e-07
3.69659e-06
-8.8951e-08
2.55585e-06
-4.07916e-07
1.81231e-06
-6.47291e-07
1.49905e-06
-8.37084e-07
1.37701e-06
-1.00626e-06
1.34098e-06
-1.16367e-06
1.12796e-06
-1.30448e-06
5.66422e-07
-1.41064e-06
-3.4948e-07
-1.4731e-06
-1.2798e-06
-1.52202e-06
-1.52378e-06
-1.64455e-06
-2.92952e-07
-1.94097e-06
2.75331e-06
-2.4302e-06
7.0714e-06
-3.00338e-06
1.12123e-05
-3.50193e-06
1.35556e-05
-3.83408e-06
1.34502e-05
-3.99065e-06
1.1443e-05
-3.98451e-06
8.43082e-06
-3.81624e-06
5.00309e-06
-3.47522e-06
1.39732e-06
-2.94516e-06
-2.34834e-06
-2.20824e-06
-6.26772e-06
-1.24795e-06
-1.03694e-05
-5.4651e-08
-1.45554e-05
1.35824e-06
-1.85427e-05
2.94645e-06
-2.18678e-05
4.63451e-06
-2.40212e-05
6.32596e-06
-2.46645e-05
7.91484e-06
-2.37198e-05
9.30812e-06
-2.12719e-05
1.04382e-05
-1.75518e-05
1.12618e-05
-1.29449e-05
1.176e-05
-7.91636e-06
1.19372e-05
-2.95662e-06
1.18175e-05
1.45883e-06
1.14421e-05
4.9085e-06
1.08707e-05
7.09052e-06
1.01847e-05
7.90302e-06
9.47964e-06
7.48676e-06
8.84583e-06
6.1796e-06
8.34593e-06
4.39715e-06
8.00609e-06
2.50776e-06
7.82232e-06
7.68677e-07
7.77367e-06
-6.95876e-07
7.83402e-06
-1.84145e-06
7.97825e-06
-2.70855e-06
8.18487e-06
-3.30646e-06
8.43445e-06
-3.71403e-06
8.71308e-06
-3.92369e-06
9.00501e-06
-4.02623e-06
9.30711e-06
-4.22935e-06
9.63548e-06
-4.33947e-06
-7.14149e-06
9.6707e-06
6.05904e-05
8.27517e-06
4.33624e-05
6.20498e-06
2.90898e-05
4.16119e-06
1.889e-05
2.53159e-06
1.1426e-05
1.40541e-06
7.12371e-06
6.47026e-07
4.45498e-06
1.2837e-07
3.0745e-06
-2.3861e-07
2.17929e-06
-5.10839e-07
1.77128e-06
-7.2242e-07
1.58859e-06
-9.06895e-07
1.52545e-06
-1.07915e-06
1.30022e-06
-1.23952e-06
7.26793e-07
-1.37117e-06
-2.17837e-07
-1.46055e-06
-1.19041e-06
-1.52793e-06
-1.4564e-06
-1.64823e-06
-1.72652e-07
-1.90996e-06
3.01504e-06
-2.32527e-06
7.48671e-06
-2.79322e-06
1.16802e-05
-3.17974e-06
1.39421e-05
-3.41647e-06
1.3687e-05
-3.50098e-06
1.15275e-05
-3.44123e-06
8.37107e-06
-3.23176e-06
4.79362e-06
-2.85819e-06
1.02375e-06
-2.30219e-06
-2.90435e-06
-1.54488e-06
-7.02503e-06
-5.68986e-07
-1.13453e-05
6.3474e-07
-1.57591e-05
2.0526e-06
-1.99605e-05
3.63804e-06
-2.34532e-05
5.31494e-06
-2.56981e-05
6.98602e-06
-2.63355e-05
8.54644e-06
-2.52802e-05
9.90525e-06
-2.26307e-05
1.09965e-05
-1.86431e-05
1.17785e-05
-1.37269e-05
1.22342e-05
-8.37207e-06
1.23709e-05
-3.0933e-06
1.22161e-05
1.61368e-06
1.18133e-05
5.31128e-06
1.12219e-05
7.68189e-06
1.05192e-05
8.60568e-06
9.79616e-06
8.20984e-06
9.14024e-06
6.83552e-06
8.61501e-06
4.92237e-06
8.24933e-06
2.87343e-06
8.04165e-06
9.76363e-07
7.97232e-06
-6.26547e-07
8.01549e-06
-1.88462e-06
8.14581e-06
-2.83886e-06
8.34111e-06
-3.50177e-06
8.58171e-06
-3.95463e-06
8.85256e-06
-4.19454e-06
9.13843e-06
-4.3121e-06
9.43294e-06
-4.52385e-06
9.75294e-06
-4.65948e-06
-7.41103e-06
9.82958e-06
6.07608e-05
8.66655e-06
4.45254e-05
6.77315e-06
3.09832e-05
4.76515e-06
2.08979e-05
3.06077e-06
1.31304e-05
1.82561e-06
8.35887e-06
9.71042e-07
5.30955e-06
3.8124e-07
3.6643e-06
-3.83978e-08
2.59893e-06
-3.4721e-07
2.08009e-06
-5.83377e-07
1.82476e-06
-7.8451e-07
1.72658e-06
-9.71609e-07
1.48732e-06
-1.15058e-06
9.05766e-07
-1.30638e-06
-6.20402e-08
-1.42115e-06
-1.07564e-06
-1.5044e-06
-1.37315e-06
-1.61764e-06
-5.94184e-08
-1.8383e-06
3.2357e-06
-2.17534e-06
7.82375e-06
-2.53947e-06
1.20443e-05
-2.82086e-06
1.42235e-05
-2.97053e-06
1.38366e-05
-2.98957e-06
1.15466e-05
-2.88047e-06
8.26197e-06
-2.63247e-06
4.54561e-06
-2.22797e-06
6.19257e-07
-1.64692e-06
-3.4854e-06
-8.69532e-07
-7.80242e-06
1.22047e-07
-1.23369e-05
1.33642e-06
-1.69735e-05
2.7585e-06
-2.13826e-05
4.34051e-06
-2.50352e-05
6.00496e-06
-2.73626e-05
7.654e-06
-2.79846e-05
9.18435e-06
-2.68106e-05
1.05075e-05
-2.39539e-05
1.15594e-05
-1.96949e-05
1.22994e-05
-1.4467e-05
1.27119e-05
-8.78461e-06
1.28063e-05
-3.18763e-06
1.26129e-05
1.80702e-06
1.21785e-05
5.74575e-06
1.15628e-05
8.29754e-06
1.08406e-05
9.32791e-06
1.00982e-05
8.95222e-06
9.42032e-06
7.51341e-06
8.87044e-06
5.47226e-06
8.4795e-06
3.26437e-06
8.24822e-06
1.20765e-06
8.15834e-06
-5.36669e-07
8.18435e-06
-1.91063e-06
8.30072e-06
-2.95522e-06
8.48457e-06
-3.68563e-06
8.71604e-06
-4.1861e-06
8.97867e-06
-4.45717e-06
9.25824e-06
-4.59167e-06
9.54425e-06
-4.80986e-06
9.85582e-06
-4.97106e-06
-7.66018e-06
9.96563e-06
6.07952e-05
9.01919e-06
4.54718e-05
7.31473e-06
3.26876e-05
5.3745e-06
2.28382e-05
3.62262e-06
1.48823e-05
2.2887e-06
9.69279e-06
1.33712e-06
6.26113e-06
6.71494e-07
4.32993e-06
1.94581e-07
3.07584e-06
-1.54694e-07
2.42936e-06
-4.18603e-07
2.08867e-06
-6.38042e-07
1.94602e-06
-8.4006e-07
1.68933e-06
-1.0365e-06
1.10221e-06
-1.21489e-06
1.16344e-07
-1.35354e-06
-9.36983e-07
-1.45066e-06
-1.27603e-06
-1.55326e-06
4.31776e-08
-1.72843e-06
3.41087e-06
-1.98511e-06
8.08044e-06
-2.24836e-06
1.23076e-05
-2.43155e-06
1.44067e-05
-2.50152e-06
1.39066e-05
-2.46056e-06
1.15056e-05
-2.30567e-06
8.10708e-06
-2.02139e-06
4.26134e-06
-1.58736e-06
1.8523e-07
-9.81994e-07
-4.09077e-06
-1.84745e-07
-8.59967e-06
8.22505e-07
-1.33442e-05
2.04738e-06
-1.81983e-05
3.47336e-06
-2.28086e-05
5.05125e-06
-2.66131e-05
6.70183e-06
-2.90132e-05
8.32692e-06
-2.96097e-05
9.82539e-06
-2.8309e-05
1.11117e-05
-2.52402e-05
1.21238e-05
-2.0707e-05
1.28221e-05
-1.51653e-05
1.31916e-05
-9.15415e-06
1.3243e-05
-3.23894e-06
1.30091e-05
2.04087e-06
1.25397e-05
6.21518e-06
1.18961e-05
8.94111e-06
1.11514e-05
1.00726e-05
1.03883e-05
9.71529e-06
9.68835e-06
8.2134e-06
9.11433e-06
6.04627e-06
8.69873e-06
3.67998e-06
8.44427e-06
1.46211e-06
8.3341e-06
-4.26497e-07
8.34309e-06
-1.91963e-06
8.44559e-06
-3.05772e-06
8.61798e-06
-3.85802e-06
8.84023e-06
-4.40835e-06
9.09433e-06
-4.71127e-06
9.36734e-06
-4.86468e-06
9.64419e-06
-5.08671e-06
9.94726e-06
-5.27412e-06
-7.88931e-06
1.00819e-05
6.07133e-05
9.33478e-06
4.62189e-05
7.82563e-06
3.41968e-05
5.98119e-06
2.46826e-05
4.21063e-06
1.66528e-05
2.7924e-06
1.1111e-05
1.74582e-06
7.30771e-06
1.00085e-06
5.07489e-06
4.62468e-07
3.61422e-06
6.85734e-08
2.82326e-06
-2.26552e-07
2.38379e-06
-4.66287e-07
2.18576e-06
-6.83503e-07
1.90655e-06
-8.9625e-07
1.31496e-06
-1.09552e-06
3.15612e-07
-1.25664e-06
-7.75857e-07
-1.36632e-06
-1.16635e-06
-1.45611e-06
1.32965e-07
-1.58322e-06
3.53798e-06
-1.75927e-06
8.25649e-06
-1.9255e-06
1.24738e-05
-2.0171e-06
1.44983e-05
-2.01374e-06
1.39033e-05
-1.91737e-06
1.14092e-05
-1.71966e-06
7.90936e-06
-1.40106e-06
3.94274e-06
-9.38697e-07
-2.77128e-07
-3.09646e-07
-4.71982e-06
5.07294e-07
-9.41661e-06
1.53011e-06
-1.4367e-05
2.76532e-06
-1.94335e-05
4.19497e-06
-2.42382e-05
5.76791e-06
-2.81861e-05
7.40292e-06
-3.06482e-05
9.00186e-06
-3.12086e-05
1.04664e-05
-2.97735e-05
1.17145e-05
-2.64883e-05
1.26865e-05
-2.1679e-05
1.33438e-05
-1.58226e-05
1.36713e-05
-9.48165e-06
1.368e-05
-3.2476e-06
1.34047e-05
2.31612e-06
1.28981e-05
6.72182e-06
1.22236e-05
9.61555e-06
1.14539e-05
1.08423e-05
1.06686e-05
1.05005e-05
9.94626e-06
8.93579e-06
9.34851e-06
6.64401e-06
8.90884e-06
4.11965e-06
8.63171e-06