/*--------------------------------*- C++ -*----------------------------------*\
| =========                 |                                                 |
| \\      /  F ield         | OpenFOAM: The Open Source CFD Toolbox           |
|  \\    /   O peration     | Version:  2.4.0                                 |
|   \\  /    A nd           | Web:      www.OpenFOAM.org                      |
|    \\/     M anipulation  |                                                 |
\*---------------------------------------------------------------------------*/
FoamFile
{
    version     2.0;
    format      ascii;
    class       volScalarField;
    location    "0.86";
    object      p;
}
// * * * * * * * * * * * * * * * * * * * * * * * * * * * * * * * * * * * * * //

dimensions      [0 2 -2 0 0 0 0];

internalField   nonuniform List<scalar> 
6000
(
0.0587541
0.28768
0.284575
0.308315
0.314153
0.323001
0.327311
0.328917
0.322512
0.311255
0.300461
0.30023
0.316099
0.346259
0.38257
0.417015
0.445288
0.466729
0.482516
0.494313
0.503541
0.511229
0.517973
0.524019
0.529378
0.533939
0.537582
0.540259
0.542016
0.54297
0.543259
0.543006
0.542299
0.541193
0.539721
0.537896
0.53572
0.533183
0.530266
0.526942
0.523175
0.518917
0.514112
0.50869
0.502561
0.495626
0.487744
0.478773
0.468469
0.456675
0.442852
0.427068
0.407697
0.386408
0.356949
0.329466
0.277052
0.250347
0.131131
0.146226
0.0737748
0.285891
0.284618
0.308167
0.314059
0.322881
0.327242
0.328962
0.322742
0.311586
0.300709
0.300209
0.315761
0.345625
0.381917
0.416449
0.444847
0.466403
0.482277
0.494135
0.503405
0.51112
0.517881
0.523942
0.529314
0.533889
0.537544
0.540231
0.541995
0.542953
0.543243
0.54299
0.54228
0.541172
0.539696
0.537866
0.535684
0.53314
0.530215
0.526881
0.523103
0.518832
0.514012
0.508573
0.502425
0.495466
0.487558
0.478558
0.468222
0.456389
0.442523
0.426681
0.407256
0.385871
0.356361
0.328673
0.276291
0.249037
0.130242
0.143887
0.0876261
0.283814
0.284712
0.308048
0.313974
0.322779
0.327184
0.329038
0.322999
0.311927
0.300921
0.300098
0.315311
0.345003
0.381272
0.415908
0.444441
0.466112
0.482068
0.493978
0.503281
0.511016
0.517791
0.523865
0.529252
0.53384
0.537509
0.540205
0.541974
0.542935
0.543226
0.542971
0.542259
0.541147
0.539667
0.537833
0.535645
0.533094
0.530162
0.52682
0.523032
0.518751
0.513919
0.508465
0.502302
0.495325
0.487396
0.478371
0.468006
0.456138
0.442232
0.426339
0.40686
0.385392
0.355817
0.327967
0.27555
0.247875
0.129261
0.1418
0.0991089
0.281636
0.28485
0.307953
0.313907
0.322694
0.327151
0.329146
0.323273
0.312237
0.301035
0.299845
0.31473
0.344294
0.380616
0.415404
0.444089
0.465874
0.481901
0.493851
0.503176
0.510923
0.517709
0.523794
0.529195
0.533798
0.537479
0.540183
0.541957
0.542917
0.543207
0.542949
0.542234
0.541118
0.539634
0.537795
0.535601
0.533044
0.530105
0.526755
0.522958
0.518667
0.513823
0.508356
0.502177
0.495183
0.487234
0.478186
0.467793
0.455893
0.441949
0.426009
0.406479
0.384936
0.355298
0.327301
0.274845
0.246801
0.128318
0.140034
0.109119
0.279465
0.28501
0.307881
0.313855
0.32262
0.32714
0.329288
0.323569
0.312516
0.301041
0.299437
0.313999
0.343476
0.379921
0.41491
0.443772
0.465672
0.481763
0.493742
0.50308
0.510834
0.517627
0.523724
0.529139
0.533757
0.53745
0.540162
0.541938
0.542898
0.543184
0.542922
0.542203
0.541083
0.539594
0.537749
0.53555
0.532987
0.53004
0.526682
0.522876
0.518575
0.513719
0.508239
0.502045
0.495034
0.487065
0.477993
0.467574
0.455641
0.441662
0.425676
0.406097
0.384479
0.354783
0.326642
0.274154
0.245754
0.127415
0.138468
0.11822
0.277369
0.285176
0.307831
0.313817
0.322555
0.32715
0.329464
0.32389
0.312765
0.300941
0.298871
0.313113
0.342546
0.379172
0.414407
0.443469
0.465492
0.481644
0.493643
0.502986
0.510742
0.51754
0.523648
0.529078
0.533713
0.537418
0.540137
0.541915
0.542871
0.543153
0.542887
0.542162
0.541037
0.539543
0.537693
0.535488
0.532918
0.529964
0.526599
0.522783
0.518472
0.513605
0.508112
0.501903
0.494874
0.486886
0.477791
0.467345
0.455381
0.441366
0.425334
0.405708
0.384016
0.354266
0.32598
0.273468
0.244715
0.126539
0.137035
0.126583
0.275392
0.285345
0.307797
0.313795
0.322501
0.32718
0.329674
0.324237
0.312984
0.300735
0.298155
0.31208
0.341508
0.378365
0.413886
0.44317
0.465323
0.481534
0.493547
0.502889
0.510643
0.517445
0.523564
0.52901
0.533661
0.53738
0.540106
0.541884
0.542837
0.543113
0.542841
0.542111
0.540981
0.539482
0.537626
0.535415
0.532839
0.529878
0.526504
0.52268
0.518358
0.51348
0.507973
0.50175
0.494704
0.486696
0.477579
0.467107
0.455113
0.441062
0.424985
0.405313
0.383548
0.353745
0.325315
0.272786
0.243684
0.125691
0.135712
0.134295
0.273556
0.285518
0.30777
0.313791
0.322457
0.327229
0.329917
0.324605
0.313171
0.30043
0.297303
0.310916
0.340369
0.377499
0.413342
0.44287
0.465161
0.481427
0.493448
0.502785
0.510533
0.517337
0.523467
0.528931
0.5336
0.537333
0.540066
0.541844
0.542792
0.543063
0.542784
0.542049
0.540913
0.539409
0.537547
0.53533
0.532748
0.529779
0.526398
0.522565
0.518233
0.513343
0.507824
0.501586
0.494524
0.486497
0.477358
0.466861
0.454836
0.440751
0.424629
0.404913
0.383074
0.353222
0.324649
0.272108
0.242663
0.124874
0.134489
0.141455
0.271875
0.285692
0.307748
0.3138
0.322424
0.327297
0.330191
0.324992
0.313325
0.300035
0.296332
0.309635
0.339141
0.376579
0.412777
0.442568
0.465003
0.481319
0.493345
0.502671
0.510411
0.517215
0.523356
0.528838
0.533527
0.537276
0.540016
0.541793
0.542738
0.543002
0.542717
0.541975
0.540834
0.539324
0.537457
0.535235
0.532645
0.52967
0.526281
0.522439
0.518098
0.513197
0.507666
0.501414
0.494335
0.48629
0.477129
0.466607
0.454551
0.440433
0.424268
0.404507
0.382597
0.352697
0.323983
0.271434
0.241655
0.124087
0.133354
0.148159
0.270355
0.285865
0.307729
0.313823
0.322403
0.327382
0.33049
0.325394
0.313449
0.299563
0.295262
0.308257
0.337835
0.375616
0.412196
0.442265
0.464847
0.481209
0.493234
0.502546
0.510274
0.517078
0.523229
0.528731
0.533441
0.537206
0.539955
0.541733
0.542672
0.54293
0.542638
0.541891
0.540745
0.539229
0.537357
0.535129
0.532533
0.529551
0.526154
0.522304
0.517953
0.513042
0.507499
0.501233
0.494138
0.486074
0.476892
0.466346
0.454261
0.44011
0.423902
0.404098
0.382118
0.352171
0.32332
0.270767
0.240663
0.123332
0.132297
0.154487
0.269002
0.286035
0.307708
0.313857
0.322394
0.327482
0.330809
0.325806
0.313544
0.299028
0.294112
0.3068
0.33647
0.374619
0.411604
0.441963
0.464692
0.481098
0.493117
0.50241
0.510123
0.516924
0.523087
0.528609
0.533342
0.537125
0.539883
0.541662
0.542597
0.542848
0.54255
0.541797
0.540645
0.539125
0.537248
0.535014
0.532412
0.529424
0.52602
0.522161
0.517801
0.51288
0.507324
0.501045
0.493935
0.485853
0.47665
0.466079
0.453966
0.439783
0.423532
0.403687
0.381638
0.351647
0.32266
0.270106
0.239687
0.122606
0.131308
0.160498
0.267818
0.286198
0.307685
0.313903
0.322398
0.327593
0.331142
0.326221
0.313614
0.298443
0.292902
0.305283
0.335059
0.373599
0.411004
0.441664
0.464538
0.480984
0.492995
0.502263
0.509958
0.516754
0.522928
0.528471
0.53323
0.537033
0.539802
0.541582
0.542513
0.542758
0.542453
0.541695
0.540538
0.539013
0.537131
0.534891
0.532284
0.52929
0.525878
0.522012
0.517643
0.512711
0.507144
0.500851
0.493726
0.485627
0.476403
0.46581
0.453668
0.439454
0.423161
0.403276
0.381158
0.351124
0.322006
0.269452
0.238732
0.121908
0.13038
0.166239
0.266803
0.286355
0.307657
0.313957
0.322413
0.327714
0.331482
0.326634
0.313663
0.297823
0.291648
0.303714
0.333616
0.372562
0.410402
0.441368
0.464386
0.48087
0.492867
0.502108
0.509781
0.51657
0.522753
0.528319
0.533104
0.53693
0.539711
0.541494
0.542422
0.54266
0.54235
0.541586
0.540424
0.538894
0.537007
0.534763
0.532151
0.52915
0.525732
0.521858
0.51748
0.512539
0.50696
0.500654
0.493514
0.485398
0.476154
0.465538
0.453368
0.439123
0.42279
0.402865
0.380681
0.350604
0.321359
0.268806
0.237797
0.121236
0.129507
0.171747
0.265957
0.286505
0.307625
0.314021
0.322437
0.327842
0.331819
0.327038
0.313692
0.297178
0.290369
0.302131
0.332156
0.371514
0.409799
0.441075
0.464236
0.480756
0.492737
0.501946
0.509593
0.516372
0.522564
0.528154
0.532967
0.536817
0.539612
0.541399
0.542324
0.542557
0.54224
0.541471
0.540305
0.53877
0.536879
0.534631
0.532013
0.529006
0.525582
0.521701
0.517315
0.512363
0.506774
0.500455
0.493301
0.485168
0.475904
0.465265
0.453068
0.438793
0.42242
0.402456
0.380208
0.350089
0.32072
0.26817
0.236885
0.120589
0.128685
0.177049
0.265278
0.28665
0.307587
0.314091
0.322471
0.327977
0.332144
0.327428
0.313704
0.296522
0.289083
0.300541
0.330691
0.370466
0.409202
0.440785
0.464088
0.480644
0.492605
0.501779
0.509396
0.516163
0.522362
0.527975
0.532819
0.536696
0.539507
0.541299
0.542221
0.542449
0.542127
0.541352
0.540182
0.538643
0.536748
0.534495
0.531873
0.528861
0.52543
0.521542
0.517147
0.512187
0.506587
0.500256
0.493087
0.484937
0.475655
0.464994
0.45277
0.438465
0.422054
0.40205
0.37974
0.34958
0.320091
0.267543
0.235997
0.119964
0.127907
0.182169
0.264764
0.286794
0.307543
0.314169
0.322512
0.328115
0.33245
0.327796
0.313703
0.295865
0.287806
0.298964
0.329237
0.369428
0.408613
0.440499
0.463944
0.480532
0.492473
0.501608
0.509192
0.515943
0.522148
0.527785
0.532662
0.536567
0.539396
0.541194
0.542115
0.542338
0.54201
0.541231
0.540056
0.538514
0.536615
0.534358
0.531731
0.528714
0.525277
0.521382
0.51698
0.51201
0.5064
0.500057
0.492874
0.484709
0.475407
0.464725
0.452475
0.438141
0.421691
0.40165
0.379279
0.349078
0.319474
0.266926
0.235132
0.11936
0.12717
0.187122
0.264409
0.286942
0.307495
0.314252
0.322561
0.328252
0.332732
0.328134
0.313689
0.295218
0.286557
0.29742
0.327811
0.368413
0.408037
0.44022
0.463802
0.480423
0.492341
0.501435
0.508982
0.515714
0.521923
0.527584
0.532495
0.536432
0.53928
0.541086
0.542006
0.542225
0.541892
0.541108
0.53993
0.538384
0.536481
0.53422
0.531589
0.528567
0.525124
0.521223
0.516813
0.511835
0.506214
0.49986
0.492664
0.484483
0.475163
0.464459
0.452184
0.437822
0.421335
0.401256
0.378825
0.348585
0.318869
0.266321
0.234294
0.118776
0.126471
0.19192
0.264208
0.287098
0.307445
0.31434
0.322615
0.328386
0.332987
0.328432
0.313666
0.294593
0.285354
0.295928
0.326433
0.367431
0.407481
0.439948
0.463663
0.480314
0.492209
0.501261
0.508769
0.515478
0.521688
0.527373
0.53232
0.536291
0.539162
0.540977
0.541897
0.542111
0.541774
0.540985
0.539803
0.538253
0.536348
0.534083
0.531447
0.528421
0.524973
0.521065
0.516648
0.511661
0.506031
0.499666
0.492456
0.48426
0.474923
0.464198
0.451898
0.437508
0.420985
0.40087
0.378381
0.348101
0.318277
0.265729
0.23348
0.118212
0.125807
0.196575
0.264154
0.28727
0.307393
0.314431
0.322674
0.328515
0.33321
0.328687
0.313631
0.294
0.284215
0.294509
0.325119
0.366496
0.406951
0.439686
0.463527
0.480208
0.492079
0.501087
0.508553
0.515236
0.521445
0.527153
0.532138
0.536146
0.539042
0.540867
0.541787
0.541998
0.541655
0.540863
0.539676
0.538124
0.536215
0.533947
0.531307
0.528276
0.524823
0.520909
0.516486
0.511491
0.505851
0.499475
0.492253
0.484042
0.474687
0.463943
0.451619
0.437202
0.420643
0.400493
0.377947
0.347628
0.317701
0.26515
0.232694
0.117666
0.125176
0.201094
0.264238
0.287462
0.307344
0.314526
0.322737
0.328637
0.333398
0.328899
0.313574
0.293452
0.283157
0.293188
0.323887
0.365624
0.406452
0.439435
0.463393
0.480101
0.491951
0.500915
0.508336
0.51499
0.521195
0.526925
0.531949
0.535997
0.53892
0.540757
0.541679
0.541885
0.541538
0.540741
0.539551
0.537995
0.536083
0.533812
0.531169
0.528134
0.524676
0.520757
0.516326
0.511324
0.505675
0.499288
0.492054
0.483829
0.474458
0.463694
0.451347
0.436903
0.42031
0.400125
0.377524
0.347167
0.31714
0.264586
0.231934
0.117139
0.124575
0.205485
0.264453
0.287679
0.307301
0.314624
0.322803
0.328749
0.333546
0.329065
0.313504
0.292947
0.282194
0.291979
0.322763
0.364826
0.40599
0.439197
0.463262
0.479995
0.491823
0.500745
0.508121
0.514742
0.52094
0.526691
0.531755
0.535845
0.538798
0.540648
0.541572
0.541775
0.541423
0.540622
0.539428
0.537869
0.535954
0.53368
0.531034
0.527995
0.524532
0.520607
0.516171
0.511161
0.505503
0.499106
0.49186
0.483622
0.474234
0.463452
0.451081
0.436612
0.419986
0.399767
0.377114
0.346719
0.316597
0.264039
0.231202
0.116632
0.124004
0.209753
0.26479
0.287925
0.307268
0.314725
0.322872
0.32885
0.333653
0.329182
0.313423
0.292491
0.281339
0.290907
0.321766
0.364115
0.405572
0.438973
0.463131
0.479887
0.491697
0.500577
0.507907
0.514494
0.520681
0.526451
0.531555
0.53569
0.538676
0.540541
0.541467
0.541667
0.541311
0.540505
0.539307
0.537746
0.535828
0.533551
0.530901
0.527858
0.524392
0.520461
0.516019
0.511002
0.505336
0.498929
0.491672
0.48342
0.474017
0.463216
0.450824
0.43633
0.419672
0.39942
0.376716
0.346285
0.316071
0.263509
0.230498
0.116145
0.123462
0.213904
0.265241
0.288204
0.307248
0.314831
0.322942
0.328938
0.333717
0.329247
0.31333
0.292094
0.280607
0.289988
0.320911
0.363501
0.405202
0.438764
0.463
0.479777
0.49157
0.500413
0.507698
0.514248
0.520421
0.526207
0.531352
0.535533
0.538554
0.540437
0.541365
0.541562
0.541201
0.54039
0.53919
0.537625
0.535705
0.533425
0.530772
0.527726
0.524255
0.52032
0.515871
0.510847
0.505174
0.498758
0.491489
0.483225
0.473806
0.462988
0.450575
0.436057
0.419368
0.399085
0.376331
0.345865
0.315563
0.262997
0.229822
0.115679
0.122947
0.217943
0.265797
0.288518
0.307246
0.314941
0.323014
0.329014
0.33374
0.32926
0.313228
0.291762
0.280011
0.289241
0.320213
0.362995
0.404884
0.438571
0.462868
0.479663
0.491443
0.500251
0.507493
0.514005
0.520161
0.52596
0.531145
0.535376
0.538434
0.540335
0.541267
0.541461
0.541094
0.540279
0.539075
0.537507
0.535584
0.533302
0.530647
0.527597
0.524122
0.520182
0.515728
0.510697
0.505016
0.498591
0.491312
0.483035
0.473602
0.462768
0.450334
0.435793
0.419075
0.398761
0.37596
0.34546
0.315073
0.262503
0.229175
0.115234
0.122459
0.221875
0.266449
0.288868
0.307264
0.315059
0.323089
0.329077
0.333722
0.329223
0.313119
0.291502
0.279563
0.288678
0.319686
0.362604
0.404623
0.438394
0.462735
0.479544
0.491313
0.500092
0.507293
0.513766
0.519903
0.525713
0.530937
0.535217
0.538315
0.540236
0.541173
0.541363
0.540992
0.540172
0.538964
0.537393
0.535468
0.533183
0.530525
0.527471
0.523993
0.520048
0.515589
0.510552
0.504864
0.49843
0.491141
0.482852
0.473406
0.462555
0.450102
0.435539
0.418791
0.398448
0.375602
0.345069
0.314602
0.262028
0.228555
0.11481
0.121996
0.225704
0.267189
0.289255
0.307305
0.315184
0.323168
0.329128
0.333666
0.32914
0.313005
0.29132
0.279272
0.288313
0.31934
0.362336
0.404421
0.438233
0.462598
0.479418
0.491181
0.499936
0.507099
0.513535
0.519649
0.525466
0.530727
0.535058
0.538199
0.540141
0.541083
0.541269
0.540893
0.540068
0.538856
0.537283
0.535355
0.533067
0.530407
0.52735
0.523868
0.51992
0.515455
0.510412
0.504717
0.498275
0.490976
0.482676
0.473216
0.46235
0.449878
0.435294
0.418519
0.398147
0.375258
0.344693
0.31415
0.261573
0.227964
0.114408
0.121558
0.229434
0.268011
0.289679
0.307373
0.31532
0.323251
0.329169
0.333577
0.329014
0.312893
0.291222
0.279147
0.288156
0.319185
0.362195
0.40428
0.438088
0.462457
0.479283
0.491045
0.499781
0.506912
0.51331
0.5194
0.525222
0.530518
0.5349
0.538084
0.54005
0.540997
0.54118
0.540798
0.539969
0.538753
0.537176
0.535246
0.532956
0.530293
0.527234
0.523748
0.519795
0.515326
0.510277
0.504575
0.498125
0.490817
0.482507
0.473034
0.462152
0.449663
0.435058
0.418256
0.397858
0.374927
0.344332
0.313716
0.261136
0.227399
0.114026
0.121143
0.233072
0.268906
0.290139
0.307468
0.315467
0.32334
0.329203
0.333459
0.328854
0.312788
0.291214
0.279196
0.288216
0.319227
0.362185
0.4042
0.437957
0.46231
0.47914
0.490903
0.499628
0.506731
0.513094
0.519158
0.524981
0.530311
0.534744
0.537973
0.539963
0.540916
0.541096
0.540708
0.539873
0.538653
0.537074
0.535141
0.532849
0.530183
0.527121
0.523632
0.519676
0.515201
0.510148
0.504439
0.497982
0.490665
0.482344
0.472858
0.461963
0.449456
0.434831
0.418005
0.39758
0.37461
0.343986
0.313301
0.260718
0.226862
0.113665
0.120751
0.23662
0.269868
0.290634
0.307591
0.315628
0.323437
0.329232
0.333319
0.328669
0.312698
0.291304
0.279427
0.288498
0.319469
0.362307
0.404181
0.437842
0.462157
0.478985
0.490755
0.499475
0.506556
0.512887
0.518925
0.524747
0.530107
0.53459
0.537865
0.539881
0.540839
0.541016
0.540621
0.539781
0.538557
0.536975
0.53504
0.532745
0.530077
0.527013
0.523521
0.519561
0.515082
0.510023
0.504308
0.497844
0.490519
0.482187
0.47269
0.461781
0.449258
0.434615
0.417764
0.397315
0.374306
0.343655
0.312905
0.260319
0.226351
0.113324
0.120381
0.240084
0.27089
0.291163
0.307744
0.315804
0.323544
0.32926
0.333164
0.328469
0.312634
0.291501
0.279845
0.289006
0.319913
0.362561
0.404222
0.437739
0.461995
0.478818
0.490598
0.499321
0.506388
0.512691
0.518702
0.524519
0.529907
0.534439
0.53776
0.539802
0.540768
0.54094
0.54054
0.539694
0.538466
0.53688
0.534943
0.532646
0.529976
0.526909
0.523414
0.519451
0.514968
0.509904
0.504183
0.497712
0.490379
0.482038
0.47253
0.461608
0.449068
0.434407
0.417534
0.397061
0.374016
0.343339
0.312526
0.259939
0.225867
0.113003
0.120031
0.243469
0.271967
0.291724
0.307926
0.315996
0.323662
0.329292
0.333003
0.328266
0.312608
0.291813
0.280457
0.289744
0.320559
0.362943
0.40432
0.437647
0.461825
0.478639
0.490434
0.499166
0.506225
0.512504
0.51849
0.5243
0.529712
0.534292
0.53766
0.539729
0.540701
0.54087
0.540462
0.539611
0.538379
0.53679
0.53485
0.532551
0.529879
0.52681
0.523312
0.519345
0.514859
0.50979
0.504064
0.497586
0.490245
0.481895
0.472376
0.461442
0.448887
0.43421
0.417314
0.396819
0.37374
0.343038
0.312166
0.259578
0.225407
0.1127
0.119701
0.246778
0.273093
0.292314
0.308137
0.316204
0.323795
0.32933
0.332843
0.328071
0.312632
0.292251
0.281268
0.290712
0.321401
0.36345
0.404473
0.437565
0.461644
0.478445
0.49026
0.49901
0.506068
0.512328
0.51829
0.524091
0.529525
0.53415
0.537564
0.539661
0.54064
0.540804
0.54039
0.539532
0.538295
0.536704
0.534761
0.532461
0.529787
0.526715
0.523215
0.519245
0.514755
0.509682
0.50395
0.497466
0.490118
0.481759
0.47223
0.461284
0.448716
0.434022
0.417105
0.396588
0.373477
0.342751
0.311825
0.259235
0.224973
0.112416
0.119389
0.250016
0.274263
0.292933
0.308377
0.31643
0.323943
0.32938
0.332694
0.327897
0.312719
0.292824
0.282283
0.291906
0.322435
0.364076
0.404675
0.437491
0.461452
0.478237
0.490075
0.49885
0.505916
0.512163
0.518102
0.523893
0.529345
0.534014
0.537474
0.539598
0.540583
0.540743
0.540322
0.539458
0.538216
0.536622
0.534677
0.532375
0.529699
0.526625
0.523122
0.519149
0.514656
0.509579
0.503842
0.497352
0.489997
0.481631
0.472092
0.461135
0.448552
0.433843
0.416907
0.39637
0.373228
0.34248
0.311501
0.258911
0.224563
0.112149
0.119097
0.253188
0.275471
0.293577
0.308644
0.316674
0.324107
0.329446
0.332563
0.327757
0.312882
0.293542
0.283504
0.293325
0.323652
0.364811
0.404924
0.437422
0.461248
0.478013
0.489879
0.498687
0.505768
0.512008
0.517928
0.523708
0.529175
0.533885
0.537389
0.53954
0.540532
0.540687
0.540258
0.539388
0.538142
0.536544
0.534597
0.532293
0.529615
0.52654
0.523035
0.519059
0.514562
0.509481
0.50374
0.497244
0.489883
0.481509
0.471961
0.460993
0.448398
0.433674
0.41672
0.396163
0.372993
0.342223
0.311195
0.258605
0.224178
0.1119
0.118822
0.256297
0.276715
0.294245
0.308938
0.316936
0.324289
0.329531
0.332459
0.327662
0.313134
0.294413
0.284932
0.294959
0.325041
0.365649
0.405213
0.437357
0.461031
0.477773
0.489672
0.49852
0.505625
0.511864
0.517768
0.523536
0.529016
0.533764
0.537311
0.539488
0.540486
0.540636
0.540199
0.539322
0.538071
0.53647
0.534521
0.532215
0.529536
0.526459
0.522952
0.518973
0.514473
0.509389
0.503643
0.497143
0.489775
0.481394
0.471838
0.46086
0.448253
0.433515
0.416543
0.395969
0.372771
0.341981
0.310908
0.258317
0.223817
0.111667
0.118565
0.259349
0.27799
0.294935
0.309257
0.317215
0.32449
0.329637
0.332388
0.327622
0.313482
0.29544
0.286564
0.296799
0.326588
0.366577
0.405537
0.437293
0.460801
0.477517
0.489453
0.498349
0.505485
0.511731
0.517622
0.523378
0.528868
0.533651
0.537239
0.539442
0.540446
0.540589
0.540144
0.539261
0.538005
0.536401
0.53445
0.532142
0.529461
0.526382
0.522873
0.518893
0.51439
0.509302
0.503553
0.497047
0.489674
0.481286
0.471722
0.460734
0.448116
0.433366
0.416377
0.395786
0.372563
0.341754
0.310638
0.258047
0.223479
0.11145
0.118325
0.262348
0.279291
0.295645
0.3096
0.317511
0.324711
0.329768
0.332356
0.327644
0.313936
0.296626
0.288393
0.29883
0.328279
0.367585
0.405891
0.437228
0.460556
0.477244
0.489221
0.498172
0.505348
0.511607
0.51749
0.523235
0.528732
0.533547
0.537174
0.539402
0.540411
0.540548
0.540094
0.539204
0.537944
0.536336
0.534383
0.532073
0.529391
0.526311
0.5228
0.518817
0.514312
0.509221
0.503468
0.496958
0.489579
0.481185
0.471613
0.460617
0.447988
0.433226
0.416222
0.395615
0.372368
0.341543
0.310387
0.257796
0.223165
0.11125
0.118101
0.265297
0.280616
0.296372
0.309966
0.317824
0.32495
0.329926
0.332368
0.327736
0.314499
0.297968
0.290408
0.301038
0.330096
0.368662
0.406269
0.437161
0.460297
0.476955
0.488976
0.49799
0.505214
0.511494
0.517373
0.523108
0.528611
0.533454
0.537118
0.539369
0.540381
0.540511
0.540049
0.539151
0.537886
0.536275
0.53432
0.532009
0.529325
0.526244
0.522731
0.518747
0.514239
0.509145
0.503389
0.496874
0.489491
0.481091
0.471512
0.460508
0.44787
0.433096
0.416078
0.395456
0.372188
0.341346
0.310153
0.257562
0.222874
0.111065
0.117894
0.268201
0.28196
0.297116
0.310354
0.318154
0.32521
0.330111
0.332427
0.327902
0.315173
0.299462
0.292595
0.3034
0.33202
0.369795
0.406665
0.43709
0.460022
0.476649
0.488719
0.497802
0.505083
0.51139
0.517271
0.522997
0.528503
0.533372
0.537069
0.539341
0.540357
0.540479
0.540008
0.539103
0.537833
0.536219
0.534261
0.531949
0.529264
0.526181
0.522668
0.518682
0.514172
0.509075
0.503315
0.496797
0.489409
0.481004
0.471419
0.460408
0.44776
0.432976
0.415945
0.39531
0.372021
0.341164
0.309938
0.257347
0.222607
0.110896
0.117703
0.271064
0.283322
0.297873
0.310761
0.318498
0.325488
0.330325
0.332535
0.328143
0.315956
0.301096
0.294935
0.305897
0.334034
0.370973
0.407074
0.437012
0.459732
0.476325
0.488449
0.497609
0.504953
0.511296
0.517184
0.522903
0.528411
0.533302
0.537029
0.539321
0.540338
0.540452
0.539971
0.539059
0.537784
0.536167
0.534207
0.531894
0.529208
0.526124
0.522609
0.518621
0.51411
0.509011
0.503248
0.496727
0.489334
0.480924
0.471333
0.460315
0.447659
0.432866
0.415823
0.395175
0.371868
0.340997
0.30974
0.25715
0.222362
0.110741
0.117529
0.273888
0.284697
0.298644
0.311187
0.318858
0.325786
0.330568
0.332693
0.32846
0.316843
0.302859
0.297407
0.308503
0.336117
0.372185
0.407492
0.436926
0.459426
0.475985
0.488165
0.497409
0.504826
0.511212
0.517111
0.522826
0.528335
0.533244
0.536999
0.539308
0.540325
0.54043
0.539939
0.53902
0.53774
0.536119
0.534158
0.531843
0.529156
0.526071
0.522555
0.518566
0.514053
0.508952
0.503186
0.496662
0.489266
0.480851
0.471255
0.460231
0.447568
0.432766
0.415712
0.395052
0.371728
0.340845
0.309561
0.25697
0.222139
0.110602
0.11737
0.276679
0.286084
0.299425
0.31163
0.319232
0.326102
0.33084
0.332901
0.328851
0.317828
0.304734
0.299989
0.311196
0.338251
0.373419
0.407913
0.436832
0.459104
0.475627
0.487868
0.497203
0.5047
0.511136
0.517054
0.522767
0.528276
0.5332
0.536979
0.539301
0.540317
0.540413
0.539911
0.538984
0.537699
0.536076
0.534113
0.531797
0.529109
0.526023
0.522506
0.518516
0.514001
0.508898
0.503131
0.496604
0.489204
0.480786
0.471185
0.460155
0.447485
0.432676
0.415612
0.394942
0.371603
0.340708
0.309399
0.256809
0.22194
0.110476
0.117228
0.27944
0.287479
0.300216
0.31209
0.31962
0.326437
0.33114
0.333159
0.329314
0.318903
0.306706
0.302658
0.313951
0.34042
0.374666
0.408334
0.436727
0.458766
0.475251
0.487558
0.49699
0.504575
0.51107
0.517011
0.522725
0.528233
0.53317
0.536968
0.539302
0.540315
0.5404
0.539888
0.538953
0.537663
0.536037
0.534072
0.531755
0.529066
0.52598
0.522462
0.518471
0.513955
0.50885
0.503081
0.496552
0.489149
0.480727
0.471123
0.460088
0.447412
0.432596
0.415523
0.394844
0.371491
0.340587
0.309255
0.256666
0.221763
0.110366
0.117101
0.282174
0.288879
0.301014
0.312564
0.32002
0.32679
0.331468
0.333465
0.329846
0.320058
0.308757
0.305391
0.316746
0.342606
0.375919
0.408751
0.436611
0.45841
0.474859
0.487234
0.496771
0.504452
0.511012
0.516983
0.522701
0.528209
0.533155
0.536968
0.539311
0.540319
0.540392
0.539869
0.538926
0.537632
0.536003
0.534036
0.531717
0.529028
0.525941
0.522423
0.518431
0.513914
0.508808
0.503037
0.496506
0.489101
0.480676
0.471068
0.460028
0.447347
0.432525
0.415445
0.394758
0.371393
0.34048
0.30913
0.25654
0.221608
0.110269
0.11699
0.284885
0.290283
0.301819
0.313052
0.320433
0.327159
0.331824
0.333818
0.330441
0.321285
0.310871
0.308167
0.319562
0.344796
0.377168
0.409161
0.436482
0.458038
0.474448
0.486897
0.496545
0.50433
0.510963
0.516969
0.522695
0.528202
0.533154
0.53698
0.539327
0.540328
0.540389
0.539854
0.538904
0.537604
0.535972
0.534004
0.531685
0.528995
0.525907
0.522389
0.518396
0.513879
0.508772
0.503
0.496466
0.48906
0.480632
0.47102
0.459978
0.447292
0.432465
0.415378
0.394684
0.37131
0.340389
0.309022
0.256433
0.221475
0.110187
0.116895
0.287576
0.291688
0.302629
0.313553
0.320857
0.327545
0.332205
0.334215
0.331096
0.322573
0.313032
0.310966
0.322381
0.346978
0.378408
0.409562
0.43634
0.457647
0.47402
0.486546
0.496312
0.50421
0.510923
0.516971
0.522708
0.528214
0.533169
0.537002
0.539351
0.540343
0.54039
0.539844
0.538886
0.537581
0.535946
0.533976
0.531656
0.528966
0.525878
0.522359
0.518367
0.513848
0.508741
0.502968
0.496433
0.489025
0.480595
0.470981
0.459935
0.447246
0.432414
0.415322
0.394623
0.37124
0.340313
0.308932
0.256343
0.221365
0.110118
0.116815
0.290251
0.293091
0.303442
0.314066
0.321292
0.327947
0.332613
0.334655
0.331805
0.323914
0.315227
0.313773
0.325187
0.349142
0.379635
0.409951
0.436183
0.457239
0.473573
0.48618
0.496073
0.504091
0.510892
0.516987
0.522739
0.528244
0.5332
0.537036
0.539382
0.540363
0.540396
0.539838
0.538872
0.537563
0.535925
0.533953
0.531633
0.528942
0.525854
0.522335
0.518342
0.513824
0.508716
0.502942
0.496406
0.488997
0.480565
0.470949
0.459901
0.447209
0.432374
0.415277
0.394574
0.371184
0.340252
0.30886
0.256272
0.221276
0.110064
0.116751
0.292914
0.29449
0.304257
0.314589
0.321737
0.328365
0.333045
0.335135
0.332566
0.3253
0.317443
0.316573
0.327969
0.351281
0.380843
0.410327
0.436011
0.456811
0.473107
0.485801
0.495827
0.503973
0.510869
0.517018
0.522789
0.528294
0.533247
0.537081
0.539421
0.540389
0.540406
0.539836
0.538862
0.537548
0.535908
0.533935
0.531613
0.528923
0.525835
0.522316
0.518323
0.513804
0.508696
0.502922
0.496386
0.488975
0.480543
0.470925
0.459875
0.447181
0.432344
0.415244
0.394537
0.371142
0.340206
0.308806
0.256218
0.22121
0.110023
0.116703
0.295566
0.295883
0.305073
0.315121
0.322192
0.328798
0.333501
0.335653
0.333372
0.326725
0.319671
0.319355
0.330717
0.353387
0.382031
0.410687
0.435822
0.456364
0.472621
0.485407
0.495575
0.503857
0.510856
0.517065
0.522857
0.528363
0.53331
0.537138
0.539468
0.54042
0.540421
0.539838
0.538856
0.537538
0.535895
0.533921
0.531599
0.528908
0.52582
0.522302
0.518309
0.513791
0.508682
0.502908
0.496371
0.48896
0.480527
0.470909
0.459858
0.447162
0.432323
0.415221
0.394512
0.371114
0.340176
0.30877
0.256182
0.221166
0.109996
0.116671
0.298213
0.297267
0.305888
0.315662
0.322657
0.329246
0.33398
0.336208
0.334222
0.32818
0.321901
0.322111
0.333423
0.355457
0.383194
0.411031
0.435616
0.455896
0.472115
0.484998
0.495315
0.503743
0.510852
0.517126
0.522944
0.528451
0.533389
0.537207
0.539523
0.540457
0.54044
0.539844
0.538855
0.537532
0.535887
0.533911
0.531589
0.528898
0.525811
0.522292
0.5183
0.513782
0.508674
0.5029
0.496364
0.488952
0.480519
0.470901
0.459849
0.447153
0.432313
0.41521
0.3945
0.3711
0.340161
0.308752
0.256164
0.221144
0.109983
0.116655
0.300856
0.29864
0.306701
0.316211
0.32313
0.329707
0.334481
0.336797
0.33511
0.329663
0.324128
0.324834
0.336084
0.357488
0.384333
0.411358
0.435391
0.455406
0.471588
0.484573
0.495049
0.503631
0.510858
0.517203
0.52305
0.528558
0.533485
0.537288
0.539585
0.540498
0.540463
0.539855
0.538858
0.537531
0.535883
0.533906
0.531583
0.528893
0.525806
0.522288
0.518297
0.513779
0.508672
0.502898
0.496362
0.488951
0.480518
0.4709
0.459849
0.447152
0.432313
0.41521
0.394499
0.3711
0.340161
0.308752
0.256164
0.221144
0.109983
0.116655
0.3035
0.3
0.307511
0.316766
0.323611
0.330183
0.335004
0.337419
0.336036
0.331168
0.326348
0.327519
0.338696
0.359478
0.385445
0.411666
0.435146
0.454893
0.471038
0.484132
0.494775
0.503521
0.510874
0.517296
0.523176
0.528685
0.533597
0.53738
0.539654
0.540545
0.54049
0.539869
0.538864
0.537533
0.535883
0.533906
0.531583
0.528892
0.525806
0.522289
0.518298
0.513781
0.508675
0.502902
0.496367
0.488957
0.480525
0.470907
0.459857
0.447161
0.432323
0.415221
0.394512
0.371114
0.340176
0.30877
0.256182
0.221166
0.109996
0.116671
0.306147
0.301344
0.308316
0.317327
0.324099
0.330672
0.335548
0.338072
0.336994
0.332692
0.328555
0.330164
0.341257
0.361427
0.386531
0.411954
0.43488
0.454355
0.470465
0.483673
0.494495
0.503414
0.5109
0.517405
0.52332
0.528831
0.533726
0.537483
0.53973
0.540596
0.540522
0.539887
0.538875
0.53754
0.535888
0.533909
0.531586
0.528896
0.525811
0.522295
0.518305
0.513789
0.508684
0.502912
0.496378
0.488969
0.480538
0.470922
0.459873
0.447179
0.432342
0.415243
0.394536
0.371142
0.340206
0.308806
0.256218
0.22121
0.110023
0.116703
0.308802
0.30267
0.309115
0.317893
0.324595
0.331173
0.336112
0.338755
0.337984
0.334232
0.330749
0.332767
0.343766
0.363334
0.38759
0.412222
0.434592
0.45379
0.469866
0.483198
0.494207
0.503309
0.510936
0.517529
0.523484
0.528996
0.53387
0.537597
0.539814
0.540652
0.540557
0.53991
0.53889
0.537551
0.535897
0.533918
0.531595
0.528905
0.525821
0.522305
0.518317
0.513803
0.508699
0.502928
0.496395
0.488988
0.480559
0.470944
0.459898
0.447206
0.432372
0.415276
0.394573
0.371183
0.340252
0.30886
0.256272
0.221277
0.110064
0.116751
0.311466
0.303976
0.309907
0.318462
0.325097
0.331688
0.336696
0.339466
0.339004
0.335787
0.332927
0.335329
0.346225
0.365199
0.388622
0.412469
0.434279
0.453197
0.46924
0.482703
0.493912
0.503207
0.510984
0.517671
0.523667
0.52918
0.53403
0.537722
0.539903
0.540712
0.540596
0.539936
0.538909
0.537567
0.535911
0.533931