/*--------------------------------*- C++ -*----------------------------------*\
| =========                 |                                                 |
| \\      /  F ield         | OpenFOAM: The Open Source CFD Toolbox           |
|  \\    /   O peration     | Version:  2.4.0                                 |
|   \\  /    A nd           | Web:      www.OpenFOAM.org                      |
|    \\/     M anipulation  |                                                 |
\*---------------------------------------------------------------------------*/
FoamFile
{
    version     2.0;
    format      ascii;
    class       volScalarField;
    location    "0.39";
    object      nut;
}
// * * * * * * * * * * * * * * * * * * * * * * * * * * * * * * * * * * * * * //

dimensions      [0 2 -1 0 0 0 0];

internalField   nonuniform List<scalar> 
6000
(
2.40581e-05
2.70589e-05
2.95828e-05
3.16182e-05
3.31909e-05
3.43494e-05
3.51532e-05
3.56654e-05
3.59471e-05
3.60541e-05
3.60345e-05
3.59289e-05
3.57702e-05
3.55842e-05
3.53907e-05
3.52029e-05
3.50291e-05
3.48724e-05
3.47328e-05
3.46082e-05
3.44957e-05
3.43931e-05
3.42987e-05
3.42122e-05
3.41335e-05
3.40632e-05
3.40019e-05
3.39497e-05
3.39068e-05
3.38726e-05
3.38464e-05
3.38269e-05
3.38127e-05
3.38023e-05
3.37944e-05
3.37878e-05
3.37814e-05
3.37745e-05
3.37664e-05
3.37563e-05
3.37437e-05
3.37276e-05
3.3707e-05
3.36805e-05
3.36465e-05
3.36027e-05
3.35462e-05
3.34733e-05
3.33792e-05
3.32574e-05
3.30993e-05
3.28936e-05
3.26248e-05
3.22713e-05
3.18027e-05
3.11727e-05
3.03212e-05
2.91253e-05
2.75657e-05
2.5024e-05
4.52336e-05
3.9481e-05
3.46737e-05
3.09939e-05
2.8385e-05
2.66586e-05
2.56038e-05
2.50486e-05
2.48687e-05
2.49767e-05
2.53095e-05
2.58189e-05
2.64642e-05
2.72069e-05
2.80083e-05
2.88288e-05
2.96302e-05
3.03784e-05
3.10471e-05
3.16191e-05
3.20859e-05
3.24451e-05
3.26984e-05
3.28493e-05
3.29036e-05
3.28703e-05
3.27626e-05
3.25982e-05
3.2398e-05
3.21832e-05
3.19729e-05
3.17817e-05
3.16188e-05
3.14877e-05
3.13877e-05
3.13152e-05
3.1265e-05
3.12322e-05
3.12122e-05
3.12018e-05
3.11985e-05
3.12011e-05
3.12091e-05
3.12227e-05
3.12426e-05
3.12703e-05
3.13081e-05
3.13593e-05
3.14289e-05
3.1524e-05
3.16554e-05
3.1839e-05
3.20995e-05
3.24761e-05
3.30329e-05
3.38793e-05
3.52134e-05
3.74005e-05
4.09217e-05
4.9448e-05
4.98371e-05
4.86949e-05
4.71851e-05
4.52934e-05
4.30844e-05
4.06979e-05
3.82838e-05
3.59628e-05
3.38171e-05
3.18935e-05
3.02122e-05
2.87757e-05
2.75755e-05
2.65964e-05
2.5819e-05
2.52204e-05
2.47756e-05
2.44588e-05
2.42451e-05
2.41116e-05
2.40387e-05
2.40112e-05
2.40176e-05
2.40498e-05
2.41019e-05
2.41687e-05
2.42449e-05
2.43245e-05
2.44009e-05
2.44676e-05
2.4519e-05
2.45517e-05
2.45649e-05
2.45604e-05
2.4542e-05
2.45144e-05
2.4482e-05
2.44479e-05
2.44142e-05
2.43811e-05
2.43482e-05
2.43139e-05
2.42765e-05
2.42338e-05
2.41832e-05
2.4122e-05
2.40471e-05
2.39551e-05
2.38428e-05
2.37071e-05
2.35464e-05
2.33621e-05
2.31618e-05
2.29652e-05
2.28162e-05
2.28076e-05
2.3127e-05
2.41699e-05
2.66744e-05
3.27272e-05
5.00841e-05
4.95483e-05
4.89993e-05
4.84048e-05
4.77343e-05
4.6968e-05
4.60992e-05
4.51333e-05
4.40853e-05
4.29767e-05
4.1832e-05
4.0675e-05
3.95277e-05
3.84081e-05
3.73304e-05
3.6304e-05
3.53348e-05
3.44256e-05
3.35779e-05
3.27929e-05
3.2073e-05
3.14218e-05
3.08449e-05
3.03496e-05
2.99445e-05
2.96382e-05
2.94362e-05
2.93388e-05
2.93382e-05
2.94181e-05
2.95551e-05
2.97227e-05
2.9895e-05
3.00514e-05
3.01787e-05
3.02714e-05
3.03303e-05
3.03597e-05
3.03649e-05
3.03508e-05
3.03203e-05
3.02745e-05
3.02124e-05
3.01313e-05
3.00268e-05
2.9893e-05
2.97218e-05
2.95028e-05
2.92232e-05
2.88665e-05
2.84127e-05
2.78374e-05
2.71121e-05
2.62071e-05
2.50958e-05
2.37821e-05
2.2324e-05
2.10533e-05
2.05329e-05
2.24841e-05
5.00958e-05
4.96032e-05
4.91474e-05
4.87184e-05
4.83057e-05
4.78992e-05
4.74895e-05
4.70687e-05
4.66307e-05
4.61718e-05
4.56908e-05
4.51886e-05
4.46684e-05
4.41341e-05
4.35911e-05
4.30445e-05
4.24995e-05
4.19613e-05
4.14349e-05
4.09257e-05
4.04401e-05
3.99851e-05
3.95693e-05
3.92025e-05
3.88956e-05
3.86599e-05
3.85057e-05
3.84389e-05
3.84595e-05
3.85588e-05
3.87207e-05
3.89234e-05
3.91431e-05
3.93585e-05
3.9553e-05
3.97167e-05
3.98455e-05
3.994e-05
4.00035e-05
4.00401e-05
4.00537e-05
4.00469e-05
4.00208e-05
3.99752e-05
3.9908e-05
3.98151e-05
3.96904e-05
3.95252e-05
3.93067e-05
3.90173e-05
3.86321e-05
3.81151e-05
3.74141e-05
3.64525e-05
3.51144e-05
3.32429e-05
3.06096e-05
2.72208e-05
2.30999e-05
2.07725e-05
5.00963e-05
4.96062e-05
4.91573e-05
4.87436e-05
4.83595e-05
4.80003e-05
4.76613e-05
4.73382e-05
4.70271e-05
4.67245e-05
4.64273e-05
4.61332e-05
4.58406e-05
4.55485e-05
4.52567e-05
4.49659e-05
4.46772e-05
4.43927e-05
4.41155e-05
4.38493e-05
4.35991e-05
4.33706e-05
4.31703e-05
4.30051e-05
4.2882e-05
4.28073e-05
4.27859e-05
4.282e-05
4.29079e-05
4.30433e-05
4.3216e-05
4.34125e-05
4.3618e-05
4.3819e-05
4.40046e-05
4.41673e-05
4.43036e-05
4.44128e-05
4.44965e-05
4.45574e-05
4.45985e-05
4.46228e-05
4.46324e-05
4.46288e-05
4.46125e-05
4.4583e-05
4.45385e-05
4.4476e-05
4.43904e-05
4.42738e-05
4.41145e-05
4.38939e-05
4.3582e-05
4.31282e-05
4.24413e-05
4.13558e-05
3.95308e-05
3.64867e-05
3.11318e-05
2.53372e-05
5.00962e-05
4.96062e-05
4.91577e-05
4.8745e-05
4.83636e-05
4.80094e-05
4.7679e-05
4.73694e-05
4.7078e-05
4.68023e-05
4.65402e-05
4.62898e-05
4.60497e-05
4.58184e-05
4.55953e-05
4.538e-05
4.51728e-05
4.49748e-05
4.47881e-05
4.46156e-05
4.44611e-05
4.43292e-05
4.42251e-05
4.41537e-05
4.41195e-05
4.41258e-05
4.41739e-05
4.4263e-05
4.43894e-05
4.45466e-05
4.47261e-05
4.49176e-05
4.51111e-05
4.52971e-05
4.54682e-05
4.56195e-05
4.57484e-05
4.58545e-05
4.59389e-05
4.60039e-05
4.60522e-05
4.60863e-05
4.61088e-05
4.61216e-05
4.61263e-05
4.61237e-05
4.61143e-05
4.60977e-05
4.60728e-05
4.60378e-05
4.5989e-05
4.59209e-05
4.58234e-05
4.56784e-05
4.54489e-05
4.50566e-05
4.43061e-05
4.2781e-05
3.91474e-05
3.30359e-05
5.00962e-05
4.96061e-05
4.91575e-05
4.87448e-05
4.83634e-05
4.80095e-05
4.768e-05
4.73719e-05
4.7083e-05
4.68111e-05
4.65545e-05
4.63117e-05
4.60812e-05
4.58621e-05
4.56537e-05
4.54558e-05
4.52685e-05
4.50931e-05
4.49312e-05
4.47858e-05
4.46604e-05
4.45592e-05
4.44869e-05
4.44477e-05
4.44452e-05
4.44814e-05
4.45562e-05
4.46674e-05
4.48102e-05
4.49778e-05
4.51617e-05
4.53529e-05
4.55424e-05
4.57227e-05
4.58876e-05
4.60332e-05
4.61575e-05
4.62606e-05
4.63435e-05
4.64084e-05
4.64578e-05
4.64944e-05
4.65205e-05
4.65384e-05
4.65499e-05
4.65564e-05
4.65589e-05
4.65581e-05
4.65545e-05
4.65482e-05
4.65391e-05
4.65267e-05
4.65099e-05
4.64854e-05
4.64449e-05
4.6365e-05
4.61717e-05
4.56642e-05
4.40029e-05
3.99795e-05
5.00962e-05
4.9606e-05
4.91573e-05
4.87444e-05
4.8363e-05
4.8009e-05
4.76794e-05
4.73714e-05
4.70827e-05
4.68112e-05
4.65553e-05
4.63135e-05
4.60845e-05
4.58675e-05
4.56618e-05
4.54672e-05
4.5284e-05
4.51135e-05
4.49574e-05
4.48185e-05
4.47005e-05
4.46075e-05
4.4544e-05
4.45141e-05
4.4521e-05
4.45663e-05
4.46497e-05
4.47682e-05
4.49168e-05
4.50883e-05
4.52743e-05
4.5466e-05
4.56548e-05
4.58334e-05
4.59964e-05
4.61401e-05
4.62628e-05
4.63646e-05
4.64467e-05
4.65113e-05
4.65608e-05
4.65979e-05
4.6625e-05
4.66444e-05
4.66579e-05
4.66671e-05
4.66733e-05
4.66775e-05
4.66806e-05
4.66835e-05
4.66873e-05
4.66932e-05
4.67034e-05
4.67202e-05
4.67466e-05
4.67827e-05
4.68121e-05
4.67678e-05
4.62469e-05
4.43356e-05
5.00962e-05
4.96059e-05
4.91571e-05
4.87442e-05
4.83626e-05
4.80085e-05
4.76788e-05
4.73707e-05
4.70819e-05
4.68104e-05
4.65545e-05
4.63128e-05
4.6084e-05
4.58672e-05
4.56618e-05
4.54677e-05
4.52853e-05
4.51157e-05
4.49608e-05
4.48233e-05
4.47069e-05
4.46159e-05
4.45546e-05
4.45271e-05
4.45365e-05
4.45845e-05
4.46702e-05
4.4791e-05
4.49413e-05
4.51142e-05
4.5301e-05
4.5493e-05
4.56817e-05
4.586e-05
4.60224e-05
4.61655e-05
4.62877e-05
4.6389e-05
4.64709e-05
4.65353e-05
4.65848e-05
4.66219e-05
4.66493e-05
4.66691e-05
4.66831e-05
4.66931e-05
4.67004e-05
4.6706e-05
4.6711e-05
4.67167e-05
4.67243e-05
4.67358e-05
4.67543e-05
4.67842e-05
4.68321e-05
4.69072e-05
4.70158e-05
4.71516e-05
4.71492e-05
4.65302e-05
5.00962e-05
4.96059e-05
4.9157e-05
4.8744e-05
4.83623e-05
4.80081e-05
4.76783e-05
4.73702e-05
4.70813e-05
4.68097e-05
4.65537e-05
4.63119e-05
4.6083e-05
4.58662e-05
4.56609e-05
4.54668e-05
4.52845e-05
4.5115e-05
4.49603e-05
4.48231e-05
4.47071e-05
4.46166e-05
4.45558e-05
4.4529e-05
4.45392e-05
4.45879e-05
4.46744e-05
4.47958e-05
4.49468e-05
4.51201e-05
4.53072e-05
4.54993e-05
4.5688e-05
4.58661e-05
4.60284e-05
4.61713e-05
4.62933e-05
4.63945e-05
4.64762e-05
4.65405e-05
4.65899e-05
4.66271e-05
4.66545e-05
4.66744e-05
4.66886e-05
4.66988e-05
4.67063e-05
4.67123e-05
4.67178e-05
4.67242e-05
4.67328e-05
4.67459e-05
4.67667e-05
4.68002e-05
4.68543e-05
4.69408e-05
4.70741e-05
4.72714e-05
4.74766e-05
4.74932e-05
5.00962e-05
4.96058e-05
4.91569e-05
4.87438e-05
4.8362e-05
4.80078e-05
4.76779e-05
4.73697e-05
4.70807e-05
4.6809e-05
4.6553e-05
4.63111e-05
4.60822e-05
4.58653e-05
4.56599e-05
4.54658e-05
4.52835e-05
4.5114e-05
4.49593e-05
4.48222e-05
4.47064e-05
4.4616e-05
4.45555e-05
4.45289e-05
4.45394e-05
4.45884e-05
4.46753e-05
4.4797e-05
4.49482e-05
4.51217e-05
4.53089e-05
4.55011e-05
4.56897e-05
4.58678e-05
4.603e-05
4.61728e-05
4.62947e-05
4.63958e-05
4.64774e-05
4.65416e-05
4.6591e-05
4.66282e-05
4.66556e-05
4.66754e-05
4.66897e-05
4.66999e-05
4.67075e-05
4.67136e-05
4.67192e-05
4.67258e-05
4.67346e-05
4.67481e-05
4.67693e-05
4.68036e-05
4.68589e-05
4.69475e-05
4.70861e-05
4.72991e-05
4.75767e-05
4.78644e-05
5.00962e-05
4.96058e-05
4.91568e-05
4.87436e-05
4.83618e-05
4.80075e-05
4.76776e-05
4.73692e-05
4.70802e-05
4.68085e-05
4.65523e-05
4.63104e-05
4.60814e-05
4.58645e-05
4.5659e-05
4.54649e-05
4.52825e-05
4.5113e-05
4.49584e-05
4.48213e-05
4.47056e-05
4.46153e-05
4.45549e-05
4.45285e-05
4.45392e-05
4.45884e-05
4.46755e-05
4.47974e-05
4.49488e-05
4.51224e-05
4.53097e-05
4.55019e-05
4.56905e-05
4.58686e-05
4.60306e-05
4.61733e-05
4.62951e-05
4.63962e-05
4.64777e-05
4.65419e-05
4.65913e-05
4.66284e-05
4.66558e-05
4.66756e-05
4.66899e-05
4.67001e-05
4.67077e-05
4.67138e-05
4.67195e-05
4.67261e-05
4.6735e-05
4.67484e-05
4.67697e-05
4.68039e-05
4.68588e-05
4.69467e-05
4.70841e-05
4.72963e-05
4.75916e-05
4.79761e-05
5.00962e-05
4.96058e-05
4.91567e-05
4.87435e-05
4.83616e-05
4.80073e-05
4.76773e-05
4.73689e-05
4.70798e-05
4.6808e-05
4.65518e-05
4.63098e-05
4.60808e-05
4.58638e-05
4.56583e-05
4.54641e-05
4.52817e-05
4.51122e-05
4.49576e-05
4.48206e-05
4.47049e-05
4.46147e-05
4.45544e-05
4.45282e-05
4.4539e-05
4.45884e-05
4.46757e-05
4.47977e-05
4.49493e-05
4.5123e-05
4.53103e-05
4.55025e-05
4.56911e-05
4.58691e-05
4.60311e-05
4.61737e-05
4.62954e-05
4.63964e-05
4.64779e-05
4.65421e-05
4.65914e-05
4.66285e-05
4.66559e-05
4.66757e-05
4.66899e-05
4.67002e-05
4.67077e-05
4.67138e-05
4.67196e-05
4.67261e-05
4.6735e-05
4.67484e-05
4.67695e-05
4.68034e-05
4.68577e-05
4.6944e-05
4.70783e-05
4.72844e-05
4.75765e-05
4.79817e-05
5.00962e-05
4.96058e-05
4.91567e-05
4.87434e-05
4.83615e-05
4.80071e-05
4.7677e-05
4.73686e-05
4.70794e-05
4.68076e-05
4.65513e-05
4.63093e-05
4.60802e-05
4.58632e-05
4.56576e-05
4.54635e-05
4.5281e-05
4.51115e-05
4.49569e-05
4.48199e-05
4.47042e-05
4.46141e-05
4.4554e-05
4.45279e-05
4.45388e-05
4.45884e-05
4.46758e-05
4.4798e-05
4.49497e-05
4.51234e-05
4.53108e-05
4.5503e-05
4.56916e-05
4.58695e-05
4.60315e-05
4.6174e-05
4.62957e-05
4.63966e-05
4.64781e-05
4.65422e-05
4.65915e-05
4.66286e-05
4.66559e-05
4.66757e-05
4.66899e-05
4.67002e-05
4.67078e-05
4.67138e-05
4.67196e-05
4.67261e-05
4.6735e-05
4.67483e-05
4.67693e-05
4.68028e-05
4.68563e-05
4.69409e-05
4.70718e-05
4.72706e-05
4.75524e-05
4.7948e-05
5.00962e-05
4.96058e-05
4.91566e-05
4.87433e-05
4.83614e-05
4.80069e-05
4.76768e-05
4.73683e-05
4.70791e-05
4.68072e-05
4.65509e-05
4.63088e-05
4.60797e-05
4.58627e-05
4.56571e-05
4.54629e-05
4.52805e-05
4.51109e-05
4.49563e-05
4.48193e-05
4.47037e-05
4.46137e-05
4.45536e-05
4.45276e-05
4.45387e-05
4.45884e-05
4.46759e-05
4.47983e-05
4.495e-05
4.51238e-05
4.53113e-05
4.55035e-05
4.5692e-05
4.58699e-05
4.60318e-05
4.61743e-05
4.62959e-05
4.63968e-05
4.64782e-05
4.65423e-05
4.65915e-05
4.66286e-05
4.66559e-05
4.66757e-05
4.669e-05
4.67002e-05
4.67078e-05
4.67138e-05
4.67196e-05
4.67261e-05
4.67349e-05
4.67482e-05
4.6769e-05
4.68022e-05
4.6855e-05
4.6938e-05
4.70655e-05
4.72571e-05
4.75271e-05
4.7903e-05
5.00962e-05
4.96057e-05
4.91566e-05
4.87433e-05
4.83613e-05
4.80068e-05
4.76766e-05
4.73681e-05
4.70788e-05
4.68069e-05
4.65506e-05
4.63085e-05
4.60793e-05
4.58622e-05
4.56566e-05
4.54624e-05
4.52799e-05
4.51104e-05
4.49558e-05
4.48189e-05
4.47033e-05
4.46133e-05
4.45533e-05
4.45274e-05
4.45386e-05
4.45884e-05
4.4676e-05
4.47985e-05
4.49503e-05
4.51242e-05
4.53117e-05
4.55039e-05
4.56924e-05
4.58703e-05
4.60321e-05
4.61745e-05
4.62961e-05
4.63969e-05
4.64783e-05
4.65423e-05
4.65916e-05
4.66286e-05
4.66559e-05
4.66757e-05
4.669e-05
4.67002e-05
4.67078e-05
4.67138e-05
4.67195e-05
4.67261e-05
4.67349e-05
4.67481e-05
4.67688e-05
4.68017e-05
4.68538e-05
4.69353e-05
4.70598e-05
4.72448e-05
4.75033e-05
4.78576e-05
5.00962e-05
4.96057e-05
4.91566e-05
4.87432e-05
4.83612e-05
4.80066e-05
4.76764e-05
4.73679e-05
4.70786e-05
4.68066e-05
4.65503e-05
4.63081e-05
4.60789e-05
4.58618e-05
4.56562e-05
4.5462e-05
4.52795e-05
4.511e-05
4.49554e-05
4.48184e-05
4.47029e-05
4.4613e-05
4.4553e-05
4.45272e-05
4.45385e-05
4.45884e-05
4.46761e-05
4.47987e-05
4.49506e-05
4.51245e-05
4.5312e-05
4.55042e-05
4.56928e-05
4.58706e-05
4.60324e-05
4.61747e-05
4.62963e-05
4.6397e-05
4.64784e-05
4.65424e-05
4.65916e-05
4.66287e-05
4.6656e-05
4.66758e-05
4.669e-05
4.67002e-05
4.67078e-05
4.67138e-05
4.67195e-05
4.6726e-05
4.67348e-05
4.6748e-05
4.67686e-05
4.68012e-05
4.68527e-05
4.69329e-05
4.70546e-05
4.72338e-05
4.74818e-05
4.78161e-05
5.00961e-05
4.96057e-05
4.91565e-05
4.87432e-05
4.83611e-05
4.80065e-05
4.76763e-05
4.73677e-05
4.70784e-05
4.68064e-05
4.655e-05
4.63079e-05
4.60786e-05
4.58615e-05
4.56559e-05
4.54616e-05
4.52791e-05
4.51096e-05
4.4955e-05
4.48181e-05
4.47026e-05
4.46127e-05
4.45528e-05
4.45271e-05
4.45384e-05
4.45884e-05
4.46762e-05
4.47989e-05
4.49508e-05
4.51248e-05
4.53124e-05
4.55045e-05
4.56931e-05
4.58708e-05
4.60326e-05
4.61749e-05
4.62964e-05
4.63971e-05
4.64785e-05
4.65425e-05
4.65917e-05
4.66287e-05
4.6656e-05
4.66758e-05
4.669e-05
4.67002e-05
4.67078e-05
4.67138e-05
4.67195e-05
4.6726e-05
4.67348e-05
4.67479e-05
4.67684e-05
4.68008e-05
4.68517e-05
4.69308e-05
4.705e-05
4.72242e-05
4.74631e-05
4.77796e-05
5.00961e-05
4.96057e-05
4.91565e-05
4.87431e-05
4.8361e-05
4.80065e-05
4.76762e-05
4.73676e-05
4.70782e-05
4.68062e-05
4.65498e-05
4.63076e-05
4.60784e-05
4.58612e-05
4.56556e-05
4.54613e-05
4.52788e-05
4.51093e-05
4.49547e-05
4.48178e-05
4.47023e-05
4.46125e-05
4.45527e-05
4.45269e-05
4.45384e-05
4.45884e-05
4.46763e-05
4.4799e-05
4.4951e-05
4.51251e-05
4.53126e-05
4.55048e-05
4.56933e-05
4.58711e-05
4.60328e-05
4.61751e-05
4.62965e-05
4.63972e-05
4.64785e-05
4.65425e-05
4.65917e-05
4.66287e-05
4.6656e-05
4.66758e-05
4.669e-05
4.67002e-05
4.67078e-05
4.67138e-05
4.67195e-05
4.6726e-05
4.67348e-05
4.67478e-05
4.67682e-05
4.68004e-05
4.68509e-05
4.69289e-05
4.70461e-05
4.7216e-05
4.7447e-05
4.77484e-05
5.00961e-05
4.96057e-05
4.91565e-05
4.87431e-05
4.8361e-05
4.80064e-05
4.76761e-05
4.73675e-05
4.70781e-05
4.68061e-05
4.65497e-05
4.63074e-05
4.60782e-05
4.5861e-05
4.56553e-05
4.54611e-05
4.52786e-05
4.51091e-05
4.49544e-05
4.48176e-05
4.47021e-05
4.46123e-05
4.45525e-05
4.45268e-05
4.45384e-05
4.45884e-05
4.46764e-05
4.47991e-05
4.49512e-05
4.51253e-05
4.53128e-05
4.5505e-05
4.56935e-05
4.58712e-05
4.60329e-05
4.61752e-05
4.62966e-05
4.63973e-05
4.64786e-05
4.65425e-05
4.65917e-05
4.66287e-05
4.6656e-05
4.66758e-05
4.669e-05
4.67002e-05
4.67077e-05
4.67138e-05
4.67195e-05
4.6726e-05
4.67347e-05
4.67477e-05
4.6768e-05
4.68e-05
4.68502e-05
4.69273e-05
4.70428e-05
4.7209e-05
4.74335e-05
4.77224e-05
5.00961e-05
4.96057e-05
4.91565e-05
4.87431e-05
4.83609e-05
4.80063e-05
4.7676e-05
4.73674e-05
4.7078e-05
4.6806e-05
4.65495e-05
4.63073e-05
4.6078e-05
4.58608e-05
4.56552e-05
4.54609e-05
4.52784e-05
4.51089e-05
4.49542e-05
4.48174e-05
4.47019e-05
4.46121e-05
4.45524e-05
4.45268e-05
4.45383e-05
4.45885e-05
4.46765e-05
4.47992e-05
4.49513e-05
4.51254e-05
4.5313e-05
4.55052e-05
4.56937e-05
4.58714e-05
4.6033e-05
4.61753e-05
4.62967e-05
4.63974e-05
4.64786e-05
4.65426e-05
4.65917e-05
4.66287e-05
4.6656e-05
4.66758e-05
4.669e-05
4.67002e-05
4.67077e-05
4.67138e-05
4.67195e-05
4.6726e-05
4.67347e-05
4.67477e-05
4.67679e-05
4.67997e-05
4.68495e-05
4.69261e-05
4.70401e-05
4.72034e-05
4.74225e-05
4.77012e-05
5.00961e-05
4.96057e-05
4.91565e-05
4.87431e-05
4.83609e-05
4.80063e-05
4.7676e-05
4.73673e-05
4.70779e-05
4.68059e-05
4.65494e-05
4.63072e-05
4.60779e-05
4.58607e-05
4.5655e-05
4.54607e-05
4.52782e-05
4.51087e-05
4.49541e-05
4.48173e-05
4.47018e-05
4.4612e-05
4.45523e-05
4.45267e-05
4.45383e-05
4.45885e-05
4.46765e-05
4.47993e-05
4.49514e-05
4.51255e-05
4.53131e-05
4.55053e-05
4.56938e-05
4.58715e-05
4.60331e-05
4.61754e-05
4.62968e-05
4.63974e-05
4.64786e-05
4.65426e-05
4.65917e-05
4.66287e-05
4.6656e-05
4.66758e-05
4.669e-05
4.67002e-05
4.67077e-05
4.67138e-05
4.67195e-05
4.6726e-05
4.67347e-05
4.67476e-05
4.67678e-05
4.67995e-05
4.68491e-05
4.69251e-05
4.7038e-05
4.71991e-05
4.7414e-05
4.76846e-05
5.00961e-05
4.96057e-05
4.91565e-05
4.8743e-05
4.83609e-05
4.80063e-05
4.7676e-05
4.73673e-05
4.70779e-05
4.68058e-05
4.65494e-05
4.63071e-05
4.60778e-05
4.58606e-05
4.56549e-05
4.54606e-05
4.52781e-05
4.51086e-05
4.4954e-05
4.48172e-05
4.47017e-05
4.4612e-05
4.45523e-05
4.45267e-05
4.45383e-05
4.45885e-05
4.46765e-05
4.47994e-05
4.49515e-05
4.51256e-05
4.53132e-05
4.55054e-05
4.56938e-05
4.58715e-05
4.60332e-05
4.61754e-05
4.62968e-05
4.63974e-05
4.64786e-05
4.65426e-05
4.65917e-05
4.66287e-05
4.6656e-05
4.66758e-05
4.669e-05
4.67002e-05
4.67077e-05
4.67138e-05
4.67195e-05
4.6726e-05
4.67346e-05
4.67476e-05
4.67677e-05
4.67993e-05
4.68487e-05
4.69243e-05
4.70365e-05
4.7196e-05
4.74079e-05
4.76724e-05
5.00961e-05
4.96057e-05
4.91565e-05
4.8743e-05
4.83609e-05
4.80063e-05
4.76759e-05
4.73672e-05
4.70779e-05
4.68058e-05
4.65493e-05
4.63071e-05
4.60778e-05
4.58606e-05
4.56549e-05
4.54606e-05
4.52781e-05
4.51086e-05
4.4954e-05
4.48171e-05
4.47017e-05
4.46119e-05
4.45522e-05
4.45267e-05
4.45383e-05
4.45885e-05
4.46765e-05
4.47994e-05
4.49515e-05
4.51256e-05
4.53132e-05
4.55054e-05
4.56938e-05
4.58715e-05
4.60332e-05
4.61754e-05
4.62968e-05
4.63974e-05
4.64786e-05
4.65426e-05
4.65917e-05
4.66287e-05
4.6656e-05
4.66757e-05
4.66899e-05
4.67002e-05
4.67077e-05
4.67138e-05
4.67195e-05
4.67259e-05
4.67346e-05
4.67475e-05
4.67676e-05
4.67992e-05
4.68485e-05
4.69239e-05
4.70357e-05
4.71942e-05
4.74041e-05
4.76645e-05
5.00961e-05
4.96057e-05
4.91565e-05
4.8743e-05
4.83609e-05
4.80063e-05
4.76759e-05
4.73672e-05
4.70779e-05
4.68058e-05
4.65493e-05
4.63071e-05
4.60778e-05
4.58606e-05
4.56549e-05
4.54606e-05
4.52781e-05
4.51086e-05
4.4954e-05
4.48171e-05
4.47017e-05
4.46119e-05
4.45522e-05
4.45267e-05
4.45383e-05
4.45885e-05
4.46765e-05
4.47993e-05
4.49515e-05
4.51256e-05
4.53131e-05
4.55053e-05
4.56938e-05
4.58715e-05
4.60331e-05
4.61753e-05
4.62967e-05
4.63973e-05
4.64786e-05
4.65425e-05
4.65917e-05
4.66287e-05
4.66559e-05
4.66757e-05
4.66899e-05
4.67001e-05
4.67077e-05
4.67138e-05
4.67195e-05
4.67259e-05
4.67346e-05
4.67475e-05
4.67676e-05
4.67991e-05
4.68484e-05
4.69238e-05
4.70355e-05
4.71938e-05
4.74028e-05
4.76608e-05
5.00961e-05
4.96057e-05
4.91565e-05
4.8743e-05
4.83609e-05
4.80063e-05
4.7676e-05
4.73673e-05
4.70779e-05
4.68058e-05
4.65494e-05
4.63071e-05
4.60778e-05
4.58606e-05
4.56549e-05
4.54606e-05
4.52781e-05
4.51086e-05
4.4954e-05
4.48172e-05
4.47017e-05
4.4612e-05
4.45523e-05
4.45267e-05
4.45383e-05
4.45884e-05
4.46765e-05
4.47993e-05
4.49514e-05
4.51255e-05
4.5313e-05
4.55052e-05
4.56936e-05
4.58713e-05
4.6033e-05
4.61752e-05
4.62966e-05
4.63972e-05
4.64785e-05
4.65424e-05
4.65916e-05
4.66286e-05
4.66559e-05
4.66757e-05
4.66899e-05
4.67001e-05
4.67077e-05
4.67138e-05
4.67195e-05
4.67259e-05
4.67346e-05
4.67475e-05
4.67676e-05
4.67991e-05
4.68484e-05
4.6924e-05
4.70359e-05
4.71945e-05
4.74038e-05
4.76613e-05
5.00961e-05
4.96057e-05
4.91565e-05
4.87431e-05
4.83609e-05
4.80063e-05
4.7676e-05
4.73673e-05
4.70779e-05
4.68059e-05
4.65494e-05
4.63072e-05
4.60779e-05
4.58607e-05
4.5655e-05
4.54607e-05
4.52782e-05
4.51087e-05
4.49541e-05
4.48173e-05
4.47018e-05
4.4612e-05
4.45523e-05
4.45267e-05
4.45383e-05
4.45884e-05
4.46764e-05
4.47992e-05
4.49513e-05
4.51253e-05
4.53129e-05
4.5505e-05
4.56935e-05
4.58711e-05
4.60328e-05
4.6175e-05
4.62964e-05
4.63971e-05
4.64784e-05
4.65423e-05
4.65915e-05
4.66285e-05
4.66558e-05
4.66756e-05
4.66899e-05
4.67001e-05
4.67077e-05
4.67138e-05
4.67194e-05
4.67259e-05
4.67346e-05
4.67475e-05
4.67676e-05
4.67992e-05
4.68486e-05
4.69244e-05
4.7037e-05
4.71967e-05
4.74073e-05
4.76662e-05
5.00961e-05
4.96057e-05
4.91565e-05
4.87431e-05
4.83609e-05
4.80063e-05
4.7676e-05
4.73674e-05
4.7078e-05
4.6806e-05
4.65495e-05
4.63073e-05
4.6078e-05
4.58608e-05
4.56552e-05
4.54609e-05
4.52784e-05
4.51089e-05
4.49542e-05
4.48174e-05
4.47019e-05
4.46121e-05
4.45524e-05
4.45267e-05
4.45383e-05
4.45884e-05
4.46764e-05
4.47991e-05
4.49511e-05
4.51252e-05
4.53127e-05
4.55048e-05
4.56932e-05
4.58709e-05
4.60326e-05
4.61748e-05
4.62962e-05
4.63969e-05
4.64782e-05
4.65422e-05
4.65914e-05
4.66285e-05
4.66558e-05
4.66756e-05
4.66898e-05
4.67001e-05
4.67077e-05
4.67137e-05
4.67194e-05
4.67259e-05
4.67346e-05
4.67475e-05
4.67676e-05
4.67993e-05
4.68489e-05
4.69252e-05
4.70387e-05
4.72001e-05
4.74134e-05
4.76756e-05
5.00961e-05
4.96057e-05
4.91565e-05
4.87431e-05
4.8361e-05
4.80064e-05
4.76761e-05
4.73675e-05
4.70781e-05
4.68061e-05
4.65497e-05
4.63074e-05
4.60782e-05
4.5861e-05
4.56554e-05
4.54611e-05
4.52786e-05
4.51091e-05
4.49544e-05
4.48176e-05
4.47021e-05
4.46123e-05
4.45525e-05
4.45268e-05
4.45383e-05
4.45883e-05
4.46763e-05
4.47989e-05
4.49509e-05
4.51249e-05
4.53124e-05
4.55045e-05
4.5693e-05
4.58707e-05
4.60323e-05
4.61746e-05
4.62961e-05
4.63968e-05
4.64781e-05
4.65421e-05
4.65913e-05
4.66284e-05
4.66557e-05
4.66756e-05
4.66898e-05
4.67e-05
4.67076e-05
4.67137e-05
4.67194e-05
4.67259e-05
4.67346e-05
4.67475e-05
4.67676e-05
4.67994e-05
4.68493e-05
4.69263e-05
4.7041e-05
4.7205e-05
4.7422e-05
4.76897e-05
5.00961e-05
4.96057e-05
4.91565e-05
4.87431e-05
4.8361e-05
4.80065e-05
4.76762e-05
4.73676e-05
4.70782e-05
4.68062e-05
4.65498e-05
4.63076e-05
4.60784e-05
4.58612e-05
4.56556e-05
4.54613e-05
4.52788e-05
4.51093e-05
4.49547e-05
4.48178e-05
4.47023e-05
4.46125e-05
4.45526e-05
4.45269e-05
4.45383e-05
4.45883e-05
4.46762e-05
4.47988e-05
4.49507e-05
4.51247e-05
4.53121e-05
4.55042e-05
4.56926e-05
4.58704e-05
4.6032e-05
4.61744e-05
4.62958e-05
4.63966e-05
4.64779e-05
4.6542e-05
4.65912e-05
4.66283e-05
4.66557e-05
4.66755e-05
4.66898e-05
4.67e-05
4.67076e-05
4.67137e-05
4.67194e-05
4.67259e-05
4.67345e-05
4.67475e-05
4.67677e-05
4.67996e-05
4.68499e-05
4.69276e-05
4.70441e-05
4.72113e-05
4.74334e-05
4.7709e-05
5.00961e-05
4.96057e-05
4.91565e-05
4.87432e-05
4.83611e-05
4.80065e-05
4.76763e-05
4.73677e-05
4.70784e-05
4.68064e-05
4.655e-05
4.63079e-05
4.60786e-05
4.58615e-05
4.56559e-05
4.54616e-05
4.52791e-05
4.51096e-05
4.4955e-05
4.48181e-05
4.47026e-05
4.46127e-05
4.45528e-05
4.4527e-05
4.45384e-05
4.45883e-05
4.4676e-05
4.47986e-05
4.49504e-05
4.51244e-05
4.53118e-05
4.55039e-05
4.56923e-05
4.587e-05
4.60317e-05
4.61741e-05
4.62956e-05
4.63964e-05
4.64778e-05
4.65419e-05
4.65911e-05
4.66282e-05
4.66556e-05
4.66755e-05
4.66897e-05
4.67e-05
4.67076e-05
4.67137e-05
4.67194e-05
4.67259e-05
4.67345e-05
4.67475e-05
4.67678e-05
4.67999e-05
4.68505e-05
4.69293e-05
4.70478e-05
4.72191e-05
4.74477e-05
4.77339e-05
5.00962e-05
4.96057e-05
4.91566e-05
4.87432e-05
4.83612e-05
4.80066e-05
4.76764e-05
4.73679e-05
4.70786e-05
4.68066e-05
4.65503e-05
4.63081e-05
4.60789e-05
4.58618e-05
4.56562e-05
4.5462e-05
4.52795e-05
4.511e-05
4.49554e-05
4.48185e-05
4.47029e-05
4.4613e-05
4.4553e-05
4.45272e-05
4.45384e-05
4.45882e-05
4.46759e-05
4.47984e-05
4.49502e-05
4.5124e-05
4.53114e-05
4.55035e-05
4.56919e-05
4.58697e-05
4.60314e-05
4.61738e-05
4.62954e-05
4.63962e-05
4.64776e-05
4.65417e-05
4.6591e-05
4.66281e-05
4.66555e-05
4.66754e-05
4.66897e-05
4.67e-05
4.67076e-05
4.67137e-05
4.67194e-05
4.67258e-05
4.67345e-05
4.67475e-05
4.67679e-05
4.68002e-05
4.68513e-05
4.69312e-05
4.70522e-05
4.72285e-05
4.74651e-05
4.7765e-05
5.00962e-05
4.96057e-05
4.91566e-05
4.87433e-05
4.83613e-05
4.80068e-05
4.76766e-05
4.73681e-05
4.70788e-05
4.68069e-05
4.65506e-05
4.63085e-05
4.60793e-05
4.58622e-05
4.56566e-05
4.54624e-05
4.52799e-05
4.51104e-05
4.49558e-05
4.48189e-05
4.47033e-05
4.46133e-05
4.45533e-05
4.45273e-05
4.45385e-05
4.45882e-05
4.46758e-05
4.47981e-05
4.49498e-05
4.51236e-05
4.5311e-05
4.5503e-05
4.56915e-05
4.58692e-05
4.6031e-05
4.61735e-05
4.62951e-05
4.6396e-05
4.64774e-05
4.65416e-05
4.65909e-05
4.66281e-05
4.66555e-05
4.66754e-05
4.66896e-05
4.66999e-05
4.67075e-05
4.67137e-05
4.67194e-05
4.67258e-05
4.67345e-05
4.67476e-05
4.6768e-05
4.68005e-05
4.68522e-05
4.69334e-05
4.70572e-05
4.72396e-05
4.74859e-05
4.78033e-05
5.00962e-05
4.96058e-05
4.91566e-05
4.87433e-05
4.83614e-05
4.80069e-05
4.76768e-05
4.73683e-05
4.70791e-05
4.68072e-05
4.65509e-05
4.63088e-05
4.60797e-05
4.58627e-05
4.56571e-05
4.54629e-05
4.52805e-05
4.51109e-05
4.49563e-05
4.48193e-05
4.47037e-05
4.46137e-05
4.45536e-05
4.45275e-05
4.45386e-05
4.45882e-05
4.46756e-05
4.47979e-05
4.49495e-05
4.51232e-05
4.53105e-05
4.55025e-05
4.5691e-05
4.58688e-05
4.60306e-05
4.61731e-05
4.62948e-05
4.63957e-05
4.64772e-05
4.65414e-05
4.65908e-05
4.6628e-05
4.66554e-05
4.66753e-05
4.66896e-05
4.66999e-05
4.67075e-05
4.67136e-05
4.67193e-05
4.67258e-05
4.67345e-05
4.67476e-05
4.67681e-05
4.68009e-05
4.68532e-05
4.69359e-05
4.7063e-05
4.72526e-05
4.75103e-05
4.78498e-05
5.00962e-05
4.96058e-05
4.91567e-05
4.87434e-05
4.83615e-05
4.80071e-05
4.7677e-05
4.73686e-05
4.70794e-05
4.68076e-05
4.65513e-05
4.63093e-05
4.60802e-05
4.58632e-05
4.56576e-05
4.54635e-05
4.52811e-05
4.51115e-05
4.49569e-05
4.48199e-05
4.47043e-05
4.46141e-05
4.45539e-05
4.45278e-05
4.45387e-05
4.45882e-05
4.46755e-05
4.47976e-05
4.49491e-05
4.51227e-05
4.531e-05
4.5502e-05
4.56905e-05
4.58683e-05
4.60302e-05
4.61728e-05
4.62945e-05
4.63955e-05
4.6477e-05
4.65413e-05
4.65907e-05
4.66279e-05
4.66553e-05
4.66753e-05
4.66896e-05
4.66999e-05
4.67075e-05
4.67136e-05
4.67193e-05
4.67258e-05
4.67346e-05
4.67476e-05
4.67682e-05
4.68013e-05
4.68543e-05
4.69387e-05
4.70695e-05
4.72675e-05
4.75388e-05
4.79059e-05
5.00962e-05
4.96058e-05
4.91567e-05
4.87435e-05
4.83616e-05
4.80073e-05
4.76773e-05
4.73689e-05
4.70798e-05
4.6808e-05
4.65518e-05
4.63098e-05
4.60808e-05
4.58638e-05
4.56583e-05
4.54641e-05
4.52817e-05
4.51122e-05
4.49576e-05
4.48206e-05
4.47049e-05
4.46147e-05
4.45544e-05
4.45281e-05
4.45389e-05
4.45882e-05
4.46753e-05
4.47973e-05
4.49487e-05
4.51222e-05
4.53094e-05
4.55014e-05
4.56899e-05
4.58678e-05
4.60297e-05
4.61723e-05
4.62941e-05
4.63952e-05
4.64768e-05
4.65411e-05
4.65905e-05
4.66278e-05
4.66553e-05
4.66752e-05
4.66895e-05
4.66998e-05
4.67075e-05
4.67136e-05
4.67193e-05
4.67258e-05
4.67346e-05
4.67477e-05
4.67684e-05
4.68017e-05
4.68554e-05
4.69417e-05
4.70767e-05
4.72844e-05
4.75716e-05
4.79737e-05
5.00962e-05
4.96058e-05
4.91568e-05
4.87436e-05
4.83618e-05
4.80075e-05
4.76776e-05
4.73692e-05
4.70802e-05
4.68085e-05
4.65524e-05
4.63104e-05
4.60814e-05
4.58645e-05
4.5659e-05
4.54649e-05
4.52825e-05
4.5113e-05
4.49584e-05
4.48213e-05
4.47056e-05
4.46153e-05
4.45549e-05
4.45284e-05
4.45391e-05
4.45882e-05
4.46752e-05
4.47969e-05
4.49482e-05
4.51216e-05
4.53087e-05
4.55007e-05
4.56892e-05
4.58672e-05
4.60292e-05
4.61719e-05
4.62938e-05
4.63949e-05
4.64766e-05
4.65409e-05
4.65904e-05
4.66277e-05
4.66552e-05
4.66751e-05
4.66895e-05
4.66998e-05
4.67074e-05
4.67136e-05
4.67193e-05
4.67258e-05
4.67345e-05
4.67477e-05
4.67685e-05
4.68021e-05
4.68566e-05
4.6945e-05
4.70846e-05
4.73037e-05
4.76093e-05
4.80556e-05
5.00962e-05
4.96058e-05
4.91569e-05
4.87438e-05
4.8362e-05
4.80078e-05
4.76779e-05
4.73697e-05
4.70807e-05
4.6809e-05
4.6553e-05
4.63111e-05
4.60822e-05
4.58653e-05
4.56599e-05
4.54658e-05
4.52835e-05
4.5114e-05
4.49593e-05
4.48222e-05
4.47064e-05
4.4616e-05
4.45554e-05
4.45288e-05
4.45392e-05
4.45881e-05
4.46749e-05
4.47965e-05
4.49475e-05
4.51208e-05
4.53079e-05
4.54998e-05
4.56884e-05
4.58664e-05
4.60285e-05
4.61712e-05
4.62932e-05
4.63944e-05
4.64762e-05
4.65406e-05
4.65901e-05
4.66274e-05
4.66549e-05
4.66749e-05
4.66893e-05
4.66996e-05
4.67073e-05
4.67134e-05
4.67191e-05
4.67256e-05
4.67344e-05
4.67476e-05
4.67685e-05
4.68025e-05
4.68578e-05
4.69483e-05
4.70932e-05
4.73253e-05
4.76524e-05
4.81549e-05
5.00962e-05
4.96059e-05
4.9157e-05
4.8744e-05
4.83623e-05
4.80081e-05
4.76783e-05
4.73702e-05
4.70813e-05
4.68097e-05
4.65537e-05
4.63119e-05
4.6083e-05
4.58662e-05
4.56609e-05
4.54668e-05
4.52845e-05
4.5115e-05
4.49603e-05
4.48231e-05
4.47071e-05
4.46166e-05
4.45558e-05
4.45289e-05
4.4539e-05
4.45876e-05
4.46741e-05
4.47953e-05
4.49461e-05
4.51192e-05
4.53061e-05
4.5498e-05
4.56866e-05
4.58647e-05
4.60269e-05
4.61698e-05
4.62918e-05
4.63932e-05
4.6475e-05
4.65395e-05
4.65891e-05
4.66264e-05
4.6654e-05
4.6674e-05
4.66884e-05
4.66987e-05
4.67064e-05
4.67126e-05
4.67183e-05
4.67248e-05
4.67336e-05
4.67469e-05
4.6768e-05
4.68023e-05
4.68585e-05
4.69514e-05
4.7102e-05
4.73492e-05
4.77012e-05
4.82762e-05
5.00962e-05
4.96059e-05
4.91571e-05
4.87442e-05
4.83626e-05
4.80085e-05
4.76788e-05
4.73707e-05
4.70819e-05
4.68104e-05
4.65545e-05
4.63128e-05
4.6084e-05
4.58672e-05
4.56618e-05
4.54677e-05
4.52853e-05
4.51157e-05
4.49608e-05
4.48233e-05
4.4707e-05
4.46159e-05
4.45546e-05
4.4527e-05
4.45364e-05
4.45842e-05
4.46699e-05
4.47905e-05
4.49407e-05
4.51134e-05
4.53e-05
4.54919e-05
4.56804e-05
4.58586e-05
4.60211e-05
4.61642e-05
4.62865e-05
4.6388e-05
4.647e-05
4.65346e-05
4.65843e-05
4.66217e-05
4.66494e-05
4.66694e-05
4.66839e-05
4.66943e-05
4.6702e-05
4.67082e-05
4.6714e-05
4.67206e-05
4.67296e-05
4.6743e-05