/*--------------------------------*- C++ -*----------------------------------*\
| =========                 |                                                 |
| \\      /  F ield         | OpenFOAM: The Open Source CFD Toolbox           |
|  \\    /   O peration     | Version:  2.4.0                                 |
|   \\  /    A nd           | Web:      www.OpenFOAM.org                      |
|    \\/     M anipulation  |                                                 |
\*---------------------------------------------------------------------------*/
FoamFile
{
    version     2.0;
    format      ascii;
    class       surfaceScalarField;
    location    "6.46";
    object      phi;
}
// * * * * * * * * * * * * * * * * * * * * * * * * * * * * * * * * * * * * * //

dimensions      [0 3 -1 0 0 0 0];

internalField   nonuniform List<scalar> 
11840
(
7.83429e-07
9.21657e-06
-9.36074e-07
1.7195e-06
6.5911e-07
-1.59518e-06
1.47759e-07
5.11352e-07
-2.02194e-07
3.49952e-07
-3.02097e-07
9.99036e-08
-4.06268e-07
1.04171e-07
-4.95509e-07
8.92413e-08
-6.60077e-07
1.64567e-07
-7.80964e-07
1.20887e-07
-9.68282e-07
1.87318e-07
-1.12128e-06
1.52999e-07
-1.32534e-06
2.04055e-07
-1.52402e-06
1.98679e-07
-1.75408e-06
2.30064e-07
-1.9829e-06
2.28824e-07
-2.21903e-06
2.36127e-07
-2.44801e-06
2.28983e-07
-2.67128e-06
2.23268e-07
-2.88153e-06
2.10253e-07
-3.07639e-06
1.94857e-07
-3.25505e-06
1.78658e-07
-3.42012e-06
1.65066e-07
-3.5702e-06
1.5009e-07
-3.70349e-06
1.33285e-07
-3.81779e-06
1.14299e-07
-3.91109e-06
9.32986e-08
-3.98123e-06
7.01386e-08
-4.02576e-06
4.45369e-08
-4.04129e-06
1.55308e-08
-4.02561e-06
-1.56821e-08
-3.9787e-06
-4.69101e-08
-3.89991e-06
-7.87958e-08
-3.78776e-06
-1.1215e-07
-3.64116e-06
-1.46596e-07
-3.45911e-06
-1.82049e-07
-3.24121e-06
-2.17897e-07
-2.98683e-06
-2.54387e-07
-2.69673e-06
-2.90099e-07
-2.37016e-06
-3.26564e-07
-2.01025e-06
-3.59912e-07
-1.61454e-06
-3.95707e-07
-1.19119e-06
-4.23349e-07
-7.33058e-07
-4.58137e-07
-2.56371e-07
-4.76687e-07
2.51393e-07
-5.07763e-07
7.58704e-07
-5.07311e-07
1.30731e-06
-5.48601e-07
1.82327e-06
-5.15969e-07
2.40834e-06
-5.85067e-07
2.89635e-06
-4.88008e-07
3.52398e-06
-6.27627e-07
3.9243e-06
-4.00325e-07
4.62892e-06
-7.04616e-07
4.8445e-06
-2.15587e-07
5.70742e-06
-8.62911e-07
5.58753e-06
1.19884e-07
6.77955e-06
-1.19202e-06
6.21586e-06
5.63693e-07
-2.29959e-06
2.45133e-06
1.67652e-05
-5.06699e-07
4.67754e-06
3.68662e-07
-2.47055e-06
-8.5195e-08
9.65208e-07
-3.09635e-07
5.74393e-07
-4.68432e-07
2.587e-07
-5.71432e-07
2.0717e-07
-6.81792e-07
1.99602e-07
-8.47627e-07
3.30403e-07
-9.88714e-07
2.61974e-07
-1.17218e-06
3.70787e-07
-1.34378e-06
3.24593e-07
-1.54615e-06
4.06431e-07
-1.75499e-06
4.07517e-07
-1.98017e-06
4.55244e-07
-2.20584e-06
4.54492e-07
-2.43128e-06
4.61565e-07
-2.64949e-06
4.472e-07
-2.85932e-06
4.33096e-07
-3.05732e-06
4.08247e-07
-3.2426e-06
3.80137e-07
-3.41433e-06
3.50394e-07
-3.57159e-06
3.22326e-07
-3.71226e-06
2.90752e-07
-3.83436e-06
2.55386e-07
-3.93583e-06
2.15772e-07
-4.0147e-06
1.72173e-07
-4.06901e-06
1.24448e-07
-4.09687e-06
7.23936e-08
-4.09714e-06
1.58057e-08
-4.06848e-06
-4.43481e-08
-4.00877e-06
-1.06619e-07
-3.91613e-06
-1.71434e-07
-3.78921e-06
-2.39074e-07
-3.62692e-06
-3.08887e-07
-3.4284e-06
-3.80566e-07
-3.1932e-06
-4.531e-07
-2.92103e-06
-5.26555e-07
-2.61226e-06
-5.98865e-07
-2.26722e-06
-6.71611e-07
-1.88738e-06
-7.39751e-07
-1.47356e-06
-8.09522e-07
-1.02873e-06
-8.68179e-07
-5.54458e-07
-9.32411e-07
-5.49155e-08
-9.7623e-07
4.67326e-07
-1.03001e-06
1.00468e-06
-1.04466e-06
1.5622e-06
-1.10613e-06
2.1218e-06
-1.07556e-06
2.70086e-06
-1.16413e-06
3.25816e-06
-1.04531e-06
3.84739e-06
-1.21686e-06
4.36757e-06
-9.20507e-07
4.96847e-06
-1.30551e-06
5.39695e-06
-6.44072e-07
6.04743e-06
-1.51339e-06
6.29689e-06
-1.29584e-07
7.111e-06
-2.00613e-06
7.16843e-06
5.06258e-07
-3.78074e-06
3.60687e-06
2.31584e-05
1.73394e-08
8.26706e-06
5.85357e-08
-2.51174e-06
-3.0376e-07
1.3275e-06
-3.67202e-07
6.37834e-07
-5.34965e-07
4.26463e-07
-6.25725e-07
2.97931e-07
-7.44227e-07
3.18103e-07
-8.96024e-07
4.822e-07
-1.04456e-06
4.10508e-07
-1.21652e-06
5.4275e-07
-1.39101e-06
4.99077e-07
-1.58487e-06
6.00291e-07
-1.78957e-06
6.12217e-07
-2.00506e-06
6.70737e-07
-2.2224e-06
6.7183e-07
-2.43803e-06
6.77195e-07
-2.64745e-06
6.56622e-07
-2.84865e-06
6.34299e-07
-3.03935e-06
5.98947e-07
-3.21845e-06
5.59235e-07
-3.38464e-06
5.16591e-07
-3.53623e-06
4.73911e-07
-3.67113e-06
4.25651e-07
-3.78738e-06
3.71634e-07
-3.88296e-06
3.11353e-07
-3.95593e-06
2.4515e-07
-4.00443e-06
1.72941e-07
-4.02672e-06
9.46822e-08
-4.02135e-06
1.04355e-08
-3.98682e-06
-7.88761e-08
-3.9211e-06
-1.72341e-07
-3.82248e-06
-2.70049e-07
-3.68968e-06
-3.71876e-07
-3.52163e-06
-4.76937e-07
-3.31753e-06
-5.8467e-07
-3.0769e-06
-6.93728e-07
-2.79957e-06
-8.03884e-07
-2.48581e-06
-9.12626e-07
-2.13618e-06
-1.02124e-06
-1.75182e-06
-1.12412e-06
-1.33423e-06
-1.22711e-06
-8.85286e-07
-1.31712e-06
-4.08205e-07
-1.40949e-06
9.50123e-08
-1.47945e-06
6.19694e-07
-1.55469e-06
1.16317e-06
-1.58814e-06
1.72176e-06
-1.66472e-06
2.29029e-06
-1.64409e-06
2.86604e-06
-1.73988e-06
3.43922e-06
-1.61848e-06
4.01452e-06
-1.79216e-06
4.56767e-06
-1.47365e-06
5.12908e-06
-1.86692e-06
5.63061e-06
-1.1456e-06
6.18129e-06
-2.06407e-06
6.59197e-06
-5.40266e-07
7.178e-06
-2.59216e-06
7.55293e-06
1.31321e-07
-4.78075e-06
4.52838e-06
2.863e-05
7.5647e-07
1.2039e-05
-2.34063e-07
-1.52121e-06
-4.59962e-07
1.5534e-06
-3.98457e-07
5.76329e-07
-5.66567e-07
5.94572e-07
-6.47009e-07
3.78374e-07
-7.70015e-07
4.41108e-07
-9.10426e-07
6.22612e-07
-1.06124e-06
5.61323e-07
-1.22563e-06
7.0714e-07
-1.39893e-06
6.72381e-07
-1.58623e-06
7.87585e-07
-1.7854e-06
8.11391e-07
-1.99293e-06
8.78266e-07
-2.20283e-06
8.81726e-07
-2.41066e-06
8.8503e-07
-2.61291e-06
8.58868e-07
-2.80726e-06
8.2865e-07
-2.99183e-06
7.83521e-07
-3.16533e-06
7.32728e-07
-3.32618e-06
6.77445e-07
-3.47243e-06
6.20164e-07
-3.60207e-06
5.55283e-07
-3.71312e-06
4.82691e-07
-3.80363e-06
4.01856e-07
-3.87167e-06
3.1319e-07
-3.91542e-06
2.1669e-07
-3.93318e-06
1.12444e-07
-3.92341e-06
6.66282e-10
-3.88446e-06
-1.1782e-07
-3.81446e-06
-2.42343e-07
-3.7118e-06
-3.72709e-07
-3.57521e-06
-5.08463e-07
-3.40366e-06
-6.48495e-07
-3.19635e-06
-7.91976e-07
-2.95283e-06
-9.37244e-07
-2.67297e-06
-1.08375e-06
-2.35699e-06
-1.2286e-06
-2.00557e-06
-1.37266e-06
-1.6197e-06
-1.50999e-06
-1.20112e-06
-1.64569e-06
-7.5137e-07
-1.76687e-06
-2.74039e-07
-1.88682e-06
2.29422e-07
-1.98291e-06
7.54e-07
-2.07926e-06
1.29835e-06
-2.13249e-06
1.85612e-06
-2.22249e-06
2.426e-06
-2.21396e-06
2.9991e-06
-2.31298e-06
3.5756e-06
-2.19498e-06
4.14422e-06
-2.36078e-06
4.7065e-06
-2.03594e-06
5.25151e-06
-2.41193e-06
5.77736e-06
-1.67145e-06
6.28726e-06
-2.57397e-06
6.75891e-06
-1.01192e-06
7.24758e-06
-3.08082e-06
7.74978e-06
-3.7088e-07
-5.54444e-06
5.30449e-06
3.33255e-05
1.49038e-06
1.58531e-05
-2.60541e-07
2.29712e-07
-5.51625e-07
1.84449e-06
-4.19298e-07
4.44002e-07
-5.82927e-07
7.58201e-07
-6.5524e-07
4.50687e-07
-7.79678e-07
5.65547e-07
-9.11562e-07
7.54496e-07
-1.06174e-06
7.11497e-07
-1.2205e-06
8.65903e-07
-1.39104e-06
8.42918e-07
-1.57251e-06
9.69061e-07
-1.76579e-06
1.00467e-06
-1.96605e-06
1.07852e-06
-2.16889e-06
1.08457e-06
-2.36965e-06
1.08579e-06
-2.56527e-06
1.05449e-06
-2.75333e-06
1.0167e-06
-2.93209e-06
9.62279e-07
-3.10009e-06
9.00732e-07
-3.25563e-06
8.32982e-07
-3.39664e-06
7.61176e-07
-3.52115e-06
6.79797e-07
-3.62723e-06
5.88765e-07
-3.71291e-06
4.87541e-07
-3.77633e-06
3.76608e-07
-3.81569e-06
2.56047e-07
-3.82929e-06
1.26047e-07
-3.81555e-06
-1.30755e-08
-3.77276e-06
-1.6061e-07
-3.69914e-06
-3.15957e-07
-3.59318e-06
-4.78677e-07
-3.4536e-06
-6.48039e-07
-3.2794e-06
-8.22701e-07
-3.0698e-06
-1.00157e-06
-2.82437e-06
-1.18268e-06
-2.54298e-06
-1.36514e-06
-2.22586e-06
-1.54571e-06
-1.87372e-06
-1.7248e-06
-1.4875e-06
-1.89621e-06
-1.06904e-06
-2.06416e-06
-6.19732e-07
-2.21617e-06
-1.43217e-07
-2.36334e-06
3.59174e-07
-2.4853e-06
8.82504e-07
-2.60259e-06
1.42576e-06
-2.67575e-06
1.98162e-06
-2.77835e-06
2.55022e-06
-2.78255e-06
3.1203e-06
-2.88306e-06
3.69603e-06
-2.77072e-06
4.25963e-06
-2.92438e-06
4.8235e-06
-2.5998e-06
5.35898e-06
-2.94741e-06
5.89321e-06
-2.20568e-06
6.38227e-06
-3.06303e-06
6.87918e-06
-1.50883e-06
7.32059e-06
-3.52223e-06
7.8744e-06
-9.2469e-07
-6.17665e-06
5.97539e-06
3.73501e-05
2.23985e-06
1.95886e-05
-6.42019e-08
2.53376e-06
-5.83489e-07
2.36377e-06
-4.3655e-07
2.97064e-07
-5.90643e-07
9.12293e-07
-6.56381e-07
5.16425e-07
-7.80241e-07
6.89407e-07
-9.05214e-07
8.79469e-07
-1.05328e-06
8.59563e-07
-1.20719e-06
1.01981e-06
-1.37423e-06
1.00996e-06
-1.55014e-06
1.14497e-06
-1.73737e-06
1.19191e-06
-1.93063e-06
1.27178e-06
-2.12659e-06
1.28053e-06
-2.32055e-06
1.27975e-06
-2.50975e-06
1.24369e-06
-2.69169e-06
1.19864e-06
-2.86469e-06
1.13528e-06
-3.02719e-06
1.06323e-06
-3.17736e-06
9.83155e-07
-3.31312e-06
8.96937e-07
-3.43253e-06
7.99207e-07
-3.53367e-06
6.89904e-07
-3.61462e-06
5.68488e-07
-3.67352e-06
4.3551e-07
-3.70861e-06
2.91138e-07
-3.7182e-06
1.35641e-07
-3.70067e-06
-3.06096e-08
-3.6543e-06
-2.06975e-07
-3.5774e-06
-3.92859e-07
-3.46849e-06
-5.87593e-07
-3.32632e-06
-7.90201e-07
-3.14991e-06
-9.99117e-07
-2.9385e-06
-1.21298e-06
-2.69166e-06
-1.42952e-06
-2.40928e-06
-1.64751e-06
-2.0916e-06
-1.8634e-06
-1.73934e-06
-2.07706e-06
-1.35341e-06
-2.28213e-06
-9.35687e-07
-2.48189e-06
-4.87519e-07
-2.66434e-06
-1.24607e-08
-2.8384e-06
4.88126e-07
-2.98589e-06
1.00947e-06
-3.12394e-06
1.55057e-06
-3.21685e-06
2.10376e-06
-3.33155e-06
2.66974e-06
-3.34854e-06
3.23632e-06
-3.44964e-06
3.80942e-06
-3.34382e-06
4.36829e-06
-3.48325e-06
4.93055e-06
-3.16206e-06
5.45886e-06
-3.47573e-06
5.995e-06
-2.74182e-06
6.47089e-06
-3.53892e-06
6.97861e-06
-2.01655e-06
7.39308e-06
-3.9367e-06
7.9674e-06
-1.49901e-06
-6.72275e-06
6.56065e-06
4.07895e-05
2.97375e-06
2.31755e-05
2.29384e-07
5.27813e-06
-5.36953e-07
3.13011e-06
-4.51615e-07
2.11725e-07
-5.92442e-07
1.05312e-06
-6.5264e-07
5.76623e-07
-7.74724e-07
8.11491e-07
-8.9365e-07
9.98395e-07
-1.03881e-06
1.00472e-06
-1.18817e-06
1.16917e-06
-1.35129e-06
1.17309e-06
-1.52171e-06
1.31538e-06
-1.7028e-06
1.373e-06
-1.88917e-06
1.45815e-06
-2.0783e-06
1.46966e-06
-2.26556e-06
1.46701e-06
-2.4484e-06
1.42653e-06
-2.62424e-06
1.37449e-06
-2.79145e-06
1.30249e-06
-2.94835e-06
1.22012e-06
-3.09307e-06
1.12787e-06
-3.22351e-06
1.02738e-06
-3.33777e-06
9.13466e-07
-3.43395e-06
7.8608e-07
-3.51015e-06
6.44688e-07
-3.56454e-06
4.89908e-07
-3.59539e-06
3.21989e-07
-3.60102e-06
1.41266e-07
-3.57977e-06
-5.18588e-08
-3.52996e-06
-2.56786e-07
-3.44994e-06
-4.7288e-07
-3.33827e-06
-6.99258e-07
-3.19375e-06
-9.34725e-07
-3.01538e-06
-1.17749e-06
-2.80244e-06
-1.42591e-06
-2.55451e-06
-1.67746e-06
-2.27149e-06
-1.93053e-06
-1.95362e-06
-2.18127e-06
-1.60163e-06
-2.42905e-06
-1.21642e-06
-2.66734e-06
-7.99868e-07
-2.89844e-06
-3.53308e-07
-3.1109e-06
1.19831e-07
-3.31154e-06
6.18096e-07
-3.48415e-06
1.13689e-06
-3.64273e-06
1.67511e-06
-3.75508e-06
2.22504e-06
-3.88147e-06
2.78757e-06
-3.91107e-06
3.35016e-06
-4.01222e-06
3.91954e-06
-3.9132e-06
4.47358e-06
-4.03729e-06
5.03253e-06
-3.72101e-06
5.55457e-06
-3.99777e-06
6.08939e-06
-3.27664e-06
6.55557e-06
-4.00511e-06
7.06709e-06
-2.52806e-06
7.46405e-06
-4.33366e-06
8.04424e-06
-2.0792e-06
-7.20551e-06
7.07169e-06
4.37178e-05
3.68632e-06
2.65609e-05
6.52975e-07
8.31147e-06
-4.07249e-07
4.19034e-06
-4.60633e-07
2.65109e-07
-5.89465e-07
1.18195e-06
-6.44939e-07
6.32098e-07
-7.64584e-07
9.31135e-07
-8.7794e-07
1.11175e-06
-1.01972e-06
1.1465e-06
-1.16462e-06
1.31407e-06
-1.32357e-06
1.33203e-06
-1.48848e-06
1.4803e-06
-1.66337e-06
1.54789e-06
-1.8429e-06
1.63768e-06
-2.02519e-06
1.65195e-06
-2.20575e-06
1.64758e-06
-2.38218e-06
1.60296e-06
-2.55189e-06
1.54419e-06
-2.71321e-06
1.46382e-06
-2.8644e-06
1.37131e-06
-3.00355e-06
1.26702e-06
-3.12857e-06
1.1524e-06
-3.23759e-06
1.02249e-06
-3.32873e-06
8.77221e-07
-3.40013e-06
7.16085e-07
-3.44998e-06
5.39758e-07
-3.47656e-06
3.48572e-07
-3.47821e-06
1.42911e-07
-3.45326e-06
-7.68056e-08
-3.40006e-06
-3.09989e-07
-3.31701e-06
-5.55934e-07
-3.2027e-06
-8.13564e-07
-3.05595e-06
-1.08147e-06
-2.87579e-06
-1.35765e-06
-2.66152e-06
-1.64019e-06
-2.4127e-06
-1.92627e-06
-2.12929e-06
-2.21395e-06
-1.81149e-06
-2.49907e-06
-1.46006e-06
-2.78048e-06
-1.0759e-06
-3.05151e-06
-6.60856e-07
-3.31348e-06
-2.16265e-07
-3.55549e-06
2.54573e-07
-3.78237e-06
7.50099e-07
-3.97968e-06
1.26587e-06
-4.1585e-06
1.80068e-06
-4.28988e-06
2.34684e-06
-4.42764e-06
2.90529e-06
-4.46951e-06
3.46344e-06
-4.57038e-06
4.02834e-06
-4.4781e-06
4.57731e-06
-4.58625e-06
5.13188e-06
-4.27559e-06
5.64795e-06
-4.51383e-06
6.17958e-06
-3.80826e-06
6.63775e-06
-4.46328e-06
7.14918e-06
-3.03949e-06
7.53345e-06
-4.71792e-06
8.11177e-06
-2.65753e-06
-7.63795e-06
7.51714e-06
4.62006e-05
4.37127e-06
2.97068e-05
1.17974e-06
1.1503e-05
-2.08348e-07
5.57843e-06
-4.5407e-07
5.10831e-07
-5.81811e-07
1.30969e-06
-6.33615e-07
6.83901e-07
-7.50535e-07
1.04806e-06
-8.58622e-07
1.21984e-06
-9.96732e-07
1.28461e-06
-1.13718e-06
1.45451e-06
-1.29175e-06
1.48661e-06
-1.45115e-06
1.6397e-06
-1.61977e-06
1.71651e-06
-1.79245e-06
1.81036e-06
-1.96785e-06
1.82735e-06
-2.14168e-06
1.82141e-06
-2.31164e-06
1.77291e-06
-2.47511e-06
1.70766e-06
-2.63043e-06
1.61913e-06
-2.77577e-06
1.51665e-06
-2.90922e-06
1.40047e-06
-3.0287e-06
1.27188e-06
-3.13237e-06
1.12616e-06
-3.21838e-06
9.63229e-07
-3.28488e-06
7.82591e-07
-3.33011e-06
5.84986e-07
-3.35236e-06
3.70824e-07
-3.34998e-06
1.40529e-07
-3.32132e-06
-1.0547e-07
-3.26473e-06
-3.66573e-07
-3.17868e-06
-6.41986e-07
-3.06179e-06
-9.30452e-07
-2.9129e-06
-1.23036e-06
-2.73106e-06
-1.53949e-06
-2.51558e-06
-1.85567e-06
-2.26605e-06
-2.1758e-06
-1.98242e-06
-2.49758e-06
-1.66491e-06
-2.81657e-06
-1.31429e-06
-3.1311e-06
-9.31424e-07
-3.43437e-06
-5.18172e-07
-3.72673e-06
-7.58558e-08
-3.99781e-06
3.92346e-07
-4.25058e-06
8.84769e-07
-4.4721e-06
1.39712e-06
-4.67085e-06
1.92804e-06
-4.8208e-06
2.46999e-06
-4.96959e-06
3.02384e-06
-5.02337e-06
3.57715e-06
-5.12368e-06
4.13698e-06
-5.03793e-06
4.68056e-06
-5.12984e-06
5.23e-06
-4.82502e-06
5.74012e-06
-5.02395e-06
6.26732e-06
-4.33547e-06
6.71835e-06
-4.91431e-06
7.22728e-06
-3.54842e-06
7.60148e-06
-5.09212e-06
8.17348e-06
-3.22952e-06
-8.0283e-06
7.90467e-06
4.8296e-05
5.02274e-06
3.25887e-05
1.77263e-06
1.47531e-05
5.66661e-08
7.29439e-06
-4.21826e-07
9.89323e-07
-5.68544e-07
1.45641e-06
-6.18636e-07
7.33994e-07
-7.32877e-07
1.1623e-06
-8.35934e-07
1.3229e-06
-9.70204e-07
1.41888e-06
-1.10616e-06
1.59047e-06
-1.25622e-06
1.63666e-06
-1.41006e-06
1.79353e-06
-1.57237e-06
1.87882e-06
-1.73817e-06
1.97616e-06
-1.90665e-06
1.99583e-06
-2.07366e-06
1.98842e-06
-2.23705e-06
1.9363e-06
-2.39417e-06
1.86479e-06
-2.54334e-06
1.7683e-06
-2.68269e-06
1.656e-06
-2.81029e-06
1.52807e-06
-2.92409e-06
1.38568e-06
-3.02229e-06
1.22435e-06
-3.10304e-06
1.04398e-06
-3.16455e-06
8.441e-07
-3.20506e-06
6.25497e-07
-3.2229e-06
3.88662e-07
-3.21642e-06
1.34052e-07
-3.184e-06
-1.37895e-07
-3.12402e-06
-4.26556e-07
-3.03497e-06
-7.3103e-07
-2.91553e-06
-1.04989e-06
-2.76455e-06
-1.38135e-06
-2.58109e-06
-1.72294e-06
-2.36451e-06
-2.07226e-06
-2.11439e-06
-2.42592e-06
-1.83069e-06
-2.78128e-06
-1.51365e-06
-3.13361e-06
-1.16402e-06
-3.48073e-06
-7.82691e-07
-3.8157e-06
-3.71475e-07
-4.13795e-06
6.82931e-08
-4.43758e-06
5.3355e-07
-4.71583e-06
1.02254e-06
-4.96109e-06
1.53108e-06
-5.17939e-06
2.0577e-06
-5.34743e-06
2.59504e-06
-5.50692e-06
3.14385e-06
-5.57218e-06
3.6919e-06
-5.67173e-06
4.24616e-06
-5.59219e-06
4.78404e-06
-5.66772e-06
5.32774e-06
-5.36872e-06
5.83178e-06
-5.52799e-06
6.35369e-06
-4.85737e-06
6.79798e-06
-5.35861e-06
7.30281e-06
-4.05326e-06
7.66839e-06
-5.45769e-06
8.2313e-06
-3.79244e-06
-8.38217e-06
8.24124e-06
5.00547e-05
5.6361e-06
3.51938e-05
2.41004e-06
1.79792e-05
4.33705e-07
9.27073e-06
-3.53443e-07
1.77647e-06
-5.47326e-07
1.65029e-06
-5.99635e-07
7.86304e-07
-7.11623e-07
1.27428e-06
-8.0992e-07
1.42119e-06
-9.40282e-07
1.54925e-06
-1.07172e-06
1.72191e-06
-1.21715e-06
1.78209e-06
-1.3654e-06
1.94178e-06
-1.52136e-06
2.03479e-06
-1.68027e-06
2.13506e-06
-1.84174e-06
2.1573e-06
-2.00185e-06
2.14853e-06
-2.15855e-06
2.09299e-06
-2.30919e-06
2.01543e-06
-2.45206e-06
1.91118e-06
-2.58526e-06
1.7892e-06
-2.70687e-06
1.64967e-06
-2.81485e-06
1.49367e-06
-2.90743e-06
1.31693e-06
-2.98281e-06
1.11936e-06
-3.0392e-06
9.00494e-07
-3.07489e-06
6.61184e-07
-3.08822e-06
4.0199e-07
-3.07756e-06
1.234e-07
-3.04132e-06
-1.74143e-07
-2.9779e-06
-4.89974e-07
-2.88584e-06
-8.23085e-07
-2.76385e-06
-1.17189e-06
-2.6108e-06
-1.53439e-06
-2.42579e-06
-1.90795e-06
-2.20817e-06
-2.28987e-06
-1.95756e-06
-2.67653e-06
-1.67393e-06
-3.06491e-06
-1.3575e-06
-3.45003e-06
-1.00906e-06
-3.82917e-06
-6.29466e-07
-4.1953e-06
-2.20513e-07
-4.5469e-06
2.16454e-07
-4.87454e-06
6.78474e-07
-5.17785e-06
1.16371e-06
-5.44632e-06
1.66809e-06
-5.68378e-06
2.19005e-06
-5.86938e-06
2.72238e-06
-6.03925e-06
3.26573e-06
-6.11554e-06
3.80814e-06
-6.21414e-06
4.35639e-06
-6.14044e-06
4.88822e-06
-6.19955e-06
5.42567e-06
-5.90617e-06
5.92344e-06
-6.02576e-06
6.43936e-06
-5.37329e-06
6.87707e-06
-5.79631e-06
7.37665e-06
-4.55284e-06
7.73439e-06
-5.81543e-06
8.28645e-06
-4.34449e-06
-8.70363e-06
8.53309e-06
5.15216e-05
6.20808e-06
3.75188e-05
3.06973e-06
2.11175e-05
8.67058e-07
1.14734e-05
-2.22756e-07
2.86628e-06
-5.13448e-07
1.94099e-06
-5.75795e-07
8.48651e-07
-6.86534e-07
1.38502e-06
-7.80462e-07
1.51512e-06
-9.06957e-07
1.67574e-06
-1.03385e-06
1.8488e-06
-1.17459e-06
1.92284e-06
-1.31722e-06
2.08441e-06
-1.46682e-06
2.18439e-06
-1.61879e-06
2.28704e-06
-1.7732e-06
2.3117e-06
-1.92631e-06
2.30165e-06
-2.0762e-06
2.24288e-06
-2.22021e-06
2.15945e-06
-2.35664e-06
2.04761e-06
-2.48354e-06
1.9161e-06
-2.59899e-06
1.76513e-06
-2.70101e-06
1.59568e-06
-2.78783e-06
1.40376e-06
-2.85769e-06
1.18922e-06
-2.90884e-06
9.51644e-07
-2.93959e-06
6.91928e-07
-2.9483e-06
4.10703e-07
-2.93338e-06
1.08482e-07
-2.89324e-06
-2.14283e-07
-2.82634e-06
-5.56879e-07
-2.73125e-06
-9.18178e-07
-2.60669e-06
-1.29644e-06
-2.45159e-06
-1.6895e-06
-2.26506e-06
-2.09448e-06
-2.04647e-06
-2.50847e-06
-1.79545e-06
-2.92755e-06
-1.51199e-06
-3.34837e-06
-1.19633e-06
-3.76569e-06
-8.49231e-07
-4.17627e-06
-4.71562e-07
-4.57297e-06
-6.50853e-08
-4.95338e-06
3.68838e-07
-5.30847e-06
8.27339e-07
-5.63635e-06
1.30852e-06
-5.9275e-06
1.80841e-06
-6.18367e-06
2.32533e-06
-6.3863e-06
2.85229e-06
-6.56621e-06
3.3898e-06
-6.65305e-06
3.92619e-06
-6.75053e-06
4.46801e-06
-6.68227e-06
4.99343e-06
-6.72497e-06
5.52419e-06
-6.43693e-06
6.01543e-06
-6.51701e-06
6.52481e-06
-5.88267e-06
6.95592e-06
-6.22742e-06
7.44938e-06
-5.0463e-06
7.79967e-06
-6.16573e-06
8.33968e-06
-4.8845e-06
-8.99577e-06
8.78575e-06
5.27359e-05
6.73671e-06
3.95679e-05
3.73569e-06
2.41186e-05
1.36109e-06
1.3848e-05
-1.00526e-08
4.23743e-06
-4.58212e-07
2.38915e-06
-5.45591e-07
9.3603e-07
-6.57103e-07
1.49654e-06
-7.47286e-07
1.6053e-06
-8.70084e-07
1.79854e-06
-9.92455e-07
1.97117e-06
-1.12848e-06
2.05887e-06
-1.26549e-06
2.22142e-06
-1.40872e-06
2.32762e-06
-1.55374e-06
2.43205e-06
-1.70102e-06
2.45898e-06
-1.84703e-06
2.44767e-06
-1.98998e-06
2.38583e-06
-2.12724e-06
2.2967e-06
-2.25707e-06
2.17744e-06
-2.37751e-06
2.03654e-06
-2.48665e-06
1.87427e-06
-2.58254e-06
1.69158e-06
-2.66347e-06
1.48468e-06
-2.72767e-06
1.25343e-06
-2.77345e-06
9.97421e-07
-2.79913e-06
7.17609e-07
-2.80312e-06
4.14691e-07
-2.78384e-06
8.92029e-08
-2.73973e-06
-2.58393e-07
-2.66928e-06
-6.27327e-07
-2.57111e-06
-1.01635e-06
-2.44398e-06
-1.42357e-06
-2.28683e-06
-1.84665e-06
-2.0988e-06
-2.28251e-06
-1.87929e-06
-2.72798e-06
-1.62794e-06
-3.1789e-06
-1.34476e-06
-3.63156e-06
-1.02998e-06
-4.08047e-06
-6.84387e-07
-4.52186e-06
-3.08827e-07
-4.94853e-06
9.49667e-08
-5.35717e-06
5.2561e-07
-5.73911e-06
9.80318e-07
-6.09106e-06
1.45715e-06
-6.40433e-06
1.95222e-06
-6.67874e-06
2.46377e-06
-6.89785e-06
2.98499e-06
-7.08743e-06
3.51628e-06
-7.18434e-06
4.04627e-06
-7.28052e-06
4.58129e-06
-7.21728e-06
5.09995e-06
-7.24363e-06
5.62359e-06
-6.96058e-06
6.10802e-06
-7.00143e-06
6.61038e-06
-6.38503e-06
7.03477e-06
-6.65182e-06
7.52141e-06
-5.53293e-06
7.8644e-06
-6.50872e-06
8.39155e-06
-5.41166e-06
-9.26099e-06
9.00422e-06
5.37317e-05
7.22126e-06
4.13508e-05
4.39578e-06
2.6944e-05
1.90547e-06
1.63383e-05
2.35777e-07
5.90712e-06
-3.67778e-07
2.9927e-06
-5.06347e-07
1.0746e-06
-6.22479e-07
1.61267e-06
-7.09947e-07
1.69277e-06
-8.29393e-07
1.91798e-06
-9.47339e-07
2.08911e-06
-1.07868e-06
2.19021e-06
-1.21009e-06
2.35282e-06
-1.34697e-06
2.4645e-06
-1.48502e-06
2.57011e-06
-1.62512e-06
2.59907e-06
-1.76395e-06
2.5865e-06
-1.89985e-06
2.52172e-06
-2.0302e-06
2.42705e-06
-2.15328e-06
2.30051e-06
-2.2671e-06
2.15036e-06
-2.36979e-06
1.97696e-06
-2.45941e-06
1.7812e-06
-2.53428e-06
1.55955e-06
-2.59269e-06
1.31184e-06
-2.63296e-06
1.03769e-06
-2.65345e-06
7.38104e-07
-2.6526e-06
4.13842e-07
-2.62887e-06
6.54644e-08
-2.5807e-06
-3.06556e-07
-2.50665e-06
-7.01382e-07
-2.40536e-06
-1.11764e-06
-2.27562e-06
-1.55331e-06
-2.11642e-06
-2.00585e-06
-1.92692e-06
-2.47202e-06
-1.70653e-06
-2.94836e-06
-1.45492e-06
-3.4305e-06
-1.17211e-06
-3.91437e-06
-8.58352e-07
-4.39423e-06
-5.14406e-07
-4.86581e-06
-1.41131e-07
-5.3218e-06
2.59776e-07
-5.75808e-06
6.86907e-07
-6.16624e-06
1.13755e-06
-6.54171e-06
1.60974e-06
-6.87651e-06
2.09967e-06
-7.16867e-06
2.60551e-06
-7.4037e-06
3.12065e-06
-7.60257e-06
3.64536e-06
-7.70906e-06
4.16859e-06
-7.80374e-06
4.69641e-06
-7.7451e-06
5.20795e-06
-7.75517e-06
5.7241e-06
-7.47673e-06
6.2014e-06
-7.47873e-06
6.69629e-06
-6.87992e-06
7.1138e-06
-7.06932e-06
7.59303e-06
-6.01216e-06
7.9287e-06
-6.8444e-06
8.44243e-06
-5.92539e-06
-9.50128e-06
9.19303e-06
5.45386e-05
7.66201e-06
4.28819e-05
5.04047e-06
2.95656e-05
2.49124e-06
1.88875e-05
5.73814e-07
7.82455e-06
-2.29429e-07
3.79594e-06
-4.53683e-07
1.29885e-06
-5.81321e-07
1.74031e-06
-6.67786e-07
1.77924e-06
-7.84471e-07
2.03467e-06
-8.98197e-07
2.20284e-06
-1.02495e-06
2.31696e-06
-1.15082e-06
2.47869e-06
-1.28139e-06
2.59508e-06
-1.4125e-06
2.70121e-06
-1.54538e-06
2.73195e-06
-1.67695e-06
2.71807e-06
-1.80568e-06
2.65046e-06
-1.929e-06
2.55037e-06
-2.04518e-06
2.41669e-06
-2.15223e-06
2.25742e-06
-2.24831e-06
2.07303e-06
-2.33151e-06
1.8644e-06
-2.40019e-06
1.62823e-06
-2.45266e-06
1.36432e-06
-2.48729e-06
1.07232e-06
-2.50248e-06
7.5329e-07
-2.49668e-06
4.08045e-07
-2.46839e-06
3.71684e-08
-2.41609e-06
-3.58851e-07
-2.33837e-06
-7.79107e-07
-2.23391e-06
-1.2221e-06
-2.10154e-06
-1.68567e-06
-1.94028e-06
-2.16711e-06
-1.74932e-06
-2.66298e-06
-1.5281e-06
-3.16958e-06
-1.27631e-06
-3.6823e-06
-9.93963e-07
-4.19671e-06
-6.81331e-07
-4.70686e-06
-3.3918e-07
-5.20796e-06
3.16361e-08
-5.69262e-06
4.29454e-07
-6.15589e-06
8.52843e-07
-6.58963e-06
1.29917e-06
-6.98803e-06
1.76643e-06
-7.34378e-06
2.2509e-06
-7.65314e-06
2.75071e-06
-7.9035e-06
3.25941e-06
-8.11127e-06
3.77719e-06
-8.22684e-06
4.29328e-06
-8.31984e-06
4.81354e-06
-8.26535e-06
5.3176e-06
-8.25923e-06
5.82586e-06
-7.98499e-06
6.29572e-06
-7.94859e-06
6.78275e-06
-7.36695e-06
7.19314e-06
-7.47971e-06
7.66446e-06
-6.48347e-06
7.99269e-06
-7.17263e-06
8.4926e-06
-6.4253e-06
-9.71825e-06
9.35623e-06
5.51824e-05
8.06007e-06
4.4178e-05
5.66214e-06
3.19635e-05
3.10804e-06
2.14416e-05
9.91843e-07
9.94075e-06
-4.04437e-08
4.82823e-06
-3.81181e-07
1.63959e-06
-5.31559e-07
1.89068e-06
-6.19866e-07
1.86754e-06
-7.34735e-07
2.14954e-06
-8.44611e-07
2.31272e-06
-9.66958e-07
2.43931e-06
-1.0874e-06
2.59913e-06
-1.21176e-06
2.71944e-06
-1.33596e-06
2.82541e-06
-1.46161e-06
2.85761e-06
-1.58585e-06
2.84232e-06
-1.70732e-06
2.77193e-06
-1.82348e-06
2.66653e-06
-1.93263e-06
2.52584e-06
-2.03278e-06
2.35757e-06
-2.1221e-06
2.16235e-06
-2.19874e-06
1.94104e-06
-2.26108e-06
1.69057e-06
-2.30749e-06
1.41072e-06
-2.33635e-06
1.10119e-06
-2.34611e-06
7.63047e-07
-2.33526e-06
3.97192e-07
-2.30231e-06
4.21926e-09
-2.2458e-06
-4.15361e-07
-2.16434e-06
-8.60566e-07
-2.05667e-06
-1.32977e-06
-1.92165e-06
-1.82069e-06
-1.75833e-06
-2.33043e-06
-1.56593e-06
-2.85538e-06
-1.34391e-06
-3.3916e-06
-1.09199e-06
-3.93422e-06
-8.10208e-07
-4.4785e-06
-4.98826e-07
-5.01824e-06
-1.58613e-07
-5.54817e-06
2.09572e-07
-6.0608e-06
6.04098e-07
-6.55042e-06
1.02352e-06
-7.00905e-06
1.46525e-06
-7.42977e-06
1.92731e-06
-7.80583e-06
2.40601e-06
-8.13184e-06
2.89946e-06
-8.39694e-06
3.40138e-06
-8.61319e-06
3.91187e-06
-8.73734e-06
4.42048e-06
-8.82844e-06
4.9328e-06
-8.77767e-06
5.42902e-06
-8.75545e-06
5.92903e-06
-8.485e-06
6.39112e-06
-8.41068e-06
6.8699e-06
-7.84573e-06
7.27291e-06
-7.88273e-06
7.73586e-06
-6.94642e-06
8.05648e-06
-7.49324e-06
8.54228e-06
-6.9111e-06
-9.91328e-06
9.49746e-06
5.56849e-05
8.41723e-06
4.52582e-05
6.2548e-06
3.41259e-05
3.74512e-06
2.39513e-05
1.48065e-06
1.22052e-05
2.30047e-07
6.07884e-06
-2.80514e-07
2.15015e-06
-4.70033e-07
2.0802e-06
-5.64871e-07
1.96238e-06
-6.79396e-07
2.26406e-06
-7.86024e-07
2.41934e-06
-9.04277e-07
2.55756e-06
-1.01949e-06
2.71435e-06
-1.13777e-06
2.83772e-06
-1.25513e-06
2.94277e-06
-1.37358e-06
2.97605e-06
-1.49046e-06
2.95919e-06
-1.60458e-06
2.88605e-06
-1.71348e-06
2.77543e-06
-1.81547e-06
2.62783e-06
-1.90858e-06
2.45068e-06
-1.99101e-06
2.24478e-06
-2.06095e-06
2.01098e-06
-2.11683e-06
1.74644e-06
-2.15704e-06
1.45093e-06
-2.18001e-06
1.12416e-06
-2.18423e-06
7.67262e-07
-2.16821e-06
3.81179e-07
-2.13052e-06
-3.34747e-08
-2.06972e-06
-4.76163e-07
-1.98446e-06
-9.45819e-07
-1.87354e-06
-1.4407e-06
-1.73584e-06
-1.95838e-06
-1.57046e-06
-2.49582e-06
-1.37663e-06
-3.0492e-06
-1.15387e-06
-3.61436e-06
-9.01894e-07
-4.18619e-06
-6.2076e-07
-4.75963e-06
-3.10746e-07
-5.32826e-06
2.73828e-08
-5.8863e-06
3.92764e-07
-6.42619e-06
7.83795e-07
-6.94145e-06
1.19901e-06
-7.42426e-06
1.63591e-06
-7.86667e-06
2.09246e-06
-8.26239e-06
2.5651e-06
-8.60448e-06
3.05185e-06
-8.8837e-06
3.54666e-06
-9.10799e-06
4.04952e-06
-9.2402e-06
4.55027e-06
-9.32919e-06
5.0543e-06
-9.2817e-06
5.54231e-06
-9.24346e-06
6.03371e-06
-8.9764e-06
6.48768e-06
-8.86465e-06
6.95785e-06
-8.3159e-06
7.3532e-06
-8.27809e-06
7.80738e-06
-7.4006e-06
8.12014e-06
-7.806e-06
8.59163e-06
-7.3826e-06
-1.00876e-05
9.61998e-06
5.6065e-05
8.73577e-06
4.61425e-05
6.81385e-06
3.60479e-05
4.39199e-06
2.63732e-05
2.02761e-06
1.45696e-05
5.61809e-07
7.54464e-06
-1.37416e-07
2.84938e-06
-3.91995e-07
2.33478e-06
-5.00955e-07
2.07134e-06
-6.17387e-07
2.3805e-06
-7.21714e-07
2.52367e-06
-8.36355e-07
2.67221e-06
-9.46625e-07
2.82462e-06
-1.05904e-06
2.95013e-06
-1.16969e-06
3.05343e-06
-1.28098e-06
3.08734e-06
-1.39049e-06
3.0687e-06
-1.49721e-06
2.99278e-06
-1.59876e-06
2.87697e-06
-1.69349e-06
2.72256e-06
-1.77944e-06
2.53663e-06
-1.85486e-06
2.32021e-06
-1.91798e-06
2.0741e-06
-1.96727e-06
1.79572e-06
-2.00115e-06
1.48482e-06
-2.01813e-06
1.14113e-06
-2.01669e-06
7.65829e-07
-1.99542e-06
3.5991e-07
-1.9529e-06
-7.59986e-08
-1.88774e-06
-5.41326e-07
-1.79863e-06
-1.03492e-06
-1.68441e-06
-1.55492e-06
-1.54402e-06
-2.09877e-06
-1.37657e-06
-2.66327e-06
-1.18135e-06
-3.24442e-06
-9.57886e-07
-3.83782e-06
-7.05922e-07
-4.43816e-06
-4.25533e-07
-5.04002e-06
-1.17009e-07
-5.63678e-06
2.18889e-07
-6.2222e-06
5.81291e-07
-6.78859e-06
9.68621e-07
-7.32878e-06
1.37941e-06
-7.83505e-06
1.8112e-06
-8.29846e-06
2.26198e-06
-8.71317e-06
2.72823e-06
-9.07072e-06
3.20798e-06
-9.36345e-06
3.69533e-06
-9.59534e-06
4.19021e-06
-9.73507e-06
4.68274e-06
-9.82173e-06
5.17812e-06
-9.77708e-06
5.65756e-06
-9.72291e-06
6.13999e-06
-9.45883e-06
6.5855e-06
-9.31016e-06
7.04669e-06
-8.77708e-06
7.43409e-06
-8.66549e-06
7.87911e-06
-7.84562e-06
8.18375e-06
-8.11064e-06
8.6408e-06
-7.83964e-06
-1.02421e-05
9.72667e-06
5.63383e-05
9.01837e-06
4.68508e-05
7.33597e-06
3.77302e-05
5.03882e-06
2.86703e-05
2.62076e-06
1.69876e-05
9.57289e-07
9.20811e-06
5.8065e-08
3.7486e-06
-2.90703e-07
2.68355e-06
-4.25539e-07
2.20618e-06
-5.47285e-07
2.50224e-06
-6.50752e-07
2.62714e-06
-7.62493e-07
2.78395e-06
-8.68251e-07
2.93037e-06
-9.75086e-07
3.05697e-06
-1.07923e-06
3.15757e-06
-1.18347e-06
3.19158e-06
-1.28563e-06
3.17086e-06
-1.38493e-06
3.09208e-06
-1.47906e-06
2.9711e-06
-1.56644e-06
2.80994e-06
-1.64514e-06
2.61533e-06
-1.71345e-06
2.38851e-06
-1.76963e-06
2.13029e-06
-1.81221e-06
1.8383e-06
-1.83967e-06
1.51228e-06
-1.85054e-06
1.152e-06
-1.84336e-06
7.5865e-07
-1.81674e-06
3.33296e-07
-1.76931e-06
-1.23429e-07
-1.69972e-06
-6.10916e-07
-1.60672e-06
-1.12792e-06
-1.48918e-06
-1.67247e-06
-1.34608e-06
-2.24187e-06
-1.17657e-06
-2.83278e-06
-9.79981e-07
-3.44101e-06
-7.55864e-07
-4.06194e-06
-5.03987e-07
-4.69004e-06
-2.24444e-07
-5.31956e-06
8.24653e-08
-5.94369e-06
4.15981e-07
-6.55571e-06
7.75225e-07
-7.14783e-06
1.15865e-06
-7.7122e-06
1.56477e-06
-8.24117e-06
1.9912e-06
-8.72489e-06
2.43592e-06
-9.1579e-06
2.89548e-06
-9.53029e-06
3.36791e-06
-9.83588e-06
3.84746e-06
-1.00749e-05
4.33401e-06
-1.02216e-05
4.81797e-06
-1.03057e-05
5.30433e-06
-1.02634e-05
5.77485e-06
-1.01934e-05
6.24794e-06
-9.93192e-06
6.68464e-06
-9.74686e-06
7.1365e-06
-9.22894e-06
7.51563e-06
-9.04462e-06
7.95114e-06
-8.28113e-06
8.24739e-06
-8.40689e-06
8.68988e-06
-8.28213e-06
-1.03778e-05
9.82005e-06
5.65182e-05
9.26795e-06
4.74028e-05
7.81905e-06
3.91792e-05
5.67662e-06
3.08128e-05
3.24917e-06
1.94151e-05
1.415e-06
1.10423e-05
3.04763e-07
4.85884e-06
-1.57631e-07
3.14594e-06
-3.35054e-07
2.3836e-06
-4.6719e-07
2.63438e-06
-5.71943e-07
2.73189e-06
-6.8182e-07
2.89382e-06
-7.8368e-07
3.03223e-06
-8.85349e-07
3.15864e-06
-9.83255e-07
3.25548e-06
-1.08061e-06
3.28893e-06
-1.1755e-06
3.26575e-06
-1.2674e-06
3.18398e-06
-1.35408e-06
3.05779e-06
-1.43405e-06
2.8899e-06
-1.50541e-06
2.6867e-06
-1.56652e-06
2.44962e-06
-1.61568e-06
2.17945e-06
-1.65146e-06
1.87408e-06
-1.6724e-06
1.53322e-06
-1.67706e-06
1.15666e-06
-1.66405e-06
7.45639e-07
-1.63201e-06
3.01261e-07
-1.57961e-06
-1.75834e-07
-1.50554e-06
-6.84985e-07
-1.4086e-06
-1.22486e-06
-1.28771e-06
-1.79336e-06
-1.14189e-06
-2.38769e-06
-9.70346e-07
-3.00433e-06
-7.72423e-07
-3.63893e-06
-5.47711e-07
-4.28665e-06
-2.96003e-07
-4.94174e-06
-1.74102e-08
-5.59815e-06
2.87755e-07