/*--------------------------------*- C++ -*----------------------------------*\
| =========                 |                                                 |
| \\      /  F ield         | OpenFOAM: The Open Source CFD Toolbox           |
|  \\    /   O peration     | Version:  2.4.0                                 |
|   \\  /    A nd           | Web:      www.OpenFOAM.org                      |
|    \\/     M anipulation  |                                                 |
\*---------------------------------------------------------------------------*/
FoamFile
{
    version     2.0;
    format      ascii;
    class       volVectorField;
    location    "0.36";
    object      U;
}
// * * * * * * * * * * * * * * * * * * * * * * * * * * * * * * * * * * * * * //

dimensions      [0 1 -1 0 0 0 0];

internalField   nonuniform List<vector> 
2320
(
(0.853744 -1.50293e-05 0)
(0.853163 -4.99883e-05 0)
(0.850418 -9.04205e-05 0)
(0.849979 -0.000138524 0)
(0.851193 -0.000199986 0)
(0.852595 -0.000281718 0)
(0.853923 -0.000391324 0)
(0.855615 -0.000538599 0)
(0.858064 -0.000737125 0)
(0.861496 -0.00100531 0)
(0.866168 -0.00136748 0)
(0.87249 -0.00185554 0)
(0.881051 -0.0025113 0)
(0.89263 -0.00338909 0)
(0.908242 -0.00455833 0)
(0.929209 -0.00610515 0)
(0.957234 -0.00813233 0)
(0.99446 -0.0107541 0)
(1.0435 -0.0140852 0)
(1.10739 -0.0182169 0)
(0.853743 -4.62027e-05 0)
(0.853157 -0.000149092 0)
(0.850406 -0.000267784 0)
(0.849958 -0.000411102 0)
(0.851155 -0.00059485 0)
(0.852533 -0.000838441 0)
(0.853828 -0.00116455 0)
(0.855476 -0.00160278 0)
(0.857864 -0.00219376 0)
(0.861215 -0.00299227 0)
(0.865776 -0.00407074 0)
(0.871951 -0.00552433 0)
(0.880315 -0.00747796 0)
(0.891635 -0.0100941 0)
(0.906908 -0.0135807 0)
(0.927442 -0.0181965 0)
(0.954924 -0.0242513 0)
(0.991492 -0.0320912 0)
(1.03977 -0.042067 0)
(1.10283 -0.0544603 0)
(0.853742 -7.74686e-05 0)
(0.853149 -0.0002445 0)
(0.850386 -0.000437125 0)
(0.849917 -0.00067267 0)
(0.851082 -0.000975234 0)
(0.852414 -0.00137506 0)
(0.853646 -0.00190958 0)
(0.855208 -0.00262816 0)
(0.857478 -0.00359774 0)
(0.860668 -0.00490822 0)
(0.865014 -0.00667863 0)
(0.870899 -0.00906583 0)
(0.878879 -0.0122761 0)
(0.88969 -0.0165783 0)
(0.9043 -0.0223181 0)
(0.923981 -0.0299271 0)
(0.950393 -0.0399271 0)
(0.985656 -0.0529047 0)
(1.03242 -0.0694678 0)
(1.09384 -0.0901099 0)
(0.853741 -0.000106415 0)
(0.853139 -0.000333613 0)
(0.850357 -0.000595841 0)
(0.849856 -0.000918131 0)
(0.850974 -0.00133222 0)
(0.85224 -0.00187852 0)
(0.853379 -0.00260856 0)
(0.854813 -0.00359043 0)
(0.85691 -0.00491598 0)
(0.859864 -0.0067083 0)
(0.863892 -0.00913072 0)
(0.86935 -0.012399 0)
(0.87676 -0.0167978 0)
(0.886818 -0.0226993 0)
(0.900444 -0.0305845 0)
(0.918854 -0.0410577 0)
(0.94366 -0.0548595 0)
(0.976956 -0.0728316 0)
(1.02142 -0.0958732 0)
(1.08031 -0.12473 0)
(0.85374 -0.000132549 0)
(0.853126 -0.000414698 0)
(0.850319 -0.000740285 0)
(0.849778 -0.00114125 0)
(0.850836 -0.00165665 0)
(0.852014 -0.00233626 0)
(0.853033 -0.00324434 0)
(0.854302 -0.00446619 0)
(0.856173 -0.00611655 0)
(0.858821 -0.00834918 0)
(0.862434 -0.0113685 0)
(0.867336 -0.0154453 0)
(0.874003 -0.020938 0)
(0.883075 -0.0283172 0)
(0.895406 -0.0381957 0)
(0.912137 -0.0513487 0)
(0.934809 -0.0687451 0)
(0.96547 -0.0914976 0)
(1.0068 -0.120848 0)
(1.06225 -0.157874 0)
(0.853738 -0.000155363 0)
(0.853111 -0.000485675 0)
(0.850274 -0.000866681 0)
(0.849684 -0.00133641 0)
(0.850668 -0.00194059 0)
(0.851743 -0.00273715 0)
(0.852616 -0.00380152 0)
(0.853685 -0.00523419 0)
(0.855283 -0.00717037 0)
(0.857561 -0.00979123 0)
(0.860673 -0.0133382 0)
(0.8649 -0.0181319 0)
(0.870664 -0.0245987 0)
(0.878534 -0.0333004 0)
(0.889279 -0.0449764 0)
(0.90394 -0.0605665 0)
(0.923957 -0.0812826 0)
(0.951303 -0.10851 0)
(0.988612 -0.143944 0)
(1.03972 -0.189035 0)
(0.853736 -0.000174337 0)
(0.853093 -0.00054475 0)
(0.850223 -0.000971885 0)
(0.849576 -0.00149889 0)
(0.850476 -0.00217714 0)
(0.851431 -0.00307137 0)
(0.852138 -0.00426635 0)
(0.852978 -0.00587549 0)
(0.854263 -0.00805148 0)
(0.856114 -0.010999 0)
(0.858648 -0.0149915 0)
(0.862096 -0.0203931 0)
(0.866815 -0.0276906 0)
(0.873288 -0.0375274 0)
(0.882182 -0.0507614 0)
(0.894402 -0.068486 0)
(0.911271 -0.0921708 0)
(0.93458 -0.123458 0)
(0.967021 -0.164706 0)
(1.01259 -0.217489 0)
(0.853734 -0.00018902 0)
(0.853074 -0.000590459 0)
(0.850166 -0.00105329 0)
(0.849457 -0.00162468 0)
(0.850265 -0.00236043 0)
(0.851088 -0.00333059 0)
(0.851611 -0.00462726 0)
(0.852197 -0.00637412 0)
(0.853135 -0.0087379 0)
(0.854513 -0.0119423 0)
(0.856406 -0.016287 0)
(0.858987 -0.022172 0)
(0.862539 -0.0301353 0)
(0.867446 -0.0408901 0)
(0.874255 -0.0554001 0)
(0.883697 -0.074897 0)
(0.89696 -0.101107 0)
(0.915478 -0.135934 0)
(0.942321 -0.182573 0)
(0.980317 -0.242375 0)
(0.853732 -0.000199055 0)
(0.853054 -0.00062167 0)
(0.850106 -0.00110886 0)
(0.84933 -0.00171063 0)
(0.850038 -0.00248587 0)
(0.85072 -0.0035083 0)
(0.851046 -0.00487514 0)
(0.851361 -0.00671743 0)
(0.851926 -0.00921211 0)
(0.852796 -0.0125968 0)
(0.853999 -0.0171909 0)
(0.855644 -0.0234218 0)
(0.857932 -0.0318678 0)
(0.861137 -0.0432964 0)
(0.865665 -0.0587621 0)
(0.872045 -0.0796081 0)
(0.881263 -0.107802 0)
(0.894333 -0.145546 0)
(0.914649 -0.196761 0)
(0.942646 -0.263239 0)
(0.85373 -0.000204196 0)
(0.853032 -0.000637599 0)
(0.850043 -0.00113718 0)
(0.849198 -0.00175457 0)
(0.849803 -0.00255029 0)
(0.850338 -0.00359995 0)
(0.850458 -0.00500358 0)
(0.850489 -0.00689644 0)
(0.850665 -0.00946151 0)
(0.851004 -0.0129449 0)
(0.851483 -0.0176784 0)
(0.852144 -0.0241072 0)
(0.853101 -0.0328386 0)
(0.854503 -0.0446738 0)
(0.856603 -0.0607455 0)
(0.859707 -0.0824462 0)
(0.864464 -0.112019 0)
(0.871692 -0.15183 0)
(0.883744 -0.206485 0)
(0.901253 -0.280069 0)
(0.853727 -0.000204311 0)
(0.853011 -0.000637839 0)
(0.849979 -0.00113753 0)
(0.849063 -0.00175534 0)
(0.849564 -0.00255198 0)
(0.849949 -0.00360309 0)
(0.849861 -0.00500906 0)
(0.849604 -0.00690609 0)
(0.849383 -0.00947884 0)
(0.849179 -0.012976 0)
(0.848918 -0.0177344 0)
(0.84857 -0.0242059 0)
(0.848157 -0.0330156 0)
(0.847698 -0.044972 0)
(0.847284 -0.0612839 0)
(0.846965 -0.0832643 0)
(0.846959 -0.113626 0)
(0.848136 -0.154104 0)
(0.849423 -0.211521 0)
(0.85959 -0.291469 0)
(0.853725 -0.000199395 0)
(0.85299 -0.000622366 0)
(0.849916 -0.00110985 0)
(0.848931 -0.00171286 0)
(0.849327 -0.00249078 0)
(0.849565 -0.00351742 0)
(0.84927 -0.00489104 0)
(0.848726 -0.00674544 0)
(0.848112 -0.00926243 0)
(0.847367 -0.0126871 0)
(0.846366 -0.0173536 0)
(0.845007 -0.023709 0)
(0.843223 -0.0323851 0)
(0.840881 -0.0441669 0)
(0.837951 -0.0603509 0)
(0.834102 -0.0819674 0)
(0.829356 -0.112604 0)
(0.823996 -0.151508 0)
(0.812861 -0.212414 0)
(0.819378 -0.291739 0)
(0.853723 -0.000189564 0)
(0.85297 -0.000591546 0)
(0.849855 -0.00105479 0)
(0.848802 -0.0016281 0)
(0.849098 -0.00236807 0)
(0.849194 -0.00334482 0)
(0.848699 -0.00465204 0)
(0.847878 -0.00641776 0)
(0.846882 -0.00881636 0)
(0.845612 -0.0120832 0)
(0.843892 -0.0165414 0)
(0.841544 -0.0226221 0)
(0.838418 -0.0309519 0)
(0.834211 -0.0422633 0)
(0.82886 -0.0579578 0)
(0.82138 -0.0785555 0)
(0.81251 -0.10905 0)
(0.799266 -0.143384 0)
(0.778011 -0.210031 0)
(0.776926 -0.270528 0)
(0.853721 -0.000175062 0)
(0.852951 -0.000546124 0)
(0.849799 -0.000973654 0)
(0.848682 -0.00150309 0)
(0.848884 -0.00218679 0)
(0.848845 -0.00308938 0)
(0.848163 -0.00429762 0)
(0.847081 -0.0059305 0)
(0.845724 -0.00815047 0)
(0.843958 -0.011177 0)
(0.841556 -0.015314 0)
(0.838265 -0.020965 0)
(0.833865 -0.0287387 0)
(0.827844 -0.0392939 0)
(0.82026 -0.0541445 0)
(0.809031 -0.0731517 0)
(0.79741 -0.103179 0)
(0.773778 -0.129921 0)
(0.752261 -0.205579 0)
(0.72476 -0.218231 0)
(0.853719 -0.000156248 0)
(0.852934 -0.000487211 0)
(0.849747 -0.00086842 0)
(0.848572 -0.00134086 0)
(0.848689 -0.00195131 0)
(0.848528 -0.00275726 0)
(0.847675 -0.00383626 0)
(0.846355 -0.0052952 0)
(0.844669 -0.00728027 0)
(0.842448 -0.00998915 0)
(0.839421 -0.0136978 0)
(0.835257 -0.0187722 0)
(0.82968 -0.0257849 0)
(0.821932 -0.0353161 0)
(0.81236 -0.0489601 0)
(0.797244 -0.0659833 0)
(0.784828 -0.0952508 0)
(0.747283 -0.112672 0)
(0.744681 -0.20166 0)
(0.658096 -0.133599 0)
(0.853718 -0.000133603 0)
(0.852919 -0.000416251 0)
(0.849702 -0.000741659 0)
(0.848477 -0.00114539 0)
(0.848518 -0.00166739 0)
(0.84825 -0.0023565 0)
(0.847247 -0.00327913 0)
(0.845718 -0.00452722 0)
(0.843743 -0.00622662 0)
(0.841121 -0.0085478 0)
(0.837542 -0.0117301 0)
(0.8326 -0.0160928 0)
(0.825972 -0.0221474 0)
(0.816632 -0.0304074 0)
(0.805306 -0.0424436 0)
(0.78622 -0.0573041 0)
(0.774769 -0.0852904 0)
(0.719475 -0.0945809 0)
(0.760436 -0.201787 0)
(0.577008 -0.0248663 0)
(0.853717 -0.000107725 0)
(0.852907 -0.000334947 0)
(0.849664 -0.000596475 0)
(0.848397 -0.000921595 0)
(0.848375 -0.00134215 0)
(0.848019 -0.00189705 0)
(0.846891 -0.00263996 0)
(0.845188 -0.00364543 0)
(0.842971 -0.00501536 0)
(0.840014 -0.00688815 0)
(0.835969 -0.00945836 0)
(0.830371 -0.01299 0)
(0.822842 -0.0179043 0)
(0.812114 -0.0246638 0)
(0.799185 -0.0346327 0)
(0.776316 -0.0472589 0)
(0.765909 -0.0727549 0)
(0.690967 -0.0789452 0)
(0.792464 -0.206326 0)
(0.481347 0.0616886 0)
(0.853716 -7.93991e-05 0)
(0.852898 -0.000245192 0)
(0.849636 -0.000436162 0)
(0.848335 -0.000674802 0)
(0.848265 -0.000983577 0)
(0.847841 -0.00139034 0)
(0.846616 -0.00193468 0)
(0.844777 -0.00267181 0)
(0.842373 -0.00367672 0)
(0.839155 -0.00505161 0)
(0.834748 -0.00693937 0)
(0.828638 -0.00954042 0)
(0.820384 -0.0131592 0)
(0.808563 -0.0182046 0)
(0.79409 -0.0256264 0)
(0.768186 -0.0357628 0)
(0.755801 -0.056614 0)
(0.66556 -0.0663096 0)
(0.808555 -0.211526 0)
(0.345026 0.188402 0)
(0.853716 -4.96179e-05 0)
(0.852892 -0.000149796 0)
(0.849617 -0.000265062 0)
(0.848293 -0.000410977 0)
(0.84819 -0.000600176 0)
(0.847719 -0.000848672 0)
(0.846429 -0.00118078 0)
(0.844498 -0.00163071 0)
(0.841965 -0.00224441 0)
(0.83857 -0.00308474 0)
(0.833913 -0.00423813 0)
(0.827454 -0.00583301 0)
(0.818681 -0.00804125 0)
(0.806143 -0.0111872 0)
(0.790245 -0.0156626 0)
(0.762612 -0.022682 0)
(0.743235 -0.0355979 0)
(0.647558 -0.0539761 0)
(0.771757 -0.17825 0)
(0.201208 0.0871347 0)
(0.853716 -1.72458e-05 0)
(0.852891 -5.05644e-05 0)
(0.849608 -8.87362e-05 0)
(0.848272 -0.000137804 0)
(0.848152 -0.000201661 0)
(0.847657 -0.0002853 0)
(0.846333 -0.000396903 0)
(0.844354 -0.000548133 0)
(0.841755 -0.000754486 0)
(0.838268 -0.0010372 0)
(0.833481 -0.00142507 0)
(0.826848 -0.00196265 0)
(0.817784 -0.00270444 0)
(0.804953 -0.00377325 0)
(0.787957 -0.00527353 0)
(0.760479 -0.00770881 0)
(0.730192 -0.0126443 0)
(0.642138 -0.0194436 0)
(0.631898 -0.100416 0)
(-0.0821409 0.337699 0)
(1.18944 -0.023181 0)
(1.29294 -0.0289152 0)
(1.42069 -0.035224 0)
(1.57451 -0.0418262 0)
(1.755 -0.048442 0)
(1.96165 -0.0547971 0)
(2.19293 -0.0605964 0)
(2.4463 -0.0655847 0)
(1.18408 -0.0693744 0)
(1.2869 -0.0866293 0)
(1.41421 -0.105628 0)
(1.56784 -0.125486 0)
(1.74837 -0.145343 0)
(1.95557 -0.164477 0)
(2.18813 -0.182144 0)
(2.44298 -0.197541 0)
(1.17346 -0.115036 0)
(1.27495 -0.143973 0)
(1.40135 -0.175816 0)
(1.55454 -0.209041 0)
(1.7358 -0.242504 0)
(1.9449 -0.275156 0)
(2.17846 -0.305125 0)
(2.43082 -0.330165 0)
(1.15747 -0.159782 0)
(1.25685 -0.200624 0)
(1.38169 -0.245549 0)
(1.53518 -0.292837 0)
(1.71826 -0.340914 0)
(1.92611 -0.386618 0)
(2.15206 -0.425832 0)
(2.39583 -0.456903 0)
(1.13601 -0.203168 0)
(1.23212 -0.256195 0)
(1.35586 -0.315154 0)
(1.5108 -0.377633 0)
(1.69013 -0.438532 0)
(1.88532 -0.492348 0)
(2.10505 -0.539077 0)
(2.37273 -0.584161 0)
(1.1086 -0.244577 0)
(1.20096 -0.310786 0)
(1.32531 -0.385268 0)
(1.47552 -0.460358 0)
(1.63773 -0.527998 0)
(1.8303 -0.592703 0)
(2.10062 -0.66712 0)
(2.4746 -0.754342 0)
(1.07478 -0.283639 0)
(1.16514 -0.365072 0)
(1.28601 -0.45296 0)
(1.41575 -0.533526 0)
(1.57348 -0.614183 0)
(1.8367 -0.72169 0)
(2.2483 -0.859856 0)
(2.76509 -0.999532 0)
(1.03567 -0.320756 0)
(1.1241 -0.417393 0)
(1.22473 -0.510721 0)
(1.33921 -0.602217 0)
(1.57151 -0.73611 0)
(2.00085 -0.929748 0)
(2.56748 -1.13298 0)
(3.14786 -1.2864 0)
(0.993522 -0.355635 0)
(1.06813 -0.46127 0)
(1.13794 -0.559425 0)
(1.30794 -0.70383 0)
(1.71951 -0.944497 0)
(2.32087 -1.22256 0)
(2.94252 -1.43813 0)
(3.45561 -1.54568 0)
(0.946302 -0.384096 0)
(0.98381 -0.491905 0)
(1.06468 -0.627272 0)
(1.40726 -0.891457 0)
(2.01749 -1.24539 0)
(2.68493 -1.54681 0)
(3.22619 -1.70506 0)
(3.57897 -1.72666 0)
(0.882869 -0.398798 0)
(0.878565 -0.521234 0)
(1.08416 -0.766874 0)
(1.65744 -1.18258 0)
(2.36982 -1.58843 0)
(2.96368 -1.83242 0)
(3.33216 -1.88637 0)
(3.50855 -1.82001 0)
(0.789302 -0.397813 0)
(0.803699 -0.58886 0)
(1.24844 -1.01597 0)
(1.9893 -1.53883 0)
(2.66071 -1.90379 0)
(3.07989 -2.03104 0)
(3.25755 -1.97425 0)
(3.31164 -1.85368 0)
(0.667375 -0.396201 0)
(0.833666 -0.750403 0)
(1.52929 -1.36209 0)
(2.30063 -1.8935 0)
(2.81224 -2.13726 0)
(3.02516 -2.13102 0)
(3.06207 -1.99599 0)
(3.0821 -1.87383 0)
(0.553591 -0.431281 0)
(0.998107 -1.03484 0)
(1.84754 -1.75197 0)
(2.50878 -2.18444 0)
(2.80214 -2.26652 0)
(2.84536 -2.15445 0)
(2.8284 -1.99573 0)
(2.88909 -1.92069 0)
(0.514198 -0.550498 0)
(1.25947 -1.4157 0)
(2.12099 -2.11867 0)
(2.57207 -2.37326 0)
(2.65815 -2.30265 0)
(2.61157 -2.14214 0)
(2.62105 -2.01007 0)
(2.74758 -2.00981 0)
(0.591916 -0.782668 0)
(1.55355 -1.83322 0)
(2.2887 -2.40452 0)
(2.49172 -2.45279 0)
(2.44009 -2.28138 0)
(2.38694 -2.13382 0)
(2.46269 -2.05173 0)
(2.62483 -2.12641 0)
(0.773576 -1.13207 0)
(1.81679 -2.22759 0)
(2.31762 -2.57702 0)
(2.30565 -2.44644 0)
(2.21377 -2.24738 0)
(2.20248 -2.15322 0)
(2.34049 -2.11359 0)
(2.4749 -2.24078 0)
(1.0205 -1.59273 0)
(1.99407 -2.55699 0)
(2.20602 -2.63651 0)
(2.07641 -2.39882 0)
(2.02304 -2.23471 0)
(2.05362 -2.20156 0)
(2.22751 -2.18215 0)
(2.27024 -2.34648 0)
(1.2824 -2.16666 0)
(2.04338 -2.78291 0)
(1.99178 -2.61163 0)
(1.87057 -2.35533 0)
(1.87485 -2.25036 0)
(1.91767 -2.25601 0)
(2.08931 -2.23414 0)
(1.99152 -2.46601 0)
(1.50473 -2.76702 0)
(1.95498 -2.85534 0)
(1.75061 -2.55123 0)
(1.7286 -2.33784 0)
(1.74962 -2.2739 0)
(1.77955 -2.27969 0)
(1.88478 -2.22811 0)
(1.59829 -2.53543 0)
(2.71816 -0.0696103 0)
(3.00418 -0.072613 0)
(3.29973 -0.0745967 0)
(3.60034 -0.0755761 0)
(3.9017 -0.0754744 0)
(4.19927 -0.0740546 0)
(4.48752 -0.0709562 0)
(4.75946 -0.0658166 0)
(5.00666 -0.0584052 0)
(5.21995 -0.0487194 0)
(5.39045 -0.037015 0)
(5.51073 -0.0237893 0)
(5.57574 -0.0096767 0)
(5.58332 0.00462795 0)
(5.53451 0.0182766 0)
(5.43383 0.0304011 0)
(5.28889 0.0403102 0)
(5.1096 0.0475725 0)
(4.90712 0.0520065 0)
(4.69289 0.0536495 0)
(4.47779 0.0527114 0)
(4.27162 0.0495092 0)
(4.08285 0.0443563 0)
(3.91864 0.0375577 0)
(3.78648 0.0284857 0)
(3.69431 0.0185662 0)
(3.66431 -0.00974874 0)
(3.71853 -0.0156901 0)
(2.71542 -0.209945 0)
(3.00019 -0.218879 0)
(3.29267 -0.224267 0)
(3.58927 -0.226298 0)
(3.88709 -0.225001 0)
(4.18287 -0.219889 0)
(4.47184 -0.209999 0)
(4.747 -0.19424 0)
(4.99926 -0.171836 0)
(5.21835 -0.142683 0)
(5.39421 -0.107497 0)
(5.5184 -0.0677866 0)
(5.5852 -0.0256635 0)
(5.59238 0.016674 0)
(5.54141 0.056898 0)
(5.43714 0.0925257 0)
(5.28761 0.121589 0)
(5.1032 0.142837 0)
(4.89553 0.155726 0)
(4.67642 0.160351 0)
(4.45703 0.15733 0)
(4.24731 0.147593 0)
(4.05564 0.132145 0)
(3.88914 0.111603 0)
(3.75372 0.0857925 0)
(3.65786 0.0514476 0)
(3.60449 -0.00209672 0)
(3.60766 -0.107489 0)
(2.69732 -0.348895 0)
(2.97615 -0.361336 0)
(3.2674 -0.36856 0)
(3.57103 -0.371713 0)
(3.88533 -0.370939 0)
(4.20584 -0.364901 0)
(4.52485 -0.351162 0)
(4.83164 -0.327104 0)
(5.11356 -0.2909 0)
(5.35766 -0.242172 0)
(5.55219 -0.182211 0)
(5.68798 -0.113775 0)
(5.75902 -0.0408298 0)
(5.76377 0.0321583 0)
(5.7049 0.100839 0)
(5.58794 0.161134 0)
(5.42191 0.209896 0)
(5.21834 0.245132 0)
(4.99014 0.266028 0)
(4.75039 0.272862 0)
(4.5114 0.266796 0)
(4.28394 0.249539 0)
(4.07678 0.222885 0)
(3.89683 0.188161 0)
(3.7492 0.145089 0)
(3.63837 0.0909381 0)
(3.56443 0.0126231 0)
(3.5274 -0.104214 0)
(2.66453 -0.48138 0)
(2.96554 -0.501642 0)
(3.2997 -0.518912 0)
(3.6604 -0.532614 0)
(4.03646 -0.540333 0)
(4.4148 -0.538235 0)
(4.78188 -0.522012 0)
(5.12442 -0.488075 0)
(5.43007 -0.43458 0)
(5.68798 -0.361931 0)
(5.88932 -0.272731 0)
(6.02741 -0.171317 0)
(6.09822 -0.0633426 0)
(6.10019 0.0447322 0)
(6.03438 0.146388 0)
(5.90582 0.235686 0)
(5.72336 0.307897 0)
(5.49865 0.359949 0)
(5.24518 0.390568 0)
(4.97717 0.400182 0)
(4.70844 0.390626 0)
(4.45136 0.364649 0)
(4.21612 0.325217 0)
(4.01038 0.274723 0)
(3.83918 0.213808 0)
(3.7054 0.140331 0)
(3.60767 0.0463076 0)
(3.53964 -0.0801228 0)
(2.70455 -0.630863 0)
(3.09473 -0.67616 0)
(3.5202 -0.714125 0)
(3.95436 -0.739835 0)
(4.37623 -0.749824 0)
(4.77217 -0.741107 0)
(5.13404 -0.710856 0)
(5.45671 -0.656972 0)
(5.73611 -0.578921 0)
(5.96811 -0.478213 0)
(6.14816 -0.358367 0)
(6.27173 -0.224613 0)
(6.33568 -0.083429 0)
(6.33766 0.0580612 0)
(6.27687 0.192169 0)
(6.1566 0.311268 0)
(5.98341 0.40889 0)
(5.76642 0.480538 0)
(5.51671 0.523983 0)
(5.24681 0.539244 0)
(4.97001 0.528344 0)
(4.69928 0.4948 0)
(4.44618 0.442775 0)
(4.22001 0.376036 0)
(4.02717 0.296697 0)
(3.87091 0.204227 0)
(3.75007 0.093669 0)
(3.657 -0.043234 0)
(2.93049 -0.841116 0)
(3.41846 -0.909874 0)
(3.89163 -0.951338 0)
(4.32216 -0.965428 0)
(4.70124 -0.955469 0)
(5.03222 -0.923712 0)
(5.32343 -0.870217 0)
(5.58242 -0.793769 0)
(5.81215 -0.693379 0)
(6.00986 -0.569518 0)
(6.16874 -0.42483 0)
(6.28088 -0.264406 0)
(6.34001 -0.0953962 0)
(6.34341 0.0740953 0)
(6.29155 0.235389 0)
(6.18787 0.379762 0)
(6.0385 0.499746 0)
(5.85103 0.589944 0)
(5.6338 0.647271 0)
(5.39573 0.670971 0)
(5.14658 0.662552 0)
(4.89673 0.625489 0)
(4.65656 0.56448 0)
(4.43541 0.484338 0)
(4.24061 0.388661 0)
(4.07645 0.278754 0)
(3.94304 0.152602 0)
(3.83432 0.0059493 0)
(3.3037 -1.10568 0)
(3.79548 -1.16155 0)
(4.20763 -1.17151 0)
(4.53939 -1.14968 0)
(4.80948 -1.10848 0)
(5.04374 -1.05393 0)
(5.26468 -0.985637 0)
(5.48356 -0.899071 0)
(5.69776 -0.788748 0)
(5.89465 -0.651386 0)
(6.05839 -0.487856 0)
(6.17536 -0.303515 0)
(6.23644 -0.107445 0)
(6.23911 0.0893952 0)
(6.18603 0.275933 0)
(6.08303 0.442051 0)
(5.93958 0.579791 0)
(5.76642 0.683869 0)
(5.5734 0.751509 0)
(5.36856 0.782079 0)
(5.15844 0.776899 0)
(4.94898 0.73911 0)
(4.74609 0.673245 0)
(4.55573 0.584379 0)
(4.38322 0.476967 0)
(4.23219 0.353818 0)
(4.10297 0.215449 0)
(3.99129 0.0610768 0)
(3.6487 -1.36197 0)
(4.03333 -1.36623 0)
(4.31029 -1.32524 0)
(4.514 -1.26617 0)
(4.68812 -1.20597 0)
(4.87098 -1.14874 0)
(5.08206 -1.08713 0)
(5.31644 -1.00727 0)
(5.55244 -0.896279 0)
(5.76534 -0.747967 0)
(5.93644 -0.564178 0)
(6.0546 -0.353032 0)
(6.11467 -0.126624 0)
(6.11515 0.101137 0)
(6.05725 0.316221 0)
(5.94659 0.50593 0)
(5.79389 0.660722 0)
(5.61313 0.775168 0)
(5.41866 0.8476 0)
(5.22248 0.879047 0)
(5.03278 0.872298 0)
(4.85396 0.831309 0)
(4.6879 0.760786 0)
(4.53547 0.665708 0)
(4.39724 0.550658 0)
(4.27334 0.419184 0)
(4.16222 0.273463 0)
(4.05938 0.115229 0)
(3.8175 -1.55164 0)
(4.04802 -1.49176 0)
(4.1963 -1.40874 0)
(4.31979 -1.33514 0)
(4.46921 -1.28445 0)
(4.67012 -1.24987 0)
(4.91247 -1.20901 0)
(5.16321 -1.13655 0)
(5.39063 -1.0172 0)
(5.57714 -0.848975 0)
(5.71713 -0.639293 0)
(5.8101 -0.4002 0)
(5.85729 -0.145496 0)
(5.85799 0.110789 0)
(5.8098 0.353888 0)
(5.71339 0.568867 0)
(5.57387 0.743358 0)
(5.40119 0.869874 0)
(5.20936 0.946273 0)
(5.01396 0.974879 0)
(4.8286 0.960979 0)
(4.66191 0.911144 0)
(4.51679 0.831908 0)
(4.39187 0.729059 0)
(4.28362 0.607366 0)
(4.18773 0.470571 0)
(4.09929 0.321606 0)
(4.01199 0.163574 0)
(3.77614 -1.65705 0)
(3.88571 -1.5511 0)
(3.97431 -1.45626 0)
(4.09636 -1.40019 0)
(4.27887 -1.38181 0)
(4.50424 -1.3739 0)
(4.72718 -1.3392 0)
(4.9141 -1.25266 0)
(5.05867 -1.10924 0)
(5.16874 -0.916098 0)
(5.25114 -0.684097 0)
(5.30769 -0.42518 0)
(5.33807 -0.152205 0)
(5.34172 0.122 0)
(5.31631 0.383775 0)
(5.25897 0.618175 0)
(5.16805 0.811359 0)
(5.04427 0.953114 0)
(4.89307 1.03831 0)
(4.726 1.06767 0)
(4.55849 1.04727 0)
(4.40466 0.986467 0)
(4.2729 0.895089 0)
(4.16477 0.78146 0)
(4.07658 0.651694 0)
(4.00186 0.510051 0)
(3.93303 0.35981 0)
(3.86194 0.204524 0)
(3.59032 -1.70142 0)
(3.65996 -1.58561 0)
(3.76572 -1.51076 0)
(3.92648 -1.48837 0)
(4.11516 -1.49286 0)
(4.27194 -1.48052 0)
(4.36614 -1.41966 0)
(4.41854 -1.30488 0)
(4.46208 -1.14353 0)
(4.50911 -0.941431 0)
(4.55403 -0.703066 0)
(4.58814 -0.436539 0)
(4.60699 -0.154298 0)
(4.6113 0.129625 0)
(4.60206 0.400873 0)
(4.5791 0.645164 0)
(4.5418 0.850059 0)
(4.48622 1.0053 0)
(4.40728 1.10303 0)
(4.30514 1.14007 0)
(4.18837 1.12009 0)
(4.07067 1.05291 0)
(3.96446 0.951157 0)
(3.87623 0.826616 0)
(3.80579 0.68809 0)
(3.74798 0.541347 0)
(3.69509 0.390318 0)
(3.63856 0.238706 0)
(3.3655 -1.72849 0)
(3.46974 -1.63444 0)
(3.6196 -1.58882 0)
(3.77258 -1.57884 0)
(3.84921 -1.5602 0)
(3.81494 -1.50368 0)
(3.73468 -1.41222 0)
(3.68886 -1.29635 0)
(3.69246 -1.14925 0)
(3.71639 -0.957935 0)
(3.73591 -0.721145 0)
(3.74471 -0.45059 0)
(3.74784 -0.162541 0)
(3.74943 0.127881 0)
(3.74796 0.404733 0)
(3.74472 0.652358 0)
(3.74469 0.860105 0)
(3.74762 1.02109 0)
(3.74451 1.12832 0)
(3.72475 1.17581 0)
(3.68503 1.16304 0)
(3.63129 1.09727 0)
(3.57401 0.991627 0)
(3.52193 0.86047 0)
(3.47849 0.715608 0)
(3.44177 0.565075 0)
(3.40627 0.414042 0)
(3.3649 0.266558 0)
(3.18289 -1.77506 0)
(3.3441 -1.70799 0)
(3.48782 -1.66251 0)
(3.50743 -1.60759 0)
(3.3393 -1.51651 0)
(3.08909 -1.42171 0)
(2.92528 -1.35275 0)
(2.87515 -1.28132 0)
(2.86268 -1.15784 0)
(2.83564 -0.966297 0)
(2.79252 -0.721405 0)
(2.75063 -0.44661 0)
(2.72702 -0.160591 0)
(2.72963 0.126087 0)
(2.74898 0.40049 0)
(2.77642 0.64508 0)
(2.81521 0.848137 0)
(2.87007 1.00581 0)
(2.93548 1.11467 0)
(2.99771 1.16919 0)
(3.04453 1.16561 0)
(3.07203 1.10717 0)
(3.08416 1.00502 0)
(3.08743 0.874102 0)
(3.08633 0.728246 0)
(3.08157 0.57763 0)
(3.07057 0.428931 0)
(3.04885 0.286795 0)
(3.06368 -1.85408 0)
(3.23869 -1.78237 0)
(3.26162 -1.66906 0)
(3.00259 -1.50607 0)
(2.56197 -1.3468 0)
(2.23059 -1.29465 0)
(2.10388 -1.30731 0)
(2.03844 -1.26871 0)
(1.93775 -1.13237 0)
(1.80799 -0.923087 0)
(1.68723 -0.674071 0)
(1.598 -0.408034 0)
(1.55193 -0.139413 0)
(1.55983 0.128305 0)
(1.61096 0.386726 0)
(1.68378 0.619343 0)
(1.77383 0.812217 0)
(1.88559 0.961033 0)
(2.01695 1.06497 0)
(2.1563 1.12117 0)
(2.2882 1.12493 0)
(2.40179 1.07613 0)
(2.49386 0.982879 0)
(2.56607 0.858943 0)
(2.62104 0.718583 0)
(2.66018 0.573245 0)
(2.68306 0.430822 0)
(2.68783 0.296551 0)
(2.9759 -1.95124 0)
(3.06857 -1.8076 0)
(2.83232 -1.53805 0)
(2.21891 -1.25246 0)
(1.66835 -1.1233 0)
(1.41893 -1.20253 0)
(1.28925 -1.26344 0)
(1.10606 -1.19828 0)
(0.882382 -1.03729 0)
(0.670978 -0.830571 0)
(0.505115 -0.600159 0)
(0.391375 -0.358172 0)
(0.337798 -0.117951 0)
(0.343281 0.122521 0)
(0.40921 0.358669 0)
(0.516536 0.572743 0)
(0.656886 0.749937 0)
(0.828626 0.886141 0)
(1.02518 0.980718 0)
(1.23752 1.03407 0)
(1.44935 1.0422 0)
(1.64613 1.00292 0)
(1.8195 0.92156 0)
(1.96594 0.80981 0)
(2.08465 0.681028 0)
(2.17602 0.546769 0)
(2.24047 0.415449 0)
(2.27806 0.292572 0)
(2.86605 -2.01534 0)
(2.73922 -1.71426 0)
(2.14895 -1.22883 0)
(1.26747 -0.914294 0)
(0.881679 -0.955632 0)
(0.659324 -1.12555 0)
(0.398597 -1.1503 0)
(0.0852489 -1.05504 0)
(-0.216244 -0.90379 0)
(-0.476642 -0.720706 0)
(-0.678662 -0.517945 0)
(-0.81317 -0.306397 0)
(-0.878256 -0.0940345 0)
(-0.881956 0.11596 0)
(-0.808675 0.320334 0)
(-0.674883 0.50663 0)
(-0.48875 0.661494 0)
(-0.261129 0.78046 0)
(-0.00113326 0.862926 0)
(0.28086 0.910638 0)
(0.566072 0.92042 0)
(0.839234 0.889566 0)
(1.08918 0.821409 0)
(1.30812 0.725329 0)
(1.49144 0.612963 0)
(1.63781 0.495092 0)
(1.7474 0.379835 0)
(1.82133 0.272348 0)
(2.68744 -1.95203 0)
(2.15317 -1.43767 0)
(1.27272 -0.775081 0)
(0.399486 -0.638638 0)
(0.248364 -0.846613 0)
(-0.140504 -0.975989 0)
(-0.531519 -0.966551 0)
(-0.926543 -0.879401 0)
(-1.28889 -0.748586 0)
(-1.59976 -0.592113 0)
(-1.8408 -0.423633 0)
(-2.00237 -0.248818 0)
(-2.08126 -0.0734027 0)
(-2.08023 0.0990944 0)
(-1.99643 0.265885 0)
(-1.83655 0.41823 0)
(-1.61083 0.545635 0)
(-1.33293 0.644169 0)
(-1.01492 0.713468 0)
(-0.672835 0.75286 0)
(-0.323089 0.762407 0)
(0.0185106 0.739258 0)
(0.336974 0.684863 0)
(0.62207 0.607278 0)
(0.865239 0.515318 0)
(1.06397 0.41814 0)
(1.2175 0.323249 0)
(1.32745 0.234984 0)
(2.41417 -1.6929 0)
(1.20579 -0.983516 0)
(0.437204 -0.310006 0)
(-0.173845 -0.500267 0)
(-0.376078 -0.677113 0)
(-0.912784 -0.751786 0)
(-1.40203 -0.7442 0)
(-1.87841 -0.67099 0)
(-2.29894 -0.566191 0)
(-2.65216 -0.445331 0)
(-2.92442 -0.317036 0)
(-3.10727 -0.185514 0)
(-3.19638 -0.0541669 0)
(-3.19235 0.0743545 0)
(-3.09579 0.197829 0)
(-2.91286 0.310691 0)
(-2.65469 0.405917 0)
(-2.33574 0.480324 0)
(-1.97148 0.533084 0)
(-1.57897 0.563317 0)
(-1.17422 0.57112 0)
(-0.774896 0.554836 0)
(-0.398416 0.515403 0)
(-0.0585248 0.45812 0)
(0.234652 0.38899 0)
(0.479341 0.317161 0)
(0.671339 0.246947 0)
(0.813523 0.180932 0)
(2.06001 -1.33041 0)
(-0.127663 -0.472697 0)
(0.0566551 -0.0397314 0)
(-0.576015 -0.331188 0)
(-0.921066 -0.435298 0)
(-1.54993 -0.481885 0)
(-2.14116 -0.474823 0)
(-2.69968 -0.427256 0)
(-3.18119 -0.35895 0)
(-3.57528 -0.281021 0)
(-3.8729 -0.199213 0)
(-4.06982 -0.116072 0)
(-4.16435 -0.0334615 0)
(-4.15769 0.0470885 0)
(-4.05108 0.123767 0)
(-3.85083 0.193514 0)
(-3.5686 0.252585 0)
(-3.21947 0.298981 0)
(-2.82017 0.332003 0)
(-2.38821 0.351133 0)
(-1.94144 0.355839 0)
(-1.49915 0.34559 0)
(-1.08016 0.320996 0)
(-0.699646 0.284949 0)
(-0.366638 0.242374 0)
(-0.0882593 0.197634 0)
(0.132754 0.154031 0)
(0.302021 0.11449 0)
(1.74475 -0.936588 0)
(-1.29551 -0.0927703 0)
(-0.087943 -0.0211545 0)
(-0.841404 -0.115729 0)
(-1.24164 -0.152624 0)
(-1.94751 -0.167416 0)
(-2.62008 -0.164387 0)
(-3.25517 -0.147028 0)
(-3.80206 -0.122469 0)
(-4.24717 -0.0947415 0)
(-4.58142 -0.0659925 0)
(-4.80171 -0.0371769 0)
(-4.9075 -0.00887583 0)
(-4.90156 0.0184829 0)
(-4.78968 0.0441489 0)
(-4.57972 0.0672069 0)
(-4.28355 0.0865694 0)
(-3.91672 0.101564 0)
(-3.49656 0.111901 0)
(-3.04133 0.1174 0)
(-2.57012 0.117873 0)
(-2.1028 0.113297 0)
(-1.65844 0.104098 0)
(-1.2525 0.0913257 0)
(-0.895671 0.0764945 0)
(-0.594713 0.0609593 0)
(-0.350834 0.0470572 0)
(-0.16247 0.0345802 0)
(3.87239 -0.349487 0)
(3.88538 -0.747106 0)
(3.60826 -1.18627 0)
(3.00303 -1.5383 0)
(2.29506 -1.70779 0)
(1.63463 -1.79838 0)
(1.14981 -1.80219 0)
(-0.222707 -2.02441 0)
(3.60033 -0.382681 0)
(3.46732 -0.699842 0)
(3.17809 -1.01076 0)
(2.77084 -1.26817 0)
(2.31704 -1.43115 0)
(1.82651 -1.52226 0)
(1.37563 -1.49033 0)
(0.513467 -1.5495 0)
(3.48756 -0.31162 0)
(3.37246 -0.569929 0)
(3.1529 -0.834416 0)
(2.84187 -1.06754 0)
(2.47317 -1.22248 0)
(2.05456 -1.29213 0)
(1.64452 -1.23648 0)
(0.921425 -1.12375 0)
(3.47472 -0.266302 0)
(3.36555 -0.496586 0)
(3.18557 -0.727424 0)
(2.9387 -0.922799 0)
(2.64381 -1.04967 0)
(2.29952 -1.0946 0)
(1.94317 -1.00996 0)
(1.38101 -0.829876 0)
(3.57322 -0.218828 0)
(3.46679 -0.423578 0)
(3.31372 -0.62548 0)
(3.10886 -0.794904 0)
(2.85917 -0.902371 0)
(2.56063 -0.926103 0)
(2.24345 -0.819896 0)
(1.79516 -0.605699 0)
(3.73587 -0.165959 0)
(3.62491 -0.355702 0)
(3.48067 -0.539021 0)
(3.29402 -0.688136 0)
(3.06624 -0.774662 0)
(2.79588 -0.776746 0)
(2.50871 -0.654538 0)
(2.14987 -0.429919 0)
(3.88572 -0.10944 0)
(3.76921 -0.288398 0)
(3.62511 -0.455574 0)
(3.4444 -0.585872 0)
(3.22712 -0.653791 0)
(2.97668 -0.639634 0)
(2.71461 -0.510644 0)
(2.43054 -0.289629 0)
(3.95589 -0.0524851 0)
(3.83865 -0.22116 0)
(3.69518 -0.373394 0)
(3.51894 -0.487184 0)
(3.31123 -0.540023 0)
(3.08043 -0.514794 0)
(2.84369 -0.38613 0)
(2.62383 -0.175472 0)
(3.91778 0.00122681 0)
(3.80648 -0.156429 0)
(3.66909 -0.294185 0)
(3.50211 -0.393134 0)
(3.30871 -0.43398 0)
(3.10112 -0.402328 0)
(2.89203 -0.27955 0)
(2.72767 -0.0837389 0)
(3.78008 0.0494959 0)
(3.67952 -0.0965954 0)
(3.55382 -0.220605 0)
(3.40182 -0.306558 0)
(3.22804 -0.338356 0)
(3.04703 -0.304095 0)
(2.86733 -0.190835 0)
(2.74976 -0.0123073 0)
(3.56999 0.091652 0)
(3.48253 -0.0431716 0)
(3.37174 -0.154715 0)
(3.23813 -0.229669 0)
(3.08689 -0.254914 0)
(2.93347 -0.220782 0)
(2.78298 -0.118919 0)
(2.70345 0.0407402 0)
(3.31051 0.127333 0)
(3.23755 0.00298124 0)
(3.14324 -0.0975109 0)
(3.02924 -0.163342 0)
(2.90097 -0.184054 0)
(2.774 -0.151918 0)
(2.6506 -0.0622213 0)
(2.60153 0.0780734 0)
(3.0116 0.155685 0)
(2.95516 0.0412256 0)
(2.87834 -0.0494235 0)
(2.78402 -0.107626 0)
(2.67783 -0.125255 0)
(2.57517 -0.0962701 0)
(2.47639 -0.0188403 0)
(2.45188 0.102853 0)
(2.67235 0.174827 0)
(2.63533 0.0704246 0)
(2.57746 -0.0107979 0)
(2.50287 -0.062267 0)
(2.41767 -0.0776973 0)
(2.33722 -0.0524955 0)
(2.26086 0.0129258 0)
(2.25684 0.116961 0)
(2.28905 0.18249 0)
(2.27451 0.0893402 0)
(2.23702 0.0178262 0)
(2.1823 -0.0270403 0)
(2.11735 -0.0406408 0)
(2.05755 -0.0194716 0)
(2.00204 0.0343603 0)
(2.0158 0.121925 0)
(1.86175 0.176822 0)
(1.87166 0.0967379 0)
(1.85552 0.0357533 0)
(1.82076 -0.00206383 0)
(1.77537 -0.0138425 0)
(1.73503 0.00308529 0)
(1.69938 0.0456771 0)
(1.72888 0.11773 0)
(1.39746 0.15725 0)
(1.43189 0.0925437 0)
(1.437 0.0435801 0)
(1.42161 0.0135747 0)
(1.3949 0.00416738 0)
(1.37312 0.0172047 0)
(1.35682 0.0490386 0)
(1.40083 0.10604 0)
(0.910573 0.123435 0)
(0.967518 0.0759029 0)
(0.992704 0.0403291 0)
(0.996332 0.0186831 0)
(0.98803 0.011311 0)
(0.984082 0.0196745 0)
(0.985062 0.0403689 0)
(1.03996 0.0827964 0)
(0.4223 0.0809217 0)
(0.499412 0.0518646 0)
(0.543664 0.0295368 0)
(0.564125 0.0160185 0)
(0.568843 0.0119304 0)
(0.574273 0.0182648 0)
(0.583811 0.0302175 0)
(0.643267 0.0578389 0)
(-0.0264736 0.0238678 0)
(0.0646444 0.0143535 0)
(0.12047 0.0084084 0)
(0.151684 0.0063296 0)
(0.170423 0.00675199 0)
(0.192013 0.00976458 0)
(0.21887 0.0122706 0)
(0.282218 0.0224827 0)
(-1.01665 -0.769666 0)
(0.435809 -0.0739385 0)
(1.23302 0.494329 0)
(1.83457 0.903546 8.30329e-17)
(2.37908 1.10712 4.73658e-18)
(3.01614 1.07973 0)
(3.32847 0.87732 3.99445e-17)
(3.34827 0.728601 2.40998e-18)
(3.31365 0.655675 3.43351e-17)
(3.3346 0.603388 3.39143e-17)
(3.39254 0.566472 0)
(3.45901 0.541313 2.86464e-17)
(3.53352 0.525672 -1.21947e-18)
(3.62218 0.518135 2.38175e-17)
(3.72454 0.517574 2.88647e-19)