/*--------------------------------*- C++ -*----------------------------------*\
| =========                 |                                                 |
| \\      /  F ield         | OpenFOAM: The Open Source CFD Toolbox           |
|  \\    /   O peration     | Version:  2.4.0                                 |
|   \\  /    A nd           | Web:      www.OpenFOAM.org                      |
|    \\/     M anipulation  |                                                 |
\*---------------------------------------------------------------------------*/
FoamFile
{
    version     2.0;
    format      ascii;
    class       surfaceScalarField;
    location    "185";
    object      phi;
}
// * * * * * * * * * * * * * * * * * * * * * * * * * * * * * * * * * * * * * //

dimensions      [0 3 -1 0 0 0 0];

internalField   nonuniform List<scalar> 
19800
(
0.00019228
8.74544e-08
0.000192112
1.68e-07
0.000191858
2.54158e-07
0.000191519
3.38925e-07
0.000191093
4.25921e-07
0.000190578
5.14778e-07
0.000189973
6.05825e-07
0.000189274
6.98375e-07
0.000188484
7.90433e-07
0.000187606
8.77653e-07
0.000186654
9.52198e-07
0.000185651
1.00272e-06
0.000184634
1.01744e-06
0.000183645
9.8884e-07
0.000182729
9.16306e-07
0.000181922
8.06971e-07
0.000181246
6.76279e-07
0.000180691
5.54641e-07
0.000180159
5.32323e-07
1.14252e-06
0.000179016
0.000197618
1.71517e-07
0.000197456
3.29907e-07
0.000197213
4.97109e-07
0.00019689
6.62031e-07
0.000196487
8.2993e-07
0.000196001
1.00071e-06
0.000195432
1.17479e-06
0.000194779
1.35092e-06
0.000194044
1.52555e-06
0.000193231
1.69082e-06
0.000192351
1.83246e-06
0.000191424
1.92952e-06
0.000190482
1.96009e-06
0.000189561
1.90963e-06
0.000188701
1.77665e-06
0.000187932
1.57517e-06
0.000187271
1.33765e-06
0.000186697
1.12823e-06
0.00018616
1.06954e-06
1.38346e-06
0.000185919
0.000203103
2.53078e-07
0.000202946
4.86457e-07
0.000202713
7.30395e-07
0.000202405
9.70442e-07
0.000202022
1.21347e-06
0.000201563
1.45937e-06
0.000201029
1.70856e-06
0.000200421
1.95927e-06
0.00019974
2.20665e-06
0.000198991
2.43998e-06
0.000198184
2.63979e-06
0.000197336
2.77752e-06
0.000196472
2.82328e-06
0.000195625
2.75714e-06
0.000194824
2.57737e-06
0.000194095
2.30457e-06
0.000193447
1.98526e-06
0.000192877
1.69875e-06
0.000192396
1.55024e-06
1.6345e-06
0.000192145
0.000208739
3.32773e-07
0.000208587
6.3863e-07
0.000208363
9.55258e-07
0.000208068
1.26573e-06
0.000207703
1.57815e-06
0.00020727
1.89242e-06
0.00020677
2.20886e-06
0.000206204
2.52513e-06
0.000205576
2.83517e-06
0.00020489
3.12595e-06
0.000204156
3.37397e-06
0.000203388
3.54524e-06
0.000202607
3.60446e-06
0.000201836
3.52863e-06
0.000201096
3.31693e-06
0.000200405
2.99585e-06
0.000199769
2.62118e-06
0.000199192
2.27533e-06
0.0001987
2.04254e-06
1.96746e-06
0.000198367
0.000214532
4.10936e-07
0.000214383
7.87085e-07
0.000214166
1.1726e-06
0.000213883
1.54877e-06
0.000213536
1.92509e-06
0.000213128
2.3012e-06
0.000212659
2.67715e-06
0.000212135
3.05e-06
0.000211557
3.41255e-06
0.000210933
3.74982e-06
0.000210272
4.03558e-06
0.000209585
4.23256e-06
0.000208886
4.30285e-06
0.000208192
4.22278e-06
0.000207515
3.99359e-06
0.000206865
3.64617e-06
0.000206246
3.24026e-06
0.000205667
2.85412e-06
0.000205155
2.55483e-06
2.36651e-06
0.000204756
0.000220484
4.8804e-07
0.000220339
9.32571e-07
0.000220128
1.3835e-06
0.000219856
1.82107e-06
0.000219526
2.25589e-06
0.00021914
2.68741e-06
0.000218702
3.11531e-06
0.000218216
3.53588e-06
0.000217688
3.94079e-06
0.000217124
4.31357e-06
0.000216533
4.6264e-06
0.000215925
4.84094e-06
0.000215309
4.91929e-06
0.000214692
4.83928e-06
0.000214081
4.60489e-06
0.000213477
4.24957e-06
0.000212885
3.83236e-06
0.000212316
3.42332e-06
0.000211795
3.07594e-06
2.80587e-06
0.000211356
0.000226602
5.64196e-07
0.000226459
1.07547e-06
0.000226254
1.58855e-06
0.000225992
2.08327e-06
0.000225676
2.57151e-06
0.000225311
3.05232e-06
0.000224902
3.52486e-06
0.000224453
3.9846e-06
0.000223972
4.42206e-06
0.000223466
4.81974e-06
0.000222943
5.14928e-06
0.000222411
5.37327e-06
0.000221874
5.45606e-06
0.000221335
5.3787e-06
0.000220791
5.14815e-06
0.000220242
4.79862e-06
0.00021969
4.38505e-06
0.000219145
3.96749e-06
0.000218633
3.58854e-06
3.26048e-06
0.000218178
0.000232889
6.39817e-07
0.000232748
1.21634e-06
0.000232548
1.78865e-06
0.000232295
2.33674e-06
0.000231993
2.87347e-06
0.000231648
3.39764e-06
0.000231265
3.90779e-06
0.000230851
4.39847e-06
0.000230415
4.85915e-06
0.000229963
5.27163e-06
0.000229504
5.60811e-06
0.000229044
5.83365e-06
0.000228583
5.91671e-06
0.000228119
5.84263e-06
0.000227646
5.62126e-06
0.000227158
5.28612e-06
0.000226657
4.88617e-06
0.000226154
4.47117e-06
0.000225667
4.07483e-06
3.70775e-06
0.00022522
0.00023935
7.14821e-07
0.000239211
1.35531e-06
0.000239015
1.98409e-06
0.00023877
2.58178e-06
0.000238481
3.16243e-06
0.000238155
3.72439e-06
0.000237797
4.26554e-06
0.000237416
4.77948e-06
0.00023702
5.25473e-06
0.000236619
5.67284e-06
0.00023622
6.00738e-06
0.000235827
6.22715e-06
0.000235437
6.30588e-06
0.000235046
6.23385e-06
0.000234644
6.02346e-06
0.000234223
5.7066e-06
0.000233784
5.32566e-06
0.000233334
4.92088e-06
0.00023289
4.5186e-06
4.12794e-06
0.00023247
0.00024599
7.89567e-07
0.000245852
1.49284e-06
0.000245661
2.17559e-06
0.000245424
2.81957e-06
0.000245146
3.43971e-06
0.000244837
4.03412e-06
0.000244503
4.59998e-06
0.000244152
5.12999e-06
0.000243795
5.6119e-06
0.000243441
6.02741e-06
0.000243096
6.35217e-06
0.000242764
6.5595e-06
0.00024244
6.6291e-06
0.000242118
6.55633e-06
0.000241786
6.35574e-06
0.000241435
6.05713e-06
0.000241064
5.69664e-06
0.000240679
5.30636e-06
0.000240291
4.9066e-06
4.50469e-06
0.000239914
0.000252814
8.63794e-07
0.000252678
1.62879e-06
0.00025249
2.36311e-06
0.00025226
3.05009e-06
0.000251994
3.70562e-06
0.000251701
4.32754e-06
0.000251388
4.91234e-06
0.000251066
5.45188e-06
0.000250745
5.93343e-06
0.000250433
6.33926e-06
0.000250138
6.64762e-06
0.00024986
6.83677e-06
0.000249597
6.89253e-06
0.000249338
6.81519e-06
0.000249073
6.62105e-06
0.000248792
6.33776e-06
0.000248493
5.99602e-06
0.000248178
5.62145e-06
0.000247855
5.22953e-06
4.82557e-06
0.000247534
0.000259827
9.37884e-07
0.000259693
1.76352e-06
0.000259509
2.54724e-06
0.000259285
3.27425e-06
0.000259029
3.96122e-06
0.000258751
4.60591e-06
0.00025846
5.20419e-06
0.000258164
5.74731e-06
0.000257876
6.22232e-06
0.000257602
6.61246e-06
0.000257351
6.89896e-06
0.000257123
7.06514e-06
0.000256913
7.1027e-06
0.000256711
7.01645e-06
0.000256508
6.82412e-06
0.000256295
6.55137e-06
0.000256066
6.22453e-06
0.000255823
5.86433e-06
0.00025557
5.48261e-06
5.08272e-06
0.000255313
0.000267035
1.01141e-06
0.000266902
1.89671e-06
0.000266721
2.72765e-06
0.000266504
3.49173e-06
0.000266259
4.20649e-06
0.000265995
4.86959e-06
0.000265723
5.47647e-06
0.000265452
6.01789e-06
0.000265193
6.48105e-06
0.000264955
6.85062e-06
0.000264743
7.11101e-06
0.000264558
7.2505e-06
0.000264394
7.26616e-06
0.000264244
7.16673e-06
0.000264097
6.97109e-06
0.000263945
6.70326e-06
0.000263784
6.38626e-06
0.000263611
6.03733e-06
0.000263427
5.66577e-06
5.27316e-06
0.000263237
0.000274443
1.08478e-06
0.000274311
2.02868e-06
0.000274134
2.90483e-06
0.000273923
3.70328e-06
0.000273687
4.44224e-06
0.000273437
5.1196e-06
0.000273184
5.73045e-06
0.000272936
6.26544e-06
0.000272705
6.71225e-06
0.000272499
7.0573e-06
0.000272321
7.28837e-06
0.000272173
7.3984e-06
0.00027205
7.38923e-06
0.000271944
7.27284e-06
0.000271846
7.06899e-06
0.000271749
6.80045e-06
0.000271647
6.48787e-06
0.000271539
6.1462e-06
0.000271421
5.78303e-06
5.39859e-06
0.000271296
0.000282056
1.15739e-06
0.000281926
2.15889e-06
0.000281752
3.07819e-06
0.000281547
3.90828e-06
0.000281321
4.66817e-06
0.000281085
5.356e-06
0.000280849
5.96673e-06
0.000280623
6.49118e-06
0.000280417
6.91792e-06
0.000280239
7.23546e-06
0.000280093
7.43499e-06
0.000279977
7.51379e-06
0.000279889
7.47774e-06
0.00027982
7.3414e-06
0.000279764
7.12519e-06
0.000279713
6.85093e-06
0.000279664
6.53772e-06
0.000279611
6.19908e-06
0.000279552
5.84159e-06
5.4646e-06
0.000279486
0.00028988
1.22974e-06
0.000289752
2.28768e-06
0.000289582
3.24817e-06
0.000289383
4.10734e-06
0.000289167
4.88488e-06
0.000288944
5.57952e-06
0.000288724
6.18632e-06
0.000288519
6.69661e-06
0.000288337
7.1002e-06
0.000288184
7.38795e-06
0.000288065
7.55449e-06
0.000287978
7.60103e-06
0.000287918
7.53687e-06
0.000287881
7.37856e-06
0.00028786
7.14688e-06
0.000287848
6.86295e-06
0.00028784
6.54485e-06
0.000287834
6.20533e-06
0.000287825
5.85059e-06
5.47937e-06
0.00028781
0.000297922
1.30106e-06
0.000297795
2.41433e-06
0.000297629
3.41399e-06
0.000297437
4.29967e-06
0.00029723
5.09186e-06
0.000297019
5.79001e-06
0.000296816
6.38954e-06
0.00029663
6.88259e-06
0.00029647
7.26061e-06
0.000296341
7.51701e-06
0.000296245
7.64983e-06
0.000296183
7.66381e-06
0.000296148
7.57108e-06
0.000296137
7.3897e-06
0.000296144
7.1406e-06
0.000296162
6.84431e-06
0.000296189
6.51819e-06
0.00029622
6.17467e-06
0.00029625
5.81987e-06
5.45243e-06
0.000296277
0.000306187
1.37193e-06
0.000306062
2.53923e-06
0.0003059
3.57606e-06
0.000305714
4.48576e-06
0.000305517
5.28959e-06
0.000305319
5.98804e-06
0.000305132
6.57718e-06
0.000304964
7.05032e-06
0.000304824
7.40082e-06
0.000304716
7.62483e-06
0.000304642
7.72368e-06
0.000304601
7.7053e-06
0.000304588
7.58417e-06
0.000304598
7.37943e-06
0.000304627
7.11203e-06
0.000304669
6.80191e-06
0.000304721
6.4659e-06
0.00030478
6.11622e-06
0.00030484
5.75914e-06
5.3935e-06
0.000304899
0.00031468
1.44142e-06
0.000314558
2.66146e-06
0.000314401
3.73344e-06
0.000314222
4.66468e-06
0.000314034
5.47743e-06
0.000313849
6.17332e-06
0.000313676
6.74937e-06
0.000313526
7.2004e-06
0.000313405
7.52195e-06
0.000313317
7.71305e-06
0.000313262
7.77817e-06
0.00031324
7.72809e-06
0.000313245
7.57922e-06
0.000313273
7.35152e-06
0.000313319
7.06582e-06
0.000313379
6.74151e-06
0.00031345
6.39488e-06
0.000313529
6.03793e-06
0.000313611
5.67714e-06
5.31169e-06
0.000313692
0.00032341
1.51022e-06
0.00032329
2.78151e-06
0.000323138
3.88657e-06
0.000322966
4.83688e-06
0.000322788
5.65575e-06
0.000322615
6.34628e-06
0.000322458
6.90677e-06
0.000322324
7.3338e-06
0.000322221
7.62533e-06
0.000322151
7.78333e-06
0.000322114
7.81525e-06
0.000322107
7.73442e-06
0.000322128
7.55884e-06
0.00032217
7.30906e-06
0.00032223
7.00571e-06
0.000322304
6.66763e-06
0.000322389
6.31055e-06
0.00032248
5.9462e-06
0.000322576
5.58109e-06
5.21486e-06
0.000322673
0.000332382
1.57725e-06
0.000332265
2.89829e-06
0.000332117
4.03436e-06
0.000331953
5.00138e-06
0.000331785
5.82387e-06
0.000331624
6.50659e-06
0.000331482
7.04939e-06
0.000331364
7.45095e-06
0.000331278
7.71182e-06
0.000331224
7.83689e-06
0.000331203
7.83647e-06
0.000331211
7.7261e-06
0.000331245
7.52512e-06
0.0003313
7.25447e-06
0.000331371
6.93458e-06
0.000331455
6.5837e-06
0.000331548
6.217e-06
0.000331649
5.84579e-06
0.000331753
5.47654e-06
5.10915e-06
0.000331859
0.000341603
1.6433e-06
0.000341489
3.01238e-06
0.000341347
4.17729e-06
0.00034119
5.15858e-06
0.000341032
5.98211e-06
0.000340884
6.65463e-06
0.000340755
7.17782e-06
0.000340654
7.55267e-06
0.000340583
7.78249e-06
0.000340545
7.87504e-06
0.000340538
7.84328e-06
0.00034056
7.70473e-06
0.000340605
7.47981e-06
0.00034067
7.18975e-06
0.00034075
6.85466e-06
0.000340841
6.49226e-06
0.000340941
6.11711e-06
0.000341047
5.74003e-06
0.000341156
5.36731e-06
4.99898e-06
0.000341266
0.000351079
1.70715e-06
0.000350969
3.12254e-06
0.000350832
4.31421e-06
0.000350683
5.30745e-06
0.000350535
6.12978e-06
0.0003504
6.79003e-06
0.000350286
7.29205e-06
0.000350199
7.63933e-06
0.000350144
7.83802e-06
0.00035012
7.89874e-06
0.000350126
7.83687e-06
0.000350159
7.67165e-06
0.000350215
7.42439e-06
0.000350288
7.11647e-06
0.000350375
6.76768e-06
0.000350472
6.39518e-06
0.000350576
6.01289e-06
0.000350685
5.63114e-06
0.000350797
5.25588e-06
4.88719e-06
0.000350909
0.000360819
1.7697e-06
0.000360713
3.22946e-06
0.000360582
4.44561e-06
0.000360441
5.44844e-06
0.000360303
6.26722e-06
0.00036018
6.9132e-06
0.00036008
7.39263e-06
0.000360008
7.71166e-06
0.000359966
7.87936e-06
0.000359956
7.90906e-06
0.000359975
7.81838e-06
0.000360018
7.62806e-06
0.000360083
7.36011e-06
0.000360163
7.03594e-06
0.000360256
6.67498e-06
0.000360357
6.29381e-06
0.000360465
5.90574e-06
0.000360575
5.52052e-06
0.000360687
5.14376e-06
4.77545e-06
0.000360799
0.000370829
1.82963e-06
0.000370726
3.33182e-06
0.000370602
4.57032e-06
0.000370469
5.58055e-06
0.000370343
6.39375e-06
0.000370232
7.0238e-06
0.000370145
7.47954e-06
0.000370087
7.77e-06
0.000370059
7.9071e-06
0.000370061
7.9068e-06
0.000370091
7.78876e-06
0.000370144
7.57499e-06
0.000370216
7.28802e-06
0.000370303
6.94923e-06
0.0003704
6.57762e-06
0.000370505
6.18919e-06
0.000370614
5.79662e-06
0.000370726
5.40909e-06
0.000370837
5.03181e-06
4.66466e-06
0.000370948
0.000381117
1.88792e-06
0.000381018
3.43034e-06
0.0003809
4.68885e-06
0.000380777
5.70418e-06
0.000380661
6.50974e-06
0.000380563
7.12226e-06
0.000380489
7.55338e-06
0.000380444
7.81506e-06
0.000380429
7.92209e-06
0.000380443
7.8929e-06
0.000380483
7.74898e-06
0.000380544
7.51341e-06
0.000380623
7.20909e-06
0.000380715
6.85726e-06
0.000380816
6.47647e-06
0.000380924
6.0821e-06
0.000381034
5.68622e-06
0.000381146
5.29743e-06
0.000381257
4.92053e-06
4.55525e-06
0.000381366
0.000391689
1.94319e-06
0.000391596
3.52366e-06
0.000391485
4.80005e-06
0.00039137
5.81842e-06
0.000391265
6.61459e-06
0.000391179
7.20829e-06
0.000391118
7.61416e-06
0.000391086
7.84715e-06
0.000391084
7.92487e-06
0.000391108
7.86806e-06
0.000391158
7.69983e-06
0.000391227
7.44414e-06
0.000391312
7.12413e-06
0.000391408
6.7608e-06
0.000391513
6.37223e-06
0.000391622
5.97317e-06
0.000391733
5.57505e-06
0.000391844
5.18595e-06
0.000391955
4.81022e-06
4.44745e-06
0.000392062
0.000402556
1.99646e-06
0.000402467
3.61256e-06
0.000402363
4.90447e-06
0.000402258
5.9237e-06
0.000402164
6.70869e-06
0.00040209
7.28237e-06
0.000402042
7.66248e-06
0.000402022
7.867e-06
0.000402031
7.91625e-06
0.000402066
7.83312e-06
0.000402123
7.64215e-06
0.0004022
7.36799e-06
0.00040229
7.03388e-06
0.00040239
6.66054e-06
0.000402497
6.26549e-06
0.000402607
5.86289e-06
0.000402719
5.46352e-06
0.00040283
5.07491e-06
0.000402939
4.70104e-06
4.34132e-06
0.000403045
0.000413724
2.04633e-06
0.00041364
3.69571e-06
0.000413543
5.00102e-06
0.000413448
6.01919e-06
0.000413365
6.79154e-06
0.000413303
7.34429e-06
0.000413267
7.69843e-06
0.000413259
7.87494e-06
0.000413279
7.89676e-06
0.000413323
7.78873e-06
0.000413388
7.57662e-06
0.000413471
7.28563e-06
0.000413566
6.939e-06
0.000413669
6.55706e-06
0.000413778
6.15678e-06
0.000413889
5.75167e-06
0.000414001
5.35193e-06
0.000414111
4.96455e-06
0.000414219
4.59313e-06
4.23691e-06
0.000414324
0.000425201
2.09385e-06
0.000425123
3.77387e-06
0.000425034
5.09022e-06
0.000424948
6.10534e-06
0.000424876
6.86357e-06
0.000424826
7.39458e-06
0.000424802
7.72263e-06
0.000424805
7.87168e-06
0.000424835
7.86714e-06
0.000424888
7.73564e-06
0.000424961
7.50399e-06
0.000425049
7.19776e-06
0.000425148
6.84009e-06
0.000425254
6.45089e-06
0.000425364
6.04652e-06
0.000425476
5.63988e-06
0.000425587
5.24054e-06
0.000425697
4.85504e-06
0.000425803
4.48656e-06
4.13424e-06
0.000425906
0.000436997
2.13766e-06
0.000436925
3.8458e-06
0.000436844
5.17111e-06
0.000436767
6.18146e-06
0.000436707
6.92439e-06
0.000436668
7.43313e-06
0.000436655
7.73523e-06
0.000436669
7.85759e-06
0.000436709
7.82791e-06
0.00043677
7.67444e-06
0.000436849
7.42485e-06
0.000436942
7.10496e-06
0.000437044
6.73769e-06
0.000437153
6.34248e-06
0.000437264
5.93509e-06
0.000437376
5.52778e-06
0.000437487
5.12958e-06
0.000437596
4.7465e-06
0.000437701
4.38142e-06
4.03332e-06
0.000437802
0.00044912
2.1788e-06
0.000449054
3.91224e-06
0.000448981
5.2442e-06
0.000448914
6.24799e-06
0.000448864
6.97448e-06
0.000448837
7.46049e-06
0.000448836
7.73688e-06
0.00044886
7.83336e-06
0.000448908
7.77979e-06
0.000448977
7.60584e-06
0.000449062
7.33986e-06
0.000449159
7.00781e-06
0.000449264
6.6323e-06
0.000449375
6.23225e-06
0.000449487
5.82283e-06
0.000449599
5.41566e-06
0.000449709
5.01922e-06
0.000449817
4.63907e-06
0.000449921
4.27776e-06
3.93415e-06
0.00045002
0.000461579
2.21597e-06
0.000461519
3.9721e-06
0.000461455
5.3087e-06
0.000461398
6.30439e-06
0.000461359
7.01357e-06
0.000461343
7.47666e-06
0.000461352
7.72779e-06
0.000461386
7.79938e-06
0.000461442
7.72328e-06
0.000461518
7.53038e-06
0.000461608
7.24957e-06
0.000461709
6.9068e-06
0.000461817
6.52435e-06
0.000461929
6.12059e-06
0.000462042
5.71003e-06
0.000462153
5.30374e-06
0.000462263
4.90963e-06
0.000462369
4.53284e-06
0.000462471
4.17564e-06
3.83675e-06
0.000462569
0.000474384
2.25019e-06
0.00047433
4.0261e-06
0.000474274
5.36511e-06
0.000474228
6.35114e-06
0.000474199
7.04217e-06
0.000474194
7.48222e-06
0.000474213
7.70862e-06
0.000474256
7.75635e-06
0.00047432
7.65906e-06
0.000474402
7.44869e-06
0.000474497
7.15454e-06
0.000474601
6.80245e-06
0.000474711
6.41427e-06
0.000474824
6.0078e-06
0.000474937
5.59696e-06
0.000475049
5.19219e-06
0.000475158
4.80094e-06
0.000475262
4.4279e-06
0.000475363
4.07509e-06
3.74112e-06
0.000475459
0.000487544
2.28028e-06
0.000487497
4.07325e-06
0.000487449
5.41275e-06
0.000487412
6.38782e-06
0.000487394
7.06013e-06
0.000487399
7.47724e-06
0.000487428
7.67963e-06
0.00048748
7.70466e-06
0.000487551
7.58761e-06
0.000487639
7.36129e-06
0.000487738
7.05527e-06
0.000487845
6.69518e-06
0.000487957
6.30242e-06
0.000488071
5.89421e-06
0.000488184
5.48385e-06
0.000488295
5.08122e-06
0.000488403
4.69327e-06
0.000488506
4.32434e-06
0.000488605
3.97616e-06
3.64728e-06
0.000488699
0.000501069
2.30722e-06
0.000501028
4.11428e-06
0.000500989
5.45218e-06
0.000500962
6.41496e-06
0.000500954
7.06801e-06
0.000500969
7.46237e-06
0.000501007
7.64149e-06
0.000501067
7.64498e-06
0.000501145
7.50955e-06
0.000501238
7.26874e-06
0.000501341
6.95224e-06
0.000501451
6.58541e-06
0.000501564
6.18916e-06
0.000501678
5.78009e-06
0.000501791
5.3709e-06
0.000501901
4.97096e-06
0.000502008
4.58673e-06
0.00050211
4.2222e-06
0.000502207
3.87887e-06
3.55521e-06
0.000502299
0.000514969
2.3299e-06
0.000514935
4.14831e-06
0.000514904
5.4828e-06
0.000514887
6.43225e-06
0.000514889
7.06574e-06
0.000514914
7.43773e-06
0.00051496
7.59451e-06
0.000515028
7.57772e-06
0.000515112
7.42537e-06
0.000515209
7.17152e-06
0.000515315
6.8459e-06
0.000515427
6.47353e-06
0.000515542
6.07479e-06
0.000515656
5.66567e-06
0.000515769
5.25832e-06
0.000515878
4.86154e-06
0.000515984
4.48141e-06
0.000516084
4.12154e-06
0.00051618
3.78325e-06
3.46493e-06
0.00051627
0.000529254
2.34932e-06
0.000529227
4.17612e-06
0.000529205
5.50525e-06
0.000529197
6.44028e-06
0.000529209
7.05394e-06
0.000529242
7.40398e-06
0.000529298
7.53933e-06
0.000529372
7.50353e-06
0.000529462
7.33563e-06
0.000529563
7.07014e-06
0.000529672
6.73668e-06
0.000529786
6.35989e-06
0.000529901
5.95959e-06
0.000530016
5.5512e-06
0.000530128
5.14625e-06
0.000530236
4.7531e-06
0.00053034
4.37738e-06
0.000530439
4.02242e-06
0.000530533
3.68931e-06
3.37643e-06
0.000530622
0.000543936
2.36443e-06
0.000543915
4.19686e-06
0.000543901
5.51901e-06
0.000543902
6.43883e-06
0.000543924
7.03263e-06
0.000543966
7.36132e-06
0.000544029
7.47631e-06
0.00054411
7.42281e-06
0.000544205
7.24079e-06
0.00054431
6.96502e-06
0.000544422
6.62497e-06
0.000544537
6.24482e-06
0.000544653
5.84384e-06
0.000544767
5.43686e-06
0.000544878
5.03487e-06
0.000544986
4.64573e-06
0.000545088
4.27472e-06
0.000545186
3.92487e-06
0.000545278
3.59708e-06
3.2897e-06
0.000545365
0.000559024
2.37624e-06
0.00055901
4.21139e-06
0.000559004
5.52479e-06
0.000559015
6.42854e-06
0.000559045
7.00247e-06
0.000559096
7.31042e-06
0.000559166
7.40609e-06
0.000559253
7.33617e-06
0.000559352
7.14137e-06
0.000559461
6.85663e-06
0.000559575
6.51114e-06
0.000559691
6.12864e-06
0.000559807
5.7278e-06
0.000559921
5.32285e-06
0.000560032
4.92429e-06
0.000560138
4.53954e-06
0.000560239
4.17349e-06
0.000560335
3.82892e-06
0.000560426
3.50657e-06
3.20475e-06
0.00056051
0.000574531
2.38374e-06
0.000574523
4.21896e-06
0.000574526
5.52215e-06
0.000574545
6.40929e-06
0.000574584
6.96354e-06
0.000574643
7.25152e-06
0.00057472
7.32902e-06
0.000574812
7.24402e-06
0.000574916
7.0378e-06
0.000575027
6.74535e-06
0.000575142
6.39554e-06
0.00057526
6.01162e-06
0.000575376
5.61165e-06
0.000575489
5.20934e-06
0.000575599
4.81465e-06
0.000575704
4.43461e-06
0.000575804
4.07374e-06
0.000575898
3.7346e-06
0.000575987
3.41778e-06
3.12156e-06
0.00057607
0.000590468
2.38797e-06
0.000590466
4.22044e-06
0.000590477
5.51186e-06
0.000590505
6.38177e-06
0.000590552
6.91652e-06
0.000590618
7.18529e-06
0.000590701
7.24573e-06
0.000590798
7.14691e-06
0.000590906
6.93056e-06
0.000591019
6.63158e-06
0.000591137
6.27851e-06
0.000591254
5.89401e-06
0.00059137
5.49563e-06
0.000591483
5.09646e-06
0.000591592
4.70607e-06
0.000591695
4.33099e-06
0.000591794
3.97552e-06
0.000591886
3.64193e-06
0.000591973
3.33071e-06
3.04013e-06
0.000592055
0.000606846
2.38804e-06
0.000606851
4.2152e-06
0.000606869
5.49359e-06
0.000606905
6.34594e-06
0.00060696
6.86158e-06
0.000607033
7.11203e-06
0.000607122
7.15659e-06
0.000607224
7.04525e-06
0.000607335
6.82003e-06
0.00060745
6.51569e-06
0.000607569
6.16033e-06
0.000607687
5.77607e-06
0.000607802
5.37989e-06
0.000607914
4.98439e-06
0.000608022
4.59861e-06
0.000608124
4.22878e-06
0.000608221
3.87886e-06
0.000608312
3.55094e-06
0.000608397
3.24537e-06
2.96043e-06
0.000608477
0.000623679
2.38489e-06
0.00062369
4.20413e-06
0.000623715
5.46813e-06
0.000623759
6.30253e-06
0.000623821
6.7994e-06
0.000623901
7.03237e-06
0.000623995
7.06218e-06
0.000624101
6.93955e-06
0.000624214
6.70666e-06
0.000624332
6.39803e-06
0.000624451
6.04129e-06
0.000624569
5.65803e-06
0.000624685
5.26464e-06
0.000624796
4.87322e-06
0.000624902
4.49238e-06
0.000625003
4.12801e-06
0.000625098
3.78379e-06
0.000625187
3.46162e-06
0.000625271
3.16176e-06
2.88247e-06
0.000625349
0.000640978
2.3778e-06
0.000640995
4.18674e-06
0.000641028
5.43529e-06
0.000641078
6.25159e-06
0.000641148
6.7302e-06
0.000641233
6.94665e-06
0.000641333
6.96288e-06
0.000641442
6.8302e-06
0.000641558
6.5908e-06
0.000641677
6.2789e-06
0.000641797
5.92165e-06
0.000641915
5.54006e-06
0.000642029
5.15001e-06
0.000642139
4.76306e-06
0.000642244
4.38746e-06
0.000642344
4.02874e-06
0.000642437
3.69034e-06
0.000642525
3.374e-06
0.000642607
3.07986e-06
2.80622e-06
0.000642683
0.000658756
2.36767e-06
0.000658779
4.16391e-06
0.000658819
5.39585e-06
0.000658877
6.19383e-06
0.000658952
6.65466e-06
0.000659043
6.85548e-06
0.000659147
6.85925e-06
0.00065926
6.71766e-06
0.000659378
6.47283e-06
0.000659498
6.15862e-06
0.000659618
5.80166e-06
0.000659736
5.42239e-06
0.000659849
5.03613e-06
0.000659959
4.65403e-06
0.000660062
4.2839e-06
0.00066016
3.93101e-06
0.000660252
3.59853e-06
0.000660338
3.28807e-06
0.000660418
2.99967e-06
2.73166e-06
0.000660492
0.000677027
2.35391e-06
0.000677056
4.13528e-06
0.000677102
5.34973e-06
0.000677166
6.12939e-06
0.000677248
6.57304e-06
0.000677344
6.75921e-06
0.000677452
6.75165e-06
0.000677567
6.60229e-06
0.000677687
6.35309e-06
0.000677808
6.03748e-06
0.000677928
5.68153e-06
0.000678046
5.30516e-06
0.000678159
4.92314e-06
0.000678266
4.5462e-06
0.000678368
4.18178e-06
0.000678465
3.83484e-06
0.000678555
3.50838e-06
0.000678639
3.20383e-06
0.000678718
2.92119e-06
2.65878e-06
0.00067879
0.000695805
2.33736e-06
0.000695839
4.1017e-06
0.000695891
5.29771e-06
0.000695962
6.05899e-06
0.000696049
6.48601e-06
0.00069615
6.65843e-06
0.000696261
6.6406e-06
0.000696378
6.48453e-06
0.0006965
6.23192e-06
0.000696621
5.91573e-06
0.000696742
5.56149e-06
0.000696858
5.18853e-06
0.00069697
4.81116e-06
0.000697077
4.43965e-06
0.000697177
4.08112e-06
0.000697272
3.74027e-06
0.00069736
3.41989e-06
0.000697443
3.12128e-06
0.00069752
2.84438e-06
2.58755e-06
0.000697591
0.000715104
2.31753e-06
0.000715142
4.06292e-06
0.0007152
5.23977e-06
0.000715276
5.9828e-06
0.000715368
6.39384e-06
0.000715473
6.55347e-06
0.000715588
6.52643e-06
0.000715707
6.36469e-06
0.00071583
6.1096e-06
0.000715952
5.79363e-06
0.000716072
5.4417e-06
0.000716188
5.07265e-06
0.000716299
4.70027e-06
0.000716404
4.33445e-06
0.000716503
3.98198e-06
0.000716596
3.64731e-06
0.000716683
3.33306e-06
0.000716764
3.04041e-06
0.000716839
2.76925e-06
2.51795e-06
0.000716908
0.000734937
2.29524e-06
0.00073498
4.01977e-06
0.000735043
5.1767e-06
0.000735125
5.90153e-06
0.000735221
6.29718e-06
0.00073533
6.4449e-06
0.000735447
6.40962e-06
0.000735568
6.24315e-06
0.000735692
5.98644e-06
0.000735814
5.67138e-06
0.000735933
5.32236e-06
0.000736048
4.95763e-06
0.000736158
4.59057e-06
0.000736262
4.23065e-06
0.000736359
3.88439e-06
0.000736451
3.55598e-06
0.000736536
3.24789e-06
0.000736615
2.96121e-06
0.000736689
2.69576e-06
2.44996e-06
0.000736757
0.00075532
2.27001e-06
0.000755367
3.97206e-06
0.000755436
5.10853e-06
0.000755522
5.81537e-06
0.000755623
6.19632e-06
0.000755734
6.33303e-06
0.000755854
6.29049e-06
0.000755977
6.12022e-06
0.0007561
5.86268e-06
0.000756223
5.5492e-06
0.000756341
5.20359e-06
0.000756455
4.8436e-06
0.000756564
4.48212e-06
0.000756666
4.12831e-06
0.000756762
3.78836e-06
0.000756852
3.46628e-06
0.000756935
3.16439e-06
0.000757013
2.88366e-06
0.000757085
2.62389e-06
2.38354e-06
0.000757151
0.000776268
2.24271e-06
0.000776319
3.92061e-06
0.000776392
5.03602e-06
0.000776483
5.72502e-06
0.000776587
6.09186e-06
0.000776702
6.21839e-06
0.000776823
6.16946e-06
0.000776947
5.99622e-06
0.000777071
5.73858e-06
0.000777193
5.42729e-06
0.000777311
5.08556e-06
0.000777424
4.73064e-06
0.000777531
4.37501e-06
0.000777632
4.02744e-06
0.000777726
3.69392e-06
0.000777815
3.37822e-06
0.000777896
3.08253e-06
0.000777972
2.80774e-06
0.000778043
2.55362e-06
2.31867e-06
0.000778107
0.000797796
2.21281e-06
0.000797852
3.86524e-06
0.000797928
4.95923e-06
0.000798023
5.63068e-06
0.000798131
5.98407e-06
0.000798248
6.10127e-06
0.00079837
6.04683e-06
0.000798495
5.87142e-06
0.00079862
5.61437e-06
0.000798741
5.3058e-06
0.000798858
4.96838e-06
0.00079897
4.61884e-06
0.000799076
4.26926e-06
0.000799175
3.9281e-06
0.000799268
3.60107e-06
0.000799354
3.29178e-06
0.000799435
3.00229e-06
0.000799509
2.73343e-06
0.000799578
2.48492e-06
2.25532e-06
0.000799641
0.000819922
2.18122e-06
0.00081998
3.80679e-06
0.000820061
4.87891e-06
0.000820159
5.533e-06
0.000820269
5.87353e-06
0.000820389
5.98213e-06
0.000820513
5.92296e-06
0.000820638
5.7461e-06
0.000820762
5.49025e-06
0.000820883
5.18491e-06
0.000820999
4.85216e-06
0.00082111
4.50828e-06
0.000821214
4.16494e-06
0.000821312
3.83029e-06
0.000821403
3.50982e-06
0.000821488
3.20697e-06
0.000821567
2.92368e-06
0.000821639
2.6607e-06
0.000821707
2.41777e-06
2.19345e-06
0.000821768
0.000842661
2.14739e-06
0.000842722
3.74506e-06
0.000842806
4.79509e-06
0.000842907
5.43218e-06
0.00084302
5.76048e-06
0.000843141
5.86126e-06
0.000843266
5.79811e-06
0.000843391
5.62048e-06
0.000843515
5.3664e-06
0.000843635
5.06473e-06
0.000843751
4.73701e-06
0.00084386
4.39902e-06
0.000843963
4.06208e-06
0.000844059
3.73403e-06
0.000844149
3.42016e-06
0.000844232
3.12375e-06
0.000844309
2.84665e-06
0.00084438
2.58953e-06
0.000844446
2.35212e-06
2.13303e-06
0.000844506
0.00086603
2.11225e-06
0.000866094
3.68088e-06
0.000866181
4.70852e-06
0.000866284
5.32883e-06
0.000866399
5.64545e-06
0.000866522
5.73907e-06
0.000866647
5.67261e-06
0.000866773
5.49481e-06
0.000866896
5.243e-06
0.000867016
4.9454e-06
0.00086713
4.62298e-06
0.000867238
4.2911e-06
0.000867339
3.96068e-06
0.000867434
3.63933e-06
0.000867522
3.33209e-06
0.000867603
3.04213e-06
0.000867679
2.77118e-06
0.000867749
2.51989e-06
0.000867813
2.28794e-06
2.07402e-06
0.000867872
0.000890046
2.07522e-06
0.000890113
3.61406e-06
0.000890203
4.61923e-06
0.000890308
5.22313e-06
0.000890425
5.52867e-06
0.000890548
5.6158e-06
0.000890674
5.54668e-06
0.0008908
5.36928e-06
0.000890923
5.1202e-06
0.000891041
4.82702e-06
0.000891154
4.51018e-06
0.000891261
4.18457e-06
0.00089136
3.86079e-06
0.000891454
3.54618e-06
0.00089154
3.24559e-06
0.00089162
2.96207e-06
0.000891694
2.69725e-06
0.000891762
2.45173e-06
0.000891825
2.2252e-06
2.01639e-06
0.000891883
0.000914729
2.03725e-06
0.000914798
3.54541e-06
0.00091489
4.5279e-06
0.000914997
5.11564e-06
0.000915115
5.41058e-06
0.000915239
5.4918e-06
0.000915366
5.42058e-06
0.000915491
5.24407e-06
0.000915613
4.99814e-06
0.00091573
4.70969e-06
0.000915842
4.39864e-06
0.000915947
4.07945e-06
0.000916045
3.7624e-06
0.000916137
3.45457e-06
0.000916222
3.16065e-06
0.0009163
2.88354e-06
0.000916373
2.62481e-06
0.00091644
2.38502e-06
0.000916501
2.16386e-06
1.96009e-06
0.000916557
0.000940096
1.99775e-06
0.000940167
3.47472e-06
0.00094026
4.43456e-06
0.000940369
5.00651e-06
0.000940489
5.2914e-06
0.000940613
5.36728e-06
0.000940739
5.29451e-06
0.000940864
5.11935e-06
0.000940985
4.87691e-06
0.000941101
4.59348e-06
0.000941212
4.28841e-06
0.000941315
3.97578e-06
0.000941412
3.66552e-06
0.000941502
3.3645e-06
0.000941586
3.07723e-06
0.000941663
2.80652e-06
0.000941734
2.55384e-06
0.000941799
2.31974e-06
0.000941859
2.10388e-06
1.90509e-06
0.000941914
0.000966166
1.95765e-06
0.000966239
3.40276e-06
0.000966333
4.33983e-06
0.000966444
4.89625e-06
0.000966564
5.17151e-06
0.000966689
5.24254e-06
0.000966814
5.16867e-06
0.000966939
4.99527e-06
0.000967059
4.75665e-06
0.000967174
4.47844e-06
0.000967283
4.17953e-06
0.000967385
3.87354e-06
0.00096748
3.57014e-06
0.000967569
3.27594e-06
0.000967651
2.99532e-06
0.000967727
2.73096e-06
0.000967796
2.4843e-06
0.00096786
2.25582e-06
0.000967919
2.04522e-06
1.85134e-06
0.000967972
0.000992959
1.91634e-06
0.000993033
3.32931e-06
0.000993129
4.24373e-06
0.00099324
4.78498e-06
0.000993361
5.05109e-06
0.000993486
5.11776e-06
0.000993611
5.04324e-06
0.000993734
4.87193e-06
0.000993854
4.63742e-06
0.000993967
4.36466e-06
0.000994075
4.07202e-06
0.000994176
3.77276e-06
0.00099427
3.47624e-06
0.000994357
3.18887e-06
0.000994437
2.91488e-06
0.000994511
2.65685e-06
0.00099458
2.41615e-06
0.000994642
2.19325e-06
0.0009947
1.98784e-06
1.79881e-06
0.000994752
0.0010205
1.87471e-06
0.00102057
3.25506e-06
0.00102067
4.1468e-06
0.00102078
4.67313e-06
0.0010209
4.93046e-06