/*--------------------------------*- C++ -*----------------------------------*\
| =========                 |                                                 |
| \\      /  F ield         | OpenFOAM: The Open Source CFD Toolbox           |
|  \\    /   O peration     | Version:  2.4.0                                 |
|   \\  /    A nd           | Web:      www.OpenFOAM.org                      |
|    \\/     M anipulation  |                                                 |
\*---------------------------------------------------------------------------*/
FoamFile
{
    version     2.0;
    format      ascii;
    class       volScalarField;
    location    "3.6";
    object      nut;
}
// * * * * * * * * * * * * * * * * * * * * * * * * * * * * * * * * * * * * * //

dimensions      [0 2 -1 0 0 0 0];

internalField   nonuniform List<scalar> 
6000
(
4.70152e-05
1.44401e-05
4.25076e-06
8.77594e-06
7.78975e-06
8.92961e-06
8.57408e-06
8.95138e-06
8.83258e-06
9.04572e-06
9.08711e-06
9.32008e-06
9.54907e-06
9.94e-06
1.03969e-05
1.0949e-05
1.15166e-05
1.20935e-05
1.26697e-05
1.32959e-05
1.40292e-05
1.49305e-05
1.60289e-05
1.73202e-05
1.87657e-05
2.03078e-05
2.18833e-05
2.34349e-05
2.49145e-05
2.62823e-05
2.75033e-05
2.85435e-05
2.93666e-05
2.9932e-05
3.01918e-05
3.00866e-05
2.95531e-05
2.85204e-05
2.69146e-05
2.46812e-05
2.18218e-05
1.84202e-05
1.6098e-05
1.94237e-05
2.2941e-05
2.63184e-05
2.9292e-05
3.1751e-05
3.35862e-05
3.49031e-05
3.56009e-05
3.60493e-05
3.58625e-05
3.59991e-05
3.50844e-05
3.56936e-05
3.37602e-05
3.59894e-05
3.21999e-05
3.71053e-05
2.94898e-05
9.5061e-06
3.16859e-06
7.01469e-06
6.32361e-06
7.01948e-06
6.78018e-06
7.01722e-06
6.95021e-06
7.10147e-06
7.15969e-06
7.3524e-06
7.56485e-06
7.8979e-06
8.2946e-06
8.76852e-06
9.27429e-06
9.81261e-06
1.03898e-05
1.10472e-05
1.18261e-05
1.2757e-05
1.38393e-05
1.50452e-05
1.63289e-05
1.76405e-05
1.89359e-05
2.01813e-05
2.13536e-05
2.24389e-05
2.34294e-05
2.43221e-05
2.51179e-05
2.58228e-05
2.6447e-05
2.7009e-05
2.75582e-05
2.81962e-05
2.91322e-05
3.08053e-05
3.41365e-05
4.07266e-05
4.32682e-05
3.3836e-05
2.88067e-05
2.64803e-05
2.55207e-05
2.51903e-05
2.50855e-05
2.50341e-05
2.48899e-05
2.47209e-05
2.43505e-05
2.41327e-05
2.35145e-05
2.35597e-05
2.25353e-05
2.33781e-05
2.15311e-05
2.35785e-05
2.14309e-05
8.15949e-06
2.81619e-06
5.88994e-06
5.32767e-06
5.68454e-06
5.50249e-06
5.64022e-06
5.60743e-06
5.72653e-06
5.81244e-06
6.00625e-06
6.24795e-06
6.59878e-06
7.03121e-06
7.55429e-06
8.15354e-06
8.84464e-06
9.65676e-06
1.06362e-05
1.18205e-05
1.32175e-05
1.47957e-05
1.64955e-05
1.82525e-05
2.00126e-05
2.1738e-05
2.34073e-05
2.50139e-05
2.65648e-05
2.80801e-05
2.95945e-05
3.11607e-05
3.28577e-05
3.47904e-05
3.70873e-05
4.00132e-05
4.40018e-05
4.98282e-05
5.89115e-05
7.38165e-05
9.76308e-05
0.000103553
7.3339e-05
5.28848e-05
4.04254e-05
3.28771e-05
2.81572e-05
2.50923e-05
2.29854e-05
2.14596e-05
2.02789e-05
1.93061e-05
1.8509e-05
1.77473e-05
1.72426e-05
1.65099e-05
1.64558e-05
1.55152e-05
1.59686e-05
1.78746e-05
7.96896e-06
2.98962e-06
5.2612e-06
4.70519e-06
4.77021e-06
4.59892e-06
4.65918e-06
4.64897e-06
4.75789e-06
4.88575e-06
5.11976e-06
5.44009e-06
5.88706e-06
6.46081e-06
7.17862e-06
8.06314e-06
9.16051e-06
1.05392e-05
1.22708e-05
1.44043e-05
1.69312e-05
1.97831e-05
2.28594e-05
2.60683e-05
2.93441e-05
3.26475e-05
3.59613e-05
3.92897e-05
4.26611e-05
4.61325e-05
4.97962e-05
5.37905e-05
5.83235e-05
6.35737e-05
6.98404e-05
7.77025e-05
8.79929e-05
0.000102051
0.000121999
0.00015093
0.00018979
0.000193025
0.000144609
0.000105097
7.70562e-05
5.79108e-05
4.48644e-05
3.59298e-05
2.96644e-05
2.52244e-05
2.19257e-05
1.94873e-05
1.75256e-05
1.60523e-05
1.47527e-05
1.38011e-05
1.29618e-05
1.22771e-05
1.17466e-05
1.67546e-05
8.44487e-06
3.5368e-06
5.03996e-06
4.40773e-06
4.18793e-06
3.98545e-06
3.97633e-06
3.98064e-06
4.09786e-06
4.28752e-06
4.60597e-06
5.0679e-06
5.70964e-06
6.56582e-06
7.68077e-06
9.13339e-06
1.10271e-05
1.34965e-05
1.66601e-05
2.05869e-05
2.52471e-05
3.05292e-05
3.62944e-05
4.24341e-05
4.88781e-05
5.55818e-05
6.2518e-05
6.9683e-05
7.71094e-05
8.48752e-05
9.3118e-05
0.000102048
0.000111975
0.000122855
0.000135245
0.000149849
0.000167584
0.000189792
0.000218348
0.000255476
0.000298228
0.000294937
0.000238168
0.000184603
0.000140993
0.000107284
8.1834e-05
6.29753e-05
4.90565e-05
3.88975e-05
3.1336e-05
2.57905e-05
2.1478e-05
1.83499e-05
1.56474e-05
1.38588e-05
1.20259e-05
1.10649e-05
9.76036e-06
1.71085e-05
9.39779e-06
4.39329e-06
5.14863e-06
4.41315e-06
3.89301e-06
3.61641e-06
3.535e-06
3.54776e-06
3.69106e-06
3.97052e-06
4.42996e-06
5.12126e-06
6.09596e-06
7.44021e-06
9.25406e-06
1.17045e-05
1.49855e-05
1.9316e-05
2.48547e-05
3.16612e-05
3.966e-05
4.87046e-05
5.86554e-05
6.9425e-05
8.09493e-05
9.31552e-05
0.000105957
0.000119277
0.000133079
0.000147382
0.000162275
0.000177934
0.000194471
0.000211556
0.000229891
0.000250068
0.00027281
0.00029913
0.000330369
0.000367848
0.000405512
0.000395867
0.000338548
0.00027881
0.000224928
0.000178782
0.00014042
0.000109426
8.48941e-05
6.59591e-05
5.13991e-05
4.04176e-05
3.1931e-05
2.56803e-05
2.05206e-05
1.6987e-05
1.36222e-05
1.17735e-05
9.61058e-06
1.83892e-05
1.07092e-05
5.5181e-06
5.50706e-06
4.69862e-06
3.87016e-06
3.47349e-06
3.30735e-06
3.32324e-06
3.51201e-06
3.92059e-06
4.5978e-06
5.64363e-06
7.14884e-06
9.27777e-06
1.22219e-05
1.62691e-05
2.17168e-05
2.88374e-05
3.77571e-05
4.84539e-05
6.07963e-05
7.46602e-05
8.99813e-05
0.000106728
0.000124819
0.000144081
0.000164273
0.000185141
0.000206478
0.000228143
0.00025009
0.000272385
0.000294588
0.000316484
0.000338729
0.000361755
0.000386075
0.000412411
0.000441724
0.000474638
0.000503553
0.000489175
0.000435033
0.000374719
0.00031625
0.000262278
0.000213914
0.000171855
0.000136264
0.000107073
8.35745e-05
6.50833e-05
5.05208e-05
3.94404e-05
3.04982e-05
2.40176e-05
1.83075e-05
1.47454e-05
1.14047e-05
2.02058e-05
1.22754e-05
6.868e-06
6.06285e-06
5.20983e-06
4.11717e-06
3.55726e-06
3.287e-06
3.30082e-06
3.55808e-06
4.14985e-06
5.14933e-06
6.7224e-06
9.02644e-06
1.23328e-05
1.69534e-05
2.33025e-05
3.17382e-05
4.24812e-05
5.55082e-05
7.06691e-05
8.78384e-05
0.000107023
0.000128301
0.000151685
0.000177004
0.000203884
0.000231832
0.000260342
0.000288984
0.000317429
0.000345473
0.000373041
0.000399146
0.000423971
0.000448019
0.000471595
0.000495069
0.00051897
0.000544052
0.000570305
0.000590025
0.000572421
0.000522495
0.000464379
0.000405111
0.000347427
0.000292847
0.000242653
0.000197789
0.000158966
0.000126246
9.93559e-05
7.75151e-05
6.02769e-05
4.63989e-05
3.57723e-05
2.68537e-05
2.05828e-05
1.56049e-05
2.2247e-05
1.39957e-05
8.39099e-06
6.80868e-06
5.86448e-06
4.62005e-06
3.87545e-06
3.4821e-06
3.48965e-06
3.84379e-06
4.68955e-06
6.14645e-06
8.4662e-06
1.18964e-05
1.68316e-05
2.37054e-05
3.3012e-05
4.50647e-05
5.9897e-05
7.72655e-05
9.69401e-05
0.000118924
0.00014345
0.000170743
0.000200802
0.000233273
0.000267509
0.000302717
0.000338129
0.000373103
0.000407148
0.000439932
0.000471149
0.000499681
0.000525938
0.000550302
0.00057299
0.000594282
0.000614598
0.000634571
0.000653681
0.000665022
0.000645158
0.000599163
0.000544166
0.000486063
0.00042739
0.000369715
0.000314488
0.00026302
0.000216512
0.00017569
0.000140784
0.000111496
8.75441e-05
6.80888e-05
5.24911e-05
3.97214e-05
2.98355e-05
2.27723e-05
2.42784e-05
1.57761e-05
1.0028e-05
7.74736e-06
6.60484e-06
5.32841e-06
4.42336e-06
3.90367e-06
3.90546e-06
4.3913e-06
5.57616e-06
7.64869e-06
1.09606e-05
1.58596e-05
2.28532e-05
3.24572e-05
4.5152e-05
6.10867e-05
8.00284e-05
0.000101549
0.000125456
0.000151985
0.000181612
0.000214667
0.00025105
0.000290167
0.000331065
0.000372664
0.000413962
0.000454147
0.000492604
0.000528919
0.000562484
0.000592367
0.000619036
0.000642781
0.000663762
0.000682208
0.000698483
0.000713126
0.00072539
0.000729434
0.000707774
0.0006649
0.000612958
0.000556791
0.000498652
0.000440005
0.000382245
0.000326745
0.000274893
0.000227814
0.000186156
0.000150107
0.000119651
9.45389e-05
7.36701e-05
5.67573e-05
4.26924e-05
3.32363e-05
2.61485e-05
1.75361e-05
1.17182e-05
8.86507e-06
7.42471e-06
6.16183e-06
5.16403e-06
4.54662e-06
4.55478e-06
5.21309e-06
6.82696e-06
9.67486e-06
1.42103e-05
2.08712e-05
3.02386e-05
4.284e-05
5.90422e-05
7.87595e-05
0.000101514
0.000126801
0.000154571
0.000185319
0.000219725
0.000258145
0.000300329
0.000345415
0.000392158
0.000439227
0.000485431
0.000529827
0.000571708
0.000610619
0.000645583
0.000676069
0.000702477
0.000725023
0.000743832
0.000759111
0.000771214
0.000780605
0.000786567
0.000784296
0.000760964
0.000720258
0.000670867
0.000616741
0.000559856
0.000501525
0.000442998
0.00038554
0.000330512
0.000279177
0.000232437
0.000190848
0.000154665
0.000124275
9.83029e-05
7.7271e-05
5.88853e-05
4.69069e-05
2.77812e-05
1.92134e-05
1.34042e-05
1.01285e-05
8.34675e-06
7.05658e-06
6.03148e-06
5.37288e-06
5.41519e-06
6.28899e-06
8.41054e-06
1.21647e-05
1.80957e-05
2.67052e-05
3.85909e-05
5.42183e-05
7.37747e-05
9.69453e-05
0.000123096
0.00015176
0.000183074
0.000217758
0.000256616
0.000299968
0.000347386
0.000397745
0.000449549
0.000501255
0.000551526
0.000599317
0.000643846
0.000684591
0.000720337
0.000750903
0.000776589
0.000797561
0.000813923
0.000825882
0.000833809
0.000838173
0.000838373
0.00083057
0.000805485
0.000766036
0.000718537
0.000666224
0.000610836
0.000553533
0.000495392
0.000437495
0.000381058
0.00032729
0.000277189
0.000231512
0.000190722
0.000155761
0.000125195
0.000100301
7.7805e-05
6.33188e-05
2.91564e-05
2.07657e-05
1.50372e-05
1.14922e-05
9.38585e-06
7.99686e-06
6.96432e-06
6.31725e-06
6.42761e-06
7.55232e-06
1.0231e-05
1.49663e-05
2.23751e-05
3.29907e-05
4.73713e-05
6.58655e-05
8.84651e-05
0.000114685
0.00014384
0.000175572
0.000210199
0.00024859
0.000291597
0.000339459
0.000391563
0.000446553
0.000502721
0.000558355
0.000612002
0.000662534
0.000709107
0.000751074
0.000787188
0.000817451
0.00084209
0.000861229
0.000874969
0.00088353
0.000887348
0.000886934
0.000881833
0.00086908
0.000842059
0.000803064
0.00075679
0.000705927
0.000652018
0.000596085
0.00053904
0.000481757
0.000425248
0.000370559
0.000318656
0.00027035
0.000226215
0.00018759
0.000153169
0.000124838
9.86782e-05
8.17959e-05
3.02874e-05
2.21687e-05
1.65792e-05
1.29057e-05
1.05378e-05
8.99965e-06
7.93595e-06
7.31883e-06
7.51548e-06
8.90309e-06
1.21444e-05
1.78653e-05
2.67395e-05
3.93034e-05
5.60336e-05
7.71337e-05
0.000102419
0.000131311
0.000163156
0.000197737
0.000235512
0.000277422
0.000324304
0.000376281
0.000432572
0.000491621
0.000551553
0.000610519
0.000666974
0.000719722
0.000767863
0.000810585
0.000846744
0.000876413
0.000899757
0.000916875
0.00092787
0.000933001
0.00093281
0.000927835
0.000917802
0.000900513
0.000871338
0.000832118
0.000786462
0.000736652
0.000684077
0.000629641
0.000574104
0.000518134
0.000462521
0.000408091
0.000355698
0.000306094
0.000259863
0.000218576
0.000181162
0.000149939
0.000120702
0.000101603
3.12038e-05
2.34132e-05
1.80039e-05
1.43203e-05
1.17815e-05
1.0084e-05
8.95314e-06
8.34878e-06
8.61941e-06
1.02456e-05
1.4004e-05
2.06453e-05
3.08908e-05
4.52623e-05
6.41306e-05
8.75466e-05
0.000115185
0.000146435
0.000180733
0.000218002
0.000258797
0.000304062
0.000354563
0.000410294
0.000470323
0.00053293
0.000596112
0.000657908
0.000716701
0.000771232
0.000820557
0.000863663
0.000899605
0.000928447
0.000950302
0.000965249
0.000973405
0.000975122
0.000971011
0.000961651
0.000946975
0.000925434
0.00089389
0.000853892
0.00080833
0.000759195
0.00070776
0.00065483
0.000601025
0.000546819
0.000492783
0.0004395
0.000387664
0.0003379
0.000290719
0.000247771
0.00020827
0.000174776
0.000143122
0.000122039
3.19397e-05
2.45012e-05
1.9296e-05
1.56928e-05
1.3084e-05
1.12554e-05
1.00346e-05
9.41185e-06
9.71748e-06
1.1523e-05
1.57061e-05
2.31429e-05
3.46037e-05
5.05908e-05
7.13603e-05
9.68158e-05
0.000126521
0.000159883
0.000196446
0.000236271
0.000279965
0.000328424
0.000382305
0.00044146
0.000504827
0.000570554
0.000636542
0.00070074
0.000761472
0.000817421
0.000867611
0.000910798
0.000946304
0.000974124
0.000994328
0.00100698
0.00101225
0.00101058
0.00100261
0.000989014
0.00096991
0.000944312
0.000910206
0.000868987
0.000823086
0.000774294
0.000723799
0.000672324
0.000620362
0.000568206
0.000516217
0.000464733
0.000414266
0.000365262
0.000318135
0.000274466
0.000233764
0.000198658
0.000165266
0.000142479
3.2528e-05
2.5442e-05
2.04498e-05
1.69884e-05
1.44068e-05
1.25039e-05
1.11953e-05
1.05291e-05
1.08205e-05
1.27253e-05
1.72089e-05
2.5274e-05
3.77512e-05
5.51315e-05
7.75617e-05
0.000104807
0.000136344
0.000171616
0.000210285
0.000252535
0.000298995
0.000350482
0.000407512
0.000469788
0.000536136
0.000604596
0.000673003
0.00073923
0.000801556
0.000858609
0.000909335
0.000952402
0.000987284
0.00101391
0.00103233
0.00104259
0.00104495
0.00103991
0.00102815
0.00101043
0.00098706
0.000957539
0.000920711
0.000877924
0.000831334
0.000782605
0.000732868
0.000682776
0.000632705
0.00058278
0.00053316
0.000483948
0.000435466
0.000387954
0.000341718
0.000298167
0.000257088
0.000221029
0.000186566
0.000162394
3.29975e-05
2.62487e-05
2.14668e-05
1.81818e-05
1.57105e-05
1.38068e-05
1.24379e-05
1.17192e-05
1.19588e-05
1.38769e-05
1.85243e-05
2.70281e-05
4.02962e-05
5.883e-05
8.26833e-05
0.000111497
0.000144665
0.000181678
0.000222302
0.00026683
0.000315904
0.000370236
0.000430187
0.000495302
0.000564309
0.000635159
0.000705644
0.000773572
0.000837188
0.000895066
0.00094605
0.000988815
0.0010229
0.0010482
0.0010647
0.00107252
0.00107195
0.00106355
0.00104806
0.00102629
0.000998792
0.000965443
0.000925769
0.000881152
0.0008336
0.00078471
0.000735577
0.000686795
0.00063863
0.000591052
0.000544023
0.000497426
0.000451389
0.000405941
0.000361274
0.000318566
0.000277845
0.000241465
0.000206563
0.000181351
3.33724e-05
2.69367e-05
2.2354e-05
1.92575e-05
1.69583e-05
1.51329e-05
1.37523e-05
1.29917e-05
1.31661e-05
1.50174e-05
1.96974e-05
2.84464e-05
4.22683e-05
6.17059e-05
8.67473e-05
0.000116924
0.000151549
0.000190149
0.000232575
0.000279215
0.00033072
0.000387696
0.00045034
0.000518027
0.0005894
0.000662331
0.000734589
0.000803923
0.000868557
0.000927011
0.00097801
0.00102031
0.00105345
0.00107728
0.00109178
0.00109711
0.00109362
0.00108187
0.00106268
0.00103695
0.00100541
0.000968308
0.000925699
0.00087906
0.000830342
0.000781119
0.000732469
0.000684935
0.000638681
0.000593524
0.000549243
0.000505509
0.000462261
0.00041932
0.000376757
0.000335503
0.000295777
0.000259664
0.000224902
0.000199014
3.3672e-05
2.75213e-05
2.31218e-05
2.02086e-05
1.81196e-05
1.64461e-05
1.51174e-05
1.43445e-05
1.44596e-05
1.62009e-05
2.07865e-05
2.95981e-05
4.37379e-05
6.3826e-05
8.98205e-05
0.000121165
0.000157086
0.000197127
0.000241194
0.000289759
0.000343486
0.00040288
0.000467981
0.000537985
0.000611452
0.000686182
0.000759936
0.000830409
0.000895811
0.000954616
0.00100541
0.00104709
0.00107915
0.00110139
0.00111384
0.00111666
0.00111022
0.00109515
0.00107229
0.00104267
0.00100718
0.00096638
0.000920785
0.000871993
0.000821964
0.000772285
0.000724031
0.000677702
0.00063336
0.000590679
0.000549258
0.00050857
0.000468367
0.000428269
0.000388233
0.000348935
0.000310746
0.000275427
0.000241327
0.000215132
3.3912e-05
2.8017e-05
2.37826e-05
2.10353e-05
1.91715e-05
1.77097e-05
1.65035e-05
1.57648e-05
1.5843e-05
1.74726e-05
2.18564e-05
3.0563e-05
4.47966e-05
6.52833e-05
9.19937e-05
0.000124313
0.00016137
0.00020271
0.000248252
0.000298536
0.000354247
0.000415813
0.000483123
0.000555191
0.000630496
0.000706763
0.000781759
0.000853123
0.000919065
0.000977994
0.00102842
0.00106932
0.00110016
0.00112075
0.0011311
0.00113139
0.001122
0.00110361
0.00107713
0.00104367
0.00100431
0.000959882
0.00091128
0.000860258
0.000808828
0.000758617
0.000710706
0.000665555
0.000623133
0.000582971
0.000544494
0.000506988
0.000470021
0.000433022
0.00039584
0.000358907
0.000322705
0.000288648
0.000255669
0.000229534
3.41048e-05
2.8437e-05
2.43494e-05
2.17436e-05
2.00994e-05
1.88899e-05
1.78749e-05
1.72293e-05
1.73089e-05
1.88423e-05
2.29976e-05
3.14201e-05
4.55429e-05
6.61835e-05
9.33696e-05
0.000126466
0.000164498
0.00020699
0.000253836
0.000305622
0.000363061
0.000426526
0.000495784
0.00056966
0.000646555
0.000724112
0.000800113
0.000872136
0.000938402
0.000997237
0.00104713
0.00108712
0.00111666
0.00113553
0.00114374
0.00114148
0.00112915
0.00110746
0.00107739
0.00104016
0.000997003
0.000949015
0.00089742
0.00084414
0.00079127
0.000740491
0.000692901
0.000648925
0.000608436
0.000570831
0.000535363
0.00050114
0.000467551
0.000433844
0.000399767
0.000365528
0.000331683
0.000299291
0.000267833
0.000242115
3.42598e-05
2.87928e-05
2.48348e-05
2.23433e-05
2.08971e-05
1.99584e-05
1.91935e-05
1.87068e-05
1.88391e-05
2.03079e-05
2.42426e-05
3.22966e-05
4.6075e-05
6.66369e-05
9.40564e-05
0.000127722
0.00016656
0.000210055
0.000258031
0.000311094
0.00036999
0.000435064
0.00050599
0.00058141
0.000659648
0.000738255
0.000815034
0.000887497
0.000953882
0.0010124
0.00106162
0.0011006
0.00112877
0.00114588
0.00115192
0.00114709
0.00113182
0.00110686
0.00107325
0.00103231
0.000985439
0.000933972
0.000879428
0.000823907
0.000769602
0.000718263
0.000671006
0.00062822
0.000589686
0.000554671
0.000522261
0.000491396
0.000461289
0.000431015
0.000400236
0.000368951
0.000337762
0.000307383
0.000277789
0.000252825
3.43849e-05
2.90945e-05
2.52508e-05
2.28465e-05
2.15656e-05
2.08946e-05
2.04224e-05
2.01595e-05
2.04057e-05
2.18554e-05
2.55964e-05
3.32661e-05
4.65492e-05
6.67535e-05
9.41651e-05
0.000128183
0.000167642
0.000211985
0.000260918
0.000315036
0.000375109
0.000441484
0.000513782
0.000590467
0.000669798
0.000749216
0.000826552
0.000899228
0.000965483
0.00102353
0.00107199
0.00110988
0.00113661
0.00115192
0.00115577
0.00114836
0.00113015
0.00110195
0.00106486
0.00102028
0.000969788
0.000914939
0.000857524
0.000799821
0.000744133
0.000692281
0.000645398
0.000603837
0.000567289
0.000534893
0.000505578
0.000478122
0.000451571
0.000424827
0.000397492
0.000369364
0.000341069
0.000312995
0.000285555
0.000261664
3.44861e-05
2.93506e-05
2.56078e-05
2.32663e-05
2.21122e-05
2.16862e-05
2.15287e-05
2.15467e-05
2.19728e-05
2.34604e-05
2.70505e-05
3.43451e-05
4.70771e-05
6.67286e-05
9.38074e-05
0.00012795
0.000167831
0.000212856
0.000262573
0.000317529
0.000378505
0.000445864
0.000519219
0.000596874
0.000677034
0.000757019
0.000834611
0.0009073
0.000973255
0.00103072
0.00107831
0.00111504
0.00114028
0.00115374
0.00115538
0.00114539
0.00112428
0.00109287
0.00105235
0.00100423
0.000950215
0.000892101
0.000831926
0.000772145
0.000715172
0.000662895
0.00061646
0.000576179
0.000541652
0.000511901
0.000485702
0.000461684
0.00043873
0.000415584
0.000391793
0.000366976
0.000341763
0.000316235
0.000291192
0.00026867
3.4568e-05
2.95682e-05
2.59154e-05
2.36157e-05
2.2548e-05
2.23299e-05
2.24863e-05
2.28276e-05
2.3498e-05
2.50882e-05
2.85836e-05
3.55339e-05
4.76908e-05
6.66769e-05
9.32247e-05
0.000127144
0.000167212
0.000212742
0.000263071
0.000318657
0.00038027
0.000448296
0.000522382
0.000600694
0.000681321
0.000761598
0.000839237
0.000911751
0.000977255
0.00103403
0.00108067
0.00111617
0.00113987
0.00115145
0.00115086
0.00113831
0.00111431
0.00107975
0.00103588
0.000984298
0.000926886
0.00086565
0.000802864
0.000741151
0.000683038
0.000630468
0.000584586
0.000545659
0.000513196
0.000486106
0.000463027
0.00044245
0.000423108
0.000403593
0.000383412
0.000362018
0.000340024
0.00031724
0.000294797
0.000273911
3.46344e-05
2.97532e-05
2.61812e-05
2.39071e-05
2.28874e-05
2.28297e-05
2.3278e-05
2.39653e-05
2.49358e-05
2.66961e-05
3.01629e-05
3.68174e-05
4.84039e-05
6.66475e-05
9.24954e-05
0.000125965
0.000165982
0.000211741
0.000262483
0.000318504
0.000380506
0.000448889
0.000523287
0.000601888
0.000682683
0.000762999
0.000840471
0.000912622
0.000977541
0.00103352
0.00107913
0.00111334
0.00113545
0.00114513
0.00114231
0.0011272
0.00110036
0.0010627
0.00101556
0.000960639
0.000899974
0.000835787
0.000770575
0.000707128
0.000648069
0.000595382
0.000550195
0.000512716
0.000482363
0.000457939
0.000437962
0.000420803
0.000405054
0.000389172
0.000372631
0.000354731
0.000336057
0.000316172
0.00029649
0.00027748
3.46883e-05
2.99108e-05
2.6412e-05
2.41515e-05
2.31456e-05
2.31962e-05
2.3896e-05
2.4929e-05
2.62408e-05
2.82356e-05
3.17451e-05
3.81665e-05
4.9212e-05
6.66709e-05
9.1683e-05
0.000124493
0.000164215
0.000209978
0.000260922
0.000317155
0.000379269
0.000447671
0.000522013
0.000600546
0.000681195
0.000761281
0.000838365
0.000909961
0.000974178
0.00102926
0.00107377
0.00110661
0.00112711
0.00113486
0.00112981
0.00111218
0.00108254
0.00104186
0.000991536
0.000933409
0.000869661
0.000802727
0.000735322
0.000670389
0.000610632
0.000558053
0.00051374
0.000477822
0.000449625
0.000427861
0.000410943
0.000397144
0.000384932
0.000372653
0.000359746
0.000345373
0.000330079
0.000313213
0.000296417
0.000279487
3.47321e-05
3.00452e-05
2.66132e-05
2.43583e-05
2.33381e-05
2.34448e-05
2.4342e-05
2.56976e-05
2.73715e-05
2.96552e-05
3.32788e-05
3.95394e-05
5.00937e-05
6.67578e-05
9.0834e-05
0.000122797
0.000161983
0.000207512
0.00025844
0.000314665
0.000376637
0.000444742
0.000518673
0.000596778
0.000676954
0.000756527
0.000832985
0.000903858
0.00096724
0.00102133
0.00106464
0.00109609
0.00111492
0.00112074
0.00111347
0.00109334
0.00106095
0.00101733
0.000963956
0.000902775
0.000836142
0.000766704
0.000697387
0.000631273
0.000571127
0.000518935
0.000475712
0.000441491
0.000415498
0.000396367
0.000382433
0.000371898
0.000363127
0.000354381
0.000345067
0.000334218
0.000322327
0.000308559
0.000294744
0.000280075
3.47677e-05
3.01598e-05
2.67893e-05
2.45355e-05
2.34795e-05
2.35936e-05
2.46262e-05
2.62605e-05
2.82938e-05
3.09045e-05
3.47076e-05
4.08837e-05
5.10117e-05
6.68998e-05
8.9976e-05
0.000120933
0.000159353
0.000204406
0.000255086
0.000311088
0.000372683
0.000440206
0.000513392
0.000590713
0.000670079
0.000748838
0.000824417
0.000894406
0.000956816
0.0010098
0.00105185
0.00108183
0.00109898
0.00110286
0.00109338
0.0010708
0.00103573
0.000989268
0.000932971
0.000868916
0.000799632
0.00072798
0.000657087
0.000590161
0.000529997
0.000478526
0.000436652
0.000404283
0.000380541
0.000363996
0.000352936
0.000345524
0.000340049
0.000334725
0.000328921
0.000321551
0.000313052
0.000302426
0.000291653
0.000279405
3.47967e-05
3.02576e-05
2.69439e-05
2.46895e-05
2.35826e-05
2.36621e-05
2.47652e-05
2.66179e-05
2.89836e-05
3.19383e-05
3.59738e-05
4.21397e-05
5.19158e-05
6.70699e-05
8.91168e-05
0.000118943
0.000156385
0.000200718
0.000250914
0.000306476
0.000367476
0.000434161
0.0005063
0.000582494
0.000660708
0.00073834
0.000812791
0.000881722
0.000943013
0.000994785
0.00103549
0.00106396
0.00107938
0.00108132
0.00106966
0.00104467
0.001007
0.00095781
0.000898748
0.00083203
0.000760368
0.000686842
0.000614774
0.000547475
0.000487732
0.000437374
0.000397147
0.000366804
0.000345359
0.000331331
0.000322996
0.000318516
0.000316138
0.00031408
0.000311657
0.000307681
0.000302521
0.000295045
0.000287344
0.000277648
3.48202e-05
3.03412e-05
2.70801e-05
2.48253e-05
2.36587e-05
2.36693e-05
2.47807e-05
2.67806e-05
2.94291e-05
3.27201e-05
3.70223e-05
4.32436e-05
5.27451e-05
6.72248e-05
8.82442e-05
0.000116851
0.000153131
0.000196507
0.000245976
0.000300881
0.000361082
0.000426704
0.000497524
0.000572271
0.000648999
0.000725179
0.000798284
0.000865948
0.00092596
0.000976398
0.00101567
0.00104257
0.00105625
0.00105623
0.00104242
0.00101508
0.000974909
0.000923116
0.000861471
0.000792335
0.000718616
0.000643616
0.000570843
0.000503684
0.000444871
0.000396075
0.00035783
0.000329706
0.000310597
0.000298992
0.000293192
0.000291402
0.000291864
0.000292864
0.000293647
0.00029293
0.000291018
0.000286662
0.00028203
0.00027499
3.48393e-05
3.04127e-05
2.72004e-05
2.49467e-05
2.37168e-05
2.36332e-05
2.46966e-05
2.6768e-05
2.96316e-05
3.32254e-05
3.78056e-05
4.41328e-05
5.34332e-05
6.73082e-05
8.73275e-05
0.000114662
0.000149628
0.000191827
0.000240327
0.000294352
0.000353559
0.00041792
0.000487188
0.000560199
0.000635117
0.000709539
0.000781071
0.000847247
0.000905808
0.000954782
0.000992532
0.0010178
0.0010297
0.00102774
0.00101181
0.00098218
0.000939604
0.000885363
0.000821344
0.000750075
0.000674674
0.000598669
0.000525739
0.00045931
0.000402002
0.000355264
0.000319368
0.000293662
0.000276922
0.000267624
0.00026413
0.000264739
0.000267724
0.000271526
0.000275284
0.000277644
0.000278843
0.000277538
0.00027594
0.000271629
3.48549e-05
3.04738e-05
2.73066e-05
2.50565e-05
2.37639e-05
2.35693e-05
2.45378e-05
2.66061e-05
2.96044e-05
3.34443e-05
3.82873e-05
4.47502e-05
5.39121e-05
6.72552e-05
8.63205e-05
0.000112362
0.000145897
0.000186722
0.000234018
0.00028694
0.000344964
0.000407887
0.000475406
0.000546426
0.000619233
0.000691657
0.000761346
0.000825805
0.00088273
0.000930098
0.000966221
0.000989789
0.000999886
0.000995987
0.000977966
0.000946126
0.000901262
0.000844744
0.000778595
0.000705527
0.000628881
0.000552416
0.000479958
0.000414924
0.000359756
0.000315607
0.000282436
0.000259349
0.000244999
0.000237871
0.000236425
0.000239097
0.000244232
0.000250536
0.000256982
0.000262184
0.000266313
0.000267949
0.000269316
0.000267772
3.48675e-05
3.05262e-05
2.74007e-05
2.51566e-05
2.38052e-05
2.34909e-05
2.43278e-05
2.63247e-05
2.93718e-05
3.33817e-05
3.84461e-05
4.50493e-05
5.41179e-05
6.69971e-05
8.5166e-05
0.00010992
0.000141945
0.000181228
0.000227098
0.000278696
0.000335347
0.000396672
0.000462275
0.000531089
0.000601541
0.000671733
0.000739318
0.000801824
0.000856916
0.000902526
0.000936911
0.000958711
0.000966967
0.000961128
0.00094106
0.00090709
0.000860073
0.000801478
0.000733481
0.000659001
0.000581621
0.000505323
0.000434049
0.000371143
0.000318785
0.000277768
0.000247691
0.000227405
0.000215451
0.00021034
0.000210664
0.000215038
0.000221956
0.000230375
0.000239166
0.000246923
0.000253756
0.000258182
0.000262408
0.000263636
3.48776e-05
3.05711e-05
2.7484e-05
2.52487e-05
2.38443e-05
2.34082e-05
2.4088e-05
2.59552e-05
2.89659e-05
3.30569e-05
3.82776e-05
4.49984e-05
5.39966e-05
6.64675e-05
8.38007e-05
0.000107295
0.000137761
0.000175367
0.000219611
0.000269668
0.000324757
0.000384333
0.000447881
0.000514306
0.000582246
0.000649965
0.000715197
0.000775515
0.000828576
0.000872265
0.000904792
0.000924745
0.000931121
0.000923341
0.000901272
0.000865267
0.000816249
0.000755807
0.000686293
0.000610854
0.00053333
0.000457913
0.000388611
0.000328611
0.000279745
0.000242376
0.000215721
0.000198383
0.000188808
0.000185557
0.000187372
0.00019308
0.000201411
0.000211515
0.000222261
0.000232241
0.000241506
0.00024853
0.000255475
0.00025944
3.48859e-05
3.06096e-05
2.75579e-05
2.53335e-05
2.38835e-05
2.33291e-05
2.38366e-05
2.55279e-05
2.84241e-05
3.25018e-05
3.77947e-05
4.45841e-05
5.35084e-05
6.56085e-05
8.21615e-05
0.000104435
0.000133322
0.000169151
0.000211593
0.000259902
0.000313242
0.000370921
0.000432293
0.000496196
0.000561492
0.000626535
0.000689189
0.000747097
0.000797922
0.000839525
0.000870066
0.000888086
0.000892539
0.000882822
0.000858801
0.000820868
0.000770028
0.000708008
0.000637362
0.000561493
0.000484502
0.000410766
0.000344284
0.000287983
0.000243255
0.000209983
0.000187007
0.000172707
0.000165469
0.000163921
0.000166968
0.000173662
0.000183034
0.00019439
0.000206674
0.000218509
0.000229898
0.00023929
0.000248778
0.000255408
3.48925e-05
3.06427e-05
2.76234e-05
2.5412e-05
2.3924e-05
2.32588e-05
2.35884e-05
2.50709e-05
2.77856e-05
3.17574e-05
3.70266e-05
4.38125e-05
5.26326e-05
6.43762e-05
8.01926e-05
0.000101287
0.000128598
0.00016258
0.000203073
0.000249443
0.000300847
0.000356482
0.00041557
0.000476877
0.000539405
0.000601608
0.000661488
0.000716779
0.000765174
0.000804522
0.000832947
0.000848944
0.00085143
0.00083978
0.000813866
0.00077413
0.000721674
0.000658392
0.000587067
0.00051138
0.000435692
0.000364511
0.000301724
0.000249883
0.000209853
0.000181021
0.000161877
0.000150636
0.000145664
0.000145673
0.000149732
0.000157114
0.000167179
0.000179375
0.000192777
0.000206078
0.000219253
0.000230752
0.000242575
0.00025176
3.48979e-05
3.06712e-05
2.76815e-05
2.54847e-05
2.39664e-05
2.32007e-05
2.33543e-05
2.4608e-05
2.70885e-05
3.08703e-05
3.60162e-05
4.27097e-05
5.13703e-05
6.27461e-05
7.78513e-05
9.78057e-05
0.000123554
0.000155645
0.000194073
0.000238335
0.000287623
0.000341063
0.00039776
0.000456414
0.000516084
0.000575324
0.00063227
0.000684761
0.000730545
0.000767476
0.000793654
0.000807538
0.000808013
0.000794439
0.000766704
0.000725312
0.000671488
0.000607317
0.000535844
0.000461043
0.000387514
0.000319811
0.00026158
0.00021487
0.000179961
0.000155763
0.000140486
0.000132249
0.000129446
0.000130888
0.00013579
0.000143633
0.000154101
0.000166768
0.000180885
0.000195264
0.000209872
0.000223193
0.000237117
0.000248707
3.49021e-05
3.06958e-05
2.77332e-05
2.55518e-05
2.40106e-05
2.31562e-05
2.31421e-05
2.41587e-05
2.63679e-05
2.98889e-05
3.48164e-05
4.13194e-05
4.97446e-05
6.07166e-05
7.51145e-05
9.39562e-05
0.000118161
0.000148339
0.000184613
0.000226618
0.000273618
0.000324712
0.000378909
0.000434858
0.00049161
0.000547799
0.000601686
0.000651226
0.000694238
0.0007286
0.000752408
0.000764094
0.00076252
0.00074704
0.000717575
0.000674707
0.00061981
0.000555193
0.000484192
0.000411078
0.000340635
0.000277342
0.000224448
0.000183389
0.000153845
0.000134311
0.000122818
0.000117464
0.000116716
0.000119489
0.000125128
0.000133287
0.000143941
0.000156778
0.000171252
0.000186338
0.000202029
0.000216872
0.00023264
0.000246452
3.49056e-05
3.07172e-05
2.77791e-05
2.56139e-05
2.40562e-05
2.31256e-05
2.29564e-05
2.37378e-05
2.56538e-05
2.88601e-05
3.34849e-05
3.9699e-05
4.78003e-05
5.83106e-05
7.19828e-05
8.97237e-05
0.000112403
0.000140657
0.000174714
0.000214338
0.000258891
0.000307487
0.000359069
0.000412257
0.000466046
0.000519126
0.000569866
0.000616335
0.00065644
0.000688103
0.000709429
0.000718841
0.000715191
0.000697844
0.000666765
0.000622642
0.000567029
0.000502493
0.000432681
0.000362142
0.00029575
0.000237748
0.000190826
0.000155737
0.000131599
0.000116605
0.00010871
0.000106071
0.000107257
0.00011129
0.000117616
0.000126034
0.000136741
0.000149526
0.00016406
0.000179524
0.00019596
0.000212024
0.000229363
0.000245186
3.49083e-05
3.07357e-05
2.782e-05