/*--------------------------------*- C++ -*----------------------------------*\
| =========                 |                                                 |
| \\      /  F ield         | OpenFOAM: The Open Source CFD Toolbox           |
|  \\    /   O peration     | Version:  2.4.0                                 |
|   \\  /    A nd           | Web:      www.OpenFOAM.org                      |
|    \\/     M anipulation  |                                                 |
\*---------------------------------------------------------------------------*/
FoamFile
{
    version     2.0;
    format      ascii;
    class       surfaceScalarField;
    location    "1.93";
    object      phi_0;
}
// * * * * * * * * * * * * * * * * * * * * * * * * * * * * * * * * * * * * * //

dimensions      [0 3 -1 0 0 0 0];

internalField   nonuniform List<scalar> 
4456
(
2.65688e-06
-1.56885e-07
2.28497e-06
3.71917e-07
2.33852e-06
-5.35494e-08
2.3986e-06
-6.00869e-08
2.30747e-06
9.113e-08
2.48754e-06
-1.80064e-07
2.41718e-06
7.03561e-08
2.45643e-06
-3.9246e-08
2.45928e-06
-2.85395e-09
2.54943e-06
-9.01442e-08
2.4568e-06
9.26257e-08
2.52215e-06
-6.53529e-08
2.52565e-06
-3.49606e-09
2.39896e-06
1.2669e-07
2.43967e-06
-4.07104e-08
2.25729e-06
1.82383e-07
2.32416e-06
-6.68767e-08
2.13552e-06
1.88648e-07
2.34198e-06
-2.0646e-07
6.95192e-08
2.27246e-06
2.60326e-06
-2.60146e-07
2.75073e-06
2.24449e-07
2.48726e-06
2.09919e-07
2.63828e-06
-2.11109e-07
2.44817e-06
2.81244e-07
2.31181e-06
-4.37083e-08
2.53001e-06
-1.47838e-07
2.38939e-06
1.01373e-07
2.52548e-06
-1.3894e-07
2.62432e-06
-1.88989e-07
2.36239e-06
3.54553e-07
2.44704e-06
-1.49997e-07
2.45173e-06
-8.18938e-09
2.32341e-06
2.55013e-07
2.65283e-06
-3.70138e-07
2.30439e-06
5.30826e-07
2.46558e-06
-2.28061e-07
2.38353e-06
2.70696e-07
2.16232e-06
1.4744e-08
-4.96248e-07
2.72809e-06
2.45417e-06
-2.14321e-07
2.63267e-06
4.59541e-08
2.54908e-06
2.93511e-07
2.58339e-06
-2.45423e-07
2.55019e-06
3.14449e-07
2.41148e-06
9.49975e-08
2.54447e-06
-2.80831e-07
2.49852e-06
1.47331e-07
2.53149e-06
-1.71919e-07
2.57514e-06
-2.32635e-07
2.52277e-06
4.06925e-07
2.38686e-06
-1.4086e-08
2.49311e-06
-1.14437e-07
2.39559e-06
3.52532e-07
2.5346e-06
-5.09155e-07
2.59409e-06
4.71337e-07
2.55815e-06
-1.92118e-07
2.75098e-06
7.78697e-08
2.59666e-06
1.69062e-07
-3.76709e-07
2.47712e-06
2.36154e-06
-7.58628e-08
2.50268e-06
-9.51851e-08
2.5265e-06
2.69693e-07
2.51652e-06
-2.35448e-07
2.58744e-06
2.43533e-07
2.50924e-06
1.73193e-07
2.50054e-06
-2.7213e-07
2.5203e-06
1.27579e-07
2.44036e-06
-9.19848e-08
2.47745e-06
-2.69719e-07
2.55203e-06
3.3234e-07
2.44131e-06
9.66297e-08
2.57152e-06
-2.44643e-07
2.48323e-06
4.4082e-07
2.47955e-06
-5.05475e-07
2.59045e-06
3.60441e-07
2.45915e-06
-6.08186e-08
2.62901e-06
-9.19905e-08
2.57323e-06
2.24837e-07
-2.23429e-07
2.41995e-06
2.43174e-06
-7.60228e-09
2.46632e-06
-1.29761e-07
2.53141e-06
2.04599e-07
2.4847e-06
-1.88739e-07
2.55273e-06
1.75507e-07
2.58327e-06
1.4265e-07
2.48968e-06
-1.78536e-07
2.54872e-06
6.85352e-08
2.48796e-06
-3.12271e-08
2.45414e-06
-2.35894e-07
2.56704e-06
2.19437e-07
2.51128e-06
1.52392e-07
2.56111e-06
-2.94473e-07
2.59886e-06
4.03064e-07
2.47406e-06
-3.80668e-07
2.60992e-06
2.24583e-07
2.54413e-06
4.97264e-09
2.57623e-06
-1.24097e-07
2.60008e-06
2.00994e-07
-1.50308e-07
2.52696e-06
2.45322e-06
3.91734e-08
2.46818e-06
-1.44717e-07
2.48618e-06
1.866e-07
2.45995e-06
-1.62506e-07
2.50245e-06
1.33e-07
2.55531e-06
8.97944e-08
2.47213e-06
-9.53542e-08
2.52467e-06
1.59939e-08
2.48742e-06
6.01793e-09
2.42655e-06
-1.7502e-07
2.52667e-06
1.19317e-07
2.51262e-06
1.66441e-07
2.47439e-06
-2.56244e-07
2.59747e-06
2.79985e-07
2.42061e-06
-2.03813e-07
2.55807e-06
8.71276e-08
2.50976e-06
5.32788e-08
2.49474e-06
-1.09076e-07
2.56273e-06
1.33002e-07
-4.23981e-08
2.45482e-06
2.4561e-06
8.30745e-08
2.48394e-06
-1.7256e-07
2.4927e-06
1.77843e-07
2.48017e-06
-1.49974e-07
2.51218e-06
1.00991e-07
2.54936e-06
5.26142e-08
2.4836e-06
-2.95984e-08
2.5206e-06
-2.10051e-08
2.49668e-06
2.99377e-08
2.47135e-06
-1.49693e-07
2.50955e-06
8.11198e-08
2.53903e-06
1.3696e-07
2.47881e-06
-1.96023e-07
2.55561e-06
2.03187e-07
2.43031e-06
-7.8508e-08
2.524e-06
-6.56777e-09
2.48031e-06
9.69683e-08
2.49013e-06
-1.18894e-07
2.48678e-06
1.36357e-07
-2.00571e-08
2.46443e-06
2.4822e-06
1.00874e-07
2.48542e-06
-1.7578e-07
2.50059e-06
1.62671e-07
2.48494e-06
-1.34321e-07
2.49908e-06
8.68503e-08
2.53412e-06
1.75702e-08
2.48795e-06
1.6571e-08
2.51543e-06
-4.84842e-08
2.50387e-06
4.14993e-08
2.48877e-06
-1.34594e-07
2.47647e-06
9.34252e-08
2.54437e-06
6.90528e-08
2.47641e-06
-1.28059e-07
2.54492e-06
1.34673e-07
2.46306e-06
3.35423e-09
2.5102e-06
-5.37088e-08
2.49953e-06
1.07638e-07
2.48695e-06
-1.06317e-07
2.47777e-06
1.45546e-07
-4.58403e-08
2.50355e-06
2.48255e-06
1.18325e-07
2.48188e-06
-1.75113e-07
2.48639e-06
1.58163e-07
2.48667e-06
-1.34601e-07
2.48596e-06
8.75585e-08
2.51004e-06
-6.50733e-09
2.48012e-06
4.64913e-08
2.50299e-06
-7.13544e-08
2.48616e-06
5.83263e-08
2.47981e-06
-1.28239e-07
2.47004e-06
1.03193e-07
2.52323e-06
1.58614e-08
2.47827e-06
-8.3101e-08
2.52877e-06
8.41818e-08
2.45858e-06
7.35382e-08
2.51017e-06
-1.05299e-07
2.46501e-06
1.52804e-07
2.47535e-06
-1.16666e-07
2.45911e-06
1.61793e-07
-6.31353e-08
2.4764e-06
2.48246e-06
1.3586e-07
2.47802e-06
-1.70665e-07
2.48627e-06
1.49906e-07
2.4887e-06
-1.3703e-07
2.47993e-06
9.63287e-08
2.50813e-06
-3.47094e-08
2.48832e-06
6.63058e-08
2.51722e-06
-1.00254e-07
2.49914e-06
7.64037e-08
2.50255e-06
-1.31644e-07
2.48174e-06
1.23997e-07
2.53828e-06
-4.06701e-08
2.47255e-06
-1.73709e-08
2.52232e-06
3.44079e-08
2.47581e-06
1.20046e-07
2.49544e-06
-1.24927e-07
2.46005e-06
1.88193e-07
2.47621e-06
-1.32823e-07
2.4461e-06
1.91905e-07
-1.04007e-07
2.48697e-06
2.47661e-06
1.59246e-07
2.48897e-06
-1.83019e-07
2.48613e-06
1.52742e-07
2.50397e-06
-1.54865e-07
2.4941e-06
1.06198e-07
2.51613e-06
-5.67463e-08
2.5124e-06
7.0037e-08
2.52714e-06
-1.14987e-07
2.4984e-06
1.05144e-07
2.51923e-06
-1.5248e-07
2.48942e-06
1.53809e-07
2.54201e-06
-9.32571e-08
2.47132e-06
5.3318e-08
2.51514e-06
-9.41416e-09
2.48801e-06
1.47177e-07
2.51482e-06
-1.51736e-07
2.45724e-06
2.45773e-07
2.50068e-06
-1.76263e-07
2.46544e-06
2.27141e-07
-1.29278e-07
2.49071e-06
2.48658e-06
1.72668e-07
2.49537e-06
-1.91815e-07
2.49836e-06
1.49759e-07
2.48954e-06
-1.46052e-07
2.50151e-06
9.42273e-08
2.50267e-06
-5.79056e-08
2.51739e-06
5.53218e-08
2.50959e-06
-1.07186e-07
2.4881e-06
1.26629e-07
2.51023e-06
-1.74605e-07
2.48303e-06
1.81006e-07
2.52385e-06
-1.34073e-07
2.46526e-06
1.11906e-07
2.5065e-06
-5.06505e-08
2.48558e-06
1.68091e-07
2.52372e-06
-1.89869e-07
2.46083e-06
3.0866e-07
2.50198e-06
-2.17416e-07
2.46185e-06
2.67272e-07
-1.48867e-07
2.48144e-06
2.48746e-06
1.85209e-07
2.49863e-06
-2.02984e-07
2.49275e-06
1.55636e-07
2.48366e-06
-1.36959e-07
2.48191e-06
9.59702e-08
2.49692e-06
-7.29079e-08
2.50475e-06
4.74844e-08
2.48479e-06
-8.72182e-08
2.48485e-06
1.26562e-07
2.49928e-06
-1.89031e-07
2.46893e-06
2.11354e-07
2.5157e-06
-1.80846e-07
2.45862e-06
1.6899e-07
2.49405e-06
-8.60836e-08
2.48056e-06
1.8158e-07
2.51915e-06
-2.28454e-07
2.44055e-06
3.87262e-07
2.49903e-06
-2.75902e-07
2.44154e-06
3.24765e-07
-1.51412e-07
2.44408e-06
2.49173e-06
1.93474e-07
2.49418e-06
-2.05425e-07
2.51274e-06
1.37072e-07
2.46685e-06
-9.10646e-08
2.51472e-06
4.80986e-08
2.47306e-06
-3.12463e-08
2.52449e-06
-3.94841e-09
2.48104e-06
-4.37658e-08
2.4865e-06
1.21102e-07
2.51116e-06
-2.13691e-07
2.46795e-06
2.54564e-07
2.50107e-06
-2.13968e-07
2.48564e-06
1.84422e-07
2.48443e-06
-8.48776e-08
2.47754e-06
1.8847e-07
2.52142e-06
-2.72338e-07
2.44219e-06
4.66497e-07
2.49003e-06
-3.23741e-07
2.43624e-06
3.78555e-07
-1.41441e-07
2.42627e-06
2.48732e-06
2.06154e-07
2.49714e-06
-2.15247e-07
2.49303e-06
1.41182e-07
2.49072e-06
-8.8757e-08
2.49656e-06
4.22633e-08
2.48099e-06
-1.56741e-08
2.51689e-06
-3.9854e-08
2.46463e-06
8.49577e-09
2.51674e-06
6.89959e-08
2.49194e-06
-1.88898e-07
2.47243e-06
2.74075e-07
2.50458e-06
-2.46117e-07
2.49023e-06
1.9878e-07
2.479e-06
-7.36482e-08
2.50316e-06
1.64306e-07
2.50474e-06
-2.73919e-07
2.42486e-06
5.46375e-07
2.5091e-06
-4.07975e-07
2.43031e-06
4.5734e-07
-1.12487e-07
2.40136e-06
2.47966e-06
2.26495e-07
2.48246e-06
-2.18051e-07
2.50697e-06
1.1667e-07
2.46287e-06
-4.46549e-08
2.54303e-06
-3.78943e-08
2.4542e-06
7.31568e-08
2.54312e-06
-1.28778e-07
2.489e-06
6.26166e-08
2.49869e-06
5.93106e-08
2.54555e-06
-2.35763e-07
2.46641e-06
3.53222e-07
2.49468e-06
-2.74388e-07
2.54767e-06
1.45785e-07
2.44558e-06
2.84416e-08
2.52612e-06
8.37696e-08
2.53339e-06
-2.81188e-07
2.45417e-06
6.25593e-07
2.50892e-06
-4.6272e-07
2.47152e-06
4.94738e-07
-5.91151e-08
2.41815e-06
2.47406e-06
2.52439e-07
2.47918e-06
-2.23176e-07
2.48456e-06
1.11292e-07
2.48467e-06
-4.47677e-08
2.50961e-06
-6.28357e-08
2.47209e-06
1.1068e-07
2.53663e-06
-1.93314e-07
2.46494e-06
1.34308e-07
2.5478e-06
-2.35496e-08
2.50388e-06
-1.91851e-07
2.49698e-06
3.60126e-07
2.53431e-06
-3.11723e-07
2.5612e-06
1.18898e-07
2.46509e-06
1.2455e-07
2.58391e-06
-3.50439e-08
2.53859e-06
-2.35877e-07
2.49424e-06
6.69946e-07
2.56242e-06
-5.30899e-07
2.53702e-06
5.20135e-07
1.91371e-08
2.45877e-06
2.46202e-06
2.90422e-07
2.46675e-06
-2.27908e-07
2.46313e-06
1.14912e-07
2.44465e-06
-2.62935e-08
2.52952e-06
-1.47703e-07
2.41531e-06
2.24888e-07
2.58871e-06
-3.6671e-07
2.42012e-06
3.02893e-07
2.54356e-06
-1.46982e-07
2.54147e-06
-1.89761e-07
2.39955e-06
5.02042e-07
2.53453e-06
-4.46702e-07
2.50152e-06
1.51907e-07
2.32794e-06
2.98125e-07
2.58401e-06
-2.91113e-07
2.4883e-06
-1.40161e-07
2.38789e-06
7.70354e-07
2.57876e-06
-7.21768e-07
2.63362e-06
4.65273e-07
2.74569e-07
2.37819e-06
2.45159e-06
3.38832e-07
2.56716e-06
-3.43483e-07
2.56084e-06
1.21233e-07
2.51566e-06
1.88853e-08
2.64764e-06
-2.79681e-07
2.45032e-06
4.22216e-07
2.61842e-06
-5.34817e-07
2.56924e-06
3.52074e-07
2.53799e-06
-1.15735e-07
2.58993e-06
-2.417e-07
2.55713e-06
5.34845e-07
2.45892e-06
-3.48494e-07
2.69951e-06
-8.86833e-08
2.4725e-06
5.25136e-07
2.6875e-06
-5.06109e-07
2.61584e-06
-6.85057e-08
2.56113e-06
8.25067e-07
2.72779e-06
-8.88432e-07
2.58053e-06
6.12538e-07
1.892e-07
2.6659e-06
2.83883e-06
2.49535e-06
2.61658e-06
2.63547e-06
2.35579e-06
2.778e-06
2.24319e-06
2.59526e-06
2.47952e-06
2.23783e-06
2.77267e-06
2.42418e-06
2.33549e-06
2.86063e-06
2.35452e-06
2.28601e-06
3.11108e-06
2.22265e-06
2.83519e-06
3.02439e-06
2.25878e-06
1.36719e-08
2.32736e-06
-6.85792e-08
2.11122e-06
2.16143e-07
2.25372e-06
-1.42497e-07
2.31374e-06
-6.00194e-08
2.07657e-06
2.37168e-07
2.34893e-06
-2.72359e-07
9.75493e-08
2.25138e-06
2.43808e-06
3.03678e-07
2.39898e-06
-2.947e-08
2.69052e-06
-7.54005e-08
2.09658e-06
4.51446e-07
2.33767e-06
-3.0111e-07
2.40638e-06
1.68449e-07
2.19697e-06
-6.29468e-08
-4.82173e-07
2.77669e-06
2.66129e-06
1.19505e-07
2.48386e-06
1.47957e-07
2.5893e-06
-1.80838e-07
2.66724e-06
3.7351e-07
2.57895e-06
-2.12821e-07
2.75654e-06
-9.14378e-09
2.70915e-06
-1.55499e-08
-4.82396e-07
2.70937e-06
2.60356e-06
-6.4104e-08
2.54019e-06
2.11334e-07
2.53697e-06
-1.7762e-07
2.67999e-06
2.30482e-07
2.51253e-06
-4.53533e-08
2.68203e-06
-1.78644e-07
2.6371e-06
2.93748e-08
-4.19853e-07
2.57456e-06
2.53696e-06
-7.41118e-08
2.5949e-06
1.53399e-07
2.56701e-06
-1.49731e-07
2.66532e-06
1.32174e-07
2.61313e-06
6.83622e-09
2.69125e-06
-2.56765e-07
2.65144e-06
6.9189e-08
-3.5519e-07
2.58677e-06
2.47898e-06
-9.8268e-08
2.55639e-06
7.59825e-08
2.48702e-06
-8.03546e-08
2.5952e-06
2.399e-08
2.58455e-06
1.74867e-08
2.57984e-06
-2.52059e-07
2.60069e-06
4.83447e-08
-3.03957e-07
2.54946e-06
2.45644e-06
-9.02757e-08
2.50325e-06
2.91767e-08
2.4579e-06
-3.50056e-08
2.57059e-06
-8.87027e-08
2.55209e-06
3.59904e-08
2.55891e-06
-2.58877e-07
2.55944e-06
4.78068e-08
-2.77526e-07
2.53301e-06
2.44247e-06
-2.91966e-08
2.49045e-06
-1.88028e-08
2.47301e-06
-1.75631e-08
2.53001e-06
-1.45707e-07
2.58587e-06
-1.98708e-08
2.57613e-06
-2.4913e-07
2.55317e-06
7.07626e-08
-3.0029e-07
2.57593e-06
2.42635e-06
2.08523e-08
2.44407e-06
-3.65219e-08
2.45299e-06
-2.64821e-08
2.5265e-06
-2.19212e-07
2.55096e-06
-4.43285e-08
2.54285e-06
-2.41028e-07
2.55439e-06
5.92292e-08
-2.75297e-07
2.52939e-06
2.40926e-06
9.85637e-08
2.44463e-06
-7.18978e-08
2.44478e-06
-2.66331e-08
2.50064e-06
-2.75068e-07
2.55621e-06
-9.98966e-08
2.53299e-06
-2.17815e-07
2.55671e-06
3.55148e-08
-2.35803e-07
2.51721e-06
2.4204e-06
1.68877e-07
2.46836e-06
-1.19855e-07
2.43191e-06
9.81282e-09
2.52347e-06
-3.66624e-07
2.53919e-06
-1.15617e-07
2.57651e-06
-2.55134e-07
2.57305e-06
3.89755e-08
-2.09596e-07
2.54684e-06
2.41211e-06
2.38213e-07
2.44392e-06
-1.51669e-07
2.4045e-06
4.92297e-08
2.49839e-06
-4.60511e-07
2.52515e-06
-1.42379e-07
2.57881e-06
-3.08794e-07
2.54363e-06
7.41537e-08
-2.11292e-07
2.54533e-06
2.36656e-06
3.15734e-07
2.40951e-06
-1.94624e-07
2.34525e-06
1.13492e-07
2.48108e-06
-5.96343e-07
2.5099e-06
-1.71197e-07
2.5782e-06
-3.77095e-07
2.5208e-06
1.31557e-07
-2.19492e-07
2.529e-06
2.33543e-06
4.0657e-07
2.34281e-06
-2.02003e-07
2.28227e-06
1.74037e-07
2.46614e-06
-7.80221e-07
2.51297e-06
-2.18018e-07
2.58133e-06
-4.45459e-07
2.44965e-06
2.63233e-07
-2.60821e-07
2.49098e-06
2.28282e-06
5.25113e-07
2.262e-06
-1.81183e-07
2.21852e-06
2.17513e-07
2.46346e-06
-1.02516e-06
2.52779e-06
-2.82347e-07
2.58424e-06
-5.01912e-07
2.45425e-06
3.93224e-07
-2.97865e-07
2.4913e-06
2.30887e-06
6.34394e-07
2.19732e-06
-6.96354e-08
2.15934e-06
2.55492e-07
2.45405e-06
-1.31987e-06
2.5805e-06
-4.08803e-07
2.63747e-06
-5.5888e-07
2.4143e-06
6.16394e-07
-3.95295e-07
2.51173e-06
2.2043e-06
8.88864e-07
2.04196e-06
9.27002e-08
2.14169e-06
1.55765e-07
2.43072e-06
-1.6089e-06
2.50897e-06
-4.87048e-07
2.47946e-06
-5.29378e-07
2.29992e-06
7.95943e-07
-6.03065e-07
2.50769e-06
2.27965e-06
9.87405e-07
2.00802e-06
3.64326e-07
2.14236e-06
2.14294e-08
2.454e-06
-1.92054e-06
2.50537e-06
-5.38415e-07
2.37171e-06
-3.95724e-07
2.24419e-06
9.23464e-07
-9.61064e-07
2.60219e-06
2.3656e-06
1.28771e-06
1.77455e-06
9.55374e-07
2.17493e-06
-3.78954e-07
2.39674e-06
-2.14235e-06
2.64489e-06
-7.86564e-07
2.74716e-06
-4.97991e-07
2.02229e-06
1.64832e-06
-1.0316e-06
2.09283e-06
1.93155e-06
2.38054e-06
1.54617e-06
1.34076e-06
1.78951e-06
-6.2229e-07
1.85461e-06
-2.20746e-06
2.16921e-06
-1.10116e-06
2.33341e-06
-6.62195e-07
1.89402e-06
2.08772e-06
2.07834e-06
-1.21591e-06
2.02984e-06
2.21543e-07
2.7452e-06
-7.15364e-07
2.28504e-06
4.60157e-07
2.00596e-06
2.79078e-07
2.71117e-06
-7.05201e-07
2.1368e-06
5.74368e-07
2.03902e-06
9.7781e-08
2.68207e-06
-6.4305e-07
2.66344e-06
1.86258e-08
2.75481e-06
-9.13697e-08
2.67037e-06
8.44386e-08
2.84015e-06
-1.69775e-07
3.04948e-06
-2.09336e-07
3.54782e-06
-4.98336e-07
3.20479e-06
3.43028e-07
3.75299e-06
-5.48201e-07
3.53131e-06
2.21677e-07
4.33105e-06
-7.99735e-07
4.40226e-06
-7.12098e-08
4.6311e-06
-2.28842e-07
4.93463e-06
-3.03534e-07
4.81417e-06
1.20464e-07
5.22215e-06
-4.07979e-07
4.94624e-06
2.75914e-07
5.11669e-06
-1.70452e-07
5.15353e-06
-3.68451e-08
5.11492e-06
3.86101e-08
-9.8424e-08
5.21335e-06
2.50784e-06
4.90402e-07
2.33195e-06
-5.39482e-07
2.65584e-06
1.3627e-07
2.5191e-06
4.15816e-07
2.47226e-06
-6.58357e-07
2.76372e-06
2.82906e-07
2.67772e-06
1.83787e-07
2.8666e-06
-8.31932e-07
2.66189e-06
2.23332e-07
2.83525e-06
-2.64728e-07
2.9054e-06
1.42886e-08
3.21727e-06
-4.81642e-07
3.12629e-06
-1.18361e-07
3.2e-06
-5.72043e-07
3.32235e-06
2.20674e-07
3.51193e-06
-7.37772e-07
3.77117e-06
-3.75659e-08
4.01222e-06
-1.04078e-06
4.05868e-06
-1.17667e-07
4.32733e-06
-4.97497e-07
4.60081e-06
-5.77014e-07
4.76888e-06
-4.76038e-08
5.10523e-06
-7.44325e-07
4.99756e-06
3.83579e-07
5.06062e-06
-2.33509e-07
4.91862e-06
1.05151e-07
4.82522e-06
1.32014e-07
7.03377e-08
4.65646e-06
2.68817e-06
5.11599e-07
2.58994e-06
-4.41255e-07
2.68303e-06
4.3186e-08
2.90232e-06
1.96529e-07
2.6892e-06
-4.45239e-07
2.77568e-06
1.96423e-07
2.97702e-06
-1.75563e-08
2.97541e-06
-8.3032e-07
2.83188e-06
3.66865e-07
2.85007e-06
-2.82919e-07
2.94403e-06
-7.9668e-08
3.23494e-06
-7.72554e-07
3.22368e-06
-1.07107e-07
3.32335e-06
-6.71714e-07
3.35086e-06
1.93171e-07
3.56755e-06
-9.54464e-07
3.89241e-06
-3.62428e-07
4.0275e-06
-1.17587e-06
4.27251e-06
-3.62674e-07
4.30151e-06
-5.26502e-07
4.54295e-06
-8.18449e-07
4.77493e-06
-2.79585e-07
4.88614e-06
-8.55539e-07
5.19318e-06
7.65416e-08
5.11963e-06
-1.59962e-07
5.28743e-06
-6.26495e-08
4.92297e-06
4.96478e-07
6.64515e-08
4.92686e-06
2.69811e-06
3.88051e-07
2.56612e-06
-3.09265e-07
2.7389e-06
-1.29601e-07
2.70814e-06
2.27294e-07
2.64978e-06
-3.86884e-07
2.86735e-06
-2.11412e-08
2.67826e-06
1.71534e-07
2.71621e-06
-8.68272e-07
2.86747e-06
2.15602e-07
2.81291e-06
-2.28354e-07
2.84607e-06
-1.12833e-07
2.92707e-06
-8.5355e-07
3.04279e-06
-2.22832e-07
3.29975e-06
-9.28666e-07
3.41537e-06
7.75431e-08
3.47186e-06
-1.01095e-06
3.74144e-06
-6.3201e-07
3.84328e-06
-1.27772e-06
4.18423e-06
-7.0362e-07
4.38434e-06
-7.2662e-07
4.71631e-06
-1.15041e-06
4.8562e-06
-4.19477e-07
4.99873e-06
-9.98072e-07
5.08129e-06
-6.01506e-09
5.13631e-06
-2.14983e-07
5.09679e-06
-2.31281e-08
5.06387e-06
5.29393e-07
2.79767e-07
4.85056e-06
2.73065e-06
2.44176e-07
2.6643e-06
-2.42914e-07
2.67387e-06
-1.39178e-07
2.78e-06
1.21163e-07
2.67473e-06
-2.81616e-07
2.85452e-06
-2.00929e-07
2.83163e-06
1.9443e-07
2.71095e-06
-7.47597e-07
2.79289e-06
1.33664e-07
2.9516e-06
-3.87065e-07
3.06478e-06
-2.26015e-07
2.95555e-06
-7.44323e-07
3.07648e-06
-3.43753e-07
3.14893e-06
-1.00112e-06
3.42618e-06
-1.99707e-07
3.61653e-06
-1.20129e-06
3.89602e-06
-9.11504e-07
3.96496e-06
-1.34665e-06
4.20798e-06
-9.46638e-07
4.47163e-06
-9.90277e-07
4.62308e-06
-1.30186e-06
4.95822e-06
-7.54621e-07
4.97124e-06
-1.01109e-06
5.27606e-06
-3.10837e-07
5.25634e-06
-1.95257e-07
5.27729e-06
-4.40869e-08
5.157e-06
6.49685e-07
5.0504e-07
4.93173e-06
2.64227e-06
1.51361e-07
2.58706e-06
-1.87699e-07
2.62064e-06
-1.72758e-07
2.71547e-06
2.63346e-08
2.56933e-06
-1.35478e-07
2.66566e-06
-2.97258e-07
2.77518e-06
8.49049e-08
2.63791e-06
-6.10329e-07
2.75972e-06
1.18576e-08
2.76191e-06
-3.89253e-07
2.91439e-06
-3.78493e-07
2.93452e-06
-7.64451e-07
3.10542e-06
-5.14657e-07
3.12126e-06
-1.01696e-06
3.35415e-06
-4.32592e-07
3.44897e-06
-1.29612e-06
3.71684e-06
-1.17937e-06
3.93295e-06
-1.56277e-06
4.2667e-06
-1.28038e-06
4.52825e-06
-1.25183e-06
4.74221e-06
-1.51581e-06
4.95957e-06
-9.71982e-07
5.06799e-06
-1.11951e-06
5.25773e-06
-5.0058e-07
5.29977e-06
-2.37299e-07
5.29858e-06
-4.2892e-08
5.20823e-06
7.40027e-07
6.55809e-07
5.05747e-06
2.60696e-06
7.74114e-08
2.62454e-06
-2.0528e-07
2.59938e-06
-1.47595e-07
2.65972e-06
-3.40021e-08
2.63832e-06
-1.14082e-07
2.6637e-06
-3.22637e-07
2.73861e-06
9.99006e-09
2.62701e-06
-4.98727e-07
2.79444e-06
-1.55565e-07
2.81449e-06
-4.09309e-07
2.92143e-06
-4.85432e-07
2.93549e-06
-7.78507e-07
3.08528e-06
-6.64447e-07
3.1374e-06
-1.06909e-06
3.45876e-06
-7.53953e-07
3.52135e-06
-1.35871e-06
3.75592e-06
-1.41394e-06
3.97426e-06
-1.78111e-06
4.24177e-06
-1.54789e-06
4.58601e-06
-1.59607e-06
4.75612e-06
-1.68592e-06
5.07913e-06
-1.29499e-06
5.18335e-06
-1.22374e-06
5.38667e-06
-7.03902e-07
5.39225e-06
-2.42879e-07
5.34713e-06
2.23471e-09
5.25768e-06
8.29478e-07
8.53466e-07
5.06002e-06
2.62092e-06
3.24306e-08
2.64118e-06
-2.2554e-07
2.62419e-06
-1.3061e-07
2.64654e-06
-5.63486e-08
2.66228e-06
-1.29829e-07
2.67186e-06
-3.32211e-07
2.73228e-06
-5.04295e-08
2.67576e-06
-4.42212e-07
2.75763e-06
-2.37437e-07
2.80965e-06
-4.61327e-07
2.90698e-06
-5.82761e-07
2.91252e-06
-7.84042e-07
3.06275e-06
-8.14679e-07
3.08629e-06
-1.09263e-06
3.37807e-06
-1.04574e-06
3.41831e-06
-1.39894e-06
3.7057e-06
-1.70133e-06
3.93018e-06
-2.00559e-06
4.22295e-06
-1.84066e-06
4.55021e-06
-1.92333e-06
4.75306e-06
-1.88877e-06
5.06771e-06
-1.60964e-06
5.20381e-06
-1.35984e-06
5.40008e-06
-9.00165e-07
5.44299e-06
-2.8579e-07
5.41372e-06
3.15023e-08
5.32046e-06
9.22735e-07
1.03777e-06
5.13616e-06
2.5912e-06
-2.93758e-08
2.58286e-06
-2.17201e-07
2.58372e-06
-1.31469e-07
2.6138e-06
-8.64322e-08
2.62465e-06
-1.40679e-07
2.62483e-06
-3.32389e-07
2.64668e-06
-7.22822e-08
2.60572e-06
-4.01244e-07
2.66878e-06
-3.00505e-07
2.75355e-06
-5.46096e-07
2.79918e-06
-6.28393e-07
2.86322e-06
-8.48083e-07
2.92552e-06
-8.7698e-07
3.01467e-06
-1.18178e-06
3.23511e-06
-1.26617e-06
3.36337e-06
-1.5272e-06
3.65036e-06
-1.98833e-06
3.85867e-06
-2.2139e-06
4.20213e-06
-2.18411e-06
4.53736e-06
-2.25856e-06
4.79168e-06
-2.14309e-06
5.12629e-06
-1.94425e-06
5.29422e-06
-1.52777e-06
5.46352e-06
-1.06947e-06
5.50471e-06
-3.26982e-07
5.45914e-06
7.70803e-08
5.35853e-06
1.02334e-06
1.20587e-06
5.19043e-06
2.58427e-06
-9.64292e-08
2.54084e-06
-1.73772e-07
2.57019e-06
-1.60827e-07
2.59827e-06
-1.14513e-07
2.64183e-06
-1.8423e-07
2.60129e-06
-2.91858e-07
2.64084e-06
-1.11831e-07
2.59576e-06
-3.5616e-07
2.6345e-06
-3.39247e-07
2.66689e-06
-5.78488e-07
2.77906e-06
-7.40561e-07
2.80817e-06
-8.77189e-07
2.87455e-06
-9.43363e-07
2.99406e-06
-1.30129e-06
3.10608e-06
-1.37819e-06
3.32596e-06
-1.74708e-06
3.55349e-06
-2.21585e-06
3.785e-06
-2.44541e-06
4.15885e-06
-2.55796e-06
4.45303e-06
-2.55275e-06
4.75202e-06
-2.44207e-06
5.03932e-06
-2.23155e-06
5.17313e-06
-1.66158e-06
5.31044e-06
-1.20677e-06
5.34635e-06
-3.62898e-07
5.3094e-06
1.14038e-07
5.25336e-06
1.07937e-06
1.34292e-06
5.11631e-06
2.58108e-06
-1.30665e-07
2.56657e-06
-1.59262e-07
2.58057e-06
-1.74832e-07
2.61231e-06
-1.4625e-07
2.65364e-06
-2.25559e-07
2.61034e-06
-2.48564e-07
2.63381e-06
-1.35295e-07
2.56421e-06
-2.86563e-07
2.59249e-06
-3.67523e-07
2.63509e-06
-6.21089e-07
2.71601e-06
-8.21484e-07
2.72456e-06
-8.8574e-07
2.82449e-06
-1.04329e-06
2.85569e-06
-1.3325e-06
3.01285e-06
-1.53534e-06
3.24395e-06
-1.97818e-06
3.38971e-06
-2.36162e-06
3.65788e-06
-2.71357e-06
4.00052e-06
-2.9006e-06
4.31068e-06
-2.86291e-06
4.58452e-06
-2.71591e-06
4.71862e-06
-2.36566e-06
4.78359e-06
-1.72655e-06
4.82358e-06
-1.24676e-06
4.79725e-06
-3.36565e-07
4.73124e-06
1.8005e-07
4.72463e-06
1.08598e-06
1.41507e-06
4.65249e-06
2.57127e-06
-1.56602e-07
2.55613e-06
-1.44127e-07
2.56535e-06
-1.84052e-07
2.58664e-06
-1.67535e-07
2.6346e-06
-2.7352e-07
2.61547e-06
-2.29432e-07
2.61417e-06
-1.34e-07
2.53822e-06
-2.10613e-07
2.50886e-06
-3.38168e-07
2.56643e-06
-6.78658e-07
2.59932e-06
-8.54372e-07
2.6667e-06
-9.53119e-07
2.7138e-06
-1.09039e-06
2.71e-06
-1.3287e-06
2.8975e-06
-1.72284e-06
3.03482e-06
-2.1155e-06
3.21156e-06
-2.53836e-06
3.51844e-06
-3.02045e-06
3.79811e-06
-3.18027e-06
3.98335e-06
-3.04815e-06
4.03183e-06
-2.76439e-06
3.96367e-06
-2.2975e-06
3.92848e-06
-1.69136e-06
3.85657e-06
-1.17485e-06
3.81272e-06
-2.92718e-07
3.78926e-06
2.03507e-07
3.82226e-06
1.05298e-06
1.4252e-06
3.81213e-06
2.53977e-06
-1.67376e-07
2.52219e-06
-1.26546e-07
2.53037e-06
-1.92228e-07
2.53768e-06
-1.74848e-07
2.56769e-06
-3.03533e-07
2.5411e-06
-2.02838e-07
2.52139e-06
-1.14285e-07
2.42126e-06
-1.10483e-07
2.44334e-06
-3.6025e-07
2.47559e-06
-7.1091e-07
2.49558e-06
-8.74361e-07
2.56394e-06
-1.02148e-06
2.53764e-06
-1.06408e-06
2.62653e-06
-1.4176e-06
2.71894e-06
-1.81524e-06
2.78955e-06
-2.18611e-06
3.01526e-06
-2.76407e-06
3.23348e-06
-3.23867e-06
3.29943e-06
-3.24622e-06
3.24046e-06
-2.98918e-06
3.07151e-06
-2.59544e-06
2.94552e-06
-2.17151e-06
2.90087e-06
-1.64671e-06
2.79922e-06
-1.0732e-06
2.78819e-06
-2.81682e-07
2.77299e-06
2.18697e-07
2.76825e-06
1.05772e-06
1.38768e-06
2.80577e-06
2.47848e-06
-1.54876e-07
2.48823e-06
-1.36298e-07
2.48434e-06
-1.88337e-07
2.51838e-06
-2.08886e-07
2.55371e-06
-3.38862e-07
2.56393e-06
-2.13061e-07
2.51723e-06
-6.75781e-08
2.38978e-06
1.69609e-08
2.39813e-06
-3.68598e-07
2.37245e-06
-6.85227e-07
2.43607e-06
-9.37984e-07
2.40076e-06
-9.86172e-07
2.39336e-06
-1.05668e-06
2.44717e-06
-1.4714e-06
2.41727e-06
-1.78535e-06
2.52707e-06
-2.29592e-06
2.69347e-06
-2.93047e-06
2.66309e-06
-3.20829e-06
2.50317e-06
-3.0863e-06
2.28414e-06
-2.77015e-06
2.06067e-06
-2.37197e-06
1.93797e-06
-2.04882e-06
1.7784e-06
-1.48713e-06
1.66297e-06
-9.57771e-07
1.71837e-06
-3.37089e-07
1.68088e-06
2.56191e-07
1.72706e-06
1.01153e-06
1.35204e-06
1.76271e-06
2.41354e-06
-7.71225e-08
2.40291e-06
-1.25665e-07
2.44807e-06
-2.33491e-07
2.50273e-06
-2.63553e-07
2.4974e-06
-3.33527e-07
2.46939e-06
-1.85056e-07
2.38494e-06
1.68772e-08
2.31074e-06
9.11624e-08
2.2932e-06
-3.5106e-07
2.26319e-06
-6.55224e-07
2.26627e-06
-9.41062e-07
2.19114e-06
-9.11043e-07
2.22894e-06
-1.09448e-06
2.17647e-06
-1.41893e-06
2.11343e-06
-1.72231e-06
2.18556e-06
-2.36804e-06
2.11147e-06
-2.85638e-06
1.86222e-06
-2.95904e-06
1.56841e-06
-2.79249e-06
1.2782e-06
-2.47994e-06
9.84929e-07
-2.0787e-06
6.99931e-07
-1.76382e-06
4.91786e-07
-1.27899e-06
4.27806e-07
-8.93791e-07
3.82137e-07
-2.9142e-07
3.65417e-07
2.72911e-07
5.41365e-07
8.35586e-07
1.23821e-06
6.55193e-07
2.41277e-06
2.18343e-08
2.39372e-06
-1.06608e-07
2.44309e-06
-2.82863e-07
2.51255e-06
-3.33009e-07
2.55013e-06
-3.71108e-07
2.55497e-06
-1.89904e-07
2.48295e-06
8.89057e-08
2.40652e-06
1.6759e-07
2.27863e-06
-2.23166e-07
2.18866e-06
-5.65257e-07
2.09121e-06
-8.43615e-07
2.00134e-06
-8.2117e-07
1.99421e-06
-1.08736e-06
1.84626e-06
-1.27098e-06
1.75969e-06
-1.63574e-06
1.67688e-06
-2.28523e-06
1.38133e-06
-2.56083e-06
9.52956e-07
-2.53067e-06
5.19517e-07
-2.35905e-06
1.43101e-07
-2.10352e-06
-2.0128e-07
-1.73432e-06
-4.56702e-07
-1.5084e-06
-6.54105e-07
-1.08158e-06
-8.39334e-07
-7.08561e-07
-9.18591e-07
-2.12163e-07
-8.1928e-07
1.736e-07
-6.82014e-07
6.9832e-07
1.0841e-06
-5.27901e-07
2.36488e-06
1.64643e-07
2.30175e-06
-4.34808e-08
2.33044e-06
-3.11549e-07
2.39079e-06
-3.93365e-07
2.36433e-06
-3.44648e-07
2.34253e-06
-1.68103e-07
2.2814e-06
1.50036e-07
2.24405e-06
2.04942e-07
2.14405e-06
-1.23164e-07
2.0581e-06
-4.79313e-07
1.92265e-06
-7.08165e-07
1.86882e-06
-7.67334e-07
1.7699e-06
-9.88437e-07
1.52902e-06
-1.03011e-06
1.33816e-06
-1.44487e-06
1.03264e-06
-1.97971e-06
5.4982e-07
-2.07801e-06
1.38075e-09
-1.98223e-06
-5.14613e-07
-1.84306e-06
-9.57184e-07
-1.66095e-06
-1.34241e-06
-1.34909e-06
-1.69892e-06
-1.15189e-06
-1.92461e-06
-8.55894e-07
-2.08996e-06
-5.43205e-07
-2.11249e-06
-1.89642e-07
-2.0638e-06
1.24914e-07
-1.92464e-06
5.59157e-07
8.05868e-07
-1.64641e-06
2.51605e-06
2.50783e-07
2.30372e-06
1.68852e-07
2.17203e-06
-1.79861e-07
2.11463e-06
-3.35967e-07
2.04282e-06
-2.72831e-07
2.04027e-06
-1.65555e-07
2.19185e-06
-1.54748e-09
2.33596e-06
6.08345e-08
2.25669e-06
-4.38916e-08
2.06064e-06
-2.83263e-07
1.84018e-06
-4.87711e-07
1.69769e-06
-6.24838e-07
1.43673e-06
-7.27477e-07
1.07899e-06
-6.72368e-07
7.47582e-07
-1.11347e-06
2.40672e-07
-1.4728e-06
-3.50712e-07
-1.48663e-06
-9.74295e-07
-1.35865e-06
-1.57463e-06
-1.24273e-06
-2.07275e-06
-1.16283e-06
-2.47329e-06
-9.48553e-07
-2.83401e-06
-7.91166e-07
-3.10262e-06
-5.87281e-07
-3.27763e-06
-3.68197e-07
-3.32195e-06
-1.45321e-07
-3.28683e-06
8.97902e-08
-3.10938e-06
3.81715e-07
5.51732e-07
-2.85525e-06
2.13557e-06
2.08044e-07
2.1222e-06
1.82212e-07
2.10469e-06
-1.6235e-07
2.08119e-06
-3.12461e-07
2.0142e-06
-2.05843e-07
2.01092e-06
-1.62274e-07
2.1569e-06
-1.47534e-07
2.32558e-06
-1.07845e-07
2.30862e-06
-2.69309e-08
2.14152e-06
-1.16163e-07
1.87532e-06
-2.21512e-07
1.60464e-06
-3.54151e-07
1.20367e-06
-3.26509e-07
7.79078e-07
-2.47778e-07
2.65947e-07
-6.00337e-07
-4.35789e-07
-7.71066e-07
-1.16922e-06
-7.53191e-07
-1.85289e-06
-6.74976e-07
-2.47954e-06
-6.16087e-07
-3.06238e-06
-5.79984e-07
-3.52661e-06
-4.84325e-07
-3.91278e-06
-4.04993e-07
-4.19821e-06
-3.01856e-07
-4.37093e-06
-1.95473e-07
-4.43284e-06
-8.34102e-08
-4.39016e-06
4.71106e-08
-4.19713e-06
1.88683e-07
2.85514e-07
-3.93091e-06
2.28638e-06
2.46859e-06
2.30624e-06
1.99378e-06
1.78794e-06
1.62567e-06
1.47813e-06
1.37029e-06
1.34336e-06
1.22719e-06
1.00568e-06
6.5153e-07
3.25021e-07
7.72431e-08
-5.23094e-07
-1.29416e-06
-2.04735e-06
-2.72233e-06
-3.33841e-06
-3.9184e-06
-4.40272e-06
-4.80772e-06
-5.10957e-06
-5.30505e-06
-5.38846e-06
-5.34135e-06
-5.15266e-06
-4.86715e-06
5.10805e-06
3.22176e-07
-2.16879e-07
4.5426e-06
1.4192e-06
-8.53753e-07
4.54508e-06
-7.2422e-07
7.21743e-07
4.29066e-06
-6.99961e-09
2.61417e-07
4.47256e-06
-3.11569e-08
-1.50747e-07
3.70149e-06
-3.73707e-06
4.50814e-06
1.23103e-06
-1.21397e-06
3.68443e-06
-2.175e-06
-3.34446e-07
3.74048e-06
4.94472e-06
3.39161e-08
4.87989e-06
1.48403e-06
4.21267e-06
-5.69992e-08
3.86394e-06
3.41729e-07
4.19763e-06
-3.64839e-07
1.0678e-06
-6.07244e-07
7.36802e-07
-8.82976e-07
-2.9855e-06
1.5473e-06
4.40235e-06
5.58428e-07
4.84747e-06
1.03891e-06
4.10762e-06
6.8285e-07
3.97856e-06
4.70784e-07
4.10826e-06
-4.94539e-07
3.02102e-06
4.79999e-07
3.29316e-06
-1.15512e-06
-2.2896e-06
2.59727e-06
4.63754e-06
7.71445e-07
4.50502e-06
1.17142e-06
4.36378e-06
8.24094e-07
4.02253e-06
8.1203e-07
3.57029e-06
-4.23024e-08
3.68302e-06
3.67272e-07
2.07434e-06
4.53563e-07
-6.00632e-07
3.85368e-07
4.76585e-06
9.37321e-07
4.62911e-06
1.30816e-06
4.42115e-06
1.03206e-06
4.19052e-06
1.04266e-06
3.53369e-06
6.14523e-07
3.41619e-06
4.84775e-07
2.87776e-06
9.91988e-07
-1.57891e-08
2.29292e-06
4.76352e-06
1.23127e-06
4.62351e-06
1.44817e-06
4.26244e-06
1.39313e-06
4.13806e-06
1.16704e-06
3.60851e-06
1.14407e-06
3.16518e-06
9.28109e-07
2.90036e-06
1.2568e-06
5.28096e-07
2.35648e-06
4.87089e-06
1.4204e-06
4.67221e-06
1.64684e-06
4.36387e-06
1.70147e-06
4.06739e-06
1.46352e-06
3.60301e-06
1.60845e-06
3.28874e-06
1.24238e-06
2.9751e-06
1.57044e-06
1.04431e-06
2.45888e-06
4.8703e-06
1.68626e-06
4.63884e-06
1.87831e-06
4.29673e-06
2.04358e-06
3.97912e-06
1.78113e-06
3.56984e-06
2.01773e-06
3.24519e-06
1.56703e-06
2.94065e-06
1.87498e-06
1.36575e-06
2.6192e-06
4.93941e-06
1.93728e-06
4.68032e-06
2.1374e-06
4.31407e-06
2.40983e-06
3.95699e-06
2.13821e-06
3.56139e-06
2.41333e-06
3.22947e-06
1.89896e-06
2.97032e-06
2.13412e-06
1.68622e-06
2.64986e-06
4.90617e-06
2.14742e-06
4.66085e-06
2.38272e-06
4.32369e-06
2.74699e-06
3.92255e-06
2.53935e-06
3.55428e-06
2.78161e-06
3.24426e-06
2.20898e-06
2.99588e-06
2.3825e-06
1.91794e-06
2.76416e-06
4.59414e-06
2.20577e-06
4.46487e-06
2.51198e-06
4.18963e-06
3.02223e-06
3.86729e-06
2.86169e-06
3.52743e-06
3.12146e-06
3.22054e-06
2.51587e-06
3.0344e-06
2.56864e-06
2.13375e-06
2.81859e-06
3.87955e-06
2.13835e-06
3.96581e-06
2.42572e-06
3.82488e-06
3.16316e-06
3.68538e-06