/*--------------------------------*- C++ -*----------------------------------*\
| =========                 |                                                 |
| \\      /  F ield         | OpenFOAM: The Open Source CFD Toolbox           |
|  \\    /   O peration     | Version:  2.4.0                                 |
|   \\  /    A nd           | Web:      www.OpenFOAM.org                      |
|    \\/     M anipulation  |                                                 |
\*---------------------------------------------------------------------------*/
FoamFile
{
    version     2.0;
    format      ascii;
    class       volVectorField;
    location    "1.93";
    object      UMean;
}
// * * * * * * * * * * * * * * * * * * * * * * * * * * * * * * * * * * * * * //

dimensions      [0 1 -1 0 0 0 0];

internalField   nonuniform List<vector> 
2320
(
(0.810527 0.00155077 0)
(1.1344 -0.0016927 0)
(0.797581 -0.0025904 0)
(1.1457 -0.00432907 0)
(0.787292 -0.00267483 0)
(1.15495 -0.00378674 0)
(0.7751 -0.00356483 0)
(1.16286 -0.00708492 0)
(0.768059 -0.00471966 0)
(1.16928 -0.00702803 0)
(0.758276 -0.00475243 0)
(1.17624 -0.00888967 0)
(0.751665 -0.00649502 0)
(1.18516 -0.0104682 0)
(0.742772 -0.0100186 0)
(1.20096 -0.0142471 0)
(0.739552 -0.0121853 0)
(1.22101 -0.0205382 0)
(0.747054 -0.016282 0)
(1.25271 -0.0266531 0)
(0.953239 0.000350638 0)
(0.990635 0.00264056 0)
(0.95628 3.80506e-05 0)
(0.994834 0.00223557 0)
(0.956503 0.00148042 0)
(0.997534 0.00170665 0)
(0.958073 0.00337646 0)
(1.00188 0.00243888 0)
(0.96129 0.00488867 0)
(1.00396 0.00256909 0)
(0.965969 0.00575416 0)
(1.00736 0.000857261 0)
(0.970328 0.00818736 0)
(1.00778 0.000856721 0)
(0.977867 0.00993236 0)
(1.01162 -0.000611471 0)
(0.989911 0.010927 0)
(1.02029 -0.00344389 0)
(1.00729 0.0114849 0)
(1.0479 -0.00504063 0)
(0.999247 0.00536768 0)
(0.942586 -0.00385954 0)
(1.00543 0.00364627 0)
(0.943761 -0.00672028 0)
(1.00817 0.00428067 0)
(0.943448 -0.00812968 0)
(1.01273 0.00471414 0)
(0.945782 -0.0104886 0)
(1.01831 0.004266 0)
(0.947589 -0.0125243 0)
(1.02558 0.00655676 0)
(0.945594 -0.0147539 0)
(1.03332 0.00807393 0)
(0.945246 -0.0193668 0)
(1.04056 0.00636314 0)
(0.946153 -0.025903 0)
(1.05086 0.00502736 0)
(0.951621 -0.0351677 0)
(1.06869 -0.00245135 0)
(0.974436 -0.0492324 0)
(0.9989 0.00442808 0)
(0.943933 -0.0038014 0)
(1.00284 0.0043404 0)
(0.945183 -0.00595597 0)
(1.00736 0.00518816 0)
(0.946841 -0.00721271 0)
(1.01301 0.00663158 0)
(0.947595 -0.00937601 0)
(1.01802 0.00859838 0)
(0.949714 -0.0109042 0)
(1.02437 0.0120775 0)
(0.952346 -0.0144742 0)
(1.0322 0.0149654 0)
(0.960654 -0.0171927 0)
(1.04011 0.0172828 0)
(0.970986 -0.0232793 0)
(1.0551 0.0163777 0)
(0.990027 -0.0331325 0)
(1.07827 0.00956767 0)
(1.01773 -0.0474465 0)
(0.991363 0.00966324 0)
(0.951523 -0.00980067 0)
(0.993665 0.00909957 0)
(0.95265 -0.0138056 0)
(0.997112 0.00999 0)
(0.954072 -0.0149573 0)
(0.998222 0.0116449 0)
(0.953785 -0.0177598 0)
(1.00042 0.012706 0)
(0.955241 -0.0209071 0)
(1.00467 0.015075 0)
(0.957508 -0.0251872 0)
(1.00854 0.0162954 0)
(0.960498 -0.0310077 0)
(1.0143 0.0155926 0)
(0.968654 -0.0413941 0)
(1.02212 0.0134395 0)
(0.982732 -0.0566985 0)
(1.03507 0.00528833 0)
(1.00948 -0.0805532 0)
(0.997202 0.00784327 0)
(0.947092 -0.00919363 0)
(1.00098 0.00581962 0)
(0.944743 -0.0126865 0)
(1.0033 0.00620735 0)
(0.944815 -0.0138015 0)
(1.0075 0.00869025 0)
(0.94882 -0.0171507 0)
(1.01342 0.00946536 0)
(0.950503 -0.0207584 0)
(1.01998 0.0134387 0)
(0.95199 -0.0242431 0)
(1.02828 0.0153382 0)
(0.955171 -0.0294644 0)
(1.03993 0.016439 0)
(0.95809 -0.0399238 0)
(1.05901 0.0139011 0)
(0.965419 -0.0558435 0)
(1.08418 0.00325007 0)
(0.983021 -0.0784654 0)
(0.977945 0.013541 0)
(0.968506 -0.014138 0)
(0.981807 0.0146695 0)
(0.967096 -0.0171261 0)
(0.982908 0.014748 0)
(0.966017 -0.0202717 0)
(0.989581 0.0157816 0)
(0.973208 -0.0237824 0)
(0.99552 0.0187659 0)
(0.975089 -0.0275233 0)
(1.00068 0.0216868 0)
(0.980881 -0.0332259 0)
(1.00797 0.0235903 0)
(0.98689 -0.0407926 0)
(1.01807 0.023788 0)
(0.994141 -0.0546889 0)
(1.03395 0.0208262 0)
(1.00332 -0.0736263 0)
(1.06017 0.00861262 0)
(1.01774 -0.103777 0)
(0.972893 0.00864402 0)
(0.974898 -0.0119209 0)
(0.979308 0.00822205 0)
(0.976758 -0.014528 0)
(0.986294 0.00683965 0)
(0.978687 -0.0183289 0)
(0.992477 0.00620586 0)
(0.97909 -0.0218513 0)
(0.998533 0.00904972 0)
(0.981598 -0.0253591 0)
(1.00644 0.0110374 0)
(0.984601 -0.0304467 0)
(1.01511 0.0123841 0)
(0.990118 -0.0381886 0)
(1.02519 0.0132508 0)
(0.996263 -0.0526449 0)
(1.03649 0.0103954 0)
(1.00665 -0.0750854 0)
(1.05508 0.000260446 0)
(1.01931 -0.109439 0)
(0.964913 0.0147216 0)
(0.984095 -0.0185856 0)
(0.970874 0.0154021 0)
(0.9877 -0.0215886 0)
(0.978493 0.0153412 0)
(0.990193 -0.0248195 0)
(0.984905 0.0164772 0)
(0.992027 -0.0274237 0)
(0.992488 0.0184439 0)
(0.996029 -0.0316012 0)
(0.999331 0.0208015 0)
(1.00013 -0.0356845 0)
(1.00498 0.0207108 0)
(1.00643 -0.0429859 0)
(1.01178 0.0198401 0)
(1.01446 -0.0568716 0)
(1.0206 0.0137824 0)
(1.02411 -0.0805471 0)
(1.03678 2.88508e-05 0)
(1.03655 -0.121625 0)
(0.959322 0.00685459 0)
(0.989194 -0.0122912 0)
(0.96332 0.00445672 0)
(0.99082 -0.0159471 0)
(0.969166 0.00299071 0)
(0.993944 -0.0180085 0)
(0.976115 0.00275518 0)
(0.999458 -0.0206241 0)
(0.985493 0.00295324 0)
(1.00417 -0.0232803 0)
(0.990989 0.0042448 0)
(1.0073 -0.0271076 0)
(0.998245 0.00295647 0)
(1.00915 -0.0341885 0)
(1.00372 0.00211192 0)
(1.01577 -0.0475305 0)
(1.008 -0.00155269 0)
(1.02298 -0.0724226 0)
(1.00814 -0.00953598 0)
(1.0342 -0.11942 0)
(0.961068 0.0146001 0)
(0.990254 -0.0203043 0)
(0.960977 0.0128765 0)
(0.991009 -0.0246711 0)
(0.963851 0.0118253 0)
(0.993056 -0.0282713 0)
(0.972757 0.011022 0)
(0.998641 -0.030953 0)
(0.981202 0.0127603 0)
(1.0005 -0.0326149 0)
(0.98418 0.0151203 0)
(1.00213 -0.036289 0)
(0.984994 0.0153794 0)
(1.00174 -0.0421235 0)
(0.988462 0.0104252 0)
(1.00417 -0.0538155 0)
(0.992713 0.00226211 0)
(1.00232 -0.0746707 0)
(1.00209 -0.0168435 0)
(0.995425 -0.114438 0)
(0.970277 0.00291303 0)
(0.980565 -0.00710616 0)
(0.968697 0.000250721 0)
(0.98659 -0.0118131 0)
(0.967407 -0.00214346 0)
(0.995428 -0.0159894 0)
(0.972118 -0.00507124 0)
(1.00299 -0.0163261 0)
(0.974036 -0.00471812 0)
(1.00853 -0.0159002 0)
(0.974249 -0.00495473 0)
(1.01433 -0.0175649 0)
(0.968977 -0.00679087 0)
(1.02226 -0.0232912 0)
(0.96373 -0.0116059 0)
(1.03064 -0.0325494 0)
(0.951786 -0.0160713 0)
(1.03658 -0.0562719 0)
(0.935631 -0.0214907 0)
(1.03634 -0.114006 0)
(0.989133 0.013024 0)
(0.960168 -0.0181521 0)
(0.992834 0.00844254 0)
(0.961285 -0.0245427 0)
(0.994391 0.00613133 0)
(0.969186 -0.0294074 0)
(0.997585 0.00446084 0)
(0.976763 -0.0304802 0)
(1.00016 0.00673608 0)
(0.98341 -0.0303619 0)
(1.00158 0.00903619 0)
(0.987462 -0.0318719 0)
(0.997574 0.00752307 0)
(0.992307 -0.0382427 0)
(0.99042 0.000415234 0)
(1.00249 -0.0459624 0)
(0.97458 -0.0083049 0)
(1.01483 -0.0654561 0)
(0.931864 -0.0231816 0)
(1.02882 -0.125272 0)
(0.98599 -8.09865e-05 0)
(0.962174 -0.00415671 0)
(0.988556 -0.00514419 0)
(0.959871 -0.00888124 0)
(0.990446 -0.0103858 0)
(0.966136 -0.0128716 0)
(0.99656 -0.0144745 0)
(0.974193 -0.0109751 0)
(1.00314 -0.0151549 0)
(0.978837 -0.00822037 0)
(1.00537 -0.0156174 0)
(0.97665 -0.00533728 0)
(1.00267 -0.018925 0)
(0.975213 -0.00612783 0)
(1.00265 -0.0290729 0)
(0.981166 -0.00542629 0)
(0.998456 -0.0413264 0)
(0.985871 -0.00807766 0)
(0.972267 -0.0539969 0)
(0.985481 -0.0321125 0)
(0.995578 0.0128727 0)
(0.95377 -0.0178686 0)
(0.998751 0.00906773 0)
(0.95185 -0.0245733 0)
(1.00184 0.00327572 0)
(0.96015 -0.0321976 0)
(1.01021 0.000492427 0)
(0.971128 -0.0334336 0)
(1.01839 0.00350485 0)
(0.974915 -0.0310278 0)
(1.02051 0.00903122 0)
(0.970868 -0.0323239 0)
(1.02161 0.00707907 0)
(0.969255 -0.0416597 0)
(1.02294 -0.00313199 0)
(0.977072 -0.0462163 0)
(1.0163 -0.0133178 0)
(0.99006 -0.0502562 0)
(0.990192 -0.029334 0)
(1.00636 -0.0824487 0)
(0.988955 -0.00301307 0)
(0.960085 -0.00109256 0)
(0.992321 -0.00861022 0)
(0.957171 -0.00677487 0)
(0.998083 -0.0189078 0)
(0.963717 -0.0132815 0)
(1.00917 -0.0246571 0)
(0.974042 -0.00952829 0)
(1.01335 -0.0236398 0)
(0.976747 -0.000811911 0)
(1.01311 -0.019689 0)
(0.968729 0.00369504 0)
(1.01607 -0.0245943 0)
(0.949676 0.0040897 0)
(1.02268 -0.0422141 0)
(0.938018 0.0135035 0)
(1.02737 -0.0675986 0)
(0.931191 0.0315041 0)
(1.01561 -0.0912906 0)
(0.932022 0.072165 0)
(0.981257 0.0123872 0)
(0.969822 -0.0184416 0)
(0.982654 0.00940374 0)
(0.9686 -0.0280951 0)
(0.988316 -0.000423944 0)
(0.973076 -0.0382809 0)
(0.995929 -0.00445947 0)
(0.9739 -0.0363363 0)
(0.999718 0.000683103 0)
(0.974411 -0.0314543 0)
(1.00418 0.0101213 0)
(0.966872 -0.0357002 0)
(1.00682 0.0161476 0)
(0.946619 -0.0497555 0)
(1.02079 0.00824318 0)
(0.930447 -0.0556317 0)
(1.02979 -0.00205108 0)
(0.893339 -0.0494503 0)
(1.03014 -0.0434199 0)
(0.879026 -0.041112 0)
(0.976583 -0.00679407 0)
(0.974043 0.00359524 0)
(0.976462 -0.0120933 0)
(0.974076 -0.00520732 0)
(0.978469 -0.0240861 0)
(0.970989 -0.0122792 0)
(0.969651 -0.0271968 0)
(0.964664 -0.00676572 0)
(0.968142 -0.0272442 0)
(0.962061 0.00580617 0)
(0.969365 -0.0194773 0)
(0.959985 0.0101056 0)
(0.966541 -0.0163603 0)
(0.965761 0.00184775 0)
(0.966925 -0.0359534 0)
(0.964 0.0107102 0)
(0.969801 -0.0541387 0)
(0.92951 0.0473458 0)
(0.957003 -0.0840989 0)
(0.829778 0.188004 0)
(0.986067 0.0102854 0)
(0.963122 -0.0154712 0)
(0.986026 0.00612157 0)
(0.957278 -0.0278554 0)
(0.972937 -0.00275548 0)
(0.925599 -0.0330283 0)
(0.942358 -0.00484842 0)
(0.901907 -0.0348904 0)
(0.917263 -0.00298882 0)
(0.881147 -0.0309009 0)
(0.910044 0.00398222 0)
(0.864032 -0.0327517 0)
(0.909774 0.00660207 0)
(0.870406 -0.0509067 0)
(0.87241 0.00743947 0)
(0.87031 -0.0616997 0)
(0.836804 0.0175029 0)
(0.873434 -0.0628437 0)
(0.888335 -0.0213967 0)
(0.717711 -0.0223668 0)
(0.98944 -0.00893996 0)
(0.958107 0.00837417 0)
(0.981539 -0.012216 0)
(0.937234 0.00652378 0)
(0.94048 -0.00918585 0)
(0.905821 0.00782494 0)
(0.891897 -0.0143693 0)
(0.859242 0.0117844 0)
(0.844895 -0.0160835 0)
(0.810118 0.0179753 0)
(0.820571 -0.0120857 0)
(0.781316 0.0187566 0)
(0.796408 -0.0177836 0)
(0.745508 0.0255944 0)
(0.74442 -0.030899 0)
(0.689597 0.0326964 0)
(0.676686 -0.0459224 0)
(0.631657 0.0312133 0)
(0.580522 0.0219783 0)
(0.641335 0.222454 0)
(0.760998 -0.0243256 0)
(1.3072 -0.0377108 0)
(0.802159 -0.0340474 0)
(1.39571 -0.0402307 0)
(0.867988 -0.035917 0)
(1.50233 -0.0536981 0)
(0.985622 -0.0471488 0)
(1.6396 -0.0648096 0)
(1.03644 0.0101544 0)
(1.10184 -0.0100762 0)
(1.07845 0.00285362 0)
(1.18265 -0.0146365 0)
(1.15289 -0.0149255 0)
(1.28852 -0.0222083 0)
(1.26231 -0.019978 0)
(1.42523 -0.0305926 0)
(1.10318 -0.0188651 0)
(1.03072 -0.0673889 0)
(1.15248 -0.043399 0)
(1.13083 -0.0799401 0)
(1.21881 -0.0659377 0)
(1.24834 -0.0982014 0)
(1.31962 -0.0898485 0)
(1.3898 -0.129067 0)
(1.11682 -0.00671982 0)
(1.05986 -0.0624877 0)
(1.17247 -0.0346354 0)
(1.12892 -0.0733272 0)
(1.25622 -0.0717445 0)
(1.23261 -0.0905773 0)
(1.37659 -0.0995339 0)
(1.37939 -0.121732 0)
(1.05645 -0.0156664 0)
(1.06504 -0.109436 0)
(1.10228 -0.0540117 0)
(1.15913 -0.132748 0)
(1.19164 -0.101725 0)
(1.27018 -0.155928 0)
(1.33391 -0.150669 0)
(1.38807 -0.195074 0)
(1.11995 -0.0224705 0)
(1.02824 -0.107373 0)
(1.16722 -0.0686146 0)
(1.12477 -0.136493 0)
(1.22823 -0.121866 0)
(1.25859 -0.168418 0)
(1.31598 -0.169273 0)
(1.40109 -0.209563 0)
(1.10178 -0.0242877 0)
(1.04907 -0.141616 0)
(1.15909 -0.0839089 0)
(1.12043 -0.177015 0)
(1.23534 -0.15526 0)
(1.21627 -0.204826 0)
(1.33807 -0.21611 0)
(1.39847 -0.268517 0)
(1.08993 -0.0296074 0)
(1.04162 -0.151371 0)
(1.14959 -0.0906496 0)
(1.11595 -0.188333 0)
(1.18824 -0.157285 0)
(1.23753 -0.230788 0)
(1.35534 -0.259654 0)
(1.40328 -0.291807 0)
(1.0737 -0.0340207 0)
(1.0495 -0.180296 0)
(1.15494 -0.107677 0)
(1.05725 -0.20649 0)
(1.22048 -0.193713 0)
(1.271 -0.295184 0)
(1.35641 -0.295567 0)
(1.43207 -0.352338 0)
(1.00776 -0.0345495 0)
(1.06636 -0.198629 0)
(1.04698 -0.0855761 0)
(1.08238 -0.252534 0)
(1.27857 -0.250444 0)
(1.25919 -0.319971 0)
(1.37013 -0.330671 0)
(1.41814 -0.37582 0)
(1.03155 -0.0633456 0)
(1.00841 -0.192623 0)
(1.03652 -0.102389 0)
(1.16024 -0.330792 0)
(1.2845 -0.267197 0)
(1.24485 -0.355562 0)
(1.3699 -0.358158 0)
(1.38186 -0.406792 0)
(0.956337 -0.0478516 0)
(0.992604 -0.189541 0)
(1.10849 -0.165469 0)
(1.17831 -0.367607 0)
(1.27125 -0.278094 0)
(1.22906 -0.389454 0)
(1.36258 -0.379394 0)
(1.3162 -0.410753 0)
(0.841022 -0.0639786 0)
(1.04932 -0.265173 0)
(1.11649 -0.221832 0)
(1.18474 -0.402945 0)
(1.24348 -0.285748 0)
(1.22068 -0.431444 0)
(1.32381 -0.374748 0)
(1.22787 -0.414286 0)
(0.889124 -0.0709255 0)
(1.0776 -0.297812 0)
(1.13108 -0.260797 0)
(1.1715 -0.408033 0)
(1.20693 -0.286927 0)
(1.20012 -0.454248 0)
(1.25235 -0.350691 0)
(1.17463 -0.435886 0)
(0.880553 -0.138262 0)
(1.08881 -0.360534 0)
(1.12326 -0.305181 0)
(1.13259 -0.417098 0)
(1.17801 -0.304344 0)
(1.159 -0.471779 0)
(1.18679 -0.325844 0)
(1.12658 -0.475979 0)
(0.929201 -0.138315 0)
(1.08054 -0.362322 0)
(1.11149 -0.315712 0)
(1.0945 -0.403975 0)
(1.15067 -0.311908 0)
(1.10102 -0.461618 0)
(1.11687 -0.299261 0)
(1.10074 -0.520619 0)
(0.912751 -0.266055 0)
(1.05698 -0.414749 0)
(1.06051 -0.352132 0)
(1.04887 -0.413252 0)
(1.09459 -0.329133 0)
(1.03113 -0.457476 0)
(1.07147 -0.304416 0)
(1.0594 -0.569998 0)
(0.9319 -0.260992 0)
(1.02263 -0.3783 0)
(1.02195 -0.337202 0)
(1.01118 -0.392325 0)
(1.04952 -0.322885 0)
(0.9724 -0.436448 0)
(1.02934 -0.303717 0)
(0.984991 -0.574991 0)
(0.900573 -0.441825 0)
(0.967887 -0.4478 0)
(0.963938 -0.383805 0)
(0.953822 -0.410441 0)
(0.976047 -0.339017 0)
(0.893761 -0.430265 0)
(0.960928 -0.329959 0)
(0.883133 -0.579457 0)
(0.92142 -0.399875 0)
(0.8799 -0.371999 0)
(0.925985 -0.34415 0)
(0.856856 -0.367532 0)
(0.903136 -0.312368 0)
(0.795688 -0.397975 0)
(0.866444 -0.311774 0)
(0.694767 -0.505459 0)
(1.12652 -0.0580916 0)
(1.81269 -0.0796772 0)
(1.31595 -0.0655981 0)
(2.02225 -0.0925761 0)
(1.56794 -0.064662 0)
(2.26722 -0.0880968 0)
(1.84569 -0.0610654 0)
(2.53997 -0.0876339 0)
(2.15436 -0.0564781 0)
(2.81911 -0.083586 0)
(2.46694 -0.0496627 0)
(3.08347 -0.0753815 0)
(2.75101 -0.0406196 0)
(3.30458 -0.064225 0)
(2.976 -0.0291509 0)
(3.45624 -0.0518311 0)
(3.11756 -0.0166451 0)
(3.51934 -0.0392764 0)
(3.15854 -0.00433854 0)
(3.48619 -0.028254 0)
(3.0934 0.00618746 0)
(3.36574 -0.020295 0)
(2.93104 0.0143461 0)
(3.17495 -0.0182782 0)
(2.69666 0.0189181 0)
(2.94435 -0.0242403 0)
(2.43191 0.0217365 0)
(2.71679 -0.0457413 0)
(1.4099 -0.0252692 0)
(1.59736 -0.0417521 0)
(1.59595 -0.0347087 0)
(1.8078 -0.0584145 0)
(1.80488 -0.0538814 0)
(2.05341 -0.0736888 0)
(2.05258 -0.0693962 0)
(2.33678 -0.0877509 0)
(2.32101 -0.0767428 0)
(2.63792 -0.0916674 0)
(2.59044 -0.0736244 0)
(2.92801 -0.0837881 0)
(2.83605 -0.0593681 0)
(3.17397 -0.0627403 0)
(3.02944 -0.0343756 0)
(3.34736 -0.0317287 0)
(3.14728 -0.0018115 0)
(3.42679 0.00568335 0)
(3.17154 0.0348666 0)
(3.40144 0.044856 0)
(3.09659 0.0700354 0)
(3.27521 0.0800089 0)
(2.93069 0.100868 0)
(3.06528 0.105749 0)
(2.69278 0.123515 0)
(2.80058 0.11468 0)
(2.41638 0.140057 0)
(2.51249 0.103897 0)
(1.46466 -0.111904 0)
(1.57002 -0.163414 0)
(1.64946 -0.136419 0)
(1.78996 -0.19147 0)
(1.88076 -0.159374 0)
(2.03833 -0.208486 0)
(2.15447 -0.178699 0)
(2.3199 -0.221455 0)
(2.44433 -0.187338 0)
(2.61806 -0.220979 0)
(2.72616 -0.177699 0)
(2.90777 -0.201093 0)
(2.97061 -0.148318 0)
(3.15796 -0.16273 0)
(3.15305 -0.102782 0)
(3.33842 -0.109673 0)
(3.25438 -0.0457365 0)
(3.42645 -0.0479249 0)
(3.26076 0.0158152 0)
(3.40852 0.0145841 0)
(3.17233 0.0740859 0)
(3.28704 0.0684509 0)
(2.9983 0.123237 0)
(3.07791 0.105452 0)
(2.75983 0.159389 0)
(2.80921 0.116678 0)
(2.4884 0.1824 0)
(2.51889 0.0977673 0)
(1.52052 -0.126578 0)
(1.56598 -0.157255 0)
(1.68859 -0.152041 0)
(1.78947 -0.195055 0)
(1.89986 -0.182297 0)
(2.05173 -0.229686 0)
(2.16096 -0.212217 0)
(2.33503 -0.250139 0)
(2.45914 -0.225522 0)
(2.62148 -0.248639 0)
(2.75867 -0.215199 0)
(2.89086 -0.221012 0)
(3.0224 -0.176115 0)
(3.12152 -0.169627 0)
(3.22245 -0.112758 0)
(3.28772 -0.0985622 0)
(3.3371 -0.0327539 0)
(3.36916 -0.0146351 0)
(3.35052 0.0559643 0)
(3.35152 0.0710986 0)
(3.26042 0.14144 0)
(3.23294 0.148347 0)
(3.08025 0.213245 0)
(3.02559 0.205318 0)
(2.83296 0.262396 0)
(2.76076 0.231898 0)
(2.55057 0.283175 0)
(2.48469 0.223527 0)
(1.50526 -0.192245 0)
(1.55146 -0.237898 0)
(1.69984 -0.236513 0)
(1.77599 -0.29016 0)
(1.92338 -0.279087 0)
(2.05124 -0.337663 0)
(2.17487 -0.311274 0)
(2.35247 -0.368244 0)
(2.45349 -0.324935 0)
(2.65122 -0.366804 0)
(2.74123 -0.309953 0)
(2.91971 -0.328627 0)
(3.00672 -0.260351 0)
(3.14247 -0.25808 0)
(3.21443 -0.179335 0)
(3.30071 -0.162595 0)
(3.34227 -0.0777774 0)
(3.37346 -0.0518555 0)
(3.37246 0.0336584 0)
(3.35031 0.0608195 0)
(3.29774 0.142415 0)
(3.22853 0.162015 0)
(3.12621 0.235336 0)
(3.01701 0.235807 0)
(2.87489 0.298412 0)
(2.7467 0.271565 0)
(2.57916 0.319355 0)
(2.46161 0.266468 0)
(1.48404 -0.219327 0)
(1.56753 -0.25819 0)
(1.71094 -0.279041 0)
(1.77605 -0.311295 0)
(1.9603 -0.333383 0)
(2.02311 -0.362886 0)
(2.21758 -0.373981 0)
(2.30818 -0.399601 0)
(2.47801 -0.385506 0)
(2.60367 -0.402 0)
(2.73203 -0.359815 0)
(2.8764 -0.361108 0)
(2.96869 -0.296753 0)
(3.10459 -0.279703 0)
(3.16079 -0.198493 0)
(3.27072 -0.168337 0)
(3.27903 -0.0732894 0)
(3.35269 -0.0366357 0)
(3.31304 0.062484 0)
(3.3397 0.100233 0)
(3.25696 0.195896 0)
(3.23301 0.225186 0)
(3.10769 0.310046 0)
(3.04169 0.31984 0)
(2.87046 0.38633 0)
(2.78548 0.369914 0)
(2.57442 0.410409 0)
(2.49708 0.367415 0)
(1.49232 -0.274825 0)
(1.60697 -0.339287 0)
(1.69338 -0.343063 0)
(1.80783 -0.400934 0)
(1.91881 -0.407356 0)
(2.01777 -0.456066 0)
(2.1699 -0.460099 0)
(2.25846 -0.490196 0)
(2.42043 -0.4776 0)
(2.51817 -0.486358 0)
(2.65297 -0.448668 0)
(2.77048 -0.438543 0)
(2.86585 -0.37533 0)
(2.99021 -0.347119 0)
(3.04179 -0.26285 0)
(3.14122 -0.217391 0)
(3.14775 -0.117336 0)
(3.21783 -0.0663703 0)
(3.17991 0.0420736 0)
(3.21505 0.0910844 0)
(3.13916 0.198347 0)
(3.13677 0.238928 0)
(3.01698 0.332304 0)
(2.98847 0.356432 0)
(2.81224 0.425921 0)
(2.77514 0.423192 0)
(2.54341 0.461189 0)
(2.51287 0.426314 0)
(1.53248 -0.332066 0)
(1.59218 -0.363844 0)
(1.68715 -0.38859 0)
(1.77166 -0.425014 0)
(1.86327 -0.448987 0)
(1.9765 -0.491459 0)
(2.08365 -0.503774 0)
(2.18595 -0.528155 0)
(2.31435 -0.522606 0)
(2.39857 -0.521564 0)
(2.52868 -0.491126 0)
(2.61372 -0.470729 0)
(2.7281 -0.413436 0)
(2.79861 -0.369597 0)
(2.868 -0.282032 0)
(2.91132 -0.220634 0)
(2.94882 -0.118651 0)
(2.96801 -0.0519782 0)
(2.97104 0.0582517 0)
(2.97689 0.121139 0)
(2.9372 0.229948 0)
(2.93273 0.284508 0)
(2.84193 0.377015 0)
(2.83055 0.417978 0)
(2.68609 0.483691 0)
(2.66682 0.496883 0)
(2.47924 0.529297 0)
(2.44474 0.506102 0)
(1.51457 -0.372736 0)
(1.55765 -0.408452 0)
(1.64185 -0.431538 0)
(1.70703 -0.478285 0)
(1.8145 -0.51412 0)
(1.89753 -0.558131 0)
(1.98826 -0.569803 0)
(2.07998 -0.598902 0)
(2.16661 -0.588309 0)
(2.24588 -0.588135 0)
(2.34802 -0.55932 0)
(2.42347 -0.5376 0)
(2.50101 -0.47026 0)
(2.54193 -0.415337 0)
(2.5852 -0.320133 0)
(2.61081 -0.252053 0)
(2.63606 -0.145584 0)
(2.64783 -0.0716995 0)
(2.65726 0.0397059 0)
(2.66645 0.114753 0)
(2.63501 0.224099 0)
(2.6505 0.290604 0)
(2.56827 0.386418 0)
(2.58271 0.4388 0)
(2.46596 0.508538 0)
(2.46108 0.532907 0)
(2.3333 0.566816 0)
(2.29227 0.549833 0)
(1.47268 -0.396257 0)
(1.51055 -0.426813 0)
(1.58851 -0.464696 0)
(1.66233 -0.513236 0)
(1.74345 -0.552516 0)
(1.79222 -0.581099 0)
(1.8698 -0.602258 0)
(1.91759 -0.620173 0)
(1.98097 -0.611468 0)
(2.04071 -0.611442 0)
(2.12362 -0.587741 0)
(2.14839 -0.546644 0)
(2.19557 -0.473226 0)
(2.20009 -0.409419 0)
(2.22408 -0.314329 0)
(2.23522 -0.241379 0)
(2.24549 -0.136079 0)
(2.26968 -0.062334 0)
(2.2733 0.0484534 0)
(2.29796 0.130257 0)
(2.27187 0.239135 0)
(2.2999 0.313965 0)
(2.23297 0.413264 0)
(2.26066 0.467235 0)
(2.17529 0.542769 0)
(2.18975 0.561886 0)
(2.10706 0.617803 0)
(2.08045 0.597272 0)
(1.41945 -0.417802 0)
(1.45592 -0.460957 0)
(1.54601 -0.506456 0)
(1.58666 -0.5524 0)
(1.63347 -0.582818 0)
(1.65861 -0.615256 0)
(1.69948 -0.634864 0)
(1.71147 -0.649309 0)
(1.75399 -0.648272 0)
(1.79757 -0.653159 0)
(1.81414 -0.614839 0)
(1.81306 -0.563524 0)
(1.82179 -0.492434 0)
(1.80469 -0.42432 0)
(1.80793 -0.332095 0)
(1.81015 -0.257869 0)
(1.80354 -0.159168 0)
(1.84017 -0.0811682 0)
(1.81864 0.0316323 0)
(1.88033 0.116421 0)
(1.83478 0.224953 0)
(1.88675 0.312344 0)
(1.82751 0.409279 0)
(1.87596 0.4725 0)
(1.81055 0.550711 0)
(1.85105 0.561449 0)
(1.81511 0.619625 0)
(1.83106 0.601832 0)
(1.35455 -0.429391 0)
(1.42249 -0.489243 0)
(1.47976 -0.530685 0)
(1.49115 -0.561088 0)
(1.50225 -0.592001 0)
(1.49021 -0.612295 0)
(1.4917 -0.629852 0)
(1.47356 -0.647054 0)
(1.50453 -0.653831 0)
(1.47481 -0.641247 0)
(1.46684 -0.595205 0)
(1.41954 -0.542132 0)
(1.4073 -0.471009 0)
(1.34863 -0.39725 0)
(1.35668 -0.315634 0)
(1.32652 -0.239111 0)
(1.32946 -0.151506 0)
(1.33782 -0.0726596 0)
(1.33634 0.037289 0)
(1.37748 0.12592 0)
(1.34269 0.235456 0)
(1.39898 0.324303 0)
(1.3729 0.415399 0)
(1.42628 0.479711 0)
(1.42095 0.557307 0)
(1.44729 0.570808 0)
(1.46187 0.6367 0)
(1.51507 0.615333 0)
(1.3286 -0.462632 0)
(1.37443 -0.521621 0)
(1.40206 -0.540785 0)
(1.36283 -0.56222 0)
(1.32311 -0.581975 0)
(1.28403 -0.601644 0)
(1.24317 -0.628934 0)
(1.21716 -0.651344 0)
(1.17284 -0.64633 0)
(1.13372 -0.629466 0)
(1.05626 -0.580742 0)
(1.00227 -0.525147 0)
(0.919301 -0.451789 0)
(0.882571 -0.393456 0)
(0.836376 -0.316712 0)
(0.81621 -0.238317 0)
(0.79508 -0.160003 0)
(0.811087 -0.0870418 0)
(0.802982 0.0182393 0)
(0.830822 0.115147 0)
(0.809727 0.22063 0)
(0.871175 0.304158 0)
(0.871711 0.39617 0)
(0.929267 0.462858 0)
(0.981963 0.530085 0)
(1.03006 0.53323 0)
(1.09892 0.596452 0)
(1.13895 0.592348 0)
(1.29741 -0.494491 0)
(1.31354 -0.527158 0)
(1.28204 -0.521316 0)
(1.18068 -0.529725 0)
(1.12934 -0.553479 0)
(1.0416 -0.572129 0)
(0.983239 -0.599282 0)
(0.885241 -0.609833 0)
(0.841516 -0.611786 0)
(0.722493 -0.580937 0)
(0.641076 -0.528046 0)
(0.530074 -0.471235 0)
(0.457259 -0.411085 0)
(0.365188 -0.352043 0)
(0.319064 -0.280357 0)
(0.267249 -0.216823 0)
(0.272148 -0.150504 0)
(0.22956 -0.0680726 0)
(0.241595 0.0318968 0)
(0.254922 0.122451 0)
(0.262433 0.221784 0)
(0.317948 0.298328 0)
(0.355914 0.37908 0)
(0.438884 0.436789 0)
(0.511994 0.509844 0)
(0.575038 0.523305 0)
(0.693413 0.57808 0)
(0.772269 0.556366 0)
(1.2679 -0.515665 0)
(1.21377 -0.511466 0)
(1.11544 -0.472327 0)
(0.991167 -0.489665 0)
(0.888029 -0.505023 0)
(0.777861 -0.522244 0)
(0.65947 -0.553196 0)
(0.566046 -0.576856 0)
(0.42448 -0.561495 0)
(0.305491 -0.526884 0)
(0.170424 -0.480342 0)
(0.0585854 -0.428318 0)
(-0.0643183 -0.36636 0)
(-0.139556 -0.324639 0)
(-0.232351 -0.260922 0)
(-0.255599 -0.209518 0)
(-0.309335 -0.142202 0)
(-0.326847 -0.0735319 0)
(-0.336877 0.0184604 0)
(-0.321009 0.108437 0)
(-0.302604 0.193754 0)
(-0.223913 0.258243 0)
(-0.184016 0.33994 0)
(-0.0804833 0.391473 0)
(0.0275935 0.450542 0)
(0.138917 0.443004 0)
(0.279987 0.506479 0)
(0.353662 0.502307 0)
(1.21371 -0.51405 0)
(1.061 -0.45589 0)
(0.930604 -0.404343 0)
(0.742439 -0.419765 0)
(0.650215 -0.445578 0)
(0.4801 -0.46345 0)
(0.376256 -0.491565 0)
(0.166654 -0.489393 0)
(0.0573188 -0.484487 0)
(-0.148157 -0.450962 0)
(-0.255619 -0.40414 0)
(-0.447261 -0.352608 0)
(-0.52749 -0.309651 0)
(-0.675284 -0.262973 0)
(-0.735588 -0.219311 0)
(-0.807955 -0.17569 0)
(-0.844886 -0.112189 0)
(-0.895957 -0.0479243 0)
(-0.886616 0.0310996 0)
(-0.889714 0.105114 0)
(-0.824204 0.179882 0)
(-0.775214 0.239348 0)
(-0.686441 0.305977 0)
(-0.571555 0.343203 0)
(-0.422998 0.399109 0)
(-0.328598 0.40618 0)
(-0.140118 0.463754 0)
(-0.0386981 0.436819 0)
(1.10187 -0.465398 0)
(0.876274 -0.372427 0)
(0.708582 -0.318254 0)
(0.533816 -0.361227 0)
(0.373922 -0.36968 0)
(0.215612 -0.383435 0)
(0.00233346 -0.405605 0)
(-0.16445 -0.416511 0)
(-0.39146 -0.39686 0)
(-0.559555 -0.373204 0)
(-0.742085 -0.328433 0)
(-0.890123 -0.293913 0)
(-1.03117 -0.252384 0)
(-1.15348 -0.219362 0)
(-1.25051 -0.18937 0)
(-1.31475 -0.157528 0)
(-1.38902 -0.0987131 0)
(-1.41529 -0.0469876 0)
(-1.43568 0.0175886 0)
(-1.40747 0.0730287 0)
(-1.35023 0.139712 0)
(-1.27885 0.185293 0)
(-1.18061 0.23526 0)
(-1.04448 0.262029 0)
(-0.901606 0.316559 0)
(-0.766818 0.308311 0)
(-0.539713 0.35603 0)
(-0.435622 0.339536 0)
(0.976669 -0.391125 0)
(0.656243 -0.274477 0)
(0.50171 -0.216485 0)
(0.246511 -0.251278 0)
(0.118488 -0.281012 0)
(-0.117663 -0.279724 0)
(-0.282193 -0.298783 0)
(-0.566746 -0.296245 0)
(-0.73587 -0.290583 0)
(-1.00756 -0.270433 0)
(-1.14302 -0.237705 0)
(-1.36743 -0.205932 0)
(-1.4679 -0.176637 0)
(-1.6439 -0.152068 0)
(-1.69765 -0.136625 0)
(-1.8371 -0.105237 0)
(-1.86543 -0.061371 0)
(-1.93168 -0.0217009 0)
(-1.91693 0.0259638 0)
(-1.91497 0.0669863 0)
(-1.82489 0.119436 0)
(-1.76696 0.152862 0)
(-1.61724 0.186458 0)
(-1.50977 0.213084 0)
(-1.31895 0.245533 0)
(-1.18236 0.23988 0)
(-0.938325 0.282758 0)
(-0.833896 0.267937 0)
(0.779961 -0.227744 0)
(0.411012 -0.147354 0)
(0.272288 -0.126025 0)
(0.0479921 -0.181286 0)
(-0.172804 -0.179377 0)
(-0.399658 -0.193264 0)
(-0.621469 -0.191554 0)
(-0.881554 -0.19758 0)
(-1.10575 -0.181467 0)
(-1.35499 -0.180205 0)
(-1.54581 -0.151445 0)
(-1.74375 -0.138613 0)
(-1.88682 -0.116253 0)
(-2.03723 -0.104505 0)
(-2.13788 -0.0932893 0)
(-2.26196 -0.0812932 0)
(-2.31274 -0.052267 0)
(-2.37353 -0.0248355 0)
(-2.36597 0.00410233 0)
(-2.3491 0.0265173 0)
(-2.26782 0.0607913 0)
(-2.18424 0.0760099 0)
(-2.04264 0.102954 0)
(-1.91166 0.114375 0)
(-1.71676 0.135914 0)
(-1.56386 0.130278 0)
(-1.31166 0.159269 0)
(-1.17617 0.142691 0)
(0.5777 -0.165668 0)
(0.0471523 -0.0383748 0)
(0.149539 -0.0185594 0)
(-0.227425 -0.0322911 0)
(-0.310357 -0.0532448 0)
(-0.688671 -0.0530043 0)
(-0.831161 -0.0585279 0)
(-1.20811 -0.0500599 0)
(-1.34365 -0.0497341 0)
(-1.68582 -0.0486662 0)
(-1.81673 -0.0429303 0)
(-2.08721 -0.0355098 0)
(-2.17347 -0.0299204 0)
(-2.38778 -0.0244399 0)
(-2.4312 -0.0231867 0)
(-2.63121 -0.0151755 0)
(-2.63263 -0.00303769 0)
(-2.74956 0.00752732 0)
(-2.67121 0.0154915 0)
(-2.71782 0.0226417 0)
(-2.57045 0.0337082 0)
(-2.5456 0.0399263 0)
(-2.33838 0.0487663 0)
(-2.2539 0.0524401 0)
(-2.00627 0.0586656 0)
(-1.89053 0.0564866 0)
(-1.60626 0.0685243 0)
(-1.48058 0.0644294 0)
(2.20639 0.0772078 0)
(2.22572 -0.135024 0)
(1.81357 -0.158629 0)
(1.59717 -0.353116 0)
(1.43041 -0.484332 0)
(1.27366 -0.765129 0)
(0.804604 -0.852775 0)
(0.0652601 -0.710886 0)
(2.17345 0.184503 0)
(2.19067 0.0491169 0)
(1.81479 -0.0164329 0)
(1.84232 -0.182056 0)
(1.46207 -0.317415 0)
(1.35426 -0.546205 0)
(0.819808 -0.536246 0)
(0.881313 -0.7433 0)
(2.23796 0.187885 0)
(2.25998 0.078132 0)
(2.11342 0.0260951 0)
(1.98349 -0.116387 0)
(1.74791 -0.224934 0)
(1.48817 -0.43921 0)
(1.24471 -0.553846 0)
(0.557463 -0.287498 0)
(2.26108 0.262542 0)
(2.23928 0.158906 0)
(1.96523 0.116274 0)
(1.89477 -0.0183153 0)
(1.56387 -0.0852428 0)
(1.44441 -0.259426 0)
(0.71978 -0.12866 0)
(0.407589 -0.133286 0)
(2.28044 0.286408 0)
(2.20675 0.221592 0)
(2.00402 0.18665 0)
(2.01642 0.0568924 0)
(1.7225 0.0292078 0)
(1.67511 -0.078442 0)
(1.21121 0.0185039 0)
(1.11887 -0.192371 0)
(2.26979 0.371733 0)
(2.20125 0.306721 0)
(1.99876 0.249482 0)
(1.89256 0.13997 0)
(1.60475 0.115763 0)
(1.53059 -0.00453148 0)
(1.22838 0.128654 0)
(1.15292 0.0496004 0)
(2.25263 0.427299 0)
(2.22348 0.351101 0)
(1.99308 0.32837 0)
(1.91888 0.226358 0)
(1.74801 0.203624 0)
(1.63886 0.088172 0)
(1.44906 0.195367 0)
(1.32607 0.0517969 0)
(2.23309 0.511746 0)
(2.1789 0.428601 0)
(1.95743 0.420965 0)
(1.90708 0.274297 0)
(1.66447 0.291483 0)
(1.52875 0.158061 0)
(1.33039 0.283511 0)
(1.25962 0.186995 0)
(2.16392 0.549734 0)
(2.08534 0.486841 0)
(1.92132 0.471174 0)
(1.8555 0.349584 0)
(1.65292 0.372654 0)
(1.6314 0.230035 0)
(1.43918 0.314257 0)
(1.42838 0.202104 0)
(2.00326 0.609391 0)
(1.95398 0.540097 0)
(1.85995 0.539677 0)
(1.75158 0.423089 0)
(1.62739 0.429836 0)
(1.54646 0.298172 0)
(1.36732 0.36384 0)
(1.36947 0.279435 0)
(1.76445 0.624642 0)
(1.76745 0.55926 0)
(1.71494 0.573 0)
(1.65752 0.448479 0)
(1.57971 0.455017 0)
(1.49412 0.351651 0)
(1.41536 0.384577 0)
(1.37184 0.315737 0)
(1.50816 0.634326 0)
(1.54168 0.570601 0)
(1.51432 0.6147 0)
(1.52341 0.498709 0)
(1.46162 0.521146 0)
(1.44879 0.393528 0)
(1.35635 0.415582 0)
(1.35872 0.349065 0)
(1.20007 0.615117 0)
(1.24415 0.542359 0)
(1.31081 0.578711 0)
(1.31972 0.463193 0)
(1.33451 0.507416 0)
(1.34992 0.402331 0)
(1.30586 0.416228 0)
(1.34369 0.356034 0)
(0.882499 0.589506 0)
(0.929266 0.528181 0)
(1.0479 0.59585 0)
(1.08606 0.466817 0)
(1.1631 0.515346 0)
(1.20722 0.399213 0)
(1.2113 0.4312 0)
(1.27171 0.366546 0)
(0.529371 0.529209 0)
(0.600933 0.441737 0)
(0.778397 0.510321 0)
(0.825305 0.392718 0)
(0.955033 0.481641 0)
(1.02413 0.345203 0)
(1.08621 0.39312 0)
(1.18118 0.324356 0)
(0.206916 0.470228 0)
(0.223971 0.417111 0)
(0.48107 0.488438 0)
(0.524109 0.356939 0)
(0.738044 0.438984 0)
(0.79423 0.31369 0)
(0.916443 0.390055 0)
(1.03221 0.302541 0)
(-0.167569 0.379371 0)
(-0.128381 0.306553 0)
(0.207701 0.354784 0)
(0.195542 0.265478 0)
(0.479694 0.36408 0)
(0.51737 0.21437 0)
(0.712167 0.298333 0)
(0.817784 0.217458 0)
(-0.502646 0.291575 0)
(-0.481539 0.260785 0)
(-0.112728 0.313459 0)
(-0.171628 0.228178 0)
(0.290591 0.281885 0)
(0.22413 0.196815 0)
(0.48957 0.273186 0)
(0.570367 0.179008 0)
(-0.84777 0.16415 0)
(-0.819561 0.142787 0)
(-0.359988 0.153613 0)
(-0.441385 0.0831447 0)
(-0.00305023 0.151767 0)
(-0.116508 0.0995263 0)
(0.330438 0.12503 0)
(0.289598 0.0735057 0)
(-1.14938 0.0761987 0)
(-1.08706 0.070057 0)
(-0.637416 0.0862554 0)
(-0.726834 0.0907021 0)
(-0.200213 0.0961424 0)
(-0.304626 0.0491401 0)
(0.126209 0.0834521 0)
(0.0907677 0.0766314 0)
(-0.59429 -0.377475 0)
(0.448381 0.215376 0)
(0.669527 0.489081 0)
(0.778154 0.515864 4.71819e-18)
(1.1667 0.663292 3.96435e-19)
(1.30114 0.538421 0)
(1.68116 0.48084 3.10627e-18)
(1.44795 0.343753 1.79507e-19)
(1.64401 0.341449 2.34004e-18)
(1.43506 0.270746 2.25617e-18)
(1.73057 0.299693 0)
(1.50501 0.239568 1.89859e-18)
(1.84577 0.284251 -7.97932e-20)