/*--------------------------------*- C++ -*----------------------------------*\
| =========                 |                                                 |
| \\      /  F ield         | OpenFOAM: The Open Source CFD Toolbox           |
|  \\    /   O peration     | Version:  2.4.0                                 |
|   \\  /    A nd           | Web:      www.OpenFOAM.org                      |
|    \\/     M anipulation  |                                                 |
\*---------------------------------------------------------------------------*/
FoamFile
{
    version     2.0;
    format      ascii;
    class       surfaceScalarField;
    location    "6.86";
    object      phi;
}
// * * * * * * * * * * * * * * * * * * * * * * * * * * * * * * * * * * * * * //

dimensions      [0 3 -1 0 0 0 0];

internalField   nonuniform List<scalar> 
11840
(
7.83394e-07
9.21661e-06
-9.35981e-07
1.71938e-06
6.59523e-07
-1.5955e-06
1.48818e-07
5.10704e-07
-2.00173e-07
3.48991e-07
-2.99374e-07
9.92013e-08
-4.0128e-07
1.01906e-07
-4.87077e-07
8.5797e-08
-6.44774e-07
1.57698e-07
-7.60631e-07
1.15857e-07
-9.46922e-07
1.8629e-07
-1.10529e-06
1.58373e-07
-1.31657e-06
2.11271e-07
-1.51958e-06
2.03017e-07
-1.74935e-06
2.29766e-07
-1.97492e-06
2.25572e-07
-2.20735e-06
2.32426e-07
-2.43373e-06
2.26381e-07
-2.65608e-06
2.22351e-07
-2.86737e-06
2.11288e-07
-3.06506e-06
1.97697e-07
-3.24694e-06
1.81875e-07
-3.41506e-06
1.68118e-07
-3.5687e-06
1.53642e-07
-3.70599e-06
1.37293e-07
-3.82464e-06
1.18646e-07
-3.92254e-06
9.78992e-08
-3.99746e-06
7.49243e-08
-4.04696e-06
4.9497e-08
-4.06776e-06
2.0808e-08
-4.05698e-06
-1.07867e-08
-4.01447e-06
-4.25054e-08
-3.93995e-06
-7.45232e-08
-3.83187e-06
-1.08077e-07
-3.68911e-06
-1.42758e-07
-3.51064e-06
-1.78474e-07
-3.29602e-06
-2.14621e-07
-3.04459e-06
-2.5143e-07
-2.75708e-06
-2.87507e-07
-2.43274e-06
-3.24341e-07
-2.0746e-06
-3.5814e-07
-1.68023e-06
-3.94368e-07
-1.2577e-06
-4.22535e-07
-7.99732e-07
-4.57966e-07
-3.22761e-07
-4.76971e-07
1.86132e-07
-5.08893e-07
6.9562e-07
-5.09487e-07
1.24635e-06
-5.50733e-07
1.76538e-06
-5.1903e-07
2.35365e-06
-5.88272e-07
2.84614e-06
-4.92484e-07
3.47764e-06
-6.31497e-07
3.8838e-06
-4.06167e-07
4.59214e-06
-7.08341e-07
4.81473e-06
-2.22583e-07
5.68068e-06
-8.6595e-07
5.56882e-06
1.11853e-07
6.76125e-06
-1.19242e-06
6.2054e-06
5.55847e-07
-2.29537e-06
2.45132e-06
1.67653e-05
-5.06603e-07
4.6773e-06
3.68919e-07
-2.47103e-06
-8.41144e-08
9.63738e-07
-3.07619e-07
5.72496e-07
-4.66545e-07
2.58128e-07
-5.67727e-07
2.03088e-07
-6.74116e-07
1.92186e-07
-8.33793e-07
3.17374e-07
-9.70626e-07
2.5269e-07
-1.15512e-06
3.70786e-07
-1.33235e-06
3.35603e-07
-1.5407e-06
4.19624e-07
-1.75185e-06
4.14159e-07
-1.97548e-06
4.53402e-07
-2.19797e-06
4.48059e-07
-2.42069e-06
4.5515e-07
-2.63756e-06
4.4325e-07
-2.84755e-06
4.32342e-07
-3.04705e-06
4.10781e-07
-3.23473e-06
3.85381e-07
-3.40931e-06
3.56456e-07
-3.56985e-06
3.28659e-07
-3.71429e-06
2.98075e-07
-3.84052e-06
2.63524e-07
-3.94639e-06
2.24514e-07
-4.02984e-06
1.81351e-07
-4.08883e-06
1.33915e-07
-4.12139e-06
8.20629e-08
-4.12612e-06
2.55384e-08
-4.10193e-06
-3.4983e-08
-4.04668e-06
-9.77509e-08
-3.95835e-06
-1.62851e-07
-3.83554e-06
-2.30891e-07
-3.67712e-06
-3.01176e-07
-3.48221e-06
-3.73389e-07
-3.2503e-06
-4.46527e-07
-2.9811e-06
-5.20632e-07
-2.67493e-06
-5.93675e-07
-2.33208e-06
-6.67189e-07
-1.95401e-06
-7.36218e-07
-1.54146e-06
-8.06912e-07
-1.09739e-06
-8.66606e-07
-6.23234e-07
-9.32124e-07
-1.2325e-07
-9.76955e-07
4.00196e-07
-1.03234e-06
9.39269e-07
-1.04856e-06
1.49906e-06
-1.11053e-06
2.06161e-06
-1.08158e-06
2.64413e-06
-1.17079e-06
3.20567e-06
-1.05403e-06
3.79927e-06
-1.2251e-06
4.32477e-06
-9.31676e-07
4.93029e-06
-1.31386e-06
5.36487e-06
-6.57164e-07
6.01905e-06
-1.52013e-06
6.275e-06
-1.44093e-07
7.0913e-06
-2.00873e-06
7.15482e-06
4.92327e-07
-3.77557e-06
3.60686e-06
2.31584e-05
1.74013e-08
8.26676e-06
5.8529e-08
-2.51215e-06
-3.02979e-07
1.32525e-06
-3.6593e-07
6.35447e-07
-5.33831e-07
4.26029e-07
-6.23134e-07
2.92391e-07
-7.37817e-07
3.06869e-07
-8.84406e-07
4.63963e-07
-1.02917e-06
3.97456e-07
-1.20218e-06
5.43792e-07
-1.3814e-06
5.14828e-07
-1.5801e-06
6.18318e-07
-1.78646e-06
6.20523e-07
-2.00047e-06
6.67407e-07
-2.21507e-06
6.62665e-07
-2.42845e-06
6.68529e-07
-2.63683e-06
6.51625e-07
-2.83827e-06
6.33788e-07
-3.03031e-06
6.02815e-07
-3.21151e-06
5.66581e-07
-3.38038e-06
5.25322e-07
-3.53518e-06
4.8346e-07
-3.67376e-06
4.36654e-07
-3.79403e-06
3.83798e-07
-3.8939e-06
3.24385e-07
-3.97135e-06
2.58797e-07
-4.02441e-06
1.86977e-07
-4.05127e-06
1.08924e-07
-4.05038e-06
2.4647e-08
-4.02029e-06
-6.50721e-08
-3.959e-06
-1.59041e-07
-3.86466e-06
-2.57193e-07
-3.73594e-06
-3.5961e-07
-3.57174e-06
-4.65372e-07
-3.37123e-06
-5.73904e-07
-3.1339e-06
-6.8386e-07
-2.85953e-06
-7.94996e-07
-2.54837e-06
-9.04833e-07
-2.20095e-06
-1.01461e-06
-1.81835e-06
-1.11882e-06
-1.40204e-06
-1.22323e-06
-9.53856e-07
-1.31479e-06
-4.7692e-07
-1.40906e-06
2.68684e-08
-1.48074e-06
5.52516e-07
-1.55799e-06
1.09762e-06
-1.59366e-06
1.65847e-06
-1.67137e-06
2.22992e-06
-1.65304e-06
2.80918e-06
-1.75004e-06
3.38653e-06
-1.63138e-06
3.96633e-06
-1.80489e-06
4.52459e-06
-1.48994e-06
5.09092e-06
-1.88018e-06
5.59808e-06
-1.16432e-06
6.15314e-06
-2.0752e-06
6.56942e-06
-5.60371e-07
7.1586e-06
-2.59791e-06
7.5384e-06
1.12528e-07
-4.77595e-06
4.52838e-06
2.863e-05
7.56461e-07
1.20387e-05
-2.34384e-07
-1.52131e-06
-4.59605e-07
1.55047e-06
-3.97726e-07
5.73567e-07
-5.65818e-07
5.94121e-07
-6.45092e-07
3.71665e-07
-7.64679e-07
4.26456e-07
-9.00594e-07
5.99878e-07
-1.04802e-06
5.44884e-07
-1.21311e-06
7.0888e-07
-1.39029e-06
6.92013e-07
-1.5816e-06
8.09624e-07
-1.78217e-06
8.21095e-07
-1.98845e-06
8.73681e-07
-2.19601e-06
8.70233e-07
-2.40191e-06
8.74428e-07
-2.60326e-06
8.52979e-07
-2.79786e-06
8.2838e-07
-2.98364e-06
7.88593e-07
-3.15906e-06
7.42002e-07
-3.32245e-06
6.88721e-07
-3.47183e-06
6.32832e-07
-3.60503e-06
5.69853e-07
-3.71999e-06
4.98765e-07
-3.81467e-06
4.19062e-07
-3.88706e-06
3.31191e-07
-3.93527e-06
2.35182e-07
-3.9575e-06
1.3116e-07
-3.95216e-06
1.93051e-08
-3.91762e-06
-9.9613e-08
-3.85199e-06
-2.24675e-07
-3.75355e-06
-3.55628e-07
-3.62101e-06
-4.92155e-07
-3.45327e-06
-6.33106e-07
-3.24954e-06
-7.7764e-07
-3.0093e-06
-9.24095e-07
-2.7324e-06
-1.0719e-06
-2.41903e-06
-1.2182e-06
-2.06981e-06
-1.36383e-06
-1.68572e-06
-1.50291e-06
-1.26843e-06
-1.64052e-06
-8.19446e-07
-1.76377e-06
-3.42294e-07
-1.88621e-06
1.61642e-07
-1.98468e-06
6.87184e-07
-2.08353e-06
1.23311e-06
-2.13959e-06
1.79313e-06
-2.23139e-06
2.36593e-06
-2.22583e-06
2.94254e-06
-2.32666e-06
3.52318e-06
-2.21201e-06
4.09633e-06
-2.37804e-06
4.66363e-06
-2.05725e-06
5.21365e-06
-2.4302e-06
5.7449e-06
-1.69557e-06
6.25943e-06
-2.58973e-06
6.73625e-06
-1.03718e-06
7.22844e-06
-3.0901e-06
7.7349e-06
-3.93931e-07
-5.54058e-06
5.30449e-06
3.33256e-05
1.49031e-06
1.58528e-05
-2.61102e-07
2.30107e-07
-5.51635e-07
1.841e-06
-4.18935e-07
4.40868e-07
-5.82425e-07
7.57611e-07
-6.53817e-07
4.43057e-07
-7.75329e-07
5.47967e-07
-9.03313e-07
7.27863e-07
-1.05038e-06
6.91951e-07
-1.20943e-06
8.67928e-07
-1.38305e-06
8.6563e-07
-1.56788e-06
9.94455e-07
-1.76242e-06
1.01564e-06
-1.9617e-06
1.07295e-06
-2.16259e-06
1.07112e-06
-2.36167e-06
1.07351e-06
-2.55652e-06
1.04782e-06
-2.7448e-06
1.01666e-06
-2.92465e-06
9.6845e-07
-3.09445e-06
9.118e-07
-3.25242e-06
8.46689e-07
-3.39644e-06
7.76853e-07
-3.5244e-06
6.97812e-07
-3.63426e-06
6.08625e-07
-3.72399e-06
5.08797e-07
-3.79164e-06
3.98841e-07
-3.83534e-06
2.78877e-07
-3.85332e-06
1.49138e-07
-3.84393e-06
9.91704e-09
-3.80548e-06
-1.38058e-07
-3.73617e-06
-2.93994e-07
-3.63436e-06
-4.57433e-07
-3.49878e-06
-6.27737e-07
-3.32836e-06
-8.03527e-07
-3.12231e-06
-9.83692e-07
-2.88013e-06
-1.16627e-06
-2.60169e-06
-1.35034e-06
-2.28718e-06
-1.53271e-06
-1.93725e-06
-1.71375e-06
-1.55282e-06
-1.88734e-06
-1.13566e-06
-2.05769e-06
-6.87136e-07
-2.21229e-06
-2.10836e-07
-2.36251e-06
2.9198e-07
-2.4875e-06
8.16241e-07
-2.60779e-06
1.36105e-06
-2.6844e-06
1.91914e-06
-2.78949e-06
2.49064e-06
-2.79733e-06
3.06424e-06
-2.90026e-06
3.64408e-06
-2.79185e-06
4.21221e-06
-2.94618e-06
4.78102e-06
-2.62606e-06
5.32153e-06
-2.97071e-06
5.86101e-06
-2.23504e-06
6.35479e-06
-3.08352e-06
6.85661e-06
-1.53901e-06
7.30169e-06
-3.53517e-06
7.85941e-06
-9.51651e-07
-6.17398e-06
5.97538e-06
3.73502e-05
2.23975e-06
1.95885e-05
-6.49718e-08
2.53483e-06
-5.83765e-07
2.35979e-06
-4.36506e-07
2.93608e-07
-5.90343e-07
9.11449e-07
-6.55391e-07
5.08104e-07
-7.76828e-07
6.69404e-07
-8.98449e-07
8.49484e-07
-1.04362e-06
8.37125e-07
-1.1974e-06
1.0217e-06
-1.36676e-06
1.035e-06
-1.54546e-06
1.17315e-06
-1.73388e-06
1.20407e-06
-1.92645e-06
1.26551e-06
-2.1208e-06
1.26548e-06
-2.31333e-06
1.26604e-06
-2.50185e-06
1.23634e-06
-2.684e-06
1.19881e-06
-2.85801e-06
1.14246e-06
-3.02218e-06
1.07597e-06
-3.17468e-06
9.99181e-07
-3.31333e-06
9.15504e-07
-3.43605e-06
8.20539e-07
-3.54085e-06
7.1342e-07
-3.62572e-06
5.93665e-07
-3.68872e-06
4.61848e-07
-3.72803e-06
3.18185e-07
-3.74189e-06
1.62996e-07
-3.72862e-06
-3.34757e-09
-3.68652e-06
-1.80156e-07
-3.61384e-06
-3.66681e-07
-3.50902e-06
-5.62255e-07
-3.37079e-06
-7.65965e-07
-3.19811e-06
-9.76204e-07
-2.99021e-06
-1.19159e-06
-2.74661e-06
-1.40987e-06
-2.46717e-06
-1.62978e-06
-2.15208e-06
-1.8478e-06
-1.80203e-06
-2.0638e-06
-1.4179e-06
-2.27147e-06
-1.00149e-06
-2.4741e-06
-5.54128e-07
-2.65965e-06
-7.93193e-08
-2.83732e-06
4.21643e-07
-2.98846e-06
9.43888e-07
-3.13003e-06
1.48651e-06
-3.22702e-06
2.04192e-06
-3.3449e-06
2.61079e-06
-3.3662e-06
3.18086e-06
-3.47033e-06
3.75804e-06
-3.36902e-06
4.32142e-06
-3.50956e-06
4.88857e-06
-3.1932e-06
5.42189e-06
-3.50403e-06
5.96316e-06
-2.77632e-06
6.44379e-06
-3.56414e-06
6.95624e-06
-2.05146e-06
7.37441e-06
-3.95334e-06
7.9524e-06
-1.52964e-06
-6.72142e-06
6.56064e-06
4.07895e-05
2.97366e-06
2.31754e-05
2.28953e-07
5.27954e-06
-5.37363e-07
3.12611e-06
-4.51905e-07
2.0815e-07
-5.92337e-07
1.05188e-06
-6.52063e-07
5.67831e-07
-7.72215e-07
7.89556e-07
-8.88306e-07
9.65574e-07
-1.03075e-06
9.79572e-07
-1.17956e-06
1.17051e-06
-1.34431e-06
1.19975e-06
-1.517e-06
1.34584e-06
-1.69923e-06
1.3863e-06
-1.88519e-06
1.45147e-06
-2.07304e-06
1.45334e-06
-2.2591e-06
1.4521e-06
-2.44135e-06
1.41859e-06
-2.61739e-06
1.37485e-06
-2.78553e-06
1.3106e-06
-2.944e-06
1.23444e-06
-3.09093e-06
1.14611e-06
-3.22413e-06
1.04871e-06
-3.34158e-06
9.37981e-07
-3.44127e-06
8.13116e-07
-3.52126e-06
6.73648e-07
-3.57962e-06
5.20215e-07
-3.61456e-06
3.53126e-07
-3.62434e-06
1.7277e-07
-3.60726e-06
-2.04249e-08
-3.56162e-06
-2.25794e-07
-3.48573e-06
-4.42578e-07
-3.37808e-06
-6.69906e-07
-3.23742e-06
-9.06619e-07
-3.06274e-06
-1.15089e-06
-2.85327e-06
-1.40106e-06
-2.60854e-06
-1.6546e-06
-2.32844e-06
-1.90988e-06
-2.01315e-06
-2.16308e-06
-1.66338e-06
-2.41358e-06
-1.27997e-06
-2.65487e-06
-8.64753e-07
-2.88932e-06
-4.19016e-07
-3.10539e-06
5.38359e-08
-3.31017e-06
5.52431e-07
-3.48705e-06
1.0721e-06
-3.6497e-06
1.61182e-06
-3.76675e-06
2.16395e-06
-3.89702e-06
2.72934e-06
-3.93159e-06
3.2954e-06
-4.03639e-06
3.86881e-06
-3.94244e-06
4.42734e-06
-4.06809e-06
4.99111e-06
-3.75698e-06
5.51812e-06
-4.03103e-06
6.05798e-06
-3.31618e-06
6.52886e-06
-4.03503e-06
7.04497e-06
-2.56756e-06
7.44561e-06
-4.35398e-06
8.02929e-06
-2.11332e-06
-7.2056e-06
7.07168e-06
4.37179e-05
3.68623e-06
2.65609e-05
6.5269e-07
8.31308e-06
-4.07732e-07
4.18653e-06
-4.61261e-07
2.61679e-07
-5.89564e-07
1.18018e-06
-6.44772e-07
6.23038e-07
-7.62954e-07
9.07738e-07
-8.73972e-07
1.07659e-06
-1.0132e-06
1.1188e-06
-1.15717e-06
1.31448e-06
-1.31708e-06
1.35965e-06
-1.48379e-06
1.51255e-06
-1.65976e-06
1.56227e-06
-1.83913e-06
1.63084e-06
-2.02047e-06
1.63467e-06
-2.20005e-06
1.63169e-06
-2.37599e-06
1.59452e-06
-2.54588e-06
1.54474e-06
-2.70807e-06
1.47279e-06
-2.86073e-06
1.3871e-06
-3.00197e-06
1.28735e-06
-3.12963e-06
1.17637e-06
-3.24169e-06
1.05005e-06
-3.33621e-06
9.07634e-07
-3.41125e-06
7.48685e-07
-3.46493e-06
5.73895e-07
-3.49547e-06
3.83663e-07
-3.50114e-06
1.7844e-07
-3.48025e-06
-4.13095e-08
-3.43112e-06
-2.74927e-07
-3.35209e-06
-5.21606e-07
-3.24171e-06
-7.80282e-07
-3.09876e-06
-1.04957e-06
-2.92222e-06
-1.32742e-06
-2.71137e-06
-1.61192e-06
-2.46573e-06
-1.90023e-06
-2.18521e-06
-2.19041e-06
-1.86999e-06
-2.4783e-06
-1.52077e-06
-2.76279e-06
-1.13841e-06
-3.03723e-06
-7.24722e-07
-3.30301e-06
-2.80978e-07
-3.54913e-06
1.89538e-07
-3.78069e-06
6.8535e-07
-3.98286e-06
1.20197e-06
-4.16632e-06
1.73825e-06
-4.30302e-06
2.28658e-06
-4.44535e-06
2.84786e-06
-4.49287e-06
3.40946e-06
-4.59799e-06
3.97835e-06
-4.51133e-06
4.53176e-06
-4.6215e-06
5.09109e-06
-4.31631e-06
5.61207e-06
-4.55202e-06
6.14864e-06
-3.85274e-06
6.61147e-06
-4.49786e-06
7.12735e-06
-3.08344e-06
7.51525e-06
-4.74189e-06
8.09693e-06
-2.695e-06
-7.6395e-06
7.51712e-06
4.62007e-05
4.37118e-06
2.97068e-05
1.17958e-06
1.15047e-05
-2.08835e-07
5.57494e-06
-4.54937e-07
5.07782e-07
-5.82138e-07
1.30738e-06
-6.33861e-07
6.74761e-07
-7.49763e-07
1.02364e-06
-8.55992e-07
1.18282e-06
-9.91715e-07
1.25452e-06
-1.13088e-06
1.45364e-06
-1.28578e-06
1.51455e-06
-1.44651e-06
1.67328e-06
-1.61616e-06
1.73193e-06
-1.78892e-06
1.80359e-06
-1.96368e-06
1.80943e-06
-2.13674e-06
1.80475e-06
-2.3063e-06
1.76408e-06
-2.46996e-06
1.7084e-06
-2.62607e-06
1.6289e-06
-2.77279e-06
1.53382e-06
-2.90821e-06
1.42277e-06
-3.0302e-06
1.29835e-06
-3.13677e-06
1.15662e-06
-3.22601e-06
9.96871e-07
-3.296e-06
8.18682e-07
-3.34491e-06
6.22806e-07
-3.37098e-06
4.09728e-07
-3.37249e-06
1.79953e-07
-3.34777e-06
-6.60313e-08
-3.29514e-06
-3.27554e-07
-3.21301e-06
-6.03738e-07
-3.09996e-06
-8.93334e-07
-2.95478e-06
-1.19475e-06
-2.7765e-06
-1.50571e-06
-2.56438e-06
-1.82404e-06
-2.31799e-06
-2.14663e-06
-2.03722e-06
-2.47117e-06
-1.72228e-06
-2.79325e-06
-1.37386e-06
-3.11121e-06
-9.92811e-07
-3.41828e-06
-5.80925e-07
-3.7149e-06
-1.39481e-07
-3.99057e-06
3.28365e-07
-4.24854e-06
8.21031e-07
-4.47553e-06
1.33419e-06
-4.67949e-06
1.86656e-06
-4.83538e-06
2.41064e-06
-4.98943e-06
2.96729e-06
-5.04951e-06
3.524e-06
-5.1547e-06
4.08777e-06
-5.0751e-06
4.63575e-06
-5.16948e-06
5.18988e-06
-4.87044e-06
5.70485e-06
-5.06699e-06
6.23689e-06
-4.38478e-06
6.69251e-06
-4.95347e-06
7.20577e-06
-3.59671e-06
7.58354e-06
-5.11967e-06
8.15876e-06
-3.27021e-06
-8.03134e-06
7.90465e-06
4.82961e-05
5.02265e-06
3.25888e-05
1.77254e-06
1.47548e-05
5.61277e-08
7.29135e-06
-4.22793e-07
9.86703e-07
-5.69129e-07
1.45372e-06
-6.19302e-07
7.24934e-07
-7.32941e-07
1.13728e-06
-8.34608e-07
1.28449e-06
-9.6666e-07
1.38658e-06
-1.10102e-06
1.588e-06
-1.25082e-06
1.66435e-06
-1.40554e-06
1.828e-06
-1.56881e-06
1.8952e-06
-1.73491e-06
1.96969e-06
-1.90302e-06
1.97754e-06
-2.06948e-06
1.97121e-06
-2.23255e-06
1.92716e-06
-2.38987e-06
1.86571e-06
-2.53977e-06
1.7788e-06
-2.68041e-06
1.67446e-06
-2.80987e-06
1.55223e-06
-2.92604e-06
1.41453e-06
-3.02699e-06
1.25757e-06
-3.11082e-06
1.08071e-06
-3.17567e-06
8.83528e-07
-3.21971e-06
6.66847e-07
-3.24122e-06
4.31233e-07
-3.2385e-06
1.77233e-07
-3.20988e-06
-9.46435e-08
-3.15373e-06
-3.83702e-07
-3.0685e-06
-6.88976e-07
-2.95279e-06
-1.00904e-06
-2.80543e-06
-1.3421e-06
-2.62546e-06
-1.68568e-06
-2.41218e-06
-2.03732e-06
-2.16515e-06
-2.39366e-06
-1.88429e-06
-2.75203e-06
-1.56979e-06
-3.10774e-06
-1.22237e-06
-3.45863e-06
-8.42857e-07
-3.79779e-06
-4.33026e-07
-4.12473e-06
5.84598e-09
-4.42945e-06
4.70712e-07
-4.7134e-06
9.59896e-07
-4.96471e-06
1.46922e-06
-5.18881e-06
1.99725e-06
-5.36342e-06
2.53668e-06
-5.52886e-06
3.08824e-06
-5.60107e-06
3.63965e-06
-5.70611e-06
4.1978e-06
-5.63325e-06
4.74002e-06
-5.71169e-06
5.28833e-06
-5.41875e-06
5.79716e-06
-5.57581e-06
6.3238e-06
-4.91142e-06
6.7726e-06
-5.40227e-06
7.28165e-06
-4.10575e-06
7.65072e-06
-5.48874e-06
8.21674e-06
-3.83623e-06
-8.38672e-06
8.24123e-06
5.00549e-05
5.63602e-06
3.5194e-05
2.40997e-06
1.79809e-05
4.33284e-07
9.26804e-06
-3.54509e-07
1.7745e-06
-5.48202e-07
1.64741e-06
-6.00726e-07
7.77458e-07
-7.12496e-07
1.24905e-06
-8.09862e-07
1.38186e-06
-9.38193e-07
1.51491e-06
-1.06775e-06
1.71757e-06
-1.21238e-06
1.80897e-06
-1.36107e-06
1.9767e-06
-1.51791e-06
2.05203e-06
-1.67729e-06
2.12908e-06
-1.83866e-06
2.13891e-06
-1.99842e-06
2.13096e-06
-2.1549e-06
2.08364e-06
-2.30574e-06
2.01655e-06
-2.4493e-06
1.92236e-06
-2.5837e-06
1.80886e-06
-2.70704e-06
1.67558e-06
-2.81726e-06
1.52474e-06
-2.91244e-06
1.35276e-06
-2.99074e-06
1.159e-06
-3.05031e-06
9.43099e-07
-3.08937e-06
7.05905e-07
-3.10621e-06
4.48075e-07
-3.09917e-06
1.70192e-07
-3.0666e-06
-1.27214e-07
-3.00689e-06
-4.43416e-07
-2.91852e-06
-7.77343e-07
-2.80015e-06
-1.12741e-06
-2.65063e-06
-1.49162e-06
-2.46903e-06
-1.86728e-06
-2.25465e-06
-2.2517e-06
-2.00707e-06
-2.64123e-06
-1.72624e-06
-3.03287e-06
-1.41234e-06
-3.42164e-06
-1.06609e-06
-3.80488e-06
-6.88323e-07
-4.17556e-06
-2.80773e-07
-4.53228e-06
1.55268e-07
-4.86549e-06
6.16864e-07
-5.175e-06
1.10225e-06
-5.4501e-06
1.60738e-06
-5.69394e-06
2.1307e-06
-5.88674e-06
2.66508e-06
-6.06324e-06
3.21113e-06
-6.14712e-06
3.75685e-06
-6.25183e-06
4.30892e-06
-6.18533e-06
4.84502e-06
-6.24779e-06
5.38701e-06
-5.96074e-06
5.88948e-06
-6.07828e-06
6.41004e-06
-5.43198e-06
6.85217e-06
-5.8444e-06
7.35585e-06
-4.60943e-06
7.71701e-06
-5.8499e-06
8.27206e-06
-4.39129e-06
-8.70968e-06
8.53307e-06
5.15218e-05
6.208e-06
3.75191e-05
3.06967e-06
2.11192e-05
8.66691e-07
1.1471e-05
-2.23906e-07
2.86509e-06
-5.14628e-07
1.93814e-06
-5.77313e-07
8.40143e-07
-6.88188e-07
1.35993e-06
-7.81633e-07
1.4753e-06
-9.06303e-07
1.63958e-06
-1.03109e-06
1.84235e-06
-1.17051e-06
1.94839e-06
-1.31317e-06
2.11936e-06
-1.46353e-06
2.20239e-06
-1.61613e-06
2.28168e-06
-1.77068e-06
2.29346e-06
-1.92363e-06
2.28391e-06
-2.0734e-06
2.23342e-06
-2.21762e-06
2.16078e-06
-2.35469e-06
2.05943e-06
-2.48269e-06
1.93686e-06
-2.59977e-06
1.79265e-06
-2.70387e-06
1.62884e-06
-2.79315e-06
1.44203e-06
-2.86577e-06
1.23163e-06
-2.91994e-06
9.97263e-07
-2.95389e-06
7.39858e-07
-2.96596e-06
4.60142e-07
-2.9545e-06
1.58734e-07
-2.91789e-06
-1.63822e-07
-2.85455e-06
-5.06752e-07
-2.76302e-06
-8.68877e-07
-2.64198e-06
-1.24845e-06
-2.49031e-06
-1.64329e-06
-2.3071e-06
-2.0505e-06
-2.09167e-06
-2.46712e-06
-1.84364e-06
-2.88927e-06
-1.56294e-06
-3.31357e-06
-1.24978e-06
-3.73481e-06
-9.04867e-07
-4.14979e-06
-5.29027e-07
-4.5514e-06
-1.23971e-07
-4.93734e-06
3.08997e-07
-5.29846e-06
7.67039e-07
-5.63304e-06
1.24832e-06
-5.93139e-06
1.74892e-06
-6.19454e-06
2.26716e-06
-6.40499e-06
2.79612e-06
-6.5922e-06
3.33627e-06
-6.68727e-06
3.8759e-06
-6.79146e-06
4.42148e-06
-6.73091e-06
4.95111e-06
-6.77741e-06
5.48632e-06
-6.49595e-06
5.98217e-06
-6.57414e-06
6.49609e-06
-5.94589e-06
6.93153e-06
-6.27984e-06
7.42896e-06
-5.10687e-06
7.78259e-06
-6.20353e-06
8.3255e-06
-4.9342e-06
-9.00331e-06
8.78573e-06
5.27361e-05
6.73663e-06
3.95682e-05
3.73563e-06
2.41202e-05
1.36075e-06
1.38459e-05
-1.17265e-08
4.23757e-06
-4.59639e-07
2.38605e-06
-5.47527e-07
9.28031e-07
-6.59503e-07
1.4719e-06
-7.49642e-07
1.56544e-06
-8.70847e-07
1.76078e-06
-9.90939e-07
1.96245e-06
-1.12518e-06
2.08263e-06
-1.2618e-06
2.25597e-06
-1.40564e-06
2.34624e-06
-1.55142e-06
2.42746e-06
-1.69906e-06
2.4411e-06
-1.84509e-06
2.42995e-06
-1.98803e-06
2.37635e-06
-2.1255e-06
2.29825e-06
-2.25592e-06
2.18984e-06
-2.37738e-06
2.05832e-06
-2.48803e-06
1.9033e-06
-2.58587e-06
1.72668e-06
-2.66909e-06
1.52525e-06
-2.73589e-06
1.29843e-06
-2.78452e-06
1.04589e-06
-2.81324e-06
7.68581e-07
-2.82042e-06
4.67321e-07
-2.80444e-06
1.42757e-07
-2.76371e-06
-2.04551e-07
-2.69669e-06
-5.73775e-07
-2.60194e-06
-9.63621e-07
-2.4782e-06
-1.37219e-06
-2.32438e-06
-1.79712e-06
-2.13958e-06
-2.2353e-06
-1.92316e-06
-2.68354e-06
-1.67474e-06
-3.13769e-06
-1.39427e-06
-3.59403e-06
-1.08197e-06
-4.04711e-06
-7.38547e-07
-4.49321e-06
-3.64818e-07
-4.92513e-06
3.75366e-08
-5.33969e-06
4.67197e-07
-5.72812e-06
9.21409e-07
-6.08725e-06
1.3983e-06
-6.40827e-06
1.89402e-06
-6.69026e-06
2.40684e-06
-6.91781e-06
2.93001e-06
-7.11536e-06
3.46388e-06
-7.22114e-06
3.99705e-06
-7.32463e-06
4.53574e-06
-7.26961e-06
5.05853e-06
-7.3002e-06
5.58654e-06
-7.02396e-06
6.07549e-06
-7.06309e-06
6.58227e-06
-6.45268e-06
7.0109e-06
-6.70847e-06
7.5014e-06
-5.59737e-06
7.84763e-06
-6.54976e-06
8.37759e-06
-5.46417e-06
-9.27003e-06
9.00421e-06
5.37319e-05
7.22119e-06
4.13512e-05
4.39572e-06
2.69456e-05
1.90516e-06
1.63365e-05
2.34808e-07
5.90792e-06
-3.69274e-07
2.99013e-06
-5.08663e-07
1.06742e-06
-6.2558e-07
1.58882e-06
-7.13433e-07
1.65329e-06
-8.31549e-07
1.8789e-06
-9.47094e-07
2.07799e-06
-1.07623e-06
2.21177e-06
-1.20684e-06
2.38658e-06
-1.34417e-06
2.48357e-06
-1.48307e-06
2.56635e-06
-1.62372e-06
2.58175e-06
-1.76275e-06
2.56897e-06
-1.89872e-06
2.51233e-06
-2.02931e-06
2.42884e-06
-2.15294e-06
2.31346e-06
-2.26769e-06
2.17308e-06
-2.37177e-06
2.00738e-06
-2.46319e-06
1.81811e-06
-2.5402e-06
1.60226e-06
-2.60105e-06
1.35927e-06
-2.64399e-06
1.08883e-06
-2.66736e-06
7.91945e-07
-2.66953e-06
4.69495e-07
-2.64893e-06
1.22159e-07
-2.60399e-06
-2.49487e-07
-2.53322e-06
-6.44554e-07
-2.43521e-06
-1.06163e-06
-2.30874e-06
-1.49866e-06
-2.15276e-06
-1.9531e-06
-1.96638e-06
-2.42168e-06
-1.74901e-06
-2.90091e-06
-1.50026e-06
-3.38643e-06
-1.22012e-06
-3.87417e-06
-9.08801e-07
-4.35843e-06
-5.67015e-07
-4.835e-06
-1.95573e-07
-5.29657e-06
2.03879e-07
-5.73914e-06
6.29998e-07
-6.15423e-06
1.08011e-06
-6.53737e-06
1.55231e-06
-6.88047e-06
2.04284e-06
-7.18079e-06
2.5499e-06
-7.42487e-06
3.06692e-06
-7.63238e-06
3.59415e-06
-7.74837e-06
4.12048e-06
-7.85096e-06
4.6519e-06
-7.80102e-06
5.16748e-06
-7.81577e-06
5.68789e-06
-7.54437e-06
6.16962e-06
-7.54483e-06
6.66883e-06
-6.95189e-06
7.09047e-06
-7.13011e-06
7.57344e-06
-6.08034e-06
7.91226e-06
-6.88858e-06
8.42871e-06
-5.98062e-06
-9.51179e-06
9.19302e-06
5.45388e-05
7.66194e-06
4.28823e-05
5.04041e-06
2.95672e-05
2.49095e-06
1.88859e-05
5.73052e-07
7.82582e-06
-2.30821e-07
3.794e-06
-4.56294e-07
1.29289e-06
-5.85063e-07
1.71759e-06
-6.72338e-07
1.74057e-06
-7.87987e-07
1.99455e-06
-8.9925e-07
2.18926e-06
-1.02342e-06
2.33593e-06
-1.1481e-06
2.51126e-06
-1.27895e-06
2.61442e-06
-1.41095e-06
2.69835e-06
-1.54455e-06
2.71536e-06
-1.67647e-06
2.70089e-06
-1.80538e-06
2.64123e-06
-1.92895e-06
2.55241e-06
-2.04563e-06
2.43015e-06
-2.15354e-06
2.28099e-06
-2.25089e-06
2.10472e-06
-2.33575e-06
1.90297e-06
-2.40641e-06
1.67292e-06
-2.46115e-06
1.41401e-06
-2.49828e-06
1.12596e-06
-2.51616e-06
8.09826e-07
-2.51322e-06
4.66549e-07
-2.48789e-06
9.6836e-08
-2.43866e-06
-2.98718e-07
-2.36406e-06
-7.19156e-07
-2.26275e-06
-1.16294e-06
-2.13352e-06
-1.62788e-06
-1.97535e-06
-2.11127e-06
-1.78742e-06
-2.60961e-06
-1.56913e-06
-3.11921e-06
-1.32013e-06
-3.63543e-06
-1.0404e-06
-4.1539e-06
-7.30175e-07
-4.66866e-06
-3.90167e-07
-5.175e-06
-2.11835e-08
-5.66556e-06
3.75164e-07
-6.13549e-06
7.97513e-07
-6.57658e-06
1.24327e-06
-6.98312e-06
1.71049e-06
-7.34769e-06
2.19551e-06
-7.66581e-06
2.69647e-06
-7.92584e-06
3.20699e-06
-8.1429e-06
3.72721e-06
-8.26858e-06
4.24633e-06
-8.37009e-06
4.7701e-06
-8.32479e-06
5.27811e-06
-8.32378e-06
5.79054e-06
-8.05681e-06
6.26473e-06
-8.01902e-06
6.75596e-06
-7.44312e-06
7.17038e-06
-7.54452e-06
7.64532e-06
-6.55529e-06
7.9766e-06
-7.21986e-06
8.47914e-06
-6.48316e-06
-9.73023e-06
9.35622e-06
5.51826e-05
8.06001e-06
4.41785e-05
5.66208e-06
3.19651e-05
3.10775e-06
2.14403e-05
9.91283e-07
9.94228e-06
-4.1575e-08
4.82686e-06
-3.83942e-07
1.63526e-06
-5.35859e-07
1.8695e-06
-6.25401e-07
1.83011e-06
-7.39568e-07
2.10871e-06
-8.46981e-07
2.29667e-06
-9.66429e-07
2.45538e-06
-1.08531e-06
2.63015e-06
-1.20974e-06
2.73885e-06
-1.33485e-06
2.82346e-06
-1.46137e-06
2.84188e-06
-1.5861e-06
2.82563e-06
-1.70783e-06
2.76296e-06
-1.82426e-06
2.66885e-06
-1.93388e-06
2.53976e-06
-2.0348e-06
2.38191e-06
-2.12527e-06
2.1952e-06
-2.20343e-06
1.98113e-06
-2.26759e-06
1.73708e-06
-2.31609e-06
1.46251e-06
-2.34728e-06
1.15716e-06
-2.35956e-06
8.22102e-07
-2.35138e-06
4.5837e-07
-2.32123e-06
6.66889e-08
-2.26762e-06
-3.52328e-07
-2.18913e-06
-7.9765e-07
-2.08445e-06
-1.26762e-06
-1.95244e-06
-1.7599e-06
-1.79209e-06
-2.27162e-06
-1.60261e-06
-2.79909e-06
-1.38343e-06
-3.33838e-06
-1.13423e-06
-3.88463e-06
-8.55013e-07
-4.43312e-06
-5.45999e-07
-4.97768e-06
-2.07912e-07
-5.51309e-06
1.58443e-07
-6.03191e-06
5.51486e-07
-6.52854e-06
9.69835e-07
-6.99493e-06
1.41096e-06
-7.42425e-06
1.87292e-06
-7.80966e-06
2.35212e-06
-8.14501e-06
2.84666e-06
-8.42038e-06
3.35033e-06
-8.64656e-06
3.86318e-06
-8.78143e-06
4.37473e-06
-8.88163e-06
4.89047e-06
-8.84054e-06
5.39055e-06
-8.82385e-06
5.89462e-06
-8.56088e-06
6.36093e-06
-8.48532e-06
6.8438e-06
-7.92598e-06
7.25073e-06
-7.95146e-06
7.71719e-06
-7.02175e-06
8.04075e-06
-7.54341e-06
8.5291e-06
-6.97152e-06
-9.92671e-06
9.49745e-06
5.56852e-05
8.41717e-06
4.52588e-05
6.25474e-06
3.41275e-05
3.74483e-06
2.39502e-05
1.48023e-06
1.22069e-05
2.29015e-07
6.07807e-06
-2.8326e-07
2.14754e-06
-4.74771e-07
2.06102e-06
-5.71284e-07
1.92662e-06
-6.85484e-07
2.22291e-06
-7.8972e-07
2.4009e-06
-9.0482e-07
2.57048e-06
-1.01812e-06
2.74344e-06
-1.13625e-06
2.85699e-06
-1.25451e-06
2.94172e-06
-1.37393e-06
2.96129e-06
-1.49142e-06
2.94312e-06
-1.60589e-06
2.87742e-06
-1.71507e-06
2.77803e-06
-1.81749e-06
2.64218e-06
-1.91129e-06
2.47571e-06
-1.99476e-06
2.27867e-06
-2.06608e-06
2.05245e-06
-2.12362e-06
1.79462e-06
-2.16575e-06
1.50464e-06
-2.19088e-06
1.18228e-06
-2.19743e-06
8.28656e-07
-2.18391e-06
4.44854e-07
-2.14885e-06
3.1623e-08
-2.09078e-06
-4.10398e-07
-2.00833e-06
-8.80101e-07
-1.90025e-06
-1.3757e-06
-1.76541e-06
-1.89474e-06
-1.60287e-06
-2.43415e-06
-1.41186e-06
-2.9901e-06
-1.19184e-06
-3.5584e-06
-9.42506e-07
-4.13397e-06
-6.63877e-07
-4.71175e-06
-3.56191e-07
-5.28536e-06
-2.01657e-08
-5.84912e-06
3.4339e-07
-6.39547e-06
7.32926e-07
-6.91807e-06
1.14705e-06
-7.40905e-06
1.58329e-06
-7.86049e-06
2.0397e-06
-8.26607e-06
2.51277e-06
-8.61807e-06
3.00056e-06
-8.90817e-06
3.49703e-06
-9.14304e-06
4.00216e-06
-9.28656e-06
4.50577e-06
-9.38524e-06
5.01312e-06
-9.3479e-06
5.50489e-06
-9.31562e-06
6.00024e-06
-9.05624e-06
6.45833e-06
-8.94341e-06
6.93246e-06
-8.40011e-06
7.33162e-06
-8.35062e-06
7.78919e-06
-7.47933e-06
8.10479e-06
-7.85901e-06
8.57876e-06
-7.44548e-06
-1.01024e-05
9.61998e-06
5.60652e-05
8.73572e-06
4.61431e-05
6.81378e-06
3.60495e-05
4.39171e-06
2.63722e-05
2.02726e-06
1.45713e-05
5.61037e-07
7.5443e-06
-1.4e-07
2.84857e-06
-3.97002e-07
2.31802e-06
-5.08111e-07
2.03773e-06
-6.24647e-07
2.33945e-06
-7.26728e-07
2.50299e-06
-8.38029e-07
2.68178e-06
-9.46059e-07
2.85147e-06
-1.05809e-06
2.96902e-06
-1.1696e-06
3.05323e-06
-1.28194e-06
3.07363e-06
-1.39217e-06
3.05335e-06
-1.49931e-06
2.98456e-06
-1.60116e-06
2.87988e-06
-1.69628e-06
2.7373e-06
-1.78284e-06
2.56227e-06
-1.85919e-06
2.35501e-06
-1.92354e-06
2.11681e-06
-1.97433e-06
1.84541e-06
-2.00997e-06
1.54029e-06
-2.02892e-06
1.20122e-06
-2.02964e-06
8.2938e-07
-2.01069e-06
4.25901e-07
-1.97062e-06
-8.44924e-09
-1.90801e-06
-4.73002e-07
-1.82155e-06
-9.66566e-07
-1.71001e-06
-1.48723e-06
-1.57234e-06
-2.03241e-06
-1.40761e-06
-2.59889e-06
-1.21508e-06
-3.18263e-06
-9.9426e-07
-3.77922e-06
-7.44857e-07
-4.38337e-06
-4.66912e-07
-4.98969e-06
-1.60672e-07
-5.5916e-06
1.73148e-07
-6.18294e-06
5.33731e-07
-6.75605e-06
9.19556e-07
-7.3039e-06
1.32922e-06
-7.81871e-06
1.76032e-06
-8.29159e-06
2.2109e-06
-8.71666e-06
2.67752e-06
-9.08469e-06
3.15824e-06
-9.38888e-06
3.64717e-06
-9.63198e-06
4.14423e-06
-9.78362e-06
4.63953e-06
-9.88054e-06
5.13813e-06
-9.8465e-06
5.62123e-06
-9.79871e-06
6.10749e-06
-9.5425e-06
6.557e-06
-9.39292e-06
7.02204e-06
-8.86515e-06
7.41313e-06
-8.74171e-06
7.86143e-06
-7.92763e-06
8.16881e-06
-8.16639e-06
8.62824e-06
-7.90491e-06
-1.02584e-05
9.72666e-06
5.63385e-05
9.01832e-06
4.68514e-05
7.33591e-06
3.77319e-05
5.03854e-06
2.86696e-05
2.62045e-06
1.69894e-05
9.56707e-07
9.20804e-06
5.5966e-08
3.74931e-06
-2.95751e-07
2.66973e-06
-4.33259e-07
2.17524e-06
-5.55603e-07
2.46179e-06
-6.57054e-07
2.60444e-06
-7.65348e-07
2.79008e-06
-8.68577e-07
2.9547e-06
-9.74796e-07
3.07524e-06
-1.07971e-06
3.15814e-06
-1.18505e-06
3.17897e-06
-1.28802e-06
3.15633e-06
-1.3878e-06
3.08434e-06
-1.48225e-06
2.97433e-06
-1.56998e-06
2.82503e-06
-1.64921e-06
2.64151e-06
-1.71833e-06
2.42413e-06
-1.77561e-06
2.17409e-06
-1.81954e-06
1.88934e-06
-1.84858e-06
1.56933e-06
-1.86124e-06
1.21388e-06
-1.85604e-06
8.24177e-07
-1.83156e-06
4.01422e-07
-1.7864e-06
-5.36066e-08
-1.7192e-06
-5.40206e-07
-1.62867e-06
-1.0571e-06
-1.51365e-06
-1.60225e-06
-1.37312e-06
-2.17295e-06
-1.2062e-06
-2.76581e-06
-1.01218e-06
-3.37664e-06
-7.90606e-07
-4.0008e-06
-5.41206e-07
-4.63277e-06
-2.6404e-07
-5.26686e-06
4.06332e-08
-5.89627e-06
3.72099e-07
-6.5144e-06
7.29534e-07
-7.11349e-06
1.11144e-06
-7.6858e-06
1.51642e-06
-8.22369e-06
1.94211e-06
-8.71729e-06
2.38658e-06
-9.16113e-06
2.84645e-06
-9.54456e-06
3.31977e-06
-9.86219e-06
3.80083e-06
-1.0113e-05
4.28946e-06
-1.02723e-05
4.77609e-06
-1.03672e-05
5.26557e-06
-1.0336e-05
5.73962e-06
-1.02728e-05
6.21644e-06
-1.00193e-05
6.65702e-06
-9.83351e-06
7.11261e-06
-9.32073e-06
7.49531e-06
-9.12441e-06
7.93397e-06
-8.36629e-06
8.23286e-06
-8.46528e-06
8.67766e-06
-8.3497e-06
-1.03954e-05
9.82004e-06
5.65185e-05
9.26791e-06
4.74035e-05
7.81899e-06
3.91808e-05
5.67635e-06
3.08123e-05
3.24888e-06
1.94169e-05
1.41453e-06
1.10424e-05
3.02894e-07
4.86095e-06
-1.62443e-07
3.13507e-06
-3.43113e-07
2.35591e-06
-4.76415e-07
2.5951e-06
-5.79475e-07
2.7075e-06
-6.85885e-07
2.89649e-06
-7.84975e-07
3.05379e-06
-8.8579e-07
3.17606e-06
-9.84356e-07
3.25671e-06
-1.08283e-06
3.27744e-06
-1.1786e-06
3.2521e-06
-1.27102e-06
3.17676e-06
-1.35804e-06
3.06134e-06
-1.43832e-06
2.90531e-06
-1.51014e-06
2.71333e-06
-1.57195e-06
2.48593e-06
-1.62206e-06
2.22421e-06
-1.65904e-06
1.92631e-06
-1.68139e-06
1.59168e-06
-1.68767e-06
1.22016e-06
-1.67645e-06
8.12962e-07
-1.64637e-06
3.7134e-07
-1.59606e-06
-1.03917e-07
-1.5242e-06
-6.12065e-07
-1.42957e-06
-1.15173e-06
-1.31104e-06
-1.72077e-06
-1.16764e-06
-2.31634e-06
-9.9854e-07
-2.93491e-06
-8.03069e-07
-3.57211e-06
-5.80791e-07
-4.22308e-06
-3.3147e-07
-4.88209e-06
-5.51837e-08
-5.54314e-06