/*--------------------------------*- C++ -*----------------------------------*\
| =========                 |                                                 |
| \\      /  F ield         | OpenFOAM: The Open Source CFD Toolbox           |
|  \\    /   O peration     | Version:  2.4.0                                 |
|   \\  /    A nd           | Web:      www.OpenFOAM.org                      |
|    \\/     M anipulation  |                                                 |
\*---------------------------------------------------------------------------*/
FoamFile
{
    version     2.0;
    format      ascii;
    class       volScalarField;
    location    "3.22";
    object      nut;
}
// * * * * * * * * * * * * * * * * * * * * * * * * * * * * * * * * * * * * * //

dimensions      [0 2 -1 0 0 0 0];

internalField   nonuniform List<scalar> 
6000
(
1.24053e-05
1.01579e-05
5.69253e-06
3.05786e-06
1.7466e-06
2.93764e-06
2.50865e-06
3.33029e-06
3.78072e-06
4.97271e-06
6.36018e-06
7.99498e-06
9.62575e-06
1.12781e-05
1.30339e-05
1.48655e-05
1.65662e-05
1.79791e-05
1.69149e-05
1.47555e-05
1.19619e-05
1.10159e-05
1.47243e-05
1.82493e-05
2.17449e-05
2.4462e-05
2.6321e-05
2.76028e-05
2.84991e-05
2.91132e-05
2.95101e-05
2.97331e-05
2.97964e-05
2.97223e-05
2.9525e-05
2.92129e-05
2.87862e-05
2.8233e-05
2.75299e-05
2.66452e-05
2.58523e-05
2.59198e-05
2.57557e-05
2.53763e-05
2.48112e-05
2.40937e-05
2.32445e-05
2.22433e-05
2.10665e-05
1.96904e-05
1.81679e-05
1.65998e-05
1.50592e-05
1.36403e-05
1.23633e-05
1.1542e-05
1.09212e-05
1.07909e-05
1.03812e-05
1.08399e-05
2.33581e-05
3.47886e-05
1.71847e-05
8.01924e-06
4.91797e-06
7.45464e-06
1.50404e-05
1.73655e-05
2.34537e-05
2.8856e-05
3.58222e-05
4.55341e-05
5.82567e-05
7.5614e-05
9.67965e-05
0.000121243
0.000147221
0.000153007
0.000121026
7.72671e-05
5.64378e-05
6.5266e-05
9.15809e-05
9.69773e-05
0.000111589
0.000133457
0.000151159
0.000164085
0.000174433
0.000183523
0.0001915
0.000197961
0.000204427
0.000211075
0.000218008
0.000225256
0.000232721
0.000240076
0.000246728
0.000251745
0.000247958
0.000233308
0.0002155
0.00019508
0.000173041
0.000150603
0.000128911
0.000108273
8.86669e-05
7.37118e-05
6.33721e-05
5.63862e-05
5.08765e-05
4.56262e-05
3.968e-05
3.36553e-05
2.68816e-05
2.15514e-05
1.63964e-05
1.33854e-05
2.89e-05
5.03202e-05
2.44027e-05
1.01663e-05
1.10881e-05
1.74722e-05
2.98349e-05
3.52554e-05
4.47057e-05
5.54096e-05
6.99257e-05
9.05607e-05
0.000116734
0.000150126
0.000189312
0.000233934
0.000278209
0.000291928
0.000232162
0.000152737
0.000105618
0.000114737
0.000153063
0.000173065
0.000231656
0.000297548
0.000343512
0.000374854
0.000397939
0.000415965
0.00042996
0.000440683
0.000450257
0.000459157
0.000467702
0.000476058
0.0004841
0.000491231
0.000496337
0.000497716
0.000486599
0.000463759
0.000434754
0.000400219
0.000361559
0.000320675
0.00027957
0.000238983
0.000197197
0.000159284
0.000128252
0.000105485
8.95824e-05
7.84055e-05
6.84218e-05
6.00142e-05
4.96058e-05
4.20358e-05
3.16103e-05
2.72994e-05
3.21951e-05
5.72204e-05
2.77742e-05
1.12023e-05
1.75335e-05
2.78342e-05
4.23044e-05
5.07377e-05
6.31432e-05
7.92889e-05
0.000101465
0.000132057
0.000169366
0.000214629
0.0002664
0.000324357
0.000379495
0.000397282
0.000317802
0.000214797
0.000149783
0.000155067
0.000206786
0.000255592
0.000365847
0.000469877
0.00053907
0.000585434
0.00061814
0.000641838
0.000658683
0.000670469
0.000679477
0.000686543
0.000692282
0.000697083
0.000700919
0.000703094
0.00070223
0.000696222
0.00067804
0.000649846
0.000614036
0.00057118
0.00052275
0.000470817
0.000417608
0.00036418
0.000308852
0.000255437
0.000207676
0.000168954
0.000139962
0.000119601
0.000103364
9.10483e-05
7.7415e-05
6.81146e-05
5.46688e-05
5.10408e-05
3.39566e-05
5.94481e-05
3.41875e-05
1.20851e-05
2.27101e-05
3.64407e-05
5.24936e-05
6.38232e-05
7.92735e-05
0.000100589
0.000129826
0.000168896
0.000215021
0.000268846
0.000329029
0.000395193
0.000456247
0.000474714
0.00038154
0.000262695
0.000186539
0.000190002
0.00025691
0.000341891
0.000499228
0.000633171
0.000720777
0.000778872
0.000818471
0.000845434
0.000862973
0.000873622
0.000879793
0.000882676
0.000883196
0.000881999
0.000879229
0.00087422
0.000865511
0.000850904
0.000826254
0.000793372
0.000752586
0.00070437
0.000650129
0.000591869
0.000531733
0.000470867
0.000407888
0.000345395
0.000286817
0.000236117
0.000195504
0.000165515
0.000142092
0.000124942
0.000107925
9.6886e-05
8.19494e-05
7.96227e-05
3.49042e-05
5.90457e-05
4.15455e-05
1.24465e-05
2.5567e-05
4.30622e-05
6.08341e-05
7.51103e-05
9.36582e-05
0.00011975
0.000155306
0.000201512
0.000254556
0.000314426
0.000379888
0.000450533
0.000514014
0.000530975
0.000428531
0.000298507
0.000216219
0.000222268
0.000305267
0.000428922
0.000626177
0.000783652
0.000886044
0.000953333
0.000997831
0.00102642
0.00104321
0.00105127
0.00105318
0.00105047
0.00104434
0.00103571
0.00102494
0.00101148
0.000993911
0.000970253
0.00093945
0.000901978
0.000857113
0.000805247
0.00074765
0.000686126
0.000622577
0.000558037
0.0004913
0.000424049
0.000359154
0.000300475
0.000250985
0.000212561
0.000182202
0.000159957
0.000139476
0.000126437
0.000110717
0.000109116
3.5415e-05
5.72033e-05
4.70684e-05
1.48577e-05
2.51704e-05
4.778e-05
6.76144e-05
8.50107e-05
0.000106662
0.000137124
0.000178282
0.00023049
0.000288945
0.000352928
0.000421299
0.000493669
0.00055701
0.000571148
0.000462831
0.000324305
0.000239746
0.00025286
0.000352485
0.000514512
0.000744821
0.000921145
0.00103565
0.00111027
0.00115829
0.00118742
0.00120251
0.00120704
0.0012038
0.00119459
0.0011809
0.00116391
0.00114422
0.00112144
0.00109431
0.00106141
0.0010245
0.000982359
0.000933918
0.00087951
0.000820222
0.000757565
0.000693079
0.000627546
0.000559753
0.000490689
0.000422652
0.000359134
0.0003034
0.00025823
0.000221783
0.000194646
0.000170777
0.000155505
0.000139211
0.000137541
3.56744e-05
5.46511e-05
5.07599e-05
2.17496e-05
2.2489e-05
5.05848e-05
7.29561e-05
9.37441e-05
0.000118504
0.000152964
0.000199075
0.00025635
0.000319017
0.000385628
0.000455101
0.000527126
0.000588423
0.000598963
0.000487504
0.000341775
0.000258146
0.000282165
0.000398728
0.000597281
0.000854764
0.00104651
0.00117117
0.00125182
0.00130241
0.00133139
0.00134417
0.00134458
0.00133561
0.00131933
0.00129747
0.00127145
0.00124213
0.00120936
0.00117206
0.00112985
0.00108668
0.00103972
0.000987997
0.000931823
0.00087206
0.000809844
0.000746263
0.000681725
0.000614841
0.000546056
0.000477136
0.000411123
0.000351313
0.000301046
0.000259538
0.000227954
0.000200891
0.000183264
0.000166378
0.000163979
3.57843e-05
5.18378e-05
5.28836e-05
3.00714e-05
2.03247e-05
5.13329e-05
7.68508e-05
0.000101389
0.000129308
0.000167449
0.000217947
0.000279516
0.000345452
0.000413547
0.000482745
0.000552871
0.000610748
0.000617242
0.000504945
0.000352403
0.00027244
0.000310365
0.000443973
0.000676404
0.000956217
0.00116087
0.00129426
0.00138002
0.0014326
0.001461
0.00147108
0.001467
0.00145195
0.00142821
0.00139772
0.00136215
0.00132263
0.00127929
0.00123126
0.00117975
0.00113001
0.00107803
0.0010232
0.000965825
0.000906516
0.000845966
0.000784726
0.000722719
0.000658247
0.000591296
0.000523147
0.000456386
0.000394205
0.00034027
0.000294702
0.000259213
0.000229215
0.000209229
0.000191648
0.000188058
3.58065e-05
4.90336e-05
5.37115e-05
3.80564e-05
2.04993e-05
4.98108e-05
7.92039e-05
0.000107917
0.000139123
0.000180707
0.000235106
0.000300337
0.000368796
0.000437503
0.000505392
0.000572483
0.000626026
0.000628211
0.000517137
0.00035771
0.000283626
0.000337534
0.000488129
0.000751427
0.00104964
0.00126534
0.00140643
0.00149669
0.00155088
0.00157845
0.00158563
0.00157684
0.00155547
0.00152399
0.00148453
0.00143899
0.00138879
0.00133432
0.00127502
0.00121435
0.00115761
0.00110039
0.00104253
0.000984353
0.000926218
0.000868315
0.000810576
0.000752342
0.000691483
0.000627575
0.000561454
0.000495269
0.000432047
0.000375634
0.000326901
0.000288064
0.000255418
0.000233173
0.000214771
0.000209713
3.57788e-05
4.6393e-05
5.35165e-05
4.46994e-05
2.39188e-05
4.6074e-05
7.98858e-05
0.000113216
0.000147932
0.000192818
0.000250716
0.00031909
0.000389495
0.00045816
0.000523993
0.00058727
0.000635985
0.000633985
0.000525519
0.000359274
0.000292673
0.000363653
0.000531083
0.000822127
0.00113558
0.00136094
0.00150898
0.00160333
0.00165893
0.00168555
0.00168972
0.0016761
0.00164826
0.00160885
0.00156014
0.00150428
0.00144295
0.00137687
0.00130582
0.00123621
0.00117197
0.00110925
0.00104835
0.000989654
0.000933247
0.000878782
0.000825502
0.000772076
0.000715829
0.00065595
0.00059285
0.000528275
0.00046506
0.000407142
0.000356024
0.000314368
0.000279371
0.000254949
0.000235691
0.000229037
3.57238e-05
4.39951e-05
5.25572e-05
4.97843e-05
3.02145e-05
4.12629e-05
7.88076e-05
0.000117106
0.000155661
0.000203825
0.000264904
0.000336002
0.000407909
0.000476062
0.000539336
0.000598347
0.00064213
0.000636449
0.000531317
0.000358839
0.000300456
0.000388599
0.000572728
0.00088844
0.0012146
0.00144855
0.001603
0.00170118
0.00175808
0.00178372
0.00178484
0.00176634
0.00173194
0.00168445
0.00162628
0.00155978
0.00148696
0.00140883
0.00132581
0.00124726
0.00117509
0.00110663
0.00104262
0.000983563
0.000929289
0.000878887
0.000830862
0.00078312
0.000732344
0.000677328
0.00061807
0.000555936
0.00049357
0.000434951
0.000382116
0.000338136
0.00030108
0.000274613
0.000254484
0.00024621
3.56552e-05
4.18717e-05
5.10643e-05
5.33211e-05
3.71816e-05
3.70803e-05
7.60174e-05
0.00011937
0.000162168
0.000213732
0.00027776
0.000351254
0.000424333
0.000491658
0.000552091
0.000606679
0.000645785
0.00063723
0.00053563
0.00035832
0.000307611
0.000412175
0.000612973
0.000950401
0.00128722
0.00152896
0.00168941
0.00179125
0.00184941
0.00187407
0.00187217
0.00184876
0.00180776
0.00175208
0.00168428
0.0016069
0.00152225
0.00143169
0.00133673
0.00124911
0.00116868
0.00109421
0.00102698
0.00096763
0.000915752
0.000869886
0.000827762
0.00078645
0.000741897
0.000692475
0.00063776
0.000578762
0.000517938
0.00045929
0.000405315
0.000359462
0.000320631
0.00029229
0.000271292
0.000261443
3.55813e-05
4.00252e-05
4.92328e-05
5.54425e-05
4.36908e-05
3.49529e-05
7.17965e-05
0.000119794
0.000167252
0.000222497
0.000289349
0.000364987
0.000439006
0.000505321
0.000562829
0.000613107
0.000648104
0.000637717
0.000539551
0.000359424
0.000315169
0.000434556
0.00065175
0.00100811
0.00135393
0.00160281
0.00176895
0.00187433
0.00193377
0.0019575
0.0019526
0.00192431
0.00187668
0.00181274
0.00173518
0.00164672
0.00154997
0.00144665
0.00134008
0.00124315
0.00115417
0.00107348
0.00100289
0.000943218
0.000893868
0.000852857
0.000817134
0.000782873
0.000745203
0.000702029
0.000652478
0.000597213
0.000538521
0.000480414
0.000425802
0.000378488
0.000338159
0.000308134
0.000286293
0.000274955
3.55072e-05
3.84411e-05
4.72203e-05
5.63398e-05
4.93226e-05
3.72891e-05
6.68431e-05
0.000118244
0.000170651
0.000230029
0.000299699
0.000377311
0.000452125
0.000517361
0.000571993
0.000618348
0.000650055
0.000639037
0.000544598
0.000362747
0.00032385
0.000455934
0.000689008
0.00106172
0.00141519
0.00167066
0.00184223
0.00195109
0.00201182
0.00203468
0.00202684
0.0019937
0.00193945
0.00186721
0.00177978
0.00168008
0.00157103
0.0014547
0.00133717
0.00123057
0.00113286
0.00104577
0.000971675
0.000911579
0.000864756
0.00082876
0.000799787
0.000773076
0.000742862
0.000706524
0.000662695
0.000611695
0.000555647
0.00049858
0.000443775
0.000395378
0.000353813
0.000322306
0.000299667
0.00028695
3.5436e-05
3.70961e-05
4.51489e-05
5.62252e-05
5.38853e-05
4.24595e-05
6.21422e-05
0.000114768
0.000172074
0.000236174
0.000308805
0.000388305
0.000463844
0.000528038
0.000579981
0.000622985
0.000652389
0.000642004
0.000551914
0.00036933
0.000334072
0.000476494
0.000724718
0.00111138
0.00147139
0.00173298
0.00190976
0.00202203
0.00208408
0.00210616
0.00209544
0.00205749
0.00199663
0.00191608
0.00181871
0.00170767
0.00158616
0.00145676
0.00132903
0.00121242
0.00110588
0.0010123
0.000934576
0.000873904
0.000829483
0.000798499
0.000776461
0.000757661
0.000735388
0.000706412
0.000668817
0.000622563
0.000569617
0.000514028
0.000459429
0.000410297
0.000367748
0.000334963
0.000311589
0.000297613
3.53692e-05
3.59631e-05
4.31088e-05
5.53113e-05
5.72945e-05
4.8719e-05
5.86099e-05
0.000109689
0.000171243
0.00024071
0.00031662
0.000398016
0.000474282
0.00053756
0.000587123
0.000627461
0.000655614
0.000647103
0.000562244
0.000380982
0.000345906
0.000496414
0.000758871
0.00115728
0.00152287
0.00179017
0.00197194
0.00208757
0.00215098
0.00217233
0.00215881
0.00211612
0.00204868
0.00195981
0.00185248
0.00173003
0.00159598
0.00145387
0.00131635
0.00118961
0.00107428
0.000974222
0.000892791
0.000831364
0.000789107
0.00076296
0.000747861
0.000737183
0.000723237
0.000702083
0.000671188
0.000630123
0.000580694
0.000526981
0.000472949
0.000423404
0.000380113
0.000346249
0.000322214
0.000307107
3.53078e-05
3.50147e-05
4.11632e-05
5.37986e-05
5.95464e-05
5.49101e-05
5.82388e-05
0.000103685
0.000167986
0.000243343
0.000323045
0.000406456
0.000483521
0.000546085
0.000593665
0.000632063
0.000659994
0.000654502
0.000575921
0.000398673
0.000359416
0.000515869
0.000791474
0.00119962
0.00156995
0.00184255
0.00202911
0.00214804
0.00221283
0.00223353
0.00221727
0.0021699
0.00209593
0.00199876
0.00188147
0.00174758
0.00160096
0.00144694
0.00129977
0.00116298
0.00103902
0.000932613
0.000847486
0.000785128
0.000744702
0.000723043
0.000714695
0.000712176
0.000706827
0.000693885
0.000670108
0.000634639
0.000589111
0.000537637
0.000484504
0.000434844
0.00039104
0.000356295
0.000331682
0.000315567
3.52521e-05
3.4225e-05
3.93533e-05
5.18677e-05
6.06996e-05
6.04042e-05
6.09577e-05
9.76835e-05
0.000162353
0.000243726
0.00032792
0.000413597
0.000491603
0.000553724
0.000599767
0.000636934
0.000665571
0.000664097
0.000592897
0.000422428
0.000374715
0.000535031
0.000822552
0.00123857
0.0016129
0.0018904
0.00208154
0.00220369
0.00226988
0.00229
0.00227108
0.00221909
0.00213864
0.00203322
0.00190599
0.00176069
0.0016015
0.00143679
0.00127987
0.00113324
0.00100098
0.000888494
0.000799799
0.000736377
0.000697379
0.000679694
0.000677693
0.000683178
0.000686565
0.000682137
0.000665845
0.000636345
0.000595073
0.000546174
0.000494248
0.000444752
0.000400653
0.000365214
0.000340112
0.00032311
3.5202e-05
3.35701e-05
3.77025e-05
4.96753e-05
6.08584e-05
6.48741e-05
6.55556e-05
9.26755e-05
0.00015474
0.000241503
0.000331007
0.000419366
0.000498531
0.000560535
0.00060551
0.000642085
0.000672203
0.000675583
0.000612817
0.000451575
0.000391995
0.000554071
0.000852149
0.00127433
0.00165196
0.00193394
0.00212945
0.00225473
0.00232233
0.00234192
0.00232041
0.00226389
0.00217702
0.0020634
0.00192629
0.00176963
0.00159823
0.00142386
0.00125715
0.00110106
0.000960937
0.000842815
0.000750823
0.000686289
0.00064829
0.000633909
0.000637632
0.000650747
0.000662858
0.000667142
0.000658642
0.000635447
0.00059876
0.000552749
0.000502315
0.000453243
0.000409057
0.000373103
0.000347605
0.000329832
3.51572e-05
3.30291e-05
3.62213e-05
4.73521e-05
6.01581e-05
6.81658e-05
7.07321e-05
9.05309e-05
0.000145959
0.000236402
0.000331995
0.000423627
0.000504262
0.000566526
0.000610906
0.000647428
0.000679625
0.000688528
0.000635134
0.000485084
0.000411548
0.000573162
0.000880329
0.00130709
0.00168732
0.00197338
0.002173
0.00230132
0.00237033
0.00238944
0.00236542
0.00230443
0.00221123
0.00208947
0.00194254
0.00177462
0.00159188
0.00140839
0.00123208
0.00106701
0.000919614
0.000796442
0.000701584
0.000636016
0.000598614
0.00058675
0.00059535
0.000615482
0.000636131
0.000649204
0.000648728
0.000632134
0.000600334
0.000557501
0.000508827
0.000460424
0.000416346
0.000380047
0.000354245
0.000335812
3.51176e-05
3.25835e-05
3.49103e-05
4.50033e-05
5.87512e-05
7.02359e-05
7.5697e-05
9.1469e-05
0.000137134
0.000228376
0.000330502
0.000426175
0.000508701
0.000571653
0.000615906
0.000652804
0.000687492
0.000702433
0.000659202
0.000521853
0.000433755
0.000592485
0.000907179
0.00133702
0.00171917
0.00200885
0.00221234
0.00234359
0.00241399
0.00243266
0.00240619
0.00234082
0.00224137
0.00211156
0.00195492
0.00177585
0.00158307
0.00139062
0.00120503
0.00103157
0.000877623
0.000750136
0.000653009
0.000586643
0.000549521
0.000539323
0.00055175
0.000578033
0.00060684
0.000628635
0.000636327
0.000626579
0.000599939
0.000560554
0.00051389
0.000466385
0.0004226
0.000386118
0.000360104
0.000341114
3.50826e-05
3.22178e-05
3.37634e-05
4.27099e-05
5.6796e-05
7.11182e-05
7.99644e-05
9.44224e-05
0.000130397
0.000217773
0.000326129
0.00042672
0.00051169
0.000575818
0.000620417
0.000658012
0.000695431
0.000716781
0.000684356
0.000560859
0.00045907
0.000612238
0.000932822
0.00136432
0.00174766
0.00204049
0.00224757
0.00238162
0.00245339
0.00247166
0.00244282
0.00237316
0.00226753
0.00212977
0.00196352
0.0017738
0.00157205
0.00137075
0.00117634
0.000995172
0.000835487
0.000704541
0.000605888
0.000539132
0.000502121
0.000492752
0.000507794
0.000539171
0.000575484
0.00060576
0.000621665
0.000618951
0.00059771
0.00056202
0.000517599
0.000471207
0.00042789
0.000391375
0.000365241
0.000345792
3.50518e-05
3.19184e-05
3.27702e-05
4.05307e-05
5.44467e-05
7.09023e-05
8.32388e-05
9.827e-05
0.000126953
0.00020571
0.000318483
0.00042499
0.000513002
0.000578866
0.000624304
0.000662837
0.000703066
0.000731064
0.000709955
0.000601221
0.000487955
0.000632652
0.000957423
0.00138917
0.0017729
0.0020684
0.00227878
0.00241549
0.00248859
0.00250651
0.00247535
0.00240148
0.00228978
0.00214417
0.00196846
0.00176905
0.00155888
0.00134899
0.00114629
0.000958165
0.000793629
0.000660168
0.000560846
0.000494271
0.000457392
0.000448124
0.000464479
0.000499695
0.000542602
0.000580933
0.000604973
0.000609412
0.000593773
0.000562002
0.000520041
0.000474962
0.000432278
0.000395872
0.000369705
0.000349891
3.50247e-05
3.16742e-05
3.19179e-05
3.85058e-05
5.18467e-05
6.97181e-05
8.53563e-05
0.000102171
0.000126487
0.000193916
0.000307553
0.000420613
0.000512517
0.000580581
0.000627393
0.000667063
0.000710044
0.000744799
0.000735399
0.000642191
0.000520787
0.000654006
0.00098121
0.00141173
0.001795
0.00209264
0.00230601
0.00244525
0.00251964
0.00253722
0.00250381
0.00242583
0.00230816
0.00215482
0.00196995
0.00176197
0.00154362
0.0013255
0.00111511
0.000920832
0.000752381
0.000617396
0.00051833
0.000452629
0.000416112
0.000406418
0.0004228
0.000460405
0.000508775
0.000554533
0.000586496
0.000598128
0.000588249
0.000560595
0.000521292
0.000477713
0.000435815
0.000399652
0.000373537
0.000353446
3.50011e-05
3.14755e-05
3.11923e-05
3.66591e-05
4.91223e-05
6.77212e-05
8.62519e-05
0.000105543
0.000128087
0.000184048
0.000293796
0.000413237
0.000509963
0.000580811
0.000629469
0.00067048
0.000716046
0.000757538
0.000760134
0.000683115
0.000557735
0.000676648
0.0010045
0.00143218
0.00181401
0.00211326
0.00232932
0.00247092
0.00254656
0.00256382
0.00252824
0.00244623
0.00232269
0.00216174
0.0019685
0.00175256
0.00152634
0.00130043
0.00108301
0.000883397
0.000711988
0.000576483
0.000478615
0.000414551
0.000378807
0.000368427
0.000383693
0.000422136
0.000474623
0.000526971
0.000566494
0.000585268
0.000581257
0.000557889
0.000521425
0.000479517
0.000438551
0.000402755
0.000376774
0.000356488
3.49804e-05
3.13145e-05
3.05791e-05
3.50016e-05
4.63806e-05
6.50817e-05
8.59393e-05
0.000107999
0.000130742
0.000177095
0.000278257
0.000402623
0.000505022
0.000579352
0.000630304
0.000672879
0.000720794
0.000768873
0.000783648
0.000723397
0.000598654
0.000701006
0.00102773
0.00145066
0.00182999
0.0021303
0.00234873
0.00249254
0.00256936
0.00258633
0.00254863
0.00246269
0.0023334
0.00216516
0.00196436
0.00174085
0.00150712
0.0012739
0.00105013
0.000846036
0.000672626
0.000537583
0.000441827
0.000380168
0.000345731
0.00033469
0.000347961
0.000385707
0.000440794
0.000498685
0.000545245
0.000571011
0.000572916
0.000553972
0.000520506
0.000480428
0.000440527
0.000405215
0.000379446
0.000359045
3.49623e-05
3.11845e-05
3.00645e-05
3.35346e-05
4.37075e-05
6.19724e-05
8.44959e-05
0.000109301
0.000133587
0.000173153
0.000262453
0.000388778
0.000497369
0.000575953
0.000629641
0.000674037
0.000724054
0.000778434
0.000805467
0.000762466
0.000643025
0.000727597
0.0010515
0.00146726
0.0018429
0.00214375
0.00236424
0.00251009
0.00258805
0.00260474
0.00256499
0.00247521
0.0023403
0.00216547
0.00195754
0.00172687
0.00148601
0.00124602
0.00101661
0.000808884
0.000634414
0.000500774
0.000407982
0.000349449
0.000316898
0.000305464
0.000316212
0.000351867
0.000407937
0.000470138
0.000523045
0.000555542
0.00056335
0.000548929
0.000518599
0.000480494
0.000441782
0.000407062
0.000381579
0.000361138
3.49465e-05
3.10799e-05
2.96355e-05
3.2252e-05
4.11683e-05
5.85598e-05
8.20488e-05
0.000109325
0.000135963
0.000171629
0.000247993
0.000372105
0.000486723
0.000570336
0.000627258
0.00067372
0.00072563
0.000785893
0.000825154
0.000799764
0.000689995
0.000757017
0.00107611
0.00148187
0.00185305
0.00215364
0.00237584
0.00252359
0.00260263
0.00261904
0.00257729
0.00248379
0.00234372
0.00216269
0.00194808
0.00171063
0.00146308
0.00121688
0.00098255
0.000772047
0.00059743
0.000466079
0.000377022
0.000322254
0.000292144
0.000280738
0.000288804
0.000321241
0.000376675
0.000441804
0.000500207
0.000539057
0.000552685
0.000542846
0.000515767
0.000479763
0.000442353
0.000408326
0.000383199
0.000362789
3.49327e-05
3.09963e-05
2.92802e-05
3.11429e-05
3.88087e-05
5.49961e-05
7.87609e-05
0.000108037
0.000137409
0.000171615
0.000236085
0.00035348
0.000472934
0.000562215
0.000622931
0.000671647
0.000725358
0.000790966
0.000842301
0.000834747
0.000738471
0.000789915
0.00110089
0.00149461
0.00186054
0.00216023
0.00238369
0.00253305
0.00261307
0.0026292
0.00258558
0.0024886
0.00234369
0.00215686
0.001936
0.00169217
0.00143838
0.00118656
0.000948046
0.000735609
0.000561728
0.000433486
0.000348848
0.000298386
0.000271201
0.000260301
0.000265842
0.000294284
0.000347568
0.000414154
0.000477056
0.000521762
0.00054105
0.00053581
0.000512071
0.000478279
0.000442273
0.000409031
0.000384328
0.000364016
3.49207e-05
3.09298e-05
2.89879e-05
3.01934e-05
3.66576e-05
5.1414e-05
7.48178e-05
0.000105484
0.000137621
0.000172186
0.000227215
0.000334194
0.000456094
0.000551328
0.000616422
0.000667619
0.000723118
0.000793416
0.000856534
0.000866896
0.000787246
0.000826449
0.00112533
0.00150559
0.00186546
0.00216361
0.00238787
0.00253856
0.00261944
0.0026353
0.00258992
0.0024897
0.00234027
0.00214803
0.0019213
0.00167152
0.00141197
0.00115514
0.000913177
0.000699643
0.000527344
0.000402968
0.000323348
0.000277634
0.00025376
0.000243825
0.000247209
0.000271251
0.000321078
0.000387635
0.000453922
0.000503872
0.000528582
0.000527912
0.000507572
0.000476086
0.000441576
0.000409204
0.000384986
0.000364836
3.49101e-05
3.08772e-05
2.87489e-05
2.93877e-05
3.47288e-05
4.79232e-05
7.0414e-05
0.000101777
0.000136427
0.000172555
0.000221141
0.000315691
0.000436641
0.000537502
0.000607503
0.000661504
0.000718803
0.000793052
0.000867513
0.000895724
0.000835114
0.000865938
0.00114933
0.00151486
0.00186787
0.00216387
0.00238846
0.0025402
0.00262181
0.00263739
0.00259038
0.00248713
0.00233349
0.00213621
0.00190402
0.0016487
0.0013839
0.00112269
0.00087802
0.000664213
0.000494303
0.00037449
0.000300406
0.000259788
0.000239521
0.000230936
0.000232628
0.000252204
0.000297548
0.000362652
0.000431132
0.000485608
0.000515423
0.000519241
0.000502334
0.000473229
0.000440295
0.00040887
0.000385195
0.000365267
3.49009e-05
3.08359e-05
2.8555e-05
2.87099e-05
3.30249e-05
4.46088e-05
6.57407e-05
9.70804e-05
0.000133762
0.000172119
0.000217133
0.000299201
0.000415408
0.000520728
0.000595976
0.000653169
0.000712282
0.000789724
0.000874931
0.00092079
0.000880962
0.000907397
0.00117271
0.00152243
0.0018678
0.00216105
0.00238552
0.00253804
0.00262023
0.00263552
0.002587
0.00248095
0.00232341
0.00212145
0.00188418
0.00162375
0.00135422
0.00108926
0.000842648
0.000629381
0.00046263
0.000348016
0.00027991
0.000244657
0.000228206
0.000221273
0.000221741
0.000237037
0.000277187
0.000339549
0.000408997
0.000467193
0.000501719
0.000509894
0.000496419
0.000469751
0.000438461
0.000408051
0.000384974
0.000365325
3.48929e-05
3.08038e-05
2.83989e-05
2.81442e-05
3.15395e-05
4.15322e-05
6.09753e-05
9.1596e-05
0.000129659
0.000170462
0.000214264
0.000285423
0.000393544
0.000501244
0.000581715
0.000642491
0.000703518
0.000783464
0.000878521
0.0009417
0.000923803
0.000949587
0.00119523
0.00152826
0.00186528
0.0021552
0.00237911
0.00253212
0.00261477
0.00262976
0.00257984
0.0024712
0.00231005
0.00210375
0.00186181
0.00159671
0.00132298
0.00105493
0.000807134
0.000595208
0.000432344
0.000323509
0.000261755
0.000232065
0.000219569
0.000214508
0.000214169
0.000225525
0.000260075
0.000318595
0.000387808
0.00044885
0.000487618
0.000499967
0.000489893
0.000465699
0.000436108
0.000406774
0.000384344
0.000365026
3.48858e-05
3.07792e-05
2.82743e-05
2.76758e-05
3.02598e-05
3.87326e-05
5.62728e-05
8.55489e-05
0.000124227
0.000167328
0.000211629
0.000274416
0.000372311
0.000479599
0.000564729
0.00062938
0.000692493
0.000774393
0.000878058
0.000958112
0.000962787
0.000991081
0.00121655
0.00153229
0.00186028
0.00214633
0.00236927
0.00252249
0.00260547
0.00262014
0.00256894
0.00245793
0.00229345
0.00208316
0.00183692
0.00156762
0.00129025
0.00101977
0.000771557
0.000561752
0.000403463
0.000300934
0.000245843
0.000221852
0.000213397
0.00021036
0.000209556
0.000217378
0.000246183
0.000299978
0.00036782
0.000430794
0.000473272
0.000489562
0.000482824
0.000461119
0.000433269
0.000405063
0.000383324
0.000364388
3.48797e-05
3.07605e-05
2.81759e-05
2.72911e-05
2.91692e-05
3.62297e-05
5.1761e-05
7.91717e-05
0.000117647
0.000162601
0.000208475
0.000265696
0.000352794
0.000456642
0.000545211
0.000613805
0.00067918
0.000762694
0.000873358
0.000969735
0.000997119
0.00103046
0.00123627
0.00153437
0.00185274
0.00213445
0.00235602
0.0025092
0.00259237
0.00260671
0.00255434
0.00244115
0.00227364
0.0020597
0.00180956
0.00153652
0.00125608
0.00098386
0.000735996
0.000529073
0.000376006
0.000280259
0.000232081
0.000213873
0.000209501
0.000208584
0.000207582
0.00021228
0.000235394
0.000283809
0.000349247
0.00041323
0.000458833
0.000478781
0.00047528
0.000456058
0.000429979
0.000402944
0.000381936
0.000363427
3.48743e-05
3.07466e-05
2.80989e-05
2.69775e-05
2.8249e-05
3.40273e-05
4.75373e-05
7.26888e-05
0.000110152
0.000156288
0.000204236
0.000258464
0.000335647
0.000433419
0.000523591
0.000595835
0.000663558
0.000748464
0.000864575
0.00097632
0.00102601
0.00106653
0.00125393
0.00153433
0.00184259
0.00211953
0.00233937
0.00249226
0.0025755
0.00258951
0.00253607
0.00242093
0.00225065
0.00203341
0.00177976
0.00150346
0.00122054
0.000947271
0.000700533
0.000497229
0.00034999
0.000261451
0.000220378
0.000207993
0.000207713
0.000208972
0.000207966
0.000209918
0.000227534
0.000270124
0.00033226
0.000396345
0.000444449
0.000467728
0.000467334
0.000450566
0.000426274
0.000400445
0.000380201
0.00036216
3.48695e-05
3.07365e-05
2.80395e-05
2.67241e-05
2.74798e-05
3.21167e-05
4.36689e-05
6.63032e-05
0.000102012
0.000148502
0.000198541
0.000251828
0.000320982
0.000410977
0.000500533
0.000575679
0.000645612
0.000731795
0.000852051
0.000977665
0.00104877
0.00109824
0.00126908
0.00153199
0.00182974
0.00210153
0.00231933
0.0024717
0.0025549
0.00256857
0.00251418
0.00239727
0.00222451
0.0020043
0.00174755
0.0014685
0.0011837
0.000910092
0.000665255
0.000466277
0.00032543
0.000244478
0.000210647
0.000204087
0.00020788
0.000211334
0.000210463
0.000209998
0.000222392
0.000258901
0.000316981
0.000380308
0.000430264
0.000456508
0.000459057
0.000444695
0.00042219
0.000397592
0.000378143
0.000360607
3.48654e-05
3.07295e-05
2.79945e-05
2.65213e-05
2.68425e-05
3.04807e-05
4.01951e-05
6.01868e-05
9.35121e-05
0.000139443
0.000191196
0.000244966
0.000308424
0.000390138
0.000476867
0.000553708
0.000625474
0.000712791
0.000836135
0.000973747
0.00106477
0.00112476
0.00128129
0.00152714
0.00181405
0.00208039
0.00229587
0.00244753
0.00253058
0.00254393
0.00248869
0.00237023
0.00219525
0.00197242
0.001713
0.0014317
0.00114564
0.000872416
0.00063025
0.000436272
0.000302344
0.000229306
0.000202801
0.000202038
0.000209865
0.000215501
0.000214853
0.000212245
0.00021974
0.000250067
0.000303488
0.000365261
0.000416414
0.000445225
0.000450525
0.000438496
0.000417767
0.000394416
0.000375784
0.000358786
3.48617e-05
3.07249e-05
2.79611e-05
2.63605e-05
2.6319e-05
2.9096e-05
3.71308e-05
5.44734e-05
8.49358e-05
0.000129386
0.000182169
0.000237216
0.000297276
0.000371329
0.000453457
0.000530454
0.000603506
0.00069158
0.000816926
0.000964741
0.00107374
0.00114546
0.00129015
0.00151961
0.00179543
0.00205604
0.00226896
0.00241974
0.00250257
0.00251561
0.00245964
0.00233982
0.00216291
0.0019378
0.00167614
0.00139312
0.00110644
0.000834343
0.000595607
0.000407268
0.000280745
0.000215898
0.000196755
0.000201738
0.000213539
0.000221313
0.000220935
0.00021641
0.000219342
0.000243515
0.000291817
0.000351323
0.000403027
0.000433982
0.000441812
0.000432025
0.000413045
0.000390946
0.00037315
0.000356716
3.48586e-05
3.07222e-05
2.7937e-05
2.62345e-05
2.58928e-05
2.79366e-05
3.44712e-05
4.92566e-05
7.6544e-05
0.000118654
0.000171565
0.000228113
0.000286714
0.000354521
0.000431037
0.000506558
0.000580025
0.000668323
0.00079457
0.000950701
0.00107589
0.0011599
0.0012953
0.00150925
0.00177376
0.00202841
0.00223858
0.00238833
0.00247087
0.00248362
0.00242704
0.00230607
0.00212752
0.00190049
0.00163703
0.00135285
0.0010662
0.000795977
0.000561416
0.000379313
0.000260648
0.000204217
0.000192425
0.000203083
0.000218778
0.00022862
0.000228521
0.000222261
0.000220966
0.000239112
0.000281967
0.000338586
0.000390217
0.000422879
0.000432994
0.000425336
0.000408064
0.000387215
0.000370267
0.000354417
3.48558e-05
3.07209e-05
2.79204e-05
2.6137e-05
2.55489e-05
2.69754e-05
3.21963e-05
4.45913e-05
6.85591e-05
0.000107599
0.000159611
0.000217396
0.000275941
0.000339302
0.000410057
0.000482674
0.000555444
0.000643227
0.000769251
0.000931758
0.00107146
0.00116784
0.00129645
0.00149593
0.00174897
0.00199742
0.00220468
0.00235329
0.00243549
0.00244799
0.00239093
0.00226902
0.00208912
0.00186054
0.00159574
0.00131096
0.00102502
0.000757427
0.000527765
0.000352457
0.000242067
0.000194219