/*--------------------------------*- C++ -*----------------------------------*\
| =========                 |                                                 |
| \\      /  F ield         | OpenFOAM: The Open Source CFD Toolbox           |
|  \\    /   O peration     | Version:  2.4.0                                 |
|   \\  /    A nd           | Web:      www.OpenFOAM.org                      |
|    \\/     M anipulation  |                                                 |
\*---------------------------------------------------------------------------*/
FoamFile
{
    version     2.0;
    format      ascii;
    class       volScalarField;
    location    "5.13";
    object      k;
}
// * * * * * * * * * * * * * * * * * * * * * * * * * * * * * * * * * * * * * //

dimensions      [0 2 -2 0 0 0 0];

internalField   nonuniform List<scalar> 
6000
(
0.168224
0.0132706
0.000978777
0.00362128
0.00250558
0.00292616
0.00242182
0.00239154
0.00212559
0.00205116
0.00191843
0.00188219
0.00184818
0.001875
0.00192504
0.00201956
0.00214281
0.00230252
0.0024923
0.00271498
0.0029676
0.00324994
0.00355876
0.00389095
0.00424154
0.00460535
0.00497627
0.00534724
0.00570992
0.00605474
0.00637079
0.00664597
0.00686725
0.00702033
0.0070906
0.00706427
0.00692922
0.00667514
0.00629809
0.00579933
0.00519681
0.00451887
0.00381895
0.00363926
0.00476319
0.00616537
0.00782097
0.00987455
0.0121479
0.015024
0.0178889
0.0219172
0.0251838
0.0312636
0.0342689
0.0449031
0.045517
0.06775
0.0605999
0.111325
0.0762048
0.010151
0.000944681
0.00240512
0.00171403
0.00192212
0.00160865
0.00156941
0.00140192
0.00134615
0.00126181
0.00123485
0.00121284
0.00122759
0.00125829
0.0013159
0.00139163
0.00148907
0.00160454
0.00173909
0.00189089
0.00205946
0.00224289
0.00243941
0.00264646
0.00286159
0.00308206
0.00330492
0.00352681
0.00374405
0.00395259
0.00414812
0.00432615
0.00448158
0.00460973
0.00470631
0.00476815
0.00479328
0.0047829
0.00474125
0.00468018
0.0046161
0.00456606
0.00467695
0.00519228
0.00578776
0.00647896
0.00733244
0.00828672
0.0094977
0.0107329
0.0124561
0.0139319
0.0165497
0.0180641
0.0226004
0.0234337
0.0327193
0.0309797
0.0515673
0.0412217
0.00802992
0.000973456
0.00168799
0.00122336
0.00131305
0.00110743
0.00106739
0.000958042
0.000916829
0.000863228
0.000845946
0.000835373
0.000849188
0.000875831
0.000921215
0.000980606
0.00105592
0.00114531
0.00124939
0.0013673
0.00149885
0.0016431
0.00179919
0.00196595
0.00214233
0.00232727
0.00251973
0.00271864
0.00292294
0.00313164
0.00334387
0.00355893
0.00377572
0.00399355
0.00421242
0.00443319
0.00465767
0.00488937
0.0051334
0.00539733
0.00568794
0.00599376
0.00627978
0.0065679
0.00681772
0.00706723
0.00735444
0.00767436
0.00809206
0.00853747
0.0091879
0.00978448
0.0108543
0.011569
0.013505
0.0141273
0.0181228
0.0180228
0.0267548
0.0260623
0.00677416
0.00107077
0.00126675
0.000916212
0.000934409
0.000790128
0.000751685
0.000677623
0.000647606
0.000614546
0.000606525
0.000606712
0.000625212
0.000655769
0.000701875
0.0007613
0.00083544
0.000923754
0.00102698
0.00114509
0.00127831
0.00142647
0.00158934
0.00176657
0.0019579
0.00216313
0.00238215
0.00261493
0.00286158
0.00312236
0.00339775
0.00368846
0.00399376
0.00431424
0.0046509
0.00500507
0.00537853
0.00577365
0.00619309
0.00663933
0.00711124
0.00758049
0.00796444
0.00823076
0.00839914
0.00850686
0.00857571
0.00862139
0.00867115
0.00872329
0.00883948
0.00895718
0.00925657
0.00947871
0.0101808
0.0104897
0.0121274
0.0123707
0.0161558
0.0187963
0.00609214
0.00123218
0.00103246
0.00072674
0.000696267
0.000585918
0.000548949
0.000496672
0.000475273
0.000456739
0.000457521
0.000468127
0.000494594
0.000533831
0.000588277
0.000657357
0.000742502
0.000844158
0.000963412
0.0011009
0.00125726
0.00143281
0.00162774
0.00184208
0.00207587
0.0023292
0.00260224
0.00289519
0.00320834
0.00354208
0.00389693
0.00427295
0.00466806
0.00508296
0.00551783
0.00597278
0.00644806
0.00694404
0.00746091
0.00799832
0.008552
0.00908627
0.00952804
0.00984351
0.0100437
0.0101572
0.0101941
0.0101718
0.0100982
0.00999362
0.00987154
0.00974552
0.00965678
0.00957411
0.00964602
0.0096664
0.0101621
0.0103149
0.0119471
0.015049
0.00576627
0.00144818
0.000925041
0.000617038
0.000547687
0.00045413
0.000417418
0.000378594
0.000363866
0.000356248
0.00036555
0.000386585
0.000423234
0.000474375
0.000542101
0.000626989
0.000730735
0.000854515
0.000999767
0.00116757
0.0013588
0.001574
0.00181339
0.00207701
0.0023648
0.00267669
0.00301261
0.00337249
0.00375623
0.00416375
0.004595
0.00504772
0.00551956
0.00601059
0.00651984
0.00704622
0.00758864
0.00814617
0.00871775
0.00930233
0.00989438
0.0104559
0.0109362
0.0113074
0.011564
0.011727
0.0118001
0.0117988
0.0117208
0.0115911
0.0114008
0.0111884
0.0109374
0.0107017
0.010466
0.0102858
0.0102092
0.0101773
0.0108435
0.0130163
0.00565588
0.00170756
0.000909891
0.00056521
0.000459099
0.00037075
0.000332555
0.000301768
0.000292207
0.000293295
0.000310999
0.000342705
0.000391169
0.000456529
0.000540865
0.000645547
0.000772563
0.000923547
0.00110015
0.00130362
0.00153486
0.0017943
0.00208199
0.00239767
0.00274093
0.00311136
0.00350848
0.00393174
0.00438052
0.00485412
0.00535166
0.00586832
0.00640281
0.0069541
0.00752035
0.00809958
0.00868982
0.00928942
0.00989676
0.0105109
0.011124
0.0117003
0.012208
0.0126231
0.012929
0.0131411
0.0132595
0.0132993
0.0132531
0.0131475
0.012963
0.012747
0.0124567
0.0121769
0.0118229
0.0115487
0.0112081
0.0110398
0.0112652
0.0118779
0.00567208
0.00199816
0.00096544
0.000559104
0.000413146
0.000321322
0.000279586
0.000253068
0.000247444
0.000255823
0.000281902
0.0003246
0.000386086
0.000467291
0.00057038
0.000697222
0.000849985
0.00103051
0.00124047
0.00148108
0.00175309
0.0020567
0.00239166
0.00275735
0.00315301
0.00357784
0.00403096
0.00451135
0.00501791
0.00554939
0.00610342
0.00667446
0.00726153
0.00786272
0.00847552
0.00909727
0.00972541
0.0103578
0.0109925
0.0116289
0.0122546
0.0128414
0.0133683
0.0138138
0.0141553
0.0144043
0.0145589
0.0146342
0.0146203
0.0145456
0.0143856
0.0141927
0.0139117
0.0136417
0.0132654
0.012977
0.0125442
0.0123241
0.0123481
0.0112303
0.0057586
0.00230733
0.00107771
0.000590967
0.000399767
0.000297103
0.000249484
0.000224359
0.000221576
0.000236249
0.000270673
0.00032464
0.000399969
0.000498035
0.000621056
0.000771136
0.000950492
0.00116097
0.00140416
0.00168116
0.00199251
0.00233819
0.00271767
0.00313001
0.00357412
0.00404885
0.00455296
0.00508502
0.00564346
0.0062266
0.00683
0.00744893
0.00808197
0.00872651
0.00937945
0.0100376
0.0106979
0.0113579
0.0120155
0.0126695
0.0133032
0.0138977
0.0144374
0.0149017
0.0152662
0.0155395
0.0157181
0.0158174
0.0158266
0.0157756
0.0156372
0.0154684
0.015207
0.0149622
0.0145991
0.0143346
0.0138918
0.0136841
0.0136127
0.0108621
0.00588001
0.00262261
0.00123565
0.000656015
0.000413498
0.000292915
0.000236729
0.000210552
0.000209527
0.000229676
0.000272333
0.00033771
0.000427338
0.000542752
0.000686128
0.000859609
0.00106536
0.00130513
0.00158043
0.00189221
0.00224089
0.00262624
0.00304748
0.00350341
0.0039926
0.0045136
0.00506481
0.0056444
0.00625038
0.0068806
0.00752849
0.00819078
0.00886521
0.00954857
0.0102372
0.0109276
0.0116161
0.0123001
0.0129772
0.0136443
0.0142832
0.0148829
0.0154297
0.0159039
0.016281
0.0165678
0.0167597
0.0168726
0.0168948
0.0168578
0.0167332
0.0165812
0.0163359
0.0161144
0.0157716
0.0155405
0.0151174
0.0149523
0.0148272
0.010657
0.00601447
0.00293253
0.00142912
0.000750865
0.000451646
0.00030592
0.000238042
0.00020849
0.000208057
0.000232884
0.000283529
0.000360284
0.000464345
0.000597185
0.000760835
0.000957347
0.00118879
0.00145683
0.00176289
0.00210785
0.00249201
0.00291498
0.00337578
0.00387288
0.00440457
0.00496908
0.00556444
0.00618848
0.00683877
0.0075122
0.00820135
0.00890354
0.00961584
0.0103345
0.0110554
0.0117745
0.012488
0.0131929
0.0138867
0.0145618
0.0152043
0.0158064
0.0163554
0.0168322
0.0172138
0.0175056
0.0177023
0.01782
0.0178469
0.0178154
0.0176967
0.0175534
0.0173179
0.017113
0.0167872
0.0165866
0.0161886
0.016073
0.0159082
0.0105488
0.00614912
0.00322755
0.00164801
0.000873122
0.00051232
0.00033491
0.000251649
0.000216305
0.00021514
0.000243764
0.000301986
0.000389907
0.000508293
0.000658373
0.000841951
0.00106092
0.00131727
0.00161256
0.0019482
0.00232501
0.00274319
0.00320221
0.00370084
0.00423727
0.00480945
0.00541531
0.00605255
0.00671858
0.00741064
0.00812417
0.00885189
0.00959112
0.0103383
0.0110893
0.0118394
0.0125843
0.0133198
0.0140427
0.0147493
0.0154289
0.0160728
0.0166745
0.0172213
0.0176951
0.0180748
0.0183648
0.0185596
0.0186752
0.0187002
0.0186674
0.0185482
0.018407
0.018175
0.0179798
0.0176655
0.0174891
0.0171129
0.0170432
0.0168425
0.0104986
0.00627689
0.00350053
0.00188212
0.00101998
0.000594117
0.000379906
0.000276843
0.000233037
0.00022959
0.000260978
0.000326194
0.000424908
0.000557349
0.000724351
0.000927433
0.00116829
0.00144884
0.00177056
0.00213485
0.00254248
0.00299357
0.0034874
0.00402251
0.0045968
0.00520784
0.00585328
0.00653046
0.00723643
0.00796812
0.00871905
0.00948294
0.0102566
0.0110361
0.0118165
0.012593
0.0133608
0.0141155
0.0148538
0.0155681
0.0162499
0.0168931
0.0174914
0.0180321
0.0184982
0.0188708
0.0191537
0.0193413
0.0194496
0.0194675
0.0194282
0.0193035
0.019159
0.0189257
0.0187345
0.0184267
0.018268
0.0179083
0.0178777
0.0176419
0.0104827
0.00639445
0.00374697
0.00212159
0.00118774
0.000696167
0.000441021
0.000313726
0.000258399
0.000250841
0.000283762
0.000355206
0.00046421
0.000610336
0.000793905
0.00101609
0.00127836
0.00158255
0.00193008
0.00232231
0.00275998
0.00324309
0.00377074
0.00434122
0.00495209
0.00560058
0.00628403
0.00699944
0.00774349
0.00851263
0.00929872
0.0100965
0.0109023
0.0117114
0.0125187
0.0133189
0.0141069
0.014878
0.0156278
0.016346
0.0170278
0.0176678
0.0182597
0.0187909
0.0192453
0.0196066
0.0198781
0.0200543
0.0201511
0.020158
0.0201082
0.0199743
0.0198224
0.0195841
0.0193924
0.019087
0.018941
0.0185928
0.0185943
0.0183238
0.010487
0.00650069
0.00396479
0.00235737
0.00137155
0.000817518
0.000518165
0.000363054
0.000292639
0.000278811
0.000311793
0.000388511
0.000507178
0.000666566
0.000866353
0.00110731
0.00139061
0.00171806
0.00209092
0.00251055
0.00297763
0.00349202
0.00405263
0.00465748
0.0053038
0.00598843
0.00670842
0.00746047
0.00824084
0.00904513
0.00986445
0.010694
0.0115294
0.0123657
0.0131973
0.0140185
0.0148239
0.0156086
0.016365
0.0170846
0.0177641
0.0183982
0.0189809
0.0194993
0.019939
0.0202854
0.020542
0.0207034
0.0207854
0.0207782
0.0207149
0.020569
0.0204067
0.0201607
0.0199653
0.0196593
0.0195216
0.0191811
0.0192084
0.018904
0.0105025
0.00659578
0.00415397
0.00258183
0.00156563
0.000956508
0.000611286
0.000425677
0.000336459
0.000313816
0.000345101
0.000425936
0.000553515
0.000725692
0.000941368
0.00120083
0.0015049
0.0018553
0.00225314
0.00269974
0.00319568
0.0037407
0.00433348
0.00497177
0.00565244
0.00637194
0.00712707
0.00791418
0.00872919
0.00956639
0.0104169
0.011276
0.0121388
0.0129998
0.0138531
0.0146926
0.0155127
0.0163071
0.0170663
0.0177848
0.0184594
0.0190851
0.0196557
0.0201586
0.0205805
0.0209092
0.0211479
0.0212918
0.0213564
0.0213327
0.0212535
0.0210936
0.0209189
0.0206632
0.0204616
0.0201528
0.0200203
0.0196846
0.0197325
0.0193956
0.0105238
0.0066805
0.00431599
0.00278914
0.00176355
0.00111051
0.000720324
0.00050198
0.000390969
0.000356518
0.000384021
0.000467576
0.000603171
0.000787609
0.00101885
0.00129661
0.00162124
0.00199439
0.00241692
0.00289011
0.00341443
0.00398945
0.00461363
0.00528443
0.00599839
0.00675151
0.00754034
0.00836094
0.0092089
0.0100767
0.0109565
0.0118429
0.0127306
0.0136139
0.0144862
0.0153413
0.016173
0.0169722
0.0177317
0.0184467
0.0191139
0.0197286
0.0202844
0.020769
0.0211708
0.021479
0.0216974
0.0218215
0.0218667
0.0218247
0.0217279
0.0215525
0.0213637
0.0210971
0.0208876
0.0205747
0.0204448
0.0201119
0.020176
0.0198086
0.0105474
0.00675592
0.00445334
0.00297542
0.00195878
0.00127583
0.000844581
0.000592264
0.000457282
0.0004079
0.000429164
0.000513762
0.000656289
0.000852376
0.00109884
0.00139472
0.00173975
0.00213549
0.00258247
0.00308191
0.00363414
0.00423854
0.00489335
0.00559573
0.00634187
0.00712731
0.0079484
0.00880088
0.00967991
0.0105763
0.0114832
0.0123945
0.0133048
0.0142077
0.0150965
0.0159643
0.0168029
0.0176039
0.0183612
0.01907
0.0197272
0.0203282
0.0208666
0.0213305
0.0217098
0.0219955
0.0221915
0.0222939
0.022318
0.0222562
0.0221407
0.0219487
0.0217449
0.0214665
0.021248
0.0209302
0.020801
0.0204698
0.0205462
0.0201509
0.0105712
0.0068231
0.00456904
0.00313868
0.00214525
0.00144786
0.000982497
0.000696727
0.000536073
0.000469242
0.000481403
0.000565038
0.00071318
0.000920177
0.00118148
0.00149529
0.00186059
0.00227879
0.00275
0.00327535
0.00385501
0.00448817
0.0051728
0.0059058
0.00668298
0.0074994
0.00835125
0.00923395
0.0101418
0.0110647
0.0119966
0.0129306
0.0138609
0.0147808
0.0156832
0.0165598
0.0174016
0.0182016
0.018954
0.019654
0.0202986
0.0208832
0.0214017
0.0218427
0.0221974
0.0224586
0.0226304
0.0227096
0.0227112
0.0226287
0.0224936
0.0222845
0.0220651
0.0217745
0.0215463
0.0212231
0.0210934
0.0207631
0.0208489
0.0204287
0.0105941
0.00688304
0.00466626
0.00327862
0.00231785
0.00162131
0.00113151
0.000814981
0.000627896
0.000541749
0.000541868
0.000622162
0.000774306
0.0009913
0.00126696
0.00159853
0.00198394
0.00242449
0.0029197
0.00347062
0.00407723
0.00473847
0.0054521
0.00621469
0.00702172
0.00786773
0.00874875
0.00965997
0.0105944
0.0115418
0.0124964
0.0134506
0.0143983
0.0153325
0.0162449
0.0171259
0.0179682
0.0187645
0.0195093
0.0201978
0.020827
0.0213928
0.0218889
0.0223047
0.022633
0.0228679
0.0230141
0.0230687
0.023047
0.0229429
0.0227877
0.0225611
0.0223259
0.0220232
0.0217851
0.0214564
0.0213252
0.0209957
0.0210883
0.0206466
0.0106153
0.00693661
0.00474807
0.00339623
0.00247277
0.00179067
0.00128807
0.000945849
0.000732997
0.000626329
0.000611939
0.000686106
0.000840289
0.00106613
0.00135555
0.00170461
0.00210998
0.00257275
0.00309174
0.00366787
0.0043009
0.00498953
0.00573126
0.00652237
0.00735801
0.00823212
0.00914066
0.0100786
0.0110372
0.012007
0.0129819
0.0139538
0.0149163
0.0158613
0.0167793
0.0176619
0.0185017
0.0192916
0.0200259
0.0207001
0.0213114
0.0218557
0.0223271
0.0227158
0.0230158
0.0232229
0.023342
0.0233711
0.0233252
0.0231993
0.0230237
0.0227797
0.0225288
0.0222142
0.0219661
0.0216324
0.021499
0.0211707
0.021268
0.0208085
0.0106345
0.00698454
0.00481728
0.00349348
0.00260766
0.00195069
0.00144776
0.00108722
0.000851024
0.000723538
0.000693083
0.000758056
0.000911918
0.00114516
0.00144753
0.00181378
0.00223887
0.00272373
0.00326625
0.0038672
0.00452609
0.00524137
0.00601025
0.00682873
0.00769166
0.00859231
0.00952665
0.0104894
0.0114698
0.0124596
0.0134523
0.0144393
0.0154131
0.0163647
0.0172853
0.0181666
0.019001
0.0197815
0.0205026
0.0211597
0.0217504
0.0222706
0.0227151
0.0230747
0.0233449
0.0235227
0.0236137
0.0236164
0.0235459
0.0233977
0.0232019
0.0229407
0.0226745
0.0223486
0.0220909
0.0217527
0.021617
0.0212904
0.021391
0.0209176
0.0106516
0.00702745
0.00487631
0.00357287
0.00272164
0.00209684
0.00160561
0.00123601
0.000980844
0.000833479
0.000786178
0.000839772
0.000990161
0.00122897
0.00154326
0.00192624
0.00237076
0.00287755
0.0034433
0.00406866
0.00475281
0.00549393
0.00628896
0.00713359
0.0080224
0.00894795
0.00990626
0.0108915
0.0118914
0.0128988
0.0139069
0.0149052
0.0158863
0.0168415
0.0177618
0.0186388
0.0194649
0.020233
0.0209379
0.0215752
0.0221425
0.0226362
0.0230515
0.0233802
0.0236191
0.0237664
0.0238282
0.0238039
0.0237084
0.023538
0.0233222
0.0230445
0.0227636
0.0224272
0.0221605
0.0218188
0.0216807
0.0213568
0.0214594
0.0209764
0.0106666
0.00706586
0.00492718
0.00363719
0.00281511
0.00222563
0.00175652
0.00138822
0.0011204
0.00095561
0.000891593
0.00093256
0.00107676
0.00131828
0.00164313
0.00204222
0.00250576
0.00303426
0.00362292
0.00427222
0.00498099
0.0057471
0.00656718
0.00743666
0.00834989
0.00929859
0.010279
0.0112841
0.0123014
0.0133239
0.0143431
0.0153494
0.0163348
0.0172905
0.0182074
0.0190771
0.0198917
0.0206446
0.0213303
0.0219449
0.0224862
0.022951
0.023335
0.023631
0.0238371
0.0239528
0.0239847
0.0239329
0.0238122
0.02362
0.0233847
0.0230911
0.0227964
0.0224506
0.0221758
0.0218315
0.0216914
0.0213714
0.0214754
0.0209871
0.0106796
0.00710023
0.00497153
0.00368918
0.00288952
0.0023349
0.00189568
0.00153917
0.00126667
0.00108858
0.00100914
0.00103689
0.0011733
0.00141478
0.00174759
0.0021619
0.00264393
0.00319385
0.00380503
0.00447778
0.00521046
0.00600064
0.00684464
0.00773756
0.00867365
0.00964367
0.0106441
0.0116666
0.0126981
0.0137319
0.0147593
0.0157706
0.0167573
0.0177104
0.0186208
0.0194799
0.02028
0.0210145
0.0216781
0.0222672
0.0227798
0.0232133
0.0235639
0.0238256
0.0239977
0.0240808
0.0240821
0.0240025
0.0238568
0.023643
0.0233889
0.0230805
0.0227731
0.0224192
0.0221374
0.021792
0.0216503
0.0213356
0.0214407
0.0209515
0.0106909
0.00713093
0.00501066
0.00373139
0.00294704
0.00242383
0.00201902
0.00168384
0.00141571
0.0012301
0.00113792
0.00115277
0.00128022
0.0015198
0.00185861
0.00228546
0.00278525
0.00335622
0.00398947
0.00468509
0.00544094
0.00625422
0.00712089
0.00803579
0.00899309
0.0099825
0.0110004
0.0120365
0.0130794
0.0141217
0.0151543
0.0161675
0.0171524
0.0180997
0.0190003
0.0198457
0.0206281
0.021341
0.0219796
0.0225403
0.0230217
0.0234215
0.0237368
0.0239626
0.0240995
0.0241491
0.0241192
0.0240117
0.0238412
0.0236065
0.0233346
0.0230125
0.0226938
0.0223333
0.0220458
0.0217007
0.0215584
0.0212506
0.0213567
0.0208713
0.0107005
0.00715831
0.00504554
0.00376608
0.00299024
0.00249285
0.00212357
0.00181732
0.00156284
0.00137689
0.00127613
0.00127953
0.00139752
0.00163355
0.00197654
0.00241443
0.00293078
0.00352109
0.00417588
0.00489377
0.00567198
0.00650731
0.00739538
0.00833061
0.00930636
0.0103129
0.0113453
0.0123925
0.013444
0.0144918
0.0155267
0.0165386
0.0175184
0.0184566
0.0193442
0.0201726
0.0209341
0.0216224
0.0222328
0.0227624
0.02321
0.0235739
0.0238519
0.0240404
0.024141
0.0241564
0.0240951
0.0239597
0.0237648
0.02351
0.0232213
0.0228871
0.0225585
0.0221932
0.0219015
0.0215585
0.0214165
0.0211174
0.021225
0.0207479
0.0107087
0.00718268
0.00507692
0.00379513
0.00302184
0.00254344
0.00220764
0.0019352
0.00170298
0.00152479
0.00142102
0.0014157
0.00152464
0.00175588
0.00210122
0.0025485
0.00308009
0.00368876
0.00436415
0.00510331
0.0059027
0.00675868
0.00766647
0.00862012
0.00961227
0.0106336
0.0116777
0.0127332
0.0137905
0.0148408
0.0158747
0.0168821
0.0178535
0.0187794
0.0196506
0.0204586
0.021196
0.0218565
0.022436
0.0229317
0.0233428
0.0236686
0.0239077
0.0240575
0.0241208
0.0241015
0.0240085
0.0238454
0.0236268
0.0233528
0.0230488
0.0227039
0.0223673
0.0219989
0.0217048
0.0213658
0.0212253
0.0209369
0.0210467
0.0205825
0.0107156
0.00720435
0.00510534
0.00382007
0.00304448
0.00257783
0.0022709
0.00203404
0.00183107
0.00166891
0.00156882
0.00155887
0.00166022
0.00188608
0.00223213
0.00268704
0.00323238
0.00385827
0.00455319
0.00531252
0.00613187
0.00700703
0.00793285
0.00890297
0.00990937
0.0109431
0.0119959
0.0130571
0.0141171
0.0151669
0.0161966
0.0171962
0.0181558
0.019066
0.0199175
0.0207018
0.0214118
0.0220415
0.0225869
0.023046
0.0234184
0.023704
0.0239024
0.0240123
0.0240375
0.023983
0.0238584
0.023668
0.0234265
0.0231346
0.0228166
0.0224628
0.0221201
0.0217508
0.0214563
0.0211233
0.0209858
0.0207103
0.0208231
0.0203765
0.0107215
0.00722356
0.00513122
0.00384205
0.00306055
0.00259874
0.00231425
0.00211164
0.0019425
0.00180397
0.00171492
0.00170559
0.00180201
0.00202273
0.00236824
0.00282901
0.00338646
0.00402828
0.00474156
0.00551991
0.00635792
0.00725077
0.00819287
0.00917745
0.0101959
0.0112394
0.0122981
0.0133622
0.0144219
0.0154679
0.0164903
0.0174786
0.0184232
0.0193142
0.0201425
0.0208999
0.0215792
0.022175
0.0226836
0.0231034
0.0234347
0.0236781
0.0238344
0.0239033
0.0238898
0.0237998
0.0236437
0.0234267
0.0231632
0.0228547
0.0225245
0.0221638
0.0218171
0.0214491
0.0211562
0.0208315
0.0206988
0.0204383
0.0205555
0.020131
0.0107263
0.00724059
0.00515486
0.00386193
0.0030721
0.00260902
0.00233961
0.00216719
0.00203358
0.00192476
0.00185406
0.0018515
0.00194678
0.00216359
0.00250785
0.00297288
0.00354071
0.00419702
0.00492737
0.00572351
0.00657886
0.00748788
0.00844449
0.00944151
0.0104698
0.0115203
0.0125821
0.0136462
0.0147026
0.0157417
0.0167533
0.0177271
0.0186531
0.0195215
0.0203233
0.0210504
0.0216959
0.0222547
0.0227236
0.0231017
0.0233897
0.0235892
0.0237019
0.0237289
0.0236762
0.0235508
0.0233636
0.0231206
0.0228363
0.0225128
0.0221722
0.0218068
0.0214583
0.0210942
0.0208052
0.0204912
0.020365
0.020122
0.020245
0.019847
0.0107304
0.00725567
0.00517648
0.00388031
0.00308079
0.00261148
0.00234964
0.00220127
0.0021019
0.00202659
0.00198073
0.00199144
0.00209031
0.00230546
0.00264845
0.00311642
0.00369293
0.00436219
0.00510824
0.00592087
0.00679221
0.00771585
0.00868521
0.00969264
0.0107285
0.0117831
0.0128455
0.0139066
0.0149566
0.0159856
0.0169831
0.0179389
0.0188429
0.0196853
0.0204572
0.0211507
0.0217593
0.0222782
0.0227049
0.0230387
0.0232814
0.0234353
0.0235033
0.0234877
0.0233956
0.0232349
0.0230171
0.0227492
0.0224455
0.0221087
0.0217598
0.021392
0.0210442
0.0206864
0.0204038
0.020103
0.0199853
0.0197623
0.0198927
0.0195258
0.0107337
0.007269
0.00519628
0.00389758
0.00308791
0.00260865
0.00234739
0.00221565
0.00214647
0.00210574
0.00208961
0.00211978
0.00222756
0.0024442
0.00278671
0.00325673
0.0038403
0.0045209
0.00528117
0.00610895
0.0069949
0.00793164
0.00891199
0.00992782
0.0109691
0.012025
0.0130852
0.0141405
0.015181
0.0161965
0.0171767
0.0181111
0.0189896
0.0198027
0.0205414
0.0211982
0.0217668
0.022243
0.0226248
0.0229122
0.0231078
0.0232147
0.0232369
0.0231782
0.0230467
0.0228511
0.0226036
0.022312
0.0219905
0.0216423
0.0212874
0.0209197
0.0205752
0.0202264
0.0199528
0.0196678
0.0195607
0.0193603
0.0195
0.0191684
0.0107365
0.00728081
0.00521441
0.003914
0.00309439
0.00260273
0.00233601
0.00221305
0.00216785
0.00215985
0.00217607
0.00223087
0.00235289
0.00257484
0.00291841
0.00339009
0.00397927
0.00466957
0.00544253
0.00628406
0.00718324
0.00813159
0.00912121
0.0101435
0.0111878
0.0122424
0.0132977
0.0143443
0.0153722
0.0163711
0.0173307
0.0182403
0.0190901
0.0198705
0.0205728
0.0211898
0.0217156
0.0221465
0.022481
0.02272
0.0228668
0.0229256
0.0229014
0.0227994
0.0226285
0.0223987
0.0221226
0.0218088
0.0214713
0.0211139
0.0207553
0.0203902
0.0200518
0.0197149
0.019453
0.0191865
0.0190924
0.0189172
0.0190682
0.0187761
0.0107388
0.00729126
0.00523101
0.00392969
0.00310085
0.00259546
0.00231853
0.00219676
0.00216793
0.00218818
0.00223668
0.0023195
0.00246049
0.0026918
0.00303858
0.00351205
0.00410563
0.00480398
0.00558802
0.00644184
0.00735285
0.00831133
0.00930858
0.0103354
0.0113803
0.0124313
0.0134791
0.0145142
0.0155265
0.0165057
0.0174413
0.0183231
0.0191409
0.0198854
0.0205482
0.0211224
0.0216027
0.0219858
0.022271
0.0224599
0.0225565
0.0225662
0.0224952
0.0223499
0.0221403
0.0218772
0.0215739
0.0212395
0.020888
0.0205238
0.0201641
0.0198044
0.0194749
0.0191528
0.0189054
0.0186602
0.0185815
0.0184341
0.0185985
0.01835
0.0107407
0.00730053
0.0052462
0.00394473
0.00310767
0.00258817
0.0022976
0.00217033
0.00214968
0.00219156
0.00226952
0.00238144
0.00254484
0.00278927
0.0031417
0.00361751
0.00421451
0.00491928
0.00571268
0.00657724
0.00749866
0.00846583
0.00946913
0.0104986
0.0115419
0.0125871
0.0136249
0.0146457
0.0156395
0.016596
0.0175047
0.0183553
0.019138
0.0198436
0.0204641
0.0209929
0.0214251
0.0217582
0.0219922
0.0221295
0.022175
0.0221351
0.0220172
0.021829
0.0215815
0.0212864
0.0209574
0.0206045
0.0202413
0.0198727
0.0195147
0.0191633
0.0188456
0.0185414
0.0183112
0.0180903
0.0180293
0.0179126
0.0180926
0.0178914
0.0107422
0.00730876
0.00526011
0.00395914
0.00311504
0.00258179
0.00227547
0.00213722
0.00211678
0.00217234
0.00227442
0.00241391
0.00260125
0.00286166
0.00322205
0.00370096
0.00430057
0.0050101
0.005811
0.00668461
0.00761495
0.00858938
0.0095972
0.0106277
0.0116674
0.0127046
0.01373
0.014734
0.0157066
0.0166374
0.0175162
0.0183328
0.0190775
0.0197414
0.0203169
0.0207977
0.0211797
0.021461
0.0216422
0.0217268
0.0217205
0.0216308
0.0214663
0.021236
0.0209518
0.0206263
0.0202737
0.0199044
0.0195321
0.0191619
0.0188083
0.0184682
0.0181654
0.017882
0.0176721
0.0174783
0.0174376
0.0173541
0.0175519
0.0174017
0.0107434
0.0073161
0.00527285
0.00397292
0.003123
0.0025769
0.00225386
0.0021006
0.00207326
0.00213402
0.00225297
0.0024159
0.0026264
0.00290411
0.00327415
0.00375683
0.00435825
0.00507077
0.00587709
0.00675783
0.00769542
0.00867562
0.0096865
0.0107164
0.0117506
0.0127779
0.0137887
0.0147735
0.0157223
0.0166249
0.0174712
0.018251
0.018955
0.0195747
0.0201027
0.0205335
0.0208634
0.0210913
0.0212187
0.0212498
0.0211915
0.0210522
0.0208419
0.0205707
0.0202515
0.0198976
0.0195235
0.0191405
0.0187618
0.0183928
0.0180466
0.0177209
0.0174361
0.0171765
0.0169899
0.0168258
0.016808
0.0167603
0.0169783
0.0168824
0.0107444
0.00732265
0.00528453
0.00398607
0.0031315
0.00257381
0.00223402
0.00206313
0.00202307
0.00208087
0.00220831
0.00238833
0.00261873
0.00291311
0.0032933
0.00377989
0.00438211
0.00509561
0.00590493
0.00679052
0.00773344
0.00871777
0.00973019
0.010758
0.0117851
0.0128007
0.013795
0.0147585
0.0156812
0.0165532
0.0173643
0.018105
0.018766
0.0193392
0.0198178
0.0201967
0.020473
0.0206465
0.0207193
0.0206968
0.0205867
0.0203987
0.0201437
0.0198333
0.0194811
0.0191011
0.0187084
0.0183145
0.0179322
0.0175675
0.0172319
0.0169236
0.0166598
0.0164271
0.0162665
0.0161351
0.0161426
0.0161332
0.0163737
0.0163351
0.0107452
0.00732853
0.00529524
0.00399858
0.00314047
0.0025726
0.00221677
0.00202692
0.00196983
0.00201747
0.00214475
0.00233394
0.00257869
0.00288688
0.00327611
0.00376583
0.00436732
0.00507933
0.00588874
0.00677639
0.00772226
0.00870878
0.00972111
0.0107453
0.0117638
0.0127661
0.0137422
0.0146825
0.0155771
0.0164164
0.0171904
0.0178898
0.0185058
0.0190306
0.0194581
0.0197839
0.0200057
0.020124
0.0201422
0.0200664
0.0199053
0.0196699
0.0193721
0.0190246
0.0186419
0.0182388
0.0178303
0.0174286
0.0170461
0.0166888
0.016367
0.0160792
0.0158393
0.0156364
0.0155047
0.0154085
0.0154438
0.015475
0.0157402
0.0157616
0.0107458
0.00733382
0.00530509
0.00401046
0.00314976
0.0025732
0.00220253
0.00199351
0.0019166
0.00194828
0.00206731
0.00225703
0.00250878
0.00282577
0.00322102
0.00371176
0.00431012
0.00501754
0.00582345
0.00670965
0.00765546
0.00864175
0.00965204
0.0106709
0.0116796
0.0126671
0.0136235
0.014539
0.0154039
0.0162087
0.0169438
0.0176003
0.0181697
0.0186448
0.0190201
0.0192918
0.0194587
0.0195219
0.0194858
0.0193576
0.0191471
0.0188661
0.0185278
0.018146
0.0177359
0.0173129
0.0168922
0.0164862
0.0161068
0.0157602
0.0154553
0.0151909
0.014978
0.0148076
0.0147073
0.0146488
0.0147142
0.0147881
0.0150801
0.0151639
0.0107463
0.0073386
0.00531416
0.00402172
0.00315925
0.00257545
0.00219146
0.00196389
0.00186579
0.00187736
0.00198122
0.00216295
0.00241334
0.00273228
0.00312863
0.00361668
0.0042084
0.00490723
0.00570519
0.00658552
0.00752737
0.00851029
0.00951608
0.0105278
0.0115252
0.0124967
0.0134319
0.0143213
0.0151552
0.0159242
0.0166191
0.0172314
0.0177531
0.0181777
0.0185002
0.0187177
0.0188297
0.0188384
0.0187492
0.0185702
0.0183123
0.0179884
0.0176127
0.0172
0.0167662
0.016327
0.0158979
0.0154912
0.0151185
0.0147861
0.0145011
0.0142631
0.0140799
0.0139444
0.013878
0.0138592
0.0139568
0.0140753
0.0143961
0.0145442
0.0107467
0.00734296
0.00532254
0.00403237
0.00316883
0.00257912
0.00218346
0.0019386
0.00181914
0.00180806
0.00189143
0.00205758
0.00229807
0.00261099
0.00300186
0.00348192
0.00406217
0.00474734
0.00553186
0.00640081
0.00733373
0.00830913
0.0093072
0.0103095
0.0112938
0.0122478
0.0131609
0.0140231
0.0148249
0.0155571
0.016211
0.0167783
0.0172519
0.0176256
0.0178953
0.018059
0.018117
0.0180726
0.0179321
0.0177047
0.0174023
0.0170389
0.0166296
0.01619
0.0157367
0.0152857
0.0148523
0.014449
0.0140867
0.0137717
0.0135097
0.0133008
0.0131496
0.0130512
0.0130209
0.0130436
0.0131752
0.0133397
0.013691
0.0139049
0.010747
0.00734694
0.0053303
0.00404244
0.00317839
0.00258398
0.00217833
0.00191779
0.00177773
0.00174296
0.00180229
0.00194674
0.00216947
0.00246806
0.00284579
0.0033112
0.00387388
0.00453919
0.00530368
0.00615455
0.00707226
0.00803478
0.00902083
0.0100106
0.0109796
0.0119146
0.0128043
0.0136383
0.0144073
0.0151022
0.0157147
0.0162369
0.0166622
0.0169855
0.0172032
0.0173141
0.0173198
0.0172244
0.0170353
0.0167627
0.0164196
0.0160209
0.0155825
0.0151209
0.014653
0.0141948
0.0137617
0.013366
0.0130179
0.0127236
0.0124875
0.01231
0.012193
0.0121334
0.0121407
0.0122063
0.0123733
0.0125849
0.0129683
0.0132487
0.0107473
0.0073506
0.00533752
0.00405196
0.00318784
0.00258977
0.00217573
0.00190136
0.00174212
0.00168384
0.00171728
0.00183573
0.00203421
0.0023107
0.00266733
0.00311056
0.00364854
0.00428678
0.00502361
0.0058485
0.00674335
0.00768618
0.00865458
0.00962751
0.0105783
0.0114922
0.0123571
0.0131622
0.0138979
0.0145552
0.0151263
0.0156037
0.0159815
0.0162553
0.0164224
0.0164826
0.0164384
0.016295
0.0160609
0.0157474
0.0153683
0.0149393
0.0144773
0.0139991
0.013522
0.0130621
0.0126342
0.0122504
0.0119203
0.0116498
0.0114421
0.0112979
0.0112166
0.0111969
0.011243
0.0113522
0.0115557
0.0118148
0.0122314
0.0125785
0.0107475
0.007354
0.00534426
0.00406097
0.00319712
0.00259628
0.00217533
0.001889
0.0017124
0.00163175
0.00163895
0.00172896
0.00189849
0.00214641
0.0024745
0.00288792
0.00339357
0.00399688
0.00469763
0.00548758
0.0063506
0.00726541
0.00820899
0.00915937
0.0100879
0.0109781
0.0118164
0.0125915
0.0132933
0.0139132
0.0144432
0.0148767
0.0152084
0.0154344
0.0155532
0.0155654
0.0154747
0.0152873
0.0150128
0.0146635
0.014254
0.0138008
0.0133214
0.012833
0.0123528
0.0118968
0.0114793
0.011112
0.0108035
0.0105597
0.0103825
0.0102729
0.0102283
0.010249
0.0103343
0.0104871
0.0107276
0.0110341
0.0114844
0.0118978
0.0107476
0.00735716
0.00535058
0.0040695
0.00320617
0.0026033
0.00217675
0.00188028
0.00168838
0.00158713
0.00156893
0.00162976
0.00176761
0.00198228
0.00227572
0.00265239
0.0031183
0.00367871
0.00433464
0.00508008
0.00590126
0.00677831
0.0076883
0.0086086
0.00950951
0.0103721
0.0111814