/*--------------------------------*- C++ -*----------------------------------*\
| =========                 |                                                 |
| \\      /  F ield         | OpenFOAM: The Open Source CFD Toolbox           |
|  \\    /   O peration     | Version:  2.4.0                                 |
|   \\  /    A nd           | Web:      www.OpenFOAM.org                      |
|    \\/     M anipulation  |                                                 |
\*---------------------------------------------------------------------------*/
FoamFile
{
    version     2.0;
    format      ascii;
    class       volVectorField;
    location    "0.47";
    object      U;
}
// * * * * * * * * * * * * * * * * * * * * * * * * * * * * * * * * * * * * * //

dimensions      [0 1 -1 0 0 0 0];

internalField   nonuniform List<vector> 
6000
(
(0.990441 -0.000273771 0)
(0.970231 0.00204964 0)
(0.948316 0.00334866 0)
(0.925589 0.00413638 0)
(0.903368 0.00451972 0)
(0.882331 0.00453051 0)
(0.862701 0.00428621 0)
(0.844585 0.00389749 0)
(0.828048 0.00343834 0)
(0.813101 0.00295673 0)
(0.799701 0.00248389 0)
(0.787767 0.00203862 0)
(0.777204 0.00163078 0)
(0.767914 0.00126462 0)
(0.759799 0.000941591 0)
(0.752757 0.00066256 0)
(0.746676 0.000429051 0)
(0.741433 0.000243251 0)
(0.736889 0.000106738 0)
(0.732896 1.85584e-05 0)
(0.729312 -2.62525e-05 0)
(0.726016 -3.67522e-05 0)
(0.72292 -2.46196e-05 0)
(0.719975 -1.81072e-06 0)
(0.717167 2.17081e-05 0)
(0.714505 3.94314e-05 0)
(0.712007 4.86469e-05 0)
(0.709695 4.9741e-05 0)
(0.70758 4.49601e-05 0)
(0.705673 3.72011e-05 0)
(0.703978 2.91728e-05 0)
(0.702495 2.29743e-05 0)
(0.701221 1.99628e-05 0)
(0.700148 2.07832e-05 0)
(0.699256 2.55015e-05 0)
(0.698517 3.38286e-05 0)
(0.697889 4.53091e-05 0)
(0.697322 5.95774e-05 0)
(0.696763 7.67135e-05 0)
(0.696152 9.74385e-05 0)
(0.69543 0.000123151 0)
(0.694537 0.000155857 0)
(0.693403 0.000198068 0)
(0.691953 0.000252797 0)
(0.69009 0.000323753 0)
(0.687696 0.000415643 0)
(0.684617 0.000534599 0)
(0.680653 0.000688736 0)
(0.675542 0.00088894 0)
(0.668941 0.00115003 0)
(0.660391 0.00149248 0)
(0.649277 0.00194547 0)
(0.634767 0.00255105 0)
(0.61567 0.00337393 0)
(0.590422 0.00450621 0)
(0.556349 0.00611073 0)
(0.511191 0.00832077 0)
(0.446525 0.0114834 0)
(0.373183 0.0151428 0)
(0.211233 0.012851 0)
(1.00417 0.00480513 0)
(1.01373 0.00718207 0)
(1.0207 0.00682417 0)
(1.02486 0.00641189 0)
(1.02687 0.00609113 0)
(1.02702 0.00572522 0)
(1.02543 0.00534809 0)
(1.02231 0.00499388 0)
(1.01791 0.00466347 0)
(1.01247 0.0043509 0)
(1.00621 0.00405312 0)
(0.999316 0.0037683 0)
(0.991954 0.0034946 0)
(0.984265 0.00323046 0)
(0.97637 0.0029753 0)
(0.968381 0.00273015 0)
(0.960396 0.00249786 0)
(0.952509 0.00228257 0)
(0.944808 0.00208846 0)
(0.937375 0.00191807 0)
(0.930276 0.00177113 0)
(0.923558 0.00164437 0)
(0.917245 0.00153245 0)
(0.91134 0.00142953 0)
(0.905827 0.00133075 0)
(0.900681 0.00123319 0)
(0.895876 0.00113578 0)
(0.891386 0.00103859 0)
(0.887192 0.000941766 0)
(0.883282 0.000844982 0)
(0.879657 0.00074751 0)
(0.876334 0.000649016 0)
(0.873344 0.000550517 0)
(0.870725 0.000454981 0)
(0.868509 0.000367187 0)
(0.86671 0.00029286 0)
(0.865312 0.000237351 0)
(0.864262 0.000204457 0)
(0.863483 0.000195985 0)
(0.86288 0.000212045 0)
(0.862355 0.000251872 0)
(0.861817 0.000314973 0)
(0.861185 0.00040237 0)
(0.860389 0.000517345 0)
(0.85936 0.000665891 0)
(0.858027 0.000857095 0)
(0.8563 0.00110365 0)
(0.854068 0.00142271 0)
(0.851181 0.00183735 0)
(0.847441 0.00237896 0)
(0.84258 0.0030911 0)
(0.836229 0.00403566 0)
(0.827886 0.00530368 0)
(0.816798 0.00703164 0)
(0.801972 0.00943466 0)
(0.781429 0.0128297 0)
(0.753592 0.017768 0)
(0.709393 0.024458 0)
(0.657756 0.0354858 0)
(0.514882 0.0344959 0)
(1.00036 0.00116232 0)
(1.00263 0.00202365 0)
(1.00544 0.00239357 0)
(1.00803 0.0030406 0)
(1.01052 0.00370404 0)
(1.013 0.00418461 0)
(1.01529 0.0045077 0)
(1.01726 0.00471677 0)
(1.01884 0.00482609 0)
(1.02001 0.00484895 0)
(1.02075 0.00480361 0)
(1.02107 0.00470759 0)
(1.02097 0.0045748 0)
(1.02046 0.00441589 0)
(1.01956 0.00423918 0)
(1.01828 0.00405159 0)
(1.01665 0.00385924 0)
(1.01469 0.00366766 0)
(1.01244 0.00348148 0)
(1.00993 0.00330389 0)
(1.0072 0.00313618 0)
(1.00431 0.0029777 0)
(1.0013 0.00282631 0)
(0.998213 0.00267929 0)
(0.995091 0.00253428 0)
(0.99197 0.00239 0)
(0.988879 0.0022463 0)
(0.985843 0.00210355 0)
(0.982879 0.00196151 0)
(0.980001 0.00181827 0)
(0.977222 0.00166996 0)
(0.974562 0.00151184 0)
(0.972054 0.0013406 0)
(0.969736 0.001157 0)
(0.967652 0.000967499 0)
(0.96584 0.000783803 0)
(0.964319 0.000620493 0)
(0.963081 0.000491571 0)
(0.962089 0.00040742 0)
(0.961283 0.000373318 0)
(0.960585 0.000389881 0)
(0.959908 0.000455067 0)
(0.959167 0.000566876 0)
(0.958275 0.000725783 0)
(0.95715 0.00093653 0)
(0.955705 0.00120925 0)
(0.95384 0.00156024 0)
(0.951436 0.00201293 0)
(0.948341 0.00259952 0)
(0.94436 0.00336393 0)
(0.93924 0.00436688 0)
(0.932649 0.005694 0)
(0.924157 0.00747106 0)
(0.913172 0.00988367 0)
(0.899006 0.0132355 0)
(0.880351 0.017939 0)
(0.856804 0.0249213 0)
(0.822339 0.0342453 0)
(0.787042 0.0514032 0)
(0.689372 0.0558225 0)
(1.00025 0.00137447 0)
(1.00159 0.00317753 0)
(1.00312 0.00385942 0)
(1.00436 0.00422129 0)
(1.00551 0.00448905 0)
(1.00681 0.00461922 0)
(1.00821 0.00464137 0)
(1.00962 0.00460751 0)
(1.01101 0.00453906 0)
(1.01236 0.00444555 0)
(1.01365 0.0043364 0)
(1.01486 0.00421928 0)
(1.01598 0.00409863 0)
(1.01698 0.00397664 0)
(1.01787 0.0038546 0)
(1.01862 0.00373373 0)
(1.01923 0.00361557 0)
(1.01971 0.00350199 0)
(1.02004 0.00339469 0)
(1.02023 0.00329444 0)
(1.02029 0.00320052 0)
(1.02021 0.00311052 0)
(1.02001 0.0030208 0)
(1.01969 0.00292743 0)
(1.01926 0.00282726 0)
(1.01871 0.00271875 0)
(1.01807 0.00260217 0)
(1.01734 0.00247905 0)
(1.01652 0.00235081 0)
(1.01561 0.00221717 0)
(1.01462 0.00207518 0)
(1.01355 0.00191975 0)
(1.01238 0.00174601 0)
(1.01115 0.00155249 0)
(1.00987 0.0013439 0)
(1.00859 0.00113177 0)
(1.00735 0.000932667 0)
(1.0062 0.000764601 0)
(1.00516 0.000643301 0)
(1.00423 0.00057969 0)
(1.0034 0.000579451 0)
(1.00262 0.000644422 0)
(1.00183 0.000775019 0)
(1.00096 0.000973133 0)
(0.999915 0.00124476 0)
(0.998622 0.001602 0)
(0.99698 0.00206468 0)
(0.994876 0.00266189 0)
(0.992171 0.00343418 0)
(0.988693 0.00443702 0)
(0.984217 0.00574666 0)
(0.97845 0.00746925 0)
(0.971021 0.00975834 0)
(0.961412 0.0128345 0)
(0.949043 0.0170574 0)
(0.93284 0.0228812 0)
(0.912573 0.0314272 0)
(0.883932 0.04262 0)
(0.855419 0.06337 0)
(0.789305 0.0737256 0)
(1.00018 0.00117348 0)
(1.00125 0.00265191 0)
(1.00255 0.0031367 0)
(1.00361 0.00339417 0)
(1.00455 0.00368291 0)
(1.00554 0.00390302 0)
(1.00659 0.0040221 0)
(1.00763 0.00407594 0)
(1.00866 0.00408838 0)
(1.00968 0.00406724 0)
(1.01069 0.00401916 0)
(1.01169 0.00395137 0)
(1.01266 0.00386955 0)
(1.01361 0.00377771 0)
(1.01452 0.00367912 0)
(1.0154 0.00357683 0)
(1.01623 0.00347392 0)
(1.01702 0.00337336 0)
(1.01776 0.00327764 0)
(1.01845 0.00318809 0)
(1.01908 0.00310448 0)
(1.01967 0.00302494 0)
(1.02021 0.00294643 0)
(1.02069 0.00286562 0)
(1.02111 0.00277979 0)
(1.02146 0.00268759 0)
(1.02175 0.00258928 0)
(1.02196 0.00248641 0)
(1.0221 0.00238067 0)
(1.02216 0.00227241 0)
(1.02213 0.00215939 0)
(1.02199 0.0020366 0)
(1.02173 0.00189784 0)
(1.02134 0.00173861 0)
(1.02082 0.00155931 0)
(1.02018 0.00136719 0)
(1.01945 0.00117612 0)
(1.01867 0.00100415 0)
(1.01788 0.000870068 0)
(1.01711 0.000790127 0)
(1.01636 0.000776268 0)
(1.01562 0.000836134 0)
(1.01486 0.000974793 0)
(1.01401 0.0011975 0)
(1.01302 0.00151267 0)
(1.01181 0.0019347 0)
(1.0103 0.00248638 0)
(1.00837 0.00320124 0)
(1.0059 0.00412643 0)
(1.00274 0.00532677 0)
(0.998692 0.00689128 0)
(0.993507 0.00894303 0)
(0.986872 0.0116581 0)
(0.97837 0.0152852 0)
(0.967557 0.0202231 0)
(0.953621 0.026959 0)
(0.936493 0.0366867 0)
(0.913122 0.0493452 0)
(0.889557 0.0717831 0)
(0.843811 0.087139 0)
(1.00014 0.000986904 0)
(1.00102 0.00234186 0)
(1.00218 0.00292795 0)
(1.00322 0.00327029 0)
(1.00413 0.00359409 0)
(1.00506 0.00382587 0)
(1.00603 0.00393859 0)
(1.00699 0.00397516 0)
(1.00792 0.00396806 0)
(1.00883 0.00392833 0)
(1.00972 0.003863 0)
(1.0106 0.00378 0)
(1.01145 0.00368595 0)
(1.01229 0.00358544 0)
(1.0131 0.00348177 0)
(1.01389 0.00337772 0)
(1.01465 0.00327589 0)
(1.01539 0.00317863 0)
(1.01611 0.00308776 0)
(1.01681 0.00300414 0)
(1.01748 0.00292727 0)
(1.01814 0.0028553 0)
(1.01877 0.0027854 0)
(1.01937 0.00271446 0)
(1.01995 0.0026399 0)
(1.0205 0.0025603 0)
(1.02101 0.00247571 0)
(1.02147 0.00238745 0)
(1.02189 0.00229728 0)
(1.02225 0.00220615 0)
(1.02255 0.00211284 0)
(1.02278 0.00201344 0)
(1.02291 0.00190216 0)
(1.02294 0.00177368 0)
(1.02283 0.00162617 0)
(1.02261 0.00146374 0)
(1.02226 0.0012972 0)
(1.02181 0.0011428 0)
(1.02129 0.00101948 0)
(1.02072 0.000945642 0)
(1.02012 0.000936916 0)
(1.01947 0.00100537 0)
(1.01877 0.00116048 0)
(1.01797 0.0014114 0)
(1.01701 0.00176992 0)
(1.01584 0.00225359 0)
(1.01438 0.00288873 0)
(1.01252 0.00371335 0)
(1.01015 0.00478061 0)
(1.00712 0.00616332 0)
(1.00326 0.00796097 0)
(0.998317 0.0103099 0)
(0.992026 0.0134026 0)
(0.984018 0.0175067 0)
(0.973925 0.0230421 0)
(0.96112 0.030516 0)
(0.945633 0.0411173 0)
(0.925451 0.0549143 0)
(0.904993 0.0780531 0)
(0.871876 0.097463 0)
(1.00011 0.000842152 0)
(1.00084 0.00209708 0)
(1.00189 0.00272278 0)
(1.00289 0.00306732 0)
(1.00378 0.00335822 0)
(1.00468 0.00356955 0)
(1.00563 0.00367696 0)
(1.00657 0.00371465 0)
(1.00748 0.00371283 0)
(1.00837 0.00368166 0)
(1.00923 0.00362655 0)
(1.01008 0.00355434 0)
(1.0109 0.00347117 0)
(1.01169 0.00338129 0)
(1.01246 0.00328774 0)
(1.01321 0.00319308 0)
(1.01393 0.00309975 0)
(1.01463 0.00301 0)
(1.01531 0.00292559 0)
(1.01597 0.00284741 0)
(1.01662 0.00277517 0)
(1.01725 0.00270732 0)
(1.01786 0.00264147 0)
(1.01846 0.00257495 0)
(1.01905 0.00250553 0)
(1.01961 0.00243197 0)
(1.02015 0.00235436 0)
(1.02065 0.00227399 0)
(1.02113 0.00219276 0)
(1.02157 0.00211205 0)
(1.02196 0.00203152 0)
(1.02231 0.00194837 0)
(1.02258 0.00185766 0)
(1.02278 0.00175411 0)
(1.02287 0.00163472 0)
(1.02286 0.00150138 0)
(1.02273 0.00136227 0)
(1.02249 0.00123152 0)
(1.02215 0.0011272 0)
(1.02174 0.00106858 0)
(1.02125 0.00107368 0)
(1.0207 0.00115795 0)
(1.02006 0.00133467 0)
(1.0193 0.00161674 0)
(1.01839 0.0020195 0)
(1.01726 0.00256399 0)
(1.01584 0.00328037 0)
(1.01404 0.0042113 0)
(1.01175 0.00541586 0)
(1.00883 0.00697447 0)
(1.0051 0.00899626 0)
(1.00034 0.0116293 0)
(0.994292 0.0150799 0)
(0.986621 0.0196301 0)
(0.976992 0.0257103 0)
(0.964881 0.033838 0)
(0.950317 0.0451497 0)
(0.931936 0.0598564 0)
(0.913095 0.0832251 0)
(0.887073 0.105696 0)
(1.00009 0.00072877 0)
(1.00071 0.00188083 0)
(1.00166 0.00251203 0)
(1.00261 0.00285602 0)
(1.00348 0.00313092 0)
(1.00436 0.00333986 0)
(1.00529 0.00345562 0)
(1.00621 0.00350145 0)
(1.00711 0.003506 0)
(1.00799 0.00348094 0)
(1.00885 0.00343185 0)
(1.00969 0.00336527 0)
(1.0105 0.00328735 0)
(1.01128 0.00320247 0)
(1.01204 0.00311372 0)
(1.01278 0.00302371 0)
(1.01349 0.00293485 0)
(1.01417 0.00284929 0)
(1.01484 0.00276871 0)
(1.01549 0.00269392 0)
(1.01612 0.00262469 0)
(1.01673 0.00255967 0)
(1.01733 0.00249675 0)
(1.01792 0.0024336 0)
(1.01849 0.00236824 0)
(1.01904 0.00229961 0)
(1.01957 0.00222777 0)
(1.02008 0.00215394 0)
(1.02056 0.00207996 0)
(1.02101 0.00200742 0)
(1.02142 0.00193658 0)
(1.0218 0.00186552 0)
(1.02212 0.00179024 0)
(1.02238 0.00170596 0)
(1.02256 0.0016094 0)
(1.02265 0.00150128 0)
(1.02263 0.00138803 0)
(1.0225 0.00128203 0)
(1.02228 0.0012003 0)
(1.02197 0.00116219 0)
(1.02157 0.00118701 0)
(1.02109 0.00129257 0)
(1.0205 0.00149516 0)
(1.01979 0.001811 0)
(1.01892 0.0022589 0)
(1.01784 0.00286352 0)
(1.01647 0.00365902 0)
(1.01473 0.0046928 0)
(1.01253 0.00602979 0)
(1.00971 0.00775776 0)
(1.00612 0.00999493 0)
(1.00155 0.0129003 0)
(0.995749 0.0166923 0)
(0.988414 0.0216653 0)
(0.979237 0.0282562 0)
(0.967766 0.0369889 0)
(0.954012 0.0489302 0)
(0.936999 0.0644125 0)
(0.919358 0.0878308 0)
(0.89734 0.112365 0)
(1.00007 0.000636527 0)
(1.00061 0.00168626 0)
(1.00146 0.00230793 0)
(1.00237 0.00265379 0)
(1.00322 0.00291777 0)
(1.00409 0.0031213 0)
(1.00499 0.00323902 0)
(1.0059 0.00328728 0)
(1.00679 0.00329387 0)
(1.00766 0.00327209 0)
(1.00852 0.00322762 0)
(1.00935 0.00316637 0)
(1.01016 0.00309414 0)
(1.01094 0.00301523 0)
(1.01169 0.00293261 0)
(1.01243 0.00284876 0)
(1.01314 0.00276593 0)
(1.01382 0.00268608 0)
(1.01448 0.00261073 0)
(1.01513 0.00254061 0)
(1.01575 0.00247551 0)
(1.01636 0.00241426 0)
(1.01696 0.00235501 0)
(1.01754 0.00229572 0)
(1.01811 0.00223469 0)
(1.01865 0.00217096 0)
(1.01918 0.00210462 0)
(1.01968 0.0020368 0)
(1.02015 0.00196927 0)
(1.0206 0.00190379 0)
(1.02102 0.00184102 0)
(1.02141 0.00177981 0)
(1.02175 0.00171706 0)
(1.02203 0.00164862 0)
(1.02225 0.00157132 0)
(1.02238 0.00148524 0)
(1.02243 0.00139559 0)
(1.02237 0.00131339 0)
(1.02222 0.00125466 0)
(1.02198 0.00123856 0)
(1.02164 0.00128522 0)
(1.02121 0.00141424 0)
(1.02067 0.00164439 0)
(1.02001 0.00199486 0)
(1.01918 0.00248769 0)
(1.01814 0.00315106 0)
(1.01683 0.00402309 0)
(1.01516 0.00515583 0)
(1.01304 0.00661985 0)
(1.01034 0.00850991 0)
(1.0069 0.0109527 0)
(1.00253 0.0141171 0)
(0.996989 0.0182323 0)
(0.990005 0.0236033 0)
(0.981296 0.0306701 0)
(0.970476 0.0399609 0)
(0.95755 0.0524706 0)
(0.941812 0.0686266 0)
(0.925424 0.0920521 0)
(0.906102 0.117854 0)
(1.00006 0.000559558 0)
(1.00052 0.0015121 0)
(1.0013 0.00211446 0)
(1.00216 0.0024595 0)
(1.003 0.00271212 0)
(1.00385 0.00290676 0)
(1.00473 0.00302362 0)
(1.00563 0.00307388 0)
(1.00651 0.00308312 0)
(1.00738 0.00306528 0)
(1.00822 0.00302599 0)
(1.00905 0.00297045 0)
(1.00985 0.00290412 0)
(1.01063 0.00283117 0)
(1.01139 0.00275455 0)
(1.01212 0.0026766 0)
(1.01283 0.00259945 0)
(1.01351 0.00252495 0)
(1.01418 0.00245448 0)
(1.01482 0.00238873 0)
(1.01545 0.00232754 0)
(1.01606 0.00226989 0)
(1.01665 0.00221419 0)
(1.01723 0.00215865 0)
(1.01779 0.00210178 0)
(1.01834 0.00204277 0)
(1.01886 0.0019817 0)
(1.01936 0.00191963 0)
(1.01984 0.00185829 0)
(1.02029 0.00179949 0)
(1.02071 0.00174423 0)
(1.0211 0.00169194 0)
(1.02144 0.00164026 0)
(1.02174 0.00158569 0)
(1.02198 0.00152529 0)
(1.02215 0.00145884 0)
(1.02223 0.00139077 0)
(1.02223 0.00133107 0)
(1.02213 0.00129494 0)
(1.02193 0.00130129 0)
(1.02164 0.00137079 0)
(1.02126 0.00152441 0)
(1.02077 0.001783 0)
(1.02014 0.00216834 0)
(1.01936 0.00270547 0)
(1.01837 0.00342594 0)
(1.01712 0.00437169 0)
(1.01553 0.00559928 0)
(1.0135 0.0071847 0)
(1.01092 0.00922928 0)
(1.00764 0.0118675 0)
(1.00347 0.0152774 0)
(0.998211 0.0196973 0)
(0.991592 0.0254409 0)
(0.983364 0.0329487 0)
(0.973203 0.0427494 0)
(0.961118 0.0557688 0)
(0.946609 0.0724981 0)
(0.931545 0.0959191 0)
(0.914423 0.122447 0)
(1.00005 0.000494113 0)
(1.00046 0.00135589 0)
(1.00117 0.00193121 0)
(1.00199 0.00227105 0)
(1.00281 0.00251196 0)
(1.00364 0.00269658 0)
(1.00451 0.00281136 0)
(1.00539 0.0028633 0)
(1.00626 0.00287496 0)
(1.00712 0.00286052 0)
(1.00796 0.00282573 0)
(1.00879 0.00277532 0)
(1.00959 0.00271441 0)
(1.01037 0.00264705 0)
(1.01112 0.00257612 0)
(1.01185 0.00250386 0)
(1.01256 0.00243225 0)
(1.01325 0.00236302 0)
(1.01391 0.00229744 0)
(1.01455 0.00223614 0)
(1.01518 0.002179 0)
(1.01579 0.00212513 0)
(1.01639 0.00207315 0)
(1.01696 0.00202151 0)
(1.01753 0.0019689 0)
(1.01807 0.00191463 0)
(1.01859 0.00185882 0)
(1.0191 0.00180246 0)
(1.01957 0.00174722 0)
(1.02002 0.00169494 0)
(1.02045 0.00164686 0)
(1.02084 0.00160289 0)
(1.02119 0.0015613 0)
(1.02151 0.0015192 0)
(1.02176 0.001474 0)
(1.02195 0.00142538 0)
(1.02207 0.00137723 0)
(1.0221 0.00133881 0)
(1.02204 0.00132463 0)
(1.02189 0.00135333 0)
(1.02164 0.00144595 0)
(1.0213 0.00162454 0)
(1.02084 0.00191171 0)
(1.02026 0.00233155 0)
(1.01952 0.00291187 0)
(1.01859 0.00368741 0)
(1.0174 0.00470377 0)
(1.01589 0.00602181 0)
(1.01396 0.00772268 0)
(1.01151 0.00991387 0)
(1.0084 0.0127371 0)
(1.00446 0.0163785 0)
(0.999481 0.0210843 0)
(0.99324 0.027175 0)
(0.985508 0.0350899 0)
(0.976009 0.0453542 0)
(0.964768 0.058828 0)
(0.951438 0.076036 0)
(0.937693 0.0994355 0)
(0.92252 0.12633 0)
(1.00005 0.000437505 0)
(1.00041 0.00121492 0)
(1.00106 0.00175756 0)
(1.00184 0.00208801 0)
(1.00264 0.00231709 0)
(1.00346 0.00249112 0)
(1.00431 0.0026025 0)
(1.00518 0.0026552 0)
(1.00604 0.0026687 0)
(1.0069 0.00265708 0)
(1.00773 0.00262633 0)
(1.00855 0.00258078 0)
(1.00935 0.00252511 0)
(1.01013 0.00246324 0)
(1.01088 0.00239792 0)
(1.01161 0.00233127 0)
(1.01232 0.00226515 0)
(1.01301 0.00220115 0)
(1.01367 0.00214043 0)
(1.01432 0.00208358 0)
(1.01494 0.00203051 0)
(1.01555 0.00198046 0)
(1.01615 0.00193223 0)
(1.01673 0.00188449 0)
(1.01729 0.00183612 0)
(1.01784 0.00178653 0)
(1.01836 0.00173586 0)
(1.01886 0.00168506 0)
(1.01934 0.00163574 0)
(1.01979 0.00158977 0)
(1.02022 0.00154855 0)
(1.02062 0.0015124 0)
(1.02098 0.00148014 0)
(1.0213 0.00144943 0)
(1.02157 0.00141807 0)
(1.02178 0.0013858 0)
(1.02192 0.00135619 0)
(1.02198 0.00133794 0)
(1.02196 0.001345 0)
(1.02185 0.00139574 0)
(1.02164 0.00151144 0)
(1.02134 0.001715 0)
(1.02093 0.00203055 0)
(1.02039 0.00248421 0)
(1.01969 0.00310633 0)
(1.01881 0.00393464 0)
(1.01769 0.00501822 0)
(1.01626 0.00642202 0)
(1.01445 0.00823206 0)
(1.01214 0.0105615 0)
(1.0092 0.0135588 0)
(1.00549 0.0174173 0)
(1.00082 0.02239 0)
(0.994966 0.0288028 0)
(0.987742 0.0370917 0)
(0.97891 0.0477756 0)
(0.968509 0.0616526 0)
(0.956309 0.0792567 0)
(0.943834 0.102613 0)
(0.930406 0.129634 0)
(1.00004 0.000387748 0)
(1.00037 0.00108678 0)
(1.00097 0.00159293 0)
(1.00172 0.00191025 0)
(1.0025 0.00212708 0)
(1.0033 0.00229005 0)
(1.00413 0.00239672 0)
(1.00499 0.00244923 0)
(1.00585 0.00246409 0)
(1.0067 0.00245492 0)
(1.00753 0.00242788 0)
(1.00835 0.00238693 0)
(1.00914 0.00233633 0)
(1.00992 0.00227977 0)
(1.01067 0.00221991 0)
(1.0114 0.00215875 0)
(1.01211 0.002098 0)
(1.01279 0.00203913 0)
(1.01346 0.00198321 0)
(1.0141 0.00193079 0)
(1.01473 0.00188181 0)
(1.01534 0.00183562 0)
(1.01594 0.00179119 0)
(1.01652 0.00174738 0)
(1.01708 0.00170323 0)
(1.01763 0.00165826 0)
(1.01815 0.00161264 0)
(1.01865 0.00156729 0)
(1.01913 0.00152376 0)
(1.01959 0.00148391 0)
(1.02002 0.00144929 0)
(1.02042 0.00142054 0)
(1.02079 0.00139695 0)
(1.02112 0.00137672 0)
(1.02141 0.00135806 0)
(1.02164 0.00134087 0)
(1.0218 0.00132857 0)
(1.02189 0.00132945 0)
(1.0219 0.00135701 0)
(1.02182 0.00142935 0)
(1.02165 0.00156787 0)
(1.02139 0.00179615 0)
(1.02101 0.00213957 0)
(1.02052 0.00262607 0)
(1.01987 0.00328831 0)
(1.01905 0.00416683 0)
(1.018 0.00531397 0)
(1.01666 0.00679857 0)
(1.01496 0.00871114 0)
(1.01279 0.0111702 0)
(1.01005 0.0143302 0)
(1.00658 0.018391 0)
(1.00222 0.0236113 0)
(0.996771 0.0303212 0)
(0.990065 0.0389522 0)
(0.981903 0.0500141 0)
(0.972335 0.0642474 0)
(0.96122 0.0821774 0)
(0.94995 0.105472 0)
(0.938078 0.132461 0)
(1.00004 0.000343367 0)
(1.00034 0.000969431 0)
(1.00089 0.00143664 0)
(1.00161 0.00173754 0)
(1.00237 0.00194143 0)
(1.00316 0.00209294 0)
(1.00398 0.00219384 0)
(1.00483 0.00224529 0)
(1.00568 0.00226106 0)
(1.00652 0.00225401 0)
(1.00735 0.00223034 0)
(1.00816 0.00219372 0)
(1.00896 0.00214798 0)
(1.00973 0.00209658 0)
(1.01048 0.00204205 0)
(1.01121 0.00198626 0)
(1.01192 0.00193079 0)
(1.01261 0.00187698 0)
(1.01327 0.00182583 0)
(1.01392 0.00177783 0)
(1.01455 0.00173295 0)
(1.01516 0.00169066 0)
(1.01575 0.00165006 0)
(1.01633 0.00161019 0)
(1.0169 0.00157025 0)
(1.01744 0.00152984 0)
(1.01797 0.00148919 0)
(1.01847 0.00144916 0)
(1.01895 0.00141127 0)
(1.01941 0.00137736 0)
(1.01985 0.00134909 0)
(1.02025 0.00132734 0)
(1.02063 0.00131183 0)
(1.02097 0.00130127 0)
(1.02127 0.0012943 0)
(1.02151 0.00129107 0)
(1.0217 0.00129497 0)
(1.02182 0.00131401 0)
(1.02185 0.00136132 0)
(1.02181 0.00145471 0)
(1.02167 0.00161562 0)
(1.02144 0.00186814 0)
(1.02111 0.00223868 0)
(1.02066 0.00275681 0)
(1.02006 0.00345729 0)
(1.0193 0.00438322 0)
(1.01832 0.00559004 0)
(1.01708 0.00715017 0)
(1.0155 0.00915837 0)
(1.01349 0.0117381 0)
(1.01094 0.0150491 0)
(1.00772 0.019297 0)
(1.00368 0.0247456 0)
(0.998648 0.0317276 0)
(0.992469 0.0406697 0)
(0.984978 0.0520706 0)
(0.976235 0.0666173 0)
(0.966162 0.0848148 0)
(0.956032 0.108033 0)
(0.945546 0.134892 0)
(1.00003 0.000303252 0)
(1.00031 0.000861129 0)
(1.00083 0.00128796 0)
(1.00151 0.0015696 0)
(1.00226 0.00175971 0)
(1.00303 0.00189942 0)
(1.00385 0.00199369 0)
(1.00468 0.00204328 0)
(1.00553 0.00205951 0)
(1.00636 0.00205424 0)
(1.00719 0.00203363 0)
(1.008 0.00200108 0)
(1.00879 0.00196002 0)
(1.00956 0.00191363 0)
(1.01031 0.00186431 0)
(1.01104 0.00181379 0)
(1.01175 0.00176352 0)
(1.01244 0.00171472 0)
(1.0131 0.00166829 0)
(1.01375 0.0016247 0)
(1.01438 0.00158394 0)
(1.01499 0.00154556 0)
(1.01559 0.00150882 0)
(1.01617 0.00147291 0)
(1.01673 0.00143715 0)
(1.01728 0.00140126 0)
(1.01781 0.00136547 0)
(1.01831 0.00133066 0)
(1.0188 0.00129827 0)
(1.01926 0.00127012 0)
(1.01969 0.00124795 0)
(1.0201 0.00123284 0)
(1.02049 0.00122488 0)
(1.02083 0.00122327 0)
(1.02114 0.0012271 0)
(1.02141 0.00123683 0)
(1.02161 0.00125591 0)
(1.02175 0.00129219 0)
(1.02182 0.00135847 0)
(1.0218 0.00147228 0)
(1.0217 0.001655 0)
(1.02151 0.0019311 0)
(1.02121 0.00232783 0)
(1.0208 0.00287617 0)
(1.02026 0.00361277 0)
(1.01956 0.00458311 0)
(1.01866 0.0058455 0)
(1.01752 0.00747566 0)
(1.01606 0.00957228 0)
(1.01421 0.0122632 0)
(1.01186 0.0157132 0)
(1.00891 0.0201329 0)
(1.0052 0.0257903 0)
(1.00059 0.0330199 0)
(0.994947 0.042243 0)
(0.988127 0.0539462 0)
(0.980199 0.0687677 0)
(0.971126 0.0871843 0)
(0.962075 0.110318 0)
(0.952825 0.13699 0)
(1.00003 0.000266551 0)
(1.00029 0.000760403 0)
(1.00078 0.00114609 0)
(1.00143 0.00140613 0)
(1.00216 0.00158152 0)
(1.00293 0.00170913 0)
(1.00373 0.00179607 0)
(1.00456 0.00184306 0)
(1.00539 0.0018593 0)
(1.00622 0.00185551 0)
(1.00704 0.00183768 0)
(1.00785 0.00180898 0)
(1.00864 0.00177242 0)
(1.00942 0.00173091 0)
(1.01017 0.00168669 0)
(1.0109 0.00164134 0)
(1.0116 0.00159619 0)
(1.01229 0.00155233 0)
(1.01296 0.00151059 0)
(1.01361 0.0014714 0)
(1.01424 0.00143477 0)
(1.01485 0.00140033 0)
(1.01545 0.00136747 0)
(1.01603 0.00133551 0)
(1.01659 0.00130392 0)
(1.01714 0.00127249 0)
(1.01767 0.00124149 0)
(1.01817 0.00121178 0)
(1.01866 0.00118475 0)
(1.01912 0.0011622 0)
(1.01956 0.00114588 0)
(1.01997 0.00113708 0)
(1.02036 0.0011362 0)
(1.02072 0.00114289 0)
(1.02104 0.00115672 0)
(1.02132 0.0011785 0)
(1.02154 0.00121184 0)
(1.0217 0.00126447 0)
(1.0218 0.00134893 0)
(1.02181 0.00148244 0)
(1.02174 0.00168629 0)
(1.02158 0.00198514 0)
(1.02132 0.00240695 0)
(1.02096 0.00298389 0)
(1.02047 0.00375431 0)
(1.01984 0.00476588 0)
(1.01902 0.00607949 0)
(1.01798 0.00777397 0)
(1.01665 0.00995153 0)
(1.01496 0.0127441 0)
(1.01282 0.0163208 0)
(1.01014 0.0208967 0)
(1.00677 0.0267433 0)
(1.0026 0.0341963 0)
(0.997491 0.0436712 0)
(0.991342 0.0556426 0)
(0.984216 0.0707038 0)
(0.976107 0.0893002 0)
(0.968074 0.112347 0)
(0.959933 0.138805 0)
(1.00003 0.000232601 0)
(1.00027 0.000666002 0)
(1.00073 0.00101025 0)
(1.00137 0.00124677 0)
(1.00208 0.00140651 0)
(1.00283 0.00152173 0)
(1.00362 0.00160077 0)
(1.00444 0.00164449 0)
(1.00527 0.00166031 0)
(1.0061 0.00165773 0)
(1.00692 0.00164243 0)
(1.00773 0.00161736 0)
(1.00852 0.00158514 0)
(1.00929 0.0015484 0)
(1.01004 0.00150916 0)
(1.01077 0.00146891 0)
(1.01147 0.0014288 0)
(1.01216 0.00138984 0)
(1.01283 0.00135275 0)
(1.01348 0.00131795 0)
(1.01411 0.00128544 0)
(1.01472 0.00125496 0)
(1.01532 0.00122599 0)
(1.0159 0.00119799 0)
(1.01647 0.00117054 0)
(1.01701 0.00114352 0)
(1.01754 0.00111724 0)
(1.01805 0.00109252 0)
(1.01854 0.00107073 0)
(1.019 0.0010536 0)
(1.01944 0.00104292 0)
(1.01986 0.00104011 0)
(1.02026 0.00104588 0)
(1.02062 0.0010603 0)
(1.02095 0.0010834 0)
(1.02124 0.00111641 0)
(1.02149 0.00116312 0)
(1.02167 0.00123125 0)
(1.02178 0.00133309 0)
(1.02182 0.00148555 0)
(1.02178 0.00170972 0)
(1.02166 0.00203037 0)
(1.02144 0.00247599 0)
(1.02112 0.00307976 0)
(1.02069 0.00388154 0)
(1.02012 0.00493095 0)
(1.01939 0.00629127 0)
(1.01845 0.00804412 0)
(1.01725 0.0102949 0)
(1.01574 0.0131792 0)
(1.01382 0.0168701 0)
(1.01141 0.0215864 0)
(1.00839 0.0276026 0)
(1.00465 0.035255 0)
(1.00009 0.0449538 0)
(0.994613 0.0571612 0)
(0.98828 0.072431 0)
(0.981098 0.0911755 0)
(0.97403 0.114138 0)
(0.96689 0.140378 0)
(1.00003 0.000200873 0)
(1.00025 0.000576863 0)
(1.0007 0.000879685 0)
(1.00131 0.00109115 0)
(1.00201 0.00123434 0)
(1.00275 0.00133688 0)
(1.00354 0.00140755 0)
(1.00435 0.00144742 0)
(1.00517 0.00146242 0)
(1.006 0.00146079 0)
(1.00681 0.00144782 0)
(1.00762 0.00142618 0)
(1.0084 0.00139815 0)
(1.00917 0.00136606 0)
(1.00992 0.00133173 0)
(1.01065 0.00129648 0)
(1.01136 0.00126136 0)
(1.01205 0.00122724 0)
(1.01272 0.00119478 0)
(1.01337 0.00116434 0)
(1.014 0.00113598 0)
(1.01461 0.00110946 0)
(1.01521 0.00108439 0)
(1.01579 0.00106035 0)
(1.01636 0.00103702 0)
(1.01691 0.00101436 0)
(1.01743 0.000992714 0)
(1.01794 0.000972892 0)
(1.01843 0.000956206 0)
(1.0189 0.000944341 0)
(1.01935 0.00093909 0)
(1.01977 0.000941985 0)
(1.02017 0.000954005 0)
(1.02054 0.000975621 0)
(1.02088 0.00100735 0)
(1.02118 0.00105083 0)
(1.02144 0.00111011 0)
(1.02164 0.00119292 0)
(1.02178 0.00131132 0)
(1.02185 0.00148191 0)
(1.02184 0.00172552 0)
(1.02174 0.00206689 0)
(1.02157 0.0025349 0)
(1.02129 0.00316358 0)
(1.02092 0.00399409 0)
(1.02042 0.00507781 0)
(1.01977 0.00648015 0)
(1.01894 0.00828525 0)
(1.01788 0.0106014 0)
(1.01654 0.0135674 0)
(1.01484 0.0173596 0)
(1.01271 0.0222004 0)
(1.01005 0.0283665 0)
(1.00676 0.0361949 0)
(1.00275 0.0460903 0)
(0.997934 0.0585038 0)
(0.992382 0.0739541 0)
(0.986097 0.0928219 0)
(0.979945 0.115707 0)
(0.973714 0.14174 0)
(1.00003 0.000170942 0)
(1.00024 0.000492074 0)
(1.00067 0.000753655 0)
(1.00126 0.00093886 0)
(1.00195 0.00106468 0)
(1.00268 0.00115425 0)
(1.00346 0.00121619 0)
(1.00427 0.0012517 0)
(1.00509 0.0012655 0)
(1.00591 0.0012646 0)
(1.00672 0.00125376 0)
(1.00752 0.00123538 0)
(1.00831 0.00121143 0)
(1.00908 0.00118388 0)
(1.00983 0.00115437 0)
(1.01056 0.00112406 0)
(1.01126 0.00109387 0)
(1.01195 0.00106455 0)
(1.01262 0.00103669 0)
(1.01327 0.00101061 0)
(1.0139 0.000986375 0)
(1.01452 0.000963828 0)
(1.01512 0.000942669 0)
(1.0157 0.000922579 0)
(1.01626 0.000903348 0)
(1.01681 0.000885005 0)
(1.01734 0.000867922 0)
(1.01785 0.000852903 0)
(1.01834 0.000841205 0)
(1.01881 0.000834455 0)
(1.01926 0.000834434 0)
(1.01969 0.000842764 0)
(1.02009 0.000860667 0)
(1.02047 0.000889002 0)
(1.02082 0.000928761 0)
(1.02114 0.000982014 0)
(1.02141 0.00105311 0)
(1.02163 0.00114979 0)
(1.02179 0.00128394 0)
(1.02188 0.00147181 0)
(1.0219 0.00173387 0)
(1.02184 0.00209479 0)
(1.0217 0.00258367 0)
(1.02147 0.0032352 0)
(1.02115 0.00409169 0)
(1.02072 0.00520603 0)
(1.02016 0.00664554 0)
(1.01944 0.00849658 0)
(1.01852 0.01087 0)
(1.01736 0.0139073 0)
(1.01589 0.017788 0)
(1.01405 0.0227372 0)
(1.01175 0.0290336 0)
(1.00891 0.0370146 0)
(1.00545 0.0470805 0)
(1.0013 0.0596718 0)
(0.996518 0.0752777 0)
(0.991102 0.0942494 0)
(0.985824 0.117069 0)
(0.980426 0.142918 0)
(1.00003 0.000142455 0)
(1.00023 0.000410845 0)
(1.00064 0.000631467 0)
(1.00122 0.000789479 0)
(1.0019 0.000897203 0)
(1.00263 0.000973534 0)
(1.0034 0.00102642 0)
(1.0042 0.00105716 0)
(1.00501 0.00106944 0)
(1.00583 0.00106906 0)
(1.00664 0.00106019 0)
(1.00744 0.00104493 0)
(1.00823 0.00102492 0)
(1.009 0.00100183 0)
(1.00975 0.000977072 0)
(1.01047 0.000951646 0)
(1.01118 0.00092633 0)
(1.01187 0.000901778 0)
(1.01254 0.000878487 0)
(1.01319 0.000856752 0)
(1.01382 0.000836649 0)
(1.01444 0.000818078 0)
(1.01504 0.000800828 0)
(1.01562 0.000784682 0)
(1.01619 0.000769524 0)
(1.01674 0.000755452 0)
(1.01727 0.000742869 0)
(1.01778 0.000732564 0)
(1.01827 0.00072574 0)
(1.01874 0.000723963 0)
(1.01919 0.000728985 0)
(1.01962 0.000742501 0)
(1.02003 0.00076595 0)
(1.02042 0.000800566 0)
(1.02078 0.000847807 0)
(1.0211 0.000910196 0)
(1.02139 0.000992385 0)
(1.02162 0.00110218 0)
(1.0218 0.00125126 0)
(1.02192 0.0014555 0)
(1.02196 0.001735 0)
(1.02193 0.00211419 0)
(1.02183 0.00262229 0)
(1.02165 0.0032945 0)
(1.02139 0.00417408 0)
(1.02103 0.00531523 0)
(1.02056 0.00678693 0)
(1.01995 0.00867746 0)
(1.01918 0.0110999 0)
(1.0182 0.0141981 0)
(1.01696 0.0181541 0)
(1.01541 0.0231954 0)
(1.01348 0.0296027 0)
(1.01109 0.0377134 0)
(1.00819 0.047924 0)
(1.0047 0.0606667 0)
(1.00068 0.0764056 0)
(0.996112 0.0954669 0)
(0.991672 0.118235 0)
(0.987043 0.143931 0)
(1.00002 0.000115114 0)
(1.00022 0.000332485 0)
(1.00062 0.000512461 0)
(1.00119 0.000642573 0)
(1.00185 0.000731573 0)
(1.00258 0.000794413 0)
(1.00334 0.000838011 0)
(1.00414 0.000863632 0)
(1.00495 0.000874097 0)
(1.00577 0.000874072 0)
(1.00658 0.000867036 0)
(1.00738 0.00085477 0)
(1.00816 0.000838599 0)
(1.00893 0.000819897 0)
(1.00968 0.000799828 0)
(1.01041 0.000779231 0)
(1.01112 0.00075875 0)
(1.0118 0.000738929 0)
(1.01247 0.000720188 0)
(1.01312 0.000702786 0)
(1.01376 0.000686811 0)
(1.01437 0.000672216 0)
(1.01497 0.000658873 0)
(1.01556 0.00064666 0)
(1.01612 0.000635551 0)
(1.01667 0.000625708 0)
(1.0172 0.000617563 0)
(1.01772 0.000611888 0)
(1.01821 0.000609833 0)
(1.01869 0.000612894 0)
(1.01914 0.000622785 0)
(1.01957 0.000641255 0)
(1.01999 0.000669942 0)
(1.02038 0.000710437 0)
(1.02074 0.000764662 0)
(1.02108 0.000835594 0)
(1.02138 0.000928203 0)
(1.02163 0.00105036 0)
(1.02182 0.00121355 0)
(1.02196 0.00143325 0)
(1.02203 0.00172909 0)
(1.02204 0.00212521 0)
(1.02197 0.00265079 0)
(1.02184 0.00334141 0)
(1.02163 0.00424108 0)
(1.02135 0.00540511 0)
(1.02097 0.00690388 0)
(1.02047 0.00882734 0)
(1.01985 0.0112903 0)
(1.01905 0.0144388 0)
(1.01805 0.0184569 0)
(1.0168 0.0235742 0)
(1.01523 0.0300727 0)
(1.0133 0.0382903 0)
(1.01096 0.0486207 0)
(1.00813 0.0614896 0)
(1.00487 0.0773413 0)
(1.00113 0.0964814 0)
(0.997496 0.119217 0)
(0.993584 0.144798 0)
(1.00002 8.86632e-05 0)
(1.00022 0.000256377 0)
(1.00061 0.00039601 0)
(1.00116 0.000497699 0)
(1.00182 0.000567462 0)
(1.00254 0.000616594 0)
(1.0033 0.000650712 0)
(1.0041 0.000670938 0)