/*--------------------------------*- C++ -*----------------------------------*\
| =========                 |                                                 |
| \\      /  F ield         | OpenFOAM: The Open Source CFD Toolbox           |
|  \\    /   O peration     | Version:  2.4.0                                 |
|   \\  /    A nd           | Web:      www.OpenFOAM.org                      |
|    \\/     M anipulation  |                                                 |
\*---------------------------------------------------------------------------*/
FoamFile
{
    version     2.0;
    format      ascii;
    class       volVectorField;
    location    "1.37";
    object      U_0;
}
// * * * * * * * * * * * * * * * * * * * * * * * * * * * * * * * * * * * * * //

dimensions      [0 1 -1 0 0 0 0];

internalField   nonuniform List<vector> 
2320
(
(0.8419 -0.00680111 0)
(1.25841 0.0196213 0)
(0.626509 -0.022138 0)
(1.52936 0.0198887 0)
(0.443931 0.00716931 0)
(1.40262 -0.0114755 0)
(0.679702 0.0378204 0)
(1.11181 -0.0435034 0)
(0.861839 0.0246938 0)
(1.13646 -0.0425201 0)
(0.868782 0.026013 0)
(1.05804 -0.042813 0)
(0.933299 0.00306238 0)
(1.18593 0.0218515 0)
(0.597703 -0.0499536 0)
(1.57171 0.0719073 0)
(0.276964 -0.0902441 0)
(1.71014 0.0441823 0)
(0.512504 0.106981 0)
(1.14137 -0.187611 0)
(1.18774 -0.0487428 0)
(0.950268 0.0888426 0)
(1.00683 -0.122457 0)
(1.12808 0.0607415 0)
(1.01555 0.0767631 0)
(0.934388 -0.119163 0)
(1.13519 0.108123 0)
(0.847564 -0.0477398 0)
(1.15927 -0.0426313 0)
(0.950143 0.0328363 0)
(1.04284 0.020024 0)
(0.94116 0.00532158 0)
(0.85891 -0.0570521 0)
(1.16656 0.122548 0)
(0.635301 -0.141577 0)
(1.32654 0.0706819 0)
(0.807376 0.0416495 0)
(0.932562 -0.182686 0)
(1.18194 0.178874 0)
(1.00101 -0.0603941 0)
(1.25557 -0.0714011 0)
(0.785619 0.11754 0)
(1.21607 -0.106819 0)
(0.676578 0.0254177 0)
(1.30388 0.0913985 0)
(0.65334 -0.0869212 0)
(1.22476 0.084836 0)
(0.794485 -0.04455 0)
(1.16998 -0.0155052 0)
(0.808496 0.00841351 0)
(1.14837 0.036973 0)
(0.881494 0.0428624 0)
(0.953645 -0.0906684 0)
(1.03295 0.113537 0)
(0.994869 -0.0932118 0)
(0.880733 -0.00685907 0)
(1.1421 0.113132 0)
(0.850543 -0.186389 0)
(1.03182 0.0917647 0)
(1.19276 -0.0282562 0)
(1.13141 -0.06945 0)
(0.751699 0.106686 0)
(1.25882 -0.0468187 0)
(0.584079 0.00428061 0)
(1.3336 0.0893418 0)
(0.677103 -0.071042 0)
(1.25971 0.056942 0)
(0.77396 -0.0331048 0)
(1.19313 -0.0378864 0)
(0.820319 0.0308553 0)
(1.06133 -0.01315 0)
(1.04664 0.100341 0)
(0.877751 -0.136547 0)
(1.03637 0.0961621 0)
(1.072 -0.0421538 0)
(0.864003 -0.0329356 0)
(1.03724 0.0698905 0)
(1.09057 -0.120132 0)
(0.874799 0.0457036 0)
(1.16368 -0.0696524 0)
(1.04111 -0.0217556 0)
(0.85344 0.0587509 0)
(1.17965 -0.0216132 0)
(0.731534 -0.0200102 0)
(1.22899 0.0572 0)
(0.808696 -0.0570965 0)
(1.15922 0.0376957 0)
(0.920192 -0.0263614 0)
(1.05922 -0.0321073 0)
(0.955358 0.0694284 0)
(1.01784 -0.074327 0)
(1.02282 0.126106 0)
(1.05957 -0.0727273 0)
(0.905318 -0.000387933 0)
(1.15289 0.00195992 0)
(0.926367 -0.00645736 0)
(1.07154 0.0223142 0)
(0.961367 -0.118979 0)
(0.996254 0.0459452 0)
(1.02919 -0.0412348 0)
(0.970743 -0.0198249 0)
(1.01875 0.033647 0)
(1.04895 0.0147008 0)
(0.944903 -0.0257239 0)
(1.04712 0.0520212 0)
(0.996177 -0.0402429 0)
(0.957124 0.00621513 0)
(1.09966 0.0113264 0)
(0.863178 -0.0471195 0)
(1.10317 0.0430707 0)
(0.958538 -0.0381616 0)
(1.03945 0.0839257 0)
(1.03623 -0.0571948 0)
(0.95878 0.0288991 0)
(1.07092 -0.0303875 0)
(0.921256 -0.00757748 0)
(1.10194 0.0588059 0)
(0.91111 -0.102012 0)
(1.01283 0.0154015 0)
(0.988548 -0.00533625 0)
(1.01055 -0.0180399 0)
(0.973066 0.0224612 0)
(1.06234 0.0212697 0)
(0.967859 -0.0257797 0)
(1.03497 0.0377218 0)
(1.02702 -0.0172111 0)
(0.980464 -0.00586343 0)
(1.03424 0.0125165 0)
(0.959735 -0.0275958 0)
(1.0403 0.0147848 0)
(0.972231 -0.0340222 0)
(1.05118 0.0725288 0)
(0.988498 -0.0286956 0)
(1.05343 -0.030417 0)
(0.997024 0.0308704 0)
(1.03024 -0.0310768 0)
(0.972108 0.034189 0)
(1.08883 -0.064604 0)
(0.938702 0.00309995 0)
(1.06617 -0.042433 0)
(1.02424 -0.0125924 0)
(0.950196 0.0124696 0)
(1.06633 0.0179975 0)
(0.955551 -0.0186301 0)
(1.03407 0.0269685 0)
(1.00845 -0.0198323 0)
(1.01015 0.00823361 0)
(0.981661 0.0142764 0)
(1.04146 -0.039164 0)
(0.978725 0.0279613 0)
(1.02658 -0.0395198 0)
(0.976204 0.0680618 0)
(1.04234 -0.0476507 0)
(1.00202 0.00928717 0)
(1.01494 -0.00329702 0)
(0.999148 -0.00802799 0)
(0.994613 0.0391433 0)
(1.01168 -0.0853314 0)
(1.0338 0.00817213 0)
(0.963023 0.00644573 0)
(1.00794 -0.0069138 0)
(0.991018 0.00159577 0)
(1.01895 0.0214817 0)
(1.00435 -0.0145641 0)
(0.989397 0.0168731 0)
(1.05007 -0.0102184 0)
(0.946159 0.01286 0)
(1.05062 -0.00793144 0)
(0.967923 -0.0199688 0)
(1.05377 0.0128747 0)
(0.945088 -0.0214879 0)
(1.03201 0.0570206 0)
(1.00994 -0.0299814 0)
(0.993881 -0.0216154 0)
(1.03656 0.0340755 0)
(0.969901 -0.0188475 0)
(0.997069 0.0180809 0)
(1.02957 -0.0705395 0)
(0.989384 0.014151 0)
(0.985132 -0.00252344 0)
(1.02067 -0.0133183 0)
(0.989186 0.00783854 0)
(1.007 0.0140677 0)
(1.02241 -0.00729017 0)
(0.976548 0.00812737 0)
(1.03686 -0.00374793 0)
(0.968621 0.0134254 0)
(1.01569 -0.00253816 0)
(0.997471 -0.035279 0)
(1.01913 0.0323104 0)
(0.968732 -0.0226483 0)
(1.02444 0.0269113 0)
(1.01831 -0.0190426 0)
(1.0165 -0.0159235 0)
(1.00545 0.0185938 0)
(1.01238 0.00664029 0)
(0.987271 0.00748232 0)
(1.0429 -0.0710488 0)
(0.97302 0.0157491 0)
(1.02345 0.0258738 0)
(0.992229 -0.0126115 0)
(1.0027 0.00889287 0)
(0.994145 0.00798539 0)
(1.01717 -0.00208194 0)
(0.984258 0.0115725 0)
(1.00529 -0.00847544 0)
(1.00016 0.0242876 0)
(0.989861 -0.0228297 0)
(1.02556 -0.0185474 0)
(0.971937 0.0237113 0)
(1.02374 -0.0186702 0)
(0.975122 0.0266704 0)
(1.05979 -0.0215522 0)
(0.956709 -0.0178446 0)
(1.05231 0.035177 0)
(0.94961 -0.00410028 0)
(1.0617 -0.00753876 0)
(0.978774 -0.0512474 0)
(0.98803 0.010147 0)
(0.988308 0.0243068 0)
(0.985331 -0.0103476 0)
(1.00942 0.00428924 0)
(1.00309 0.0105292 0)
(1.0028 -0.00476896 0)
(1.01758 0.0154671 0)
(0.979546 -0.0141741 0)
(1.0199 0.0225971 0)
(0.988194 -0.0165403 0)
(0.999276 -0.0238951 0)
(0.98732 0.029457 0)
(0.999161 -0.0182621 0)
(0.990228 0.00177938 0)
(1.03388 -0.00147854 0)
(0.976475 -0.0204298 0)
(1.00405 0.0276427 0)
(0.995767 0.00274611 0)
(1.0391 -0.0138344 0)
(0.986917 -0.0233393 0)
(0.965076 -0.00118039 0)
(0.993015 0.0205226 0)
(1.01679 -0.00951293 0)
(0.962348 -0.00242518 0)
(1.04073 0.0143888 0)
(0.954113 -0.00980796 0)
(1.05291 0.0217531 0)
(0.968492 -0.00849536 0)
(1.01909 0.0170958 0)
(1.01812 -0.00869458 0)
(0.978058 -0.0190307 0)
(1.00676 0.0219777 0)
(0.994806 -0.0168491 0)
(1.00207 0.00428178 0)
(1.00199 -0.0103776 0)
(1.01871 -0.00501847 0)
(0.943394 0.0252964 0)
(1.0609 -0.0171251 0)
(0.982231 -0.0104498 0)
(1.03527 -0.00520142 0)
(0.956423 -0.00234645 0)
(0.997545 -0.00572069 0)
(1.00658 0.00231451 0)
(0.980842 -0.0127337 0)
(1.0026 0.0189686 0)
(1.002 -0.0121255 0)
(0.993153 0.00872874 0)
(1.03363 0.00342989 0)
(0.964611 -0.00397537 0)
(1.07121 0.00699952 0)
(0.933252 -0.0206733 0)
(1.05655 0.0214791 0)
(0.954171 -0.0141957 0)
(1.04241 -0.0054815 0)
(0.982814 -0.00431629 0)
(1.02333 0.00311798 0)
(0.962687 0.0105758 0)
(1.04412 -0.0172665 0)
(1.0012 -0.00463438 0)
(0.983693 -0.00516467 0)
(1.0195 0.0108391 0)
(0.960282 -0.0134679 0)
(1.00742 -0.00121827 0)
(0.996414 -0.00515451 0)
(0.984601 0.0075944 0)
(1.02226 -0.00514861 0)
(0.975819 0.00553988 0)
(1.03446 0.00655965 0)
(0.968074 -0.005156 0)
(1.05125 0.00969198 0)
(0.953031 -0.0133577 0)
(1.03103 0.0109466 0)
(0.97896 -0.00764199 0)
(1.02224 -0.0137947 0)
(0.983028 0.00349293 0)
(1.01741 0.00187878 0)
(0.974648 0.0151029 0)
(1.03431 -0.0339052 0)
(0.992709 0.0156854 0)
(0.994369 -0.00933257 0)
(0.994441 0.00526408 0)
(1.00608 -0.00173256 0)
(0.999122 0.00294539 0)
(0.994635 -0.00694571 0)
(0.990504 0.00949395 0)
(1.01811 -0.00792411 0)
(0.976842 0.0018706 0)
(1.03186 0.00862292 0)
(0.976984 -0.0158975 0)
(1.03486 0.0193822 0)
(0.970343 -0.0142437 0)
(1.0261 0.0126437 0)
(0.981876 -0.0131339 0)
(1.02458 -0.00525778 0)
(0.978533 -0.0034632 0)
(1.00953 0.00943139 0)
(1.00364 -0.000781822 0)
(1.01309 -0.0228089 0)
(0.991376 0.0127833 0)
(0.994631 -0.0044079 0)
(0.981868 0.00593426 0)
(1.00208 0.000301723 0)
(1.00039 0.00476269 0)
(1.00158 -0.00660859 0)
(0.979449 -0.000461301 0)
(1.0382 0.000885034 0)
(0.954034 -0.000884274 0)
(1.04829 0.00643667 0)
(0.968138 -0.00848031 0)
(1.02581 0.0154033 0)
(0.978533 -0.0106339 0)
(1.02243 0.00642977 0)
(0.986051 -0.00834483 0)
(1.0182 -0.0110883 0)
(0.978383 0.0102836 0)
(1.00958 -0.00939085 0)
(1.00647 0.0116117 0)
(1.01403 -0.0265611 0)
(0.979102 0.0243757 0)
(1.00043 -0.0058871 0)
(0.975503 0.00519415 0)
(1.00237 -0.00347544 0)
(1.00093 0.00427898 0)
(0.99862 -0.00165664 0)
(0.992191 -0.00564692 0)
(1.01241 0.00440595 0)
(0.983325 -0.00260716 0)
(1.01535 0.00184633 0)
(0.996438 -0.00709235 0)
(0.996432 0.0180559 0)
(1.00892 -0.0163938 0)
(1.00078 0.0137135 0)
(1.00155 -0.0168248 0)
(1.00486 0.00463483 0)
(0.990573 -0.00593476 0)
(1.00181 0.00292553 0)
(1.01165 -0.0109705 0)
(0.997763 -0.00101927 0)
(0.983583 0.0132366 0)
(0.994239 0.000792145 0)
(0.985129 0.0058967 0)
(0.993236 -0.0073205 0)
(0.991877 0.00819505 0)
(1.01461 -0.00837389 0)
(0.984365 -0.00360648 0)
(1.01468 0.0036928 0)
(0.984321 -0.000232472 0)
(1.02099 -0.00226421 0)
(0.974508 0.00156429 0)
(1.0191 0.00846262 0)
(0.990975 -0.011845 0)
(1.00868 0.00987968 0)
(1.00147 -0.0119876 0)
(0.995413 -0.00262737 0)
(1.00068 0.00744688 0)
(0.991108 -0.0150843 0)
(1.00526 0.00810457 0)
(0.97024 -0.00839225 0)
(1.00217 0.0238762 0)
(0.983527 -0.00741594 0)
(1.00098 0.0112152 0)
(0.993609 -0.0159923 0)
(0.981037 0.00344694 0)
(1.04789 -0.00282052 0)
(0.947055 -0.00237762 0)
(1.04322 0.00318858 0)
(0.957002 -0.00348135 0)
(1.04159 0.00452546 0)
(0.955379 -0.00529307 0)
(1.03795 0.00938501 0)
(0.987366 -0.0108407 0)
(0.997126 0.0100068 0)
(1.0238 -0.0132735 0)
(0.945905 0.0106314 0)
(1.04226 -0.0104958 0)
(0.933997 0.0089644 0)
(1.03883 -0.00935194 0)
(0.919599 0.00949343 0)
(1.0544 -0.00196819 0)
(0.949558 0.00836907 0)
(1.07078 -0.00450565 0)
(0.944852 0.00108775 0)
(1.02439 0.0849707 0)
(0.797549 -0.0190117 0)
(1.09354 -0.0685419 0)
(0.737339 -0.058726 0)
(1.31627 0.0558791 0)
(0.610615 -0.0164727 0)
(1.3648 -0.0287516 0)
(0.557704 -0.048239 0)
(0.904374 0.0467583 0)
(0.90591 0.0108087 0)
(1.15314 0.0724952 0)
(0.635602 -0.037907 0)
(1.15671 -0.0121479 0)
(0.781152 0.00478573 0)
(1.27545 0.0411042 0)
(0.801563 0.00433239 0)
(1.02695 0.13376 0)
(0.870973 -0.114873 0)
(1.19976 0.0468265 0)
(1.01327 -0.0217667 0)
(1.10527 -0.0237073 0)
(0.961214 -0.0640065 0)
(1.16821 -0.047783 0)
(1.20509 0.0130013 0)
(0.904014 0.168709 0)
(1.20962 -0.0626845 0)
(0.858051 -0.0312897 0)
(1.26251 0.0228994 0)
(0.875604 -0.0118689 0)
(1.24942 -0.0261591 0)
(0.903026 -0.0859459 0)
(1.26063 0.014556 0)
(0.904184 0.109521 0)
(1.20665 -0.0480348 0)
(0.826794 -0.000527581 0)
(1.2165 -0.0124854 0)
(0.863167 -0.016884 0)
(1.18064 -0.0677283 0)
(0.839795 -0.0377291 0)
(1.20856 -0.0279827 0)
(1.04739 0.0502285 0)
(0.992444 -0.0101188 0)
(1.04963 -0.0566255 0)
(1.02316 0.0175006 0)
(1.05757 -0.0110801 0)
(0.991781 -0.0216029 0)
(1.03543 -0.101509 0)
(1.08111 -0.0390619 0)
(0.949921 0.0820988 0)
(1.09478 -0.0305685 0)
(1.02447 -0.0331337 0)
(1.00842 4.6125e-05 0)
(1.07599 -0.00717752 0)
(1.02799 -0.0454936 0)
(1.08612 -0.0783264 0)
(0.980785 -0.0419937 0)
(0.993595 0.0190437 0)
(1.04753 -0.0261546 0)
(1.01248 -0.0228546 0)
(1.00642 -0.00251113 0)
(1.00894 -0.0231617 0)
(1.04461 -0.0345916 0)
(1.0027 -0.0687839 0)
(1.04068 -0.0571843 0)
(0.980009 0.0211535 0)
(1.02751 -0.0260518 0)
(1.02426 -0.0244805 0)
(0.963044 0.0108303 0)
(1.04097 -0.0332392 0)
(1.00526 -0.0421531 0)
(1.03414 -0.0707952 0)
(1.01547 -0.0422684 0)
(0.947223 -0.0172488 0)
(1.07827 -0.0384009 0)
(0.96988 0.00274338 0)
(1.02187 -0.0100331 0)
(1.00033 -0.0380446 0)
(1.02608 -0.038655 0)
(1.01055 -0.0652742 0)
(1.02435 -0.0434249 0)
(1.02519 -0.0189713 0)
(0.972785 -0.027712 0)
(1.02347 -0.00108578 0)
(0.975637 -0.00205405 0)
(1.02134 -0.0355457 0)
(0.994251 -0.0513558 0)
(0.978182 -0.0608356 0)
(1.03524 -0.0401423 0)
(1.03813 -0.0196458 0)
(0.941929 -0.0287085 0)
(1.03422 -0.00372346 0)
(0.965119 -0.0069897 0)
(1.04268 -0.0453563 0)
(0.949729 -0.0186986 0)
(1.01543 -0.0867287 0)
(0.932847 -0.0315493 0)
(1.03751 0.00225003 0)
(0.95192 -0.0263719 0)
(1.00819 -0.00846213 0)
(1.01002 -0.01381 0)
(0.976484 -0.0222941 0)
(1.01307 -0.0402817 0)
(0.965329 -0.0521353 0)
(0.962357 -0.0566498 0)
(1.01535 -0.00144642 0)
(0.987078 -0.012694 0)
(0.977347 -0.0283534 0)
(1.02643 -0.000536034 0)
(0.955989 -0.0341275 0)
(1.03518 -0.0256085 0)
(0.925533 -0.048493 0)
(1.02214 -0.0617429 0)
(0.960384 -0.0100091 0)
(1.02501 -0.0120464 0)
(0.960701 -0.022239 0)
(1.01314 -0.0101527 0)
(0.957713 -0.0202793 0)
(1.02577 -0.0308525 0)
(0.940125 -0.0406545 0)
(0.989038 -0.0547215 0)
(0.973352 -0.0065669 0)
(1.00661 -0.01989 0)
(0.975938 -0.0148414 0)
(0.993701 -0.00711254 0)
(0.967755 -0.0294481 0)
(1.02457 -0.0225511 0)
(0.929203 -0.0278406 0)
(1.01396 -0.0564129 0)
(0.980152 -0.00424369 0)
(1.00915 -0.0208883 0)
(0.966175 -0.0137972 0)
(0.999232 -0.00974181 0)
(0.974224 -0.0333813 0)
(1.00347 -0.0177936 0)
(0.958728 -0.0318103 0)
(0.966237 -0.0356576 0)
(0.991755 -0.00213689 0)
(0.99362 -0.0205574 0)
(0.973539 -4.09199e-05 0)
(0.991068 -0.0151061 0)
(0.988323 -0.0258835 0)
(0.976502 -0.0144412 0)
(0.976086 -0.0103467 0)
(0.94684 -0.0317125 0)
(0.9905 0.00950718 0)
(0.987337 -0.0316822 0)
(0.979606 -0.0037926 0)
(0.997467 -0.0222414 0)
(0.975345 -0.0329069 0)
(0.968581 -0.0123128 0)
(0.973219 -0.00940917 0)
(0.919178 -0.00575306 0)
(1.06039 0.00195433 0)
(0.921333 -0.016401 0)
(1.00389 0.00778494 0)
(0.949164 -0.0206096 0)
(0.928636 -0.00768174 0)
(0.898394 -0.0130784 0)
(0.920331 0.0203318 0)
(0.834816 -0.00154756 0)
(1.47834 -0.0229356 0)
(0.838704 0.0498691 0)
(1.08608 -0.0286281 0)
(1.10066 -0.0684551 0)
(1.27099 -0.109979 0)
(1.46786 -0.0202627 0)
(1.27783 0.0177064 0)
(1.63007 0.00426233 0)
(1.21918 -0.052262 0)
(2.14126 -0.0992332 0)
(1.6307 -0.0473799 0)
(2.55106 -0.0981199 0)
(2.07101 -0.0505165 0)
(2.88018 -0.0531137 0)
(2.41808 -0.0407944 0)
(3.09988 -0.0266702 0)
(2.69902 -0.0363877 0)
(3.33499 -0.031103 0)
(2.88281 -0.02448 0)
(3.49568 -0.0226551 0)
(2.9014 0.00286574 0)
(3.48672 0.00860382 0)
(2.68988 0.0426243 0)
(3.23683 0.0256485 0)
(2.36109 0.0714406 0)
(2.82869 0.00820359 0)
(2.02066 0.102671 0)
(2.31288 0.0120812 0)
(1.18352 -0.131324 0)
(0.835858 0.154204 0)
(1.18633 -0.113873 0)
(1.19512 -0.0455595 0)
(1.25996 -0.063465 0)
(1.12049 0.0132494 0)
(1.39753 -0.0861245 0)
(1.53702 -0.00806633 0)
(1.55602 -0.16396 0)
(1.80101 -0.161582 0)
(1.83187 -0.104284 0)
(2.27216 -0.165609 0)
(2.16734 -0.0849024 0)
(2.72954 -0.134419 0)
(2.51902 -0.0740426 0)
(3.08172 -0.116208 0)
(2.87349 -0.0723504 0)
(3.31217 -0.0752451 0)
(3.00335 -0.032988 0)
(3.39227 -0.000774594 0)
(2.96929 0.0272114 0)
(3.29375 0.0742594 0)
(2.80003 0.121488 0)
(2.97802 0.0958945 0)
(2.53975 0.176903 0)
(2.54877 0.10231 0)
(2.21769 0.223338 0)
(2.18114 0.126941 0)
(1.14821 -0.052111 0)
(0.974579 0.0717935 0)
(1.24923 -0.176815 0)
(1.10506 -0.122941 0)
(1.35836 -0.0515011 0)
(1.21527 -0.0825686 0)
(1.53411 -0.190289 0)
(1.39084 -0.0875056 0)
(1.79955 -0.149009 0)
(1.63376 -0.290449 0)
(2.02512 -0.236769 0)
(2.12284 -0.312977 0)
(2.29787 -0.246652 0)
(2.64194 -0.253179 0)
(2.64735 -0.211944 0)
(3.02474 -0.207059 0)
(2.99289 -0.138301 0)
(3.2265 -0.102685 0)
(3.14026 -0.0450632 0)
(3.28238 -0.00958272 0)
(3.13178 0.0716453 0)
(3.15636 0.084376 0)
(3.0073 0.218083 0)
(2.88998 0.143695 0)
(2.70981 0.281023 0)
(2.56295 0.168253 0)
(2.30073 0.29697 0)
(2.14093 0.206762 0)
(0.962028 -0.0190156 0)
(1.31273 0.0718266 0)
(1.03095 -0.14599 0)
(1.28662 -0.128982 0)
(1.07568 -0.0987018 0)
(1.48368 -0.104479 0)
(1.31522 -0.151461 0)
(1.52356 -0.155657 0)
(1.72667 -0.252913 0)
(1.77586 -0.315906 0)
(2.01981 -0.307558 0)
(2.10482 -0.350555 0)
(2.35144 -0.316096 0)
(2.54876 -0.333398 0)
(2.70769 -0.255601 0)
(2.94758 -0.292522 0)
(3.06627 -0.161738 0)
(3.1458 -0.152976 0)
(3.24207 -0.0504731 0)
(3.18725 0.00451698 0)
(3.22234 0.10102 0)
(3.0644 0.139934 0)
(3.07511 0.267432 0)
(2.87323 0.245553 0)
(2.7411 0.345521 0)
(2.51683 0.312691 0)
(2.29185 0.401312 0)
(2.12525 0.340607 0)
(0.93205 -0.052198 0)
(1.26408 0.0102896 0)
(0.980197 -0.138488 0)
(1.30702 -0.168472 0)
(1.09804 -0.124644 0)
(1.40396 -0.204115 0)
(1.27616 -0.218126 0)
(1.55784 -0.281142 0)
(1.58564 -0.286195 0)
(1.7797 -0.429144 0)
(1.95555 -0.40099 0)
(2.12609 -0.486088 0)
(2.38619 -0.45712 0)
(2.52549 -0.444979 0)
(2.79543 -0.392881 0)
(2.96313 -0.402092 0)
(3.11944 -0.215666 0)
(3.2051 -0.204476 0)
(3.30506 -0.0446662 0)
(3.24562 -0.00424911 0)
(3.28035 0.147132 0)
(3.14724 0.169514 0)
(3.11606 0.315354 0)
(2.94286 0.319954 0)
(2.74702 0.449969 0)
(2.57231 0.415566 0)
(2.24853 0.473417 0)
(2.1211 0.399215 0)
(1.06904 -0.0388598 0)
(1.12814 0.0226827 0)
(1.13331 -0.150261 0)
(1.17937 -0.214113 0)
(1.14275 -0.145181 0)
(1.31614 -0.195212 0)
(1.3264 -0.24004 0)
(1.4679 -0.305157 0)
(1.57742 -0.3871 0)
(1.77449 -0.491135 0)
(1.92307 -0.501798 0)
(2.13934 -0.561561 0)
(2.35299 -0.526834 0)
(2.55146 -0.540534 0)
(2.82757 -0.473047 0)
(2.96659 -0.463485 0)
(3.14351 -0.278416 0)
(3.221 -0.250317 0)
(3.31196 -0.0694291 0)
(3.27268 0.0132874 0)
(3.29219 0.15092 0)
(3.21396 0.224028 0)
(3.09614 0.373701 0)
(3.00141 0.41194 0)
(2.73351 0.520853 0)
(2.63738 0.55431 0)
(2.24923 0.606602 0)
(2.12307 0.505082 0)
(1.09501 -0.0679703 0)
(1.07107 -0.0285951 0)
(1.19329 -0.144733 0)
(1.08668 -0.170503 0)
(1.13936 -0.195266 0)
(1.243 -0.27027 0)
(1.27898 -0.306128 0)
(1.43946 -0.384405 0)
(1.52569 -0.444031 0)
(1.73194 -0.577224 0)
(1.88649 -0.61091 0)
(2.10689 -0.673173 0)
(2.36522 -0.687807 0)
(2.5777 -0.687426 0)
(2.82315 -0.611866 0)
(2.94322 -0.569285 0)
(3.10742 -0.357342 0)
(3.16313 -0.282921 0)
(3.20844 -0.0738195 0)
(3.23151 0.0111196 0)
(3.19615 0.185224 0)
(3.18142 0.280576 0)
(3.06829 0.417529 0)
(3.01067 0.512706 0)
(2.69331 0.612716 0)
(2.62158 0.665476 0)
(2.2499 0.705988 0)
(2.12365 0.595008 0)
(0.979622 -0.0687545 0)
(1.10427 -0.0530968 0)
(1.0697 -0.139439 0)
(1.0949 -0.201819 0)
(1.13177 -0.220906 0)
(1.181 -0.264376 0)
(1.25129 -0.353483 0)
(1.37252 -0.433478 0)
(1.46795 -0.558034 0)
(1.70054 -0.656527 0)
(1.84926 -0.724485 0)
(2.12683 -0.793522 0)
(2.35548 -0.797723 0)
(2.53364 -0.782106 0)
(2.67988 -0.67688 0)
(2.76678 -0.607059 0)
(2.87008 -0.405375 0)
(2.91087 -0.298752 0)
(2.94496 -0.10962 0)
(2.97863 0.0131298 0)
(2.93346 0.178699 0)
(2.99205 0.299171 0)
(2.888 0.441484 0)
(2.91908 0.592035 0)
(2.65686 0.699096 0)
(2.59455 0.766141 0)
(2.27265 0.825486 0)
(2.11165 0.731767 0)
(0.998395 -0.0840106 0)
(1.04152 -0.085692 0)
(1.0753 -0.129061 0)
(1.08834 -0.205522 0)
(1.06947 -0.237807 0)
(1.1832 -0.324765 0)
(1.21335 -0.388184 0)
(1.34293 -0.494307 0)
(1.43582 -0.605231 0)
(1.64036 -0.744464 0)
(1.85481 -0.869438 0)
(2.08257 -0.927284 0)
(2.20804 -0.916487 0)
(2.28967 -0.841357 0)
(2.38773 -0.742522 0)
(2.41926 -0.642648 0)
(2.47209 -0.429619 0)
(2.50228 -0.296042 0)
(2.48995 -0.108344 0)
(2.55487 0.0295513 0)
(2.4729 0.192499 0)
(2.5976 0.313597 0)
(2.48127 0.4638 0)
(2.59338 0.619945 0)
(2.42895 0.766189 0)
(2.41867 0.850653 0)
(2.20934 0.898085 0)
(2.07656 0.825112 0)
(0.982985 -0.0764278 0)
(1.0167 -0.0986634 0)
(1.05155 -0.154572 0)
(1.05078 -0.196943 0)
(1.06869 -0.263741 0)
(1.11015 -0.331872 0)
(1.16316 -0.434419 0)
(1.26684 -0.554965 0)
(1.35121 -0.703283 0)
(1.64386 -0.878385 0)
(1.78855 -0.984858 0)
(1.89488 -0.970729 0)
(1.9083 -0.912409 0)
(1.98877 -0.853365 0)
(1.97199 -0.743739 0)
(1.99654 -0.616957 0)
(2.01242 -0.434163 0)
(2.06389 -0.303459 0)
(2.04884 -0.126805 0)
(2.09327 0.0174621 0)
(2.05688 0.184723 0)
(2.13341 0.308466 0)
(2.06979 0.478542 0)
(2.15767 0.643996 0)
(2.08336 0.767114 0)
(2.14042 0.908541 0)
(1.96491 0.997865 0)
(1.92694 0.920313 0)
(0.964921 -0.0679261 0)
(1.00082 -0.129184 0)
(0.980387 -0.138709 0)
(1.07904 -0.21647 0)
(0.974644 -0.265975 0)
(1.11412 -0.375942 0)
(1.09299 -0.460971 0)
(1.186 -0.597011 0)
(1.37567 -0.800783 0)
(1.54704 -0.974827 0)
(1.55301 -1.00318 0)
(1.57506 -0.974848 0)
(1.61166 -0.95051 0)
(1.58242 -0.861128 0)
(1.58827 -0.750205 0)
(1.56843 -0.637365 0)
(1.5995 -0.480915 0)
(1.59054 -0.316348 0)
(1.57564 -0.119047 0)
(1.61075 0.0155465 0)
(1.59049 0.177347 0)
(1.65896 0.294995 0)
(1.63042 0.441054 0)
(1.70752 0.644534 0)
(1.63026 0.782661 0)
(1.73666 0.880251 0)
(1.73941 0.995638 0)
(1.64491 0.997358 0)
(1.05785 -0.0642241 0)
(0.911938 -0.106609 0)
(1.02111 -0.193647 0)
(0.977485 -0.189848 0)
(1.00942 -0.284691 0)
(1.05947 -0.388273 0)
(0.984968 -0.458376 0)
(1.18309 -0.707277 0)
(1.28629 -0.888094 0)
(1.29519 -0.980879 0)
(1.28031 -1.00122 0)
(1.30846 -0.986406 0)
(1.20885 -0.923305 0)
(1.17528 -0.839231 0)
(1.12505 -0.736507 0)
(1.06043 -0.611555 0)
(1.03547 -0.460457 0)
(1.00242 -0.301794 0)
(1.04648 -0.129853 0)
(1.05566 0.00642096 0)
(1.04035 0.181087 0)
(1.11512 0.322521 0)
(1.05281 0.45115 0)
(1.22142 0.624273 0)
(1.17294 0.778639 0)
(1.22664 0.898132 0)
(1.31189 0.999088 0)
(1.43654 0.97839 0)
(0.998442 -0.0635103 0)
(0.981931 -0.0970101 0)
(0.966384 -0.184571 0)
(0.923961 -0.193482 0)
(1.01157 -0.315783 0)
(0.890958 -0.348197 0)
(1.01025 -0.53009 0)
(1.10051 -0.73377 0)
(1.07369 -0.852606 0)
(1.07572 -0.992688 0)
(0.98301 -0.989621 0)
(0.902451 -0.929596 0)
(0.783918 -0.880961 0)
(0.709105 -0.808426 0)
(0.591449 -0.69561 0)
(0.491063 -0.557401 0)
(0.436131 -0.446686 0)
(0.403561 -0.320047 0)
(0.414479 -0.132898 0)
(0.428633 0.016964 0)
(0.430103 0.141776 0)
(0.546635 0.273677 0)
(0.458462 0.430731 0)
(0.60551 0.608249 0)
(0.672467 0.732164 0)
(0.746999 0.806721 0)
(0.845849 0.977405 0)
(0.937472 0.994065 0)
(0.911823 -0.0546771 0)
(1.02977 -0.113875 0)
(0.904211 -0.14215 0)
(0.923587 -0.217578 0)
(0.93965 -0.273644 0)
(0.823536 -0.367086 0)
(0.973903 -0.586385 0)
(0.908172 -0.726375 0)
(0.942659 -0.873467 0)
(0.746745 -0.922056 0)
(0.58687 -0.90669 0)
(0.499072 -0.884266 0)
(0.316899 -0.828824 0)
(0.197887 -0.722985 0)
(0.0332125 -0.620887 0)
(-0.0415424 -0.532345 0)
(-0.158737 -0.398265 0)
(-0.259712 -0.270871 0)
(-0.228128 -0.146765 0)
(-0.195065 0.000483311 0)
(-0.216377 0.154179 0)
(-0.122329 0.289901 0)
(-0.107541 0.406422 0)
(-0.00234079 0.571811 0)
(0.117424 0.725686 0)
(0.196143 0.758518 0)
(0.436085 0.89507 0)
(0.584421 0.90977 0)
(0.94284 -0.0638175 0)
(0.960909 -0.0948375 0)
(0.905736 -0.131045 0)
(0.883266 -0.208322 0)
(0.841299 -0.260285 0)
(0.825922 -0.363621 0)
(0.848827 -0.579908 0)
(0.810972 -0.712526 0)
(0.66934 -0.793759 0)
(0.428758 -0.836651 0)
(0.237366 -0.845087 0)
(0.0692921 -0.790372 0)
(-0.161705 -0.734749 0)
(-0.287313 -0.66939 0)
(-0.491828 -0.564053 0)
(-0.597197 -0.469929 0)
(-0.71831 -0.371664 0)
(-0.818087 -0.278795 0)
(-0.872869 -0.138526 0)
(-0.863804 -0.00335715 0)
(-0.838127 0.102321 0)
(-0.747315 0.235557 0)
(-0.711466 0.360853 0)
(-0.603515 0.496441 0)
(-0.376967 0.635092 0)
(-0.31346 0.657552 0)
(-0.0211694 0.809936 0)
(0.147233 0.810149 0)
(0.88761 -0.0450437 0)
(0.96893 -0.0988582 0)
(0.84891 -0.0891785 0)
(0.893888 -0.19766 0)
(0.731497 -0.229065 0)
(0.788195 -0.381107 0)
(0.730292 -0.559983 0)
(0.62193 -0.63289 0)
(0.436966 -0.681293 0)
(0.0851881 -0.699881 0)
(-0.170227 -0.723813 0)
(-0.366905 -0.699904 0)
(-0.635918 -0.64596 0)
(-0.838135 -0.548866 0)
(-1.03599 -0.473273 0)
(-1.17277 -0.384743 0)
(-1.31913 -0.291097 0)
(-1.38713 -0.214418 0)
(-1.4742 -0.118803 0)
(-1.43975 -0.00348223 0)
(-1.45825 0.102272 0)
(-1.36669 0.23064 0)
(-1.30314 0.326725 0)
(-1.16121 0.437566 0)
(-0.905358 0.57103 0)
(-0.836963 0.567999 0)
(-0.481515 0.701894 0)
(-0.288597 0.75166 0)
(0.934135 -0.0426799 0)
(0.879413 -0.076266 0)
(0.873287 -0.0901489 0)
(0.850877 -0.146126 0)
(0.698243 -0.196825 0)
(0.710558 -0.36894 0)
(0.559702 -0.500138 0)
(0.412088 -0.556213 0)
(0.0873307 -0.526596 0)
(-0.228991 -0.558665 0)
(-0.479671 -0.604609 0)
(-0.77061 -0.560601 0)
(-1.05896 -0.528514 0)
(-1.29794 -0.459175 0)
(-1.53723 -0.397092 0)
(-1.68115 -0.334391 0)
(-1.85169 -0.259544 0)
(-1.91053 -0.186275 0)
(-2.0228 -0.104773 0)
(-1.98059 -0.0171464 0)
(-2.01605 0.0714435 0)
(-1.89497 0.159078 0)
(-1.83658 0.24171 0)
(-1.65797 0.334715 0)
(-1.42165 0.432837 0)
(-1.30054 0.433238 0)
(-0.940584 0.559114 0)
(-0.740529 0.596732 0)
(0.916522 -0.0201306 0)
(0.89485 -0.0550002 0)
(0.830825 -0.0758172 0)
(0.816404 -0.11085 0)
(0.691712 -0.151035 0)
(0.623087 -0.315933 0)
(0.409709 -0.415466 0)
(0.145504 -0.399861 0)
(-0.177437 -0.368878 0)
(-0.500936 -0.408617 0)
(-0.821295 -0.458842 0)
(-1.14451 -0.415388 0)
(-1.51238 -0.357594 0)
(-1.74516 -0.320391 0)
(-2.01719 -0.274602 0)
(-2.17808 -0.234929 0)
(-2.35783 -0.183866 0)
(-2.42116 -0.128266 0)
(-2.51123 -0.0692335 0)
(-2.48756 0.00297678 0)
(-2.49969 0.0630827 0)
(-2.39487 0.138412 0)
(-2.32247 0.185851 0)
(-2.12656 0.268879 0)
(-1.93828 0.351766 0)
(-1.74401 0.343069 0)
(-1.41553 0.437603 0)
(-1.10742 0.427744 0)
(0.906389 -0.022093 0)
(0.862632 -0.029987 0)
(0.8529 -0.0505667 0)
(0.714816 -0.0689339 0)
(0.671086 -0.0979726 0)
(0.520984 -0.221775 0)
(0.211267 -0.290738 0)
(-0.082925 -0.2766 0)
(-0.392607 -0.231621 0)
(-0.672641 -0.271531 0)
(-1.14581 -0.260302 0)
(-1.52593 -0.250754 0)
(-1.83523 -0.238081 0)
(-2.11558 -0.193203 0)
(-2.34843 -0.190805 0)
(-2.56825 -0.160899 0)
(-2.74451 -0.146558 0)
(-2.86241 -0.099302 0)
(-2.94068 -0.0666885 0)
(-2.93866 -0.0208879 0)
(-2.93844 0.0349904 0)
(-2.83529 0.0671821 0)
(-2.72135 0.118917 0)
(-2.53731 0.151275 0)
(-2.31263 0.196803 0)
(-2.11496 0.184718 0)
(-1.76504 0.247508 0)
(-1.48819 0.254075 0)
(0.867855 -0.00439549 0)
(0.77814 -0.0159788 0)
(0.789764 -0.0071214 0)
(0.662778 -0.0180359 0)
(0.620866 -0.0434678 0)
(0.389955 -0.0968096 0)
(-0.0489481 -0.0954652 0)
(-0.435137 -0.0665414 0)
(-0.742963 -0.0494137 0)
(-1.02973 -0.0333671 0)
(-1.35184 -0.065688 0)
(-1.66123 -0.0824956 0)
(-2.06392 -0.0694751 0)
(-2.27344 -0.0690137 0)
(-2.58922 -0.0472731 0)
(-2.76387 -0.0470467 0)
(-3.02099 -0.0343399 0)
(-3.13969 -0.0273351 0)
(-3.26302 -0.0183559 0)
(-3.29514 0.0100874 0)
(-3.2806 0.00409787 0)
(-3.22459 0.0381779 0)
(-3.05234 0.0379176 0)
(-2.9058 0.0755912 0)
(-2.61388 0.100875 0)
(-2.39409 0.0963607 0)
(-2.01778 0.134376 0)
(-1.6291 0.0814921 0)
(1.67952 0.241543 0)
(1.53439 0.0256772 0)
(1.86365 0.0584702 0)
(1.3119 0.027636 0)
(1.68703 -0.40557 0)
(1.52953 -0.733037 0)
(0.202218 -0.50234 0)
(0.548818 -0.839998 0)
(1.92654 0.378876 0)
(1.99763 0.249778 0)
(1.60373 -0.0975499 0)
(1.64535 0.00712714 0)
(1.46831 -0.26072 0)
(1.23172 -0.467568 0)
(0.779564 -0.292641 0)
(1.30891 -0.791973 0)
(1.96361 0.32618 0)
(1.88161 0.22867 0)
(1.92421 0.15326 0)
(1.54908 0.0768946 0)
(1.72433 -0.137705 0)
(1.00257 -0.311321 0)
(1.28757 -0.607077 0)
(0.645897 -0.557123 0)
(1.95899 0.375264 0)
(1.82986 0.329488 0)
(1.77093 0.143973 0)
(1.71848 0.0462271 0)
(1.50683 0.0639289 0)
(1.34042 -0.283202 0)
(1.15508 -0.149697 0)
(0.464805 -0.0222789 0)
(1.9468 0.43778 0)
(1.76923 0.369591 0)
(1.63771 0.195954 0)
(1.53256 0.132093 0)
(1.37385 0.0946703 0)
(1.3566 -0.10827 0)
(0.765697 -0.111064 0)
(0.946881 -0.23774 0)
(1.88484 0.521582 0)
(1.7651 0.460543 0)
(1.53451 0.301713 0)
(1.50683 0.17316 0)
(1.31003 0.17232 0)
(1.26017 -0.000175152 0)
(0.97304 0.045966 0)
(0.905019 0.0379313 0)
(1.84206 0.582067 0)
(1.75959 0.528693 0)
(1.51684 0.36623 0)
(1.43103 0.208417 0)
(1.24292 0.22978 0)
(1.30199 0.0763777 0)
(1.0179 0.0774592 0)
(0.94591 -0.00153377 0)
(1.79496 0.704104 0)
(1.6914 0.615449 0)
(1.45497 0.474716 0)
(1.39574 0.296277 0)
(1.25044 0.26675 0)
(1.26444 0.120409 0)
(0.99502 0.210788 0)
(0.97867 0.154233 0)
(1.78939 0.788468 0)
(1.65102 0.688366 0)
(1.43949 0.539352 0)
(1.34029 0.328024 0)
(1.1567 0.301492 0)
(1.15458 0.186289 0)
(0.955711 0.234347 0)
(0.97112 0.150331 0)
(1.72543 0.878597 0)
(1.58214 0.771003 0)
(1.36767 0.629793 0)
(1.30087 0.420579 0)
(1.17248 0.364781 0)
(1.12212 0.251829 0)
(0.944563 0.294936 0)
(0.934112 0.235075 0)
(1.55021 0.956966 0)
(1.49145 0.829312 0)
(1.36703 0.669059 0)
(1.29801 0.43274 0)
(1.13392 0.390929 0)
(1.08482 0.289463 0)
(0.9305 0.3054 0)
(0.956097 0.217327 0)
(1.32659 0.979857 0)
(1.31027 0.889292 0)
(1.25675 0.761866 0)
(1.1943 0.550146 0)
(1.07564 0.476579 0)
(1.06315 0.373238 0)
(0.938973 0.354549 0)
(0.964587 0.253917 0)
(1.06593 0.951572 0)
(1.05794 0.817947 0)
(1.14844 0.713251 0)
(1.10981 0.529955 0)
(1.05502 0.467958 0)
(1.01273 0.379946 0)
(0.983605 0.341992 0)
(1.00536 0.26089 0)
(0.695208 0.964517 0)
(0.787849 0.834598 0)
(0.933281 0.741835 0)
(0.932875 0.580968 0)
(0.986669 0.509589 0)
(1.00544 0.41121 0)
(1.07501 0.34321 0)
(1.08124 0.278986 0)
(0.370782 0.821582 0)
(0.474989 0.688456 0)
(0.644292 0.687009 0)
(0.730868 0.50607 0)
(0.789217 0.469754 0)
(0.92945 0.352713 0)
(0.998247 0.305045 0)
(0.982154 0.300962 0)
(-0.072098 0.813728 0)
(0.0980367 0.642772 0)
(0.384798 0.604966 0)
(0.555491 0.466665 0)
(0.632494 0.401214 0)
(0.812071 0.283211 0)
(0.790124 0.30983 0)
(0.894794 0.301607 0)
(-0.342118 0.618552 0)
(-0.107691 0.477092 0)
(0.0642831 0.502272 0)
(0.276278 0.377584 0)
(0.449046 0.371413 0)
(0.58714 0.26943 0)
(0.602967 0.269614 0)
(0.835996 0.223808 0)
(-0.711917 0.503904 0)
(-0.564264 0.416919 0)
(-0.0490546 0.387366 0)
(-0.0102329 0.261326 0)
(0.234025 0.254209 0)
(0.401581 0.205499 0)
(0.49755 0.199593 0)
(0.720032 0.178183 0)
(-1.10531 0.283409 0)
(-0.676935 0.166838 0)
(-0.439854 0.251865 0)
(-0.179601 0.232896 0)
(-0.0530825 0.166758 0)
(0.249685 0.114635 0)
(0.338027 0.121348 0)
(0.572362 0.105642 0)
(-1.3803 0.0771076 0)
(-0.989552 0.0959545 0)
(-0.760176 0.109271 0)
(-0.325325 0.0799552 0)
(-0.111337 0.0318429 0)
(0.0582746 0.0162057 0)
(0.150529 0.0490049 0)
(0.409896 0.0406862 0)
(-0.464164 -0.296061 0)
(0.629208 0.370883 0)
(0.820777 0.570592 0)
(0.809163 0.553052 3.02982e-18)
(1.0861 0.628158 3.04341e-19)
(1.17944 0.495954 0)
(1.48886 0.430164 2.11729e-18)
(1.27789 0.28939 1.20607e-19)