/*--------------------------------*- C++ -*----------------------------------*\
| =========                 |                                                 |
| \\      /  F ield         | OpenFOAM: The Open Source CFD Toolbox           |
|  \\    /   O peration     | Version:  2.4.0                                 |
|   \\  /    A nd           | Web:      www.OpenFOAM.org                      |
|    \\/     M anipulation  |                                                 |
\*---------------------------------------------------------------------------*/
FoamFile
{
    version     2.0;
    format      ascii;
    class       surfaceScalarField;
    location    "0.71";
    object      phi;
}
// * * * * * * * * * * * * * * * * * * * * * * * * * * * * * * * * * * * * * //

dimensions      [0 3 -1 0 0 0 0];

internalField   nonuniform List<scalar> 
11840
(
7.87463e-07
9.21254e-06
-1.68783e-08
8.04341e-07
-4.66952e-08
2.98169e-08
-7.34009e-08
2.67057e-08
-7.64096e-08
3.00872e-09
-6.02818e-08
-1.61278e-08
-7.78045e-08
1.75226e-08
-1.81589e-07
1.03785e-07
-3.88713e-07
2.07124e-07
-6.19303e-07
2.3059e-07
-7.67e-07
1.47697e-07
-7.72624e-07
5.62407e-09
-6.61171e-07
-1.11453e-07
-4.9562e-07
-1.65551e-07
-3.29849e-07
-1.65771e-07
-1.88428e-07
-1.41421e-07
-7.50991e-08
-1.13328e-07
1.75526e-08
-9.26517e-08
9.87003e-08
-8.11477e-08
1.73841e-07
-7.51408e-08
2.45468e-07
-7.16271e-08
3.12942e-07
-6.7474e-08
3.74207e-07
-6.12643e-08
4.27599e-07
-5.33924e-08
4.7283e-07
-4.52311e-08
5.10841e-07
-3.80106e-08
5.4307e-07
-3.2229e-08
5.70837e-07
-2.7767e-08
5.95118e-07
-2.42813e-08
6.16593e-07
-2.14747e-08
6.35752e-07
-1.91599e-08
6.52978e-07
-1.72252e-08
6.68571e-07
-1.55931e-08
6.82772e-07
-1.42017e-08
6.95774e-07
-1.30012e-08
7.07727e-07
-1.19535e-08
7.18758e-07
-1.10312e-08
7.28973e-07
-1.02148e-08
7.38464e-07
-9.49043e-09
7.47312e-07
-8.84837e-09
7.55593e-07
-8.28074e-09
7.63377e-07
-7.78429e-09
7.70728e-07
-7.351e-09
7.77716e-07
-6.98809e-09
7.8439e-07
-6.67421e-09
7.90847e-07
-6.45675e-09
7.9707e-07
-6.22282e-09
8.03267e-07
-6.19743e-09
8.09182e-07
-5.91511e-09
8.15522e-07
-6.33923e-09
8.21012e-07
-5.49032e-09
8.28388e-07
-7.37605e-09
8.32419e-07
-4.03137e-09
8.43502e-07
-1.10825e-08
8.42179e-07
1.32337e-09
8.65383e-07
-2.32042e-08
8.47207e-07
1.8176e-08
9.10276e-07
-6.30691e-08
8.46268e-07
6.40076e-08
-2.47743e-07
1.92437e-06
1.72882e-05
1.14176e-07
2.61454e-06
-6.79115e-08
2.11904e-07
-1.75063e-07
1.33857e-07
-1.87543e-07
1.54881e-08
-1.74891e-07
-2.87795e-08
-2.55411e-07
9.80422e-08
-5.56132e-07
4.04506e-07
-1.05999e-06
7.10977e-07
-1.55903e-06
7.29639e-07
-1.82696e-06
4.15627e-07
-1.77386e-06
-4.74815e-08
-1.47241e-06
-4.12905e-07
-1.06254e-06
-5.75419e-07
-6.55251e-07
-5.73059e-07
-3.01275e-07
-4.95398e-07
-1.01842e-08
-4.04419e-07
2.37326e-07
-3.40162e-07
4.5274e-07
-2.96561e-07
6.50018e-07
-2.72419e-07
8.33425e-07
-2.55034e-07
1.00125e-06
-2.35304e-07
1.1499e-06
-2.09912e-07
1.27734e-06
-1.80828e-07
1.38445e-06
-1.52342e-07
1.47426e-06
-1.27823e-07
1.55036e-06
-1.0833e-07
1.6158e-06
-9.32063e-08
1.6728e-06
-8.12823e-08
1.72294e-06
-7.16106e-08
1.76738e-06
-6.35966e-08
1.80702e-06
-5.68729e-08
1.84261e-06
-5.11769e-08
1.87471e-06
-4.62996e-08
1.90378e-06
-4.20751e-08
1.9302e-06
-3.83782e-08
1.95429e-06
-3.51185e-08
1.97631e-06
-3.22317e-08
1.99649e-06
-2.96717e-08
2.01505e-06
-2.74062e-08
2.03218e-06
-2.54101e-08
2.04806e-06
-2.3669e-08
2.06287e-06
-2.21646e-08
2.07679e-06
-2.09026e-08
2.08996e-06
-1.9847e-08
2.10257e-06
-1.90656e-08
2.11475e-06
-1.83983e-08
2.12671e-06
-1.81577e-08
2.13846e-06
-1.76644e-08
2.15046e-06
-1.83446e-08
2.1622e-06
-1.72251e-08
2.17523e-06
-2.04056e-08
2.18681e-06
-1.56181e-08
2.20309e-06
-2.73611e-08
2.2127e-06
-8.28164e-09
2.23954e-06
-5.00435e-08
2.24056e-06
1.7153e-08
2.31102e-06
-1.33528e-07
2.27616e-06
9.88648e-08
-6.32303e-07
2.92707e-06
2.43611e-05
4.14617e-07
5.12699e-06
-2.59249e-08
6.52446e-07
-2.30144e-07
3.38076e-07
-2.66467e-07
5.18119e-08
-2.81011e-07
-1.42359e-08
-4.42841e-07
2.59873e-07
-9.26885e-07
8.88549e-07
-1.6573e-06
1.44139e-06
-2.32066e-06
1.393e-06
-2.61812e-06
7.13087e-07
-2.46309e-06
-2.02513e-07
-1.97896e-06
-8.97039e-07
-1.36106e-06
-1.19331e-06
-7.55536e-07
-1.17859e-06
-2.27588e-07
-1.02335e-06
2.15433e-07
-8.4744e-07
5.91942e-07
-7.1667e-07
9.25312e-07
-6.29932e-07
1.22995e-06
-5.77054e-07
1.50984e-06
-5.34925e-07
1.76212e-06
-4.87588e-07
1.98263e-06
-4.30417e-07
2.17001e-06
-3.68214e-07
2.32686e-06
-3.09189e-07
2.4582e-06
-2.59164e-07
2.56938e-06
-2.19514e-07
2.66478e-06
-1.88604e-07
2.74756e-06
-1.64062e-07
2.82e-06
-1.44045e-07
2.8838e-06
-1.27398e-07
2.94032e-06
-1.13391e-07
2.99063e-06
-1.0149e-07
3.0356e-06
-9.12704e-08
3.07592e-06
-8.23963e-08
3.11216e-06
-7.46167e-08
3.14479e-06
-6.775e-08
3.17423e-06
-6.16672e-08
3.20083e-06
-5.62756e-08
3.22493e-06
-5.15088e-08
3.24684e-06
-4.73181e-08
3.26684e-06
-4.36713e-08
3.28522e-06
-4.05393e-08
3.30223e-06
-3.79158e-08
3.31815e-06
-3.57671e-08
3.33322e-06
-3.41385e-08
3.34773e-06
-3.29033e-08
3.36187e-06
-3.22947e-08
3.37597e-06
-3.17718e-08
3.39012e-06
-3.24857e-08
3.40485e-06
-3.19649e-08
3.41986e-06
-3.54082e-08
3.43638e-06
-3.21362e-08
3.45322e-06
-4.42067e-08
3.47312e-06
-2.81823e-08
3.49516e-06
-7.20782e-08
3.52113e-06
-8.82138e-09
3.57641e-06
-1.8881e-07
3.59878e-06
7.64979e-08
-1.04736e-06
3.82203e-06
3.05391e-05
8.38737e-07
8.11028e-06
7.38526e-08
1.41733e-06
-2.34879e-07
6.46808e-07
-3.13761e-07
1.30694e-07
-3.72108e-07
4.41112e-08
-6.2297e-07
5.10734e-07
-1.26304e-06
1.52861e-06
-2.15069e-06
2.32905e-06
-2.89204e-06
2.13434e-06
-3.15595e-06
9.77001e-07
-2.8812e-06
-4.77266e-07
-2.23553e-06
-1.54271e-06
-1.44921e-06
-1.97962e-06
-6.86785e-07
-1.94102e-06
-2.19898e-08
-1.68814e-06
5.47082e-07
-1.41651e-06
1.03575e-06
-1.20534e-06
1.47211e-06
-1.06629e-06
1.87044e-06
-9.75389e-07
2.2334e-06
-8.97885e-07
2.5569e-06
-8.11084e-07
2.83664e-06
-7.10153e-07
3.07243e-06
-6.04006e-07
3.26877e-06
-5.05528e-07
3.43264e-06
-4.23038e-07
3.57096e-06
-3.57833e-07
3.68919e-06
-3.06831e-07
3.79125e-06
-2.66124e-07
3.87999e-06
-2.32785e-07
3.95758e-06
-2.04989e-07
4.02575e-06
-1.81558e-07
4.08588e-06
-1.61617e-07
4.13907e-06
-1.44463e-07
4.18622e-06
-1.29547e-07
4.22806e-06
-1.16458e-07
4.26521e-06
-1.04899e-07
4.2982e-06
-9.4658e-08
4.32751e-06
-8.55843e-08
4.35357e-06
-7.75671e-08
4.37678e-06
-7.05279e-08
4.39752e-06
-6.44113e-08
4.41615e-06
-5.91773e-08
4.43304e-06
-5.48017e-08
4.44853e-06
-5.12595e-08
4.46295e-06
-4.8558e-08
4.47668e-06
-4.6636e-08
4.48997e-06
-4.55767e-08
4.50333e-06
-4.5131e-08
4.51669e-06
-4.58494e-08
4.53116e-06
-4.64362e-08
4.54556e-06
-4.98098e-08
4.56309e-06
-4.96621e-08
4.57902e-06
-6.01384e-08
4.60321e-06
-5.23715e-08
4.622e-06
-9.08671e-08
4.6613e-06
-4.81185e-08
4.70779e-06
-2.35303e-07
4.76985e-06
1.44318e-08
-1.4589e-06
4.63117e-06
3.59079e-05
1.35737e-06
1.13841e-05
2.45638e-07
2.52906e-06
-1.8843e-07
1.08088e-06
-3.27757e-07
2.7002e-07
-4.42235e-07
1.58589e-07
-7.81281e-07
8.4978e-07
-1.54401e-06
2.29134e-06
-2.52549e-06
3.31053e-06
-3.27885e-06
2.88771e-06
-3.47223e-06
1.17038e-06
-3.07931e-06
-8.70177e-07
-2.30049e-06
-2.32154e-06
-1.38391e-06
-2.8962e-06
-5.0118e-07
-2.82375e-06
2.75899e-07
-2.46522e-06
9.4374e-07
-2.08435e-06
1.52776e-06
-1.78936e-06
2.05331e-06
-1.59183e-06
2.53326e-06
-1.45534e-06
2.96824e-06
-1.33287e-06
3.35263e-06
-1.19547e-06
3.6819e-06
-1.03942e-06
3.95704e-06
-8.79146e-07
4.18451e-06
-7.33004e-07
4.3733e-06
-6.11829e-07
4.53185e-06
-5.16379e-07
4.66662e-06
-4.41608e-07
4.78222e-06
-3.81721e-07
4.88197e-06
-3.32531e-07
4.96844e-06
-2.91457e-07
5.04369e-06
-2.56809e-07
5.10938e-06
-2.27306e-07
5.16683e-06
-2.01915e-07
5.21711e-06
-1.79825e-07
5.26108e-06
-1.60436e-07
5.2995e-06
-1.43313e-07
5.33299e-06
-1.28146e-07
5.36211e-06
-1.1471e-07
5.38739e-06
-1.02844e-07
5.4093e-06
-9.24326e-08
5.42828e-06
-8.33929e-08
5.44477e-06
-7.56709e-08
5.45919e-06
-6.92241e-08
5.47197e-06
-6.40367e-08
5.48349e-06
-6.00753e-08
5.4942e-06
-5.73511e-08
5.50441e-06
-5.57861e-08
5.51473e-06
-5.54524e-08
5.52512e-06
-5.62356e-08
5.53685e-06
-5.81662e-08
5.54859e-06
-6.1548e-08
5.56411e-06
-6.51852e-08
5.57771e-06
-7.37359e-08
5.60159e-06
-7.62519e-08
5.61776e-06
-1.0704e-07
5.66141e-06
-9.17628e-08
5.70318e-06
-2.77082e-07
5.78925e-06
-7.1632e-08
-1.84484e-06
5.36484e-06
4.05431e-05
1.94272e-06
1.48062e-05
4.93696e-07
3.97809e-06
-9.00921e-08
1.66466e-06
-3.06543e-07
4.86472e-07
-4.85675e-07
3.3772e-07
-9.05794e-07
1.2699e-06
-1.75612e-06
3.14166e-06
-2.77803e-06
4.33244e-06
-3.4983e-06
3.60798e-06
-3.60563e-06
1.27771e-06
-3.10848e-06
-1.36733e-06
-2.22673e-06
-3.20328e-06
-1.21403e-06
-3.9089e-06
-2.4217e-07
-3.79561e-06
6.1971e-07
-3.3271e-06
1.36946e-06
-2.8341e-06
2.03306e-06
-2.45297e-06
2.63487e-06
-2.19363e-06
3.18587e-06
-2.00635e-06
3.68417e-06
-1.83117e-06
4.12194e-06
-1.63324e-06
4.49382e-06
-1.4113e-06
4.8016e-06
-1.18693e-06
5.05367e-06
-9.85073e-07
5.26113e-06
-8.19282e-07
5.43408e-06
-6.89328e-07
5.58006e-06
-5.87592e-07
5.70431e-06
-5.05967e-07
5.81058e-06
-4.38805e-07
5.90181e-06
-3.82689e-07
5.98037e-06
-3.35366e-07
6.04816e-06
-2.95095e-07
6.1067e-06
-2.60457e-07
6.15721e-06
-2.30339e-07
6.20069e-06
-2.03914e-07
6.23797e-06
-1.80588e-07
6.26975e-06
-1.59935e-07
6.29669e-06
-1.41645e-07
6.31934e-06
-1.25497e-07
6.33824e-06
-1.1133e-07
6.35388e-06
-9.90318e-08
6.36674e-06
-8.85307e-08
6.37728e-06
-7.97654e-08
6.38597e-06
-7.27272e-08
6.39324e-06
-6.73486e-08
6.3996e-06
-6.37041e-08
6.40539e-06
-6.15774e-08
6.41126e-06
-6.13256e-08
6.41727e-06
-6.2246e-08
6.42467e-06
-6.55614e-08
6.43232e-06
-6.92059e-08
6.44383e-06
-7.6691e-08
6.45393e-06
-8.38401e-08
6.4744e-06
-9.67135e-08
6.48791e-06
-1.20553e-07
6.52979e-06
-1.33649e-07
6.56875e-06
-3.16036e-07
6.66647e-06
-1.69348e-07
-2.19251e-06
6.02853e-06
4.45145e-05
2.57162e-06
1.82631e-05
8.16561e-07
5.73315e-06
6.23247e-08
2.4189e-06
-2.48058e-07
7.96855e-07
-4.97277e-07
5.86939e-07
-9.87424e-07
1.76005e-06
-1.89194e-06
4.04618e-06
-2.91266e-06
5.35316e-06
-3.57308e-06
4.2684e-06
-3.59426e-06
1.29889e-06
-3.01314e-06
-1.94845e-06
-2.0573e-06
-4.15913e-06
-9.77767e-07
-4.98843e-06
5.77544e-08
-4.83113e-06
9.82593e-07
-4.25194e-06
1.79621e-06
-3.64772e-06
2.52405e-06
-3.1808e-06
3.18968e-06
-2.85926e-06
3.80229e-06
-2.61896e-06
4.35704e-06
-2.38592e-06
4.84303e-06
-2.11923e-06
5.25304e-06
-1.82131e-06
5.58893e-06
-1.52282e-06
5.86077e-06
-1.25692e-06
6.08197e-06
-1.04048e-06
6.26458e-06
-8.71934e-07
6.41737e-06
-7.40385e-07
6.54626e-06
-6.34858e-07
6.65543e-06
-5.47973e-07
6.74813e-06
-4.75387e-07
6.82701e-06
-4.14248e-07
6.89422e-06
-3.62309e-07
6.95147e-06
-3.17707e-07
7.00011e-06
-2.7898e-07
7.04124e-06
-2.4504e-07
7.07576e-06
-2.15109e-07
7.10445e-06
-1.88624e-07
7.12799e-06
-1.65182e-07
7.14698e-06
-1.44487e-07
7.16198e-06
-1.2633e-07
7.1735e-06
-1.1056e-07
7.18206e-06
-9.70862e-08
7.18812e-06
-8.58289e-08
7.19218e-06
-7.6783e-08
7.19469e-06
-6.98552e-08
7.19615e-06
-6.51711e-08
7.19699e-06
-6.24107e-08
7.19782e-06
-6.2155e-08
7.19882e-06
-6.32484e-08
7.20111e-06
-6.7853e-08
7.20394e-06
-7.20321e-08
7.21033e-06
-8.30832e-08
7.21617e-06
-8.96854e-08
7.2314e-06
-1.11944e-07
7.2419e-06
-1.31051e-07
7.27835e-06
-1.70093e-07
7.31493e-06
-3.52618e-07
7.41527e-06
-2.69686e-07
-2.49631e-06
6.62609e-06
4.78884e-05
3.22481e-06
2.16644e-05
1.21005e-06
7.7479e-06
2.71658e-07
3.3573e-06
-1.49954e-07
1.21847e-06
-4.72704e-07
9.0969e-07
-1.02004e-06
2.30738e-06
-1.9492e-06
4.97534e-06
-2.93873e-06
6.34269e-06
-3.52703e-06
4.8567e-06
-3.47151e-06
1.24338e-06
-2.82862e-06
-2.59134e-06
-1.82421e-06
-5.16354e-06
-7.0211e-07
-6.11053e-06
3.75578e-07
-5.90882e-06
1.3444e-06
-5.22076e-06
2.20449e-06
-4.50781e-06
2.98129e-06
-3.95761e-06
3.69842e-06
-3.57638e-06
4.36368e-06
-3.28422e-06
4.96911e-06
-2.99135e-06
5.49982e-06
-2.64995e-06
5.9454e-06
-2.26688e-06
6.30672e-06
-1.88413e-06
6.59511e-06
-1.54531e-06
6.8264e-06
-1.27177e-06
7.01495e-06
-1.06048e-06
7.17105e-06
-8.96488e-07
7.30142e-06
-7.65226e-07
7.41065e-06
-6.57203e-07
7.50229e-06
-5.67031e-07
7.57927e-06
-4.91225e-07
7.64396e-06
-4.26995e-07
7.69824e-06
-3.71985e-07
7.74359e-06
-3.24329e-07
7.78119e-06
-2.82641e-07
7.812e-06
-2.45927e-07
7.83685e-06
-2.13474e-07
7.85644e-06
-1.84768e-07
7.87138e-06
-1.59428e-07
7.88224e-06
-1.37189e-07
7.88954e-06
-1.17857e-07
7.89377e-06
-1.01317e-07
7.89541e-06
-8.74703e-08
7.89494e-06
-7.63119e-08
7.89282e-06
-6.77317e-08
7.88954e-06
-6.18929e-08
7.88553e-06
-5.84086e-08
7.8814e-06
-5.802e-08
7.87742e-06
-5.92637e-08
7.87453e-06
-6.4968e-08
7.87238e-06
-6.98796e-08
7.87333e-06
-8.4033e-08
7.87459e-06
-9.09492e-08
7.88381e-06
-1.21159e-07
7.89092e-06
-1.38168e-07
7.92006e-06
-1.99227e-07
7.95396e-06
-3.86522e-07
8.05074e-06
-3.66467e-07
-2.75529e-06
7.16111e-06
5.07273e-05
3.8862e-06
2.49393e-05
1.66694e-06
9.96716e-06
5.36307e-07
4.48793e-06
-6.82849e-09
1.7616e-06
-4.0856e-07
1.31142e-06
-1.00026e-06
2.89908e-06
-1.9295e-06
5.90458e-06
-2.8681e-06
7.28129e-06
-3.38231e-06
5.37091e-06
-3.26436e-06
1.12543e-06
-2.58064e-06
-3.27506e-06
-1.54876e-06
-6.19543e-06
-4.03523e-07
-7.25576e-06
6.98208e-07
-7.01055e-06
1.69355e-06
-6.2161e-06
2.58318e-06
-5.39744e-06
3.39371e-06
-4.76815e-06
4.14979e-06
-4.33246e-06
4.85865e-06
-3.99308e-06
5.50929e-06
-3.64199e-06
6.08206e-06
-3.22271e-06
6.56193e-06
-2.74676e-06
6.94747e-06
-2.26967e-06
7.25056e-06
-1.84841e-06
7.48947e-06
-1.51068e-06
7.6812e-06
-1.25222e-06
7.83794e-06
-1.05323e-06
7.96738e-06
-8.94659e-07
8.07456e-06
-7.64383e-07
8.16331e-06
-6.55787e-07
8.23681e-06
-5.64721e-07
8.29764e-06
-4.87826e-07
8.34786e-06
-4.22204e-07
8.38906e-06
-3.65531e-07
8.4225e-06
-3.16079e-07
8.44918e-06
-2.7261e-07
8.46995e-06
-2.34241e-07
8.48551e-06
-2.00328e-07
8.49648e-06
-1.704e-07
8.50342e-06
-1.44123e-07
8.50681e-06
-1.21256e-07
8.50715e-06
-1.01653e-07
8.50488e-06
-8.51972e-08
8.50044e-06
-7.18787e-08
8.49429e-06
-6.15777e-08
8.48688e-06
-5.44838e-08
8.47865e-06
-5.01751e-08
8.47013e-06
-4.94981e-08
8.46167e-06
-5.0811e-08
8.45407e-06
-5.73636e-08
8.44728e-06
-6.30955e-08
8.44305e-06
-7.98027e-08
8.43984e-06
-8.77306e-08
8.44301e-06
-1.24333e-07
8.44655e-06
-1.41705e-07
8.46777e-06
-2.20446e-07
8.49844e-06
-4.17194e-07
8.58774e-06
-4.55767e-07
-2.97128e-06
7.63743e-06
5.30899e-05
4.54246e-06
2.80343e-05
2.17791e-06
1.23317e-05
8.57464e-07
5.80838e-06
1.74761e-07
2.44431e-06
-3.02431e-07
1.78861e-06
-9.27023e-07
3.52367e-06
-1.83708e-06
6.81464e-06
-2.71336e-06
8.15757e-06
-3.15804e-06
5.81559e-06
-2.99294e-06
9.60332e-07
-2.28591e-06
-3.98209e-06
-1.24285e-06
-7.23849e-06
-8.99338e-08
-8.40867e-06
1.02015e-06
-8.12063e-06
2.02573e-06
-7.22168e-06
2.92865e-06
-6.30036e-06
3.75782e-06
-5.59732e-06
4.54003e-06
-5.11467e-06
5.28291e-06
-4.73596e-06
5.97291e-06
-4.33199e-06
6.5851e-06
-3.8349e-06
7.09859e-06
-3.26025e-06
7.50812e-06
-2.6792e-06
7.8252e-06
-2.16548e-06
8.07026e-06
-1.75575e-06
8.26329e-06
-1.44524e-06
8.41872e-06
-1.20865e-06
8.54546e-06
-1.0214e-06
8.6491e-06
-8.68021e-07
8.73372e-06
-7.40411e-07
8.80271e-06
-6.33712e-07
8.85887e-06
-5.43984e-07
8.90441e-06
-4.67747e-07
8.94105e-06
-4.02164e-07
8.97008e-06
-3.45116e-07
8.99257e-06
-2.95093e-07
9.00934e-06
-2.51015e-07
9.02111e-06
-2.121e-07
9.02848e-06
-1.77772e-07
9.03198e-06
-1.4762e-07
9.03208e-06
-1.2135e-07
9.0292e-06
-9.87797e-08
9.02378e-06
-7.97701e-08
9.0162e-06
-6.43044e-08
9.00688e-06
-5.22571e-08
8.99623e-06
-4.38347e-08
8.98466e-06
-3.86051e-08
8.97264e-06
-3.74767e-08
8.96056e-06
-3.87341e-08
8.94905e-06
-4.58513e-08
8.93834e-06
-5.23801e-08
8.9296e-06
-7.10678e-08
8.92235e-06
-8.04772e-08
8.91998e-06
-1.2197e-07
8.91999e-06
-1.41711e-07
8.93352e-06
-2.33979e-07
8.96047e-06
-4.44136e-07
9.04006e-06
-5.35357e-07
-3.14752e-06
8.05919e-06
5.50307e-05
5.18272e-06
3.09107e-05
2.73235e-06
1.47821e-05
1.23427e-06
7.30646e-06
4.06547e-07
3.27203e-06
-1.5257e-07
2.34773e-06
-8.01145e-07
4.17225e-06
-1.67781e-06
7.6913e-06
-2.48656e-06
8.96632e-06
-2.86942e-06
6.19846e-06
-2.67074e-06
7.61642e-07
-1.95354e-06
-4.69929e-06
-9.11486e-07
-8.28055e-06
2.36469e-07
-9.55663e-06
1.34105e-06
-9.22521e-06
2.34201e-06
-8.22264e-06
3.24301e-06
-7.20137e-06
4.07622e-06
-6.43053e-06
4.87158e-06
-5.91002e-06
5.63826e-06
-5.50264e-06
6.36093e-06
-5.05466e-06
7.00932e-06
-4.48329e-06
7.55569e-06
-3.80662e-06
7.98948e-06
-3.113e-06
8.3206e-06
-2.4966e-06
8.5712e-06
-2.00635e-06
8.76437e-06
-1.63841e-06
8.91718e-06
-1.36146e-06
9.04003e-06
-1.14426e-06
9.13915e-06
-9.67138e-07
9.21888e-06
-8.20139e-07
9.28279e-06
-6.97622e-07
9.33386e-06
-5.9506e-07
9.37448e-06
-5.08361e-07
9.40644e-06
-4.34123e-07
9.43111e-06
-3.69791e-07
9.44957e-06
-3.13546e-07
9.46264e-06
-2.64093e-07
9.47104e-06
-2.20494e-07
9.47532e-06
-1.82059e-07
9.47599e-06
-1.48291e-07
9.47348e-06
-1.18837e-07
9.46817e-06
-9.34725e-08
9.46044e-06
-7.20347e-08
9.45063e-06
-5.4494e-08
9.43909e-06
-4.07221e-08
9.42619e-06
-3.09348e-08
9.4123e-06
-2.47067e-08
9.3978e-06
-2.29766e-08
9.38309e-06
-2.40327e-08
9.36867e-06
-3.14256e-08
9.35493e-06
-3.86397e-08
9.34261e-06
-5.87483e-08
9.33201e-06
-6.98816e-08
9.32495e-06
-1.14904e-07
9.32171e-06
-1.38473e-07
9.3283e-06
-2.40569e-07
9.35121e-06
-4.67051e-07
9.42009e-06
-6.04235e-07
-3.28787e-06
8.43067e-06
5.66e-05
5.79838e-06
3.3543e-05
3.319e-06
1.72615e-05
1.66418e-06
8.96128e-06
6.87806e-07
4.2484e-06
4.21804e-08
2.99335e-06
-6.24734e-07
4.83916e-06
-1.45822e-06
8.52479e-06
-2.19836e-06
9.70646e-06
-2.52761e-06
6.52771e-06
-2.30565e-06
5.3968e-07
-1.58746e-06
-5.41748e-06
-5.55644e-07
-9.31236e-06
5.76733e-07
-1.0689e-05
1.66378e-06
-1.03123e-05
2.64689e-06
-9.20574e-06
3.53219e-06
-8.08667e-06
4.35568e-06
-7.25402e-06
5.15137e-06
-6.70572e-06
5.93109e-06
-6.28236e-06
6.67874e-06
-5.80231e-06
7.35915e-06
-5.1637e-06
7.93708e-06
-4.38456e-06
8.3954e-06
-3.57131e-06
8.74104e-06
-2.84224e-06
8.99719e-06
-2.26251e-06
9.18997e-06
-1.83119e-06
9.33938e-06
-1.51087e-06
9.45762e-06
-1.2625e-06
9.55165e-06
-1.06117e-06
9.6261e-06
-8.94594e-07
9.68471e-06
-7.56226e-07
9.73061e-06
-6.40956e-07
9.76631e-06
-5.44063e-07
9.79372e-06
-4.61534e-07
9.81426e-06
-3.9033e-07
9.829e-06
-3.28287e-07
9.83878e-06
-2.73877e-07
9.84428e-06
-2.25992e-07
9.84604e-06
-1.83816e-07
9.84451e-06
-1.46762e-07
9.84008e-06
-1.14408e-07
9.83309e-06
-8.64848e-08
9.82386e-06
-6.28009e-08
9.81268e-06
-4.33104e-08
9.79984e-06
-2.78824e-08
9.78564e-06
-1.67354e-08
9.77039e-06
-9.46138e-09
9.75442e-06
-7.00736e-09
9.73811e-06
-7.71774e-09
9.7218e-06
-1.51165e-08
9.70601e-06
-2.28476e-08
9.69112e-06
-4.38601e-08
9.678e-06
-5.67668e-08
9.66724e-06
-1.04138e-07
9.66123e-06
-1.32462e-07
9.6619e-06
-2.41246e-07
9.68072e-06
-4.85867e-07
9.73875e-06
-6.62271e-07
-3.39622e-06
8.75622e-06
5.78438e-05
6.38293e-06
3.59163e-05
3.92657e-06
1.97178e-05
2.143e-06
1.07448e-05
1.0197e-06
5.3717e-06
2.82587e-07
3.73047e-06
-4.00604e-07
5.52235e-06
-1.18492e-06
9.3091e-06
-1.85759e-06
1.03791e-05
-2.14013e-06
6.81026e-06
-1.90176e-06
3.01304e-07
-1.18877e-06
-6.13046e-06
-1.73115e-07
-1.0328e-05
9.33213e-07
-1.17953e-05
1.99252e-06
-1.13716e-05
2.94645e-06
-1.01597e-05
3.80393e-06
-8.94416e-06
4.60517e-06
-8.05526e-06
5.38892e-06
-7.48946e-06
6.17069e-06
-7.06412e-06
6.9348e-06
-6.56642e-06
7.64192e-06
-5.87082e-06
8.24922e-06
-4.99186e-06
8.73192e-06
-4.05401e-06
9.09268e-06
-3.203e-06
9.35478e-06
-2.52461e-06
9.54711e-06
-2.02352e-06
9.69278e-06
-1.65654e-06
9.80603e-06
-1.37574e-06
9.89474e-06
-1.14988e-06
9.96384e-06
-9.63694e-07
1.00172e-05
-8.09568e-07
1.0058e-05
-6.81811e-07
1.0089e-05
-5.75066e-07
1.01122e-05
-4.84677e-07
1.01289e-05
-4.07073e-07
1.01404e-05
-3.39715e-07
1.01473e-05
-2.80816e-07
1.01504e-05
-2.29088e-07
1.01502e-05
-1.83582e-07
1.0147e-05
-1.43613e-07
1.01413e-05
-1.08685e-07
1.01333e-05
-7.84807e-08
1.01233e-05
-5.27745e-08
1.01114e-05
-3.15011e-08
1.00981e-05
-1.45255e-08
1.00834e-05
-2.06511e-09
1.00677e-05
6.26769e-09
1.00511e-05
9.53092e-09
1.00341e-05
9.29369e-09
1.00169e-05
2.12187e-09
9.99998e-06
-5.93227e-09
9.98352e-06
-2.73944e-08
9.96873e-06
-4.19792e-08
9.9553e-06
-9.07105e-08
9.94709e-06
-1.24254e-07
9.94301e-06
-2.37162e-07
9.95784e-06
-5.00702e-07
1.00055e-05
-7.09921e-07
-3.4763e-06
9.04014e-06
5.88037e-05
6.9317e-06
3.80247e-05
4.54418e-06
2.21054e-05
2.66498e-06
1.2624e-05
1.40219e-06
6.63449e-06
5.69131e-07
4.56353e-06
-1.31405e-07
6.22289e-06
-8.64002e-07
1.00417e-05
-1.4712e-06
1.09863e-05
-1.71189e-06
7.05094e-06
-1.4611e-06
5.05122e-08
-7.57499e-07
-6.83406e-06
2.32212e-07
-1.13177e-05
1.30837e-06
-1.28715e-05
2.33152e-06
-1.23947e-05
3.24691e-06
-1.10751e-05
4.06635e-06
-9.7636e-06
4.83431e-06
-8.82323e-06
5.59475e-06
-8.24989e-06
6.36773e-06
-7.8371e-06
7.13921e-06
-7.3379e-06
7.86674e-06
-6.59836e-06
8.5002e-06
-5.62532e-06
9.00648e-06
-4.56028e-06
9.38278e-06
-3.57931e-06
9.6514e-06
-2.79323e-06
9.84355e-06
-2.21567e-06
9.98547e-06
-1.79845e-06
1.00936e-05
-1.48392e-06
1.0177e-05
-1.23328e-06
1.02409e-05
-1.02757e-06
1.02892e-05
-8.57878e-07
1.03253e-05
-7.1792e-07
1.0352e-05
-6.01714e-07
1.03712e-05
-5.03929e-07
1.03846e-05
-4.20427e-07
1.03931e-05
-3.48259e-07
1.03977e-05
-2.8536e-07
1.03988e-05
-2.30252e-07
1.03971e-05
-1.81846e-07
1.03928e-05
-1.39351e-07
1.03864e-05
-1.02196e-07
1.03779e-05
-7.00094e-08
1.03676e-05
-4.25301e-08
1.03558e-05
-1.96694e-08
1.03426e-05
-1.28613e-09
1.03281e-05
1.24113e-08
1.03126e-05
2.17782e-08
1.02962e-05
2.58998e-08
1.02793e-05
2.6235e-08
1.02619e-05
1.94788e-08
1.02447e-05
1.12977e-08
1.02275e-05
-1.02344e-08
1.02119e-05
-2.6306e-08
1.01967e-05
-7.56018e-08
1.01869e-05
-1.14448e-07
1.01792e-05
-2.29467e-07
1.01903e-05
-5.11798e-07
1.02284e-05
-7.48017e-07
-3.53147e-06
9.28661e-06
5.95171e-05
7.44164e-06
3.98697e-05
5.16174e-06
2.43853e-05
3.22307e-06
1.45627e-05
1.83397e-06
8.0236e-06
9.02079e-07
5.49542e-06
1.80522e-07
6.94444e-06
-5.00942e-07
1.07232e-05
-1.04458e-06
1.153e-05
-1.24617e-06
7.25253e-06
-9.84869e-07
-2.10785e-07
-2.92773e-07
-7.52616e-06
6.66142e-07
-1.22766e-05
1.70425e-06
-1.39096e-05
2.68432e-06
-1.33748e-05
3.55367e-06
-1.19444e-05
4.32676e-06
-1.05367e-05
5.05214e-06
-9.5486e-06
5.7791e-06
-8.97685e-06
6.533e-06
-8.59101e-06
7.30257e-06
-8.10747e-06
8.04347e-06
-7.33926e-06
8.69892e-06
-6.28077e-06
9.22722e-06
-5.08859e-06
9.6191e-06
-3.97118e-06
9.8948e-06
-3.06893e-06
1.00872e-05
-2.40808e-06
1.02256e-05
-1.93683e-06
1.03288e-05
-1.58716e-06
1.04071e-05
-1.31153e-06
1.0466e-05
-1.08648e-06
1.05096e-05
-9.01507e-07
1.05414e-05
-7.49683e-07
1.05641e-05
-6.24426e-07
1.05799e-05
-5.19721e-07
1.05903e-05
-4.30825e-07
1.05964e-05
-3.54351e-07
1.0599e-05
-2.8794e-07
1.05986e-05
-2.2991e-07
1.05958e-05
-1.7903e-07
1.05909e-05
-1.34399e-07
1.0584e-05
-9.53669e-08
1.05755e-05
-6.15035e-08
1.05655e-05
-3.25107e-08
1.05541e-05
-8.27399e-09
1.05415e-05
1.13576e-08
1.05277e-05
2.61871e-08
1.05129e-05
3.65407e-08
1.04973e-05
4.15333e-08
1.0481e-05
4.25099e-08
1.04642e-05
3.63127e-08
1.04473e-05
2.8186e-08
1.04302e-05
6.89015e-09
1.04143e-05
-1.04222e-08
1.03984e-05
-5.96654e-08
1.03875e-05
-1.03612e-07
1.03773e-05
-2.1923e-07
1.0385e-05
-5.19462e-07
1.04145e-05
-7.77592e-07
-3.56471e-06
9.49965e-06
6.00174e-05
7.91109e-06
4.14583e-05
5.77019e-06
2.65262e-05
3.80926e-06
1.65236e-05
2.3124e-06
9.52046e-06
1.28146e-06
6.52636e-06
5.33308e-07
7.6926e-06
-1.01856e-07
1.13583e-05
-5.82017e-07
1.20101e-05
-7.45387e-07
7.4159e-06
-4.73785e-07
-4.82387e-07
2.01311e-07
-8.20126e-06
1.12732e-06
-1.32027e-05
2.12194e-06
-1.49042e-05
3.05326e-06
-1.43061e-05
3.8708e-06
-1.27619e-05
4.59114e-06
-1.1257e-05
5.26638e-06
-1.02238e-05
5.95114e-06
-9.66161e-06
6.67654e-06
-9.3164e-06
7.43509e-06
-8.86603e-06
8.18188e-06
-8.08605e-06
8.8544e-06
-6.95328e-06
9.40242e-06
-5.63661e-06
9.80943e-06
-4.37819e-06
1.00926e-05
-3.35211e-06
1.02858e-05
-2.60127e-06
1.0421e-05
-2.07204e-06
1.05196e-05
-1.68572e-06
1.0593e-05
-1.38492e-06
1.06473e-05
-1.1408e-06
1.06866e-05
-9.40871e-07
1.07145e-05
-7.77547e-07
1.07337e-05
-6.43655e-07
1.07465e-05
-5.32494e-07
1.07544e-05
-4.38694e-07
1.07584e-05
-3.58401e-07
1.07594e-05
-2.88945e-07
1.0758e-05
-2.28435e-07
1.07544e-05
-1.7549e-07
1.07491e-05
-1.29098e-07
1.07423e-05
-8.85276e-08
1.07341e-05
-5.32879e-08
1.07246e-05
-2.30415e-08
1.0714e-05
2.35618e-09
1.07023e-05
2.30651e-08
1.06895e-05
3.8906e-08
1.06759e-05
5.01768e-08
1.06614e-05
5.60251e-08
1.06462e-05
5.76837e-08
1.06304e-05
5.21474e-08
1.06144e-05
4.42331e-08
1.05978e-05
2.34118e-08
1.05823e-05
5.13083e-09
1.05662e-05
-4.36e-08
1.05548e-05
-9.22378e-08
1.0543e-05
-2.07377e-07
1.05475e-05
-5.24013e-07
1.05697e-05
-7.99752e-07
-3.57857e-06
9.68304e-06
6.03344e-05
8.33955e-06
4.28018e-05
6.36169e-06
2.8504e-05
4.41492e-06
1.84704e-05
2.83341e-06
1.1102e-05
1.70683e-06
7.65294e-06
9.25649e-07
8.47378e-06
3.35074e-07
1.19489e-05
-8.88914e-08
1.24341e-05
-2.1157e-07
7.53858e-06
7.07585e-08
-7.64715e-07
7.26187e-07
-8.85668e-06
1.6152e-06
-1.40917e-05
2.56153e-06
-1.58505e-05
3.43942e-06
-1.5184e-05
4.20084e-06
-1.35234e-05
4.86378e-06
-1.192e-05
5.48317e-06
-1.08432e-05
6.11854e-06
-1.0297e-05
6.80708e-06
-1.00049e-05
7.54604e-06
-9.60498e-06
8.29115e-06
-8.83116e-06
8.97528e-06
-7.63742e-06
9.54006e-06
-6.20138e-06
9.96124e-06
-4.79938e-06
1.0252e-05
-3.64291e-06
1.04465e-05
-2.7957e-06
1.05789e-05
-2.2045e-06
1.06731e-05
-1.77995e-06
1.0742e-05
-1.45379e-06
1.07921e-05
-1.19089e-06
1.08276e-05
-9.76406e-07
1.08521e-05
-8.01969e-07
1.08683e-05
-6.59851e-07
1.08784e-05
-5.4268e-07
1.08842e-05
-4.44438e-07
1.08866e-05
-3.60783e-07
1.08863e-05
-2.8872e-07
1.08841e-05
-2.26141e-07
1.08801e-05
-1.71514e-07
1.08747e-05
-1.23713e-07
1.08681e-05
-8.19239e-08
1.08604e-05
-4.55943e-08
1.08517e-05
-1.43452e-08
1.08421e-05
1.19999e-08
1.08315e-05
3.36132e-08
1.08201e-05
5.03347e-08
1.08078e-05
6.24379e-08
1.07947e-05
6.91044e-08
1.0781e-05
7.14607e-08
1.07665e-05
6.66514e-08
1.07516e-05
5.90813e-08
1.07361e-05
3.89147e-08
1.07213e-05
1.99415e-08
1.07056e-05
-2.79456e-08
1.06941e-05
-8.07296e-08
1.06814e-05
-1.94669e-07
1.06832e-05
-5.25756e-07
1.0699e-05
-8.15572e-07
-3.57528e-06
9.84036e-06
6.0494e-05
8.72749e-06
4.39146e-05
6.92969e-06
3.03018e-05
5.03122e-06
2.03689e-05
3.39164e-06
1.27416e-05
2.17702e-06
8.86755e-06
1.35676e-06
9.29404e-06
8.02006e-07
1.25036e-05
4.38284e-07
1.27978e-05
3.52887e-07
7.62397e-06
6.43055e-07
-1.05488e-06
1.28078e-06
-9.49441e-06
2.12861e-06
-1.49395e-05
3.02217e-06
-1.67441e-05
3.84271e-06
-1.60045e-05
4.54489e-06
-1.42255e-05
5.14738e-06
-1.25225e-05
5.70688e-06
-1.14027e-05
6.28727e-06
-1.08774e-05
6.93185e-06
-1.06495e-05
7.64336e-06
-1.03165e-05
8.37942e-06
-9.56722e-06
9.06945e-06
-8.32746e-06
9.64752e-06
-6.77945e-06
1.00815e-05
-5.23331e-06
1.03797e-05
-3.94117e-06
1.05757e-05
-2.99172e-06
1.07059e-05
-2.33461e-06
1.07961e-05
-1.87019e-06
1.08608e-05
-1.51848e-06
1.09071e-05
-1.23716e-06
1.09392e-05
-1.00854e-06
1.09606e-05
-8.23384e-07
1.09742e-05
-6.73442e-07
1.09822e-05
-5.50677e-07
1.09862e-05
-4.48419e-07
1.09872e-05
-3.61823e-07
1.0986e-05
-2.87554e-07
1.09832e-05
-2.23284e-07
1.0979e-05
-1.67325e-07
1.09737e-05
-1.18438e-07
1.09675e-05
-7.57268e-08
1.09605e-05
-3.85746e-08
1.09527e-05
-6.56028e-09
1.09442e-05
2.05266e-08
1.09349e-05
4.28731e-08
1.09249e-05
6.03396e-08
1.09142e-05
7.31799e-08
1.09027e-05
8.06098e-08
1.08905e-05
8.3658e-08
1.08775e-05
7.96126e-08
1.08641e-05
7.24913e-08
1.08499e-05
5.31126e-08
1.08361e-05
3.37109e-08
1.08213e-05
-1.30977e-08
1.081e-05
-6.94073e-08
1.0797e-05
-1.817e-07
1.07962e-05
-5.24975e-07
1.08067e-05
-8.26031e-07
-3.55673e-06
9.9749e-06
6.05191e-05
9.07613e-06
4.48134e-05
7.46895e-06
3.1909e-05
5.64946e-06
2.21884e-05
3.98054e-06
1.44105e-05
2.68988e-06
1.01582e-05
1.82611e-06
1.01578e-05
1.298e-06
1.30318e-05
9.90466e-07
1.31054e-05
9.45776e-07
7.66866e-06
1.24577e-06
-1.35488e-06
1.86263e-06
-1.01113e-05
2.6657e-06
-1.57426e-05
3.50231e-06
-1.75807e-05
4.26211e-06
-1.67643e-05
4.90287e-06
-1.48663e-05
5.44317e-06
-1.30628e-05
5.94031e-06
-1.18999e-05
6.46166e-06
-1.13987e-05
7.05649e-06
-1.12443e-05
7.73359e-06
-1.09936e-05
8.45365e-06
-1.02873e-05
9.14385e-06
-9.01766e-06
9.73144e-06
-7.36704e-06
1.01763e-05
-5.67817e-06
1.04816e-05
-4.24644e-06
1.06794e-05
-3.18953e-06
1.08075e-05
-2.46276e-06
1.08942e-05
-1.95682e-06
1.0955e-05
-1.57934e-06
1.09978e-05
-1.27996e-06
1.10269e-05
-1.03765e-06
1.10457e-05
-8.42194e-07
1.10571e-05
-6.8481e-07
1.10633e-05
-5.56839e-07
1.10658e-05
-4.50955e-07
1.10658e-05
-3.61798e-07
1.10639e-05
-2.85686e-07
1.10607e-05
-2.20063e-07
1.10565e-05
-1.63088e-07
1.10514e-05
-1.13409e-07
1.10457e-05
-7.00438e-08
1.10395e-05
-3.23147e-08
1.10327e-05
2.4452e-10
1.10253e-05
2.78782e-08
1.10174e-05
5.07917e-08
1.10089e-05
6.88667e-08
1.09997e-05
8.23414e-08
1.09899e-05
9.04667e-08
1.09793e-05
9.41826e-08
1.0968e-05
9.09131e-08
1.09562e-05
8.43189e-08
1.09435e-05
6.58231e-08
1.0931e-05
4.62345e-08
1.09172e-05
6.68119e-10
1.09063e-05
-5.85165e-08
1.08935e-05
-1.68905e-07
1.08905e-05
-5.21935e-07
1.08964e-05
-8.31963e-07
-3.52458e-06
1.00897e-05
6.04294e-05
9.38733e-06
4.55158e-05
7.97556e-06
3.33208e-05
6.2614e-06
2.39025e-05
4.59271e-06
1.60792e-05
3.24213e-06
1.15088e-05
2.33313e-06
1.10668e-05
1.82232e-06
1.35426e-05
1.56716e-06
1.33605e-05
1.56433e-06
7.6715e-06
1.87485e-06
-1.6654e-06
2.46916e-06
-1.07056e-05
3.22409e-06
-1.64975e-05
3.9998e-06
-1.83564e-05
4.69588e-06
-1.74604e-05
5.27375e-06
-1.54442e-05
5.7512e-06
-1.35402e-05
6.18487e-06
-1.23335e-05
6.64458e-06
-1.18585e-05
7.18514e-06
-1.17849e-05
7.8219e-06
-1.16304e-05
8.51959e-06
-1.0985e-05
9.20439e-06
-9.70246e-06
9.79756e-06
-7.96021e-06
1.02512e-05
-6.13183e-06
1.05628e-05
-4.55801e-06
1.07624e-05
-3.38917e-06
1.08889e-05
-2.58923e-06
1.09722e-05
-2.04015e-06
1.10296e-05
-1.63669e-06
1.10692e-05
-1.31963e-06
1.10957e-05
-1.0641e-06
1.11122e-05
-8.58751e-07
1.11217e-05
-6.94294e-07
1.11264e-05
-5.61472e-07
1.11277e-05
-4.52314e-07
1.11269e-05
-3.60937e-07
1.11245e-05
-2.83304e-07
1.1121e-05
-2.1663e-07
1.11169e-05
-1.58919e-07
1.11122e-05
-1.08708e-07
1.11071e-05
-6.49304e-08
1.11016e-05
-2.68465e-08
1.10958e-05
6.05514e-09
1.10896e-05
3.40541e-08
1.1083e-05
5.73754e-08
1.1076e-05
7.59235e-08
1.10684e-05
8.99258e-08
1.10602e-05
9.86685e-08
1.10513e-05
1.03012e-07
1.10417e-05
1.00509e-07