/*--------------------------------*- C++ -*----------------------------------*\
| =========                 |                                                 |
| \\      /  F ield         | OpenFOAM: The Open Source CFD Toolbox           |
|  \\    /   O peration     | Version:  2.4.0                                 |
|   \\  /    A nd           | Web:      www.OpenFOAM.org                      |
|    \\/     M anipulation  |                                                 |
\*---------------------------------------------------------------------------*/
FoamFile
{
    version     2.0;
    format      ascii;
    class       surfaceScalarField;
    location    "0.46";
    object      phi;
}
// * * * * * * * * * * * * * * * * * * * * * * * * * * * * * * * * * * * * * //

dimensions      [0 3 -1 0 0 0 0];

internalField   nonuniform List<scalar> 
11840
(
7.89886e-07
9.21011e-06
-1.34752e-08
8.03361e-07
-4.23407e-08
2.88655e-08
-7.56292e-08
3.32886e-08
-1.38688e-07
6.30591e-08
-2.66845e-07
1.28156e-07
-4.20044e-07
1.53199e-07
-4.88779e-07
6.87347e-08
-4.4544e-07
-4.33384e-08
-3.27892e-07
-1.17548e-07
-1.93965e-07
-1.33927e-07
-7.02739e-08
-1.23691e-07
3.9387e-08
-1.09661e-07
1.39515e-07
-1.00128e-07
2.31694e-07
-9.21784e-08
3.13985e-07
-8.22914e-08
3.84047e-07
-7.00618e-08
4.42051e-07
-5.80044e-08
4.90448e-07
-4.83968e-08
5.32017e-07
-4.15688e-08
5.68629e-07
-3.66119e-08
6.01256e-07
-3.26272e-08
6.30442e-07
-2.91859e-08
6.56611e-07
-2.61689e-08
6.80146e-07
-2.35355e-08
7.01379e-07
-2.12331e-08
7.20579e-07
-1.91994e-08
7.37958e-07
-1.73792e-08
7.53689e-07
-1.57314e-08
7.67915e-07
-1.42261e-08
7.80756e-07
-1.28408e-08
7.92315e-07
-1.15588e-08
8.02682e-07
-1.0367e-08
8.11937e-07
-9.25557e-09
8.20155e-07
-8.21751e-09
8.27403e-07
-7.24775e-09
8.33745e-07
-6.34276e-09
8.39247e-07
-5.50106e-09
8.43969e-07
-4.72213e-09
8.47975e-07
-4.00593e-09
8.51336e-07
-3.36098e-09
8.54109e-07
-2.77326e-09
8.56363e-07
-2.25424e-09
8.58176e-07
-1.81272e-09
8.59599e-07
-1.42288e-09
8.60746e-07
-1.14781e-09
8.61623e-07
-8.7628e-10
8.62464e-07
-8.41163e-10
8.6303e-07
-5.66127e-10
8.6408e-07
-1.04999e-09
8.64341e-07
-2.61298e-10
8.66648e-07
-2.30679e-09
8.6571e-07
9.37979e-10
8.72149e-07
-6.43883e-09
8.66255e-07
5.89432e-09
8.85492e-07
-1.92369e-08
8.63262e-07
2.22293e-08
9.23283e-07
-6.00205e-08
8.56062e-07
6.72209e-08
-2.45733e-07
1.93094e-06
1.72792e-05
1.26191e-07
2.60811e-06
-5.36015e-08
2.08658e-07
-1.87511e-07
1.67198e-07
-3.67497e-07
2.43045e-07
-6.92397e-07
4.53056e-07
-1.01826e-06
4.79058e-07
-1.12756e-06
1.78035e-07
-9.75219e-07
-1.95675e-07
-6.60906e-07
-4.31862e-07
-3.07717e-07
-4.87116e-07
2.30389e-08
-4.54447e-07
3.18845e-07
-4.05467e-07
5.84164e-07
-3.65447e-07
8.21383e-07
-3.29397e-07
1.02692e-06
-2.87827e-07
1.19852e-06
-2.41665e-07
1.33966e-06
-1.99141e-07
1.4575e-06
-1.66236e-07
1.55871e-06
-1.42786e-07
1.64753e-06
-1.25424e-07
1.72618e-06
-1.11284e-07
1.79607e-06
-9.9069e-08
1.8583e-06
-8.84018e-08
1.91387e-06
-7.91085e-08
1.96362e-06
-7.09793e-08
2.00821e-06
-6.37883e-08
2.04817e-06
-5.73455e-08
2.08395e-06
-5.15087e-08
2.1159e-06
-4.61744e-08
2.14432e-06
-4.12648e-08
2.16948e-06
-3.67204e-08
2.19161e-06
-3.24958e-08
2.21092e-06
-2.85572e-08
2.22758e-06
-2.48797e-08
2.24178e-06
-2.14461e-08
2.25368e-06
-1.82444e-08
2.26345e-06
-1.52697e-08
2.27124e-06
-1.25202e-08
2.27723e-06
-9.99663e-09
2.28158e-06
-7.70624e-09
2.28446e-06
-5.64972e-09
2.28604e-06
-3.83626e-09
2.28651e-06
-2.27925e-09
2.28604e-06
-9.54496e-10
2.28485e-06
3.63505e-11
2.28312e-06
8.53826e-10
2.28114e-06
1.14567e-09
2.27896e-06
1.613e-09
2.27716e-06
7.48177e-10
2.27527e-06
1.63186e-09
2.27503e-06
-2.07329e-09
2.27367e-06
2.29919e-09
2.27775e-06
-1.05198e-08
2.27551e-06
8.1358e-09
2.29184e-06
-3.5565e-08
2.28249e-06
3.15805e-08
2.34471e-06
-1.2224e-07
2.30162e-06
1.10306e-07
-6.24551e-07
2.93754e-06
2.43416e-05
4.33431e-07
5.11222e-06
1.6514e-09
6.40437e-07
-2.54094e-07
4.22943e-07
-5.48782e-07
5.37733e-07
-1.0287e-06
9.32973e-07
-1.45418e-06
9.04544e-07
-1.54824e-06
2.72087e-07
-1.26962e-06
-4.74288e-07
-7.74076e-07
-9.27409e-07
-2.28958e-07
-1.03223e-06
2.81863e-07
-9.65267e-07
7.41019e-07
-8.64624e-07
1.15259e-06
-7.77016e-07
1.51668e-06
-6.93494e-07
1.82794e-06
-5.99086e-07
2.08531e-06
-4.99029e-07
2.29616e-06
-4.09993e-07
2.47213e-06
-3.42208e-07
2.62317e-06
-2.93824e-07
2.75532e-06
-2.57573e-07
2.87183e-06
-2.27793e-07
2.9748e-06
-2.02037e-07
3.06597e-06
-1.7958e-07
3.1469e-06
-1.60038e-07
3.21887e-06
-1.42943e-07
3.28289e-06
-1.27814e-07
3.3398e-06
-1.14253e-07
3.39026e-06
-1.01967e-07
3.43482e-06
-9.07376e-08
3.47396e-06
-8.04034e-08
3.50808e-06
-7.0839e-08
3.53753e-06
-6.19491e-08
3.56264e-06
-5.36623e-08
3.58368e-06
-4.59261e-08
3.60094e-06
-3.8704e-08
3.61467e-06
-3.19707e-08
3.62511e-06
-2.57156e-08
3.63253e-06
-1.99345e-08
3.63716e-06
-1.46284e-08
3.63926e-06
-9.81091e-09
3.6391e-06
-5.48508e-09
3.63694e-06
-1.67275e-09
3.63306e-06
1.59619e-09
3.62776e-06
4.34364e-09
3.62134e-06
6.45674e-09
3.61414e-06
8.05188e-09
3.60647e-06
8.81749e-09
3.59875e-06
9.33379e-09
3.59122e-06
8.27873e-09
3.58451e-06
8.33912e-09
3.57861e-06
3.8306e-09
3.57469e-06
6.22318e-09
3.5722e-06
-8.03793e-09
3.57335e-06
6.99346e-09
3.57863e-06
-4.0846e-08
3.58819e-06
2.20199e-08
3.63022e-06
-1.64275e-07
3.63941e-06
1.01122e-07
-1.03028e-06
3.83603e-06
3.05056e-05
8.65591e-07
8.08266e-06
1.06361e-07
1.39967e-06
-2.67604e-07
7.96908e-07
-6.7115e-07
9.41279e-07
-1.26314e-06
1.52496e-06
-1.73239e-06
1.37379e-06
-1.77518e-06
3.1488e-07
-1.37021e-06
-8.79261e-07
-7.17599e-07
-1.58002e-06
-1.19517e-08
-1.73788e-06
6.51258e-07
-1.62848e-06
1.25242e-06
-1.46579e-06
1.7927e-06
-1.3173e-06
2.26809e-06
-1.16888e-06
2.67078e-06
-1.00178e-06
3.00077e-06
-8.29011e-07
3.26928e-06
-6.78506e-07
3.49235e-06
-5.65282e-07
3.68311e-06
-4.84576e-07
3.84929e-06
-4.23759e-07
3.99504e-06
-3.73536e-07
4.12305e-06
-3.30055e-07
4.23567e-06
-2.92197e-07
4.33494e-06
-2.59309e-07
4.42257e-06
-2.30575e-07
4.49993e-06
-2.05168e-07
4.56809e-06
-1.82415e-07
4.62794e-06
-1.61818e-07
4.68021e-06
-1.4301e-07
4.72553e-06
-1.25716e-07
4.76441e-06
-1.09722e-07
4.79733e-06
-9.48659e-08
4.82469e-06
-8.10228e-08
4.84686e-06
-6.81026e-08
4.8642e-06
-5.60415e-08
4.87702e-06
-4.47951e-08
4.88565e-06
-3.43426e-08
4.89039e-06
-2.46759e-08
4.89156e-06
-1.57959e-08
4.88947e-06
-7.72306e-09
4.88445e-06
-4.60875e-10
4.87684e-06
5.93779e-09
4.86698e-06
1.14517e-08
4.85527e-06
1.60558e-08
4.84207e-06
1.96525e-08
4.82785e-06
2.2273e-08
4.81296e-06
2.37069e-08
4.79804e-06
2.42547e-08
4.78323e-06
2.30879e-08
4.76974e-06
2.18342e-08
4.75678e-06
1.67898e-08
4.74748e-06
1.55201e-08
4.73795e-06
1.49665e-09
4.73738e-06
7.56177e-09
4.73391e-06
-3.7377e-08
4.75143e-06
4.4968e-09
4.78016e-06
-1.93002e-07
4.82448e-06
5.68055e-08
-1.42921e-06
4.6482e-06
3.58574e-05
1.3927e-06
1.13382e-05
2.89417e-07
2.50295e-06
-2.24185e-07
1.31051e-06
-7.27752e-07
1.44485e-06
-1.39337e-06
2.19058e-06
-1.86509e-06
1.84551e-06
-1.83877e-06
2.88558e-07
-1.32001e-06
-1.39802e-06
-5.39899e-07
-2.36013e-06
2.94487e-07
-2.57227e-06
1.08333e-06
-2.41732e-06
1.80575e-06
-2.1882e-06
2.45836e-06
-1.96991e-06
3.03188e-06
-1.74239e-06
3.51479e-06
-1.48469e-06
3.90689e-06
-1.22112e-06
4.22267e-06
-9.94285e-07
4.48258e-06
-8.25198e-07
4.70324e-06
-7.05235e-07
4.89432e-06
-6.14832e-07
5.06082e-06
-5.4004e-07
5.20602e-06
-4.75258e-07
5.33277e-06
-4.1894e-07
5.4436e-06
-3.70138e-07
5.54063e-06
-3.27612e-07
5.62556e-06
-2.90098e-07
5.69972e-06
-2.56571e-07
5.76418e-06
-2.26281e-07
5.81985e-06
-1.98675e-07
5.86746e-06
-1.73333e-07
5.90767e-06
-1.49928e-07
5.94102e-06
-1.28212e-07
5.96799e-06
-1.07993e-07
5.98901e-06
-8.91307e-08
6.0045e-06
-7.15226e-08
6.0148e-06
-5.50986e-08
6.02028e-06
-3.98231e-08
6.02128e-06
-2.56779e-08
6.01815e-06
-1.26633e-08
6.01123e-06
-8.03735e-10
6.00088e-06
9.8861e-09
5.98748e-06
1.93406e-08
5.97141e-06
2.75205e-08
5.9531e-06
3.43621e-08
5.93298e-06
3.97736e-08
5.91157e-06
4.36899e-08
5.88927e-06
4.60034e-08
5.86683e-06
4.66988e-08
5.84442e-06
4.54928e-08
5.82346e-06
4.27996e-08
5.80304e-06
3.72052e-08
5.78691e-06
3.16499e-08
5.77028e-06
1.81281e-08
5.76468e-06
1.31586e-08
5.75415e-06
-2.68489e-08
5.77165e-06
-1.3001e-08
5.79188e-06
-2.13235e-07
5.8562e-06
-7.51291e-09
-1.79971e-06
5.38432e-06
4.04731e-05
1.98657e-06
1.47359e-05
5.49256e-07
3.94027e-06
-1.21039e-07
1.98081e-06
-7.15133e-07
2.03894e-06
-1.42251e-06
2.89796e-06
-1.8694e-06
2.29241e-06
-1.77049e-06
1.89641e-07
-1.15848e-06
-2.01003e-06
-2.82219e-07
-3.23638e-06
6.49925e-07
-3.50441e-06
1.5388e-06
-3.3062e-06
2.36168e-06
-3.01108e-06
3.11091e-06
-2.71915e-06
3.7713e-06
-2.40279e-06
4.32589e-06
-2.03928e-06
4.77222e-06
-1.66745e-06
5.12681e-06
-1.34887e-06
5.41452e-06
-1.11291e-06
5.65604e-06
-9.46757e-07
5.86346e-06
-8.22248e-07
6.04284e-06
-7.19421e-07
6.19797e-06
-6.30391e-07
6.33215e-06
-5.53123e-07
6.4484e-06
-4.86382e-07
6.54923e-06
-4.28449e-07
6.63667e-06
-3.7753e-07
6.71227e-06
-3.32175e-07
6.77731e-06
-2.91322e-07
6.83283e-06
-2.54191e-07
6.87968e-06
-2.20186e-07
6.9186e-06
-1.88847e-07
6.9502e-06
-1.59814e-07
6.97502e-06
-1.32815e-07
6.99354e-06
-1.07643e-07
7.00616e-06
-8.41476e-08
7.01329e-06
-6.22247e-08
7.01528e-06
-4.18131e-08
7.01248e-06
-2.2882e-08
7.00524e-06
-5.42701e-09
6.99391e-06
1.05285e-08
6.97884e-06
2.4955e-08
6.96041e-06
3.77763e-08
6.939e-06
4.89322e-08
6.91504e-06
5.83189e-08
6.88897e-06
6.58389e-08
6.86133e-06
7.13333e-08
6.83256e-06
7.477e-08
6.80342e-06
7.58436e-08
6.77418e-06
7.4734e-08
6.74622e-06
7.07597e-08
6.71887e-06
6.45487e-08
6.69573e-06
5.47991e-08
6.67248e-06
4.13721e-08
6.66027e-06
2.53692e-08
6.64392e-06
-1.04971e-08
6.65648e-06
-2.55587e-08
6.671e-06
-2.27763e-07
6.74376e-06
-8.02665e-08
-2.1297e-06
6.04987e-06
4.44232e-05
2.62369e-06
1.81621e-05
8.84787e-07
5.67917e-06
4.34883e-08
2.8221e-06
-6.32766e-07
2.71519e-06
-1.35728e-06
3.62247e-06
-1.76402e-06
2.69914e-06
-1.5991e-06
2.47218e-08
-9.18265e-07
-2.69087e-06
2.37087e-08
-4.17836e-06
1.02462e-06
-4.50532e-06
1.98814e-06
-4.26972e-06
2.89029e-06
-3.91323e-06
3.72051e-06
-3.54937e-06
4.45764e-06
-3.13992e-06
5.07737e-06
-2.65901e-06
5.5724e-06
-2.16248e-06
5.95946e-06
-1.73592e-06
6.26753e-06
-1.42098e-06
6.52206e-06
-1.20128e-06
6.73825e-06
-1.03844e-06
6.92355e-06
-9.04725e-07
7.0823e-06
-7.89135e-07
7.21817e-06
-6.88993e-07
7.3346e-06
-6.02819e-07
7.43454e-06
-5.28387e-07
7.5203e-06
-4.63289e-07
7.59369e-06
-4.0556e-07
7.65613e-06
-3.53765e-07
7.70879e-06
-3.06854e-07
7.75263e-06
-2.64028e-07
7.78845e-06
-2.24663e-07
7.81691e-06
-1.88272e-07
7.83857e-06
-1.5448e-07
7.85393e-06
-1.23004e-07
7.86342e-06
-9.36321e-08
7.86741e-06
-6.62149e-08
7.86625e-06
-4.06589e-08
7.86029e-06
-1.69159e-08
7.84982e-06
5.0389e-09
7.83518e-06
2.51689e-08
7.81669e-06
4.3448e-08
7.79468e-06
5.97851e-08
7.76951e-06
7.40985e-08
7.74159e-06
8.62457e-08
7.71131e-06
9.61125e-08
7.67919e-06
1.03455e-07
7.64568e-06
1.0828e-07
7.61148e-06
1.10042e-07
7.57697e-06
1.0925e-07
7.54337e-06
1.04355e-07
7.51038e-06
9.75457e-08
7.48104e-06
8.4139e-08
7.45217e-06
7.02353e-08
7.43318e-06
4.43618e-08
7.41205e-06
1.06329e-08
7.41729e-06
-3.0798e-08
7.42755e-06
-2.38021e-07
7.50066e-06
-1.53383e-07
-2.41413e-06
6.64866e-06
4.77745e-05
3.28449e-06
2.15263e-05
1.29186e-06
7.6718e-06
2.74705e-07
3.83926e-06
-4.8229e-07
3.47219e-06
-1.20643e-06
4.34662e-06
-1.56701e-06
3.05972e-06
-1.34865e-06
-1.93638e-07
-6.23807e-07
-3.41571e-06
3.56144e-07
-5.15831e-06
1.399e-06
-5.54818e-06
2.41213e-06
-5.28284e-06
3.37199e-06
-4.87309e-06
4.26715e-06
-4.44452e-06
5.07103e-06
-3.9438e-06
5.75048e-06
-3.33846e-06
6.29054e-06
-2.70255e-06
6.70581e-06
-2.1512e-06
7.02867e-06
-1.74385e-06
7.28985e-06
-1.46246e-06
7.5085e-06
-1.25709e-06
7.69394e-06
-1.09017e-06
7.85112e-06
-9.46315e-07
7.98406e-06
-8.2193e-07
8.09657e-06
-7.15327e-07
8.19196e-06
-6.2378e-07
8.27287e-06
-5.44194e-07
8.3413e-06
-4.73998e-07
8.39886e-06
-4.11316e-07
8.44679e-06
-3.54786e-07
8.48613e-06
-3.0337e-07
8.51773e-06
-2.5626e-07
8.54227e-06
-2.12819e-07
8.56035e-06
-1.72555e-07
8.57244e-06
-1.35094e-07
8.57896e-06
-1.00152e-07
8.58027e-06
-6.75264e-08
8.57669e-06
-3.70803e-08
8.56852e-06
-8.7431e-09
8.55602e-06
1.75371e-08
8.53947e-06
4.17166e-08
8.51914e-06
6.37772e-08
8.49531e-06
8.36158e-08
8.46828e-06
1.01131e-07
8.43838e-06
1.16145e-07
8.40597e-06
1.28519e-07
8.3715e-06
1.37935e-07
8.33537e-06
1.44404e-07
8.29822e-06
1.47195e-07
8.26046e-06
1.47012e-07
8.22313e-06
1.41677e-07
8.18625e-06
1.34424e-07
8.15225e-06
1.18146e-07
8.11917e-06
1.03316e-07
8.09424e-06
6.92862e-08
8.06939e-06
3.54898e-08
8.06677e-06
-2.81848e-08
8.0735e-06
-2.4475e-07
8.14181e-06
-2.21688e-07
-2.6527e-06
7.18432e-06
5.05902e-05
3.95262e-06
2.4758e-05
1.76297e-06
9.86146e-06
5.67741e-07
5.03448e-06
-2.6628e-07
4.30621e-06
-9.79436e-07
5.05977e-06
-1.29444e-06
3.37472e-06
-1.03759e-06
-4.50491e-07
-2.91006e-07
-4.16229e-06
7.02405e-07
-6.15172e-06
1.76272e-06
-6.6085e-06
2.80126e-06
-6.32138e-06
3.79729e-06
-5.86912e-06
4.7407e-06
-5.38794e-06
5.60075e-06
-4.80385e-06
6.33462e-06
-4.07233e-06
6.91715e-06
-3.28508e-06
7.35817e-06
-2.59221e-06
7.69213e-06
-2.07781e-06
7.95527e-06
-1.7256e-06
8.17151e-06
-1.47333e-06
8.35259e-06
-1.27125e-06
8.50428e-06
-1.098e-06
8.63087e-06
-9.4852e-07
8.73648e-06
-8.20937e-07
8.82476e-06
-7.12066e-07
8.89864e-06
-6.18074e-07
8.96033e-06
-5.35689e-07
9.01154e-06
-4.62524e-07
9.05361e-06
-3.96856e-07
9.08762e-06
-3.37384e-07
9.11445e-06
-2.83089e-07
9.1348e-06
-2.33169e-07
9.14925e-06
-1.87002e-07
9.15827e-06
-1.44109e-07
9.16224e-06
-1.04126e-07
9.1615e-06
-6.67863e-08
9.15633e-06
-3.19078e-08
9.14696e-06
6.19632e-10
9.13364e-06
3.08622e-08
9.11656e-06
5.87958e-08
9.09593e-06
8.44044e-08
9.07197e-06
1.07581e-07
9.04489e-06
1.28207e-07
9.01496e-06
1.46074e-07
8.98246e-06
1.61017e-07
8.94774e-06
1.72656e-07
8.91117e-06
1.80981e-07
8.87324e-06
1.85121e-07
8.83439e-06
1.85864e-07
8.79545e-06
1.80611e-07
8.75669e-06
1.73189e-07
8.71991e-06
1.54928e-07
8.68426e-06
1.3896e-07
8.65489e-06
9.86628e-08
8.62745e-06
6.29283e-08
8.61766e-06
-1.83973e-08
8.62133e-06
-2.48423e-07
8.68193e-06
-2.82289e-07
-2.84784e-06
7.66073e-06
5.29295e-05
4.61453e-06
2.78042e-05
2.28844e-06
1.21876e-05
9.22744e-07
6.40018e-06
1.13372e-08
5.21762e-06
-6.85492e-07
5.7566e-06
-9.59596e-07
3.64882e-06
-6.78692e-07
-7.31395e-07
6.95588e-08
-4.91054e-06
1.05683e-06
-7.13899e-06
2.11269e-06
-7.66436e-06
3.15411e-06
-7.3628e-06
4.16535e-06
-6.88036e-06
5.13986e-06
-6.36245e-06
6.04449e-06
-5.70848e-06
6.82683e-06
-4.85467e-06
7.44958e-06
-3.90783e-06
7.9151e-06
-3.05772e-06
8.25817e-06
-2.42089e-06
8.52026e-06
-1.98769e-06
8.73066e-06
-1.68373e-06
8.90419e-06
-1.44477e-06
9.04766e-06
-1.24147e-06
9.16565e-06
-1.06651e-06
9.2625e-06
-9.17783e-07
9.34214e-06
-7.91709e-07
9.40775e-06
-6.83687e-07
9.46173e-06
-5.89666e-07
9.50588e-06
-5.06671e-07
9.5416e-06
-4.32575e-07
9.57e-06
-3.65782e-07
9.59195e-06
-3.05046e-07
9.60817e-06
-2.49386e-07
9.61921e-06
-1.98038e-07
9.62551e-06
-1.5041e-07
9.62743e-06
-1.06051e-07
9.62527e-06
-6.46264e-08
9.61927e-06
-2.59007e-08
9.6096e-06
1.0281e-08
9.59646e-06
4.40011e-08
9.57999e-06
7.5267e-08
9.56033e-06
1.04067e-07
9.53762e-06
1.30295e-07
9.512e-06
1.53821e-07
9.48366e-06
1.74414e-07
9.4528e-06
1.91882e-07
9.41966e-06
2.05796e-07
9.38453e-06
2.16109e-07
9.3478e-06
2.21852e-07
9.30985e-06
2.23813e-07
9.27132e-06
2.19137e-07
9.23262e-06
2.11891e-07
9.19502e-06
1.9253e-07
9.15853e-06
1.7545e-07
9.12647e-06
1.3072e-07
9.09767e-06
9.1728e-08
9.0821e-06
-2.82077e-09
9.08315e-06
-2.4948e-07
9.13483e-06
-3.33963e-07
-3.00335e-06
8.08207e-06
5.48474e-05
5.25919e-06
3.0627e-05
2.85722e-06
1.45895e-05
1.33702e-06
7.92038e-06
3.49557e-07
6.20508e-06
-3.32986e-07
6.43914e-06
-5.72584e-07
3.88842e-06
-2.79463e-07
-1.02452e-06
4.53973e-07
-5.64398e-06
1.4185e-06
-8.10352e-06
2.4508e-06
-8.69666e-06
3.47491e-06
-8.38691e-06
4.4817e-06
-7.88715e-06
5.47015e-06
-7.35089e-06
6.40676e-06
-6.64509e-06
7.23049e-06
-5.67839e-06
7.89082e-06
-4.56816e-06
8.38021e-06
-3.54712e-06
8.73169e-06
-2.77236e-06
8.99118e-06
-2.24718e-06
9.1937e-06
-1.88625e-06
9.35768e-06
-1.60876e-06
9.49132e-06
-1.3751e-06
9.59949e-06
-1.17468e-06
9.68667e-06
-1.00496e-06
9.75701e-06
-8.62052e-07
9.81391e-06
-7.40585e-07
9.8599e-06
-6.3566e-07
9.89687e-06
-5.43643e-07
9.92625e-06
-4.61956e-07
9.94916e-06
-3.88687e-07
9.96646e-06
-3.22347e-07
9.97884e-06
-2.61765e-07
9.98683e-06
-2.06028e-07
9.99084e-06
-1.54427e-07
9.99121e-06
-1.06418e-07
9.98818e-06
-6.1595e-08
9.98195e-06
-1.96685e-08
9.97266e-06
1.95662e-08
9.96045e-06
5.62141e-08
9.9454e-06
9.03164e-08
9.92759e-06
1.21872e-07
9.90711e-06
1.5078e-07
9.88403e-06
1.76905e-07
9.85844e-06
1.99999e-07
9.83047e-06
2.1985e-07
9.80028e-06
2.3599e-07
9.76806e-06
2.48331e-07
9.73408e-06
2.55835e-07
9.69865e-06
2.5924e-07
9.66223e-06
2.55554e-07
9.62529e-06
2.48835e-07
9.58865e-06
2.2917e-07
9.55291e-06
2.11184e-07
9.51996e-06
1.63668e-07
9.49101e-06
1.20678e-07
9.47136e-06
1.68326e-08
9.4703e-06
-2.48418e-07
9.51298e-06
-3.7664e-07
-3.12357e-06
8.4527e-06
5.63947e-05
5.87793e-06
3.32018e-05
3.45761e-06
1.70098e-05
1.80655e-06
9.57145e-06
7.42815e-07
7.26881e-06
7.03829e-08
7.11158e-06
-1.40032e-07
4.09884e-06
1.53516e-07
-1.31806e-06
8.61732e-07
-6.35219e-06
1.78917e-06
-9.03095e-06
2.78177e-06
-9.68925e-06
3.77112e-06
-9.37626e-06
4.7557e-06
-8.87173e-06
5.74151e-06
-8.3367e-06
6.69687e-06
-7.60045e-06
7.55367e-06
-6.53519e-06
8.24805e-06
-5.26255e-06
8.76072e-06
-4.05978e-06
9.1207e-06
-3.13234e-06
9.37724e-06
-2.50372e-06
9.57101e-06
-2.08002e-06
9.7245e-06
-1.76225e-06
9.84759e-06
-1.4982e-06
9.94555e-06
-1.27263e-06
1.00229e-05
-1.08232e-06
1.0084e-05
-9.23122e-07
1.01323e-05
-7.88922e-07
1.01706e-05
-6.73919e-07
1.02007e-05
-5.73758e-07
1.02241e-05
-4.85369e-07
1.02419e-05
-4.06501e-07
1.0255e-05
-3.35413e-07
1.0264e-05
-2.70738e-07
1.02693e-05
-2.11408e-07
1.02715e-05
-1.56594e-07
1.02707e-05
-1.05662e-07
1.02673e-05
-5.81288e-08
1.02613e-05
-1.36529e-08
1.02528e-05
2.80228e-08
1.0242e-05
6.70313e-08
1.02289e-05
1.03448e-07
1.02134e-05
1.37286e-07
1.01958e-05
1.68456e-07
1.01759e-05
1.9682e-07
1.01537e-05
2.22123e-07
1.01294e-05
2.44136e-07
1.01031e-05
2.62366e-07
1.00747e-05
2.76683e-07
1.00445e-05
2.86007e-07
1.00128e-05
2.90995e-07
9.97974e-06
2.88601e-07
9.94586e-06
2.82718e-07
9.91162e-06
2.63408e-07
9.87798e-06
2.44827e-07
9.84574e-06
1.95909e-07
9.81774e-06
1.48677e-07
9.79576e-06
3.88122e-08
9.79311e-06
-2.45767e-07
9.82747e-06
-4.10997e-07
-3.21282e-06
8.77705e-06
5.76177e-05
6.46418e-06
3.55147e-05
4.07784e-06
1.93962e-05
2.32578e-06
1.13235e-05
1.18868e-06
8.40591e-06
5.23276e-07
7.77698e-06
3.30688e-07
4.29143e-06
6.18601e-07
-1.60598e-06
1.29242e-06
-7.02601e-06
2.17148e-06
-9.91001e-06
3.11123e-06
-1.0629e-05
4.05132e-06
-1.03163e-05
4.99821e-06
-9.81863e-06
5.96599e-06
-9.30449e-06
6.92674e-06
-8.5612e-06
7.80732e-06
-7.41577e-06
8.53119e-06
-5.98642e-06
9.06608e-06
-4.59467e-06
9.43502e-06
-3.50128e-06
9.68906e-06
-2.75776e-06
9.87411e-06
-2.26507e-06
1.0017e-05
-1.90512e-06
1.01295e-05
-1.61075e-06
1.02175e-05
-1.36059e-06
1.02854e-05
-1.15027e-06
1.03377e-05
-9.75431e-07
1.03781e-05
-8.29266e-07
1.04092e-05
-7.0504e-07
1.04331e-05
-5.9762e-07
1.04511e-05
-5.03407e-07
1.04644e-05
-4.19793e-07
1.04738e-05
-3.44779e-07
1.04798e-05
-2.76798e-07
1.0483e-05
-2.14628e-07
1.04838e-05
-1.5732e-07
1.04823e-05
-1.04147e-07
1.04787e-05
-5.45537e-08
1.04732e-05
-8.14434e-09
1.04658e-05
3.53872e-08
1.04566e-05
7.62086e-08
1.04456e-05
1.14427e-07
1.04329e-05
1.50074e-07
1.04182e-05
1.83073e-07
1.04018e-05
2.1329e-07
1.03834e-05
2.40471e-07
1.03632e-05
2.64374e-07
1.03411e-05
2.84492e-07
1.03171e-05
3.00659e-07
1.02913e-05
3.11769e-07
1.02639e-05
3.1839e-07
1.02351e-05
3.17476e-07
1.02051e-05
3.12667e-07
1.01743e-05
2.94213e-07
1.01437e-05
2.75384e-07
1.01135e-05
2.26158e-07
1.00874e-05
1.7482e-07
1.00646e-05
6.15295e-08
1.00609e-05
-2.42044e-07
1.0088e-05
-4.38124e-07
-3.27511e-06
9.05948e-06
5.85582e-05
7.0133e-06
3.75609e-05
4.70657e-06
2.17029e-05
2.88767e-06
1.31424e-05
1.68368e-06
9.60989e-06
1.017e-06
8.44367e-06
8.37789e-07
4.47064e-06
1.11412e-06
-1.88231e-06
1.74622e-06
-7.65811e-06
2.56792e-06
-1.07317e-05
3.44448e-06
-1.15056e-05
4.32366e-06
-1.11955e-05
5.21988e-06
-1.07148e-05
6.15589e-06
-1.02405e-05
7.10916e-06
-9.51446e-06
8.00364e-06
-8.31026e-06
8.75144e-06
-6.73421e-06
9.30685e-06
-5.15009e-06
9.68515e-06
-3.87958e-06
9.93758e-06
-3.01019e-06
1.01146e-05
-2.44207e-06
1.02473e-05
-2.03784e-06
1.03498e-05
-1.71324e-06
1.04284e-05
-1.43917e-06
1.04877e-05
-1.20955e-06
1.0532e-05
-1.01979e-06
1.05652e-05
-8.62433e-07
1.05899e-05
-7.29815e-07
1.06083e-05
-6.1598e-07
1.06217e-05
-5.16768e-07
1.06311e-05
-4.29201e-07
1.06373e-05
-3.51015e-07
1.0641e-05
-2.80445e-07
1.06424e-05
-2.16115e-07
1.06421e-05
-1.5696e-07
1.06401e-05
-1.02162e-07
1.06366e-05
-5.10957e-08
1.06318e-05
-3.31104e-09
1.06257e-05
4.15422e-08
1.06182e-05
8.3671e-08
1.06094e-05
1.23211e-07
1.05993e-05
1.60215e-07
1.05877e-05
1.94622e-07
1.05747e-05
2.26306e-07
1.05602e-05
2.55019e-07
1.0544e-05
2.80513e-07
1.05262e-05
3.02276e-07
1.05068e-05
3.20112e-07
1.04856e-05
3.32903e-07
1.04629e-05
3.41131e-07
1.04386e-05
3.41781e-07
1.04131e-05
3.38205e-07
1.03863e-05
3.20959e-07
1.03595e-05
3.02213e-07
1.03321e-05
2.53497e-07
1.03085e-05
1.98448e-07
1.02864e-05
8.36744e-08
1.0282e-05
-2.37688e-07
1.03032e-05
-4.59275e-07
-3.31403e-06
9.30427e-06
5.92539e-05
7.52232e-06
3.93428e-05
5.33332e-06
2.38919e-05
3.48396e-06
1.49918e-05
2.22372e-06
1.08701e-05
1.54969e-06
9.11769e-06
1.37765e-06
4.64267e-06
1.63777e-06
-2.14243e-06
2.22278e-06
-8.24312e-06
2.98019e-06
-1.14891e-05
3.7857e-06
-1.23111e-05
4.59501e-06
-1.20048e-05
5.4301e-06
-1.15499e-05
6.32252e-06
-1.11329e-05
7.25635e-06
-1.04483e-05
8.15479e-06
-9.2087e-06
8.92023e-06
-7.49965e-06
9.49372e-06
-5.72357e-06
9.88149e-06
-4.26735e-06
1.01334e-05
-3.26205e-06
1.03033e-05
-2.61207e-06
1.04268e-05
-2.16124e-06
1.052e-05
-1.80647e-06
1.05901e-05
-1.50924e-06
1.06416e-05
-1.2611e-06
1.0679e-05
-1.05714e-06
1.07059e-05
-8.89347e-07
1.07252e-05
-7.49115e-07
1.07388e-05
-6.29641e-07
1.07482e-05
-5.26177e-07
1.07544e-05
-4.35364e-07
1.07581e-05
-3.54673e-07
1.07598e-05
-2.82144e-07
1.07599e-05
-2.1625e-07
1.07587e-05
-1.55812e-07
1.07565e-05
-9.99243e-08
1.07533e-05
-4.78972e-08
1.07492e-05
7.73225e-10
1.07443e-05
4.6478e-08
1.07385e-05
8.94631e-08
1.07318e-05
1.29892e-07
1.07242e-05
1.67837e-07
1.07156e-05
2.03257e-07
1.07058e-05
2.36039e-07
1.06949e-05
2.65941e-07
1.06827e-05
2.9272e-07
1.06691e-05
3.15862e-07
1.06541e-05
3.3515e-07
1.06375e-05
3.49468e-07
1.06194e-05
3.59215e-07
1.05998e-05
3.61431e-07
1.05788e-05
3.59172e-07
1.05564e-05
3.43356e-07
1.05336e-05
3.24985e-07
1.05098e-05
2.77358e-07
1.04891e-05
2.19142e-07
1.04685e-05
1.04265e-07
1.04638e-05
-2.33031e-07
1.04802e-05
-4.75684e-07
-3.33268e-06
9.51551e-06
5.97384e-05
7.98966e-06
4.08687e-05
5.94869e-06
2.59329e-05
4.10552e-06
1.68349e-05
2.80381e-06
1.21718e-05
2.11841e-06
9.80309e-06
1.94755e-06
4.81354e-06
2.18732e-06
-2.3822e-06
2.72104e-06
-8.77685e-06
3.40888e-06
-1.2177e-05
4.1376e-06
-1.30398e-05
4.87052e-06
-1.27378e-05
5.63645e-06
-1.23159e-05
6.47547e-06
-1.19719e-05
7.37923e-06
-1.13521e-05
8.27201e-06
-1.01015e-05
9.04842e-06
-8.27607e-06
9.6369e-06
-6.31205e-06
1.00338e-05
-4.66425e-06
1.02861e-05
-3.51431e-06
1.04502e-05
-2.77625e-06
1.05654e-05
-2.27639e-06
1.06503e-05
-1.8914e-06
1.07128e-05
-1.57177e-06
1.07576e-05
-1.3059e-06
1.0789e-05
-1.08847e-06
1.08106e-05
-9.10947e-07
1.08253e-05
-7.63805e-07
1.0835e-05
-6.39382e-07
1.08412e-05
-5.32324e-07
1.08447e-05
-4.3888e-07
1.08463e-05
-3.5626e-07
1.08464e-05
-2.82309e-07
1.08455e-05
-2.15355e-07
1.08438e-05
-1.5411e-07
1.08415e-05
-9.75873e-08
1.08386e-05
-4.50332e-08
1.08353e-05
4.10536e-09
1.08315e-05
5.02587e-08
1.08273e-05
9.37085e-08
1.08225e-05
1.34645e-07
1.08172e-05
1.73161e-07
1.08112e-05
2.09236e-07
1.08045e-05
2.42771e-07
1.07969e-05
2.73537e-07
1.07883e-05
3.01298e-07
1.07786e-05
3.25545e-07
1.07677e-05
3.4605e-07
1.07555e-05
3.61707e-07
1.07419e-05
3.72842e-07
1.07267e-05
3.76563e-07
1.07103e-05
3.7564e-07
1.06922e-05
3.61375e-07
1.06736e-05
3.43613e-07
1.06535e-05
2.97463e-07
1.0636e-05
2.36696e-07
1.06176e-05
1.2264e-07
1.06128e-05
-2.283e-07
1.06256e-05
-4.88433e-07
-3.33372e-06
9.69706e-06
6.00413e-05
8.41499e-06
4.21507e-05
6.5446e-06
2.78033e-05
4.74271e-06
1.86368e-05
3.41796e-06
1.34966e-05
2.71991e-06
1.05011e-05
2.54474e-06
4.9887e-06
2.76014e-06
-2.5976e-06
3.23912e-06
-9.25583e-06
3.85345e-06
-1.27913e-05
4.50143e-06
-1.36878e-05
5.15356e-06
-1.33899e-05
5.84453e-06
-1.30068e-05
6.62242e-06
-1.27498e-05
7.48692e-06
-1.22166e-05
8.36512e-06
-1.09797e-05
9.14576e-06
-9.05671e-06
9.74566e-06
-6.91196e-06
1.01509e-05
-5.06949e-06
1.04043e-05
-3.7677e-06
1.05638e-05
-2.93579e-06
1.06719e-05
-2.38441e-06
1.07495e-05
-1.96904e-06
1.08055e-05
-1.62772e-06
1.08445e-05
-1.34493e-06
1.08708e-05
-1.11474e-06
1.08879e-05
-9.28121e-07
1.08988e-05
-7.74694e-07
1.09054e-05
-6.45923e-07
1.09089e-05
-5.35833e-07
1.09103e-05
-4.4028e-07
1.09102e-05
-3.56212e-07
1.09092e-05
-2.81286e-07
1.09075e-05
-2.13692e-07
1.09055e-05
-1.52035e-07
1.09031e-05
-9.52511e-08
1.09006e-05
-4.25292e-08
1.0898e-05
6.73046e-09
1.08953e-05
5.29947e-08
1.08924e-05
9.65775e-08
1.08893e-05
1.37694e-07
1.0886e-05
1.7646e-07
1.08824e-05
2.12871e-07
1.08783e-05
2.46848e-07
1.08737e-05
2.78176e-07
1.08684e-05
3.06629e-07
1.08622e-05
3.31713e-07
1.08551e-05
3.53192e-07
1.08468e-05
3.69978e-07
1.08373e-05
3.82337e-07
1.08264e-05
3.87454e-07
1.08142e-05
3.87835e-07
1.08004e-05
3.75158e-07
1.07858e-05
3.58183e-07
1.07696e-05
3.13755e-07
1.07552e-05
2.51063e-07
1.07394e-05
1.38418e-07
1.07347e-05
-2.23638e-07
1.07447e-05
-4.98397e-07
-3.31947e-06
9.85254e-06
6.01888e-05
8.79893e-06
4.32043e-05
7.11437e-06
2.94878e-05
5.38578e-06
2.03654e-05
4.05909e-06
1.48233e-05
3.35027e-06
1.121e-05
3.16615e-06
5.17283e-06
3.3532e-06
-2.78465e-06
3.77443e-06
-9.67705e-06
4.31237e-06
-1.33292e-05
4.87714e-06
-1.42525e-05
5.44591e-06
-1.39587e-05
6.05815e-06
-1.36191e-05
6.76907e-06
-1.34607e-05
7.5867e-06
-1.30342e-05
8.44231e-06
-1.18353e-05
9.22065e-06
-9.83505e-06
9.82815e-06
-7.51946e-06
1.02405e-05
-5.48186e-06
1.04955e-05
-4.02269e-06
1.06515e-05
-3.09176e-06
1.07534e-05
-2.48639e-06
1.08248e-05
-2.04038e-06
1.08751e-05
-1.67804e-06
1.09093e-05
-1.37909e-06
1.09313e-05
-1.13679e-06
1.09449e-05
-9.41666e-07
1.09527e-05
-7.82497e-07
1.09566e-05
-6.49891e-07
1.0958e-05
-5.37245e-07
1.09578e-05
-4.40017e-07
1.09565e-05
-3.54899e-07
1.09545e-05
-2.79364e-07
1.09523e-05
-2.11467e-07
1.095e-05
-1.49717e-07
1.09477e-05
-9.29752e-08
1.09456e-05
-4.03765e-08
1.09436e-05
8.72199e-09
1.09417e-05
5.48198e-08
1.09401e-05
9.82607e-08
1.09385e-05
1.39283e-07
1.09369e-05
1.78022e-07
1.09353e-05
2.14495e-07
1.09335e-05
2.48637e-07
1.09314e-05
2.80254e-07
1.09289e-05
3.09132e-07
1.09258e-05
3.34794e-07
1.0922e-05
3.57004e-07
1.09173e-05
3.74702e-07
1.09115e-05
3.88102e-07
1.09045e-05
3.94471e-07
1.08963e-05
3.96079e-07
1.08865e-05
3.84969e-07
1.08758e-05
3.68898e-07
1.08632e-05
3.26333e-07
1.08519e-05
2.62308e-07
1.08389e-05
1.51439e-07
1.08344e-05
-2.19135e-07
1.08422e-05
-5.0622e-07
-3.2919e-06
9.98532e-06
6.02035e-05
9.1429e-06
4.40468e-05
7.65277e-06
3.0978e-05
6.02529e-06
2.19929e-05
4.7192e-06
1.61294e-05
4.0047e-06
1.19245e-05
3.80818e-06
5.36935e-06
3.96297e-06
-2.93943e-06
4.32376e-06
-1.00378e-05
4.7833e-06
-1.37888e-05
5.26364e-06
-1.47329e-05
5.74805e-06
-1.44431e-05
6.27953e-06
-1.41506e-05
6.9194e-06
-1.41006e-05
7.68405e-06
-1.37988e-05
8.51011e-06
-1.26613e-05
9.28007e-06
-1.0605e-05
9.89126e-06
-8.13065e-06
1.03092e-05
-5.89985e-06
1.0566e-05
-4.2794e-06
1.07192e-05
-3.24501e-06
1.08161e-05
-2.58329e-06
1.0882e-05
-2.10631e-06
1.09275e-05
-1.72353e-06
1.09576e-05
-1.40916e-06
1.09762e-05
-1.15537e-06
1.09868e-05
-9.52264e-07
1.09921e-05
-7.87825e-07
1.0994e-05
-6.51816e-07
1.09938e-05
-5.37009e-07
1.09923e-05
-4.38464e-07
1.099e-05
-3.52617e-07
1.09874e-05
-2.76766e-07
1.09847e-05
-2.08839e-07
1.09823e-05
-1.47249e-07
1.09801e-05
-9.07901e-08
1.09783e-05
-3.85462e-08
1.09768e-05
1.01652e-08
1.09758e-05
5.58734e-08
1.09751e-05
9.89488e-08
1.09747e-05
1.39651e-07
1.09746e-05
1.78134e-07
1.09747e-05
2.14433e-07
1.09748e-05
2.48502e-07
1.09749e-05
2.80166e-07
1.09748e-05
3.09225e-07
1.09744e-05
3.35226e-07
1.09734e-05
3.57934e-07
1.09718e-05
3.76324e-07
1.09693e-05
3.90569e-07
1.09658e-05
3.98026e-07
1.09611e-05
4.00748e-07
1.0955e-05
3.91137e-07
1.09478e-05
3.76034e-07
1.09388e-05
3.35396e-07
1.09305e-05
2.70572e-07
1.09202e-05
1.61699e-07
1.09159e-05
-2.14845e-07
1.09221e-05
-5.12338e-07
-3.25275e-06
1.00985e-05
6.0105e-05
9.44893e-06
4.46963e-05
8.15595e-06
3.2271e-05
6.65245e-06
2.34964e-05
5.38964e-06
1.73922e-05
4.67738e-06
1.26367e-05
4.46655e-06
5.58018e-06
4.58544e-06
-3.05833e-06
4.88344e-06
-1.03358e-05
5.26333e-06
-1.41687e-05
5.65908e-06
-1.51286e-05
6.05943e-06
-1.48434e-05
6.50963e-06
-1.46008e-05
7.07595e-06
-1.46669e-05
7.78292e-06
-1.45058e-05
8.57353e-06
-1.34519e-05
9.32958e-06
-1.13611e-05
9.94063e-06
-8.7417e-06
1.03625e-05
-6.32172e-06
1.06208e-05
-4.53771e-06
1.0772e-05
-3.3962e-06
1.08647e-05
-2.67597e-06
1.0926e-05
-2.16761e-06
1.09674e-05
-1.76491e-06
1.0994e-05
-1.4358e-06
1.10097e-05
-1.17111e-06
1.1018e-05
-9.60483e-07
1.10213e-05
-7.91178e-07
1.10216e-05
-6.5213e-07
1.10201e-05
-5.35487e-07
1.10176e-05
-4.35915e-07
1.10145e-05
-3.496e-07
1.10114e-05
-2.73668e-07
1.10085e-05
-2.05925e-07
1.1006e-05
-1.44694e-07
1.10039e-05
-8.87074e-08
1.10023e-05
-3.70003e-08
1.10014e-05
1.11458e-08
1.10009e-05
5.62873e-08
1.10011e-05
9.8818e-08
1.10017e-05
1.39017e-07
1.10028e-05
1.77054e-07
1.10042e-05
2.12985e-07
1.1006e-05
2.46779e-07
1.10078e-05
2.7828e-07
1.10098e-05
3.07307e-07
1.10116e-05
3.33427e-07
1.10131e-05
3.56417e-07
1.10141e-05
3.75286e-07
1.10145e-05
3.90179e-07
1.1014e-05
3.98546e-07
1.10125e-05
4.02248e-07
1.10096e-05
3.9403e-07
1.10057e-05
3.7991e-07
1.09999e-05
3.41206e-07
1.09944e-05
2.76048e-07
1.09868e-05
1.69307e-07
1.09828e-05
-2.10798e-07
1.09875e-05
-5.17016e-07
-3.20355e-06
1.01948e-05
5.99102e-05
9.71948e-06
4.51716e-05