/*--------------------------------*- C++ -*----------------------------------*\
| =========                 |                                                 |
| \\      /  F ield         | OpenFOAM: The Open Source CFD Toolbox           |
|  \\    /   O peration     | Version:  2.4.0                                 |
|   \\  /    A nd           | Web:      www.OpenFOAM.org                      |
|    \\/     M anipulation  |                                                 |
\*---------------------------------------------------------------------------*/
FoamFile
{
    version     2.0;
    format      ascii;
    class       volScalarField;
    location    "1.22";
    object      p;
}
// * * * * * * * * * * * * * * * * * * * * * * * * * * * * * * * * * * * * * //

dimensions      [0 2 -2 0 0 0 0];

internalField   nonuniform List<scalar> 
6000
(
0.29026
0.284846
0.282352
0.281484
0.280601
0.279512
0.278428
0.277425
0.276482
0.275576
0.274701
0.273858
0.273047
0.272264
0.271504
0.270763
0.27004
0.269332
0.268636
0.26795
0.267274
0.266605
0.265943
0.265287
0.264637
0.263992
0.263354
0.262722
0.262098
0.261482
0.260877
0.260285
0.259709
0.259151
0.258618
0.258115
0.257649
0.25723
0.256869
0.256582
0.256387
0.256309
0.256377
0.25663
0.257115
0.257895
0.259044
0.260658
0.262858
0.26579
0.269637
0.27462
0.281003
0.289081
0.299197
0.311593
0.326677
0.343697
0.364303
0.379013
0.28632
0.284061
0.282305
0.28148
0.280667
0.279651
0.278598
0.2776
0.27665
0.275732
0.274842
0.273985
0.27316
0.272364
0.271592
0.270843
0.270111
0.269396
0.268694
0.268003
0.267321
0.266648
0.265982
0.265322
0.264669
0.264021
0.26338
0.262746
0.262119
0.261502
0.260895
0.260302
0.259724
0.259165
0.258631
0.258126
0.257659
0.257239
0.256876
0.256587
0.25639
0.256309
0.256374
0.256622
0.257102
0.257874
0.259014
0.260617
0.262802
0.265716
0.26954
0.274494
0.280841
0.288875
0.298941
0.311289
0.326353
0.343374
0.364282
0.378845
0.286169
0.284556
0.282618
0.281509
0.280632
0.279614
0.27855
0.277545
0.276598
0.275687
0.274806
0.273957
0.273139
0.27235
0.271584
0.270839
0.270112
0.2694
0.268701
0.268012
0.267333
0.266662
0.265998
0.26534
0.264688
0.264042
0.263402
0.262768
0.262142
0.261525
0.260918
0.260324
0.259745
0.259185
0.258649
0.258143
0.257673
0.25725
0.256884
0.256591
0.256389
0.256302
0.256359
0.256599
0.257068
0.257826
0.258948
0.260528
0.262684
0.26556
0.269334
0.274222
0.280481
0.288397
0.298304
0.310439
0.325222
0.341886
0.362438
0.376358
0.285516
0.284119
0.282377
0.281305
0.280487
0.279537
0.278517
0.277539
0.276614
0.275718
0.274845
0.274
0.273182
0.272391
0.271622
0.270873
0.270141
0.269424
0.26872
0.268028
0.267345
0.266671
0.266003
0.265343
0.264689
0.264042
0.263401
0.262766
0.26214
0.261523
0.260916
0.260322
0.259743
0.259183
0.258647
0.25814
0.257669
0.257244
0.256875
0.256578
0.25637
0.256275
0.256321
0.256547
0.256998
0.257733
0.258826
0.260369
0.262475
0.265288
0.268981
0.273763
0.279881
0.287612
0.297272
0.309078
0.323413
0.339503
0.359203
0.372228
0.284958
0.283874
0.282375
0.281301
0.280464
0.279532
0.278528
0.277554
0.276631
0.275737
0.274864
0.274018
0.2732
0.272407
0.271637
0.270887
0.270154
0.269436
0.268732
0.268038
0.267355
0.266679
0.266012
0.265351
0.264696
0.264048
0.263406
0.262771
0.262144
0.261525
0.260917
0.260322
0.259741
0.25918
0.258641
0.258131
0.257656
0.257226
0.256852
0.256547
0.256331
0.256224
0.256256
0.256464
0.256891
0.257596
0.25865
0.260142
0.262185
0.264914
0.268498
0.273138
0.279072
0.28656
0.295899
0.307285
0.321057
0.33645
0.355076
0.367201
0.28449
0.283635
0.282309
0.281233
0.280382
0.279479
0.278503
0.277544
0.27663
0.275744
0.274878
0.274036
0.273219
0.272427
0.271657
0.270906
0.270172
0.269452
0.268746
0.268051
0.267366
0.266689
0.26602
0.265358
0.264702
0.264053
0.26341
0.262774
0.262146
0.261526
0.260917
0.26032
0.259738
0.259175
0.258634
0.258121
0.257642
0.257207
0.256826
0.256513
0.256286
0.256165
0.25618
0.256365
0.256763
0.257431
0.258437
0.259868
0.261832
0.264459
0.26791
0.272377
0.278085
0.285276
0.294225
0.305104
0.318205
0.332784
0.35019
0.361491
0.284086
0.283393
0.282217
0.281168
0.280318
0.27944
0.27849
0.277545
0.276638
0.275757
0.274895
0.274055
0.273239
0.272447
0.271676
0.270923
0.270187
0.269467
0.268759
0.268062
0.267375
0.266697
0.266027
0.265364
0.264707
0.264057
0.263413
0.262776
0.262147
0.261527
0.260916
0.260318
0.259735
0.259169
0.258625
0.258108
0.257625
0.257185
0.256796
0.256474
0.256235
0.256099
0.256094
0.256254
0.25662
0.257247
0.2582
0.259563
0.261437
0.26395
0.267252
0.271525
0.276977
0.283833
0.292338
0.302638
0.314973
0.328626
0.344687
0.355242
0.283733
0.28316
0.282117
0.281107
0.280259
0.2794
0.278474
0.277541
0.276641
0.275766
0.274908
0.274071
0.273256
0.272464
0.271692
0.270939
0.270202
0.26948
0.268771
0.268073
0.267385
0.266705
0.266034
0.26537
0.264712
0.264061
0.263416
0.262778
0.262148
0.261527
0.260915
0.260315
0.25973
0.259162
0.258615
0.258094
0.257606
0.257159
0.256763
0.25643
0.256177
0.256025
0.255999
0.256131
0.256462
0.257043
0.257938
0.259226
0.261005
0.263393
0.266535
0.270598
0.275777
0.282275
0.290308
0.299992
0.311508
0.324166
0.338797
0.348632
0.283423
0.282939
0.282011
0.281046
0.280203
0.27936
0.278455
0.277537
0.276643
0.275774
0.274921
0.274086
0.273273
0.272481
0.271709
0.270954
0.270216
0.269493
0.268782
0.268083
0.267393
0.266713
0.26604
0.265375
0.264716
0.264064
0.263419
0.26278
0.262149
0.261526
0.260913
0.260312
0.259724
0.259153
0.258603
0.258078
0.257585
0.257131
0.256726
0.256382
0.256115
0.255944
0.255894
0.255996
0.256289
0.256821
0.257653
0.25886
0.260535
0.262791
0.26576
0.269602
0.274493
0.280617
0.288163
0.297215
0.307897
0.319546
0.332733
0.341794
0.283149
0.282734
0.281903
0.280985
0.28015
0.279321
0.278436
0.277532
0.276646
0.275781
0.274932
0.2741
0.273287
0.272496
0.271723
0.270968
0.270229
0.269504
0.268793
0.268092
0.267402
0.26672
0.266046
0.26538
0.26472
0.264067
0.263421
0.262781
0.262149
0.261525
0.26091
0.260307
0.259717
0.259143
0.25859
0.25806
0.257561
0.257099
0.256685
0.256329
0.256046
0.255855
0.25578
0.25585
0.256101
0.256581
0.257346
0.258467
0.260032
0.262145
0.264933
0.26854
0.27313
0.278867
0.285912
0.294325
0.304175
0.314832
0.326616
0.334814
0.282906
0.282544
0.281795
0.280923
0.280101
0.279283
0.278417
0.277526
0.276647
0.275787
0.274942
0.274112
0.273301
0.27251
0.271737
0.270981
0.270241
0.269516
0.268803
0.268101
0.267409
0.266727
0.266052
0.265385
0.264724
0.26407
0.263423
0.262782
0.262149
0.261523
0.260907
0.260302
0.259709
0.259133
0.258575
0.25804
0.257535
0.257065
0.256641
0.256271
0.255972
0.25576
0.255658
0.255694
0.255901
0.256325
0.257018
0.258048
0.259495
0.261459
0.264056
0.267418
0.271695
0.277031
0.283565
0.291333
0.300357
0.310043
0.320496
0.327759
0.28269
0.28237
0.28169
0.280862
0.280054
0.279248
0.278397
0.277519
0.276647
0.275792
0.274951
0.274124
0.273314
0.272523
0.27175
0.270993
0.270253
0.269526
0.268812
0.268109
0.267416
0.266733
0.266057
0.265389
0.264727
0.264072
0.263424
0.262782
0.262148
0.261521
0.260903
0.260296
0.259701
0.259121
0.258559
0.258019
0.257507
0.257029
0.256593
0.25621
0.255893
0.255659
0.255528
0.255527
0.255688
0.256052
0.25667
0.257603
0.258928
0.260735
0.263132
0.26624
0.270192
0.275117
0.281129
0.288248
0.296455
0.305192
0.314392
0.320689
0.282498
0.282211
0.281588
0.280803
0.28001
0.279214
0.278378
0.277512
0.276647
0.275797
0.274959
0.274134
0.273325
0.272535
0.271761
0.271005
0.270263
0.269535
0.26882
0.268117
0.267423
0.266738
0.266062
0.265393
0.26473
0.264074
0.263425
0.262782
0.262146
0.261518
0.260898
0.260289
0.259691
0.259108
0.258541
0.257996
0.257477
0.25699
0.256543
0.256145
0.25581
0.255552
0.255391
0.255351
0.255464
0.255765
0.256304
0.257136
0.258332
0.259976
0.262164
0.265008
0.268626
0.27313
0.278614
0.28508
0.292478
0.300287
0.308311
0.313651
0.282327
0.282067
0.281493
0.280745
0.279969
0.279183
0.278359
0.277505
0.276647
0.2758
0.274965
0.274143
0.273336
0.272545
0.271772
0.271015
0.270272
0.269544
0.268828
0.268123
0.267429
0.266743
0.266066
0.265396
0.264733
0.264076
0.263425
0.262781
0.262144
0.261515
0.260893
0.260281
0.259681
0.259093
0.258523
0.257972
0.257445
0.256948
0.256489
0.256076
0.255722
0.255439
0.255246
0.255167
0.255228
0.255465
0.25592
0.256647
0.25771
0.259183
0.261157
0.263728
0.267003
0.271077
0.276025
0.281837
0.288437
0.295337
0.302257
0.306673
0.282176
0.281937
0.281403
0.28069
0.27993
0.279154
0.278342
0.277497
0.276646
0.275804
0.274972
0.274151
0.273345
0.272555
0.271782
0.271024
0.270281
0.269552
0.268835
0.26813
0.267434
0.266748
0.26607
0.265399
0.264734
0.264077
0.263425
0.26278
0.262142
0.261511
0.260887
0.260273
0.259669
0.259078
0.258503
0.257946
0.257411
0.256905
0.256433
0.256004
0.255629
0.255321
0.255095
0.254974
0.254982
0.255151
0.255521
0.256139
0.257063
0.258361
0.260112
0.262404
0.265327
0.268964
0.273371
0.278527
0.284339
0.29035
0.296232
0.299769
0.282042
0.281821
0.281321
0.280638
0.279895
0.279128
0.278325
0.27749
0.276645
0.275806
0.274977
0.274158
0.273353
0.272564
0.27179
0.271032
0.270289
0.269559
0.268842
0.268135
0.267439
0.266752
0.266073
0.265401
0.264736
0.264077
0.263425
0.262779
0.262139
0.261506
0.260881
0.260264
0.259657
0.259062
0.258482
0.257918
0.257376
0.256859
0.256374
0.255929
0.255533
0.255198
0.254938
0.254773
0.254726
0.254826
0.255106
0.255612
0.256393
0.25751
0.259034
0.261039
0.263604
0.266796
0.270658
0.275158
0.280191
0.285334
0.290234
0.292941
0.281924
0.281718
0.281246
0.28059
0.279862
0.279104
0.27831
0.277483
0.276644
0.275809
0.274981
0.274165
0.273361
0.272572
0.271798
0.27104
0.270296
0.269565
0.268847
0.26814
0.267443
0.266755
0.266075
0.265403
0.264737
0.264078
0.263424
0.262777
0.262136
0.261501
0.260874
0.260254
0.259644
0.259045
0.25846
0.25789
0.257339
0.256812
0.256313
0.255851
0.255433
0.25507
0.254776
0.254566
0.254462
0.254489
0.254679
0.255068
0.255703
0.256635
0.257925
0.259638
0.261838
0.26458
0.267893
0.271736
0.276
0.280293
0.284263
0.286185
0.281822
0.281627
0.281179
0.280547
0.279833
0.279082
0.278296
0.277476
0.276643
0.27581
0.274985
0.27417
0.273367
0.272578
0.271805
0.271046
0.270302
0.269571
0.268852
0.268144
0.267447
0.266758
0.266078
0.265404
0.264738
0.264077
0.263423
0.262775
0.262132
0.261496
0.260866
0.260244
0.259631
0.259028
0.258437
0.25786
0.257301
0.256762
0.25625
0.25577
0.25533
0.254939
0.254608
0.254353
0.25419
0.254144
0.254239
0.25451
0.254994
0.255737
0.256789
0.258204
0.260034
0.262321
0.265081
0.268268
0.271771
0.275231
0.278313
0.279494
0.281735
0.281549
0.281121
0.280508
0.279807
0.279063
0.278283
0.27747
0.276641
0.275812
0.274989
0.274175
0.273373
0.272584
0.271811
0.271052
0.270307
0.269576
0.268856
0.268148
0.26745
0.266761
0.266079
0.265405
0.264738
0.264077
0.263421
0.262772
0.262128
0.26149
0.260858
0.260233
0.259617
0.259009
0.258413
0.257829
0.257261
0.256712
0.256185
0.255687
0.255224
0.254804
0.254436
0.254134
0.253912
0.25379
0.253789
0.253939
0.25427
0.25482
0.25563
0.256742
0.258198
0.260025
0.262229
0.26476
0.267508
0.27015
0.27238
0.272857
0.281661
0.281483
0.28107
0.280474
0.279784
0.279047
0.278272
0.277465
0.27664
0.275813
0.274991
0.274179
0.273377
0.272589
0.271816
0.271057
0.270312
0.26958
0.26886
0.268151
0.267452
0.266762
0.266081
0.265406
0.264738
0.264076
0.26342
0.262769
0.262123
0.261484
0.26085
0.260222
0.259602
0.25899
0.258388
0.257797
0.25722
0.25666
0.256119
0.255602
0.255116
0.254665
0.25426
0.25391
0.253627
0.253428
0.25333
0.253357
0.253532
0.253886
0.25445
0.255257
0.256333
0.257697
0.259343
0.261217
0.263215
0.265051
0.266459
0.266262
0.2816
0.281428
0.281028
0.280446
0.279765
0.279033
0.278263
0.27746
0.276639
0.275814
0.274994
0.274182
0.273381
0.272593
0.27182
0.271061
0.270315
0.269583
0.268863
0.268154
0.267454
0.266764
0.266081
0.265406
0.264737
0.264075
0.263417
0.262765
0.262118
0.261477
0.260841
0.260211
0.259587
0.258971
0.258363
0.257765
0.257179
0.256606
0.256051
0.255516
0.255005
0.254525
0.254081
0.253682
0.253338
0.25306
0.252864
0.252765
0.252783
0.252939
0.253254
0.253751
0.254445
0.255342
0.256427
0.257644
0.258895
0.259934
0.260542
0.259695
0.281552
0.281384
0.280994
0.280423
0.279749
0.279022
0.278256
0.277457
0.276638
0.275815
0.274995
0.274185
0.273384
0.272597
0.271823
0.271064
0.270318
0.269586
0.268865
0.268155
0.267456
0.266765
0.266082
0.265406
0.264736
0.264073
0.263415
0.262761
0.262113
0.26147
0.260831
0.260199
0.259571
0.25895
0.258337
0.257732
0.257136
0.256552
0.255982
0.255427
0.254893
0.254382
0.253899
0.253451
0.253044
0.252688
0.252391
0.252166
0.252025
0.25198
0.252045
0.25223
0.252539
0.252966
0.253487
0.254045
0.254552
0.254798
0.254621
0.253141
0.281516
0.281352
0.280969
0.280405
0.279738
0.279014
0.27825
0.277454
0.276637
0.275815
0.274997
0.274186
0.273386
0.272599
0.271826
0.271066
0.27032
0.269587
0.268867
0.268157
0.267456
0.266765
0.266082
0.265405
0.264735
0.264071
0.263412
0.262757
0.262108
0.261462
0.260822
0.260186
0.259555
0.25893
0.25831
0.257698
0.257093
0.256497
0.255911
0.255338
0.254779
0.254237
0.253715
0.253217
0.252748
0.252312
0.251914
0.251562
0.25126
0.251014
0.250826
0.250697
0.250619
0.250574
0.250529
0.250426
0.250187
0.249642
0.248689
0.246586
0.281492
0.28133
0.280952
0.280394
0.27973
0.279008
0.278246
0.277452
0.276636
0.275815
0.274998
0.274188
0.273388
0.272601
0.271827
0.271068
0.270322
0.269589
0.268867
0.268157
0.267457
0.266765
0.266081
0.265404
0.264733
0.264068
0.263408
0.262753
0.262102
0.261455
0.260812
0.260173
0.259539
0.258909
0.258283
0.257663
0.257049
0.256441
0.25584
0.255248
0.254664
0.254091
0.25353
0.252982
0.252449
0.251933
0.251434
0.250954
0.250491
0.250042
0.249601
0.249157
0.24869
0.248171
0.247558
0.246791
0.245803
0.244464
0.242736
0.240012
0.28148
0.28132
0.280943
0.280388
0.279726
0.279006
0.278245
0.277451
0.276636
0.275815
0.274998
0.274188
0.273389
0.272601
0.271828
0.271068
0.270322
0.269589
0.268867
0.268157
0.267456
0.266764
0.26608
0.265403
0.264731
0.264066
0.263405
0.262748
0.262095
0.261447
0.260802
0.26016
0.259522
0.258887
0.258256
0.257629
0.257005
0.256385
0.255769
0.255157
0.254549
0.253944
0.253344
0.252746
0.252149
0.251553
0.250952
0.250344
0.249719
0.249068
0.248374
0.247614
0.246757
0.245762
0.244579
0.243144
0.241402
0.239262
0.236753
0.233403
0.28148
0.28132
0.280943
0.280388
0.279726
0.279006
0.278245
0.277451
0.276636
0.275815
0.274998
0.274188
0.273388
0.272601
0.271827
0.271068
0.270322
0.269588
0.268867
0.268156
0.267455
0.266763
0.266079
0.265401
0.264729
0.264062
0.263401
0.262743
0.262089
0.261439
0.260791
0.260147
0.259505
0.258866
0.258229
0.257594
0.25696
0.256328
0.255697
0.255065
0.254433
0.253797
0.253157
0.252509
0.251849
0.251173
0.250471
0.249734
0.248948
0.248095
0.247147
0.246072
0.244825
0.243354
0.241597
0.239489
0.236986
0.234033
0.23073
0.226739
0.281492
0.28133
0.280952
0.280394
0.27973
0.279008
0.278246
0.277451
0.276636
0.275815
0.274997
0.274187
0.273388
0.2726
0.271826
0.271067
0.270321
0.269587
0.268866
0.268155
0.267454
0.266761
0.266077
0.265398
0.264726
0.264059
0.263396
0.262738
0.262082
0.26143
0.260781
0.260133
0.259488
0.258844
0.258201
0.257559
0.256916
0.256272
0.255625
0.254974
0.254317
0.253651
0.252971
0.252273
0.25155
0.250793
0.249991
0.249127
0.24818
0.247125
0.245925
0.244535
0.242898
0.24095
0.238618
0.235832
0.232556
0.228775
0.224656
0.220004
0.281516
0.281352
0.280969
0.280405
0.279737
0.279014
0.27825
0.277453
0.276637
0.275815
0.274996
0.274186
0.273386
0.272598
0.271824
0.271065
0.270319
0.269585
0.268864
0.268153
0.267452
0.266759
0.266074
0.265396
0.264723
0.264055
0.263392
0.262732
0.262075
0.261421
0.26077
0.26012
0.259471
0.258822
0.258173
0.257523
0.256871
0.256215
0.255553
0.254883
0.254202
0.253505
0.252786
0.252038
0.251253
0.250417
0.249514
0.248523
0.247417
0.246162
0.24471
0.243007
0.240983
0.238557
0.235647
0.232176
0.228116
0.223484
0.218522
0.213176
0.281552
0.281384
0.280994
0.280423
0.279749
0.279022
0.278256
0.277456
0.276638
0.275814
0.274995
0.274184
0.273383
0.272596
0.271822
0.271062
0.270316
0.269583
0.268861
0.26815
0.267449
0.266757
0.266071
0.265393
0.26472
0.264051
0.263387
0.262726
0.262068
0.261413
0.260759
0.260106
0.259453
0.2588
0.258146
0.257488
0.256827
0.256159
0.255482
0.254793
0.254087
0.25336
0.252602
0.251806
0.250958
0.250043
0.249041
0.247925
0.246662
0.245208
0.243508
0.241493
0.239082
0.23618
0.23269
0.228528
0.223667
0.21816
0.212315
0.206235
0.2816
0.281428
0.281028
0.280446
0.279765
0.279033
0.278263
0.27746
0.276638
0.275813
0.274993
0.274181
0.27338
0.272592
0.271818
0.271058
0.270312
0.269579
0.268858
0.268147
0.267446
0.266753
0.266068
0.265389
0.264716
0.264047
0.263382
0.26272
0.262061
0.261404
0.260748
0.260092
0.259436
0.258778
0.258118
0.257453
0.256783
0.256103
0.255412
0.254704
0.253974
0.253216
0.252421
0.251576
0.250667
0.249675
0.248575
0.247335
0.245916
0.244266
0.24232
0.239997
0.237203
0.233826
0.229754
0.224892
0.219212
0.212799
0.206025
0.199159
0.281661
0.281483
0.28107
0.280474
0.279784
0.279047
0.278272
0.277465
0.27664
0.275812
0.274991
0.274178
0.273376
0.272588
0.271814
0.271054
0.270308
0.269575
0.268854
0.268143
0.267443
0.26675
0.266065
0.265385
0.264712
0.264042
0.263377
0.262714
0.262054
0.261395
0.260736
0.260078
0.259418
0.258756
0.258091
0.257419
0.256739
0.256048
0.255342
0.254616
0.253863
0.253075
0.252242
0.25135
0.25038
0.249312
0.248116
0.246755
0.245183
0.243339
0.241151
0.238524
0.235349
0.231499
0.226844
0.221274
0.214756
0.207401
0.199639
0.191924
0.281735
0.281549
0.28112
0.280508
0.279806
0.279063
0.278283
0.27747
0.276641
0.275811
0.274988
0.274174
0.273371
0.272582
0.271808
0.271049
0.270303
0.26957
0.268849
0.268139
0.267438
0.266746
0.26606
0.265381
0.264707
0.264037
0.263371
0.262708
0.262046
0.261385
0.260725
0.260064
0.259401
0.258735
0.258063
0.257385
0.256696
0.255994
0.255273
0.254529
0.253753
0.252936
0.252066
0.251127
0.250099
0.248956
0.247666
0.246186
0.244463
0.242431
0.240004
0.237077
0.233526
0.229206
0.223967
0.217681
0.210304
0.201965
0.193146
0.184507
0.281822
0.281627
0.281179
0.280547
0.279832
0.279082
0.278295
0.277476
0.276642
0.275809
0.274984
0.274169
0.273365
0.272576
0.271802
0.271043
0.270297
0.269565
0.268844
0.268134
0.267434
0.266741
0.266056
0.265377
0.264702
0.264032
0.263365
0.262701
0.262038
0.261376
0.260714
0.26005
0.259384
0.258713
0.258037
0.257351
0.256654
0.25594
0.255206
0.254444
0.253646
0.252801
0.251895
0.25091
0.249825
0.248609
0.247226
0.24563
0.243761
0.241543
0.238882
0.235662
0.23174
0.226954
0.221131
0.214121
0.205859
0.19649
0.186534
0.176879
0.281924
0.281718
0.281246
0.28059
0.279862
0.279103
0.278309
0.277482
0.276643
0.275808
0.27498
0.274163
0.273359
0.272569
0.271795
0.271035
0.27029
0.269558
0.268838
0.268129
0.267428
0.266736
0.266051
0.265372
0.264697
0.264027
0.26336
0.262694
0.26203
0.261367
0.260703
0.260036
0.259367
0.258692
0.25801
0.257318
0.256612
0.255888
0.25514
0.254361
0.253541
0.252668
0.251727
0.250699
0.249557
0.248271
0.246798
0.245089
0.243077
0.240678
0.23779
0.234282
0.229996
0.224749
0.218344
0.210602
0.201431
0.19098
0.17979
0.169014
0.282042
0.281821
0.281321
0.280638
0.279894
0.279127
0.278324
0.277489
0.276644
0.275805
0.274975
0.274157
0.273351
0.272561
0.271787
0.271028
0.270283
0.269551
0.268831
0.268122
0.267423
0.266731
0.266046
0.265367
0.264692
0.264021
0.263353
0.262688
0.262023
0.261358
0.260691
0.260023
0.25935
0.258672
0.257985
0.257286
0.256572
0.255837
0.255076
0.25428
0.253439
0.25254
0.251565
0.250494
0.249298
0.247943
0.246384
0.244565
0.242414
0.23984
0.23673
0.232941
0.228298
0.222598
0.215613
0.207133
0.197026
0.185437
0.172904
0.160883
0.282175
0.281937
0.281403
0.28069
0.27993
0.279154
0.278341
0.277497
0.276645
0.275802
0.27497
0.274149
0.273342
0.272552
0.271778
0.271019
0.270274
0.269543
0.268824
0.268116
0.267416
0.266725
0.26604
0.265361
0.264687
0.264016
0.263347
0.262681
0.262015
0.261348
0.26068
0.26001
0.259334
0.258651
0.257959
0.257255
0.256533
0.255788
0.255014
0.254202
0.25334
0.252415
0.251408
0.250295
0.249047
0.247626
0.245983
0.244058
0.241774
0.239031
0.235706
0.231645
0.226654
0.220508
0.212948
0.203725
0.192655
0.179868
0.165865
0.152453
0.282327
0.282067
0.281492
0.280745
0.279968
0.279183
0.278359
0.277504
0.276646
0.275799
0.274964
0.274141
0.273333
0.272542
0.271768
0.271009
0.270265
0.269535
0.268816
0.268108
0.267409
0.266718
0.266034
0.265355
0.264681
0.26401
0.263341
0.262674
0.262007
0.261339
0.260669
0.259996
0.259318
0.258632
0.257935
0.257224
0.256494
0.25574
0.254954
0.254127
0.253245
0.252296
0.251257
0.250105
0.248807
0.247322
0.245599
0.243572
0.241159
0.238253
0.234722
0.230397
0.225069
0.218487
0.210357
0.200389
0.18833
0.174281
0.158662
0.143694
0.282498
0.282211
0.281588
0.280802
0.28001
0.279214
0.278377
0.277511
0.276646
0.275795
0.274957
0.274131
0.273322
0.272531
0.271757
0.270999
0.270255
0.269525
0.268808
0.2681
0.267402
0.266712
0.266028
0.265349
0.264675
0.264003
0.263334
0.262666
0.261999
0.26133
0.260659
0.259983
0.259302
0.258612
0.257911
0.257195
0.256458
0.255694
0.254896
0.254054
0.253154
0.252181
0.251113
0.249923
0.248577
0.247031
0.245231
0.243107
0.240571
0.23751
0.23378
0.229201
0.223547
0.216541
0.207852
0.197139
0.184066
0.168689
0.151288
0.13457
0.28269
0.28237
0.281689
0.280862
0.280053
0.279247
0.278397
0.277518
0.276646
0.275791
0.274949
0.274121
0.273311
0.272519
0.271745
0.270987
0.270244
0.269515
0.268798
0.268092
0.267394
0.266704
0.266021
0.265343
0.264668
0.263997
0.263328
0.262659
0.261991
0.261321
0.260648
0.259971
0.259287
0.258594
0.257888
0.257166
0.256422
0.25565
0.254841
0.253985
0.253067
0.252072
0.250975
0.249749
0.248358
0.246755
0.244882
0.242665
0.240012
0.236802
0.232884
0.228063
0.222096
0.21468
0.205443
0.193988
0.17988
0.163108
0.143738
0.125049
0.282906
0.282544
0.281795
0.280923
0.2801
0.279283
0.278416
0.277525
0.276646
0.275785
0.27494
0.27411
0.273298
0.272506
0.271732
0.270975
0.270233
0.269504
0.268788
0.268083
0.267386
0.266697
0.266014
0.265336
0.264662
0.26399
0.263321
0.262652
0.261983
0.261312
0.260638
0.259959
0.259272
0.258576
0.257866
0.257139
0.256389
0.255608
0.254789
0.253919
0.252985
0.251968
0.250844
0.249585
0.24815
0.246493
0.244551
0.242248
0.239484
0.236134
0.232036
0.226986
0.22072
0.21291
0.203141
0.190954
0.175792
0.15756
0.136011
0.115094
0.283149
0.282734
0.281903
0.280984
0.28015
0.27932
0.278435
0.277531
0.276644
0.275779
0.27493
0.274097
0.273284
0.272491
0.271718
0.270961
0.27022
0.269493
0.268778
0.268073
0.267377
0.266689
0.266006
0.265329
0.264655
0.263984
0.263314
0.262645
0.261975
0.261303
0.260628
0.259947
0.259258
0.258559
0.257845
0.257113
0.256357
0.255568
0.254739
0.253857
0.252907
0.25187
0.250722
0.24943
0.247956
0.246248
0.244241
0.241855
0.238988
0.235506
0.23124
0.225973
0.219425
0.21124
0.200958
0.188052
0.171828
0.152073
0.128115
0.104671
0.283423
0.282939
0.282011
0.281046
0.280203
0.279359
0.278454
0.277536
0.276642
0.275772
0.274919
0.274083
0.273269
0.272476
0.271703
0.270947
0.270207
0.26948
0.268766
0.268063
0.267368
0.26668
0.265999
0.265321
0.264648
0.263977
0.263307
0.262638
0.261967
0.261294
0.260618
0.259935
0.259244
0.258542
0.257825
0.257089
0.256326
0.255531
0.254693
0.253799
0.252834
0.251779
0.250607
0.249286
0.247775
0.246019
0.243952
0.24149
0.238526
0.234922
0.230499
0.225029
0.218216
0.209677
0.198906
0.185303
0.168015
0.146682
0.120064
0.0937453
0.283733
0.283159
0.282117
0.281107
0.280259
0.2794
0.278473
0.27754
0.276639
0.275764
0.274906
0.274068
0.273253
0.272459
0.271686
0.270931
0.270192
0.269467
0.268754
0.268052
0.267358
0.266671
0.26599
0.265314
0.264641
0.26397
0.2633
0.26263
0.261959
0.261286
0.260608
0.259924
0.259231
0.258527
0.257806
0.257066
0.256298
0.255496
0.254649
0.253745
0.252767
0.251694
0.250501
0.249153
0.247607
0.245808
0.243685
0.241153
0.238101
0.234383
0.229815
0.224159
0.2171
0.208231
0.196999
0.182728
0.164387
0.141434
0.11189
0.0822812
0.284086
0.283393
0.282217
0.281167
0.280317
0.27944
0.27849
0.277544
0.276636
0.275755
0.274893
0.274052
0.273235
0.272442
0.27167
0.270915
0.270177
0.269453
0.268742
0.268041
0.267348
0.266662
0.265982
0.265306
0.264633
0.263963
0.263293
0.262623
0.261952
0.261278
0.260599
0.259913
0.259219
0.258512
0.257789
0.257044
0.256272
0.255463
0.254609
0.253695
0.252704
0.251616
0.250404
0.249032
0.247455
0.245615
0.243442
0.240846
0.237712
0.233892
0.229192
0.223365
0.216082
0.206911
0.195252
0.180352
0.160987
0.136388
0.103652
0.0702466
0.284489
0.283634
0.282308
0.281232
0.280382
0.279478
0.278502
0.277543
0.276629
0.275742
0.274875
0.274032
0.273215
0.272422
0.271651
0.270898
0.270161
0.269439
0.268729
0.268029
0.267337
0.266653
0.265974
0.265298
0.264626
0.263956
0.263286
0.262616
0.261945
0.26127
0.26059
0.259903
0.259207
0.258498
0.257772
0.257024
0.256248
0.255434
0.254572
0.253649
0.252648
0.251546
0.250316
0.248922
0.247317
0.245442
0.243224
0.240571
0.237364
0.233451
0.228634
0.222654
0.21517
0.205726
0.193679
0.178199
0.15786
0.131618
0.0954439
0.057627
0.284958
0.283874
0.282375
0.281301
0.280464
0.279532
0.278527
0.277553
0.276629
0.275735
0.274862
0.274015
0.273196
0.272402
0.271631
0.270879
0.270143
0.269423
0.268714
0.268016
0.267326
0.266642
0.265964
0.26529
0.264619
0.263949
0.263279
0.262609
0.261938
0.261262
0.260582
0.259894
0.259196
0.258486
0.257757
0.257006
0.256226
0.255407
0.254539
0.253608
0.252597
0.251483
0.250238
0.248824
0.247195
0.245289
0.243031
0.240328
0.237057
0.233063
0.228143
0.222029
0.214368
0.204685
0.192296
0.176296
0.15506
0.127211
0.087396
0.0443938
0.285515
0.284119
0.282377
0.281304
0.280486
0.279537
0.278516
0.277538
0.276612
0.275716
0.274843
0.273997
0.273178
0.272386
0.271615
0.270864
0.27013
0.26941
0.268702
0.268005
0.267316
0.266633
0.265955
0.265281
0.26461
0.26394
0.263271
0.262601
0.261929
0.261254
0.260573
0.259885
0.259186
0.258474
0.257744
0.256991
0.256207
0.255384
0.254511
0.253574
0.252554
0.251429
0.250171
0.248741
0.247091
0.24516
0.242867
0.240121
0.236798
0.232736
0.22773
0.221506
0.2137
0.203818
0.191145
0.174707
0.152698
0.12335
0.0798143
0.0304415
0.286168
0.284555
0.282618
0.281508
0.280631
0.279613
0.278549
0.277544
0.276597
0.275685
0.274804
0.273954
0.273135
0.272344
0.271577
0.27083
0.270101
0.269386
0.268682
0.267989
0.267303
0.266624
0.265949
0.265277
0.264608
0.263939
0.26327
0.262601
0.261928
0.261252
0.260569
0.259879
0.259178
0.258464
0.257731
0.256974
0.256186
0.255358
0.25448
0.253536
0.252509
0.251376
0.250108
0.248665
0.246999
0.245047
0.242733
0.239958
0.236596
0.232487
0.22742
0.221117
0.213207
0.203182
0.190302
0.173537
0.150938
0.120337
0.0733038
0.0155856
0.28632
0.284061
0.282305
0.281479
0.280666
0.27965
0.278597
0.277599
0.276649
0.27573
0.27484
0.273982
0.273156
0.272358
0.271586
0.270834
0.2701
0.269381
0.268675
0.267979
0.267291
0.266609
0.265932
0.265258
0.264587
0.263917
0.263247
0.262576
0.261903
0.261226
0.260543
0.259852
0.259151
0.258436
0.257703
0.256946
0.256157
0.255329
0.254449
0.253503
0.252473
0.251336
0.250064
0.248616
0.246942
0.244979
0.242652
0.239859
0.236476
0.23234
0.227238
0.220891
0.21292
0.202811
0.189807
0.172842
0.149883
0.118399
0.0686849
0.000149057
0.290259
0.284845
0.282351
0.281484
0.280601
0.279511
0.278427
0.277424
0.276481
0.275574
0.274698
0.273855
0.273043
0.272258
0.271497
0.270755
0.270029
0.269317
0.268617
0.267926
0.267243
0.266566
0.265893
0.265223
0.264555
0.263887
0.26322
0.262551
0.26188
0.261204
0.260523
0.259833
0.259133
0.258418
0.257685
0.256927
0.256138
0.255309
0.254428
0.253481
0.252449
0.25131
0.250036
0.248591
0.24692
0.244956
0.242626
0.239829
0.236441
0.232298
0.227188
0.220828
0.212841
0.202707
0.189664
0.172631
0.149538
0.117694
0.0665388
-0.0103661
0.435455
0.356175
0.297023
0.267492
0.246814
0.227305
0.210958
0.199238
0.191229
0.185559
0.181593
0.179013
0.177738
0.17777
0.179243
0.182708
0.188785
0.200592
0.200455
0.174564
0.156883
0.148029
0.140671
0.131815
0.121303
0.108731
0.0925651
0.0701557
0.0373537
-0.0141769
-0.103071
-0.287503
-0.717778
-0.760374
-0.342797
-0.374403
-0.321795
-0.290404
-0.245313
-0.20251
-0.160829
-0.123934
-0.0927068
-0.0675438
-0.0480234
-0.0333254
-0.0225235
-0.0147309
-0.00918181
-0.00526128
-0.00249902
-0.000548478
0.00083689
0.00182604
0.00252479
0.00300118
0.00325944
0.00337501
0.00307859
0.0027825
0.430964
0.350086
0.291835
0.264275
0.244407
0.225286
0.209378
0.198084
0.190374
0.184973
0.181223
0.178779
0.177619
0.177744
0.179307
0.182861
0.188943
0.198781
0.196756
0.172386
0.155425
0.146981
0.139733
0.130811
0.12017
0.107379
0.0908125
0.0677197
0.0337438
-0.0198241
-0.11188
-0.288719
-0.612431
-0.685702
-0.361991
-0.375396
-0.326498
-0.295263
-0.250811
-0.208143
-0.166301
-0.128992
-0.0971806
-0.071367
-0.0512095
-0.0359349
-0.0246368
-0.0164328
-0.0105514
-0.00636734
-0.00339851
-0.00128693
0.000224098
0.00131253
0.00209125
0.00263587
0.00295106
0.00312853
0.00282881
0.00276258
0.423488
0.345571
0.288978
0.262567
0.243081
0.224221
0.208636
0.197611
0.190098
0.184812
0.181009
0.178633
0.177533
0.177704
0.179296
0.182809
0.188451
0.19645
0.193688
0.171513
0.155047
0.146622
0.139347
0.13038
0.119689
0.106804
0.0900547
0.066647
0.0321413
-0.022085
-0.113668
-0.273606
-0.529653
-0.612248
-0.375273
-0.373425
-0.327681
-0.297517
-0.253832
-0.211571
-0.169882
-0.132443
-0.100351
-0.0741608
-0.0536034
-0.0379483
-0.0263107
-0.0178163
-0.0116939
-0.00731368
-0.00418724
-0.0019499
-0.000338576
0.00083061
0.00167517
0.00227636
0.0026376
0.00286885
0.00256237
0.00275909
0.414239
0.340958
0.285694
0.260032
0.24107
0.222632
0.207432
0.196714
0.189409
0.184244
0.180634
0.17839
0.177361
0.177573
0.179165
0.182547
0.18765
0.194057
0.190624
0.170211
0.154274
0.145922
0.138725
0.129812
0.119133
0.106208
0.0893438
0.0657217
0.0309113
-0.0234345
-0.11244
-0.257832
-0.461312
-0.552931
-0.382996
-0.36962
-0.328282
-0.298642
-0.256199
-0.214219
-0.1727
-0.135167
-0.10287
-0.0763922
-0.0555254
-0.0395742
-0.0276712
-0.0189491
-0.012637
-0.0081018
-0.00485026
-0.00251251
-0.000820531
0.000414159
0.00131269
0.00196088
0.00236094
0.0026397
0.00233943
0.00273876
0.40375
0.335832
0.282155
0.257177
0.238875
0.220976
0.206213
0.195834