/*--------------------------------*- C++ -*----------------------------------*\
| =========                 |                                                 |
| \\      /  F ield         | OpenFOAM: The Open Source CFD Toolbox           |
|  \\    /   O peration     | Version:  2.4.0                                 |
|   \\  /    A nd           | Web:      www.OpenFOAM.org                      |
|    \\/     M anipulation  |                                                 |
\*---------------------------------------------------------------------------*/
FoamFile
{
    version     2.0;
    format      ascii;
    class       volScalarField;
    location    "4.21";
    object      epsilon;
}
// * * * * * * * * * * * * * * * * * * * * * * * * * * * * * * * * * * * * * //

dimensions      [0 2 -3 0 0 0 0];

internalField   nonuniform List<scalar> 
6000
(
0.995192
0.381703
0.0487478
0.00578225
0.000783269
0.00309609
0.00199491
0.00386711
0.00472332
0.00742632
0.0103261
0.0142822
0.0181275
0.0220342
0.0253208
0.0280118
0.0293326
0.0281146
0.0229783
0.0157583
0.016413
0.0313919
0.0560512
0.0846749
0.111992
0.136058
0.157212
0.175993
0.192785
0.207828
0.221289
0.233288
0.24393
0.253325
0.26174
0.269108
0.275604
0.281354
0.286478
0.291093
0.295289
0.299158
0.302697
0.305954
0.308691
0.310829
0.31179
0.315439
0.340546
0.369288
0.398412
0.43375
0.467679
0.516787
0.560604
0.644955
0.710199
0.890268
0.99025
1.4914
0.558281
0.35506
0.022823
0.00518821
0.000375742
0.000952497
0.000922014
0.00154226
0.00215716
0.00328496
0.0046384
0.00620481
0.00775751
0.0092079
0.0104721
0.0115811
0.0122946
0.0121231
0.0105222
0.00823663
0.010163
0.0184938
0.0290939
0.0401833
0.0506362
0.0599409
0.0681539
0.0754201
0.0818581
0.087552
0.0925671
0.0969595
0.100785
0.104113
0.107131
0.109784
0.112147
0.114289
0.116281
0.118187
0.120068
0.121978
0.123947
0.126001
0.128102
0.130208
0.132218
0.135321
0.142954
0.151037
0.15898
0.167594
0.175929
0.186301
0.196747
0.212613
0.229863
0.259188
0.306138
0.37048
0.41673
0.411488
0.0306001
0.00378422
0.000307407
0.000573554
0.000705764
0.00112201
0.00166415
0.00251245
0.00354874
0.00469966
0.00582881
0.00686407
0.00777844
0.00859678
0.00917661
0.00919029
0.0082799
0.00710784
0.00933039
0.0161053
0.0239834
0.0319472
0.0394068
0.046053
0.0519088
0.0570658
0.0616034
0.065582
0.069051
0.0720563
0.074647
0.076888
0.0788926
0.080646
0.0822049
0.083627
0.084969
0.0862859
0.0876287
0.0890431
0.0905628
0.092213
0.0939877
0.0958621
0.097831
0.100472
0.104895
0.109289
0.113436
0.117432
0.121169
0.125137
0.129364
0.134728
0.141877
0.151166
0.170733
0.187632
0.367363
0.40631
0.0520381
0.00234758
0.000300719
0.000468952
0.000638963
0.000997956
0.00150773
0.00226736
0.00319195
0.0042029
0.0051787
0.00606106
0.00683913
0.00754016
0.00806501
0.00815199
0.00753127
0.00687444
0.00924277
0.0153555
0.0222017
0.029002
0.0353535
0.0410162
0.0459994
0.050375
0.0542089
0.0575526
0.0604502
0.0629438
0.0650798
0.0669181
0.0685396
0.0699477
0.0711923
0.0723255
0.0733989
0.0744629
0.0755649
0.0767484
0.0780477
0.0794895
0.0810805
0.0828053
0.0846945
0.0870375
0.090265
0.0933128
0.0960756
0.0984436
0.100537
0.102368
0.104425
0.10658
0.110285
0.114131
0.124846
0.131297
0.343014
0.376369
0.0745301
0.00181129
0.000321822
0.000437577
0.000620698
0.000958581
0.00145288
0.00217669
0.00305293
0.00400364
0.00490922
0.00571917
0.00642966
0.00707175
0.00757197
0.00770467
0.00725468
0.00690757
0.00934375
0.0150757
0.0214086
0.0276466
0.0334706
0.0386687
0.0432411
0.0472493
0.0507523
0.0537976
0.0564269
0.0586803
0.0606025
0.0622491
0.0636841
0.0649208
0.0660057
0.0669878
0.0679161
0.0688388
0.069802
0.0708481
0.0720127
0.0733241
0.0747965
0.076421
0.0782395
0.0803685
0.0829753
0.0853325
0.0873803
0.0889269
0.0901777
0.0909692
0.0919438
0.0926493
0.0947155
0.096325
0.103214
0.106066
0.32944
0.340303
0.0979136
0.00278664
0.000376756
0.000436639
0.000625806
0.000954475
0.00144121
0.00214964
0.00300467
0.0039291
0.00480198
0.00557657
0.00625234
0.00686386
0.00735548
0.00752484
0.00719439
0.00705318
0.00950484
0.0149764
0.0210202
0.0269604
0.0325144
0.0374799
0.0418491
0.0456762
0.0490162
0.0519149
0.0544121
0.0565473
0.0583635
0.059913
0.0612496
0.0623927
0.0633869
0.0642794
0.0651178
0.0659494
0.0668194
0.0677706
0.0688396
0.0700564
0.0714407
0.0729887
0.0747385
0.0766967
0.078914
0.0808404
0.0824364
0.0834726
0.0841904
0.0843529
0.08466
0.0845399
0.08565
0.086081
0.0909304
0.0921199
0.32126
0.305834
0.11509
0.00807292
0.000511571
0.000455477
0.000646427
0.000969626
0.00145249
0.00215478
0.00300243
0.00391839
0.00477948
0.00553999
0.00620069
0.00679899
0.00729279
0.00749638
0.00725869
0.0072599
0.00968937
0.0149592
0.0208273
0.0266085
0.03203
0.0368887
0.0411679
0.0449162
0.0481857
0.051021
0.0534613
0.0555451
0.0573144
0.0588184
0.0601046
0.0611964
0.0621371
0.0629729
0.0637507
0.0645171
0.0653174
0.0661949
0.0671876
0.0683271
0.0696374
0.0711194
0.0727949
0.0746063
0.0765447
0.0781642
0.0794333
0.0801058
0.0804379
0.0801618
0.0799988
0.0793328
0.0798062
0.0795093
0.083135
0.0833601
0.315827
0.275744
0.126886
0.0180047
0.000843388
0.000494661
0.00068083
0.000998264
0.00147855
0.00217893
0.00302686
0.00394491
0.00480747
0.00556801
0.00622735
0.00682499
0.00732974
0.00756852
0.00740827
0.00750918
0.00988796
0.0149845
0.020738
0.0264397
0.0318105
0.0366386
0.0408976
0.0446304
0.0478869
0.0507108
0.0531408
0.055215
0.056974
0.0584646
0.0597298
0.060796
0.0617057
0.0625043
0.0632383
0.0639542
0.0646976
0.0655125
0.0664382
0.0675081
0.06875
0.0701684
0.0717601
0.0734379
0.0751557
0.0765333
0.077542
0.0779286
0.0779547
0.0773416
0.0768165
0.0757516
0.0757612
0.0749639
0.0777682
0.0773591
0.311894
0.250626
0.134086
0.030778
0.00166062
0.000563594
0.000730693
0.00103891
0.00151617
0.00221614
0.00306862
0.00399541
0.00486857
0.00563947
0.00630813
0.00691546
0.00743928
0.0077164
0.00762477
0.00779536
0.0101009
0.0150353
0.0207063
0.0263761
0.0317477
0.0365948
0.0408798
0.0446396
0.0479219
0.0507695
0.053221
0.0553136
0.0570871
0.058586
0.0598499
0.0609076
0.0618008
0.0625746
0.063275
0.0639489
0.0646422
0.0653998
0.0662624
0.0672651
0.0684391
0.0697899
0.0712893
0.0728391
0.074368
0.0755397
0.0763253
0.0764706
0.0762376
0.0753476
0.0745262
0.0731488
0.0727987
0.0716311
0.0738371
0.0729729
0.308898
0.230178
0.137434
0.0445667
0.00374679
0.000686864
0.000800838
0.00109258
0.00156469
0.00226394
0.00312305
0.00406285
0.00495319
0.0057425
0.00642943
0.00705577
0.00760677
0.00792708
0.0078995
0.00811833
0.0103321
0.0151047
0.0207078
0.0263737
0.031779
0.0366788
0.041022
0.0448389
0.0481747
0.0510713
0.053567
0.0556984
0.0575041
0.0590268
0.0603033
0.0613643
0.062251
0.063008
0.0636814
0.0643181
0.0649646
0.0656669
0.066467
0.0674017
0.0685051
0.0697803
0.0711798
0.0726023
0.0739594
0.0749453
0.0755293
0.0754598
0.0749973
0.0738683
0.072794
0.0711598
0.0705181
0.0690623
0.0708054
0.0695951
0.30655
0.213776
0.137735
0.0574903
0.0084408
0.000922207
0.00090039
0.00116236
0.00162522
0.00232186
0.00318809
0.00414343
0.00505576
0.00587
0.00658306
0.00723726
0.00782378
0.00819355
0.00822859
0.0084804
0.0105867
0.0151907
0.0207287
0.0264059
0.0318662
0.0368416
0.0412661
0.0451621
0.048572
0.0515366
0.0540936
0.0562789
0.05813
0.059688
0.0609875
0.0620604
0.0629476
0.0636933
0.0643436
0.0649456
0.0655466
0.0661934
0.0669294
0.0677932
0.0688218
0.0700106
0.0713033
0.0725964
0.07379
0.0746007
0.0749952
0.0747272
0.0740544
0.0727124
0.0714155
0.0695635
0.0686775
0.0669897
0.0683584
0.0668748
0.304674
0.200738
0.135798
0.0685577
0.0149869
0.00139222
0.00104569
0.00125373
0.00170035
0.00239092
0.00326332
0.00423538
0.00517311
0.0060176
0.00676383
0.00745454
0.00808525
0.00851198
0.00861064
0.00888482
0.0108704
0.0152941
0.0207618
0.0264564
0.0319842
0.0370509
0.0415734
0.0455651
0.0490646
0.0521117
0.0547431
0.0569941
0.0589009
0.0605031
0.0618333
0.0629245
0.0638173
0.0645554
0.0651849
0.0657533
0.0663086
0.0668983
0.0675675
0.0683562
0.069304
0.0703948
0.0715741
0.0727336
0.0737668
0.074407
0.0746186
0.0741618
0.0732918
0.0717552
0.0702582
0.0682173
0.0671221
0.0652435
0.0662992
0.0645955
0.303152
0.190431
0.132361
0.0772514
0.0228014
0.00238555
0.00126659
0.00137551
0.00179436
0.00247342
0.00334959
0.00433831
0.00530362
0.00618263
0.00696833
0.0077041
0.00838794
0.00888022
0.00904555
0.00933516
0.0111889
0.0154177
0.0208039
0.0265151
0.0321167
0.0372847
0.041917
0.0460167
0.049618
0.0527588
0.055475
0.0578008
0.0597715
0.0614247
0.0627918
0.0639062
0.0648082
0.0655412
0.0661512
0.066686
0.0671942
0.0677244
0.0683231
0.0690319
0.0698909
0.0708741
0.0719324
0.0729531
0.0738254
0.074296
0.0743274
0.0736877
0.0726295
0.0709121
0.0692326
0.0670255
0.0657482
0.0637109
0.0644987
0.0626167
0.301904
0.182314
0.128042
0.0834416
0.0310037
0.00463674
0.00162017
0.00154178
0.00191365
0.00257303
0.00344891
0.00445296
0.00544684
0.00636362
0.00719434
0.00798362
0.00872964
0.00929703
0.00953385
0.00983496
0.0115478
0.0155652
0.0208542
0.026576
0.0322524
0.0375275
0.0422777
0.0464945
0.0502068
0.0534502
0.0562593
0.0586674
0.0607084
0.0624182
0.0638268
0.0649682
0.065882
0.0666115
0.0672024
0.067703
0.0681624
0.0686301
0.0691541
0.0697775
0.0705384
0.0714056
0.0723353
0.0732109
0.0739197
0.0742193
0.0740707
0.0732512
0.0720112
0.0701236
0.0682759
0.0659213
0.0644841
0.0623143
0.0628688
0.0608435
0.300871
0.175939
0.123326
0.087255
0.0391028
0.00843711
0.00221328
0.0017753
0.00206766
0.00269511
0.0035645
0.00458112
0.00560332
0.00656008
0.00744047
0.00829069
0.00910869
0.00976157
0.0100763
0.0103876
0.0119523
0.0157417
0.0209141
0.0266361
0.0323842
0.0377683
0.0426413
0.0469817
0.0508121
0.054165
0.0570735
0.0595697
0.061686
0.0634568
0.0649108
0.0660819
0.0670096
0.0677365
0.0683083
0.0687735
0.0691818
0.0695837
0.0700285
0.0705606
0.0712139
0.0719577
0.0727509
0.0734747
0.0740158
0.0741411
0.0738112
0.0728133
0.0713961
0.069347
0.0673432
0.0648572
0.0632785
0.0609987
0.061348
0.0592096
0.300012
0.170943
0.118566
0.0889752
0.0466125
0.0136873
0.00325039
0.00211387
0.00227028
0.00284722
0.00370097
0.00472572
0.00577458
0.00677236
0.00770608
0.00862393
0.00952376
0.0102732
0.0106738
0.0109962
0.0124078
0.0159525
0.0209868
0.0266945
0.0325076
0.0379994
0.0429976
0.0474657
0.0514191
0.0548868
0.0578998
0.0604888
0.0626846
0.0645198
0.066022
0.0672252
0.0681681
0.0688929
0.0694452
0.0698735
0.0702282
0.0705606
0.0709216
0.0713557
0.0718933
0.0725063
0.0731551
0.0737202
0.0740885
0.0740353
0.0735215
0.0723452
0.0707543
0.0685511
0.0664015
0.0637984
0.0620943
0.0597244
0.0598921
0.057668
0.299294
0.167037
0.114007
0.0889705
0.0531177
0.0199288
0.00514436
0.00262188
0.00254231
0.00303996
0.00386471
0.00489094
0.00596318
0.00700169
0.00799123
0.00898252
0.00997375
0.0108311
0.011327
0.0116638
0.0129193
0.0162038
0.0210763
0.0267523
0.0326204
0.0382157
0.0433388
0.0479369
0.0520167
0.0556029
0.0587242
0.0614095
0.0636881
0.0655905
0.0671432
0.0683801
0.0693391
0.070062
0.070594
0.0709839
0.0712824
0.0715417
0.0718142
0.0721431
0.0725579
0.0730329
0.0735296
0.0739289
0.0741186
0.0738818
0.073181
0.0718257
0.0700636
0.0677125
0.0654267
0.0627193
0.0609044
0.0584622
0.0584688
0.056184
0.298693
0.16399
0.109799
0.0876381
0.0583269
0.0266594
0.00815064
0.00340887
0.00291543
0.00328834
0.00406439
0.00508253
0.00617283
0.00725026
0.00829674
0.00936613
0.0104577
0.0114347
0.0120365
0.0123932
0.0134918
0.0165021
0.0211885
0.0268124
0.0327222
0.0384141
0.0436596
0.0483879
0.052596
0.0563032
0.0595355
0.0623198
0.0646837
0.0666552
0.0682602
0.0695321
0.0705078
0.0712287
0.0717395
0.0720891
0.0723288
0.0725114
0.0726903
0.0729077
0.0731931
0.073523
0.0738602
0.0740866
0.0740915
0.0736658
0.0727741
0.0712386
0.0693074
0.0668142
0.0644007
0.0616012
0.0596886
0.0571906
0.0570548
0.0547326
0.298187
0.161621
0.106026
0.0853634
0.0620896
0.0333969
0.0122509
0.00466129
0.00343879
0.00361379
0.00431182
0.00530818
0.00640866
0.00752138
0.00862428
0.00977505
0.0109751
0.0120831
0.0128028
0.013187
0.0141303
0.0168545
0.0213297
0.0268789
0.0328143
0.0385932
0.0439564
0.0488134
0.05315
0.0569796
0.0603246
0.0632098
0.0656607
0.0677028
0.0693614
0.0706691
0.0716619
0.0723804
0.0728691
0.0731766
0.0733547
0.073457
0.0735374
0.0736375
0.0737873
0.0739654
0.0741359
0.0741825
0.0739961
0.0733758
0.0722893
0.0705721
0.0684734
0.0658433
0.0633103
0.0604299
0.058432
0.0558938
0.0556325
0.0532949
0.29776
0.159785
0.10272
0.0824924
0.0643887
0.0397
0.0171999
0.00665035
0.0041895
0.00404733
0.00462313
0.00557811
0.00667752
0.00781965
0.00897657
0.0102102
0.0115255
0.0127755
0.0136262
0.0140479
0.0148394
0.0172682
0.0215076
0.0269572
0.0328995
0.0387532
0.0442273
0.0492096
0.0536735
0.0576256
0.0610842
0.0640712
0.0666103
0.068724
0.0704371
0.0717811
0.0727911
0.0735068
0.0739722
0.0742359
0.0743499
0.0743683
0.0743457
0.0743233
0.0743314
0.0743513
0.0743481
0.074208
0.073824
0.0730033
0.0717177
0.0698171
0.0675525
0.0647905
0.0621459
0.0591954
0.0571239
0.0545602
0.0541893
0.051857
0.2974
0.158371
0.0998774
0.0793154
0.0653192
0.0452027
0.0227271
0.00955375
0.00528858
0.00463438
0.00502055
0.00590585
0.00698841
0.00815128
0.00935758
0.0106736
0.0121093
0.0135112
0.0145068
0.0149782
0.0156242
0.0177504
0.0217305
0.0270542
0.032982
0.0388958
0.0444715
0.0495741
0.0541629
0.0582364
0.0618083
0.0648975
0.0675252
0.069711
0.0714791
0.0728598
0.0738869
0.0745993
0.0750403
0.0752583
0.0753056
0.075237
0.0751071
0.0749572
0.0748182
0.0746738
0.0744904
0.0741569
0.0735689
0.0725419
0.071053
0.0689674
0.0665384
0.0636495
0.0609007
0.0578907
0.0557567
0.0531815
0.0527161
0.0504086
0.297095
0.157288
0.0974749
0.0760616
0.0650586
0.049635
0.0285016
0.0133771
0.00691976
0.0054418
0.00553509
0.00630943
0.00735309
0.00852442
0.00977276
0.0111682
0.0127276
0.0142897
0.0154446
0.0159801
0.0164892
0.0183089
0.0220076
0.027178
0.0330672
0.0390238
0.0446899
0.0499058
0.0546155
0.0588082
0.0624924
0.0656833
0.0683994
0.0706575
0.0724806
0.0738981
0.074942
0.0756504
0.0760659
0.0762365
0.076215
0.0760563
0.0758153
0.0755334
0.0752421
0.0749276
0.0745578
0.0740244
0.073226
0.071987
0.0702909
0.0680186
0.0654266
0.0624157
0.0595702
0.0565109
0.0543253
0.051752
0.0512065
0.0489424
0.296836
0.156466
0.0954745
0.0729002
0.0638353
0.0528349
0.034166
0.0180019
0.00924064
0.0065673
0.00621025
0.00681295
0.00778688
0.00894965
0.0102294
0.0116986
0.0133826
0.0151107
0.0164395
0.0170558
0.0174393
0.0189511
0.0223487
0.0273376
0.0331619
0.0391415
0.0448845
0.0502049
0.0550299
0.0593385
0.063133
0.0664244
0.0692281
0.0715581
0.0734361
0.0748901
0.0759503
0.0766542
0.0770429
0.0771647
0.0770724
0.0768209
0.0764652
0.076047
0.0755986
0.0751087
0.0745465
0.0738071
0.0727922
0.0713357
0.0694282
0.0669679
0.0642146
0.0610867
0.0581521
0.0550534
0.0528267
0.0502682
0.0496566
0.0474534
0.296615
0.15585
0.0938327
0.0699467
0.0618976
0.0547494
0.039372
0.0231989
0.0123513
0.00813449
0.00710739
0.00744876
0.00830976
0.00944056
0.0107371
0.0122707
0.0140758
0.0159748
0.0174914
0.0182071
0.0184791
0.0196849
0.0227642
0.0275434
0.0332743
0.0392543
0.0450582
0.0504726
0.0554058
0.0598258
0.0637277
0.0671175
0.0700074
0.0724085
0.0743409
0.075831
0.076907
0.0776051
0.0779664
0.0780381
0.0778732
0.0775264
0.0770527
0.0764943
0.0758844
0.075214
0.0744538
0.0735024
0.0722652
0.0705858
0.0684633
0.0658139
0.0629013
0.0596616
0.0566452
0.053517
0.0512595
0.0487283
0.0480641
0.0459382
0.296427
0.155398
0.092504
0.0672715
0.0594882
0.0554261
0.043814
0.0286714
0.0162588
0.0102706
0.00830796
0.00826045
0.00894787
0.0100146
0.0113082
0.0128931
0.0148113
0.0168832
0.0186005
0.0194347
0.019613
0.0205179
0.0232652
0.0278066
0.0334136
0.0393691
0.0452156
0.0507111
0.0557441
0.0602694
0.0642747
0.0677603
0.0707344
0.0732053
0.0751911
0.076716
0.0778073
0.0784994
0.0788324
0.0788531
0.0786139
0.0781694
0.0775747
0.0768726
0.076097
0.0752414
0.0742779
0.0731089
0.0716436
0.0697363
0.0673956
0.0645563
0.0614866
0.0581406
0.0550501
0.0519022
0.0496241
0.0471321
0.0464283
0.044395
0.296266
0.155073
0.0914447
0.0649095
0.0568251
0.0549951
0.0472562
0.0340897
0.02086
0.0130837
0.00990815
0.00930396
0.00973636
0.0106943
0.0119583
0.0135767
0.0155955
0.0178385
0.0197669
0.0207403
0.0208454
0.0214577
0.0238629
0.0281396
0.0335903
0.0394936
0.045362
0.050924
0.0560463
0.0606698
0.064773
0.0683505
0.0714064
0.0739453
0.0759835
0.0775426
0.0786486
0.079334
0.0796381
0.0796066
0.0792915
0.0787472
0.0780288
0.0771796
0.0762346
0.0751894
0.0740177
0.0726256
0.070927
0.0687871
0.0662252
0.0631957
0.0599718
0.0565252
0.0533685
0.0502106
0.0479219
0.0454805
0.0447498
0.0428235
0.296128
0.154849
0.0906139
0.0628694
0.0540903
0.0536455
0.049552
0.039122
0.0259559
0.0166262
0.0120136
0.0106478
0.010717
0.0115092
0.0127088
0.0143353
0.0164374
0.0188449
0.0209914
0.022125
0.0221802
0.022512
0.0245694
0.0285495
0.0338128
0.0396359
0.0455038
0.0511154
0.056315
0.0610282
0.0652231
0.0688882
0.0720225
0.0746274
0.0767164
0.0783087
0.0794285
0.0801067
0.080381
0.0802963
0.0799039
0.0792578
0.0784132
0.077414
0.076296
0.0750571
0.0736725
0.0720524
0.0701154
0.0677387
0.0649531
0.0617338
0.0583589
0.054818
0.0516032
0.0484449
0.0461555
0.0437757
0.0430304
0.0412243
0.296009
0.154705
0.0899748
0.0611412
0.0514248
0.0515985
0.0506527
0.043462
0.0312789
0.0208665
0.0147212
0.0123732
0.0119415
0.0124929
0.0135854
0.0151896
0.0173488
0.0199086
0.0222752
0.0235896
0.0236206
0.0236883
0.0253889
0.0290466
0.0340916
0.0398052
0.0456483
0.0512912
0.0565545
0.0613473
0.0656268
0.0693741
0.0725829
0.075251
0.0773888
0.079013
0.0801457
0.0808158
0.0810595
0.0809205
0.0804494
0.0796998
0.0787267
0.0775747
0.0762804
0.074844
0.0732422
0.0713893
0.0692092
0.066592
0.063581
0.0601727
0.0566509
0.0530223
0.0497578
0.0466088
0.0443285
0.0420209
0.0412728
0.0395991
0.295906
0.154624
0.0894952
0.0597035
0.0489286
0.0490824
0.050604
0.0468567
0.0365203
0.0256803
0.0180922
0.0145675
0.0134719
0.0136863
0.0146162
0.0161631
0.0183481
0.0210382
0.0236205
0.0251344
0.0251692
0.0249915
0.0263288
0.0296416
0.0344376
0.0400114
0.045804
0.0514578
0.0567695
0.0616306
0.0659862
0.0698095
0.0730882
0.0758161
0.0780004
0.0796548
0.0807991
0.0814601
0.0816723
0.081478
0.080927
0.080072
0.0789684
0.0776611
0.0761876
0.07455
0.072727
0.0706368
0.0682095
0.0653485
0.062111
0.0585156
0.0548516
0.0511426
0.0478371
0.0447071
0.0424456
0.04022
0.0394809
0.0379505
0.295817
0.154591
0.0891469
0.0585278
0.0466654
0.0463111
0.0495331
0.0491283
0.0413595
0.0308608
0.0221264
0.0173113
0.0153783
0.0151382
0.015835
0.01728
0.0194585
0.0222481
0.0250308
0.026759
0.0268276
0.0264266
0.0273982
0.0303453
0.0348622
0.0402651
0.0459799
0.0516227
0.0569657
0.0618823
0.0663044
0.0701965
0.0735396
0.0763235
0.0785514
0.0802339
0.0813883
0.082039
0.0822187
0.0819681
0.0813357
0.080374
0.0791379
0.0776728
0.0760173
0.0741752
0.0721272
0.0697958
0.0671175
0.0640102
0.0605459
0.056766
0.0529653
0.0491839
0.0458467
0.0427454
0.0405121
0.0383782
0.037659
0.0362817
0.295739
0.154595
0.0889061
0.0575833
0.0446683
0.0434693
0.0476272
0.0501897
0.0454919
0.0361399
0.0267444
0.0206588
0.017733
0.016904
0.0172812
0.0185683
0.0207006
0.0235561
0.0265128
0.0284628
0.0285967
0.0279986
0.028606
0.0311689
0.0353772
0.0405776
0.0461859
0.0517939
0.0571497
0.0621074
0.0665852
0.0705379
0.0739391
0.0767742
0.0790423
0.0807505
0.0819132
0.0825522
0.0826983
0.0823902
0.0816754
0.0806054
0.0792349
0.0776099
0.0757697
0.0737201
0.0714436
0.0688673
0.0659347
0.0625792
0.0588888
0.0549281
0.0509974
0.0471522
0.0437929
0.04073
0.0385346
0.036501
0.0358126
0.0345972
0.295671
0.154629
0.0887527
0.0568385
0.0429469
0.0407033
0.0451076
0.0500509
0.0486572
0.0412128
0.0317861
0.0246162
0.0205999
0.0190432
0.0189993
0.0200605
0.0220978
0.0249794
0.0280811
0.0302473
0.0304776
0.0297123
0.029961
0.0321238
0.0359949
0.0409607
0.0464324
0.0519803
0.0573285
0.0623114
0.0668328
0.0708366
0.0742889
0.0771701
0.0794745
0.0812054
0.0823742
0.083
0.083111
0.0827443
0.0819458
0.080766
0.0792594
0.0774725
0.0754452
0.0731852
0.0706769
0.0678524
0.0646629
0.0610582
0.0571433
0.0530068
0.0489537
0.0450542
0.0416831
0.0386685
0.0365202
0.0345952
0.0339478
0.0329018
0.295612
0.154683
0.0886697
0.0562638
0.0414939
0.0381193
0.0422035
0.0488124
0.050665
0.0457648
0.0370214
0.0291243
0.0240189
0.0216132
0.0210371
0.0217923
0.0236766
0.0265369
0.0297489
0.032118
0.0324715
0.0315718
0.0314719
0.0332211
0.0367277
0.0414263
0.0467304
0.0521912
0.0575099
0.0625008
0.0670521
0.0710967
0.0745921
0.0775132
0.0798493
0.0815996
0.082772
0.0833827
0.0834572
0.0830305
0.082147
0.080856
0.0792117
0.0772608
0.075044
0.0725709
0.0698279
0.0667523
0.0633039
0.05945
0.0553135
0.0510073
0.0468408
0.0428976
0.0395253
0.0365687
0.0344769
0.0326681
0.0320716
0.0312012
0.29556
0.154754
0.0886427
0.0558319
0.0402909
0.0357848
0.0391291
0.04665
0.0514139
0.0494991
0.0421699
0.0340504
0.0279886
0.0246596
0.0234421
0.0238021
0.0254657
0.0282498
0.0315314
0.034082
0.0345797
0.0335803
0.0331463
0.034472
0.0375878
0.041987
0.0470913
0.0524366
0.0577022
0.0626821
0.0672485
0.0713222
0.074852
0.0778062
0.0801687
0.0819346
0.0831077
0.083701
0.0837373
0.0832492
0.0822792
0.0808756
0.0790919
0.0769751
0.0745666
0.0718779
0.0688976
0.0655685
0.0618599
0.0577577
0.0534039
0.0489357
0.0446662
0.0406906
0.0373285
0.0344399
0.0324135
0.0307278
0.0301917
0.0295021
0.295514
0.154835
0.08866
0.0555186
0.0393132
0.0337346
0.0360672
0.0437902
0.0509026
0.0521643
0.0469239
0.0391928
0.0324512
0.0282039
0.026255
0.0261273
0.027495
0.0301405
0.0334442
0.0361468
0.0368029
0.0357396
0.0349908
0.0358869
0.0385878
0.0426553
0.0475268
0.0527269
0.0579142
0.0628627
0.067428
0.0715181
0.0750722
0.0780518
0.080435
0.0822119
0.0833824
0.0839558
0.083952
0.0834009
0.0823429
0.0808251
0.0789002
0.0766157
0.0740135
0.0711068
0.0678867
0.0643024
0.060333
0.0559847
0.0514194
0.0467984
0.0424378
0.0384424
0.0351026
0.0322919
0.0303399
0.0287835
0.0283167
0.0278118
0.295474
0.154924
0.0887116
0.0553027
0.0385333
0.0319777
0.0331588
0.0404817
0.0492287
0.0535808
0.0509749
0.044294
0.0372843
0.0322293
0.0295015
0.028801
0.0297934
0.0322314
0.0354992
0.038321
0.0391414
0.0380498
0.0370104
0.0374752
0.0397395
0.0434437
0.0480489
0.0530727
0.058155
0.0630502
0.0675968
0.0716893
0.0752568
0.0782533
0.0806507
0.0824336
0.0835976
0.0841482
0.084102
0.0834859
0.0823383
0.0807048
0.0786371
0.0761829
0.0733848
0.0702581
0.0667963
0.0629552
0.0587255
0.0541346
0.0493652
0.0446027
0.0401645
0.0361631
0.0328583
0.0301354
0.0282665
0.0268447
0.0264558
0.0261383
0.295439
0.155018
0.0887892
0.055166
0.0379233
0.0305043
0.0305012
0.0369679
0.0465755
0.0536612
0.0540406
0.0490602
0.0423014
0.0366687
0.0331812
0.0318452
0.0323854
0.0345435
0.0377115
0.0406125
0.0415944
0.0405087
0.0392077
0.0392448
0.041054
0.0443644
0.0486695
0.0534848
0.0584341
0.0632526
0.0677615
0.0718411
0.0754102
0.0784142
0.0808183
0.0826016
0.0837548
0.0842794
0.0841881
0.083505
0.0822659
0.0805148
0.0783025
0.0756768
0.0726809
0.0693321
0.0656269
0.0615284
0.0570399
0.0522114
0.0472473
0.0423565
0.0378559
0.0338635
0.0306072
0.027982
0.0262048
0.0249222
0.0246192
0.0244907
0.295408
0.155113
0.0888861
0.0550931
0.0374571
0.0292928
0.0281502
0.0334631
0.0431882
0.0524232
0.0558927
0.0531852
0.0472611
0.0413975
0.037257
0.0352631
0.0352868
0.0370933
0.0400938
0.0430251
0.0441595
0.0431114
0.0415824
0.0412014
0.042541
0.0454289
0.0494
0.0539739
0.058761
0.0634779
0.0679289
0.0719792
0.0755367
0.0785379
0.0809407
0.0827181
0.0838557
0.0843504
0.0842111
0.0834587
0.0821261
0.0802554
0.0778966
0.0750974
0.0719018
0.0683292
0.0643793
0.0600234
0.0552787
0.0502192
0.0450719
0.0400682
0.0355226
0.0315556
0.0283619
0.0258444
0.0241671
0.0230276
0.022818
0.0228789
0.29538
0.155208
0.0889965
0.0550709
0.0371106
0.0283148
0.0261276
0.0301375
0.0393429
0.0499893
0.0563832
0.0563764
0.0518837
0.046234
0.0416457
0.0390306
0.0384985
0.0398895
0.0426546
0.045562
0.0468319
0.0458496
0.0441303
0.0433474
0.0442081
0.0466474
0.0502515
0.0545506
0.0591449
0.0637343
0.0681057
0.0721092
0.0756409
0.0786281
0.0810207
0.0827854
0.0839019
0.0843625
0.0841719
0.0833473
0.0819188
0.0799266
0.0774193
0.0744447
0.0710476
0.0672495
0.0630541
0.0584415
0.0534446
0.0481628
0.0428462
0.0377472
0.033176
0.029252
0.0261359
0.0237361
0.0221666
0.0211731
0.0210642
0.0213137
0.295356
0.155303
0.089116
0.0550884
0.0368627
0.0275393
0.0244291
0.0271093
0.035314
0.0465744
0.0554645
0.0583821
0.0558722
0.0509462
0.0462132
0.0430876
0.0420001
0.0429286
0.0453953
0.0482217
0.0496031
0.0487104
0.0468421
0.0456811
0.0460602
0.0480283
0.0512337
0.0552245
0.059595
0.0640297
0.0682985
0.0722364
0.0757273
0.0786883
0.0810611
0.0828053
0.0838949
0.0843167
0.0840711
0.0831713
0.0816443
0.0795282
0.0768702
0.0737182
0.0701178
0.066093
0.0616518
0.0567843
0.0515405
0.0460472
0.0405775
0.0354036
0.0308283
0.0269665
0.0239437
0.0216713
0.0202175
0.0193721
0.0193707
0.0198068
0.295335
0.155395
0.0892409
0.0551365
0.036695
0.0269357
0.0230328
0.0244471
0.0313446
0.0424595
0.0532012
0.0590194
0.0589361
0.0552663
0.0507755
0.0473322
0.045743
0.0461897
0.0483064
0.0509963
0.0524601
0.0516762
0.049703
0.0481956
0.0480978
0.0495775
0.0523549
0.0560044
0.0601194
0.0643715
0.0685138
0.0723663
0.0758001
0.078722
0.0810646
0.08278
0.083836
0.0842139
0.083909
0.0829306
0.0813024
0.0790598
0.0762489
0.0729174
0.069112
0.0648595
0.0601726
0.0550531
0.0495696
0.0438777
0.0382742
0.0330485
0.0284929
0.0247137
0.0218006
0.0196654
0.0183348
0.0176389
0.0177513
0.0183749
0.295316
0.155485
0.0893681
0.0552076
0.0365917
0.0264755
0.0219066
0.0221758
0.0276262
0.0379566
0.0497678
0.0581988
0.0608187
0.0589093
0.0551054
0.0516175
0.0496444
0.0496286
0.0513639
0.0538684
0.0553831
0.0547227
0.052691
0.0508772
0.0503166
0.0512971
0.0536207
0.0568975
0.0607256
0.0647665
0.0687574
0.0725037
0.0758634
0.0787322
0.0810334
0.0827112
0.0837264
0.0840546
0.0836859
0.0826252
0.0808924
0.0785206
0.0755544
0.0720415
0.0680296
0.0635486
0.0586171
0.0532494
0.0475354
0.0416607
0.0359455
0.0306938
0.0261839
0.0225093
0.0197228
0.0177346
0.0165343
0.0159886
0.016221
0.0170318
0.2953
0.155571
0.0894955
0.0552954
0.0365398
0.0261332
0.0210142
0.0202878
0.0242887
0.0333707
0.0454322
0.0559426
0.0613243
0.0615957
0.0589453
0.0557546
0.0535833
0.0531735
0.0545247
0.0568081
0.0583436
0.0578183
0.0557763
0.0537044
0.0527055
0.0531844
0.0550336
0.0579086
0.0614192
0.0652202
0.0690342
0.0726528
0.0759206
0.0787216
0.0809695
0.0826001
0.0835669
0.0838392
0.0834017
0.0822544
0.0804137
0.0779098
0.0747857
0.0710893
0.0668694
0.0621598
0.0569854
0.051375
0.0454416
0.0394027
0.0336013
0.0283524
0.0239164
0.0203695
0.0177272
0.0158955
0.0148326
0.0144373
0.0147956
0.0157922
0.295285
0.155653
0.0896213
0.0553947
0.036528
0.0258866
0.0203192
0.0187532
0.021401
0.0289656
0.0405242
0.0523921
0.0603448
0.063077
0.0620249
0.0595195
0.057401
0.0567208
0.0577226
0.0597697
0.0613025
0.0609224
0.0589198
0.0566464
0.0552451
0.0552304
0.0565915
0.0590396
0.062204
0.0657363
0.069348
0.072817
0.0759743
0.0786924
0.0808744
0.0824476
0.0833577
0.0835674
0.0830556
0.0818174
0.079865
0.0772257
0.0739412
0.0700592
0.0656304
0.0606923
0.0552777
0.0494316
0.0432927
0.0371114
0.0312526
0.0260382
0.0217064
0.0183114
0.0158312
0.0141654
0.0132467
0.0130017
0.0134918
0.0146721
0.295272
0.155732
0.0897442
0.0555015
0.0365472
0.0257168
0.0197874
0.0175304
0.0189805
0.0249394
0.0353936
0.0477988
0.057882
0.0631629
0.0640824
0.0626657
0.0609045
0.0601341
0.0608652
0.0626884
0.0642069
0.0639839
0.0620722
0.0596622
0.0579069
0.0574186
0.0582868
0.0602884
0.0630808
0.0663169
0.0697011
0.0729983
0.0760264
0.0786456
0.0807489
0.0822539
0.0830987
0.0832387
0.0826468
0.0813127
0.0792446
0.0764667
0.073019
0.0689496
0.0643109
0.0591453
0.0534943
0.0474215
0.0410934
0.034795
0.0289112
0.0237661
0.0195706
0.0163523
0.0140525
0.0125619
0.0117943
0.0116995
0.0123273
0.013688
0.295261
0.155807
0.0898633
0.0556125
0.0365898
0.0256081
0.0193884
0.016573
0.0170059
0.0214154
0.0303668
0.0424998
0.0540599
0.0617483
0.0648891
0.0649413
0.0638752
0.0632461
0.0638325
0.065478
0.0669886
0.0669396
0.065173
0.0626992
0.0606511
0.0597228
0.0601048
0.0616479
0.0640459
0.0669611
0.0700936
0.0731972
0.0760771
0.0785816
0.0805926
0.0820185
0.0827887
0.0828516
0.0821734
0.0807384
0.0785503
0.0756304
0.0720168
0.0677582
0.0629093
0.0575178
0.0516357
0.0453471
0.0388496
0.0324631
0.0265902
0.0215517
0.017526
0.0145099
0.0124083
0.0111021
0.0104926
0.0105484
0.0113201
0.0128573
0.295251
0.155877
0.0899779
0.0557252
0.0366494
0.0255472
0.0190961
0.0158356
0.0154324
0.0184447
0.0257081
0.0368763
0.0491232
0.0588368
0.064276
0.0661096
0.0660817
0.0658645
0.0664776
0.0680295
0.0695618
0.069713
0.0681496
0.0656924
0.063426
0.0621066
0.062022
0.0631046
0.0650915
0.0676645
0.0705231
0.0734122
0.0761254
0.0784991
0.0804044
0.0817398
0.0824261
0.082404
0.0816331
0.0800919
0.0777795
0.0747139
0.0709319
0.0664826
0.0614235
0.0558088
0.0497023
0.0432116
0.0365677
0.0301261
0.0243038
0.0194114
0.0155899
0.0128009
0.0109151
0.00980253
0.0093585
0.00956646
0.0104888
0.0121973
0.295242
0.155944
0.0900877
0.0558376
0.0367212
0.0255233
0.0188886
0.0152769
0.0142031
0.0160203
0.0215971
0.0313035
0.0434164
0.0545561
0.0621604
0.065973
0.0672965
0.0677815
0.0686313
0.0702115
0.0718224
0.0722133
0.0709167
0.0685642
0.0661668
0.0645213
0.0640053
0.0646357
0.0662038
0.0684183
0.0709838
0.0736392
0.076168
0.0783954
0.0801815
0.0814151
0.082008
0.081893
0.0810227
0.0793698
0.0769286
0.0737138
0.0697609
0.0651198
0.0598515
0.0540172
0.047695
0.0410186
0.0342551
0.0277956
0.022067
0.0173622
0.0137792
0.0112414
0.00958785
0.00867792
0.00840757
0.00877092
0.00985113
0.0117245
0.295234
0.156007
0.0901924
0.0559482
0.0368011
0.0255277
0.0187477
0.0148606
0.0132593
0.0140956
0.0181229
0.0261021
0.0373454
0.0491595
0.0585694
0.0643986
0.067317
0.0687874
0.0701089
0.0718738
0.073649
0.0743352
0.0733764
0.0712243
0.0687956
0.0669051
0.0660102
0.06621
0.0673619
0.0692086
0.071466
0.0738712
0.0761994
0.0782657
0.0799198
0.0810403
0.0815304
0.0813145
0.0803382
0.0785681
0.0759936
0.0726262
0.0685003
0.0636668
0.0581908
0.0521422
0.0456149
0.0387725
0.0319207