/*--------------------------------*- C++ -*----------------------------------*\
| =========                 |                                                 |
| \\      /  F ield         | OpenFOAM: The Open Source CFD Toolbox           |
|  \\    /   O peration     | Version:  2.4.0                                 |
|   \\  /    A nd           | Web:      www.OpenFOAM.org                      |
|    \\/     M anipulation  |                                                 |
\*---------------------------------------------------------------------------*/
FoamFile
{
    version     2.0;
    format      ascii;
    class       volScalarField;
    location    "4.9";
    object      nut;
}
// * * * * * * * * * * * * * * * * * * * * * * * * * * * * * * * * * * * * * //

dimensions      [0 2 -1 0 0 0 0];

internalField   nonuniform List<scalar> 
6000
(
4.7015e-05
1.44415e-05
4.24787e-06
8.77697e-06
7.78868e-06
8.926e-06
8.56668e-06
8.93942e-06
8.81378e-06
9.02131e-06
9.06021e-06
9.29094e-06
9.5051e-06
9.85933e-06
1.02642e-05
1.0778e-05
1.13576e-05
1.20198e-05
1.27432e-05
1.35296e-05
1.4366e-05
1.52456e-05
1.61542e-05
1.70788e-05
1.80031e-05
1.89116e-05
1.97888e-05
2.06186e-05
2.13844e-05
2.2069e-05
2.26543e-05
2.31218e-05
2.34523e-05
2.36258e-05
2.36217e-05
2.34206e-05
2.30043e-05
2.23552e-05
2.14621e-05
2.03174e-05
1.89353e-05
1.73467e-05
1.56283e-05
1.49854e-05
1.67736e-05
1.86272e-05
2.04337e-05
2.22957e-05
2.39559e-05
2.57122e-05
2.70118e-05
2.86491e-05
2.9358e-05
3.1074e-05
3.08429e-05
3.31828e-05
3.13459e-05
3.54508e-05
3.10193e-05
3.82392e-05
2.94897e-05
9.50735e-06
3.16553e-06
7.01516e-06
6.3226e-06
7.01662e-06
6.77433e-06
7.00765e-06
6.93507e-06
7.08199e-06
7.1384e-06
7.32981e-06
7.53246e-06
7.84158e-06
8.20566e-06
8.65723e-06
9.17126e-06
9.75505e-06
1.03955e-05
1.10914e-05
1.18334e-05
1.26151e-05
1.34263e-05
1.42573e-05
1.50977e-05
1.59385e-05
1.67714e-05
1.75896e-05
1.83871e-05
1.91595e-05
1.99045e-05
2.06221e-05
2.13158e-05
2.19923e-05
2.2664e-05
2.33555e-05
2.41073e-05
2.4986e-05
2.61012e-05
2.76351e-05
2.98827e-05
3.33184e-05
3.84173e-05
4.06403e-05
3.51399e-05
3.09129e-05
2.79918e-05
2.59732e-05
2.46591e-05
2.38198e-05
2.32565e-05
2.30154e-05
2.26894e-05
2.2829e-05
2.23708e-05
2.29793e-05
2.19676e-05
2.35e-05
2.13716e-05
2.43812e-05
2.14309e-05
8.1603e-06
2.81385e-06
5.88991e-06
5.32653e-06
5.68197e-06
5.49727e-06
5.6315e-06
5.59349e-06
5.70864e-06
5.79312e-06
5.98688e-06
6.2236e-06
6.56099e-06
6.97511e-06
7.48452e-06
8.07932e-06
8.76348e-06
9.53256e-06
1.03854e-05
1.13176e-05
1.2324e-05
1.33982e-05
1.45334e-05
1.57239e-05
1.69659e-05
1.82582e-05
1.96026e-05
2.10053e-05
2.24776e-05
2.40376e-05
2.57125e-05
2.75426e-05
2.95769e-05
3.18813e-05
3.45667e-05
3.77911e-05
4.1793e-05
4.6933e-05
5.37718e-05
6.31244e-05
7.61445e-05
9.33432e-05
9.98153e-05
8.18616e-05
6.62866e-05
5.42871e-05
4.49256e-05
3.80695e-05
3.26954e-05
2.88527e-05
2.57119e-05
2.35075e-05
2.1612e-05
2.02609e-05
1.91555e-05
1.81463e-05
1.77651e-05
1.66293e-05
1.71034e-05
1.78746e-05
7.96948e-06
2.98778e-06
5.26069e-06
4.70373e-06
4.76754e-06
4.59363e-06
4.65004e-06
4.63412e-06
4.7387e-06
4.86525e-06
5.101e-06
5.42188e-06
5.86558e-06
6.43243e-06
7.13782e-06
7.98948e-06
8.99629e-06
1.01674e-05
1.15087e-05
1.30256e-05
1.47198e-05
1.65921e-05
1.86428e-05
2.08741e-05
2.3291e-05
2.59036e-05
2.87288e-05
3.17923e-05
3.51308e-05
3.87961e-05
4.28597e-05
4.74241e-05
5.25604e-05
5.84283e-05
6.52517e-05
7.33274e-05
8.30763e-05
9.50873e-05
0.000110192
0.000129431
0.000154
0.000183022
0.000192434
0.000163093
0.000134333
0.000109908
8.92337e-05
7.29128e-05
5.93609e-05
4.91585e-05
4.04873e-05
3.43161e-05
2.8701e-05
2.50826e-05
2.13318e-05
1.9303e-05
1.67591e-05
1.56043e-05
1.41483e-05
1.67546e-05
8.44518e-06
3.53523e-06
5.03897e-06
4.40578e-06
4.18481e-06
3.97943e-06
3.9656e-06
3.96283e-06
4.07439e-06
4.2625e-06
4.58521e-06
5.0548e-06
5.70461e-06
6.56342e-06
7.65694e-06
9.02024e-06
1.06804e-05
1.26716e-05
1.50189e-05
1.77478e-05
2.08757e-05
2.44188e-05
2.83898e-05
3.28036e-05
3.76772e-05
4.30349e-05
4.89101e-05
5.53481e-05
6.24094e-05
7.01739e-05
7.87469e-05
8.82523e-05
9.86926e-05
0.00011031
0.000123363
0.000138171
0.000155169
0.000174932
0.000198215
0.000225839
0.000258553
0.000293626
0.000303722
0.000268911
0.000230902
0.000195657
0.000163419
0.000135829
0.000111397
9.16054e-05
7.40793e-05
6.07673e-05
4.85499e-05
4.0191e-05
3.1725e-05
2.69638e-05
2.10326e-05
1.86513e-05
1.50681e-05
1.71085e-05
9.39795e-06
4.39184e-06
5.14721e-06
4.41049e-06
3.88907e-06
3.609e-06
3.5214e-06
3.52464e-06
3.65981e-06
3.93689e-06
4.40396e-06
5.11251e-06
6.10923e-06
7.46365e-06
9.23032e-06
1.1488e-05
1.42994e-05
1.7738e-05
2.18595e-05
2.67175e-05
3.2349e-05
3.8785e-05
4.60466e-05
5.41514e-05
6.31148e-05
7.29563e-05
8.37015e-05
9.53845e-05
0.000108049
0.000121754
0.000136582
0.000152499
0.000169427
0.000187605
0.000207216
0.000228486
0.00025173
0.000277379
0.000305984
0.000338092
0.000374034
0.000409768
0.000419264
0.000384311
0.000342523
0.000300956
0.000260523
0.000223476
0.000188749
0.000158532
0.000130557
0.00010762
8.61808e-05
7.01315e-05
5.43268e-05
4.42619e-05
3.29059e-05
2.74506e-05
2.08828e-05
1.83893e-05
1.07093e-05
5.51667e-06
5.50527e-06
4.69513e-06
3.86498e-06
3.46394e-06
3.28939e-06
3.29198e-06
3.46849e-06
3.87281e-06
4.56197e-06
5.63815e-06
7.18329e-06
9.32627e-06
1.21711e-05
1.5856e-05
2.04911e-05
2.61929e-05
3.30448e-05
4.11178e-05
5.0453e-05
6.10743e-05
7.29839e-05
8.61694e-05
0.000100607
0.000116271
0.000133133
0.000151169
0.000170353
0.00019067
0.000212128
0.000234349
0.000257345
0.000281259
0.000306177
0.000332215
0.00035957
0.00038854
0.000419516
0.000452879
0.000488597
0.000522104
0.000530654
0.000498617
0.000457113
0.000413399
0.000368806
0.000325712
0.00028349
0.000244535
0.000207071
0.000174197
0.000142785
0.00011715
9.22222e-05
7.42224e-05
5.54416e-05
4.44728e-05
3.37954e-05
2.02058e-05
1.22753e-05
6.86653e-06
6.0607e-06
5.20551e-06
4.11036e-06
3.54475e-06
3.26293e-06
3.2579e-06
3.49641e-06
4.0803e-06
5.09695e-06
6.71811e-06
9.08479e-06
1.24025e-05
1.68373e-05
2.25881e-05
2.98046e-05
3.86252e-05
4.91343e-05
6.1387e-05
7.53941e-05
9.11364e-05
0.000108561
0.000127587
0.000148117
0.000170047
0.000193269
0.000217671
0.000243143
0.000269581
0.000296831
0.000324337
0.000352177
0.000380413
0.000409052
0.000438135
0.000467769
0.000498165
0.000529608
0.000562388
0.00059609
0.000626344
0.000634039
0.000606205
0.000567322
0.000524284
0.000478649
0.000432658
0.000386027
0.000341006
0.000296378
0.000255053
0.000214739
0.000179434
0.00014518
0.000117705
9.04721e-05
7.17018e-05
5.61413e-05
2.2247e-05
1.39955e-05
8.38945e-06
6.80615e-06
5.85944e-06
4.61137e-06
3.8592e-06
3.44999e-06
3.43081e-06
3.75644e-06
4.58808e-06
6.06819e-06
8.45924e-06
1.19797e-05
1.69154e-05
2.34873e-05
3.19312e-05
4.24037e-05
5.50237e-05
6.98363e-05
8.68439e-05
0.000105996
0.000127205
0.000150341
0.000175237
0.000201712
0.000229578
0.000258647
0.000288728
0.000319637
0.000351204
0.000383044
0.00041465
0.000446106
0.000477407
0.000508508
0.000539399
0.000570125
0.000600838
0.000631749
0.000663064
0.000694098
0.000720991
0.000728039
0.000704662
0.000669489
0.000628752
0.000584085
0.0005375
0.000488949
0.000440395
0.000391084
0.000343515
0.000296243
0.00025256
0.000210008
0.000173022
0.000137462
0.000109618
8.90309e-05
2.42783e-05
1.57758e-05
1.00264e-05
7.74441e-06
6.59915e-06
5.31787e-06
4.4029e-06
3.86174e-06
3.82618e-06
4.26955e-06
5.43057e-06
7.53292e-06
1.09451e-05
1.59667e-05
2.29451e-05
3.21266e-05
4.37395e-05
5.79048e-05
7.46801e-05
9.40425e-05
0.000115922
0.000140199
0.000166709
0.000195245
0.000225561
0.000257397
0.000290496
0.000324602
0.000359468
0.000394851
0.000430545
0.000465889
0.00050061
0.00053472
0.000568168
0.000600873
0.000632787
0.000663912
0.000694358
0.000724284
0.000753775
0.000782083
0.000805889
0.000812475
0.000793281
0.000762141
0.000724496
0.000681951
0.000636275
0.000587559
0.000537473
0.000485576
0.000433944
0.000381773
0.000331625
0.000282371
0.000236999
0.000194008
0.000157105
0.000131821
2.61484e-05
1.75358e-05
1.17165e-05
8.86172e-06
7.41838e-06
6.1497e-06
5.13945e-06
4.49389e-06
4.45133e-06
5.04851e-06
6.62476e-06
9.50924e-06
1.41787e-05
2.09994e-05
3.03421e-05
4.24363e-05
5.74576e-05
7.54586e-05
9.6413e-05
0.000120224
0.000146751
0.000175809
0.000207171
0.000240559
0.000275661
0.00031215
0.000349717
0.000388056
0.000426874
0.000465888
0.000504809
0.000542888
0.000579983
0.000616057
0.00065102
0.000684764
0.000717217
0.000748349
0.000778237
0.000807003
0.000834584
0.000860361
0.000881466
0.000887711
0.00087219
0.000844974
0.000810686
0.000770833
0.000726961
0.000679229
0.000629053
0.000576169
0.000522312
0.000467063
0.000412425
0.00035817
0.000306131
0.000256954
0.000212021
0.000182549
2.77811e-05
1.92131e-05
1.34025e-05
1.01248e-05
8.33976e-06
7.04316e-06
6.00341e-06
5.30976e-06
5.28605e-06
6.07584e-06
8.1419e-06
1.19385e-05
1.80396e-05
2.68511e-05
3.87235e-05
5.38314e-05
7.22671e-05
9.40019e-05
0.000118925
0.000146875
0.000177652
0.00021102
0.000246696
0.000284348
0.000323602
0.000364083
0.000405436
0.000447318
0.000489403
0.000531376
0.000572835
0.000613075
0.000652008
0.000689553
0.000725594
0.000760003
0.000792689
0.0008236
0.000852793
0.00088033
0.000906086
0.000929586
0.000948368
0.000954328
0.000941895
0.000918265
0.000887287
0.000850325
0.000808732
0.000762681
0.000713392
0.000660674
0.000606019
0.000549175
0.000491799
0.000434115
0.000377259
0.00032322
0.000271835
0.000238672
2.91563e-05
2.07653e-05
1.50355e-05
1.14882e-05
9.37825e-06
7.98235e-06
6.93366e-06
6.24548e-06
6.27429e-06
7.28947e-06
9.89104e-06
1.46715e-05
2.22851e-05
3.31491e-05
4.75583e-05
6.5609e-05
8.72977e-05
0.000112518
0.000141084
0.000172784
0.000207373
0.000244571
0.000284049
0.000325427
0.000368281
0.00041219
0.000456767
0.000501636
0.000546446
0.000590863
0.000634341
0.000676314
0.000716687
0.000755347
0.000792155
0.000826968
0.000859686
0.000890238
0.000918671
0.000944957
0.000969033
0.000990505
0.00100729
0.00101297
0.00100304
0.00098256
0.000954668
0.000920567
0.000881446
0.000837463
0.000789686
0.000737931
0.00068353
0.000626241
0.000567564
0.000507802
0.000447843
0.000390202
0.000334097
0.000297668
3.02873e-05
2.21682e-05
1.65775e-05
1.29016e-05
1.05297e-05
8.98414e-06
7.90352e-06
7.24092e-06
7.34215e-06
8.59421e-06
1.17334e-05
1.74965e-05
2.66031e-05
3.94629e-05
5.62939e-05
7.71048e-05
0.000101796
0.000130193
0.000162049
0.000197111
0.000235098
0.000275694
0.000318528
0.000363176
0.00040917
0.000456049
0.000503397
0.000550812
0.000597921
0.000644369
0.000689485
0.000732865
0.000774378
0.000813885
0.000851228
0.000886257
0.000918861
0.000948963
0.000976584
0.00100165
0.00102419
0.00104385
0.0010589
0.00106426
0.00105631
0.0010385
0.00101338
0.000981979
0.000945345
0.000903604
0.000857711
0.000807445
0.000754047
0.000697179
0.000638323
0.000577597
0.000515993
0.000455886
0.000396686
0.000357358
3.12037e-05
2.34128e-05
1.80023e-05
1.43161e-05
1.17729e-05
1.00676e-05
8.91944e-06
8.26735e-06
8.43168e-06
9.89774e-06
1.3526e-05
2.01973e-05
3.06907e-05
4.54007e-05
6.44617e-05
8.7794e-05
0.000115207
0.000146468
0.000181277
0.000219349
0.00026037
0.000303992
0.000349805
0.000397345
0.000446102
0.000495578
0.000545332
0.00059494
0.000644009
0.000692135
0.000738623
0.000783155
0.000825573
0.000865716
0.000903415
0.000938511
0.000970894
0.00100048
0.00102723
0.00105114
0.00107225
0.00109028
0.00110379
0.00110879
0.00110233
0.00108673
0.00106404
0.0010351
0.00100086
0.000961398
0.000917582
0.000869139
0.000817254
0.000761442
0.000703254
0.00064246
0.000580393
0.000518809
0.000457915
0.000416026
3.19396e-05
2.45008e-05
1.92945e-05
1.56886e-05
1.30752e-05
1.12383e-05
9.99993e-06
9.32902e-06
9.52128e-06
1.11447e-05
1.51668e-05
2.26102e-05
3.4318e-05
5.06736e-05
7.17308e-05
9.73251e-05
0.000127179
0.00016101
0.000198467
0.000239237
0.00028298
0.00032931
0.000377786
0.000427903
0.000479111
0.000530877
0.000582739
0.000634251
0.000685004
0.00073453
0.000782173
0.000827651
0.000870783
0.000911392
0.000949301
0.000984345
0.00101642
0.00104541
0.00107128
0.00109408
0.00111385
0.00113038
0.00114251
0.00114707
0.00114169
0.00112788
0.00110725
0.00108052
0.00104852
0.00101128
0.000969611
0.000923181
0.000873144
0.000818845
0.000761947
0.000701791
0.000640187
0.000577969
0.000516527
0.00047241
3.25279e-05
2.54416e-05
2.04484e-05
1.69844e-05
1.4398e-05
1.24863e-05
1.11599e-05
1.04462e-05
1.06214e-05
1.2326e-05
1.66153e-05
2.46516e-05
3.73555e-05
5.51151e-05
7.79133e-05
0.000105506
0.000137531
0.00017366
0.000213492
0.000256687
0.000302877
0.000351644
0.000402512
0.000454938
0.000508335
0.000562134
0.000615852
0.000669027
0.000721237
0.000771934
0.000820551
0.000866802
0.000910488
0.000951422
0.000989416
0.00102431
0.00105598
0.00108431
0.0011093
0.00113101
0.00114953
0.00116467
0.00117551
0.00117956
0.00117491
0.00116251
0.00114361
0.00111881
0.00108885
0.00105373
0.0010142
0.00096988
0.000921895
0.000869428
0.000814267
0.000755301
0.000694866
0.000632724
0.000571637
0.000525635
3.29974e-05
2.62484e-05
2.14655e-05
1.81781e-05
1.57017e-05
1.3789e-05
1.2402e-05
1.16369e-05
1.17611e-05
1.3466e-05
1.78853e-05
2.63134e-05
3.97685e-05
5.86683e-05
8.29405e-05
0.00011227
0.000146207
0.000184382
0.00022634
0.000271715
0.000320108
0.000371072
0.000424094
0.000478597
0.000533956
0.000589565
0.000644925
0.000699555
0.000753024
0.000804706
0.000854141
0.000901016
0.00094512
0.000986254
0.00102423
0.00105887
0.00109006
0.00111768
0.00114178
0.00116244
0.00117974
0.00119357
0.00120319
0.00120667
0.00120245
0.00119111
0.00117364
0.00115051
0.00112238
0.00108925
0.00105181
0.00100962
0.000963796
0.000913377
0.000860262
0.000802909
0.000744175
0.000682699
0.000622665
0.000575134
3.33723e-05
2.69364e-05
2.23528e-05
1.92542e-05
1.69499e-05
1.51151e-05
1.37163e-05
1.29105e-05
1.29722e-05
1.46039e-05
1.90235e-05
2.76414e-05
4.15927e-05
6.13577e-05
8.68306e-05
0.000117636
0.000153235
0.000193218
0.00023707
0.000284399
0.000334773
0.000387715
0.000442678
0.000499051
0.00055617
0.000613391
0.000670201
0.000726104
0.00078064
0.000833165
0.000883282
0.00093065
0.00097505
0.00101628
0.00105413
0.00108843
0.00111905
0.00114594
0.00116915
0.00118875
0.00120488
0.00121745
0.00122591
0.00122874
0.00122471
0.00121414
0.00119781
0.0011761
0.00114962
0.00111833
0.00108288
0.0010428
0.00099919
0.000950955
0.000900098
0.000844678
0.000788035
0.000727713
0.000669264
0.000620568
3.36719e-05
2.7521e-05
2.31208e-05
2.02056e-05
1.81118e-05
1.64287e-05
1.50817e-05
1.4265e-05
1.42712e-05
1.57916e-05
2.009e-05
2.87102e-05
4.29076e-05
6.32609e-05
8.96583e-05
0.00012168
0.000158695
0.000200258
0.000245783
0.000294851
0.000346998
0.000401714
0.00045842
0.000516472
0.000575167
0.00063382
0.000691908
0.000748917
0.000804356
0.000857595
0.000908268
0.000956011
0.0010006
0.00104182
0.00107945
0.00111332
0.00114333
0.00116945
0.00119174
0.0012103
0.00122527
0.00123664
0.00124397
0.00124609
0.00124204
0.00123199
0.00121655
0.00119605
0.00117102
0.00114141
0.00110785
0.00106983
0.00102844
0.000982473
0.000934006
0.00088076
0.00082649
0.000767723
0.000711257
0.000661764
3.3912e-05
2.80167e-05
2.37817e-05
2.10327e-05
1.91644e-05
1.76931e-05
1.64685e-05
1.56874e-05
1.56614e-05
1.70725e-05
2.11491e-05
2.96047e-05
4.38142e-05
6.44852e-05
9.15318e-05
0.000124512
0.000162698
0.000205615
0.000252599
0.000303199
0.00035692
0.000413216
0.000471478
0.000531029
0.000591126
0.000651044
0.000710249
0.000768211
0.000824407
0.000878239
0.000929354
0.000977364
0.00102204
0.00106314
0.00110045
0.00113382
0.00116318
0.00118851
0.00120987
0.00122738
0.00124121
0.00125139
0.00125761
0.00125897
0.00125474
0.00124499
0.00123024
0.00121073
0.00118698
0.00115892
0.00112714
0.00109112
0.00105192
0.00100826
0.000962257
0.000911362
0.000859663
0.000802779
0.000748593
0.000698672
3.41047e-05
2.84367e-05
2.43486e-05
2.17414e-05
2.00932e-05
1.88745e-05
1.78412e-05
1.71547e-05
1.7135e-05
1.84555e-05
2.22893e-05
3.04085e-05
4.44203e-05
6.51515e-05
9.25762e-05
0.000126257
0.000165371
0.000209421
0.00025765
0.00030958
0.000364679
0.000422367
0.000482003
0.000542879
0.000604215
0.000665236
0.000725404
0.000784174
0.000840996
0.000895307
0.000946758
0.000994933
0.00103958
0.00108046
0.00111738
0.00115021
0.00117887
0.00120337
0.00122378
0.00124024
0.00125293
0.00126194
0.00126706
0.00126762
0.00126307
0.00125345
0.00123919
0.00122051
0.00119788
0.00117123
0.00114112
0.00110702
0.00106997
0.00102863
0.000985138
0.00093672
0.000887728
0.000832996
0.000781308
0.00073132
3.42598e-05
2.87926e-05
2.48342e-05
2.23415e-05
2.08918e-05
1.99445e-05
1.91618e-05
1.86356e-05
1.86738e-05
1.99375e-05
2.35437e-05
3.12464e-05
4.48312e-05
6.53837e-05
9.29238e-05
0.000127052
0.000166849
0.00021181
0.000261073
0.000314132
0.000370415
0.000429308
0.00049014
0.000552172
0.000614585
0.000676553
0.000737537
0.000796972
0.000854303
0.000908983
0.000960668
0.00100888
0.00105339
0.00109398
0.00113045
0.00116268
0.00119061
0.00121425
0.00123368
0.00124908
0.00126064
0.00126849
0.00127252
0.00127224
0.00126726
0.00125762
0.0012437
0.0012257
0.00120405
0.00117868
0.00115014
0.0011179
0.00108294
0.00104391
0.00100294
0.000957085
0.00091089
0.000858526
0.000809497
0.000759793
3.43849e-05
2.90943e-05
2.52502e-05
2.2845e-05
2.15613e-05
2.08824e-05
2.03931e-05
2.00924e-05
2.02499e-05
2.1504e-05
2.4916e-05
3.21976e-05
4.52011e-05
6.53023e-05
9.27073e-05
0.000127033
0.00016727
0.00021292
0.000263005
0.000316991
0.000374265
0.000434179
0.000496028
0.000559046
0.000622378
0.000685138
0.000746792
0.000806757
0.000864486
0.000919427
0.000971194
0.00101935
0.00106366
0.00110389
0.00113985
0.00117143
0.00119858
0.00122132
0.00123977
0.00125409
0.00126452
0.00127121
0.00127416
0.001273
0.00126751
0.00125774
0.00124403
0.00122657
0.00120577
0.00118159
0.00115452
0.00112406
0.00109114
0.0010544
0.00101594
0.000972713
0.000929368
0.000879547
0.000833292
0.000784212
3.4486e-05
2.93504e-05
2.56074e-05
2.32651e-05
2.21087e-05
2.1676e-05
2.15024e-05
2.14846e-05
2.18274e-05
2.31301e-05
2.63963e-05
3.32772e-05
4.56556e-05
6.50956e-05
9.20557e-05
0.000126337
0.000166771
0.000212888
0.000263582
0.000318293
0.000376364
0.000437111
0.000499799
0.000563635
0.000627726
0.000691123
0.000753301
0.000813672
0.000871653
0.000926723
0.000978483
0.0010265
0.00107053
0.00111033
0.00114573
0.00117661
0.00120294
0.00122476
0.00124219
0.00125542
0.00126471
0.00127026
0.00127212
0.00127007
0.00126399
0.00125399
0.00124038
0.00122336
0.00120332
0.00118022
0.00115454
0.00112579
0.00109485
0.00106038
0.00102441
0.000983852
0.000943384
0.000896249
0.000852852
0.000804719
3.45679e-05
2.9568e-05
2.59149e-05
2.36149e-05
2.25455e-05
2.23216e-05
2.24634e-05
2.27713e-05
2.33639e-05
2.47808e-05
2.79621e-05
3.44839e-05
4.62271e-05
6.4905e-05
9.12143e-05
0.000125094
0.000165487
0.00021185
0.000262938
0.000318171
0.000376844
0.000438237
0.000501583
0.000566064
0.000630754
0.000694631
0.000757159
0.000817782
0.000875906
0.000931004
0.000982665
0.00103046
0.00107413
0.00111344
0.00114822
0.00117836
0.00120384
0.0012247
0.00124108
0.00125321
0.00126136
0.00126577
0.00126653
0.00126357
0.00125687
0.00124656
0.00123296
0.00121629
0.00119692
0.00117483
0.00115047
0.00112336
0.00109436
0.00106212
0.00102862
0.000990744
0.000953163
0.00090883
0.000868348
0.000821469
3.46343e-05
2.97531e-05
2.61808e-05
2.39065e-05
2.28856e-05
2.28233e-05
2.32588e-05
2.39154e-05
2.4814e-05
2.64132e-05
2.95794e-05
3.58006e-05
4.69279e-05
6.4781e-05
9.02839e-05
0.000123546
0.000163643
0.000209938
0.000261205
0.000316756
0.000375835
0.000437684
0.000501505
0.000566445
0.000631525
0.000695718
0.000758457
0.000819209
0.000877364
0.000932389
0.000983861
0.00103136
0.0010746
0.00111335
0.00114745
0.0011768
0.00120138
0.00122125
0.00123658
0.00124759
0.00125459
0.00125785
0.00125753
0.00125365
0.00124627
0.00123559
0.00122195
0.00120555
0.00118679
0.00116563
0.00114252
0.00111702
0.00108989
0.00105985
0.0010288
0.000993619
0.000958922
0.000917483
0.000879958
0.000834623
3.46882e-05
2.99107e-05
2.64116e-05
2.4151e-05
2.31445e-05
2.31917e-05
2.38807e-05
2.48863e-05
2.61324e-05
2.79787e-05
3.1204e-05
3.71963e-05
4.77516e-05
6.47533e-05
8.93312e-05
0.000121784
0.00016135
0.000207337
0.000258543
0.000314183
0.000373449
0.000435546
0.000499644
0.000564855
0.000630151
0.000694495
0.00075731
0.000818067
0.00087614
0.00093099
0.000982181
0.00102929
0.00107203
0.00111017
0.00114354
0.00117204
0.00119569
0.00121454
0.00122878
0.00123866
0.0012445
0.00124662
0.00124522
0.00124041
0.00123234
0.00122125
0.0012075
0.00119132
0.00117309
0.00115282
0.00113092
0.00110697
0.00108168
0.00105382
0.00102517
0.000992696
0.000960872
0.000922402
0.000887861
0.000844344
3.47321e-05
3.0045e-05
2.66129e-05
2.4358e-05
2.33376e-05
2.3442e-05
2.43307e-05
2.56623e-05
2.72772e-05
2.94255e-05
3.27839e-05
3.8627e-05
4.86738e-05
6.48305e-05
8.84018e-05
0.000119885
0.000158703
0.000204152
0.000255062
0.000310564
0.000369799
0.000431933
0.000496108
0.000561403
0.000626739
0.000691065
0.000753827
0.000814461
0.000872338
0.00092691
0.000977726
0.00102437
0.00106653
0.00110399
0.00113657
0.00116419
0.00118686
0.00120466
0.00121779
0.00122653
0.0012312
0.00123217
0.00122969
0.00122395
0.00121517
0.00120364
0.00118975
0.00117375
0.00115602
0.00113659
0.00111586
0.00109342
0.00106993
0.00104423
0.00101795
0.000988182
0.000959212
0.000923773
0.000892235
0.000850791
3.47677e-05
3.01597e-05
2.6789e-05
2.45353e-05
2.34794e-05
2.35924e-05
2.46185e-05
2.62328e-05
2.82141e-05
3.07031e-05
3.42617e-05
4.00385e-05
4.96545e-05
6.50007e-05
8.75204e-05
0.000117905
0.000155781
0.000200477
0.00025086
0.000305999
0.000364987
0.000426952
0.000491004
0.000556194
0.000621393
0.000685537
0.000748111
0.000808494
0.000866059
0.000920247
0.000970594
0.00101668
0.0010582
0.0010949
0.00112664
0.00115333
0.00117498
0.00119171
0.00120371
0.00121128
0.00121478
0.0012146
0.00121105
0.00120438
0.00119488
0.00118289
0.00116883
0.00115298
0.00113572
0.0011171
0.0010975
0.00107655
0.00105484
0.00103126
0.00100734
0.00098027
0.000954136
0.000921776
0.000893253
0.000854122
3.47966e-05
3.02575e-05
2.69437e-05
2.46893e-05
2.35829e-05
2.36621e-05
2.4761e-05
2.65977e-05
2.89189e-05
3.17659e-05
3.55791e-05
4.13691e-05
5.06401e-05
6.52331e-05
8.66897e-05
0.000115882
0.000152649
0.00019639
0.000246027
0.000300585
0.000359112
0.0004207
0.000484432
0.000549329
0.00061421
0.000678024
0.000740262
0.000800265
0.000857398
0.000911093
0.000960876
0.00100632
0.00104711
0.001083
0.00111383
0.00113954
0.00116014
0.00117576
0.00118661
0.001193
0.00119533
0.001194
0.00118939
0.00118179
0.00117156
0.00115911
0.00114486
0.00112914
0.00111233
0.00109451
0.00107602
0.00105653
0.00103658
0.00101511
0.000993524
0.000969145
0.000945824
0.000916584
0.000891085
0.000854489
3.48202e-05
3.03411e-05
2.70799e-05
2.48252e-05
2.36592e-05
2.36703e-05
2.47795e-05
2.67676e-05
2.93793e-05
3.25768e-05
3.66803e-05
4.25536e-05
5.15668e-05
6.54804e-05
8.5892e-05
0.000113831
0.000149352
0.000191956
0.000240641
0.000294405
0.000352262
0.00041327
0.000476486
0.000540902
0.000605284
0.000668621
0.000730377
0.000789867
0.000846446
0.00089954
0.000948659
0.000993374
0.00103336
0.00106837
0.00109824
0.00112292
0.00114243
0.0011569
0.00116657
0.00117178
0.00117292
0.00117046
0.00116478
0.00115627
0.00114533
0.0011324
0.00111796
0.00110236
0.00108598
0.00106894
0.00105155
0.00103352
0.00101531
0.000995946
0.000976669
0.000954979
0.000934451
0.000908364
0.000885895
0.000852039
3.48393e-05
3.04126e-05
2.72001e-05
2.49465e-05
2.37174e-05
2.36349e-05
2.4698e-05
2.67616e-05
2.95961e-05
3.31111e-05
3.75167e-05
4.35273e-05
5.2365e-05
6.5682e-05
8.50909e-05
0.000111748
0.000145916
0.000187225
0.000234764
0.000287533
0.000344518
0.000404748
0.000467253
0.000531004
0.000594703
0.000657419
0.000718548
0.00077739
0.000833294
0.000885673
0.000934028
0.000977923
0.00101702
0.00105108
0.00107994
0.00110354
0.00112192
0.00113522
0.00114369
0.00114769
0.00114765
0.00114404
0.00113732
0.0011279
0.00111626
0.00110287
0.00108824
0.00107276
0.00105681
0.00104055
0.00102426
0.00100768
0.000991196
0.000973924
0.000956944
0.000937937
0.000920182
0.000897276
0.000877839
0.000846915
3.48548e-05
3.04737e-05
2.73064e-05
2.50563e-05
2.37645e-05
2.35716e-05
2.45412e-05
2.66054e-05
2.95823e-05
3.33579e-05
3.80512e-05
4.42316e-05
5.29638e-05
6.57686e-05
8.42344e-05
0.00010961
0.000142349
0.000182228
0.000228447
0.000280029
0.000335948
0.000395206
0.000456813
0.000519716
0.000582562
0.000644506
0.000704861
0.00076292
0.000818024
0.000869576
0.000917064
0.000960048
0.000998184
0.00103122
0.00105901
0.00108148
0.00109868
0.00111078
0.00111804
0.00112082
0.00111959
0.00111485
0.00110709
0.00109679
0.00108445
0.00107061
0.00105581
0.00104045
0.00102494
0.00100946
0.000994264
0.000979135
0.000964381
0.000949198
0.000934504
0.000918176
0.000903177
0.000883473
0.000867071
0.000839254
3.48674e-05
3.05261e-05
2.74005e-05
2.51565e-05
2.38058e-05
2.34934e-05
2.43328e-05
2.63289e-05
2.93619e-05
3.33217e-05
3.82613e-05
4.4618e-05
5.3296e-05
6.56673e-05
8.32596e-05
0.000107377
0.000138638
0.000176978
0.000221724
0.000271943
0.00032661
0.000384711
0.000445236
0.000507112
0.000568953
0.000629962
0.000689397
0.000746539
0.000800718
0.000851328
0.000897846
0.000939826
0.000976917
0.00100886
0.00103551
0.00105681
0.0010728
0.00108367
0.00108969
0.00109125
0.00108883
0.00108296
0.00107418
0.00106301
0.00105
0.00103573
0.00102076
0.00100555
0.000990495
0.000975801
0.00096171
0.000948036
0.000935012
0.000921916
0.0009095
0.000895849
0.000883588
0.000867104
0.00085374
0.000829189
3.48776e-05
3.0571e-05
2.74838e-05
2.52485e-05
2.38448e-05
2.34109e-05
2.4094e-05
2.59633e-05
2.89666e-05
3.30212e-05
3.81416e-05
4.46531e-05
5.33045e-05
6.53072e-05
8.20976e-05
0.000104996
0.000134757
0.000171475
0.000214614
0.000263308
0.000316549
0.000373315
0.000432583
0.000493258
0.000553943
0.000613862
0.000672233
0.000728322
0.000781451
0.000831004
0.000876449
0.000917332
0.000953295
0.000984081
0.00100953
0.0010296
0.00104435
0.00105396
0.00105872
0.00105905
0.00105544
0.00104846
0.00103868
0.00102667
0.00101301
0.000998339
0.000983231
0.000968172
0.000953593
0.000939703
0.000926729
0.000914518
0.00090323
0.000892223
0.000882081
0.000871103
0.000861564
0.000848315
0.000837989
0.000816851
3.48859e-05
3.06095e-05
2.75577e-05
2.53334e-05
2.3884e-05
2.33318e-05
2.38433e-05
2.5539e-05
2.84336e-05
3.24876e-05
3.77038e-05
4.43214e-05
5.29463e-05
6.46258e-05
8.06799e-05
0.000102409
0.00013067
0.000165704
0.000207123
0.000254146
0.0003058
0.000361063
0.000418904
0.00047821
0.000537593
0.000596272
0.000653437
0.000708341
0.000760295
0.000808678
0.000852945
0.000892637
0.000927391
0.000956945
0.000981142
0.000999937
0.0010134
0.00102172
0.00102521
0.0010243
0.00101952
0.00101144
0.00100068
0.000987852
0.000973588
0.000958538
0.000943322
0.000928451
0.000914364
0.000901299
0.000889458
0.000878723
0.000869176
0.000860262
0.000852391
0.000844082
0.000837252
0.000827247
0.000819961
0.000802364
3.48925e-05
3.06426e-05
2.76232e-05
2.54118e-05
2.39244e-05
2.32614e-05
2.35953e-05
2.50839e-05
2.7802e-05
3.17615e-05
3.69764e-05
4.36273e-05
5.21976e-05
6.35744e-05
7.89445e-05
9.95558e-05
0.000126329
0.00015964
0.000199247
0.00024447
0.000294386
0.000347988
0.00040424
0.000462015
0.000519955
0.00057725
0.00063307
0.000686659
0.000737318
0.000784416
0.000827404
0.000865814
0.000899277
0.00092753
0.000950414
0.000967889
0.000980032
0.000987046
0.000989256
0.000987107
0.000981148
0.000971993
0.000960287
0.000946676
0.000931837
0.000916451
0.000901162
0.000886512
0.000872947
0.000860729
0.00085004
0.000840793
0.000832998
0.00082618
0.000820576
0.000814933
0.000810798
0.000804042
0.000799794
0.000785855
3.48979e-05
3.06711e-05
2.76814e-05
2.54845e-05
2.39667e-05
2.3203e-05
2.33611e-05
2.46221e-05
2.711e-05
3.08894e-05
3.60015e-05
4.25951e-05
5.1056e-05
6.21236e-05
7.6843e-05
9.6382e-05
0.000121691
0.000153254
0.000190973
0.000234282
0.000282324
0.000334116
0.000388627
0.000444713
0.000501077
0.000556847
0.00061119
0.000663336
0.00071258
0.000758285
0.000799891
0.000836929
0.000869023
0.000895906
0.000917422
0.000933533
0.000944325
0.000950011
0.000950931
0.000947549
0.000940434
0.000930227
0.000917607
0.000903257
0.000887887
0.000872209
0.00085689
0.000842498
0.000829488
0.000818144
0.000808626
0.000800881
0.000794846
0.000790126
0.000786787
0.000783802
0.000782348
0.00077884
0.00077763
0.000767447
3.49021e-05
3.06958e-05
2.7733e-05
2.55516e-05
2.40108e-05
2.31582e-05
2.31486e-05
2.41733e-05
2.63928e-05
2.99197e-05
3.48312e-05
4.12671e-05
4.95419e-05
6.02669e-05
7.43456e-05
9.28461e-05
0.000116714
0.000146517
0.000182289
0.000223585
0.000269625
0.000319466
0.00037209
0.000426355
0.000480998
0.000535109
0.000587844
0.000638426
0.00068614
0.000730344
0.000770473
0.00080605
0.000836698
0.000862147
0.000882242
0.00089695
0.000906363
0.000910707
0.000910336
0.000905731
0.000897483
0.000886258
0.000872766
0.000857726
0.000841877
0.000825959
0.000810659
0.000796569
0.00078415
0.000773707
0.000765381
0.000759151
0.000754881
0.000752258
0.000751178
0.00075084
0.00075205
0.000751785
0.000753607
0.000747264
3.49056e-05
3.07171e-05
2.77789e-05
2.56137e-05
2.40563e-05
2.31274e-05
2.29625e-05
2.37521e-05
2.56806e-05
2.88991e-05
3.35233e-05
3.96999e-05
4.76975e-05
5.80226e-05
7.14461e-05
8.89251e-05
0.000111372
0.000139408
0.000173185
0.000212378
0.000256301
0.000304059
0.000354658
0.000406972
0.000459756
0.000512078
0.000563081
0.00061198
0.000658054
0.000700655
0.000739212
0.000773245
0.000802374
0.000826329
0.000844955
0.000858224
0.000866237
0.00086923
0.000867573
0.000861765
0.000852414
0.000840215
0.000825903
0.000810231
0.000793964
0.000777866
0.000762642
0.000748902
0.000737114
0.000727601
0.000720487
0.000715779
0.000713277
0.000712745
0.000713913
0.000716206
0.000720059
0.000723023
0.000727869
0.00072543
3.49083e-05
3.07356e-05
2.78198e-05
2.5671e-05
2.41029e-05
2.31097e-05
2.28048e-05
2.3369e-05
2.49976e-05
2.78701e-05
3.21363e-05
3.79594e-05
4.5583e-05
5.54338e-05
6.8165e-05
8.46199e-05
0.000105655
0.00013192
0.000163661
0.000200674
0.00024237
0.000287919
0.000336358
0.000386594
0.000437388
0.000487794
0.000536946
0.00058405
0.000628378