/*--------------------------------*- C++ -*----------------------------------*\
| =========                 |                                                 |
| \\      /  F ield         | OpenFOAM: The Open Source CFD Toolbox           |
|  \\    /   O peration     | Version:  2.4.0                                 |
|   \\  /    A nd           | Web:      www.OpenFOAM.org                      |
|    \\/     M anipulation  |                                                 |
\*---------------------------------------------------------------------------*/
FoamFile
{
    version     2.0;
    format      ascii;
    class       surfaceScalarField;
    location    "4.9";
    object      phi;
}
// * * * * * * * * * * * * * * * * * * * * * * * * * * * * * * * * * * * * * //

dimensions      [0 3 -1 0 0 0 0];

internalField   nonuniform List<scalar> 
11840
(
7.85122e-07
9.21488e-06
-2.03134e-08
8.05435e-07
-4.80628e-08
2.77495e-08
-7.30456e-08
2.49828e-08
-8.37784e-08
1.07328e-08
-8.51868e-08
1.4084e-09
-8.91579e-08
3.9711e-09
-8.86859e-08
-4.72035e-10
-9.11153e-08
2.42939e-09
-9.17335e-08
6.18171e-10
-9.46093e-08
2.87581e-09
-9.73829e-08
2.77363e-09
-1.02197e-07
4.81404e-09
-1.07982e-07
5.78476e-09
-1.15755e-07
7.7736e-09
-1.25005e-07
9.2498e-09
-1.36167e-07
1.11619e-08
-1.49011e-07
1.28437e-08
-1.63722e-07
1.47118e-08
-1.80195e-07
1.64731e-08
-1.98448e-07
1.82524e-08
-2.18307e-07
1.98587e-08
-2.39575e-07
2.12689e-08
-2.61909e-07
2.23332e-08
-2.84902e-07
2.29934e-08
-3.08071e-07
2.31688e-08
-3.30867e-07
2.27959e-08
-3.52653e-07
2.17864e-08
-3.72717e-07
2.00637e-08
-3.90267e-07
1.75506e-08
-4.04449e-07
1.4182e-08
-4.14356e-07
9.90622e-09
-4.19056e-07
4.70004e-09
-4.17634e-07
-1.42123e-09
-4.09127e-07
-8.50789e-09
-3.92687e-07
-1.64391e-08
-3.67561e-07
-2.51266e-08
-3.33062e-07
-3.44992e-08
-2.88776e-07
-4.4286e-08
-2.34323e-07
-5.44525e-08
-1.69984e-07
-6.43388e-08
-9.61527e-08
-7.38316e-08
-1.53711e-08
-8.07817e-08
6.74448e-08
-8.28159e-08
1.47574e-07
-8.01293e-08
2.27672e-07
-8.0098e-08
3.04655e-07
-7.6983e-08
3.82339e-07
-7.76837e-08
4.52302e-07
-6.99633e-08
5.24905e-07
-7.26024e-08
5.81151e-07
-5.62463e-08
6.48305e-07
-6.71541e-08
6.82498e-07
-3.41934e-08
7.50444e-07
-6.79456e-08
7.5094e-07
-4.96298e-10
8.37642e-07
-8.6702e-08
7.86539e-07
5.11033e-08
9.3233e-07
-1.45791e-07
8.0605e-07
1.2628e-07
-3.85822e-07
1.91813e-06
1.72968e-05
1.02234e-07
2.62133e-06
-7.42955e-08
2.04279e-07
-1.77862e-07
1.2855e-07
-2.09728e-07
4.25987e-08
-2.27277e-07
1.89574e-08
-2.37768e-07
1.4462e-08
-2.42697e-07
4.45713e-09
-2.49012e-07
8.74358e-09
-2.53807e-07
5.41358e-09
-2.61594e-07
1.06627e-08
-2.70765e-07
1.19449e-08
-2.83984e-07
1.80324e-08
-3.00583e-07
2.23844e-08
-3.21852e-07
2.90421e-08
-3.47368e-07
3.4766e-08
-3.77616e-07
4.14101e-08
-4.12344e-07
4.75716e-08
-4.5171e-07
5.40779e-08
-4.95518e-07
6.02812e-08
-5.43608e-07
6.63421e-08
-5.9548e-07
7.17307e-08
-6.50453e-07
7.62421e-08
-7.07533e-07
7.94128e-08
-7.65545e-07
8.10052e-08
-8.23144e-07
8.07682e-08
-8.78831e-07
7.84829e-08
-9.30921e-07
7.38766e-08
-9.77566e-07
6.67081e-08
-1.01676e-06
5.67484e-08
-1.04639e-06
4.38099e-08
-1.06424e-06
2.7756e-08
-1.06807e-06
8.53199e-09
-1.05562e-06
-1.38701e-08
-1.0248e-06
-3.93334e-08
-9.73537e-07
-6.77006e-08
-9.00074e-07
-9.85893e-08
-8.02866e-07
-1.31708e-07
-6.80858e-07
-1.66293e-07
-5.33348e-07
-2.01963e-07
-3.60885e-07
-2.36802e-07
-1.6531e-07
-2.69407e-07
4.58602e-08
-2.91952e-07
2.58395e-07
-2.95351e-07
4.64346e-07
-2.8608e-07
6.6798e-07
-2.83732e-07
8.65214e-07
-2.74217e-07
1.05868e-06
-2.71146e-07
1.23811e-06
-2.49396e-07
1.41302e-06
-2.47514e-07
1.56214e-06
-2.05369e-07
1.71363e-06
-2.1864e-07
1.82015e-06
-1.40716e-07
1.95338e-06
-2.0117e-07
2.00471e-06
-5.18333e-08
2.14186e-06
-2.23848e-07
2.12363e-06
6.93298e-08
2.32309e-06
-3.45248e-07
2.22303e-06
2.2634e-07
-1.00247e-06
2.9172e-06
2.43795e-05
3.96541e-07
5.14199e-06
-4.04598e-08
6.41279e-07
-2.39315e-07
3.27405e-07
-3.02454e-07
1.05738e-07
-3.4422e-07
6.07229e-08
-3.64283e-07
3.45253e-08
-3.78331e-07
1.85052e-08
-3.89788e-07
2.02011e-08
-4.00474e-07
1.60996e-08
-4.13617e-07
2.38049e-08
-4.2973e-07
2.80583e-08
-4.51142e-07
3.94446e-08
-4.78214e-07
4.94563e-08
-5.1209e-07
6.29183e-08
-5.52704e-07
7.53796e-08
-6.0038e-07
8.90865e-08
-6.54926e-07
1.02117e-07
-7.16348e-07
1.155e-07
-7.8435e-07
1.28283e-07
-8.58496e-07
1.40489e-07
-9.37917e-07
1.51152e-07
-1.02138e-06
1.59706e-07
-1.10722e-06
1.6525e-07
-1.19347e-06
1.67257e-07
-1.27794e-06
1.65241e-07
-1.35822e-06
1.58761e-07
-1.43165e-06
1.47303e-07
-1.49536e-06
1.30415e-07
-1.5463e-06
1.07694e-07
-1.58131e-06
7.88238e-08
-1.59716e-06
4.36042e-08
-1.59062e-06
1.99064e-09
-1.55855e-06
-4.59435e-08
-1.49806e-06
-9.98261e-08
-1.40649e-06
-1.59266e-07
-1.28165e-06
-2.23424e-07
-1.12186e-06
-2.91506e-07
-9.2621e-07
-3.61941e-07
-6.94778e-07
-4.33395e-07
-4.29592e-07
-5.01988e-07
-1.35588e-07
-5.6341e-07
1.75521e-07
-6.03061e-07
4.87962e-07
-6.07792e-07
7.96292e-07
-5.94409e-07
1.10308e-06
-5.90521e-07
1.40343e-06
-5.74571e-07
1.69605e-06
-5.63761e-07
1.97187e-06
-5.25213e-07
2.23455e-06
-5.10201e-07
2.46806e-06
-4.38876e-07
2.69009e-06
-4.40665e-07
2.86695e-06
-3.17583e-07
3.0492e-06
-3.83421e-07
3.15946e-06
-1.62092e-07
3.32143e-06
-3.85817e-07
3.36068e-06
3.00866e-08
3.56417e-06
-5.48743e-07
3.54788e-06
2.42631e-07
-1.69307e-06
3.80895e-06
3.05706e-05
8.13313e-07
8.13762e-06
5.25427e-08
1.40205e-06
-2.53223e-07
6.3317e-07
-3.61899e-07
2.14414e-07
-4.33802e-07
1.32627e-07
-4.68414e-07
6.91366e-08
-4.94264e-07
4.43552e-08
-5.13044e-07
3.89817e-08
-5.30816e-07
3.38714e-08
-5.50174e-07
4.31627e-08
-5.73483e-07
5.13674e-08
-6.03007e-07
6.8969e-08
-6.3998e-07
8.64293e-08
-6.85507e-07
1.08445e-07
-7.3978e-07
1.29653e-07
-8.02978e-07
1.52284e-07
-8.74882e-07
1.74021e-07
-9.55302e-07
1.9592e-07
-1.04375e-06
2.16728e-07
-1.13944e-06
2.36179e-07
-1.24105e-06
2.52766e-07
-1.34676e-06
2.65414e-07
-1.45419e-06
2.72684e-07
-1.56062e-06
2.73688e-07
-1.66306e-06
2.67676e-07
-1.75826e-06
2.53963e-07
-1.84274e-06
2.31786e-07
-1.91283e-06
2.005e-07
-1.9647e-06
1.59561e-07
-1.99446e-06
1.08593e-07
-1.99828e-06
4.74162e-08
-1.97239e-06
-2.38915e-08
-1.91335e-06
-1.04984e-07
-1.81807e-06
-1.95111e-07
-1.68394e-06
-2.93395e-07
-1.50906e-06
-3.98305e-07
-1.29235e-06
-5.08218e-07
-1.03388e-06
-6.20404e-07
-7.35261e-07
-7.32018e-07
-4.00485e-07
-8.36764e-07
-3.72007e-08
-9.26694e-07
3.42189e-07
-9.8245e-07
7.26665e-07
-9.92269e-07
1.11424e-06
-9.81988e-07
1.50391e-06
-9.8019e-07
1.88955e-06
-9.60209e-07
2.26604e-06
-9.40249e-07
2.62475e-06
-8.83923e-07
2.96406e-06
-8.49511e-07
3.27163e-06
-7.4645e-07
3.55673e-06
-7.2576e-07
3.79553e-06
-5.56391e-07
4.02321e-06
-6.11092e-07
4.1839e-06
-3.22791e-07
4.37162e-06
-5.73536e-07
4.45605e-06
-5.43387e-08
4.6676e-06
-7.60295e-07
4.71784e-06
1.92396e-07
-2.40414e-06
4.61536e-06
3.59552e-05
1.32428e-06
1.14287e-05
2.12593e-07
2.51374e-06
-2.18404e-07
1.06417e-06
-3.86864e-07
3.82874e-07
-4.95196e-07
2.40959e-07
-5.49441e-07
1.23381e-07
-5.89949e-07
8.48632e-08
-6.18273e-07
6.73058e-08
-6.44388e-07
5.99865e-08
-6.70806e-07
6.95801e-08
-7.01547e-07
8.21084e-08
-7.39024e-07
1.06446e-07
-7.85224e-07
1.32629e-07
-8.41282e-07
1.64503e-07
-9.07563e-07
1.95933e-07
-9.84086e-07
2.28808e-07
-1.07052e-06
2.60454e-07
-1.16641e-06
2.91807e-07
-1.27097e-06
3.21287e-07
-1.38299e-06
3.48202e-07
-1.50064e-06
3.70416e-07
-1.62146e-06
3.86235e-07
-1.74241e-06
3.93633e-07
-1.86007e-06
3.91345e-07
-1.97077e-06
3.78381e-07
-2.07066e-06
3.5385e-07
-2.15568e-06
3.16804e-07
-2.22166e-06
2.66484e-07
-2.26442e-06
2.02315e-07
-2.27981e-06
1.23985e-07
-2.26386e-06
3.1472e-08
-2.21292e-06
-7.4837e-08
-2.12372e-06
-1.9418e-07
-1.99354e-06
-3.25289e-07
-1.82032e-06
-4.66616e-07
-1.60285e-06
-6.15775e-07
-1.34094e-06
-7.7013e-07
-1.03569e-06
-9.25659e-07
-6.89893e-07
-1.07781e-06
-3.08702e-07
-1.21796e-06
9.92961e-08
-1.33469e-06
5.23533e-07
-1.40669e-06
9.58378e-07
-1.42711e-06
1.4037e-06
-1.42731e-06
1.85533e-06
-1.43181e-06
2.30654e-06
-1.41142e-06
2.74959e-06
-1.3833e-06
3.17628e-06
-1.31062e-06
3.58047e-06
-1.2537e-06
3.95264e-06
-1.11862e-06
4.29433e-06
-1.06745e-06
4.58961e-06
-8.51665e-07
4.8603e-06
-8.81784e-07
5.06727e-06
-5.29761e-07
5.28164e-06
-7.87907e-07
5.40427e-06
-1.76968e-07
5.62672e-06
-9.82751e-07
5.72809e-06
9.1028e-08
-3.09861e-06
5.34683e-06
4.06084e-05
1.902e-06
1.48735e-05
4.47834e-07
3.9679e-06
-1.33707e-07
1.64571e-06
-3.76181e-07
6.25348e-07
-5.27569e-07
3.92347e-07
-6.06671e-07
2.02484e-07
-6.64883e-07
1.43075e-07
-7.0503e-07
1.07453e-07
-7.40816e-07
9.57728e-08
-7.75134e-07
1.03897e-07
-8.13527e-07
1.20501e-07
-8.58723e-07
1.51642e-07
-9.13369e-07
1.87275e-07
-9.78673e-07
2.29807e-07
-1.05509e-06
2.72354e-07
-1.14246e-06
3.16176e-07
-1.24024e-06
3.58232e-07
-1.34764e-06
3.99205e-07
-1.46349e-06
4.37144e-07
-1.58613e-06
4.70837e-07
-1.71317e-06
4.97461e-07
-1.8416e-06
5.14665e-07
-1.96782e-06
5.19853e-07
-2.08791e-06
5.11435e-07
-2.19781e-06
4.88273e-07
-2.29332e-06
4.49366e-07
-2.37021e-06
3.93694e-07
-2.42423e-06
3.20505e-07
-2.45124e-06
2.29322e-07
-2.44728e-06
1.20023e-07
-2.40868e-06
-7.1258e-09
-2.33219e-06
-1.51329e-07
-2.215e-06
-3.1137e-07
-2.05487e-06
-4.85414e-07
-1.85032e-06
-6.71173e-07
-1.6007e-06
-8.65387e-07
-1.30645e-06
-1.06439e-06
-9.6921e-07
-1.2629e-06
-5.92322e-07
-1.4547e-06
-1.8119e-07
-1.62909e-06
2.55845e-07
-1.77173e-06
7.10512e-07
-1.86135e-06
1.18068e-06
-1.89728e-06
1.66651e-06
-1.91314e-06
2.16169e-06
-1.927e-06
2.65944e-06
-1.90917e-06
3.15075e-06
-1.8746e-06
3.62819e-06
-1.78806e-06
4.08268e-06
-1.70819e-06
4.50723e-06
-1.54317e-06
4.89689e-06
-1.45711e-06
5.24251e-06
-1.19728e-06
5.55317e-06
-1.19245e-06
5.8048e-06
-7.81391e-07
6.04631e-06
-1.02941e-06
6.20602e-06
-3.36675e-07
6.44053e-06
-1.21727e-06
6.58378e-06
-5.22138e-08
-3.75195e-06
6.00888e-06
4.45995e-05
2.52357e-06
1.83588e-05
7.56643e-07
5.73483e-06
-2.358e-09
2.40471e-06
-3.28673e-07
9.51663e-07
-5.30007e-07
5.93681e-07
-6.39369e-07
3.11845e-07
-7.18535e-07
2.22241e-07
-7.7287e-07
1.61788e-07
-8.19741e-07
1.42644e-07
-8.62809e-07
1.46966e-07
-9.09066e-07
1.66759e-07
-9.61682e-07
2.04258e-07
-1.02389e-06
2.49488e-07
-1.09701e-06
3.02918e-07
-1.1815e-06
3.56853e-07
-1.277e-06
4.11673e-07
-1.38269e-06
4.63921e-07
-1.4974e-06
5.1392e-07
-1.61959e-06
5.59326e-07
-1.74711e-06
5.98357e-07
-1.87717e-06
6.2752e-07
-2.00634e-06
6.43835e-07
-2.1307e-06
6.44222e-07
-2.24614e-06
6.26874e-07
-2.34849e-06
5.90619e-07
-2.43358e-06
5.34459e-07
-2.49729e-06
4.57403e-07
-2.53559e-06
3.588e-07
-2.54462e-06
2.38352e-07
-2.52078e-06
9.61892e-08
-2.46083e-06
-6.70757e-08
-2.36189e-06
-2.50267e-07
-2.22153e-06
-4.51738e-07
-2.03786e-06
-6.69078e-07
-1.80977e-06
-8.99266e-07
-1.53695e-06
-1.13821e-06
-1.22011e-06
-1.38123e-06
-8.6111e-07
-1.62189e-06
-4.63424e-07
-1.85239e-06
-3.23136e-08
-2.0602e-06
4.24594e-07
-2.22864e-06
9.00941e-07
-2.3377e-06
1.39628e-06
-2.39262e-06
1.91019e-06
-2.42705e-06
2.43511e-06
-2.45193e-06
2.96431e-06
-2.43836e-06
3.48829e-06
-2.39859e-06
4.00047e-06
-2.30024e-06
4.49029e-06
-2.19801e-06
4.95297e-06
-2.00585e-06
5.37909e-06
-1.88322e-06
5.76535e-06
-1.58353e-06
6.1098e-06
-1.53691e-06
6.40236e-06
-1.07395e-06
6.66939e-06
-1.29644e-06
6.86698e-06
-5.34265e-07
7.11286e-06
-1.46315e-06
7.29442e-06
-2.33774e-07
-4.34879e-06
6.60535e-06
4.79942e-05
3.17e-06
2.17942e-05
1.13538e-06
7.76945e-06
1.93405e-07
3.34668e-06
-2.43072e-07
1.38814e-06
-5.01477e-07
8.52086e-07
-6.46711e-07
4.57079e-07
-7.50306e-07
3.25836e-07
-8.21306e-07
2.32787e-07
-8.80779e-07
2.02117e-07
-9.33482e-07
1.99668e-07
-9.87825e-07
2.21102e-07
-1.04751e-06
2.63947e-07
-1.11634e-06
3.18313e-07
-1.19571e-06
3.8229e-07
-1.28612e-06
4.4726e-07
-1.38694e-06
5.12498e-07
-1.49711e-06
5.74084e-07
-1.61509e-06
6.31908e-07
-1.73902e-06
6.83247e-07
-1.86642e-06
7.25763e-07
-1.99426e-06
7.55361e-07
-2.11894e-06
7.68513e-07
-2.23648e-06
7.61767e-07
-2.34281e-06
7.33199e-07
-2.43389e-06
6.81698e-07
-2.50577e-06
6.06339e-07
-2.55458e-06
5.06214e-07
-2.57659e-06
3.8081e-07
-2.56827e-06
2.30028e-07
-2.52635e-06
5.42701e-08
-2.44789e-06
-1.45532e-07
-2.33028e-06
-3.67876e-07
-2.17131e-06
-6.10705e-07
-1.96936e-06
-8.71029e-07
-1.7235e-06
-1.14513e-06
-1.43359e-06
-1.42812e-06
-1.10047e-06
-1.71435e-06
-7.26059e-07
-1.9963e-06
-3.13793e-07
-2.26465e-06
1.3135e-07
-2.50534e-06
6.02579e-07
-2.69986e-06
1.09492e-06
-2.83004e-06
1.60842e-06
-2.90612e-06
2.14175e-06
-2.96038e-06
2.68669e-06
-2.99687e-06
3.23654e-06
-2.98821e-06
3.78172e-06
-2.94377e-06
4.31627e-06
-2.8348e-06
4.82907e-06
-2.7108e-06
5.31701e-06
-2.4938e-06
5.76804e-06
-2.33425e-06
6.18347e-06
-1.99897e-06
6.55311e-06
-1.90655e-06
6.879e-06
-1.39984e-06
7.16698e-06
-1.58442e-06
7.40048e-06
-7.67766e-07
7.65501e-06
-1.71768e-06
7.87303e-06
-4.51788e-07
-4.88062e-06
7.13981e-06
5.08544e-05
3.82544e-06
2.51086e-05
1.57725e-06
1.00176e-05
4.38366e-07
4.48556e-06
-1.17457e-07
1.94396e-06
-4.40796e-07
1.17543e-06
-6.27767e-07
6.4405e-07
-7.59492e-07
4.57562e-07
-8.49782e-07
3.23076e-07
-9.23503e-07
2.75839e-07
-9.86785e-07
2.62949e-07
-1.04947e-06
2.83792e-07
-1.11589e-06
3.30359e-07
-1.19035e-06
3.92782e-07
-1.27443e-06
4.66369e-07
-1.36863e-06
5.41452e-07
-1.47214e-06
6.16009e-07
-1.58367e-06
6.8562e-07
-1.70147e-06
7.49711e-07
-1.82345e-06
8.05222e-07
-1.947e-06
8.49312e-07
-2.06901e-06
8.7737e-07
-2.1859e-06
8.85409e-07
-2.29383e-06
8.69692e-07
-2.38888e-06
8.2825e-07
-2.46726e-06
7.60078e-07
-2.52527e-06
6.64348e-07
-2.5593e-06
5.40247e-07
-2.56589e-06
3.87401e-07
-2.54178e-06
2.05912e-07
-2.48394e-06
-3.56552e-09
-2.38964e-06
-2.3983e-07
-2.25643e-06
-5.01091e-07
-2.08227e-06
-7.84867e-07
-1.86568e-06
-1.08761e-06
-1.60588e-06
-1.40494e-06
-1.30282e-06
-1.73118e-06
-9.57391e-07
-2.05978e-06
-5.71527e-07
-2.38216e-06
-1.48554e-07
-2.68762e-06
3.06878e-07
-2.96077e-06
7.88773e-07
-3.18176e-06
1.2931e-06
-3.33437e-06
1.81972e-06
-3.43274e-06
2.36635e-06
-3.507e-06
2.92447e-06
-3.55499e-06
3.48745e-06
-3.55119e-06
4.04576e-06
-3.50208e-06
4.59389e-06
-3.38293e-06
5.12057e-06
-3.23749e-06
5.6239e-06
-2.99712e-06
6.09038e-06
-2.80073e-06
6.52467e-06
-2.43326e-06
6.91096e-06
-2.29284e-06
7.2609e-06
-1.74978e-06
7.56367e-06
-1.88719e-06
7.82726e-06
-1.03136e-06
8.08634e-06
-1.97676e-06
8.33695e-06
-7.02397e-07
-5.34459e-06
7.61607e-06
5.32383e-05
4.47673e-06
2.82479e-05
2.07345e-06
1.24209e-05
7.38131e-07
5.82089e-06
5.02572e-08
2.63184e-06
-3.46638e-07
1.57232e-06
-5.81486e-07
8.78898e-07
-7.45269e-07
6.21345e-07
-8.57652e-07
4.35459e-07
-9.47422e-07
3.65609e-07
-1.02233e-06
3.37854e-07
-1.0937e-06
3.55168e-07
-1.16655e-06
4.03201e-07
-1.24577e-06
4.72004e-07
-1.33313e-06
5.53731e-07
-1.42922e-06
6.37546e-07
-1.53318e-06
7.19961e-07
-1.6436e-06
7.96041e-07
-1.75861e-06
8.64722e-07
-1.87605e-06
9.22667e-07
-1.99332e-06
9.66576e-07
-2.10735e-06
9.91406e-07
-2.21472e-06
9.92779e-07
-2.31176e-06
9.6673e-07
-2.39479e-06
9.11274e-07
-2.46024e-06
8.25528e-07
-2.50465e-06
7.08757e-07
-2.52464e-06
5.60239e-07
-2.51697e-06
3.79728e-07
-2.47857e-06
1.67513e-07
-2.40661e-06
-7.55201e-08
-2.29849e-06
-3.47954e-07
-2.15187e-06
-6.47712e-07
-1.96485e-06
-9.71882e-07
-1.73609e-06
-1.31637e-06
-1.46488e-06
-1.67615e-06
-1.15123e-06
-2.04482e-06
-7.96097e-07
-2.41492e-06
-4.01365e-07
-2.7769e-06
2.97487e-08
-3.11874e-06
4.92927e-07
-3.42395e-06
9.82878e-07
-3.67171e-06
1.49618e-06
-3.84767e-06
2.03214e-06
-3.9687e-06
2.58759e-06
-4.06245e-06
3.15399e-06
-4.1214e-06
3.72475e-06
-4.12194e-06
4.2905e-06
-4.06783e-06
4.84601e-06
-3.93844e-06
5.38014e-06
-3.77162e-06
5.89172e-06
-3.5087e-06
6.36661e-06
-3.27562e-06
6.81172e-06
-2.87837e-06
7.2076e-06
-2.68872e-06
7.57304e-06
-2.11521e-06
7.88463e-06
-2.19878e-06
8.17063e-06
-1.31735e-06
8.42999e-06
-2.23612e-06
8.70673e-06
-9.79137e-07
-5.74245e-06
8.03821e-06
5.52001e-05
5.11315e-06
3.1173e-05
2.61388e-06
1.49202e-05
1.09228e-06
7.34249e-06
2.61388e-07
3.46272e-06
-2.17567e-07
2.05128e-06
-5.06699e-07
1.16803e-06
-7.06683e-07
8.2133e-07
-8.44172e-07
5.72947e-07
-9.51975e-07
4.73412e-07
-1.0397e-06
4.25576e-07
-1.12024e-06
4.35712e-07
-1.19936e-06
4.82323e-07
-1.28263e-06
5.55276e-07
-1.37212e-06
6.43219e-07
-1.46863e-06
7.34052e-07
-1.57132e-06
8.22658e-07
-1.67885e-06
9.03567e-07
-1.78932e-06
9.75194e-07
-1.90062e-06
1.03396e-06
-2.01019e-06
1.07615e-06
-2.11514e-06
1.09635e-06
-2.21219e-06
1.08983e-06
-2.29789e-06
1.05244e-06
-2.36879e-06
9.82174e-07
-2.42154e-06
8.78276e-07
-2.45288e-06
7.40093e-07
-2.45961e-06
5.66976e-07
-2.43868e-06
3.58798e-07
-2.38719e-06
1.16024e-07
-2.30245e-06
-1.60268e-07
-2.18193e-06
-4.68471e-07
-2.02343e-06
-8.0621e-07
-1.82518e-06
-1.17014e-06
-1.58591e-06
-1.55564e-06
-1.305e-06
-1.95706e-06
-9.82531e-07
-2.36728e-06
-6.19459e-07
-2.77799e-06
-2.1766e-07
-3.17869e-06
2.1978e-07
-3.55618e-06
6.88857e-07
-3.89303e-06
1.18486e-06
-4.16771e-06
1.70474e-06
-4.36755e-06
2.24711e-06
-4.51107e-06
2.80802e-06
-4.62337e-06
3.37905e-06
-4.69242e-06
3.95367e-06
-4.69657e-06
4.52272e-06
-4.63688e-06
5.08117e-06
-4.49689e-06
5.61811e-06
-4.30855e-06
6.13286e-06
-4.02345e-06
6.61103e-06
-3.7538e-06
7.06104e-06
-3.32838e-06
7.46117e-06
-3.08885e-06
7.83523e-06
-2.48927e-06
8.15073e-06
-2.51428e-06
8.45166e-06
-1.61828e-06
8.70775e-06
-2.49222e-06
9.00293e-06
-1.27432e-06
-6.07899e-06
8.41045e-06
5.67896e-05
5.72618e-06
3.38572e-05
3.18774e-06
1.74586e-05
1.49885e-06
9.03138e-06
5.18899e-07
4.44268e-06
-5.22113e-08
2.62239e-06
-4.02113e-07
1.51793e-06
-6.42644e-07
1.06186e-06
-8.0849e-07
7.38793e-07
-9.36525e-07
6.01447e-07
-1.03845e-06
5.27504e-07
-1.12885e-06
5.26112e-07
-1.21433e-06
5.67796e-07
-1.30122e-06
6.42167e-07
-1.39203e-06
7.34031e-07
-1.48791e-06
8.29933e-07
-1.58821e-06
9.22954e-07
-1.69169e-06
1.00705e-06
-1.79655e-06
1.08006e-06
-1.90077e-06
1.13818e-06
-2.00191e-06
1.17729e-06
-2.09723e-06
1.19167e-06
-2.18366e-06
1.17626e-06
-2.25796e-06
1.12673e-06
-2.31687e-06
1.04109e-06
-2.35725e-06
9.18658e-07
-2.37602e-06
7.58862e-07
-2.37016e-06
5.61113e-07
-2.33675e-06
3.2539e-07
-2.27305e-06
5.2322e-08
-2.17646e-06
-2.5686e-07
-2.04456e-06
-6.00366e-07
-1.87527e-06
-9.75507e-07
-1.6669e-06
-1.3785e-06
-1.4183e-06
-1.80424e-06
-1.12892e-06
-2.24644e-06
-7.98876e-07
-2.69732e-06
-4.29158e-07
-3.14771e-06
-2.16144e-08
-3.58624e-06
4.20795e-07
-3.99859e-06
8.94339e-07
-4.36657e-06
1.39478e-06
-4.66816e-06
1.91926e-06
-4.89203e-06
2.46568e-06
-5.05749e-06
3.02944e-06
-5.18713e-06
3.60229e-06
-5.26527e-06
4.17781e-06
-5.27208e-06
4.74705e-06
-5.20613e-06
5.30515e-06
-5.05498e-06
5.84147e-06
-4.84488e-06
6.35566e-06
-4.53764e-06
6.83338e-06
-4.23151e-06
7.28395e-06
-3.77895e-06
7.68435e-06
-3.48924e-06
8.06184e-06
-2.86677e-06
8.37748e-06
-2.82993e-06
8.68705e-06
-1.92784e-06
8.93729e-06
-2.74246e-06
9.24351e-06
-1.58054e-06
-6.36038e-06
8.73708e-06
5.80526e-05
6.30933e-06
3.6285e-05
3.78416e-06
1.99838e-05
1.95432e-06
1.08612e-05
8.23965e-07
5.57303e-06
1.52059e-07
3.29429e-06
-2.66306e-07
1.9363e-06
-5.51907e-07
1.34746e-06
-7.49632e-07
9.36518e-07
-9.00343e-07
7.52158e-07
-1.01812e-06
6.4528e-07
-1.11932e-06
6.27313e-07
-1.2115e-06
6.59978e-07
-1.30191e-06
7.32579e-07
-1.39363e-06
8.25744e-07
-1.48827e-06
9.24581e-07
-1.58549e-06
1.02017e-06
-1.68427e-06
1.10583e-06
-1.78293e-06
1.17872e-06
-1.87957e-06
1.23482e-06
-1.97192e-06
1.26964e-06
-2.05739e-06
1.27714e-06
-2.13311e-06
1.25199e-06
-2.19607e-06
1.18969e-06
-2.24319e-06
1.08821e-06
-2.27152e-06
9.46988e-07
-2.27814e-06
7.65482e-07
-2.26018e-06
5.43156e-07
-2.21488e-06
2.80084e-07
-2.1396e-06
-2.29581e-08
-2.03184e-06
-3.64614e-07
-1.8893e-06
-7.4291e-07
-1.70998e-06
-1.15482e-06
-1.49233e-06
-1.59616e-06
-1.23526e-06
-2.06131e-06
-9.38297e-07
-2.54341e-06
-6.01622e-07
-3.034e-06
-2.26235e-07
-3.52309e-06
1.86035e-07
-3.99851e-06
6.32346e-07
-4.4449e-06
1.10919e-06
-4.84342e-06
1.61272e-06
-5.17169e-06
2.14014e-06
-5.41945e-06
2.68868e-06
-5.60602e-06
3.25318e-06
-5.75164e-06
3.82562e-06
-5.8377e-06
4.3997e-06
-5.84616e-06
4.96672e-06
-5.77314e-06
5.52192e-06
-5.61019e-06
6.05503e-06
-5.37799e-06
6.56586e-06
-5.04846e-06
7.04028e-06
-4.70594e-06
7.48821e-06
-4.22688e-06
7.88589e-06
-3.88692e-06
8.26293e-06
-3.24381e-06
8.57589e-06
-3.14289e-06
8.88915e-06
-2.24109e-06
9.13176e-06
-2.98507e-06
9.4427e-06
-1.89148e-06
-6.59289e-06
9.02233e-06
5.90302e-05
6.85791e-06
3.84494e-05
4.39259e-06
2.24491e-05
2.45367e-06
1.28001e-05
1.17712e-06
6.84958e-06
3.96321e-07
4.07509e-06
-9.74968e-08
2.43011e-06
-4.33061e-07
1.68303e-06
-6.66477e-07
1.16993e-06
-8.42572e-07
9.28253e-07
-9.7812e-07
7.80828e-07
-1.09137e-06
7.40562e-07
-1.19094e-06
7.59544e-07
-1.28511e-06
8.2675e-07
-1.37765e-06
9.1829e-07
-1.47083e-06
1.01776e-06
-1.56465e-06
1.11399e-06
-1.65839e-06
1.19956e-06
-1.75055e-06
1.27088e-06
-1.83939e-06
1.32366e-06
-1.92278e-06
1.35302e-06
-1.99833e-06
1.35269e-06
-2.06337e-06
1.31703e-06
-2.11509e-06
1.24141e-06
-2.15062e-06
1.12374e-06
-2.16716e-06
9.63529e-07
-2.16196e-06
7.6028e-07
-2.13229e-06
5.13487e-07
-2.07551e-06
2.23309e-07
-1.98912e-06
-1.0935e-07
-1.8707e-06
-4.83031e-07
-1.71805e-06
-8.9556e-07
-1.5293e-06
-1.34358e-06
-1.30297e-06
-1.82249e-06
-1.03809e-06
-2.32619e-06
-7.34239e-07
-2.84726e-06
-3.91659e-07
-3.37658e-06
-1.13724e-08
-3.90338e-06
4.04808e-07
-4.41469e-06
8.54144e-07
-4.89424e-06
1.33332e-06
-5.3226e-06
1.83876e-06
-5.67713e-06
2.36769e-06
-5.94838e-06
2.9167e-06
-6.15503e-06
3.48023e-06
-6.31517e-06
4.05045e-06
-6.40793e-06
4.6212e-06
-6.41691e-06
5.18404e-06
-6.33598e-06
5.73434e-06
-6.16049e-06
6.26214e-06
-5.90579e-06
6.76742e-06
-5.55374e-06
7.23635e-06
-5.17487e-06
7.67917e-06
-4.6697e-06
8.07185e-06
-4.2796e-06
8.44552e-06
-3.61748e-06
8.75366e-06
-3.45103e-06
9.06681e-06
-2.55424e-06
9.30058e-06
-3.21885e-06
9.61119e-06
-2.20209e-06
-6.78221e-06
9.2703e-06
5.97599e-05
7.36879e-06
4.03509e-05
5.00318e-06
2.48147e-05
2.99057e-06
1.48127e-05
1.5778e-06
8.26235e-06
6.82393e-07
4.9705e-06
1.06189e-07
3.00632e-06
-2.84524e-07
2.07374e-06
-5.57734e-07
1.44314e-06
-7.62189e-07
1.13271e-06
-9.17745e-07
9.36384e-07
-1.04461e-06
8.67426e-07
-1.15257e-06
8.67502e-07
-1.25106e-06
9.25246e-07
-1.34469e-06
1.01192e-06
-1.43645e-06
1.10951e-06
-1.52682e-06
1.20436e-06
-1.61542e-06
1.28817e-06
-1.70099e-06
1.35645e-06
-1.78194e-06
1.40462e-06
-1.85634e-06
1.42742e-06
-1.92198e-06
1.41833e-06
-1.97641e-06
1.37146e-06
-2.01701e-06
1.28201e-06
-2.04111e-06
1.14784e-06
-2.04608e-06
9.685e-07
-2.02932e-06
7.43515e-07
-1.98823e-06
4.72401e-07
-1.92031e-06
1.55394e-07
-1.82316e-06
-2.06504e-07
-1.69446e-06
-6.11732e-07
-1.53212e-06
-1.0579e-06
-1.33437e-06
-1.54133e-06
-1.09985e-06
-2.057e-06
-8.27673e-07
-2.59838e-06
-5.1749e-07
-3.15744e-06
-1.69595e-07
-3.72447e-06
2.14959e-07
-4.28794e-06
6.34374e-07
-4.8341e-06
1.08599e-06
-5.34585e-06
1.56664e-06
-5.80325e-06
2.07297e-06
-6.18346e-06
2.60216e-06
-6.47757e-06
3.15025e-06
-6.70312e-06
3.71134e-06
-6.87626e-06
4.27783e-06
-6.97442e-06
4.84369e-06
-6.98277e-06
5.40074e-06
-6.89303e-06
5.94446e-06
-6.70421e-06
6.46526e-06
-6.42659e-06
6.96321e-06
-6.05169e-06
7.42486e-06
-5.63652e-06
7.86064e-06
-5.10548e-06
8.2465e-06
-4.66547e-06
8.61454e-06
-3.98551e-06
8.9162e-06
-3.75269e-06
9.22633e-06
-2.86437e-06
9.45043e-06
-3.44294e-06
9.75681e-06
-2.50848e-06
-6.93321e-06
9.48495e-06
6.0275e-05
7.84022e-06
4.19957e-05
5.60701e-06
2.70479e-05
3.5577e-06
1.68621e-05
2.02423e-06
9.79582e-06
1.01172e-06
5.98302e-06
3.46808e-07
3.67123e-06
-1.04591e-07
2.52514e-06
-4.21934e-07
1.76049e-06
-6.57972e-07
1.36875e-06
-8.36082e-07
1.11449e-06
-9.7845e-07
1.00979e-06
-1.09613e-06
9.85185e-07
-1.19983e-06
1.02894e-06
-1.29507e-06
1.10716e-06
-1.3857e-06
1.20014e-06
-1.47277e-06
1.29144e-06
-1.55632e-06
1.37172e-06
-1.63532e-06
1.43546e-06
-1.70843e-06
1.47773e-06
-1.77388e-06
1.49286e-06
-1.82968e-06
1.47413e-06
-1.87359e-06
1.41538e-06
-1.9032e-06
1.31162e-06
-1.91603e-06
1.16066e-06
-1.90961e-06
9.62084e-07
-1.8815e-06
7.15399e-07
-1.82923e-06
4.20134e-07
-1.75043e-06
7.65947e-08
-1.64279e-06
-3.14143e-07
-1.50411e-06
-7.50418e-07
-1.3324e-06
-1.22961e-06
-1.12602e-06
-1.74771e-06
-8.83708e-07
-2.29931e-06
-6.04648e-07
-2.87744e-06
-2.88585e-07
-3.4735e-06
6.41335e-08
-4.07719e-06
4.52426e-07
-4.67623e-06
8.74497e-07
-5.25617e-06
1.32775e-06
-5.7991e-06
1.80912e-06
-6.28462e-06
2.31543e-06
-6.68977e-06
2.84375e-06
-7.00589e-06
3.38971e-06
-7.24907e-06
3.94711e-06
-7.43367e-06
4.50858e-06
-7.53588e-06
5.0682e-06
-7.54239e-06
5.61808e-06
-7.4429e-06
6.15382e-06
-7.23995e-06
6.66618e-06
-6.93895e-06
7.15531e-06
-6.54082e-06
7.6082e-06
-6.08941e-06
8.03534e-06
-5.53263e-06
8.41292e-06
-5.04304e-06
8.77353e-06
-4.34613e-06
9.06739e-06
-4.04655e-06
9.37224e-06
-3.16922e-06
9.58603e-06
-3.65673e-06
9.88522e-06
-2.80767e-06
-7.04998e-06
9.67e-06
6.0605e-05
8.27156e-06
4.33941e-05
6.19631e-06
2.91232e-05
4.14705e-06
1.89113e-05
2.51333e-06
1.14295e-05
1.38508e-06
7.11127e-06
6.26416e-07
4.42989e-06
1.08665e-07
3.04289e-06
-2.57445e-07
2.1266e-06
-5.28487e-07
1.63979e-06
-7.31993e-07
1.318e-06
-8.92061e-07
1.16986e-06
-1.02112e-06
1.11424e-06
-1.13119e-06
1.13901e-06
-1.22883e-06
1.2048e-06
-1.31884e-06
1.29015e-06
-1.40294e-06
1.37554e-06
-1.48165e-06
1.45042e-06
-1.55425e-06
1.50806e-06
-1.61963e-06
1.54311e-06
-1.67624e-06
1.54947e-06
-1.72231e-06
1.5202e-06
-1.75582e-06
1.44889e-06
-1.77458e-06
1.33037e-06
-1.77629e-06
1.16237e-06
-1.75866e-06
9.44453e-07
-1.71937e-06
6.76116e-07
-1.65613e-06
3.56887e-07
-1.56666e-06
-1.28756e-08
-1.44876e-06
-4.32041e-07
-1.30034e-06
-8.98838e-07
-1.11954e-06
-1.4104e-06
-9.04834e-07
-1.96242e-06
-6.55047e-07
-2.5491e-06
-3.69466e-07
-3.16302e-06
-4.79096e-08
-3.79506e-06
3.09212e-07
-4.43431e-06
7.00785e-07
-5.0678e-06
1.125e-06
-5.68039e-06
1.5793e-06
-6.2534e-06
2.06071e-06
-6.76603e-06
2.56617e-06
-7.19522e-06
3.09264e-06
-7.53237e-06
3.63538e-06
-7.79181e-06
4.18801e-06
-7.9863e-06
4.74332e-06
-8.09119e-06
5.29554e-06
-8.09462e-06
5.83705e-06
-7.98441e-06
6.36358e-06
-7.76647e-06
6.86624e-06
-7.44162e-06
7.34529e-06
-7.01986e-06
7.78814e-06
-6.53226e-06
8.20531e-06
-5.9498e-06
8.57333e-06
-5.41106e-06
8.92506e-06
-4.69786e-06
9.21002e-06
-4.33151e-06
9.5078e-06
-3.467e-06
9.71079e-06
-3.85971e-06
1.00005e-05
-3.09741e-06
-7.13588e-06
9.82897e-06
6.0776e-05
8.66313e-06
4.45599e-05
6.76447e-06
3.10218e-05
4.7503e-06
2.09255e-05
3.04074e-06
1.31391e-05
1.80243e-06
8.34957e-06
9.46692e-07
5.28563e-06
3.57154e-07
3.63243e-06
-6.2428e-08
2.54618e-06
-3.72106e-07
1.94947e-06
-6.04108e-07
1.55e-06
-7.84357e-07
1.35011e-06
-9.26752e-07
1.25664e-06
-1.04465e-06
1.2569e-06
-1.14572e-06
1.30588e-06
-1.23584e-06
1.38026e-06
-1.31746e-06
1.45716e-06
-1.39166e-06
1.52462e-06
-1.45811e-06
1.57451e-06
-1.51596e-06
1.60096e-06
-1.5639e-06
1.59742e-06
-1.60041e-06
1.55671e-06
-1.62368e-06
1.47216e-06
-1.63174e-06
1.33843e-06
-1.62249e-06
1.15312e-06
-1.59381e-06
9.15774e-07
-1.54353e-06
6.25843e-07
-1.46949e-06
2.82843e-07
-1.36954e-06
-1.12828e-07
-1.24158e-06
-5.59999e-07
-1.08364e-06
-1.05677e-06
-8.94002e-07
-1.60005e-06
-6.71221e-07
-2.1852e-06
-4.14247e-07
-2.80607e-06
-1.22454e-07
-3.45481e-06
2.04256e-07
-4.12177e-06
5.65412e-07
-4.79547e-06
9.59854e-07
-5.46224e-06
1.38575e-06
-6.10628e-06
1.84057e-06
-6.70822e-06
2.32141e-06
-7.24687e-06
2.82525e-06
-7.69906e-06
3.34898e-06
-8.0561e-06
3.88753e-06
-8.33037e-06
4.43441e-06
-8.53317e-06
4.98255e-06
-8.63934e-06
5.52635e-06
-8.63842e-06
6.05842e-06
-8.51648e-06
6.57464e-06
-8.28269e-06
7.06651e-06
-7.93349e-06
7.53433e-06
-7.48768e-06
7.96601e-06
-6.96394e-06
8.37205e-06
-6.35584e-06
8.72943e-06
-5.76844e-06
9.07105e-06
-5.03948e-06
9.34616e-06
-4.60663e-06
9.63542e-06
-3.75626e-06
9.82718e-06
-4.05148e-06
1.01057e-05
-3.37597e-06
-7.19367e-06
9.9651e-06
6.08109e-05
9.01599e-06
4.5509e-05
7.30617e-06
3.27316e-05
5.35911e-06
2.28726e-05
3.60096e-06
1.48973e-05
2.26269e-06
9.68784e-06
1.30886e-06
6.23946e-06
6.42695e-07
4.2986e-06
1.65047e-07
3.02383e-06
-1.87046e-07
2.30156e-06
-4.50847e-07
1.8138e-06
-6.53994e-07
1.55326e-06
-8.1197e-07
1.41462e-06
-9.39428e-07
1.38436e-06
-1.04522e-06
1.41167e-06
-1.13636e-06
1.4714e-06
-1.21615e-06
1.53695e-06
-1.28632e-06
1.59479e-06
-1.34698e-06
1.63516e-06
-1.39759e-06
1.65158e-06
-1.43711e-06
1.63694e-06
-1.46426e-06
1.58385e-06
-1.47748e-06
1.48538e-06
-1.47502e-06
1.33597e-06
-1.45499e-06
1.13309e-06
-1.41544e-06
8.76224e-07
-1.35436e-06
5.64755e-07
-1.26969e-06
1.98181e-07
-1.15944e-06
-2.23085e-07
-1.02161e-06
-6.97828e-07
-8.54359e-07
-1.22402e-06
-6.56087e-07
-1.79832e-06
-4.25473e-07
-2.41581e-06
-1.61569e-07
-3.06998e-06
1.36153e-07
-3.75253e-06
4.67713e-07
-4.45333e-06
8.32566e-07
-5.16032e-06
1.2295e-06
-5.85918e-06
1.65665e-06
-6.53343e-06
2.1115e-06
-7.16307e-06
2.59118e-06
-7.72656e-06
3.09272e-06
-8.2006e-06
3.61287e-06
-8.57625e-06
4.14637e-06
-8.86387e-06
4.68661e-06
-9.07341e-06
5.22669e-06
-9.17942e-06
5.76112e-06
-9.17284e-06
6.28279e-06
-9.03816e-06
6.78772e-06
-8.78762e-06
7.26778e-06
-8.41355e-06
7.72336e-06
-7.94326e-06
8.14286e-06
-7.38344e-06
8.53672e-06
-6.7497e-06
8.88248e-06
-6.1142e-06
9.21292e-06
-5.36992e-06
9.47736e-06
-4.87107e-06
9.75688e-06
-4.03578e-06
9.93704e-06
-4.23163e-06
1.02031e-05
-3.64202e-06
-7.22565e-06
1.00814e-05
6.07295e-05
9.33181e-06
4.62586e-05
7.81728e-06
3.42462e-05
5.96547e-06
2.47244e-05
4.18753e-06
1.66752e-05
2.76364e-06
1.11117e-05
1.71357e-06
7.28953e-06
9.67053e-07
5.04511e-06
4.27048e-07
3.56383e-06
2.85554e-08
2.70005e-06
-2.70454e-07
2.11281e-06
-4.99404e-07
1.78221e-06
-6.75466e-07
1.59068e-06
-8.1449e-07
1.52338e-06
-9.26539e-07
1.52372e-06
-1.01983e-06
1.56469e-06
-1.09862e-06
1.61575e-06
-1.16538e-06
1.66155e-06
-1.22071e-06
1.69049e-06
-1.26446e-06
1.69532e-06
-1.29587e-06
1.66835e-06
-1.31393e-06
1.60192e-06
-1.31734e-06
1.4888e-06
-1.30459e-06
1.32322e-06
-1.27399e-06
1.10248e-06
-1.22376e-06
8.25999e-07
-1.15205e-06
4.93042e-07
-1.05695e-06
1.03083e-07
-9.36573e-07
-3.43463e-07
-7.89058e-07
-8.45343e-07
-6.12695e-07
-1.40039e-06
-4.06003e-07
-2.00501e-06
-1.67783e-07
-2.65403e-06
1.02807e-07
-3.34057e-06
4.062e-07
-4.05593e-06
7.42326e-07
-4.78945e-06
1.11056e-06
-5.52856e-06
1.50963e-06
-6.25825e-06
1.93763e-06
-6.96144e-06
2.39205e-06
-7.61749e-06
2.87004e-06
-8.20454e-06
3.36862e-06