/*--------------------------------*- C++ -*----------------------------------*\
| =========                 |                                                 |
| \\      /  F ield         | OpenFOAM: The Open Source CFD Toolbox           |
|  \\    /   O peration     | Version:  2.4.0                                 |
|   \\  /    A nd           | Web:      www.OpenFOAM.org                      |
|    \\/     M anipulation  |                                                 |
\*---------------------------------------------------------------------------*/
FoamFile
{
    version     2.0;
    format      ascii;
    class       volScalarField;
    location    "3.03";
    object      k;
}
// * * * * * * * * * * * * * * * * * * * * * * * * * * * * * * * * * * * * * //

dimensions      [0 2 -2 0 0 0 0];

internalField   nonuniform List<scalar> 
6000
(
0.168227
0.0132646
0.000981911
0.00361917
0.00250695
0.00293136
0.00243142
0.00240638
0.00214497
0.00207232
0.00194216
0.00191902
0.0019158
0.00198372
0.00205451
0.00209845
0.00204986
0.00190761
0.00172218
0.00159771
0.00162973
0.00190353
0.00250946
0.00352286
0.00495655
0.00674609
0.00877525
0.0109148
0.0130449
0.0150559
0.016837
0.0182613
0.0191743
0.0193829
0.0186826
0.0169075
0.0140121
0.0101895
0.00601235
0.00349648
0.00733685
0.0122742
0.0174011
0.0220577
0.0258111
0.0284623
0.0299897
0.0305792
0.0304568
0.0300573
0.0294847
0.0294917
0.0294611
0.031381
0.0322075
0.0385452
0.0390892
0.0560676
0.0517636
0.0928483
0.0762057
0.0101481
0.000946914
0.002404
0.00171497
0.00192536
0.00161467
0.00157867
0.00141411
0.00135953
0.00127698
0.00125788
0.00125355
0.00129029
0.0013286
0.0013503
0.00132048
0.0012416
0.00114716
0.00110136
0.00116109
0.00137138
0.00177247
0.00238482
0.00318843
0.00412817
0.0051358
0.00614941
0.00711998
0.00800795
0.00877611
0.00938297
0.00977821
0.00989656
0.00967992
0.00907937
0.00809075
0.0067859
0.00531491
0.00435341
0.00577253
0.00760779
0.00951615
0.0112635
0.0126972
0.0137406
0.0143757
0.014659
0.0146706
0.0145735
0.0144216
0.0145128
0.0146374
0.0155805
0.0161814
0.0190687
0.0197753
0.0272081
0.0263495
0.0436242
0.041222
0.00802842
0.000975127
0.00168747
0.0012241
0.00131525
0.00111152
0.00107371
0.000966476
0.00092625
0.000873964
0.000861406
0.000860761
0.000885527
0.000912363
0.000930237
0.000921237
0.000890397
0.000862394
0.000880204
0.00097963
0.00118425
0.0015115
0.00196151
0.00250845
0.0031103
0.00372499
0.0043205
0.00487613
0.00537915
0.00582059
0.00619242
0.00648593
0.00668979
0.00679446
0.00679619
0.00670651
0.00654594
0.00624428
0.00577225
0.00601241
0.00639269
0.00684738
0.00730629
0.00770949
0.00801376
0.0081971
0.00826203
0.00822396
0.00814197
0.00804677
0.00806405
0.0081323
0.00857183
0.00894129
0.0103125
0.0108846
0.0143331
0.0145122
0.0221635
0.0260624
0.0067734
0.0010721
0.00126663
0.000916891
0.000936081
0.000793202
0.000756479
0.000684188
0.000655154
0.000623097
0.0006177
0.000622825
0.000645432
0.00067181
0.000695814
0.00070945
0.000719431
0.000745436
0.000819067
0.000964866
0.00119543
0.00151815
0.0019261
0.00239474
0.0028918
0.00338898
0.0038678
0.00431965
0.00474326
0.00514218
0.00552307
0.00589522
0.00625893
0.0066147
0.00696493
0.00730884
0.00762303
0.00772401
0.00739297
0.0071374
0.00684081
0.00657271
0.00635381
0.00617901
0.00603088
0.00589387
0.00575559
0.00559953
0.00543826
0.00528586
0.00519636
0.00516038
0.00531116
0.00548972
0.00613283
0.00652135
0.00818125
0.00858752
0.0121024
0.0187963
0.00609176
0.00123331
0.00103263
0.000727444
0.000697694
0.000588484
0.00055304
0.000502466
0.000482176
0.000464419
0.000466279
0.000478336
0.000504386
0.000536833
0.000573092
0.00061111
0.000658388
0.00073142
0.000856116
0.00105185
0.00132717
0.00168585
0.0021191
0.00260507
0.00311776
0.00363557
0.00414525
0.00464202
0.00512802
0.00561037
0.00609934
0.0066045
0.00711514
0.00763209
0.0081483
0.00864692
0.00908241
0.00924847
0.00896048
0.00852845
0.00795703
0.00734882
0.00676502
0.00623681
0.00577359
0.00537424
0.00503591
0.00473209
0.00445405
0.00420309
0.00399988
0.00385088
0.00381144
0.00383439
0.00409019
0.0043092
0.00510792
0.00547537
0.00712615
0.0150489
0.00576612
0.00144921
0.000925474
0.000617827
0.000549043
0.000456499
0.000421301
0.000384301
0.000370905
0.000363906
0.000373062
0.000392949
0.000426042
0.000468872
0.000521488
0.000585265
0.000667631
0.000782781
0.000954577
0.0012016
0.00153295
0.00195179
0.00244931
0.00300608
0.00359955
0.00421005
0.00482381
0.00543387
0.00603947
0.00664463
0.00725628
0.00786973
0.00847007
0.0090554
0.00961227
0.0101184
0.0105265
0.0106495
0.0103647
0.00985989
0.00918194
0.00842892
0.00766854
0.00694469
0.00628175
0.00568888
0.00517887
0.00473151
0.00433186
0.00397362
0.00366071
0.00340248
0.00322112
0.0031137
0.00313819
0.00321241
0.00356273
0.00381728
0.00459402
0.0130162
0.00565586
0.00170855
0.000910556
0.000566133
0.000460498
0.000373119
0.000336546
0.000307841
0.000299923
0.00030154
0.000318102
0.000346641
0.00038931
0.00044554
0.00051724
0.000607434
0.000722757
0.000875751
0.00109093
0.0013893
0.00178302
0.00227581
0.00285943
0.0035163
0.00422488
0.00496334
0.00571243
0.00645808
0.0071924
0.00791291
0.00862257
0.009296
0.00993076
0.010521
0.0110529
0.0115058
0.0118375
0.0118883
0.011577
0.0110201
0.0102866
0.00946586
0.00862248
0.00780122
0.00703009
0.00632067
0.00569114
0.00513373
0.00463476
0.00418484
0.00377937
0.00342655
0.00313446
0.00291798
0.00278847
0.0027409
0.00283606
0.00296826
0.00331957
0.0118778
0.00567213
0.00199915
0.00096632
0.000560208
0.00041467
0.000323823
0.000283895
0.000259822
0.000256242
0.000265147
0.000289282
0.00032723
0.000381317
0.000453016
0.00054537
0.000661756
0.000807611
0.000994686
0.00125019
0.00159948
0.0020588
0.00263303
0.00331495
0.00408818
0.00492957
0.00581094
0.00670328
0.00758246
0.00843222
0.00924386
0.0100146
0.0107132
0.0113451
0.0119046
0.0123803
0.0127553
0.0129919
0.0129591
0.0125972
0.0119874
0.0112102
0.0103474
0.00945942
0.00858886
0.00776335
0.00699464
0.00629577
0.00567014
0.00510666
0.00459463
0.00412444
0.00370162
0.00332787
0.0030253
0.00278725
0.00264008
0.00257645
0.00259882
0.00273259
0.0112302
0.00575869
0.00230833
0.0010788
0.000592279
0.000401484
0.000299826
0.000254252
0.000232022
0.000231775
0.000247083
0.000278962
0.000326964
0.000393768
0.000482204
0.000595792
0.000737407
0.000911355
0.00112969
0.00142345
0.00182319
0.00234969
0.00300969
0.00379751
0.00469675
0.00567937
0.00670682
0.00773781
0.00873778
0.00968335
0.0105617
0.0113642
0.0120631
0.012668
0.0131753
0.0135767
0.0138591
0.0139889
0.0138624
0.013432
0.0127656
0.0119475
0.011053
0.0101376
0.00924101
0.00838892
0.00759267
0.0068593
0.00619798
0.00560068
0.00505601
0.00455052
0.00408585
0.00365975
0.00329666
0.00298383
0.00276028
0.00259179
0.00252429
0.0025385
0.010862
0.00588012
0.0026236
0.00123694
0.000657553
0.000415466
0.000295928
0.000242051
0.000219285
0.00022139
0.000242422
0.000282155
0.000340698
0.000421053
0.000526833
0.000661506
0.000827078
0.00102715
0.00127511
0.00160599
0.00205584
0.00265041
0.00339925
0.00429823
0.00532891
0.00645473
0.0076241
0.00878303
0.00988796
0.0109103
0.0118354
0.0126475
0.0133282
0.0138888
0.0143281
0.014641
0.0148183
0.014831
0.0146008
0.0140895
0.0133632
0.0125059
0.0115865
0.0106553
0.00974746
0.00888577
0.00808029
0.00733343
0.00665667
0.00604566
0.0054894
0.00497163
0.00448938
0.00403685
0.00363787
0.00327832
0.00300209
0.00276442
0.00262951
0.00257182
0.0106569
0.00601458
0.00293352
0.00143059
0.000752654
0.000453902
0.000309274
0.000243978
0.000218407
0.000221803
0.000247927
0.00029552
0.00036491
0.000459274
0.000582538
0.00073778
0.000926172
0.00115117
0.00142817
0.00179566
0.00229547
0.00295888
0.00379895
0.00481243
0.00597616
0.00724213
0.00854478
0.00981855
0.0110127
0.0120951
0.0130506
0.0138547
0.0145027
0.015005
0.0153629
0.0155746
0.0156344
0.0155215
0.0151777
0.0145772
0.0137887
0.0128941
0.0119562
0.0110192
0.010113
0.00925552
0.00845446
0.00770843
0.00702903
0.00641606
0.00586043
0.00534476
0.00486181
0.00440223
0.00398738
0.00360345
0.00329582
0.00301571
0.00283576
0.00273126
0.0105488
0.00614922
0.00322851
0.00164963
0.000875173
0.000514895
0.000338646
0.000258235
0.000227477
0.00023095
0.000261474
0.000316797
0.000397166
0.000505734
0.000646382
0.000821661
0.00103217
0.00128167
0.00158782
0.00199177
0.00254158
0.00327449
0.00420736
0.00533642
0.00663117
0.00803045
0.00945527
0.0108302
0.0120989
0.0132265
0.0141975
0.0149805
0.0155831
0.0160149
0.0162795
0.016378
0.0163093
0.0160635
0.0155979
0.0149022
0.0140499
0.0131201
0.0121698
0.0112369
0.0103443
0.00950437
0.00872052
0.00798756
0.00731555
0.00670833
0.00616002
0.00565408
0.00518028
0.00472615
0.0043095
0.00391731
0.00359496
0.00329258
0.00308734
0.00295117
0.0104985
0.00627697
0.00350144
0.00188385
0.00102229
0.000597029
0.000384063
0.000284095
0.000245499
0.000247609
0.000281709
0.00034448
0.000435814
0.00055863
0.00071653
0.00091154
0.00114396
0.00141811
0.0017538
0.00219444
0.00279435
0.00359711
0.00462307
0.00586624
0.00728675
0.00880984
0.0103445
0.011807
0.0131367
0.0142963
0.0152684
0.0160202
0.0165666
0.0169172
0.0170775
0.0170516
0.0168462
0.0164608
0.015867
0.0150722
0.0141548
0.0131916
0.0122345
0.0113147
0.0104476
0.0096382
0.00888443
0.00817659
0.00752174
0.00692703
0.00639047
0.00589808
0.0054384
0.00499683
0.00458722
0.00419742
0.00387191
0.00356159
0.00334646
0.00318907
0.0104827
0.00639452
0.0037478
0.00212337
0.00119028
0.000699437
0.000445615
0.000321642
0.000272151
0.000271173
0.00030784
0.000377617
0.000479779
0.000616831
0.00079195
0.00100671
0.0012613
0.00156064
0.00192642
0.00240409
0.0030541
0.00392637
0.00504408
0.00639733
0.00793571
0.00957141
0.011203
0.0127399
0.0141182
0.015298
0.0162587
0.01697
0.0174505
0.0177101
0.0177562
0.0175968
0.0172488
0.0167181
0.0159918
0.0150951
0.0141117
0.0131168
0.0121578
0.0112592
0.0104284
0.00966201
0.00895115
0.00828063
0.00765328
0.00707838
0.00655782
0.00608135
0.0056381
0.00521265
0.00481517
0.00443428
0.00411301
0.00380427
0.0035899
0.00341909
0.010487
0.00650074
0.00396554
0.00235915
0.0013743
0.000821151
0.000523205
0.000371628
0.000307647
0.000301514
0.000339501
0.000415665
0.000528409
0.000679673
0.000872135
0.00110698
0.00138437
0.00170976
0.00210619
0.00262117
0.00332095
0.00426145
0.00546775
0.00692475
0.00857117
0.0103072
0.0120228
0.0136216
0.0150366
0.0162259
0.0171643
0.0178265
0.0182325
0.0183925
0.0183156
0.018017
0.0175213
0.0168413
0.01598
0.0149799
0.01393
0.0129049
0.0119481
0.0110776
0.0102924
0.00958048
0.00892481
0.00830374
0.00771475
0.00716787
0.00666832
0.0062102
0.00578468
0.00537695
0.00499429
0.00462609
0.00431357
0.00401237
0.00380547
0.00362729
0.0105025
0.00659582
0.00415462
0.00258356
0.00156852
0.000960488
0.000616799
0.000434873
0.000352657
0.000338892
0.000376665
0.000458393
0.000581355
0.000746803
0.000956878
0.00121242
0.00151352
0.00186602
0.00229361
0.00284601
0.00359466
0.00460097
0.00589095
0.00744343
0.00918669
0.0110103
0.0127972
0.0144458
0.0158865
0.0170755
0.0179817
0.0185872
0.0189109
0.0189638
0.0187571
0.0183161
0.0176691
0.0168374
0.0158403
0.0147367
0.0136207
0.0125668
0.0116154
0.0107783
0.0100465
0.00939872
0.00880939
0.0082493
0.00770969
0.00719979
0.00672729
0.00629064
0.00588416
0.00549494
0.00512843
0.00477501
0.00447387
0.00418385
0.00398832
0.00380754
0.0105238
0.00668054
0.00431654
0.00279077
0.0017665
0.00111479
0.000726313
0.000511779
0.000408261
0.000383906
0.000419587
0.000505817
0.00063848
0.000818048
0.0010461
0.00132315
0.00164909
0.00202974
0.00248905
0.00307867
0.00387467
0.00494318
0.00631032
0.00794852
0.00977654
0.0116748
0.0135204
0.0152073
0.0166636
0.0178432
0.0187085
0.0192501
0.0194849
0.0194239
0.0190848
0.0184986
0.0176982
0.0167143
0.0155825
0.0143768
0.0131961
0.0121153
0.0111718
0.0103719
0.00969896
0.00912292
0.00860931
0.00812062
0.00764105
0.00717746
0.00673886
0.00632771
0.00594209
0.00557208
0.00522244
0.00488486
0.00459663
0.0043199
0.00413787
0.0039583
0.0105474
0.00675595
0.0044538
0.0029769
0.0019617
0.00128035
0.000851024
0.000602664
0.000475548
0.000437469
0.00046878
0.000558158
0.000699805
0.000893336
0.00113976
0.00143924
0.00179126
0.0022012
0.00269273
0.00331903
0.0041601
0.00528608
0.00672253
0.00843562
0.0103358
0.0122956
0.0141879
0.0159021
0.0173643
0.018526
0.0193428
0.0198142
0.019954
0.0197752
0.0193024
0.0185697
0.0176154
0.0164806
0.0152172
0.0139124
0.01267
0.0115647
0.0106313
0.00987098
0.00926016
0.00876087
0.00833001
0.00792142
0.00751163
0.00710356
0.00670623
0.00632542
0.00596319
0.00561335
0.00528113
0.00495995
0.00468548
0.00442326
0.00425576
0.00408043
0.0105712
0.00682313
0.0045694
0.00313998
0.00214807
0.0014525
0.000989339
0.000707704
0.000555222
0.000500788
0.000525002
0.000615826
0.000765482
0.000972656
0.00123776
0.00156062
0.00194004
0.00238047
0.00290463
0.0035667
0.00444988
0.00562763
0.00712453
0.00890092
0.0108605
0.0128691
0.0147963
0.0165273
0.0179863
0.0191206
0.0198834
0.0202791
0.0203192
0.0200214
0.0194143
0.0185351
0.0174281
0.0161457
0.0147554
0.0133568
0.0120575
0.0109315
0.0100104
0.00929052
0.00874267
0.00832222
0.00797834
0.00765627
0.00732458
0.00698059
0.00663198
0.00628689
0.00595124
0.00562302
0.00530888
0.00500445
0.00474423
0.00449713
0.00434455
0.00417588
0.0105941
0.00688306
0.00466655
0.00327972
0.00232048
0.00162597
0.00113866
0.000826479
0.000647849
0.000575039
0.000589255
0.000679422
0.000835788
0.00105605
0.00133996
0.00168706
0.0020952
0.00256738
0.00312453
0.00382116
0.0047429
0.00596596
0.00751371
0.00934138
0.0113474
0.0133921
0.0153431
0.0170808
0.0185278
0.0196263
0.0203301
0.020645
0.0205832
0.0201663
0.0194254
0.0184009
0.0171442
0.0157192
0.0142091
0.0127242
0.0113748
0.0102332
0.00932694
0.00864753
0.00816129
0.00781872
0.00756281
0.00733096
0.00708367
0.0068112
0.0065184
0.00621466
0.00590929
0.0056046
0.00530945
0.00502212
0.00477644
0.00454472
0.00440707
0.00424697
0.0106153
0.00693663
0.0047483
0.00339714
0.00247514
0.00179521
0.0012954
0.000957773
0.000753644
0.000661146
0.000662805
0.000749739
0.000911141
0.0011436
0.0014462
0.00181816
0.00225625
0.00276146
0.00335199
0.00408178
0.00503807
0.00629947
0.00788806
0.00975479
0.0117946
0.013863
0.0158266
0.0175613
0.0189882
0.0200433
0.0206828
0.0209133
0.0207496
0.0202143
0.0193408
0.0181737
0.0167716
0.015211
0.0135902
0.012029
0.0106389
0.00948859
0.00860033
0.00796074
0.00753275
0.0072641
0.00709374
0.00695263
0.00679357
0.00659847
0.0063678
0.0061109
0.0058398
0.00556097
0.00528601
0.00501622
0.00478533
0.00456901
0.00444609
0.00429603
0.0106345
0.00698456
0.00481745
0.00349419
0.00260972
0.00195499
0.0014551
0.00109943
0.000872214
0.000759623
0.000747101
0.000827769
0.000992107
0.00123549
0.00155625
0.00195339
0.00242241
0.00296196
0.00358633
0.00434785
0.00533447
0.006627
0.00824625
0.0101398
0.0122008
0.0142807
0.0162462
0.0179684
0.0193672
0.0203708
0.020942
0.0210875
0.0208222
0.0201698
0.019166
0.0178598
0.0163183
0.0146311
0.0129109
0.0112859
0.00986678
0.00871661
0.00785053
0.0072499
0.00687528
0.00667385
0.00658317
0.00652995
0.00646006
0.0063461
0.00618268
0.00597767
0.00574485
0.0054945
0.00524119
0.00498956
0.00477371
0.00457266
0.00446417
0.00432528
0.0106516
0.00702748
0.00487644
0.00357342
0.00272336
0.00210076
0.00161279
0.00124831
0.00100238
0.000870522
0.000842889
0.000915226
0.00107943
0.00133199
0.00166993
0.00209207
0.00259269
0.00316779
0.00382662
0.0046186
0.00563136
0.00694782
0.00858764
0.010496
0.0125658
0.0146451
0.016602
0.0183024
0.0196625
0.0206099
0.0211111
0.0211714
0.0208053
0.0200376
0.0189064
0.0174659
0.0157924
0.0139893
0.0121836
0.0105096
0.00907545
0.00793589
0.00709726
0.00653494
0.00620783
0.0060647
0.00604463
0.006073
0.00609004
0.00605857
0.00596595
0.00581708
0.00562634
0.00540719
0.0051772
0.0049445
0.00474399
0.00455808
0.00446364
0.00433674
0.0106666
0.0070659
0.00492728
0.00363759
0.00281648
0.00222909
0.00176333
0.00140038
0.00114202
0.000993246
0.000950447
0.0010131
0.0011749
0.00143354
0.00178713
0.00223351
0.00276585
0.00337754
0.00407165
0.00489318
0.00592819
0.00726168
0.00891233
0.0108238
0.0128903
0.014957
0.0168917
0.0185608
0.0198762
0.0207639
0.0211938
0.0211689
0.0207031
0.0198224
0.0185674
0.0169983
0.0152017
0.0132955
0.01142
0.00971438
0.008281
0.00716402
0.00635911
0.00583492
0.00554915
0.00545391
0.00549274
0.00559313
0.00569154
0.00574117
0.00572103
0.00563144
0.00548611
0.00530081
0.00509592
0.00488306
0.00469829
0.0045274
0.00444659
0.00433224
0.0106796
0.00710026
0.00497162
0.00368945
0.00289055
0.00233782
0.00190194
0.00155093
0.00128807
0.00112638
0.0010695
0.00112169
0.00127948
0.00154211
0.00190783
0.002377
0.0029405
0.00358951
0.00431984
0.00517057
0.00622453
0.00756878
0.00922108
0.0111244
0.0131714
0.0152136
0.0171163
0.0187464
0.0200111
0.0208364
0.021194
0.0210841
0.0205201
0.0195288
0.0181543
0.0164633
0.0145539
0.0125592
0.010632
0.00891368
0.00749831
0.00641677
0.00565257
0.00516698
0.00491668
0.00485833
0.00494251
0.00510254
0.00527358
0.00540005
0.00545187
0.00542336
0.00532605
0.00517701
0.004999
0.00480698
0.00463841
0.00448248
0.00441486
0.00431345
0.0106909
0.00713096
0.00501073
0.00373156
0.00294776
0.00242617
0.00202456
0.00169492
0.00143652
0.00126757
0.00119905
0.00124085
0.00139337
0.00165809
0.00203405
0.00252243
0.00311517
0.00380167
0.00456924
0.0054495
0.00652004
0.00786965
0.00951222
0.0113934
0.0134096
0.0154165
0.0172785
0.0188622
0.0200707
0.0208315
0.0211158
0.0209212
0.0202604
0.0191615
0.0176722
0.0158668
0.0138565
0.0117898
0.0098307
0.00812016
0.0067406
0.00570752
0.00499123
0.00454535
0.00432548
0.00429337
0.00440858
0.00461385
0.00484589
0.00504207
0.00516306
0.0051958
0.00514821
0.00503742
0.00488795
0.00471779
0.00456595
0.00442498
0.00437011
0.00428188
0.0107005
0.00715835
0.00504561
0.00376618
0.00299069
0.0024946
0.00212826
0.00182743
0.00158266
0.00141348
0.00133722
0.00136977
0.00151634
0.00178138
0.00216542
0.00267082
0.00329045
0.00401178
0.00481749
0.00572834
0.00681425
0.0081602
0.00978295
0.0116316
0.0136064
0.0155684
0.0173811
0.0189115
0.0200591
0.0207532
0.0209631
0.0206841
0.0199282
0.0187249
0.017126
0.0152149
0.0131169
0.0109966
0.00902704
0.00734529
0.0060191
0.00504682
0.00438528
0.00398061
0.00378725
0.00377202
0.00390433
0.00413938
0.00441855
0.00467468
0.00485966
0.00495213
0.00495484
0.00488371
0.00476419
0.0046169
0.00448232
0.00435635
0.0043138
0.00423889
0.0107087
0.00718272
0.00507698
0.00379518
0.00302206
0.00254463
0.0022114
0.0019441
0.0017214
0.00155989
0.00148116
0.00150684
0.00164757
0.00191148
0.00230134
0.00282108
0.003465
0.0042195
0.00506277
0.00600388
0.00710243
0.00843873
0.0100333
0.01184
0.0137641
0.0156718
0.0174275
0.0188979
0.0199803
0.0206055
0.0207401
0.020377
0.0195276
0.018223
0.0165203
0.0145131
0.0123426
0.0101887
0.00823123
0.00659922
0.0053428
0.0044422
0.00384126
0.00347937
0.00330988
0.00330402
0.00344102
0.00369049
0.00400154
0.00430565
0.00454721
0.00469604
0.00474843
0.00471765
0.00462915
0.0045056
0.0043888
0.00427792
0.00424728
0.00418578
0.0107157
0.00720439
0.00510541
0.00382008
0.00304453
0.00257852
0.00227369
0.00204153
0.00184769
0.00170188
0.00162704
0.00164952
0.00178552
0.0020474
0.0024409
0.00297198
0.0036369
0.00442196
0.00530151
0.00627264
0.0073821
0.00870414
0.0102634
0.0120199
0.0138847
0.0157299
0.0174211
0.0188252
0.0198385
0.0203924
0.0204507
0.0200036
0.0190622
0.0176599
0.0158597
0.0137674
0.011541
0.00937529
0.00745286
0.00589062
0.0047184
0.00389822
0.00336227
0.00304444
0.00289726
0.00289547
0.00302712
0.00327689
0.00360419
0.00394277
0.00423153
0.00443159
0.0045317
0.00454114
0.00448429
0.00438515
0.0042866
0.00419089
0.00417189
0.00412372
0.0107215
0.0072236
0.00513129
0.00384205
0.00306047
0.00259898
0.0023161
0.0021176
0.00195696
0.00183419
0.00177022
0.00179426
0.00192773
0.00218747
0.00258276
0.00312203
0.00380408
0.00461618
0.0055299
0.00653071
0.00765038
0.00895508
0.0104735
0.0121728
0.0139706
0.0157457
0.0173653
0.0186969
0.0196378
0.020118
0.0200986
0.0195675
0.0185357
0.0170392
0.0151486
0.0129836
0.0107199
0.00856526
0.00670081
0.00522656
0.00415029
0.00341672
0.00294842
0.0026754
0.00254977
0.00254887
0.00266796
0.0029061
0.00323473
0.00359349
0.00391854
0.00416307
0.00430762
0.00435624
0.00433113
0.0042568
0.00417686
0.0040964
0.00408883
0.00405383
0.0107263
0.00724063
0.00515492
0.00386192
0.00307193
0.00260891
0.00234059
0.00217157
0.00204562
0.00195166
0.00190543
0.00193664
0.00207082
0.0023292
0.00272494
0.00326936
0.00396432
0.00479909
0.00574391
0.00677372
0.00790379
0.0091897
0.0106632
0.0122995
0.0140239
0.015722
0.0172637
0.018517
0.0193819
0.0197858
0.0196872
0.0190719
0.0179511
0.0163644
0.0143916
0.0121678
0.00988715
0.00776755
0.00598303
0.00461247
0.0036408
0.00299735
0.00259756
0.00236938
0.00226504
0.00226365
0.00236579
0.00258314
0.00289984
0.00326463
0.00361404
0.00389488
0.00407933
0.00416515
0.00417126
0.00412183
0.00406071
0.00399552
0.00399918
0.00397718
0.0107304
0.0072557
0.00517655
0.0038803
0.00308057
0.00261109
0.00234985
0.00220409
0.00211135
0.00204967
0.00202723
0.00207148
0.00221046
0.00246918
0.00286476
0.00341161
0.00411511
0.00496748
0.00593932
0.00699681
0.00813808
0.00940541
0.0108319
0.012401
0.0140466
0.0156615
0.0171191
0.0182894
0.0190744
0.0193992
0.0192196
0.0185197
0.0173114
0.015639
0.0135933
0.0113267
0.00905122
0.00699086
0.00530646
0.00405212
0.00319041
0.00263804
0.00230605
0.00212203
0.00203891
0.00203694
0.00212024
0.00231057
0.00260442
0.00296201
0.00332351
0.00363145
0.0038501
0.00397021
0.00400639
0.00398157
0.00393928
0.00388931
0.003904
0.00389479
0.0107338
0.00726904
0.00519635
0.00389759
0.00308767
0.00260808
0.00234696
0.00221702
0.00215329
0.00212466
0.0021304
0.00219323
0.00234156
0.00260314
0.00299872
0.00354583
0.00425357
0.00511801
0.00611179
0.00719471
0.0083482
0.00959865
0.0109777
0.0124771
0.0140397
0.0155663
0.016934
0.0180169
0.0187183
0.018961
0.0186984
0.0179134
0.0166193
0.0148665
0.0127587
0.0104673
0.00822082
0.00624353
0.00467684
0.00354766
0.0027981
0.00233557
0.00206941
0.00192832
0.0018664
0.00186457
0.001929
0.00208882
0.00235155
0.00269032
0.0030519
0.00337708
0.00362327
0.00377387
0.0038383
0.00383737
0.00381369
0.00377879
0.00380432
0.00380763
0.0107365
0.00728084
0.00521448
0.00391402
0.00309415
0.00260203
0.00233509
0.00221314
0.00217211
0.00217444
0.00221052
0.00229636
0.00245853
0.00272604
0.0031225
0.00366834
0.00437639
0.00524712
0.00625687
0.00736184
0.0085283
0.00976473
0.011098
0.0125269
0.0140037
0.0154375
0.0167103
0.0177021
0.018316
0.0184734
0.0181257
0.0172551
0.0158772
0.0140505
0.0118934
0.00959766
0.00740498
0.00553329
0.00409858
0.00309979
0.00246171
0.00208608
0.00188293
0.00178321
0.00174244
0.00174188
0.00178865
0.00191665
0.00214264
0.00245299
0.00280345
0.00313582
0.00340216
0.00357864
0.00366888
0.00369067
0.00368512
0.00366501
0.00370113
0.00371666
0.0107388
0.00729129
0.00523107
0.00392972
0.00310063
0.0025947
0.00231725
0.00219577
0.00216982
0.00219844
0.00226436
0.00237591
0.00255572
0.00283231
0.00323111
0.00377482
0.00447974
0.00535101
0.00637004
0.00749242
0.0086718
0.00989777
0.0111887
0.012548
0.0139377
0.0152756
0.016449
0.0173464
0.0178692
0.0179381
0.0175031
0.0165466
0.0150877
0.0131949
0.0110039
0.00872632
0.00661285
0.00486703
0.00357468
0.00270791
0.0021783
0.00188548
0.0017421
0.00168207
0.00166242
0.00166442
0.0016954
0.00179184
0.00197779
0.00225225
0.00258163
0.00291134
0.00318998
0.00338709
0.00350006
0.00354297
0.00355477
0.00354901
0.00359544
0.00362285
0.0107407
0.00730056
0.00524627
0.00394477
0.00310748
0.00258741
0.00229609
0.0021685
0.00214949
0.0021977
0.00229029
0.00242796
0.00262788
0.00291631
0.00331909
0.00386039
0.00455933
0.00542565
0.0064468
0.00758065
0.00877166
0.00999075
0.0112441
0.0125368
0.0138397
0.0150795
0.0161511
0.0169506
0.0173787
0.0173559
0.0168316
0.0157893
0.0142534
0.0123044
0.0100974
0.00786278
0.00585344
0.00425051
0.0031067
0.00237036
0.00194446
0.00172972
0.00164283
0.00162096
0.00162251
0.0016284
0.0016457
0.00171177
0.00185612
0.00208928
0.00238911
0.00270686
0.00298979
0.00320173
0.00333382
0.00339579
0.0034239
0.00343186
0.00348824
0.00352714
0.0107422
0.00730879
0.00526018
0.00395919
0.00311488
0.00258107
0.00227385
0.00213479
0.00211487
0.00217474
0.00228845
0.00245012
0.00267075
0.00297275
0.00338092
0.00391981
0.0046105
0.00546679
0.0064827
0.00762088
0.00882059
0.0100357
0.0112571
0.0124879
0.0137057
0.0148466
0.0158155
0.016514
0.0168442
0.0167269
0.0161118
0.0149846
0.0133772
0.0113846
0.00918255
0.00701709
0.00513524
0.00368812
0.00269488
0.00208469
0.00175662
0.00161506
0.00158163
0.00159675
0.00161975
0.00163085
0.00163657
0.00167385
0.0017763
0.00196447
0.00222778
0.00252508
0.00280438
0.00302505
0.00317216
0.00325074
0.00329378
0.00331468
0.00338054
0.00343048
0.0107434
0.00731613
0.00527292
0.00397298
0.00312288
0.00257624
0.00225222
0.00209779
0.00207001
0.00213318
0.0022607
0.00244183
0.0026815
0.00299728
0.00341151
0.00394792
0.00462846
0.00547016
0.00647349
0.00760788
0.0088115
0.0100241
0.0112194
0.012394
0.0135304
0.0145728
0.0154394
0.016035
0.0162646
0.0160505
0.0153437
0.0141339
0.0124628
0.0104423
0.008269
0.00619971
0.00446581
0.00318275
0.00233823
0.00184791
0.00161123
0.00153819
0.0015557
0.00160707
0.00165206
0.0016697
0.00166582
0.00167588
0.00173679
0.0018776
0.00209889
0.00236823
0.00263628
0.00285937
0.00301708
0.00310942
0.00316573
0.00319858
0.00327337
0.00333383
0.0107444
0.00732268
0.00528459
0.00398613
0.00313142
0.00257323
0.00223244
0.00206013
0.00201887
0.00207738
0.00221043
0.00240443
0.00265918
0.00298701
0.00340672
0.00394007
0.00460866
0.00543163
0.00641529
0.00753705
0.00873786
0.00994729
0.0111216
0.0122467
0.0133063
0.0142541
0.0150189
0.0155105
0.0156379
0.0153255
0.0145273
0.0132392
0.011515
0.00948575
0.00736774
0.00542096
0.00385142
0.00273575
0.00203481
0.00165674
0.00150496
0.00149629
0.00156287
0.00165033
0.00171815
0.00174367
0.0017318
0.00171616
0.00173619
0.00182817
0.00200313
0.002238
0.00248767
0.00270692
0.0028705
0.00297346
0.00304111
0.00308472
0.00316778
0.00323817
0.0107452
0.00732855
0.0052953
0.00399865
0.00314042
0.0025721
0.0022153
0.0020239
0.00196503
0.00201196
0.00214212
0.00234109
0.00260489
0.00294097
0.00336398
0.0038927
0.00454729
0.00534766
0.00630487
0.00740472
0.00859422
0.00979738
0.010954
0.0120359
0.0130245
0.0138834
0.0145486
0.0149365
0.0149609
0.0145501
0.0136628
0.0123032
0.01054
0.00852493
0.00649064
0.00469058
0.00329664
0.00234693
0.00178189
0.00150783
0.00143483
0.00148711
0.00160164
0.00172558
0.00181735
0.00185209
0.00183356
0.00179345
0.00177327
0.00181551
0.00194083
0.00213569
0.00236044
0.0025697
0.00273431
0.00284447
0.00292129
0.0029743
0.00306485
0.0031445
0.0107458
0.00733384
0.00530514
0.00401053
0.00314974
0.00257279
0.00220121
0.00199059
0.00191154
0.0019414
0.00206092
0.0022564
0.00252175
0.00286036
0.00328268
0.00380391
0.0044418
0.00521571
0.00614003
0.00720854
0.00837669
0.00956769
0.0107073
0.011751
0.0126769
0.0134529
0.0140219
0.0143078
0.0142302
0.0137227
0.0127508
0.0113299
0.00954602
0.00757168
0.00565008
0.00401706
0.00280423
0.00201485
0.0015763
0.00139793
0.00139826
0.00150895
0.00167108
0.00183238
0.0019494
0.00199463
0.00197052
0.00190685
0.00184699
0.0018389
0.00191201
0.00206221
0.00225613
0.00244955
0.0026103
0.00272405
0.00280766
0.00286853
0.00296569
0.00305381
0.0107463
0.00733862
0.00531421
0.00402179
0.00315926
0.00257512
0.0021903
0.00196117
0.00186072
0.00186966
0.00197207
0.00215597
0.00241462
0.00274857
0.00316453
0.00367395
0.00429148
0.00503479
0.00592001
0.00694784
0.00808348
0.00925367
0.0103736
0.0113833
0.012254
0.0129538
0.0134317
0.013619
0.0134422
0.0128422
0.0117935
0.0103254
0.00854351
0.00663946
0.00485819
0.00340709
0.00237501
0.00173697
0.00141459
0.00132403
0.00139314
0.00156062
0.00177072
0.00197063
0.00211421
0.00217102
0.00214214
0.00205555
0.00195642
0.00189758
0.00191649
0.00201815
0.00217602
0.00234806
0.00250012
0.00261377
0.00270161
0.00276865
0.00287142
0.00296715
0.0107467
0.00734297
0.00532258
0.00403244
0.00316886
0.00257887
0.00218248
0.00193613
0.00181427
0.00180004
0.00188048
0.00204576
0.0022896
0.00261095
0.00301359
0.00350549
0.00409791
0.00480598
0.00564602
0.00662409
0.00771537
0.00885372
0.00994773
0.0109257
0.0117471
0.0123778
0.0127709
0.0128647
0.0125941
0.0119086
0.0107947
0.00929835
0.00754555
0.00574286
0.00412609
0.00286514
0.00200804
0.00150999
0.0012933
0.00128346
0.00141785
0.00164146
0.00190046
0.00214035
0.00231158
0.00238074
0.0023476
0.00223853
0.0021005
0.00199073
0.00195394
0.00200387
0.00212109
0.00226667
0.00240533
0.00251512
0.00260451
0.00267591
0.00278322
0.00288583
0.010747
0.00734695
0.00533034
0.00404251
0.00317843
0.00258379
0.0021775
0.00191562
0.0017732
0.00173502
0.00179039
0.00193159
0.00215342
0.00245429
0.00283602
0.00330368
0.00386526
0.00453286
0.00532168
0.00624131
0.00727621
0.00836982
0.00942942
0.0103738
0.0111499
0.011718
0.0120335
0.0120412
0.0116846
0.0109244
0.00976144
0.00826054
0.00656762
0.00489678
0.0034629
0.00239322
0.00170087
0.00133014
0.0012091
0.00127395
0.00147125
0.00175117
0.0020604
0.00234147
0.00254095
0.0026227
0.00258549
0.00245434
0.00227794
0.00211734
0.00202385
0.00201948
0.00209211
0.00220656
0.00232736
0.00242955
0.00251774
0.00259159
0.00270227
0.00281102
0.0107473
0.00735062
0.00533756
0.00405203
0.00318789
0.00258964
0.00217507
0.00189949
0.00173802
0.00167629
0.00170516
0.00181863
0.00201279
0.00228619
0.00263957
0.00307589
0.00360029
0.00422173
0.00495335
0.00580646
0.00677335
0.00780821
0.00882206
0.0097275
0.0104595
0.0109708
0.0112164
0.0111469
0.0107153
0.00989524
0.00870425
0.00722733
0.00562709
0.00411523
0.00287508
0.00199092
0.00144987
0.00119343
0.00115894
0.00129372
0.00155269
0.00188978
0.00225063
0.00257356
0.00280109
0.00289503
0.00285362
0.00270087
0.00248698
0.00227614
0.00212551
0.00206492
0.00208962
0.00216878
0.00226751
0.00235844
0.00244266
0.00251697
0.00262982
0.0027439
0.0107475
0.00735401
0.00534429
0.00406103
0.00319717
0.0025962
0.0021748
0.00188742
0.0017088
0.0016248
0.00162717
0.00171109
0.00187379
0.00211426
0.00243285
0.00283112
0.00331198