/*--------------------------------*- C++ -*----------------------------------*\
| =========                 |                                                 |
| \\      /  F ield         | OpenFOAM: The Open Source CFD Toolbox           |
|  \\    /   O peration     | Version:  2.4.0                                 |
|   \\  /    A nd           | Web:      www.OpenFOAM.org                      |
|    \\/     M anipulation  |                                                 |
\*---------------------------------------------------------------------------*/
FoamFile
{
    version     2.0;
    format      ascii;
    class       volScalarField;
    location    "1.27";
    object      nut;
}
// * * * * * * * * * * * * * * * * * * * * * * * * * * * * * * * * * * * * * //

dimensions      [0 2 -1 0 0 0 0];

internalField   nonuniform List<scalar> 
6000
(
2.40581e-05
2.70589e-05
2.95827e-05
3.16182e-05
3.31908e-05
3.4349e-05
3.51522e-05
3.56632e-05
3.59428e-05
3.60456e-05
3.60189e-05
3.59013e-05
3.57235e-05
3.55095e-05
3.52772e-05
3.50397e-05
3.48061e-05
3.45828e-05
3.43736e-05
3.41807e-05
3.40048e-05
3.38457e-05
3.37027e-05
3.35744e-05
3.34591e-05
3.33551e-05
3.32606e-05
3.31738e-05
3.30931e-05
3.30171e-05
3.29443e-05
3.28739e-05
3.28048e-05
3.27365e-05
3.26682e-05
3.25995e-05
3.25301e-05
3.24595e-05
3.23873e-05
3.23131e-05
3.22361e-05
3.21557e-05
3.20706e-05
3.19796e-05
3.18806e-05
3.17715e-05
3.16489e-05
3.15089e-05
3.13462e-05
3.11542e-05
3.09242e-05
3.06451e-05
3.03024e-05
2.98774e-05
2.93479e-05
2.86815e-05
2.78583e-05
2.68052e-05
2.5671e-05
2.4047e-05
4.52336e-05
3.94809e-05
3.46735e-05
3.09934e-05
2.83843e-05
2.66578e-05
2.56033e-05
2.50492e-05
2.48725e-05
2.49878e-05
2.53361e-05
2.58759e-05
2.65768e-05
2.74153e-05
2.8372e-05
2.94292e-05
3.05701e-05
3.17781e-05
3.30362e-05
3.43275e-05
3.5635e-05
3.69422e-05
3.82337e-05
3.94954e-05
4.07152e-05
4.18831e-05
4.29917e-05
4.40359e-05
4.50132e-05
4.59232e-05
4.67674e-05
4.7549e-05
4.82722e-05
4.89419e-05
4.95638e-05
5.01433e-05
5.06859e-05
5.11967e-05
5.16804e-05
5.21411e-05
5.25827e-05
5.30082e-05
5.34206e-05
5.38224e-05
5.42163e-05
5.46049e-05
5.49914e-05
5.53795e-05
5.57747e-05
5.61848e-05
5.66214e-05
5.71024e-05
5.76558e-05
5.83269e-05
5.91863e-05
6.0351e-05
6.2001e-05
6.44147e-05
6.77581e-05
7.59652e-05
4.98371e-05
4.86949e-05
4.7185e-05
4.5293e-05
4.30833e-05
4.06954e-05
3.82785e-05
3.59526e-05
3.37986e-05
3.18622e-05
3.01626e-05
2.8702e-05
2.74735e-05
2.64662e-05
2.56681e-05
2.50676e-05
2.46542e-05
2.44183e-05
2.43516e-05
2.44463e-05
2.46951e-05
2.50905e-05
2.56249e-05
2.62901e-05
2.70774e-05
2.7977e-05
2.89787e-05
3.00715e-05
3.12437e-05
3.24835e-05
3.37786e-05
3.5117e-05
3.6487e-05
3.78772e-05
3.92773e-05
4.06775e-05
4.20696e-05
4.3446e-05
4.48005e-05
4.6128e-05
4.74245e-05
4.86868e-05
4.99126e-05
5.11e-05
5.22475e-05
5.33539e-05
5.44178e-05
5.54376e-05
5.64115e-05
5.73375e-05
5.82144e-05
5.90427e-05
5.9828e-05
6.0588e-05
6.13633e-05
6.22494e-05
6.34265e-05
6.53382e-05
6.84339e-05
7.67675e-05
5.00841e-05
4.95483e-05
4.89992e-05
4.84047e-05
4.7734e-05
4.69673e-05
4.60975e-05
4.51292e-05
4.40764e-05
4.29587e-05
4.17979e-05
4.06145e-05
3.94267e-05
3.82493e-05
3.70943e-05
3.59709e-05
3.48868e-05
3.38482e-05
3.2861e-05
3.19305e-05
3.10626e-05
3.02632e-05
2.95385e-05
2.88951e-05
2.83395e-05
2.7878e-05
2.75166e-05
2.72606e-05
2.71143e-05
2.70812e-05
2.71636e-05
2.73624e-05
2.76777e-05
2.81081e-05
2.86515e-05
2.93045e-05
3.00629e-05
3.09218e-05
3.18753e-05
3.29172e-05
3.40407e-05
3.52389e-05
3.65044e-05
3.78302e-05
3.92092e-05
4.06349e-05
4.21013e-05
4.36031e-05
4.51359e-05
4.66967e-05
4.82833e-05
4.98954e-05
5.15346e-05
5.32063e-05
5.49216e-05
5.67136e-05
5.86458e-05
6.09746e-05
6.39902e-05
7.05952e-05
5.00958e-05
4.96032e-05
4.91474e-05
4.87183e-05
4.83056e-05
4.7899e-05
4.74892e-05
4.70678e-05
4.66286e-05
4.61673e-05
4.56815e-05
4.51709e-05
4.46362e-05
4.40792e-05
4.35023e-05
4.29081e-05
4.22992e-05
4.16782e-05
4.10474e-05
4.04088e-05
3.97643e-05
3.91158e-05
3.84648e-05
3.78131e-05
3.71624e-05
3.65147e-05
3.58725e-05
3.52384e-05
3.4616e-05
3.40092e-05
3.34226e-05
3.28615e-05
3.23318e-05
3.18397e-05
3.1392e-05
3.09957e-05
3.06577e-05
3.0385e-05
3.01842e-05
3.00617e-05
3.00234e-05
3.00749e-05
3.02217e-05
3.04688e-05
3.08218e-05
3.12865e-05
3.18697e-05
3.25799e-05
3.34277e-05
3.44271e-05
3.55962e-05
3.69586e-05
3.85439e-05
4.03892e-05
4.25375e-05
4.50399e-05
4.79493e-05
5.13813e-05
5.54354e-05
6.16345e-05
5.00963e-05
4.96062e-05
4.91573e-05
4.87436e-05
4.83595e-05
4.80003e-05
4.76612e-05
4.73381e-05
4.70267e-05
4.67236e-05
4.64253e-05
4.61292e-05
4.58328e-05
4.55342e-05
4.52321e-05
4.49251e-05
4.46127e-05
4.42941e-05
4.39692e-05
4.36376e-05
4.32995e-05
4.29548e-05
4.26035e-05
4.22459e-05
4.1882e-05
4.15119e-05
4.11358e-05
4.07537e-05
4.03656e-05
3.99716e-05
3.95718e-05
3.91663e-05
3.87552e-05
3.83386e-05
3.79168e-05
3.74901e-05
3.70589e-05
3.66239e-05
3.61858e-05
3.57453e-05
3.53038e-05
3.48623e-05
3.44227e-05
3.39871e-05
3.35584e-05
3.31405e-05
3.27395e-05
3.23645e-05
3.20293e-05
3.17552e-05
3.15749e-05
3.15365e-05
3.17095e-05
3.21904e-05
3.31061e-05
3.46149e-05
3.68976e-05
4.01532e-05
4.45493e-05
5.07458e-05
5.00962e-05
4.96062e-05
4.91577e-05
4.8745e-05
4.83636e-05
4.80093e-05
4.7679e-05
4.73694e-05
4.70779e-05
4.68021e-05
4.65397e-05
4.62889e-05
4.60476e-05
4.58144e-05
4.55877e-05
4.53661e-05
4.51486e-05
4.4934e-05
4.47214e-05
4.45101e-05
4.42992e-05
4.40883e-05
4.38769e-05
4.36644e-05
4.34505e-05
4.3235e-05
4.30175e-05
4.27978e-05
4.25757e-05
4.2351e-05
4.21236e-05
4.18931e-05
4.16593e-05
4.14221e-05
4.11809e-05
4.09354e-05
4.06851e-05
4.04292e-05
4.01668e-05
3.98968e-05
3.96174e-05
3.93265e-05
3.90214e-05
3.86983e-05
3.83521e-05
3.79761e-05
3.75616e-05
3.70972e-05
3.65687e-05
3.59596e-05
3.52533e-05
3.44396e-05
3.35273e-05
3.25686e-05
3.16912e-05
3.11352e-05
3.12543e-05
3.25107e-05
3.53484e-05
4.0342e-05
5.00962e-05
4.96061e-05
4.91575e-05
4.87448e-05
4.83634e-05
4.80095e-05
4.76799e-05
4.73719e-05
4.70829e-05
4.6811e-05
4.65544e-05
4.63113e-05
4.60804e-05
4.58603e-05
4.565e-05
4.54483e-05
4.52542e-05
4.50669e-05
4.48856e-05
4.47095e-05
4.4538e-05
4.43704e-05
4.42061e-05
4.40447e-05
4.38857e-05
4.37287e-05
4.35733e-05
4.34191e-05
4.32658e-05
4.31132e-05
4.29609e-05
4.28088e-05
4.26566e-05
4.25041e-05
4.23509e-05
4.2197e-05
4.20418e-05
4.18852e-05
4.17266e-05
4.15655e-05
4.14011e-05
4.12325e-05
4.10583e-05
4.08765e-05
4.06847e-05
4.04792e-05
4.02545e-05
4.00029e-05
3.97128e-05
3.93666e-05
3.89373e-05
3.83844e-05
3.76482e-05
3.66507e-05
3.53151e-05
3.36428e-05
3.18422e-05
3.05299e-05
3.05242e-05
3.29306e-05
5.00962e-05
4.9606e-05
4.91573e-05
4.87444e-05
4.8363e-05
4.8009e-05
4.76794e-05
4.73714e-05
4.70827e-05
4.68112e-05
4.65552e-05
4.63133e-05
4.6084e-05
4.58662e-05
4.56588e-05
4.5461e-05
4.52719e-05
4.50907e-05
4.49167e-05
4.47493e-05
4.45879e-05
4.4432e-05
4.42811e-05
4.41348e-05
4.39926e-05
4.38542e-05
4.37191e-05
4.35871e-05
4.34579e-05
4.33311e-05
4.32066e-05
4.3084e-05
4.29631e-05
4.28436e-05
4.27255e-05
4.26084e-05
4.24921e-05
4.23764e-05
4.22611e-05
4.21458e-05
4.20302e-05
4.19138e-05
4.17961e-05
4.16764e-05
4.15536e-05
4.14264e-05
4.12929e-05
4.11501e-05
4.09937e-05
4.08168e-05
4.06079e-05
4.03468e-05
3.99973e-05
3.94928e-05
3.87122e-05
3.74627e-05
3.55115e-05
3.29197e-05
3.0312e-05
2.95485e-05
5.00962e-05
4.96059e-05
4.91571e-05
4.87442e-05
4.83626e-05
4.80085e-05
4.76788e-05
4.73707e-05
4.70819e-05
4.68104e-05
4.65545e-05
4.63126e-05
4.60835e-05
4.5866e-05
4.56591e-05
4.54619e-05
4.52736e-05
4.50936e-05
4.49211e-05
4.47555e-05
4.45964e-05
4.44433e-05
4.42957e-05
4.41533e-05
4.40156e-05
4.38823e-05
4.37531e-05
4.36277e-05
4.35058e-05
4.33873e-05
4.32717e-05
4.3159e-05
4.30488e-05
4.29411e-05
4.28355e-05
4.27319e-05
4.26302e-05
4.25301e-05
4.24314e-05
4.2334e-05
4.22377e-05
4.21421e-05
4.2047e-05
4.19521e-05
4.18569e-05
4.1761e-05
4.16637e-05
4.1564e-05
4.14605e-05
4.13513e-05
4.1233e-05
4.10993e-05
4.09378e-05
4.07221e-05
4.0392e-05
3.98132e-05
3.8694e-05
3.66097e-05
3.31877e-05
2.98893e-05
5.00962e-05
4.96059e-05
4.9157e-05
4.8744e-05
4.83623e-05
4.80081e-05
4.76783e-05
4.73702e-05
4.70813e-05
4.68097e-05
4.65537e-05
4.63117e-05
4.60826e-05
4.58651e-05
4.56582e-05
4.54611e-05
4.52729e-05
4.5093e-05
4.49207e-05
4.47555e-05
4.45968e-05
4.44443e-05
4.42974e-05
4.41558e-05
4.40191e-05
4.38871e-05
4.37594e-05
4.36358e-05
4.35159e-05
4.33997e-05
4.32867e-05
4.31769e-05
4.30701e-05
4.2966e-05
4.28646e-05
4.27655e-05
4.26688e-05
4.25741e-05
4.24814e-05
4.23906e-05
4.23013e-05
4.22136e-05
4.21272e-05
4.2042e-05
4.19577e-05
4.18742e-05
4.17913e-05
4.17086e-05
4.16261e-05
4.15433e-05
4.14599e-05
4.1375e-05
4.12865e-05
4.1188e-05
4.10602e-05
4.08487e-05
4.03918e-05
3.93122e-05
3.6757e-05
3.27102e-05
5.00962e-05
4.96058e-05
4.91569e-05
4.87438e-05
4.8362e-05
4.80078e-05
4.76779e-05
4.73697e-05
4.70807e-05
4.6809e-05
4.65529e-05
4.63109e-05
4.60817e-05
4.58642e-05
4.56573e-05
4.54601e-05
4.52719e-05
4.5092e-05
4.49197e-05
4.47545e-05
4.45959e-05
4.44434e-05
4.42967e-05
4.41552e-05
4.40188e-05
4.3887e-05
4.37596e-05
4.36364e-05
4.3517e-05
4.34013e-05
4.32891e-05
4.31801e-05
4.30742e-05
4.29711e-05
4.28709e-05
4.27732e-05
4.2678e-05
4.25851e-05
4.24943e-05
4.24056e-05
4.23189e-05
4.22339e-05
4.21507e-05
4.2069e-05
4.19888e-05
4.19101e-05
4.18328e-05
4.17569e-05
4.16826e-05
4.16104e-05
4.15409e-05
4.14753e-05
4.14151e-05
4.13616e-05
4.1313e-05
4.12558e-05
4.11258e-05
4.07251e-05
3.93762e-05
3.62092e-05
5.00962e-05
4.96058e-05
4.91568e-05
4.87436e-05
4.83618e-05
4.80075e-05
4.76776e-05
4.73692e-05
4.70802e-05
4.68085e-05
4.65523e-05
4.63103e-05
4.6081e-05
4.58634e-05
4.56564e-05
4.54592e-05
4.5271e-05
4.5091e-05
4.49187e-05
4.47535e-05
4.45949e-05
4.44424e-05
4.42956e-05
4.41542e-05
4.40177e-05
4.3886e-05
4.37587e-05
4.36355e-05
4.35162e-05
4.34006e-05
4.32885e-05
4.31797e-05
4.3074e-05
4.29713e-05
4.28713e-05
4.2774e-05
4.26792e-05
4.25868e-05
4.24967e-05
4.24086e-05
4.23227e-05
4.22386e-05
4.21564e-05
4.2076e-05
4.19973e-05
4.19203e-05
4.1845e-05
4.17717e-05
4.17008e-05
4.16328e-05
4.15689e-05
4.15111e-05
4.14621e-05
4.14263e-05
4.14085e-05
4.14116e-05
4.1419e-05
4.13525e-05
4.0829e-05
3.89984e-05
5.00962e-05
4.96058e-05
4.91567e-05
4.87435e-05
4.83616e-05
4.80073e-05
4.76773e-05
4.73689e-05
4.70798e-05
4.6808e-05
4.65518e-05
4.63097e-05
4.60804e-05
4.58627e-05
4.56557e-05
4.54585e-05
4.52702e-05
4.50902e-05
4.49179e-05
4.47526e-05
4.4594e-05
4.44415e-05
4.42946e-05
4.41532e-05
4.40167e-05
4.3885e-05
4.37577e-05
4.36345e-05
4.35152e-05
4.33996e-05
4.32875e-05
4.31787e-05
4.30731e-05
4.29704e-05
4.28705e-05
4.27733e-05
4.26786e-05
4.25863e-05
4.24963e-05
4.24085e-05
4.23227e-05
4.2239e-05
4.21571e-05
4.20771e-05
4.19989e-05
4.19225e-05
4.1848e-05
4.17757e-05
4.1706e-05
4.16397e-05
4.15781e-05
4.15234e-05
4.14791e-05
4.14504e-05
4.14446e-05
4.14709e-05
4.15326e-05
4.161e-05
4.15196e-05
4.07148e-05
5.00962e-05
4.96058e-05
4.91567e-05
4.87434e-05
4.83615e-05
4.80071e-05
4.7677e-05
4.73686e-05
4.70794e-05
4.68076e-05
4.65513e-05
4.63092e-05
4.60798e-05
4.58621e-05
4.56551e-05
4.54578e-05
4.52695e-05
4.50895e-05
4.49171e-05
4.47519e-05
4.45932e-05
4.44406e-05
4.42938e-05
4.41523e-05
4.40159e-05
4.38841e-05
4.37567e-05
4.36335e-05
4.35142e-05
4.33987e-05
4.32866e-05
4.31778e-05
4.30721e-05
4.29694e-05
4.28695e-05
4.27723e-05
4.26776e-05
4.25854e-05
4.24954e-05
4.24076e-05
4.2322e-05
4.22383e-05
4.21565e-05
4.20766e-05
4.19986e-05
4.19225e-05
4.18483e-05
4.17764e-05
4.17072e-05
4.16416e-05
4.1581e-05
4.15277e-05
4.14853e-05
4.14594e-05
4.14583e-05
4.14933e-05
4.15754e-05
4.171e-05
4.18192e-05
4.16143e-05
5.00962e-05
4.96058e-05
4.91566e-05
4.87433e-05
4.83614e-05
4.80069e-05
4.76768e-05
4.73683e-05
4.70791e-05
4.68072e-05
4.6551e-05
4.63088e-05
4.60794e-05
4.58616e-05
4.56546e-05
4.54573e-05
4.52689e-05
4.50889e-05
4.49165e-05
4.47512e-05
4.45925e-05
4.44399e-05
4.42931e-05
4.41516e-05
4.40151e-05
4.38833e-05
4.37559e-05
4.36327e-05
4.35134e-05
4.33978e-05
4.32857e-05
4.31769e-05
4.30712e-05
4.29685e-05
4.28686e-05
4.27714e-05
4.26767e-05
4.25845e-05
4.24945e-05
4.24068e-05
4.23211e-05
4.22375e-05
4.21558e-05
4.20759e-05
4.1998e-05
4.1922e-05
4.1848e-05
4.17763e-05
4.17074e-05
4.16422e-05
4.1582e-05
4.15293e-05
4.14878e-05
4.14632e-05
4.14638e-05
4.15018e-05
4.15908e-05
4.17458e-05
4.19392e-05
4.20376e-05
5.00962e-05
4.96057e-05
4.91566e-05
4.87433e-05
4.83613e-05
4.80068e-05
4.76766e-05
4.73681e-05
4.70789e-05
4.68069e-05
4.65506e-05
4.63084e-05
4.6079e-05
4.58612e-05
4.56541e-05
4.54568e-05
4.52684e-05
4.50884e-05
4.49159e-05
4.47506e-05
4.45919e-05
4.44393e-05
4.42925e-05
4.41509e-05
4.40144e-05
4.38826e-05
4.37552e-05
4.3632e-05
4.35127e-05
4.33971e-05
4.32849e-05
4.31761e-05
4.30704e-05
4.29677e-05
4.28678e-05
4.27706e-05
4.26759e-05
4.25837e-05
4.24937e-05
4.2406e-05
4.23203e-05
4.22367e-05
4.21551e-05
4.20753e-05
4.19974e-05
4.19215e-05
4.18476e-05
4.17761e-05
4.17074e-05
4.16424e-05
4.15826e-05
4.15303e-05
4.14893e-05
4.14652e-05
4.14665e-05
4.15053e-05
4.1596e-05
4.17564e-05
4.19815e-05
4.22181e-05
5.00962e-05
4.96057e-05
4.91566e-05
4.87432e-05
4.83612e-05
4.80067e-05
4.76765e-05
4.73679e-05
4.70786e-05
4.68067e-05
4.65503e-05
4.63081e-05
4.60786e-05
4.58608e-05
4.56537e-05
4.54564e-05
4.5268e-05
4.50879e-05
4.49155e-05
4.47501e-05
4.45914e-05
4.44388e-05
4.42919e-05
4.41504e-05
4.40139e-05
4.38821e-05
4.37547e-05
4.36314e-05
4.35121e-05
4.33965e-05
4.32843e-05
4.31755e-05
4.30698e-05
4.29671e-05
4.28672e-05
4.27699e-05
4.26753e-05
4.2583e-05
4.24931e-05
4.24053e-05
4.23197e-05
4.22361e-05
4.21545e-05
4.20748e-05
4.1997e-05
4.19211e-05
4.18474e-05
4.1776e-05
4.17074e-05
4.16427e-05
4.15831e-05
4.15312e-05
4.14905e-05
4.14668e-05
4.14684e-05
4.15072e-05
4.15976e-05
4.17577e-05
4.19919e-05
4.22844e-05
5.00961e-05
4.96057e-05
4.91565e-05
4.87432e-05
4.83611e-05
4.80065e-05
4.76763e-05
4.73677e-05
4.70784e-05
4.68065e-05
4.65501e-05
4.63078e-05
4.60783e-05
4.58605e-05
4.56534e-05
4.5456e-05
4.52676e-05
4.50875e-05
4.49151e-05
4.47497e-05
4.4591e-05
4.44384e-05
4.42915e-05
4.41499e-05
4.40134e-05
4.38816e-05
4.37542e-05
4.36309e-05
4.35116e-05
4.33959e-05
4.32838e-05
4.3175e-05
4.30693e-05
4.29665e-05
4.28666e-05
4.27694e-05
4.26747e-05
4.25825e-05
4.24925e-05
4.24048e-05
4.23192e-05
4.22357e-05
4.21541e-05
4.20744e-05
4.19966e-05
4.19209e-05
4.18472e-05
4.1776e-05
4.17076e-05
4.16431e-05
4.15838e-05
4.15322e-05
4.14918e-05
4.14685e-05
4.14703e-05
4.15088e-05
4.15983e-05
4.17562e-05
4.19904e-05
4.23004e-05
5.00961e-05
4.96057e-05
4.91565e-05
4.87431e-05
4.8361e-05
4.80065e-05
4.76762e-05
4.73676e-05
4.70783e-05
4.68063e-05
4.65499e-05
4.63076e-05
4.60781e-05
4.58603e-05
4.56531e-05
4.54557e-05
4.52673e-05
4.50872e-05
4.49147e-05
4.47494e-05
4.45906e-05
4.4438e-05
4.42911e-05
4.41495e-05
4.4013e-05
4.38812e-05
4.37537e-05
4.36305e-05
4.35111e-05
4.33955e-05
4.32834e-05
4.31745e-05
4.30688e-05
4.29661e-05
4.28662e-05
4.27689e-05
4.26743e-05
4.2582e-05
4.24921e-05
4.24044e-05
4.23188e-05
4.22353e-05
4.21537e-05
4.20741e-05
4.19964e-05
4.19208e-05
4.18472e-05
4.17761e-05
4.17079e-05
4.16436e-05
4.15846e-05
4.15333e-05
4.14933e-05
4.14703e-05
4.14723e-05
4.15107e-05
4.15993e-05
4.17546e-05
4.19855e-05
4.22967e-05
5.00961e-05
4.96057e-05
4.91565e-05
4.87431e-05
4.8361e-05
4.80064e-05
4.76761e-05
4.73675e-05
4.70781e-05
4.68061e-05
4.65497e-05
4.63074e-05
4.60779e-05
4.58601e-05
4.56529e-05
4.54555e-05
4.52671e-05
4.50869e-05
4.49145e-05
4.47491e-05
4.45903e-05
4.44377e-05
4.42908e-05
4.41492e-05
4.40127e-05
4.38808e-05
4.37534e-05
4.36301e-05
4.35108e-05
4.33952e-05
4.3283e-05
4.31742e-05
4.30685e-05
4.29657e-05
4.28658e-05
4.27686e-05
4.26739e-05
4.25817e-05
4.24918e-05
4.24041e-05
4.23185e-05
4.2235e-05
4.21535e-05
4.2074e-05
4.19964e-05
4.19208e-05
4.18473e-05
4.17764e-05
4.17084e-05
4.16443e-05
4.15856e-05
4.15346e-05
4.1495e-05
4.14723e-05
4.14746e-05
4.15129e-05
4.16009e-05
4.17539e-05
4.19808e-05
4.2287e-05
5.00961e-05
4.96057e-05
4.91565e-05
4.87431e-05
4.83609e-05
4.80063e-05
4.76761e-05
4.73674e-05
4.7078e-05
4.6806e-05
4.65496e-05
4.63073e-05
4.60777e-05
4.58599e-05
4.56527e-05
4.54553e-05
4.52669e-05
4.50867e-05
4.49143e-05
4.47489e-05
4.45901e-05
4.44375e-05
4.42905e-05
4.4149e-05
4.40124e-05
4.38806e-05
4.37532e-05
4.36299e-05
4.35105e-05
4.33949e-05
4.32827e-05
4.31739e-05
4.30682e-05
4.29654e-05
4.28655e-05
4.27683e-05
4.26737e-05
4.25814e-05
4.24915e-05
4.24039e-05
4.23183e-05
4.22349e-05
4.21534e-05
4.20739e-05
4.19964e-05
4.19209e-05
4.18476e-05
4.17767e-05
4.1709e-05
4.16451e-05
4.15867e-05
4.1536e-05
4.14968e-05
4.14745e-05
4.14771e-05
4.15156e-05
4.16032e-05
4.17545e-05
4.19779e-05
4.22775e-05
5.00961e-05
4.96057e-05
4.91565e-05
4.87431e-05
4.83609e-05
4.80063e-05
4.7676e-05
4.73673e-05
4.7078e-05
4.68059e-05
4.65495e-05
4.63072e-05
4.60776e-05
4.58598e-05
4.56526e-05
4.54552e-05
4.52667e-05
4.50866e-05
4.49141e-05
4.47487e-05
4.45899e-05
4.44373e-05
4.42904e-05
4.41488e-05
4.40122e-05
4.38804e-05
4.3753e-05
4.36297e-05
4.35103e-05
4.33947e-05
4.32825e-05
4.31737e-05
4.3068e-05
4.29652e-05
4.28653e-05
4.27681e-05
4.26735e-05
4.25813e-05
4.24914e-05
4.24037e-05
4.23182e-05
4.22348e-05
4.21534e-05
4.20739e-05
4.19965e-05
4.19211e-05
4.18479e-05
4.17772e-05
4.17096e-05
4.1646e-05
4.15879e-05
4.15375e-05
4.14987e-05
4.14769e-05
4.148e-05
4.15188e-05
4.16064e-05
4.17566e-05
4.19773e-05
4.22711e-05
5.00961e-05
4.96057e-05
4.91565e-05
4.8743e-05
4.83609e-05
4.80063e-05
4.7676e-05
4.73673e-05
4.70779e-05
4.68059e-05
4.65494e-05
4.63071e-05
4.60776e-05
4.58597e-05
4.56525e-05
4.54551e-05
4.52666e-05
4.50865e-05
4.4914e-05
4.47486e-05
4.45898e-05
4.44372e-05
4.42902e-05
4.41487e-05
4.40121e-05
4.38803e-05
4.37528e-05
4.36296e-05
4.35102e-05
4.33946e-05
4.32824e-05
4.31736e-05
4.30679e-05
4.29651e-05
4.28652e-05
4.2768e-05
4.26734e-05
4.25812e-05
4.24913e-05
4.24037e-05
4.23182e-05
4.22348e-05
4.21534e-05
4.20741e-05
4.19967e-05
4.19214e-05
4.18483e-05
4.17778e-05
4.17104e-05
4.1647e-05
4.15892e-05
4.15392e-05
4.15008e-05
4.14795e-05
4.14831e-05
4.15225e-05
4.16104e-05
4.17604e-05
4.19795e-05
4.22688e-05
5.00961e-05
4.96057e-05
4.91565e-05
4.8743e-05
4.83609e-05
4.80063e-05
4.7676e-05
4.73673e-05
4.70779e-05
4.68058e-05
4.65494e-05
4.63071e-05
4.60775e-05
4.58597e-05
4.56525e-05
4.5455e-05
4.52666e-05
4.50864e-05
4.4914e-05
4.47486e-05
4.45898e-05
4.44371e-05
4.42902e-05
4.41486e-05
4.40121e-05
4.38802e-05
4.37528e-05
4.36295e-05
4.35101e-05
4.33945e-05
4.32823e-05
4.31735e-05
4.30678e-05
4.29651e-05
4.28652e-05
4.2768e-05
4.26734e-05
4.25812e-05
4.24913e-05
4.24037e-05
4.23183e-05
4.22349e-05
4.21536e-05
4.20743e-05
4.1997e-05
4.19218e-05
4.18488e-05
4.17785e-05
4.17113e-05
4.16481e-05
4.15906e-05
4.1541e-05
4.1503e-05
4.14822e-05
4.14865e-05
4.15266e-05
4.16152e-05
4.17657e-05
4.19845e-05
4.22712e-05
5.00961e-05
4.96057e-05
4.91565e-05
4.8743e-05
4.83609e-05
4.80063e-05
4.7676e-05
4.73673e-05
4.70779e-05
4.68058e-05
4.65494e-05
4.63071e-05
4.60775e-05
4.58597e-05
4.56525e-05
4.5455e-05
4.52666e-05
4.50864e-05
4.4914e-05
4.47486e-05
4.45898e-05
4.44371e-05
4.42902e-05
4.41486e-05
4.40121e-05
4.38802e-05
4.37528e-05
4.36295e-05
4.35102e-05
4.33945e-05
4.32824e-05
4.31735e-05
4.30678e-05
4.29651e-05
4.28652e-05
4.2768e-05
4.26734e-05
4.25812e-05
4.24914e-05
4.24038e-05
4.23184e-05
4.22351e-05
4.21538e-05
4.20746e-05
4.19973e-05
4.19222e-05
4.18494e-05
4.17792e-05
4.17122e-05
4.16493e-05
4.15921e-05
4.15429e-05
4.15054e-05
4.14852e-05
4.14902e-05
4.15312e-05
4.1621e-05
4.17726e-05
4.19924e-05
4.22786e-05
5.00961e-05
4.96057e-05
4.91565e-05
4.8743e-05
4.83609e-05
4.80063e-05
4.7676e-05
4.73673e-05
4.70779e-05
4.68059e-05
4.65494e-05
4.63071e-05
4.60776e-05
4.58597e-05
4.56525e-05
4.54551e-05
4.52666e-05
4.50865e-05
4.4914e-05
4.47486e-05
4.45898e-05
4.44372e-05
4.42903e-05
4.41487e-05
4.40121e-05
4.38803e-05
4.37528e-05
4.36296e-05
4.35102e-05
4.33946e-05
4.32824e-05
4.31736e-05
4.30679e-05
4.29652e-05
4.28653e-05
4.27682e-05
4.26735e-05
4.25814e-05
4.24916e-05
4.2404e-05
4.23186e-05
4.22354e-05
4.21541e-05
4.20749e-05
4.19978e-05
4.19228e-05
4.18501e-05
4.17801e-05
4.17132e-05
4.16506e-05
4.15937e-05
4.15448e-05
4.15078e-05
4.14883e-05
4.14941e-05
4.15362e-05
4.16276e-05
4.17813e-05
4.20033e-05
4.22913e-05
5.00961e-05
4.96057e-05
4.91565e-05
4.87431e-05
4.83609e-05
4.80063e-05
4.7676e-05
4.73673e-05
4.7078e-05
4.68059e-05
4.65495e-05
4.63072e-05
4.60776e-05
4.58598e-05
4.56526e-05
4.54552e-05
4.52667e-05
4.50866e-05
4.49141e-05
4.47487e-05
4.45899e-05
4.44373e-05
4.42904e-05
4.41488e-05
4.40123e-05
4.38804e-05
4.3753e-05
4.36297e-05
4.35104e-05
4.33947e-05
4.32826e-05
4.31738e-05
4.30681e-05
4.29654e-05
4.28655e-05
4.27683e-05
4.26738e-05
4.25816e-05
4.24918e-05
4.24043e-05
4.23189e-05
4.22357e-05
4.21545e-05
4.20754e-05
4.19983e-05
4.19234e-05
4.18509e-05
4.1781e-05
4.17144e-05
4.1652e-05
4.15953e-05
4.15469e-05
4.15104e-05
4.14915e-05
4.14983e-05
4.15418e-05
4.16351e-05
4.17917e-05
4.20174e-05
4.23093e-05
5.00961e-05
4.96057e-05
4.91565e-05
4.87431e-05
4.83609e-05
4.80063e-05
4.76761e-05
4.73674e-05
4.7078e-05
4.6806e-05
4.65496e-05
4.63073e-05
4.60778e-05
4.58599e-05
4.56527e-05
4.54553e-05
4.52669e-05
4.50867e-05
4.49143e-05
4.47489e-05
4.45901e-05
4.44375e-05
4.42906e-05
4.4149e-05
4.40125e-05
4.38806e-05
4.37532e-05
4.36299e-05
4.35106e-05
4.3395e-05
4.32828e-05
4.3174e-05
4.30683e-05
4.29656e-05
4.28658e-05
4.27686e-05
4.2674e-05
4.25819e-05
4.24922e-05
4.24047e-05
4.23193e-05
4.22361e-05
4.2155e-05
4.20759e-05
4.1999e-05
4.19242e-05
4.18517e-05
4.1782e-05
4.17156e-05
4.16534e-05
4.15971e-05
4.15491e-05
4.15131e-05
4.14949e-05
4.15027e-05
4.15477e-05
4.16435e-05
4.18039e-05
4.20347e-05
4.23332e-05
5.00961e-05
4.96057e-05
4.91565e-05
4.87431e-05
4.8361e-05
4.80064e-05
4.76761e-05
4.73675e-05
4.70782e-05
4.68061e-05
4.65497e-05
4.63074e-05
4.60779e-05
4.58601e-05
4.56529e-05
4.54555e-05
4.52671e-05
4.50869e-05
4.49145e-05
4.47491e-05
4.45903e-05
4.44377e-05
4.42908e-05
4.41492e-05
4.40127e-05
4.38809e-05
4.37535e-05
4.36302e-05
4.35109e-05
4.33952e-05
4.32831e-05
4.31743e-05
4.30686e-05
4.2966e-05
4.28661e-05
4.2769e-05
4.26744e-05
4.25823e-05
4.24926e-05
4.24051e-05
4.23198e-05
4.22367e-05
4.21556e-05
4.20766e-05
4.19997e-05
4.1925e-05
4.18527e-05
4.17831e-05
4.17169e-05
4.1655e-05
4.1599e-05
4.15513e-05
4.15159e-05
4.14984e-05
4.15073e-05
4.15542e-05
4.16528e-05
4.18179e-05
4.20554e-05
4.23633e-05
5.00961e-05
4.96057e-05
4.91565e-05
4.87431e-05
4.8361e-05
4.80065e-05
4.76762e-05
4.73676e-05
4.70783e-05
4.68063e-05
4.65499e-05
4.63076e-05
4.60781e-05
4.58603e-05
4.56531e-05
4.54557e-05
4.52673e-05
4.50872e-05
4.49148e-05
4.47494e-05
4.45906e-05
4.4438e-05
4.42911e-05
4.41496e-05
4.4013e-05
4.38812e-05
4.37538e-05
4.36306e-05
4.35112e-05
4.33956e-05
4.32835e-05
4.31747e-05
4.3069e-05
4.29664e-05
4.28665e-05
4.27694e-05
4.26749e-05
4.25828e-05
4.24931e-05
4.24056e-05
4.23204e-05
4.22373e-05
4.21562e-05
4.20773e-05
4.20005e-05
4.19259e-05
4.18537e-05
4.17843e-05
4.17183e-05
4.16566e-05
4.16009e-05
4.15537e-05
4.15188e-05
4.15021e-05
4.15122e-05
4.15611e-05
4.16631e-05
4.18339e-05
4.20798e-05
4.24e-05
5.00961e-05
4.96057e-05
4.91565e-05
4.87432e-05
4.83611e-05
4.80065e-05
4.76763e-05
4.73677e-05
4.70784e-05
4.68065e-05
4.65501e-05
4.63078e-05
4.60783e-05
4.58605e-05
4.56534e-05
4.5456e-05
4.52676e-05
4.50875e-05
4.49151e-05
4.47497e-05
4.4591e-05
4.44384e-05
4.42915e-05
4.415e-05
4.40134e-05
4.38816e-05
4.37542e-05
4.3631e-05
4.35117e-05
4.33961e-05
4.3284e-05
4.31752e-05
4.30695e-05
4.29669e-05
4.28671e-05
4.27699e-05
4.26754e-05
4.25834e-05
4.24937e-05
4.24063e-05
4.2321e-05
4.2238e-05
4.2157e-05
4.20781e-05
4.20014e-05
4.19269e-05
4.18548e-05
4.17856e-05
4.17197e-05
4.16583e-05
4.1603e-05
4.15561e-05
4.15218e-05
4.15059e-05
4.15173e-05
4.15684e-05
4.16743e-05
4.1852e-05
4.2108e-05
4.24443e-05
5.00962e-05
4.96057e-05
4.91566e-05
4.87432e-05
4.83612e-05
4.80067e-05
4.76765e-05
4.73679e-05
4.70786e-05
4.68067e-05
4.65503e-05
4.63081e-05
4.60786e-05
4.58609e-05
4.56537e-05
4.54564e-05
4.5268e-05
4.50879e-05
4.49155e-05
4.47502e-05
4.45914e-05
4.44388e-05
4.42919e-05
4.41504e-05
4.40139e-05
4.38821e-05
4.37547e-05
4.36315e-05
4.35122e-05
4.33966e-05
4.32845e-05
4.31757e-05
4.30701e-05
4.29675e-05
4.28677e-05
4.27706e-05
4.26761e-05
4.2584e-05
4.24944e-05
4.2407e-05
4.23218e-05
4.22388e-05
4.21579e-05
4.20791e-05
4.20024e-05
4.1928e-05
4.18561e-05
4.1787e-05
4.17213e-05
4.16602e-05
4.16051e-05
4.15587e-05
4.15249e-05
4.15099e-05
4.15227e-05
4.15762e-05
4.16865e-05
4.18722e-05
4.21404e-05
4.24969e-05
5.00962e-05
4.96057e-05
4.91566e-05
4.87433e-05
4.83613e-05
4.80068e-05
4.76766e-05
4.73681e-05
4.70789e-05
4.68069e-05
4.65506e-05
4.63084e-05
4.6079e-05
4.58612e-05
4.56541e-05
4.54568e-05
4.52684e-05
4.50884e-05
4.4916e-05
4.47506e-05
4.45919e-05
4.44393e-05
4.42925e-05
4.4151e-05
4.40145e-05
4.38827e-05
4.37553e-05
4.36321e-05
4.35128e-05
4.33972e-05
4.32852e-05
4.31764e-05
4.30708e-05
4.29682e-05
4.28684e-05
4.27713e-05
4.26768e-05
4.25848e-05
4.24952e-05
4.24078e-05
4.23227e-05
4.22397e-05
4.21589e-05
4.20801e-05
4.20035e-05
4.19292e-05
4.18574e-05
4.17885e-05
4.1723e-05
4.16621e-05
4.16073e-05
4.15613e-05
4.15281e-05
4.1514e-05
4.15282e-05
4.15845e-05
4.16996e-05
4.18947e-05
4.21773e-05
4.25589e-05
5.00962e-05
4.96058e-05
4.91566e-05
4.87433e-05
4.83614e-05
4.80069e-05
4.76768e-05
4.73683e-05
4.70791e-05
4.68072e-05
4.6551e-05
4.63088e-05
4.60794e-05
4.58617e-05
4.56546e-05
4.54573e-05
4.52689e-05
4.50889e-05
4.49165e-05
4.47512e-05
4.45925e-05
4.444e-05
4.42931e-05
4.41516e-05
4.40151e-05
4.38834e-05
4.3756e-05
4.36328e-05
4.35136e-05
4.3398e-05
4.32859e-05
4.31772e-05
4.30716e-05
4.2969e-05
4.28692e-05
4.27722e-05
4.26777e-05
4.25857e-05
4.24961e-05
4.24088e-05
4.23237e-05
4.22408e-05
4.216e-05
4.20813e-05
4.20048e-05
4.19306e-05
4.18589e-05
4.17901e-05
4.17248e-05
4.16641e-05
4.16096e-05
4.1564e-05
4.15314e-05
4.15181e-05
4.1534e-05
4.15931e-05
4.17137e-05
4.19197e-05
4.2219e-05
4.2632e-05
5.00962e-05
4.96058e-05
4.91567e-05
4.87434e-05
4.83615e-05
4.80071e-05
4.7677e-05
4.73686e-05
4.70794e-05
4.68076e-05
4.65513e-05
4.63092e-05
4.60798e-05
4.58622e-05
4.56551e-05
4.54578e-05
4.52695e-05
4.50895e-05
4.49172e-05
4.47519e-05
4.45932e-05
4.44407e-05
4.42938e-05
4.41524e-05
4.40159e-05
4.38842e-05
4.37568e-05
4.36337e-05
4.35144e-05
4.33989e-05
4.32868e-05
4.31781e-05
4.30725e-05
4.29699e-05
4.28702e-05
4.27732e-05
4.26787e-05
4.25868e-05
4.24972e-05
4.24099e-05
4.23248e-05
4.22419e-05
4.21612e-05
4.20825e-05
4.20061e-05
4.1932e-05
4.18604e-05
4.17917e-05
4.17266e-05
4.16661e-05
4.16119e-05
4.15667e-05
4.15346e-05
4.15223e-05
4.15397e-05
4.1602e-05
4.17287e-05
4.19471e-05
4.22658e-05
4.27179e-05
5.00962e-05
4.96058e-05
4.91567e-05
4.87435e-05
4.83616e-05
4.80073e-05
4.76773e-05
4.73689e-05
4.70798e-05
4.6808e-05
4.65518e-05
4.63097e-05
4.60804e-05
4.58627e-05
4.56557e-05
4.54585e-05
4.52702e-05
4.50902e-05
4.49179e-05
4.47527e-05
4.4594e-05
4.44415e-05
4.42947e-05
4.41532e-05
4.40168e-05
4.38851e-05
4.37578e-05
4.36346e-05
4.35154e-05
4.33998e-05
4.32878e-05
4.31791e-05
4.30735e-05
4.2971e-05
4.28712e-05
4.27742e-05
4.26798e-05
4.25878e-05
4.24982e-05
4.24109e-05
4.23259e-05
4.2243e-05
4.21622e-05
4.20836e-05
4.20072e-05
4.19331e-05
4.18616e-05
4.1793e-05
4.1728e-05
4.16677e-05
4.16137e-05
4.15688e-05
4.15373e-05
4.15259e-05
4.1545e-05
4.16107e-05
4.17441e-05
4.19769e-05
4.23181e-05
4.28189e-05
5.00962e-05
4.96058e-05
4.91568e-05
4.87436e-05
4.83618e-05
4.80075e-05
4.76776e-05
4.73692e-05
4.70802e-05
4.68085e-05
4.65523e-05
4.63103e-05
4.6081e-05
4.58634e-05
4.56564e-05
4.54592e-05
4.5271e-05
4.50911e-05
4.49188e-05
4.47535e-05
4.45949e-05
4.44424e-05
4.42957e-05
4.41542e-05
4.40178e-05
4.38861e-05
4.37588e-05
4.36357e-05
4.35164e-05
4.34009e-05
4.32889e-05
4.31801e-05
4.30745e-05
4.29719e-05
4.28721e-05
4.27751e-05
4.26805e-05
4.25885e-05
4.24988e-05
4.24114e-05
4.23263e-05
4.22432e-05
4.21624e-05
4.20836e-05
4.20071e-05
4.19328e-05
4.18612e-05
4.17925e-05
4.17275e-05
4.16672e-05
4.16133e-05
4.15687e-05
4.15376e-05
4.15271e-05
4.1548e-05
4.16174e-05
4.17583e-05
4.20077e-05
4.2375e-05
4.29372e-05
5.00962e-05
4.96058e-05
4.91569e-05
4.87438e-05
4.8362e-05
4.80078e-05
4.76779e-05
4.73697e-05
4.70807e-05
4.6809e-05
4.65529e-05
4.63109e-05
4.60817e-05
4.58642e-05
4.56573e-05
4.54601e-05
4.52719e-05
4.5092e-05
4.49197e-05
4.47545e-05
4.45959e-05
4.44435e-05
4.42967e-05
4.41553e-05
4.40188e-05
4.38871e-05
4.37598e-05
4.36365e-05
4.35172e-05
4.34016e-05
4.32894e-05
4.31805e-05
4.30747e-05
4.29719e-05
4.28718e-05
4.27744e-05
4.26795e-05
4.25871e-05
4.2497e-05
4.24091e-05
4.23234e-05
4.22398e-05
4.21584e-05
4.2079e-05
4.20019e-05
4.1927e-05
4.18548e-05
4.17855e-05
4.172e-05
4.16593e-05
4.16052e-05
4.15606e-05
4.15298e-05
4.15202e-05
4.15431e-05
4.16168e-05
4.17663e-05
4.20355e-05
4.24336e-05
4.30742e-05
5.00962e-05
4.96059e-05
4.9157e-05
4.8744e-05
4.83623e-05
4.80081e-05
4.76783e-05
4.73702e-05
4.70813e-05
4.68097e-05
4.65537e-05
4.63117e-05
4.60826e-05
4.58651e-05
4.56582e-05
4.54611e-05
4.52729e-05
4.5093e-05
4.49207e-05
4.47555e-05
4.45969e-05
4.44443e-05
4.42974e-05
4.41559e-05
4.40192e-05
4.38872e-05
4.37596e-05
4.3636e-05
4.35162e-05
4.34e-05
4.32871e-05
4.31775e-05
4.30708e-05
4.2967e-05
4.28658e-05
4.27672e-05
4.26709e-05
4.2577e-05
4.24853e-05
4.23957e-05
4.23082e-05
4.22227e-05
4.21394e-05
4.20581e-05
4.1979e-05
4.19022e-05
4.1828e-05
4.1757e-05
4.16898e-05
4.16277e-05
4.15725e-05
4.15273e-05
4.14967e-05
4.14881e-05
4.15136e-05
4.15928e-05
4.17533e-05
4.20469e-05
4.2483e-05
4.3226e-05
5.00962e-05
4.96059e-05
4.91571e-05
4.87442e-05
4.83626e-05
4.80085e-05
4.76788e-05
4.73707e-05
4.70819e-05
4.68104e-05
4.65545e-05
4.63126e-05
4.60835e-05
4.5866e-05
4.56591e-05
4.54619e-05
4.52737e-05
4.50936e-05
4.49211e-05
4.47555e-05
4.45965e-05
4.44434e-05
4.42958e-05
4.41533e-05
4.40157e-05
4.38824e-05
4.37533e-05
4.3628e-05
4.35062e-05
4.33877e-05
4.32723e-05
4.31598e-05
4.305e-05
4.29426e-05
4.28376e-05
4.27348e-05
4.26341e-05
4.25354e-05
4.24386e-05
4.23437e-05
4.22507e-05
4.21597e-05
4.20707e-05
4.19841e-05
4.18996e-05
4.18175e-05
4.17382e-05
4.16624e-05
4.15909e-05
4.15251e-05