/*--------------------------------*- C++ -*----------------------------------*\
| =========                 |                                                 |
| \\      /  F ield         | OpenFOAM: The Open Source CFD Toolbox           |
|  \\    /   O peration     | Version:  2.4.0                                 |
|   \\  /    A nd           | Web:      www.OpenFOAM.org                      |
|    \\/     M anipulation  |                                                 |
\*---------------------------------------------------------------------------*/
FoamFile
{
    version     2.0;
    format      ascii;
    class       volScalarField;
    location    "1.12";
    object      k;
}
// * * * * * * * * * * * * * * * * * * * * * * * * * * * * * * * * * * * * * //

dimensions      [0 2 -2 0 0 0 0];

internalField   nonuniform List<scalar> 
6000
(
0.00510096
0.00645279
0.00771268
0.00881052
0.00970874
0.0103981
0.0108901
0.0112091
0.0113855
0.0114508
0.0114338
0.0113592
0.011247
0.0111127
0.0109677
0.0108205
0.0106768
0.0105402
0.0104131
0.0102965
0.0101908
0.0100957
0.0100106
0.00993449
0.0098664
0.00980517
0.00974969
0.00969889
0.00965177
0.00960746
0.00956521
0.00952436
0.00948441
0.00944492
0.00940557
0.00936608
0.00932621
0.00928575
0.00924446
0.00920206
0.0091582
0.00911242
0.00906414
0.00901257
0.00895669
0.00889519
0.00882637
0.00874805
0.00865745
0.00855104
0.00842435
0.00827172
0.00808613
0.00785871
0.00757956
0.00723506
0.00682016
0.00630691
0.00577709
0.00506062
0.0035494
0.00344488
0.00340553
0.00341541
0.00345868
0.00352242
0.00359887
0.00368417
0.00377674
0.00387637
0.00398357
0.00409912
0.00422367
0.00435758
0.00450075
0.00465262
0.00481218
0.004978
0.00514827
0.00532097
0.00549388
0.00566475
0.0058314
0.0059918
0.00614421
0.00628717
0.00641963
0.00654089
0.00665066
0.00674898
0.00683622
0.00691299
0.00698009
0.00703847
0.00708914
0.00713316
0.00717158
0.0072054
0.0072356
0.00726308
0.0072887
0.0073133
0.00733767
0.00736268
0.00738921
0.00741831
0.00745121
0.00748946
0.00753504
0.00759058
0.00765968
0.00774734
0.00786066
0.00801018
0.00821131
0.00848849
0.00887679
0.00943415
0.0101949
0.0119615
0.00348321
0.00325648
0.00306425
0.00290018
0.00275854
0.00263419
0.00252332
0.00242364
0.00233403
0.00225413
0.00218406
0.00212419
0.00207498
0.00203686
0.0020102
0.00199529
0.00199228
0.00200127
0.00202223
0.00205503
0.00209947
0.00215521
0.00222182
0.00229875
0.00238532
0.00248077
0.0025842
0.00269466
0.00281108
0.00293238
0.00305741
0.00318505
0.00331419
0.00344378
0.00357284
0.00370048
0.00382595
0.00394859
0.00406793
0.00418359
0.00429539
0.00440327
0.00450732
0.00460779
0.00470507
0.00479973
0.00489253
0.00498446
0.00507685
0.00517149
0.00527088
0.00537865
0.00550024
0.00564421
0.00582429
0.0060642
0.00640296
0.00691927
0.00771422
0.00946486
0.00347969
0.00324256
0.00303442
0.00285067
0.00268758
0.00254191
0.00241089
0.0022922
0.00218399
0.0020848
0.00199351
0.00190929
0.00183155
0.00175986
0.00169393
0.0016336
0.00157876
0.00152936
0.00148542
0.00144698
0.00141409
0.00138685
0.00136536
0.00134971
0.00134002
0.00133639
0.00133892
0.00134769
0.00136278
0.00138423
0.00141207
0.00144632
0.00148693
0.00153385
0.00158698
0.0016462
0.00171135
0.00178222
0.00185861
0.00194029
0.00202703
0.00211859
0.00221481
0.00231555
0.00242078
0.0025306
0.00264529
0.00276536
0.00289167
0.00302548
0.0031687
0.00332406
0.00349557
0.0036892
0.00391412
0.00418551
0.00452888
0.00499741
0.00568076
0.0070013
0.00347951
0.00324163
0.00303199
0.00284603
0.00268015
0.00253139
0.00239731
0.00227586
0.00216532
0.00206426
0.00197147
0.00188596
0.00180687
0.00173352
0.00166531
0.00160177
0.0015425
0.00148717
0.0014355
0.00138726
0.00134229
0.00130044
0.00126158
0.00122564
0.00119255
0.00116228
0.0011348
0.00111012
0.00108825
0.00106923
0.00105311
0.00103997
0.00102987
0.00102293
0.00101925
0.00101897
0.00102223
0.00102921
0.00104009
0.00105511
0.00107451
0.00109862
0.00112779
0.0011625
0.0012033
0.00125091
0.00130628
0.00137059
0.00144541
0.00153284
0.00163563
0.00175751
0.0019035
0.0020805
0.00229819
0.00257032
0.00291799
0.00337601
0.00401033
0.00504611
0.0034795
0.00324152
0.00303169
0.00284546
0.00267923
0.00253007
0.00239557
0.00227374
0.00216291
0.00206168
0.00196888
0.0018835
0.00180468
0.0017317
0.00166393
0.00160083
0.00154194
0.00148685
0.00143523
0.00138676
0.00134119
0.00129829
0.00125787
0.00121976
0.00118381
0.0011499
0.00111791
0.00108776
0.00105937
0.00103268
0.00100762
0.000984177
0.000962307
0.000941999
0.000923248
0.000906065
0.000890473
0.000876511
0.000864238
0.000853737
0.000845118
0.000838532
0.000834176
0.000832317
0.000833307
0.000837627
0.000845926
0.000859097
0.000878374
0.000905488
0.000942878
0.000994026
0.00106395
0.0011599
0.00129255
0.00147735
0.00173791
0.0021075
0.0026477
0.00347925
0.00347949
0.00324148
0.00303159
0.00284531
0.00267901
0.00252977
0.0023952
0.0022733
0.00216243
0.00206119
0.00196842
0.00188313
0.00180446
0.00173168
0.00166418
0.00160139
0.00154286
0.00148815
0.00143693
0.00138886
0.00134366
0.0013011
0.00126095
0.00122301
0.00118713
0.00115314
0.00112091
0.00109033
0.00106127
0.00103366
0.0010074
0.000982418
0.000958654
0.000936048
0.000914551
0.00089412
0.000874723
0.000856333
0.000838932
0.000822513
0.00080708
0.00079265
0.000779262
0.000766979
0.000755901
0.00074618
0.000738044
0.000731834
0.000728063
0.000727511
0.000731375
0.000741519
0.000760895
0.000794222
0.000849201
0.000938301
0.00108252
0.00131398
0.00169308
0.00230574
0.00347949
0.00324145
0.00303152
0.0028452
0.00267887
0.0025296
0.00239499
0.00227306
0.00216217
0.00206092
0.00196815
0.00188288
0.00180424
0.00173152
0.0016641
0.00160142
0.00154301
0.00148846
0.00143741
0.00138954
0.00134456
0.00130222
0.0012623
0.0012246
0.00118895
0.00115518
0.00112315
0.00109274
0.00106382
0.00103629
0.00101007
0.000985058
0.000961184
0.000938377
0.000916575
0.000895721
0.000875763
0.000856656
0.000838359
0.000820837
0.00080406
0.000788004
0.000772654
0.000758002
0.000744055
0.000730836
0.000718398
0.000706833
0.000696301
0.00068707
0.000679589
0.000674613
0.00067344
0.000678334
0.000693349
0.000725794
0.000789422
0.000908455
0.00113182
0.00153117
0.00347949
0.00324143
0.00303147
0.00284512
0.00267876
0.00252946
0.00239482
0.00227288
0.00216196
0.0020607
0.00196792
0.00188264
0.00180401
0.0017313
0.00166388
0.00160123
0.00154285
0.00148835
0.00143735
0.00138954
0.00134463
0.00130238
0.00126256
0.00122496
0.00118942
0.00115577
0.00112386
0.00109357
0.00106478
0.00103738
0.00101127
0.000986371
0.000962598
0.000939878
0.000918144
0.000897335
0.000877394
0.000858271
0.000839917
0.00082229
0.000805351
0.000789063
0.000773395
0.00075832
0.000743815
0.000729865
0.000716467
0.000703629
0.00069139
0.000679827
0.000669091
0.000659465
0.00065147
0.000646073
0.000645132
0.000652264
0.000674839
0.000727723
0.000843208
0.00107784
0.00347949
0.00324142
0.00303143
0.00284505
0.00267866
0.00252934
0.00239469
0.00227272
0.00216179
0.00206051
0.00196772
0.00188243
0.00180379
0.00173108
0.00166366
0.00160101
0.00154264
0.00148814
0.00143716
0.00138936
0.00134448
0.00130225
0.00126245
0.00122489
0.00118938
0.00115577
0.00112392
0.00109368
0.00106494
0.0010376
0.00101155
0.000986718
0.00096301
0.000940357
0.000918688
0.000897944
0.000878065
0.000859
0.000840699
0.000823117
0.000806212
0.000789947
0.000774284
0.000759192
0.000744641
0.000730605
0.000717065
0.000704008
0.000691431
0.000679354
0.000667827
0.00065696
0.000646973
0.000638289
0.000631749
0.000629063
0.00063382
0.000654147
0.000708131
0.000835679
0.00347949
0.00324141
0.0030314
0.002845
0.00267859
0.00252924
0.00239457
0.00227258
0.00216164
0.00206035
0.00196755
0.00188225
0.0018036
0.00173088
0.00166346
0.00160081
0.00154244
0.00148794
0.00143696
0.00138916
0.00134428
0.00130206
0.00126227
0.00122472
0.00118922
0.00115563
0.00112378
0.00109356
0.00106484
0.00103752
0.0010115
0.000986691
0.00096301
0.000940386
0.000918749
0.000898037
0.000878193
0.000859163
0.000840898
0.000823353
0.000806486
0.000790257
0.000774631
0.000759574
0.000745054
0.000731046
0.000717524
0.000704471
0.000691877
0.000679742
0.00066809
0.000656975
0.000646513
0.000636924
0.000628635
0.000622506
0.000620264
0.000626194
0.000649316
0.000714883
0.00347949
0.0032414
0.00303137
0.00284495
0.00267852
0.00252916
0.00239447
0.00227247
0.00216151
0.00206021
0.0019674
0.00188209
0.00180344
0.00173071
0.00166329
0.00160063
0.00154226
0.00148776
0.00143677
0.00138898
0.0013441
0.00130188
0.00126209
0.00122454
0.00118905
0.00115546
0.00112362
0.0010934
0.00106469
0.00103737
0.00101136
0.00098656
0.000962889
0.000940276
0.000918651
0.000897952
0.000878122
0.000859107
0.000840859
0.000823333
0.000806485
0.000790277
0.000774673
0.00075964
0.000745147
0.000731166
0.000717674
0.000704651
0.000692088
0.000679981
0.000668347
0.000657226
0.000646704
0.000636932
0.000628184
0.00062097
0.000616199
0.000616187
0.000625177
0.000657826
0.00347949
0.00324139
0.00303135
0.00284491
0.00267847
0.00252909
0.00239438
0.00227237
0.0021614
0.00206009
0.00196727
0.00188195
0.00180329
0.00173056
0.00166314
0.00160047
0.0015421
0.0014876
0.00143661
0.00138882
0.00134394
0.00130171
0.00126193
0.00122438
0.00118889
0.0011553
0.00112346
0.00109324
0.00106453
0.00103722
0.00101121
0.000986415
0.000962749
0.000940139
0.000918519
0.000897825
0.000878001
0.000858992
0.000840752
0.000823233
0.000806394
0.000790196
0.000774604
0.000759583
0.000745104
0.00073114
0.000717667
0.000704667
0.000692128
0.000680051
0.00066845
0.000657363
0.000646867
0.000637095
0.000628266
0.000620757
0.00061514
0.000612777
0.000615668
0.000631929
0.00347948
0.00324138
0.00303134
0.00284488
0.00267842
0.00252903
0.00239431
0.00227228
0.0021613
0.00205998
0.00196715
0.00188183
0.00180317
0.00173043
0.001663
0.00160034
0.00154196
0.00148746
0.00143647
0.00138868
0.00134379
0.00130157
0.00126178
0.00122424
0.00118875
0.00115516
0.00112332
0.0010931
0.0010644
0.00103709
0.00101108
0.000986282
0.000962617
0.000940009
0.000918391
0.0008977
0.000877878
0.000858873
0.000840636
0.000823121
0.000806287
0.000790094
0.000774507
0.000759494
0.000745023
0.000731069
0.000717607
0.000704622
0.000692101
0.000680044
0.000668468
0.000657411
0.000646947
0.000637206
0.000628388
0.000620817
0.000614933
0.000611641
0.000611952
0.000620353
0.00347948
0.00324138
0.00303132
0.00284486
0.00267838
0.00252897
0.00239424
0.00227221
0.00216122
0.00205989
0.00196706
0.00188173
0.00180306
0.00173032
0.00166289
0.00160022
0.00154184
0.00148734
0.00143635
0.00138855
0.00134367
0.00130145
0.00126166
0.00122411
0.00118862
0.00115503
0.0011232
0.00109298
0.00106427
0.00103697
0.00101096
0.000986163
0.0009625
0.000939893
0.000918277
0.000897587
0.000877767
0.000858764
0.000840529
0.000823017
0.000806186
0.000789997
0.000774414
0.000759406
0.000744941
0.000730993
0.000717541
0.000704565
0.000692057
0.000680016
0.000668458
0.000657424
0.000646987
0.000637274
0.000628479
0.000620903
0.000614932
0.000611249
0.000610431
0.000615053
0.00347948
0.00324138
0.00303131
0.00284483
0.00267835
0.00252893
0.00239419
0.00227214
0.00216115
0.00205981
0.00196697
0.00188164
0.00180296
0.00173022
0.00166278
0.00160011
0.00154173
0.00148723
0.00143624
0.00138844
0.00134356
0.00130134
0.00126155
0.001224
0.00118851
0.00115492
0.00112309
0.00109288
0.00106417
0.00103686
0.00101085
0.00098606
0.000962397
0.000939792
0.000918177
0.000897489
0.00087767
0.000858669
0.000840436
0.000822926
0.000806097
0.000789911
0.000774332
0.000759328
0.000744868
0.000730927
0.000717481
0.000704515
0.000692017
0.000679989
0.000668447
0.000657432
0.000647017
0.000637327
0.000628553
0.000620982
0.000614974
0.000611094
0.000609729
0.000612438
0.00347948
0.00324137
0.0030313
0.00284481
0.00267832
0.00252889
0.00239414
0.00227209
0.00216108
0.00205974
0.0019669
0.00188156
0.00180288
0.00173013
0.0016627
0.00160002
0.00154164
0.00148714
0.00143614
0.00138835
0.00134346
0.00130124
0.00126146
0.00122391
0.00118842
0.00115483
0.00112299
0.00109278
0.00106408
0.00103677
0.00101076
0.00098597
0.000962309
0.000939705
0.00091809
0.000897404
0.000877587
0.000858587
0.000840356
0.000822848
0.000806021
0.000789838
0.000774263
0.000759262
0.000744807
0.000730872
0.000717433
0.000704475
0.000691988
0.000679972
0.000668446
0.000657448
0.000647052
0.000637383
0.000628628
0.000621062
0.000615031
0.000611027
0.000609347
0.000610987
0.00347948
0.00324137
0.00303129
0.0028448
0.0026783
0.00252886
0.0023941
0.00227204
0.00216103
0.00205968
0.00196683
0.00188149
0.00180281
0.00173006
0.00166262
0.00159995
0.00154156
0.00148706
0.00143606
0.00138827
0.00134338
0.00130116
0.00126137
0.00122383
0.00118834
0.00115475
0.00112291
0.0010927
0.001064
0.00103669
0.00101069
0.000985893
0.000962233
0.00093963
0.000918016
0.000897331
0.000877515
0.000858517
0.000840288
0.000822782
0.000805958
0.000789777
0.000774205
0.000759209
0.000744758
0.000730828
0.000717397
0.000704447
0.00069197
0.000679967
0.000668455
0.000657474
0.000647099
0.00063745
0.000628712
0.000621154
0.000615106
0.000611009
0.000609114
0.000610079
0.00347948
0.00324137
0.00303129
0.00284479
0.00267828
0.00252883
0.00239407
0.002272
0.00216099
0.00205963
0.00196678
0.00188143
0.00180275
0.00173
0.00166256
0.00159988
0.00154149
0.00148699
0.00143599
0.0013882
0.00134331
0.00130109
0.0012613
0.00122376
0.00118827
0.00115468
0.00112285
0.00109263
0.00106393
0.00103662
0.00101062
0.000985828
0.000962168
0.000939566
0.000917954
0.000897269
0.000877455
0.000858458
0.00084023
0.000822727
0.000805905
0.000789727
0.000774158
0.000759166
0.00074472
0.000730796
0.000717372
0.000704431
0.000691964
0.000679974
0.000668476
0.000657513
0.000647157
0.000637529
0.000628811
0.000621262
0.000615203
0.000611035
0.000608976
0.000609467
0.00347948
0.00324137
0.00303128
0.00284478
0.00267826
0.00252881
0.00239404
0.00227197
0.00216095
0.00205959
0.00196673
0.00188138
0.0018027
0.00172995
0.0016625
0.00159982
0.00154144
0.00148693
0.00143594
0.00138814
0.00134326
0.00130103
0.00126125
0.0012237
0.00118821
0.00115462
0.00112279
0.00109258
0.00106387
0.00103657
0.00101056
0.000985773
0.000962114
0.000939513
0.000917902
0.000897218
0.000877405
0.00085841
0.000840184
0.000822682
0.000805863
0.000789688
0.000774122
0.000759133
0.000744693
0.000730774
0.000717357
0.000704425
0.000691968
0.00067999
0.000668508
0.000657563
0.000647227
0.000637621
0.000628924
0.00062139
0.000615327
0.000611105
0.000608918
0.000609054
0.00347948
0.00324137
0.00303128
0.00284477
0.00267825
0.00252879
0.00239402
0.00227194
0.00216092
0.00205956
0.0019667
0.00188135
0.00180266
0.0017299
0.00166246
0.00159978
0.00154139
0.00148688
0.00143589
0.00138809
0.00134321
0.00130098
0.0012612
0.00122365
0.00118816
0.00115458
0.00112274
0.00109253
0.00106383
0.00103652
0.00101052
0.000985729
0.00096207
0.00093947
0.00091786
0.000897177
0.000877365
0.000858372
0.000840147
0.000822647
0.00080583
0.000789658
0.000774095
0.000759111
0.000744675
0.000730762
0.000717352
0.000704428
0.000691983
0.000680017
0.000668551
0.000657623
0.000647308
0.000637725
0.000629052
0.000621536
0.000615479
0.000611222
0.000608936
0.000608801
0.00347948
0.00324137
0.00303128
0.00284476
0.00267824
0.00252878
0.002394
0.00227192
0.00216089
0.00205953
0.00196667
0.00188131
0.00180262
0.00172987
0.00166242
0.00159974
0.00154135
0.00148685
0.00143585
0.00138805
0.00134317
0.00130095
0.00126116
0.00122361
0.00118813
0.00115454
0.0011227
0.00109249
0.00106379
0.00103649
0.00101048
0.000985694
0.000962036
0.000939437
0.000917827
0.000897146
0.000877335
0.000858342
0.000840119
0.000822621
0.000805806
0.000789637
0.000774078
0.000759097
0.000744666
0.000730759
0.000717356
0.000704441
0.000692006
0.000680054
0.000668602
0.000657693
0.0006474
0.000637841
0.000629194
0.000621701
0.000615658
0.000611385
0.000609032
0.000608693
0.00347948
0.00324137
0.00303127
0.00284476
0.00267823
0.00252877
0.00239399
0.00227191
0.00216088
0.00205951
0.00196665
0.00188129
0.0018026
0.00172984
0.0016624
0.00159972
0.00154133
0.00148682
0.00143582
0.00138803
0.00134314
0.00130092
0.00126113
0.00122359
0.0011881
0.00115451
0.00112268
0.00109247
0.00106376
0.00103646
0.00101046
0.000985669
0.000962012
0.000939413
0.000917804
0.000897123
0.000877314
0.000858322
0.000840101
0.000822604
0.000805792
0.000789625
0.000774069
0.000759092
0.000744666
0.000730765
0.000717369
0.000704462
0.000692038
0.000680099
0.000668663
0.000657772
0.000647501
0.000637968
0.000629349
0.000621885
0.000615866
0.000611594
0.000609204
0.000608722
0.00347948
0.00324137
0.00303127
0.00284475
0.00267822
0.00252876
0.00239398
0.0022719
0.00216086
0.0020595
0.00196663
0.00188128
0.00180258
0.00172983
0.00166238
0.0015997
0.00154131
0.0014868
0.00143581
0.00138801
0.00134312
0.0013009
0.00126111
0.00122357
0.00118808
0.00115449
0.00112266
0.00109245
0.00106375
0.00103644
0.00101044
0.000985653
0.000961996
0.000939397
0.000917789
0.00089711
0.000877301
0.000858311
0.000840091
0.000822596
0.000805785
0.000789621
0.000774068
0.000759095
0.000744674
0.000730779
0.00071739
0.000704492
0.000692078
0.000680152
0.000668732
0.000657861
0.000647612
0.000638106
0.000629517
0.000622087
0.000616101
0.000611851
0.000609455
0.000608887
0.00347948
0.00324137
0.00303127
0.00284475
0.00267822
0.00252876
0.00239398
0.00227189
0.00216086
0.00205949
0.00196663
0.00188127
0.00180258
0.00172982
0.00166237
0.00159969
0.0015413
0.00148679
0.0014358
0.001388
0.00134311
0.00130089
0.00126111
0.00122356
0.00118807
0.00115448
0.00112265
0.00109244
0.00106374
0.00103644
0.00101043
0.000985645
0.000961989
0.000939391
0.000917784
0.000897105
0.000877297
0.000858308
0.000840089
0.000822596
0.000805788
0.000789626
0.000774076
0.000759107
0.00074469
0.000730801
0.000717419
0.00070453
0.000692127
0.000680213
0.000668809
0.000657957
0.000647732
0.000638253
0.000629698
0.000622307
0.000616365
0.000612155
0.000609785
0.000609186
0.00347948
0.00324137
0.00303127
0.00284475
0.00267822
0.00252876
0.00239398
0.00227189
0.00216086
0.00205949
0.00196663
0.00188127
0.00180258
0.00172982
0.00166237
0.00159969
0.0015413
0.00148679
0.0014358
0.001388
0.00134311
0.00130089
0.00126111
0.00122356
0.00118807
0.00115448
0.00112265
0.00109244
0.00106374
0.00103644
0.00101044
0.000985647
0.000961991
0.000939393
0.000917787
0.000897108
0.000877301
0.000858313
0.000840096
0.000822605
0.000805798
0.000789639
0.000774092
0.000759126
0.000744714
0.00073083
0.000717456
0.000704575
0.000692183
0.000680282
0.000668894
0.000658061
0.000647859
0.00063841
0.000629891
0.000622544
0.000616655
0.000612507
0.000610196
0.00060962
0.00347948
0.00324137
0.00303127
0.00284475
0.00267822
0.00252876
0.00239398
0.0022719
0.00216086
0.0020595
0.00196663
0.00188128
0.00180258
0.00172983
0.00166238
0.0015997
0.00154131
0.0014868
0.00143581
0.00138801
0.00134312
0.0013009
0.00126112
0.00122357
0.00118808
0.00115449
0.00112266
0.00109245
0.00106375
0.00103645
0.00101045
0.000985657
0.000962002
0.000939405
0.000917798
0.000897121
0.000877314
0.000858327
0.000840111
0.000822621
0.000805817
0.00078966
0.000774116
0.000759154
0.000744746
0.000730868
0.0007175
0.000704628
0.000692246
0.000680359
0.000668986
0.000658173
0.000647995
0.000638576
0.000630095
0.000622798
0.000616974
0.000612907
0.000610689
0.000610194
0.00347948
0.00324137
0.00303127
0.00284476
0.00267823
0.00252877
0.00239399
0.00227191
0.00216088
0.00205951
0.00196665
0.00188129
0.0018026
0.00172984
0.0016624
0.00159972
0.00154133
0.00148682
0.00143583
0.00138803
0.00134314
0.00130092
0.00126113
0.00122359
0.0011881
0.00115451
0.00112268
0.00109247
0.00106377
0.00103647
0.00101046
0.000985677
0.000962021
0.000939425
0.000917819
0.000897141
0.000877336
0.00085835
0.000840135
0.000822646
0.000805843
0.000789689
0.000774148
0.000759189
0.000744786
0.000730914
0.000717552
0.000704689
0.000692317
0.000680442
0.000669086
0.000658292
0.000648139
0.00063875
0.00063031
0.000623068
0.00061732
0.000613357
0.000611266
0.000610912
0.00347948
0.00324137
0.00303128
0.00284476
0.00267824
0.00252878
0.002394
0.00227192
0.00216089
0.00205953
0.00196667
0.00188131
0.00180262
0.00172987
0.00166242
0.00159974
0.00154136
0.00148685
0.00143585
0.00138806
0.00134317
0.00130095
0.00126116
0.00122362
0.00118813
0.00115454
0.00112271
0.0010925
0.0010638
0.00103649
0.00101049
0.000985705
0.00096205
0.000939453
0.000917848
0.000897171
0.000877366
0.000858381
0.000840167
0.00082268
0.000805879
0.000789726
0.000774188
0.000759233
0.000744834
0.000730967
0.000717612
0.000704757
0.000692396
0.000680534
0.000669193
0.000658418
0.00064829
0.000638933
0.000630536
0.000623354
0.000617693
0.000613857
0.000611933
0.000611783
0.00347948
0.00324137
0.00303128
0.00284477
0.00267825
0.00252879
0.00239402
0.00227194
0.00216092
0.00205956
0.0019667
0.00188135
0.00180266
0.0017299
0.00166246
0.00159978
0.00154139
0.00148688
0.00143589
0.00138809
0.00134321
0.00130099
0.0012612
0.00122365
0.00118817
0.00115458
0.00112275
0.00109254
0.00106384
0.00103653
0.00101053
0.000985743
0.000962088
0.000939492
0.000917886
0.00089721
0.000877406
0.000858421
0.000840208
0.000822722
0.000805923
0.000789772
0.000774236
0.000759285
0.00074489
0.000731028
0.00071768
0.000704833
0.000692482
0.000680632
0.000669306
0.000658551
0.000648448
0.000639124
0.000630772
0.000623657
0.000618095
0.00061441
0.000612692
0.000612818
0.00347948
0.00324137
0.00303128
0.00284478
0.00267826
0.00252881
0.00239404
0.00227197
0.00216095
0.00205959
0.00196673
0.00188138
0.0018027
0.00172995
0.0016625
0.00159982
0.00154144
0.00148693
0.00143594
0.00138814
0.00134326
0.00130103
0.00126125
0.0012237
0.00118822
0.00115463
0.00112279
0.00109259
0.00106388
0.00103658
0.00101058
0.000985791
0.000962135
0.000939539
0.000917934
0.000897258
0.000877454
0.00085847
0.000840258
0.000822773
0.000805975
0.000789827
0.000774294
0.000759345
0.000744954
0.000731098
0.000717756
0.000704917
0.000692575
0.000680738
0.000669427
0.000658692
0.000648613
0.000639323
0.000631018
0.000623975
0.000618525
0.000615017
0.000613549
0.00061403
0.00347948
0.00324137
0.00303129
0.00284479
0.00267828
0.00252883
0.00239407
0.002272
0.00216099
0.00205963
0.00196678
0.00188143
0.00180275
0.00173
0.00166256
0.00159988
0.00154149
0.00148699
0.001436
0.0013882
0.00134332
0.00130109
0.00126131
0.00122376
0.00118827
0.00115469
0.00112285
0.00109264
0.00106394
0.00103664
0.00101064
0.000985848
0.000962193
0.000939597
0.000917992
0.000897316
0.000877512
0.000858529
0.000840317
0.000822834
0.000806037
0.000789891
0.00077436
0.000759415
0.000745028
0.000731176
0.00071784
0.000705009
0.000692677
0.000680851
0.000669556
0.000658839
0.000648785
0.00063953
0.000631275
0.000624309
0.000618983
0.000615681
0.000614511
0.00061544
0.00347948
0.00324137
0.00303129
0.0028448
0.0026783
0.00252886
0.0023941
0.00227204
0.00216103
0.00205968
0.00196683
0.00188149
0.00180281
0.00173006
0.00166262
0.00159995
0.00154156
0.00148706
0.00143607
0.00138827
0.00134339
0.00130116
0.00126138
0.00122383
0.00118834
0.00115476
0.00112292
0.00109271
0.00106401
0.00103671
0.0010107
0.000985917
0.000962261
0.000939665
0.00091806
0.000897384
0.000877581
0.000858598
0.000840387
0.000822904
0.000806109
0.000789964
0.000774436
0.000759493
0.00074511
0.000731263
0.000717933
0.000705109
0.000692786
0.000680972
0.000669692
0.000658994
0.000648965
0.000639744
0.000631541
0.000624659
0.00061947
0.000616406
0.000615585
0.000617072
0.00347948
0.00324137
0.0030313
0.00284481
0.00267832
0.00252889
0.00239414
0.00227209
0.00216108
0.00205974
0.0019669
0.00188156
0.00180288
0.00173013
0.0016627
0.00160002
0.00154164
0.00148714
0.00143615
0.00138835
0.00134347
0.00130125
0.00126146
0.00122391
0.00118843
0.00115484
0.001123
0.00109279
0.00106409
0.00103679
0.00101078
0.000985996
0.000962341
0.000939744
0.000918139
0.000897463
0.00087766
0.000858678
0.000840468
0.000822986
0.000806192
0.000790048
0.000774522
0.000759582
0.000745202
0.00073136
0.000718036
0.000705219
0.000692905
0.000681102
0.000669836
0.000659157
0.000649152
0.000639966
0.000631817
0.000625024
0.000619987
0.000617194
0.00061678
0.000618957
0.00347948
0.00324138
0.00303131
0.00284483
0.00267835
0.00252893
0.00239419
0.00227214
0.00216115
0.00205981
0.00196697
0.00188164
0.00180296
0.00173022
0.00166279
0.00160011
0.00154173
0.00148723
0.00143624
0.00138845
0.00134356
0.00130134
0.00126156
0.00122401
0.00118852
0.00115493
0.0011231
0.00109289
0.00106418
0.00103688
0.00101088
0.000986089
0.000962433
0.000939836
0.000918231
0.000897555
0.000877752
0.00085877
0.00084056
0.000823079
0.000806286
0.000790144
0.000774619
0.000759682
0.000745305
0.000731467
0.000718148
0.000705338
0.000693033
0.000681241
0.000669989
0.000659328
0.000649348
0.000640197
0.000632102
0.000625405
0.000620533
0.000618051
0.000618106
0.000621137
0.00347948
0.00324138
0.00303132
0.00284486
0.00267838
0.00252897
0.00239424
0.00227221
0.00216122
0.00205989
0.00196706
0.00188173
0.00180306
0.00173032
0.00166289
0.00160022
0.00154184
0.00148734
0.00143635
0.00138855
0.00134367
0.00130145
0.00126167
0.00122412
0.00118863
0.00115504
0.00112321
0.001093
0.00106429
0.00103699
0.00101098
0.000986195
0.000962538
0.000939941
0.000918336
0.00089766
0.000877857
0.000858874
0.000840665
0.000823184
0.000806392
0.000790251
0.000774728
0.000759793
0.00074542
0.000731585
0.000718271
0.000705467
0.00069317
0.000681389
0.00067015
0.000659506
0.00064955
0.000640434
0.000632397
0.000625799
0.000621108
0.000618979
0.000619576
0.000623665
0.00347948
0.00324138
0.00303134
0.00284488
0.00267842
0.00252903
0.00239431
0.00227228
0.0021613
0.00205998
0.00196716
0.00188183
0.00180317
0.00173043
0.001663
0.00160034
0.00154196
0.00148746
0.00143647
0.00138868
0.0013438
0.00130158
0.00126179
0.00122424
0.00118876
0.00115517
0.00112333
0.00109312
0.00106441
0.00103711
0.00101111
0.000986316
0.000962659
0.000940061
0.000918455
0.000897778
0.000877975
0.000858992
0.000840783
0.000823302
0.00080651
0.00079037
0.000774848
0.000759915
0.000745544
0.000731712
0.000718403
0.000705604
0.000693315
0.000681543
0.000670316
0.000659689
0.000649756
0.000640676
0.000632696
0.000626204
0.000621709
0.000619983
0.0006212
0.00062661
0.00347949
0.00324139
0.00303135
0.00284491
0.00267847
0.00252909
0.00239438
0.00227237
0.0021614
0.00206009
0.00196727
0.00188195
0.00180329
0.00173056
0.00166314
0.00160047
0.0015421
0.0014876
0.00143661
0.00138882
0.00134394
0.00130172
0.00126193
0.00122439
0.0011889
0.00115531
0.00112347
0.00109326
0.00106455
0.00103725
0.00101124
0.000986452
0.000962794
0.000940195
0.000918587
0.000897909
0.000878105
0.000859121
0.00084091
0.000823428
0.000806636
0.000790495
0.000774973
0.00076004
0.00074567
0.00073184
0.000718533
0.000705739
0.000693455
0.000681691
0.000670476
0.000659865
0.000649954
0.000640909
0.000632988
0.000626609
0.000622327
0.000621058
0.000622987
0.00063006
0.00347949
0.0032414
0.00303137
0.00284495
0.00267852
0.00252916
0.00239447
0.00227247
0.00216151
0.00206021
0.0019674
0.00188209
0.00180344
0.00173071
0.00166329
0.00160063
0.00154226
0.00148776
0.00143678
0.00138898
0.0013441
0.00130188
0.0012621
0.00122455
0.00118906
0.00115547
0.00112363
0.00109342
0.00106471
0.0010374
0.00101139
0.000986599
0.000962938
0.000940335
0.000918724
0.000898043
0.000878234
0.000859246
0.000841031
0.000823545
0.000806748
0.000790603
0.000775078
0.000760141
0.000745768
0.000731937
0.00071863
0.000705837
0.000693556
0.000681798
0.000670592
0.000659995
0.000650107
0.000641097
0.000633238
0.000626978
0.00062293
0.000622185
0.000624931
0.000634128
0.00347949
0.00324141
0.0030314
0.002845
0.00267859
0.00252924
0.00239457
0.00227258
0.00216164
0.00206035
0.00196755
0.00188225
0.0018036
0.00173088
0.00166347
0.00160081
0.00154244
0.00148794
0.00143696
0.00138917
0.00134429
0.00130206
0.00126228
0.00122473
0.00118923
0.00115564
0.0011238
0.00109358
0.00106486
0.00103755
0.00101153
0.000986733
0.000963063
0.00094045
0.000918829
0.000898136
0.000878315
0.000859315
0.000841087
0.000823588
0.000806779
0.000790622
0.000775085
0.000760138
0.000745755
0.000731915
0.000718602
0.000705805
0.000693523
0.000681769
0.000670571
0.000659988
0.000650124
0.000641153
0.000633362
0.000627233
0.000623443
0.0006233
0.000626994
0.000638942
0.00347949
0.00324142
0.00303143
0.00284505
0.00267866
0.00252934
0.00239469
0.00227272
0.00216179
0.00206051
0.00196772
0.00188243
0.00180379
0.00173108
0.00166367
0.00160101
0.00154264
0.00148815
0.00143716
0.00138937
0.00134448
0.00130225
0.00126246
0.0012249
0.0011894
0.00115579
0.00112393
0.0010937
0.00106496
0.00103763
0.00101159
0.000986764
0.000963068
0.000940428
0.000918778
0.000898055
0.000878204
0.000859173
0.000840915
0.000823387
0.000806548
0.000790365
0.000774803
0.000759835
0.000745435
0.000731581
0.000718259
0.000705458
0.000693178
0.000681432
0.000670251
0.000659693
0.000649865
0.000640946
0.000633236
0.000627252
0.000623748
0.000624292
0.000629084
0.000644641
0.00347949
0.00324143
0.00303147
0.00284512
0.00267876
0.00252946
0.00239482
0.00227288
0.00216196
0.0020607
0.00196792
0.00188264
0.00180401
0.0017313
0.00166389
0.00160123
0.00154286
0.00148835
0.00143736
0.00138955
0.00134464
0.00130239
0.00126256
0.00122497
0.00118943
0.00115578
0.00112388
0.00109359
0.0010648
0.00103741
0.00101131
0.000986425
0.000962665
0.000939962
0.000918248
0.000897465
0.000877556
0.000858471
0.000840164
0.000822595
0.000805723
0.000789515
0.000773938
0.000758966
0.000744573
0.000730739
0.000717448
0.000704692
0.000692471
0.000680795
0.000669695
0.000659226
0.000649492
0.000640672
0.00063307
0.000627236
0.000624006
0.000625248
0.000631224
0.000651495
0.00347949
0.00324145
0.00303152
0.0028452
0.00267887
0.0025296
0.00239499
0.00227306
0.00216217
0.00206092
0.00196815
0.00188288
0.00180424
0.00173152
0.0016641
0.00160142
0.00154301
0.00148847
0.00143742
0.00138954
0.00134456
0.00130223
0.00126231
0.00122461
0.00118896
0.0011552
0.00112317
0.00109276
0.00106385
0.00103633
0.00101012
0.00098512
0.000961261
0.000938471
0.000916689
0.000895858
0.000875926
0.000856846
0.000838575
0.000821074
0.000804308
0.000788242
0.000772843
0.000758082
0.000743928
0.000730371
0.000717397
0.000704995
0.000693159
0.000681891
0.000671207
0.00066114
0.000651767
0.000643232
0.000635812
0.00063004
0.000626816
0.000628307