/*--------------------------------*- C++ -*----------------------------------*\
| =========                 |                                                 |
| \\      /  F ield         | OpenFOAM: The Open Source CFD Toolbox           |
|  \\    /   O peration     | Version:  2.4.0                                 |
|   \\  /    A nd           | Web:      www.OpenFOAM.org                      |
|    \\/     M anipulation  |                                                 |
\*---------------------------------------------------------------------------*/
FoamFile
{
    version     2.0;
    format      ascii;
    class       volVectorField;
    location    "1.16";
    object      U;
}
// * * * * * * * * * * * * * * * * * * * * * * * * * * * * * * * * * * * * * //

dimensions      [0 1 -1 0 0 0 0];

internalField   nonuniform List<vector> 
6000
(
(0.165152 -0.00672243 1.69945e-18)
(-0.00960541 0.00182569 0)
(0.000934567 -0.00025725 7.66536e-18)
(-0.00659253 0.00127784 0)
(-0.00505162 0.000996211 0)
(-0.00638398 0.00120059 0)
(-0.00612253 0.0011267 4.23411e-18)
(-0.00605166 0.00102618 6.17002e-22)
(-0.0036848 0.000555913 0)
(-0.000463868 1.33429e-05 0)
(0.00216321 -0.000315385 4.10772e-18)
(0.00151321 -8.18254e-05 -7.89341e-18)
(-0.00408718 0.000870069 0)
(-0.0153413 0.0024431 0)
(-0.0304264 0.00419929 -1.6705e-18)
(-0.0454798 0.00553795 0)
(-0.0558808 0.00601076 0)
(-0.0585592 0.00562648 -1.88199e-18)
(-0.0534469 0.00441066 -2.06423e-18)
(-0.0431419 0.00303219 0)
(-0.0310931 0.00181994 2.38964e-18)
(-0.0199474 0.000926796 1.25005e-18)
(-0.010981 0.000350892 -1.28698e-18)
(-0.00438664 2.04848e-05 0)
(0.000242825 -0.000149187 0)
(0.00348299 -0.000216932 0)
(0.00582416 -0.000225534 6.66909e-19)
(0.0076705 -0.000200623 -6.69068e-19)
(0.00932079 -0.00015297 0)
(0.0109728 -8.46821e-05 0)
(0.0127355 7.21497e-06 8.47208e-20)
(0.0146396 0.000127642 0)
(0.0166485 0.00028074 6.85063e-19)
(0.0186786 0.000467672 -6.88527e-19)
(0.0206291 0.000685634 0)
(0.0224174 0.00092868 0)
(0.0240029 0.00119001 1.39239e-18)
(0.0253923 0.00146437 0)
(0.0266259 0.00174935 1.39821e-18)
(0.0277591 0.00204525 0)
(0.0288458 0.00235423 0)
(0.0299303 0.00267945 2.80669e-18)
(0.0310459 0.00302439 -5.61599e-18)
(0.0322179 0.00339266 0)
(0.0334643 0.00378796 0)
(0.0348062 0.00421446 2.7998e-18)
(0.0362531 0.00467637 0)
(0.0378411 0.00517996 0)
(0.0395557 0.00572888 -5.50009e-18)
(0.0415001 0.00633443 -5.43598e-18)
(0.0435419 0.0069924 -5.34333e-18)
(0.0460568 0.00774967 -2.35956e-21)
(0.0483975 0.00854086 5.04649e-18)
(0.0520276 0.00955717 0)
(0.0542282 0.0104505 -3.71981e-21)
(0.0605883 0.0120315 -4.20438e-18)
(0.060755 0.0127522 3.55029e-18)
(0.0746781 0.0158484 3.21094e-18)
(0.0676079 0.0154527 5.68405e-21)
(0.098987 0.0221152 0)
(0.360375 -0.01648 -2.26696e-18)
(0.00341321 0.00640994 4.54497e-18)
(0.00583336 -0.000961234 -4.59665e-18)
(-0.0147608 0.0033446 -4.85928e-18)
(-0.0124819 0.00261118 0)
(-0.0165201 0.00325243 0)
(-0.0161508 0.00303457 -4.83221e-18)
(-0.0158758 0.00263013 9.60957e-18)
(-0.00986081 0.00123281 0)
(-0.0022928 -0.000136849 0)
(0.00259424 -0.000548532 -4.56242e-18)
(-0.00210269 0.000897262 4.35449e-18)
(-0.0195925 0.00432144 2.0424e-18)
(-0.0492855 0.00897221 0)
(-0.0846752 0.0133211 1.8018e-18)
(-0.116138 0.0157969 0)
(-0.134512 0.0155984 0)
(-0.135303 0.0131397 0)
(-0.120091 0.00925355 0)
(-0.0949389 0.00545259 0)
(-0.0669404 0.00249223 -2.19473e-21)
(-0.041291 0.000558189 0)
(-0.0204588 -0.000518903 -1.375e-18)
(-0.00481438 -0.00101139 0)
(0.00640901 -0.00117141 0)
(0.014415 -0.00114682 7.08604e-19)
(0.0204022 -0.0010431 -7.1032e-19)
(0.0253093 -0.000903617 5.63434e-23)
(0.0297978 -0.000737465 3.56981e-19)
(0.034279 -0.000534425 0)
(0.0389539 -0.000274693 -8.99861e-20)
(0.043848 6.31651e-05 -3.61738e-19)
(0.0488503 0.000494999 -4.06673e-23)
(0.0537672 0.00102501 7.31045e-19)
(0.0583937 0.00164332 -7.34447e-19)
(0.0625825 0.00232939 0)
(0.0662839 0.00306007 0)
(0.0695451 0.00381774 0)
(0.0724758 0.00459449 0)
(0.0752072 0.00539148 0)
(0.0778606 0.0062158 -2.99532e-18)
(0.0805346 0.00707723 0)
(0.0833028 0.00798609 3.01128e-18)
(0.0862232 0.00895269 3.01725e-18)
(0.0893392 0.00998699 0)
(0.0927015 0.0111003 0)
(0.096338 0.0123033 0)
(0.100333 0.0136129 0)
(0.104666 0.0150381 6.01108e-18)
(0.109565 0.0166126 0)
(0.114771 0.0183233 0)
(0.12108 0.0202879 -5.79565e-18)
(0.127172 0.0223487 -5.64146e-18)
(0.136123 0.0249706 0)
(0.142289 0.0273254 -1.0254e-17)
(0.157432 0.0313409 0)
(0.159837 0.0333792 -8.22605e-18)
(0.191752 0.041004 -3.73877e-18)
(0.179518 0.0406832 1.98918e-18)
(0.250646 0.0561208 2.16704e-18)
(0.500934 -0.0114171 -1.73896e-19)
(0.0419199 0.00889882 -4.50591e-18)
(0.0147351 -0.00141028 0)
(-0.018449 0.00477493 4.8669e-18)
(-0.0174761 0.00379887 0)
(-0.0244849 0.00490271 0)
(-0.0244176 0.00455027 0)
(-0.0240437 0.00372721 -4.80995e-18)
(-0.0153263 0.00146836 0)
(-0.005164 -0.000317252 -4.69996e-18)
(-0.000270879 -3.16275e-05 0)
(-0.0107187 0.00351292 0)
(-0.040113 0.00996906 -2.03605e-18)
(-0.0855258 0.0175298 0)
(-0.13567 0.0234619 0)
(-0.176395 0.0255127 0)
(-0.19626 0.023052 0)
(-0.191333 0.0172883 0)
(-0.16554 0.010413 0)
(-0.127808 0.00443062 2.38614e-18)
(-0.0874809 0.000297078 -2.54843e-18)
(-0.0510903 -0.00201387 0)
(-0.0216177 -0.00298941 3.86828e-22)
(0.000607746 -0.00316992 -1.39769e-18)
(0.0167551 -0.00298046 0)
(0.028565 -0.00265099 -1.41531e-18)
(0.0376769 -0.0023136 0)
(0.0453586 -0.00199553 7.11245e-19)
(0.0524867 -0.00167961 -3.56669e-19)
(0.0595852 -0.00132672 0)
(0.0668864 -0.00089013 0)
(0.0743865 -0.000326639 3.61438e-19)
(0.0819093 0.000392811 -4.05756e-23)
(0.0891863 0.00127414 0)
(0.0959546 0.00229734 1.46798e-18)
(0.102044 0.00342377 0)
(0.107421 0.00461118 1.47969e-18)
(0.11218 0.00582833 0)
(0.11649 0.00706189 0)
(0.120544 0.00831481 0)
(0.124512 0.00960014 2.99546e-18)
(0.128533 0.010935 0)
(0.132713 0.0123368 0)
(0.137133 0.0138224 -3.01843e-18)
(0.141861 0.0154074 0)
(0.146971 0.0171094 0)
(0.15251 0.018945 3.02519e-18)
(0.1586 0.0209397 -3.01951e-18)
(0.16523 0.0231086 -3.00674e-18)
(0.172709 0.0255046 0)
(0.180724 0.0281123 0)
(0.190333 0.0310917 0)
(0.199846 0.0342456 5.64594e-18)
(0.213317 0.0381891 5.45435e-18)
(0.223397 0.041857 5.14268e-18)
(0.245621 0.0477737 0)
(0.251384 0.0512236 4.12907e-18)
(0.296889 0.0620611 7.51311e-18)
(0.284003 0.0628318 0)
(0.385059 0.0836169 -2.18686e-18)
(0.605179 0.000175044 -1.44437e-19)
(0.0978592 0.0107756 4.3778e-18)
(0.0288179 -0.00140118 -4.58403e-18)
(-0.0176071 0.00574704 0)
(-0.0198987 0.0046465 0)
(-0.0301987 0.00622999 0)
(-0.030874 0.0057272 0)
(-0.0306537 0.00443027 0)
(-0.0202394 0.00141368 0)
(-0.00901966 -0.000399957 4.69508e-18)
(-0.00579996 0.00120114 4.5647e-18)
(-0.022829 0.00744819 0)
(-0.063188 0.0171776 0)
(-0.120839 0.0272166 0)
(-0.180077 0.0336505 1.79009e-18)
(-0.223852 0.0339335 0)
(-0.240568 0.0281258 1.84802e-18)
(-0.228166 0.0186145 -2.00185e-18)
(-0.192908 0.00869599 0)
(-0.1455 0.000878556 -2.38179e-18)
(-0.0963142 -0.00393293 0)
(-0.0523829 -0.00612434 -1.3304e-18)
(-0.0168333 -0.00657132 2.74264e-18)
(0.0101296 -0.00612806 1.39459e-18)
(0.030027 -0.00536991 0)
(0.0449262 -0.00460601 7.06202e-19)
(0.0567204 -0.00395895 0)
(0.0668723 -0.00342193 7.09901e-19)
(0.0763778 -0.00293646 0)
(0.0858118 -0.00242408 0)
(0.0954047 -0.00180474 0)
(0.105117 -0.00101043 3.6073e-19)
(0.114722 1.66038e-06 -1.45066e-18)
(0.123904 0.00123782 0)
(0.13237 0.00266547 -7.32713e-19)
(0.139951 0.00422531 0)
(0.146642 0.00585413 -1.4774e-18)
(0.152581 0.00750628 0)
(0.15799 0.00916325 0)
(0.163107 0.0108304 0)
(0.168143 0.0125276 2.99083e-18)
(0.173268 0.0142796 0)
(0.178609 0.0161112 3.00696e-18)
(0.184272 0.0180452 -3.01391e-18)
(0.190341 0.0201031 0)
(0.196911 0.0223078 -3.02234e-18)
(0.204048 0.024681 -6.04459e-18)
(0.211902 0.0272555 3.01749e-18)
(0.220481 0.0300516 6.00893e-18)
(0.230144 0.0331354 -5.96462e-18)
(0.240574 0.0364928 -5.89476e-18)
(0.252966 0.0403154 0)
(0.265499 0.0443822 -5.64763e-18)
(0.282694 0.0494085 -5.45793e-18)
(0.296476 0.0541905 -5.13237e-18)
(0.324197 0.061609 0)
(0.334019 0.066354 0)
(0.389184 0.0795036 -3.75869e-18)
(0.379115 0.0816676 0)
(0.50118 0.105488 2.13909e-18)
(0.684355 0.0142575 -1.25671e-19)
(0.163941 0.0128511 -3.1866e-20)
(0.049121 -0.000845913 4.55659e-18)
(-0.0121937 0.006395 4.8595e-18)
(-0.0196273 0.00523359 0)
(-0.0336037 0.0072753 -4.89227e-18)
(-0.0354899 0.00660668 0)
(-0.0357935 0.0048269 0)
(-0.024669 0.00119734 0)
(-0.0136606 -0.000290514 4.69158e-18)
(-0.0132465 0.0031062 -4.55812e-18)
(-0.0369691 0.0124214 0)
(-0.0866305 0.025364 0)
(-0.1527 0.0372207 0)
(-0.215908 0.0430946 -1.78136e-18)
(-0.258093 0.0406024 0)
(-0.269106 0.0308715 -1.84768e-18)
(-0.249212 0.0175505 1.99893e-18)
(-0.206374 0.00483636 0)
(-0.152046 -0.00442878 0)
(-0.0968219 -0.00952301 1.26504e-18)
(-0.0477842 -0.0112495 1.3264e-18)
(-0.00804751 -0.0108933 -2.73322e-18)
(0.0223441 -0.00963247 -1.38964e-18)
(0.0451379 -0.00817983 0)
(0.0625526 -0.00690346 7.0427e-19)
(0.076625 -0.00590146 0)
(0.0889281 -0.00512177 -7.08238e-19)
(0.100518 -0.00445527 3.55121e-19)
(0.111986 -0.0037777 0)
(0.123545 -0.00297204 0)
(0.13512 -0.001944 -7.19644e-19)
(0.146444 -0.000637317 7.23515e-19)
(0.15717 0.000953255 0)
(0.166992 0.00278053 -7.30905e-19)
(0.175751 0.00476251 0)
(0.183471 0.0068137 1.47395e-18)
(0.190333 0.0088736 0)
(0.196602 0.0109188 0)
(0.202556 0.0129578 0)
(0.208438 0.0150176 -2.98506e-18)
(0.214441 0.0171313 -2.99293e-18)
(0.220714 0.0193308 -3.00144e-18)
(0.227378 0.0216452 7.07448e-22)
(0.234533 0.0241007 -3.01329e-18)
(0.242292 0.0267252 3.01729e-18)
(0.250739 0.0295448 6.03282e-18)
(0.260044 0.0325982 0)
(0.270237 0.0359102 -2.99946e-18)
(0.281707 0.0395569 5.95669e-18)
(0.294167 0.0435267 5.88762e-18)
(0.30886 0.0480332 0)
(0.323989 0.0528453 0)
(0.344206 0.0587375 0)
(0.361348 0.0644425 5.12985e-18)
(0.393271 0.0730173 0)
(0.407381 0.0789056 0)
(0.469172 0.0936553 3.72941e-18)
(0.463989 0.0972834 -1.95401e-18)
(0.600045 0.122545 -2.14027e-18)
(0.745706 0.0289666 -1.12485e-19)
(0.234648 0.0156352 -4.19565e-18)
(0.076186 0.000266501 0)
(-0.00213406 0.0068758 -4.84873e-18)
(-0.0165502 0.00563938 -4.87203e-18)
(-0.0346461 0.00808054 5.64162e-22)
(-0.03824 0.00723413 0)
(-0.0395217 0.0049957 0)
(-0.0286037 0.000913229 0)
(-0.0187923 5.23808e-05 -4.6869e-18)
(-0.0218291 0.00559006 0)
(-0.0517903 0.0181325 0)
(-0.10863 0.0340031 2.01395e-18)
(-0.179379 0.0469149 0)
(-0.242421 0.0513138 0)
(-0.280106 0.0454097 0)
(-0.284621 0.0315887 0)
(-0.258285 0.014648 -1.98202e-18)
(-0.209893 -0.000522607 0)
(-0.150911 -0.0108978 2.35444e-18)
(-0.0917454 -0.0159898 -1.25935e-18)
(-0.0393506 -0.0170236 -1.32019e-18)
(0.00323774 -0.0157027 2.72107e-18)
(0.0361316 -0.0135067 2.76755e-18)
(0.0611589 -0.0112904 0)
(0.0805979 -0.00945594 -7.02069e-19)
(0.0965655 -0.0080737 0)
(0.110695 -0.00703976 0)
(0.12407 -0.0061884 -7.08196e-19)
(0.137281 -0.00534542 0)
(0.150518 -0.00435439 0)
(0.163672 -0.00309382 7.17482e-19)
(0.176441 -0.00149427 0)
(0.188449 0.000447146 0)
(0.199382 0.00266676 7.28882e-19)
(0.209091 0.00505804 0)
(0.217626 0.00751183 -1.47018e-18)
(0.225209 0.00995229 0)
(0.232145 0.0123514 0)
(0.238745 0.0147215 0)
(0.245282 0.0170974 0)
(0.251968 0.0195207 2.98629e-18)
(0.25897 0.0220308 2.99362e-18)
(0.266422 0.0246624 7.62391e-22)
(0.274439 0.0274465 3.00701e-18)
(0.283147 0.030415 3.00925e-18)
(0.292648 0.0335979 -3.00991e-18)
(0.303124 0.0370385 0)
(0.314632 0.0407656 -2.99102e-18)
(0.327574 0.0448625 2.96971e-18)
(0.341708 0.0493214 -5.8699e-18)
(0.358279 0.0543694 0)
(0.375594 0.0597759 0)
(0.398239 0.0663428 -5.42775e-18)
(0.418333 0.0727935 -5.109e-18)
(0.453459 0.082234 4.79187e-18)
(0.471716 0.0890955 4.09153e-18)
(0.537976 0.1049 -3.72819e-18)
(0.53856 0.109905 1.95331e-18)
(0.683525 0.135563 0)
(0.793988 0.0435047 -1.01574e-19)
(0.306105 0.019352 0)
(0.109919 0.00193987 4.47917e-18)
(0.0126895 0.00734364 4.83086e-18)
(-0.0105679 0.00594425 -6.63382e-23)
(-0.03327 0.00868927 4.89006e-18)
(-0.0390956 0.00765655 0)
(-0.0418608 0.00500454 0)
(-0.0319649 0.000624344 0)
(-0.0240621 0.000629248 2.343e-18)
(-0.0307824 0.00852793 2.2748e-18)
(-0.0661092 0.0242854 0)
(-0.127804 0.0426531 -2.00189e-18)
(-0.199916 0.0558658 1.85731e-18)
(-0.259835 0.0580969 0)
(-0.291651 0.0484823 0)
(-0.290074 0.0306802 0)
(-0.258791 0.0104236 7.09076e-21)
(-0.206653 -0.00688254 0)
(-0.144735 -0.0181093 -4.67731e-18)
(-0.083118 -0.0230047 1.25035e-18)
(-0.0285894 -0.0231998 1.31334e-18)
(0.0159245 -0.0208286 -5.64185e-23)
(0.0506304 -0.0176314 -1.37723e-18)
(0.0773405 -0.0146102 0)
(0.09836 -0.0121917 0)
(0.115851 -0.0104173 0)
(0.131481 -0.00912705 3.51877e-19)
(0.146348 -0.0080946 7.05852e-19)
(0.161036 -0.00709265 0)
(0.17571 -0.00592318 0)
(0.190227 -0.00443634 -7.15087e-19)
(0.204248 -0.00254943 -3.59468e-19)
(0.217365 -0.000262952 0)
(0.229248 0.00234106 0)
(0.239751 0.00512933 0)
(0.248951 0.00796737 0)
(0.257104 0.0107633 0)
(0.264554 0.0134847 0)
(0.271648 0.0161484 0)
(0.278682 0.0187978 0)
(0.28589 0.0214835 0)
(0.29345 0.0242522 -7.32094e-22)
(0.301513 0.0271444 2.9938e-18)
(0.310202 0.0301953 0)
(0.319656 0.0334404 -6.00428e-18)
(0.32999 0.0369129 -3.00118e-18)
(0.341399 0.0406597 0)
(0.353963 0.0447132 2.98497e-18)
(0.36809 0.0491616 -2.96391e-18)
(0.383588 0.0540015 5.85888e-18)
(0.401675 0.059467 -5.75619e-18)
(0.420802 0.065335 0)
(0.445393 0.0724127 6.6241e-21)
(0.468011 0.0794489 5.1016e-18)
(0.505589 0.0895157 -9.5622e-18)
(0.527628 0.0971754 -1.01645e-20)
(0.596899 0.113624 -3.69378e-18)
(0.603304 0.119826 1.92562e-18)
(0.753697 0.145223 2.07199e-18)
(0.832394 0.0574373 3.53306e-18)
(0.375729 0.0240276 0)
(0.149665 0.0041926 2.6189e-21)
(0.0323994 0.00792659 -2.95447e-22)
(-0.00158149 0.00624101 4.85674e-18)
(-0.0294137 0.00914801 4.88521e-18)
(-0.0380198 0.00792243 0)
(-0.042795 0.0049121 4.80364e-18)
(-0.0346228 0.000370591 0)
(-0.0290921 0.00141219 -2.34138e-18)
(-0.0393962 0.0117766 2.39749e-21)
(-0.0789456 0.0306007 -2.1466e-18)
(-0.143212 0.0509609 0)
(-0.214003 0.0638098 -3.69137e-18)
(-0.26899 0.0634285 0)
(-0.294727 0.0500763 0)
(-0.288113 0.0285585 0)
(-0.253406 0.00531038 1.95645e-18)
(-0.198979 -0.0138682 0)
(-0.135362 -0.0257642 2.31954e-18)
(-0.0723239 -0.0303401 -2.48234e-18)
(-0.0165034 -0.0296168 0)
(0.0292742 -0.0261485 -3.38766e-23)
(0.0652299 -0.0219152 0)
(0.0931347 -0.018064 0)
(0.115316 -0.0150488 -6.9669e-19)
(0.133965 -0.0128802 0)
(0.150772 -0.0113396 -7.01232e-19)
(0.166847 -0.0101373 -3.51677e-19)
(0.182766 -0.00899016 -8.82205e-20)
(0.198677 -0.00765604 8.86077e-20)
(0.214399 -0.00595483 3.56279e-19)
(0.229546 -0.0037898 7.16429e-19)
(0.243671 -0.00116552 0)
(0.256411 0.00181552 7.24177e-19)
(0.267616 0.00499056 0)
(0.277381 0.00819747 0)
(0.285996 0.0113272 0)
(0.293847 0.014343 1.47164e-18)
(0.301315 0.0172669 0)
(0.308722 0.0201518 0)
(0.316321 0.0230578 2.96988e-18)
(0.324304 0.0260392 -2.97871e-18)
(0.332831 0.0291422 0)
(0.342038 0.0324059 0)
(0.352071 0.0358689 2.99486e-18)
(0.363059 0.0395672 2.99459e-18)
(0.375205 0.0435505 -2.98804e-18)
(0.388609 0.047854 0)
(0.403682 0.0525693 0)
(0.42028 0.0576974 0)
(0.439587 0.0634749 4.81173e-21)
(0.460196 0.0696901 0)
(0.486343 0.0771411 5.40377e-18)
(0.511077 0.0846217 0)
(0.55055 0.0951214 4.7697e-18)
(0.5759 0.103411 -4.07148e-18)
(0.647221 0.120203 7.36443e-18)
(0.65902 0.127375 -1.92356e-18)
(0.812535 0.152124 -2.06887e-18)
(0.863143 0.0705024 8.48034e-20)
(0.441882 0.029561 -3.86577e-18)
(0.194372 0.00704787 -4.36784e-18)
(0.0569987 0.0087419 -2.22078e-22)
(0.0105769 0.00661123 -4.84318e-18)
(-0.0230077 0.00950665 -4.8791e-18)
(-0.0349644 0.00808038 0)
(-0.0422738 0.00476791 -4.80074e-18)
(-0.0364146 0.00017415 0)
(-0.0335088 0.00235504 -2.34256e-18)
(-0.0470455 0.0151886 -2.26432e-18)
(-0.089543 0.0368322 2.13597e-18)
(-0.154314 0.0586679 -1.98218e-18)
(-0.22181 0.070625 1.83446e-18)
(-0.271031 0.0674195 -1.73089e-18)
(-0.291226 0.0504922 1.71534e-18)
(-0.280858 0.025588 0)
(-0.244045 -0.000356481 0)
(-0.188404 -0.0212122 0)
(-0.123939 -0.0336613 1.1465e-18)
(-0.0601783 -0.0378491 1.23151e-18)
(-0.00365662 -0.0361717 0)
(0.0428578 -0.0315727 -1.33712e-18)
(0.0795604 -0.0262844 0)
(0.108205 -0.0215891 0)
(0.131142 -0.0179731 6.93768e-19)
(0.150584 -0.0154155 -6.96409e-19)
(0.168244 -0.0136373 3.4928e-19)
(0.185247 -0.0122837 0)
(0.202171 -0.0110125 1.75775e-19)
(0.219144 -0.00953465 -1.76546e-19)
(0.235948 -0.00763688 0)
(0.252146 -0.00520674 -3.56902e-19)
(0.267227 -0.0022531 7.17773e-19)
(0.280784 0.00109882 -7.21747e-19)
(0.292646 0.00465337 0)
(0.302918 0.00821762 0)
(0.311926 0.0116636 0)
(0.320096 0.0149501 -1.46757e-18)
(0.327848 0.0181052 0)
(0.335534 0.0211923 0)
(0.343423 0.0242817 -2.96241e-18)
(0.351723 0.0274358 0)
(0.360601 0.0307062 2.97698e-18)
(0.370203 0.034136 -2.9826e-18)
(0.380684 0.0377667 0)
(0.392181 0.0416362 2.98544e-18)
(0.404906 0.0457966 5.96174e-18)
(0.418976 0.0502855 -2.96782e-18)
(0.434803 0.0551962 0)
(0.452282 0.0605343 0)
(0.472568 0.0665354 2.86743e-18)
(0.494382 0.0730013 0)
(0.521773 0.0807117 5.38142e-18)
(0.548258 0.088516 0)
(0.58921 0.0992936 4.74353e-18)
(0.617378 0.108059 4.0461e-18)
(0.690121 0.124973 -3.67038e-18)
(0.706662 0.132886 0)
(0.861807 0.156775 2.03092e-18)
(0.887847 0.082566 -3.77496e-18)
(0.503593 0.0357845 1.97598e-20)
(0.242785 0.010517 4.31029e-18)
(0.0863664 0.00989447 -2.09269e-22)
(0.0260834 0.00712506 -6.21896e-22)
(-0.0139722 0.0098172 0)
(-0.029871 0.00817799 0)
(-0.0402172 0.00461277 0)
(-0.0371604 4.4168e-05 -2.36406e-18)
(-0.0369659 0.00340176 4.6849e-18)
(-0.0532112 0.0186233 0)
(-0.0973699 0.0427785 2.13117e-18)
(-0.160906 0.0656064 -1.11953e-21)
(-0.223821 0.0762988 -1.82012e-18)
(-0.267171 0.070249 5.77915e-21)
(-0.282749 0.0500215 -1.70863e-18)
(-0.269848 0.0220607 0)
(-0.231923 -0.00634719 0)
(-0.175791 -0.0287521 0)
(-0.111041 -0.0416868 -1.13724e-18)
(-0.0470486 -0.0454473 0)
(0.0097083 -0.0427924 1.28611e-18)
(0.0564875 -0.037038 1.32858e-18)
(0.0934676 -0.0306794 -1.35537e-18)
(0.122415 -0.0251323 0)
(0.145706 -0.0209171 0)
(0.165577 -0.017981 6.93595e-19)
(0.183766 -0.0159839 0)
(0.201418 -0.0145035 3.48846e-19)
(0.219121 -0.0131365 -8.75435e-20)
(0.236993 -0.0115428 8.79282e-20)
(0.254779 -0.00947225 -3.53463e-19)
(0.271973 -0.00679398 0)
(0.287993 -0.00352067 -7.15176e-19)
(0.302362 0.000197388 0)
(0.31487 0.0041275 0)
(0.325625 0.00804182 1.45198e-18)
(0.334984 0.011791 0)
(0.343419 0.0153289 0)
(0.351392 0.0186904 0)
(0.359285 0.0219508 0)
(0.367389 0.0251916 0)
(0.375924 0.0284836 0)
(0.385067 0.0318843 -5.93851e-18)
(0.39497 0.0354403 2.97553e-18)
(0.405796 0.0391956 2.97773e-18)
(0.417691 0.0431902 -5.95614e-18)
(0.430872 0.0474776 -2.97364e-18)
(0.44547 0.0520975 2.96154e-18)
(0.461897 0.0571441 -2.93868e-18)
(0.480086 0.0626269 0)
(0.501156 0.0687784 2.4584e-21)
(0.523947 0.0754147 -5.55688e-18)
(0.552338 0.0832915 -5.37244e-18)
(0.580259 0.0913178 -5.04788e-18)
(0.622376 0.10225 -9.46399e-18)
(0.6529 0.111358 -4.04085e-18)
(0.726652 0.128229 3.63607e-18)
(0.747222 0.136674 1.88376e-18)
(0.903043 0.159599 -2.02815e-18)
(0.907721 0.0935855 -7.36569e-20)
(0.560351 0.0425057 3.71949e-18)
(0.293596 0.0145877 2.34823e-21)
(0.12022 0.0114647 -2.44245e-22)
(0.0451091 0.00784981 4.79844e-18)
(-0.00221941 0.0101358 4.85478e-18)
(-0.0226712 0.00826038 -4.82054e-18)
(-0.0365217 0.00447998 2.39631e-18)
(-0.0366761 -1.86323e-05 -1.5313e-22)
(-0.0391626 0.00449375 -2.3423e-18)
(-0.057492 0.0219557 -2.25813e-18)
(-0.102104 0.0482866 -2.12035e-18)
(-0.163045 0.0716881 3.92086e-18)
(-0.220682 0.0808928 2.56971e-21)
(-0.25854 0.0721198 1.70809e-18)
(-0.270528 0.048912 0)
(-0.256063 0.01818 1.76259e-18)
(-0.217675 -0.0125302 0)
(-0.161509 -0.0364054 -2.0575e-18)
(-0.0968654 -0.0497814 -1.1252e-18)
(-0.0330275 -0.0530812 -1.21253e-18)
(0.0235492 -0.0494258 -2.60221e-22)
(0.0701528 -0.0424929 -1.32042e-18)
(0.106967 -0.0350504 1.34806e-18)
(0.135796 -0.0286476 0)
(0.159047 -0.0238389 -6.87528e-19)
(0.178985 -0.0205387 0)
(0.197376 -0.0183455 0)
(0.215396 -0.0167683 -3.47494e-19)
(0.233651 -0.0153397 0)
(0.252257 -0.0136644 0)
(0.27092 -0.0114508 3.52096e-19)
(0.289066 -0.00854559 0)
(0.306019 -0.004964 0)
(0.321212 -0.000883498 7.16445e-19)
(0.334379 0.00342142 0)
(0.345616 0.00768292 -1.44741e-18)
(0.355307 0.0117268 0)
(0.363972 0.0155011 1.45837e-18)
(0.37212 0.0190486 0)
(0.380169 0.0224575 0)
(0.388433 0.0258221 0)
(0.397143 0.0292222 0)
(0.406486 0.0327211 2.96145e-18)
(0.416621 0.0363692 0)
(0.427715 0.0402126 -5.94023e-18)
(0.439921 0.0442933 2.97059e-18)
(0.453464 0.0486657 -2.96406e-18)
(0.468483 0.0533714 2.95182e-18)
(0.485393 0.0585043 2.93255e-18)
(0.504152 0.0640779 0)
(0.525856 0.0703198 2.84928e-18)
(0.54944 0.0770601 8.31743e-18)
(0.578639 0.0850276 -5.34993e-18)
(0.607734 0.0931919 5.03994e-18)
(0.65078 0.104179 4.72039e-18)
(0.68325 0.113518 0)
(0.757737 0.130225 -3.63184e-18)
(0.781654 0.139022 -3.75233e-18)
(0.937546 0.160942 0)
(0.923701 0.103575 3.99686e-18)
(0.61196 0.0495345 0)
(0.345562 0.0192193 2.18198e-21)
(0.15811 0.0135085 -3.11329e-22)
(0.0677839 0.00884504 -4.76984e-18)
(0.0123536 0.0105256 -9.67701e-18)
(-0.0132882 0.00836914 9.62432e-18)
(-0.031065 0.00439683 -2.3948e-18)
(-0.0347831 -1.76036e-05 2.3604e-18)
(-0.0398544 0.0055759 0)
(-0.0596062 0.0250817 -3.38736e-21)
(-0.103602 0.053251 0)
(-0.160965 0.0768879 -3.89997e-18)
(-0.213091 0.0845128 1.79686e-18)
(-0.246096 0.0732262 0)
(-0.25541 0.0473505 0)
(-0.240022 0.0140663 -1.7529e-18)
(-0.201554 -0.0188365 0)
(-0.145655 -0.0441253 2.04449e-18)
(-0.0814269 -0.0579042 1.11837e-18)
(-0.0180833 -0.0607095 9.17792e-22)
(0.0379289 -0.0560262 -1.26976e-18)
(0.0839534 -0.0478934 -1.31271e-18)
(0.120191 -0.0393549 0)
(0.1485 -0.032095 0)
(0.17133 -0.0267007 6.84617e-19)
(0.190978 -0.0230536 0)
(0.209248 -0.0206903 3.44936e-19)
(0.227352 -0.0190502 -3.45991e-19)
(0.245925 -0.017599 8.68073e-20)
(0.265086 -0.0158822 -8.71898e-20)
(0.284512 -0.0135609 3.50589e-19)
(0.303555 -0.0104544 -3.52643e-19)
(0.321432 -0.00657815 7.09591e-19)
(0.337468 -0.00213851 -7.13922e-19)
(0.351316 0.00254319 0)
(0.363046 0.00715302 0)
(0.373065 0.0114877 0)
(0.38194 0.0154877 -3.47269e-22)
(0.390234 0.0192045 1.45888e-18)
(0.398402 0.0227411 0)
(0.406785 0.0262057 0)
(0.415627 0.029688 0)
(0.425122 0.0332579 0)
(0.435435 0.036969 0)
(0.44674 0.0408698 1.2396e-21)
(0.459194 0.0450037 0)
(0.473026 0.0494261 5.91301e-18)
(0.488386 0.0541798 -5.88879e-18)
(0.505686 0.0593581 -2.92243e-18)
(0.524911 0.0649779 0)
(0.547131 0.0712608 0)
(0.571363 0.0780511 -5.52797e-18)
(0.601218 0.0860478 6.68033e-21)
(0.631277 0.0942813 -5.0168e-18)
(0.67507 0.105246 4.69426e-18)
(0.709142 0.114721 4.00092e-18)
(0.784175 0.131172 -3.5985e-18)
(0.810834 0.140177 3.72668e-18)
(0.966418 0.161085 1.97907e-18)
(0.936531 0.112579 6.60414e-20)
(0.658438 0.0566973 -3.57343e-18)
(0.397566 0.0243458 -8.25587e-18)
(0.199439 0.0160581 -4.01282e-22)
(0.0941558 0.0101639 4.73531e-18)
(0.0298674 0.0110401 4.81548e-18)
(-0.00163811 0.00855341 -2.39946e-18)
(-0.0237111 0.0043864 0)
(-0.0313131 4.36265e-05 0)
(-0.0388583 0.00660098 2.33938e-18)
(-0.059386 0.0279203 2.24521e-18)
(-0.10187 0.0576084 0)
(-0.155007 0.0812263 1.93922e-18)
(-0.20172 0.0872826 0)
(-0.230579 0.0737333 0)
(-0.237904 0.0454614 0)
(-0.221957 0.00978706 0)
(-0.18363 -0.0252251 1.83989e-18)
(-0.128226 -0.0518761 1.00987e-18)
(-0.0646843 -0.0660188 -1.1085e-18)
(-0.00215005 -0.0682964 9.28305e-22)
(0.0529575 -0.0625522 0)
(0.0980396 -0.0532016 1.30554e-18)
(0.133328 -0.0435561 0)
(0.160747 -0.0354387 0)
(0.182796 -0.0294683 6.81696e-19)
(0.201815 -0.0254932 -6.84906e-19)
(0.219649 -0.0229878 -3.43667e-19)
(0.237553 -0.0213214 3.44721e-19)
(0.2562 -0.0198904 -1.72945e-19)
(0.275724 -0.0181766 1.737e-19)
(0.295778 -0.0157881 -3.49262e-19)
(0.315644 -0.0125107 3.51324e-19)
(0.334422 -0.0083564 -1.33488e-22)
(0.351311 -0.0035614 -7.11199e-19)
(0.365864 0.00150094 0)
(0.378105 0.00646381 0)
(0.388456 0.0110894 0)
(0.397532 0.0153085 -2.89925e-18)
(0.405951 0.0191817 -1.45494e-18)
(0.414213 0.0228286 0)
(0.422685 0.0263728 0)
(0.431626 0.0299155 -2.93613e-18)
(0.441239 0.0335328 0)
(0.451693 0.0372822 0)
(0.463165 0.0412143 5.90655e-18)
(0.475819 0.0453738 -2.9524e-18)
(0.489886 0.0498167 -5.89598e-18)
(0.505525 0.054587 1.70118e-21)
(0.523145 0.0597768 5.82976e-18)
(0.542754 0.0654062 2.87945e-18)
(0.565399 0.07169 0)
(0.590167 0.0784859 2.75705e-18)
(0.620563 0.0864624 5.32373e-18)
(0.651415 0.094709 5.00801e-18)
(0.695816 0.105589 -4.6867e-18)
(0.731206 0.115123 -3.99515e-18)
(0.806652 0.13125 3.59378e-18)
(0.835544 0.140346 -1.85584e-18)
(0.990585 0.160258 -1.97679e-18)
(0.946806 0.120663 6.30922e-20)
(0.699945 0.063845 3.53191e-18)
(0.448653 0.0298807 -1.84577e-21)
(0.2435 0.0191213 -5.07932e-22)
(0.124163 0.0118509 0)
(0.0504128 0.0117338 0)
(0.0123973 0.00885754 -6.34543e-23)
(-0.0143158 0.00447014 0)
(-0.0261091 0.000164112 0)
(-0.0360498 0.00753287 2.05829e-21)
(-0.0567653 0.0304138 0)
(-0.0970209 0.0613308 0)
(-0.145568 0.0847539 1.92961e-18)
(-0.18716 0.0893254 0)
(-0.212514 0.0737675 0)
(-0.218284 0.0433208 0)
(-0.201956 0.00538088 0)
(-0.163913 -0.0316664 -9.85959e-21)
(-0.109196 -0.0596267 -1.00535e-18)
(-0.0465925 -0.0740919 2.20498e-18)
(0.0148358 -0.0758046 9.40065e-22)
(0.0687417 -0.068972 1.25364e-18)
(0.112566 -0.0583842 0)
(0.146581 -0.0476213 1.32872e-18)
(0.172778 -0.0386469 0)
(0.19372 -0.0321107 -6.79212e-19)
(0.211793 -0.0278272 1.59886e-22)
(0.228892 -0.025209 0)
(0.24632 -0.0235543 0)
(0.264794 -0.0221886 2.67816e-23)
(0.284473 -0.020526 -2.54489e-23)
(0.305 -0.0181152 1.73909e-19)
(0.325589 -0.0147018 0)
(0.345223 -0.0102896 -7.04388e-19)
(0.36296 -0.00514446 7.08805e-19)
(0.378233 0.000303334 0)
(0.391004 0.00562669 -1.43298e-18)
(0.401695 0.0105469 0)
(0.410969 0.0149823 3.79336e-22)
(0.4195 0.0190023 0)
(0.427837 0.0227452 1.45515e-18)
(0.436377 0.026352 1.45969e-18)
(0.445394 0.029936 1.00649e-21)
(0.455099 0.0335808 -2.93513e-18)
(0.465665 0.0373476 0)
(0.477272 0.041289 -1.2683e-21)
(0.490091 0.0454508 2.94517e-18)
(0.504352 0.0498895 1.53291e-21)
(0.520222 0.0546501 2.92799e-18)
(0.538111 0.0598234 -1.9087e-21)
(0.558039 0.0654321 -2.1447e-21)
(0.581041 0.071684 0)
(0.606255 0.0784492 0)
(0.637101 0.0863655 0)
(0.668614 0.0945797 0)
(0.713517 0.105325 0)
(0.749994 0.114858 3.96984e-18)
(0.825759 0.130609 0)
(0.856461 0.139707 0)
(1.01082 0.158646 -1.94908e-18)
(0.955015 0.1279 -2.12886e-18)
(0.736736 0.070855 0)
(0.498046 0.0357252 -1.72406e-21)
(0.289522 0.0226829 -6.24321e-22)
(0.157622 0.0139397 0)
(0.0740567 0.0126663 2.38022e-18)
(0.0289379 0.00931566 -2.38152e-18)
(-0.00273361 0.00466983 0)
(-0.0190239 0.000347552 0)
(-0.0313553 0.00834857 -2.32993e-18)
(-0.051763 0.0325266 0)
(-0.0892457 0.064417 0)
(-0.133051 0.0875367 -1.9189e-18)
(-0.169901 0.0907505 0)
(-0.192248 0.0734177 -1.64033e-18)
(-0.196697 0.0409731 0)
(-0.180062 0.000872284 0)
(-0.142402 -0.0381364 -9.9293e-21)
(-0.0885492 -0.0673491 0)
(-0.0271226 -0.08209 -1.09676e-18)
(0.0329185 -0.083202 1.18262e-18)
(0.0853623 -0.0752558 -2.49309e-18)
(0.127662 -0.0634119 1.29265e-18)
(0.16013 -0.051522 -1.3233e-18)
(0.184824 -0.0416912 0)
(0.204371 -0.0345997 -6.76769e-19)
(0.221215 -0.030028 1.36035e-18)
(0.237302 -0.0273262 0)
(0.253989 -0.0257217 -1.71077e-19)
(0.272044 -0.0244676 8.58532e-20)
(0.291663 -0.0229066 -8.6213e-20)
(0.312486 -0.020522 -1.73315e-19)
(0.333674 -0.0170119 0)
(0.354095 -0.0123659 -7.01724e-19)
(0.372656 -0.0068782 7.06243e-19)
(0.388652 -0.00104024 0)
(0.401965 0.00465291 1.42891e-18)
(0.413006 0.00987458 0)
(0.422477 0.0145265 1.44145e-18)
(0.431112 0.018687 0)
(0.43951 0.0225143 -1.45159e-18)
(0.448101 0.0261691 -1.45615e-18)
(0.457177 0.0297785 1.01756e-21)
(0.466955 0.0334338 2.92803e-18)
(0.477612 0.0372002 0)
(0.489332 0.0411321 -2.93692e-18)
(0.502287 0.0452767 0)
(0.516711 0.0496906 2.93132e-18)
(0.532777 0.0544197 0)
(0.550892 0.0595531 -2.898e-18)
(0.571092 0.0651161 -5.72518e-18)
(0.594395 0.0713089 0)
(0.619987 0.0780139 0)
(0.651214 0.0858377 0)
(0.683281 0.0939822 2.48286e-18)
(0.728603 0.104555 0)
(0.765985 0.114035 -9.19906e-21)
(0.841999 0.129371 0)
(0.874169 0.138404 1.82139e-18)
(1.02777 0.1564 1.94633e-18)
(0.961557 0.134367 0)
(0.769123 0.0776317 3.4415e-18)
(0.545135 0.0417753 3.97044e-18)
(0.336712 0.0267062 -7.41319e-22)
(0.19422 0.0164512 0)
(0.100819 0.0138886 -2.364e-18)
(0.0481011 0.00996385 0)
(0.0111699 0.00500813 2.37315e-18)
(-0.00991692 0.000603511 2.36235e-18)
(-0.0247377 0.00903887 2.32826e-18)
(-0.0444641 0.0342422 2.23469e-18)
(-0.0787802 0.0668847 2.08746e-18)
(-0.117837 0.0896456 0)
(-0.150325 0.0916478 0)
(-0.17001 0.0727434 1.63395e-18)
(-0.173233 0.0384448 0)
(-0.156312 -0.00372078 0)
(-0.119111 -0.0446131 -1.80088e-18)
(-0.066287 -0.0750172 0)
(-0.00627324 -0.0899775 -1.08708e-18)
(0.0521203 -0.0904584 0)
(0.102865 -0.0813757 1.23982e-18)
(0.143414 -0.0682591 -1.28687e-18)
(0.174114 -0.0552336 0)
(0.197076 -0.0445473 0)
(0.214989 -0.0369108 1.23972e-22)
(0.230357 -0.0320703 -6.78236e-19)
(0.245185 -0.0293136 0)
(0.260886 -0.0277972 1.70604e-19)
(0.278285 -0.0267008 8.55461e-20)
(0.297622 -0.0252931 -8.58949e-20)
(0.318553 -0.0229861 0)
(0.340193 -0.0194225 0)
(0.361306 -0.014571 1.62815e-22)
(0.380645 -0.0087513 -1.52932e-22)
(0.397353 -0.00251958 0)
(0.411212 0.00355357 0)
(0.422607 0.00908564 1.43127e-18)
(0.432276 0.0139571 0)
(0.441009 0.0182543 0)
(0.449458 0.0221572 0)
(0.458089 0.0258479 0)
(0.467211 0.029469 2.91299e-18)
(0.477048 0.0331203 2.91908e-18)
(0.487782 0.0368713 0)
(0.499596 0.0407781 0)
(0.512667 0.044889 2.92672e-18)
(0.52723 0.0492607 0)
(0.543463 0.0539399 0)
(0.561773 0.0590142 -2.88696e-18)
(0.582206 0.0645107 2.8543e-18)
(0.605768 0.0706222 0)
(0.631683 0.0772423 0)
(0.663234 0.0849475 0)
(0.695773 0.0929919 -2.47687e-18)
(0.74145 0.103361 2.31072e-18)
(0.779589 0.112747 -7.88024e-18)
(0.855801 0.127642 0)
(0.889167 0.136558 -1.8179e-18)
(1.04198 0.153645 -1.92042e-18)
(0.966762 0.140141 0)
(0.797456 0.0841038 -3.41588e-18)
(0.589471 0.0479279 0)
(0.384295 0.031136 -6.55604e-18)
(0.233534 0.0193916 0)
(0.130654 0.0154423 -2.34655e-18)
(0.0699829 0.0108367 0)
(0.0275154 0.00550692 -2.36325e-18)