/*--------------------------------*- C++ -*----------------------------------*\
| =========                 |                                                 |
| \\      /  F ield         | OpenFOAM: The Open Source CFD Toolbox           |
|  \\    /   O peration     | Version:  2.4.0                                 |
|   \\  /    A nd           | Web:      www.OpenFOAM.org                      |
|    \\/     M anipulation  |                                                 |
\*---------------------------------------------------------------------------*/
FoamFile
{
    version     2.0;
    format      ascii;
    class       volScalarField;
    location    "6.02";
    object      p;
}
// * * * * * * * * * * * * * * * * * * * * * * * * * * * * * * * * * * * * * //

dimensions      [0 2 -2 0 0 0 0];

internalField   nonuniform List<scalar> 
6000
(
-0.124089
0.232734
0.19001
0.209877
0.202518
0.207312
0.2043
0.206257
0.204967
0.205695
0.205126
0.205366
0.20515
0.205246
0.20519
0.205261
0.205318
0.205487
0.205745
0.206152
0.206707
0.207451
0.208399
0.20957
0.21098
0.212649
0.214591
0.216823
0.219361
0.222217
0.225403
0.228928
0.232798
0.237013
0.241568
0.246454
0.251648
0.257127
0.262847
0.26877
0.274816
0.280946
0.287004
0.292998
0.298606
0.303993
0.308487
0.312637
0.315006
0.317265
0.315784
0.315689
0.306981
0.305283
0.281553
0.283671
0.224206
0.251567
0.0941669
0.219675
-0.0977497
0.229319
0.190084
0.209724
0.202539
0.207298
0.204312
0.206256
0.204981
0.205704
0.205141
0.205379
0.205165
0.205264
0.205212
0.205286
0.205342
0.205509
0.205763
0.206166
0.206716
0.207455
0.208397
0.209562
0.210966
0.212627
0.214562
0.216787
0.219316
0.222159
0.225342
0.228861
0.232723
0.236931
0.241478
0.246354
0.251538
0.257005
0.262712
0.26862
0.274647
0.280757
0.286789
0.292754
0.298329
0.303678
0.308136
0.312238
0.314561
0.316751
0.315214
0.315013
0.306244
0.30437
0.280596
0.282381
0.223009
0.249573
0.0927786
0.216239
-0.0808617
0.225865
0.190112
0.209632
0.202547
0.207292
0.204319
0.206263
0.204993
0.205722
0.205159
0.205401
0.205187
0.205293
0.205246
0.205325
0.205382
0.205549
0.2058
0.2062
0.206747
0.207481
0.208419
0.209578
0.210975
0.212628
0.214554
0.21677
0.219289
0.222127
0.225289
0.228792
0.232639
0.236829
0.241357
0.246213
0.251375
0.256818
0.262499
0.268379
0.274376
0.280452
0.286446
0.292372
0.2979
0.303201
0.307608
0.311658
0.313918
0.316047
0.314429
0.314159
0.305283
0.303325
0.279412
0.281071
0.221517
0.247813
0.090778
0.213365
-0.068639
0.222012
0.190323
0.209549
0.202547
0.207287
0.204324
0.206273
0.205005
0.205742
0.205177
0.205425
0.205211
0.205324
0.20528
0.205364
0.205422
0.205589
0.205839
0.206235
0.206779
0.20751
0.208442
0.209595
0.210984
0.212629
0.214546
0.21675
0.219258
0.222082
0.225232
0.228719
0.232548
0.236719
0.241227
0.246062
0.2512
0.256619
0.262272
0.268123
0.274086
0.280128
0.286083
0.291968
0.297449
0.302702
0.307051
0.311047
0.313234
0.315302
0.313587
0.313254
0.304236
0.302227
0.278094
0.279726
0.219801
0.24609
0.088381
0.210726
-0.0568318
0.217886
0.190706
0.209467
0.202546
0.207279
0.204329
0.206282
0.205014
0.205762
0.205192
0.205448
0.205232
0.205352
0.20531
0.205398
0.205456
0.205623
0.20587
0.206265
0.206805
0.207532
0.208459
0.209606
0.210988
0.212625
0.214532
0.216727
0.219223
0.222035
0.225172
0.228645
0.232459
0.236613
0.241103
0.245918
0.251035
0.256431
0.26206
0.267884
0.273818
0.279828
0.285747
0.291595
0.297033
0.302239
0.306531
0.310472
0.312586
0.314593
0.312775
0.31238
0.303209
0.301152
0.276768
0.278398
0.218033
0.244396
0.0859043
0.208277
-0.0452472
0.21365
0.191214
0.209371
0.202553
0.207267
0.204334
0.20629
0.205022
0.205778
0.205205
0.205467
0.20525
0.205375
0.205334
0.205426
0.205484
0.20565
0.205895
0.206287
0.206825
0.207548
0.208471
0.209611
0.210986
0.212615
0.214515
0.2167
0.219186
0.221986
0.225112
0.228573
0.232372
0.236512
0.240986
0.245784
0.250883
0.256259
0.261866
0.267666
0.273574
0.279556
0.285443
0.291257
0.296654
0.301816
0.306054
0.309942
0.311984
0.31393
0.31201
0.311552
0.302227
0.30012
0.275481
0.277108
0.216293
0.242739
0.0834824
0.205994
-0.0345067
0.209402
0.191754
0.209247
0.202573
0.207251
0.204339
0.206297
0.205029
0.205793
0.205216
0.205484
0.205265
0.205395
0.205354
0.205449
0.205506
0.205673
0.205916
0.206305
0.20684
0.20756
0.208477
0.209612
0.210981
0.212602
0.214494
0.21667
0.219147
0.221938
0.225053
0.228502
0.232289
0.236416
0.240876
0.245659
0.250742
0.2561
0.261687
0.267467
0.273351
0.279307
0.285165
0.290946
0.296306
0.301427
0.305613
0.30945
0.311422
0.313308
0.31129
0.310768
0.301291
0.299133
0.274243
0.275864
0.214607
0.241132
0.0811598
0.203874
-0.0246671
0.205217
0.192252
0.209105
0.202599
0.207232
0.204345
0.206302
0.205036
0.205806
0.205226
0.205499
0.205278
0.205412
0.205371
0.205467
0.205524
0.205691
0.205932
0.206319
0.206851
0.207567
0.20848
0.209609
0.210972
0.212587
0.214471
0.216639
0.219107
0.221889
0.224994
0.228433
0.232209
0.236324
0.240772
0.245541
0.25061
0.255952
0.261522
0.267283
0.273146
0.279079
0.284909
0.290661
0.295985
0.301067
0.305203
0.308992
0.310896
0.312724
0.310609
0.310025
0.3004
0.29819
0.273055
0.274667
0.21298
0.239581
0.0789476
0.201909
-0.0154985
0.201157
0.192659
0.208959
0.202619
0.207214
0.204352
0.206306
0.205042
0.205817
0.205234
0.205512
0.205289
0.205426
0.205385
0.205483
0.205539
0.205705
0.205945
0.20633
0.206859
0.207572
0.208479
0.209603
0.21096
0.212569
0.214446
0.216607
0.219067
0.22184
0.224936
0.228366
0.232132
0.236237
0.240673
0.245431
0.250486
0.255815
0.26137
0.267114
0.272957
0.278869
0.284674
0.290398
0.295689
0.300734
0.304823
0.308565
0.310404
0.312176
0.309967
0.309321
0.299552
0.29729
0.271916
0.273516
0.211414
0.238084
0.0768502
0.200081
-0.0068463
0.197261
0.192953
0.20881
0.202636
0.207198
0.204361
0.206308
0.205048
0.205826
0.205242
0.205523
0.205298
0.205438
0.205396
0.205496
0.205551
0.205717
0.205955
0.206338
0.206864
0.207573
0.208476
0.209595
0.210947
0.212549
0.214419
0.216574
0.219026
0.221792
0.22488
0.228301
0.232058
0.236154
0.24058
0.245327
0.250372
0.255688
0.261229
0.266958
0.272783
0.278676
0.284458
0.290156
0.295415
0.300425
0.30447
0.308166
0.309943
0.31166
0.30936
0.308654
0.298745
0.296431
0.270825
0.272409
0.209911
0.236638
0.0748697
0.198375
0.00134218
0.193553
0.193128
0.20864
0.202673
0.207183
0.204372
0.20631
0.205054
0.205835
0.205248
0.205533
0.205306
0.205449
0.205405
0.205506
0.205561
0.205727
0.205962
0.206344
0.206867
0.207573
0.208471
0.209586
0.210931
0.212528
0.214392
0.21654
0.218986
0.221744
0.224825
0.228238
0.231987
0.236074
0.240492
0.24523
0.250264
0.25557
0.261098
0.266814
0.272624
0.278498
0.284259
0.289932
0.295162
0.300138
0.304141
0.307794
0.309511
0.311175
0.308787
0.308021
0.297978
0.295609
0.269783
0.271344
0.208471
0.235242
0.0730059
0.196775
0.0090956
0.190045
0.193188
0.208446
0.202741
0.207167
0.204388
0.206312
0.205061
0.205843
0.205255
0.205542
0.205313
0.205457
0.205413
0.205515
0.205569
0.205734
0.205968
0.206348
0.206868
0.207571
0.208465
0.209574
0.210915
0.212506
0.214364
0.216506
0.218946
0.221697
0.224771
0.228177
0.231919
0.235999
0.240409
0.245139
0.250164
0.255461
0.260978
0.266681
0.272476
0.278335
0.284076
0.289726
0.294928
0.299872
0.303835
0.307446
0.309106
0.310717
0.308246
0.30742
0.297247
0.294823
0.268786
0.270317
0.207095
0.233892
0.071257
0.195267
0.0164492
0.186748
0.19314
0.208218
0.202842
0.207145
0.204408
0.206314
0.205069
0.20585
0.205261
0.20555
0.205319
0.205465
0.20542
0.205522
0.205575
0.20574
0.205973
0.20635
0.206868
0.207567
0.208457
0.209562
0.210898
0.212484
0.214336
0.216472
0.218906
0.221651
0.224719
0.228118
0.231854
0.235928
0.240331
0.245054
0.250071
0.255359
0.260866
0.266559
0.27234
0.278183
0.283906
0.289535
0.294711
0.299624
0.303549
0.30712
0.308724
0.310285
0.307732
0.306848
0.296552
0.294069
0.267833
0.269327
0.20578
0.232584
0.0696198
0.19384
0.0234379
0.183667
0.192994
0.207951
0.202975
0.207107
0.204435
0.206317
0.205079
0.205857
0.205267
0.205557
0.205325
0.205472
0.205425
0.205528
0.20558
0.205745
0.205976
0.206352
0.206867
0.207563
0.208449
0.209549
0.21088
0.212461
0.214309
0.216439
0.218867
0.221606
0.224668
0.228062
0.231792
0.23586
0.240257
0.244973
0.249984
0.255264
0.260763
0.266445
0.272215
0.278044
0.28375
0.289357
0.294509
0.299393
0.303281
0.306814
0.308365
0.309876
0.307245
0.306302
0.295888
0.293345
0.266923
0.26837
0.204526
0.231316
0.0680908
0.192481
0.0300896
0.180806
0.19276
0.207641
0.203121
0.207067
0.204464
0.206322
0.20509
0.205864
0.205274
0.205565
0.205331
0.205478
0.20543
0.205534
0.205585
0.20575
0.205979
0.206353
0.206865
0.207558
0.20844
0.209537
0.210863
0.212439
0.214281
0.216407
0.218829
0.221563
0.22462
0.228009
0.231734
0.235796
0.240188
0.244898
0.249903
0.255176
0.260667
0.26634
0.272099
0.277915
0.283604
0.289193
0.29432
0.299177
0.30303
0.306525
0.308025
0.309487
0.306783
0.305781
0.295255
0.292649
0.266051
0.267445
0.203329
0.230084
0.0666663
0.191181
0.0364259
0.178161
0.192451
0.207286
0.203268
0.207034
0.20449
0.206331
0.205104
0.205872
0.205282
0.205572
0.205336
0.205485
0.205435
0.205539
0.20559
0.205754
0.205981
0.206353
0.206863
0.207553
0.208431
0.209524
0.210845
0.212417
0.214255
0.216375
0.218793
0.221522
0.224574
0.227958
0.231678
0.235735
0.240123
0.244828
0.249827
0.255095
0.260578
0.266243
0.271992
0.277795
0.28347
0.28904
0.294145
0.298974
0.302794
0.306252
0.307704
0.309118
0.306342
0.305281
0.29465
0.291979
0.265218
0.266547
0.20219
0.228887
0.0653423
0.189931
0.0424654
0.17573
0.192079
0.20689
0.203407
0.207008
0.204517
0.206344
0.205122
0.205881
0.205291
0.205579
0.205342
0.205491
0.205441
0.205544
0.205594
0.205758
0.205984
0.206354
0.206862
0.207548
0.208423
0.209512
0.210829
0.212396
0.214229
0.216345
0.218758
0.221483
0.22453
0.22791
0.231626
0.235679
0.240062
0.244763
0.249757
0.255019
0.260496
0.266154
0.271893
0.277685
0.283345
0.288897
0.293981
0.298784
0.302572
0.305994
0.307399
0.308765
0.305922
0.304802
0.294071
0.291331
0.26442
0.265676
0.201105
0.22772
0.0641151
0.188722
0.0482246
0.173506
0.191658
0.206456
0.203532
0.206989
0.204547
0.206361
0.205144
0.205892
0.205301
0.205587
0.205349
0.205498
0.205446
0.20555
0.205599
0.205762
0.205987
0.206356
0.206861
0.207545
0.208416
0.209501
0.210814
0.212377
0.214206
0.216317
0.218726
0.221446
0.224489
0.227865
0.231577
0.235626
0.240005
0.244703
0.249693
0.25495
0.260421
0.266071
0.271802
0.277582
0.283229
0.288764
0.293827
0.298605
0.302363
0.30575
0.307109
0.308429
0.305521
0.304341
0.293516
0.290705
0.263657
0.26483
0.200073
0.226582
0.0629809
0.187548
0.0537186
0.171484
0.191199
0.20599
0.203639
0.206976
0.204588
0.206377
0.205172
0.205906
0.205314
0.205596
0.205358
0.205505
0.205453
0.205557
0.205605
0.205768
0.205991
0.206358
0.206861
0.207542
0.20841
0.209491
0.2108
0.212359
0.214184
0.216291
0.218696
0.221412
0.224451
0.227823
0.231532
0.235578
0.239954
0.244647
0.249633
0.254886
0.260352
0.265996
0.271718
0.277488
0.283122
0.28864
0.293683
0.298437
0.302164
0.305517
0.306833
0.308106
0.305137
0.303897
0.292985
0.290099
0.262927
0.264006
0.199092
0.225471
0.0619361
0.186402
0.0589608
0.169655
0.190714
0.205497
0.203724
0.206964
0.204648
0.206388
0.205205
0.205922
0.20533
0.205607
0.205367
0.205514
0.205462
0.205565
0.205613
0.205775
0.205997
0.206362
0.206862
0.207541
0.208406
0.209483
0.210788
0.212344
0.214164
0.216268
0.218668
0.22138
0.224416
0.227785
0.23149
0.235533
0.239906
0.244597
0.249579
0.254828
0.260289
0.265926
0.27164
0.277401
0.283022
0.288524
0.293548
0.298278
0.301977
0.305295
0.30657
0.307797
0.304769
0.303469
0.292475
0.289512
0.262228
0.263202
0.198162
0.224384
0.0609775
0.185278
0.0639637
0.168011
0.190214
0.204985
0.203783
0.20695
0.204724
0.206397
0.205243
0.205944
0.20535
0.205621
0.20538
0.205525
0.205472
0.205575
0.205622
0.205784
0.206005
0.206368
0.206866
0.207542
0.208403
0.209477
0.210779
0.212331
0.214148
0.216247
0.218644
0.221352
0.224385
0.22775
0.231453
0.235493
0.239863
0.244551
0.24953
0.254775
0.260232
0.265863
0.27157
0.27732
0.28293
0.288416
0.293422
0.298127
0.301799
0.305084
0.306319
0.3075
0.304416
0.303055
0.291985
0.288941
0.261558
0.262419
0.197279
0.223319
0.0601017
0.184172
0.068739
0.166543
0.189708
0.204458
0.203817
0.206932
0.204814
0.206407
0.205285
0.205971
0.205375
0.205637
0.205395
0.205537
0.205484
0.205587
0.205634
0.205795
0.206014
0.206376
0.206872
0.207545
0.208404
0.209474
0.210773
0.212321
0.214134
0.21623
0.218623
0.221328
0.224358
0.22772
0.23142
0.235458
0.239826
0.244511
0.249487
0.254728
0.26018
0.265806
0.271506
0.277247
0.282844
0.288315
0.293303
0.297985
0.30163
0.304882
0.306078
0.307213
0.304077
0.302654
0.291514
0.288386
0.260917
0.261653
0.196444
0.222274
0.0593056
0.183077
0.0732977
0.165241
0.189203
0.203925
0.203824
0.206907
0.204915
0.206424
0.205329
0.206003
0.205405
0.205658
0.205413
0.205553
0.205499
0.205602
0.205648
0.205809
0.206027
0.206387
0.206881
0.207552
0.208407
0.209475
0.210769
0.212314
0.214124
0.216216
0.218606
0.221308
0.224334
0.227694
0.231392
0.235428
0.239793
0.244476
0.249449
0.254687
0.260135
0.265755
0.271448
0.277179
0.282766
0.288221
0.293191
0.297851
0.301469
0.304688
0.305847
0.306937
0.30375
0.302266
0.291062
0.287846
0.260304
0.260904
0.195654
0.221249
0.0585865
0.181992
0.0776503
0.164096
0.188706
0.20339
0.203806
0.206875
0.205024
0.206449
0.205376
0.206038
0.205441
0.205683
0.205436
0.205572
0.205517
0.205619
0.205666
0.205826
0.206043
0.206401
0.206893
0.207561
0.208414
0.209478
0.21077
0.212311
0.214118
0.216207
0.218593
0.221292
0.224316
0.227673
0.231369
0.235402
0.239765
0.244446
0.249417
0.254652
0.260096
0.265711
0.271396
0.277119
0.282694
0.288134
0.293086
0.297723
0.301316
0.304503
0.305626
0.30667
0.303436
0.301888
0.290626
0.287319
0.259717
0.260171
0.194908
0.220241
0.0579415
0.180911
0.0818069
0.163099
0.188225
0.20286
0.203765
0.206834
0.20514
0.206482
0.20543
0.206077
0.205485
0.205714
0.205463
0.205595
0.20554
0.205641
0.205687
0.205846
0.206063
0.206419
0.206909
0.207575
0.208425
0.209486
0.210775
0.212312
0.214116
0.216202
0.218585
0.221281
0.224302
0.227658
0.231351
0.235382
0.239743
0.244422
0.24939
0.254622
0.260062
0.265672
0.271351
0.277064
0.282628
0.288054
0.292988
0.297602
0.30117
0.304325
0.305413
0.306412
0.303133
0.301521
0.290207
0.286804
0.259155
0.259452
0.194206
0.219248
0.0573681
0.179831
0.085777
0.162241
0.187762
0.202338
0.203705
0.206784
0.20526
0.206523
0.205493
0.206119
0.205536
0.205751
0.205496
0.205623
0.205566
0.205666
0.205713
0.205871
0.206086
0.206442
0.206929
0.207593
0.20844
0.209498
0.210784
0.212319
0.214119
0.216201
0.218582
0.221276
0.224294
0.227647
0.231338
0.235368
0.239727
0.244404
0.24937
0.254599
0.260035
0.265639
0.271311
0.277015
0.282568
0.287979
0.292897
0.297488
0.301031
0.304153
0.305208
0.306162
0.302841
0.301164
0.289803
0.286302
0.258618
0.258748
0.193546
0.21827
0.0568639
0.17875
0.0895699
0.161511
0.187321
0.20183
0.203628
0.206727
0.205381
0.206572
0.205569
0.206164
0.205592
0.205794
0.205536
0.205656
0.205598
0.205697
0.205743
0.205901
0.206115
0.206469
0.206955
0.207616
0.20846
0.209516
0.210798
0.21233
0.214127
0.216207
0.218584
0.221275
0.224292
0.227643
0.231332
0.23536
0.239718
0.244392
0.249356
0.254582
0.260014
0.265613
0.271278
0.276973
0.282515
0.28791
0.292811
0.29738
0.300899
0.303989
0.305011
0.305919
0.302558
0.300815
0.289413
0.285811
0.258105
0.258056
0.192926
0.217306
0.0564266
0.177665
0.0931946
0.160901
0.186907
0.201339
0.203539
0.206665
0.205502
0.206628
0.205656
0.206215
0.205655
0.205845
0.205584
0.205695
0.205636
0.205732
0.205779
0.205936
0.206149
0.206501
0.206985
0.207644
0.208486
0.209539
0.210818
0.212347
0.214141
0.216218
0.218593
0.221281
0.224296
0.227644
0.231332
0.235358
0.239714
0.244387
0.249348
0.254571
0.259999
0.265593
0.271251
0.276937
0.282467
0.287848
0.292732
0.297278
0.300773
0.30383
0.304821
0.305683
0.302285
0.300476
0.289038
0.28533
0.257614
0.257377
0.192346
0.216354
0.056054
0.176574
0.0966595
0.160402
0.186519
0.200868
0.20344
0.206598
0.205622
0.206691
0.205757
0.206273
0.205723
0.205902
0.205639
0.205742
0.20568
0.205774
0.20582
0.205976
0.206189
0.20654
0.207022
0.207678
0.208518
0.209568
0.210845
0.21237
0.214162
0.216235
0.218608
0.221294
0.224306
0.227653
0.231339
0.235363
0.239718
0.244388
0.249347
0.254567
0.259991
0.265579
0.271231
0.276907
0.282426
0.287791
0.292658
0.297181
0.300653
0.303678
0.304638
0.305454
0.302021
0.300144
0.288676
0.284859
0.257146
0.256709
0.191806
0.215413
0.0557441
0.175474
0.0999727
0.160007
0.186161
0.20042
0.203335
0.206529
0.20574
0.20676
0.205869
0.20634
0.205799
0.205966
0.205702
0.205795
0.205731
0.205822
0.205868
0.206023
0.206235
0.206585
0.207065
0.207719
0.208556
0.209604
0.210878
0.212401
0.214189
0.21626
0.218629
0.221313
0.224323
0.227669
0.231353
0.235376
0.239728
0.244397
0.249354
0.25457
0.25999
0.265573
0.271217
0.276883
0.282391
0.28774
0.29259
0.29709
0.300539
0.303531
0.304462
0.305231
0.301766
0.299819
0.288327
0.284398
0.256699
0.256053
0.191303
0.214483
0.0554951
0.174363
0.103142
0.159707
0.185832
0.199995
0.203227
0.206461
0.205856
0.206835
0.205994
0.206417
0.205884
0.206037
0.205773
0.205857
0.20579
0.205877
0.205923
0.206077
0.206288
0.206636
0.207115
0.207767
0.208602
0.209647
0.210918
0.212438
0.214223
0.216291
0.218659
0.22134
0.224348
0.227692
0.231374
0.235396
0.239746
0.244413
0.249367
0.254581
0.259996
0.265573
0.27121
0.276866
0.282362
0.287695
0.292528
0.297005
0.300431
0.303389
0.304292
0.305014
0.301518
0.299502
0.28799
0.283945
0.256273
0.255407
0.190838
0.213563
0.0553051
0.173241
0.106175
0.159495
0.185533
0.199596
0.20312
0.206396
0.205971
0.206916
0.206131
0.206506
0.205978
0.206115
0.205852
0.205927
0.205856
0.20594
0.205985
0.206138
0.206349
0.206695
0.207173
0.207823
0.208655
0.209697
0.210966
0.212483
0.214265
0.216331
0.218696
0.221375
0.224381
0.227723
0.231404
0.235424
0.239773
0.244437
0.249389
0.254598
0.260009
0.26558
0.271209
0.276855
0.282339
0.287657
0.292472
0.296925
0.300328
0.303253
0.304127
0.304802
0.301279
0.299192
0.287666
0.283501
0.255867
0.254771
0.190408
0.212651
0.0551723
0.172106
0.109079
0.159364
0.185264
0.199224
0.203015
0.206335
0.206087
0.207002
0.206277
0.206607
0.206085
0.206202
0.20594
0.206006
0.205932
0.20601
0.206054
0.206206
0.206417
0.206762
0.207238
0.207886
0.208717
0.209756
0.211022
0.212537
0.214316
0.216379
0.218741
0.221419
0.224423
0.227763
0.231442
0.23546
0.239807
0.24447
0.249418
0.254624
0.260031
0.265594
0.271216
0.276851
0.282322
0.287624
0.292422
0.296851
0.30023
0.303122
0.303969
0.304596
0.301047
0.298888
0.287352
0.283066
0.255482
0.254145
0.190015
0.211748
0.0550953
0.170955
0.111859
0.159307
0.185025
0.198879
0.202916
0.206281
0.206203
0.207095
0.206434
0.206722
0.206205
0.206298
0.206037
0.206093
0.206016
0.20609
0.206133
0.206283
0.206493
0.206838
0.207312
0.207959
0.208787
0.209824
0.211087
0.212599
0.214375
0.216436
0.218796
0.221471
0.224474
0.227812
0.231489
0.235505
0.239851
0.244511
0.249456
0.254658
0.26006
0.265617
0.27123
0.276854
0.282313
0.287597
0.292377
0.296782
0.300138
0.302996
0.303816
0.304396
0.300822
0.298591
0.287051
0.282638
0.255116
0.253529
0.189656
0.210852
0.0550725
0.169789
0.114523
0.159318
0.184816
0.19856
0.202824
0.206235
0.206322
0.207195
0.206599
0.206849
0.20634
0.206405
0.206144
0.20619
0.20611
0.206178
0.20622
0.206369
0.206579
0.206922
0.207395
0.20804
0.208866
0.209901
0.211162
0.212671
0.214444
0.216502
0.21886
0.221533
0.224534
0.22787
0.231546
0.23556
0.239903
0.244561
0.249503
0.254701
0.260097
0.265647
0.271251
0.276864
0.28231
0.287576
0.292339
0.296718
0.300052
0.302875
0.303669
0.3042
0.300604
0.298299
0.28676
0.282218
0.254769
0.252922
0.189332
0.209963
0.0551025
0.168606
0.117077
0.159392
0.184636
0.198269
0.202741
0.206198
0.206444
0.207304
0.206774
0.20699
0.20649
0.206526
0.206263
0.206296
0.206214
0.206276
0.206316
0.206464
0.206673
0.207016
0.207488
0.208131
0.208955
0.209988
0.211246
0.212752
0.214523
0.216578
0.218934
0.221605
0.224604
0.227938
0.231612
0.235625
0.239966
0.24462
0.249559
0.254753
0.260143
0.265685
0.271281
0.276881
0.282313
0.287562
0.292306
0.296661
0.299971
0.30276
0.303528
0.30401
0.300394
0.298014
0.286479
0.281806
0.25444
0.252324
0.189041
0.20908
0.0551838
0.167406
0.119525
0.159522
0.184484
0.198005
0.202668
0.206173
0.206572
0.207423
0.206958
0.207144
0.206655
0.206661
0.206393
0.206413
0.206328
0.206383
0.206422
0.206568
0.206777
0.207119
0.20759
0.208232
0.209054
0.210085
0.211341
0.212844
0.214613
0.216665
0.219019
0.221688
0.224684
0.228017
0.231689
0.2357
0.240038
0.24469
0.249625
0.254814
0.260198
0.265732
0.271318
0.276906
0.282324
0.287555
0.292279
0.296608
0.299895
0.302649
0.303392
0.303825
0.30019
0.297735
0.28621
0.281401
0.25413
0.251734
0.188783
0.208204
0.0553154
0.166186
0.121874
0.159705
0.18436
0.197767
0.202605
0.206159
0.206706
0.207554
0.207151
0.207312
0.206837
0.206812
0.206538
0.206542
0.206453
0.206502
0.206539
0.206682
0.206891
0.207232
0.207703
0.208344
0.209165
0.210193
0.211447
0.212947
0.214713
0.216763
0.219115
0.221782
0.224776
0.228107
0.231777
0.235785
0.240121
0.24477
0.249701
0.254884
0.260262
0.265788
0.271364
0.276939
0.282342
0.287554
0.292259
0.296562
0.299825
0.302543
0.303262
0.303645
0.299993
0.297461
0.28595
0.281004
0.253838
0.251153
0.188557
0.207334
0.0554959
0.164948
0.124128
0.159935
0.184262
0.197554
0.202554
0.206157
0.206847
0.207697
0.207356
0.207493
0.207034
0.20698
0.206699
0.206685
0.20659
0.206631
0.206666
0.206807
0.207016
0.207356
0.207827
0.208466
0.209286
0.210313
0.211564
0.213062
0.214825
0.216873
0.219222
0.221887
0.224879
0.228208
0.231876
0.235882
0.240215
0.24486
0.249787
0.254965
0.260336
0.265853
0.271418
0.27698
0.282368
0.28756
0.292245
0.296521
0.299761
0.302443
0.303137
0.30347
0.299803
0.297193
0.285701
0.280613
0.253563
0.250581
0.188364
0.206469
0.0557243
0.163691
0.126291
0.160207
0.184191
0.197367
0.202516
0.206167
0.206995
0.207853
0.207572
0.207688
0.207248
0.207167
0.206876
0.206842
0.20674
0.206773
0.206805
0.206943
0.207152
0.207492
0.207962
0.2086
0.209419
0.210444
0.211693
0.213189
0.214949
0.216995
0.219342
0.222004
0.224995
0.228322
0.231987
0.235991
0.240321
0.244962
0.249885
0.255056
0.26042
0.265927
0.271481
0.277029
0.282401
0.287573
0.292238
0.296487
0.299702
0.302348
0.303018
0.3033
0.299619
0.296931
0.285461
0.28023
0.253306
0.250017
0.188201
0.205609
0.0559994
0.162413
0.128369
0.160519
0.184146
0.197205
0.20249
0.20619
0.207151
0.208022
0.2078
0.207898
0.207477
0.207371
0.207072
0.207016
0.206905
0.206928
0.206957
0.207092
0.2073
0.207639
0.208109
0.208746
0.209564
0.210587
0.211835
0.213328
0.215086
0.21713
0.219474
0.222135
0.225123
0.228448
0.232111
0.236112
0.240438
0.245076
0.249993
0.255158
0.260514
0.266012
0.271554
0.277087
0.282443
0.287594
0.292238
0.296458
0.299649
0.302258
0.302904
0.303135
0.299442
0.296675
0.285232
0.279854
0.253066
0.249461
0.188069
0.204754
0.0563204
0.161116
0.130364
0.160865
0.184125
0.197067
0.202476
0.206226
0.207315
0.208205
0.208042
0.208124
0.207722
0.207594
0.207288
0.207208
0.207087
0.207098
0.207122
0.207253
0.20746
0.207798
0.208268
0.208905
0.209722
0.210744
0.21199
0.213481
0.215237
0.217278
0.21962
0.222279
0.225265
0.228587
0.232248
0.236245
0.240569
0.245201
0.250113
0.255272
0.260619
0.266106
0.271636
0.277153
0.282493
0.287622
0.292245
0.296436
0.299602
0.302173
0.302796
0.302975
0.299271
0.296424
0.285013
0.279486
0.252843
0.248914
0.187968
0.203904
0.0566862
0.159797
0.132282
0.161242
0.184128
0.196953
0.202476
0.206275
0.207488
0.208401
0.208297
0.208367
0.207984
0.207836
0.207524
0.20742
0.207286
0.207284
0.207302
0.207428
0.207633
0.20797
0.20844
0.209076
0.209892
0.210914
0.212158
0.213647
0.215401
0.21744
0.21978
0.222436
0.22542
0.22874
0.232398
0.236392
0.240712
0.24534
0.250246
0.255397
0.260735
0.266211
0.271728
0.277229
0.282551
0.287658
0.292258
0.296421
0.299562
0.302094
0.302694
0.302821
0.299108
0.29618
0.284803
0.279125
0.252637
0.248376
0.187896
0.203058
0.057096
0.158458
0.134125
0.161648
0.184155
0.196862
0.202488
0.206337
0.20767
0.20861
0.208566
0.208628
0.208263
0.208097
0.207781
0.207653
0.207505
0.207487
0.207497
0.207618
0.207821
0.208156
0.208625
0.209261
0.210077
0.211098
0.21234
0.213827
0.215579
0.217616
0.219954
0.222608
0.22559
0.228907
0.232562
0.236553
0.240869
0.245491
0.250391
0.255534
0.260863
0.266327
0.271831
0.277315
0.282618
0.287703
0.29228
0.296412
0.299528
0.302021
0.302597
0.302672
0.298951
0.295941
0.284603
0.278771
0.252448
0.247846
0.187854
0.202218
0.057549
0.157099
0.135896
0.162079
0.184204
0.196793
0.202514
0.206411
0.20786
0.208832
0.208847
0.208907
0.20856
0.208378
0.208058
0.207908
0.207745
0.20771
0.207711
0.207824
0.208024
0.208357
0.208826
0.209461
0.210276
0.211296
0.212538
0.214023
0.215773
0.217808
0.220144
0.222795
0.225775
0.229089
0.232741
0.236729
0.241039
0.245657
0.25055
0.255684
0.261003
0.266455
0.271944
0.27741
0.282694
0.287755
0.292309
0.29641
0.2995
0.301954
0.302507
0.302529
0.298801
0.295709
0.284413
0.278425
0.252275
0.247324
0.187842
0.201382
0.0580445
0.155718
0.1376
0.162532
0.184275
0.196746
0.202553
0.206497
0.208059
0.209067
0.209142
0.209204
0.208876
0.208679
0.208357
0.208186
0.208008
0.207954
0.207944
0.208048
0.208243
0.208573
0.209041
0.209676
0.210491
0.21151
0.21275
0.214234
0.215982
0.218015
0.220349
0.222998
0.225975
0.229287
0.232936
0.236919
0.241225
0.245836
0.250722
0.255847
0.261155
0.266594
0.272068
0.277516
0.28278
0.287816
0.292346
0.296416
0.299479
0.301893
0.302423
0.302392
0.298657
0.295483
0.284233
0.278087
0.252119
0.246812
0.187858
0.20055
0.0585816
0.154317
0.139239
0.163004
0.184366
0.196721
0.202605
0.206596
0.208266
0.209313
0.209449
0.209519
0.20921
0.209
0.208677
0.208487
0.208294
0.208221
0.208198
0.208291
0.208481
0.208807
0.209273
0.209907
0.210721
0.21174
0.212979
0.214461
0.216208
0.218239
0.22057
0.223218
0.226192
0.2295
0.233146
0.237125
0.241425
0.24603
0.250908
0.256024
0.26132
0.266745
0.272203
0.277632
0.282875
0.287886
0.29239
0.296429
0.299464
0.301839
0.302345
0.30226
0.298521
0.295264
0.284063
0.277757
0.25198
0.246309
0.187903
0.199724
0.0591599
0.152895
0.140816
0.163494
0.184478
0.196716
0.20267
0.206707
0.208482
0.209571
0.209767
0.20985
0.209564
0.209343
0.209018
0.208811
0.208605
0.208512
0.208475
0.208556
0.208738
0.20906
0.209523
0.210155
0.210969
0.211986
0.213224
0.214705
0.21645
0.218479
0.220809
0.223454
0.226425
0.229731
0.233372
0.237347
0.241642
0.24624
0.251109
0.256215
0.261499
0.266909
0.27235
0.277759
0.282981
0.287965
0.292444
0.296449
0.299457
0.301791
0.302274
0.302135
0.298393
0.295052
0.283903
0.277435
0.251857
0.245815
0.187976
0.198902
0.0597787
0.151453
0.142333
0.163998
0.184609
0.196732
0.202749
0.206831
0.208706
0.209839
0.210096
0.210197
0.209936
0.209708
0.209382
0.20916
0.208941
0.208828
0.208776
0.208844
0.209017
0.209332
0.209792
0.210422
0.211234
0.21225
0.213488
0.214967
0.216711
0.218738
0.221066
0.223708
0.226677
0.229979
0.233616
0.237585
0.241874
0.246465
0.251325
0.25642
0.261691
0.267085
0.272509
0.277897
0.283096
0.288054
0.292506
0.296477
0.299458
0.301749
0.30221
0.302016
0.298271
0.294846
0.283753
0.277122
0.25175
0.245331
0.188077
0.198085
0.0604373
0.149991
0.143793
0.164515
0.184759
0.196768
0.202841
0.206966
0.208939
0.210118
0.210435
0.210558
0.210325
0.210095
0.209769
0.209532
0.209302
0.209171
0.209104
0.209156
0.209319
0.209626
0.210081
0.210708
0.211518
0.212534
0.21377
0.215248
0.21699
0.219015
0.221341
0.223981
0.226946
0.230245
0.233877
0.237841
0.242124
0.246706
0.251557
0.25664
0.261897
0.267275
0.272681
0.278047
0.283223
0.288152
0.292577
0.296514
0.299466
0.301715
0.302152
0.301904
0.298158
0.294648
0.283614
0.276817
0.25166
0.244856
0.188207
0.197274
0.0611354
0.148509
0.145199
0.165044
0.184926
0.196823
0.202946
0.207113
0.209179
0.210406
0.210784
0.210933
0.21073
0.210503
0.210178
0.209929
0.209689
0.209541
0.209458
0.209495
0.209646
0.209944
0.210393
0.211015
0.211823
0.212837
0.214072
0.215548
0.217288
0.219312
0.221635
0.224272
0.227235
0.230529
0.234157
0.238115
0.242391
0.246964
0.251805
0.256875
0.262118
0.267479
0.272865
0.278208
0.28336
0.288261
0.292657
0.296559
0.299481
0.301688
0.302102
0.301799
0.298052
0.294457
0.283485
0.276522
0.251586
0.244392
0.188363
0.196468
0.0618725
0.147008
0.146552
0.165581
0.185111
0.196896
0.203064
0.207272
0.209429
0.210705
0.211142
0.21132
0.211149
0.21093
0.21061
0.21035
0.210102
0.209939
0.209841
0.209861
0.209999
0.210286
0.210728
0.211345
0.21215
0.213161
0.214394
0.215869
0.217608
0.219629
0.22195
0.224584
0.227543
0.230833
0.234456
0.238408
0.242676
0.24724
0.25207
0.257127
0.262354
0.267697
0.273063
0.278382
0.283509
0.288379
0.292747
0.296612
0.299505
0.301669
0.302059
0.3017
0.297953
0.294275
0.283366
0.276236
0.251529
0.243939
0.188548
0.195668
0.0626482
0.145487
0.147855
0.166126
0.185312
0.196988
0.203195
0.207444
0.209686
0.211012
0.211509
0.211718
0.211582
0.211375
0.211064
0.210796
0.21054
0.210364
0.210253
0.210257
0.210381
0.210656
0.211089
0.2117
0.2125
0.213509
0.214739
0.216212
0.217948
0.219967
0.222286
0.224917
0.227872
0.231158
0.234775
0.23872
0.242979
0.247534
0.252352
0.257395
0.262606
0.26793
0.273274
0.278569
0.283669
0.288509
0.292846
0.296675
0.299537
0.301657
0.302024
0.30161
0.297864
0.2941
0.283259
0.275959
0.251489
0.243497
0.18876
0.194874
0.063462
0.143949
0.14911
0.166677
0.18553
0.197098
0.203339
0.207626
0.209953
0.211329
0.211884
0.212127
0.212027
0.211835
0.211538
0.211266
0.211004
0.210816
0.210694
0.210683
0.210793
0.211055
0.211478
0.212081
0.212876
0.21388
0.215108
0.216578
0.218312
0.220328
0.222644
0.225271
0.228222
0.231503
0.235114
0.239052
0.243303
0.247846
0.252651
0.25768
0.262874
0.268177
0.273499
0.278768
0.283841
0.288649
0.292955
0.296747
0.299577
0.301653
0.301996
0.301527
0.297782
0.293934
0.283162
0.275693
0.251465
0.243066
0.188999
0.194087
0.0643136
0.142392
0.150318
0.167233
0.185762
0.197225
0.203497
0.207821
0.210227
0.211654
0.212268
0.212545
0.212483
0.212311
0.212029
0.211759
0.211494
0.211296
0.211163
0.211139
0.211235
0.211484
0.211895
0.212489
0.213278
0.214277