/*--------------------------------*- C++ -*----------------------------------*\
| =========                 |                                                 |
| \\      /  F ield         | OpenFOAM: The Open Source CFD Toolbox           |
|  \\    /   O peration     | Version:  2.4.0                                 |
|   \\  /    A nd           | Web:      www.OpenFOAM.org                      |
|    \\/     M anipulation  |                                                 |
\*---------------------------------------------------------------------------*/
FoamFile
{
    version     2.0;
    format      ascii;
    class       volScalarField;
    location    "2.6";
    object      nut;
}
// * * * * * * * * * * * * * * * * * * * * * * * * * * * * * * * * * * * * * //

dimensions      [0 2 -1 0 0 0 0];

internalField   nonuniform List<scalar> 
5625
(
2.90459e-05
1.63358e-05
1.59281e-05
1.49404e-05
1.39161e-05
1.30361e-05
1.24211e-05
1.20464e-05
1.18702e-05
1.18337e-05
1.18811e-05
1.19532e-05
1.20292e-05
1.21022e-05
1.21904e-05
1.23e-05
1.24216e-05
1.25469e-05
1.26824e-05
1.28254e-05
1.29766e-05
1.31405e-05
1.33028e-05
1.34618e-05
1.36214e-05
1.37805e-05
1.39385e-05
1.40947e-05
1.42475e-05
1.4395e-05
1.45394e-05
1.46759e-05
1.48081e-05
1.49314e-05
1.50495e-05
1.51534e-05
1.52501e-05
1.53228e-05
1.53851e-05
1.54121e-05
1.54279e-05
1.54037e-05
1.53781e-05
1.53124e-05
1.52554e-05
1.51497e-05
1.50641e-05
1.49235e-05
1.48239e-05
1.46541e-05
1.45554e-05
1.43557e-05
1.42766e-05
1.40559e-05
1.40013e-05
1.37872e-05
1.37691e-05
1.35794e-05
1.36213e-05
1.34666e-05
1.35713e-05
1.34528e-05
1.36014e-05
1.35131e-05
1.36876e-05
1.36267e-05
1.38191e-05
1.37755e-05
1.39627e-05
1.39196e-05
1.40795e-05
1.40339e-05
1.40918e-05
1.44169e-05
2.34378e-05
0.000181343
5.89844e-05
4.13237e-05
3.34876e-05
3.35344e-05
3.58531e-05
3.93956e-05
4.32887e-05
4.77811e-05
5.26005e-05
5.74789e-05
6.20892e-05
6.63133e-05
7.01627e-05
7.39383e-05
7.76353e-05
8.11152e-05
8.43505e-05
8.74415e-05
9.04175e-05
9.31827e-05
9.58017e-05
9.82094e-05
0.000100436
0.00010254
0.000104522
0.000106372
0.000108082
0.000109643
0.000111048
0.000112326
0.000113437
0.00011442
0.000115267
0.000115988
0.000116577
0.000117061
0.00011735
0.000117537
0.00011737
0.000117047
0.000116162
0.000115161
0.000113624
0.000112179
0.00010995
0.000107928
0.000104937
0.000102277
9.89191e-05
9.55111e-05
9.19829e-05
8.7688e-05
8.39357e-05
7.9011e-05
7.49282e-05
6.96812e-05
6.55083e-05
6.03444e-05
5.63319e-05
5.17168e-05
4.77948e-05
4.39553e-05
4.03006e-05
3.68366e-05
3.36692e-05
3.0886e-05
2.81588e-05
2.58903e-05
2.32832e-05
2.14478e-05
1.89822e-05
1.78419e-05
1.48715e-05
0.000119571
0.000174453
0.000112739
8.21608e-05
6.45617e-05
5.99734e-05
5.96678e-05
6.1794e-05
6.58026e-05
7.10344e-05
7.74771e-05
8.48607e-05
9.27574e-05
0.000100504
0.000108044
0.000115499
0.000122904
0.000130137
0.00013705
0.000143815
0.000150306
0.000156554
0.000162588
0.000168275
0.000173634
0.000178778
0.000183694
0.000188375
0.000192799
0.000196937
0.000200759
0.000204376
0.000207643
0.000210714
0.000213426
0.000216014
0.000218219
0.000220427
0.000222144
0.000223973
0.00022489
0.000225836
0.000225326
0.00022498
0.000223075
0.000221678
0.000218738
0.000216069
0.000211965
0.000208109
0.000203085
0.000197919
0.000192205
0.000185579
0.000179133
0.000171269
0.000164097
0.000155084
0.000147718
0.000138188
0.000130453
0.000121804
0.000113806
0.000106571
9.81721e-05
9.18688e-05
8.39759e-05
7.88232e-05
7.14795e-05
6.73299e-05
5.99446e-05
5.67009e-05
4.92878e-05
4.71277e-05
3.96994e-05
0.000108436
0.00016844
0.000147146
0.000115885
9.77593e-05
8.72639e-05
8.3528e-05
8.2908e-05
8.51238e-05
8.95433e-05
9.58284e-05
0.000103882
0.000112828
0.000122545
0.000132734
0.000142688
0.000152705
0.000162688
0.000172365
0.000181962
0.000191193
0.000200191
0.000208963
0.000217354
0.000225414
0.000233202
0.000240686
0.000247825
0.000254637
0.000261161
0.000267275
0.000273169
0.000278585
0.000283762
0.000288461
0.000293024
0.000297032
0.000301102
0.000304472
0.000308064
0.000310422
0.000312835
0.000313063
0.000313381
0.000312283
0.000311127
0.000308604
0.000305711
0.000301687
0.000297225
0.000291907
0.000285791
0.000279521
0.000271676
0.000264438
0.000254998
0.00024682
0.000235982
0.00022705
0.000215763
0.000205698
0.000195148
0.000184635
0.000175228
0.000164827
0.000156537
0.000145836
0.000139219
0.000129577
0.00012414
0.000113893
0.00010976
9.97395e-05
9.58524e-05
8.9902e-05
0.00010623
0.00016309
0.000162229
0.000138635
0.000124836
0.000111966
0.000105909
0.000103053
0.000102851
0.000106139
0.000110752
0.000118316
0.000127228
0.00013794
0.000149253
0.000160847
0.00017296
0.000184894
0.000196577
0.000208312
0.000219618
0.000230764
0.000241697
0.000252197
0.000262394
0.000272299
0.000281847
0.000291019
0.000299838
0.000308325
0.000316334
0.000324069
0.000331305
0.000338285
0.000344743
0.000351024
0.000356665
0.000362366
0.000367285
0.000372441
0.000376217
0.000379671
0.000380869
0.000381858
0.000381758
0.000380916
0.000379021
0.000376183
0.000372513
0.000367817
0.000362583
0.000356077
0.000349509
0.000341171
0.000333429
0.000323329
0.000314469
0.000302964
0.000293058
0.000281186
0.00027008
0.000258835
0.000247103
0.000236685
0.000225038
0.000215689
0.00020455
0.000196715
0.000186855
0.000180868
0.000170094
0.000165598
0.000155418
0.000151415
0.000157378
0.000107622
0.000158252
0.000165603
0.000151564
0.000143854
0.000132113
0.000125242
0.000121219
0.000119164
0.000121154
0.000124614
0.000130354
0.000138527
0.000148813
0.000160706
0.000173411
0.000186582
0.000199733
0.000213184
0.000226582
0.000239467
0.000252326
0.000264964
0.000277121
0.000289032
0.00030064
0.000311842
0.000322654
0.000333104
0.000343194
0.000352789
0.000362059
0.00037081
0.000379264
0.000387144
0.000394848
0.000401882
0.000408955
0.000415221
0.000421664
0.000426577
0.000430797
0.000433052
0.000434707
0.000435398
0.000434955
0.000433564
0.000430893
0.000427509
0.000422748
0.000417603
0.000410891
0.000404202
0.000395638
0.000387559
0.000377339
0.000367952
0.000356414
0.000345857
0.000333735
0.000322019
0.000310125
0.00029797
0.000287085
0.000275172
0.0002652
0.000253969
0.000245328
0.00023682
0.000230684
0.00022078
0.000216149
0.000207257
0.000203823
0.000218858
0.000110207
0.000153817
0.000162895
0.000157936
0.00015426
0.000147008
0.00014058
0.000136369
0.000133706
0.000134054
0.000137154
0.000140938
0.00014823
0.000157821
0.000168849
0.000181517
0.000195517
0.000209658
0.000224114
0.000238566
0.000252816
0.000267152
0.000281154
0.00029463
0.000307964
0.000320973
0.000333522
0.000345682
0.00035748
0.000368892
0.000379788
0.000390333
0.000400368
0.000410058
0.000419163
0.000428026
0.000436236
0.000444412
0.000451796
0.000459242
0.000465156
0.000470042
0.000473281
0.000475593
0.000476931
0.000476902
0.000475929
0.000473465
0.000470303
0.000465551
0.000460457
0.000453619
0.000446826
0.000438087
0.000429786
0.000419395
0.000409707
0.000398017
0.00038715
0.000374783
0.00036287
0.00035056
0.000338239
0.000326759
0.000314846
0.000304881
0.000293709
0.000284257
0.00027758
0.00027196
0.000263422
0.000259196
0.000252129
0.000249589
0.000271657
0.000112681
0.000149707
0.000157742
0.000159787
0.000158758
0.000155853
0.000151707
0.000148258
0.000145836
0.000144959
0.000147704
0.000150642
0.000155777
0.000164577
0.00017537
0.00018757
0.00020081
0.000215366
0.000230632
0.000245937
0.000261189
0.000276483
0.000291514
0.000306198
0.000320768
0.000334947
0.000348608
0.000361906
0.000374848
0.00038737
0.000399352
0.000410978
0.000422096
0.000432829
0.000442981
0.000452848
0.000462074
0.000471156
0.000479478
0.00048774
0.000494535
0.000500069
0.000504198
0.00050715
0.000509062
0.000509462
0.000508864
0.000506643
0.000503672
0.000498989
0.000493918
0.00048702
0.000480115
0.00047124
0.000462736
0.00045216
0.000442223
0.000430307
0.000419201
0.000406505
0.00039445
0.000381677
0.000369316
0.00035738
0.000345564
0.000335288
0.00032473
0.00031495
0.000308926
0.000304679
0.000297976
0.000294565
0.000289362
0.00028797
0.000315529
0.00011469
0.000145862
0.000152066
0.000158507
0.000159321
0.000159801
0.000158227
0.000156354
0.000154837
0.000153899
0.000155694
0.000159063
0.00016261
0.000169578
0.00017962
0.000191027
0.000204464
0.000218513
0.00023349
0.000249277
0.000265337
0.000281343
0.000297282
0.000312908
0.000328374
0.000343469
0.000358116
0.000372452
0.000386387
0.000399856
0.000412761
0.000425329
0.000437376
0.000449006
0.000460058
0.000470795
0.000480906
0.000490785
0.000499926
0.000508878
0.00051646
0.000522664
0.000527599
0.000531185
0.000533643
0.000534499
0.000534272
0.000532344
0.000529567
0.000525018
0.000519974
0.000513083
0.000506071
0.000497113
0.00048841
0.000477672
0.000467482
0.000455318
0.00044395
0.000430883
0.000418625
0.000405336
0.000392867
0.000380384
0.000368625
0.000358081
0.000347877
0.00033839
0.000332228
0.000329567
0.000324966
0.000322541
0.000319321
0.000319189
0.000351049
0.000116175
0.000142235
0.000146818
0.00015506
0.00015749
0.000160116
0.000161141
0.000160926
0.00016063
0.000160457
0.000161493
0.00016533
0.000168635
0.000173484
0.000182398
0.000192892
0.000205454
0.000219063
0.000234372
0.000249775
0.000265932
0.000282358
0.000298988
0.000315333
0.000331531
0.000347429
0.000362922
0.000378061
0.000392812
0.000407059
0.000420828
0.000434258
0.000447113
0.00045952
0.000471364
0.000482873
0.000493759
0.000504344
0.000514218
0.000523792
0.000532103
0.000539009
0.000544682
0.000548905
0.000551912
0.000553264
0.000553431
0.000551853
0.000549306
0.000544961
0.000539979
0.00053317
0.000526082
0.000517104
0.000508223
0.000497372
0.00048693
0.000474539
0.000462876
0.000449434
0.000436895
0.00042306
0.00041036
0.000397244
0.000385386
0.000374436
0.000364473
0.000355089
0.000349238
0.000347495
0.000345019
0.000343685
0.000342586
0.000343768
0.000379034
0.000117157
0.000138788
0.000142377
0.000150287
0.000154355
0.000158079
0.000160979
0.000162495
0.000163511
0.000164406
0.000165516
0.000168965
0.000173114
0.000176934
0.000183666
0.000193525
0.000205025
0.000217806
0.000232425
0.000247695
0.00026401
0.000280314
0.000297236
0.000314025
0.000330766
0.000347276
0.000363458
0.000379272
0.000394704
0.000409662
0.000424159
0.000438293
0.000451843
0.000464963
0.000477558
0.000489764
0.000501335
0.000512558
0.000523092
0.00053325
0.000542238
0.000549878
0.000556243
0.000561115
0.000564691
0.000566582
0.000567189
0.000566025
0.000563763
0.000559698
0.000554837
0.000548187
0.00054108
0.000532153
0.000523141
0.000512242
0.000501577
0.000489007
0.000477045
0.000463259
0.000450386
0.00043601
0.000422968
0.000409159
0.000397019
0.000385523
0.000375599
0.000366019
0.000360657
0.000359445
0.000358823
0.000358657
0.000359755
0.000362208
0.000400261
0.000117645
0.000135491
0.000138541
0.000145297
0.000150227
0.000154692
0.000158634
0.000161621
0.000163875
0.000165834
0.000167626
0.000170591
0.000175287
0.000179404
0.000184265
0.000192688
0.000203511
0.000215237
0.000228866
0.000243538
0.000259378
0.000275743
0.00029258
0.000309478
0.000326559
0.000343481
0.000360165
0.000376514
0.000392538
0.000408116
0.000423227
0.000437888
0.000452034
0.000465755
0.000478985
0.000491838
0.000504058
0.000515913
0.000527078
0.000537774
0.000547399
0.000555788
0.000562819
0.000568357
0.000572532
0.000575008
0.000576106
0.000575422
0.000573515
0.000569806
0.000565141
0.00055873
0.00055168
0.000542882
0.000533809
0.000522939
0.000512105
0.000499428
0.000487196
0.000473127
0.000459909
0.000445031
0.000431581
0.000417057
0.000404477
0.000392308
0.000382246
0.0003721
0.000366909
0.0003668
0.000367226
0.000368321
0.000371559
0.000375279
0.000415586
0.000117718
0.000132318
0.000135026
0.00014072
0.000145697
0.000150513
0.000154915
0.000158854
0.000162183
0.000165046
0.000167772
0.000170543
0.000175377
0.000180048
0.000184557
0.000190834
0.00020061
0.000211623
0.000224087
0.000237854
0.000252916
0.000268824
0.000285339
0.000302353
0.000319338
0.000336412
0.000353418
0.000370154
0.000386617
0.000402672
0.000418321
0.000433529
0.000448261
0.000462543
0.000476281
0.000489604
0.000502335
0.000514672
0.000526329
0.000537523
0.000547788
0.000556998
0.000564712
0.000570978
0.000575815
0.000578919
0.000580563
0.000580424
0.000578945
0.00057567
0.000571286
0.000565194
0.000558287
0.0005497
0.000540649
0.000529894
0.000518972
0.00050627
0.000493832
0.00047956
0.000466032
0.000450721
0.000436851
0.00042164
0.000408518
0.000395548
0.000385116
0.00037435
0.000368847
0.000369908
0.000371073
0.000373235
0.000378455
0.000383403
0.000425654
0.000117388
0.000129248
0.000131793
0.000136575
0.000141222
0.000145893
0.000150445
0.00015485
0.000158933
0.000162466
0.000166071
0.000169018
0.000173787
0.000178713
0.000183628
0.000188727
0.000196616
0.000206868
0.000218349
0.000231017
0.000245062
0.000260201
0.000276109
0.00029273
0.000309536
0.000326713
0.000343651
0.000360563
0.000377311
0.000393697
0.00040975
0.000425362
0.000440555
0.000455298
0.000469553
0.000483402
0.0004967
0.000509593
0.000521809
0.000533416
0.00054405
0.000553922
0.000562247
0.00056914
0.000574576
0.000578347
0.000580621
0.000581128
0.000580185
0.000577459
0.000573469
0.000567813
0.00056116
0.000552884
0.000543952
0.0005334
0.000522486
0.000509853
0.000497297
0.000482919
0.000469155
0.000453508
0.000439241
0.000423363
0.000409594
0.000395854
0.000385085
0.000373503
0.000367132
0.000369191
0.000370994
0.000374035
0.000380959
0.000387062
0.000431021
0.000116674
0.000126264
0.000128774
0.000132692
0.000136948
0.000141221
0.000145703
0.000150137
0.000154608
0.000158553
0.000162794
0.000166133
0.000170844
0.00017582
0.000180882
0.000186076
0.00019217
0.000201025
0.000211782
0.000223302
0.000236178
0.000250299
0.00026534
0.000281273
0.000297616
0.000314449
0.00033128
0.000348269
0.000364984
0.000381531
0.000397848
0.00041374
0.000429293
0.0004444
0.000459066
0.000473321
0.000487066
0.000500416
0.000513131
0.00052526
0.000536416
0.000546733
0.000555891
0.000563559
0.000569703
0.000574165
0.000577036
0.000578126
0.000577695
0.000575479
0.000571895
0.000566658
0.000560305
0.000552402
0.000543699
0.00053345
0.000522662
0.000510202
0.000497648
0.000483271
0.000469383
0.000453506
0.000438981
0.000422677
0.00040846
0.000393877
0.000382545
0.000370093
0.000362449
0.000365048
0.000367594
0.000371253
0.00037954
0.000386714
0.000432205
0.000115597
0.000123351
0.000125813
0.000129012
0.000132986
0.00013672
0.000140898
0.00014511
0.000149637
0.000153751
0.000158306
0.000162065
0.000166769
0.000171695
0.000176702
0.000182018
0.000187603
0.000194712
0.000204135
0.000214948
0.000226558
0.000239483
0.000253444
0.000268428
0.000284034
0.000300258
0.000316711
0.000333407
0.000350044
0.00036662
0.000382957
0.000398975
0.000414773
0.000430126
0.00044512
0.000459694
0.000473804
0.000487549
0.000500697
0.000513286
0.000524973
0.000535738
0.000545345
0.000553889
0.000560731
0.000565907
0.000569492
0.000571329
0.000571569
0.000570044
0.000567022
0.000562378
0.000556462
0.000549031
0.000540636
0.000530762
0.000520188
0.000507988
0.000495532
0.00048126
0.000467352
0.000451382
0.000436639
0.000419895
0.000405139
0.000389761
0.000377906
0.000364607
0.00035543
0.000357796
0.000361599
0.00036534
0.000374603
0.000382785
0.000429671
0.000114177
0.000120494
0.000122831
0.000125679
0.000129168
0.000132449
0.000136223
0.000140062
0.000144376
0.000148456
0.000152998
0.000157094
0.000161741
0.00016657
0.00017147
0.000176664
0.00018224
0.000188398
0.00019609
0.000205684
0.000216432
0.00022806
0.000240786
0.000254611
0.000269234
0.000284596
0.000300401
0.00031656
0.000332869
0.000349195
0.000365457
0.000381453
0.000397326
0.000412776
0.000428002
0.000442781
0.00045717
0.000471236
0.000484743
0.00049774
0.000509898
0.000521197
0.000531255
0.000540315
0.000548029
0.000553938
0.00055824
0.000560821
0.000561758
0.00056095
0.000558547
0.00055454
0.000549141
0.00054226
0.000534284
0.000524881
0.000514647
0.000502808
0.000490586
0.000476526
0.00046274
0.000446797
0.000432
0.00041501
0.000399904
0.000383847
0.000371492
0.000357426
0.00034659
0.000348014
0.000353251
0.000356841
0.000366616
0.000375693
0.000423847
0.000112429
0.000117682
0.000119809
0.000122508
0.000125587
0.000128438
0.000131775
0.000135177
0.000139106
0.000142959
0.000147278
0.000151467
0.000156008
0.000160703
0.000165457
0.000170442
0.00017579
0.000181741
0.000188121
0.000196099
0.000205681
0.000216289
0.00022769
0.000240205
0.000253642
0.000267914
0.000282815
0.000298191
0.000313914
0.000329769
0.000345722
0.000361519
0.000377271
0.000392709
0.000408035
0.000422869
0.000437444
0.00045174
0.000465518
0.00047886
0.000491411
0.000503195
0.00051384
0.00052327
0.00053162
0.000538419
0.000543457
0.000546803
0.000548484
0.000548447
0.000546736
0.000543435
0.000538639
0.000532385
0.000524925
0.000516076
0.000506293
0.000494911
0.000483048
0.000469305
0.000455776
0.000439986
0.00042529
0.000408214
0.000392917
0.000376325
0.00036354
0.000348842
0.000336359
0.000336228
0.000342796
0.000346195
0.000356038
0.000365863
0.000415133
0.000110366
0.000114905
0.000116803
0.000119401
0.000122182
0.000124662
0.000127577
0.000130545
0.000134006
0.000137509
0.000141459
0.000145455
0.000149816
0.00015435
0.000158905
0.000163634
0.000168641
0.000174217
0.0001802
0.000186705
0.00019472
0.000204179
0.000214445
0.000225563
0.000237662
0.000250656
0.000264423
0.000278782
0.00029366
0.000308811
0.000324214
0.0003396
0.000355036
0.000370295
0.000385482
0.000400352
0.000414949
0.000429355
0.0004433
0.000456914
0.000469754
0.000481964
0.00049312
0.000503161
0.000511806
0.000519386
0.000525311
0.000529415
0.000531879
0.000532656
0.000531701
0.000529172
0.000525059
0.000519505
0.000512652
0.000504436
0.000495214
0.000484379
0.000472999
0.000459676
0.00044654
0.000431027
0.000416587
0.00039959
0.000384282
0.000367327
0.000354226
0.000339074
0.000325072
0.000322985
0.000330439
0.000333789
0.00034325
0.000353721
0.000403924
0.000108003
0.000112151
0.000113861
0.000116332
0.000118871
0.000121063
0.000123607
0.000126181
0.000129166
0.00013226
0.000135759
0.000139399
0.000143384
0.000147686
0.000152044
0.000156482
0.000161115
0.000166173
0.000171719
0.00017764
0.000184102
0.000192011
0.000201129
0.000211002
0.000221671
0.00023325
0.000245693
0.000258825
0.000272615
0.000286825
0.00030143
0.000316174
0.000331077
0.000345958
0.000360833
0.000375546
0.000390036
0.000404414
0.000418409
0.000432203
0.000445196
0.000457773
0.000469331
0.00047993
0.000489206
0.000496986
0.000503914
0.00050881
0.000512094
0.000513713
0.00051357
0.000511869
0.000508512
0.000503723
0.000497566
0.000490055
0.0004815
0.000471297
0.000460523
0.000447717
0.000435106
0.00041999
0.000405958
0.000389203
0.000374075
0.000356951
0.000343676
0.000328282
0.000312986
0.00030874
0.000316466
0.000319964
0.000328594
0.00033964
0.000390586
0.000105355
0.000109412
0.000110986
0.000113299
0.000115615
0.000117591
0.000119821
0.000122061
0.000124607
0.000127289
0.000130304
0.000133539
0.000137018
0.000140883
0.000145007
0.000149184
0.000153446
0.000157947
0.000162918
0.00016832
0.000174065
0.000180374
0.000187952
0.000196628
0.000206008
0.000216099
0.000227082
0.000238813
0.000251299
0.000264342
0.000277908
0.000291769
0.000305906
0.000320183
0.000334553
0.000348902
0.000363118
0.000377302
0.000391221
0.000404985
0.000418127
0.000430944
0.000442737
0.000453853
0.000463666
0.000472079
0.000479225
0.000485168
0.000489303
0.000491772
0.000492487
0.000491659
0.000489124
0.000485157
0.000479778
0.000473038
0.000465251
0.00045576
0.00044571
0.000433515
0.000421554
0.000406952
0.00039347
0.000377115
0.000362357
0.000345267
0.000331982
0.000316578
0.000300303
0.00029381
0.000301237
0.000304993
0.000312608
0.000323944
0.00037541
0.000102436
0.000106677
0.00010814
0.000110301
0.000112413
0.000114211
0.000116178
0.000118141
0.000120308
0.000122607
0.000125162
0.000127953
0.000130968
0.000134268
0.000137894
0.000141805
0.000145785
0.000149835
0.000154129
0.000158882
0.000164022
0.000169548
0.000175547
0.00018264
0.000190762
0.000199552
0.000209011
0.000219226
0.000230239
0.000241916
0.000254219
0.000266959
0.00028009
0.00029352
0.000307168
0.000320932
0.000334674
0.000348475
0.000362154
0.00037574
0.000388884
0.000401691
0.000413766
0.000425273
0.000435464
0.000444474
0.0004522
0.00045844
0.000463716
0.000467008
0.000468627
0.0004687
0.000467042
0.000463943
0.000459418
0.000453505
0.000446582
0.000437878
0.000428662
0.000417168
0.000405977
0.000391997
0.000379199
0.000363395
0.000349188
0.000332336
0.000319217
0.000304041
0.000287162
0.000278499
0.000285136
0.000289118
0.000295741
0.000306999
0.000358689
9.92638e-05
0.000103935
0.000105302
0.000107319
0.000109255
0.000110898
0.000112643
0.000114373
0.000116226
0.000118187
0.000120336
0.000122691
0.00012526
0.000128047
0.000131126
0.000134429
0.000138105
0.000141876
0.000145667
0.000149675
0.000154093
0.000158894
0.000164158
0.00016971
0.000176196
0.000183641
0.000191838
0.000200493
0.000209933
0.0002201
0.00023095
0.000242353
0.000254243
0.000266581
0.000279271
0.000292216
0.000305259
0.000318465
0.0003317
0.00034494
0.000357904
0.000370567
0.000382732
0.00039434
0.00040509
0.000414502
0.000422762
0.000429557
0.000435296
0.000439615
0.000442202
0.000443183
0.000442441
0.000440243
0.000436639
0.000431601
0.000425628
0.000417777
0.000409499
0.000398794
0.00038848
0.00037523
0.000363234
0.000348122
0.000334633
0.000318221
0.000305449
0.000290733
0.000273659
0.00026305
0.000268515
0.000272607
0.000278406
0.000289159
0.000340728
9.58579e-05
0.000101177
0.00010246
0.000104335
0.000106122
0.000107628
0.000109182
0.000110716
0.000112311
0.000113983
0.000115789
0.000117751
0.000119904
0.000122229
0.000124798
0.000127562
0.000130605
0.0001339
0.000137414
0.000140973
0.000144667
0.000148621
0.000153104
0.000157879
0.000163037
0.000168767
0.000175502
0.000182941
0.000190822
0.000199412
0.000208673
0.00021857
0.000229013
0.000240025
0.000251519
0.000263407
0.000275507
0.000287882
0.00030044
0.000313136
0.000325708
0.000338068
0.000350094
0.000361717
0.000372625
0.00038251
0.000391312
0.000398634
0.000404808
0.000409651
0.000413484
0.000415331
0.000415529
0.000414253
0.000411625
0.000407497
0.000402549
0.000395613
0.000388366
0.000378532
0.000369191
0.000356773
0.000345684
0.000331396
0.000318774
0.000302995
0.000290747
0.00027671
0.000259855
0.000247651
0.000251687
0.000255741
0.000260816
0.000270875
0.000321881
9.22452e-05
9.83914e-05
9.95982e-05
0.000101335
0.000102992
0.000104377
0.00010577
0.000107133
0.000108516
0.000109945
0.000111467
0.000113097
0.000114878
0.000116798
0.000118904
0.000121188
0.000123669
0.000126391
0.000129292
0.00013246
0.000135786
0.000139147
0.000142688
0.00014662
0.000150912
0.000155646
0.000160674
0.000166483
0.000173043
0.000180269
0.000187877
0.000196194
0.00020504
0.00021454
0.000224616
0.000235215
0.000246127
0.000257423
0.000269045
0.000280968
0.000292917
0.000304772
0.000316426
0.000327875
0.000338781
0.000348873
0.000358021
0.000366019
0.000372663
0.000377901
0.000382465
0.000385399
0.000386561
0.000386213
0.000384595
0.000381399
0.000377539
0.000371568
0.000365432
0.000356548
0.000348265
0.000336777
0.000326686
0.000313343
0.000301715
0.000286753
0.000275199
0.000262033
0.000245794
0.000232443
0.000234933
0.000238794
0.000243213
0.000252501
0.000302523
8.84602e-05
9.55654e-05
9.67019e-05
9.83052e-05
9.98494e-05
0.000101125
0.000102379
0.000103594
0.000104801
0.000106028
0.000107313
0.000108671
0.000110134
0.000111709
0.000113414
0.000115276
0.000117273
0.000119476
0.000121819
0.000124397
0.000127106
0.000130081
0.000133189
0.000136364
0.000139686
0.000143457
0.000147558
0.000152089
0.000156912
0.000162569
0.000168886
0.000175728
0.000182892
0.000190783
0.00019927
0.000208388
0.000217886
0.000227858
0.000238281
0.000249174
0.000260247
0.00027136
0.000282394
0.000293425
0.000304136
0.000314202
0.000323536
0.000331755
0.000339237
0.000344996
0.000349718
0.000353561
0.000355855
0.000356432
0.000355814
0.00035356
0.00035083
0.000345868
0.000340906
0.000333047
0.000325887
0.000315424
0.000306404
0.000294118
0.000283588
0.000269618
0.000258912
0.000246785
0.000231517
0.000217526
0.000218507
0.000222017
0.000225861
0.00023435
0.000283017
8.4546e-05
9.26857e-05
9.37553e-05
9.52308e-05
9.66777e-05
9.78537e-05
9.89875e-05
0.000100073
0.000101131
0.000102189
0.000103278
0.000104415
0.000105616
0.000106903
0.000108276
0.000109773
0.000111365
0.000113117
0.000114979
0.000117024
0.000119187
0.000121549
0.000124046
0.000126749
0.000129629
0.000132579
0.000135657
0.000139142
0.000142974
0.00014723
0.000151782
0.00015714
0.000162953
0.000169317
0.000176111
0.000183646
0.000191553
0.000199999
0.00020898
0.000218582
0.000228518
0.000238628
0.000248769
0.000259109
0.00026937
0.000279182
0.000288464
0.000296764
0.00030447
0.000311134
0.00031638
0.000320339
0.00032351
0.000325326
0.000325591
0.000324295
0.000322701
0.000318785
0.000315039
0.000308273
0.000302286
0.000292933
0.000285043
0.000273912
0.000264564
0.000251744
0.000242024
0.000231077
0.000217067
0.000202977
0.000202629
0.000205656
0.000209006
0.000216713
0.000263718
8.05556e-05
8.97373e-05
9.07432e-05
9.20944e-05
9.34601e-05
9.45461e-05
9.55752e-05
9.65482e-05
9.74789e-05
9.83961e-05
9.93217e-05
0.000100277
0.000101267
0.000102318
0.000103421
0.000104616
0.000105877
0.000107252
0.000108712
0.000110301
0.000111996
0.000113824
0.000115788
0.000117872
0.000120146
0.000122505
0.000125127
0.000127861
0.000130642
0.000133763
0.000137249
0.000141267
0.000145317
0.000150132
0.000155551
0.000161609
0.000167805
0.000174636
0.000181987
0.000190073
0.000198622
0.000207469
0.000216436
0.000225789
0.000235303
0.000244596
0.000253566
0.000261706
0.00026946
0.000276352
0.00028252
0.000287006
0.000290128
0.000293181
0.000294227
0.000294015
0.000293483
0.00029066
0.000288138
0.000282527
0.000277736
0.000269572
0.000262849
0.000252963
0.000244855
0.000233323
0.000224713
0.000215058
0.000202514
0.000188861
0.000187492
0.000189948
0.000192874
0.000199859
0.00024497
7.65526e-05
8.67041e-05
8.76502e-05
8.88797e-05
9.01807e-05
9.11869e-05
9.2126e-05
9.30025e-05
9.38256e-05
9.46247e-05
9.54158e-05
9.62215e-05
9.70418e-05
9.79005e-05
9.87911e-05
9.9741e-05
0.000100737
0.000101807
0.000102942
0.00010416
0.000105464
0.000106855
0.000108358
0.000109943
0.000111668
0.000113485
0.000115443
0.00011755
0.000119774
0.000122313
0.000124786
0.000127543
0.000130536
0.000134139
0.000137819
0.000142207
0.000147049
0.000152441
0.000158037
0.000164495
0.000171473
0.00017883
0.000186363
0.000194441
0.000202893
0.000211359
0.000219723
0.000227436
0.000234946
0.000241862
0.000248289
0.000253559
0.000257467
0.00026021
0.000262043
0.000263342
0.000263544
0.000261925
0.000260573
0.000256184
0.00025258
0.000245668
0.000240126
0.000231559
0.000224724
0.000214594
0.0002072
0.000198917
0.000187962
0.000175244
0.000173261
0.000175094
0.000177684
0.000184041
0.000227111
7.26117e-05
8.35702e-05
8.44624e-05
8.55748e-05
8.68273e-05
8.77662e-05
8.8631e-05
8.94276e-05
9.01624e-05
9.08641e-05
9.15463e-05
9.22298e-05
9.29154e-05
9.36199e-05
9.43424e-05
9.50993e-05
9.58861e-05
9.6718e-05
9.75948e-05
9.85236e-05
9.95124e-05
0.000100561
0.000101684
0.000102877
0.000104147
0.000105519
0.000106948
0.000108534
0.00011014
0.000112004
0.000113853
0.000116001
0.000118292
0.000120679
0.000123253
0.000126274
0.000129709
0.00013333
0.000137495
0.000142553
0.00014788
0.0001536
0.000159531
0.0001661
0.000173196
0.000180519
0.000187945
0.000194944
0.000201887
0.00020853
0.000214933
0.000220454
0.000225071
0.000228258
0.00023021
0.000232462
0.000233186
0.000233184
0.00023276
0.000229712
0.000227246
0.00022162
0.000217248
0.000210051
0.000204491
0.000195851
0.000189759
0.00018289
0.000173563
0.000162216
0.000160063
0.000161276
0.00016364
0.000169487
0.000210463
6.88167e-05
8.03241e-05
8.11747e-05
8.21775e-05
8.33949e-05
8.42851e-05
8.50957e-05
8.58317e-05
8.64988e-05
8.71241e-05
8.77215e-05
8.83082e-05
8.88885e-05
8.94723e-05
9.00639e-05
9.06724e-05
9.12965e-05
9.19477e-05
9.26238e-05
9.33352e-05
9.40782e-05
9.48688e-05
9.56958e-05
9.65838e-05
9.75071e-05
9.85162e-05
9.95531e-05
0.000100699
0.000101876
0.000103176
0.000104556
0.000106012
0.000107674
0.000109342
0.000111349
0.00011345
0.000115697
0.000118083
0.000121025
0.000124303
0.000127973
0.000132402
0.000136786
0.000141713
0.000147256
0.000153176
0.000159347
0.000165332
0.000171386
0.000177429
0.000183446
0.000188938
0.000193685
0.000197426
0.000200101
0.000202095
0.000203442
0.000204822
0.000205021
0.000203752
0.000202252
0.000197914
0.000194667
0.000188862
0.000184541
0.000177448
0.000172715
0.000167254
0.00015953
0.000149906
0.000147957
0.000148642
0.000150952
0.000156383
0.000195317
6.52568e-05
7.6967e-05
7.78153e-05
7.86995e-05
7.98825e-05
8.07722e-05
8.15537e-05
8.22516e-05
8.28742e-05
8.34462e-05
8.3983e-05
8.44985e-05
8.50003e-05
8.5494e-05
8.59863e-05
8.64846e-05
8.69855e-05
8.75032e-05
8.80285e-05
8.85796e-05
8.91401e-05
8.97386e-05
9.03492e-05
9.10051e-05
9.16795e-05
9.24064e-05
9.31618e-05
9.39682e-05
9.48277e-05
9.5724e-05
9.67125e-05
9.77328e-05
9.88595e-05
0.000100066
0.00010135
0.000102847
0.000104347
0.000106144
0.000108145
0.000110176
0.000112461
0.000115472
0.000118336
0.000121779
0.000125898
0.000130327
0.000135004
0.000139723
0.000144616
0.000149746
0.000155
0.000160098
0.000164657
0.000168488
0.000171603
0.000173902
0.000175495
0.000177556
0.000178302
0.000178674
0.000178097
0.000175158
0.000172931
0.000168494
0.000165335
0.00015981
0.000156452
0.000152335
0.000146146
0.000138501
0.00013694
0.000137463
0.000139726
0.000144832
0.000181931
6.20204e-05
7.35282e-05
7.43592e-05
7.52392e-05
7.63534e-05
7.7315e-05
7.80829e-05
7.87677e-05
7.93723e-05
7.99174e-05
8.04195e-05
8.08902e-05
8.13395e-05
8.17719e-05
8.2194e-05
8.26143e-05
8.30269e-05
8.3449e-05
8.38666e-05
8.4302e-05
8.47339e-05
8.51926e-05
8.56526e-05
8.61392e-05
8.66398e-05
8.71638e-05
8.77167e-05
8.82861e-05
8.89055e-05
8.95345e-05
9.02225e-05
9.09474e-05
9.17053e-05
9.25532e-05
9.34099e-05
9.44107e-05
9.54394e-05
9.65766e-05
9.79058e-05
9.9239e-05
0.000100928
0.000102672
0.000104633
0.000106721
0.000109369
0.000112271
0.000115569
0.000119038
0.000122651
0.000126635
0.000130799
0.000135137