/*--------------------------------*- C++ -*----------------------------------*\
| =========                 |                                                 |
| \\      /  F ield         | OpenFOAM: The Open Source CFD Toolbox           |
|  \\    /   O peration     | Version:  2.4.0                                 |
|   \\  /    A nd           | Web:      www.OpenFOAM.org                      |
|    \\/     M anipulation  |                                                 |
\*---------------------------------------------------------------------------*/
FoamFile
{
    version     2.0;
    format      ascii;
    class       surfaceScalarField;
    location    "0.59";
    object      phi_0;
}
// * * * * * * * * * * * * * * * * * * * * * * * * * * * * * * * * * * * * * //

dimensions      [0 3 -1 0 0 0 0];

internalField   nonuniform List<scalar> 
4456
(
2.26787e-06
2.32134e-07
2.6133e-06
-3.45439e-07
2.77786e-06
-1.64554e-07
2.41011e-06
3.67749e-07
2.53677e-06
-1.26661e-07
2.41142e-06
1.25349e-07
2.4412e-06
-2.9782e-08
2.4679e-06
-2.66917e-08
2.68486e-06
-2.1696e-07
2.01658e-06
6.68274e-07
2.36585e-06
-3.49272e-07
2.3511e-06
1.47507e-08
2.08847e-06
2.62633e-07
3.11888e-06
-1.03041e-06
2.53004e-06
5.88836e-07
2.85481e-06
-3.24769e-07
2.95642e-06
-1.01613e-07
2.42667e-06
5.29754e-07
2.64031e-06
-2.13643e-07
-3.06415e-07
2.94673e-06
2.3597e-06
3.72438e-07
2.19195e-06
-1.77687e-07
2.56436e-06
-5.36973e-07
2.5605e-06
3.71609e-07
2.4624e-06
-2.85549e-08
2.58297e-06
4.78053e-09
2.56504e-06
-1.18519e-08
2.3425e-06
1.95846e-07
2.72751e-06
-6.01974e-07
2.79108e-06
6.04709e-07
2.60808e-06
-1.66273e-07
3.05997e-06
-4.37146e-07
2.70862e-06
6.13988e-07
2.28323e-06
-6.05018e-07
3.1481e-06
-2.76028e-07
2.93232e-06
-1.08999e-07
2.755e-06
7.57095e-08
2.8216e-06
4.63155e-07
2.64784e-06
-3.98861e-08
-1.21466e-07
2.4629e-06
2.59399e-06
2.78449e-07
2.47793e-06
-6.16312e-08
2.58417e-06
-6.43206e-07
2.58331e-06
3.72463e-07
2.8048e-06
-2.50042e-07
2.70403e-06
1.05553e-07
2.53589e-06
1.56286e-07
2.582e-06
1.49736e-07
2.29353e-06
-3.13508e-07
2.94995e-06
-5.17033e-08
2.69769e-06
8.59812e-08
2.22106e-06
3.94894e-08
2.92469e-06
-8.96409e-08
2.85122e-06
-5.31552e-07
3.05635e-06
-4.81155e-07
3.08471e-06
-1.37359e-07
3.15456e-06
5.85833e-09
3.13072e-06
4.8699e-07
2.60887e-06
4.81964e-07
-1.94247e-07
2.68165e-06
2.58111e-06
1.9734e-07
2.66044e-06
-1.40966e-07
2.35501e-06
-3.37772e-07
2.63769e-06
8.97861e-08
2.45133e-06
-6.36888e-08
2.48816e-06
6.873e-08
2.65636e-06
-1.19168e-08
2.4109e-06
3.95194e-07
2.49285e-06
-3.95462e-07
2.86168e-06
-4.20532e-07
2.71383e-06
2.33835e-07
2.45741e-06
2.95905e-07
2.54668e-06
-1.78911e-07
2.62957e-06
-6.14435e-07
2.80849e-06
-6.60075e-07
2.93883e-06
-2.67705e-07
2.89243e-06
5.22574e-08
2.90268e-06
4.76745e-07
2.82351e-06
5.61134e-07
-5.81617e-08
2.68742e-06
2.42917e-06
2.68175e-07
2.43998e-06
-1.51781e-07
2.41632e-06
-3.14113e-07
2.5117e-06
-5.58877e-09
2.35239e-06
9.56125e-08
2.50245e-06
-8.13252e-08
2.68181e-06
-1.91279e-07
2.4542e-06
6.2281e-07
2.51177e-06
-4.53035e-07
2.54645e-06
-4.55213e-07
2.78185e-06
-1.56332e-09
2.75076e-06
3.26988e-07
2.44024e-06
1.31616e-07
2.85584e-06
-1.03004e-06
2.83435e-06
-6.38584e-07
2.90905e-06
-3.4241e-07
2.97093e-06
-9.61882e-09
2.99372e-06
4.53958e-07
2.97463e-06
5.80219e-07
2.11329e-07
2.70514e-06
2.50658e-06
2.616e-07
2.36263e-06
-7.83998e-09
2.50006e-06
-4.51541e-07
2.4841e-06
1.03692e-08
2.45308e-06
1.2664e-07
2.41347e-06
-4.17208e-08
2.5477e-06
-3.2551e-07
2.56541e-06
6.05102e-07
2.47946e-06
-3.67086e-07
2.70047e-06
-6.76218e-07
2.7228e-06
-2.38902e-08
2.58494e-06
4.64848e-07
2.7938e-06
-7.72497e-08
2.70886e-06
-9.45099e-07
2.69051e-06
-6.20232e-07
2.99148e-06
-6.43377e-07
3.06436e-06
-8.24986e-08
3.0083e-06
5.10012e-07
2.8838e-06
7.04719e-07
2.19319e-07
2.87581e-06
2.61757e-06
1.44025e-07
2.45037e-06
1.59365e-07
2.37567e-06
-3.76845e-07
2.57806e-06
-1.92015e-07
2.50719e-06
1.97513e-07
2.33138e-06
1.34087e-07
2.55576e-06
-5.49893e-07
2.60152e-06
5.59347e-07
2.50194e-06
-2.67515e-07
2.53907e-06
-7.13341e-07
2.68869e-06
-1.73511e-07
2.92179e-06
2.31743e-07
2.67202e-06
1.7252e-07
2.73817e-06
-1.01124e-06
3.02298e-06
-9.05042e-07
2.93002e-06
-5.50425e-07
2.88022e-06
-3.26985e-08
2.89497e-06
4.95266e-07
2.93542e-06
6.64273e-07
2.24808e-07
2.92993e-06
2.51997e-06
1.24052e-07
2.49695e-06
1.82389e-07
2.53636e-06
-4.16256e-07
2.52719e-06
-1.8285e-07
2.54541e-06
1.79293e-07
2.43023e-06
2.49271e-07
2.61852e-06
-7.38185e-07
2.80698e-06
3.70887e-07
2.50615e-06
3.33156e-08
2.4963e-06
-7.03489e-07
2.69401e-06
-3.71219e-07
2.76483e-06
1.6092e-07
2.91695e-06
2.04012e-08
3.00803e-06
-1.10232e-06
2.93569e-06
-8.32701e-07
2.84952e-06
-4.64258e-07
2.86228e-06
-4.5461e-08
2.84126e-06
5.16285e-07
2.89789e-06
6.07647e-07
9.93648e-08
3.02333e-06
2.5597e-06
6.43551e-08
2.61479e-06
1.27297e-07
2.56504e-06
-3.66503e-07
2.46618e-06
-8.39937e-08
2.39584e-06
2.49638e-07
2.40733e-06
2.37777e-07
2.45101e-06
-7.8187e-07
2.76253e-06
5.93716e-08
2.64897e-06
1.46876e-07
2.62719e-06
-6.81713e-07
2.76919e-06
-5.13216e-07
2.75173e-06
1.78383e-07
2.89751e-06
-1.25382e-07
2.92276e-06
-1.12757e-06
2.85459e-06
-7.64524e-07
2.77584e-06
-3.85517e-07
2.85111e-06
-1.20729e-07
2.96435e-06
4.03045e-07
3.0004e-06
5.71595e-07
2.47083e-07
2.85269e-06
2.50224e-06
6.21195e-08
2.58397e-06
4.55636e-08
2.47556e-06
-2.58097e-07
2.49095e-06
-9.93819e-08
2.50962e-06
2.30969e-07
2.42736e-06
3.20038e-07
2.51444e-06
-8.68949e-07
2.59702e-06
-2.32113e-08
2.57062e-06
1.73272e-07
2.68882e-06
-7.99906e-07
2.85441e-06
-6.7881e-07
2.90384e-06
1.28954e-07
2.8949e-06
-1.16439e-07
3.02089e-06
-1.25357e-06
3.09632e-06
-8.39948e-07
3.08815e-06
-3.77349e-07
2.97093e-06
-3.51474e-09
3.04737e-06
3.26611e-07
3.09383e-06
5.25129e-07
6.03325e-07
2.73759e-06
2.49617e-06
6.59467e-08
2.42861e-06
1.13125e-07
2.52079e-06
-3.50279e-07
2.54533e-06
-1.23923e-07
2.45439e-06
3.21913e-07
2.62471e-06
1.49718e-07
2.71057e-06
-9.54809e-07
2.38863e-06
2.98727e-07
2.41404e-06
1.47865e-07
2.82489e-06
-1.21076e-06
2.95127e-06
-8.05181e-07
2.93921e-06
1.41013e-07
2.94029e-06
-1.17517e-07
2.95641e-06
-1.26969e-06
3.28518e-06
-1.16872e-06
3.5032e-06
-5.95365e-07
3.28123e-06
2.18451e-07
3.3958e-06
2.12044e-07
3.27722e-06
6.43709e-07
7.51583e-07
3.12896e-06
2.47653e-06
8.94183e-08
2.40867e-06
1.80988e-07
2.52078e-06
-4.62391e-07
2.65596e-06
-2.59103e-07
2.38266e-06
5.95211e-07
2.76489e-06
-2.32512e-07
2.63377e-06
-8.23689e-07
2.30758e-06
6.24913e-07
2.48763e-06
-3.21806e-08
2.63271e-06
-1.35584e-06
2.87474e-06
-1.04721e-06
2.98404e-06
3.17086e-08
2.79333e-06
7.31951e-08
3.13559e-06
-1.61195e-06
3.65082e-06
-1.68395e-06
3.78322e-06
-7.27759e-07
3.78561e-06
2.16056e-07
3.6725e-06
3.25151e-07
3.40805e-06
9.08164e-07
9.87439e-07
3.17219e-06
2.50391e-06
8.55078e-08
2.38428e-06
3.00613e-07
2.60494e-06
-6.83044e-07
2.528e-06
-1.82168e-07
2.41062e-06
7.12591e-07
2.74233e-06
-5.64217e-07
2.41345e-06
-4.9481e-07
2.32029e-06
7.18075e-07
2.62696e-06
-3.38857e-07
2.63948e-06
-1.36836e-06
2.42406e-06
-8.31792e-07
2.51913e-06
-6.3361e-08
3.08113e-06
-4.88803e-07
3.63262e-06
-2.16344e-06
3.83953e-06
-1.89086e-06
3.89905e-06
-7.87277e-07
3.75458e-06
3.60518e-07
3.32488e-06
7.54857e-07
2.92208e-06
1.31096e-06
1.18819e-06
2.72133e-06
2.4723e-06
1.13205e-07
2.565e-06
2.07912e-07
2.5878e-06
-7.05843e-07
2.48269e-06
-7.70529e-08
2.4799e-06
7.15379e-07
2.68928e-06
-7.73597e-07
2.43332e-06
-2.38852e-07
2.38098e-06
7.70416e-07
2.67474e-06
-6.32622e-07
2.50016e-06
-1.19377e-06
2.12382e-06
-4.55455e-07
2.35141e-06
-2.90948e-07
3.1168e-06
-1.2542e-06
3.55192e-06
-2.59856e-06
3.67796e-06
-2.0169e-06
3.48633e-06
-5.95651e-07
3.28782e-06
5.59035e-07
2.9687e-06
1.07398e-06
2.71532e-06
1.56434e-06
1.18048e-06
2.72303e-06
2.51988e-06
9.33217e-08
2.65469e-06
7.31008e-08
2.45396e-06
-5.05113e-07
2.3125e-06
6.44119e-08
2.57685e-06
4.51029e-07
2.53282e-06
-7.29564e-07
2.29051e-06
3.45592e-09
2.56448e-06
4.96448e-07
2.62127e-06
-6.89414e-07
2.24543e-06
-8.17933e-07
1.9581e-06
-1.68127e-07
2.4791e-06
-8.11949e-07
3.07066e-06
-1.84576e-06
3.25448e-06
-2.78238e-06
3.01022e-06
-1.77263e-06
2.8883e-06
-4.73732e-07
2.89651e-06
5.50823e-07
2.77244e-06
1.19805e-06
2.89891e-06
1.43786e-06
1.35487e-06
2.72452e-06
2.54297e-06
5.03567e-08
2.52329e-06
9.27793e-08
2.33328e-06
-3.15107e-07
2.32157e-06
7.61202e-08
2.57637e-06
1.96233e-07
2.42292e-06
-5.76113e-07
2.31708e-06
1.09297e-07
2.59263e-06
2.2089e-07
2.55394e-06
-6.5072e-07
2.21098e-06
-4.74977e-07
2.18369e-06
-1.40837e-07
2.64865e-06
-1.2769e-06
2.88106e-06
-2.07817e-06
2.69709e-06
-2.59841e-06
2.3149e-06
-1.39044e-06
2.24903e-06
-4.07861e-07
2.34556e-06
4.54284e-07
2.44391e-06
1.09971e-06
2.41741e-06
1.46436e-06
1.42727e-06
2.34501e-06
2.49199e-06
5.83654e-08
2.45133e-06
1.3344e-07
2.46504e-06
-3.28817e-07
2.52445e-06
1.67122e-08
2.6894e-06
3.12853e-08
2.4811e-06
-3.6782e-07
2.31157e-06
2.7883e-07
2.50437e-06
2.80945e-08
2.46331e-06
-6.0966e-07
2.28532e-06
-2.96994e-07
2.42614e-06
-2.81653e-07
2.4006e-06
-1.25136e-06
2.17973e-06
-1.85731e-06
1.91361e-06
-2.33228e-06
1.53601e-06
-1.01284e-06
1.29368e-06
-1.65529e-07
1.43741e-06
3.10548e-07
1.55648e-06
9.80638e-07
1.84819e-06
1.17264e-06
1.19517e-06
2.08029e-06
2.4186e-06
1.39767e-07
2.53209e-06
1.99463e-08
2.57514e-06
-3.71862e-07
2.56869e-06
2.31587e-08
2.65387e-06
-5.38936e-08
2.45635e-06
-1.70305e-07
2.31709e-06
4.18093e-07
2.40698e-06
-6.17996e-08
2.24912e-06
-4.51793e-07
2.24996e-06
-2.97841e-07
2.24782e-06
-2.79507e-07
1.89507e-06
-8.98612e-07
1.62672e-06
-1.58896e-06
1.16698e-06
-1.87254e-06
5.97698e-07
-4.43554e-07
2.75757e-07
1.56412e-07
5.92849e-07
-6.54407e-09
1.17489e-06
3.98598e-07
1.44626e-06
9.01269e-07
9.37949e-07
1.70349e-06
2.46981e-06
1.69959e-07
2.61895e-06
-1.29195e-07
2.5635e-06
-3.16408e-07
2.47774e-06
1.08911e-07
2.38357e-06
4.02761e-08
2.23965e-06
-2.63852e-08
2.46042e-06
1.97325e-07
2.35635e-06
4.22701e-08
2.17263e-06
-2.68073e-07
2.16022e-06
-2.85426e-07
1.96957e-06
-8.88559e-08
1.69753e-06
-6.26577e-07
1.10984e-06
-1.00126e-06
4.69652e-08
-8.09669e-07
-8.34026e-08
-3.13187e-07
-7.99196e-08
1.52929e-07
2.87922e-07
-3.74386e-07
7.57306e-07
-7.07852e-08
9.52271e-07
7.06304e-07
5.54315e-07
1.33591e-06
2.66996e-06
2.54076e-06
2.22436e-06
2.33327e-06
2.37354e-06
2.34716e-06
2.54448e-06
2.58675e-06
2.31868e-06
2.03325e-06
1.9444e-06
1.31782e-06
3.16557e-07
-4.93112e-07
-8.06298e-07
-6.53369e-07
-1.02776e-06
-1.09854e-06
-3.92237e-07
1.62078e-07
2.6003e-06
3.4643e-07
2.75453e-06
-1.54234e-07
2.8095e-06
-5.49667e-08
3.67967e-06
-8.70176e-07
2.48047e-06
1.19921e-06
1.45118e-06
1.02928e-06
3.92006e-06
-2.46887e-06
1.16642e-07
3.80342e-06
2.8003e-06
9.02294e-09
2.83754e-06
-1.91473e-07
2.50651e-06
2.76064e-07
3.05824e-06
-1.4219e-06
3.28918e-06
9.68259e-07
3.72698e-06
5.91492e-07
2.77386e-06
-1.51576e-06
1.43075e-08
2.8762e-06
2.83002e-06
-1.39341e-07
3.19932e-06
-5.60779e-07
3.13597e-06
3.39422e-07
2.37252e-06
-6.58453e-07
3.36144e-06
-2.06639e-08
3.3239e-06
6.29036e-07
2.89849e-06
-1.09036e-06
-8.35994e-07
3.74879e-06
2.68047e-06
-1.32388e-07
2.81021e-06
-6.90515e-07
3.26961e-06
-1.19982e-07
2.90084e-06
-2.89682e-07
3.33576e-06
-4.55589e-07
3.57173e-06
3.93069e-07
3.59248e-06
-1.1111e-06
-1.11716e-06
3.87364e-06
2.83251e-06
-2.59752e-07
2.7948e-06
-6.52815e-07
2.97708e-06
-3.0226e-07
3.08478e-06
-3.97381e-07
3.11881e-06
-4.89616e-07
3.54616e-06
-3.42761e-08
3.51278e-06
-1.07773e-06
-1.08409e-06
3.47971e-06
2.78444e-06
-1.68374e-07
2.71922e-06
-5.87594e-07
2.92148e-06
-5.04522e-07
3.00729e-06
-4.83195e-07
3.18988e-06
-6.72203e-07
3.42153e-06
-2.6593e-07
3.3118e-06
-9.67994e-07
-1.27819e-06
3.50591e-06
2.96108e-06
-1.99528e-07
2.81338e-06
-4.39894e-07
3.08326e-06
-7.74403e-07
3.06414e-06
-4.64076e-07
3.10886e-06
-7.16915e-07
3.48197e-06
-6.39047e-07
3.43107e-06
-9.17096e-07
-1.31139e-06
3.46427e-06
2.91341e-06
-8.96073e-08
2.86774e-06
-3.94221e-07
2.79535e-06
-7.02015e-07
2.76604e-06
-4.34768e-07
2.98212e-06
-9.32989e-07
3.35295e-06
-1.00988e-06
3.53427e-06
-1.09842e-06
-1.27169e-06
3.49457e-06
2.82819e-06
-6.51084e-08
2.92096e-06
-4.86998e-07
2.71211e-06
-4.93156e-07
2.62958e-06
-3.52245e-07
2.93763e-06
-1.24104e-06
3.27907e-06
-1.35131e-06
3.24299e-06
-1.06235e-06
-1.5312e-06
3.5025e-06
2.77139e-06
-9.89085e-08
2.71794e-06
-4.33549e-07
2.51176e-06
-2.86977e-07
2.70243e-06
-5.42916e-07
3.04231e-06
-1.58092e-06
3.1249e-06
-1.4339e-06
3.18831e-06
-1.12575e-06
-1.80343e-06
3.46054e-06
3.0686e-06
-3.8552e-08
2.69498e-06
-5.99252e-08
2.63862e-06
-2.30612e-07
2.6769e-06
-5.81202e-07
2.68938e-06
-1.5934e-06
2.89767e-06
-1.64219e-06
3.17969e-06
-1.40777e-06
-1.95087e-06
3.32713e-06
2.93991e-06
1.93726e-07
2.88179e-06
-1.79994e-09
2.70474e-06
-5.35672e-08
2.71219e-06
-5.88652e-07
2.68689e-06
-1.5681e-06
2.63028e-06
-1.58558e-06
2.9475e-06
-1.72499e-06
-2.04291e-06
3.03953e-06
2.65998e-06
2.55072e-07
2.74822e-06
-9.00363e-08
2.59945e-06
9.52026e-08
2.79898e-06
-7.88184e-07
2.65268e-06
-1.4218e-06
2.71124e-06
-1.64413e-06
2.86981e-06
-1.88355e-06
-1.94881e-06
2.77571e-06
2.79262e-06
1.85486e-07
2.78786e-06
-8.5277e-08
2.76094e-06
1.22119e-07
2.77943e-06
-8.06677e-07
2.71571e-06
-1.35808e-06
2.74411e-06
-1.67253e-06
2.39102e-06
-1.53046e-06
-1.97619e-06
2.4184e-06
2.7798e-06
1.30211e-07
2.80635e-06
-1.11831e-07
2.76826e-06
1.60213e-07
2.64195e-06
-6.80363e-07
2.49091e-06
-1.20704e-06
2.3443e-06
-1.52592e-06
2.10941e-06
-1.29558e-06
-1.972e-06
2.10523e-06
2.38463e-06
9.05905e-08
2.41811e-06
-1.45302e-07
2.46931e-06
1.09006e-07
2.25543e-06
-4.66478e-07
2.08038e-06
-1.03199e-06
1.9001e-06
-1.34564e-06
1.69271e-06
-1.08819e-06
-1.93912e-06
1.65982e-06
2.00791e-06
1.6297e-07
2.08194e-06
-2.19332e-07
2.05509e-06
1.35857e-07
1.84333e-06
-2.54719e-07
1.70449e-06
-8.93158e-07
1.41869e-06
-1.05984e-06
1.29776e-06
-9.67256e-07
-1.66768e-06
1.02632e-06
1.78391e-06
8.2543e-08
1.81667e-06
-2.52092e-07
1.72455e-06
2.27977e-07
1.58534e-06
-1.15509e-07
1.34021e-06
-6.4802e-07
1.10505e-06
-8.24686e-07
1.04271e-06
-9.04914e-07
-1.18315e-06
5.58181e-07
1.25744e-06
1.61012e-07
1.21679e-06
-2.1145e-07
1.36629e-06
7.84773e-08
1.40836e-06
-1.57571e-07
1.15696e-06
-3.96626e-07
8.53591e-07
-5.21317e-07
6.03364e-07
-6.54687e-07
-7.14873e-07
1.35083e-07
6.45439e-07
-3.22348e-07
1.12315e-06
-6.89163e-07
1.21006e-06
-8.43617e-09
1.20817e-06
-1.55677e-07
1.08911e-06
-2.77562e-07
7.94408e-07
-2.26617e-07
5.74042e-07
-4.34322e-07
2.70047e-07
-4.10877e-07
3.77312e-06
3.02913e-08
3.6273e-06
1.45825e-07
4.97405e-06
-1.34675e-06
6.19536e-06
-1.22131e-06
5.55657e-06
6.38791e-07
7.13272e-06
-1.57616e-06
7.44619e-06
-3.1347e-07
8.31414e-06
-8.67943e-07
8.39216e-06
-7.80219e-08
8.90973e-06
-5.17572e-07
9.33304e-06
-4.23305e-07
1.02061e-05
-8.73088e-07
1.09145e-05
-7.08386e-07
1.18098e-05
-8.95264e-07
1.25598e-05
-7.50012e-07
1.27877e-05
-2.27882e-07
1.30878e-05
-3.00084e-07
1.27529e-05
3.34841e-07
1.23151e-05
4.37794e-07
1.13096e-05
1.0055e-06
1.05224e-05
7.87228e-07
9.35594e-06
1.16645e-06
8.61513e-06
7.40806e-07
8.18314e-06
4.31994e-07
7.75176e-06
4.31376e-07
7.60337e-06
1.4839e-07
6.18833e-06
1.41504e-06
1.58485e-07
6.02984e-06
4.09262e-06
-1.18613e-06
4.15798e-06
8.04705e-08
5.05712e-06
-2.24589e-06
5.28884e-06
-1.45303e-06
5.5503e-06
3.77329e-07
6.66152e-06
-2.68737e-06
6.85641e-06
-5.08366e-07
7.74385e-06
-1.75538e-06
8.45767e-06
-7.91841e-07
9.18823e-06
-1.24813e-06
9.73465e-06
-9.69732e-07
1.03966e-05
-1.53507e-06
1.09638e-05
-1.27553e-06
1.15077e-05
-1.43922e-06
1.1915e-05
-1.15727e-06
1.19662e-05
-2.79133e-07
1.2341e-05
-6.74805e-07
1.19938e-05
6.82024e-07
1.18688e-05
5.62739e-07
1.12065e-05
1.66788e-06
1.07582e-05
1.23546e-06
9.83201e-06
2.09267e-06
9.24712e-06
1.32569e-06
8.55959e-06
1.11953e-06
7.6203e-06
1.37066e-06
7.30686e-06
4.61829e-07
5.89919e-06
2.82272e-06
8.19478e-07
5.23819e-06
3.81734e-06
-1.25468e-06
4.8879e-06
-9.90084e-07
4.64457e-06
-2.00257e-06
5.08139e-06
-1.88985e-06
6.2878e-06
-8.29073e-07
6.21341e-06
-2.61299e-06
6.73759e-06
-1.03255e-06
7.65253e-06
-2.67032e-06
8.22492e-06
-1.36423e-06
9.11189e-06
-2.1351e-06
9.70249e-06
-1.56033e-06
1.05805e-05
-2.41312e-06
1.11553e-05
-1.85027e-06
1.1543e-05
-1.82693e-06
1.1857e-05
-1.47129e-06
1.20615e-05
-4.83572e-07
1.20858e-05
-6.99126e-07
1.19525e-05
8.15333e-07
1.17261e-05
7.89086e-07
1.14704e-05
1.92358e-06
1.07616e-05
1.9443e-06
1.04371e-05
2.4171e-06
9.39539e-06
2.36745e-06
8.66277e-06
1.85215e-06
7.20658e-06
2.82685e-06
6.60329e-06
1.06512e-06
5.88985e-06
3.53617e-06
1.08122e-06
5.6281e-06
3.76247e-06
-1.14351e-06
4.88175e-06
-2.10937e-06
4.9175e-06
-2.03832e-06
5.80574e-06
-2.77809e-06
6.31395e-06
-1.33729e-06
6.30877e-06
-2.6078e-06
7.57653e-06
-2.30031e-06
7.83712e-06
-2.93091e-06
8.61244e-06
-2.13955e-06
9.31073e-06
-2.83339e-06
9.87865e-06
-2.12825e-06
1.06306e-05
-3.16506e-06
1.10976e-05
-2.31734e-06
1.1546e-05
-2.27529e-06
1.18823e-05
-1.80753e-06
1.21484e-05
-7.49715e-07
1.21462e-05
-6.96882e-07
1.20496e-05
9.11841e-07
1.19209e-05
9.17804e-07
1.14799e-05
2.36463e-06
1.0924e-05
2.50021e-06
1.01568e-05
3.18424e-06
9.38655e-06
3.13772e-06
8.60657e-06
2.63213e-06
7.72054e-06
3.71288e-06
7.0089e-06
1.77675e-06
6.37667e-06
4.1684e-06
1.46092e-06
5.99697e-06
3.85541e-06
-1.51921e-06
4.44827e-06
-2.70223e-06
4.62232e-06
-2.21236e-06
5.1335e-06
-3.28927e-06
5.73599e-06
-1.93978e-06
6.56536e-06
-3.43717e-06
7.46879e-06
-3.20374e-06
7.69188e-06
-3.15399e-06
8.67938e-06
-3.12705e-06
9.26813e-06
-3.42214e-06
9.96105e-06
-2.82117e-06
1.0538e-05
-3.74203e-06
1.1031e-05
-2.81034e-06
1.15066e-05
-2.75084e-06
1.1764e-05
-2.06491e-06
1.20105e-05
-9.96287e-07
1.20561e-05
-7.42415e-07
1.19766e-05
9.91314e-07
1.17611e-05
1.1333e-06
1.13369e-05
2.78886e-06
1.08058e-05
3.03129e-06
1.01074e-05
3.88267e-06
9.27354e-06
3.97154e-06
8.40687e-06
3.49879e-06
7.60099e-06
4.51876e-06
6.65963e-06
2.71811e-06
6.09244e-06
4.73559e-06
2.45809e-06
5.09528e-06
3.80295e-06
-1.81625e-06
4.06029e-06
-2.95958e-06
4.69309e-06
-2.84516e-06
5.1436e-06
-3.73978e-06
5.97254e-06
-2.76872e-06
6.73497e-06
-4.1996e-06
7.23639e-06
-3.70516e-06
7.8611e-06
-3.7787e-06
8.59343e-06
-3.85938e-06
9.04675e-06
-3.87545e-06
9.86877e-06
-3.64319e-06
1.02471e-05
-4.12035e-06
1.07642e-05
-3.32745e-06
1.12864e-05
-3.27307e-06
1.15091e-05
-2.28758e-06
1.18282e-05
-1.31536e-06
1.18008e-05
-7.15032e-07
1.17731e-05
1.01904e-06
1.15982e-05
1.30816e-06
1.11138e-05
3.27327e-06
1.05836e-05
3.56151e-06
9.96801e-06
4.49822e-06
9.29232e-06
4.64723e-06
8.47588e-06
4.31523e-06
7.62771e-06
5.36694e-06
6.70495e-06
3.64087e-06
6.0614e-06
5.37915e-06
3.49927e-06
5.02021e-06
3.54317e-06
-1.89515e-06
3.93447e-06
-3.35088e-06
4.70992e-06
-3.62061e-06
4.98643e-06
-4.01628e-06
5.90464e-06
-3.68693e-06
6.44215e-06
-4.73712e-06
7.07298e-06
-4.33599e-06
7.6654e-06
-4.37112e-06
8.04651e-06
-4.24049e-06
8.53067e-06
-4.35961e-06
9.34825e-06
-4.46077e-06
9.6631e-06
-4.43521e-06
1.01948e-05
-3.85911e-06
1.04599e-05
-3.53822e-06
1.05147e-05
-2.34236e-06
1.07812e-05
-1.58189e-06
1.06265e-05
-5.60332e-07
1.07201e-05
9.25429e-07
1.05333e-05
1.49497e-06
1.03066e-05
3.50001e-06
1.00783e-05
3.78975e-06
9.46878e-06
5.10779e-06
8.89045e-06
5.22556e-06
8.24838e-06
4.9573e-06
7.55129e-06
6.06403e-06
6.77568e-06
4.41648e-06
6.1512e-06
6.00363e-06
4.52758e-06
5.12289e-06
3.82478e-06
-2.22537e-06
4.14703e-06
-3.67313e-06
4.37901e-06
-3.85258e-06
4.77152e-06
-4.4088e-06
5.70282e-06
-4.61823e-06
6.03721e-06
-5.07151e-06
6.58532e-06
-4.8841e-06
7.08617e-06
-4.87197e-06
7.47181e-06
-4.62614e-06
7.99294e-06
-4.88073e-06
8.437e-06
-4.90483e-06
8.61053e-06
-4.60874e-06
9.02782e-06
-4.27639e-06
9.0959e-06
-3.6063e-06
9.23767e-06
-2.48413e-06
9.42982e-06
-1.77405e-06
9.21885e-06
-3.49359e-07
9.3343e-06
8.0998e-07
9.09679e-06
1.73248e-06
9.01095e-06
3.58586e-06
8.79814e-06
4.00255e-06
8.46953e-06
5.4364e-06
8.0693e-06
5.62579e-06
7.46665e-06
5.55995e-06
7.00218e-06
6.52849e-06
6.25755e-06
5.16111e-06
5.941e-06
6.32017e-06
5.30028e-06
5.16831e-06
3.87357e-06
-2.59643e-06
3.91358e-06
-3.71314e-06
4.32254e-06
-4.26154e-06
4.8411e-06
-4.92735e-06
5.39698e-06
-5.17411e-06
5.72545e-06
-5.39998e-06
6.15182e-06
-5.31047e-06
6.30487e-06
-5.02501e-06
6.61249e-06
-4.93377e-06
6.91481e-06
-5.18305e-06
7.0705e-06
-5.06052e-06
7.3688e-06
-4.90705e-06
7.63043e-06
-4.53802e-06
7.61761e-06
-3.59349e-06
7.80989e-06
-2.6764e-06
7.78264e-06
-1.7468e-06
7.64783e-06
-2.14541e-07
7.81423e-06
6.43577e-07
7.5716e-06
1.9751e-06
7.62805e-06
3.52941e-06
7.35718e-06
4.27342e-06
7.14006e-06
5.65352e-06
7.00239e-06
5.76346e-06
6.5025e-06
6.05983e-06
6.4254e-06
6.6056e-06
5.84946e-06
5.73705e-06
5.52667e-06
6.64297e-06
5.68963e-06
5.13732e-06
3.60953e-06
-2.74543e-06
3.82752e-06
-3.93112e-06
4.22198e-06
-4.65601e-06
4.58287e-06
-5.28824e-06
4.99353e-06
-5.58477e-06
5.08334e-06
-5.48978e-06
5.009e-06
-5.23614e-06
5.17719e-06
-5.1932e-06
5.50813e-06
-5.26471e-06
5.58896e-06
-5.26388e-06
5.86772e-06
-5.33928e-06
5.95684e-06
-4.99617e-06
5.82254e-06
-4.40372e-06
5.88991e-06
-3.66086e-06
6.03112e-06
-2.81761e-06
6.03619e-06
-1.75188e-06
6.01532e-06
-1.93669e-07
5.96865e-06
6.90247e-07
5.64252e-06
2.30123e-06
5.91226e-06
3.25967e-06
5.85398e-06
4.33171e-06
5.69861e-06
5.8089e-06
5.58457e-06
5.8775e-06
5.23012e-06
6.41428e-06
5.52965e-06
6.30607e-06
5.19489e-06
6.07181e-06
4.88101e-06
6.95684e-06
5.93392e-06
4.63672e-06
3.47141e-06
-2.8897e-06
3.57328e-06
-4.03299e-06
3.79829e-06
-4.88101e-06
3.88355e-06
-5.3735e-06
3.84041e-06
-5.54163e-06
3.70289e-06
-5.35227e-06
3.86332e-06
-5.39656e-06
4.06618e-06
-5.39606e-06
4.04535e-06
-5.24389e-06
4.03428e-06
-5.25281e-06
4.00527e-06
-5.31026e-06
3.816e-06
-4.80691e-06
3.83058e-06
-4.4183e-06
3.98503e-06
-3.81531e-06
3.91558e-06
-2.74816e-06
3.84467e-06
-1.68096e-06
4.0461e-06
-3.95103e-07
4.06886e-06
6.67488e-07
4.00914e-06
2.36096e-06
4.03088e-06
3.23793e-06
3.78267e-06
4.57992e-06
4.03793e-06
5.55364e-06
4.37655e-06
5.53888e-06
3.99307e-06
6.79776e-06
4.28092e-06
6.01822e-06
4.17026e-06
6.18247e-06
4.24703e-06
6.88007e-06
6.01408e-06
4.16686e-06
3.10968e-06
-2.95985e-06
3.17115e-06
-4.09446e-06
3.01136e-06
-4.72122e-06
2.80327e-06
-5.16541e-06
2.76979e-06
-5.50815e-06
2.74433e-06
-5.32681e-06
2.6509e-06
-5.30314e-06
2.52026e-06
-5.26541e-06
2.59285e-06
-5.31648e-06
2.45824e-06
-5.1182e-06
2.20582e-06
-5.05784e-06
2.10797e-06
-4.70905e-06
1.96289e-06
-4.27322e-06
1.73627e-06
-3.5887e-06
1.52658e-06
-2.53847e-06
1.70795e-06
-1.86233e-06
1.82008e-06
-5.07235e-07
1.69931e-06
7.88257e-07
1.73833e-06
2.32195e-06
1.96831e-06
3.00794e-06
2.11314e-06
4.43508e-06
2.20041e-06
5.46638e-06
2.45812e-06
5.28116e-06
2.70052e-06
6.55535e-06
3.12546e-06
5.59328e-06
2.94279e-06
6.36514e-06
3.20743e-06
6.61544e-06
5.80365e-06
3.41786e-06
2.9059e-06
-3.09004e-06
2.60583e-06
-3.79439e-06
2.12309e-06
-4.23848e-06
1.89239e-06
-4.93472e-06
1.64497e-06
-5.26073e-06
1.44925e-06
-5.13109e-06
1.47437e-06
-5.32825e-06
1.36388e-06
-5.15492e-06
9.08071e-07
-4.86067e-06
4.68651e-07
-4.67878e-06
2.7361e-07
-4.8628e-06
9.50769e-08
-4.53052e-06
-2.13126e-07
-3.96501e-06
-1.74494e-07
-3.62733e-06
-3.29585e-07
-2.38338e-06
-5.36401e-07
-1.65551e-06
-6.89786e-07
-3.5385e-07
-5.37174e-07
6.35645e-07
-1.1428e-07
1.89905e-06
-2.27363e-07
3.12103e-06
1.54424e-07
4.05329e-06
4.06246e-07
5.21455e-06
7.8802e-07
4.89939e-06
9.73076e-07
6.3703e-06
1.44062e-06
5.12574e-06
1.89106e-06
5.9147e-06
2.32284e-06
6.18365e-06
5.44601e-06
2.68048e-06
2.37979e-06
-3.05143e-06
1.7783e-06
-3.1929e-06
1.06257e-06
-3.52275e-06
7.4112e-07
-4.61327e-06
6.31659e-07
-5.15127e-06
4.59806e-07
-4.95924e-06
7.40564e-08
-4.9425e-06
-2.89409e-07
-4.79145e-06
-4.86354e-07
-4.66373e-06
-1.01521e-06
-4.14993e-06
-1.58031e-06
-4.2977e-06
-1.8251e-06
-4.28573e-06
-2.1105e-06
-3.67961e-06
-2.48534e-06
-3.25249e-06
-2.65676e-06
-2.21196e-06
-2.81243e-06
-1.49985e-06
-2.86184e-06
-3.0444e-07
-2.7258e-06
4.9961e-07
-2.576e-06
1.74926e-06
-2.49232e-06
3.03735e-06
-1.90528e-06
3.46625e-06
-1.44763e-06
4.75691e-06
-1.01378e-06
4.46553e-06
-4.38245e-07
5.79477e-06
-5.26683e-08
4.74017e-06
5.10137e-07
5.35189e-06
1.05898e-06
5.63481e-06
4.80766e-06
1.69733e-06
1.79407e-06
-2.74028e-06
9.25783e-07
-2.32461e-06
3.25257e-07
-2.92222e-06
1.12784e-08
-4.29929e-06
-5.93936e-07
-4.54605e-06
-1.04879e-06
-4.50438e-06
-1.26026e-06
-4.73103e-06
-1.60364e-06
-4.44808e-06
-2.11558e-06
-4.15178e-06
-2.59478e-06
-3.67073e-06
-3.24836e-06
-3.64413e-06
-3.83112e-06
-3.70297e-06
-4.15758e-06
-3.35315e-06
-4.53096e-06
-2.87911e-06
-4.8103e-06
-1.93262e-06
-5.11931e-06
-1.19084e-06
-5.14961e-06
-2.74139e-07
-5.1006e-06
4.50602e-07
-4.95193e-06
1.60058e-06
-4.42464e-06
2.51006e-06
-3.81943e-06
2.86104e-06
-3.44516e-06
4.38264e-06
-2.84097e-06
3.86134e-06
-2.17075e-06
5.12455e-06
-1.59404e-06
4.16346e-06
-5.65161e-07
4.32301e-06
-6.08585e-08
5.13051e-06
4.37435e-06
3.72457e-07
1.12827e-06
-2.20872e-06
5.32401e-07
-1.72874e-06
1.74149e-07
-2.56397e-06
-5.08692e-07
-3.61645e-06
-1.38756e-06
-3.66719e-06
-2.14148e-06
-3.75046e-06
-2.73803e-06
-4.13448e-06
-3.13745e-06
-4.04867e-06
-3.69397e-06
-3.59525e-06
-4.32904e-06
-3.03566e-06
-4.96494e-06
-3.00823e-06
-5.63515e-06
-3.03276e-06
-6.17486e-06
-2.81344e-06
-6.62534e-06
-2.42863e-06
-6.91314e-06
-1.64482e-06
-7.13532e-06
-9.68652e-07
-7.17165e-06
-2.37808e-07
-7.13939e-06
4.18342e-07
-6.86735e-06
1.32854e-06
-6.26312e-06
1.90582e-06
-5.9155e-06
2.51342e-06
-5.2576e-06
3.72473e-06
-4.49395e-06
3.09769e-06
-3.74555e-06
4.37615e-06
-3.03343e-06
3.45133e-06
-2.21023e-06
3.49981e-06
-1.29128e-06
4.21155e-06
3.57711e-06
-4.94038e-07
5.79261e-07
-1.76166e-06
3.1313e-07
-1.46261e-06
9.68509e-08
-2.34769e-06
-8.347e-07
-2.6849e-06
-2.03093e-06
-2.47096e-06
-2.78207e-06
-2.99931e-06
-3.6034e-06
-3.31316e-06
-4.39457e-06
-3.25749e-06
-5.17945e-06
-2.81037e-06
-5.88979e-06
-2.32533e-06
-6.6119e-06
-2.28612e-06
-7.33658e-06
-2.30808e-06
-7.95116e-06
-2.19886e-06
-8.5087e-06
-1.8711e-06
-8.84459e-06
-1.30893e-06
-9.05882e-06
-7.54415e-07
-9.09294e-06
-2.03687e-07
-9.00332e-06
3.28714e-07
-8.67042e-06
9.95642e-07
-8.16734e-06
1.40274e-06
-7.73197e-06
2.07805e-06
-6.81895e-06
2.81171e-06
-6.10933e-06
2.38807e-06
-5.30663e-06
3.57345e-06
-4.54331e-06
2.68802e-06
-3.41435e-06
2.37086e-06
-2.36175e-06
3.15896e-06
2.9953e-06
-1.77994e-06
4.18124e-08
-1.24529e-06
7.4556e-08
-1.49535e-06
-5.24211e-07
-1.74892e-06
-1.7352e-06
-1.47391e-06
-2.57719e-06
-1.62897e-06
-3.52533e-06
-2.05117e-06
-4.62975e-06
-2.20874e-06
-5.57677e-06
-2.31047e-06
-6.50195e-06
-1.88519e-06
-7.27347e-06
-1.5538e-06
-8.02999e-06
-1.5296e-06
-8.81874e-06
-1.51933e-06
-9.49127e-06
-1.52633e-06
-1.00958e-05
-1.26655e-06
-1.04565e-05
-9.48271e-07
-1.06783e-05
-5.32558e-07
-1.06863e-05
-1.9573e-07
-1.0552e-05
1.94428e-07
-1.01872e-05
6.30823e-07
-9.72262e-06
9.38189e-07
-9.16788e-06
1.52331e-06
-8.16475e-06
1.80858e-06
-7.4853e-06
1.70862e-06
-6.56472e-06
2.65287e-06
-5.60991e-06
1.7332e-06
-4.69273e-06
1.45368e-06
-3.86784e-06
2.33406e-06
1.63852e-06
-2.51106e-06
-2.38632e-07
-8.71578e-07
-5.12667e-07
-1.22132e-06
-1.55897e-06
-7.02622e-07
-2.65526e-06
-3.77613e-07
-3.47378e-06
-8.10453e-07
-4.44176e-06
-1.08319e-06
-5.44363e-06
-1.20687e-06
-6.50115e-06
-1.25295e-06
-7.49237e-06
-8.93975e-07
-8.32574e-06
-7.20439e-07
-9.11661e-06
-7.38728e-07
-9.86596e-06
-7.69987e-07
-1.06121e-05
-7.80166e-07
-1.12263e-05
-6.52364e-07
-1.16597e-05
-5.14898e-07
-1.18835e-05
-3.08763e-07
-1.19215e-05
-1.57706e-07
-1.17718e-05
4.47193e-08
-1.14146e-05
2.73619e-07
-1.09207e-05
4.44263e-07
-1.01881e-05
7.90776e-07
-9.19626e-06
8.16722e-07
-8.46019e-06
9.72546e-07
-7.29493e-06
1.48762e-06
-6.42981e-06
8.68082e-07
-5.70068e-06
7.24544e-07
-4.63082e-06
1.26421e-06
5.1308e-07
-3.50538e-06
-6.01531e-07
-1.82285e-06
-2.52547e-06
-2.90309e-06
-3.71354e-06
-4.79673e-06
-6.0036e-06
-7.25655e-06
-8.15052e-06
-8.87096e-06
-9.60969e-06
-1.03797e-05
-1.11598e-05
-1.18122e-05
-1.23271e-05
-1.26359e-05
-1.27936e-05
-1.27489e-05
-1.24752e-05
-1.2031e-05
-1.12402e-05
-1.04235e-05
-9.45093e-06
-7.96331e-06
-7.09523e-06
-6.37069e-06
-5.10648e-06
-4.5934e-06
4.60968e-06
3.36654e-06
-1.94637e-06
3.92298e-06
1.19424e-06
-5.07541e-07
3.0563e-06
-9.10558e-07
1.77724e-06
2.86799e-06
-3.64958e-07
5.53275e-07
2.69882e-06
1.25127e-06
-1.08211e-06
1.94749e-06
-1.15327e-06
1.90459e-06
-5.76344e-07
-2.37374e-06
4.89758e-06
-3.1072e-06
-2.53948e-06
5.07034e-06
5.48116e-06
3.12357e-06
4.68755e-06
1.98785e-06
3.59877e-06
1.78222e-07
3.44074e-06
-2.06931e-07
3.12242e-06
1.5696e-06
2.23727e-06
-2.68116e-07
6.94568e-08
-2.05932e-07
-2.69973e-06
-3.38017e-07
5.78808e-06
2.9636e-06
5.1273e-06
2.64863e-06
4.37427e-06
9.31247e-07
3.78585e-06
3.81487e-07
4.17963e-06
1.17583e-06
4.01456e-06
-1.0305e-07
1.26681e-06
2.54182e-06
-1.6999e-06
2.6698e-07
5.8229e-06
3.13767e-06
4.88665e-06
3.58488e-06
4.28869e-06
1.52921e-06
4.16458e-06
5.05595e-07
3.35458e-06
1.98583e-06
4.23945e-06
-9.87915e-07
4.92607e-06
1.8552e-06
-4.97086e-07
3.72326e-06
5.0095e-06
3.22345e-06
4.12326e-06
4.47112e-06
3.54174e-06
2.11073e-06
3.6267e-06
4.20636e-07
3.37459e-06
2.23793e-06
3.28912e-06
-9.02451e-07
3.22602e-06
1.9183e-06
3.83502e-07
2.34544e-06
4.7576e-06
3.48606e-06
4.53437e-06
4.69434e-06
3.79774e-06
2.84736e-06
3.29365e-06
9.24724e-07
3.23201e-06
2.29958e-06
2.62797e-06
-2.98409e-07
2.46041e-06
2.08585e-06
8.62605e-07
1.98131e-06
4.56441e-06
4.04453e-06
4.55902e-06
4.69974e-06
3.95664e-06
3.44974e-06
3.35515e-06
1.52621e-06
3.20067e-06
2.45405e-06
2.81498e-06
8.72821e-08
2.51047e-06
2.39037e-06
5.64704e-07
2.80837e-06
4.41099e-06
4.80185e-06
4.54692e-06
4.56381e-06
4.0895e-06
3.90716e-06
3.20542e-06
2.4103e-06
3.02306e-06
2.63642e-06
2.53385e-06
5.7649e-07
2.64708e-06
2.27714e-06
4.69311e-07
2.74247e-06
4.48621e-06
5.45296e-06
4.37752e-06
4.67249e-06
3.98044e-06
4.30424e-06
3.43388e-06
2.95685e-06
3.30956e-06
2.76074e-06
2.86367e-06
1.02239e-06
3.09406e-06
2.04675e-06
4.41503e-07
3.12186e-06
4.12475e-06
5.96493e-06
4.15088e-06
4.64635e-06
4.04461e-06
4.41052e-06
3.646e-06
3.35546e-06
3.4728e-06
2.93394e-06
3.06059e-06
1.4346e-06
3.18849e-06
1.91885e-06
4.84342e-07
3.14565e-06
3.7763e-06
6.3555e-06
3.85916e-06
4.56349e-06
3.80069e-06
4.46899e-06
3.73901e-06
3.41714e-06
3.74031e-06
2.93263e-06
3.41472e-06
1.76019e-06
3.55098e-06
1.78259e-06
5.66779e-07
3.46854e-06
3.273e-06