/*--------------------------------*- C++ -*----------------------------------*\
| =========                 |                                                 |
| \\      /  F ield         | OpenFOAM: The Open Source CFD Toolbox           |
|  \\    /   O peration     | Version:  2.4.0                                 |
|   \\  /    A nd           | Web:      www.OpenFOAM.org                      |
|    \\/     M anipulation  |                                                 |
\*---------------------------------------------------------------------------*/
FoamFile
{
    version     2.0;
    format      ascii;
    class       volVectorField;
    location    "500";
    object      U;
}
// * * * * * * * * * * * * * * * * * * * * * * * * * * * * * * * * * * * * * //

dimensions      [0 1 -1 0 0 0 0];

internalField   nonuniform List<vector> 
12032
(
(-5.6078e-05 -0.989135 2.6485e-07)
(-4.80313e-06 -0.989863 -4.16365e-07)
(-5.34014e-06 -0.991973 -3.48231e-07)
(-1.387e-06 -0.99671 -1.15276e-06)
(1.10684e-05 -1.00552 -3.57261e-06)
(4.40111e-05 -1.01901 -8.25688e-06)
(0.000130245 -1.03425 -1.08018e-05)
(0.000381965 -1.03757 1.2179e-05)
(0.000708219 -0.951102 0.000139109)
(0.00174045 -0.401163 0.000499615)
(-0.000242862 -0.536997 0.00116627)
(-0.000930825 -0.991146 0.000439169)
(-0.000589462 -1.04041 2.25277e-05)
(-0.000201625 -1.0314 1.76324e-05)
(-7.07577e-05 -1.01589 1.04835e-05)
(-2.46103e-05 -1.00339 4.89661e-06)
(-4.68111e-06 -0.995613 2.13394e-06)
(2.67566e-06 -0.991622 9.10824e-07)
(3.40011e-06 -0.98995 6.09021e-07)
(6.74468e-05 -0.989421 2.05411e-07)
(-0.000208861 -0.988772 2.31763e-07)
(-1.02958e-05 -0.989504 -3.9522e-07)
(-9.16059e-06 -0.991626 -3.24743e-07)
(6.34444e-06 -0.996389 -1.15083e-06)
(4.88351e-05 -1.00526 -3.57856e-06)
(0.000154372 -1.01885 -8.2124e-06)
(0.000409065 -1.03433 -1.08106e-05)
(0.00100354 -1.03817 1.22537e-05)
(0.00174428 -0.953085 0.00014202)
(0.0034926 -0.403385 0.000502091)
(-0.00075306 -0.539001 0.00119655)
(-0.00196009 -0.994237 0.00043841)
(-0.00141754 -1.04136 2.2469e-05)
(-0.000587744 -1.03162 1.75542e-05)
(-0.000234337 -1.0158 1.05075e-05)
(-8.72042e-05 -1.00315 4.90392e-06)
(-2.2462e-05 -0.995297 2.1575e-06)
(1.82263e-06 -0.991268 9.44765e-07)
(6.77205e-06 -0.989579 6.01532e-07)
(0.000248548 -0.989042 2.35985e-07)
(-0.000405632 -0.988438 1.77187e-07)
(-6.73192e-06 -0.989177 -4.18912e-07)
(3.77163e-06 -0.991319 -3.27449e-07)
(4.21683e-05 -0.996124 -1.14756e-06)
(0.000135422 -1.00507 -3.59636e-06)
(0.000340774 -1.01883 -8.23549e-06)
(0.000796484 -1.03464 -1.07023e-05)
(0.0017216 -1.03912 1.23492e-05)
(0.00265907 -0.955328 0.000145078)
(0.00410308 -0.403668 0.000505688)
(-0.00147223 -0.536638 0.0012375)
(-0.00263717 -0.996995 0.000439492)
(-0.00210488 -1.04263 2.24845e-05)
(-0.00101475 -1.03207 1.75911e-05)
(-0.000464007 -1.01586 1.04852e-05)
(-0.000195584 -1.00299 4.91007e-06)
(-7.16562e-05 -0.995035 2.19471e-06)
(-1.84573e-05 -0.990955 1.0007e-06)
(-3.47551e-07 -0.98924 5.90024e-07)
(0.000481193 -0.988692 2.20329e-07)
(-0.000567216 -0.988154 2.00397e-07)
(5.92374e-06 -0.988908 -4.65586e-07)
(3.35201e-05 -0.991083 -3.3077e-07)
(0.000106011 -0.995952 -1.16469e-06)
(0.000268031 -1.00503 -3.58827e-06)
(0.000600011 -1.01903 -8.3018e-06)
(0.00126998 -1.03528 -1.05327e-05)
(0.00249722 -1.04056 1.24688e-05)
(0.00354536 -0.95802 0.000148239)
(0.00473933 -0.401902 0.000510721)
(-0.00235994 -0.538395 0.00127025)
(-0.00340339 -0.999688 0.000441487)
(-0.00273724 -1.04421 2.22354e-05)
(-0.00147036 -1.03284 1.76984e-05)
(-0.000740976 -1.01612 1.04342e-05)
(-0.000348162 -1.00298 4.92532e-06)
(-0.000151095 -0.994873 2.20012e-06)
(-5.82749e-05 -0.990713 1.00016e-06)
(-1.81777e-05 -0.988957 5.63962e-07)
(0.000682915 -0.988391 1.92554e-07)
(-0.000613463 -0.987975 2.33414e-07)
(2.74645e-05 -0.988749 -4.83295e-07)
(8.04306e-05 -0.990968 -3.37118e-07)
(0.000198008 -0.995929 -1.17365e-06)
(0.00044077 -1.00518 -3.57135e-06)
(0.000917319 -1.0195 -8.25815e-06)
(0.00180833 -1.03628 -1.05852e-05)
(0.00332971 -1.04245 1.2614e-05)
(0.00439168 -0.9611 0.000151424)
(0.0059865 -0.397521 0.000524432)
(-0.00291993 -0.542326 0.00129615)
(-0.00438097 -1.00228 0.000442822)
(-0.00354911 -1.04605 2.21048e-05)
(-0.00201129 -1.03391 1.76254e-05)
(-0.00106785 -1.01664 1.04834e-05)
(-0.000541766 -1.00317 4.95492e-06)
(-0.000258879 -0.994867 2.20038e-06)
(-0.000114663 -0.990601 9.88398e-07)
(-4.48656e-05 -0.988788 5.78327e-07)
(0.000768963 -0.988198 2.4976e-07)
(-0.000482467 -0.987938 2.34593e-07)
(5.65983e-05 -0.988738 -4.59439e-07)
(0.000141511 -0.991017 -3.47521e-07)
(0.000313878 -0.996094 -1.16688e-06)
(0.000646571 -1.00556 -3.58931e-06)
(0.0012671 -1.02025 -8.17143e-06)
(0.00237159 -1.03767 -1.07198e-05)
(0.00416142 -1.04481 1.27589e-05)
(0.0053015 -0.96464 0.000154931)
(0.00698256 -0.397879 0.000532675)
(-0.00352793 -0.540468 0.00133465)
(-0.00525697 -1.00548 0.000444103)
(-0.0044218 -1.04836 2.21886e-05)
(-0.00257893 -1.03533 1.74811e-05)
(-0.00142664 -1.01746 1.05819e-05)
(-0.000758941 -1.00359 4.99235e-06)
(-0.000384378 -0.995058 2.21404e-06)
(-0.000183354 -0.990658 1.00293e-06)
(-7.84436e-05 -0.988776 6.23251e-07)
(0.000672423 -0.988154 3.204e-07)
(-0.000145465 -0.988057 2.38617e-07)
(9.18484e-05 -0.988888 -4.17515e-07)
(0.000213903 -0.991239 -3.18867e-07)
(0.00044663 -0.996457 -1.17159e-06)
(0.000875121 -1.00618 -3.62364e-06)
(0.00163291 -1.02129 -8.20813e-06)
(0.00293044 -1.0394 -1.06373e-05)
(0.00493298 -1.04756 1.291e-05)
(0.00612105 -0.968597 0.000158852)
(0.007791 -0.393816 0.000537393)
(-0.00434956 -0.537721 0.00138094)
(-0.00602855 -1.00954 0.00044682)
(-0.0051192 -1.05113 2.19808e-05)
(-0.00309077 -1.0371 1.75534e-05)
(-0.00178345 -1.01856 1.05844e-05)
(-0.00098402 -1.00426 5.00741e-06)
(-0.000519799 -0.995453 2.24437e-06)
(-0.000259769 -0.990898 1.01541e-06)
(-0.000116885 -0.988933 5.95387e-07)
(0.000359033 -0.988275 3.10792e-07)
(0.000390431 -0.988315 2.48722e-07)
(0.000131909 -0.989182 -4.00009e-07)
(0.000294801 -0.99162 -3.09912e-07)
(0.000591872 -0.997001 -1.18759e-06)
(0.00111837 -1.007 -3.65041e-06)
(0.00201513 -1.02258 -8.29737e-06)
(0.00349366 -1.04141 -1.04911e-05)
(0.00569213 -1.05061 1.3105e-05)
(0.00683687 -0.972816 0.000162751)
(0.00784179 -0.389129 0.000547363)
(-0.00543303 -0.531759 0.00143868)
(-0.00657314 -1.01378 0.00045026)
(-0.00563442 -1.0541 2.16814e-05)
(-0.00355248 -1.03912 1.77207e-05)
(-0.00212527 -1.01988 1.05405e-05)
(-0.0012141 -1.00512 5.00992e-06)
(-0.000664269 -0.996028 2.28141e-06)
(-0.00034391 -0.991303 1.02568e-06)
(-0.000159759 -0.989245 5.36996e-07)
(-0.000165712 -0.988545 3.40518e-07)
(0.00108508 -0.988676 2.16724e-07)
(0.000176493 -0.989585 -4.20659e-07)
(0.000383661 -0.992122 -3.29809e-07)
(0.000746981 -0.997685 -1.20439e-06)
(0.0013741 -1.008 -3.64594e-06)
(0.00241391 -1.02408 -8.36223e-06)
(0.00407558 -1.04365 -1.06115e-05)
(0.00649429 -1.05391 1.33427e-05)
(0.00762411 -0.977205 0.000166602)
(0.00831741 -0.38171 0.000560581)
(-0.0063208 -0.531445 0.0014816)
(-0.00726614 -1.01776 0.000453305)
(-0.006295 -1.05717 2.17422e-05)
(-0.00405625 -1.0413 1.76634e-05)
(-0.00247649 -1.02137 1.0516e-05)
(-0.00145292 -1.00614 5.03795e-06)
(-0.000818079 -0.996745 2.29118e-06)
(-0.000434925 -0.991836 1.02975e-06)
(-0.000206469 -0.989674 5.09842e-07)
(-0.000863773 -0.988929 4.10316e-07)
(0.00187855 -0.989092 1.72738e-07)
(0.00022593 -0.99005 -4.20395e-07)
(0.000480604 -0.992696 -3.58481e-07)
(0.000913303 -0.998459 -1.21334e-06)
(0.00163971 -1.00911 -3.61639e-06)
(0.0028235 -1.02572 -8.32262e-06)
(0.00468021 -1.04609 -1.08437e-05)
(0.00737111 -1.05748 1.33684e-05)
(0.00847405 -0.981982 0.000170297)
(0.00975623 -0.371947 0.000576478)
(-0.00706773 -0.533224 0.00151682)
(-0.00829206 -1.02191 0.000456904)
(-0.00711018 -1.06044 2.19409e-05)
(-0.00460713 -1.04361 1.7497e-05)
(-0.0028527 -1.02298 1.05823e-05)
(-0.0017071 -1.00727 5.07806e-06)
(-0.000980217 -0.997555 2.29094e-06)
(-0.000531895 -0.992446 1.05503e-06)
(-0.000256594 -0.990171 5.11067e-07)
(-0.00167336 -0.989376 4.09163e-07)
(0.00270321 -0.989515 1.94656e-07)
(0.000281977 -0.990529 -4.083e-07)
(0.000588632 -0.993299 -3.67656e-07)
(0.00109444 -0.99928 -1.21942e-06)
(0.00192157 -1.01029 -3.64638e-06)
(0.00324219 -1.02746 -8.21968e-06)
(0.0052861 -1.04868 -1.0781e-05)
(0.00820198 -1.06127 1.32262e-05)
(0.00924282 -0.9872 0.000173996)
(0.0110575 -0.35953 0.000606309)
(-0.00769261 -0.527748 0.00157152)
(-0.00915038 -1.02671 0.000460653)
(-0.00796349 -1.06399 2.18147e-05)
(-0.00516741 -1.04608 1.75869e-05)
(-0.0032437 -1.0247 1.06953e-05)
(-0.00197083 -1.00847 5.09287e-06)
(-0.00115139 -0.998411 2.29232e-06)
(-0.000635855 -0.993088 1.08355e-06)
(-0.000311426 -0.990689 5.13623e-07)
(-0.00252542 -0.989837 3.97501e-07)
(0.00349782 -0.989912 2.22906e-07)
(0.000347164 -0.990988 -4.24915e-07)
(0.000712406 -0.993896 -3.75694e-07)
(0.00129924 -1.00012 -1.21893e-06)
(0.00223849 -1.01151 -3.70208e-06)
(0.00370473 -1.02928 -8.30073e-06)
(0.00594144 -1.05139 -1.06106e-05)
(0.00908856 -1.06524 1.34191e-05)
(0.0100406 -0.99274 0.000177641)
(0.0115444 -0.348766 0.000629457)
(-0.00889021 -0.517811 0.00164634)
(-0.00981804 -1.03224 0.000466229)
(-0.00868044 -1.06776 2.15649e-05)
(-0.00572305 -1.04868 1.77882e-05)
(-0.00364961 -1.0265 1.07561e-05)
(-0.00225293 -1.0097 5.10308e-06)
(-0.00133804 -0.999281 2.28397e-06)
(-0.00075138 -0.993724 1.08744e-06)
(-0.000373408 -0.991189 4.90774e-07)
(-0.00335596 -0.990275 4.00162e-07)
(0.00421843 -0.990264 2.30603e-07)
(0.000426415 -0.991412 -4.16013e-07)
(0.000861299 -0.994479 -3.60328e-07)
(0.00154494 -1.00097 -1.21769e-06)
(0.00262094 -1.0128 -3.73166e-06)
(0.0042786 -1.03123 -8.44575e-06)
(0.00677243 -1.0543 -1.07783e-05)
(0.0102507 -1.06958 1.36992e-05)
(0.0111755 -0.998771 0.000181207)
(0.0124879 -0.335755 0.000659812)
(-0.0105381 -0.513089 0.0016988)
(-0.0109044 -1.03806 0.00047307)
(-0.0095498 -1.07174 2.17101e-05)
(-0.00640557 -1.05143 1.79352e-05)
(-0.0041367 -1.02837 1.07149e-05)
(-0.00258392 -1.01098 5.05793e-06)
(-0.00155528 -1.00015 2.26376e-06)
(-0.000886193 -0.994339 1.06212e-06)
(-0.000446583 -0.991652 4.75249e-07)
(-0.00411674 -0.990666 4.25001e-07)
(0.0048402 -0.990572 2.06249e-07)
(0.000523514 -0.991804 -4.06207e-07)
(0.00104327 -0.995057 -3.33023e-07)
(0.00184551 -1.00187 -1.20613e-06)
(0.0030961 -1.0142 -3.70778e-06)
(0.00501613 -1.0334 -8.53254e-06)
(0.00791911 -1.05763 -1.10546e-05)
(0.0120353 -1.07462 1.38822e-05)
(0.0129101 -1.00602 0.000184303)
(0.0140762 -0.322158 0.000696216)
(-0.0129131 -0.510146 0.00175004)
(-0.0125944 -1.0444 0.000479873)
(-0.0109691 -1.07617 2.20296e-05)
(-0.0073474 -1.05444 1.78638e-05)
(-0.00475261 -1.03038 1.06009e-05)
(-0.00299097 -1.01231 4.98469e-06)
(-0.0018185 -1.00104 2.24189e-06)
(-0.00104721 -0.994933 1.01933e-06)
(-0.00053347 -0.992075 4.3211e-07)
(-0.00477513 -0.991009 4.48004e-07)
(0.0053583 -0.990851 1.7255e-07)
(0.000637411 -0.992183 -4.00453e-07)
(0.00125306 -0.995649 -3.21426e-07)
(0.00218417 -1.00283 -1.19418e-06)
(0.0036164 -1.01573 -3.63978e-06)
(0.00581255 -1.0358 -8.48747e-06)
(0.00915346 -1.06133 -1.12648e-05)
(0.0140219 -1.08031 1.40974e-05)
(0.0149947 -1.01453 0.000187369)
(0.0166641 -0.306615 0.000735055)
(-0.0156863 -0.509686 0.00178821)
(-0.0147056 -1.05129 0.000487717)
(-0.0125468 -1.08092 2.22371e-05)
(-0.00834273 -1.05764 1.76743e-05)
(-0.00540776 -1.03251 1.05458e-05)
(-0.00342969 -1.01371 4.96348e-06)
(-0.00210918 -1.00194 2.21067e-06)
(-0.00122846 -0.995519 9.89394e-07)
(-0.00063244 -0.992468 3.73777e-07)
(-0.00531746 -0.991311 4.37532e-07)
(0.00577892 -0.991125 1.55907e-07)
(0.000759457 -0.992567 -3.89925e-07)
(0.00147099 -0.996268 -3.2403e-07)
(0.00251754 -1.00383 -1.18099e-06)
(0.00408913 -1.01731 -3.59913e-06)
(0.0064444 -1.03823 -8.36759e-06)
(0.00994548 -1.06496 -1.12463e-05)
(0.0149195 -1.08557 1.40467e-05)
(0.0152782 -1.02155 0.000190033)
(0.0167622 -0.258325 0.000779232)
(-0.0166178 -0.49211 0.00186207)
(-0.0149938 -1.05681 0.00049589)
(-0.0131833 -1.08519 2.24046e-05)
(-0.00892287 -1.0607 1.78083e-05)
(-0.00590195 -1.03463 1.06303e-05)
(-0.00381342 -1.01513 4.95089e-06)
(-0.00238543 -1.00287 2.15942e-06)
(-0.00141198 -0.996105 9.70988e-07)
(-0.000735961 -0.992846 3.30594e-07)
(-0.00574526 -0.991591 4.21385e-07)
(0.00612671 -0.991423 1.6769e-07)
(0.000886286 -0.992982 -3.78933e-07)
(0.00169392 -0.996925 -3.31864e-07)
(0.00285562 -1.00488 -1.15784e-06)
(0.00457119 -1.01894 -3.61892e-06)
(0.00712082 -1.04068 -8.3271e-06)
(0.0108524 -1.06852 -1.13315e-05)
(0.0158549 -1.0905 1.37809e-05)
(0.0146244 -1.02722 0.000191777)
(0.0131857 -0.174244 0.00081844)
(-0.0159896 -0.464025 0.00194707)
(-0.0145238 -1.06179 0.000505271)
(-0.0137479 -1.08921 2.25587e-05)
(-0.00954062 -1.06369 1.80715e-05)
(-0.00639391 -1.03674 1.0604e-05)
(-0.00418221 -1.01656 4.86805e-06)
(-0.00265546 -1.00381 2.10383e-06)
(-0.00159631 -0.996705 9.5669e-07)
(-0.000842446 -0.993232 2.83408e-07)
(-0.00608153 -0.991874 4.00905e-07)
(0.00645236 -0.991782 1.82811e-07)
(0.00103658 -0.993468 -3.59669e-07)
(0.001975 -0.997683 -3.30685e-07)
(0.00333337 -1.0061 -1.13158e-06)
(0.00540139 -1.0209 -3.67177e-06)
(0.00866257 -1.04383 -8.50889e-06)
(0.0140189 -1.07376 -1.20181e-05)
(0.0230949 -1.09965 1.30293e-05)
(0.0271078 -1.04492 0.000191401)
(0.0459956 -0.186152 0.000816589)
(-0.0372968 -0.485484 0.00203584)
(-0.0277371 -1.0765 0.00051302)
(-0.0194238 -1.09666 2.20998e-05)
(-0.0119983 -1.06799 1.77919e-05)
(-0.00758191 -1.03938 1.03459e-05)
(-0.00482879 -1.01823 4.80628e-06)
(-0.00303789 -1.00487 2.05232e-06)
(-0.0018271 -0.997376 9.11847e-07)
(-0.000968892 -0.993667 2.59779e-07)
(-0.00637856 -0.992198 3.78343e-07)
(0.00684142 -0.992261 1.73446e-07)
(0.00125014 -0.994108 -3.42318e-07)
(0.00240392 -0.998684 -3.1353e-07)
(0.00413106 -1.00776 -1.10237e-06)
(0.00688286 -1.02376 -3.65302e-06)
(0.0114238 -1.04888 -8.8637e-06)
(0.0190731 -1.08291 -1.31364e-05)
(0.0320757 -1.11667 1.03351e-05)
(0.0720137 -1.07864 0.00018375)
(0.081675 -0.475963 -0.00480324)
(-0.130637 -0.0798642 -0.00547992)
(-0.074234 -1.10418 0.000514196)
(-0.0269579 -1.11034 1.8585e-05)
(-0.0160325 -1.07533 1.59085e-05)
(-0.00975748 -1.04347 9.60023e-06)
(-0.00600139 -1.0206 4.57354e-06)
(-0.00367922 -1.00628 1.94334e-06)
(-0.00217897 -0.998239 8.54607e-07)
(-0.00114711 -0.994225 2.50004e-07)
(-0.00671572 -0.992619 3.35245e-07)
(0.00738147 -0.992935 1.64139e-07)
(0.00154557 -0.995 -3.14048e-07)
(0.00299908 -1.00008 -2.83958e-07)
(0.00521376 -1.01013 -1.05746e-06)
(0.00876963 -1.02788 -3.57161e-06)
(0.0145314 -1.05613 -9.10971e-06)
(0.0234964 -1.09558 -1.53141e-05)
(0.0455612 -1.13785 1.00875e-06)
(0.049503 -1.13344 -0.000410444)
(0.147479 -0.671577 -0.00302818)
(-0.0351834 0.213978 -0.0109492)
(-0.0776504 -1.16417 -0.00049121)
(-0.0372048 -1.12704 -4.31158e-06)
(-0.0194576 -1.08543 7.70995e-06)
(-0.01224 -1.04934 6.15574e-06)
(-0.00752582 -1.02398 3.31249e-06)
(-0.00456291 -1.00826 1.44824e-06)
(-0.00267113 -0.99943 6.63972e-07)
(-0.00139462 -0.994995 1.60766e-07)
(-0.00718098 -0.993204 2.8612e-07)
(0.00810792 -0.99386 1.60081e-07)
(0.00186638 -0.996195 -2.57149e-07)
(0.00357655 -1.00189 -1.42707e-07)
(0.00605003 -1.013 -5.56919e-07)
(0.00966979 -1.03246 -1.76773e-06)
(0.0147099 -1.06311 -4.57704e-06)
(0.021055 -1.10517 -9.04486e-06)
(0.0328815 -1.14827 -9.81352e-06)
(0.054092 -1.16328 -0.000237146)
(0.0822569 -1.29066 -0.0139931)
(-0.0393391 -1.24259 -0.00176226)
(-0.0297086 -1.13647 -2.63553e-05)
(-0.0183594 -1.09366 -2.47535e-06)
(-0.0127385 -1.05522 1.53725e-06)
(-0.00839871 -1.02784 1.37874e-06)
(-0.00530295 -1.01069 6.45195e-07)
(-0.00316929 -1.00097 3.34993e-07)
(-0.00166998 -0.996029 2.59561e-08)
(-0.00781279 -0.994011 1.92243e-07)
(0.00897643 -0.995029 1.55411e-07)
(0.00209343 -0.997626 -2.15132e-07)
(0.00383299 -1.00384 -2.1201e-08)
(0.00594342 -1.01564 -4.2813e-08)
(0.0080019 -1.03551 -1.89838e-07)
(0.00814224 -1.06484 1.24091e-07)
(0.000211179 -1.09962 -1.53279e-06)
(-0.0331098 -1.11786 -1.00934e-05)
(-0.138392 -1.03074 -3.37055e-05)
(-0.15169 -0.604044 0.000592107)
(0.134863 -0.564655 0.00131681)
(0.1056 -1.06693 -4.98414e-05)
(0.0213156 -1.11552 -1.7689e-05)
(-0.00286206 -1.09064 -4.0552e-06)
(-0.00797173 -1.05728 -2.22527e-07)
(-0.00729353 -1.03063 2.61675e-07)
(-0.00532721 -1.01301 1.11545e-07)
(-0.00343082 -1.00267 1.00124e-07)
(-0.0018783 -0.997283 -7.01704e-08)
(-0.00858806 -0.995042 1.07121e-07)
(0.00988527 -0.996363 1.44186e-07)
(0.00213067 -0.999124 -1.83584e-07)
(0.00362642 -1.00555 -2.44896e-08)
(0.00487046 -1.01722 -4.27845e-08)
(0.00473748 -1.03561 -2.18476e-07)
(0.000256514 -1.05956 3.84184e-07)
(-0.0149283 -1.07921 -1.04551e-06)
(-0.0485554 -1.06476 -3.60544e-06)
(-0.0863402 -0.964015 -6.47717e-07)
(-0.0531804 -0.742784 1.87708e-05)
(0.0740957 -0.792691 9.99757e-06)
(0.0797348 -0.995989 -3.52277e-06)
(0.0390368 -1.07225 -2.56019e-06)
(0.0103247 -1.07527 -1.21498e-06)
(-0.00155607 -1.05368 -1.16364e-07)
(-0.00473571 -1.0311 1.74991e-07)
(-0.00453628 -1.01454 2.95829e-08)
(-0.00331087 -1.00423 5.72961e-08)
(-0.00193373 -0.998625 -9.79989e-08)
(-0.00942074 -0.996234 8.84006e-08)
(0.0107183 -0.997726 1.32007e-07)
(0.00194578 -1.00049 -1.63964e-07)
(0.00298682 -1.0067 -2.18728e-08)
(0.00317806 -1.0174 -4.14173e-08)
(0.00106939 -1.03287 -9.03428e-08)
(-0.00615368 -1.04985 3.30087e-07)
(-0.0220769 -1.05638 -3.01273e-07)
(-0.0457963 -1.02901 -9.53372e-07)
(-0.0597494 -0.947484 -4.33266e-09)
(-0.0272198 -0.843553 4.0301e-06)
(0.0405916 -0.865003 2.66404e-06)
(0.0584794 -0.970512 -7.36204e-07)
(0.0400704 -1.03885 -5.47483e-07)
(0.0176904 -1.05614 -1.75346e-07)
(0.00411735 -1.04603 -7.23909e-08)
(-0.00166086 -1.02916 1.95634e-07)
(-0.00316548 -1.01492 2.36035e-08)
(-0.00281539 -1.00535 3.52098e-08)
(-0.00180053 -0.999884 -1.0527e-07)
(-0.0102118 -0.997476 9.29333e-08)
(0.0113801 -0.998975 1.19384e-07)
(0.00156634 -1.00155 -1.33899e-07)
(0.00205211 -1.00715 -2.58072e-08)
(0.00125764 -1.01624 -4.83653e-08)
(-0.00222563 -1.02817 -1.33435e-07)
(-0.0103456 -1.03869 2.72065e-07)
(-0.0240304 -1.03734 -3.77914e-07)
(-0.038941 -1.00955 -1.45763e-07)
(-0.0417242 -0.952451 8.04017e-07)
(-0.0162979 -0.897379 4.64212e-07)
(0.0249151 -0.907766 -6.00684e-07)
(0.0426537 -0.967028 -4.07849e-07)
(0.0357945 -1.01826 -3.54388e-07)
(0.0205499 -1.03894 -5.63224e-08)
(0.00816245 -1.03662 -6.1528e-08)
(0.00125986 -1.02542 1.50748e-07)
(-0.0015287 -1.01413 1.72774e-08)
(-0.00203983 -1.00588 3.32174e-08)
(-0.00149404 -1.00091 -9.57437e-08)
(-0.0108684 -0.998643 9.82029e-08)
(0.0118062 -0.999989 1.0777e-07)
(0.00105345 -1.00222 -1.25875e-07)
(0.000978624 -1.0069 -2.66594e-08)
(-0.000598484 -1.01405 -6.22796e-08)
(-0.00480928 -1.02248 -6.45217e-08)
(-0.0126439 -1.02816 1.19474e-07)
(-0.0233838 -1.02332 -3.66349e-07)
(-0.0321826 -1.00036 -6.64692e-08)
(-0.0301693 -0.962651 3.14763e-07)
(-0.0108019 -0.931759 5.98281e-07)
(0.0166526 -0.937125 -4.78999e-07)
(0.0317822 -0.971703 -2.63997e-07)
(0.0306094 -1.00701 -1.38672e-07)
(0.0208424 -1.02547 -2.62514e-08)
(0.01063 -1.02728 -7.58928e-08)
(0.0036739 -1.02063 1.32775e-07)
(0.000116776 -1.01241 2.36782e-08)
(-0.00111519 -1.00581 2.87485e-08)
(-0.00106037 -1.0016 -9.81297e-08)
(-0.0113264 -0.99962 8.85894e-08)
(0.0119559 -1.00067 8.43534e-08)
(0.000472608 -1.00244 -9.5739e-08)
(-0.000105998 -1.00602 -3.53935e-08)
(-0.00221705 -1.01117 -5.89455e-08)
(-0.00663384 -1.01662 3.95691e-08)
(-0.013594 -1.01913 -5.60261e-08)
(-0.0216184 -1.01367 -1.65586e-07)
(-0.0264879 -0.996833 -1.30672e-07)
(-0.0226312 -0.972939 5.49169e-08)
(-0.00768202 -0.95529 4.35678e-07)
(0.01186 -0.958165 -1.80032e-08)
(0.0243211 -0.978431 -1.35802e-07)
(0.0258213 -1.00145 -3.75151e-08)
(0.0198434 -1.01565 1.71092e-07)
(0.0118785 -1.01893 -1.38434e-08)
(0.0054754 -1.01548 1.95161e-08)
(0.00160603 -1.01 9.87208e-10)
(-0.000150576 -1.00516 2.45505e-08)
(-0.000553741 -1.0019 -7.67634e-08)
(-0.0115397 -1.00031 7.17176e-08)
(0.0117673 -1.00092 5.99345e-08)
(-0.000131827 -1.00216 -6.24628e-08)
(-0.00112745 -1.00458 -4.15796e-08)
(-0.0035338 -1.00787 -3.90384e-08)
(-0.00778964 -1.01099 7.12552e-08)
(-0.0136465 -1.01175 1.77023e-08)
(-0.0194314 -1.00728 -1.19948e-07)
(-0.0218469 -0.996365 -1.8897e-07)
(-0.0174661 -0.982317 -4.76316e-08)
(-0.00572332 -0.972626 1.40009e-07)
(0.00883456 -0.974123 1.84213e-07)
(0.0190323 -0.985444 -1.14662e-07)
(0.0216837 -0.999243 -4.88764e-08)
(0.0182381 -1.00875 1.57443e-07)
(0.0122572 -1.01184 1.15705e-07)
(0.0067053 -1.01038 2.13402e-09)
(0.00286637 -1.00714 1.28759e-08)
(0.000786016 -1.00399 1.72735e-08)
(-1.14781e-05 -1.00175 -5.29884e-08)
(-0.0114419 -1.00063 6.17971e-08)
(0.0112656 -1.00072 3.54157e-08)
(-0.000710227 -1.00139 -3.96548e-08)
(-0.00202605 -1.00268 -3.89958e-08)
(-0.00453905 -1.00436 2.14967e-08)
(-0.00842117 -1.00579 5.91483e-08)
(-0.0131634 -1.00584 2.85668e-08)
(-0.0171995 -1.0032 -1.05071e-07)
(-0.0180842 -0.997546 -1.41588e-07)
(-0.0137629 -0.990724 -4.57013e-08)
(-0.0044014 -0.98622 1.58198e-08)
(0.00678154 -0.986893 -3.69086e-08)
(0.0151378 -0.99221 -1.29384e-07)
(0.0182 -0.998997 2.21781e-08)
(0.0164267 -1.00402 1.32139e-07)
(0.0120785 -1.00598 9.0446e-08)
(0.00745786 -1.00553 -3.80719e-08)
(0.0038693 -1.00399 -2.73895e-08)
(0.00163386 -1.00236 -1.14885e-08)
(0.000520516 -1.00116 -2.28244e-08)
(-0.0110575 -1.00054 3.71801e-08)
(0.0107817 -1.00025 1.39166e-08)
(-0.00110762 -1.00045 -1.57493e-08)
(-0.00261357 -1.00082 -1.66359e-08)
(-0.00513776 -1.00129 -9.26734e-09)
(-0.008691 -1.00166 1.79379e-08)
(-0.0126625 -1.00162 5.38945e-08)
(-0.0156235 -1.00081 -3.06864e-08)
(-0.0156942 -0.999209 -8.79254e-08)
(-0.0115528 -0.997346 -1.59001e-08)
(-0.00363637 -0.996146 1.46492e-08)
(0.00559494 -0.996322 -6.25148e-08)
(0.0127855 -0.997746 -4.16477e-08)
(0.0159438 -0.999614 1.89885e-08)
(0.0150979 -1.00105 8.62981e-08)
(0.011779 -1.00167 3.05524e-08)
(0.00783138 -1.0016 -3.24452e-08)
(0.00448395 -1.00118 -7.04932e-09)
(0.00219857 -1.00073 2.50888e-09)
(0.000891323 -1.00038 -4.89058e-09)
(-0.0106624 -1.00019 1.59201e-08)
(0.0560788 0.31846 -0.00581031)
(0.0766229 -1.25519 -0.0139432)
(0.154105 -0.637922 0.0066325)
(0.040969 0.461688 0.0166108)
(0.0761106 -1.25465 0.017705)
(-0.0769289 -1.10562 0.00142736)
(-0.0467205 -1.21747 -0.00436078)
(-0.0294709 0.248314 0.0149033)
(-0.0739936 -1.10521 0.0064603)
(-0.0466432 -1.21677 0.00628621)
(-0.175804 -0.68552 -0.00159895)
(0.00391874 -0.287365 0.00211657)
(0.0815466 -1.2904 0.0171456)
(-0.176025 -0.685731 0.00142176)
(0.00396577 -0.294508 -0.00255955)
(-0.0202975 -1.22048 -0.00529748)
(0.100187 -0.444756 0.00237673)
(0.206327 -0.857915 -0.00104273)
(-0.0206166 -1.22024 0.00736998)
(0.0989843 -0.445518 -0.00263646)
(0.206723 -0.857189 0.000482332)
(0.307894 -0.33102 -0.0118865)
(0.255007 -0.289941 -0.0132132)
(0.0362003 -0.299507 -0.000184174)
(0.283834 0.18837 0.0145045)
(0.0430509 -0.210939 -0.00859252)
(0.257792 -0.387953 -0.00723617)
(-0.155718 0.257927 0.00227156)
(-0.0357122 0.287102 0.00194626)
(-0.033074 -0.00531072 -0.0641499)
(-0.0240285 0.350723 0.00663147)
(-0.044558 0.115177 -0.0447415)
(-0.183937 0.238477 -0.00161034)
(-0.113797 0.327652 0.00287651)
(-0.0175457 0.461288 0.0124585)
(-0.129523 0.0500645 0.00154827)
(-0.0201829 0.419728 0.00979767)
(-0.0483639 0.128293 -0.0401277)
(-0.0963875 0.361414 0.0107199)
(0.0155769 0.0859344 0.0175883)
(0.0321433 0.208629 -0.00324608)
(0.184518 -0.197946 -0.0204279)
(0.0373297 0.206304 -0.000486022)
(0.161265 0.057984 -0.00531318)
(0.0200405 0.0432487 -0.0179704)
(0.0124044 0.102121 0.0137112)
(0.0237248 0.246666 0.00764739)
(0.158194 -0.210497 0.0101583)
(0.0307156 0.227294 0.00579243)
(0.144536 0.0564702 -0.0182802)
(0.0116423 0.106074 0.0198916)
(-0.11875 0.0881389 -0.0168212)
(-0.0186004 0.0250483 -0.0969726)
(-0.00996794 -0.139434 -0.00339)
(-0.0324191 0.0856672 -0.0394818)
(-0.0107638 0.134585 -0.00505812)
(-0.0819297 -0.210274 -0.00648929)
(-0.125151 0.0899721 -0.0121569)
(-0.0476654 0.0611596 0.038457)
(-0.0118134 -0.182897 -0.00241814)
(-0.0367843 0.0887113 -0.0420762)
(-0.00949044 0.132871 -0.00146836)
(-0.0993486 -0.207826 0.000901905)
(0.320303 -0.297523 0.00776238)
(0.236846 -0.288443 0.00808564)
(0.0397534 -0.312856 -0.00140151)
(0.294809 0.13787 -0.00366807)
(0.0535215 -0.201557 -3.90341e-05)
(0.266275 -0.378718 0.00579712)
(-0.0608725 -0.821076 -0.00157066)
(-0.150981 -0.0638845 -0.00100521)
(-0.0821954 -0.902884 -0.000816245)
(-0.128092 -0.0699856 0.0110792)
(-0.0590455 -0.831737 0.00535589)
(-0.147467 -0.0335833 0.00816379)
(-0.0798768 -0.913493 0.00529973)
(0.0870269 -1.15998 -0.000585843)
(0.0579493 -1.15019 -0.000275391)
(0.0950358 -1.28545 -0.000430448)
(0.0495652 -1.13322 0.000212696)
(0.0867637 -1.15978 0.00116122)
(0.0580961 -1.15021 6.54646e-05)
(0.0951672 -1.28557 0.00141666)
(-0.122207 -0.312521 1.06981e-05)
(-0.0366933 0.21752 0.00783797)
(-0.130128 -0.146818 -0.0120263)
(0.015891 0.299166 -0.0104719)
(-0.15548 -0.127723 0.00711696)
(0.0177694 0.302999 0.00390374)
(-0.0985445 -0.297976 -0.00571288)
(-0.0331469 -1.13559 -0.000748196)
(-0.062246 -1.25423 -0.000804542)
(-0.0430927 -1.14949 -0.000744427)
(-0.07739 -1.16411 0.00195682)
(-0.0331156 -1.13557 0.0008342)
(-0.0620536 -1.25424 0.0015767)
(-0.0431616 -1.14944 0.000688393)
(0.0953643 -1.31071 -5.51956e-05)
(-0.0125145 -1.12618 -0.000124825)
(-0.104424 -1.1456 4.94048e-05)
(0.0540355 -1.16332 -6.13501e-05)
(0.0953882 -1.31079 0.000589603)
(-0.0125132 -1.12622 0.000100867)
(-0.104509 -1.14543 -0.00026185)
(-0.181404 -0.178189 -0.0132581)
(0.0898778 -1.26387 0.00268147)
(-0.0203052 -0.0200495 -0.0959048)
(-0.112772 -0.983522 -0.00832824)
(-0.0278487 0.0230428 -0.062227)
(-0.117454 -0.962346 0.00173117)
(-0.135206 -0.339385 -0.00695552)
(0.0655852 -0.189213 -0.0133288)
(-0.000858053 -0.247093 -0.00378214)
(-0.000787615 -0.194031 0.000265388)
(0.0549253 -0.290102 -0.0108524)
(-0.0391512 -1.16423 -0.000855677)
(0.0711932 -1.1453 -0.00122313)
(0.00959622 -1.13825 -0.000934605)
(-0.0395987 -1.24257 0.00134707)
(-0.0392262 -1.16423 0.000660731)
(0.0712757 -1.14522 0.000792999)
(0.00959829 -1.13826 0.000723793)
(0.133495 -0.276247 0.00583979)
(0.0839671 -1.23006 0.00533794)
(0.102681 -1.11678 -0.00583949)
(-0.0519524 -0.00139516 -0.0552683)
(0.108396 -1.06902 0.000265142)
(-0.0618484 0.0775664 -0.0381088)
(0.131921 -0.292333 -0.00404428)
(-0.0459452 0.183382 -0.0218879)
(0.00210186 0.0534868 -0.0415867)
(0.00244309 0.148021 -0.0410695)
(-0.0606523 0.0741247 -0.0166981)
(0.127042 -0.233942 0.00699212)
(0.0837486 -1.22314 -0.00358666)
(0.101568 -1.08532 0.0122833)
(-0.157285 0.0150357 -0.00310438)
(0.111104 -1.01955 0.0039713)
(-0.0650647 0.085083 -0.0353273)
(0.11995 -0.239332 0.0137273)
(-0.0501509 0.368156 -0.00022509)
(0.00810126 0.326612 0.0059256)
(0.00781222 0.319336 -0.0040116)
(-0.0438687 0.374973 0.00676256)
(0.0746835 0.0119812 -0.00714774)
(0.0101426 -0.0410007 -0.0347203)
(0.0125824 -0.0020794 -0.0303477)
(0.0831515 -0.0268777 -0.00765056)
(-0.0591933 -0.818591 -0.00336598)
(-0.0487744 -1.21271 9.44149e-05)
(-0.0945594 -1.16829 0.000503824)
(0.18249 -0.660179 0.00858511)
(-0.0943934 -1.16384 0.00107941)
(0.357982 -0.0303755 -0.00847795)
(-0.0468703 -0.939063 -0.0267248)
(-0.113202 -0.279483 0.00391129)
(-0.0320071 0.239152 0.000934393)
(-0.13361 -0.0859268 0.017197)
(0.0132752 0.328366 0.0124189)
(-0.157003 -0.0942749 -0.00301887)
(0.0157745 0.320634 0.00109374)
(-0.0973491 -0.273981 0.0146097)
(0.0529832 0.111451 -0.0126122)
(0.0350118 0.107582 -0.00186247)
(0.0236809 0.0960722 -0.00793948)
(0.0737501 0.0420829 -0.00093588)
(-0.0587305 -0.85091 -0.00496999)
(-0.0483331 -1.2114 0.00163394)
(-0.0927991 -1.16755 0.0070442)
(0.193964 -0.667624 0.00755834)
(-0.0939238 -1.16288 0.00286353)
(0.351884 -0.0826971 0.00807154)
(-0.0440472 -1.01478 0.0288047)
(-0.0464385 -0.0794139 -0.00385442)
(-0.0192245 -0.147526 -0.00267979)
(-0.0190829 -0.0897858 -6.41617e-05)
(-0.0204327 -0.176354 -0.00550828)
(-0.205791 -0.160813 -0.00356686)
(0.0891932 -1.25695 -0.00366042)
(-0.0516235 0.00854364 0.0383749)
(-0.113956 -0.982013 0.00660203)
(-0.0290606 0.0276318 -0.0612407)
(-0.118605 -0.957465 -0.00485455)
(-0.145573 -0.329888 0.00294505)
(-0.0314768 0.0673893 0.0130515)
(-0.02044 -0.0714912 0.00566775)
(-0.0172155 0.122977 0.0203967)
(-0.0277866 -0.105046 0.00370285)
(0.203761 -0.837332 -0.00792633)
(-0.0208016 -1.21577 -5.64557e-05)
(0.230768 -0.809163 -0.00378869)
(0.112978 -1.06844 -0.00684501)
(0.32842 -0.371497 0.00297893)
(0.114608 -1.06343 0.00157267)
(0.196195 -0.868854 -0.00388898)
(0.08086 -0.0576479 0.0128331)
(0.00152326 -0.245928 0.00276424)
(0.00223865 -0.051627 0.00130629)
(0.0558642 -0.266644 0.0105665)
(0.204562 -0.827845 0.00592242)
(-0.0212944 -1.21439 0.000458562)
(0.215228 -0.818278 0.0103084)
(0.113286 -1.06789 0.00717964)
(0.294683 -0.398596 0.0209224)
(0.114892 -1.06169 -0.0030471)
(0.197347 -0.865572 0.00324609)
(0.0850938 -0.0817853 -0.0127892)
(-0.00287359 0.0292954 0.00186763)
(-0.000863073 -0.122423 -0.00122256)
(0.0957075 0.136378 0.00959754)
(0.166915 -0.277937 -0.00563533)
(0.226948 -0.255042 0.015967)
(0.219094 -0.409994 -0.00980779)
(0.220316 -0.379738 -0.00956098)
(0.154955 -0.300563 -0.00489788)
(0.210804 -0.155802 -0.00416408)
(0.359124 0.0620572 0.00777065)
(0.240782 -0.170196 0.0110965)
(0.260497 -0.253303 -0.0153228)
(0.257412 0.156 0.0115362)
(-0.0428855 0.228521 -0.0177442)
(0.00428959 0.233179 -0.0275794)
(-0.0450627 0.274512 -0.0155746)
(0.00282565 0.180591 -0.0353864)
(-0.113747 0.102365 -0.0235751)
(-0.00292959 0.010912 -0.164391)
(-0.0348116 0.0557007 -0.0598381)
(-0.134872 0.141591 -0.0100009)
(-0.125202 0.177302 -0.00795944)
(-0.00297781 0.0195555 -0.15608)
(-0.12413 0.0494902 -0.022074)
(-0.106354 0.146399 -0.0248151)
(-0.110605 0.233958 -0.0111425)
(-0.00473354 0.0365035 -0.115949)
(-0.0367417 0.0717914 -0.057091)
(-0.114731 0.213641 -0.00999372)
(-0.106303 0.177039 -0.0250929)
(-0.00307538 0.020565 -0.151676)
(-0.0493156 0.345665 -0.00545081)
(0.0046144 0.280637 -0.0213331)
(-0.0424918 0.327039 -0.011123)
(0.0072144 0.297045 -0.0104222)
(-0.117893 0.268112 -0.0105679)
(-0.0336081 0.0376922 0.0200487)
(-0.0758862 0.158485 -0.0148376)
(-0.112096 0.319893 0.00222082)
(-0.107201 0.321607 -0.0035349)
(-0.0174722 0.0730014 -0.0232425)
(-0.134756 0.270837 -0.00110131)