/*--------------------------------*- C++ -*----------------------------------*\
| =========                 |                                                 |
| \\      /  F ield         | OpenFOAM: The Open Source CFD Toolbox           |
|  \\    /   O peration     | Version:  2.4.0                                 |
|   \\  /    A nd           | Web:      www.OpenFOAM.org                      |
|    \\/     M anipulation  |                                                 |
\*---------------------------------------------------------------------------*/
FoamFile
{
    version     2.0;
    format      ascii;
    class       volVectorField;
    location    "190";
    object      U;
}
// * * * * * * * * * * * * * * * * * * * * * * * * * * * * * * * * * * * * * //

dimensions      [0 1 -1 0 0 0 0];

internalField   nonuniform List<vector> 
6000
(
(0.715376 -0.0490203 -6.73841e-17)
(0.237367 -0.0439143 0)
(-0.00380199 -0.00286723 1.42645e-16)
(-0.0794201 0.0168861 0)
(-0.0812294 0.0156679 0)
(-0.0838582 0.0157859 0)
(-0.0861738 0.0154777 8.3944e-17)
(-0.0826052 0.0133495 2.89116e-20)
(-0.0632863 0.00810195 0)
(-0.0281012 0.000599203 0)
(0.0172011 -0.00581193 1.00467e-16)
(0.0394882 -0.00626711 -2.2516e-16)
(0.0422984 -0.00330425 0)
(-0.00949339 0.00763916 0)
(-0.0846205 0.0180171 -3.83465e-17)
(-0.15903 0.0253153 0)
(-0.226772 0.0299884 0)
(-0.285417 0.032504 -1.36375e-17)
(-0.334797 0.0333004 -1.05473e-17)
(-0.374442 0.0326103 0)
(-0.40388 0.0306632 7.57764e-18)
(-0.42262 0.0276556 3.6453e-18)
(-0.429865 0.0237468 -3.84576e-18)
(-0.42503 0.0192014 0)
(-0.408072 0.0142762 0)
(-0.379175 0.00926387 0)
(-0.338174 0.00432119 3.79327e-18)
(-0.284896 -0.000295534 -4.72602e-18)
(-0.220961 -0.00411661 0)
(-0.148684 -0.00751837 0)
(-0.0678294 -0.0105455 1.25992e-18)
(0.0265058 -0.00961747 0)
(0.0975689 -0.00588662 1.09877e-17)
(0.159311 -0.00191688 -9.99866e-18)
(0.208684 0.00238779 0)
(0.244595 0.00675409 0)
(0.266782 0.0108626 1.77733e-17)
(0.276163 0.0144209 0)
(0.275161 0.0173289 1.85354e-17)
(0.266476 0.0194288 0)
(0.253355 0.0206767 0)
(0.234667 0.0212026 4.40734e-17)
(0.20995 0.0217495 -9.22645e-17)
(0.174392 0.0237999 0)
(0.0528057 0.015033 0)
(-0.0719949 -0.0039305 5.50373e-17)
(-0.109034 -0.0129338 0)
(-0.113573 -0.0160013 0)
(-0.0961745 -0.0154345 -8.46719e-17)
(-0.0637705 -0.0122551 -8.9719e-17)
(-0.0166158 -0.00615122 -9.73762e-17)
(0.0431389 0.00347415 -4.50571e-20)
(0.0946141 0.0133775 9.1785e-17)
(0.153686 0.0244704 0)
(0.207208 0.0364313 -6.35794e-20)
(0.276857 0.0503739 -7.12393e-17)
(0.325527 0.0643695 6.30431e-17)
(0.425904 0.083463 5.38355e-17)
(0.445044 0.0978653 1.12197e-19)
(0.683118 0.137634 0)
(0.741812 -0.124096 3.74815e-17)
(0.33791 -0.0601424 9.99e-18)
(0.0857497 -0.00504649 -3.44973e-17)
(-0.0529687 0.0176854 -4.85235e-17)
(-0.0823328 0.017773 0)
(-0.0891014 0.0178394 0)
(-0.0916484 0.0173484 -3.59651e-17)
(-0.0867214 0.0144068 6.70174e-17)
(-0.0663542 0.0077773 0)
(-0.0326549 -0.000880987 0)
(0.00407088 -0.00638554 -3.77614e-17)
(0.022547 -0.00486285 5.13558e-17)
(0.00934879 0.00295297 2.71539e-17)
(-0.0520347 0.0161436 0)
(-0.127369 0.0267245 1.91265e-17)
(-0.200461 0.0340148 0)
(-0.265706 0.0385639 0)
(-0.321342 0.0408664 0)
(-0.366695 0.0411514 0)
(-0.401303 0.0396085 0)
(-0.424946 0.0365341 -1.47372e-20)
(-0.437351 0.0321751 0)
(-0.437912 0.0266753 -2.43839e-18)
(-0.426126 0.0203577 0)
(-0.402592 0.0136698 0)
(-0.367566 0.00703389 1.72596e-18)
(-0.320797 0.000573101 -2.02595e-18)
(-0.262077 -0.00543721 9.41871e-21)
(-0.193128 -0.0101568 1.38083e-18)
(-0.115736 -0.0141909 0)
(-0.0264756 -0.0172197 -4.65782e-19)
(0.0594381 -0.0156259 -2.0598e-18)
(0.130852 -0.0109366 -8.19506e-21)
(0.192772 -0.00572211 4.48202e-18)
(0.242643 0.000188984 -4.65228e-18)
(0.279418 0.00637083 0)
(0.302897 0.0123409 0)
(0.313821 0.0175942 0)
(0.313913 0.0218025 0)
(0.306134 0.0247682 0)
(0.292556 0.0266671 -2.68375e-17)
(0.268251 0.0279415 0)
(0.225978 0.0292725 2.56217e-17)
(0.149192 0.0311699 2.39077e-17)
(-0.0108348 0.0193056 0)
(-0.0973051 -0.000695252 0)
(-0.12178 -0.0128798 0)
(-0.116693 -0.0175567 0)
(-0.0924525 -0.0175972 3.14779e-17)
(-0.0544257 -0.0145179 0)
(-0.00109416 -0.00779539 0)
(0.0588137 0.00223149 -3.30873e-17)
(0.115208 0.0136076 -3.36651e-17)
(0.179016 0.0262085 0)
(0.239448 0.0404349 -6.73889e-17)
(0.315462 0.0566571 0)
(0.375515 0.0748113 -6.24031e-17)
(0.482628 0.0964847 -2.81978e-17)
(0.520412 0.117811 2.0331e-17)
(0.750953 0.157105 1.92177e-17)
(0.764745 -0.117948 -1.2619e-18)
(0.407506 -0.057839 -7.33892e-18)
(0.158703 -0.00769778 0)
(-0.00521568 0.0149662 3.17337e-17)
(-0.0702745 0.0174868 0)
(-0.0839761 0.0173287 0)
(-0.088338 0.0167136 0)
(-0.0842392 0.0131617 -1.86011e-17)
(-0.0655652 0.00587405 0)
(-0.0359931 -0.0026493 -1.79585e-17)
(-0.00759669 -0.00632761 0)
(0.00301733 -0.00136342 0)
(-0.0211128 0.0110868 -1.66685e-17)
(-0.0826379 0.0260713 0)
(-0.152785 0.0365715 0)
(-0.219639 0.0427455 0)
(-0.278768 0.0457787 0)
(-0.328855 0.0464946 0)
(-0.369202 0.0451946 0)
(-0.399357 0.0420869 3.87621e-18)
(-0.419094 0.0375068 -3.40494e-18)
(-0.428068 0.0317099 0)
(-0.425567 0.0248046 8.76766e-21)
(-0.411172 0.0171781 -1.76429e-18)
(-0.385275 0.00925369 0)
(-0.34809 0.00146683 -2.25332e-18)
(-0.299333 -0.00608426 0)
(-0.238793 -0.0131252 1.49926e-18)
(-0.168196 -0.0186825 -8.62585e-19)
(-0.088639 -0.0234561 0)
(0.00143365 -0.0259333 0)
(0.0813188 -0.0230964 1.22435e-18)
(0.151885 -0.0175477 -5.29471e-21)
(0.212721 -0.0111433 0)
(0.261512 -0.00383099 6.04067e-18)
(0.297272 0.00385281 0)
(0.319906 0.0113213 7.10803e-18)
(0.330237 0.0179487 0)
(0.329863 0.0233151 0)
(0.321336 0.0271764 0)
(0.305087 0.0300138 1.89233e-17)
(0.273017 0.0328895 0)
(0.21331 0.037204 0)
(0.101856 0.0394821 -1.52787e-17)
(-0.0518594 0.02462 0)
(-0.109673 0.00176001 0)
(-0.123807 -0.0126288 1.00565e-17)
(-0.112644 -0.0185629 -9.15736e-18)
(-0.0845899 -0.0192907 -8.85352e-18)
(-0.0435738 -0.0167303 0)
(0.0117928 -0.0101141 0)
(0.0703747 -0.000170188 0)
(0.12824 0.0115685 1.8944e-17)
(0.19316 0.0243412 1.92044e-17)
(0.255683 0.0390784 1.92997e-17)
(0.333011 0.0553107 0)
(0.396842 0.0746693 1.82015e-17)
(0.504653 0.0951608 3.38573e-17)
(0.552023 0.120324 0)
(0.772306 0.150841 -1.21276e-17)
(0.783662 -0.0980718 -8.97142e-19)
(0.458786 -0.0529894 5.70739e-18)
(0.219892 -0.00826353 -1.77519e-17)
(0.0488901 0.0125701 0)
(-0.0509888 0.0170921 0)
(-0.075579 0.0165806 0)
(-0.0828995 0.015793 0)
(-0.0804628 0.0116913 0)
(-0.0641564 0.00385763 0)
(-0.0391143 -0.00430746 1.29804e-17)
(-0.0183894 -0.00598213 1.63702e-17)
(-0.0163667 0.00265735 0)
(-0.0464151 0.018965 0)
(-0.104269 0.0350046 0)
(-0.167761 0.0448787 8.83811e-18)
(-0.228071 0.0498003 0)
(-0.281675 0.0514559 5.49819e-18)
(-0.327348 0.050844 -4.32983e-18)
(-0.364191 0.0482794 0)
(-0.391547 0.0439355 -2.89031e-18)
(-0.409006 0.0381296 0)
(-0.416058 0.0310912 -1.21503e-18)
(-0.411853 0.022898 2.518e-18)
(-0.395977 0.0139872 1.35118e-18)
(-0.368696 0.00478881 0)
(-0.330223 -0.00425208 8.63303e-19)
(-0.280282 -0.0130337 0)
(-0.218681 -0.0212538 1.14163e-18)
(-0.147107 -0.0279239 0)
(-0.0658848 -0.0335738 0)
(0.0220663 -0.0355278 0)
(0.098565 -0.0314472 9.27514e-19)
(0.168056 -0.0248238 -4.02753e-18)
(0.227685 -0.0170221 0)
(0.27522 -0.00815679 -2.33222e-18)
(0.309684 0.00111886 0)
(0.331017 0.0101078 -5.5393e-18)
(0.340049 0.0180679 0)
(0.338229 0.0245074 0)
(0.3276 0.0292493 0)
(0.307081 0.0331824 1.41021e-17)
(0.26604 0.038162 0)
(0.188217 0.04623 1.23006e-17)
(0.0496113 0.0485724 -1.13031e-17)
(-0.0763655 0.0303805 0)
(-0.115417 0.00380862 -7.90707e-18)
(-0.121613 -0.0125239 -1.43477e-17)
(-0.105987 -0.0197084 6.58103e-18)
(-0.0751318 -0.0212248 1.28177e-17)
(-0.031779 -0.0192976 -1.28841e-17)
(0.0240491 -0.013026 -1.31513e-17)
(0.0813163 -0.00314487 0)
(0.139691 0.00874089 -1.36862e-17)
(0.20479 0.0215804 -1.37648e-17)
(0.268074 0.0365276 -1.36114e-17)
(0.345468 0.0527193 0)
(0.410771 0.0725145 0)
(0.517949 0.092301 -1.16077e-17)
(0.56943 0.118742 0)
(0.782704 0.144574 8.12686e-18)
(0.798877 -0.0801113 -7.40958e-19)
(0.499344 -0.0476752 -1.10245e-19)
(0.272318 -0.00709614 1.49985e-17)
(0.101095 0.0116576 2.03615e-17)
(-0.0221213 0.01664 0)
(-0.064158 0.0159767 -1.43393e-17)
(-0.0759371 0.0148491 0)
(-0.0758588 0.0102526 0)
(-0.0623225 0.00199494 0)
(-0.0418669 -0.00561986 1.06069e-17)
(-0.0281718 -0.00523393 -1.34398e-17)
(-0.0336133 0.00675944 0)
(-0.0661404 0.0258878 0)
(-0.119085 0.0425075 0)
(-0.176161 0.0517461 -6.79618e-18)
(-0.230804 0.0556585 0)
(-0.279983 0.056245 -4.30261e-18)
(-0.322324 0.0545746 3.43093e-18)
(-0.356657 0.0509536 0)
(-0.382088 0.0455262 0)
(-0.398027 0.0385964 1.04764e-18)
(-0.403826 0.0303708 1.01936e-18)
(-0.398522 0.0209128 -2.11272e-18)
(-0.381683 0.0107252 -1.1328e-18)
(-0.353507 0.000257144 0)
(-0.314206 -0.0100487 7.29118e-19)
(-0.263533 -0.0200818 0)
(-0.201313 -0.0294955 -9.75212e-19)
(-0.129186 -0.0373614 5.58713e-19)
(-0.0467196 -0.0437204 0)
(0.0376768 -0.0450131 0)
(0.112533 -0.0398961 -1.57462e-18)
(0.181043 -0.0322034 1.7109e-18)
(0.239598 -0.0229877 0)
(0.286002 -0.0125529 -1.98168e-18)
(0.319256 -0.00167288 0)
(0.339283 0.00884507 4.70046e-18)
(0.346829 0.0181487 0)
(0.3431 0.0256895 0)
(0.329604 0.0314221 0)
(0.303872 0.0367218 -1.1346e-17)
(0.252433 0.0444784 -1.09467e-17)
(0.155178 0.056308 -9.93484e-18)
(0.00296625 0.0579346 1.75724e-20)
(-0.0910759 0.0352657 -7.296e-18)
(-0.116737 0.00539703 6.26856e-18)
(-0.116581 -0.0126112 1.15889e-17)
(-0.0973852 -0.020963 0)
(-0.0642576 -0.0232818 -5.27088e-18)
(-0.018856 -0.0219321 1.0638e-17)
(0.0361652 -0.0160587 1.08706e-17)
(0.09241 -0.00621274 0)
(0.150862 0.00568585 0)
(0.215769 0.0185389 0)
(0.279283 0.0335578 1.0969e-17)
(0.356345 0.0497013 0)
(0.422292 0.069609 0)
(0.528582 0.088968 8.97174e-18)
(0.582264 0.115637 -5.94416e-18)
(0.790394 0.138596 -6.25342e-18)
(0.811761 -0.0646552 -6.47537e-19)
(0.533295 -0.041746 -4.3968e-18)
(0.318053 -0.00470515 0)
(0.150251 0.0121125 -1.76601e-17)
(0.0138739 0.0163316 -1.70955e-17)
(-0.0490405 0.0156564 -4.64397e-21)
(-0.0673135 0.0139698 0)
(-0.0703447 0.00891989 0)
(-0.0599177 0.000363855 0)
(-0.0439374 -0.00656073 -9.2199e-18)
(-0.0363993 -0.00415871 0)
(-0.0476111 0.0106751 0)
(-0.0806627 0.0318052 7.84908e-18)
(-0.128692 0.0487694 0)
(-0.180144 0.0575179 0)
(-0.230098 0.0606799 0)
(-0.275742 0.0604425 0)
(-0.315492 0.0579032 -2.88127e-18)
(-0.347931 0.0533611 0)
(-0.371966 0.0469475 2.02529e-18)
(-0.386854 0.0389647 -9.23384e-19)
(-0.391838 0.0296004 -8.98695e-19)
(-0.385845 0.0189088 1.88621e-18)
(-0.368416 0.00746304 2.03924e-18)
(-0.339701 -0.00425894 0)
(-0.299915 -0.0158198 -6.61086e-19)
(-0.248843 -0.0270995 0)
(-0.186343 -0.037703 0)
(-0.114003 -0.0467905 -1.0088e-18)
(-0.0310671 -0.0536496 0)
(0.0499006 -0.0542094 0)
(0.123875 -0.0482613 1.41475e-18)
(0.191552 -0.0395244 0)
(0.249209 -0.02891 0)
(0.294662 -0.0169126 1.7832e-18)
(0.32687 -0.00442754 0)
(0.345688 0.00763163 -4.21354e-18)
(0.351696 0.0183098 0)
(0.345782 0.0270146 0)
(0.328913 0.0338882 0)
(0.297116 0.0409203 0)
(0.233621 0.0521818 9.27664e-18)
(0.116673 0.0670471 8.46573e-18)
(-0.0336845 0.0668142 2.27717e-20)
(-0.0991153 0.0389648 6.03162e-18)
(-0.114717 0.00654358 5.31465e-18)
(-0.109327 -0.0128827 -5.00307e-18)
(-0.0871476 -0.022285 0)
(-0.0520974 -0.025384 -4.62104e-18)
(-0.00506631 -0.0245156 4.67348e-18)
(0.0484225 -0.019014 -9.54861e-18)
(0.103863 -0.0092173 0)
(0.162138 0.00261601 0)
(0.226654 0.0154504 -9.74261e-18)
(0.290112 0.0304652 -9.47365e-18)
(0.366661 0.0465535 9.10637e-18)
(0.432856 0.0664032 8.21805e-18)
(0.538196 0.085479 -7.59388e-18)
(0.593253 0.111843 4.88532e-18)
(0.797156 0.132922 0)
(0.823271 -0.0503741 -5.71678e-19)
(0.56278 -0.0353025 0)
(0.358532 -0.00154506 1.17412e-17)
(0.196039 0.0135567 1.57537e-17)
(0.0536719 0.0165126 -4.50867e-21)
(-0.0291385 0.0156044 1.26202e-17)
(-0.0567109 0.0132298 0)
(-0.063731 0.00770863 0)
(-0.0567481 -0.00105007 0)
(-0.0450405 -0.00720575 4.15083e-18)
(-0.0426649 -0.00290404 5.09678e-18)
(-0.058019 0.0142763 0)
(-0.0906317 0.0368413 -6.52588e-18)
(-0.134253 0.0540388 5.61827e-18)
(-0.180968 0.0624585 0)
(-0.227063 0.0650843 0)
(-0.269837 0.0642073 0)
(-0.30752 0.0609389 6.27825e-21)
(-0.338499 0.0555776 0)
(-0.361515 0.0482519 -3.65892e-18)
(-0.375702 0.039271 8.3741e-19)
(-0.380205 0.0288067 8.36663e-19)
(-0.373844 0.0169065 -7.24901e-21)
(-0.356119 0.00421658 -9.55445e-19)
(-0.327145 -0.00874906 0)
(-0.287139 -0.0215572 0)
(-0.235924 -0.0340764 0)
(-0.173409 -0.0458668 4.09313e-19)
(-0.101135 -0.0561656 9.41499e-19)
(-0.0185405 -0.0633662 0)
(0.0597558 -0.0631873 0)
(0.133096 -0.0565485 -1.31534e-18)
(0.200064 -0.0467825 -7.1367e-19)
(0.256976 -0.0347823 0)
(0.301642 -0.0212264 0)
(0.332961 -0.0071299 0)
(0.350677 0.00649612 0)
(0.35512 0.0186019 0)
(0.346804 0.0285626 0)
(0.326138 0.0367625 0)
(0.287311 0.045999 0)
(0.210272 0.0613252 0)
(0.0750118 0.0781285 -1.15903e-20)
(-0.0589249 0.0745833 6.47747e-18)
(-0.102307 0.0416052 0)
(-0.110029 0.00730181 -9.47827e-18)
(-0.100226 -0.0133273 -4.48346e-18)
(-0.0755089 -0.0236714 0)
(-0.0387866 -0.0275099 4.21635e-18)
(0.00924364 -0.0270462 -4.27138e-18)
(0.060995 -0.0218466 8.71626e-18)
(0.11573 -0.0121439 -8.87207e-18)
(0.17366 -0.000419738 0)
(0.23766 0.0123749 1.16917e-20)
(0.300881 0.0273417 8.57705e-18)
(0.376816 0.0433668 -1.6412e-17)
(0.443022 0.063066 -2.28865e-20)
(0.547388 0.0819279 -6.72344e-18)
(0.603362 0.107723 4.19487e-18)
(0.803554 0.127477 4.56203e-18)
(0.833823 -0.0368499 -1.0801e-17)
(0.588984 -0.0286173 0)
(0.394795 0.00209397 -8.62419e-20)
(0.238518 0.0157091 -3.19019e-20)
(0.0942905 0.0173959 1.49346e-17)
(-0.00379955 0.0157965 1.22246e-17)
(-0.0436934 0.01272 0)
(-0.0557813 0.00663737 8.43558e-18)
(-0.0526199 -0.00227031 0)
(-0.0449625 -0.00763652 -3.81631e-18)
(-0.0467974 -0.00159442 8.87145e-21)
(-0.064986 0.0175149 -5.59665e-18)
(-0.0967499 0.0411344 0)
(-0.13662 0.0585161 -9.61218e-18)
(-0.179402 0.0667503 0)
(-0.222307 0.069012 0)
(-0.262717 0.0676404 0)
(-0.298724 0.0637544 2.28972e-18)
(-0.328569 0.0576581 0)
(-0.350858 0.0494832 1.70103e-18)
(-0.364619 0.0395506 -1.57724e-18)
(-0.368907 0.0280185 0)
(-0.362429 0.0149285 -7.53078e-21)
(-0.344639 0.00100373 0)
(-0.315624 -0.0132005 0)
(-0.275604 -0.0272526 -5.92845e-19)
(-0.224438 -0.0410044 0)
(-0.16211 -0.0539802 -7.85933e-19)
(-0.0901248 -0.0654489 -4.5054e-19)
(-0.00846705 -0.0728921 -1.27455e-19)
(0.0678592 -0.0720204 1.42211e-19)
(0.140641 -0.0647761 6.25134e-19)
(0.206979 -0.0539898 1.35632e-18)
(0.263254 -0.0406126 0)
(0.307256 -0.0254988 1.57142e-18)
(0.337808 -0.00977829 0)
(0.354503 0.00545292 0)
(0.357337 0.0190591 0)
(0.346421 0.030393 3.85094e-18)
(0.321511 0.0401479 0)
(0.274589 0.0521436 0)
(0.182989 0.0717256 7.19456e-18)
(0.0348041 0.0892223 -6.63217e-18)
(-0.0749676 0.080891 0)
(-0.101825 0.0433984 0)
(-0.103155 0.00772375 4.35242e-18)
(-0.0895752 -0.0139365 4.14147e-18)
(-0.0626724 -0.0251306 -3.94019e-18)
(-0.0244611 -0.0296437 0)
(0.0237833 -0.02954 0)
(0.0739311 -0.0245619 0)
(0.128004 -0.0150016 7.87128e-21)
(0.185475 -0.00341132 0)
(0.248873 0.00932978 8.24933e-18)
(0.311733 0.0242214 0)
(0.386985 0.0401773 7.61296e-18)
(0.453045 0.0596725 -6.75868e-18)
(0.556421 0.0783566 1.23797e-17)
(0.613015 0.103445 -3.81411e-18)
(0.809817 0.122213 -4.19985e-18)
(0.843605 -0.0240594 4.56367e-19)
(0.612649 -0.0218699 -3.36751e-18)
(0.42762 0.00603983 -1.00595e-17)
(0.2779 0.0183802 -3.4791e-20)
(0.134603 0.0189641 -1.41623e-17)
(0.0259402 0.0163389 -1.1977e-17)
(-0.027702 0.0124875 0)
(-0.0462163 0.0057372 -8.21802e-18)
(-0.0473521 -0.00331013 0)
(-0.0435654 -0.00791441 -3.56643e-18)
(-0.0488061 -0.0003083 -4.13227e-18)
(-0.0688792 0.0203962 4.82742e-18)
(-0.0996587 0.0448108 -4.7866e-18)
(-0.136412 0.0623577 4.20008e-18)
(-0.175942 0.0705241 -3.55881e-18)
(-0.21619 0.0725592 2.98707e-18)
(-0.254628 0.0708103 0)
(-0.289263 0.0663995 0)
(-0.318227 0.0596403 0)
(-0.340015 0.050671 7.9934e-19)
(-0.35356 0.0398271 7.58583e-19)
(-0.357838 0.027254 0)
(-0.351429 0.0129882 -8.22782e-19)
(-0.333749 -0.00216458 0)
(-0.304861 -0.0176045 0)
(-0.264984 -0.0328988 5.865e-19)
(-0.21401 -0.047876 -6.68235e-19)
(-0.152021 -0.0620348 3.83884e-19)
(-0.080505 -0.0746073 0)
(-0.000168429 -0.0822338 2.4661e-19)
(0.0746803 -0.0807501 -2.7425e-19)
(0.146903 -0.0729483 0)
(0.212647 -0.0611501 -6.53128e-19)
(0.268343 -0.0464042 1.40628e-18)
(0.311755 -0.0297323 -1.5146e-18)
(0.341618 -0.0123723 0)
(0.357335 0.0045117 0)
(0.35849 0.0197082 0)
(0.344763 0.0325563 -3.58736e-18)
(0.315092 0.0441472 0)
(0.259009 0.0594894 0)
(0.152476 0.0830602 -6.52352e-18)
(-0.00060245 0.0999712 0)
(-0.0840195 0.0856665 4.87228e-18)
(-0.0984709 0.0445223 -4.22167e-18)
(-0.094465 0.00785083 0)
(-0.0776221 -0.0147029 3.86889e-18)
(-0.0488166 -0.026671 7.43995e-18)
(-0.00925405 -0.0317721 -3.71327e-18)
(0.0383051 -0.0319975 0)
(0.0872205 -0.0271805 0)
(0.140648 -0.0177986 3.92775e-18)
(0.197581 -0.00635635 0)
(0.260319 0.00632119 7.80116e-18)
(0.322728 0.0211198 0)
(0.397249 0.037001 7.17751e-18)
(0.463053 0.0562586 6.33606e-18)
(0.565422 0.0747834 -5.82725e-18)
(0.622424 0.0990924 0)
(0.81605 0.117096 3.91294e-18)
(0.852734 -0.0119848 8.18598e-18)
(0.634279 -0.0151417 3.16986e-20)
(0.457596 0.0101826 9.34641e-18)
(0.314443 0.0214266 -3.6905e-20)
(0.173924 0.0211019 3.94844e-21)
(0.058241 0.0173455 0)
(-0.0079652 0.0125585 0)
(-0.0346895 0.00505435 0)
(-0.040775 -0.00416894 -3.48223e-18)
(-0.040772 -0.00807867 6.73456e-18)
(-0.0487986 0.000913909 0)
(-0.0701067 0.0229525 4.25191e-18)
(-0.0998935 0.0479805 -9.50791e-21)
(-0.13408 0.0656868 -3.74037e-18)
(-0.170919 0.0738781 1.68486e-21)
(-0.208936 0.075796 -2.73796e-18)
(-0.245713 0.0737661 0)
(-0.279211 0.0689086 0)
(-0.307485 0.0615486 0)
(-0.328936 0.0518326 -7.7322e-19)
(-0.342414 0.0401125 0)
(-0.34682 0.0265208 7.54429e-19)
(-0.340604 0.0110897 8.10163e-19)
(-0.323155 -0.00528519 -8.92067e-19)
(-0.294523 -0.0219576 0)
(-0.254918 -0.038493 0)
(-0.204252 -0.0546864 6.68124e-19)
(-0.142726 -0.0700256 0)
(-0.0718291 -0.0836201 4.26258e-19)
(0.00693943 -0.0913902 -1.20379e-19)
(0.0806047 -0.0893953 1.33343e-19)
(0.152226 -0.0810617 -5.83015e-19)
(0.217368 -0.0682605 0)
(0.272498 -0.0521546 -1.36694e-18)
(0.315347 -0.0339252 0)
(0.344555 -0.0149085 0)
(0.359297 0.00368315 3.41907e-18)
(0.358668 0.0205754 0)
(0.341887 0.0351023 0)
(0.30686 0.048867 0)
(0.240665 0.0681036 0)
(0.11961 0.0949864 0)
(-0.0291508 0.109942 0)
(-0.0877684 0.0890386 -8.76752e-18)
(-0.0928092 0.0451096 3.95857e-18)
(-0.0842575 0.00771483 3.83456e-18)
(-0.0645776 -0.01562 -7.34436e-18)
(-0.0340971 -0.0282929 -3.55157e-18)
(0.00643719 -0.0338965 3.55288e-18)
(0.0528716 -0.0344031 -3.60374e-18)
(0.100827 -0.0297258 0)
(0.153616 -0.0205425 3.83204e-21)
(0.209956 -0.0092559 -7.53397e-18)
(0.271992 0.00335058 -7.48036e-18)
(0.333886 0.0180435 -7.19914e-18)
(0.407641 0.0338449 -1.37523e-17)
(0.473108 0.0528429 -6.06346e-18)
(0.574454 0.0712167 5.54266e-18)
(0.631707 0.0947076 3.31063e-18)
(0.822304 0.112101 -3.75164e-18)
(0.861292 -0.00057684 -3.7617e-19)
(0.654228 -0.00847289 3.04676e-18)
(0.485176 0.0144462 -7.48807e-20)
(0.348412 0.0247371 -3.83461e-20)
(0.211856 0.0236986 1.30173e-17)
(0.0921069 0.0188625 1.14971e-17)
(0.0152756 0.0129761 -9.50574e-18)
(-0.0208031 0.00463084 4.04479e-18)
(-0.0327193 -0.00483016 -3.84777e-22)
(-0.0365439 -0.00814923 -3.209e-18)
(-0.0469203 0.00205912 -3.52858e-18)
(-0.0690365 0.0252235 -3.77898e-18)
(-0.09788 0.0507348 7.47204e-18)
(-0.129959 0.0685998 -2.83115e-21)
(-0.164563 0.0768871 2.94545e-18)
(-0.200692 0.0787745 0)
(-0.236052 0.076543 2.17684e-18)
(-0.268591 0.0713049 0)
(-0.296308 0.0633973 -1.64097e-18)
(-0.317523 0.0529753 -7.45463e-19)
(-0.331016 0.0404084 -7.20336e-19)
(-0.335621 0.0258167 -8.39888e-21)
(-0.329655 0.00922879 -8.26327e-19)
(-0.312509 -0.00836115 9.13373e-19)
(-0.284232 -0.0262607 0)
(-0.245019 -0.0440335 -5.89241e-19)
(-0.194783 -0.0614314 0)
(-0.133836 -0.077948 0)
(-0.0636987 -0.0924751 -4.22542e-19)
(0.0133131 -0.100356 0)
(0.0859439 -0.0979604 0)
(0.156889 -0.0891082 5.69441e-19)
(0.221388 -0.0753134 0)
(0.275926 -0.0578572 0)
(0.318201 -0.0380717 1.43422e-18)
(0.346751 -0.01738 0)
(0.360479 0.00298022 -3.33584e-18)
(0.357927 0.0216885 0)
(0.337806 0.0380833 3.20891e-18)
(0.296784 0.0544111 0)
(0.219735 0.077954 0)
(0.0855003 0.10721 0)
(-0.049845 0.118672 0)
(-0.0874869 0.0912219 4.02315e-18)
(-0.0852581 0.0452564 0)
(-0.0727773 0.00734 -7.35561e-18)
(-0.0506187 -0.0166821 3.51534e-18)
(-0.018647 -0.0299825 -3.40684e-18)
(0.0222786 -0.0360268 3.41521e-18)
(0.0675239 -0.0367506 3.47219e-18)
(0.114702 -0.0322163 0)
(0.166855 -0.023241 3.61837e-18)
(0.222567 -0.0121135 1.0906e-17)
(0.283872 0.000416159 -7.20937e-18)
(0.345203 0.0149945 6.96094e-18)
(0.418165 0.030711 6.64679e-18)
(0.483235 0.0494348 0)
(0.583543 0.0676599 -5.36362e-18)
(0.640925 0.0903158 -6.35711e-18)
(0.828603 0.10721 0)
(0.869342 0.0102154 -6.22487e-18)
(0.672752 -0.00189024 0)
(0.510715 0.0187768 -7.10317e-20)
(0.380058 0.0282269 -3.92152e-20)
(0.248178 0.0266535 -1.25428e-17)
(0.126749 0.0208522 -2.27217e-17)
(0.041254 0.0137851 1.89202e-17)
(-0.00422495 0.00453103 -4.02709e-18)
(-0.0229987 -0.00526246 3.35311e-18)
(-0.0308592 -0.00812921 0)
(-0.0433202 0.00313287 -9.13223e-21)
(-0.0659744 0.0272482 0)
(-0.0939493 0.0531476 -6.74562e-18)
(-0.124296 0.0711727 3.08586e-18)
(-0.157036 0.0796098 0)
(-0.191552 0.0815347 0)
(-0.225682 0.0791663 -2.06909e-18)
(-0.257385 0.073603 0)
(-0.284621 0.0651919 1.59933e-18)
(-0.305638 0.0540973 7.36954e-19)
(-0.319156 0.0407072 7.53536e-21)
(-0.323957 0.02513 -7.71421e-19)
(-0.318232 0.00739347 -8.34284e-19)
(-0.301418 -0.0114002 0)
(-0.273582 -0.0305158 0)
(-0.234895 -0.0495172 6.08033e-19)
(-0.185241 -0.0681036 0)
(-0.125019 -0.0857937 3.75391e-19)
(-0.0557896 -0.101164 -4.16548e-19)
(0.0192925 -0.109125 1.15493e-19)
(0.0909379 -0.10644 -1.27047e-19)
(0.16111 -0.0970773 5.5557e-19)
(0.224899 -0.0822995 -6.03188e-19)
(0.278794 -0.0635032 1.30303e-18)
(0.320455 -0.0421634 -1.4065e-18)
(0.348309 -0.0197768 0)
(0.360952 0.0024186 0)
(0.356303 0.023078 0)
(0.332506 0.0415558 -3.32422e-21)
(0.284844 0.0608726 3.01314e-18)
(0.196497 0.0888962 0)
(0.0521575 0.119387 0)
(-0.0632159 0.125867 0)
(-0.0841162 0.0924354 0)
(-0.0761368 0.0450321 0)
(-0.0602257 0.00674534 1.7947e-20)
(-0.0358914 -0.0178846 0)
(-0.00259607 -0.0317329 6.57636e-18)
(0.0380203 -0.0381534 -6.59714e-18)
(0.0822772 -0.0390498 -3.35468e-18)
(0.128797 -0.0346665 0)
(0.180317 -0.0259016 0)
(0.235374 -0.0149339 -7.0468e-18)
(0.295929 -0.00248567 1.00221e-20)
(0.356662 0.0119716 -6.74699e-18)
(0.428814 0.0275984 6.4455e-18)
(0.49344 0.0460385 5.65643e-18)
(0.592698 0.0641137 -5.19474e-18)
(0.650112 0.0859317 6.13745e-18)
(0.834955 0.102409 3.49898e-18)
(0.876929 0.0204342 3.16756e-19)
(0.690042 0.00458762 -2.79919e-18)
(0.534491 0.0231366 -1.60593e-17)
(0.409613 0.0318323 -3.96125e-20)
(0.282794 0.0298783 1.21267e-17)
(0.161554 0.0232606 1.12772e-17)
(0.0693604 0.0150334 -4.71972e-18)
(0.0150182 0.0047935 0)
(-0.011393 -0.00543265 0)
(-0.0236909 -0.00800722 2.99726e-18)
(-0.0381495 0.00414375 3.07752e-18)
(-0.0611685 0.0290612 0)
(-0.0883576 0.0552781 3.07732e-18)
(-0.117279 0.0734654 0)
(-0.148454 0.0820915 0)
(-0.181576 0.0841066 0)
(-0.214614 0.0816535 0)
(-0.245556 0.0758094 1.73074e-18)
(-0.272328 0.0669298 7.74258e-19)
(-0.293115 0.055188 -7.20706e-19)
(-0.306594 0.0409919 7.9404e-21)
(-0.311513 0.0244407 0)
(-0.305954 0.00556567 8.69059e-19)
(-0.289465 -0.0144124 0)
(-0.262153 -0.0347236 0)
(-0.224159 -0.0549351 6.23378e-19)
(-0.175297 -0.074689 -6.92729e-19)
(-0.115994 -0.093545 -3.80584e-19)
(-0.0478445 -0.10968 4.16039e-19)
(0.0251098 -0.117687 -2.27792e-19)
(0.0957624 -0.114822 2.49302e-19)
(0.165051 -0.104956 -5.44816e-19)
(0.228045 -0.0892075 5.91366e-19)
(0.281225 -0.069082 -1.85898e-21)
(0.322211 -0.0461901 -1.37755e-18)
(0.349308 -0.0220863 0)
(0.360765 0.00201703 0)
(0.35381 0.0247774 0)
(0.325961 0.0455791 -5.89179e-18)
(0.271058 0.0683223 -2.85066e-18)
(0.171339 0.100693 0)
(0.0217852 0.131165 0)
(-0.0705787 0.131431 -4.10081e-18)
(-0.0783435 0.0928663 0)
(-0.0656954 0.044487 0)
(-0.0467642 0.00594461 6.8735e-18)
(-0.0205163 -0.0192149 -3.25643e-18)
(0.0137155 -0.0335297 -6.36952e-18)
(0.053697 -0.0402707 5.19676e-21)
(0.0971302 -0.0413154 6.51632e-18)
(0.143065 -0.0370878 3.33247e-18)
(0.193953 -0.0285313 0)
(0.24834 -0.0177225 3.43093e-18)
(0.308132 -0.00535922 6.82577e-18)
(0.368241 0.00897215 6.59058e-18)
(0.439568 0.0245047 -6.30472e-18)
(0.503717 0.0426552 -5.53511e-18)
(0.601913 0.0605771 5.09171e-18)
(0.659284 0.0815638 -2.99295e-18)
(0.841358 0.0976868 -3.4418e-18)
(0.88409 0.0301159 2.92524e-19)
(0.706245 0.0109483 2.71725e-18)
(0.556729 0.0274993 6.34392e-20)
(0.437285 0.0355062 -3.96269e-20)
(0.31568 0.033297 0)
(0.196057 0.0260264 0)
(0.0990439 0.016717 2.82305e-21)
(0.0365861 0.00544707 0)
(0.00235015 -0.00529585 0)
(-0.0149889 -0.00775833 4.58939e-21)
(-0.0315286 0.00510633 0)
(-0.054818 0.0306938 0)
(-0.0813047 0.0571741 2.84836e-18)
(-0.109048 0.0755255 0)
(-0.138901 0.0843686 0)
(-0.170799 0.0865132 0)
(-0.202841 0.0840154 0)
(-0.233047 0.0779245 -8.80562e-21)
(-0.259318 0.0686012 -7.638e-19)
(-0.279779 0.0562291 1.43475e-18)
(-0.293082 0.0412378 8.31876e-21)
(-0.297965 0.0237218 7.94123e-19)
(-0.292442 0.00372332 0)
(-0.276244 -0.0174083 9.98084e-19)
(-0.249544 -0.038881 0)
(-0.212448 -0.06027 -6.53595e-19)
(-0.164658 -0.0811666 5.2032e-21)
(-0.10654 -0.101172 0)
(-0.0396749 -0.118011 0)
(0.0309234 -0.126034 4.54705e-22)
(0.100542 -0.123091 -3.55641e-22)
(0.168827 -0.112732 2.66223e-19)
(0.230928 -0.0960256 0)
(0.28331 -0.0745827 -1.25339e-18)
(0.323545 -0.0501405 1.35411e-18)
(0.349808 -0.0242941 0)
(0.359954 0.00179771 -3.13574e-18)
(0.350454 0.0268229 0)
(0.318147 0.0502144 3.20187e-21)
(0.255485 0.0768007 0)
(0.144746 0.113062 2.49156e-18)
(-0.00413482 0.142226 2.30803e-18)
(-0.073084 0.135415 2.48338e-20)
(-0.0706664 0.0926656 -3.31471e-18)
(-0.0541322 0.0436583 0)
(-0.0325287 0.00494639 -1.69974e-20)
(-0.00459124 -0.020671 3.16206e-18)
(0.0300105 -0.0353576 7.49875e-21)
(0.0693375 -0.0423726 3.10821e-18)
(0.112071 -0.0435587 -4.06846e-21)
(0.157466 -0.0394888 -3.8012e-21)
(0.207724 -0.0311362 0)
(0.261429 -0.0204841 0)
(0.32045 -0.00820884 0)
(0.379915 0.00599297 0)
(0.450408 0.0214268 0)
(0.514052 0.0392841 5.40353e-18)
(0.611178 0.0570485 0)
(0.668442 0.0772166 0)
(0.847805 0.0930338 -3.36298e-18)
(0.890852 0.0392931 2.15405e-18)
(0.721477 0.0171837 0)
(0.577608 0.0318461 5.97469e-20)
(0.46326 0.0392135 -3.93334e-20)
(0.346868 0.0368469 0)
(0.229909 0.0290864 5.59271e-18)
(0.129797 0.0188124 -4.7782e-18)
(0.0602025 0.00653664 0)
(0.0182561 -0.00484159 0)
(-0.00466582 -0.00734831 -2.88536e-18)
(-0.0235342 0.0060436 0)
(-0.0470826 0.0321743 0)
(-0.0729478 0.0588747 -2.64601e-18)
(-0.0997138 0.0773913 0)
(-0.128437 0.0864694 -2.27686e-18)
(-0.159242 0.088771 0)
(-0.190344 0.0862575 0)
(-0.219798 0.0799431 -8.92261e-21)
(-0.245479 0.0701908 0)
(-0.265462 0.0571965 -7.15585e-19)
(-0.27839 0.0414148 7.32241e-19)
(-0.283029 0.0229431 -1.63422e-18)
(-0.277376 0.00184404 9.15792e-19)
(-0.261424 -0.0203958 -1.04814e-18)
(-0.235425 -0.0429785 0)
(-0.19945 -0.0654957 -6.76339e-19)
(-0.153071 -0.087509 1.48129e-18)
(-0.0964796 -0.108632 0)
(-0.0312452 -0.126128 -2.05025e-19)
(0.0369196 -0.134168 1.10697e-19)
(0.105365 -0.131227 -1.201e-19)
(0.172519 -0.120391 -2.6137e-19)
(0.233621 -0.102741 0)
(0.285112 -0.0799936 -1.2273e-18)
(0.32451 -0.0540025 1.32744e-18)
(0.349847 -0.0263842 0)
(0.358538 0.00178455 3.08789e-18)
(0.34623 0.0292525 0)
(0.309052 0.0555206 2.72312e-18)
(0.238229 0.0863047 0)
(0.117339 0.125719 -2.37635e-18)
(-0.0246652 0.152248 -2.17862e-18)
(-0.0717235 0.137976 2.50736e-20)
(-0.0614462 0.0919529 3.20007e-18)
(-0.041604 0.0425762 0)
(-0.017605 0.00375547 -3.26773e-18)
(0.0116518 -0.0222255 0)
(0.0462194 -0.0372158 3.00155e-18)
(0.0849633 -0.0444635 0)
(0.127085 -0.0457882 -3.09279e-18)
(0.171965 -0.041876 -6.33783e-18)
(0.221594 -0.0337213 0)
(0.274609 -0.0232232 0)
(0.332853 -0.0110385 0)
(0.391658 0.00303081 3.15321e-18)
(0.461312 0.0183617 0)
(0.524428 0.0359238 -1.62747e-20)
(0.620479 0.0535259 0)
(0.677584 0.0728922 2.84444e-18)
(0.854286 0.0884426 3.332e-18)
(0.897242 0.0479956 0)
(0.735829 0.0232886 2.59983e-18)
(0.597277 0.0361638 7.17494e-18)
(0.487701 0.0429285 -3.87946e-20)
(0.376417 0.0404769 0)
(0.262858 0.0323787 -5.57013e-18)
(0.161169 0.0212847 0)
(0.0855481 0.00806078 4.09148e-18)
(0.0363057 -0.00403154 3.42612e-18)
(0.00734612 -0.00673985 2.86828e-18)
(-0.0142078 0.00698623 2.66538e-18)
(-0.0380883 0.0335299 2.56287e-18)
(-0.0634122 0.0604121 0)
(-0.0893616 0.0790937 0)
(-0.117109 0.0884167 2.16987e-18)
(-0.146916 0.0908923 0)
(-0.1771 0.0883811 0)
(-0.20575 0.081856 -1.60179e-18)
(-0.230716 0.0716797 0)
(-0.250028 0.0580633 -7.02743e-19)
(-0.262347 0.0414917 0)
(-0.266511 0.0220764 8.36809e-19)
(-0.260564 -8.97675e-05 -9.50947e-19)
(-0.244819 -0.0233767 0)
(-0.219598 -0.0470001 0)
(-0.184951 -0.07058 6.02956e-21)
(-0.140333 -0.0936849 -7.71615e-19)
(-0.0856688 -0.115869 0)
(-0.0224878 -0.134003 2.06047e-19)
(0.0431924 -0.142084 1.08751e-19)
(0.110294 -0.139213 -1.17514e-19)
(0.176185 -0.127916 0)
(0.236174 -0.109341 0)
(0.286674 -0.0853027 1.86261e-21)
(0.325145 -0.0577639 -2.00645e-21)
(0.349456 -0.0283389 0)
(0.356527 0.00200466 0)
(0.341129 0.0321055 2.79123e-18)
(0.298684 0.061551 0)
(0.21945 0.0967713 0)
(0.0899201 0.138403 0)
(-0.0394066 0.160929 0)
(-0.0673182 0.139317 3.29361e-18)
(-0.0509449 0.0908212 3.05371e-18)
(-0.028232 0.041267 0)
(-0.0021145 0.00235815 0)
(0.027953 -0.0238368 2.96146e-18)
(0.062357 -0.039098 0)
(0.100588 -0.0465492 0)
(0.142157 -0.0480098 -3.01496e-18)
(0.186534 -0.0442539 3.09882e-18)
(0.235533 -0.0362905 0)
(0.287852 -0.0259435 0)
(0.345315 -0.0138517 0)
(0.403448 8.27266e-05 -3.10202e-18)
(0.472257 0.0153064 2.97208e-18)
(0.534829 0.0325724 -1.04511e-17)
(0.6298 0.0500074 0)
(0.686701 0.0685913 -2.81345e-18)
(0.86079 0.0839069 -3.27274e-18)
(0.90328 0.0562504 0)
(0.749378 0.0292594 -2.54393e-18)
(0.615855 0.0404425 0)
(0.510751 0.0466327 -1.35558e-17)