/*--------------------------------*- C++ -*----------------------------------*\
| =========                 |                                                 |
| \\      /  F ield         | OpenFOAM: The Open Source CFD Toolbox           |
|  \\    /   O peration     | Version:  2.4.0                                 |
|   \\  /    A nd           | Web:      www.OpenFOAM.org                      |
|    \\/     M anipulation  |                                                 |
\*---------------------------------------------------------------------------*/
FoamFile
{
    version     2.0;
    format      ascii;
    class       volVectorField;
    location    "0.5";
    object      U;
}
// * * * * * * * * * * * * * * * * * * * * * * * * * * * * * * * * * * * * * //

dimensions      [0 1 -1 0 0 0 0];

internalField   nonuniform List<vector> 
2320
(
(0.806939 -4.52413e-07 0)
(0.980007 -8.51733e-06 0)
(1.00961 -3.23845e-05 0)
(0.999502 -5.49465e-05 0)
(0.999868 -8.11304e-05 0)
(1.00114 -0.000117053 0)
(1.00166 -0.000165703 0)
(1.00223 -0.00023057 0)
(1.00323 -0.000317481 0)
(1.00473 -0.000434808 0)
(1.00676 -0.000593551 0)
(1.0095 -0.000808073 0)
(1.01321 -0.00109737 0)
(1.01826 -0.00148651 0)
(1.0251 -0.00200822 0)
(1.03434 -0.00270419 0)
(1.04678 -0.00362618 0)
(1.06343 -0.00483553 0)
(1.0856 -0.00640046 0)
(1.11484 -0.00838927 0)
(0.806945 4.10359e-06 0)
(0.980002 -3.1516e-05 0)
(1.0096 -9.47754e-05 0)
(0.999485 -0.000161056 0)
(0.999845 -0.000241064 0)
(1.00111 -0.00034862 0)
(1.00161 -0.000493032 0)
(1.00216 -0.000685741 0)
(1.00314 -0.000944363 0)
(1.0046 -0.00129362 0)
(1.00658 -0.00176613 0)
(1.00925 -0.00240473 0)
(1.01287 -0.00326613 0)
(1.01779 -0.00442529 0)
(1.02447 -0.00597999 0)
(1.0335 -0.00805522 0)
(1.04567 -0.0108064 0)
(1.06199 -0.0144185 0)
(1.08374 -0.0190977 0)
(1.1125 -0.0250511 0)
(0.806947 1.35179e-05 0)
(0.980002 -5.76335e-05 0)
(1.00959 -0.000152755 0)
(0.999472 -0.000261157 0)
(0.999819 -0.000395235 0)
(1.00106 -0.000572138 0)
(1.00154 -0.000808096 0)
(1.00205 -0.0011235 0)
(1.00298 -0.00154752 0)
(1.00437 -0.00212035 0)
(1.00625 -0.00289535 0)
(1.00879 -0.00394301 0)
(1.01224 -0.0053569 0)
(1.01693 -0.00726072 0)
(1.0233 -0.00981632 0)
(1.03193 -0.0132312 0)
(1.04358 -0.017765 0)
(1.05924 -0.0237282 0)
(1.0802 -0.0314704 0)
(1.10804 -0.0413446 0)
(0.80695 2.1716e-05 0)
(0.980003 -7.95922e-05 0)
(1.00959 -0.000207043 0)
(0.999455 -0.00035563 0)
(0.999783 -0.000540246 0)
(1.001 -0.000781787 0)
(1.00144 -0.00110331 0)
(1.00189 -0.00153375 0)
(1.00274 -0.0021131 0)
(1.00403 -0.002896 0)
(1.00578 -0.00395542 0)
(1.00812 -0.00538818 0)
(1.01132 -0.00732305 0)
(1.01567 -0.00993063 0)
(1.02159 -0.0134349 0)
(1.02962 -0.0181246 0)
(1.0405 -0.0243639 0)
(1.0552 -0.0325919 0)
(1.07498 -0.0433109 0)
(1.10143 -0.057031 0)
(0.806952 2.87108e-05 0)
(0.980004 -9.89898e-05 0)
(1.00958 -0.00025677 0)
(0.999433 -0.000441514 0)
(0.999737 -0.000671676 0)
(1.00091 -0.00097198 0)
(1.0013 -0.00137138 0)
(1.00169 -0.00190652 0)
(1.00244 -0.00262731 0)
(1.00359 -0.00360171 0)
(1.00516 -0.00492075 0)
(1.00726 -0.00670565 0)
(1.01012 -0.00911805 0)
(1.01403 -0.0123727 0)
(1.01936 -0.016753 0)
(1.02662 -0.0226263 0)
(1.03649 -0.0304619 0)
(1.04991 -0.0408311 0)
(1.0681 -0.0544023 0)
(1.09269 -0.0718592 0)
(0.806954 3.46242e-05 0)
(0.980005 -0.00011561 0)
(1.00957 -0.000300086 0)
(0.999406 -0.000516337 0)
(0.999681 -0.000786367 0)
(1.00081 -0.00113828 0)
(1.00114 -0.00160596 0)
(1.00144 -0.00223284 0)
(1.00208 -0.00307773 0)
(1.00307 -0.00422045 0)
(1.00442 -0.00576814 0)
(1.00622 -0.00786389 0)
(1.00869 -0.0106992 0)
(1.01206 -0.0145292 0)
(1.01667 -0.0196928 0)
(1.02298 -0.0266326 0)
(1.03161 -0.0359225 0)
(1.04343 -0.0482691 0)
(1.05965 -0.0645249 0)
(1.08188 -0.0855747 0)
(0.806956 3.94954e-05 0)
(0.980006 -0.000129201 0)
(1.00956 -0.00033595 0)
(0.999376 -0.000578447 0)
(0.999618 -0.000881721 0)
(1.0007 -0.0012767 0)
(1.00096 -0.00180128 0)
(1.00116 -0.00250467 0)
(1.00166 -0.0034533 0)
(1.00247 -0.00473706 0)
(1.00357 -0.00647681 0)
(1.00503 -0.00883452 0)
(1.00703 -0.0120277 0)
(1.00978 -0.0163473 0)
(1.01356 -0.0221828 0)
(1.01876 -0.0300454 0)
(1.02593 -0.0406139 0)
(1.03586 -0.0547282 0)
(1.04969 -0.073455 0)
(1.06909 -0.0979121 0)
(0.806958 4.33025e-05 0)
(0.980007 -0.00013953 0)
(1.00955 -0.000363515 0)
(0.999342 -0.000626331 0)
(0.999548 -0.000955376 0)
(1.00058 -0.00138375 0)
(1.00076 -0.00195246 0)
(1.00085 -0.00271529 0)
(1.00121 -0.00374472 0)
(1.00181 -0.00513869 0)
(1.00263 -0.0070291 0)
(1.00372 -0.00959321 0)
(1.0052 -0.0130701 0)
(1.00726 -0.0177806 0)
(1.01011 -0.0241584 0)
(1.01406 -0.0327747 0)
(1.01957 -0.0444117 0)
(1.02732 -0.0600302 0)
(1.03836 -0.0809715 0)
(1.0544 -0.108559 0)
(0.806961 4.60035e-05 0)
(0.980009 -0.000146392 0)
(1.00954 -0.000382112 0)
(0.999307 -0.000658804 0)
(0.999473 -0.00100552 0)
(1.00044 -0.0014568 0)
(1.00054 -0.00205577 0)
(1.00052 -0.00285944 0)
(1.00072 -0.00394468 0)
(1.00111 -0.00541517 0)
(1.00163 -0.00741084 0)
(1.00231 -0.0101202 0)
(1.00324 -0.0137989 0)
(1.00455 -0.0187905 0)
(1.00639 -0.0255648 0)
(1.00897 -0.0347411 0)
(1.01265 -0.0472002 0)
(1.01793 -0.064003 0)
(1.02582 -0.0868465 0)
(1.03781 -0.117123 0)
(0.806963 4.756e-05 0)
(0.98001 -0.000149644 0)
(1.00953 -0.000391295 0)
(0.99927 -0.000675065 0)
(0.999396 -0.00103093 0)
(1.00031 -0.00149404 0)
(1.00032 -0.00210859 0)
(1.00018 -0.00293345 0)
(1.00021 -0.004048 0)
(1.00037 -0.00555923 0)
(1.00058 -0.0076118 0)
(1.00083 -0.0104012 0)
(1.00119 -0.0141935 0)
(1.00171 -0.0193471 0)
(1.00248 -0.0263583 0)
(1.0036 -0.0358789 0)
(1.00531 -0.0488756 0)
(1.00787 -0.0664912 0)
(1.01229 -0.090813 0)
(1.01928 -0.123229 0)
(0.806966 4.79498e-05 0)
(0.980011 -0.000149216 0)
(1.00952 -0.000390845 0)
(0.999233 -0.00067471 0)
(0.999317 -0.00103097 0)
(1.00017 -0.00149451 0)
(1.0001 -0.00210954 0)
(0.999832 -0.00293533 0)
(0.999693 -0.00405183 0)
(0.999623 -0.00556675 0)
(0.999514 -0.00762602 0)
(0.999335 -0.0104272 0)
(0.999101 -0.014241 0)
(0.998814 -0.0194308 0)
(0.998481 -0.0265094 0)
(0.998088 -0.0361374 0)
(0.997728 -0.0493575 0)
(0.9974 -0.0673474 0)
(0.997903 -0.0925731 0)
(0.999172 -0.126647 0)
(0.806968 4.71735e-05 0)
(0.980013 -0.000145129 0)
(1.0095 -0.000380781 0)
(0.999196 -0.000657745 0)
(0.99924 -0.00100562 0)
(1.00003 -0.00145817 0)
(0.999872 -0.00205852 0)
(0.999488 -0.00286485 0)
(0.999183 -0.00395576 0)
(0.998883 -0.00543694 0)
(0.998459 -0.00745207 0)
(0.997849 -0.0101957 0)
(0.997023 -0.0139369 0)
(0.995927 -0.0190329 0)
(0.994489 -0.0260055 0)
(0.992571 -0.0354828 0)
(0.990077 -0.0486071 0)
(0.986827 -0.0663973 0)
(0.982756 -0.0919246 0)
(0.978478 -0.12704 0)
(0.80697 4.52614e-05 0)
(0.980014 -0.000137494 0)
(1.00949 -0.000361358 0)
(0.99916 -0.000624582 0)
(0.999165 -0.000955492 0)
(0.999899 -0.00138589 0)
(0.999657 -0.00195668 0)
(0.999157 -0.00272358 0)
(0.998691 -0.00376182 0)
(0.998169 -0.00517242 0)
(0.99744 -0.00709316 0)
(0.99641 -0.00971037 0)
(0.995011 -0.0132857 0)
(0.993125 -0.0181571 0)
(0.990612 -0.0248522 0)
(0.987188 -0.0339039 0)
(0.982609 -0.0466398 0)
(0.976433 -0.0634298 0)
(0.967213 -0.088946 0)
(0.9584 -0.123073 0)
(0.806972 4.22792e-05 0)
(0.980015 -0.000126516 0)
(1.00948 -0.000333061 0)
(0.999127 -0.000576036 0)
(0.999096 -0.000881836 0)
(0.999775 -0.00127941 0)
(0.999456 -0.00180648 0)
(0.998847 -0.00251487 0)
(0.99823 -0.00347454 0)
(0.997499 -0.00477919 0)
(0.996482 -0.00655719 0)
(0.995056 -0.00898156 0)
(0.993116 -0.0123004 0)
(0.990477 -0.0168199 0)
(0.986958 -0.0230724 0)
(0.982069 -0.0314239 0)
(0.975637 -0.0435203 0)
(0.966387 -0.0582947 0)
(0.952444 -0.0840379 0)
(0.939145 -0.111808 0)
(0.806974 3.83396e-05 0)
(0.980016 -0.000112509 0)
(1.00948 -0.000296593 0)
(0.999097 -0.000513292 0)
(0.999032 -0.000786458 0)
(0.999662 -0.00114137 0)
(0.999274 -0.00161159 0)
(0.998566 -0.00224379 0)
(0.99781 -0.00310083 0)
(0.996889 -0.00426661 0)
(0.99561 -0.00585667 0)
(0.993821 -0.00802594 0)
(0.991387 -0.0110026 0)
(0.98805 -0.0150514 0)
(0.983633 -0.020704 0)
(0.97733 -0.0281103 0)
(0.969511 -0.0393416 0)
(0.956721 -0.0510932 0)
(0.940765 -0.0777404 0)
(0.919177 -0.0901948 0)
(0.806976 3.36232e-05 0)
(0.980017 -9.59073e-05 0)
(1.00947 -0.000252883 0)
(0.999071 -0.000437909 0)
(0.998977 -0.000671689 0)
(0.999564 -0.000975078 0)
(0.999114 -0.00137673 0)
(0.99832 -0.00191696 0)
(0.997443 -0.00264983 0)
(0.996355 -0.00364716 0)
(0.994847 -0.00500846 0)
(0.992738 -0.00686645 0)
(0.98987 -0.00942208 0)
(0.985908 -0.0128938 0)
(0.980726 -0.0177957 0)
(0.973078 -0.0240716 0)
(0.964505 -0.0342152 0)
(0.947468 -0.0422998 0)
(0.934934 -0.0706592 0)
(0.895744 -0.0578493 0)
(0.806977 2.84142e-05 0)
(0.980018 -7.73e-05 0)
(1.00946 -0.000203029 0)
(0.99905 -0.000351934 0)
(0.998931 -0.000540578 0)
(0.999483 -0.000784731 0)
(0.998983 -0.00110769 0)
(0.998116 -0.00154243 0)
(0.997139 -0.00213266 0)
(0.995912 -0.00293617 0)
(0.994212 -0.00403348 0)
(0.991836 -0.00553176 0)
(0.988606 -0.00759672 0)
(0.984111 -0.0103996 0)
(0.978303 -0.0144046 0)
(0.969424 -0.0194295 0)
(0.960682 -0.0282389 0)
(0.938855 -0.0327613 0)
(0.936252 -0.063732 0)
(0.866675 -0.0154671 0)
(0.806977 2.30602e-05 0)
(0.980018 -5.73628e-05 0)
(1.00946 -0.000147606 0)
(0.999033 -0.000257081 0)
(0.998896 -0.000396402 0)
(0.999422 -0.000575266 0)
(0.998882 -0.00081138 0)
(0.997959 -0.00112972 0)
(0.996904 -0.00156238 0)
(0.99557 -0.00215157 0)
(0.993722 -0.00295633 0)
(0.991139 -0.00405576 0)
(0.987628 -0.00557224 0)
(0.982713 -0.00763276 0)
(0.976416 -0.0105968 0)
(0.966476 -0.0143037 0)
(0.957834 -0.0213201 0)
(0.931134 -0.0237174 0)
(0.943765 -0.056757 0)
(0.833835 0.039585 0)
(0.806975 1.80887e-05 0)
(0.980019 -3.85548e-05 0)
(1.00946 -8.84201e-05 0)
(0.999023 -0.000155122 0)
(0.998873 -0.000242034 0)
(0.999381 -0.000351661 0)
(0.998814 -0.000495378 0)
(0.997853 -0.000689407 0)
(0.996746 -0.000953493 0)
(0.995339 -0.00131328 0)
(0.99339 -0.00180448 0)
(0.990667 -0.00247654 0)
(0.986963 -0.00340118 0)
(0.981766 -0.00466821 0)
(0.975102 -0.00646257 0)
(0.96442 -0.00882016 0)
(0.955439 -0.0131635 0)
(0.92466 -0.0158489 0)
(0.95401 -0.0437541 0)
(0.807824 0.0255881 0)
(0.806971 7.89466e-06 0)
(0.980023 -1.49638e-05 0)
(1.00947 -2.91569e-05 0)
(0.999027 -5.13258e-05 0)
(0.998869 -8.13045e-05 0)
(0.999369 -0.00011843 0)
(0.998789 -0.000166657 0)
(0.997808 -0.00023178 0)
(0.996674 -0.000320522 0)
(0.995229 -0.000441462 0)
(0.993228 -0.000606499 0)
(0.990433 -0.000832499 0)
(0.986622 -0.0011431 0)
(0.981303 -0.0015691 0)
(0.974354 -0.0021772 0)
(0.963619 -0.00293017 0)
(0.952792 -0.00470235 0)
(0.923073 -0.00429265 0)
(0.933467 -0.0277239 0)
(0.773955 0.078727 0)
(1.15299 -0.01086 0)
(1.20206 -0.0138514 0)
(1.26418 -0.0173803 0)
(1.34151 -0.0214607 0)
(1.43632 -0.0261393 0)
(1.55109 -0.0314978 0)
(1.68866 -0.0376187 0)
(1.8522 -0.0445529 0)
(1.15012 -0.0324543 0)
(1.19862 -0.0414229 0)
(1.26014 -0.0520006 0)
(1.33683 -0.0642242 0)
(1.43091 -0.0782293 0)
(1.54481 -0.0942538 0)
(1.68144 -0.112567 0)
(1.84412 -0.133404 0)
(1.14462 -0.05365 0)
(1.19203 -0.0685795 0)
(1.25242 -0.0861893 0)
(1.3279 -0.10651 0)
(1.42057 -0.12976 0)
(1.53297 -0.156405 0)
(1.66817 -0.187013 0)
(1.82912 -0.221877 0)
(1.13646 -0.0741877 0)
(1.18224 -0.0950581 0)
(1.24096 -0.119661 0)
(1.31461 -0.147975 0)
(1.40539 -0.180422 0)
(1.51597 -0.21779 0)
(1.64842 -0.26051 0)
(1.804 -0.30832 0)
(1.12565 -0.0938029 0)
(1.16927 -0.120587 0)
(1.22572 -0.152108 0)
(1.29715 -0.188395 0)
(1.38592 -0.230147 0)
(1.4931 -0.277733 0)
(1.61842 -0.330795 0)
(1.76619 -0.390427 0)
(1.11224 -0.112222 0)
(1.15306 -0.144869 0)
(1.20682 -0.183342 0)
(1.27614 -0.227763 0)
(1.36141 -0.27815 0)
(1.4605 -0.333752 0)
(1.57743 -0.396479 0)
(1.73039 -0.47371 0)
(1.0962 -0.129126 0)
(1.13359 -0.167681 0)
(1.18485 -0.213409 0)
(1.25108 -0.265382 0)
(1.32813 -0.321994 0)
(1.41818 -0.385178 0)
(1.54231 -0.465066 0)
(1.72613 -0.571823 0)
(1.07741 -0.144186 0)
(1.11127 -0.189051 0)
(1.15985 -0.241875 0)
(1.21863 -0.298984 0)
(1.28551 -0.361122 0)
(1.38249 -0.44019 0)
(1.54095 -0.55031 0)
(1.75946 -0.687353 0)
(1.05601 -0.157243 0)
(1.08661 -0.208853 0)
(1.12925 -0.266821 0)
(1.17669 -0.327503 0)
(1.24729 -0.403195 0)
(1.37988 -0.512691 0)
(1.57819 -0.654127 0)
(1.794 -0.800868 0)
(1.03263 -0.168245 0)
(1.05842 -0.225803 0)
(1.08953 -0.286424 0)
(1.13451 -0.356902 0)
(1.23864 -0.462322 0)
(1.41767 -0.606166 0)
(1.6217 -0.758067 0)
(1.78324 -0.886523 0)
(1.0076 -0.17654 0)
(1.02292 -0.237689 0)
(1.04408 -0.303855 0)
(1.1147 -0.400853 0)
(1.27196 -0.545231 0)
(1.46951 -0.704993 0)
(1.62871 -0.836971 0)
(1.70733 -0.931709 0)
(0.979117 -0.180169 0)
(0.977907 -0.244501 0)
(1.00988 -0.330471 0)
(1.13579 -0.470294 0)
(1.32919 -0.640769 0)
(1.49538 -0.784853 0)
(1.57676 -0.876266 0)
(1.57986 -0.941773 0)
(0.943046 -0.176852 0)
(0.930851 -0.252844 0)
(1.00967 -0.380613 0)
(1.19099 -0.56081 0)
(1.37363 -0.725972 0)
(1.4685 -0.828404 0)
(1.4723 -0.87809 0)
(1.43126 -0.931575 0)
(0.896932 -0.167529 0)
(0.90165 -0.276858 0)
(1.0507 -0.458984 0)
(1.24986 -0.652793 0)
(1.37383 -0.780137 0)
(1.38687 -0.833212 0)
(1.34086 -0.856512 0)
(1.28769 -0.913432 0)
(0.846853 -0.160238 0)
(0.910357 -0.330143 0)
(1.11452 -0.553289 0)
(1.27783 -0.722747 0)
(1.31809 -0.794758 0)
(1.26947 -0.810474 0)
(1.21007 -0.827768 0)
(1.15992 -0.890514 0)
(0.811505 -0.168246 0)
(0.958123 -0.411899 0)
(1.1682 -0.640073 0)
(1.25302 -0.754923 0)
(1.21634 -0.775933 0)
(1.14375 -0.77765 0)
(1.09565 -0.801964 0)
(1.04686 -0.859102 0)
(0.814141 -0.199877 0)
(1.02383 -0.504093 0)
(1.18058 -0.696833 0)
(1.17339 -0.747538 0)
(1.09291 -0.739935 0)
(1.03098 -0.748896 0)
(0.997881 -0.780344 0)
(0.946156 -0.815065 0)
(0.863764 -0.253423 0)
(1.07461 -0.582755 0)
(1.1332 -0.711808 0)
(1.05632 -0.712645 0)
(0.973859 -0.704306 0)
(0.937342 -0.728413 0)
(0.908307 -0.758631 0)
(0.861471 -0.759905 0)
(0.944319 -0.316645 0)
(1.07495 -0.629563 0)
(1.02682 -0.692672 0)
(0.931503 -0.675186 0)
(0.873977 -0.683835 0)
(0.856048 -0.716116 0)
(0.817459 -0.738698 0)
(0.801437 -0.718229 0)
(0.960454 -0.377972 0)
(0.986105 -0.641329 0)
(0.884493 -0.665487 0)
(0.826409 -0.661398 0)
(0.792211 -0.686731 0)
(0.777108 -0.714137 0)
(0.713565 -0.727634 0)
(0.724828 -0.743696 0)
(2.04503 -0.0522862 0)
(2.27014 -0.0606729 0)
(2.52929 -0.0693181 0)
(2.82203 -0.0775014 0)
(3.14472 -0.084252 0)
(3.49012 -0.0885854 0)
(3.84755 -0.0897762 0)
(4.20394 -0.0874901 0)
(4.54525 -0.0817532 0)
(4.85786 -0.0728654 0)
(5.12967 -0.0613213 0)
(5.35082 -0.0477308 0)
(5.51406 -0.0327427 0)
(5.61483 -0.0169831 0)
(5.65105 -0.00106957 0)
(5.62308 0.0145625 0)
(5.53278 0.0295342 0)
(5.38355 0.0435455 0)
(5.18035 0.0559881 0)
(4.9308 0.0662494 0)
(4.64485 0.0737996 0)
(4.33435 0.0782838 0)
(4.01208 0.0795628 0)
(3.69154 0.0778493 0)
(3.38279 0.0731899 0)
(3.10409 0.067 0)
(2.83689 0.0562185 0)
(2.72722 0.0514069 0)
(2.0362 -0.156756 0)
(2.2603 -0.182034 0)
(2.51795 -0.207798 0)
(2.80918 -0.231839 0)
(3.13169 -0.251512 0)
(3.47941 -0.264196 0)
(3.84193 -0.267849 0)
(4.20547 -0.261351 0)
(4.55484 -0.244557 0)
(4.87535 -0.218183 0)
(5.15415 -0.183626 0)
(5.38096 -0.142709 0)
(5.54839 -0.0974096 0)
(5.65186 -0.0496359 0)
(5.68929 -0.0012493 0)
(5.66147 0.0462344 0)
(5.56964 0.0916109 0)
(5.41785 0.133881 0)
(5.21121 0.171269 0)
(4.95742 0.201971 0)
(4.66662 0.224422 0)
(4.35094 0.237579 0)
(4.02354 0.24108 0)
(3.69796 0.235546 0)
(3.38568 0.221498 0)
(3.09964 0.202386 0)
(2.84361 0.172154 0)
(2.64214 0.149148 0)
(2.01815 -0.260568 0)
(2.23806 -0.301946 0)
(2.49325 -0.344305 0)
(2.78798 -0.385053 0)
(3.12192 -0.420099 0)
(3.4871 -0.444281 0)
(3.86896 -0.453039 0)
(4.25002 -0.443785 0)
(4.61316 -0.416185 0)
(4.9434 -0.371732 0)
(5.22846 -0.313152 0)
(5.459 -0.2438 0)
(5.62851 -0.167149 0)
(5.73307 -0.0864169 0)
(5.77116 -0.00460164 0)
(5.7433 0.0757843 0)
(5.64987 0.152726 0)
(5.49527 0.22438 0)
(5.28432 0.2878 0)
(5.02461 0.339921 0)
(4.72631 0.378041 0)
(4.40184 0.400341 0)
(4.06495 0.406228 0)
(3.72961 0.396659 0)
(3.40859 0.3732 0)
(3.11242 0.339517 0)
(2.85249 0.293906 0)
(2.62052 0.238767 0)
(1.98647 -0.361067 0)
(2.20514 -0.419437 0)
(2.47115 -0.482985 0)
(2.78838 -0.547087 0)
(3.14867 -0.602595 0)
(3.53526 -0.639526 0)
(3.92929 -0.651177 0)
(4.31377 -0.635302 0)
(4.67433 -0.593025 0)
(4.99875 -0.527484 0)
(5.27681 -0.442944 0)
(5.50052 -0.344168 0)
(5.66442 -0.235893 0)
(5.76534 -0.122416 0)
(5.80236 -0.0075965 0)
(5.77586 0.105388 0)
(5.68524 0.213843 0)
(5.53464 0.315138 0)
(5.32785 0.405213 0)
(5.07134 0.47967 0)
(4.7744 0.534506 0)
(4.44895 0.566904 0)
(4.10876 0.57587 0)
(3.76814 0.562568 0)
(3.44061 0.529658 0)
(3.13659 0.480992 0)
(2.86646 0.418756 0)
(2.62381 0.339723 0)
(1.95051 -0.460594 0)
(2.18811 -0.544331 0)
(2.48347 -0.637065 0)
(2.82465 -0.726128 0)
(3.19277 -0.796617 0)
(3.5716 -0.837807 0)
(3.94909 -0.845197 0)
(4.31452 -0.818689 0)
(4.65647 -0.76047 0)
(4.96336 -0.674202 0)
(5.22505 -0.564846 0)
(5.43419 -0.438183 0)
(5.5864 -0.300069 0)
(5.67969 -0.155766 0)
(5.71403 -0.0098371 0)
(5.69042 0.133918 0)
(5.60739 0.272322 0)
(5.4686 0.402132 0)
(5.27635 0.518354 0)
(5.03545 0.615335 0)
(4.75361 0.687698 0)
(4.4414 0.73143 0)
(4.11171 0.744866 0)
(3.77841 0.729145 0)
(3.45492 0.687755 0)
(3.15186 0.625345 0)
(2.87767 0.546588 0)
(2.63167 0.451915 0)
(1.94041 -0.571966 0)
(2.2094 -0.687026 0)
(2.5181 -0.803565 0)
(2.84563 -0.904893 0)
(3.18317 -0.979167 0)
(3.52936 -1.01992 0)
(3.87931 -1.02391 0)
(4.22092 -0.989674 0)
(4.53881 -0.917913 0)
(4.81946 -0.812268 0)
(5.05379 -0.679033 0)
(5.23727 -0.525791 0)
(5.36868 -0.35993 0)
(5.44852 -0.187639 0)
(5.47841 -0.0136404 0)
(5.4593 0.157809 0)
(5.38843 0.323574 0)
(5.26853 0.48 0)
(5.09996 0.621224 0)
(4.88552 0.740337 0)
(4.63102 0.83053 0)
(4.34546 0.8865 0)
(4.04051 0.905776 0)
(3.72906 0.889338 0)
(3.42367 0.84129 0)
(3.13464 0.767457 0)
(2.86915 0.674448 0)
(2.62946 0.567306 0)
(1.96825 -0.700934 0)
(2.23933 -0.834912 0)
(2.51396 -0.957396 0)
(2.79182 -1.06085 0)
(3.0872 -1.13997 0)
(3.40445 -1.1866 0)
(3.72915 -1.19159 0)
(4.03861 -1.14954 0)
(4.31455 -1.06142 0)
(4.54739 -0.933705 0)
(4.73441 -0.775871 0)
(4.87664 -0.597765 0)
(4.97661 -0.407928 0)
(5.03706 -0.212833 0)
(5.06061 -0.016594 0)
(5.04843 0.176972 0)
(4.99641 0.365261 0)
(4.90549 0.544598 0)
(4.77317 0.708461 0)
(4.59908 0.848609 0)
(4.38618 0.95653 0)
(4.14141 1.02533 0)
(3.87518 1.05155 0)
(3.59956 1.03595 0)
(3.32637 0.98323 0)
(3.06523 0.900499 0)
(2.82256 0.796046 0)
(2.60129 0.67782 0)
(1.99752 -0.829613 0)
(2.22001 -0.960926 0)
(2.43042 -1.08066 0)
(2.65902 -1.1926 0)
(2.92544 -1.28664 0)
(3.21606 -1.34217 0)
(3.49843 -1.34279 0)
(3.74701 -1.28463 0)
(3.95257 -1.17443 0)
(4.11663 -1.02361 0)
(4.24388 -0.844206 0)
(4.33869 -0.646767 0)
(4.40453 -0.439706 0)
(4.44439 -0.22906 0)
(4.4608 -0.0182803 0)
(4.45626 0.190177 0)
(4.42605 0.394356 0)
(4.3701 0.591065 0)
(4.28348 0.7737 0)
(4.16236 0.932896 0)
(4.00568 1.05819 0)
(3.81686 1.1406 0)
(3.60405 1.17514 0)
(3.37823 1.16211 0)
(3.15065 1.10677 0)
(2.93049 1.0176 0)
(2.7237 0.904405 0)
(2.53307 0.776925 0)
(1.97667 -0.931333 0)
(2.12472 -1.05098 0)
(2.27861 -1.17699 0)
(2.47572 -1.31008 0)
(2.71392 -1.42077 0)
(2.9546 -1.47524 0)
(3.16094 -1.45898 0)
(3.3214 -1.37789 0)
(3.44311 -1.2464 0)
(3.5365 -1.0783 0)
(3.60784 -0.884982 0)
(3.66008 -0.675739 0)
(3.69524 -0.458419 0)
(3.7159 -0.238817 0)
(3.72496 -0.0200396 0)
(3.7262 0.196552 0)
(3.71463 0.409822 0)
(3.69063 0.61742 0)
(3.64901 0.813347 0)
(3.58415 0.987853 0)
(3.49139 1.12887 0)
(3.36968 1.2251 0)
(3.22315 1.26941 0)
(3.06019 1.26103 0)
(2.89078 1.20549 0)
(2.72353 1.11248 0)
(2.56408 0.993331 0)
(2.41503 0.859138 0)
(1.88565 -0.993701 0)
(1.97061 -1.11076 0)
(2.08833 -1.25694 0)
(2.25475 -1.41354 0)
(2.44079 -1.52904 0)
(2.59833 -1.56731 0)
(2.70584 -1.52666 0)
(2.77295 -1.42526 0)
(2.8176 -1.28083 0)
(2.85022 -1.10432 0)
(2.87313 -0.904254 0)
(2.88683 -0.688816 0)
(2.89279 -0.466299 0)
(2.89424 -0.243035 0)
(2.89523 -0.0216044 0)
(2.90075 0.197259 0)
(2.90469 0.413715 0)
(2.90752 0.626008 0)
(2.90488 0.82889 0)
(2.89172 1.01308 0)
(2.86196 1.16587 0)
(2.811 1.27422 0)
(2.73823 1.32868 0)
(2.64784 1.32674 0)
(2.54704 1.27356 0)
(2.44295 1.17964 0)
(2.34051 1.0576 0)
(2.24215 0.919714 0)
(1.74262 -1.02287 0)
(1.78773 -1.15141 0)
(1.87228 -1.32111 0)
(1.98699 -1.49086 0)
(2.09132 -1.59506 0)
(2.14601 -1.60796 0)
(2.15391 -1.54542 0)
(2.13823 -1.43293 0)
(2.11649 -1.28468 0)
(2.09388 -1.10544 0)
(2.06946 -0.902574 0)
(2.04466 -0.68463 0)
(2.02181 -0.46121 0)
(2.0045 -0.239407 0)
(1.99697 -0.0217403 0)
(2.00652 0.193044 0)
(2.0254 0.407217 0)
(2.05251 0.619012 0)
(2.08402 0.823257 0)
(2.11642 1.01113 0)
(2.14431 1.17022 0)
(2.16181 1.28697 0)
(2.16433 1.35008 0)
(2.1513 1.35517 0)
(2.1259 1.30646 0)
(2.09249 1.21459 0)
(2.0545 1.09297 0)
(2.0138 0.954738 0)
(1.57955 -1.03159 0)
(1.59032 -1.17509 0)
(1.6258 -1.35964 0)
(1.66353 -1.52842 0)
(1.66823 -1.60981 0)
(1.61893 -1.59738 0)
(1.53828 -1.52123 0)
(1.44905 -1.40609 0)
(1.36409 -1.25851 0)
(1.28551 -1.07943 0)
(1.21301 -0.877029 0)
(1.15177 -0.660776 0)
(1.10387 -0.440922 0)
(1.0716 -0.224894 0)
(1.05796 -0.016197 0)
(1.07051 0.188527 0)
(1.10242 0.394216 0)
(1.15088 0.599658 0)
(1.21262 0.799505 0)
(1.28605 0.98531 0)
(1.3656 1.14455 0)
(1.44681 1.26458 0)
(1.52218 1.33323 0)
(1.58681 1.34455 0)
(1.63948 1.30151 0)
(1.68081 1.2143 0)
(1.71181 1.09641 0)
(1.73323 0.961367 0)
(1.41697 -1.02573 0)
(1.37605 -1.17387 0)
(1.34518 -1.36188 0)
(1.28783 -1.51803 0)
(1.18883 -1.57204 0)
(1.04461 -1.54024 0)
(0.883603 -1.45785 0)
(0.720612 -1.34381 0)
(0.569349 -1.19868 0)
(0.433242 -1.02515 0)
(0.316974 -0.82901 0)
(0.226659 -0.620917 0)
(0.161388 -0.410197 0)
(0.122267 -0.20471 0)
(0.109862 -0.00866127 0)
(0.121742 0.183537 0)
(0.159953 0.377137 0)
(0.22459 0.571349 0)
(0.311878 0.761047 0)
(0.421225 0.939042 0)
(0.548824 1.09226 0)
(0.690365 1.20989 0)
(0.83465 1.27961 0)
(0.974385 1.29509 0)
(1.10416 1.258 0)
(1.22068 1.17748 0)
(1.32196 1.06637 0)
(1.40714 0.938027 0)
(1.25763 -1.00026 0)
(1.14203 -1.13782 0)
(1.03558 -1.3219 0)
(0.872797 -1.45586 0)
(0.673593 -1.48399 0)
(0.442159 -1.44008 0)
(0.206268 -1.35767 0)
(-0.0247504 -1.24741 0)
(-0.236689 -1.1102 0)
(-0.423745 -0.948839 0)
(-0.578219 -0.766712 0)
(-0.6966 -0.574223 0)
(-0.779011 -0.379591 0)
(-0.825666 -0.189754 0)
(-0.841475 -0.00702263 0)
(-0.82764 0.172681 0)
(-0.781899 0.352364 0)
(-0.702094 0.532327 0)
(-0.589936 0.708215 0)
(-0.446195 0.873537 0)
(-0.273565 1.01639 0)
(-0.078926 1.12562 0)
(0.127297 1.19199 0)
(0.336131 1.20878 0)
(0.538674 1.17665 0)
(0.727678 1.10422 0)
(0.897346 1.00282 0)
(1.04502 0.884611 0)
(1.09717 -0.94523 0)
(0.89483 -1.06152 0)
(0.706638 -1.23604 0)
(0.435832 -1.34113 0)
(0.146669 -1.3514 0)
(-0.161309 -1.3028 0)
(-0.466911 -1.22381 0)
(-0.76175 -1.12108 0)
(-1.032 -0.996817 0)
(-1.26825 -0.851672 0)
(-1.4626 -0.689386 0)
(-1.61161 -0.517686 0)
(-1.71541 -0.343675 0)
(-1.77492 -0.172686 0)
(-1.79559 -0.00702803 0)
(-1.77882 0.155118 0)
(-1.72373 0.317442 0)
(-1.62756 0.479486 0)
(-1.48967 0.637547 0)
(-1.3102 0.785498 0)
(-1.0926 0.913595 0)
(-0.845061 1.01151 0)
(-0.577486 1.07173 0)
(-0.302393 1.08791 0)
(-0.0329741 1.06064 0)
(0.220874 0.99701 0)
(0.452476 0.907049 0)
(0.658114 0.801935 0)
(0.935851 -0.853773 0)
(0.64869 -0.944588 0)
(0.37204 -1.1008 0)
(0.00353828 -1.17884 0)
(-0.368048 -1.18051 0)
(-0.747624 -1.13147 0)
(-1.11719 -1.05747 0)
(-1.46971 -0.965645 0)
(-1.79262 -0.857318 0)
(-2.07523 -0.732553 0)
(-2.30885 -0.593947 0)
(-2.48934 -0.447124 0)
(-2.61635 -0.297709 0)
(-2.69065 -0.149798 0)
(-2.71716 -0.00573151 0)
(-2.6971 0.134982 0)
(-2.63032 0.275337 0)
(-2.51477 0.414783 0)
(-2.34952 0.5502 0)
(-2.13537 0.676225 0)
(-1.87657 0.785141 0)
(-1.58115 0.868742 0)
(-1.25975 0.920039 0)
(-0.926486 0.934204 0)
(-0.596182 0.911878 0)
(-0.28204 0.858427 0)
(0.00535407 0.782374 0)
(0.260676 0.692869 0)
(0.78197 -0.725234 0)
(0.420879 -0.788605 0)
(0.0530257 -0.916938 0)
(-0.401732 -0.975232 0)
(-0.851024 -0.972107 0)
(-1.29719 -0.927569 0)
(-1.72419 -0.862503 0)
(-2.12661 -0.784375 0)
(-2.49415 -0.694673 0)
(-2.81676 -0.593233 0)
(-3.08561 -0.481582 0)
(-3.29551 -0.363349 0)
(-3.44486 -0.2425 0)
(-3.53361 -0.121989 0)
(-3.56553 -0.00396219 0)
(-3.54186 0.111426 0)
(-3.463 0.225831 0)
(-3.32774 0.338793 0)
(-3.13593 0.447871 0)
(-2.88927 0.548796 0)
(-2.59272 0.635595 0)
(-2.2549 0.701942 0)
(-1.8879 0.74224 0)
(-1.50707 0.753104 0)
(-1.12852 0.735143 0)
(-0.766799 0.692687 0)
(-0.433067 0.632322 0)
(-0.134583 0.560969 0)
(0.650557 -0.563333 0)
(0.223565 -0.594665 0)
(-0.224262 -0.691073 0)
(-0.756964 -0.732492 0)
(-1.27846 -0.729047 0)
(-1.78703 -0.693719 0)
(-2.26609 -0.642335 0)
(-2.71097 -0.581569 0)
(-3.11386 -0.513209 0)
(-3.46684 -0.437328 0)
(-3.76226 -0.354832 0)
(-3.99484 -0.267895 0)
(-4.16195 -0.178983 0)
(-4.26243 -0.0899124 0)
(-4.29845 -0.00234292 0)
(-4.2712 0.0832899 0)
(-4.18155 0.167976 0)
(-4.02904 0.251147 0)
(-3.81443 0.331009 0)
(-3.54043 0.404443 0)
(-3.21295 0.467191 0)
(-2.84165 0.514786 0)
(-2.43987 0.543406 0)
(-2.02375 0.550816 0)
(-1.61013 0.537488 0)
(-1.21415 0.506485 0)
(-0.847611 0.462474 0)
(-0.518257 0.410547 0)
(0.562857 -0.371682 0)
(0.072394 -0.370051 0)
(-0.436151 -0.430261 0)
(-1.03342 -0.455883 0)
(-1.61811 -0.454297 0)
(-2.18397 -0.432186 0)
(-2.71155 -0.399472 0)
(-3.19509 -0.360764 0)
(-3.62781 -0.317563 0)
(-4.00361 -0.270109 0)
(-4.31661 -0.218957 0)
(-4.56262 -0.165296 0)
(-4.7394 -0.110474 0)
(-4.84584 -0.0554591 0)
(-4.88325 -0.00134684 0)
(-4.85291 0.0515435 0)
(-4.75511 0.103574 0)
(-4.59014 0.154492 0)
(-4.3595 0.203173 0)
(-4.06678 0.247717 0)
(-3.7188 0.285588 0)
(-3.32608 0.31414 0)
(-2.90269 0.331142 0)
(-2.46519 0.33533 0)
(-2.03062 0.327007 0)
(-1.61437 0.307963 0)
(-1.22852 0.280938 0)
(-0.881227 0.249004 0)
(0.543974 -0.15439 0)
(-0.0142325 -0.125556 0)
(-0.556507 -0.146983 0)
(-1.19452 -0.155588 0)
(-1.8222 -0.155212 0)
(-2.43084 -0.147594 0)
(-2.99813 -0.136181 0)
(-3.51646 -0.122628 0)
(-3.97864 -0.107545 0)
(-4.37878 -0.0910858 0)
(-4.71146 -0.0734732 0)
(-4.9728 -0.0551162 0)
(-5.16068 -0.0364624 0)
(-5.274 -0.0178265 0)
(-5.31331 0.000410247 0)
(-5.28091 0.0182033 0)
(-5.179 0.03553 0)
(-5.008 0.0524265 0)
(-4.76996 0.0684902 0)
(-4.46902 0.0830792 0)
(-4.11251 0.0953482 0)
(-3.71139 0.104424 0)
(-3.27998 0.109578 0)
(-2.83495 0.110424 0)
(-2.3933 0.107093 0)
(-1.9704 0.100209 0)
(-1.57837 0.0907205 0)
(-1.22546 0.0797059 0)
(2.10809 -0.327887 0)
(1.44403 -0.238121 0)
(1.19574 -0.175185 0)
(1.07891 -0.217036 0)
(0.934558 -0.330255 0)
(0.892743 -0.599604 0)
(0.854584 -0.973553 0)
(0.054702 -1.23311 0)
(2.40481 -0.000848715 0)
(2.03333 0.0239788 0)
(1.7455 -0.00317177 0)
(1.53918 -0.10551 0)
(1.38752 -0.271074 0)
(1.30002 -0.529952 0)
(1.11524 -0.795672 0)
(0.546093 -0.898377 0)
(2.41903 0.154648 0)
(2.22657 0.155883 0)
(2.06771 0.115065 0)
(1.91593 -0.00494113 0)
(1.77174 -0.190498 0)
(1.6041 -0.423958 0)
(1.31956 -0.610399 0)
(0.782883 -0.596657 0)
(2.4025 0.247506 0)
(2.23686 0.210551 0)
(2.13446 0.158698 0)
(2.03656 0.0449272 0)
(1.9074 -0.1192 0)
(1.71152 -0.303675 0)
(1.4121 -0.418166 0)
(0.966517 -0.361452 0)
(2.40419 0.347933 0)
(2.22331 0.274666 0)
(2.10766 0.200064 0)
(2.01303 0.0910843 0)
(1.88941 -0.0451117 0)
(1.7003 -0.181277 0)
(1.43781 -0.24852 0)
(1.08787 -0.182405 0)
(2.41002 0.454278 0)
(2.2235 0.356807 0)
(2.08467 0.261106 0)
(1.97032 0.150839 0)
(1.84263 0.0328446 0)
(1.66984 -0.0698866 0)
(1.45378 -0.110637 0)
(1.18155 -0.0492007 0)
(2.39991 0.555262 0)
(2.22328 0.441395 0)
(2.07791 0.330846 0)
(1.9512 0.217377 0)
(1.82034 0.109161 0)
(1.66415 0.0243554 0)
(1.48788 -0.00379422 0)
(1.27391 0.0464854 0)
(2.35901 0.645327 0)
(2.20387 0.519724 0)
(2.06914 0.399424 0)
(1.94614 0.283413 0)
(1.8216 0.180304 0)
(1.68286 0.10513 0)
(1.53837 0.0809824 0)
(1.36783 0.119119 0)
(2.27737 0.720623 0)
(2.15262 0.587051 0)
(2.04052 0.460704 0)
(1.9345 0.343417 0)
(1.82658 0.243435 0)
(1.70937 0.172975 0)
(1.59306 0.148898 0)
(1.45855 0.174794 0)
(2.14894 0.777197 0)
(2.06194 0.639136 0)
(1.98067 0.509753 0)
(1.90056 0.392571 0)
(1.81692 0.295179 0)
(1.72569 0.227206 0)
(1.63705 0.201454 0)
(1.53652 0.216682 0)
(1.97132 0.811504 0)
(1.92789 0.672389 0)
(1.88333 0.542847 0)
(1.83495 0.427383 0)
(1.78051 0.332918 0)
(1.7185 0.26691 0)
(1.65789 0.239243 0)
(1.59114 0.24612 0)
(1.74564 0.820948 0)
(1.74973 0.684295 0)
(1.74577 0.557571 0)
(1.73275 0.445768 0)
(1.71037 0.355163 0)
(1.67934 0.291513 0)
(1.64682 0.262402 0)
(1.61352 0.263357 0)
(1.47615 0.804052 0)
(1.52954 0.673423 0)
(1.56809 0.552589 0)
(1.59217 0.446649 0)
(1.60299 0.361248 0)
(1.60334 0.300878 0)
(1.59839 0.271171 0)
(1.5973 0.268459 0)
(1.16974 0.760588 0)
(1.27189 0.639396 0)
(1.35275 0.52749 0)
(1.41379 0.429754 0)
(1.45739 0.351171 0)
(1.48827 0.295333 0)
(1.50966 0.266115 0)
(1.53856 0.261721 0)
(0.835162 0.691476 0)
(0.983316 0.583029 0)
(1.10423 0.482896 0)
(1.20022 0.395626 0)
(1.27461 0.325563 0)
(1.33391 0.275668 0)
(1.3796 0.248156 0)
(1.43533 0.243786 0)
(0.482665 0.598403 0)
(0.67128 0.505752 0)
(0.828212 0.420337 0)
(0.955555 0.345764 0)
(1.05731 0.285888 0)
(1.14173 0.243264 0)
(1.20871 0.218604 0)
(1.28723 0.215668 0)
(0.124948 0.484996 0)
(0.345849 0.410091 0)
(0.531737 0.341593 0)
(0.684472 0.282006 0)
(0.808718 0.234092 0)
(0.914059 0.200058 0)
(0.998452 0.179341 0)
(1.09544 0.178875 0)
(-0.229934 0.355297 0)
(0.0162885 0.300367 0)
(0.22226 0.249752 0)
(0.392918 0.206712 0)
(0.532836 0.172382 0)
(0.653431 0.14787 0)
(0.750307 0.132262 0)
(0.861782 0.134785 0)
(-0.576775 0.215086 0)
(-0.316212 0.181513 0)
(-0.0975939 0.150551 0)
(0.083545 0.12409 0)
(0.232954 0.102994 0)
(0.363921 0.0897782 0)
(0.459987 0.079741 0)
(0.583858 0.0853519 0)
(-0.916032 0.0682192 0)
(-0.650979 0.0571423 0)
(-0.428047 0.0472278 0)
(-0.242499 0.0389267 0)
(-0.0880527 0.0327031 0)
(0.0430035 0.0292088 0)
(0.155892 0.026818 0)
(0.278038 0.0274936 0)
(-0.603097 -0.353965 0)
(0.363783 0.0536826 0)
(0.789413 0.350467 0)
(1.0591 0.537943 7.18344e-16)
(1.32227 0.606492 8.55268e-17)
(1.64089 0.559862 0)
(1.80555 0.445141 7.25567e-16)
(1.83411 0.363389 3.52361e-17)
(1.83568 0.32118 4.58087e-16)
(1.86495 0.291144 4.2452e-16)
(1.91349 0.27438 0)
(1.97101 0.267423 3.44717e-16)