/*--------------------------------*- C++ -*----------------------------------*\
| =========                 |                                                 |
| \\      /  F ield         | OpenFOAM: The Open Source CFD Toolbox           |
|  \\    /   O peration     | Version:  2.4.0                                 |
|   \\  /    A nd           | Web:      www.OpenFOAM.org                      |
|    \\/     M anipulation  |                                                 |
\*---------------------------------------------------------------------------*/
FoamFile
{
    version     2.0;
    format      ascii;
    class       volScalarField;
    location    "1.7";
    object      p;
}
// * * * * * * * * * * * * * * * * * * * * * * * * * * * * * * * * * * * * * //

dimensions      [0 2 -2 0 0 0 0];

internalField   nonuniform List<scalar> 
6000
(
-0.0714922
0.285355
0.242327
0.262303
0.254491
0.259521
0.255454
0.260308
0.255565
0.232397
0.208569
0.206432
0.203377
0.170547
0.107096
0.0377878
-0.0166101
-0.0435912
-0.0386418
-0.00351809
0.0560358
0.130964
0.209885
0.281074
0.336657
0.37494
0.398582
0.411029
0.417292
0.419618
0.419908
0.419267
0.418331
0.417426
0.416679
0.416091
0.415592
0.415075
0.414418
0.413494
0.412178
0.410351
0.407902
0.404733
0.400758
0.395899
0.390076
0.3832
0.375153
0.365776
0.354842
0.342046
0.32695
0.309013
0.287285
0.261096
0.227369
0.188199
0.125112
0.0790181
-0.0451588
0.281945
0.242412
0.262158
0.254514
0.259505
0.255363
0.260087
0.255459
0.232516
0.208671
0.206525
0.204123
0.172001
0.108372
0.037943
-0.0172416
-0.0447503
-0.0403505
-0.00543509
0.0541322
0.129192
0.20843
0.280046
0.336028
0.374607
0.398416
0.410986
0.417264
0.419594
0.419877
0.419228
0.418283
0.417371
0.416618
0.416025
0.415519
0.414993
0.414325
0.413388
0.412056
0.410209
0.407738
0.404543
0.400539
0.395647
0.389789
0.382873
0.374782
0.365356
0.354367
0.34151
0.326339
0.308314
0.286481
0.260158
0.226286
0.18685
0.123688
0.0771489
-0.0282794
0.2785
0.242439
0.262077
0.254515
0.259483
0.255257
0.259852
0.255297
0.232477
0.208488
0.20661
0.204378
0.171784
0.107483
0.0368999
-0.0182702
-0.0458789
-0.0414119
-0.00685614
0.0525015
0.127598
0.207093
0.279114
0.335484
0.374339
0.398285
0.410962
0.417241
0.419566
0.419837
0.419177
0.418223
0.417304
0.416546
0.415949
0.41544
0.41491
0.414237
0.413293
0.411954
0.410098
0.407616
0.40441
0.400394
0.39549
0.389619
0.382692
0.374588
0.365148
0.354144
0.341266
0.326072
0.308015
0.286144
0.259755
0.225827
0.186225
0.122995
0.0762792
-0.0160715
0.274656
0.242641
0.261994
0.254512
0.259451
0.255147
0.25963
0.255189
0.232467
0.208364
0.206694
0.204198
0.170408
0.105575
0.03538
-0.0195778
-0.0473938
-0.0433625
-0.00882274
0.0505173
0.125769
0.205633
0.278155
0.334977
0.374124
0.3982
0.410967
0.417233
0.419541
0.419792
0.419113
0.418146
0.417219
0.416454
0.415852
0.415338
0.414803
0.414123
0.413172
0.411822
0.409955
0.407458
0.404235
0.400199
0.395272
0.389376
0.382419
0.374283
0.364806
0.353759
0.340833
0.325581
0.307458
0.285504
0.259034
0.224962
0.185295
0.121908
0.0752814
-0.00428407
0.270533
0.243003
0.261911
0.254517
0.259411
0.255032
0.259394
0.255114
0.232518
0.208279
0.206729
0.203599
0.168494
0.103456
0.0337365
-0.0211348
-0.0492136
-0.0453115
-0.0110604
0.0482863
0.12374
0.20404
0.277142
0.334477
0.373951
0.398163
0.411012
0.417254
0.419531
0.419751
0.419048
0.418064
0.417124
0.416352
0.415744
0.415225
0.414685
0.414
0.413041
0.411683
0.409804
0.407294
0.404056
0.400003
0.395058
0.389142
0.382164
0.374006
0.364505
0.353431
0.340474
0.325186
0.307018
0.285012
0.258457
0.224337
0.184463
0.120992
0.0743842
0.00727712
0.266295
0.243485
0.261817
0.254535
0.259363
0.254896
0.25913
0.255029
0.232637
0.208296
0.206704
0.202663
0.166304
0.101237
0.0319524
-0.0230027
-0.0513797
-0.0477659
-0.0136
0.0457621
0.12145
0.202249
0.27602
0.333947
0.373793
0.398159
0.41109
0.417299
0.419535
0.419716
0.418982
0.417977
0.417024
0.416244
0.41563
0.415107
0.414562
0.413871
0.412905
0.411538
0.409649
0.407127
0.403873
0.399803
0.394839
0.388902
0.381902
0.373718
0.364188
0.353082
0.340086
0.324751
0.306527
0.284451
0.257819
0.223562
0.18362
0.120008
0.0735341
0.0179905
0.262042
0.244008
0.261692
0.254572
0.259311
0.254736
0.258822
0.254917
0.232853
0.208561
0.206701
0.201503
0.163929
0.098917
0.0299579
-0.0251905
-0.0538665
-0.0504937
-0.0164637
0.0429239
0.118872
0.200235
0.274764
0.33337
0.373639
0.398174
0.411187
0.417363
0.41955
0.419684
0.418915
0.417885
0.416917
0.416129
0.41551
0.414983
0.414434
0.413739
0.412767
0.411392
0.409493
0.406959
0.403691
0.399604
0.394621
0.388664
0.381641
0.373433
0.363875
0.352737
0.339706
0.324329
0.306053
0.283915
0.257205
0.222866
0.182798
0.119048
0.0727492
0.0277993
0.257847
0.2445
0.261547
0.254622
0.259256
0.254554
0.258452
0.254786
0.23321
0.209154
0.206843
0.200245
0.161462
0.0965436
0.0277322
-0.0276748
-0.0566673
-0.0535431
-0.0196527
0.0397646
0.115993
0.197977
0.273355
0.332731
0.373486
0.398201
0.411298
0.417437
0.41957
0.419653
0.418843
0.417786
0.416802
0.416005
0.415382
0.414852
0.414301
0.413602
0.412626
0.411245
0.409338
0.406792
0.403511
0.399408
0.394406
0.388429
0.381383
0.373151
0.363567
0.352399
0.339332
0.323913
0.305587
0.283387
0.2566
0.222159
0.181994
0.118113
0.0720231
0.0369339
0.253772
0.244907
0.261399
0.254674
0.259203
0.254355
0.258021
0.254644
0.233773
0.210195
0.207261
0.199002
0.159006
0.0941513
0.0252873
-0.0304343
-0.0597697
-0.0569055
-0.0231582
0.0362893
0.112811
0.195463
0.271773
0.33201
0.373321
0.398237
0.411417
0.417519
0.419594
0.419619
0.418765
0.417678
0.416677
0.415871
0.415244
0.414712
0.41416
0.41346
0.412481
0.411095
0.409181
0.406626
0.403332
0.399214
0.394195
0.388197
0.381131
0.372875
0.363265
0.352068
0.338967
0.323507
0.305132
0.282871
0.25601
0.221476
0.181217
0.117216
0.0713515
0.0455494
0.249859
0.245204
0.26125
0.254717
0.259153
0.254148
0.257544
0.254499
0.234607
0.211815
0.208032
0.197869
0.156642
0.0917402
0.0226424
-0.0334509
-0.0631571
-0.0605644
-0.0269632
0.0325121
0.109334
0.192691
0.270004
0.331188
0.373121
0.398285
0.411542
0.417605
0.419617
0.419583
0.418681
0.417562
0.416543
0.415727
0.415097
0.414564
0.414011
0.41331
0.41233
0.410941
0.409022
0.406459
0.403154
0.399021
0.393986
0.38797
0.380882
0.372604
0.362969
0.351743
0.338609
0.323111
0.304688
0.282368
0.255437
0.220812
0.180466
0.11636
0.0707262
0.0536988
0.246129
0.245382
0.261078
0.254776
0.259108
0.253938
0.257039
0.254367
0.23576
0.214055
0.2092
0.196905
0.154414
0.0893034
0.0198169
-0.0367045
-0.0668074
-0.0644964
-0.0310444
0.0284537
0.105576
0.189665
0.268044
0.330249
0.372873
0.398331
0.411669
0.417693
0.419639
0.419541
0.41859
0.417438
0.416398
0.415573
0.414939
0.414405
0.413853
0.413153
0.412173
0.410783
0.40886
0.40629
0.402975
0.39883
0.393779
0.387745
0.380638
0.372337
0.362678
0.351425
0.33826
0.322723
0.304255
0.281879
0.254879
0.220169
0.17974
0.115546
0.0701391
0.061411
0.242596
0.245442
0.260885
0.254857
0.259072
0.253734
0.256524
0.254262
0.23725
0.216874
0.210759
0.196141
0.152343
0.0868416
0.0168314
-0.0401706
-0.0706934
-0.0686733
-0.0353739
0.0241401
0.101558
0.186399
0.265893
0.329186
0.372562
0.398361
0.411791
0.417778
0.419657
0.419494
0.418492
0.417304
0.416244
0.415409
0.414771
0.414237
0.413686
0.412988
0.412009
0.410619
0.408694
0.406119
0.402796
0.39864
0.393574
0.387522
0.380396
0.372075
0.362393
0.351113
0.337917
0.322344
0.303832
0.281401
0.254336
0.219545
0.179037
0.114771
0.0695836
0.0687215
0.239269
0.245392
0.26066
0.254965
0.259037
0.253541
0.256014
0.254187
0.239037
0.220178
0.212664
0.195588
0.150439
0.0843619
0.0137092
-0.0438214
-0.0747836
-0.0730626
-0.03992
0.0196008
0.097305
0.182907
0.263558
0.327997
0.372176
0.398361
0.4119
0.417857
0.419669
0.419441
0.418386
0.417163
0.416081
0.415236
0.414594
0.41406
0.413511
0.412815
0.411839
0.410451
0.408525
0.405947
0.402617
0.398449
0.39337
0.387302
0.380158
0.371817
0.362112
0.350807
0.337581
0.321973
0.303418
0.280935
0.253806
0.218938
0.178355
0.114033
0.0690544
0.0756656
0.236156
0.24524
0.260394
0.255099
0.258992
0.253364
0.255519
0.254142
0.241046
0.223828
0.214848
0.195243
0.148704
0.0818741
0.0104758
-0.0476255
-0.0790432
-0.0776293
-0.0446477
0.0148685
0.0928431
0.17921
0.26105
0.326683
0.37171
0.398321
0.411989
0.417924
0.419672
0.41938
0.418273
0.417013
0.41591
0.415054
0.414409
0.413875
0.413328
0.412635
0.411662
0.410277
0.408352
0.405772
0.402436
0.39826
0.393168
0.387085
0.379923
0.371562
0.361835
0.350506
0.337252
0.32161
0.303013
0.28048
0.253289
0.218347
0.177694
0.113328
0.0685479
0.0822713
0.233258
0.244997
0.260082
0.255252
0.258934
0.253206
0.255049
0.254122
0.243189
0.227668
0.217228
0.195096
0.147131
0.0793903
0.00715836
-0.0515499
-0.0834357
-0.0823358
-0.0495202
0.00997828
0.088203
0.175329
0.25838
0.325249
0.371162
0.39823
0.412048
0.417975
0.419665
0.41931
0.418152
0.416857
0.415732
0.414865
0.414215
0.413681
0.413136
0.412447
0.411479
0.410097
0.408175
0.405595
0.402255
0.398071
0.392967
0.38687
0.379691
0.371311
0.361564
0.350211
0.336929
0.321254
0.302617
0.280035
0.252784
0.217773
0.177052
0.112654
0.0680615
0.0885606
0.230574
0.244674
0.259722
0.255409
0.258867
0.25307
0.254609
0.254125
0.245384
0.23156
0.219726
0.195133
0.145711
0.0769244
0.0037852
-0.0555595
-0.0879229
-0.0871436
-0.0544989
0.00496746
0.0834175
0.171287
0.255562
0.323701
0.370532
0.398082
0.412071
0.418003
0.419642
0.41923
0.418024
0.416693
0.415547
0.414669
0.414015
0.413481
0.412938
0.412252
0.411289
0.409913
0.407995
0.405415
0.402073
0.397882
0.392768
0.386657
0.379462
0.371064
0.361297
0.349921
0.336613
0.320906
0.30223
0.279601
0.252292
0.217214
0.176428
0.11201
0.0675934
0.0945521
0.228099
0.244284
0.259317
0.255558
0.258796
0.252957
0.254205
0.254145
0.247561
0.235397
0.222274
0.195332
0.144437
0.0744911
0.000385174
-0.0596189
-0.0924665
-0.0920136
-0.0595448
-0.000125705
0.0785211
0.167111
0.252612
0.322045
0.369823
0.397874
0.412051
0.418003
0.419603
0.419139
0.417887
0.416524
0.415357
0.414468
0.41381
0.413274
0.412733
0.412051
0.411093
0.409723
0.40781
0.405234
0.40189
0.397693
0.39257
0.386446
0.379236
0.370822
0.361035
0.349637
0.336303
0.320565
0.301852
0.279177
0.251813
0.216671
0.175824
0.111394
0.0671425
0.100263
0.22583
0.24384
0.258868
0.255688
0.258723
0.252866
0.253841
0.254181
0.249671
0.239102
0.224822
0.195675
0.143298
0.0721055
-0.00301279
-0.0636927
-0.0970283
-0.0969072
-0.0646191
-0.00526246
0.0735497
0.16283
0.249549
0.320289
0.369036
0.397604
0.411984
0.417972
0.419542
0.419035
0.417743
0.416349
0.415162
0.414262
0.413599
0.413063
0.412523
0.411845
0.410892
0.409529
0.407622
0.405049
0.401706
0.397505
0.392374
0.386238
0.379014
0.370583
0.360778
0.349359
0.336
0.320233
0.301484
0.278764
0.251346
0.216143
0.175238
0.110804
0.0667078
0.105707
0.223759
0.243352
0.25838
0.255792
0.258654
0.252795
0.253522
0.254229
0.251678
0.242627
0.227332
0.196141
0.142286
0.0697829
-0.00638023
-0.0677461
-0.101571
-0.101787
-0.0696835
-0.0104044
0.0685396
0.158474
0.24639
0.318444
0.368175
0.397271
0.411867
0.417904
0.419458
0.418917
0.417591
0.416169
0.414964
0.414054
0.413386
0.412848
0.412308
0.411633
0.410686
0.40933
0.40743
0.404863
0.401521
0.397318
0.392179
0.386033
0.378795
0.370348
0.360526
0.349087
0.335704
0.319908
0.301124
0.278361
0.250892
0.215631
0.174671
0.11024
0.0662887
0.110899
0.221878
0.242834
0.257859
0.255866
0.258586
0.252748
0.253249
0.254288
0.253561
0.245944
0.229776
0.196708
0.141394
0.067538
-0.00968955
-0.0717458
-0.106061
-0.106616
-0.0747016
-0.015514
0.0635274
0.154071
0.243158
0.316521
0.367243
0.396875
0.411697
0.417798
0.419348
0.418782
0.417429
0.415984
0.414762
0.413843
0.41317
0.41263
0.41209
0.411417
0.410475
0.409127
0.407235
0.404674
0.401335
0.397131
0.391986
0.38583
0.37858
0.370118
0.360279
0.34882
0.335415
0.319592
0.300774
0.27797
0.25045
0.215134
0.174122
0.109701
0.0658849
0.115852
0.220181
0.242295
0.257311
0.255905
0.258513
0.252729
0.253024
0.254358
0.255307
0.249036
0.232136
0.197359
0.140612
0.0653847
-0.0129144
-0.07566
-0.110462
-0.111361
-0.0796385
-0.0205552
0.0585491
0.149655
0.239873
0.314532
0.366243
0.396416
0.411474
0.41765
0.419209
0.418631
0.417259
0.415795
0.414559
0.41363
0.412952
0.41241
0.411869
0.411198
0.410261
0.40892
0.407037
0.404483
0.401149
0.396944
0.391794
0.38563
0.378368
0.369892
0.360037
0.34856
0.335133
0.319283
0.300433
0.27759
0.250022
0.214653
0.173591
0.109186
0.065496
0.120576
0.218657
0.241744
0.256742
0.255907
0.258434
0.252738
0.252854
0.254439
0.25691
0.2519
0.234398
0.198074
0.139936
0.0633361
-0.0160301
-0.0794589
-0.114745
-0.115991
-0.0844617
-0.0254938
0.0536393
0.145255
0.236556
0.312493
0.36518
0.395895
0.411195
0.41746
0.419041
0.418461
0.417078
0.415601
0.414354
0.413417
0.412735
0.412189
0.411647
0.410976
0.410043
0.408709
0.406835
0.40429
0.400961
0.396757
0.391604
0.385432
0.378159
0.369671
0.3598
0.348306
0.334858
0.318983
0.300102
0.27722
0.249606
0.214187
0.173079
0.108694
0.0651216
0.125084
0.217298
0.241191
0.256158
0.255873
0.258343
0.252775
0.25274
0.254539
0.25837
0.254536
0.236554
0.198836
0.139358
0.0614044
-0.0190135
-0.0831148
-0.118879
-0.120474
-0.0891409
-0.0302979
0.0488318
0.140903
0.233227
0.310417
0.36406
0.395314
0.410862
0.417225
0.418841
0.41827
0.416887
0.415403
0.414148
0.413205
0.412518
0.411968
0.411424
0.410753
0.409823
0.408496
0.406631
0.404095
0.400772
0.396571
0.391415
0.385237
0.377955
0.369454
0.359569
0.348058
0.334591
0.318692
0.29978
0.276862
0.249204
0.213737
0.172584
0.108224
0.0647615
0.129385
0.216095
0.240642
0.255565
0.255804
0.258241
0.252837
0.252677
0.254669
0.259687
0.256949
0.238593
0.199629
0.138872
0.0596003
-0.0218435
-0.0866024
-0.12284
-0.124784
-0.0936482
-0.0349377
0.0441582
0.136627
0.229914
0.308316
0.362888
0.394673
0.410474
0.416945
0.418609
0.418059
0.416684
0.415201
0.413941
0.412994
0.412303
0.411749
0.411201
0.410529
0.409601
0.40828
0.406424
0.403898
0.400583
0.396385
0.391228
0.385044
0.377753
0.369242
0.359343
0.347817
0.334331
0.318408
0.299468
0.276515
0.248814
0.213303
0.172109
0.107776
0.0644154
0.13349
0.215037
0.240104
0.254969
0.255702
0.258125
0.252922
0.252658
0.254842
0.260864
0.259145
0.240512
0.200437
0.138471
0.0579334
-0.0245009
-0.0898985
-0.126601
-0.128895
-0.0979577
-0.0393856
0.0396481
0.132454
0.226643
0.306201
0.36167
0.393975
0.41003
0.416621
0.418343
0.417827
0.41647
0.414994
0.413735
0.412784
0.412089
0.411532
0.41098
0.410305
0.409379
0.408063
0.406216
0.403699
0.400393
0.396199
0.391042
0.384854
0.377556
0.369034
0.359123
0.347582
0.334078
0.318134
0.299167
0.27618
0.248438
0.212885
0.171651
0.10735
0.0640832
0.137408
0.214117
0.23958
0.254376
0.25557
0.257995
0.253026
0.252682
0.255063
0.261902
0.261131
0.242303
0.201246
0.138151
0.0564121
-0.0269685
-0.0929822
-0.130141
-0.132785
-0.102046
-0.0436167
0.0353291
0.128412
0.223435
0.304088
0.360412
0.393222
0.409532
0.41625
0.418044
0.417572
0.416243
0.414782
0.413528
0.412577
0.411879
0.411317
0.410761
0.410083
0.409156
0.407845
0.406006
0.403499
0.400202
0.396014
0.390858
0.384667
0.377362
0.368831
0.358909
0.347354
0.333833
0.317868
0.298875
0.275856
0.248076
0.212482
0.171212
0.106944
0.0637647
0.141148
0.213324
0.239077
0.25379
0.255411
0.257851
0.253147
0.252748
0.255333
0.262802
0.262912
0.243963
0.202042
0.137903
0.0550434
-0.0292312
-0.0958346
-0.133439
-0.136432
-0.105891
-0.0476079
0.0312267
0.124526
0.220309
0.30199
0.359122
0.392416
0.408981
0.415835
0.41771
0.417294
0.416003
0.414564
0.413321
0.412372
0.411673
0.411106
0.410544
0.409862
0.408934
0.407626
0.405795
0.403299
0.400011
0.395829
0.390676
0.384482
0.377171
0.368632
0.3587
0.347132
0.333595
0.317611
0.298593
0.275544
0.247727
0.212095
0.17079
0.106558
0.0634595
0.144721
0.212651
0.238595
0.253215
0.255232
0.257696
0.253279
0.252855
0.255633
0.263588
0.26449
0.245485
0.20281
0.137723
0.0538329
-0.0312758
-0.0984391
-0.136478
-0.139815
-0.109474
-0.0513383
0.0273638
0.12082
0.217286
0.299921
0.357806
0.391559
0.408376
0.415375
0.417343
0.416994
0.41575
0.414342
0.413113
0.41217
0.41147
0.4109
0.410332
0.409644
0.408714
0.407408
0.405584
0.403097
0.399819
0.395645
0.390495
0.3843
0.376985
0.368438
0.358496
0.346917
0.333365
0.317362
0.298321
0.275243
0.247391
0.211724
0.170387
0.106192
0.0631677
0.148133
0.212088
0.238139
0.252655
0.255034
0.25753
0.253418
0.252999
0.255958
0.264285
0.265863
0.246862
0.203538
0.137603
0.0527852
-0.0330911
-0.100781
-0.139238
-0.142917
-0.112774
-0.0547884
0.0237593
0.11731
0.214392
0.297893
0.35647
0.390655
0.40772
0.41487
0.416943
0.41667
0.415483
0.414113
0.412906
0.411972
0.411272
0.410698
0.410124
0.40943
0.408496
0.407191
0.405373
0.402896
0.399628
0.395462
0.390315
0.384121
0.376802
0.368249
0.358299
0.346708
0.333143
0.317123
0.298059
0.274954
0.247069
0.211369
0.170001
0.105845
0.0628889
0.151393
0.211628
0.237709
0.252112
0.254823
0.257357
0.253563
0.253176
0.256304
0.264905
0.267039
0.248082
0.204213
0.137533
0.0519041
-0.0346675
-0.102848
-0.141706
-0.145719
-0.115776
-0.0579413
0.0204271
0.114021
0.211644
0.295918
0.355122
0.389707
0.407013
0.414322
0.416509
0.416323
0.415203
0.413878
0.412698
0.411776
0.411079
0.410501
0.409921
0.40922
0.408281
0.406976
0.405162
0.402694
0.399437
0.395279
0.390138
0.383944
0.376623
0.368065
0.358107
0.346507
0.332929
0.316892
0.297808
0.274677
0.246761
0.211029
0.169634
0.105517
0.062623
0.154509
0.211262
0.237306
0.25159
0.254602
0.257178
0.253709
0.253381
0.256664
0.265456
0.268024
0.249135
0.204824
0.137504
0.051186
-0.0359927
-0.104628
-0.143865
-0.148203
-0.11846
-0.0607817
0.0173791
0.110977
0.209059
0.294009
0.353766
0.388716
0.406258
0.413731
0.416042
0.415953
0.414908
0.413637
0.412489
0.411583
0.41089
0.41031
0.409723
0.409015
0.40807
0.406763
0.404953
0.402494
0.399246
0.395097
0.389962
0.383771
0.376448
0.367886
0.357921
0.346312
0.332723
0.316671
0.297568
0.274412
0.246466
0.210705
0.169284
0.105207
0.0623699
0.157488
0.210984
0.236933
0.251091
0.254376
0.256996
0.253853
0.253608
0.257032
0.265943
0.268817
0.250023
0.205364
0.137514
0.0506224
-0.037066
-0.106106
-0.145702
-0.150353
-0.12081
-0.0632995
0.0146339
0.108193
0.206651
0.292175
0.352408
0.387685
0.405455
0.413098
0.415542
0.415561
0.414599
0.413389
0.41228
0.411394
0.410707
0.410125
0.409531
0.408815
0.407863
0.406553
0.404746
0.402294
0.399056
0.394917
0.389788
0.3836
0.376277
0.367711
0.357742
0.346125
0.332525
0.316459
0.297337
0.27416
0.246185
0.210397
0.168952
0.104914
0.0621295
0.160338
0.210786
0.236587
0.250614
0.254148
0.256813
0.253995
0.253849
0.257401
0.26637
0.269421
0.250745
0.205823
0.137554
0.0502116
-0.0378818
-0.107274
-0.147204
-0.152153
-0.122807
-0.065479
0.0122051
0.105685
0.204434
0.290427
0.351054
0.386618
0.404606
0.412425
0.415012
0.415146
0.414276
0.413134
0.41207
0.411207
0.41053
0.409946
0.409346
0.408621
0.407661
0.406347
0.404541
0.402096
0.398868
0.394738
0.389617
0.383432
0.376109
0.367542
0.357568
0.345944
0.332335
0.316257
0.297118
0.273919
0.245918
0.210105
0.168637
0.10464
0.0619017
0.163065
0.210663
0.236271
0.250162
0.25392
0.256631
0.254132
0.2541
0.257763
0.266735
0.26984
0.2513
0.206193
0.137617
0.0499516
-0.0384392
-0.108126
-0.148357
-0.153586
-0.124435
-0.0673078
0.0101044
0.103463
0.202418
0.288771
0.349709
0.385517
0.403713
0.411712
0.41445
0.414709
0.413939
0.412872
0.411858
0.411024
0.410357
0.409774
0.409168
0.408433
0.407464
0.406145
0.40434
0.4019
0.398681
0.394561
0.389447
0.383267
0.375946
0.367378
0.3574
0.345771
0.332153
0.316063
0.296909
0.27369
0.245665
0.209829
0.16834
0.104382
0.0616862
0.165675
0.210607
0.235982
0.249735
0.253695
0.256452
0.254263
0.254353
0.258111
0.267034
0.270082
0.251684
0.206469
0.137695
0.0498393
-0.0387381
-0.108654
-0.149151
-0.154636
-0.12568
-0.0687748
0.0083419
0.101539
0.200614
0.287215
0.348375
0.384385
0.402778
0.41096
0.413858
0.41425
0.413589
0.412604
0.411645
0.410843
0.41019
0.409608
0.408996
0.408252
0.407274
0.405948
0.404142
0.401706
0.398496
0.394385
0.38928
0.383105
0.375787
0.367218
0.357239
0.345605
0.33198
0.315879
0.296711
0.273474
0.245426
0.209569
0.168061
0.104141
0.0614832
0.168174
0.210613
0.235722
0.249334
0.253476
0.256278
0.254388
0.254603
0.258435
0.26726
0.270158
0.251894
0.206645
0.137781
0.0498704
-0.0387789
-0.108853
-0.149573
-0.15529
-0.126531
-0.0698707
0.00692638
0.0999221
0.19903
0.285764
0.347056
0.383223
0.401802
0.410172
0.413237
0.413771
0.413224
0.412329
0.411431
0.410665
0.410028
0.409449
0.408832
0.408078
0.40709
0.405757
0.403947
0.401515
0.398313
0.394212
0.389115
0.382946
0.375631
0.367064
0.357083
0.345446
0.331815
0.315705
0.296523
0.273269
0.245201
0.209324
0.167798
0.103917
0.0612924
0.170569
0.210676
0.23549
0.248958
0.253264
0.256109
0.254504
0.254844
0.25873
0.267407
0.270078
0.251925
0.206717
0.137868
0.0500395
-0.0385629
-0.108719
-0.149615
-0.155536
-0.126976
-0.0705872
0.00586534
0.0986199
0.197673
0.284423
0.345755
0.382034
0.400788
0.409348
0.412588
0.413271
0.412847
0.412046
0.411216
0.41049
0.409872
0.409297
0.408675
0.407912
0.406913
0.405571
0.403758
0.401328
0.398133
0.394041
0.388953
0.382791
0.37548
0.366915
0.356934
0.345295
0.331658
0.31554
0.296347
0.273078
0.24499
0.209095
0.167554
0.103709
0.0611138
0.172863
0.21079
0.235284
0.248607
0.253061
0.255947
0.254612
0.255072
0.258989
0.267466
0.269855
0.251773
0.206681
0.137949
0.0503405
-0.0380929
-0.108249
-0.149267
-0.155364
-0.127007
-0.0709179
0.00516491
0.0976384
0.196546
0.283195
0.344474
0.38082
0.399736
0.40849
0.411911
0.412751
0.412457
0.411758
0.410999
0.410317
0.409721
0.409152
0.408525
0.407753
0.406743
0.405392
0.403574
0.401145
0.397955
0.393873
0.388793
0.382639
0.375333
0.366771
0.356792
0.345151
0.33151
0.315385
0.296181
0.272898
0.244793
0.208882
0.167326
0.103517
0.0609475
0.175063
0.210952
0.235105
0.248281
0.252868
0.255792
0.254712
0.255282
0.259205
0.267433
0.269498
0.251436
0.206534
0.138018
0.0507663
-0.037373
-0.107442
-0.148524
-0.154765
-0.126618
-0.0708578
0.00482991
0.0969825
0.195655
0.28208
0.343214
0.379582
0.39865
0.407599
0.411208
0.412212
0.412055
0.411463
0.410781
0.410147
0.409575
0.409014
0.408384
0.407602
0.40658
0.405219
0.403395
0.400965
0.397781
0.393707
0.388637
0.38249
0.375191
0.366633
0.356655
0.345014
0.331371
0.31524
0.296027
0.272731
0.24461
0.208685
0.167116
0.10334
0.0607932
0.177172
0.211157
0.234951
0.24798
0.252686
0.255646
0.254803
0.255472
0.259374
0.267303
0.269014
0.250919
0.206272
0.138069
0.051309
-0.0364086
-0.106297
-0.14738
-0.153733
-0.125803
-0.0704035
0.00486385
0.0966551
0.194999
0.28108
0.341976
0.378322
0.397529
0.406676
0.41048
0.411655
0.411641
0.411162
0.410561
0.409979
0.409434
0.408882
0.40825
0.407459
0.406426
0.405053
0.403222
0.400791
0.397611
0.393545
0.388484
0.382346
0.375053
0.3665
0.356525
0.344885
0.33124
0.315105
0.295884
0.272577
0.244442
0.208504
0.166923
0.103179
0.0606511
0.179196
0.2114
0.234823
0.247703
0.252515
0.255508
0.254885
0.255639
0.259492
0.267074
0.268406
0.250228
0.205893
0.138096
0.0519596
-0.0352066
-0.104817
-0.145833
-0.152264
-0.12456
-0.0695535
0.00526896
0.0966582
0.194579
0.280192
0.340759
0.377041
0.396377
0.405723
0.409728
0.411081
0.411216
0.410855
0.410341
0.409814
0.409299
0.408757
0.408124
0.407325
0.40628
0.404895
0.403055
0.400622
0.397445
0.393386
0.388334
0.382205
0.374919
0.366372
0.356402
0.344763
0.331118
0.314979
0.295751
0.272435
0.244288
0.208338
0.166747
0.103033
0.0605211
0.181137
0.211678
0.234718
0.24745
0.252356
0.25538
0.25496
0.255782
0.259557
0.266749
0.267676
0.249376
0.205392
0.138094
0.0527084
-0.0337756
-0.103005
-0.143882
-0.150357
-0.12289
-0.0683081
0.00604623
0.096992
0.194393
0.279415
0.339563
0.375741
0.395195
0.404741
0.408951
0.410489
0.41078
0.410543
0.410119
0.409651
0.409168
0.408639
0.408006
0.407198
0.406141
0.404745
0.402895
0.400458
0.397284
0.393232
0.388188
0.382068
0.37479
0.36625
0.356285
0.344649
0.331004
0.314863
0.29563
0.272306
0.244148
0.208189
0.166588
0.102903
0.0604032
0.183001
0.211988
0.234638
0.24722
0.252209
0.255261
0.255026
0.2559
0.259567
0.266329
0.266827
0.248377
0.204767
0.138058
0.0535448
-0.0321258
-0.100868
-0.141531
-0.148015
-0.120795
-0.0666693
0.00719543
0.0976553
0.194436
0.278744
0.338387
0.374422
0.393983
0.403731
0.408153
0.409882
0.410335
0.410226
0.409897
0.409491
0.409043
0.408528
0.407895
0.407081
0.406012
0.404602
0.402743
0.400301
0.397127
0.393081
0.388046
0.381935
0.374666
0.366134
0.356174
0.344543
0.3309
0.314758
0.295521
0.27219
0.244022
0.208055
0.166446
0.102787
0.0602975
0.18479
0.212326
0.23458
0.247013
0.252074
0.255151
0.255086
0.255995
0.259524
0.26582
0.265861
0.247246
0.20402
0.137983
0.0544575
-0.0302695
-0.0984131
-0.138783
-0.145241
-0.118281
-0.0646408
0.0087152
0.0986456
0.194704
0.278174
0.337229
0.373085
0.392743
0.402694
0.407333
0.409259
0.40988
0.409905
0.409674
0.409334
0.408922
0.408424
0.407793
0.406971
0.405891
0.404468
0.402598
0.400149
0.396976
0.392935
0.387908
0.381806
0.374547
0.366023
0.35607
0.344445
0.330804
0.314662
0.295422
0.272086
0.243911
0.207937
0.166322
0.102686
0.060204
0.186508
0.212689
0.234545
0.246828
0.251952
0.255051
0.255139
0.256066
0.25943
0.265229
0.264784
0.246001
0.203154
0.137866
0.0554351
-0.0282207
-0.0956529
-0.135648
-0.142045
-0.115357
-0.0622281
0.0106031
0.0999588
0.195189
0.2777
0.336088
0.371731
0.391477
0.401632
0.406492
0.408623
0.409417
0.40958
0.409452
0.409179
0.408807
0.408326
0.407699
0.406871
0.405778
0.404342
0.40246
0.400004
0.39683
0.392793
0.387775
0.381682
0.374432
0.365918
0.355973
0.344354
0.330717
0.314576
0.295335
0.271996
0.243814
0.207835
0.166214
0.1026
0.0601227
0.188159
0.213075
0.234531
0.246664
0.251842
0.25496
0.255186
0.256115
0.259287
0.264563
0.263603
0.244654
0.202178
0.137705
0.0564662
-0.0259955
-0.092601
-0.132138
-0.138439
-0.112034
-0.0594379
0.0128557
0.101589
0.195882
0.277314
0.33496
0.37036
0.390185
0.400544
0.405632
0.407973
0.408946
0.409252
0.409229
0.409027
0.408697
0.408236
0.407612
0.406779
0.405675
0.404225
0.40233
0.399867
0.39669
0.392657
0.387646
0.381563
0.374323
0.365818
0.355883
0.344271
0.330639
0.314501
0.295259
0.271917
0.243731
0.207748
0.166123
0.102528
0.0600538
0.189745
0.21348
0.234539
0.246523
0.251745
0.254879
0.255229
0.256145
0.2591
0.263831
0.262332
0.24322
0.201105
0.137499
0.0575401
-0.0236116
-0.0892749
-0.128269
-0.13444
-0.108326
-0.0562783
0.0154686
0.10353
0.196773
0.277009
0.333844
0.368973
0.388868
0.399432
0.404752
0.40731
0.408468
0.408922
0.409008
0.408879
0.408592
0.408152
0.407533
0.406695
0.40558
0.404117
0.402209
0.399736
0.396557
0.392526
0.387522
0.381448
0.374219
0.365725
0.3558
0.344196
0.33057
0.314435
0.295195
0.271852
0.243663
0.207678
0.166049
0.10247
0.0599973
0.191269
0.213903
0.234566
0.246402
0.251661
0.254808
0.255267
0.256157
0.258874
0.263042
0.260983
0.24171
0.199951
0.137248
0.058647
-0.021088
-0.0856952
-0.124061
-0.130066
-0.104251
-0.0527581
0.0184366
0.105772
0.197849
0.276775
0.332738
0.367569
0.387526
0.398297
0.403855
0.406636
0.407985
0.40859
0.408788
0.408734
0.408492
0.408074
0.407463
0.40662
0.405495
0.404017
0.402096
0.399613
0.396429
0.392401
0.387403
0.381338
0.37412
0.365637
0.355723
0.344128
0.33051
0.31438
0.295142
0.2718
0.243609
0.207623
0.165992
0.102427
0.0599533
0.192734
0.214341
0.234613
0.246301
0.25159
0.254746
0.255302
0.256154
0.258615
0.262206
0.259573
0.240139
0.198735
0.136957
0.0597792
-0.018444
-0.0818855
-0.119538
-0.125343
-0.0998261
-0.0488864
0.0217538
0.108305
0.199097
0.276605
0.331637
0.366148
0.38616
0.397139
0.40294
0.405952
0.407497
0.408257
0.408569
0.408593
0.408398
0.408004
0.4074
0.406554
0.405419
0.403927
0.401992
0.399498
0.396309
0.392282
0.387289
0.381234
0.374027
0.365556
0.355653
0.344069
0.330459
0.314335
0.295101
0.27176
0.24357
0.207584
0.165952
0.102398
0.0599219
0.194142
0.214792
0.234679
0.246221
0.251532
0.254693
0.255334
0.256137
0.258328
0.261333
0.258116
0.238519
0.197478
0.136635
0.0609312
-0.0156987
-0.0778716
-0.114727
-0.120297
-0.0950718
-0.0446725
0.0254135
0.111116
0.200501
0.276489
0.33054
0.36471
0.384771
0.395957
0.402009
0.405258
0.407004
0.407923
0.408353
0.408456
0.408309
0.40794
0.407344
0.406497
0.405351
0.403846
0.401896
0.399391
0.396196
0.392168
0.387182
0.381135
0.37394
0.365481
0.355591
0.344018
0.330417
0.3143
0.295071
0.271734
0.243545
0.207561
0.165929
0.102383
0.0599033
0.195496
0.215255
0.234762
0.24616
0.251487
0.254651
0.255364
0.256109
0.25802
0.260434
0.256629
0.236866
0.196199
0.136293
0.0621007
-0.0128693
-0.0736808
-0.109661
-0.114958
-0.0900077
-0.0401252
0.0294082
0.114191
0.202044
0.276418
0.329445
0.363255
0.383357
0.394754
0.401062
0.404555
0.406509
0.40759
0.408139
0.408323
0.408226
0.407883
0.407297
0.406448
0.405293
0.403774
0.401809
0.399292
0.39609
0.392062
0.38708
0.381042
0.373858
0.365413
0.355535
0.343974
0.330384
0.314275
0.295052
0.27172
0.243535
0.207554
0.165923
0.102383
0.059898
0.196798
0.215727
0.234864
0.246118
0.251454
0.254618
0.255393
0.256072
0.257695
0.259517
0.255126
0.235198
0.194916
0.135949
0.0632892
-0.00997034
-0.0693405
-0.10437
-0.109356
-0.0846528
-0.0352523
0.0337299
0.117515
0.20371
0.276382
0.328348
0.361782
0.381918
0.393528
0.4001
0.403846
0.406012
0.407259
0.407929
0.408195
0.408148
0.407832
0.407257
0.406407
0.405244
0.403711
0.401732
0.399202
0.395992
0.391962
0.386984
0.380955
0.373782
0.36535
0.355487
0.343939
0.33036
0.314261
0.295045
0.271719
0.243539
0.207563
0.165934
0.102396
0.0599058
0.198049
0.216208
0.234982
0.246095
0.251435
0.254595
0.255422
0.256027
0.257358
0.258592
0.25362
0.233531
0.193648
0.135621
0.0645028
-0.00701195
-0.0648758
-0.0988896
-0.10352
-0.0790237
-0.0300603
0.038369
0.121067
0.20548
0.276375
0.327247
0.360291
0.380454
0.392279
0.399123
0.403129
0.405514
0.40693
0.407723
0.408072
0.408077
0.407789
0.407226
0.406375
0.405204
0.403658
0.401663
0.39912
0.395901
0.391869
0.386894
0.380873
0.373713
0.365295
0.355446
0.343912
0.330345
0.314257
0.29505
0.271732
0.243558
0.207588
0.165961
0.102424
0.0599266
0.199253
0.216695
0.235116
0.246089
0.251429
0.254582
0.255452
0.255977
0.257014
0.257668
0.252124
0.231882
0.19241
0.135329
0.0657522
-0.00399904
-0.0603079
-0.0932482