/*--------------------------------*- C++ -*----------------------------------*\
| =========                 |                                                 |
| \\      /  F ield         | OpenFOAM: The Open Source CFD Toolbox           |
|  \\    /   O peration     | Version:  2.4.0                                 |
|   \\  /    A nd           | Web:      www.OpenFOAM.org                      |
|    \\/     M anipulation  |                                                 |
\*---------------------------------------------------------------------------*/
FoamFile
{
    version     2.0;
    format      ascii;
    class       volScalarField;
    location    "4.53";
    object      k;
}
// * * * * * * * * * * * * * * * * * * * * * * * * * * * * * * * * * * * * * //

dimensions      [0 2 -2 0 0 0 0];

internalField   nonuniform List<scalar> 
6000
(
0.0117122
0.00656276
0.00175511
0.000444863
0.000122566
0.000318868
0.000251082
0.000401905
0.000470723
0.000639856
0.000794805
0.00098451
0.00115144
0.00130852
0.00142662
0.00150594
0.00152265
0.00146342
0.00136939
0.00143437
0.00181911
0.00244035
0.00310802
0.00371498
0.00424582
0.0047154
0.0051358
0.00551551
0.00585941
0.00617132
0.00645526
0.00670805
0.0069308
0.0071256
0.00729411
0.00743791
0.00755846
0.00765745
0.00773638
0.00779738
0.00784174
0.00787247
0.00788954
0.00789818
0.00789439
0.00788813
0.00786966
0.00784878
0.00804633
0.00836281
0.00865108
0.00907826
0.00939236
0.00997536
0.0102627
0.011132
0.0113231
0.0128603
0.0128853
0.0166252
0.0120372
0.0117118
0.00208938
0.000676031
0.000137262
0.000281204
0.000381052
0.000542874
0.000727358
0.000981389
0.00125637
0.00157056
0.0018729
0.00217253
0.00243631
0.00264984
0.00276512
0.00274151
0.00263928
0.00277038
0.00344675
0.0045458
0.00576785
0.0069218
0.0079577
0.0088899
0.0097359
0.0105089
0.011217
0.0118664
0.0124597
0.0129935
0.0134719
0.0138983
0.0142758
0.0146078
0.0148981
0.0151505
0.0153696
0.0155605
0.015728
0.0158792
0.0160178
0.0161538
0.016287
0.0164321
0.0165845
0.016757
0.0169836
0.0172505
0.0174955
0.017783
0.0179742
0.0182398
0.018283
0.0185232
0.0183597
0.0186911
0.0184665
0.0197301
0.011568
0.0151657
0.00288267
0.000648121
0.000187737
0.000334598
0.000483774
0.000681481
0.00092427
0.0012455
0.00160001
0.00199761
0.00238061
0.00275092
0.0030736
0.00333182
0.00347754
0.00346699
0.00338037
0.0035891
0.00446388
0.00585102
0.00737276
0.00880834
0.0101035
0.0112732
0.012337
0.0133099
0.0142016
0.0150196
0.015765
0.0164378
0.017041
0.0175782
0.0180531
0.0184699
0.0188329
0.0191472
0.0194181
0.0196522
0.0198556
0.0200367
0.0202014
0.0203607
0.0205176
0.0206863
0.0208694
0.0210736
0.0213247
0.0216037
0.0218751
0.0221575
0.0223691
0.0225844
0.0226345
0.0227409
0.0225846
0.0226624
0.0225174
0.023353
0.0114636
0.0160711
0.00401165
0.000532563
0.000236453
0.000386042
0.000562329
0.000791455
0.00107676
0.0014501
0.00186454
0.0023224
0.00276173
0.00317824
0.00353814
0.00382472
0.00399269
0.00399997
0.00394222
0.00422269
0.00523829
0.00681592
0.00853558
0.0101621
0.0116368
0.0129725
0.0141893
0.0153031
0.0163243
0.0172608
0.0181137
0.0188842
0.019575
0.0201897
0.0207322
0.021207
0.0216189
0.0219735
0.0222768
0.0225362
0.0227586
0.0229535
0.023128
0.0232937
0.0234565
0.0236297
0.0238222
0.0240342
0.0242942
0.0245747
0.02486
0.0251352
0.0253627
0.0255447
0.0256119
0.025634
0.0255129
0.0254325
0.0254414
0.0259904
0.0113762
0.0157664
0.00532557
0.00048352
0.000280928
0.000430873
0.000627632
0.000883926
0.00120412
0.00162064
0.0020844
0.00259132
0.00307622
0.00352984
0.00391981
0.00423021
0.00441933
0.00444873
0.00442497
0.00476691
0.00588624
0.00760369
0.00947431
0.0112515
0.0128706
0.0143413
0.0156831
0.0169124
0.0180401
0.0190743
0.0200159
0.0208669
0.02163
0.0223084
0.0229064
0.0234285
0.0238798
0.0242663
0.0245944
0.024872
0.0251069
0.025309
0.0254867
0.0256522
0.0258134
0.0259833
0.0261755
0.0263853
0.0266443
0.0269183
0.0272069
0.0274702
0.0277044
0.027856
0.027934
0.027888
0.0277973
0.0275915
0.0277217
0.0280356
0.0113033
0.0149415
0.00672849
0.000609075
0.000323621
0.000470798
0.000684806
0.000965012
0.00131527
0.001769
0.00227544
0.002825
0.00334985
0.00383651
0.00425381
0.0045869
0.00479789
0.00485285
0.00486523
0.00525886
0.00645508
0.00827958
0.010273
0.0121775
0.0139211
0.0155094
0.0169609
0.018292
0.0195139
0.0206346
0.0216549
0.0225776
0.0234049
0.0241401
0.0247874
0.0253513
0.0258372
0.0262513
0.0266003
0.0268925
0.0271363
0.027342
0.0275191
0.0276802
0.0278352
0.027997
0.0281823
0.0283835
0.0286341
0.0288959
0.0291796
0.0294269
0.02966
0.0297822
0.0298636
0.0297588
0.0296893
0.0293778
0.0295984
0.0297029
0.0112435
0.0139419
0.00776352
0.00114098
0.000372807
0.000507743
0.000736686
0.00103811
0.0014149
0.0019014
0.00244589
0.00303393
0.0035955
0.00411332
0.00455718
0.00491337
0.0051477
0.0052311
0.0052805
0.00571721
0.00696927
0.0088764
0.0109726
0.0129886
0.0148436
0.0165383
0.0180898
0.0195141
0.0208226
0.022023
0.0231162
0.0241051
0.024992
0.02578
0.026473
0.0270757
0.0275935
0.0280327
0.0284003
0.0287049
0.0289552
0.0291622
0.0293361
0.0294899
0.0296352
0.0297852
0.0299584
0.0301459
0.0303825
0.0306272
0.0308994
0.0311272
0.0313524
0.0314451
0.0315234
0.0313657
0.0313089
0.0309058
0.0311906
0.0311039
0.0111887
0.0129397
0.00846423
0.0020752
0.000449369
0.000543841
0.000785211
0.0011054
0.00150584
0.00202158
0.00260061
0.00322419
0.00382048
0.00436875
0.00483944
0.00522003
0.00547959
0.00559398
0.00568066
0.00615299
0.00744357
0.00941347
0.0115967
0.0137121
0.0156686
0.0174618
0.0191065
0.0206182
0.0220082
0.0232838
0.024446
0.0254978
0.0264414
0.0272797
0.0280163
0.0286559
0.0292039
0.0296667
0.0300514
0.0303669
0.0306222
0.0308288
0.0309974
0.0311415
0.0312745
0.0314094
0.0315661
0.0317358
0.0319533
0.0321766
0.0324316
0.0326366
0.0328481
0.0329106
0.0329799
0.0327738
0.0327218
0.0322378
0.0325653
0.032302
0.011136
0.0120145
0.00888029
0.0032002
0.000598595
0.000582087
0.000832054
0.00116855
0.0015901
0.00213205
0.00274274
0.00339963
0.00402938
0.00460801
0.00510644
0.00551334
0.00580025
0.00594796
0.00607193
0.00657342
0.00788787
0.00990351
0.0121601
0.0143648
0.0164153
0.0183006
0.0200334
0.0216282
0.0230961
0.0244436
0.0256722
0.0267846
0.027783
0.0286698
0.0294486
0.030124
0.0307012
0.0311866
0.0315875
0.0319128
0.0321721
0.0323768
0.0325385
0.032671
0.0327892
0.0329061
0.0330426
0.0331907
0.0333846
0.0335827
0.0338153
0.0339942
0.0341868
0.0342182
0.0342733
0.0340217
0.0339679
0.0334113
0.0337635
0.0333364
0.0110858
0.0111981
0.00905975
0.00433814
0.000908903
0.000627642
0.000879015
0.001229
0.00166922
0.00223468
0.00287455
0.00356293
0.00422528
0.00483456
0.005362
0.00579755
0.00611412
0.00629736
0.00645848
0.00698359
0.00830935
0.0103556
0.0126735
0.0149585
0.0170961
0.0190684
0.0208851
0.0225595
0.0241026
0.0255196
0.0268125
0.027984
0.0290357
0.02997
0.0307902
0.0315005
0.0321062
0.0326136
0.0330301
0.0333645
0.0336268
0.0338285
0.0339819
0.0341012
0.0342025
0.0342985
0.0344117
0.0345345
0.0347009
0.03487
0.0350756
0.0352252
0.0353942
0.0353931
0.0354293
0.0351345
0.0350729
0.0344505
0.0348125
0.0342334
0.0110393
0.0104971
0.00905246
0.00534328
0.00148646
0.000690465
0.000928425
0.00128826
0.00174458
0.00233101
0.00299779
0.00371607
0.00441037
0.0050508
0.00560873
0.00607512
0.00642425
0.00664515
0.00684327
0.00738727
0.00871355
0.0107767
0.0131444
0.0155013
0.0177199
0.0197747
0.0216717
0.0234228
0.0250386
0.0265232
0.027879
0.0291083
0.0302124
0.0311934
0.0320543
0.0327991
0.0334329
0.0339618
0.0343934
0.0347364
0.0350009
0.0351988
0.0353427
0.0354473
0.0355296
0.0356024
0.0356892
0.0357834
0.0359186
0.0360552
0.0362294
0.0363465
0.0364876
0.0364524
0.0364656
0.0361289
0.0360544
0.0353718
0.0357312
0.0350112
0.010997
0.00990555
0.00890704
0.00615975
0.00223662
0.000789963
0.000983742
0.00134811
0.00181757
0.00242244
0.00311393
0.00386065
0.00458633
0.00525848
0.00584849
0.00634811
0.00673277
0.00699346
0.00722847
0.00778739
0.00910488
0.0111725
0.0135791
0.0159998
0.0182936
0.0204264
0.0224003
0.0242257
0.025912
0.0274626
0.02888
0.0301661
0.0313218
0.032349
0.0332501
0.034029
0.0346906
0.0352409
0.0356872
0.0360384
0.0363046
0.0364978
0.0366312
0.0367196
0.0367811
0.0368284
0.0368861
0.0369487
0.0370491
0.0371498
0.0372887
0.0373701
0.0374792
0.0374081
0.0373945
0.0370169
0.0369251
0.036187
0.0365331
0.0356832
0.010959
0.00941215
0.00866725
0.00676779
0.00306694
0.000965567
0.00105059
0.00141081
0.00188968
0.00251035
0.00322431
0.00399802
0.00475451
0.00545893
0.00608261
0.00661795
0.00704123
0.00734384
0.0076157
0.00818626
0.00948703
0.0115475
0.0139825
0.0164591
0.0188222
0.0210288
0.0230766
0.0249737
0.0267286
0.0283438
0.0298216
0.0311635
0.0323702
0.033443
0.0343841
0.0351969
0.035886
0.0364574
0.0369182
0.0372772
0.0375446
0.0377325
0.0378545
0.0379254
0.0379644
0.0379843
0.0380103
0.0380383
0.0381007
0.0381622
0.0382621
0.0383047
0.0383779
0.038269
0.0382252
0.0378073
0.0376942
0.0369045
0.0372288
0.0362596
0.010925
0.00900399
0.00836994
0.00717255
0.00387963
0.00129806
0.00113868
0.0014795
0.00196272
0.00259623
0.00333027
0.00412946
0.0049161
0.00565323
0.0063121
0.00688563
0.00735071
0.00769741
0.00800621
0.00858579
0.00986311
0.011906
0.014359
0.0168834
0.01931
0.0215862
0.0237046
0.025671
0.0274927
0.029171
0.0307081
0.0321052
0.0333622
0.0344802
0.0354609
0.0363073
0.0370239
0.0376162
0.0380913
0.0384579
0.0387261
0.038908
0.0390176
0.0390701
0.039085
0.0390755
0.0390675
0.0390582
0.0390795
0.0390987
0.039156
0.0391566
0.0391905
0.0390417
0.0389645
0.0385067
0.0383688
0.0375311
0.0378263
0.0367483
0.010895
0.00866833
0.00804429
0.00739365
0.00463084
0.00181797
0.00126452
0.00155879
0.00203892
0.00268175
0.00343319
0.00425622
0.00507217
0.00584232
0.00653774
0.00715185
0.00766197
0.00805502
0.00840097
0.00898756
0.0102358
0.0122515
0.0147125
0.0172765
0.0197607
0.0221021
0.024288
0.0263213
0.0282076
0.0299477
0.031543
0.0329943
0.0343011
0.0354638
0.0364838
0.0373637
0.0381075
0.0387207
0.0392099
0.0395838
0.0398524
0.0400279
0.0401243
0.0401572
0.0401467
0.0401062
0.0400619
0.0400126
0.0399901
0.0399639
0.0399754
0.039931
0.0399221
0.0397314
0.0396178
0.0391201
0.0389544
0.0380717
0.0383322
0.0371556
0.0108685
0.00839355
0.00771226
0.00745828
0.00528539
0.00249026
0.00145593
0.00165565
0.00212127
0.00276896
0.00353463
0.0043796
0.00522381
0.00602706
0.00676015
0.00741707
0.00797541
0.00841704
0.00880074
0.00939295
0.0106077
0.0125874
0.0150464
0.017642
0.0201775
0.0225796
0.0248295
0.0269271
0.0288762
0.0306764
0.0323288
0.0338334
0.0351892
0.0363962
0.0374552
0.0383683
0.0391393
0.0397731
0.0402763
0.0406573
0.0409261
0.0410945
0.0411772
0.0411896
0.0411524
0.0410792
0.0409967
0.0409051
0.040836
0.0407616
0.0407239
0.0406316
0.0405767
0.040342
0.0401893
0.0396517
0.0394555
0.0385306
0.0387517
0.0374866
0.0108452
0.0081694
0.0073894
0.00739681
0.00581807
0.00323864
0.00176059
0.00178084
0.00221386
0.00286036
0.00363636
0.00450107
0.00537218
0.0062083
0.00697993
0.00768161
0.0082908
0.00878361
0.00920612
0.00980316
0.0109807
0.0129167
0.0153643
0.0179829
0.0205633
0.0230212
0.0253316
0.0274909
0.0295005
0.0313593
0.0330674
0.0346245
0.0360286
0.0372793
0.0383769
0.039323
0.0401209
0.0407752
0.0412923
0.0416802
0.0419487
0.0421097
0.042178
0.0421692
0.0421042
0.0419969
0.0418743
0.041738
0.0416198
0.0414945
0.0414047
0.0412617
0.0411577
0.0408769
0.0406824
0.0401047
0.0398756
0.0389113
0.0390894
0.0377458
0.0108249
0.00798712
0.00708601
0.00723965
0.00621516
0.00399344
0.00220754
0.00195085
0.00232244
0.00295921
0.00374053
0.00462228
0.00551853
0.00638699
0.00719763
0.00794572
0.00860821
0.00915483
0.00961758
0.0102193
0.011357
0.0132423
0.0156691
0.0183023
0.0209209
0.0234297
0.0257967
0.0280147
0.0300825
0.0319981
0.0337607
0.0353691
0.0368207
0.0381145
0.0392503
0.0402289
0.0410535
0.0417282
0.042259
0.0426536
0.0429215
0.0430747
0.0431283
0.0430976
0.0430036
0.0428608
0.0426964
0.0425134
0.0423437
0.0421649
0.0420202
0.0418236
0.0416677
0.0413388
0.0411001
0.040482
0.040218
0.0392166
0.039349
0.0379368
0.0108072
0.0078393
0.00680822
0.00701518
0.00647389
0.00470112
0.00278326
0.00219003
0.00245532
0.0030698
0.00384979
0.0047452
0.00566432
0.00656414
0.00741389
0.00820962
0.0089276
0.00953067
0.0100354
0.0106422
0.0117383
0.0135669
0.015964
0.0186032
0.021253
0.0238072
0.0262268
0.0285005
0.0306238
0.0325944
0.0344098
0.0360683
0.0375665
0.0389027
0.0400761
0.041087
0.041938
0.0426329
0.0431771
0.0435779
0.0438452
0.0439905
0.0440289
0.0439756
0.0438518
0.0436723
0.0434643
0.0432327
0.0430095
0.0427747
0.0425724
0.0423196
0.0421089
0.0417299
0.0414448
0.040786
0.0404853
0.039449
0.039534
0.0380627
0.0107918
0.00771975
0.00655904
0.00674838
0.00660075
0.00532187
0.00344137
0.00252956
0.00262444
0.00319787
0.00396748
0.00487218
0.00581124
0.00674099
0.00762941
0.00847355
0.0092489
0.00991102
0.01046
0.0110729
0.0121263
0.013893
0.016252
0.0188885
0.0215622
0.0241561
0.026624
0.0289498
0.0311261
0.0331495
0.035016
0.0367234
0.038267
0.0396448
0.0408552
0.0418979
0.0427749
0.0434896
0.0440469
0.0444539
0.0447204
0.0448576
0.0448804
0.044804
0.0446496
0.0444321
0.0441793
0.0438972
0.0436184
0.0433253
0.0430629
0.0427514
0.0424834
0.0420522
0.0417186
0.0410187
0.0406798
0.039611
0.0396473
0.0381262
0.0107784
0.00762334
0.00633927
0.0064601
0.0066093
0.00582844
0.00413205
0.00298853
0.00284679
0.00335118
0.00409789
0.00500611
0.00596135
0.00691896
0.00784509
0.00873785
0.00957199
0.0102956
0.0108913
0.0115121
0.0125227
0.0142232
0.016536
0.019161
0.0218511
0.0244787
0.0269901
0.0293643
0.0315907
0.0336645
0.0355803
0.0373351
0.038923
0.0403413
0.0415881
0.042662
0.0435645
0.0442984
0.0448686
0.0452819
0.0455475
0.0456764
0.0456834
0.0455833
0.0453974
0.0451411
0.0448421
0.044508
0.0441716
0.0438181
0.0434931
0.0431205
0.0427928
0.0423075
0.0419234
0.041182
0.0408036
0.0397043
0.0396915
0.0381299
0.0107668
0.00754584
0.00614813
0.0061669
0.00651787
0.00620496
0.00480857
0.00355842
0.00314557
0.00354015
0.00424659
0.00515056
0.00611709
0.00709979
0.00806202
0.009003
0.00989681
0.0106843
0.0113295
0.0119605
0.012929
0.0145598
0.0168189
0.0194236
0.0221223
0.0247773
0.0273271
0.0297458
0.032019
0.0341408
0.0361037
0.0379041
0.039535
0.0409929
0.0422751
0.0433791
0.0443065
0.0450595
0.0456426
0.046062
0.0463266
0.0464472
0.046438
0.0463138
0.0460958
0.0457996
0.0454533
0.0450656
0.04467
0.0442542
0.0438644
0.0434284
0.0430385
0.0424973
0.0420609
0.0412776
0.0408586
0.0397311
0.0396692
0.0380758
0.0107568
0.00748378
0.00598392
0.00588117
0.00634731
0.00644578
0.00543008
0.00420655
0.00354271
0.00377844
0.00442089
0.00530997
0.00628147
0.00728555
0.00828155
0.00926962
0.0102234
0.0110766
0.0117744
0.0124187
0.0133465
0.0149051
0.0171035
0.0196792
0.0223785
0.0250541
0.0276369
0.0300958
0.0324124
0.0345794
0.0365872
0.0384314
0.0401036
0.0415997
0.0429158
0.0440494
0.0450013
0.0457732
0.0463689
0.0467944
0.047058
0.0471699
0.0471443
0.0469956
0.046745
0.0464082
0.0460135
0.0455709
0.0451145
0.0446344
0.0441778
0.0436763
0.043222
0.0426231
0.0421327
0.0413072
0.0408467
0.039693
0.0395824
0.037966
0.0107481
0.00743429
0.00584435
0.00561162
0.00611897
0.00655423
0.00596322
0.00488988
0.00404497
0.004084
0.0046303
0.00548988
0.00645815
0.00747878
0.00850534
0.0095386
0.0105518
0.0114723
0.0122259
0.0128872
0.0137766
0.0152613
0.0173926
0.0199308
0.0226223
0.0253115
0.0279217
0.0304161
0.0327723
0.0349815
0.0370315
0.0389175
0.0406289
0.0421615
0.0435105
0.044673
0.0456489
0.0464394
0.0470476
0.047479
0.0477414
0.0478447
0.0478024
0.047629
0.0473451
0.046967
0.046523
0.0460243
0.0455057
0.0449596
0.0444344
0.0438652
0.0433446
0.0426862
0.0421402
0.0412722
0.0407695
0.0395917
0.0394334
0.0378022
0.0107405
0.00739505
0.00572689
0.00536379
0.00585312
0.0065411
0.00638314
0.00556384
0.00463985
0.00447265
0.00488834
0.00569717
0.00665162
0.00768251
0.00873546
0.00981109
0.0108824
0.0118711
0.0126837
0.0133662
0.0142205
0.0156306
0.0176891
0.0201812
0.0228565
0.0255519
0.0281833
0.0307083
0.0331
0.0353481
0.0374374
0.039362
0.0411109
0.0426786
0.0440596
0.0452502
0.0462496
0.0470582
0.0476787
0.0481158
0.048377
0.0484714
0.0484123
0.0482138
0.0478964
0.0474763
0.0469822
0.0464264
0.0458442
0.0452306
0.0446349
0.0439963
0.0434073
0.042688
0.0420849
0.041174
0.0406286
0.0394288
0.039224
0.0375862
0.010734
0.00736415
0.00562895
0.00514072
0.00556775
0.00642278
0.0066742
0.00618723
0.00529895
0.00495204
0.00520822
0.00594193
0.00686808
0.00790036
0.00897437
0.0100886
0.0112156
0.0122727
0.0131473
0.0138558
0.0146791
0.0160151
0.0179958
0.0204334
0.0230838
0.0257777
0.0284238
0.0309742
0.033397
0.0356792
0.0378049
0.0397657
0.0415502
0.0431516
0.0445633
0.0457812
0.0468034
0.0476297
0.0482621
0.0487048
0.0489645
0.0490499
0.0489739
0.04875
0.0483987
0.0479363
0.0473913
0.0467774
0.0461305
0.045448
0.0447803
0.0440705
0.0434113
0.0426296
0.0419681
0.0410141
0.0404257
0.039206
0.0389561
0.0373195
0.0107283
0.00734001
0.00554803
0.00494347
0.00527788
0.00621931
0.00683013
0.00672465
0.00598417
0.00551847
0.0056016
0.00623359
0.00711491
0.00813849
0.00922506
0.0103728
0.0115522
0.0126768
0.0136161
0.0143558
0.0151533
0.0164166
0.0183153
0.0206902
0.0233071
0.0259914
0.0286453
0.0312142
0.0336634
0.0359761
0.0381349
0.0401294
0.0419474
0.0435807
0.045022
0.0462661
0.0473103
0.0481537
0.0487977
0.0492457
0.0495037
0.0495801
0.049487
0.0492376
0.0488521
0.0483469
0.0477506
0.0470778
0.0463652
0.0456126
0.0448712
0.0440887
0.0433577
0.0425121
0.041791
0.0407938
0.040162
0.0389246
0.0386315
0.0370035
0.0107234
0.00732138
0.00548177
0.00477174
0.0049953
0.00595236
0.00685355
0.00714803
0.00665396
0.00615484
0.00607576
0.00658199
0.00739937
0.00840202
0.0094933
0.0106665
0.0118932
0.0130834
0.0140895
0.0148659
0.0156437
0.0168369
0.0186503
0.0209547
0.023528
0.0261942
0.0288488
0.0314302
0.0339008
0.0362398
0.0384284
0.0404539
0.0423032
0.0439666
0.0454359
0.046705
0.0477704
0.0486303
0.0492854
0.0497384
0.0499947
0.0500618
0.0499515
0.0496766
0.0492566
0.0487083
0.0480601
0.0473278
0.0465487
0.0457248
0.0449086
0.0440518
0.0432475
0.0423369
0.041555
0.0405144
0.0398393
0.0385862
0.0382519
0.0366398
0.0107191
0.00730718
0.00542804
0.00462423
0.00472859
0.00564345
0.00675501
0.00743773
0.00726782
0.00683237
0.00662976
0.00699576
0.00772926
0.00869652
0.00978302
0.0109746
0.0122406
0.0134925
0.0145665
0.0153853
0.0161504
0.0172775
0.0190013
0.0212279
0.023749
0.0263887
0.0290363
0.0316241
0.0341108
0.0364718
0.0386865
0.04074
0.0426179
0.0443095
0.0458052
0.0470981
0.0481837
0.0490594
0.0497251
0.0501827
0.050437
0.0504948
0.0503673
0.0500667
0.0496122
0.0490205
0.0483201
0.0475277
0.0466814
0.0457853
0.0448931
0.0439607
0.0430818
0.0421049
0.0412613
0.0401773
0.0394589
0.0381923
0.037819
0.0362297
0.0107153
0.00729658
0.00538495
0.00449908
0.00448342
0.00531241
0.00655135
0.00758328
0.00778942
0.00751461
0.00725196
0.00747994
0.00811203
0.00902793
0.0100985
0.0112999
0.0125983
0.0139052
0.0150462
0.0159128
0.0166727
0.0177372
0.0193697
0.021512
0.0239724
0.026577
0.02921
0.0317976
0.0342948
0.0366733
0.0389101
0.0409884
0.0428924
0.0446098
0.0461301
0.0474454
0.0485501
0.0494409
0.0501166
0.0505785
0.0508306
0.050879
0.0507342
0.0504078
0.0499187
0.0492835
0.0485307
0.0476778
0.0467636
0.0457945
0.0448253
0.0438162
0.0428614
0.0418173
0.0409112
0.0397838
0.0390223
0.0377444
0.0373343
0.0357744
0.0107121
0.00728887
0.00535081
0.00439411
0.00426298
0.00497633
0.00626372
0.00758359
0.00818871
0.00816186
0.00791969
0.00803328
0.0085535
0.00940207
0.0104442
0.0116456
0.0129681
0.0143233
0.0155286
0.0164467
0.0172089
0.0182159
0.0197566
0.0218089
0.0242006
0.0267617
0.0293721
0.0319527
0.0344546
0.0368455
0.0391003
0.0411998
0.0431269
0.0448679
0.046411
0.0477471
0.0488698
0.0497746
0.0504598
0.0509256
0.0511753
0.0512141
0.0510519
0.0506998
0.0501761
0.0494974
0.048692
0.0477783
0.0467958
0.045753
0.0447059
0.0436192
0.0425874
0.0414752
0.0405059
0.0393352
0.038531
0.0372439
0.0367995
0.0352753
0.0107092
0.00728347
0.00532417
0.00430702
0.00406851
0.00464899
0.00591547
0.00744659
0.00844363
0.00873504
0.00860135
0.00864597
0.00905602
0.00982383
0.0108243
0.0120148
0.0133521
0.0147479
0.0160134
0.0169854
0.0177574
0.0187133
0.0201629
0.0221204
0.0244357
0.0269448
0.0295245
0.0320912
0.0345915
0.0369896
0.0392579
0.041375
0.0433222
0.0450841
0.0466478
0.0480032
0.0491425
0.0500605
0.0507545
0.0512237
0.0514707
0.0514999
0.0513203
0.0509426
0.0503844
0.0496621
0.0488041
0.0478294
0.0467782
0.0456613
0.0445357
0.0433704
0.0422608
0.0410797
0.0400466
0.0388329
0.0379865
0.0366924
0.0362162
0.0347336
0.0107068
0.0072799
0.00530375
0.00423556
0.00389974
0.00434058
0.00553002
0.0071881
0.0085414
0.00919856
0.00925977
0.00929884
0.00961644
0.0102961
0.0112425
0.0124105
0.0137523
0.0151797
0.0165001
0.0175276
0.0183165
0.0192283
0.0205889
0.022448
0.0246797
0.0271285
0.0296693
0.0322146
0.0347069
0.0371068
0.039384
0.0415147
0.0434786
0.0452588
0.0468409
0.0482137
0.0493683
0.0502985
0.0510004
0.0514727
0.0517167
0.0517361
0.0515392
0.0511359
0.0505432
0.0497775
0.0488669
0.0478312
0.0467113
0.0455198
0.0443151
0.0430707
0.0418824
0.0406319
0.0395346
0.0382782
0.0373901
0.0360913
0.0355859
0.0341505
0.0107046
0.00727778
0.00528847
0.00417758
0.00375542
0.00405794
0.0051291
0.00683007
0.00847924
0.00952277
0.0098557
0.00996417
0.0102244
0.0108181
0.0117009
0.0128349
0.0141704
0.0156196
0.0169884
0.0180713
0.0188838
0.0197594
0.0210344
0.0227925
0.0249343
0.0273146
0.0298083
0.0323246
0.0348023
0.0371982
0.0394793
0.0416195
0.0435966
0.0453921
0.0469904
0.0483787
0.0495471
0.0504883
0.0511975
0.0516722
0.0519129
0.0519225
0.0517083
0.0512795
0.0506527
0.0498437
0.0488807
0.047784
0.0465952
0.045329
0.0440448
0.0427207
0.0414533
0.0401329
0.0389712
0.0376724
0.0367435
0.0354421
0.0349102
0.0335273
0.0107027
0.00727679
0.00527741
0.00413112
0.00363362
0.00380491
0.00473133
0.00639843
0.00826444
0.00968595
0.0103511
0.0106079
0.0108617
0.0113841
0.0121993
0.0132892
0.0146073
0.0160679
0.0174774
0.0186145
0.0194567
0.0203043
0.0214985
0.0231545
0.0252006
0.0275048
0.0299431
0.0324228
0.0348789
0.0372647
0.0395445
0.0416898
0.0436765
0.0454843
0.0470962
0.048498
0.0496788
0.0506298
0.0513454
0.051822
0.0520592
0.0520588
0.0518274
0.0513733
0.0507125
0.0498605
0.0488453
0.0476879
0.0464303
0.0450893
0.0437255
0.0423214
0.0409743
0.0395839
0.0383575
0.0370171
0.0360481
0.0347464
0.0341906
0.0328653
0.010701
0.00727668
0.00526978
0.00409441
0.00353209
0.00358292
0.00435145
0.00592053
0.00791362
0.00967592
0.0107119
0.0111924
0.0115023
0.0119824
0.0127336
0.0137725
0.0150632
0.0165245
0.0179662
0.0191548
0.0200317
0.0208603
0.0219797
0.0235338
0.0254796
0.0277002
0.0300749
0.0325102
0.0349376
0.0373073
0.0395804
0.0417262
0.0437186
0.0455355
0.0471583
0.0485717
0.049763
0.0507227
0.0514439
0.0519218
0.0521551
0.0521448
0.0518962
0.051417
0.0507225
0.0498279
0.0487609
0.047543
0.0462169
0.0448012
0.0433576
0.0418733
0.0404465
0.0389858
0.037695
0.0363136
0.0353054
0.0340057
0.0334288
0.0321657
0.0106995
0.00727723
0.00526491
0.00406587
0.00344845
0.00339154
0.00400002
0.00542283
0.00745111
0.00949116
0.0109104
0.0116796
0.0121144
0.0125941
0.0132955
0.0142816
0.0155365
0.0169884
0.0184531
0.0196894
0.020605
0.0214233
0.0224753
0.0239293
0.0257712
0.0279015
0.0302049
0.032588
0.0349795
0.0373265
0.0395874
0.041729
0.043723
0.0455457
0.0471768
0.0485994
0.0497997
0.0507668
0.0514925
0.0519712
0.0522004
0.0521799
0.0519143
0.0514104
0.0506825
0.0497458
0.0486274
0.0473495
0.0459551
0.0444649
0.0429418
0.0413774
0.0398707
0.03834
0.0369849
0.0355633
0.0345172
0.0332217
0.0326263
0.0314298
0.0106983
0.00727828
0.00526224
0.00404413
0.00338035
0.00322907
0.00368358
0.00492881
0.00690664
0.00914117
0.0109273
0.0120337
0.0126622
0.0131942
0.0138708
0.0148093
0.0160237
0.017457
0.0189356
0.0202148
0.0211719
0.0219887
0.0229818
0.024339
0.026075
0.0281089
0.0303336
0.0326567
0.0350051
0.0373229
0.0395658
0.0416982
0.0436898
0.0455148
0.0471513
0.0485809
0.0497884
0.0507615
0.051491
0.0519699
0.0521946
0.0521639
0.0518814
0.0513531
0.0505923
0.0496139
0.0484447
0.0471073
0.0456452
0.044081
0.0424786
0.0408343
0.0392479
0.0376474
0.0362286
0.0347677
0.0336849
0.0323959
0.0317848
0.0306589
0.0106971
0.0072797
0.0052613
0.00402801
0.00332559
0.00309304
0.0034052
0.00445754
0.00631242
0.00864594
0.0107538
0.0122238
0.0131085
0.013752
0.0144398
0.0153444
0.0165183
0.0179264
0.0194103
0.0207267
0.0217272
0.0225508
0.0234942
0.0247599
0.0263893
0.028322
0.030461
0.0327166
0.0350146
0.0372966
0.0395158
0.041634
0.0436188
0.0454426
0.0470816
0.0485159
0.0497287
0.0507066
0.0514387
0.0519172
0.0521372
0.0520964
0.0517972
0.0512447
0.0504517
0.0494322
0.0482128
0.0468166
0.0452874
0.0436498
0.0419685
0.0402448
0.0385791
0.0369093
0.0354274
0.0339284
0.0328103
0.0315301
0.030906
0.0298543
0.0106961
0.00728137
0.00526171
0.00401649
0.00328213
0.00298057
0.00316519
0.00402292
0.00570019
0.00803434
0.0103927
0.0122263
0.0134178
0.0142335
0.0149773
0.0158709
0.0170106
0.0183902
0.019872
0.0212198
0.0222644
0.0231027
0.0240066
0.0251874
0.0267114
0.0285393
0.0305865
0.0327675
0.035008
0.0372475
0.039437
0.0415359
0.0435097
0.0453286
0.0469672
0.0484038
0.0496202
0.0506013
0.0513353
0.0518128
0.0520278
0.0519768
0.0516612
0.0510851
0.0502602
0.0492004
0.0479316
0.0464773
0.0448819
0.0431715
0.0414122
0.0396095
0.0378652
0.0361269
0.0345828
0.033047
0.0318951
0.030626
0.0299915
0.0290174
0.0106952
0.00728321
0.00526314
0.00400868
0.00324818
0.0028887
0.00296185
0.00363364
0.00509845
0.00734153
0.00985874
0.0120275
0.0135581
0.0146032
0.0154537
0.016368
0.0174869
0.0188392
0.0203139
0.0216877
0.0227763
0.0236365
0.0245115
0.0256157
0.0270374
0.0287583
0.0307086
0.0328084
0.0349844
0.037175
0.039329
0.0414035
0.0433618
0.0451722
0.0468074
0.0482439
0.049462
0.0504451
0.05118
0.0516559
0.0518657
0.0518046
0.0514729
0.0508736
0.0500177
0.0489182
0.0476009
0.0460896
0.0444287
0.0426466
0.04081
0.0389294
0.0371072
0.0353014
0.0336961
0.032125
0.030941
0.0296854
0.0290433
0.0281497
0.0106945
0.00728516
0.00526533
0.00400386
0.00322213
0.00281451
0.00279219
0.0032937
0.00453034
0.00660563
0.0091783
0.0116251
0.0135041
0.0148265
0.0158365
0.0168102
0.0179295
0.0192613
0.020727
0.0221223
0.0232544
0.0241432
0.0250002
0.0260375
0.0273617
0.0289754
0.0308248
0.0328376
0.0349428
0.0370782
0.0391908
0.0412358
0.0431743
0.0449725
0.0466013
0.0480354
0.0492534
0.0502372
0.0509721
0.0514459
0.0516503
0.0515792
0.0512317
0.0506099
0.0497236
0.0485855
0.0472206
0.0456533
0.0439282
0.0420753
0.0401625
0.038205
0.036306
0.0344339
0.032769
0.0311642
0.02995
0.0287101
0.0280631
0.0272527
0.0106938
0.00728717
0.00526808
0.00400139
0.00320259
0.00275533
0.00265255
0.0030033
0.00401248
0.00586392
0.00838733
0.0110294
0.0132396
0.0148723
0.0160919
0.0171689
0.0183166
0.0196409
0.0210996
0.022514
0.0236891
0.0246125
0.0254625
0.0264438
0.0276772
0.0291853
0.0309315
0.0328526
0.0348811
0.0369553
0.039021
0.0410315
0.0429459
0.0447285
0.046348
0.0477773
0.0489935
0.0499766
0.0507106
0.051182
0.0513808
0.0512999
0.0509371
0.0502934
0.0493776
0.0482018
0.0467905
0.0451684
0.0433802
0.041458
0.0394703
0.0374371
0.0354628
0.0335259
0.0318029
0.0301664
0.0289241
0.0277022
0.027053
0.0263279
0.0106932
0.00728919
0.0052712
0.00400076
0.00318838
0.00270872
0.00253902
0.00275986
0.00355473
0.00514944
0.00752825
0.0102643
0.0127595
0.0147157
0.0161875
0.017413
0.0186231
0.0199591
0.0214177
0.0228508
0.0240691
0.0250327
0.0258867
0.0268241
0.0279752
0.0293815
0.0310238
0.0328496
0.0347965
0.0368041
0.0388177
0.040789
0.0426752
0.0444386
0.0460459
0.0474683
0.0486809
0.0496623
0.0503946
0.0508631
0.0510563
0.0509659
0.0505883
0.0499235
0.0489792
0.0477668
0.0463104
0.0446348
0.0427851
0.0407948
0.0387338
0.0366265
0.0345784
0.0325786
0.0307995
0.0291335
0.0278652
0.0266637
0.0260149
0.0253771
0.0106927
0.0072912
0.00527458
0.00400155
0.00317847
0.00267256
0.0024478
0.00255912
0.00316086
0.00448818
0.00664579
0.00936554
0.0120721
0.0143401
0.0160941
0.0175112
0.0188212
0.0201937
0.021664
0.023119
0.0243817
0.025391
0.02626
0.0271662
0.0282453
0.0295557
0.0310953
0.0328238
0.0346851
0.0366215
0.0385782
0.0405059
0.04236
0.044101
0.0456935
0.0471069
0.0483144
0.0492928
0.0500229
0.0504882
0.050676
0.0505764
0.0501846
0.0494995
0.0485278
0.0472801
0.04578
0.0440524
0.0421427
0.0400862
0.0379534
0.0357739
0.0336541
0.0315934
0.0297606
0.0280673
0.0267755
0.0255968
0.024951
0.0244021
0.0106922
0.00729318
0.0052781
0.0040034
0.00317199
0.00264499
0.00237534
0.00239593
0.00282976
0.00389769
0.00578239
0.00837854
0.0111996
0.0137404
0.0157887
0.0174336
0.018882
0.0203202
0.021819
0.0233026
0.0246124
0.0256732
0.0265679
0.0274564
0.0284755
0.029698
0.0311383
0.0327691
0.0345422
0.0364035
0.0382993
0.0401794
0.041998
0.0437135
0.0452888
0.0466912
0.0478922
0.0488669
0.0495941
0.0500561
0.0502386
0.0501303
0.0497252
0.0490208
0.0480228
0.0467412
0.0451989
0.0434211
0.0414531
0.0393322
0.0371298
0.0348801
0.0326908
0.0305718
0.0286878
0.0269701
0.0256574
0.0245038
0.0238636
0.0234047
0.0106918
0.0072951
0.00528169
0.00400603
0.00316823
0.0026244
0.00231846
0.00226492
0.00255694
0.00338688
0.00497395
0.00735406
0.0101784
0.0129247
0.0152568
0.0171541
0.0187768
0.0203124
0.0218608
0.0233833
0.0247452
0.0258636
0.0267949
0.0276797
0.0286522
0.0297968
0.0311433
0.0326779
0.0343617
0.0361453
0.0379768
0.039806
0.0415859
0.0432733
0.0448293
0.0462192
0.0474125
0.0483826
0.0491068
0.0495655
0.049743
0.0496267
0.049209
0.0484865
0.0474636
0.0461497
0.0445669
0.0427406
0.0407165
0.0385333
0.0362634
0.033946
0.0316898
0.0295154
0.0275832
0.0258439
0.0245133
0.0233872
0.0227553
0.022387
0.0106915
0.00729696
0.00528528
0.00400922
0.00316659
0.00260946
0.0022744
0.00216097
0.00233593
0.00295713
0.00424666
0.00634293
0.0090568
0.0119162
0.0144953
0.0166533
0.0184793
0.0201439
0.0217659
0.0233414
0.0247626
0.0259457
0.0269244
0.0278197
0.0287602
0.0298387
0.0310991
0.0325412
0.0341363
0.0358408
0.0376058
0.0393815
0.0411202
0.0427774
0.0443123
0.0456883
0.0468731
0.0478382
0.0485591
0.0490147
0.0491878
0.0490642
0.0486351
0.0478958
0.0468495