/*--------------------------------*- C++ -*----------------------------------*\
| =========                 |                                                 |
| \\      /  F ield         | OpenFOAM: The Open Source CFD Toolbox           |
|  \\    /   O peration     | Version:  2.4.0                                 |
|   \\  /    A nd           | Web:      www.OpenFOAM.org                      |
|    \\/     M anipulation  |                                                 |
\*---------------------------------------------------------------------------*/
FoamFile
{
    version     2.0;
    format      ascii;
    class       volVectorField;
    location    "6.9";
    object      U;
}
// * * * * * * * * * * * * * * * * * * * * * * * * * * * * * * * * * * * * * //

dimensions      [0 1 -1 0 0 0 0];

internalField   nonuniform List<vector> 
5625
(
(0.237124 0.00539796 4.57309e-19)
(0.00910311 -0.0020436 -3.79849e-18)
(0.00353448 -0.00136262 0)
(-0.00658193 0.000977895 0)
(-0.0061012 0.00106607 0)
(-0.00761197 0.00134786 0)
(-0.0070652 0.00127262 4.73815e-18)
(-0.00722095 0.00126546 2.3642e-18)
(-0.00681842 0.0011804 2.34718e-18)
(-0.00669763 0.00112201 0)
(-0.00641184 0.00104756 2.30278e-18)
(-0.00625351 0.000986211 -2.27721e-18)
(-0.00605093 0.000923547 -2.2503e-18)
(-0.00591277 0.000868325 0)
(-0.00577041 0.000815719 0)
(-0.00566494 0.000767821 0)
(-0.00556854 0.000722505 0)
(-0.00549709 0.000680867 0)
(-0.00543922 0.00064128 2.10024e-18)
(-0.00540035 0.000604543 2.07872e-18)
(-0.00537496 0.000568348 -1.02928e-18)
(-0.00536392 0.00053381 0)
(-0.00536339 0.000500279 -1.01108e-18)
(-0.00537252 0.000467903 -1.00297e-18)
(-0.00538818 0.000435596 0)
(-0.00540921 0.000403941 -9.88769e-19)
(-0.00543307 0.000371655 0)
(-0.0054597 0.000339884 0)
(-0.00548788 0.000307086 0)
(-0.00552026 0.000275109 4.84093e-19)
(-0.00555812 0.000241933 0)
(-0.0056083 0.000210409 0)
(-0.00567494 0.000177451 0)
(-0.00576855 0.000147373 4.78851e-19)
(-0.00589248 0.00011491 -4.78322e-19)
(-0.00605536 8.60431e-05 0)
(-0.00624923 5.02759e-05 5.97771e-20)
(-0.0064706 1.61462e-05 0)
(-0.00668557 -2.85368e-05 -5.99415e-20)
(-0.00687277 -7.05097e-05 -1.20191e-19)
(-0.00697767 -0.000126015 4.82447e-19)
(-0.00698783 -0.000168787 -4.845e-19)
(-0.00686624 -0.000217661 0)
(-0.006665 -0.000250921 0)
(-0.00645874 -0.000292879 0)
(-0.00640509 -0.000320302 -4.95995e-19)
(-0.00672055 -0.000367178 9.98474e-19)
(-0.00771113 -0.000422971 0)
(-0.00959373 -0.000563504 -2.02234e-18)
(-0.0125246 -0.000764654 1.01771e-18)
(-0.0161719 -0.0011113 1.02666e-18)
(-0.020149 -0.00149904 1.03765e-18)
(-0.0237876 -0.00200338 1.0537e-18)
(-0.0267327 -0.00242427 0)
(-0.0286704 -0.00291562 1.10023e-18)
(-0.029558 -0.00315987 -2.261e-18)
(-0.0291344 -0.00333971 -2.33496e-18)
(-0.0278881 -0.00332454 0)
(-0.0246888 -0.00314715 -3.17857e-22)
(-0.0218157 -0.00284815 2.58992e-18)
(-0.0153013 -0.00221355 0)
(-0.0114137 -0.00164319 -2.76838e-18)
(-0.00174222 -0.00044877 0)
(0.00282243 0.000252173 0)
(0.0148187 0.00202058 2.98671e-18)
(0.0191427 0.0029624 0)
(0.0327932 0.00531539 -3.00584e-18)
(0.0361183 0.00629259 2.94488e-18)
(0.0508251 0.00915104 0)
(0.0527892 0.00995511 2.71168e-18)
(0.0688472 0.0133499 -2.5297e-18)
(0.0692581 0.0138337 0)
(0.0886201 0.0181451 0)
(0.0873755 0.0183194 0)
(0.11792 0.0248563 1.32883e-18)
(0.482365 -0.00974297 0)
(0.073952 -0.00385905 0)
(0.0247182 -0.00362961 0)
(-0.0091409 0.0022864 2.64586e-18)
(-0.0123255 0.00267209 -2.67494e-18)
(-0.0181294 0.00357966 -2.69401e-18)
(-0.0178495 0.00344097 -9.01682e-22)
(-0.0188817 0.00347994 -7.6222e-22)
(-0.0182351 0.00326795 -2.61169e-18)
(-0.0181666 0.00312895 2.57298e-18)
(-0.0175865 0.00293231 0)
(-0.017281 0.00276875 2.49175e-18)
(-0.0168273 0.00259873 4.90364e-18)
(-0.0165175 0.00244795 0)
(-0.0161834 0.00230142 0)
(-0.0159351 0.00216869 2.3404e-18)
(-0.0157051 0.00204276 0)
(-0.015536 0.00192736 0)
(-0.0154005 0.00181763 0)
(-0.0153132 0.00171608 -3.32664e-18)
(-0.0152605 0.00161697 2.19189e-18)
(-0.0152438 0.00152337 -1.08393e-18)
(-0.0152542 0.00143036 3.70727e-23)
(-0.0152884 0.00134115 1.06274e-18)
(-0.015339 0.00124983 0)
(-0.0154021 0.00116136 0)
(-0.0154725 0.00106892 0)
(-0.0155494 0.000979779 0)
(-0.0156323 0.000885924 0)
(-0.0157278 0.000797439 -5.09825e-19)
(-0.015843 0.000704256 5.07634e-19)
(-0.0159944 0.00061982 0)
(-0.0161962 0.00052996 -5.0438e-19)
(-0.0164712 0.000451777 -5.03298e-19)
(-0.0168286 0.000363575 2.513e-19)
(-0.0172807 0.000286395 -1.25566e-19)
(-0.0178036 0.000185546 -6.27921e-20)
(-0.0183718 8.92442e-05 0)
(-0.018898 -4.65565e-05 6.29647e-20)
(-0.0193159 -0.000176418 2.52531e-19)
(-0.0195038 -0.000355158 -2.53466e-19)
(-0.0194376 -0.000493286 5.09234e-19)
(-0.0190835 -0.000658909 5.12055e-19)
(-0.0186064 -0.000745968 0)
(-0.0182806 -0.000846685 -5.18744e-19)
(-0.0185511 -0.000844079 5.22358e-19)
(-0.0200442 -0.00088611 0)
(-0.0235046 -0.000901148 -1.06001e-18)
(-0.0293993 -0.00116159 2.13564e-18)
(-0.0378067 -0.00159599 0)
(-0.0476807 -0.002533 -1.08639e-18)
(-0.0577588 -0.00360883 -1.09948e-18)
(-0.06649 -0.00510864 3.72616e-22)
(-0.0729834 -0.00633304 0)
(-0.0767354 -0.00778028 -1.17149e-18)
(-0.0776394 -0.00857926 3.61873e-18)
(-0.0752789 -0.00924328 0)
(-0.0708623 -0.00927956 -2.58737e-18)
(-0.0616119 -0.00900903 -5.66592e-22)
(-0.0534189 -0.00826394 2.79215e-18)
(-0.0357597 -0.00671101 0)
(-0.0258725 -0.00522051 3.40724e-22)
(0.000305183 -0.00201185 0)
(0.0107852 -0.000120023 0)
(0.0437227 0.00478507 0)
(0.0528709 0.00717151 3.30517e-18)
(0.0907687 0.0137815 3.3447e-18)
(0.097205 0.0162305 0)
(0.138501 0.0243784 3.23976e-18)
(0.141394 0.0264725 0)
(0.186918 0.0362832 5.80657e-18)
(0.185526 0.0376638 0)
(0.240287 0.0501444 -2.17389e-18)
(0.234105 0.0504594 0)
(0.31535 0.0682478 -1.59556e-18)
(0.637808 0.00429997 0)
(0.161498 -0.000720999 0)
(0.0592995 -0.00453815 0)
(-0.00111141 0.00280138 -1.97478e-22)
(-0.0122529 0.00344314 2.67577e-18)
(-0.0236722 0.00497576 5.38882e-18)
(-0.0250192 0.00490077 -5.98162e-22)
(-0.0275354 0.00505957 -2.64849e-18)
(-0.0272204 0.00481094 -2.61112e-18)
(-0.0275259 0.00465397 -2.57341e-18)
(-0.0269438 0.00439389 0)
(-0.0266799 0.00417547 -2.49207e-18)
(-0.0261421 0.0039382 -2.45195e-18)
(-0.0257803 0.00372599 0)
(-0.0253582 0.00351626 -2.37585e-18)
(-0.0250463 0.00332515 -1.49087e-22)
(-0.0247508 0.00314222 0)
(-0.0245382 0.00297446 -2.2752e-18)
(-0.0243709 0.00281379 0)
(-0.0242714 0.00266516 2.21775e-18)
(-0.0242211 0.00251944 -3.67297e-23)
(-0.0242221 0.00238235 3.27482e-23)
(-0.024262 0.00224291 1.07291e-18)
(-0.0243351 0.00210942 0)
(-0.0244314 0.00196936 0)
(-0.0245444 0.00183449 0)
(-0.0246682 0.00169058 0)
(-0.0248014 0.00155399 0)
(-0.0249464 0.00140807 5.12396e-19)
(-0.0251128 0.00127484 0)
(-0.0253149 0.00113338 -5.07637e-19)
(-0.0255763 0.00101184 5.05814e-19)
(-0.0259203 0.00088088 1.53862e-24)
(-0.0263759 0.000773891 2.5165e-19)
(-0.0269556 0.000646617 0)
(-0.0276652 0.000537494 1.25566e-19)
(-0.0284655 0.000381657 6.27921e-20)
(-0.029302 0.000229435 0)
(-0.0300479 -3.74701e-06 2.01385e-26)
(-0.0305985 -0.000232668 -1.26266e-19)
(-0.0307996 -0.000554217 0)
(-0.0306341 -0.000803672 -2.54617e-19)
(-0.0301193 -0.00110029 -1.28271e-24)
(-0.0295406 -0.00121084 -5.15205e-19)
(-0.0293892 -0.00130826 5.18745e-19)
(-0.0303639 -0.00112571 0)
(-0.0334411 -0.000963354 -5.26337e-19)
(-0.0396245 -0.000659829 -2.10684e-22)
(-0.0494312 -0.000759473 -2.1362e-18)
(-0.0625658 -0.00116999 0)
(-0.0772342 -0.00256282 0)
(-0.0913699 -0.004244 0)
(-0.102911 -0.00675347 -1.11851e-18)
(-0.110744 -0.00877934 0)
(-0.114394 -0.0112895 0)
(-0.113935 -0.0125715 -2.41322e-18)
(-0.108716 -0.0138688 2.49829e-18)
(-0.100854 -0.0141151 -3.257e-22)
(-0.085933 -0.014017 2.69247e-18)
(-0.0732183 -0.0131591 2.28488e-22)
(-0.0461532 -0.0111028 -2.91097e-18)
(-0.0322321 -0.00919993 3.00436e-18)
(0.00778607 -0.00454258 0)
(0.0210177 -0.00201467 0)
(0.0718411 0.00536128 0)
(0.0821704 0.00844908 -3.30579e-18)
(0.141063 0.018513 0)
(0.147244 0.0216509 0)
(0.211903 0.0342053 -6.00768e-21)
(0.212902 0.0368778 0)
(0.284575 0.0521345 -2.8988e-18)
(0.279141 0.053743 0)
(0.364852 0.0730639 2.17506e-18)
(0.352372 0.0727295 0)
(0.473168 0.0982128 0)
(0.746122 0.0288541 0)
(0.256046 0.00589656 2.29175e-18)
(0.105792 -0.00372344 0)
(0.0172528 0.00333948 -2.64743e-18)
(-0.00568853 0.00386927 -2.67606e-18)
(-0.0241428 0.00587873 -2.69478e-18)
(-0.0284787 0.00588956 -2.67409e-18)
(-0.0331311 0.00618753 0)
(-0.0337296 0.00595275 5.22284e-18)
(-0.0347503 0.00581477 0)
(-0.0344618 0.00553233 0)
(-0.0344366 0.00529325 0)
(-0.0339838 0.00501997 0)
(-0.033693 0.00477331 0)
(-0.0332876 0.00452558 1.60175e-22)
(-0.0329934 0.00429789 -1.40818e-22)
(-0.0327012 0.00407729 -2.30688e-18)
(-0.0324999 0.00387479 1.09202e-22)
(-0.0323466 0.0036786 1.12275e-18)
(-0.0322718 0.00349703 -2.21776e-18)
(-0.032254 0.00331616 -1.09597e-18)
(-0.0322968 0.00314548 2.16791e-18)
(-0.0323854 0.00296892 0)
(-0.0325126 0.00279934 0)
(-0.0326672 0.00261848 0)
(-0.0328408 0.00244438 -1.04502e-18)
(-0.0330281 0.00225643 0)
(-0.033228 0.00207966 0)
(-0.0334463 0.00188993 -5.12401e-19)
(-0.0336959 0.0017207 0)
(-0.0339979 0.00154126 5.0763e-19)
(-0.0343809 0.00139378 -4.34875e-24)
(-0.0348754 0.00123423 5.04382e-19)
(-0.0355118 0.00111135 0)
(-0.0363029 0.000957551 0)
(-0.0372432 0.000827323 0)
(-0.0382781 0.000621727 0)
(-0.0393251 0.000412739 0)
(-0.0402297 7.4098e-05 -6.29647e-20)
(-0.0408603 -0.000265588 0)
(-0.0410569 -0.000740867 0)
(-0.0408255 -0.00110647 0)
(-0.040261 -0.00151943 -5.12055e-19)
(-0.0397685 -0.00161149 -9.46222e-24)
(-0.0400459 -0.00162287 0)
(-0.0419979 -0.00113601 0)
(-0.0468647 -0.000586223 1.05277e-18)
(-0.0557376 0.000246556 1.06023e-18)
(-0.0689861 0.000490026 -2.21671e-22)
(-0.0857569 0.000214136 1.07658e-18)
(-0.103524 -0.00161918 0)
(-0.119643 -0.0039418 0)
(-0.13184 -0.00750695 0)
(-0.139171 -0.0103706 -1.14142e-18)
(-0.141137 -0.0139003 0)
(-0.138379 -0.0156937 2.41339e-18)
(-0.129716 -0.0176431 -3.74761e-18)
(-0.118535 -0.0182307 2.58792e-18)
(-0.0984013 -0.0183076 0)
(-0.0822046 -0.0176541 1.28322e-22)
(-0.0473088 -0.0151626 2.9112e-18)
(-0.0311866 -0.0133621 0)
(0.0202243 -0.00747429 0)
(0.0336354 -0.00491088 0)
(0.099432 0.00453646 -3.27883e-18)
(0.108101 0.00781074 0)
(0.184757 0.0207886 -3.33447e-18)
(0.188081 0.0241298 3.28234e-18)
(0.272778 0.0404255 -3.23564e-18)
(0.269802 0.0431168 0)
(0.364068 0.062993 2.88097e-18)
(0.353291 0.0641307 0)
(0.46514 0.0890548 0)
(0.446531 0.0875787 0)
(0.596612 0.118164 -7.1454e-19)
(0.824809 0.0526392 1.10292e-18)
(0.349756 0.0149685 -2.29257e-18)
(0.161912 -0.00108982 0)
(0.0454109 0.00427667 0)
(0.0075374 0.00426624 2.67681e-18)
(-0.0194317 0.00650974 0)
(-0.0281164 0.00656132 0)
(-0.0356032 0.00699541 0)
(-0.0377144 0.00678646 -2.61171e-18)
(-0.0398111 0.00669023 0)
(-0.0401204 0.00640753 0)
(-0.0405407 0.00616914 -2.49196e-18)
(-0.0403456 0.00588107 -2.45185e-18)
(-0.0402532 0.00561966 0)
(-0.0399711 0.00535041 2.37609e-18)
(-0.0397773 0.00510248 -2.34064e-18)
(-0.0395575 0.00485889 2.30703e-18)
(-0.0394228 0.00463563 2.27535e-18)
(-0.039329 0.00441669 -1.12281e-18)
(-0.0393154 0.00421412 2.21777e-18)
(-0.0393599 0.00400905 0)
(-0.0394684 0.00381494 -3.30093e-23)
(-0.0396251 0.00361031 -1.07288e-18)
(-0.0398227 0.00341312 1.06271e-18)
(-0.0400493 0.00319918 1.05344e-18)
(-0.0402963 0.00299349 1.04504e-18)
(-0.0405595 0.00276894 1.03746e-18)
(-0.040839 0.00255995 -1.0307e-18)
(-0.0411444 0.00233476 0)
(-0.0414917 0.0021389 0)
(-0.0419077 0.00193154 -5.07633e-19)
(-0.0424244 0.00176908 -5.2432e-24)
(-0.0430769 0.00159194 -5.04378e-19)
(-0.0438942 0.00146389 0)
(-0.0448864 0.0012925 0)
(-0.0460359 0.0011478 0)
(-0.0472737 0.000894793 0)
(-0.0484945 0.000627336 0)
(-0.0495266 0.00017735 0)
(-0.0502244 -0.000279372 0)
(-0.0504388 -0.000912671 0)
(-0.0502099 -0.00138726 0)
(-0.0497164 -0.00189275 5.12048e-19)
(-0.0494738 -0.00191393 -1.24709e-23)
(-0.0503555 -0.00174822 0)
(-0.0534151 -0.00084077 0)
(-0.0600478 0.000244535 -5.26436e-19)
(-0.0712843 0.00174967 0)
(-0.0871729 0.0024267 1.06846e-18)
(-0.106236 0.00230191 -1.07659e-18)
(-0.125294 -1.38829e-05 0)
(-0.14146 -0.00302645 0)
(-0.152457 -0.0076556 1.11818e-18)
(-0.15788 -0.011337 3.69727e-22)
(-0.15706 -0.0157008 -1.1717e-18)
(-0.151556 -0.0181439 -2.41324e-18)
(-0.139148 -0.0206965 1.24928e-18)
(-0.125087 -0.0217179 -2.58809e-18)
(-0.100237 -0.0219507 0)
(-0.0816764 -0.0217438 -3.68984e-23)
(-0.0403412 -0.0188286 0)
(-0.0234946 -0.0175185 3.0041e-18)
(0.0370455 -0.0105161 0)
(0.0488673 -0.00834246 0)
(0.126788 0.00281262 6.55676e-18)
(0.132023 0.00589427 0)
(0.223193 0.0212303 3.33514e-18)
(0.222076 0.0244244 -3.2831e-18)
(0.32338 0.0437577 0)
(0.315255 0.0461572 0)
(0.42834 0.0697802 -2.88199e-18)
(0.411837 0.0702919 0)
(0.544767 0.0995247 0)
(0.521209 0.0971936 -1.43547e-18)
(0.691798 0.13053 7.12047e-19)
(0.883332 0.0734118 -1.10341e-18)
(0.43886 0.0258914 0)
(0.225047 0.00334376 0)
(0.0825636 0.00591637 0)
(0.0275462 0.00489567 -2.6785e-18)
(-0.00940461 0.00704768 0)
(-0.0237851 0.00704688 0)
(-0.0348596 0.00757308 -2.64867e-18)
(-0.039104 0.00738496 0)
(-0.0426638 0.00733671 0)
(-0.0438877 0.00706516 0)
(-0.0449714 0.00684255 4.98433e-18)
(-0.0452132 0.00655353 1.55854e-22)
(-0.0454518 0.00629214 0)
(-0.0454024 0.00601495 0)
(-0.0453943 0.00575995 2.34057e-18)
(-0.0453171 0.00550543 0)
(-0.0453048 0.00527293 0)
(-0.0453161 0.00504179 1.12278e-18)
(-0.0454005 0.00482817 -2.21779e-18)
(-0.0455368 0.00460804 0)
(-0.0457351 0.00439914 -3.20513e-23)
(-0.0459796 0.00417437 1.07291e-18)
(-0.0462645 0.0039572 -2.81496e-23)
(-0.046578 0.0037174 -2.6349e-23)
(-0.0469126 0.00348742 0)
(-0.0472656 0.00323354 -1.03747e-18)
(-0.0476392 0.00300017 1.54606e-18)
(-0.0480462 0.00274767 -5.12383e-19)
(-0.048506 0.00253427 5.09803e-19)
(-0.0490491 0.00230831 0)
(-0.0497103 0.00214092 -5.05811e-19)
(-0.0505259 0.00195564 5.0438e-19)
(-0.0515231 0.00183153 2.51648e-19)
(-0.0527069 0.00164941 0)
(-0.0540495 0.00149523 0)
(-0.0554695 0.00119611 0)
(-0.0568472 0.000869513 0)
(-0.0580007 0.000304851 0)
(-0.058783 -0.000270282 0)
(-0.0590616 -0.00106039 0)
(-0.0589153 -0.00162968 -2.5459e-19)
(-0.0585958 -0.00219877 -5.12049e-19)
(-0.0587127 -0.00209577 5.1523e-19)
(-0.0602675 -0.00167103 0)
(-0.0644038 -0.00023702 -5.2268e-19)
(-0.0725522 0.00149327 0)
(-0.0855701 0.00375352 5.30479e-19)
(-0.103054 0.00487907 0)
(-0.122946 0.00485633 0)
(-0.141549 0.00198098 0)
(-0.156118 -0.00176951 0)
(-0.164478 -0.00744927 -1.1182e-18)
(-0.167094 -0.0119256 1.1411e-18)
(-0.162805 -0.0170797 4.44937e-22)
(-0.154529 -0.0201239 2.41278e-18)
(-0.138338 -0.0231961 -1.24899e-18)
(-0.122031 -0.0247148 2.58822e-18)
(-0.0929734 -0.0250529 0)
(-0.0730992 -0.0254676 -2.39487e-22)
(-0.0265487 -0.0221075 2.91148e-18)
(-0.00999558 -0.0215431 -3.00439e-18)
(0.0575834 -0.0135781 0)
(0.0669103 -0.0120095 0)
(0.154145 0.000496718 -2.15621e-21)
(0.155238 0.00318684 0)
(0.25766 0.0203255 0)
(0.251531 0.023207 0)
(0.365925 0.0448709 0)
(0.352391 0.0468714 0)
(0.480356 0.0733488 0)
(0.458592 0.073296 2.50279e-18)
(0.607527 0.10555 -2.12038e-18)
(0.580738 0.102821 1.4362e-18)
(0.764741 0.137103 0)
(0.927278 0.0914279 0)
(0.521492 0.0380555 0)
(0.29264 0.00944916 -2.47029e-18)
(0.12766 0.00849933 0)
(0.0543564 0.00598103 2.67917e-18)
(0.00609091 0.0076744 -2.69639e-18)
(-0.0152977 0.00747685 0)
(-0.0307674 0.00801691 6.55086e-23)
(-0.0377946 0.00782382 0)
(-0.0432373 0.00781267 0)
(-0.0457108 0.0075534 0)
(-0.0476922 0.00735234 -2.49236e-18)
(-0.0485593 0.00707035 1.28376e-22)
(-0.0492696 0.00681841 0)
(-0.049567 0.00654277 0)
(-0.0498334 0.00629044 -2.34072e-18)
(-0.049971 0.00603424 -1.1535e-18)
(-0.0501387 0.0058016 -1.13766e-18)
(-0.0503015 0.00556679 -1.12283e-18)
(-0.0505209 0.00535038 2.2178e-18)
(-0.0507789 0.00512286 0)
(-0.0510915 0.00490658 -1.08397e-18)
(-0.051444 0.00466865 1.07288e-18)
(-0.0518337 0.00443842 -1.06273e-18)
(-0.0522496 0.00417944 -1.05345e-18)
(-0.0526869 0.00393214 0)
(-0.0531439 0.00365591 -1.03744e-18)
(-0.0536263 0.00340577 -1.03069e-18)
(-0.0541486 0.00313371 5.12387e-19)
(-0.0547343 0.00291127 -1.0196e-18)
(-0.0554149 0.00267513 5.07617e-19)
(-0.056228 0.0025117 0)
(-0.0572085 0.00232629 0)
(-0.0583825 0.00221384 -2.51649e-19)
(-0.0597482 0.00202655 2.513e-19)
(-0.0612725 0.00186742 0)
(-0.0628632 0.00152383 0)
(-0.0643958 0.00113938 0)
(-0.0656823 0.000459667 0)
(-0.0665836 -0.000230953 0)
(-0.06698 -0.00117231 -2.53423e-19)
(-0.0669877 -0.00181875 2.5459e-19)
(-0.0669067 -0.00242255 0)
(-0.0674204 -0.00214745 0)
(-0.0695975 -0.00139853 -5.1898e-19)
(-0.0746216 0.000643866 5.22683e-19)
(-0.0838395 0.00308324 0)
(-0.0978687 0.00612109 1.30569e-22)
(-0.115774 0.00764561 0)
(-0.135064 0.00762925 0)
(-0.151678 0.00410226 0)
(-0.16341 -0.00042403 0)
(-0.168168 -0.00711722 -1.11693e-18)
(-0.167552 -0.0123644 0)
(-0.159502 -0.0182004 2.3421e-18)
(-0.148728 -0.0218122 -2.41208e-18)
(-0.128906 -0.0253058 1.24905e-18)
(-0.111065 -0.0273666 1.29377e-18)
(-0.0782951 -0.0277432 1.34652e-18)
(-0.057982 -0.0288927 -2.7932e-18)
(-0.0073005 -0.0250276 -2.91172e-18)
(0.00839816 -0.0254126 0)
(0.0811003 -0.0166185 0)
(0.0877983 -0.0157124 0)
(0.181642 -0.00219182 -3.27624e-18)
(0.178766 7.05453e-05 -3.29352e-18)
(0.289261 0.0184963 3.32405e-18)
(0.2784 0.0210569 0)
(0.402396 0.0443811 0)
(0.383947 0.0460281 0)
(0.522855 0.0744947 -2.85428e-18)
(0.496884 0.0740764 -2.50371e-18)
(0.657019 0.10816 1.42289e-20)
(0.628747 0.105497 0)
(0.820732 0.139445 -6.52093e-19)
(0.960105 0.106976 0)
(0.596734 0.0508436 0)
(0.362394 0.0170066 2.47098e-18)
(0.179441 0.0121646 0)
(0.0878294 0.00771283 2.68167e-18)
(0.0271933 0.00856359 2.69697e-18)
(-0.00243703 0.00798567 0)
(-0.0231532 0.0084255 2.64954e-18)
(-0.0336458 0.00817864 0)
(-0.0414295 0.00817669 0)
(-0.0455117 0.00791967 0)
(-0.0486455 0.00773689 0)
(-0.05034 0.00746365 2.4523e-18)
(-0.051673 0.00722535 0)
(-0.0524385 0.0069567 2.37616e-18)
(-0.0530736 0.00671333 0)
(-0.053502 0.00646191 1.15357e-18)
(-0.0539098 0.00623582 1.13771e-18)
(-0.0542721 0.00600382 -1.1228e-18)
(-0.054665 0.00579116 -2.21782e-18)
(-0.0550753 0.00556252 1.09595e-18)
(-0.0555273 0.0053452 -1.08394e-18)
(-0.0560082 0.00510019 -1.0729e-18)
(-0.0565209 0.00486319 -1.06269e-18)
(-0.0570549 0.00459121 -1.05342e-18)
(-0.05761 0.00433317 0)
(-0.0581847 0.00404119 1.03745e-18)
(-0.0587896 0.00378147 5.15345e-19)
(-0.0594388 0.00349702 -5.12369e-19)
(-0.0601604 0.00327332 5.098e-19)
(-0.0609847 0.00303441 -5.07619e-19)
(-0.0619529 0.00288271 5.05794e-19)
(-0.0630952 0.00270387 -2.52184e-19)
(-0.0644398 0.00260976 0)
(-0.0659764 0.00242218 -2.51301e-19)
(-0.0676734 0.00226295 0)
(-0.0694285 0.0018777 6.27881e-20)
(-0.0711229 0.00143922 0)
(-0.0725616 0.000647176 -6.29531e-20)
(-0.073621 -0.000152588 0)
(-0.0741806 -0.00123756 2.53423e-19)
(-0.0743897 -0.00194415 0)
(-0.0745599 -0.0025585 0)
(-0.0754295 -0.00206687 0)
(-0.0780638 -0.000956476 1.03805e-18)
(-0.0836528 0.00174041 0)
(-0.0933496 0.00490435 5.27021e-19)
(-0.107519 0.00868597 -1.06137e-18)
(-0.124663 0.0105099 1.069e-18)
(-0.14208 0.0103788 0)
(-0.155497 0.00611529 0)
(-0.1636 0.000798232 0)
(-0.164239 -0.00683863 1.11696e-18)
(-0.160373 -0.0127906 1.13913e-18)
(-0.148559 -0.0192042 -1.17081e-18)
(-0.135762 -0.0233554 2.41121e-18)
(-0.112578 -0.0271689 1.24835e-18)
(-0.0938917 -0.0298014 -1.29384e-18)
(-0.0578827 -0.0301544 -1.34661e-18)
(-0.0377652 -0.0321022 0)
(0.0160897 -0.0277248 0)
(0.0307346 -0.0290828 0)
(0.106877 -0.0196141 0)
(0.111347 -0.019333 0)
(0.209329 -0.00510121 0)
(0.203247 -0.00319549 3.88821e-21)
(0.31887 0.0160658 -3.32465e-18)
(0.304145 0.0183991 0)
(0.434453 0.0427801 0)
(0.412093 0.0442178 0)
(0.55823 0.0738811 2.85514e-18)
(0.529385 0.0733662 0)
(0.696464 0.10825 1.42974e-20)
(0.668163 0.106042 0)
(0.864145 0.138813 6.51217e-19)
(0.984139 0.120201 0)
(0.664193 0.0637201 -2.33007e-18)
(0.43234 0.0257351 0)
(0.236504 0.0169544 0)
(0.127631 0.0102379 1.0904e-21)
(0.0539862 0.00987502 2.69835e-18)
(0.0150245 0.0087067 0)
(-0.0118091 0.00889919 0)
(-0.0264795 0.00852588 -2.61283e-18)
(-0.0371037 0.00848818 0)
(-0.0431831 0.00821149 0)
(-0.0477493 0.00803465 -2.49258e-18)
(-0.0504907 0.0077653 0)
(-0.0526114 0.00753951 0)
(-0.0539761 0.00727922 -2.37633e-18)
(-0.0550817 0.0070477 0)
(-0.0558821 0.00680469 0)
(-0.0565941 0.00658943 1.1377e-18)
(-0.0572067 0.00636473 1.12285e-18)
(-0.0578135 0.00616066 2.21784e-18)
(-0.0584081 0.00593578 -1.09599e-18)
(-0.0590257 0.00572262 1.08397e-18)
(-0.0596562 0.00547573 -1.07287e-18)
(-0.0603102 0.00523757 2.7979e-23)
(-0.0609778 0.00495819 2.74344e-23)
(-0.0616653 0.00469552 0)
(-0.0623702 0.00439384 0)
(-0.0631088 0.00413116 5.15323e-19)
(-0.0638931 0.00384068 5.12373e-19)
(-0.0647568 0.0036226 0)
(-0.0657256 0.00338717 5.07604e-19)
(-0.0668462 0.00325385 -5.05796e-19)
(-0.0681416 0.00308716 2.52185e-19)
(-0.0696458 0.00301742 2.51641e-19)
(-0.0713389 0.00283423 0)
(-0.0731985 0.00268055 1.25558e-19)
(-0.0751118 0.00225807 -1.25574e-19)
(-0.076976 0.00177206 0)
(-0.0785839 0.000873052 1.25901e-19)
(-0.0798337 -2.74382e-05 -1.26221e-19)
(-0.0805828 -0.0012492 0)
(-0.0810083 -0.00200261 -2.54535e-19)
(-0.0813865 -0.00261295 0)
(-0.0825006 -0.00187875 0)
(-0.0853339 -0.000392831 -1.03824e-18)
(-0.0910679 0.00296754 0)
(-0.100571 0.00682531 -5.27024e-19)
(-0.113996 0.0112706 -1.41788e-22)
(-0.129294 0.013263 -1.60354e-18)
(-0.14382 0.0128925 0)
(-0.153204 0.00783297 0)
(-0.15732 0.00173953 0)
(-0.153698 -0.0067409 1.11524e-18)
(-0.146873 -0.0132712 -1.13916e-18)
(-0.131495 -0.0202034 -1.16954e-18)
(-0.117235 -0.0248671 -2.41024e-18)
(-0.0910159 -0.0289057 -1.24842e-18)
(-0.0720782 -0.0321235 0)
(-0.0332807 -0.0324034 0)
(-0.01375 -0.0351672 -1.3958e-18)
(0.0424804 -0.0303495 0)
(0.0561119 -0.0325339 -3.00133e-18)
(0.134262 -0.022582 0)
(0.137185 -0.0228248 0)
(0.237194 -0.0081385 -3.26833e-18)
(0.228945 -0.00646508 4.37167e-21)
(0.347135 0.0132605 0)
(0.329708 0.01551 -3.25673e-18)
(0.463407 0.0404366 0)
(0.43838 0.0418542 0)
(0.588461 0.0720354 2.83471e-18)
(0.558089 0.0716941 0)
(0.728584 0.106555 2.09438e-18)
(0.701288 0.105067 0)
(0.898438 0.13615 0)
(1.0011 0.131279 0)
(0.723782 0.0762643 4.6692e-18)
(0.500831 0.0353224 0)
(0.297379 0.0228285 0)
(0.173218 0.0136529 -2.6839e-18)
(0.0864574 0.0117529 -2.69886e-18)
(0.0372978 0.00976501 0)
(0.00349752 0.00953995 -2.6508e-18)
(-0.0160829 0.00894415 5.22653e-18)
(-0.0300877 0.00880858 0)
(-0.0385858 0.00847781 0)
(-0.0448938 0.00828493 4.98562e-18)
(-0.0489232 0.00800762 0)
(-0.0520139 0.00778768 0)
(-0.0541214 0.00753288 0)
(-0.0558093 0.00731255 0)
(-0.0570702 0.00707872 0)
(-0.0581562 0.00687613 -2.27547e-18)
(-0.0590741 0.00666114 0)
(-0.0599385 0.00646882 -1.10894e-18)
(-0.0607515 0.00625114 -1.09597e-18)
(-0.0615623 0.00604623 -1.08395e-18)
(-0.0623643 0.00580172 1.0729e-18)
(-0.0631784 0.00556727 2.12539e-18)
(-0.0639948 0.0052854 2.10682e-18)
(-0.064828 0.00502362 -1.04496e-18)
(-0.0656733 0.00471757 0)
(-0.0665542 0.00445778 -5.15328e-19)
(-0.0674776 0.00416663 0)
(-0.0684843 0.00395998 0)
(-0.0695924 0.00373303 -1.0152e-18)
(-0.0708564 0.00362362 0)
(-0.0722892 0.00347361 0)
(-0.073936 0.00343377 -3.60009e-24)
(-0.0757652 0.00325969 0)
(-0.0777725 0.00311827 -1.25558e-19)
(-0.079832 0.00266466 6.27859e-20)
(-0.0818677 0.00213996 0)
(-0.0836506 0.00114128 -6.29482e-20)
(-0.0851076 0.000149137 1.26221e-19)
(-0.0860467 -0.00120604 0)
(-0.0866706 -0.00199861 2.63229e-23)
(-0.0871663 -0.00260363 0)
(-0.0883578 -0.00162814 0)
(-0.091066 0.000227601 1.03846e-18)
(-0.096476 0.00422501 0)
(-0.105095 0.00870636 0)
(-0.116958 0.0137025 5.30903e-19)
(-0.129496 0.0157211 -6.55079e-24)
(-0.140416 0.0150017 1.07518e-18)
(-0.145302 0.00912342 0)
(-0.145443 0.0022962 -1.09577e-18)
(-0.137685 -0.00691363 -1.11527e-18)
(-0.128396 -0.0139322 1.13756e-18)
(-0.109768 -0.0212757 2.33849e-18)
(-0.0946058 -0.0264283 1.20489e-18)
(-0.0656937 -0.0306125 0)
(-0.0469574 -0.0344167 0)
(-0.00579903 -0.0345782 0)
(0.0129579 -0.0381421 1.39591e-18)
(0.0708991 -0.0329684 -1.45447e-18)
(0.0837175 -0.0358417 1.69301e-21)
(0.162726 -0.025557 0)
(0.164828 -0.0261904 0)
(0.265191 -0.0112533 3.26876e-18)
(0.25583 -0.009675 3.28679e-18)
(0.374506 0.0102298 0)
(0.355578 0.0125484 3.25736e-18)
(0.490241 0.0376165 0)
(0.463795 0.039203 -3.01222e-18)
(0.615107 0.0693619 -2.8355e-18)
(0.584384 0.06942 0)
(0.755555 0.103648 -2.06621e-18)
(0.72989 0.10302 0)
(0.926247 0.132145 -6.03198e-19)
(1.01235 0.140454 0)
(0.775612 0.0881622 -2.33912e-18)
(0.566516 0.0454495 0)
(0.360589 0.0296794 2.65676e-18)
(0.223845 0.0180013 0)
(0.124459 0.0143143 0)
(0.0645452 0.0112786 0)
(0.0230061 0.0104502 5.30267e-18)
(-0.00221504 0.0095156 -2.61367e-18)
(-0.0201752 0.00920237 -2.57506e-18)
(-0.0315473 0.0087699 0)
(-0.039939 0.0085288 -2.49303e-18)
(-0.0455229 0.00822411 -2.45271e-18)
(-0.0497866 0.00799745 0)
(-0.0527965 0.00774068 1.18824e-18)
(-0.0551908 0.0075272 0)
(-0.0570104 0.00730028 0)
(-0.0585476 0.00710968 1.13777e-18)
(-0.0598314 0.00690471 0)
(-0.0610013 0.00672551 1.10893e-18)
(-0.0620699 0.00651702 1.096e-18)
(-0.0631038 0.00632323 1.08397e-18)
(-0.0641005 0.00608433 1.07287e-18)
(-0.0650936 0.00585761 -2.12537e-18)
(-0.0660734 0.00557738 -1.05341e-18)
(-0.0670645 0.00532123 1.04497e-18)
(-0.0680581 0.00501527 0)
(-0.0690864 0.00476325 5.15304e-19)
(-0.0701485 0.00447564 0)
(-0.0712939 0.00428499 5.09762e-19)
(-0.0725294 0.00407016 5.07598e-19)
(-0.0739209 0.00398897 -5.05773e-19)
(-0.0754676 0.00385913 0)
(-0.0772323 0.00385428 -3.88374e-24)
(-0.0791685 0.00369404 -2.51287e-19)
(-0.0812999 0.00357248 0)
(-0.0834822 0.00309523 -6.27802e-20)
(-0.0856779 0.00254252 0)
(-0.0876237 0.00145261 6.29355e-20)
(-0.0892848 0.000377686 0)
(-0.0903874 -0.00110749 2.53311e-19)
(-0.0911643 -0.00194353 3.04376e-23)
(-0.0916533 -0.00255604 0)
(-0.0927243 -0.00135964 5.15411e-19)
(-0.0949523 0.000830243 -5.19293e-19)
(-0.099567 0.00540656 -5.23488e-19)
(-0.106649 0.0104111 5.27693e-19)
(-0.116256 0.0158273 0)
(-0.125336 0.0177361 1.06909e-18)
(-0.132246 0.0165863 -1.07519e-18)
(-0.132488 0.00990906 0)
(-0.128953 0.00241426 1.0958e-18)
(-0.117355 -0.00739468 -1.11357e-18)
(-0.10618 -0.0148603 -2.27444e-18)
(-0.084663 -0.0224715 -1.16896e-18)
(-0.0690969 -0.0280901 -1.20385e-18)
(-0.037825 -0.0323566 0)
(-0.0195838 -0.0367548 -1.29242e-18)
(0.0235403 -0.0367662 0)
(0.0414755 -0.0410584 0)
(0.100598 -0.0356381 1.45459e-18)
(0.11286 -0.0390607 3.0002e-18)
(0.191873 -0.028571 0)
(0.193774 -0.0294574 0)
(0.293268 -0.0144214 3.26099e-18)
(0.283689 -0.0128129 0)
(0.401279 0.00706759 3.30355e-18)
(0.381905 0.00958992 0)
(0.515654 0.0345026 0)
(0.488874 0.0364176 3.01293e-18)
(0.639331 0.0661561 2.81344e-18)
(0.609167 0.0667752 0)
(0.779022 0.0999553 4.11922e-18)
(0.75529 0.100231 -1.3575e-18)
(0.949518 0.127283 6.0287e-19)
(1.01905 0.147994 0)
(0.819935 0.0991901 0)
(0.628311 0.055809 -2.49423e-18)
(0.424699 0.0373478 2.51314e-22)
(0.278596 0.0232731 0)
(0.167682 0.0176424 0)
(0.0968444 0.0133538 0)
(0.0469394 0.0117311 3.74681e-22)
(0.0153813 0.0103254 -2.61449e-18)
(-0.00713006 0.00973822 5.15085e-18)
(-0.0218625 0.00914166 0)
(-0.0327135 0.00880986 -2.4933e-18)
(-0.0401466 0.00845019 2.4529e-18)
(-0.0458104 0.00819785 0)
(-0.049901 0.00792671 -7.95367e-24)
(-0.0531412 0.0077117 0)
(-0.0556293 0.00748622 0)
(-0.0577046 0.00730423 -1.13778e-18)
(-0.0594223 0.00710733 -1.12288e-18)
(-0.0609514 0.00694074 -2.21791e-18)
(-0.0623171 0.00674183 0)
(-0.0636068 0.00656071 0)
(-0.0648229 0.00632952 -2.14576e-18)
(-0.066015 0.00611358 1.06269e-18)
(-0.0671722 0.00583815 0)
(-0.068332 0.00559145 0)
(-0.0694792 0.00528902 0)
(-0.0706569 0.00504856 -5.15308e-19)
(-0.0718527 0.00476736 5.12332e-19)
(-0.0731273 0.00459591 -1.31937e-23)
(-0.0744721 0.00439533 -5.0758e-19)
(-0.0759685 0.00434537 5.05775e-19)
(-0.0775974 0.00423799 0)
(-0.0794466 0.00427255 -5.03265e-19)
(-0.0814496 0.00413067 2.51287e-19)
(-0.0836691 0.0040371 0)
(-0.0859347 0.00354454 6.27802e-20)
(-0.0882614 0.00297572 0)
(-0.0903354 0.00180359 -6.29355e-20)
(-0.0921747 0.000654063 0)
(-0.093391 -0.000961073 -2.53311e-19)
(-0.0942589 -0.00185366 5.08923e-19)
(-0.0946006 -0.00250042 0)
(-0.0953512 -0.00112345 -5.15412e-19)
(-0.0967486 0.00133812 5.19572e-19)
(-0.100136 0.00640881 -2.17204e-22)
(-0.10511 0.011816 -5.27696e-19)
(-0.111928 0.0175171 -5.31385e-19)
(-0.117074 0.0192004 1.37219e-23)
(-0.119854 0.017574 0)
(-0.115554 0.0101596 0)
(-0.108831 0.00208054 0)
(-0.093773 -0.00814983 2.22646e-18)
(-0.0812961 -0.0160474 1.13688e-18)
(-0.0572401 -0.0238203 -1.1678e-18)
(-0.0416661 -0.0298821 2.40731e-18)
(-0.00834453 -0.0341727 1.24674e-18)
(0.00925595 -0.0391709 1.29249e-18)
(0.0540196 -0.0390579 0)
(0.071165 -0.0439506 0)
(0.131056 -0.0383961 0)
(0.142996 -0.0422302 0)
(0.221432 -0.0316455 0)
(0.223574 -0.0326598 0)
(0.321377 -0.0176322 -6.51797e-18)
(0.312235 -0.0158915 3.27159e-18)
(0.42764 0.0038296 -3.30407e-18)
(0.40863 0.00665944 3.23504e-18)
(0.540116 0.0312149 -3.17349e-18)
(0.51384 0.0335747 0)
(0.661952 0.0626239 -2.81417e-18)
(0.632977 0.0639001 2.43214e-18)
(0.80016 0.0957782 -4.09118e-18)
(0.778442 0.0969338 1.35802e-18)
(0.969649 0.121902 0)
(1.0222 0.15416 0)
(0.857116 0.109201 -2.3683e-18)
(0.685372 0.0661183 2.49483e-18)
(0.488352 0.0456382 -5.31634e-18)
(0.336416 0.0294087 -2.68934e-18)
(0.215637 0.0217822 0)
(0.134154 0.0160792 0)
(0.0754741 0.0134797 -2.65256e-18)
(0.0369617 0.0114596 -3.41776e-22)
(0.00930531 0.0104898 -2.57577e-18)
(-0.00929701 0.00964944 0)
(-0.0230148 0.00917507 2.49351e-18)
(-0.0326215 0.00872396 0)
(-0.0399387 0.00842001 0)
(-0.04531 0.00811663 -1.18837e-18)
(-0.0495534 0.00788739 -1.17057e-18)
(-0.0528344 0.00765433 0)
(-0.0555463 0.00747466 1.13782e-18)
(-0.0577751 0.00728144 1.12292e-18)
(-0.0597245 0.00712492 1.54002e-23)
(-0.0614342 0.0069342 -1.096e-18)
(-0.0630167 0.00676584 0)
(-0.0644795 0.00654315 1.07289e-18)
(-0.0658916 0.00633989 0)
(-0.0672402 0.00607134 -5.26683e-19)
(-0.0685785 0.00583686 0)
(-0.0698824 0.0055402 5.1867e-19)
(-0.0712086 0.00531384 0)
(-0.0725292 0.0050405 -5.12336e-19)
(-0.0739193 0.00488996 -1.01949e-18)
(-0.0753497 0.00470411 5.07582e-19)
(-0.0769219 0.00468686 2.52878e-19)