/*--------------------------------*- C++ -*----------------------------------*\
| =========                 |                                                 |
| \\      /  F ield         | OpenFOAM: The Open Source CFD Toolbox           |
|  \\    /   O peration     | Version:  2.4.0                                 |
|   \\  /    A nd           | Web:      www.OpenFOAM.org                      |
|    \\/     M anipulation  |                                                 |
\*---------------------------------------------------------------------------*/
FoamFile
{
    version     2.0;
    format      ascii;
    class       surfaceScalarField;
    location    "0.1";
    object      phi;
}
// * * * * * * * * * * * * * * * * * * * * * * * * * * * * * * * * * * * * * //

dimensions      [0 3 -1 0 0 0 0];

internalField   nonuniform List<scalar> 
760
(
0.000187027
1.2973e-05
0.000184271
2.75646e-06
0.000184199
7.16236e-08
0.000184274
-7.49503e-08
0.000184271
3.07731e-09
0.000184269
1.42732e-09
0.000184269
-1.26428e-11
0.000184269
-2.18314e-11
0.000184269
2.70464e-11
0.000184269
8.02652e-12
0.000184269
-2.45896e-11
0.000184269
-7.1846e-12
0.000184269
2.18259e-11
0.000184269
6.02681e-12
0.000184269
-1.4829e-11
0.000184269
-2.98801e-11
0.000184269
1.0501e-10
0.00018427
-4.71998e-10
0.000184269
1.1848e-09
1.79484e-09
0.000201198
1.17748e-05
0.00020139
2.56417e-06
0.000201378
8.36533e-08
0.00020137
-6.65088e-08
0.00020137
2.63839e-09
0.000201371
1.33231e-09
0.000201371
-6.89808e-12
0.000201371
-2.0015e-11
0.000201371
2.59868e-11
0.000201371
7.99711e-12
0.000201371
-2.38012e-11
0.000201371
-7.10579e-12
0.000201371
2.10327e-11
0.000201371
6.01811e-12
0.000201371
-1.43549e-11
0.000201371
-2.84752e-11
0.000201371
9.57936e-11
0.000201371
-4.25803e-10
0.000201371
1.10387e-09
1.65671e-09
0.00020151
1.02643e-05
0.000201805
2.26926e-06
0.000201799
9.05101e-08
0.000201788
-5.60119e-08
0.000201789
2.13551e-09
0.000201789
1.18473e-09
0.000201789
-4.50914e-13
0.000201789
-1.73263e-11
0.000201789
2.3312e-11
0.000201789
7.46168e-12
0.000201789
-2.15395e-11
0.000201789
-6.56662e-12
0.000201789
1.89237e-11
0.000201789
5.59305e-12
0.000201789
-1.28082e-11
0.000201789
-2.58382e-11
0.000201789
8.29871e-11
0.000201789
-3.62326e-10
0.000201789
9.5376e-10
1.4269e-09
0.000201499
8.76572e-06
0.000201805
1.96297e-06
0.000201805
9.04338e-08
0.000201795
-4.63206e-08
0.000201796
1.70466e-09
0.000201796
1.02843e-09
0.000201796
4.42558e-12
0.000201796
-1.48424e-11
0.000201796
2.06147e-11
0.000201796
7.01437e-12
0.000201796
-1.92202e-11
0.000201796
-6.11005e-12
0.000201796
1.67577e-11
0.000201796
5.23593e-12
0.000201796
-1.11833e-11
0.000201796
-2.32814e-11
0.000201796
7.09695e-11
0.000201796
-3.03206e-10
0.000201796
8.05349e-10
1.20326e-09
0.000201484
7.28207e-06
0.000201798
1.64834e-06
0.000201804
8.43975e-08
0.000201795
-3.73896e-08
0.000201796
1.33325e-09
0.000201796
8.65252e-10
0.000201796
7.67677e-12
0.000201796
-1.24213e-11
0.000201796
1.79738e-11
0.000201796
6.52248e-12
0.000201796
-1.69103e-11
0.000201796
-5.62008e-12
0.000201796
1.45931e-11
0.000201796
4.84636e-12
0.000201796
-9.53016e-12
0.000201796
-2.0716e-11
0.000201796
5.96211e-11
0.000201796
-2.4814e-10
0.000201796
6.60115e-10
9.8704e-10
0.000201471
5.81083e-06
0.000201793
1.32684e-06
0.000201804
7.34192e-08
0.000201795
-2.91085e-08
0.000201796
1.00823e-09
0.000201796
6.96477e-10
0.000201796
9.41916e-12
0.000201796
-1.01485e-11
0.000201796
1.54102e-11
0.000201796
6.05859e-12
0.000201796
-1.46244e-11
0.000201796
-5.1614e-12
0.000201796
1.24439e-11
0.000201796
4.48073e-12
0.000201796
-7.88158e-12
0.000201796
-1.81413e-11
0.000201796
4.87962e-11
0.000201796
-1.96342e-10
0.000201796
5.17648e-10
7.77021e-10
0.000201461
4.3495e-06
0.000201788
9.99875e-07
0.000201803
5.85033e-08
0.000201795
-2.13576e-08
0.000201796
7.18407e-10
0.000201796
5.23324e-10
0.000201796
9.76594e-12
0.000201796
-7.98045e-12
0.000201796
1.29405e-11
0.000201796
5.59168e-12
0.000201796
-1.23767e-11
0.000201796
-4.70914e-12
0.000201796
1.03228e-11
0.000201796
4.11947e-12
0.000201796
-6.24888e-12
0.000201796
-1.5531e-11
0.000201796
3.83466e-11
0.000201796
-1.47054e-10
0.000201796
3.77519e-10
5.72007e-10
0.000201454
2.89556e-06
0.000201785
6.68839e-07
0.000201803
4.06434e-08
0.000201795
-1.40104e-08
0.000201796
4.54026e-10
0.000201796
3.46998e-10
0.000201796
8.90791e-12
0.000201796
-5.91932e-12
0.000201796
1.05793e-11
0.000201796
5.12617e-12
0.000201796
-1.01788e-11
0.000201796
-4.2671e-12
0.000201796
8.24028e-12
0.000201796
3.76593e-12
0.000201796
-4.65037e-12
0.000201796
-1.28629e-11
0.000201796
2.81337e-11
0.000201796
-9.9547e-11
0.000201796
2.39306e-10
3.70832e-10
0.000201449
1.44655e-06
0.000201783
3.35097e-07
0.000201803
2.08249e-08
0.000201795
-6.93516e-09
0.000201796
2.06425e-10
0.000201796
1.68704e-10
0.000201796
7.0593e-12
0.000201796
-3.95268e-12
0.000201796
8.33644e-12
0.000201796
4.66033e-12
0.000201796
-8.0405e-12
0.000201796
-3.83411e-12
0.000201796
6.20551e-12
0.000201796
3.41975e-12
0.000201796
-3.10156e-12
0.000201796
-1.01166e-11
0.000201796
1.8027e-11
0.000201796
-5.31177e-11
0.000201796
1.02595e-10
1.7236e-10
0.000201447
-3.25325e-12
0.000201782
5.67536e-12
0.000201802
2.8097e-11
0.000201796
3.21137e-12
0.000201796
-3.23274e-11
0.000201796
-1.03686e-11
0.000201796
4.46837e-12
0.000201796
-2.06864e-12
0.000201796
6.21905e-12
0.000201796
4.19322e-12
0.000201796
-5.96998e-12
0.000201796
-3.40909e-12
0.000201796
4.22638e-12
0.000201796
3.0804e-12
0.000201796
-1.6164e-12
0.000201796
-7.27407e-12
0.000201796
7.90287e-12
0.000201796
-7.0823e-12
0.000201796
-3.30214e-11
-2.45253e-11
0.000201447
-1.44656e-06
0.000201782
-3.35086e-07
0.000201802
-2.07696e-08
0.000201796
6.94144e-09
0.000201796
-2.69811e-10
0.000201796
-1.89039e-10
0.000201796
1.40237e-12
0.000201796
-2.53995e-13
0.000201796
4.23168e-12
0.000201796
3.72442e-12
0.000201796
-3.97434e-12
0.000201796
-2.99106e-12
0.000201796
2.30993e-12
0.000201796
2.74726e-12
0.000201796
-2.07677e-13
0.000201796
-4.32051e-12
0.000201796
-2.3557e-12
0.000201796
3.92273e-11
0.000201796
-1.67942e-10
-2.20926e-10
0.000201449
-2.89557e-06
0.000201783
-6.68828e-07
0.000201803
-4.05909e-08
0.000201796
1.40163e-08
0.000201796
-5.13639e-10
0.000201796
-3.66133e-10
0.000201796
-1.86247e-12
0.000201796
1.50628e-12
0.000201796
2.37654e-12
0.000201796
3.25392e-12
0.000201796
-2.05978e-12
0.000201796
-2.57907e-12
0.000201796
4.62585e-13
0.000201796
2.41968e-12
0.000201796
1.11267e-12
0.000201796
-1.24329e-12
0.000201796
-1.28606e-11
0.000201796
8.64666e-11
0.000201796
-3.02562e-10
-4.17939e-10
0.000201454
-4.3495e-06
0.000201785
-9.99865e-07
0.000201803
-5.84555e-08
0.000201795
2.13628e-08
0.000201796
-7.71826e-10
0.000201796
-5.40486e-10
0.000201796
-5.04914e-12
0.000201796
3.22799e-12
0.000201796
6.54006e-13
0.000201796
2.78209e-12
0.000201796
-2.31829e-13
0.000201796
-2.17221e-12
0.000201796
-1.30956e-12
0.000201796
2.09683e-12
0.000201796
2.33403e-12
0.000201796
1.96541e-12
0.000201796
-2.37182e-11
0.000201796
1.35285e-10
0.000201796
-4.37274e-10
-6.1666e-10
0.000201461
-5.81084e-06
0.000201788
-1.32683e-06
0.000201803
-7.33781e-08
0.000201795
2.91126e-08
0.000201796
-1.05316e-09
0.000201796
-7.10946e-10
0.000201796
-7.88861e-12
0.000201796
4.92664e-12
0.000201796
-9.36731e-13
0.000201796
2.30953e-12
0.000201796
1.50438e-12
0.000201796
-1.76956e-12
0.000201796
-3.00087e-12
0.000201796
1.77818e-12
0.000201796
3.4464e-12
0.000201796
5.31074e-12
0.000201796
-3.50334e-11
0.000201796
1.86332e-10
0.000201796
-5.72469e-10
-8.1819e-10
0.000201471
-7.28207e-06
0.000201793
-1.64833e-06
0.000201804
-8.43651e-08
0.000201795
3.73922e-08
0.000201796
-1.36758e-09
0.000201796
-8.76372e-10
0.000201796
-1.01292e-11
0.000201796
6.61772e-12
0.000201796
-2.39814e-12
0.000201796
1.83731e-12
0.000201796
3.14444e-12
0.000201796
-1.3709e-12
0.000201796
-4.60575e-12
0.000201796
1.46349e-12
0.000201796
4.44184e-12
0.000201796
8.79124e-12
0.000201796
-4.69084e-11
0.000201796
2.40262e-10
0.000201796
-7.0854e-10
-1.02365e-09
0.000201484
-8.76573e-06
0.000201798
-1.96296e-06
0.000201804
-9.04123e-08
0.000201795
4.63214e-08
0.000201796
-1.72653e-09
0.000201796
-1.03562e-09
0.000201796
-1.15494e-11
0.000201796
8.32133e-12
0.000201796
-3.73393e-12
0.000201796
1.36373e-12
0.000201796
4.68233e-12
0.000201796
-9.71011e-13
0.000201796
-6.11734e-12
0.000201796
1.14687e-12
0.000201796
5.30913e-12
0.000201796
1.24143e-11
0.000201796
-5.94531e-11
0.000201796
2.97741e-10
0.000201796
-8.45884e-10
-1.23416e-09
0.000201499
-1.02643e-05
0.000201805
-2.26925e-06
0.000201805
-9.05017e-08
0.000201795
5.60104e-08
0.000201796
-2.14329e-09
0.000201796
-1.18754e-09
0.000201796
-1.19554e-11
0.000201796
1.00387e-11
0.000201796
-4.94963e-12
0.000201796
9.04689e-13
0.000201796
6.1175e-12
0.000201796
-5.87579e-13
0.000201796
-7.53355e-12
0.000201796
8.48761e-13
0.000201796
6.04548e-12
0.000201796
1.61482e-11
0.000201796
-7.2765e-11
0.000201796
3.59445e-10
0.000201796
-9.84872e-10
-1.45085e-09
0.00020151
-1.17748e-05
0.000201805
-2.56417e-06
0.000201799
-8.36602e-08
0.000201788
6.65044e-08
0.000201789
-2.63097e-09
0.000201789
-1.33024e-09
0.000201789
-1.1229e-11
0.000201789
1.18069e-11
0.000201789
-6.03465e-12
0.000201789
4.25011e-13
0.000201789
7.42769e-12
0.000201789
-1.78743e-13
0.000201789
-8.82815e-12
0.000201789
5.20863e-13
0.000201789
6.62259e-12
0.000201789
2.00317e-11
0.000201789
-8.6917e-11
0.000201789
4.2555e-10
0.000201789
-1.124e-09
-1.67239e-09
0.000201198
-1.2973e-05
0.00020139
-2.75645e-06
0.000201378
-7.16459e-08
0.00020137
7.49432e-08
0.00020137
-3.05566e-09
0.000201371
-1.42094e-09
0.000201371
-9.95102e-12
0.000201371
1.32039e-11
0.000201371
-6.60127e-12
0.000201371
-1.43539e-14
0.000201371
8.14223e-12
0.000201371
1.84194e-13
0.000201371
-9.46395e-12
0.000201371
2.35406e-13
0.000201371
6.56252e-12
0.000201371
2.30706e-11
0.000201371
-9.78141e-11
0.000201371
4.74088e-10
0.000201371
-1.19253e-09
-1.80116e-09
0.000187027
0.000184271
0.000184199
0.000184274
0.000184271
0.000184269
0.000184269
0.000184269
0.000184269
0.000184269
0.000184269
0.000184269
0.000184269
0.000184269
0.000184269
0.000184269
0.000184269
0.00018427
0.000184269
)
;

boundaryField
{
    inlet
    {
        type            calculated;
        value           nonuniform List<scalar> 
20
(
-0.0002
-0.0002
-0.0002
-0.0002
-0.0002
-0.0002
-0.0002
-0.0002
-0.0002
-0.0002
-0.0002
-0.0002
-0.0002
-0.0002
-0.0002
-0.0002
-0.0002
-0.0002
-0.0002
-0.0002
)
;
    }
    outlet
    {
        type            calculated;
        value           nonuniform List<scalar> 
20
(
0.000184267
0.000201371
0.000201789
0.000201796
0.000201796
0.000201796
0.000201796
0.000201796
0.000201796
0.000201796
0.000201796
0.000201796
0.000201796
0.000201796
0.000201796
0.000201796
0.000201796
0.000201789
0.000201371
0.000184267
)
;
    }
    fixedWalls
    {
        type            calculated;
        value           uniform 0;
    }
    frontAndBack
    {
        type            empty;
        value           nonuniform 0();
    }
}


// ************************************************************************* //
