/*--------------------------------*- C++ -*----------------------------------*\
| =========                 |                                                 |
| \\      /  F ield         | OpenFOAM: The Open Source CFD Toolbox           |
|  \\    /   O peration     | Version:  2.4.0                                 |
|   \\  /    A nd           | Web:      www.OpenFOAM.org                      |
|    \\/     M anipulation  |                                                 |
\*---------------------------------------------------------------------------*/
FoamFile
{
    version     2.0;
    format      ascii;
    class       volScalarField;
    location    "0.89";
    object      epsilon;
}
// * * * * * * * * * * * * * * * * * * * * * * * * * * * * * * * * * * * * * //

dimensions      [0 2 -3 0 0 0 0];

internalField   nonuniform List<scalar> 
6000
(
0.995131
0.365134
0.042445
0.0135279
0.0191355
0.0162888
0.0243908
0.0642464
0.0871202
0.0803439
0.0556343
0.0331498
0.0184664
0.00999738
0.00556245
0.00345078
0.00281441
0.00391242
0.00573317
0.00773955
0.00981458
0.0118272
0.0136542
0.0152114
0.0164748
0.0174761
0.0182774
0.0189438
0.0195285
0.0200717
0.0206047
0.0211544
0.021745
0.0223991
0.0231384
0.0239846
0.0249602
0.0260904
0.0274038
0.0289348
0.0307245
0.0328237
0.0352955
0.0382192
0.0416958
0.0458555
0.0508685
0.0569592
0.0644286
0.0736875
0.0853041
0.100089
0.119182
0.144352
0.177965
0.224772
0.288468
0.389351
0.513538
0.79087
0.55822
0.332411
0.0213224
0.00929949
0.00869992
0.0223019
0.0332124
0.028721
0.0198251
0.0112578
0.00614642
0.00422917
0.00288232
0.00203215
0.00159838
0.00146104
0.00156415
0.00184448
0.00218051
0.00257156
0.00302376
0.00353044
0.00406139
0.00456535
0.004991
0.0053122
0.00553564
0.00568731
0.00579399
0.00587412
0.00593867
0.00599537
0.00605166
0.00611508
0.00619271
0.00629075
0.00641465
0.00656954
0.00676074
0.0069942
0.00727688
0.00761724
0.0080257
0.00851532
0.0091028
0.00980968
0.0106636
0.0117005
0.0129683
0.0145316
0.0164784
0.018931
0.0220652
0.0261337
0.0315225
0.03878
0.0490675
0.0631839
0.0859543
0.120148
0.417106
0.390506
0.0282766
0.00701136
0.0100146
0.0192275
0.0171901
0.011057
0.00659221
0.0035798
0.00280238
0.00249048
0.00197305
0.00152632
0.00129079
0.00121018
0.00122046
0.00126731
0.00132669
0.00140121
0.00149879
0.00162698
0.00178498
0.00195787
0.00212014
0.00224883
0.00233532
0.00238542
0.00241086
0.00242157
0.00242353
0.00242022
0.00241448
0.00240925
0.00240744
0.00241151
0.00242342
0.00244473
0.00247681
0.00252104
0.00257899
0.00265249
0.00274382
0.00285582
0.0029921
0.00315718
0.00335682
0.00359844
0.00389181
0.00424979
0.00469002
0.00523646
0.00592337
0.00679392
0.00793123
0.00940131
0.0114804
0.0140434
0.018534
0.0226772
0.367918
0.390236
0.0481523
0.00487404
0.00793967
0.0115776
0.00910389
0.00595928
0.00370261
0.00269308
0.00270432
0.00258707
0.00205555
0.00153174
0.00124232
0.00111956
0.00107738
0.00106566
0.00106165
0.00105914
0.00105944
0.00106812
0.0010909
0.00112828
0.00117309
0.00121414
0.00124319
0.00125861
0.00126353
0.00126198
0.00125679
0.00124952
0.00124125
0.00123305
0.00122605
0.00122125
0.00121943
0.00122116
0.00122689
0.00123702
0.00125197
0.00127224
0.00129844
0.00133133
0.00137189
0.00142131
0.00148111
0.00155318
0.00163998
0.00174486
0.00187237
0.00202807
0.00222033
0.00245853
0.00276362
0.00314352
0.00367725
0.00427417
0.00540168
0.00600716
0.343606
0.365547
0.0709493
0.00393918
0.00502608
0.0069666
0.00590934
0.0042871
0.00310708
0.00291871
0.00319657
0.00308926
0.00239692
0.00168463
0.00128021
0.00109819
0.00102204
0.000989696
0.000969041
0.000947538
0.000921308
0.000892517
0.000867089
0.000850475
0.000843858
0.000843773
0.000845243
0.000845098
0.000842731
0.000838857
0.000834243
0.000829319
0.000824346
0.000819621
0.000815515
0.00081241
0.000810621
0.000810382
0.000811869
0.000815234
0.000820634
0.000828252
0.000838316
0.000851112
0.000866994
0.000886403
0.000909886
0.000938165
0.000972205
0.00101329
0.00106292
0.00112306
0.00119667
0.0012869
0.00140106
0.001541
0.00173589
0.00194951
0.0023538
0.00256555
0.33001
0.333673
0.0945677
0.0047927
0.00366697
0.004985
0.00471659
0.00377809
0.0032378
0.00346692
0.00389418
0.00376462
0.00288188
0.00193472
0.00137754
0.00111884
0.00100568
0.000956639
0.000928296
0.000902812
0.000871802
0.000833792
0.000793041
0.000756136
0.000727796
0.000708722
0.000696591
0.0006885
0.00068252
0.000677754
0.000673812
0.000670457
0.000667539
0.000665009
0.000662923
0.000661388
0.000660515
0.000660398
0.000661115
0.000662738
0.000665343
0.000669023
0.000673897
0.000680113
0.000687858
0.000697368
0.00070894
0.000722929
0.000739875
0.000760385
0.000785272
0.000815593
0.000852882
0.00089886
0.000957149
0.0010291
0.00112932
0.00124154
0.00145639
0.00160553
0.321787
0.302182
0.112298
0.00922158
0.00352097
0.00437368
0.00435359
0.00378922
0.00366893
0.00415746
0.00469951
0.00454423
0.00347744
0.00227563
0.00153357
0.00117718
0.001016
0.000944382
0.000906134
0.000878455
0.000848618
0.000811249
0.000768003
0.000724924
0.000688107
0.000660512
0.000641654
0.000629312
0.000621234
0.000615823
0.000612083
0.0006094
0.0006074
0.000605877
0.000604746
0.000603989
0.000603627
0.000603688
0.000604205
0.000605219
0.000606775
0.000608934
0.000611773
0.000615388
0.000619901
0.000625466
0.000632293
0.000640675
0.000650916
0.000663429
0.000678794
0.000697764
0.000721427
0.000751055
0.000789215
0.000837013
0.000904947
0.000982488
0.00113694
0.00126687
0.316301
0.274081
0.124517
0.0170562
0.00400642
0.00441811
0.00438818
0.00408068
0.00424993
0.00491725
0.00555078
0.00536611
0.00413718
0.00269024
0.00174428
0.00127167
0.00105101
0.000948541
0.000894705
0.000861894
0.000833167
0.000799102
0.000758131
0.000714811
0.000675516
0.000644456
0.000622406
0.000607826
0.000598525
0.000592644
0.000588891
0.000586443
0.000584807
0.000583697
0.000582964
0.000582538
0.000582393
0.00058253
0.000582959
0.000583705
0.000584798
0.000586283
0.000588213
0.000590662
0.000593722
0.000597511
0.000602182
0.000607965
0.000615118
0.000623977
0.000635002
0.000648804
0.000666288
0.00068851
0.000717685
0.000754893
0.000809154
0.000872369
0.00100375
0.00112473
0.312312
0.250235
0.132149
0.0272657
0.00484558
0.00479635
0.00465871
0.00454631
0.00491763
0.00571183
0.00641339
0.00618368
0.00480895
0.00314979
0.0019994
0.00139866
0.00111012
0.00096871
0.00089314
0.000850809
0.0008208
0.000789724
0.00075238
0.000711151
0.00067201
0.000639861
0.00061639
0.000600653
0.000590645
0.000584442
0.000580615
0.000578231
0.000576724
0.000575771
0.000575191
0.000574893
0.000574831
0.000574991
0.000575376
0.000576001
0.00057689
0.000578079
0.000579615
0.000581557
0.000583985
0.000587008
0.000590757
0.00059539
0.000601138
0.000608304
0.000617301
0.000628673
0.000643228
0.000661947
0.000686822
0.000719043
0.000766775
0.000822945
0.00094384
0.00105931
0.309261
0.230563
0.135965
0.0389199
0.00609583
0.00537855
0.00510076
0.00513638
0.00564856
0.00653587
0.00728439
0.00697783
0.00545063
0.00361984
0.00228374
0.00155198
0.00119182
0.00100411
0.00090157
0.00084537
0.000810948
0.000781319
0.000747501
0.000709144
0.000671266
0.000639102
0.000615046
0.000598683
0.000588235
0.000581798
0.000577882
0.000575492
0.000574019
0.000573115
0.000572587
0.000572332
0.000572297
0.000572461
0.000572825
0.000573397
0.000574202
0.000575269
0.000576642
0.000578374
0.000580536
0.000583218
0.000586546
0.000590674
0.000595809
0.000602224
0.000610299
0.000620543
0.000633715
0.000650742
0.000673532
0.000703188
0.000747722
0.000800372
0.000915942
0.00102764
0.306863
0.214607
0.136751
0.0506897
0.00844463
0.00611726
0.00568781
0.00582979
0.00644282
0.00740717
0.00818617
0.00775638
0.00604163
0.00406805
0.00257949
0.00172654
0.00129101
0.0010527
0.000919543
0.000845914
0.00080398
0.000773786
0.000742738
0.000707366
0.000671216
0.000639526
0.000615268
0.000598522
0.000587754
0.000581119
0.000577104
0.000574675
0.000573193
0.000572294
0.000571775
0.000571527
0.000571496
0.000571658
0.000572009
0.000572561
0.000573332
0.000574354
0.000575664
0.000577317
0.000579377
0.000581933
0.000585099
0.000589022
0.000593901
0.000599999
0.000607679
0.000617428
0.00062998
0.00064623
0.000668039
0.000696508
0.000739477
0.00079034
0.000902986
0.00101183
0.30494
0.201798
0.135283
0.0614278
0.0121351
0.00700054
0.00641085
0.00662201
0.00731505
0.00835688
0.00915174
0.0085419
0.00658435
0.00447167
0.00286855
0.00191761
0.00140203
0.00111143
0.000945786
0.00085234
0.000800275
0.000767422
0.000738067
0.000705463
0.000671224
0.000640258
0.000615987
0.000598968
0.00058793
0.000581106
0.000576982
0.000574496
0.000572985
0.00057207
0.00057154
0.000571285
0.000571248
0.000571404
0.000571749
0.00057229
0.000573049
0.000574054
0.000575344
0.000576969
0.000578995
0.000581507
0.000584616
0.000588467
0.000593254
0.000599234
0.000606763
0.000616318
0.000628618
0.000644544
0.000665933
0.000693879
0.000736129
0.000786142
0.000896992
0.00100354
0.303377
0.191582
0.132275
0.0704382
0.0170037
0.00804183
0.00727
0.00751851
0.00828721
0.00941879
0.0102103
0.00935682
0.00709607
0.00482263
0.00314027
0.00211443
0.00151861
0.00117663
0.000978396
0.000864046
0.000799972
0.000762541
0.000733652
0.000703401
0.000671113
0.00064102
0.000616848
0.000599616
0.000588327
0.000581315
0.000577073
0.000574518
0.000572967
0.000572026
0.000571479
0.000571211
0.000571163
0.000571312
0.00057165
0.000572186
0.000572939
0.000573939
0.000575222
0.000576839
0.000578856
0.000581357
0.00058445
0.000588282
0.000593042
0.000598988
0.000606471
0.000615965
0.000628182
0.000643998
0.000665236
0.000692988
0.000734942
0.000784592
0.000894148
0.000998763
0.302092
0.183469
0.128328
0.0773802
0.0227076
0.00934105
0.00827015
0.0085304
0.00938278
0.0106211
0.0113782
0.0102134
0.00759666
0.00512742
0.00339441
0.00230174
0.00163457
0.00124449
0.00101513
0.000880038
0.000802929
0.000759359
0.000729688
0.000701239
0.000670844
0.000641723
0.000617733
0.000600329
0.000588801
0.000581598
0.000577232
0.000574601
0.000573004
0.000572033
0.000571464
0.00057118
0.000571121
0.000571261
0.000571593
0.000572125
0.000572876
0.000573873
0.000575154
0.000576771
0.000578787
0.000581287
0.00058438
0.000588211
0.00059297
0.000598913
0.000606392
0.000615878
0.000628084
0.000643881
0.000665091
0.000692802
0.000734661
0.000784182
0.000892677
0.000995564
0.301028
0.177045
0.12392
0.0822032
0.0288951
0.0110147
0.00941724
0.00967118
0.0106227
0.0119817
0.0126568
0.0111105
0.00809901
0.00540104
0.00363119
0.0024718
0.00174456
0.00131154
0.00105373
0.000899088
0.000808768
0.000757962
0.00072635
0.000699066
0.000670425
0.000642337
0.000618602
0.00060106
0.000589303
0.000581909
0.000577412
0.000574702
0.000573056
0.000572052
0.00057146
0.000571159
0.000571088
0.000571219
0.000571546
0.000572074
0.000572822
0.000573818
0.0005751
0.000576718
0.000578736
0.000581238
0.000584336
0.000588171
0.000592937
0.000598888
0.000606378
0.000615877
0.000628098
0.000643915
0.000665146
0.000692882
0.00073473
0.000784227
0.000891767
0.000993054
0.300142
0.171973
0.119402
0.0850541
0.0352521
0.013145
0.0107146
0.010954
0.0120227
0.0135071
0.0140335
0.0120363
0.00860567
0.00567494
0.00383777
0.00262033
0.00184454
0.00137488
0.00109211
0.000919904
0.000816936
0.000758309
0.000723771
0.000696976
0.00066988
0.000642854
0.000619437
0.000601792
0.000589817
0.00058223
0.000577601
0.000574807
0.00057311
0.000572072
0.000571457
0.000571139
0.000571056
0.000571179
0.0005715
0.000572025
0.000572771
0.000573766
0.000575049
0.000576668
0.000578688
0.000581195
0.000584297
0.000588139
0.000592914
0.000598877
0.000606381
0.000615899
0.000628145
0.000643993
0.000665264
0.000693049
0.000734919
0.000784429
0.000891067
0.000990841
0.299401
0.167976
0.115019
0.0861981
0.0414498
0.0157707
0.0121781
0.0123896
0.0135921
0.0151933
0.0154856
0.0129719
0.00911069
0.00596244
0.0040207
0.00274692
0.0019321
0.00143242
0.00112861
0.000941275
0.000826793
0.000760252
0.000722034
0.000695061
0.000669242
0.000643273
0.00062023
0.000602517
0.000590336
0.000582558
0.000577793
0.000574914
0.000573163
0.000572091
0.000571452
0.000571118
0.000571023
0.000571138
0.000571453
0.000571975
0.00057272
0.000573715
0.000574998
0.000576618
0.000578642
0.000581152
0.00058426
0.000588109
0.000592893
0.000598868
0.000606388
0.000615926
0.000628199
0.000644082
0.000665396
0.000693239
0.000735138
0.000784669
0.000890435
0.000988768
0.29878
0.164833
0.110927
0.085957
0.0471698
0.0188912
0.0138176
0.0139846
0.0153333
0.0170271
0.0169838
0.0138957
0.00960246
0.00627055
0.00418699
0.00285363
0.00200643
0.00148287
0.001162
0.00096217
0.000837684
0.000763558
0.000721169
0.000693402
0.000668551
0.000643601
0.000620977
0.00060323
0.000590856
0.000582888
0.000577986
0.00057502
0.000573215
0.000572109
0.000571446
0.000571095
0.000570989
0.000571095
0.000571406
0.000571924
0.000572668
0.000573663
0.000574947
0.000576569
0.000578595
0.000581109
0.000584222
0.000588079
0.000592872
0.000598859
0.000606394
0.000615953
0.000628252
0.00064417
0.000665529
0.000693427
0.000735354
0.000784902
0.000889824
0.000986779
0.298257
0.16237
0.107216
0.0846639
0.0521384
0.0224632
0.0156333
0.0157412
0.0172408
0.0189879
0.0184944
0.0147863
0.0100913
0.00657775
0.00434051
0.0029436
0.00206799
0.00152576
0.00119154
0.000981802
0.000849005
0.000767952
0.000721159
0.000692064
0.00066785
0.000643846
0.000621674
0.000603928
0.000591375
0.000583221
0.000578181
0.000575125
0.000573266
0.000572125
0.000571439
0.000571071
0.000570953
0.000571052
0.000571358
0.000571874
0.000572616
0.000573611
0.000574896
0.00057652
0.000578549
0.000581067
0.000584185
0.000588049
0.000592851
0.000598849
0.000606399
0.000615977
0.000628302
0.000644254
0.000665656
0.000693609
0.00073556
0.000785117
0.000889221
0.000984861
0.297816
0.160445
0.103927
0.0826317
0.0561554
0.0263938
0.0176278
0.0176467
0.0193003
0.021047
0.019981
0.0156221
0.0105811
0.0068702
0.00448244
0.00301986
0.00211806
0.00156123
0.00121691
0.000999639
0.000860243
0.000773136
0.000721946
0.000691096
0.000667178
0.000644022
0.000622321
0.000604607
0.000591892
0.000583555
0.000578376
0.00057523
0.000573315
0.000572139
0.000571429
0.000571046
0.000570917
0.000571009
0.00057131
0.000571823
0.000572565
0.00057356
0.000574845
0.000576472
0.000578503
0.000581025
0.000584149
0.000588019
0.000592829
0.000598839
0.000606403
0.000616001
0.000628351
0.000644336
0.000665778
0.000693783
0.000735754
0.000785311
0.000888626
0.000983013
0.297444
0.158947
0.101066
0.080135
0.0591095
0.0305468
0.019809
0.0196697
0.0214859
0.023164
0.0214067
0.0163814
0.0110698
0.00713992
0.00461173
0.00308461
0.00215821
0.00158984
0.00123813
0.0010154
0.000871005
0.000778827
0.000723442
0.000690528
0.000666578
0.000644143
0.000622919
0.000605266
0.000592403
0.000583889
0.000578571
0.000575334
0.000573362
0.000572151
0.000571418
0.000571019
0.00057088
0.000570964
0.000571261
0.000571772
0.000572513
0.000573508
0.000574795
0.000576423
0.000578458
0.000580984
0.000584112
0.000587989
0.000592808
0.000598828
0.000606407
0.000616023
0.000628397
0.000644413
0.000665895
0.000693948
0.000735936
0.000785486
0.000888042
0.000981238
0.297129
0.157788
0.0986165
0.077401
0.060979
0.0347528
0.0221819
0.0217823
0.0237316
0.0252719
0.0227324
0.0170976
0.0115219
0.00737838
0.00472595
0.00313913
0.00218997
0.00161241
0.00125549
0.001029
0.000881019
0.000784771
0.00072554
0.000690371
0.000666084
0.000644226
0.00062347
0.000605903
0.000592909
0.000584222
0.000578766
0.000575436
0.000573407
0.000572161
0.000571406
0.000570991
0.000570841
0.00057092
0.000571212
0.000571722
0.000572461
0.000573457
0.000574745
0.000576376
0.000578413
0.000580943
0.000584076
0.000587959
0.000592786
0.000598817
0.00060641
0.000616044
0.000628441
0.000644488
0.000666007
0.000694107
0.000736107
0.000785644
0.000887472
0.000979537
0.296862
0.156898
0.0965493
0.0746071
0.0618204
0.0388241
0.0247417
0.0239396
0.025981
0.0272496
0.0239016
0.0178016
0.0119087
0.00757853
0.00482231
0.00318387
0.00221462
0.00162985
0.00126941
0.00104052
0.000890132
0.000790757
0.000728125
0.00069062
0.000665727
0.000644291
0.000623979
0.000606518
0.000593407
0.000584554
0.00057896
0.000575537
0.00057345
0.000572169
0.000571391
0.000570962
0.000570802
0.000570874
0.000571163
0.00057167
0.00057241
0.000573406
0.000574696
0.000576329
0.000578369
0.000580902
0.000584041
0.00058793
0.000592765
0.000598806
0.000606412
0.000616063
0.000628483
0.00064456
0.000666114
0.000694258
0.000736267
0.000785786
0.000886917
0.000977911
0.296635
0.156222
0.0948277
0.0718847
0.0617504
0.04257
0.0274681
0.0261011
0.0281653
0.0289974
0.0249928
0.018423
0.0122218
0.00773542
0.00489827
0.00321882
0.00223317
0.001643
0.0012804
0.00105015
0.000898288
0.000796624
0.000731082
0.000691255
0.000665533
0.000644355
0.000624451
0.00060711
0.000593898
0.000584883
0.000579153
0.000575636
0.000573492
0.000572175
0.000571375
0.000570931
0.000570762
0.000570828
0.000571114
0.000571619
0.000572359
0.000573356
0.000574647
0.000576282
0.000578325
0.000580862
0.000584005
0.000587901
0.000592744
0.000598795
0.000606414
0.000616082
0.000628523
0.000644628
0.000666217
0.000694402
0.000736419
0.000785914
0.000886379
0.00097636
0.296441
0.155715
0.0934119
0.0693242
0.0609238
0.0458141
0.0303205
0.0282364
0.0302165
0.0305271
0.0259641
0.018933
0.0124557
0.00784594
0.00495195
0.00324376
0.00224632
0.00165264
0.00128899
0.00105816
0.000905512
0.000802264
0.000734307
0.000692248
0.000665519
0.000644438
0.000624892
0.00060768
0.000594379
0.00058521
0.000579345
0.000575734
0.000573531
0.000572179
0.000571357
0.000570899
0.000570721
0.000570781
0.000571064
0.000571568
0.000572307
0.000573306
0.000574598
0.000576236
0.000578282
0.000580823
0.000583971
0.000587872
0.000592723
0.000598784
0.000606415
0.000616099
0.000628561
0.000644694
0.000666316
0.000694539
0.000736561
0.00078603
0.00088586
0.000974883
0.296276
0.155343
0.0922627
0.0669825
0.0595136
0.0484109
0.0332354
0.0303275
0.0320813
0.0318469
0.0267872
0.0193228
0.0126073
0.00790869
0.00498231
0.00325853
0.00225464
0.00165944
0.00129568
0.00106481
0.000911884
0.000807609
0.000737705
0.000693561
0.000665697
0.000644555
0.00062531
0.000608228
0.000594851
0.000585533
0.000579535
0.000575831
0.000573569
0.000572181
0.000571338
0.000570866
0.000570679
0.000570734
0.000571014
0.000571517
0.000572257
0.000573256
0.000574551
0.00057619
0.000578239
0.000580784
0.000583937
0.000587844
0.000592702
0.000598772
0.000606416
0.000616115
0.000628598
0.000644756
0.00066641
0.00069467
0.000736694
0.000786134
0.000885358
0.000973477
0.296134
0.155078
0.0913429
0.0648898
0.0576924
0.0502599
0.036126
0.0323676
0.0337283
0.0329572
0.0274488
0.0195879
0.012676
0.00792376
0.00498919
0.00326316
0.00225855
0.00166395
0.0013009
0.00107042
0.00091752
0.000812635
0.000741201
0.000695155
0.00066607
0.000644723
0.000625711
0.000608757
0.000595314
0.000585853
0.000579723
0.000575925
0.000573605
0.000572181
0.000571317
0.000570832
0.000570636
0.000570686
0.000570964
0.000571466
0.000572206
0.000573206
0.000574503
0.000576145
0.000578197
0.000580746
0.000583903
0.000587816
0.000592681
0.000598761
0.000606416
0.00061613
0.000628632
0.000644816
0.000666499
0.000694795
0.00073682
0.000786228
0.000884875
0.000972142
0.296012
0.154898
0.0906183
0.0630563
0.0556199
0.0513143
0.0388853
0.0343549
0.0351539
0.0338613
0.0279455
0.0197267
0.0126626
0.00789253
0.00497319
0.00325797
0.00225849
0.00166665
0.00130508
0.00107524
0.000922557
0.000817345
0.000744735
0.000696987
0.00066664
0.000644955
0.000626104
0.000609268
0.000595767
0.000586169
0.00057991
0.000576018
0.000573638
0.00057218
0.000571294
0.000570797
0.000570593
0.000570638
0.000570914
0.000571416
0.000572156
0.000573158
0.000574456
0.000576101
0.000578156
0.000580708
0.00058387
0.000587788
0.00059266
0.000598749
0.000606415
0.000616144
0.000628665
0.000644873
0.000666584
0.000694913
0.000736937
0.000786312
0.00088441
0.000970876
0.295907
0.154785
0.0900583
0.0614783
0.053434
0.0515835
0.0413931
0.0362844
0.0363801
0.0345757
0.028281
0.0197397
0.0125694
0.00781743
0.00493565
0.00324355
0.00225489
0.00166795
0.00130854
0.00107954
0.000927136
0.000821768
0.000748263
0.000699016
0.000667399
0.000645262
0.000626497
0.000609763
0.000596211
0.000586481
0.000580094
0.00057611
0.000573671
0.000572177
0.00057127
0.00057076
0.000570549
0.00057059
0.000570863
0.000571365
0.000572106
0.000573109
0.00057441
0.000576057
0.000578116
0.000580672
0.000583837
0.000587761
0.00059264
0.000598737
0.000606414
0.000616158
0.000628696
0.000644927
0.000666665
0.000695025
0.000737046
0.000786387
0.000883964
0.000969677
0.295816
0.154726
0.089636
0.0601421
0.0512466
0.0511276
0.0435254
0.0381396
0.0374463
0.0351309
0.0284638
0.0196294
0.0124002
0.00770178
0.00487848
0.00322079
0.00224823
0.00166821
0.00131158
0.00108352
0.000931394
0.000825945
0.000751757
0.000701205
0.000668338
0.000645652
0.000626897
0.000610246
0.000596645
0.000586789
0.000580276
0.000576199
0.000573701
0.000572172
0.000571245
0.000570723
0.000570504
0.000570542
0.000570813
0.000571315
0.000572057
0.000573062
0.000574364
0.000576014
0.000578076
0.000580635
0.000583806
0.000587735
0.00059262
0.000598725
0.000606413
0.000616169
0.000628725
0.000644978
0.000666742
0.000695131
0.000737148
0.000786454
0.000883537
0.000968544
0.295737
0.154707
0.0893282
0.0590285
0.0491429
0.050048
0.0451664
0.0398861
0.038396
0.0355643
0.0285028
0.0193988
0.0121596
0.00754961
0.00480403
0.00319081
0.00223906
0.00166777
0.00131444
0.00108738
0.000935457
0.000829927
0.000755201
0.000703519
0.000669445
0.000646132
0.000627312
0.000610719
0.000597072
0.000587093
0.000580457
0.000576287
0.00057373
0.000572166
0.000571218
0.000570684
0.000570459
0.000570493
0.000570763
0.000571265
0.000572008
0.000573014
0.00057432
0.000575972
0.000578037
0.0005806
0.000583774
0.000587709
0.0005926
0.000598713
0.000606411
0.00061618
0.000628752
0.000645026
0.000666814
0.00069523
0.000737243
0.000786513
0.000883128
0.000967475
0.295668
0.154721
0.0891149
0.0581151
0.0471826
0.0484728
0.0462218
0.041467
0.0392621
0.0359077
0.028402
0.0190506
0.011853
0.00736554
0.00471505
0.0031549
0.00222796
0.00166694
0.00131732
0.00109127
0.000939435
0.000833767
0.000758589
0.000705929
0.000670705
0.000646706
0.000627748
0.000611186
0.00059749
0.000587392
0.000580635
0.000576374
0.000573757
0.000572158
0.000571191
0.000570645
0.000570413
0.000570444
0.000570713
0.000571215
0.000571959
0.000572968
0.000574276
0.000575931
0.000577999
0.000580565
0.000583744
0.000587683
0.000592581
0.000598702
0.000606409
0.00061619
0.000628778
0.000645072
0.000666883
0.000695324
0.000737332
0.000786565
0.000882739
0.000966469
0.295608
0.15476
0.088979
0.0573787
0.0454036
0.0465425
0.0466307
0.0428045
0.0400537
0.0361736
0.0281561
0.0185869
0.0114867
0.00715469
0.00461451
0.00311449
0.00221553
0.00166599
0.00132039
0.00109531
0.00094342
0.000837516
0.000761923
0.00070841
0.000672103
0.000647374
0.000628212
0.000611649
0.000597902
0.000587688
0.00058081
0.000576459
0.000573783
0.000572149
0.000571162
0.000570605
0.000570367
0.000570395
0.000570663
0.000571166
0.000571911
0.000572922
0.000574232
0.00057589
0.000577961
0.000580532
0.000583714
0.000587658
0.000592562
0.00059869
0.000606406
0.000616199
0.000628802
0.000645114
0.000666947
0.000695412
0.000737413
0.000786612
0.000882369
0.000965526
0.295555
0.154817
0.0889061
0.0567961
0.0438255
0.0443959
0.0463752
0.0438046
0.0407459
0.036345
0.0277484
0.0180091
0.0110679
0.0069226
0.00450555
0.00307106
0.00220239
0.00166517
0.00132378
0.00109958
0.000947487
0.000841223
0.000765208
0.000710941
0.000673623
0.000648137
0.000628707
0.000612112
0.000598308
0.00058798
0.000580984
0.000576542
0.000573808
0.000572138
0.000571132
0.000570564
0.000570321
0.000570346
0.000570613
0.000571117
0.000571864
0.000572877
0.00057419
0.000575851
0.000577925
0.000580499
0.000583685
0.000587634
0.000592543
0.000598678
0.000606403
0.000616207
0.000628824
0.000645154
0.000667007
0.000695494
0.000737489
0.000786653
0.000882017
0.000964643
0.295509
0.154888
0.0888838
0.0563457
0.0424537
0.0421598
0.0454842
0.0443682
0.0412775
0.0363704
0.0271525
0.0173199
0.0106048
0.0066752
0.00439141
0.0030261
0.00218913
0.00166471
0.00132757
0.00110415
0.000951692
0.000844928
0.000768457
0.000713508
0.000675249
0.000648991
0.00062924
0.000612577
0.000598709
0.000588268
0.000581156
0.000576625
0.000573831
0.000572127
0.000571101
0.000570523
0.000570274
0.000570297
0.000570564
0.000571068
0.000571818
0.000572833
0.000574148
0.000575812
0.000577889
0.000580467
0.000583657
0.00058761
0.000592525
0.000598666
0.0006064
0.000616214
0.000628844
0.000645191
0.000667063
0.000695571
0.000737558
0.000786688
0.000881685
0.00096382
0.295468
0.154968
0.088902
0.0560075
0.0412833
0.0399408
0.0440306
0.0444065
0.0415544
0.0361676
0.0263378
0.0165247
0.0101072
0.00641873
0.00427529
0.00298101
0.00217629
0.00166478
0.00133183
0.00110906
0.000956074
0.000848666
0.000771679
0.000716097
0.000676964
0.000649934
0.000629812
0.000613049
0.000599107
0.000588553
0.000581326
0.000576705
0.000573853
0.000572115
0.00057107
0.000570481
0.000570228
0.000570248
0.000570515
0.000571021
0.000571772
0.000572789
0.000574107
0.000575774
0.000577855
0.000580435
0.00058363
0.000587587
0.000592507
0.000598655
0.000606396
0.000616221
0.000628863
0.000645226
0.000667115
0.000695642
0.000737621
0.00078672
0.000881372
0.000963057
0.295433
0.155054
0.0889516
0.0557636
0.0403022
0.0378225
0.0421234
0.0438576
0.0414627
0.0356354
0.025279
0.0156346
0.0095866
0.00615967
0.00416027
0.00293711
0.00216434
0.00166553
0.00133661
0.00111432
0.000960657
0.000852464
0.000774887
0.000718699
0.000678757
0.000650961
0.000630427
0.000613529
0.000599502
0.000588835
0.000581494
0.000576785
0.000573875
0.000572102
0.000571038
0.00057044
0.000570181
0.0005702
0.000570467
0.000570974
0.000571727
0.000572747
0.000574068
0.000575737
0.000577821
0.000580405
0.000583603
0.000587565
0.000592489
0.000598643
0.000606392
0.000616226
0.000628879
0.000645257
0.000667163
0.000695708
0.000737679
0.000786747
0.000881078
0.000962352
0.295401
0.155143
0.0890255
0.055598
0.0394943
0.035864
0.039894
0.0427022
0.0408894
0.0346759
0.0239668
0.0146683
0.00905616
0.00590443
0.00404917
0.00289551
0.00215366
0.00166705
0.0013419
0.00111994
0.000965452
0.00085634
0.000778093
0.000721309
0.000680612
0.000652065
0.000631086
0.00061402
0.000599896
0.000589115
0.000581661
0.000576864
0.000573896
0.000572088
0.000571005
0.000570397
0.000570134
0.000570152
0.000570419
0.000570927
0.000571683
0.000572706
0.000574029
0.000575702
0.000577789
0.000580376
0.000583577
0.000587543
0.000592472
0.000598632
0.000606387
0.00061623
0.000628895
0.000645286
0.000667207
0.000695768
0.000737732
0.00078677
0.000880804
0.000961704
0.295374
0.155234
0.0891173
0.0554969
0.0388408
0.0341023
0.0374813
0.0409734
0.0397486
0.0332213
0.0224186
0.0136528
0.00853025
0.00565915
0.00394441
0.00285711
0.00214451
0.00166939
0.0013477
0.0011259
0.000970461
0.000860307
0.000781305
0.000723921
0.000682518
0.000653241
0.00063179
0.000614525
0.00060029
0.000589393
0.000581826
0.000576942
0.000573916
0.000572074
0.000570973
0.000570355
0.000570088
0.000570104
0.000570372
0.000570882
0.00057164
0.000572665
0.000573992
0.000575667
0.000577757
0.000580348
0.000583553
0.000587522
0.000592456
0.000598621
0.000606383
0.000616233
0.000628908
0.000645312
0.000667247
0.000695823
0.000737779
0.000786791
0.000880549
0.000961113
0.295349
0.155325
0.089222
0.0554483
0.0383226
0.0325552
0.0350173
0.0387571
0.0380078
0.0312619
0.0206833
0.0126224
0.00802347
0.00542925
0.00384793
0.00282252
0.00213707
0.00167256
0.00135398
0.00113218
0.000975675
0.000864373
0.000784531
0.000726533
0.000684464
0.000654482
0.000632539
0.000615045
0.000600686
0.000589669
0.000581989
0.000577019
0.000573936
0.00057206
0.00057094
0.000570313
0.000570042
0.000570057
0.000570325
0.000570837
0.000571597
0.000572626
0.000573955
0.000575634
0.000577727
0.00058032
0.000583529
0.000587502
0.00059244
0.00059861
0.000606378
0.000616236
0.00062892
0.000645336
0.000667284
0.000695873
0.000737821
0.000786808
0.000880313
0.000960578
0.295328
0.155415
0.0893351
0.0554418
0.0379209
0.0312254
0.0326159
0.0361832
0.0357062
0.0288634
0.0188397
0.0116154
0.00754939
0.00521904
0.00376104
0.00279213
0.00213139
0.00167652
0.0013607
0.00113874
0.000981079
0.000868537
0.000787778
0.000729142
0.000686442
0.000655781
0.000633332
0.000615583
0.000601085
0.000589944
0.000582152
0.000577096
0.000573956
0.000572046
0.000570907
0.000570271
0.000569996
0.00057001
0.00057028
0.000570793
0.000571556
0.000572587
0.00057392
0.000575601
0.000577697
0.000580294
0.000583506
0.000587483
0.000592425
0.000598599
0.000606372
0.000616238
0.00062893
0.000645357
0.000667316
0.000695918
0.000737859
0.000786823
0.000880096
0.0009601
0.295309
0.155502
0.0894534
0.0554684
0.0376181
0.0301045
0.0303653
0.0334075
0.0329584
0.0261652
0.0169856
0.0106691
0.00711901
0.00503141
0.00368441
0.00276603
0.00212744
0.00168122
0.00136779
0.00114555
0.000986654
0.000872798
0.000791049
0.000731748
0.000688443
0.000657132
0.000634169
0.00061614
0.000601487
0.000590219
0.000582314
0.000577172
0.000573975
0.000572032
0.000570874
0.00057023
0.000569951
0.000569964
0.000570235
0.000570751
0.000571516
0.00057255
0.000573886
0.00057557
0.000577669
0.000580269
0.000583484
0.000587464
0.00059241
0.000598588
0.000606367
0.000616239
0.000628939
0.000645375
0.000667345
0.000695957
0.000737892
0.000786836
0.000879899
0.000959676
0.295292
0.155587
0.089574
0.0555205
0.0373981
0.0291769
0.0283259
0.0305901
0.0299397
0.0233568
0.0152206
0.00981453
0.00673963
0.00486767
0.00361811
0.00274413
0.00212513
0.00168658
0.00137521
0.00115256
0.000992379
0.000877148
0.000794347
0.000734351
0.000690459
0.000658528
0.000635047
0.000616716
0.000601895
0.000590494
0.000582475
0.000577248
0.000573995
0.000572017
0.000570842
0.000570188
0.000569906
0.000569919
0.000570191
0.000570709
0.000571477
0.000572514
0.000573853
0.00057554
0.000577642
0.000580245
0.000583463
0.000587447
0.000592396
0.000598578
0.000606361
0.000616239
0.000628946
0.000645391
0.00066737
0.000695992
0.00073792
0.000786847
0.000879721
0.000959308
0.295277
0.155668
0.0896947
0.0555918
0.0372466
0.0284225