/*--------------------------------*- C++ -*----------------------------------*\
| =========                 |                                                 |
| \\      /  F ield         | OpenFOAM: The Open Source CFD Toolbox           |
|  \\    /   O peration     | Version:  2.4.0                                 |
|   \\  /    A nd           | Web:      www.OpenFOAM.org                      |
|    \\/     M anipulation  |                                                 |
\*---------------------------------------------------------------------------*/
FoamFile
{
    version     2.0;
    format      ascii;
    class       volScalarField;
    location    "1.1";
    object      k;
}
// * * * * * * * * * * * * * * * * * * * * * * * * * * * * * * * * * * * * * //

dimensions      [0 2 -2 0 0 0 0];

internalField   nonuniform List<scalar> 
6000
(
0.168269
0.0131719
0.00102919
0.00359659
0.00257031
0.00319633
0.00275238
0.00205308
0.000681484
0.000524309
0.00093385
0.00221915
0.00686204
0.014147
0.0218303
0.0270384
0.02785
0.0243381
0.0183296
0.0119241
0.00655956
0.00291362
0.00110379
0.000684892
0.00137128
0.00211757
0.00282618
0.00353318
0.00427253
0.00505956
0.00588802
0.00673387
0.00756447
0.00835073
0.00907704
0.00974471
0.0103686
0.0109706
0.0115736
0.0121983
0.0128625
0.0135818
0.0143712
0.0152463
0.0162235
0.0173245
0.0185691
0.0199951
0.0216188
0.0235281
0.0256858
0.0283715
0.0312396
0.0353651
0.0389375
0.0463565
0.0495104
0.066103
0.0641785
0.104758
0.0762207
0.0101024
0.000980765
0.00239285
0.00175805
0.00208541
0.00178914
0.0013274
0.000501123
0.000468297
0.000785878
0.00183805
0.0044383
0.00782252
0.0108528
0.0125067
0.012334
0.0106025
0.00805408
0.00539091
0.00310281
0.00149159
0.00069798
0.000619043
0.00102769
0.00142909
0.00180296
0.00216902
0.00254202
0.0029268
0.0033189
0.00370766
0.00408081
0.00442917
0.00474972
0.00504598
0.00532609
0.00560018
0.00587825
0.0061692
0.00648075
0.0068199
0.00719342
0.00760863
0.00807336
0.0085977
0.00919148
0.00987187
0.0106485
0.0115592
0.0125953
0.0138706
0.0152621
0.0171939
0.0189867
0.0223567
0.0242065
0.031419
0.0316876
0.0484777
0.0412271
0.00800515
0.00100064
0.00168355
0.00125622
0.00141765
0.00120928
0.000897454
0.000399196
0.000432256
0.000710919
0.00154031
0.00306177
0.00470183
0.00588079
0.00626549
0.0058555
0.00492521
0.00376275
0.00259538
0.00158313
0.000859954
0.000522626
0.000558924
0.000794485
0.00101629
0.00122094
0.00141835
0.00161482
0.0018118
0.00200691
0.00219581
0.00237419
0.00253954
0.00269203
0.00283434
0.00297076
0.00310614
0.00324513
0.00339184
0.00354995
0.00372286
0.00391396
0.00412698
0.00436596
0.00463602
0.00494245
0.00529368
0.00569567
0.00616593
0.00670452
0.00736044
0.00809124
0.00907139
0.0100428
0.0117
0.0128289
0.0162058
0.0169456
0.0243022
0.0260634
0.00676147
0.00109258
0.00126778
0.000943165
0.00100648
0.000852798
0.000640374
0.000344294
0.000411312
0.000667089
0.00130181
0.00221202
0.00300686
0.00340659
0.00335561
0.00297524
0.00246252
0.00190787
0.00137583
0.000915647
0.000587898
0.000451158
0.00050698
0.000640206
0.00076455
0.000879199
0.000988589
0.00109526
0.00119962
0.00130061
0.00139667
0.0014865
0.00156969
0.00164691
0.00171984
0.0017907
0.00186191
0.00193576
0.00201432
0.00209947
0.00219303
0.00229682
0.00241287
0.00254343
0.0026913
0.00285948
0.00305244
0.00327396
0.00353267
0.00383092
0.00419087
0.0045996
0.00513119
0.00568958
0.00656178
0.00727108
0.00895767
0.00966786
0.0130379
0.0187955
0.00608595
0.0012509
0.00103783
0.000750946
0.000750839
0.000632111
0.000487692
0.000317818
0.00040079
0.000634375
0.00110904
0.00165575
0.002023
0.00209877
0.00193495
0.00165998
0.00138105
0.00110829
0.000854936
0.000636888
0.000483034
0.000427844
0.000469706
0.000542514
0.000611748
0.000676342
0.000737773
0.00079682
0.000853485
0.000907341
0.0009579
0.0010049
0.00104848
0.00108924
0.00112813
0.00116636
0.0012052
0.00124585
0.00128943
0.00133698
0.00138952
0.0014481
0.00151391
0.00158825
0.00167273
0.00176918
0.00188008
0.00200788
0.00215714
0.00233033
0.002538
0.00277775
0.0030819
0.00341714
0.00390335
0.00435827
0.00525025
0.00581064
0.00741316
0.0150473
0.00576377
0.00146538
0.000934214
0.00064058
0.000593852
0.00049728
0.000399914
0.000308807
0.000397147
0.000605465
0.000954813
0.00128155
0.00143488
0.0013948
0.0012432
0.00107726
0.000932434
0.00079189
0.000658167
0.000541306
0.000457804
0.000428511
0.00044907
0.00048513
0.000521835
0.00055747
0.000591873
0.000624876
0.000656197
0.000685548
0.000712745
0.000737791
0.000760911
0.000782542
0.000803292
0.000823862
0.000844975
0.000867321
0.000891542
0.000918242
0.000948026
0.000981527
0.00101945
0.0010626
0.00111195
0.00116863
0.00123411
0.00131
0.00139885
0.00150268
0.00162683
0.00177223
0.00195345
0.00216096
0.00244506
0.00274077
0.00323735
0.00364778
0.00443529
0.0130144
0.00565555
0.00172422
0.00092261
0.000589606
0.000502586
0.000418902
0.000353675
0.000310975
0.000398298
0.000579588
0.000835345
0.00103155
0.00108777
0.00102994
0.000934473
0.000858359
0.000789162
0.000706557
0.000616763
0.000533658
0.000471029
0.000442546
0.00044326
0.000455803
0.00047236
0.000490587
0.000509322
0.000527775
0.000545359
0.000561656
0.00057644
0.000589686
0.000601573
0.000612448
0.000622766
0.000633026
0.000643706
0.000655242
0.000668024
0.000682418
0.000698788
0.000717521
0.000739052
0.000763886
0.000792627
0.000825993
0.000864901
0.00091041
0.00096403
0.00102728
0.00110303
0.00119295
0.00130393
0.00143489
0.001607
0.00180077
0.00208992
0.00237924
0.00277962
0.011876
0.005673
0.00201484
0.000981685
0.000585363
0.00045767
0.000379249
0.000334971
0.00032095
0.000403496
0.000558718
0.00074827
0.00087227
0.000897278
0.000867026
0.000837248
0.000826806
0.000796874
0.000733096
0.000649692
0.000567405
0.000502608
0.00046468
0.000448691
0.000445125
0.00044844
0.000455711
0.000465078
0.000475258
0.000485327
0.000494626
0.000502737
0.000509495
0.000514991
0.000519529
0.000523528
0.000527432
0.000531632
0.000536447
0.000542133
0.000548915
0.000557009
0.000566651
0.000578109
0.0005917
0.000607807
0.000626894
0.000649545
0.000676467
0.000708597
0.000747028
0.000793408
0.000849323
0.000918196
0.00100156
0.00110838
0.00123576
0.00141043
0.00160987
0.00182128
0.0112285
0.00576018
0.00232423
0.00109745
0.000619868
0.000447773
0.000367532
0.000335453
0.000337188
0.000413027
0.000545498
0.000691535
0.000782137
0.000813122
0.000828987
0.000859322
0.000891352
0.000876994
0.000810874
0.000715536
0.000618901
0.000542584
0.000491556
0.000461503
0.000445954
0.000439878
0.000439799
0.00044329
0.000448631
0.000454564
0.000460157
0.000464758
0.00046802
0.000469918
0.000470714
0.000470839
0.000470752
0.000470839
0.000471379
0.000472561
0.000474526
0.000477397
0.00048131
0.000486425
0.000492937
0.000501087
0.000511175
0.000523577
0.00053877
0.000557352
0.0005801
0.000608015
0.000642374
0.000684999
0.000737908
0.000804934
0.000888509
0.00099684
0.00113232
0.00124881
0.0108604
0.00588187
0.00263964
0.00125875
0.000688125
0.000466601
0.000377282
0.000350318
0.000359289
0.000427813
0.000542301
0.000663042
0.000746138
0.000803403
0.000869591
0.000947652
0.00100203
0.000987577
0.000907973
0.000792831
0.000676668
0.00058568
0.000520771
0.000478423
0.000453145
0.000439781
0.000434319
0.000433822
0.000436158
0.00043975
0.000443413
0.000446275
0.000447799
0.000447824
0.000446547
0.000444403
0.000441889
0.000439424
0.00043729
0.000435653
0.000434604
0.000434209
0.000434536
0.000435671
0.000437726
0.000440848
0.000445227
0.000451103
0.000458796
0.000468695
0.000481348
0.000497385
0.000517786
0.000543573
0.000576589
0.000618469
0.000672838
0.000740992
0.000831996
0.000899222
0.0106556
0.00601635
0.00294944
0.00145527
0.000786714
0.000510696
0.000404834
0.000377053
0.000387556
0.000449066
0.000550942
0.000660698
0.000753469
0.000847039
0.000959781
0.00107075
0.00113156
0.00110693
0.00100848
0.00087118
0.000735502
0.000629283
0.000550702
0.000497134
0.00046331
0.000443753
0.000433937
0.000430428
0.000430689
0.000432838
0.000435465
0.000437523
0.000438314
0.000437535
0.000435287
0.00043198
0.000428136
0.000424215
0.000420526
0.000417234
0.000414409
0.000412078
0.000410265
0.000409005
0.000408354
0.000408391
0.000409232
0.000411023
0.000413976
0.000418341
0.000424503
0.000432867
0.000444166
0.000458997
0.000478883
0.000504479
0.000539256
0.000582176
0.000642664
0.000683399
0.0105476
0.00615084
0.00324397
0.00167667
0.000912996
0.000577758
0.00044843
0.000414651
0.000422698
0.000478034
0.000572693
0.000682577
0.000796267
0.000929675
0.00108091
0.00121048
0.00126615
0.001225
0.00110537
0.000946103
0.000793409
0.000672155
0.000580404
0.000516263
0.000474483
0.000449261
0.000435591
0.00042955
0.000428183
0.000429296
0.000431275
0.000432944
0.000433497
0.000432512
0.000429983
0.000426255
0.000421847
0.000417247
0.000412797
0.000408673
0.000404939
0.0004016
0.000398652
0.000396093
0.000393941
0.00039223
0.00039102
0.000390395
0.000390487
0.000391452
0.000393558
0.000397061
0.000402511
0.000410249
0.000421504
0.000436463
0.000458119
0.000484806
0.000524596
0.000550571
0.0104975
0.00627838
0.00351607
0.00191258
0.00106388
0.000666112
0.000507663
0.000463109
0.000465644
0.000515836
0.000608387
0.000727015
0.000868741
0.00104127
0.00122119
0.00135728
0.00139963
0.00133772
0.00119596
0.00101623
0.000849533
0.000713731
0.000609439
0.000535167
0.000485721
0.000455054
0.000437739
0.000429387
0.000426606
0.000426859
0.000428319
0.000429712
0.000430184
0.000429247
0.000426798
0.000423097
0.000418625
0.000413875
0.000409209
0.000404821
0.000400775
0.000397066
0.000393671
0.000390567
0.000387744
0.000385205
0.000382973
0.000381088
0.000379625
0.000378674
0.000378418
0.00037901
0.000380863
0.000384156
0.000389886
0.000397982
0.000410989
0.000427165
0.000453141
0.000470684
0.0104819
0.00639566
0.00376128
0.00215295
0.00123531
0.000774753
0.000582209
0.000522975
0.000517429
0.000563363
0.000658476
0.000792569
0.000966464
0.00117468
0.00137353
0.00150655
0.00152956
0.00144371
0.00127942
0.0010819
0.000902964
0.000753714
0.00063764
0.000553652
0.000496717
0.00046067
0.000439762
0.000429181
0.000425094
0.000424581
0.000425558
0.000426654
0.000427013
0.000426146
0.000423895
0.000420436
0.000416183
0.000411608
0.000407076
0.000402792
0.000398822
0.00039516
0.000391769
0.000388614
0.000385669
0.000382918
0.000380358
0.000377999
0.000375879
0.000374041
0.000372606
0.000371656
0.000371506
0.00037222
0.000374624
0.000378484
0.00038601
0.000395505
0.000412542
0.00042528
0.0104864
0.00650165
0.00397761
0.00238867
0.00142212
0.000902338
0.000671878
0.000594806
0.000579103
0.000621214
0.000723025
0.000877852
0.00108583
0.00132478
0.00153392
0.00165612
0.00165507
0.00154258
0.00135547
0.00114346
0.000953198
0.000791834
0.000664916
0.000571723
0.000507485
0.000466069
0.000441532
0.000428718
0.000423378
0.000422173
0.000422707
0.000423469
0.000423618
0.000422723
0.000420631
0.000417459
0.000413546
0.000409313
0.000405112
0.000401145
0.000397482
0.000394112
0.000390997
0.000388092
0.000385363
0.000382783
0.000380337
0.000378014
0.000375828
0.000373794
0.00037199
0.000370448
0.000369414
0.000368871
0.000369527
0.000371027
0.000375361
0.000380853
0.000392456
0.000402631
0.0105021
0.00659651
0.00416514
0.0026121
0.00161817
0.00104678
0.000776587
0.000679165
0.000651377
0.00068969
0.000801639
0.000981323
0.00122369
0.0014879
0.00170012
0.00180535
0.00177571
0.00163406
0.00142391
0.00120117
0.000999751
0.000827735
0.000691112
0.000589395
0.000518142
0.000471389
0.000443147
0.000428034
0.000421442
0.000419612
0.000419777
0.000420216
0.000420079
0.000419032
0.000416988
0.000414047
0.00041048
0.000406646
0.000402861
0.000399314
0.000396071
0.00039312
0.000390419
0.000387922
0.000385592
0.000383398
0.000381318
0.000379333
0.000377445
0.00037565
0.000374001
0.0003725
0.000371347
0.000370469
0.0003705
0.000370984
0.0003738
0.000377213
0.000385952
0.000395061
0.0105235
0.00668107
0.00432546
0.0028175
0.00181675
0.00120499
0.000895808
0.000776323
0.000735303
0.000768864
0.000893401
0.0011011
0.00137709
0.00166128
0.00187066
0.00195353
0.0018909
0.00171775
0.00148604
0.00125372
0.00104205
0.000860958
0.000715954
0.000606597
0.000528771
0.000476796
0.000444782
0.000427261
0.000419364
0.000416949
0.000416839
0.000417028
0.000416597
0.000415309
0.000413195
0.000410386
0.000407109
0.00040366
0.000400303
0.000397204
0.000394416
0.000391926
0.00038969
0.000387663
0.000385807
0.000384094
0.0003825
0.000381007
0.000379611
0.000378302
0.000377122
0.000376055
0.000375278
0.000374683
0.000374863
0.000375284
0.000377795
0.000380531
0.000388312
0.000397428
0.0105472
0.00675638
0.00446117
0.00300116
0.00201118
0.00137285
0.00102829
0.00088621
0.000831627
0.000858738
0.000996883
0.00123481
0.00154308
0.00184258
0.00204418
0.00209956
0.00199973
0.00179307
0.00154267
0.00130013
0.00107951
0.000890978
0.000739059
0.000623133
0.000539357
0.000482398
0.0004466
0.000426549
0.000417245
0.000414241
0.000413945
0.000413998
0.000413335
0.000411784
0.000409515
0.00040674
0.000403676
0.00040056
0.000397602
0.000394932
0.000392588
0.00039055
0.000388773
0.000387215
0.000385841
0.000384625
0.000383551
0.000382602
0.000381777
0.000381068
0.000380516
0.000380102
0.000379994
0.000380067
0.000380907
0.000381915
0.000384986
0.000388055
0.000396299
0.000406221
0.0105711
0.0068235
0.00457534
0.0031613
0.00219536
0.00154534
0.00117185
0.00100815
0.000940597
0.000959561
0.00111028
0.00137954
0.00171848
0.00202934
0.00221891
0.00224176
0.00210086
0.00186005
0.00159358
0.00133976
0.00111157
0.000917273
0.000759987
0.000638706
0.00054977
0.000488214
0.00044871
0.000426032
0.000415191
0.000411537
0.00041111
0.000411155
0.000410374
0.000408601
0.000406147
0.000403336
0.00040041
0.000397563
0.000394954
0.000392673
0.000390736
0.000389114
0.00038776
0.000386635
0.00038571
0.000384965
0.000384389
0.000383974
0.000383727
0.000383645
0.000383777
0.00038411
0.000384819
0.000385775
0.000387584
0.000389596
0.000393817
0.000397932
0.000407687
0.000419021
0.0105941
0.00688341
0.00467123
0.00329784
0.00236428
0.00171693
0.00132333
0.00114071
0.00106178
0.00107197
0.00123177
0.00153181
0.00189962
0.0022186
0.00239232
0.00237777
0.00219257
0.00192044
0.00163692
0.0013721
0.00113779
0.000939388
0.000778302
0.000652962
0.000559788
0.000494166
0.000451148
0.000425807
0.000413295
0.00040889
0.000408338
0.00040848
0.000407717
0.000405815
0.000403195
0.000400315
0.00039747
0.000394835
0.000392522
0.00039058
0.000389002
0.000387747
0.000386767
0.000386024
0.000385497
0.000385172
0.000385047
0.000385122
0.000385414
0.000385934
0.000386741
0.000387835
0.000389409
0.000391342
0.000394281
0.000397541
0.000403292
0.000408929
0.000420949
0.000434143
0.0106153
0.00693699
0.00475193
0.003412
0.00251435
0.00188199
0.00147863
0.00128155
0.00119405
0.00119547
0.00136134
0.00168772
0.00208217
0.0024065
0.00256084
0.00250451
0.00227457
0.00197381
0.00167167
0.00139672
0.00115783
0.000956975
0.000793632
0.000665546
0.000569137
0.000500096
0.000453878
0.000425922
0.000411635
0.000406354
0.000405632
0.000405938
0.000405323
0.000403409
0.000400683
0.000397736
0.000394939
0.000392471
0.000390405
0.000388754
0.000387486
0.000386547
0.000385887
0.000385473
0.000385287
0.000385323
0.000385589
0.000386095
0.00038687
0.000387937
0.000389372
0.000391192
0.000393616
0.000396539
0.000400668
0.00040529
0.000412786
0.000420241
0.000435037
0.000450407
0.0106346
0.00698496
0.00482023
0.00350595
0.00264356
0.00203538
0.00163298
0.00142746
0.00133544
0.00132915
0.00149752
0.00184632
0.002261
0.00258793
0.00271958
0.002619
0.00234804
0.00201786
0.00169717
0.00141336
0.00117149
0.000969814
0.000805702
0.000676151
0.000577534
0.000505804
0.000456802
0.000426373
0.000410262
0.000403981
0.000403007
0.000403497
0.000403133
0.000401327
0.000398577
0.000395592
0.000392833
0.0003905
0.000388642
0.000387239
0.000386235
0.000385565
0.000385177
0.000385039
0.000385139
0.00038548
0.000386077
0.000386952
0.000388145
0.000389693
0.000391692
0.000394177
0.000397398
0.000401274
0.000406579
0.000412589
0.000421925
0.000431354
0.000449241
0.000466986
0.0106517
0.00702792
0.00487857
0.00358233
0.00275139
0.00217283
0.00178129
0.00157437
0.00148301
0.0014716
0.00163836
0.00200386
0.00243348
0.00275838
0.00286417
0.00272079
0.00241052
0.00205112
0.00171297
0.00142189
0.00117872
0.000977817
0.000814352
0.000684549
0.000584727
0.000511073
0.000459784
0.000427113
0.000409195
0.000401814
0.000400486
0.000401139
0.000401092
0.000399499
0.000396814
0.000393836
0.000391122
0.000388906
0.000387225
0.000386035
0.000385256
0.000384815
0.000384654
0.000384746
0.000385083
0.000385676
0.00038655
0.000387734
0.000389283
0.000391247
0.000393739
0.000396818
0.000400764
0.000405524
0.000411951
0.000419314
0.000430493
0.000441946
0.000463076
0.000483298
0.0106668
0.00706638
0.00492895
0.00364403
0.00283861
0.00229134
0.00191865
0.00171764
0.00163292
0.00162079
0.00178212
0.00215692
0.00259555
0.00291418
0.00299225
0.00280789
0.00245989
0.00207261
0.00171882
0.00142233
0.0011796
0.000981025
0.000819538
0.000690606
0.000590521
0.000515701
0.000462668
0.000428061
0.000408424
0.000399883
0.000398098
0.000398858
0.000399157
0.00039786
0.000395321
0.000392403
0.000389751
0.000387643
0.000386118
0.000385111
0.000384526
0.000384278
0.000384308
0.00038459
0.000385124
0.000385925
0.000387027
0.000388469
0.000390316
0.000392633
0.00039555
0.000399149
0.000403741
0.000409305
0.000416769
0.000425411
0.000438376
0.000451826
0.00047622
0.000498939
0.0106798
0.0071008
0.00497297
0.00369385
0.00290703
0.00238932
0.00204075
0.00185237
0.0017805
0.00177377
0.00192721
0.00230282
0.00274377
0.00305201
0.00310145
0.0028781
0.00249449
0.00208165
0.00171465
0.00141486
0.00117434
0.000979591
0.000821323
0.000694282
0.000594793
0.000519524
0.000465301
0.000429117
0.000407913
0.0003982
0.000395865
0.00039666
0.000397301
0.000396353
0.00039403
0.000391222
0.000388653
0.000386654
0.00038527
0.000384423
0.000384005
0.000383922
0.000384112
0.000384553
0.000385248
0.000386221
0.00038751
0.000389165
0.000391261
0.000393875
0.000397156
0.000401203
0.000406363
0.000412643
0.00042105
0.000430874
0.000445523
0.000460889
0.000488467
0.000513635
0.0106911
0.00713154
0.00501189
0.00373435
0.00295907
0.00246658
0.00214431
0.00197387
0.00192056
0.00192662
0.00207195
0.00243968
0.00287546
0.00316917
0.00318957
0.0029295
0.00251316
0.00207792
0.00170062
0.00139984
0.00116329
0.000973772
0.000819861
0.000695626
0.000597493
0.000522427
0.000467551
0.000430175
0.00040761
0.000396759
0.000393808
0.000394556
0.00039551
0.000394938
0.000392884
0.000390229
0.000387767
0.000385878
0.000384624
0.00038392
0.000383647
0.000383705
0.000384032
0.000384605
0.000385433
0.000386547
0.00038799
0.000389822
0.000392125
0.000394989
0.000398577
0.000403009
0.000408662
0.000415572
0.000424821
0.000435719
0.000451924
0.000469088
0.000499692
0.000527213
0.0107008
0.00715895
0.00504667
0.00376778
0.00299751
0.00252417
0.00222734
0.00207803
0.00204776
0.00207443
0.00221429
0.00256642
0.00298895
0.00326374
0.00325493
0.00296071
0.00251522
0.00206141
0.00167711
0.00137776
0.00114691
0.000963918
0.00081538
0.000694759
0.000598641
0.000524348
0.000469315
0.000431135
0.000407448
0.000395542
0.000391936
0.00039256
0.00039378
0.000393589
0.000391838
0.000389371
0.000387036
0.000385261
0.000384129
0.000383553
0.000383408
0.000383588
0.000384031
0.000384715
0.000385655
0.000386885
0.000388456
0.000390434
0.000392908
0.000395982
0.000399829
0.00040459
0.000410666
0.000418126
0.000428119
0.000439977
0.000457595
0.000476417
0.000509836
0.000539575
0.010709
0.00718334
0.00507801
0.00379596
0.0030252
0.00256411
0.00228926
0.00216179
0.00215713
0.00221154
0.00235144
0.00268239
0.00308359
0.00333481
0.00329657
0.00297103
0.00250051
0.00203242
0.00164468
0.00134927
0.00112576
0.000950449
0.000808173
0.000691857
0.000598312
0.000525277
0.000470525
0.000431911
0.000407363
0.000394519
0.000390251
0.000390683
0.000392112
0.000392289
0.000390859
0.000388607
0.000386413
0.000384757
0.00038374
0.000383281
0.00038325
0.000383537
0.000384078
0.000384857
0.00038589
0.000387217
0.000388894
0.000390992
0.00039361
0.000396859
0.000400925
0.000405964
0.000412403
0.000420337
0.00043098
0.000443688
0.000462571
0.000482895
0.000518886
0.000550684
0.0107159
0.00720502
0.00510643
0.00382035
0.00304479
0.00258907
0.00233081
0.00222339
0.00224453
0.00233198
0.00247966
0.002787
0.00315959
0.00338249
0.00331442
0.00296045
0.00246935
0.00199158
0.00160413
0.00131513
0.00110048
0.000933851
0.000798575
0.000687141
0.000596629
0.000525249
0.000471149
0.000432439
0.00040729
0.000393652
0.000388746
0.000388934
0.000390511
0.000391029
0.000389926
0.000387904
0.000385865
0.000384329
0.000383424
0.000383071
0.000383141
0.000383522
0.000384149
0.000385009
0.00038612
0.000387528
0.000389293
0.000391492
0.00039423
0.000397624
0.000401874
0.000407148
0.000413896
0.000422238
0.000433443
0.000446895
0.000466896
0.000488565
0.000526867
0.000560548
0.0107217
0.00722423
0.00513234
0.00384206
0.00305865
0.00260202
0.00235388
0.00226251
0.00230714
0.00243007
0.00259419
0.00287923
0.00321766
0.00340777
0.00330924
0.00292966
0.00242251
0.00193981
0.00155638
0.0012762
0.00107178
0.00091465
0.000786957
0.000680862
0.000593746
0.000524334
0.000471187
0.000432675
0.000407175
0.000392903
0.000387407
0.000387317
0.000388984
0.000389807
0.000389024
0.000387241
0.000385364
0.00038395
0.000383151
0.000382898
0.000383059
0.000383522
0.000384225
0.000385153
0.000386332
0.000387807
0.000389646
0.000391929
0.000394766
0.000398283
0.000402687
0.00040816
0.000415169
0.000423859
0.000435547
0.000449645
0.000470622
0.000493481
0.000533827
0.000569211
0.0107266
0.00724125
0.005156
0.00386187
0.00306875
0.00260598
0.00236118
0.00228022
0.00234365
0.00250107
0.00268956
0.00295717
0.00325852
0.00341215
0.00328242
0.00287979
0.00236111
0.00187825
0.00150254
0.00123342
0.00104041
0.000893401
0.000773708
0.000673286
0.00058984
0.000522631
0.00047067
0.000432598
0.000406975
0.000392234
0.000386217
0.000385832
0.000387538
0.000388624
0.000388147
0.000386603
0.000384892
0.000383601
0.000382905
0.000382743
0.000382986
0.000383523
0.000384292
0.000385281
0.000386516
0.000388049
0.000389949
0.000392302
0.000395223
0.000398842
0.000403375
0.000409015
0.000416245
0.00042523
0.00043733
0.000451983
0.000473804
0.000497703
0.000539836
0.00057674
0.0107306
0.00725631
0.00517766
0.00388031
0.00307665
0.00260374
0.00235589
0.0022788
0.00235445
0.00254181
0.00276011
0.00301782
0.00328234
0.00339718
0.00323561
0.00281231
0.00228652
0.00180824
0.00144377
0.00118776
0.00100712
0.000870667
0.000759227
0.000664689
0.000585098
0.000520257
0.000469649
0.000432206
0.000406657
0.000391608
0.000385154
0.000384475
0.000386175
0.000387482
0.000387289
0.000385981
0.000384437
0.000383268
0.00038267
0.000382594
0.000382913
0.000383516
0.000384343
0.000385384
0.000386668
0.00038825
0.000390202
0.000392614
0.000395604
0.000399309
0.00040395
0.000409729
0.000417145
0.000426379
0.000438829
0.000453955
0.0004765
0.000501299
0.000544973
0.000583219
0.010734
0.00726963
0.00519747
0.00389774
0.0030835
0.00259774
0.00234134
0.00226138
0.00234153
0.00255112
0.0028008
0.00305715
0.0032883
0.0033639
0.00317027
0.0027287
0.00220027
0.00173124
0.00138134
0.00114021
0.000972669
0.000847001
0.000743906
0.000655345
0.000579711
0.000517335
0.000468191
0.000431517
0.000406204
0.000390996
0.000384197
0.000383241
0.000384899
0.000386384
0.00038645
0.000385369
0.00038399
0.000382941
0.000382439
0.000382444
0.000382832
0.000383496
0.000384375
0.000385461
0.000386788
0.000388411
0.000390407
0.000392868
0.000395916
0.000399692
0.000404424
0.00041032
0.000417892
0.000427335
0.000440079
0.000455607
0.000478766
0.000504336
0.000549324
0.000588744
0.0107367
0.00728141
0.00521561
0.00391436
0.0030901
0.00259
0.00232072
0.00223165
0.00230814
0.00252996
0.00280805
0.0030706
0.00327441
0.00331243
0.00308736
0.00263035
0.00210401
0.00164881
0.00131653
0.00109175
0.000937784
0.000822935
0.000728125
0.000645521
0.000573866
0.000513998
0.000466375
0.00043056
0.000405608
0.000390374
0.000383323
0.000382119
0.000383711
0.000385334
0.00038563
0.000384764
0.000383546
0.000382616
0.000382206
0.000382288
0.000382741
0.00038346
0.000384385
0.000385513
0.000386876
0.000388534
0.000390568
0.00039307
0.000396167
0.000400003
0.000404809
0.000410803
0.000418504
0.000428122
0.000441113
0.000456978
0.000480655
0.000506881
0.000552976
0.000593412
0.010739
0.00729183
0.0052322
0.00393026
0.00309697
0.00258202
0.00229687
0.0021934
0.00225848
0.00248134
0.00278045
0.00305389
0.00323766
0.00324181
0.00298716
0.00251852
0.00199942
0.00156259
0.00125061
0.0010433
0.000903139
0.000798961
0.000712239
0.000635469
0.000567744
0.000510371
0.000464282
0.000429375
0.000404873
0.000389723
0.000382513
0.000381098
0.000382611
0.000384334
0.000384831
0.000384165
0.000383103
0.000382289
0.00038197
0.000382124
0.000382639
0.000383408
0.000384376
0.00038554
0.000386935
0.000388625
0.00039069
0.000393227
0.000396364
0.000400249
0.000405118
0.000411193
0.000419001
0.000428765
0.000441961
0.00045811
0.000482219
0.000508996
0.000556014
0.00059732
0.0107409
0.00730107
0.00524738
0.0039455
0.00310436
0.00257491
0.00227215
0.00215025
0.00219719
0.00240991
0.00271919
0.003004
0.00317473
0.00315027
0.00286935
0.00239442
0.00188832
0.00147423
0.00118483
0.000995753
0.000869351
0.000775526
0.000696569
0.000625418
0.000561509
0.000506576
0.000461998
0.00042801
0.000404012
0.000389032
0.000381746
0.000380167
0.000381594
0.000383386
0.000384054
0.000383571
0.00038266
0.000381958
0.000381727
0.000381953
0.000382525
0.000383342
0.000384349
0.000385546
0.00038697
0.000388686
0.000390778
0.000393344
0.000396515
0.000400441
0.000405362
0.000411503
0.000419401
0.000429286
0.000442652
0.000459035
0.000483504
0.000510741
0.00055852
0.000600566
0.0107424
0.00730927
0.00526126
0.00396008
0.00311239
0.00256935
0.00224837
0.00210541
0.00212891
0.00232141
0.00262803
0.00292009
0.00308285
0.00303585
0.00273406
0.00225951
0.00177268
0.00138542
0.00112039
0.000949888
0.000836959
0.000753016
0.000681401
0.000615577
0.000555315
0.000502726
0.000459604
0.000426513
0.000403043
0.000388295
0.000381008
0.000379311
0.000380656
0.000382491
0.000383301
0.000382984
0.000382214
0.000381624
0.000381479
0.000381774
0.000382401
0.000383263
0.000384307
0.000385534
0.000386984
0.000388724
0.000390838
0.000393429
0.000396628
0.000400588
0.000405552
0.000411748
0.000419719
0.000429704
0.00044321
0.000459788
0.000484552
0.00051217
0.000560569
0.000603237
0.0107436
0.00731657
0.00527395
0.003974
0.00312103
0.00256571
0.00222683
0.00206148
0.00205793
0.002222
0.0025129
0.00280416
0.00296096
0.00289735
0.00258236
0.00211575
0.00165473
0.00129788
0.00105839
0.000906402
0.000806419
0.000731755
0.000666975
0.000606123
0.000549293
0.000498921
0.000457174
0.000424937
0.00040199
0.000387513
0.000380285
0.000378517
0.000379791
0.000381648
0.000382574
0.000382405
0.000381768
0.000381285
0.000381226
0.000381588
0.000382269
0.000383174
0.000384252
0.000385507
0.000386981
0.000388741
0.000390875
0.000393487
0.00039671
0.000400698
0.000405696
0.000411938
0.000419969
0.000430036
0.000443658
0.000460395
0.000485401
0.000513332
0.000562231
0.000605417
0.0107446
0.00732309
0.00528558
0.00398726
0.00313019
0.00256411
0.00220833
0.00202045
0.0019879
0.00211768
0.00238111
0.00266109
0.00281061
0.00273539
0.00241562
0.00196582
0.00153691
0.00121327
0.000999829
0.000865876
0.000778098
0.000712003
0.000653486
0.000597207
0.000543557
0.00049525
0.000454778
0.000423329
0.00040088
0.00038669
0.000379567
0.000377773
0.000378991
0.000380857
0.000381873
0.000381833
0.000381322
0.000380943
0.000380967
0.000381396
0.00038213
0.000383076
0.000384187
0.000385468
0.000386963
0.000388742
0.000390894
0.000393524
0.000396766
0.000400778
0.000405805
0.000412084
0.000420164
0.000430298
0.000444014
0.000460882
0.000486084
0.000514269
0.000563567
0.000607181
0.0107454
0.00732894
0.00529623
0.00399984
0.00313975
0.00256448
0.00219326
0.00198365
0.0019217
0.00201378
0.00224049
0.00249815
0.00263631
0.00255313
0.00223736
0.00181329
0.00142189
0.0011332
0.000945561
0.000828764
0.000752265
0.000693948
0.000641083
0.000588948
0.000538202
0.000491787
0.000452476
0.000421736
0.00039974
0.000385834
0.000378846
0.000377066
0.000378248
0.000380114
0.000381199
0.000381271
0.000380875
0.000380598
0.000380705
0.0003812
0.000381986
0.000382972
0.000384115
0.00038542
0.000386935
0.000388731
0.000390899
0.000393544
0.000396803
0.000400833
0.000405884
0.000412194
0.000420314
0.000430503
0.000444295
0.000461269
0.000486629
0.00051502
0.000564632
0.000608596
0.010746
0.0073342
0.00530601
0.00401175
0.00314955
0.00256664
0.00218173
0.00195186
0.00186134
0.00191461
0.00209851
0.00232407
0.00244532
0.00235641
0.00205292
0.00166239
0.00131233
0.00105906
0.000896253
0.000795384
0.000729095
0.000677715
0.000629872
0.000581435
0.000533301
0.000488593
0.000450319
0.000420199
0.000398598
0.000384955
0.000378119
0.000376385
0.000377553
0.000379415
0.000380552
0.000380718
0.000380429
0.00038025
0.00038044
0.000381001
0.000381838
0.000382864
0.000384037
0.000385366
0.0003869
0.000388711
0.000390893
0.000393551
0.000396824
0.000400871
0.000405941
0.000412275
0.000420429
0.000430661
0.000444515
0.000461575
0.000487062
0.000515618
0.000565473
0.000609721
0.0107465
0.00733896
0.00531501
0.004023
0.00315948
0.00257036
0.00217359
0.00192538
0.00180808
0.00182335
0.00196158
0.00214784
0.00224667
0.00215325
0.00186896
0.00151766
0.00121072
0.000991992
0.000852365
0.000765914
0.000708671
0.000663366
0.000619914
0.000574728
0.000528908
0.000485716
0.000448349
0.000418754
0.00039748
0.000384065
0.000377383
0.00037572
0.000376895
0.000378756
0.00037993
0.000380175
0.000379984
0.0003799
0.000380172
0.0003808
0.000381688
0.000382752
0.000383954
0.000385306
0.000386858
0.000388684
0.000390878
0.000393548
0.000396834
0.000400894
0.00040598
0.000412334
0.000420514
0.000430782
0.000444686
0.000461814
0.000487403
0.000516089
0.000566131
0.000610607
0.0107469
0.00734328
0.00532332
0.00403363
0.00316939
0.00257535
0.00216853
0.00190416
0.00176251
0.00174205
0.00183461
0.00197763
0.00204988
0.00195264
0.00169243