/*--------------------------------*- C++ -*----------------------------------*\
| =========                 |                                                 |
| \\      /  F ield         | OpenFOAM: The Open Source CFD Toolbox           |
|  \\    /   O peration     | Version:  2.4.0                                 |
|   \\  /    A nd           | Web:      www.OpenFOAM.org                      |
|    \\/     M anipulation  |                                                 |
\*---------------------------------------------------------------------------*/
FoamFile
{
    version     2.0;
    format      ascii;
    class       volScalarField;
    location    "4.66";
    object      k;
}
// * * * * * * * * * * * * * * * * * * * * * * * * * * * * * * * * * * * * * //

dimensions      [0 2 -2 0 0 0 0];

internalField   nonuniform List<scalar> 
6000
(
0.168225
0.0132703
0.000978955
0.00362118
0.00250569
0.00292651
0.00242242
0.00239241
0.00212683
0.00205282
0.00192044
0.00188444
0.00185092
0.00187908
0.00193159
0.00202939
0.00215613
0.00231936
0.00251323
0.00274179
0.00300366
0.00329999
0.00362838
0.00398592
0.0043673
0.00476669
0.005177
0.00559011
0.00599653
0.00638546
0.00674474
0.00706085
0.00731906
0.00750344
0.00759686
0.00758329
0.00744817
0.007179
0.00676988
0.00622178
0.00555357
0.00479974
0.00401858
0.00389475
0.00511659
0.00663833
0.0084429
0.0106556
0.013114
0.0161505
0.0192052
0.023335
0.0267731
0.0328213
0.0359933
0.0463684
0.047223
0.0687984
0.0621617
0.111173
0.0762048
0.0101509
0.000944808
0.00240507
0.00171411
0.00192234
0.00160903
0.00156995
0.0014027
0.0013472
0.00126309
0.0012363
0.00121465
0.00123032
0.00126268
0.00132251
0.00140072
0.00150087
0.00161971
0.00175907
0.00191804
0.00209688
0.00229403
0.00250765
0.00273483
0.0029726
0.00321754
0.00346604
0.00371413
0.00395751
0.00419158
0.00441147
0.00461207
0.00478773
0.00493287
0.00504246
0.00511254
0.0051405
0.00512704
0.00507665
0.00500186
0.00492194
0.0048533
0.00498015
0.00551745
0.00614108
0.00687106
0.00776726
0.00877555
0.0100313
0.0113254
0.0130721
0.0146041
0.0171938
0.0187684
0.0231857
0.0241151
0.0331212
0.0315897
0.0514809
0.0412217
0.00802983
0.000973552
0.00168797
0.00122341
0.0013132
0.00110768
0.00106777
0.000958587
0.000917565
0.00086414
0.000847016
0.000836774
0.000851354
0.000879354
0.00092663
0.000988362
0.00106657
0.00115984
0.0012694
0.00139511
0.00153726
0.0016951
0.00186765
0.00205336
0.0022507
0.00245803
0.00267378
0.00289639
0.00312439
0.00335642
0.00359134
0.00382824
0.00406587
0.00430315
0.0045399
0.00477681
0.00501564
0.00525992
0.00551513
0.00578903
0.00608931
0.00639922
0.00668043
0.00695787
0.00719262
0.00742612
0.00769689
0.0080041
0.00840732
0.00884569
0.00947857
0.0100735
0.0111115
0.0118331
0.0137057
0.0143556
0.0182255
0.0182008
0.0266295
0.0260623
0.00677412
0.00107085
0.00126675
0.00091626
0.000934518
0.000790316
0.000751969
0.000678047
0.000648189
0.000615288
0.000607443
0.000607992
0.000627258
0.000659157
0.000707233
0.000769334
0.000847101
0.00094048
0.00105085
0.00117881
0.00132505
0.00148953
0.00167189
0.00187138
0.00208719
0.00231855
0.00256475
0.00282527
0.00309973
0.00338808
0.00369053
0.00400769
0.00433874
0.00468374
0.00504378
0.0054201
0.00581443
0.00622917
0.00666712
0.00713038
0.00761787
0.00809374
0.00846544
0.00871053
0.00884703
0.008914
0.00893611
0.0089318
0.00893004
0.00893266
0.00899881
0.00907412
0.00932585
0.00951747
0.0101693
0.0104651
0.0120363
0.0122899
0.015922
0.0187963
0.00609212
0.00123224
0.00103247
0.000726788
0.000696358
0.000586073
0.000549191
0.000497044
0.000475797
0.000457428
0.000458427
0.000469463
0.000496793
0.00053753
0.000594273
0.000666661
0.000756504
0.000864823
0.000993401
0.00114354
0.00131636
0.00151231
0.00173139
0.00197316
0.00223705
0.00252242
0.00282872
0.00315551
0.00350252
0.0038697
0.00425723
0.00466528
0.00509093
0.0055347
0.00599679
0.00647721
0.00697599
0.00749346
0.00802983
0.00858408
0.009152
0.00968965
0.0101175
0.0104082
0.0105704
0.0106328
0.0106086
0.0105167
0.0103688
0.0101864
0.00998725
0.00978588
0.00962606
0.00947937
0.00949088
0.00946388
0.00990773
0.0100295
0.0115571
0.015049
0.00576626
0.00144824
0.000925069
0.000617088
0.000547772
0.000454271
0.000417646
0.000378955
0.000364389
0.000356962
0.000366535
0.000388098
0.000425767
0.00047868
0.000549186
0.000638196
0.000747896
0.000880123
0.00103708
0.00122055
0.00143193
0.00167187
0.00194035
0.00223682
0.00256045
0.00291032
0.00328548
0.00368508
0.00410835
0.00455468
0.00502358
0.00551308
0.0060193
0.00654244
0.00708153
0.00763526
0.00820223
0.0087814
0.00937169
0.00997122
0.0105744
0.011136
0.0116017
0.0119454
0.0121601
0.0122665
0.0122705
0.0121887
0.0120226
0.0117973
0.0115101
0.0111977
0.0108523
0.0105229
0.0102057
0.00994571
0.00980691
0.00970719
0.0102733
0.0130163
0.00565588
0.00170762
0.000909932
0.000565268
0.000459185
0.000370889
0.000332786
0.000302147
0.00029277
0.000294087
0.000312131
0.00034448
0.000394164
0.000461638
0.000549327
0.000659029
0.000793302
0.000954505
0.0011451
0.00136709
0.00162189
0.00191005
0.00223129
0.00258466
0.0029689
0.00338255
0.00382416
0.0042923
0.00478556
0.00530265
0.00584245
0.00639967
0.00697179
0.00755795
0.00815617
0.00876419
0.00937962
0.0100006
0.0106256
0.0112526
0.0118735
0.0124468
0.0129385
0.0133231
0.0135832
0.0137337
0.013777
0.0137283
0.0135845
0.0133714
0.0130762
0.0127431
0.01234
0.0119434
0.011486
0.0111029
0.0106791
0.0104068
0.0105184
0.0118779
0.00567208
0.00199822
0.000965493
0.000559172
0.000413238
0.000321468
0.000279834
0.000253482
0.000248076
0.000256731
0.000283228
0.000326699
0.00038963
0.000473328
0.000580377
0.000713138
0.000874397
0.00106675
0.00129272
0.00155433
0.00185285
0.00218861
0.00256098
0.00296861
0.00340974
0.00388246
0.00438477
0.0049147
0.00547023
0.00604945
0.00664999
0.0072649
0.00789256
0.00853108
0.00917771
0.00982946
0.0104832
0.0111366
0.0117878
0.012435
0.0130648
0.0136458
0.0141544
0.0145657
0.0148571
0.0150395
0.0151131
0.0150931
0.0149737
0.0147823
0.0145012
0.0141789
0.0137717
0.0133682
0.0128712
0.0124508
0.0119134
0.0115571
0.0114496
0.0112303
0.0057586
0.00230739
0.00107777
0.000591047
0.00039987
0.000297261
0.000249756
0.000224823
0.000222298
0.000237304
0.000272229
0.000327106
0.000404115
0.000505063
0.00063264
0.000789478
0.000978433
0.00120213
0.00146304
0.00176312
0.00210351
0.00248432
0.00290465
0.00336273
0.00385641
0.00438331
0.00494096
0.00552686
0.00613843
0.00677322
0.00742698
0.00809284
0.00876913
0.00945315
0.0101415
0.0108306
0.0115167
0.0121971
0.0128699
0.0135321
0.0141665
0.0147521
0.0152703
0.0156964
0.0160061
0.0162076
0.0162995
0.0162971
0.0161938
0.0160181
0.0157502
0.0154422
0.0150444
0.0146537
0.0141573
0.0137437
0.0131796
0.0128102
0.0125932
0.0108621
0.00588001
0.00262266
0.00123573
0.000656108
0.000413616
0.000293089
0.00023703
0.000211074
0.000210353
0.000230898
0.000274145
0.000340572
0.000432114
0.000550787
0.000699276
0.000880263
0.00109656
0.00135072
0.00164518
0.00198183
0.00236176
0.00278493
0.00325014
0.00375531
0.00429787
0.00487503
0.00548382
0.00612126
0.00678423
0.00746986
0.00817137
0.00888334
0.00960336
0.010328
0.0110533
0.0117752
0.0124894
0.0131929
0.0138838
0.0145559
0.0151923
0.0157798
0.0163013
0.0167327
0.0170502
0.01726
0.0173596
0.0173646
0.0172679
0.0170992
0.0168377
0.0165384
0.0161484
0.0157713
0.0152856
0.0148927
0.0143362
0.0139909
0.0137113
0.010657
0.00601448
0.00293259
0.00142921
0.000750973
0.000451781
0.000306114
0.000238377
0.000209076
0.000208999
0.00023429
0.000285616
0.000363558
0.000469758
0.00060621
0.000775477
0.000980149
0.00122295
0.00150636
0.00183282
0.00220423
0.00262164
0.00308487
0.0035925
0.00414209
0.00473067
0.00535503
0.00601172
0.0066973
0.00740808
0.0081405
0.008886
0.00964029
0.0104002
0.0111616
0.01192
0.012671
0.0134096
0.014133
0.0148384
0.0155154
0.016152
0.0167381
0.0172576
0.0176869
0.0180039
0.0182134
0.0183124
0.0183165
0.0182185
0.0180491
0.0177869
0.0174894
0.0171022
0.0167336
0.0162574
0.015885
0.015345
0.0150356
0.0147114
0.0105488
0.00614912
0.0032276
0.0016481
0.000873245
0.000512474
0.000335127
0.000252019
0.000216959
0.000216204
0.000245365
0.000304362
0.000393601
0.000514337
0.000668353
0.000857999
0.0010857
0.0013541
0.00166562
0.00202273
0.0024274
0.00288064
0.00338215
0.00393025
0.00452214
0.00515444
0.00582354
0.0065255
0.00725644
0.00801213
0.00878781
0.00957429
0.0103677
0.0111641
0.0119589
0.0127471
0.0135238
0.0142836
0.0150235
0.015739
0.0164174
0.0170519
0.0176335
0.0181461
0.0185675
0.0188776
0.0190802
0.019172
0.0191688
0.0190634
0.018887
0.0186187
0.0183172
0.0179276
0.0175621
0.0170911
0.0167348
0.0162099
0.0159362
0.0155737
0.0104986
0.00627689
0.00350058
0.00188223
0.00102012
0.000594291
0.000380148
0.000277251
0.000233759
0.00023078
0.000262782
0.000328866
0.000429026
0.000564011
0.000735246
0.0009448
0.00119489
0.00148809
0.00182678
0.00221351
0.00265026
0.00313803
0.00367636
0.00426334
0.00489575
0.00556984
0.00628156
0.00702653
0.00780041
0.00859848
0.00941432
0.0102391
0.0110687
0.0118986
0.0127237
0.0135384
0.0143377
0.0151155
0.0158688
0.0165888
0.0172663
0.0178962
0.0184699
0.0189716
0.0193803
0.0196782
0.0198687
0.0199483
0.0199327
0.0198153
0.0196275
0.0193488
0.0190389
0.018643
0.0182759
0.0178063
0.0174611
0.0169476
0.0167049
0.0163067
0.0104827
0.00639445
0.00374701
0.0021217
0.00118789
0.000696362
0.00044129
0.00031417
0.000259188
0.000252158
0.000285774
0.00035818
0.00046875
0.000617602
0.000805672
0.00103469
0.00130663
0.00162402
0.00198917
0.00240469
0.00287259
0.00339381
0.00396776
0.00459221
0.00526358
0.0059777
0.00673014
0.00751602
0.00833063
0.00916881
0.0100219
0.0108823
0.0117453
0.0126058
0.0134581
0.0142963
0.0151151
0.0159077
0.01667
0.0173907
0.0180648
0.0186872
0.0192499
0.019737
0.0201291
0.0204106
0.0205848
0.0206482
0.0206166
0.0204837
0.0202811
0.019989
0.0196676
0.0192626
0.0188905
0.0184191
0.018081
0.017575
0.0173583
0.016926
0.010487
0.00650069
0.00396483
0.00235747
0.00137172
0.000817735
0.00051846
0.000363537
0.000293493
0.000280252
0.000314012
0.000391792
0.00051214
0.000674417
0.000878951
0.00112708
0.00142045
0.00176155
0.00215262
0.00259628
0.00309455
0.00364829
0.00425674
0.00491739
0.00562626
0.00637875
0.00717008
0.0079949
0.00884809
0.00972374
0.0106116
0.0115052
0.0123989
0.0132872
0.0141638
0.0150224
0.0158575
0.0166617
0.0174275
0.0181463
0.0188143
0.0194265
0.019975
0.020444
0.0208162
0.0210779
0.0212324
0.0212766
0.021226
0.0210751
0.0208553
0.0205478
0.0202126
0.0197966
0.0194173
0.0189421
0.0186081
0.0181066
0.0179111
0.0174466
0.0105025
0.00659578
0.004154
0.00258193
0.0015658
0.000956746
0.000611611
0.000426195
0.000337374
0.000315376
0.000347527
0.000429523
0.000558895
0.000734112
0.000954756
0.00122169
0.00153619
0.00190067
0.00231723
0.00278849
0.00331643
0.00390183
0.00454373
0.00523935
0.00598428
0.00677352
0.00760195
0.00846375
0.00935343
0.0102639
0.0111843
0.0121084
0.0130301
0.0139433
0.0148412
0.0157172
0.0165656
0.0173765
0.0181421
0.0188563
0.0195155
0.0201146
0.0206458
0.0210938
0.0214431
0.021682
0.0218141
0.0218365
0.0217648
0.021594
0.0213553
0.021031
0.0206809
0.0202528
0.0198648
0.0193846
0.0190525
0.0185536
0.0183753
0.0178809
0.0105238
0.00668051
0.00431602
0.00278924
0.00176372
0.00111076
0.000720678
0.000502535
0.00039194
0.00035819
0.000386649
0.000471468
0.000608964
0.000796579
0.00103299
0.00131848
0.00165387
0.00204148
0.00248317
0.00298155
0.00353853
0.00415476
0.00482908
0.00555844
0.00633799
0.00716235
0.00802607
0.00892288
0.00984697
0.0107895
0.0117401
0.0126922
0.0136391
0.0145743
0.0154906
0.0163808
0.0172386
0.0180514
0.0188141
0.0195209
0.0201683
0.0207514
0.0212625
0.0216867
0.0220105
0.0222242
0.0223315
0.0223301
0.0222355
0.0220435
0.021785
0.0214431
0.0210772
0.0206367
0.0202393
0.0197535
0.0194219
0.0189245
0.0187603
0.0182388
0.0105474
0.00675592
0.00445337
0.00297551
0.00195895
0.0012761
0.000844963
0.000592856
0.000458304
0.000409673
0.000431983
0.000517955
0.00066249
0.000861874
0.00111368
0.00141754
0.00177362
0.00218416
0.00265068
0.00317573
0.00376112
0.00440735
0.00511305
0.0058749
0.00668763
0.00754543
0.00844261
0.0093724
0.0103288
0.0113007
0.012279
0.0132564
0.0142258
0.01518
0.0161116
0.0170129
0.0178746
0.0186863
0.0194432
0.0201397
0.0207724
0.0213366
0.0218247
0.0222225
0.0225185
0.0227048
0.0227854
0.0227587
0.0226399
0.0224258
0.0221467
0.021787
0.0214052
0.0209523
0.0205453
0.0200539
0.0197221
0.0192259
0.0190731
0.0185277
0.0105712
0.0068231
0.00456906
0.00313876
0.00214542
0.00144814
0.000982903
0.000697355
0.000537143
0.000471105
0.0004844
0.000569524
0.000719777
0.00093018
0.00119697
0.00151899
0.00189559
0.00232889
0.00281997
0.00337126
0.00398443
0.00465981
0.00539584
0.0061889
0.00703331
0.00792282
0.00885158
0.00981228
0.0107985
0.0117973
0.0128007
0.0138007
0.0147897
0.0157599
0.0167037
0.0176111
0.018473
0.0192807
0.0200287
0.0207119
0.021327
0.0218695
0.0223318
0.0227008
0.0229669
0.0231238
0.0231761
0.0231227
0.022979
0.0227421
0.0224423
0.0220648
0.0216674
0.0212026
0.0207861
0.0202898
0.0199574
0.0194625
0.0193192
0.0187536
0.0105941
0.00688304
0.00466627
0.00327868
0.00231801
0.00162159
0.00113194
0.000815642
0.000629011
0.000543688
0.000545024
0.000626925
0.000781288
0.00100178
0.00128305
0.00162301
0.00201996
0.00247586
0.00299122
0.00356831
0.00420863
0.0049123
0.00567755
0.00650051
0.00737504
0.00829449
0.00925286
0.0102423
0.0112557
0.0122789
0.0133048
0.0143247
0.0153302
0.0163134
0.0172648
0.0181741
0.0190333
0.0198337
0.0205698
0.0212368
0.0218313
0.0223491
0.022783
0.023121
0.0233552
0.0234811
0.0235036
0.0234225
0.023253
0.0229933
0.0226728
0.022278
0.0218655
0.0213896
0.0209644
0.020464
0.020131
0.0196383
0.019503
0.0189211
0.0106153
0.00693661
0.00474808
0.00339628
0.00247291
0.00179094
0.00128851
0.000946539
0.000734152
0.000628336
0.000615233
0.000691126
0.000847638
0.00107706
0.00137218
0.0017298
0.00214688
0.00262524
0.00316459
0.00376705
0.00443386
0.00516492
0.00595824
0.00680973
0.00771279
0.00866031
0.00964628
0.0106623
0.0117001
0.0127452
0.0137908
0.0148276
0.0158466
0.0168385
0.017793
0.0187011
0.0195543
0.0203443
0.0210655
0.0217131
0.0222841
0.0227744
0.0231774
0.0234822
0.0236827
0.0237759
0.0237675
0.0236578
0.0234623
0.0231796
0.0228389
0.0224275
0.0220009
0.021515
0.0210821
0.0205788
0.0202456
0.0197561
0.0196279
0.0190339
0.0106345
0.00698454
0.00481729
0.00349352
0.00260779
0.00195095
0.0014482
0.00108793
0.000852214
0.000725603
0.000696498
0.000763305
0.000919611
0.00115651
0.00146464
0.00183957
0.00227652
0.00277717
0.0033402
0.00396756
0.00466017
0.0054177
0.00623791
0.00711651
0.00804642
0.00902008
0.0100316
0.0110719
0.0121311
0.0131954
0.0142581
0.0153087
0.0163368
0.0173331
0.0182876
0.0191912
0.0200352
0.0208116
0.0215146
0.0221397
0.0226841
0.0231442
0.0235138
0.0237833
0.0239485
0.0240076
0.0239671
0.0238284
0.0236066
0.0233013
0.0229409
0.022514
0.0220743
0.0215799
0.0211405
0.0206358
0.0203031
0.0198184
0.0196966
0.019095
0.0106516
0.00702745
0.00487631
0.00357291
0.00272174
0.00209707
0.00160604
0.00123673
0.000982058
0.000835588
0.000789695
0.00084523
0.000998168
0.00124071
0.00156079
0.00195253
0.00240901
0.00293173
0.00351812
0.00416989
0.0048876
0.00567063
0.00651649
0.0074207
0.00837574
0.00937354
0.0104084
0.0114704
0.0125484
0.013629
0.0147058
0.0157655
0.0167989
0.0177962
0.0187475
0.0196432
0.0204747
0.0212341
0.0219157
0.0225152
0.0230301
0.0234571
0.023791
0.0240233
0.0241514
0.0241753
0.0241019
0.0239336
0.0236855
0.0233581
0.0229789
0.0225377
0.0220865
0.0215852
0.0211408
0.0206365
0.0203053
0.0198271
0.0197116
0.0191069
0.0106666
0.00706587
0.00492718
0.00363721
0.00281519
0.00222584
0.00175693
0.00138893
0.00112163
0.000957745
0.000895184
0.000938195
0.00108507
0.00133036
0.00166101
0.00206891
0.00254444
0.00308899
0.00369836
0.00437401
0.00511607
0.00592359
0.00679381
0.0077221
0.00870047
0.00972031
0.0107762
0.011857
0.0129511
0.0140451
0.0151309
0.0161966
0.0172319
0.0182269
0.0191715
0.0200559
0.0208715
0.0216106
0.0222675
0.0228382
0.0233206
0.0237119
0.0240077
0.0242009
0.0242906
0.024278
0.024171
0.0239728
0.0236988
0.0233498
0.022953
0.0224988
0.0220377
0.0215316
0.0210839
0.0205819
0.0202536
0.0197839
0.0196748
0.0190718
0.0106796
0.00710023
0.00497154
0.00368919
0.00288958
0.00233508
0.00189606
0.00153986
0.00126789
0.00109072
0.00101278
0.00104266
0.00118187
0.0014272
0.00176576
0.00218889
0.00268288
0.00324892
0.00388083
0.00457979
0.00534542
0.00617639
0.00706963
0.00802038
0.00902023
0.01006
0.0111347
0.0122311
0.0133373
0.0144408
0.0155327
0.0166008
0.0176347
0.018624
0.0195582
0.0204279
0.0212242
0.0219395
0.0225684
0.0231072
0.0235542
0.0239072
0.0241626
0.0243149
0.0243647
0.0243147
0.0241736
0.0239454
0.0236457
0.0232762
0.022863
0.0223976
0.0219284
0.0214195
0.0209705
0.0204731
0.020149
0.01969
0.0195879
0.0189914
0.0106909
0.00713093
0.00501066
0.0037314
0.00294708
0.00242397
0.00201936
0.0016845
0.0014169
0.00123222
0.00114156
0.00115862
0.00128899
0.00153251
0.00187707
0.00231263
0.00282429
0.00341138
0.00406533
0.004787
0.00557537
0.0064287
0.00734357
0.00831512
0.00933452
0.0103919
0.0114819
0.0125902
0.0137055
0.0148153
0.0159098
0.0169771
0.018006
0.0189859
0.0199064
0.0207577
0.0215311
0.0222193
0.0228169
0.0233207
0.0237293
0.0240413
0.0242542
0.024364
0.0243727
0.0242844
0.0241087
0.0238507
0.0235259
0.0231368
0.0227087
0.0222339
0.0217589
0.0212494
0.0208013
0.0203109
0.0199927
0.0195468
0.0194526
0.0188675
0.0107005
0.00715831
0.00504554
0.00376608
0.00299026
0.00249295
0.00212386
0.00181792
0.00156398
0.00137896
0.00127974
0.00128541
0.00140644
0.00164649
0.00199521
0.00244169
0.00296984
0.00357613
0.00425151
0.00499522
0.00580547
0.00668002
0.00761508
0.00860527
0.00964141
0.0107138
0.0118161
0.0129333
0.0140545
0.0151673
0.0162611
0.0173239
0.0183443
0.0193113
0.0202144
0.0210438
0.0217908
0.0224483
0.0230113
0.0234769
0.0238443
0.024113
0.0242813
0.0243469
0.0243133
0.024186
0.0239756
0.0236879
0.0233389
0.0229314
0.0224901
0.022008
0.0215293
0.0210217
0.020577
0.0200961
0.0197857
0.0193555
0.0192704
0.0187015
0.0107087
0.00718269
0.00507692
0.00379514
0.00302185
0.00254351
0.00220787
0.00193573
0.00170404
0.00152678
0.00142455
0.00142155
0.00153361
0.00176896
0.00212001
0.00257573
0.00311897
0.00374344
0.00443922
0.00520389
0.00603476
0.00692902
0.00788247
0.00888921
0.00993976
0.0110246
0.012136
0.013259
0.0143829
0.0154953
0.0165851
0.0176398
0.018648
0.0195985
0.0204805
0.0212843
0.0220013
0.0226247
0.0231498
0.0235742
0.0238977
0.0241205
0.0242423
0.0242623
0.0241855
0.0240187
0.0237734
0.0234566
0.0230841
0.0226598
0.022207
0.0217199
0.0212399
0.020737
0.0202981
0.0198294
0.019529
0.0191172
0.0190425
0.0184948
0.0107156
0.00720435
0.00510535
0.00382007
0.00304449
0.00257788
0.00227107
0.00203449
0.00183203
0.00167078
0.00157222
0.0015646
0.00166914
0.00189919
0.00225094
0.0027141
0.00327088
0.0039123
0.00462733
0.0054118
0.00626198
0.00717439
0.00814438
0.00916558
0.0102282
0.0113228
0.01244
0.0135658
0.0146893
0.0157979
0.01688
0.0179231
0.0189154
0.0198456
0.0207028
0.0214773
0.0221608
0.0227466
0.0232306
0.0236107
0.0238876
0.0240623
0.0241358
0.0241089
0.0239881
0.0237814
0.0235014
0.023156
0.0227614
0.0223218
0.0218597
0.0213698
0.0208913
0.0203958
0.0199655
0.0195118
0.0192236
0.0188331
0.0187706
0.0182488
0.0107215
0.00722357
0.00513123
0.00384205
0.00306055
0.00259876
0.00231436
0.002112
0.00194334
0.00180569
0.00171813
0.00171113
0.00181078
0.00203575
0.00238693
0.00285576
0.00342436
0.00408136
0.00481437
0.00561738
0.0064855
0.00741449
0.00839918
0.0094327
0.010505
0.0116066
0.0127266
0.013852
0.0149717
0.016073
0.0171438
0.0181717
0.0191444
0.0200505
0.0208792
0.0216208
0.0222672
0.0228121
0.0232517
0.0235847
0.0238124
0.0239369
0.0239605
0.0238856
0.02372
0.0234734
0.023159
0.022786
0.0223704
0.0219173
0.0214481
0.0209581
0.0204838
0.0199988
0.0195799
0.0191442
0.0188706
0.0185042
0.0184558
0.0179647
0.0107263
0.00724059
0.00515486
0.00386193
0.00307209
0.00260902
0.00233967
0.00216746
0.00203429
0.0019263
0.00185704
0.00185676
0.00195528
0.00217636
0.00252625
0.00299912
0.00357778
0.00424883
0.00499843
0.00581865
0.00670329
0.00764726
0.00864479
0.00968852
0.0107681
0.0118737
0.0129935
0.0141155
0.0152281
0.0163186
0.0173745
0.0183833
0.0193327
0.020211
0.0210075
0.0217125
0.0223183
0.0228189
0.0232111
0.0234943
0.0236704
0.0237427
0.023715
0.0235911
0.0233805
0.023094
0.0227458
0.0223462
0.0219113
0.0214468
0.0209728
0.0204854
0.0200181
0.0195467
0.0191422
0.0187276
0.0184711
0.0181319
0.0180996
0.017644
0.0107304
0.00725567
0.00517648
0.00388031
0.00308078
0.00261146
0.00234965
0.00220145
0.00210245
0.00202791
0.00198342
0.00199634
0.00209842
0.00231783
0.0026664
0.00314198
0.00372893
0.0044124
0.00517709
0.00601311
0.00691284
0.00787016
0.00887869
0.00993051
0.0110149
0.0121216
0.0132383
0.0143536
0.0154558
0.016532
0.0175694
0.0185555
0.0194778
0.0203245
0.0210851
0.02175
0.0223118
0.0227649
0.0231068
0.0233374
0.0234598
0.0234783
0.0233979
0.0232245
0.0229687
0.0226426
0.0222616
0.0218367
0.0213843
0.0209105
0.0204343
0.0199524
0.0194952
0.0190404
0.0186535
0.0182631
0.0180265
0.0177174
0.0177036
0.0172879
0.0107337
0.00726901
0.00519628
0.00389758
0.0030879
0.00260862
0.00234736
0.00221574
0.00214688
0.00210682
0.00209196
0.00212425
0.00223515
0.002456
0.00280399
0.00328137
0.00387495
0.00456915
0.00534736
0.00619771
0.00711103
0.00808011
0.00909781
0.0101556
0.0112426
0.0123472
0.0134581
0.0145637
0.015652
0.0167103
0.0177257
0.0186854
0.0195768
0.0203883
0.0211094
0.0217307
0.0222451
0.0226477
0.0229364
0.0231122
0.0231789
0.023142
0.0230082
0.0227848
0.022484
0.0221191
0.0217063
0.0212578
0.0207898
0.0203092
0.0198335
0.0193601
0.0189162
0.0184814
0.0181151
0.017752
0.017538
0.0172623
0.0172692
0.0168978
0.0107365
0.00728081
0.00521441
0.003914
0.00309438
0.00260269
0.00233596
0.00221306
0.00216811
0.00216069
0.00217806
0.00223483
0.00235984
0.0025859
0.00293483
0.00341359
0.0040123
0.00471552
0.00550559
0.00636874
0.00729416
0.00827339
0.00929848
0.0103603
0.0114473
0.0125473
0.0136494
0.0147421
0.0158134
0.0168504
0.0178402
0.0187697
0.0196267
0.0203994
0.0210774
0.0216517
0.0221156
0.0224648
0.0226979
0.0228167
0.022826
0.0227326
0.0225447
0.0222714
0.021926
0.0215233
0.0210803
0.02061
0.0201288
0.0196439
0.0191717
0.0187098
0.0182824
0.0178709
0.0175285
0.017196
0.0170074
0.0167679
0.0167981
0.0164753
0.0107388
0.00729126
0.00523101
0.00392969
0.00310084
0.00259541
0.00231845
0.00219671
0.00216804
0.00218877
0.00223827
0.00232289
0.00246669
0.00270195
0.00305391
0.00353415
0.00413675
0.00484728
0.00564747
0.00652183
0.00745782
0.00844564
0.00947638
0.0105402
0.0116248
0.0127176
0.0138083
0.0148851
0.0159362
0.0169485
0.0179091
0.0188051
0.019624
0.0203544
0.0209859
0.0215101
0.0219206
0.0222137
0.0223889
0.0224489
0.0223995
0.0222489
0.0220067
0.0216838
0.0212948
0.0208557
0.0203842
0.0198945
0.0194026
0.0189163
0.0184506
0.0180034
0.0175958
0.0172108
0.0168955
0.0165968
0.0164365
0.0162363
0.0162922
0.0160219
0.0107407
0.00730053
0.00524621
0.00394473
0.00310766
0.00258812
0.00229752
0.00217022
0.00214967
0.00219191
0.00227071
0.00238422
0.0025502
0.00279836
0.00315573
0.00363796
0.00424343
0.00495956
0.00576806
0.00665193
0.00759693
0.00859178
0.00962651
0.0106904
0.0117703
0.0128537
0.0139302
0.0149883
0.016016
0.0170004
0.0179285
0.0187874
0.019565
0.0202497
0.0208317
0.0213028
0.0216572
0.0218919
0.0220073
0.0220069
0.021898
0.0216898
0.0213937
0.021022
0.0205907
0.020117
0.0196194
0.0191127
0.0186129
0.0181282
0.0176721
0.017243
0.0168585
0.0165034
0.0162184
0.0159565
0.0158272
0.0156691
0.0157534
0.0155393
0.0107422
0.00730877
0.00526012
0.00395914
0.00311503
0.00258174
0.00227537
0.00213708
0.00211668
0.00217247
0.00227522
0.00241606
0.00260571
0.00286955
0.00323458
0.00371952
0.004327
0.00504701
0.00586186
0.00675341
0.00770577
0.00870607
0.00974317
0.0108054
0.0118784
0.0129502
0.0140101
0.0150467
0.0160481
0.0170015
0.0178939
0.0187127
0.0194457
0.0200817
0.0206112
0.0210265
0.0213225
0.0214968
0.0215508
0.0214892
0.0213203
0.0210547
0.0207053
0.0202862
0.0198145
0.0193085
0.0187874
0.0182667
0.0177622
0.0172823
0.0168392
0.0164313
0.0160731
0.0157511
0.0154995
0.0152775
0.015182
0.0150688
0.0151839
0.0150295
0.0107434
0.0073161
0.00527286
0.00397292
0.00312299
0.00257686
0.00225376
0.00210044
0.00207307
0.00213397
0.0022534
0.00241743
0.00262993
0.00291072
0.00328501
0.00377325
0.0043819
0.00510397
0.005923
0.00682017
0.00777807
0.00878218
0.00982005
0.0108789
0.0119432
0.0130012
0.0140422
0.0150549
0.0160273
0.0169468
0.0178006
0.0185763
0.0192618
0.0198464
0.0203208
0.0206781
0.0209136
0.021026
0.0210177
0.0208943
0.0206654
0.0203432
0.019942
0.0194773
0.0189677
0.0184323
0.0178908
0.0173593
0.0168536
0.0163819
0.015955
0.0155717
0.0152431
0.0149572
0.014742
0.0145626
0.0145035
0.0144377
0.0145861
0.0144943
0.0107444
0.00732265
0.00528453
0.00398607
0.0031315
0.00257377
0.00223393
0.00206296
0.00202283
0.00208066
0.00220841
0.00238927
0.00262131
0.00291837
0.00330236
0.00379399
0.00440273
0.00512479
0.00594549
0.00684589
0.00780722
0.00881334
0.00985034
0.0109041
0.011958
0.0130004
0.0140205
0.015007
0.0159479
0.016831
0.0176436
0.0183734
0.0190089
0.0195396
0.0199568
0.0202541
0.0204277
0.0204773
0.0204061
0.0202211
0.0199331
0.0195557
0.0191046
0.018597
0.0180524
0.017491
0.0169327
0.0163943
0.0158909
0.015431
0.0150238
0.0146682
0.0143723
0.0141254
0.0139493
0.0138151
0.0137947
0.0137787
0.0139626
0.0139361
0.0107452
0.00732853
0.00529524
0.00399858
0.00314046
0.00257257
0.00221668
0.00202675
0.00196955
0.00201713
0.00214457
0.00233434
0.00258037
0.00289078
0.0032833
0.00377745
0.00438469
0.00510423
0.00592362
0.00682431
0.00778656
0.00879257
0.00982688
0.0108739
0.0119158
0.012941
0.0139383
0.0148965
0.0158039
0.0166483
0.0174174
0.0180992
0.0186825
0.0191573
0.0195156
0.0197515
0.0198624
0.0198487
0.0197148
0.019469
0.0191234
0.0186929
0.0181948
0.0176476
0.0170718
0.0164884
0.0159176
0.0153763
0.0148792
0.0144347
0.0140506
0.0137259
0.0134654
0.0132601
0.0131255
0.0130386
0.0130593
0.0130948
0.0133164
0.0133574
0.0107458
0.00733382
0.00530509
0.00401046
0.00314976
0.00257318
0.00220245
0.00199334
0.0019163
0.00194787
0.00206691
0.00225696
0.00250963
0.00282835
0.00322632
0.00372081
0.0043241
0.00503794
0.00585236
0.00674975
0.00770973
0.00871303
0.00974253
0.0107811
0.0118095
0.0128159
0.0137888
0.0147171
0.0155891
0.0163929
0.0171166
0.0177485
0.0182779
0.0186954
0.0189936
0.0191675
0.0192153
0.0191386
0.018943
0.0186381
0.0182372
0.0177567
0.0172152
0.0166326
0.0160302
0.0154295
0.0148508
0.0143112
0.0138246
0.0133993
0.0130416
0.0127505
0.012528
0.0123663
0.0122755
0.0122376
0.012301
0.0123897
0.0126507
0.0127609
0.0107463
0.0073386
0.00531416
0.00402172
0.00315925
0.00257543
0.00219139
0.00196373
0.00186549
0.0018769
0.00198066
0.0021625
0.00241346
0.00273365
0.0031321
0.00362318
0.00421893
0.00492303
0.00572796
0.00661752
0.00757121
0.00856847
0.00959051
0.0106185
0.0116319
0.012618
0.0135652
0.0144621
0.0152973
0.0160591
0.0167359
0.0173166
0.017791
0.0181503
0.0183879
0.0184997
0.018485
0.0183464
0.018091
0.0177294
0.0172765
0.0167501
0.0161698
0.0155568
0.0149332
0.0143206
0.0137394
0.0132062
0.0127345
0.0123322
0.012004
0.0117491
0.0115666
0.0114503
0.0114046
0.011417
0.0115246
0.0116674
0.0119694
0.0121498
0.0107467
0.00734296
0.00532254
0.00403237
0.00316883
0.00257911
0.0021834
0.00193845
0.00181885
0.00180758
0.00189076
0.00205684
0.00229758
0.00261128
0.00300362
0.00348594
0.00406929
0.00475852
0.00554843
0.0064246
0.00736689
0.0083538
0.00936496
0.01038
0.0113764
0.0123407
0.0132608
0.0141252
0.0149225
0.0156412
0.0162703
0.016799
0.0172179
0.0175188
0.017696
0.0177465
0.0176705
0.0174722
0.0171596
0.0167451
0.0162446
0.0156772
0.0150639
0.0144266
0.0137879
0.0131697
0.0125917
0.0120704
0.0116182
0.0112425
0.0109467
0.01073
0.0105891
0.010519
0.0105194
0.0105825
0.0107351
0.0109323
0.0112764
0.0115272
0.010747
0.00734694
0.0053303
0.00404245
0.00317839
0.00258396
0.00217828
0.00191767
0.00177746
0.00174248
0.00180156
0.00194581
0.00216851
0.00246744
0.00284604
0.00331294
0.00387774
0.00454588
0.00531416
0.00617017
0.0070947
0.00806574
0.00906154
0.0100604
0.0110375
0.0119782
0.0128699
0.0137008
0.0144593
0.0151344
0.0157153
0.0161919
0.0165553
0.0167984
0.0169163
0.0169071
0.0167723
0.0165173
0.0161516
0.0156888
0.0151463
0.0145442
0.0139047
0.0132502
0.0126037
0.0119867
0.0114184
0.0109145
0.0104863
0.0101408
0.00987984
0.00970273
0.00960426
0.00958063
0.00962712
0.00974058
0.00993827
0.0101896
0.0105763
0.0108972
0.0107473
0.0073506
0.00533752
0.00405197
0.00318784
0.00258976
0.00217569
0.00190125
0.00174187
0.00168339
0.00171654
0.00183468
0.00203291
0.00230937
0.00266631
0.00311028
0.00364943
0.00428927
0.00502829
0.00585622
0.00675528
0.00770353
0.00867817
0.00965645
0.010611
0.0115261
0.0123879
0.0131842
0.0139035
0.0145347
0.0150675
0.0154924
0.0158013
0.015988
0.0160486
0.0159824
0.0157922
0.0154847
0.015071
0.0145661
0.0139884
0.0133593
0.0127015
0.0120381
0.0113918
0.0107837
0.010232
0.00975137
0.00935179
0.0090395
0.00881533
0.00867856
0.00862243
0.00864438
0.00873617
0.00889872
0.00914082
0.00944499
0.00987418
0.0102637
0.0107475
0.007354
0.00534426
0.00406098
0.00319712
0.00259627
0.0021753
0.0018889
0.00171219
0.00163133
0.00163823
0.00172787
0.00189698
0.00214457
0.00247249
0.00288596
0.00339187
0.00399559
0.00469697
0.00548792
0.00635253
0.00726961
0.00821582
0.00916774
0.0100956
0.010982
0.0118121
0.0125729
0.0132524
0.0138398
0.0143251
0.0146995
0.0149555
0.015088
0.0150943
0.0149748
0.0147338
0.0143796
0.0139244
0.0133847
0.0127801
0.0121329
0.0114662
0.0108033
0.0101663
0.00957542
0.00904754
0.00859597
0.00822933
0.007953
0.0077668
0.00767015
0.00765528
0.00772085
0.00785597
0.00806517
0.00835003
0.0087048
0.00917566
0.00963138
0.0107476
0.00735716
0.00535058
0.00406951
0.00320617
0.0026033
0.00217673
0.00188021
0.0016882
0.00158675
0.00156826
0.00162868
0.00176601
0.00198012
0.002273
0.00264912
0.00311447
0.00367422
0.0043293
0.00507379
0.00589404
0.00677022
0.00767916
0.00859734
0.00949296