/*--------------------------------*- C++ -*----------------------------------*\
| =========                 |                                                 |
| \\      /  F ield         | OpenFOAM: The Open Source CFD Toolbox           |
|  \\    /   O peration     | Version:  2.4.0                                 |
|   \\  /    A nd           | Web:      www.OpenFOAM.org                      |
|    \\/     M anipulation  |                                                 |
\*---------------------------------------------------------------------------*/
FoamFile
{
    version     2.0;
    format      ascii;
    class       volScalarField;
    location    "4.6";
    object      nut;
}
// * * * * * * * * * * * * * * * * * * * * * * * * * * * * * * * * * * * * * //

dimensions      [0 2 -1 0 0 0 0];

internalField   nonuniform List<scalar> 
6000
(
4.70151e-05
1.44414e-05
4.24817e-06
8.77688e-06
7.78882e-06
8.92641e-06
8.56749e-06
8.94066e-06
8.81573e-06
9.02407e-06
9.06369e-06
9.29482e-06
9.50985e-06
9.86663e-06
1.02763e-05
1.07962e-05
1.13816e-05
1.20486e-05
1.27769e-05
1.35709e-05
1.44204e-05
1.53211e-05
1.62598e-05
1.72227e-05
1.8192e-05
1.91505e-05
2.00804e-05
2.09639e-05
2.17825e-05
2.25176e-05
2.315e-05
2.36599e-05
2.4027e-05
2.42302e-05
2.42469e-05
2.40562e-05
2.36381e-05
2.2973e-05
2.20472e-05
2.08516e-05
1.93992e-05
1.77246e-05
1.59061e-05
1.5372e-05
1.72356e-05
1.91615e-05
2.10439e-05
2.29608e-05
2.46759e-05
2.64434e-05
2.77663e-05
2.93553e-05
3.00634e-05
3.16652e-05
3.14339e-05
3.35947e-05
3.17913e-05
3.56542e-05
3.13193e-05
3.8209e-05
2.94897e-05
9.50722e-06
3.16585e-06
7.01512e-06
6.32272e-06
7.01694e-06
6.77496e-06
7.00865e-06
6.93667e-06
7.08425e-06
7.14127e-06
7.33312e-06
7.53677e-06
7.84841e-06
8.2171e-06
8.67489e-06
9.19612e-06
9.78821e-06
1.04396e-05
1.11512e-05
1.19162e-05
1.27291e-05
1.35798e-05
1.44571e-05
1.53486e-05
1.62429e-05
1.71298e-05
1.80004e-05
1.88475e-05
1.96659e-05
2.04524e-05
2.12069e-05
2.19327e-05
2.26369e-05
2.33318e-05
2.40427e-05
2.48115e-05
2.57081e-05
2.68477e-05
2.84248e-05
3.07585e-05
3.43655e-05
3.97624e-05
4.14534e-05
3.56549e-05
3.12711e-05
2.8267e-05
2.62247e-05
2.49053e-05
2.40746e-05
2.35188e-05
2.32737e-05
2.29488e-05
2.30557e-05
2.25962e-05
2.31389e-05
2.21378e-05
2.35717e-05
2.14823e-05
2.43437e-05
2.14309e-05
8.16021e-06
2.81409e-06
5.88992e-06
5.32666e-06
5.68226e-06
5.49783e-06
5.63242e-06
5.59499e-06
5.71079e-06
5.7959e-06
5.99028e-06
6.22839e-06
6.56892e-06
6.98871e-06
7.50653e-06
8.11304e-06
8.81367e-06
9.60663e-06
1.04938e-05
1.14732e-05
1.25406e-05
1.36886e-05
1.4908e-05
1.619e-05
1.75272e-05
1.8915e-05
2.03531e-05
2.18455e-05
2.34022e-05
2.50409e-05
2.67891e-05
2.8688e-05
3.07901e-05
3.31606e-05
3.59156e-05
3.92198e-05
4.33235e-05
4.86068e-05
5.5665e-05
6.53745e-05
7.89716e-05
9.69538e-05
0.000101684
8.28202e-05
6.66706e-05
5.4292e-05
4.47637e-05
3.78066e-05
3.24397e-05
2.85902e-05
2.55031e-05
2.33091e-05
2.14666e-05
2.01211e-05
1.90531e-05
1.80445e-05
1.76814e-05
1.65506e-05
1.70009e-05
1.78746e-05
7.96942e-06
2.98797e-06
5.26075e-06
4.7039e-06
4.76784e-06
4.5942e-06
4.65101e-06
4.63575e-06
4.74108e-06
4.86842e-06
5.10514e-06
5.42815e-06
5.87638e-06
6.45152e-06
7.17032e-06
8.04293e-06
9.08205e-06
1.0302e-05
1.1714e-05
1.33276e-05
1.51461e-05
1.71692e-05
1.93936e-05
2.18163e-05
2.44364e-05
2.72584e-05
3.02941e-05
3.35652e-05
3.71055e-05
4.0965e-05
4.52148e-05
4.99578e-05
5.52758e-05
6.13147e-05
6.83121e-05
7.65744e-05
8.65391e-05
9.88197e-05
0.000114289
0.000134052
0.000159362
0.000189122
0.000195568
0.00016479
0.000134978
0.000109737
8.86089e-05
7.19649e-05
5.83498e-05
4.808e-05
3.95256e-05
3.33785e-05
2.79402e-05
2.43561e-05
2.07868e-05
1.87717e-05
1.63927e-05
1.52322e-05
1.38714e-05
1.67546e-05
8.44515e-06
3.53539e-06
5.03908e-06
4.40599e-06
4.18515e-06
3.98007e-06
3.96674e-06
3.96481e-06
4.07736e-06
4.2666e-06
4.59087e-06
5.06382e-06
5.72065e-06
6.59261e-06
7.70882e-06
9.10986e-06
1.08307e-05
1.29154e-05
1.53984e-05
1.83129e-05
2.16796e-05
2.55136e-05
2.98222e-05
3.46113e-05
3.98875e-05
4.5664e-05
5.19636e-05
5.88221e-05
6.62915e-05
7.44451e-05
8.33837e-05
9.32399e-05
0.000103995
0.000115886
0.000129181
0.000144209
0.000161417
0.000181396
0.000204936
0.000232901
0.000266073
0.000301306
0.000307719
0.000271178
0.000231783
0.000195326
0.000162272
0.000134016
0.000109307
8.92682e-05
7.18448e-05
5.85298e-05
4.66291e-05
3.83602e-05
3.02935e-05
2.56098e-05
2.00782e-05
1.77233e-05
1.43968e-05
1.71085e-05
9.39794e-06
4.39199e-06
5.14736e-06
4.41078e-06
3.8895e-06
3.60979e-06
3.52285e-06
3.52723e-06
3.66379e-06
3.94258e-06
4.41219e-06
5.12606e-06
6.13387e-06
7.50963e-06
9.31459e-06
1.1638e-05
1.45564e-05
1.81594e-05
2.25174e-05
2.76947e-05
3.37327e-05
4.06596e-05
4.84868e-05
5.72165e-05
6.68456e-05
7.73734e-05
8.88051e-05
0.000101156
0.000114453
0.000128739
0.000144084
0.000160483
0.000177779
0.000196227
0.000216022
0.000237394
0.000260667
0.000286282
0.00031482
0.000346859
0.000382748
0.000417957
0.000423531
0.000386685
0.000343307
0.000300249
0.000258674
0.000220605
0.000185286
0.000154528
0.000126489
0.000103422
8.23521e-05
6.64352e-05
5.12669e-05
4.14085e-05
3.07816e-05
2.54603e-05
1.93832e-05
1.83893e-05
1.07093e-05
5.51682e-06
5.50546e-06
4.6955e-06
3.86553e-06
3.46496e-06
3.29131e-06
3.29547e-06
3.47402e-06
3.88099e-06
4.5742e-06
5.65871e-06
7.22121e-06
9.39816e-06
1.2305e-05
1.60971e-05
2.0905e-05
2.68669e-05
3.40832e-05
4.26357e-05
5.25675e-05
6.38958e-05
7.66071e-05
9.06657e-05
0.00010602
0.000122614
0.000140388
0.00015929
0.000179267
0.000200283
0.000222336
0.00024507
0.000268391
0.00029248
0.000317434
0.000343372
0.000370496
0.000399115
0.000429647
0.000462495
0.000497628
0.000530023
0.000534676
0.000500613
0.000457367
0.00041196
0.000365955
0.000321531
0.000278377
0.000238551
0.000200733
0.0001675
0.00013635
0.00011082
8.66662e-05
6.90295e-05
5.13106e-05
4.06747e-05
3.07458e-05
2.02058e-05
1.22753e-05
6.86668e-06
6.06093e-06
5.20597e-06
4.11109e-06
3.54608e-06
3.2655e-06
3.26267e-06
3.5042e-06
4.09215e-06
5.11512e-06
6.74898e-06
9.14191e-06
1.25111e-05
1.70399e-05
2.29509e-05
3.04189e-05
3.96049e-05
5.06074e-05
6.34881e-05
7.82563e-05
9.48831e-05
0.000113296
0.000133387
0.000155022
0.00017806
0.00020235
0.000227746
0.000254104
0.000281295
0.000309182
0.000337157
0.000365241
0.000393527
0.000422035
0.000450806
0.000479954
0.000509694
0.00054034
0.000572202
0.00060484
0.00063352
0.000637444
0.00060744
0.000566658
0.000521752
0.000474468
0.000426884
0.000379002
0.000332794
0.000287471
0.000245507
0.000205211
0.000169892
0.000136387
0.000109391
8.34393e-05
6.52614e-05
5.06135e-05
2.2247e-05
1.39955e-05
8.38961e-06
6.80642e-06
5.85997e-06
4.61229e-06
3.86092e-06
3.4534e-06
3.43732e-06
3.76737e-06
4.60513e-06
6.09476e-06
8.5043e-06
1.20623e-05
1.70708e-05
2.3774e-05
3.24352e-05
4.32369e-05
5.6315e-05
7.17224e-05
8.94634e-05
0.000109487
0.000131697
0.000155945
0.000182036
0.000209748
0.000238845
0.000269091
0.000300255
0.000332109
0.000364453
0.000396951
0.000428974
0.000460589
0.00049182
0.000522634
0.00055302
0.000583027
0.000612811
0.000642613
0.000672645
0.000702218
0.00072717
0.000730575
0.000704863
0.000667613
0.000624827
0.000578287
0.000529874
0.000479782
0.000429756
0.000379413
0.000330916
0.000283348
0.000239461
0.000197487
0.000161009
0.000126787
9.97667e-05
8.00977e-05
2.42783e-05
1.57759e-05
1.00266e-05
7.74472e-06
6.59976e-06
5.31899e-06
4.40507e-06
3.86618e-06
3.8349e-06
4.28462e-06
5.45457e-06
7.57056e-06
1.1008e-05
1.60797e-05
2.31536e-05
3.25032e-05
4.43853e-05
5.89419e-05
7.62394e-05
9.62565e-05
0.000118926
0.000144132
0.000171712
0.000201443
0.000233048
0.000266221
0.000300651
0.000336025
0.000372047
0.000408425
0.000444917
0.000480931
0.000516019
0.000550212
0.000583482
0.000615757
0.000646991
0.000677186
0.000706455
0.000734993
0.000762875
0.000789386
0.000810946
0.000813981
0.000792265
0.000758847
0.000718956
0.000674312
0.000626585
0.000576063
0.00052425
0.000471012
0.000418177
0.000365385
0.000314805
0.000265876
0.000220944
0.000179205
0.000143261
0.000118745
2.61484e-05
1.75358e-05
1.17166e-05
8.86207e-06
7.41906e-06
6.151e-06
5.14206e-06
4.49947e-06
4.46264e-06
5.06865e-06
6.65736e-06
9.56025e-06
1.42622e-05
2.1145e-05
3.06039e-05
4.28974e-05
5.82266e-05
7.66581e-05
9.81673e-05
0.000122657
0.000149995
0.000180013
0.000212489
0.000247137
0.000283607
0.000321525
0.000360516
0.000400206
0.00044025
0.000480307
0.00052008
0.000558804
0.000596223
0.000632308
0.000666992
0.000700175
0.000731784
0.000761788
0.000790271
0.000817386
0.000843075
0.000866757
0.000885351
0.000888086
0.00086984
0.000840124
0.000803378
0.000761197
0.000715053
0.000665267
0.00061313
0.000558631
0.000503321
0.000447151
0.000391839
0.000337629
0.000285884
0.000237784
0.000193823
0.000164869
2.77811e-05
1.92131e-05
1.34026e-05
1.01252e-05
8.34051e-06
7.0446e-06
6.00639e-06
5.31642e-06
5.30008e-06
6.10161e-06
8.18419e-06
1.20042e-05
1.81443e-05
2.70282e-05
3.9033e-05
5.43625e-05
7.31295e-05
9.53122e-05
0.000120798
0.000149428
0.000181023
0.00021537
0.000252202
0.000291176
0.000331878
0.000373876
0.000416743
0.000460058
0.000503437
0.000546499
0.000588853
0.000629718
0.000668931
0.000706421
0.000742085
0.000775805
0.000807491
0.000837085
0.000864657
0.000890294
0.000913903
0.000935037
0.000951069
0.000953507
0.000938136
0.000911771
0.000878109
0.000838586
0.0007945
0.000746163
0.000694696
0.00064012
0.000583787
0.000525757
0.000467475
0.000409564
0.000352811
0.000299631
0.000249127
0.0002162
2.91563e-05
2.07653e-05
1.50357e-05
1.14886e-05
9.37906e-06
7.9839e-06
6.93693e-06
6.25305e-06
6.29085e-06
7.32088e-06
9.94322e-06
1.47519e-05
2.24097e-05
3.33538e-05
4.79068e-05
6.61925e-05
8.82222e-05
0.000113892
0.000143015
0.000175388
0.000210797
0.000248997
0.000289677
0.000332444
0.000376827
0.000422343
0.000468522
0.000514903
0.000561071
0.000606615
0.000651022
0.0006936
0.00073421
0.000772746
0.000809081
0.00084308
0.000874643
0.000903696
0.000930296
0.000954452
0.000976146
0.000994997
0.00100881
0.00101091
0.000997827
0.000974366
0.000943556
0.00090666
0.000864828
0.000818336
0.000768178
0.00071435
0.000658071
0.000599368
0.000539571
0.000479338
0.00041927
0.000362268
0.000306878
0.000270424
3.02873e-05
2.21683e-05
1.65777e-05
1.2902e-05
1.05306e-05
8.98579e-06
7.90697e-06
7.24913e-06
7.36077e-06
8.63068e-06
1.17948e-05
1.75904e-05
2.67454e-05
3.96907e-05
5.66728e-05
7.77249e-05
0.000102758
0.000131596
0.000163997
0.000199725
0.000238541
0.000280168
0.000324257
0.000370365
0.000417971
0.000466544
0.000515578
0.000564578
0.000613103
0.000660725
0.000706781
0.000750743
0.000792448
0.00083176
0.000868533
0.000902621
0.00093392
0.000962343
0.000987923
0.00101065
0.00103058
0.00104738
0.00105924
0.00106093
0.0010496
0.00102857
0.0010003
0.000965867
0.000926306
0.000881846
0.00083338
0.00078085
0.000725393
0.000666917
0.00060675
0.000545345
0.000483422
0.000423751
0.000365063
0.0003255
3.12037e-05
2.34128e-05
1.80024e-05
1.43165e-05
1.17738e-05
1.00694e-05
8.92303e-06
8.27593e-06
8.45174e-06
9.93828e-06
1.35953e-05
2.0303e-05
3.08483e-05
4.56476e-05
6.48642e-05
8.84397e-05
0.000116189
0.00014788
0.000183221
0.000221956
0.00026382
0.00030851
0.000355636
0.000404709
0.000455159
0.000506413
0.000557933
0.000609191
0.000659728
0.000709076
0.000756494
0.000801583
0.000844144
0.00088402
0.000921049
0.000955079
0.000986006
0.00101373
0.00103825
0.00105961
0.0010779
0.00109283
0.00110295
0.00110415
0.0010941
0.00107504
0.00104896
0.00101677
0.00097939
0.000937007
0.00089044
0.000839559
0.000785455
0.000727873
0.000668205
0.000606558
0.000543977
0.000482652
0.000422057
0.000379787
3.19396e-05
2.45009e-05
1.92947e-05
1.56891e-05
1.30761e-05
1.12401e-05
1.00036e-05
9.33775e-06
9.54213e-06
1.11882e-05
1.52425e-05
2.2726e-05
3.44886e-05
5.09368e-05
7.21529e-05
9.79902e-05
0.000128173
0.00016242
0.000200399
0.000241834
0.000286439
0.000333879
0.000383728
0.000435452
0.000488431
0.000542053
0.000595752
0.000648973
0.000701239
0.000752019
0.00080058
0.000846584
0.000889808
0.000930075
0.000967212
0.00100106
0.00103153
0.00105848
0.00108194
0.00110199
0.00111872
0.00113195
0.00114046
0.00114109
0.0011319
0.0011144
0.00109016
0.00105996
0.00102461
0.000984264
0.00093968
0.000890659
0.000838261
0.000782056
0.000723533
0.000662383
0.000600087
0.000537983
0.000476634
0.000432055
3.25279e-05
2.54416e-05
2.04485e-05
1.69848e-05
1.43989e-05
1.24881e-05
1.11637e-05
1.04549e-05
1.06425e-05
1.23712e-05
1.66958e-05
2.47758e-05
3.75376e-05
5.5393e-05
7.83527e-05
0.000106188
0.000138534
0.000175068
0.000215414
0.000259278
0.000306353
0.000356273
0.000408573
0.000462676
0.000517916
0.000573641
0.000629262
0.000684195
0.000737953
0.000789927
0.000839445
0.000886188
0.000929911
0.000970423
0.00100754
0.00104111
0.00107103
0.00109715
0.00111954
0.00113832
0.00115359
0.00116521
0.00117224
0.00117221
0.00116354
0.00114721
0.00112449
0.001096
0.00106251
0.00102411
0.000981518
0.000934468
0.000883998
0.000829511
0.000772601
0.000712528
0.000651247
0.000589103
0.000527924
0.000481436
3.29974e-05
2.62484e-05
2.14656e-05
1.81785e-05
1.57027e-05
1.37909e-05
1.24058e-05
1.16456e-05
1.17819e-05
1.35118e-05
1.79689e-05
2.64445e-05
3.99608e-05
5.89594e-05
8.33961e-05
0.000112968
0.000147221
0.00018579
0.000228256
0.000274306
0.000323608
0.000375765
0.000430275
0.00048652
0.000543786
0.000601383
0.000658702
0.000715132
0.000770178
0.000823145
0.00087346
0.000920789
0.00096487
0.0010055
0.00104249
0.00107569
0.00110496
0.00113022
0.00115156
0.00116908
0.00118294
0.00119304
0.00119866
0.00119789
0.00118945
0.00117397
0.00115246
0.00112545
0.00109362
0.00105705
0.0010164
0.000971367
0.000922956
0.000870425
0.000815459
0.000756912
0.000697199
0.000635633
0.000575346
0.000527352
3.33723e-05
2.69364e-05
2.23529e-05
1.92545e-05
1.69508e-05
1.5117e-05
1.37201e-05
1.29191e-05
1.29925e-05
1.46494e-05
1.91088e-05
2.77776e-05
4.17936e-05
6.16606e-05
8.73012e-05
0.000118351
0.000154261
0.000194632
0.000238988
0.000286996
0.0003383
0.000392472
0.000448972
0.000507143
0.000566224
0.000625486
0.000684303
0.000742036
0.00079818
0.000851981
0.000902949
0.00095073
0.000995045
0.00103568
0.00107245
0.00110517
0.00113374
0.00115811
0.00117838
0.00119467
0.00120715
0.0012158
0.00122007
0.00121848
0.00121003
0.00119512
0.00117455
0.00114879
0.00111844
0.00108356
0.00104479
0.00100176
0.00095548
0.000905061
0.000852271
0.000795591
0.000737861
0.000677384
0.000618547
0.00056945
3.3672e-05
2.7521e-05
2.31209e-05
2.02059e-05
1.81127e-05
1.64305e-05
1.50855e-05
1.42734e-05
1.42909e-05
1.5836e-05
2.01754e-05
2.88498e-05
4.31155e-05
6.35738e-05
9.01421e-05
0.000122411
0.000159735
0.00020168
0.000247706
0.000297457
0.000350551
0.000406526
0.00046481
0.000524706
0.000585406
0.000646144
0.000706276
0.000765138
0.000822202
0.000876701
0.000928194
0.000976305
0.00102074
0.00106129
0.00109772
0.00112988
0.0011577
0.00118115
0.00120034
0.00121541
0.00122655
0.00123379
0.00123674
0.00123427
0.00122562
0.00121104
0.00119118
0.00116645
0.00113741
0.0011041
0.00106711
0.00102607
0.000981931
0.000933726
0.000883266
0.000828714
0.000773271
0.000714305
0.000657345
0.000607544
3.3912e-05
2.80167e-05
2.37818e-05
2.1033e-05
1.91652e-05
1.76949e-05
1.64722e-05
1.56956e-05
1.56804e-05
1.71155e-05
2.12334e-05
2.9746e-05
4.40271e-05
6.48058e-05
9.20259e-05
0.000125256
0.000163752
0.000207048
0.00025453
0.000305816
0.000360492
0.000418068
0.000477937
0.000539368
0.000601503
0.000663535
0.000724812
0.000784639
0.000842467
0.000897539
0.000949437
0.000997767
0.00104222
0.00108255
0.00111856
0.00115011
0.00117714
0.00119965
0.00121775
0.00123159
0.00124141
0.00124727
0.00124892
0.00124553
0.00123651
0.00122206
0.00120272
0.00117883
0.00115094
0.00111907
0.00108377
0.00104467
0.00100267
0.00095674
0.00090871
0.000856481
0.000803547
0.000746438
0.000691677
0.000641563
3.41047e-05
2.84367e-05
2.43487e-05
2.17416e-05
2.00938e-05
1.88761e-05
1.78448e-05
1.71626e-05
1.71532e-05
1.84968e-05
2.23717e-05
3.05494e-05
4.46361e-05
6.5477e-05
9.30769e-05
0.000127012
0.000166438
0.000210865
0.00025959
0.000312204
0.000368261
0.000427239
0.000488498
0.000551278
0.000614669
0.000677824
0.000740082
0.000800719
0.000859169
0.000914693
0.000966885
0.00101533
0.00105967
0.0010997
0.00113522
0.00116611
0.00119231
0.00121384
0.00123082
0.00124345
0.00125195
0.00125646
0.00125683
0.00125247
0.00124296
0.00122847
0.00120947
0.00118628
0.00115939
0.00112884
0.00109515
0.00105793
0.00101805
0.000974425
0.000928885
0.000879123
0.000828856
0.000773888
0.000721571
0.000671522
3.42598e-05
2.87926e-05
2.48342e-05
2.23417e-05
2.08923e-05
1.9946e-05
1.91652e-05
1.86431e-05
1.86911e-05
1.99768e-05
2.36233e-05
3.13858e-05
4.50475e-05
6.57111e-05
9.34269e-05
0.000127813
0.000167924
0.000213263
0.00026302
0.000316757
0.000373993
0.000434175
0.000496634
0.000560578
0.000625051
0.000689158
0.000752239
0.000813531
0.000872477
0.000928337
0.000980715
0.00102913
0.00107328
0.00111292
0.00114789
0.00117807
0.00120341
0.00122393
0.00123979
0.00125118
0.00125837
0.00126155
0.00126066
0.00125529
0.00124519
0.00123052
0.00121172
0.00118909
0.00116309
0.00113375
0.00110159
0.00106619
0.0010284
0.000987091
0.000944073
0.000896886
0.000849396
0.000796801
0.000747112
0.000697491
3.43849e-05
2.90943e-05
2.52503e-05
2.28452e-05
2.15617e-05
2.08837e-05
2.03963e-05
2.00995e-05
2.02663e-05
2.15412e-05
2.49923e-05
3.2334e-05
4.54167e-05
6.56287e-05
9.3208e-05
0.000127794
0.000168347
0.000214376
0.000264954
0.00031961
0.000377825
0.000439014
0.000502479
0.000567406
0.000632785
0.000697675
0.000761422
0.000823221
0.000882544
0.000938616
0.00099103
0.00103933
0.0010832
0.0011224
0.00115677
0.00118618
0.00121061
0.0012301
0.00124481
0.00125496
0.00126085
0.0012627
0.00126055
0.00125416
0.00124339
0.00122844
0.00120973
0.00118753
0.00116231
0.0011341
0.00110339
0.00106976
0.00103403
0.000995035
0.000954553
0.000910017
0.000865379
0.000815347
0.000768424
0.00071958
3.4486e-05
2.93504e-05
2.56074e-05
2.32653e-05
2.21091e-05
2.16771e-05
2.15052e-05
2.14912e-05
2.18426e-05
2.31648e-05
2.64686e-05
3.34092e-05
4.58682e-05
6.54199e-05
9.25497e-05
0.000127091
0.000167842
0.000214341
0.000265525
0.000320895
0.000379889
0.000441888
0.000506167
0.000571892
0.000638002
0.000703505
0.00076776
0.000829927
0.000889458
0.000945619
0.000997975
0.00104607
0.00108959
0.00112829
0.00116199
0.00119059
0.00121407
0.0012325
0.00124604
0.00125495
0.00125954
0.00126007
0.00125667
0.00124923
0.00123774
0.00122242
0.00120369
0.00118184
0.00115732
0.00113016
0.00110083
0.00106893
0.00103522
0.000998531
0.000960588
0.000918761
0.000877023
0.000829711
0.000785658
0.000737918
3.45679e-05
2.9568e-05
2.5915e-05
2.36149e-05
2.25457e-05
2.23224e-05
2.24659e-05
2.27773e-05
2.3378e-05
2.48131e-05
2.80301e-05
3.46103e-05
4.64346e-05
6.52242e-05
9.17006e-05
0.000125836
0.000166544
0.00021329
0.000264866
0.000320745
0.000380317
0.000442929
0.000507827
0.000574164
0.000640827
0.000706769
0.000771327
0.000833711
0.000893335
0.000949477
0.00100168
0.00104949
0.00109258
0.0011307
0.00116369
0.00119143
0.00121394
0.00123128
0.00124363
0.00125128
0.00125456
0.00125378
0.00124914
0.00124064
0.00122838
0.00121263
0.00119382
0.00117224
0.00114833
0.00112217
0.00109417
0.00106396
0.00103223
0.00099784
0.00096243
0.000923353
0.000884545
0.000840082
0.000798978
0.000752654
3.46343e-05
2.97531e-05
2.61808e-05
2.39065e-05
2.28858e-05
2.2824e-05
2.32609e-05
2.39207e-05
2.48269e-05
2.64429e-05
2.96427e-05
3.59205e-05
4.71283e-05
6.50922e-05
9.07584e-05
0.000124268
0.000164679
0.000211356
0.000263107
0.00031929
0.000379238
0.000442264
0.000507587
0.000574321
0.000641321
0.000707524
0.00077223
0.000834698
0.000894295
0.000950312
0.00100227
0.00104971
0.0010923
0.00112978
0.00116199
0.00118884
0.00121032
0.00122654
0.00123769
0.00124407
0.00124604
0.00124396
0.00123808
0.00122851
0.00121546
0.00119923
0.00118027
0.0011589
0.00113557
0.00111034
0.00108363
0.00105507
0.0010253
0.0009932
0.000960315
0.000924018
0.000888158
0.00084665
0.000808555
0.000763938
3.46882e-05
2.99107e-05
2.64117e-05
2.4151e-05
2.31446e-05
2.31922e-05
2.38824e-05
2.48908e-05
2.61438e-05
2.80056e-05
3.12623e-05
3.73086e-05
4.7943e-05
6.50538e-05
8.97898e-05
0.000122481
0.000162356
0.000208723
0.000260407
0.000316663
0.000376765
0.000439988
0.000505524
0.000572454
0.000639601
0.000705883
0.000770591
0.000833005
0.000892454
0.000948238
0.000999851
0.00104684
0.00108885
0.00112563
0.00115701
0.00118291
0.00120334
0.0012184
0.00122833
0.00123342
0.00123409
0.00123071
0.0012236
0.00121297
0.00119909
0.00118235
0.0011632
0.00114201
0.0011192
0.00109487
0.00106941
0.00104248
0.00101465
0.000984834
0.000954465
0.00092097
0.000888067
0.000849603
0.000814563
0.000771927
3.47321e-05
3.00451e-05
2.66129e-05
2.4358e-05
2.33376e-05
2.34423e-05
2.43319e-05
2.56661e-05
2.72872e-05
2.94496e-05
3.28369e-05
3.87311e-05
4.88546e-05
6.51177e-05
8.88411e-05
0.000120551
0.00015967
0.000205494
0.000256873
0.000312973
0.000373008
0.000436212
0.000501751
0.000568677
0.00063578
0.000701958
0.000766525
0.000828745
0.000887924
0.000943362
0.000994534
0.00104098
0.00108233
0.00111834
0.00114884
0.00117375
0.00119308
0.00120697
0.00121565
0.00121945
0.0012188
0.00121413
0.0012058
0.0011941
0.0011794
0.00116212
0.00114277
0.00112171
0.0010994
0.00107595
0.00105172
0.0010264
0.00100048
0.000972947
0.000945087
0.000914412
0.000884469
0.000849124
0.000817176
0.000776777
3.47677e-05
3.01597e-05
2.6789e-05
2.45353e-05
2.34794e-05
2.35925e-05
2.46194e-05
2.62358e-05
2.82226e-05
3.07243e-05
3.43093e-05
4.01338e-05
4.98231e-05
6.52723e-05
8.79372e-05
0.000118536
0.000156702
0.000201763
0.000252604
0.000308321
0.00036807
0.000431043
0.000496378
0.0005631
0.000629968
0.000695861
0.000760143
0.00082203
0.000880813
0.000935791
0.00098642
0.00103223
0.00107286
0.00110803
0.00113759
0.00116145
0.00117966
0.00119234
0.00119975
0.00120225
0.00120029
0.00119432
0.00118478
0.00117203
0.0011565
0.00113867
0.00111909
0.00109815
0.00107632
0.00105373
0.00103072
0.001007
0.000982994
0.000957733
0.000932376
0.000904535
0.000877553
0.000845389
0.000816563
0.000778639
3.47966e-05
3.02575e-05
2.69437e-05
2.46894e-05
2.35828e-05
2.36621e-05
2.47615e-05
2.65999e-05
2.89258e-05
3.1784e-05
3.56211e-05
4.14551e-05
5.07954e-05
6.54869e-05
8.70813e-05
0.000116474
0.000153516
0.000197609
0.000247689
0.000302803
0.00036205
0.000424581
0.000489509
0.00055583
0.00062227
0.000687718
0.000751557
0.000812967
0.000871225
0.000925627
0.000975611
0.0010207
0.00106051
0.00109478
0.00112334
0.00114612
0.00116316
0.0011746
0.00118073
0.00118191
0.00117863
0.00117138
0.00116064
0.00114684
0.00113049
0.00111212
0.0010923
0.00107147
0.00105011
0.00102837
0.00100658
0.000984451
0.000962356
0.000939371
0.000916514
0.000891521
0.000867498
0.00083857
0.00081289
0.000777663
3.48202e-05
3.03411e-05
2.70799e-05
2.48252e-05
2.36591e-05
2.36702e-05
2.47797e-05
2.6769e-05
2.93846e-05
3.25919e-05
3.67166e-05
4.263e-05
5.17079e-05
6.57146e-05
8.6256e-05
0.000114381
0.00015016
0.000193099
0.000242207
0.000296502
0.000355037
0.000416922
0.000481241
0.000546969
0.000612788
0.000677635
0.000740872
0.000801662
0.000859263
0.00091297
0.000962203
0.00100647
0.00104539
0.00107869
0.00110619
0.00112784
0.00114367
0.00115385
0.00115867
0.00115852
0.00115392
0.00114539
0.00113346
0.00111864
0.00110147
0.00108256
0.00106251
0.00104181
0.00102091
0.00100003
0.000979447
0.000958921
0.000938737
0.000918033
0.000897676
0.000875543
0.000854477
0.000828833
0.00080632
0.000773995
3.48393e-05
3.04126e-05
2.72001e-05
2.49466e-05
2.37173e-05
2.36348e-05
2.46979e-05
2.67623e-05
2.95999e-05
3.31232e-05
3.75473e-05
4.35939e-05
5.24911e-05
6.58952e-05
8.54253e-05
0.000112255
0.00014666
0.000188283
0.000236223
0.000289494
0.000347113
0.000408151
0.000471667
0.00053661
0.000601617
0.000665712
0.000728192
0.000788216
0.000845029
0.00089792
0.000946293
0.00098965
0.0010276
0.00105985
0.00108623
0.00110669
0.00112127
0.00113016
0.00113365
0.00113217
0.00112625
0.00111645
0.00110336
0.00108752
0.00106956
0.00105013
0.00102986
0.00100928
0.000988866
0.000968845
0.000949483
0.000930564
0.000912298
0.000893884
0.00087603
0.000856768
0.000838658
0.000816337
0.000797011
0.000767777
3.48548e-05
3.04738e-05
2.73064e-05
2.50563e-05
2.37644e-05
2.35714e-05
2.45409e-05
2.66056e-05
2.95848e-05
3.33671e-05
3.80762e-05
4.42883e-05
5.30744e-05
6.59597e-05
8.45377e-05
0.00011007
0.000143026
0.000183194
0.000229789
0.000281841
0.000338347
0.000398346
0.000460869
0.000524843
0.000588864
0.000652049
0.000713615
0.000772728
0.000828618
0.00088057
0.000927974
0.000970321
0.0010072
0.00103834
0.00106354
0.00108276
0.00109606
0.00110363
0.00110577
0.00110295
0.00109571
0.00108465
0.00107041
0.00105359
0.00103486
0.00101493
0.000994459
0.000974019
0.000954105
0.000934961
0.000916833
0.000899535
0.000883197
0.000867082
0.000851736
0.000835357
0.000820202
0.000801238
0.000785118
0.000759147
3.48674e-05
3.05261e-05
2.74005e-05
2.51565e-05
2.38057e-05
2.34932e-05
2.43323e-05
2.63286e-05
2.9363e-05
3.33281e-05
3.8281e-05
4.4665e-05
5.33911e-05
6.58355e-05
8.35305e-05
0.00010779
0.000139246
0.00017785
0.00022294
0.000273593
0.000328799
0.000387573
0.000448921
0.000511745
0.000574626
0.000636734
0.000697235
0.000755291
0.000810126
0.000861015
0.000907339
0.000948575
0.000984311
0.00101425
0.00103822
0.00105615
0.00106812
0.00107434
0.00107512
0.00107095
0.00106239
0.00105009
0.00103472
0.00101694
0.000997482
0.000977074
0.000956437
0.000936165
0.00091677
0.000898524
0.000881649
0.000865987
0.00085159
0.000837786
0.000824954
0.000811467
0.000799266
0.00078369
0.00077079
0.000748242
3.48776e-05
3.0571e-05
2.74838e-05
2.52485e-05
2.38448e-05
2.34106e-05
2.40934e-05
2.59625e-05
2.89666e-05
3.30251e-05
3.81561e-05
4.46907e-05
5.3384e-05
6.54522e-05
8.23353e-05
0.000105361
0.000135297
0.00017225
0.000215699
0.000264787
0.000318518
0.000375888
0.000435886
0.000497388
0.000558979
0.00061985
0.000679137
0.000735995
0.00078964
0.000839344
0.000884475
0.000924501
0.000959001
0.000987672
0.00101033
0.00102693
0.00103754
0.00104238
0.00104179
0.00103626
0.0010264
0.00101288
0.000996406
0.000977705
0.000957542
0.0009367
0.000915928
0.000895857
0.00087701
0.000859686
0.000844086
0.000830076
0.000817635
0.000806153
0.000795842
0.000785256
0.000776008
0.000763843
0.000754179
0.000735195
3.48859e-05
3.06095e-05
2.75577e-05
2.53334e-05
2.38839e-05
2.33315e-05
2.38426e-05
2.55379e-05
2.84327e-05
3.24892e-05
3.77135e-05
4.435e-05
5.30106e-05
6.47475e-05
8.0884e-05
0.000102726
0.00013114
0.000166381
0.000208074
0.000255449
0.000307541
0.000363339
0.000421818
0.000481831
0.000541989
0.000601473
0.000659399
0.00071492
0.000767245
0.000815642
0.000859469
0.000898185
0.000931362
0.000958689
0.000979985
0.000995197
0.00100441
0.00100784
0.00100587
0.000998988
0.000987831
0.000973109
0.000955573
0.00093599
0.000915172
0.000893941
0.000873078
0.000853246
0.000834982
0.000818608
0.000804306
0.000791968
0.000781496
0.000772346
0.000764562
0.000756882
0.000750584
0.000741849
0.000735432
0.000720138
3.48925e-05
3.06426e-05
2.76232e-05
2.54119e-05
2.39244e-05
2.32611e-05
2.35945e-05
2.50825e-05
2.78003e-05
3.17612e-05
3.69818e-05
4.36475e-05
5.22473e-05
6.36732e-05
7.91152e-05
9.98248e-05
0.000126731
0.000160219
0.000200063
0.000245593
0.000295893
0.000349961
0.000406763
0.000465125
0.000523713
0.000581666
0.000638092
0.000692142
0.00074302
0.000789991
0.000832404
0.000869712
0.000901478
0.000927388
0.000947257
0.000961035
0.000968813
0.000970825
0.000967455
0.000959229
0.0009468
0.00093091
0.000912351
0.000891935
0.000870514
0.000848948
0.000828045
0.000808499
0.000790858
0.000775467
0.000762488
0.000751837
0.000743347
0.000736536
0.00073128
0.000726507
0.000723155
0.00071786
0.000714701
0.000703206
3.48979e-05
3.06711e-05
2.76814e-05
2.54845e-05
2.39666e-05
2.32027e-05
2.33604e-05
2.46207e-05
2.71078e-05
3.08875e-05
3.60032e-05
4.26077e-05
5.1092e-05
6.22004e-05
7.69808e-05
9.66039e-05
0.000122025
0.000153737
0.000191656
0.000235226
0.000283595
0.000335783
0.000390756
0.000447321
0.000504204
0.000560488
0.000615281
0.00066773
0.000717038
0.000762466
0.000803358
0.000839162
0.000869433
0.000893855
0.000912239
0.000924539
0.000930852
0.000931426
0.00092666
0.000917101
0.000903425
0.000886408
0.000866877
0.000845687
0.000823728
0.00080189
0.000781009
0.000761804
0.000744831
0.000730456
0.000718823
0.000709875
0.000703375
0.000698902
0.000696172
0.0006943
0.000693885
0.000692033
0.000692136
0.000684532
3.49021e-05
3.06958e-05
2.7733e-05
2.55517e-05
2.40107e-05
2.3158e-05
2.31479e-05
2.41717e-05
2.63903e-05
2.99165e-05
3.48298e-05
4.1273e-05
4.95654e-05
6.03229e-05
7.44518e-05
9.30222e-05
0.000116982
0.000146908
0.000182842
0.000224351
0.000270661
0.000320829
0.00037383
0.00042847
0.000483506
0.000537989
0.000591021
0.000641747
0.000689367
0.000733141
0.000772411
0.000806617
0.000835313
0.000858177
0.000875022
0.000885804
0.000890628
0.000889754
0.000883598
0.000872727
0.000857843
0.000839749
0.000819309
0.000797418
0.000774995
0.000752963
0.000732175
0.000713371
0.000697116
0.000683793
0.00067353
0.000666294
0.000661784
0.000659642
0.000659428
0.000660441
0.000662947
0.00066453
0.000667895
0.000664253
3.49056e-05
3.07171e-05
2.7779e-05
2.56137e-05
2.40563e-05
2.31272e-05
2.29618e-05
2.37506e-05
2.56778e-05
2.88951e-05
3.35194e-05
3.97001e-05
4.77099e-05
5.80595e-05
7.15225e-05
8.90574e-05
0.000111577
0.000139709
0.000173612
0.000212972
0.000257107
0.000305122
0.000356013
0.000408602
0.000461659
0.000514215
0.000565364
0.00061425
0.000660071
0.000702086
0.000739636
0.000772158
0.000799203
0.000820446
0.000835703
0.000844933
0.00084825
0.000845927
0.000838397
0.000826247
0.000810203
0.000791098
0.000769828
0.000747322
0.000724528
0.00070239
0.000681778
0.000663447
0.000647965
0.00063573
0.000626856
0.000621333
0.000618804
0.000618973
0.000621253
0.000625123
0.000630525
0.000635522
0.000642142
0.000642512
3.49083e-05
3.07357e-05
2.78199e-05
2.5671e-05
2.41029e-05
2.31096e-05
2.28043e-05
2.33676e-05
2.49947e-05
2.78655e-05
3.21305e-05
3.79549e-05
4.55859e-05
5.54536e-05
6.82139e-05
8.47111e-05
0.000105802
0.000132137
0.000163969
0.000201102
0.000242953
0.000288689
0.000337337
0.000387752
0.000438703
0.000489211