/*--------------------------------*- C++ -*----------------------------------*\
| =========                 |                                                 |
| \\      /  F ield         | OpenFOAM: The Open Source CFD Toolbox           |
|  \\    /   O peration     | Version:  2.4.0                                 |
|   \\  /    A nd           | Web:      www.OpenFOAM.org                      |
|    \\/     M anipulation  |                                                 |
\*---------------------------------------------------------------------------*/
FoamFile
{
    version     2.0;
    format      ascii;
    class       volScalarField;
    location    "4.3";
    object      p;
}
// * * * * * * * * * * * * * * * * * * * * * * * * * * * * * * * * * * * * * //

dimensions      [0 2 -2 0 0 0 0];

internalField   nonuniform List<scalar> 
5625
(
-0.190657
0.162823
0.19175
0.205255
0.214108
0.219262
0.223377
0.226461
0.229122
0.231361
0.233391
0.235218
0.236934
0.238551
0.240112
0.241628
0.24312
0.2446
0.246081
0.247575
0.249089
0.250634
0.252218
0.25385
0.255536
0.257286
0.259102
0.260991
0.26297
0.265029
0.267181
0.269427
0.271769
0.274212
0.276757
0.279402
0.282147
0.28499
0.287926
0.290949
0.294053
0.297227
0.300462
0.303743
0.307055
0.310382
0.313702
0.316995
0.320234
0.323394
0.326445
0.329349
0.332066
0.334553
0.336774
0.338662
0.340188
0.341234
0.341818
0.341696
0.341033
0.339285
0.336988
0.332937
0.328506
0.321101
0.313869
0.301386
0.290565
0.269799
0.254599
0.219074
0.200396
0.130022
0.12
-0.143414
0.160126
0.191834
0.205358
0.214114
0.219235
0.223339
0.226423
0.229083
0.231325
0.233355
0.235183
0.236898
0.238514
0.240075
0.24159
0.243081
0.244559
0.24604
0.247532
0.249045
0.250587
0.252169
0.253797
0.25548
0.257226
0.259039
0.260933
0.262895
0.264947
0.267092
0.269335
0.271674
0.274113
0.276652
0.279291
0.28203
0.284866
0.287795
0.29081
0.293905
0.297071
0.300295
0.303565
0.306866
0.310179
0.313485
0.316761
0.319982
0.323122
0.326151
0.329033
0.331727
0.334189
0.336381
0.338236
0.339726
0.340731
0.341271
0.341097
0.34038
0.338565
0.336199
0.332067
0.327537
0.320048
0.312648
0.300108
0.288982
0.268211
0.252528
0.217122
0.197554
0.127807
0.114648
-0.116011
0.158061
0.192033
0.205581
0.214278
0.219314
0.223384
0.226448
0.229101
0.231335
0.233363
0.235187
0.2369
0.238515
0.240074
0.241588
0.243077
0.244554
0.246032
0.247522
0.249033
0.250573
0.252151
0.253776
0.255455
0.257196
0.259005
0.260891
0.262851
0.264899
0.267037
0.269266
0.271595
0.274022
0.27655
0.279177
0.281904
0.284726
0.287641
0.290641
0.29372
0.296869
0.300075
0.303327
0.306607
0.309898
0.313181
0.316433
0.319628
0.32274
0.325739
0.32859
0.331252
0.333679
0.335835
0.33765
0.339099
0.340055
0.340548
0.340314
0.339545
0.337654
0.33523
0.331002
0.326402
0.318799
0.311293
0.298645
0.287315
0.266494
0.250422
0.215016
0.194903
0.124684
0.11138
-0.0979014
0.156262
0.192051
0.20579
0.2145
0.219452
0.223471
0.226503
0.229141
0.231365
0.233387
0.235205
0.236915
0.238527
0.240084
0.241595
0.243082
0.244556
0.246032
0.24752
0.249028
0.250564
0.252139
0.25376
0.255434
0.257171
0.258973
0.260853
0.262806
0.264847
0.266977
0.269198
0.271517
0.273934
0.27645
0.279066
0.281779
0.284588
0.287488
0.290474
0.293537
0.296669
0.299857
0.303089
0.306349
0.309619
0.312879
0.316106
0.319276
0.32236
0.325328
0.328146
0.330773
0.333164
0.33528
0.337052
0.338455
0.33936
0.339801
0.339504
0.338676
0.336706
0.334217
0.329885
0.325212
0.317477
0.309876
0.297074
0.285588
0.264615
0.248241
0.212684
0.19222
0.121128
0.109446
-0.0814155
0.154666
0.191826
0.205935
0.214727
0.219622
0.223582
0.226576
0.229194
0.231404
0.233417
0.235229
0.236934
0.238542
0.240096
0.241604
0.243088
0.24456
0.246033
0.247518
0.249022
0.250555
0.252127
0.253743
0.255414
0.257145
0.258943
0.260816
0.262763
0.264797
0.266919
0.269134
0.271444
0.273852
0.276358
0.278964
0.281666
0.284464
0.287352
0.290324
0.293373
0.29649
0.299663
0.302878
0.306121
0.309372
0.312612
0.315817
0.318963
0.322022
0.324963
0.327749
0.330343
0.332698
0.334776
0.336506
0.337864
0.338719
0.339107
0.338748
0.337858
0.33581
0.333249
0.328816
0.32406
0.316194
0.308494
0.295519
0.283899
0.262713
0.246093
0.210295
0.189594
0.117639
0.107765
-0.0657402
0.153198
0.19138
0.20602
0.214939
0.219814
0.223714
0.226667
0.229259
0.231452
0.233454
0.235258
0.236958
0.23856
0.24011
0.241615
0.243096
0.244565
0.246035
0.247517
0.249018
0.250548
0.252115
0.253728
0.255395
0.257121
0.258914
0.260781
0.262723
0.264751
0.266867
0.269074
0.271377
0.273777
0.276276
0.278872
0.281566
0.284353
0.28723
0.290192
0.293229
0.296334
0.299493
0.302694
0.305921
0.309156
0.312378
0.315564
0.318689
0.321726
0.32464
0.327398
0.329961
0.332283
0.334325
0.336015
0.337329
0.338135
0.338471
0.338053
0.3371
0.334978
0.332342
0.327816
0.32297
0.314979
0.307175
0.294027
0.28228
0.26086
0.244035
0.207947
0.18709
0.114447
0.106111
-0.0511753
0.151825
0.190772
0.206037
0.215123
0.220027
0.223869
0.226779
0.22934
0.231513
0.233501
0.235295
0.236988
0.238585
0.24013
0.24163
0.243108
0.244573
0.24604
0.247518
0.249017
0.250543
0.252107
0.253716
0.255378
0.257101
0.258889
0.260751
0.262688
0.26471
0.26682
0.269021
0.271318
0.273711
0.276202
0.278791
0.281476
0.284255
0.287123
0.290075
0.293102
0.296195
0.299343
0.302532
0.305745
0.308966
0.312172
0.315341
0.318447
0.321462
0.324354
0.327085
0.32962
0.33191
0.333917
0.335569
0.336842
0.337602
0.337886
0.337412
0.336396
0.334205
0.331493
0.326878
0.321941
0.313831
0.305923
0.292607
0.280739
0.259078
0.242086
0.205678
0.184737
0.111579
0.104503
-0.0377964
0.150535
0.190066
0.205948
0.215286
0.220247
0.224046
0.226912
0.229438
0.231588
0.23356
0.235343
0.237026
0.238617
0.240156
0.241651
0.243125
0.244586
0.24605
0.247524
0.249019
0.250542
0.252102
0.253708
0.255366
0.257084
0.258868
0.260725
0.262658
0.264675
0.266779
0.268975
0.271265
0.273652
0.276136
0.278718
0.281396
0.284168
0.287028
0.289971
0.29299
0.296073
0.299211
0.302389
0.30559
0.308797
0.311989
0.315142
0.318231
0.321227
0.324097
0.326804
0.329312
0.331572
0.333547
0.335163
0.336395
0.337111
0.337346
0.336819
0.335741
0.333484
0.330696
0.325998
0.320969
0.312748
0.304733
0.291256
0.279274
0.25737
0.240245
0.203497
0.182536
0.109
0.102959
-0.025474
0.149339
0.189291
0.205737
0.215437
0.220454
0.224243
0.227066
0.229555
0.231679
0.233632
0.235401
0.237075
0.238657
0.24019
0.241679
0.243148
0.244605
0.246065
0.247536
0.249027
0.250546
0.252102
0.253704
0.255358
0.257073
0.258852
0.260705
0.262633
0.264645
0.266744
0.268935
0.27122
0.273601
0.276079
0.278655
0.281327
0.284091
0.286945
0.28988
0.292891
0.295966
0.299095
0.302262
0.305453
0.308648
0.311827
0.314966
0.318039
0.321018
0.323867
0.326552
0.329034
0.331267
0.33321
0.334792
0.335986
0.33666
0.336847
0.336269
0.335131
0.332812
0.329948
0.325172
0.32005
0.311724
0.303604
0.289972
0.277881
0.255738
0.238507
0.20141
0.180478
0.106669
0.101471
-0.0140564
0.14829
0.188456
0.205426
0.215551
0.220642
0.224455
0.227239
0.22969
0.231786
0.233717
0.235471
0.237133
0.238706
0.240232
0.241715
0.243178
0.244631
0.246086
0.247553
0.24904
0.250555
0.252108
0.253706
0.255356
0.257066
0.258842
0.26069
0.262613
0.264621
0.266716
0.268901
0.271181
0.273557
0.276031
0.278601
0.281267
0.284026
0.286873
0.289802
0.292805
0.295873
0.298993
0.302152
0.305334
0.308518
0.311685
0.314812
0.31787
0.320831
0.323662
0.326326
0.328784
0.330991
0.332904
0.334454
0.33561
0.336245
0.336385
0.335759
0.334562
0.332184
0.329245
0.324396
0.319181
0.310759
0.302532
0.288754
0.276556
0.25418
0.236863
0.199419
0.178552
0.10455
0.100032
-0.00342662
0.147426
0.187584
0.205036
0.21559
0.220825
0.224667
0.22743
0.229843
0.231909
0.233817
0.235554
0.237203
0.238766
0.240283
0.241759
0.243216
0.244663
0.246114
0.247576
0.249059
0.25057
0.252119
0.253713
0.25536
0.257066
0.258837
0.260681
0.2626
0.264604
0.266694
0.268875
0.27115
0.273522
0.27599
0.278555
0.281216
0.28397
0.286811
0.289734
0.292732
0.295793
0.298906
0.302057
0.30523
0.308405
0.311561
0.314676
0.31772
0.320667
0.32348
0.326124
0.32856
0.330742
0.332627
0.334146
0.335266
0.335863
0.335958
0.335285
0.33403
0.331598
0.328585
0.323668
0.318361
0.309847
0.301514
0.287598
0.275295
0.252696
0.235308
0.197525
0.176748
0.102612
0.0986336
0.00650302
0.146754
0.186691
0.204582
0.215544
0.221009
0.224865
0.227636
0.230012
0.232048
0.233932
0.23565
0.237284
0.238836
0.240343
0.241812
0.243263
0.244704
0.246149
0.247607
0.249085
0.250592
0.252137
0.253727
0.25537
0.257072
0.258839
0.260679
0.262594
0.264593
0.266679
0.268856
0.271127
0.273494
0.275958
0.278519
0.281175
0.283923
0.28676
0.289678
0.29267
0.295725
0.298832
0.301976
0.305141
0.308308
0.311454
0.314557
0.317589
0.320521
0.323318
0.325944
0.328358
0.330517
0.332375
0.333864
0.33495
0.335511
0.335561
0.334845
0.333534
0.331049
0.327963
0.322982
0.317584
0.308985
0.300546
0.286503
0.274094
0.251284
0.233834
0.195727
0.175054
0.10083
0.0972721
0.0158027
0.146267
0.185789
0.20409
0.215427
0.221166
0.225055
0.227851
0.230196
0.232203
0.234061
0.235759
0.237378
0.238917
0.240414
0.241874
0.243318
0.244753
0.246193
0.247645
0.249119
0.250622
0.252162
0.253748
0.255387
0.257085
0.258848
0.260683
0.262595
0.26459
0.266672
0.268844
0.271111
0.273474
0.275934
0.27849
0.281142
0.283887
0.286719
0.289632
0.292619
0.29567
0.298771
0.301909
0.305066
0.308225
0.311362
0.314455
0.317476
0.320394
0.323175
0.325783
0.328178
0.330314
0.332146
0.333607
0.33466
0.335186
0.335194
0.334436
0.333069
0.330535
0.327378
0.322337
0.316848
0.308171
0.299626
0.285463
0.27295
0.249942
0.232436
0.194021
0.173461
0.0991809
0.0959442
0.0245322
0.145954
0.184907
0.203571
0.215246
0.221267
0.225249
0.228059
0.230396
0.232373
0.234205
0.235882
0.237484
0.23901
0.240496
0.241947
0.243383
0.244811
0.246244
0.247692
0.249161
0.250659
0.252195
0.253777
0.255411
0.257105
0.258864
0.260695
0.262603
0.264594
0.266672
0.26884
0.271103
0.273462
0.275918
0.278471
0.281119
0.28386
0.286688
0.289597
0.29258
0.295625
0.298721
0.301853
0.305005
0.308156
0.311285
0.314369
0.317378
0.320284
0.32305
0.325642
0.328017
0.330131
0.331938
0.333372
0.334393
0.334886
0.334852
0.334054
0.332634
0.330052
0.326825
0.321728
0.316149
0.307401
0.298749
0.284478
0.271858
0.248667
0.231108
0.192405
0.171959
0.0976478
0.0946477
0.0327437
0.145805
0.184081
0.203027
0.215012
0.221313
0.22544
0.228261
0.230606
0.232557
0.234363
0.236019
0.237603
0.239115
0.240589
0.24203
0.243457
0.244878
0.246305
0.247747
0.249211
0.250704
0.252236
0.253813
0.255443
0.257133
0.258888
0.260715
0.262619
0.264606
0.26668
0.268845
0.271104
0.273459
0.275911
0.278461
0.281105
0.283842
0.286667
0.289572
0.292551
0.295592
0.298683
0.30181
0.304956
0.3081
0.311222
0.314296
0.317295
0.320189
0.322941
0.325517
0.327873
0.329967
0.33175
0.333158
0.334147
0.334609
0.334534
0.333698
0.332226
0.329599
0.326303
0.321154
0.315487
0.306672
0.297914
0.283543
0.270815
0.247457
0.229844
0.190875
0.170537
0.0962162
0.0933805
0.0404823
0.145808
0.183327
0.202458
0.21474
0.22131
0.225602
0.228467
0.230818
0.232755
0.234535
0.23617
0.237735
0.239232
0.240693
0.242123
0.243542
0.244955
0.246376
0.247812
0.24927
0.250758
0.252285
0.253858
0.255483
0.257169
0.25892
0.260743
0.262643
0.264626
0.266696
0.268857
0.271113
0.273465
0.275914
0.278459
0.281101
0.283834
0.286655
0.289558
0.292533
0.29557
0.298657
0.301779
0.304919
0.308057
0.311171
0.314237
0.317226
0.320108
0.322847
0.325408
0.327746
0.329821
0.33158
0.332963
0.333922
0.334353
0.334239
0.333366
0.331842
0.329173
0.32581
0.320612
0.314857
0.305981
0.297117
0.282657
0.269819
0.246309
0.228641
0.189428
0.169187
0.0948746
0.092141
0.0477879
0.145953
0.18265
0.201878
0.214442
0.221266
0.225724
0.228678
0.231027
0.232965
0.23472
0.236333
0.23788
0.239361
0.240809
0.242228
0.243638
0.245043
0.246456
0.247886
0.249339
0.250821
0.252343
0.253911
0.255532
0.257213
0.25896
0.260779
0.262675
0.264654
0.266721
0.268879
0.271131
0.273479
0.275925
0.278467
0.281106
0.283836
0.286654
0.289553
0.292525
0.295559
0.298642
0.301759
0.304894
0.308027
0.311134
0.314192
0.317171
0.320042
0.322768
0.325314
0.327635
0.329691
0.331427
0.332786
0.333715
0.334116
0.333964
0.333056
0.331482
0.328772
0.325344
0.320099
0.314258
0.305327
0.296358
0.281816
0.268867
0.245222
0.227494
0.188061
0.167903
0.0936135
0.0909275
0.0546955
0.146226
0.182051
0.201308
0.214121
0.221187
0.225809
0.228879
0.231238
0.233181
0.234919
0.236511
0.238039
0.239503
0.240937
0.242345
0.243744
0.245141
0.246546
0.247969
0.249417
0.250894
0.252411
0.253974
0.255591
0.257267
0.25901
0.260825
0.262717
0.264692
0.266755
0.268909
0.271158
0.273503
0.275945
0.278485
0.28112
0.283848
0.286663
0.289559
0.292528
0.295558
0.298638
0.301751
0.304881
0.308008
0.311108
0.314159
0.317129
0.319989
0.322702
0.325234
0.327539
0.329576
0.33129
0.332626
0.333526
0.333898
0.333709
0.332767
0.331144
0.328396
0.324902
0.319615
0.313689
0.304707
0.295633
0.281019
0.267957
0.244193
0.226398
0.186771
0.166678
0.0924249
0.089739
0.0612365
0.146616
0.181532
0.200769
0.213776
0.221079
0.225865
0.229054
0.231456
0.233399
0.235129
0.236701
0.23821
0.239658
0.241078
0.242473
0.243862
0.24525
0.246647
0.248063
0.249505
0.250976
0.252488
0.254046
0.255658
0.257331
0.259069
0.26088
0.262768
0.26474
0.266799
0.268949
0.271195
0.273536
0.275976
0.278513
0.281145
0.28387
0.286682
0.289576
0.292541
0.295569
0.298645
0.301754
0.304879
0.308001
0.311095
0.314138
0.317099
0.319949
0.32265
0.325168
0.327456
0.329475
0.331167
0.332481
0.333353
0.333697
0.333471
0.332497
0.330826
0.328041
0.324485
0.319157
0.313148
0.30412
0.29494
0.280265
0.267086
0.243219
0.225351
0.185555
0.165508
0.0913019
0.0885741
0.0674387
0.147108
0.181093
0.200266
0.213413
0.220951
0.225897
0.229202
0.231674
0.233619
0.235348
0.236906
0.238395
0.239826
0.241231
0.242614
0.243992
0.24537
0.246759
0.248168
0.249603
0.251069
0.252575
0.254129
0.255736
0.257404
0.259138
0.260945
0.262829
0.264797
0.266852
0.268999
0.271241
0.27358
0.276017
0.27855
0.28118
0.283902
0.286712
0.289603
0.292566
0.29559
0.298663
0.301769
0.304889
0.308006
0.311094
0.314129
0.317082
0.319922
0.322611
0.325115
0.327387
0.329389
0.33106
0.332351
0.333195
0.333512
0.333251
0.332245
0.330528
0.327707
0.324089
0.318724
0.312633
0.303564
0.29428
0.27955
0.266254
0.2423
0.224348
0.184411
0.164387
0.0902394
0.0874319
0.0733271
0.14769
0.180737
0.199802
0.213045
0.220809
0.225904
0.229331
0.231879
0.233848
0.235572
0.237122
0.238593
0.240007
0.241397
0.242767
0.244134
0.245502
0.246883
0.248284
0.249712
0.251172
0.252673
0.254222
0.255824
0.257488
0.259217
0.26102
0.2629
0.264864
0.266916
0.26906
0.271299
0.273634
0.276068
0.278599
0.281226
0.283946
0.286753
0.289641
0.292601
0.295623
0.298692
0.301794
0.304911
0.308022
0.311104
0.314133
0.317076
0.319907
0.322584
0.325075
0.327332
0.329316
0.330966
0.332235
0.333052
0.333343
0.333047
0.33201
0.330247
0.327394
0.323715
0.318315
0.312144
0.303038
0.29365
0.278875
0.265458
0.241432
0.223389
0.183336
0.163313
0.089233
0.0863115
0.0789224
0.148354
0.180461
0.199378
0.21269
0.220649
0.225893
0.229446
0.232066
0.234081
0.235802
0.237349
0.238805
0.240202
0.241577
0.242934
0.244289
0.245647
0.247018
0.248412
0.249833
0.251287
0.252783
0.254326
0.255923
0.257582
0.259307
0.261106
0.262982
0.264943
0.266991
0.269131
0.271367
0.273699
0.27613
0.278658
0.281283
0.284
0.286805
0.289691
0.292648
0.295667
0.298733
0.301832
0.304944
0.308051
0.311127
0.314148
0.317083
0.319904
0.322569
0.325048
0.327288
0.329255
0.330885
0.332133
0.332924
0.333189
0.332858
0.331793
0.329985
0.3271
0.323362
0.31793
0.311678
0.302541
0.293049
0.278237
0.264697
0.240616
0.22247
0.182328
0.162283
0.0882792
0.085212
0.0842392
0.149092
0.180265
0.199
0.212354
0.220474
0.22587
0.229545
0.232243
0.234308
0.236042
0.237584
0.23903
0.240411
0.241771
0.243114
0.244457
0.245805
0.247167
0.248551
0.249966
0.251414
0.252903
0.254441
0.256034
0.257688
0.259409
0.261203
0.263076
0.265032
0.267077
0.269214
0.271446
0.273776
0.276204
0.278729
0.281351
0.284066
0.286868
0.289752
0.292707
0.295723
0.298786
0.301881
0.304989
0.308091
0.311161
0.314175
0.317102
0.319913
0.322567
0.325032
0.327258
0.329208
0.330817
0.332044
0.332809
0.333049
0.332685
0.331591
0.329739
0.326824
0.323028
0.317566
0.311237
0.302071
0.292477
0.277635
0.263971
0.23985
0.221589
0.181385
0.161293
0.0873751
0.0841328
0.0892907
0.149899
0.180145
0.198669
0.212037
0.220295
0.22584
0.229629
0.232414
0.234527
0.23629
0.237827
0.239267
0.240634
0.241979
0.243308
0.244639
0.245976
0.247328
0.248704
0.250111
0.251552
0.253036
0.254568
0.256156
0.257805
0.259522
0.261312
0.263181
0.265133
0.267175
0.269308
0.271537
0.273864
0.276289
0.278812
0.281431
0.284144
0.286944
0.289825
0.292777
0.29579
0.298851
0.301942
0.305046
0.308143
0.311207
0.314214
0.317133
0.319934
0.322576
0.325029
0.327239
0.329173
0.330762
0.331969
0.332707
0.332923
0.332526
0.331404
0.32951
0.326566
0.322713
0.317224
0.310818
0.301629
0.291933
0.277069
0.263278
0.239131
0.220745
0.180505
0.160342
0.0865183
0.0830732
0.0940922
0.150768
0.180099
0.198388
0.211744
0.220125
0.2258
0.229704
0.232577
0.234745
0.236536
0.238081
0.239514
0.240872
0.242202
0.243517
0.244835
0.246161
0.247504
0.24887
0.250269
0.251704
0.253182
0.254708
0.256291
0.257935
0.259648
0.261433
0.263298
0.265247
0.267285
0.269415
0.271641
0.273964
0.276387
0.278907
0.281524
0.284234
0.287032
0.28991
0.29286
0.29587
0.298927
0.302015
0.305115
0.308207
0.311265
0.314265
0.317175
0.319967
0.322598
0.325038
0.327232
0.32915
0.330719
0.331906
0.332619
0.332811
0.332381
0.331233
0.329297
0.326325
0.322418
0.316903
0.310422
0.301212
0.291415
0.276537
0.262617
0.238459
0.219936
0.179686
0.159427
0.0857072
0.0820327
0.0986591
0.15169
0.180121
0.198158
0.211477
0.219967
0.225751
0.229776
0.232731
0.234963
0.236782
0.238344
0.239772
0.241123
0.242441
0.243741
0.245046
0.246361
0.247694
0.24905
0.250441
0.25187
0.253341
0.254862
0.256439
0.258078
0.259786
0.261568
0.263428
0.265374
0.267408
0.269535
0.271758
0.274078
0.276497
0.279015
0.28163
0.284337
0.287132
0.290008
0.292955
0.295963
0.299017
0.302101
0.305196
0.308283
0.311335
0.314328
0.31723
0.320012
0.322631
0.325059
0.327238
0.329139
0.330688
0.331855
0.332543
0.332712
0.33225
0.331077
0.329099
0.326102
0.32214
0.316601
0.310047
0.300821
0.290924
0.276038
0.261988
0.237832
0.219161
0.178926
0.158547
0.0849405
0.0810108
0.103005
0.152658
0.180206
0.197978
0.211241
0.219823
0.225705
0.229847
0.232879
0.235178
0.237034
0.238612
0.240043
0.241386
0.242694
0.243982
0.245274
0.246577
0.247899
0.249246
0.250628
0.25205
0.253514
0.255029
0.256601
0.258235
0.259938
0.261716
0.263572
0.265514
0.267544
0.269668
0.271888
0.274205
0.276622
0.279136
0.281748
0.284453
0.287246
0.290119
0.293064
0.296068
0.299119
0.302199
0.30529
0.308372
0.311418
0.314404
0.317297
0.320069
0.322677
0.325091
0.327255
0.32914
0.33067
0.331817
0.33248
0.332626
0.332133
0.330935
0.328917
0.325894
0.321879
0.31632
0.309694
0.300455
0.290458
0.275572
0.261391
0.23725
0.218419
0.178225
0.157701
0.0842171
0.080007
0.107143
0.153665
0.18035
0.197848
0.211037
0.219695
0.225671
0.229913
0.233028
0.235392
0.23729
0.238888
0.240324
0.241664
0.242962
0.244239
0.245518
0.246809
0.24812
0.249457
0.250831
0.252245
0.253702
0.255211
0.256777
0.258407
0.260105
0.261878
0.26373
0.265668
0.267695
0.269815
0.272032
0.274346
0.27676
0.279272
0.281881
0.284583
0.287374
0.290244
0.293186
0.296187
0.299234
0.302311
0.305397
0.308473
0.311513
0.314492
0.317376
0.320138
0.322734
0.325136
0.327284
0.329153
0.330664
0.331791
0.332429
0.332553
0.332029
0.330806
0.32875
0.325703
0.321637
0.316058
0.309362
0.300113
0.290019
0.275139
0.260824
0.236712
0.21771
0.177581
0.156888
0.083536
0.0790212
0.111083
0.154704
0.180549
0.197766
0.210867
0.219586
0.225651
0.229977
0.233182
0.235606
0.23755
0.239174
0.240617
0.241956
0.243246
0.244514
0.24578
0.247059
0.248359
0.249686
0.25105
0.252456
0.253906
0.255409
0.25697
0.258593
0.260287
0.262055
0.263904
0.265837
0.267861
0.269977
0.272191
0.274502
0.276913
0.279422
0.282029
0.284728
0.287515
0.290383
0.293322
0.29632
0.299364
0.302436
0.305517
0.308588
0.311621
0.314592
0.317467
0.320219
0.322804
0.325192
0.327326
0.329178
0.330669
0.331777
0.332391
0.332493
0.331938
0.330692
0.328597
0.325528
0.321412
0.315816
0.30905
0.299796
0.289604
0.274737
0.260287
0.236217
0.217034
0.176992
0.156107
0.0828968
0.0780529
0.114837
0.155769
0.1808
0.19773
0.210732
0.219499
0.225644
0.230052
0.233339
0.235823
0.237814
0.239468
0.240922
0.242263
0.243546
0.244805
0.24606
0.247328
0.248616
0.249932
0.251287
0.252684
0.254128
0.255623
0.257178
0.258796
0.260485
0.262249
0.264093
0.266023
0.268042
0.270155
0.272365
0.274673
0.277081
0.279587
0.282191
0.284887
0.287672
0.290537
0.293473
0.296467
0.299507
0.302575
0.305651
0.308716
0.311742
0.314705
0.317571
0.320313
0.322885
0.325261
0.327379
0.329215
0.330687
0.331776
0.332365
0.332446
0.331861
0.330592
0.328459
0.325369
0.321204
0.315592
0.30876
0.299502
0.289216
0.274367
0.259781
0.235764
0.216389
0.176457
0.155359
0.082299
0.0771021
0.118414
0.156857
0.181098
0.197738
0.210633
0.219436
0.225651
0.230142
0.233497
0.23605
0.238084
0.239771
0.241241
0.242585
0.243864
0.245114
0.246359
0.247615
0.248892
0.250198
0.251543
0.252932
0.254367
0.255856
0.257404
0.259017
0.2607
0.262459
0.264299
0.266224
0.26824
0.27035
0.272556
0.274861
0.277266
0.279769
0.28237
0.285063
0.287845
0.290706
0.293638
0.296629
0.299665
0.302728
0.305799
0.308857
0.311876
0.314832
0.317688
0.32042
0.322979
0.325342
0.327444
0.329265
0.330716
0.331786
0.332351
0.332411
0.331796
0.330506
0.328336
0.325226
0.321013
0.315388
0.30849
0.299233
0.288852
0.274028
0.259305
0.235353
0.215777
0.175977
0.154642
0.0817424
0.0761685
0.121823
0.15796
0.181441
0.197789
0.210567
0.219398
0.225676
0.230246
0.233666
0.236285
0.238362
0.240083
0.241574
0.242924
0.2442
0.245442
0.246678
0.247923
0.249189
0.250484
0.251819
0.253198
0.254626
0.256107
0.257649
0.259256
0.260934
0.262688
0.264523
0.266444
0.268456
0.270561
0.272765
0.275066
0.277467
0.279967
0.282565
0.285255
0.288033
0.290891
0.29382
0.296807
0.299838
0.302896
0.305961
0.309013
0.312025
0.314972
0.317818
0.320539
0.323086
0.325435
0.327521
0.329326
0.330758
0.331809
0.33235
0.332389
0.331745
0.330434
0.328228
0.325099
0.320839
0.315203
0.308241
0.298987
0.288514
0.273719
0.25886
0.234982
0.215196
0.175548
0.153957
0.081227
0.0752521
0.125073
0.159075
0.181825
0.197882
0.210535
0.219387
0.22572
0.230363
0.233851
0.236526
0.238652
0.240406
0.24192
0.24328
0.244556
0.245791
0.247018
0.248252
0.249508
0.250792
0.252117
0.253486
0.254905
0.256379
0.257914
0.259514
0.261186
0.262935
0.264766
0.266683
0.268691
0.270792
0.272991
0.275289
0.277687
0.280183
0.282778
0.285464
0.288239
0.291093
0.294018
0.297
0.300026
0.303079
0.306138
0.309184
0.312187
0.315125
0.317962
0.320671
0.323206
0.325541
0.327611
0.329399
0.330812
0.331844
0.332362
0.33238
0.331708
0.330376
0.328134
0.324988
0.320682
0.315036
0.308013
0.298764
0.288201
0.273441
0.258444
0.234652
0.214648
0.175171
0.153304
0.0807527
0.0743528
0.128171
0.160198
0.182247
0.198015
0.210537
0.219402
0.225786
0.230495
0.234051
0.236778
0.238956
0.240742
0.24228
0.243653
0.244931
0.246163
0.24738
0.248604
0.249849
0.251123
0.252437
0.253796
0.255206
0.256672
0.2582
0.259794
0.26146
0.263204
0.265029
0.266941
0.268945
0.271042
0.273238
0.275531
0.277926
0.280418
0.283009
0.285691
0.288462
0.291312
0.294233
0.29721
0.300231
0.303278
0.306331
0.309369
0.312364
0.315293
0.318119
0.320817
0.323338
0.32566
0.327714
0.329485
0.330878
0.331891
0.332386
0.332384
0.331684
0.330332
0.328055
0.324892
0.320542
0.314889
0.307805
0.298565
0.287913
0.273193
0.258059
0.234361
0.214132
0.174846
0.152684
0.0803198
0.0734708
0.131126
0.161324
0.182703
0.198187
0.210572
0.219442
0.225874
0.230645
0.234265
0.237048
0.239271
0.241094
0.242655
0.244044
0.245328
0.246556
0.247767
0.248981
0.250215
0.251478
0.252781
0.254131
0.255531
0.256988
0.258509
0.260096
0.261756
0.263494
0.265314
0.267221
0.26922
0.271313
0.273504
0.275794
0.278184
0.280673
0.283259
0.285938
0.288704
0.29155
0.294466
0.297438
0.300453
0.303494
0.30654
0.30957
0.312556
0.315476
0.318291
0.320977
0.323484
0.325791
0.327829
0.329584
0.330957
0.331952
0.332423
0.332401
0.331673
0.330302
0.327992
0.324813
0.32042
0.31476
0.307618
0.298391
0.287651
0.272975
0.257705
0.23411
0.213649
0.17457
0.152096
0.0799286
0.0726062
0.133945
0.162451
0.18319
0.198395
0.210641
0.219508
0.225984
0.230814
0.234494
0.237335
0.2396
0.241462
0.243047
0.244453
0.245745
0.246974
0.248178
0.249383
0.250606
0.251858
0.253151
0.25449
0.255881
0.25733
0.258842
0.260421
0.262075
0.263807
0.265621
0.267523
0.269517
0.271605
0.273792
0.276078
0.278464
0.280948
0.28353
0.286204
0.288966
0.291807
0.294717
0.297684
0.300693
0.303727
0.306765
0.309787
0.312764
0.315673
0.318477
0.32115
0.323644
0.325936
0.327957
0.329695
0.331048
0.332025
0.332472
0.332431
0.331676
0.330287
0.327944
0.324751
0.320315
0.31465
0.307452
0.298239
0.287414
0.272787
0.257382
0.233897
0.2132
0.174344
0.151541
0.0795795
0.0717591
0.136633
0.163575
0.183705
0.198638
0.210742
0.219601
0.226116
0.231002
0.23474
0.237638
0.239948
0.241846
0.243459
0.244882
0.246184
0.247416
0.248616
0.249813
0.251026
0.252267
0.253549
0.254877
0.256258
0.257697
0.259201
0.260773
0.262419
0.264145
0.265953
0.26785
0.269838
0.271921
0.274104
0.276384
0.278766
0.281245
0.283823
0.286492
0.289249
0.292084
0.294988
0.297949
0.300951
0.303977
0.307007
0.31002
0.312988
0.315886
0.318677
0.321338
0.323817
0.326095
0.328099
0.32982
0.331153
0.332111
0.332535
0.332475
0.331693
0.330286
0.327911
0.324704
0.320228
0.314559
0.307307
0.298112
0.287204
0.272628
0.25709
0.233723
0.212785
0.174166
0.15102
0.0792731
0.0709297
0.139197
0.164694
0.184246
0.198915
0.210875
0.21972
0.22627
0.23121
0.235004
0.237955
0.240314
0.242247
0.24389
0.245331
0.246645
0.247882
0.24908
0.250271
0.251474
0.252705
0.253975
0.255293
0.256664
0.258093
0.259588
0.261151
0.26279
0.264509
0.266311
0.268201
0.270185
0.272262
0.27444
0.276715
0.279091
0.281565
0.284138
0.286801
0.289553
0.292382
0.29528
0.298233
0.301228
0.304246
0.307268
0.310271
0.313228
0.316115
0.318894
0.321541
0.324005
0.326267
0.328254
0.329958
0.331271
0.33221
0.332612
0.332532
0.331724
0.3303
0.327894
0.324675
0.32016
0.314487
0.307182
0.298007
0.287021
0.2725
0.256829
0.233587
0.212405
0.174037
0.150534
0.07901
0.0701185
0.141643
0.165805
0.18481
0.199223
0.211039
0.219866
0.226446
0.231437
0.235286
0.238289
0.240696
0.242668
0.24434
0.245803
0.247129
0.248373
0.249572
0.250758
0.251953
0.253173
0.254433
0.255739
0.257099
0.258519
0.260004
0.261559
0.26319
0.264901
0.266697
0.268581
0.270558
0.27263
0.274802
0.277071
0.279442
0.28191
0.284477
0.287134
0.28988
0.292702
0.295593
0.298539
0.301525
0.304535
0.307547
0.310539
0.313485
0.31636
0.319126
0.321759
0.324208
0.326454
0.328423
0.330109
0.331402
0.332323
0.332702
0.332604
0.33177
0.330328
0.327892
0.324662
0.32011
0.314436
0.30708
0.297925
0.286864
0.272402
0.256601
0.233489
0.212062
0.173956
0.150083
0.0787911
0.0693258
0.143975
0.166906
0.185395
0.199561
0.211233
0.220037
0.226645
0.231684
0.235586
0.238641
0.241094
0.243107
0.244809
0.246296
0.247637
0.248889
0.250091
0.251274
0.252463
0.253674
0.254923
0.256218
0.257568
0.258976
0.260452
0.261998
0.263621
0.265324
0.267112
0.268989
0.27096
0.273025
0.275191
0.277454
0.279819
0.282281
0.284841
0.287492
0.29023
0.293045
0.295929
0.298866
0.301844
0.304844
0.307845
0.310827
0.31376
0.316622
0.319374
0.321993
0.324426
0.326656
0.328606
0.330275
0.331548
0.332449
0.332806
0.332689
0.33183
0.330372
0.327907
0.324667
0.320078
0.314404
0.307
0.297867
0.286735
0.272333
0.256406
0.233428
0.211755
0.173922
0.149669
0.0786172
0.068552
0.1462
0.167995
0.185998
0.199926
0.211456
0.220235
0.226868
0.231951
0.235904
0.239011
0.241509
0.243563
0.245299
0.246809
0.248169
0.24943
0.250637
0.25182
0.253004
0.254207
0.255446
0.256731
0.258069
0.259467
0.260932
0.262469
0.264083
0.265777
0.267558
0.269427
0.271391
0.27345
0.275609
0.277865
0.280224
0.282679
0.285232
0.287875
0.290606
0.293413
0.296288
0.299216
0.302184
0.305173
0.308164
0.311133
0.314054
0.316903
0.31964
0.322243
0.32466
0.326873
0.328805
0.330455
0.331707
0.33259
0.332924
0.332789
0.331905
0.330432
0.327939
0.324688
0.320066
0.314393
0.306943
0.297832
0.286632
0.272295
0.256243
0.233405
0.211486
0.173934
0.149292
0.0784893
0.0677978
0.148321
0.169069
0.186618
0.200318
0.211707
0.220458
0.227112
0.232238
0.236241
0.239397
0.241942
0.244035
0.245806
0.247344
0.248724
0.249998
0.251211
0.252396
0.253577
0.254774
0.256004
0.257278
0.258607
0.259993
0.261448
0.262975
0.264579
0.266264
0.268037
0.269898
0.271855
0.273906
0.276058
0.278307
0.280658
0.283105
0.285651
0.288286
0.291009
0.293806
0.296672
0.29959
0.302547
0.305525
0.308503
0.31146
0.314367
0.317201
0.319923
0.32251
0.324909
0.327105
0.329018
0.33065
0.331881
0.332745
0.333057
0.332904
0.331996
0.330507
0.327987
0.324728
0.320073
0.314403
0.30691
0.297821
0.286557
0.272286
0.256115
0.233419
0.211257
0.173993
0.148953
0.0784086
0.0670638
0.150343
0.170129
0.187252
0.200735
0.211986
0.220705
0.227379
0.232545
0.236595
0.239801
0.242391
0.244525
0.246331
0.247899
0.2493
0.25059
0.251812
0.253001
0.254182
0.255375
0.256598
0.257862
0.25918
0.260556
0.262
0.263517
0.265112
0.266787
0.268551
0.270403
0.272352
0.274395
0.276538
0.27878
0.281123
0.283562
0.286099
0.288725
0.291439
0.294226
0.297081
0.299989
0.302934
0.3059
0.308865
0.311808
0.3147
0.317519
0.320224
0.322795
0.325176
0.327354
0.329247
0.33086
0.332071
0.332916
0.333205
0.333034
0.332102
0.330599
0.328053
0.324785
0.3201
0.314433
0.306899
0.297835
0.28651
0.272307
0.256021
0.233469
0.211068
0.174098
0.148654
0.0783761
0.0663507
0.15227
0.171172
0.1879
0.201175
0.21229
0.220977
0.227668
0.232873
0.236968
0.240222
0.242856
0.245032
0.246873
0.248471
0.249897
0.251205
0.252439
0.253634
0.254818
0.256008
0.257226
0.258483
0.259791
0.261157
0.262591
0.264097
0.265681
0.267347
0.269101
0.270944
0.272884
0.274918
0.277053
0.279285
0.28162
0.28405
0.286578
0.289194
0.291897
0.294674
0.297518