/*--------------------------------*- C++ -*----------------------------------*\
| =========                 |                                                 |
| \\      /  F ield         | OpenFOAM: The Open Source CFD Toolbox           |
|  \\    /   O peration     | Version:  2.4.0                                 |
|   \\  /    A nd           | Web:      www.OpenFOAM.org                      |
|    \\/     M anipulation  |                                                 |
\*---------------------------------------------------------------------------*/
FoamFile
{
    version     2.0;
    format      ascii;
    class       volScalarField;
    location    "0.4";
    object      p;
}
// * * * * * * * * * * * * * * * * * * * * * * * * * * * * * * * * * * * * * //

dimensions      [0 2 -2 0 0 0 0];

internalField   nonuniform List<scalar> 
6000
(
0.0330811
0.261488
0.258614
0.283204
0.28631
0.296804
0.318699
0.355415
0.393511
0.427021
0.453913
0.475944
0.494228
0.509257
0.521162
0.530318
0.53736
0.542895
0.547331
0.550903
0.553753
0.555989
0.557699
0.558955
0.559814
0.560317
0.560496
0.560377
0.559974
0.559301
0.558364
0.557165
0.555702
0.55397
0.551959
0.549655
0.54704
0.544092
0.540782
0.537075
0.53293
0.528296
0.523113
0.517309
0.510792
0.50346
0.495171
0.485781
0.475043
0.462799
0.448506
0.432234
0.412344
0.390531
0.360487
0.332457
0.279357
0.252121
0.132092
0.146602
0.0481046
0.259688
0.258658
0.283127
0.28633
0.296659
0.318246
0.354679
0.392806
0.426417
0.453422
0.475548
0.493915
0.509018
0.520988
0.530195
0.537271
0.542829
0.547283
0.550867
0.553727
0.555969
0.557685
0.558945
0.559806
0.560311
0.560491
0.560371
0.559968
0.559293
0.558354
0.557152
0.555686
0.55395
0.551934
0.549623
0.547001
0.544045
0.540724
0.537006
0.532848
0.5282
0.523002
0.517181
0.510646
0.503292
0.494978
0.485559
0.474788
0.462505
0.448168
0.431838
0.411895
0.389982
0.359891
0.331656
0.278589
0.2508
0.131198
0.144253
0.0619721
0.257604
0.25875
0.28308
0.286352
0.296474
0.317748
0.353998
0.392131
0.425846
0.45296
0.475176
0.493619
0.508795
0.520827
0.530081
0.537187
0.542765
0.547233
0.550828
0.553697
0.555946
0.557666
0.558929
0.559792
0.560298
0.560479
0.560358
0.559954
0.559278
0.558336
0.557132
0.555662
0.553922
0.551901
0.549585
0.546957
0.543994
0.540667
0.536941
0.532774
0.528117
0.522907
0.517071
0.510519
0.503146
0.494811
0.485366
0.474567
0.462249
0.447872
0.431493
0.411494
0.389502
0.35934
0.330943
0.277841
0.249632
0.130209
0.14216
0.0734909
0.255421
0.258895
0.283046
0.286363
0.296242
0.317205
0.353311
0.391488
0.425319
0.45254
0.474835
0.49335
0.508595
0.520686
0.52998
0.537111
0.542704
0.547183
0.550787
0.553662
0.555916
0.55764
0.558906
0.55977
0.560276
0.560456
0.560335
0.55993
0.559251
0.558307
0.5571
0.555627
0.553882
0.551857
0.549537
0.546903
0.543934
0.540599
0.536865
0.532689
0.528021
0.522799
0.516951
0.510384
0.502993
0.494638
0.48517
0.474343
0.461993
0.447579
0.431153
0.411104
0.389036
0.358813
0.33027
0.277128
0.248552
0.129258
0.14039
0.0835582
0.25325
0.259057
0.283031
0.286362
0.295957
0.316605
0.352592
0.39085
0.424813
0.452138
0.474507
0.493091
0.508404
0.520552
0.529884
0.537035
0.54264
0.547127
0.550739
0.553619
0.555877
0.557603
0.55887
0.559735
0.560241
0.56042
0.560298
0.55989
0.55921
0.558264
0.557053
0.555576
0.553828
0.551798
0.549473
0.546834
0.543858
0.540516
0.536774
0.53259
0.527911
0.522678
0.516817
0.510235
0.502828
0.494453
0.484962
0.47411
0.461728
0.447278
0.430806
0.410709
0.388568
0.358288
0.329602
0.276428
0.247499
0.128345
0.138823
0.092739
0.251163
0.259225
0.283029
0.286345
0.29562
0.315947
0.351837
0.390204
0.424312
0.451738
0.474176
0.492828
0.50821
0.520416
0.529784
0.536954
0.542568
0.547062
0.550679
0.553564
0.555825
0.557552
0.55882
0.559685
0.56019
0.560369
0.560244
0.559835
0.559153
0.558203
0.556989
0.555509
0.553757
0.551723
0.549393
0.546748
0.543766
0.540417
0.536667
0.532474
0.527786
0.522542
0.516668
0.510072
0.502648
0.494254
0.484741
0.473863
0.461451
0.446967
0.430449
0.410307
0.388092
0.357758
0.328929
0.275732
0.246453
0.127461
0.137392
0.101204
0.249205
0.259394
0.283027
0.286312
0.295235
0.315238
0.35105
0.389547
0.423808
0.45133
0.473832
0.492552
0.508006
0.520272
0.529676
0.536864
0.542486
0.546985
0.550607
0.553495
0.555758
0.557487
0.558754
0.559619
0.560124
0.560301
0.560175
0.559764
0.559079
0.558127
0.55691
0.555426
0.55367
0.551631
0.549296
0.546646
0.543659
0.540302
0.536545
0.532343
0.527646
0.52239
0.516504
0.509894
0.502454
0.494042
0.484507
0.473604
0.461162
0.446644
0.430083
0.409896
0.387609
0.357224
0.328254
0.275038
0.245416
0.126604
0.136075
0.10904
0.247403
0.259565
0.283006
0.286266
0.294811
0.31449
0.35024
0.388884
0.423297
0.450909
0.473471
0.492258
0.507786
0.520114
0.529556
0.536762
0.542392
0.546896
0.550522
0.553413
0.555678
0.557407
0.558675
0.559539
0.560043
0.560219
0.560091
0.559678
0.55899
0.558036
0.556816
0.555328
0.553568
0.551525
0.549185
0.54653
0.543535
0.540174
0.536409
0.532198
0.527492
0.522226
0.516327
0.509703
0.502248
0.493817
0.484262
0.473335
0.460863
0.446313
0.429709
0.409477
0.38712
0.356686
0.327577
0.274348
0.244391
0.125778
0.134861
0.116344
0.245773
0.259736
0.282967
0.286195
0.294358
0.313718
0.349419
0.388218
0.42278
0.450474
0.473088
0.491941
0.507545
0.519939
0.529423
0.536648
0.542287
0.546796
0.550425
0.553318
0.555585
0.557315
0.558583
0.559447
0.559949
0.560124
0.559995
0.55958
0.55889
0.557932
0.556709
0.555219
0.553455
0.551408
0.549063
0.546402
0.543402
0.540034
0.536261
0.532043
0.527327
0.52205
0.51614
0.509503
0.502031
0.493583
0.484007
0.473056
0.460556
0.445973
0.429327
0.409054
0.386628
0.356146
0.326901
0.273663
0.243381
0.124982
0.133739
0.123213
0.244324
0.259907
0.282906
0.286097
0.29389
0.312937
0.348599
0.387558
0.422259
0.450026
0.472685
0.491601
0.507283
0.519747
0.529275
0.536522
0.542171
0.546686
0.550318
0.553214
0.555482
0.557213
0.558481
0.559344
0.559846
0.56002
0.559889
0.559472
0.55878
0.55782
0.556594
0.555101
0.553333
0.551282
0.548932
0.546266
0.54326
0.539885
0.536106
0.531879
0.527154
0.521867
0.515945
0.509294
0.501808
0.493342
0.483746
0.472771
0.460243
0.445629
0.428941
0.408627
0.386133
0.355606
0.326228
0.272984
0.242387
0.124217
0.132698
0.129722
0.243062
0.260078
0.282819
0.285974
0.293414
0.312164
0.347793
0.38691
0.421739
0.449569
0.472264
0.491239
0.507001
0.519537
0.529114
0.536386
0.542047
0.546568
0.550204
0.553102
0.555372
0.557103
0.558372
0.559235
0.559736
0.559909
0.559777
0.559358
0.558664
0.557701
0.556473
0.554976
0.553205
0.55115
0.548796
0.546125
0.543113
0.539732
0.535945
0.53171
0.526976
0.521679
0.515745
0.509081
0.50158
0.493096
0.48348
0.472483
0.459927
0.445281
0.428554
0.408198
0.385639
0.355067
0.32556
0.272311
0.241412
0.123481
0.131729
0.135931
0.24199
0.260249
0.282708
0.285832
0.29294
0.311417
0.347016
0.386284
0.421226
0.449107
0.471828
0.490857
0.506699
0.519312
0.528941
0.536241
0.541917
0.546444
0.550084
0.552985
0.555256
0.556988
0.558257
0.55912
0.559621
0.559792
0.559659
0.559239
0.558543
0.557579
0.556348
0.554848
0.553073
0.551014
0.548656
0.54598
0.542963
0.539575
0.535781
0.531539
0.526795
0.521488
0.515543
0.508866
0.50135
0.492849
0.483213
0.472193
0.45961
0.444934
0.428166
0.407771
0.385146
0.354531
0.324898
0.271646
0.240457
0.122772
0.130823
0.141885
0.24111
0.260424
0.282575
0.285677
0.292479
0.310713
0.346283
0.385688
0.420727
0.448645
0.471382
0.490459
0.506381
0.519075
0.528758
0.53609
0.541782
0.546318
0.549961
0.552864
0.555137
0.55687
0.55814
0.559003
0.559503
0.559674
0.55954
0.559118
0.55842
0.557454
0.55622
0.554718
0.55294
0.550877
0.548515
0.545834
0.542811
0.539418
0.535617
0.531367
0.526614
0.521298
0.515341
0.508651
0.50112
0.492603
0.482947
0.471904
0.459294
0.444588
0.427781
0.407346
0.384658
0.354
0.324245
0.27099
0.239526
0.122087
0.129974
0.147618
0.240423
0.260608
0.282429
0.285518
0.292044
0.31007
0.345608
0.385132
0.420247
0.448189
0.47093
0.490048
0.50605
0.518827
0.52857
0.535936
0.541645
0.54619
0.549838
0.552743
0.555017
0.556751
0.558021
0.558884
0.559384
0.559554
0.559419
0.558996
0.558297
0.557329
0.556093
0.554587
0.552807
0.55074
0.548374
0.545689
0.542661
0.539261
0.535454
0.531196
0.526435
0.521108
0.515141
0.508438
0.500893
0.492359
0.482684
0.471619
0.458983
0.444247
0.427401
0.406928
0.384178
0.353477
0.323603
0.270345
0.238618
0.121427
0.129176
0.153158
0.239926
0.260806
0.282276
0.285366
0.291653
0.309507
0.345006
0.384624
0.419794
0.447744
0.470476
0.489629
0.505709
0.518573
0.528379
0.53578
0.541509
0.546063
0.549715
0.552622
0.554897
0.556633
0.557903
0.558765
0.559265
0.559435
0.559299
0.558875
0.558174
0.557204
0.555966
0.554458
0.552674
0.550605
0.548234
0.545544
0.542511
0.539106
0.535292
0.531027
0.526258
0.520922
0.514943
0.508229
0.500669
0.492119
0.482425
0.471339
0.458677
0.443912
0.427028
0.406517
0.383706
0.352963
0.322974
0.269712
0.237737
0.12079
0.128423
0.158525
0.239614
0.261028
0.282129
0.285234
0.291323
0.309042
0.344489
0.384175
0.419375
0.447316
0.470027
0.489205
0.505361
0.518315
0.528187
0.535626
0.541374
0.545939
0.549595
0.552504
0.55478
0.556516
0.557786
0.558648
0.559148
0.559317
0.55918
0.558755
0.558053
0.557081
0.555841
0.554331
0.552544
0.550471
0.548097
0.545403
0.542365
0.538954
0.535134
0.530861
0.526084
0.520738
0.514749
0.508023
0.500449
0.491884
0.482172
0.471065
0.458377
0.443584
0.426664
0.406114
0.383244
0.35246
0.322359
0.269094
0.236882
0.120175
0.127712
0.163732
0.239483
0.26128
0.281997
0.285138
0.291072
0.308692
0.344072
0.383794
0.418995
0.446911
0.469587
0.488779
0.505009
0.518055
0.527997
0.535476
0.541245
0.545819
0.54948
0.55239
0.554666
0.556401
0.557671
0.558534
0.559033
0.559201
0.559064
0.558637
0.557934
0.55696
0.555718
0.554206
0.552416
0.55034
0.547962
0.545264
0.542221
0.538804
0.534978
0.530699
0.525913
0.520559
0.51456
0.507822
0.500235
0.491654
0.481924
0.470797
0.458084
0.443264
0.426308
0.405722
0.382795
0.35197
0.321761
0.268491
0.236055
0.119584
0.127039
0.168794
0.239524
0.261572
0.281893
0.285091
0.290917
0.308472
0.343767
0.383487
0.418661
0.446532
0.46916
0.488356
0.504655
0.517795
0.527811
0.535332
0.541121
0.545704
0.549369
0.552279
0.554555
0.55629
0.55756
0.558422
0.558921
0.559088
0.55895
0.558522
0.557818
0.556842
0.555598
0.554083
0.552291
0.550212
0.54783
0.545128
0.542081
0.538659
0.534827
0.53054
0.525747
0.520384
0.514375
0.507626
0.500026
0.491431
0.481683
0.470536
0.4578
0.442952
0.425962
0.405341
0.382357
0.351494
0.321181
0.267906
0.235258
0.119017
0.126403
0.173717
0.239731
0.261911
0.281829
0.285109
0.290876
0.308396
0.343584
0.383262
0.418377
0.446186
0.468752
0.48794
0.504302
0.517538
0.527632
0.535195
0.541004
0.545597
0.549263
0.552174
0.554449
0.556184
0.557453
0.558314
0.558812
0.558978
0.558839
0.55841
0.557704
0.556727
0.555482
0.553964
0.55217
0.550087
0.547702
0.544996
0.541944
0.538517
0.534679
0.530386
0.525586
0.520214
0.514195
0.507435
0.499823
0.491213
0.481449
0.470282
0.457523
0.44265
0.425625
0.40497
0.381933
0.351031
0.320619
0.26734
0.23449
0.118475
0.125801
0.178511
0.240092
0.262303
0.281814
0.285204
0.290963
0.308477
0.34353
0.383124
0.418146
0.445875
0.468366
0.487535
0.503953
0.517286
0.527459
0.535068
0.540897
0.545496
0.549165
0.552075
0.554348
0.556081
0.557349
0.558209
0.558706
0.558872
0.558731
0.558302
0.557594
0.556616
0.555368
0.553849
0.552051
0.549966
0.547578
0.544867
0.541811
0.538379
0.534535
0.530236
0.525428
0.520049
0.514021
0.50725
0.499625
0.491001
0.481221
0.470036
0.457255
0.442356
0.425299
0.404611
0.381522
0.350583
0.320075
0.266792
0.233752
0.117957
0.125232
0.183181
0.240599
0.262753
0.281858
0.285387
0.291189
0.308723
0.343613
0.383075
0.417972
0.445602
0.468006
0.487144
0.503611
0.517039
0.527296
0.53495
0.540798
0.545404
0.549073
0.551981
0.554253
0.555984
0.55725
0.558109
0.558604
0.558769
0.558627
0.558196
0.557488
0.556508
0.555258
0.553736
0.551937
0.549848
0.547457
0.544743
0.541682
0.538245
0.534396
0.53009
0.525276
0.519888
0.513851
0.50707
0.499434
0.490796
0.481
0.469797
0.456994
0.442071
0.424983
0.404263
0.381124
0.35015
0.319549
0.266263
0.233044
0.117464
0.124692
0.187731
0.241241
0.263263
0.281968
0.285666
0.291563
0.309138
0.343835
0.383117
0.417856
0.44537
0.467675
0.486771
0.503279
0.5168
0.527142
0.534844
0.54071
0.545321
0.548989
0.551894
0.554163
0.555891
0.557155
0.558013
0.558507
0.55867
0.558527
0.558095
0.557384
0.556403
0.555151
0.553628
0.551825
0.549734
0.547339
0.544622
0.541557
0.538116
0.534261
0.529949
0.525128
0.519733
0.513687
0.506896
0.499248
0.490597
0.480787
0.469566
0.456742
0.441796
0.424677
0.403927
0.380739
0.349731
0.319042
0.265753
0.232365
0.116996
0.124182
0.192168
0.242009
0.263837
0.282151
0.286047
0.292088
0.309724
0.344195
0.38325
0.417797
0.445179
0.467375
0.486419
0.502959
0.516571
0.526999
0.534749
0.540633
0.545247
0.548913
0.551814
0.554078
0.555804
0.557065
0.55792
0.558413
0.558575
0.55843
0.557997
0.557285
0.556301
0.555048
0.553522
0.551718
0.549624
0.547226
0.544505
0.541436
0.53799
0.53413
0.529813
0.524985
0.519582
0.513528
0.506727
0.499068
0.490405
0.48058
0.469342
0.456498
0.441529
0.424382
0.403601
0.380367
0.349326
0.318553
0.265262
0.231714
0.116551
0.123698
0.196496
0.242891
0.264473
0.282408
0.286531
0.292764
0.310477
0.344691
0.383471
0.417795
0.44503
0.467109
0.48609
0.502652
0.516352
0.526867
0.534667
0.540567
0.545182
0.548844
0.55174
0.554
0.555721
0.55698
0.557832
0.558323
0.558483
0.558337
0.557902
0.557189
0.556204
0.554949
0.553421
0.551614
0.549518
0.547117
0.544392
0.541319
0.537869
0.534004
0.529681
0.524847
0.519437
0.513374
0.506564
0.498895
0.490219
0.48038
0.469126
0.456262
0.441272
0.424096
0.403287
0.380008
0.348936
0.318082
0.26479
0.231092
0.116129
0.123239
0.200719
0.243879
0.265172
0.282742
0.287119
0.293587
0.31139
0.345316
0.383777
0.417848
0.444923
0.466878
0.485787
0.502363
0.516145
0.526747
0.534596
0.540513
0.545127
0.548784
0.551673
0.553927
0.555644
0.556899
0.557749
0.558237
0.558395
0.558248
0.557811
0.557096
0.55611
0.554853
0.553323
0.551514
0.549415
0.547011
0.544283
0.541207
0.537752
0.533882
0.529554
0.524713
0.519296
0.513226
0.506407
0.498727
0.49004
0.480187
0.468917
0.456035
0.441023
0.423821
0.402984
0.379662
0.34856
0.317629
0.264336
0.230496
0.115728
0.122803
0.204842
0.244963
0.265931
0.283152
0.287807
0.294549
0.312453
0.346064
0.384162
0.417952
0.444855
0.466682
0.485511
0.502092
0.515951
0.52664
0.534539
0.54047
0.545082
0.548731
0.551613
0.553861
0.555572
0.556823
0.55767
0.558155
0.558312
0.558162
0.557724
0.557008
0.556019
0.554761
0.553229
0.551418
0.549316
0.546909
0.544178
0.541098
0.537639
0.533765
0.529432
0.524585
0.519161
0.513083
0.506255
0.498566
0.489867
0.480001
0.468716
0.455816
0.440784
0.423555
0.402692
0.379329
0.348198
0.317194
0.263901
0.229927
0.115349
0.122389
0.208869
0.246134
0.266747
0.283635
0.288589
0.29564
0.313652
0.346924
0.384621
0.418106
0.444827
0.466521
0.485265
0.501841
0.515771
0.526546
0.534494
0.540438
0.545046
0.548687
0.55156
0.5538
0.555505
0.556751
0.557595
0.558078
0.558232
0.558081
0.557641
0.556923
0.555933
0.554672
0.553139
0.551325
0.549221
0.546812
0.544077
0.540994
0.537531
0.533653
0.529314
0.524462
0.519031
0.512946
0.50611
0.498411
0.489701
0.479822
0.468523
0.455605
0.440554
0.4233
0.402412
0.379009
0.34785
0.316776
0.263483
0.229383
0.114989
0.121996
0.212804
0.247385
0.267617
0.28419
0.289459
0.296847
0.314973
0.347884
0.385146
0.418304
0.444835
0.466394
0.485049
0.501613
0.515607
0.526465
0.534463
0.540419
0.545021
0.548651
0.551514
0.553745
0.555444
0.556685
0.557524
0.558004
0.558156
0.558003
0.557561
0.556841
0.55585
0.554587
0.553052
0.551236
0.54913
0.546718
0.543981
0.540894
0.537427
0.533544
0.529201
0.524343
0.518907
0.512814
0.50597
0.498262
0.489542
0.47965
0.468337
0.455403
0.440333
0.423055
0.402142
0.378702
0.347516
0.316375
0.263083
0.228865
0.114649
0.121623
0.216652
0.248707
0.268538
0.284811
0.290408
0.298156
0.3164
0.348931
0.38573
0.418543
0.444877
0.466302
0.484864
0.501408
0.51546
0.526398
0.534444
0.540411
0.545005
0.548623
0.551474
0.553696
0.555387
0.556623
0.557458
0.557935
0.558084
0.557929
0.557485
0.556764
0.55577
0.554506
0.552969
0.551151
0.549043
0.546628
0.543888
0.540798
0.537328
0.533441
0.529092
0.524229
0.518787
0.512688
0.505836
0.498119
0.489389
0.479486
0.46816
0.455209
0.440121
0.422821
0.401884
0.378408
0.347196
0.315992
0.2627
0.228372
0.114326
0.121269
0.220417
0.250093
0.269506
0.285494
0.291427
0.299552
0.317916
0.350054
0.386366
0.418818
0.444951
0.466243
0.48471
0.501227
0.515331
0.526346
0.534439
0.540414
0.544999
0.548603
0.551442
0.553653
0.555336
0.556566
0.557396
0.557869
0.558016
0.557858
0.557413
0.55669
0.555695
0.554429
0.55289
0.55107
0.548959
0.546542
0.543799
0.540706
0.537233
0.533342
0.528989
0.524121
0.518673
0.512567
0.505708
0.497982
0.489243
0.479329
0.467989
0.455024
0.439919
0.422596
0.401637
0.378127
0.34689
0.315627
0.262336
0.227903
0.114022
0.120933
0.224104
0.251538
0.270517
0.286235
0.292507
0.30102
0.319503
0.351239
0.387046
0.419127
0.445055
0.466216
0.484588
0.501072
0.51522
0.526308
0.534446
0.540429
0.545002
0.54859
0.551416
0.553616
0.55529
0.556513
0.557339
0.557808
0.557952
0.557792
0.557344
0.556619
0.555623
0.554355
0.552814
0.550993
0.54888
0.54646
0.543715
0.540619
0.537142
0.533247
0.52889
0.524017
0.518564
0.512452
0.505586
0.497852
0.489104
0.479179
0.467827
0.454847
0.439726
0.422382
0.401402
0.377859
0.346599
0.315279
0.261988
0.227458
0.113735
0.120614
0.227717
0.253034
0.271567
0.287028
0.29364
0.302546
0.321147
0.352474
0.387763
0.419464
0.445186
0.466218
0.484496
0.500943
0.515128
0.526285
0.534467
0.540456
0.545015
0.548586
0.551396
0.553584
0.555249
0.556465
0.557286
0.557751
0.557891
0.557729
0.55728
0.556553
0.555555
0.554285
0.552743
0.550919
0.548804
0.546383
0.543635
0.540536
0.537056
0.533157
0.528796
0.523919
0.51846
0.512343
0.50547
0.497728
0.488971
0.479036
0.467673
0.454679
0.439542
0.422178
0.401177
0.377604
0.346322
0.314948
0.261659
0.227038
0.113465
0.120313
0.23126
0.254577
0.272653
0.287868
0.294817
0.304118
0.322832
0.353747
0.38851
0.419825
0.445341
0.466249
0.484435
0.50084
0.515056
0.526278
0.534501
0.540494
0.545038
0.54859
0.551383
0.553558
0.555214
0.556422
0.557237
0.557698
0.557835
0.55767
0.557219
0.55649
0.55549
0.554219
0.552675
0.55085
0.548733
0.546309
0.543559
0.540457
0.536974
0.533072
0.528707
0.523826
0.518362
0.512239
0.505359
0.497611
0.488845
0.4789
0.467526
0.454519
0.439367
0.421985
0.400965
0.377362
0.346059
0.314634
0.261346
0.22664
0.113211
0.120029
0.234738
0.256161
0.273771
0.288751
0.296031
0.305722
0.324545
0.355049
0.389281
0.420208
0.445518
0.466307
0.484403
0.500764
0.515005
0.526287
0.534549
0.540543
0.54507
0.548601
0.551377
0.553538
0.555183
0.556383
0.557192
0.557649
0.557783
0.557615
0.557161
0.556431
0.555429
0.554157
0.552611
0.550784
0.548665
0.546239
0.543487
0.540382
0.536896
0.532991
0.528623
0.523737
0.518269
0.51214
0.505255
0.4975
0.488726
0.478772
0.467388
0.454368
0.439202
0.421802
0.400764
0.377133
0.34581
0.314338
0.261051
0.226266
0.112973
0.119761
0.238154
0.257781
0.274918
0.289673
0.297274
0.30735
0.326275
0.356369
0.390071
0.420609
0.445715
0.466389
0.4844
0.500715
0.514975
0.526312
0.534609
0.540604
0.545111
0.54862
0.551377
0.553523
0.555157
0.556349
0.557152
0.557604
0.557734
0.557564
0.557108
0.556376
0.555372
0.554098
0.552551
0.550722
0.548602
0.546174
0.543419
0.540312
0.536824
0.532916
0.528544
0.523654
0.518181
0.512048
0.505157
0.497395
0.488614
0.478652
0.467257
0.454226
0.439047
0.42163
0.400574
0.376917
0.345576
0.314059
0.260774
0.225915
0.112751
0.119509
0.241514
0.259434
0.276091
0.290629
0.298542
0.308991
0.328011
0.357701
0.390875
0.421026
0.445929
0.466495
0.484424
0.500693
0.514966
0.526353
0.534683
0.540675
0.545161
0.548646
0.551383
0.553514
0.555136
0.55632
0.557116
0.557563
0.55769
0.557517
0.557058
0.556324
0.555319
0.554044
0.552494
0.550664
0.548542
0.546112
0.543355
0.540246
0.536755
0.532844
0.528469
0.523576
0.518099
0.511961
0.505065
0.497297
0.488509
0.478538
0.467135
0.454093
0.438901
0.421468
0.400396
0.376715
0.345356
0.313797
0.260513
0.225586
0.112543
0.119273
0.244821
0.261115
0.277287
0.291615
0.299828
0.310639
0.329746
0.359037
0.391688
0.421455
0.44616
0.466622
0.484476
0.500697
0.514978
0.52641
0.53477
0.540757
0.54522
0.54868
0.551396
0.55351
0.55512
0.556295
0.557084
0.557526
0.557649
0.557473
0.557013
0.556277
0.55527
0.553993
0.552442
0.55061
0.548486
0.546055
0.543296
0.540185
0.536691
0.532778
0.5284
0.523503
0.518022
0.51188
0.504978
0.497205
0.488411
0.478432
0.46702
0.453968
0.438765
0.421317
0.40023
0.376525
0.34515
0.313553
0.26027
0.225281
0.112351
0.119054
0.24808
0.262819
0.278504
0.292629
0.301128
0.312287
0.331473
0.360372
0.392507
0.421895
0.446404
0.46677
0.484552
0.500727
0.515013
0.526484
0.53487
0.54085
0.545287
0.548721
0.551414
0.553512
0.555109
0.556274
0.557056
0.557494
0.557613
0.557434
0.556971
0.556233
0.555224
0.553945
0.552393
0.55056
0.548435
0.546002
0.543241
0.540128
0.536632
0.532716
0.528335
0.523435
0.517951
0.511804
0.504898
0.49712
0.488319
0.478334
0.466914
0.453852
0.438638
0.421176
0.400075
0.37635
0.344959
0.313326
0.260045
0.224997
0.112174
0.11885
0.251293
0.264545
0.279739
0.293668
0.302438
0.31393
0.333186
0.3617
0.39333
0.422344
0.446662
0.466935
0.484653
0.500783
0.515069
0.526575
0.534984
0.540954
0.545363
0.548769
0.551439
0.553519
0.555103
0.556258
0.557033
0.557465
0.55758
0.557398
0.556932
0.556192
0.555182
0.553902
0.552348
0.550514
0.548387
0.545952
0.54319
0.540075
0.536577
0.532659
0.528275
0.523372
0.517885
0.511734
0.504824
0.497041
0.488235
0.478243
0.466815
0.453745
0.43852
0.421046
0.399932
0.376187
0.344782
0.313117
0.259837
0.224736
0.112011
0.118662
0.254465
0.266287
0.280989
0.294728
0.303756
0.315565
0.334882
0.36302
0.394154
0.4228
0.44693
0.467118
0.484777
0.500863
0.515147
0.526683
0.53511
0.541067
0.545448
0.548823
0.551469
0.553531
0.555101
0.556246
0.557014
0.55744
0.557551
0.557366
0.556898
0.556156
0.555144
0.553863
0.552308
0.550472
0.548343
0.545907
0.543143
0.540027
0.536527
0.532606
0.52822
0.523315
0.517824
0.511671
0.504756
0.496968
0.488157
0.47816
0.466725
0.453646
0.438413
0.420927
0.399801
0.376038
0.344621
0.312925
0.259646
0.224498
0.111862
0.11849
0.2576
0.268044
0.282253
0.295807
0.305078
0.317188
0.336556
0.364327
0.394976
0.423262
0.447209
0.467316
0.484922
0.500968
0.515246
0.526807
0.535249
0.541191
0.54554
0.548885
0.551505
0.553548
0.555104
0.556239
0.556999
0.557419
0.557526
0.557337
0.556867
0.556123
0.55511
0.553827
0.55227
0.550433
0.548304
0.545866
0.543101
0.539983
0.536481
0.532559
0.528171
0.523263
0.517769
0.511612
0.504695
0.496902
0.488087
0.478084
0.466643
0.453557
0.438315
0.420819
0.399682
0.375902
0.344473
0.31275
0.259472
0.224281
0.111727
0.118333
0.2607
0.269812
0.283529
0.296903
0.306403
0.318797
0.338208
0.36562
0.395795
0.423728
0.447497
0.467529
0.485088
0.501096
0.515367
0.526949
0.5354
0.541325
0.545641
0.548952
0.551547
0.55357
0.555112
0.556235
0.556988
0.557402
0.557505
0.557313
0.55684
0.556094
0.555079
0.553795
0.552237
0.550399
0.548268
0.545829
0.543063
0.539943
0.53644
0.532516
0.528126
0.523216
0.51772
0.51156
0.504639
0.496843
0.488023
0.478015
0.466569
0.453476
0.438227
0.420721
0.399574
0.37578
0.34434
0.312593
0.259316
0.224086
0.111607
0.118192
0.263771
0.271588
0.284814
0.298014
0.307729
0.32039
0.339835
0.366897
0.39661
0.424199
0.447792
0.467754
0.485273
0.501246
0.515509
0.527106
0.535565
0.541468
0.545749
0.549027
0.551594
0.553597
0.555124
0.556236
0.556981
0.557389
0.557487
0.557292
0.556817
0.556069
0.555053
0.553767
0.552208
0.550368
0.548237
0.545797
0.543029
0.539908
0.536403
0.532478
0.528086
0.523174
0.517676
0.511513
0.50459
0.49679
0.487967
0.477955
0.466503
0.453404
0.438149
0.420634
0.399478
0.375672
0.344222
0.312453
0.259177
0.223913
0.1115
0.118067
0.266814
0.273369
0.286106
0.299138
0.309054
0.321966
0.341436
0.368157
0.397421
0.424672
0.448095
0.467992
0.485476
0.501419
0.515671
0.527281
0.535741
0.541621
0.545864
0.549107
0.551647
0.553629
0.55514
0.556242
0.556978
0.55738
0.557474
0.557276
0.556798
0.556048
0.55503
0.553742
0.552183
0.550342
0.548209
0.545768
0.542999
0.539877
0.536371
0.532444
0.528051
0.523137
0.517637
0.511472
0.504546
0.496744
0.487917
0.477901
0.466446
0.453341
0.43808
0.420558
0.399395
0.375577
0.344119
0.312331
0.259056
0.223762
0.111407
0.117957
0.269834
0.275152
0.287404
0.300274
0.310376
0.323525
0.343012
0.369399
0.398225
0.425147
0.448404
0.46824
0.485695
0.501612
0.515854
0.527471
0.53593
0.541782
0.545987
0.549193
0.551704
0.553665
0.555161
0.556251
0.556979
0.557375
0.557464
0.557262
0.556782
0.55603
0.55501
0.553722
0.552161
0.550319
0.548186
0.545744
0.542974
0.539851
0.536344
0.532416
0.528021
0.523106
0.517604
0.511437
0.504509
0.496705
0.487875
0.477856
0.466396
0.453288
0.438021
0.420493
0.399323
0.375495
0.344031
0.312226
0.258952
0.223633
0.111327
0.117863
0.272834
0.276936
0.288707
0.301418
0.311696
0.325066
0.344562
0.370623
0.399022
0.425623
0.448718
0.468498
0.48593
0.501825
0.516057
0.527678
0.53613
0.541953
0.546116
0.549285
0.551767
0.553706
0.555186
0.556265
0.556984
0.557374
0.557458
0.557253
0.55677
0.556016
0.554995
0.553705
0.552143
0.550301
0.548166
0.545724
0.542953
0.539829
0.536321
0.532392
0.527996
0.523079
0.517576
0.511408
0.504478
0.496672
0.487839
0.477817
0.466355
0.453243
0.437972
0.420439
0.399263
0.375427
0.343957
0.312138
0.258865
0.223525
0.111261
0.117784
0.275817
0.278717
0.290011
0.302571
0.313012
0.326589
0.346085
0.371829
0.399813
0.426099
0.449036
0.468765
0.48618
0.502057
0.516279
0.527901
0.536342
0.542132
0.546252
0.549382
0.551834
0.553751
0.555215
0.556282
0.556993
0.557377
0.557456
0.557248
0.556762
0.556006
0.554983
0.553693
0.55213
0.550286
0.548151
0.545707
0.542936
0.539811
0.536303
0.532373
0.527976
0.523058
0.517554
0.511385
0.504453
0.496645
0.487811
0.477787
0.466322
0.453207
0.437933
0.420395
0.399215
0.375372
0.343898
0.312068
0.258796
0.223439
0.111208
0.117721
0.278786
0.280493
0.291316
0.30373
0.314323
0.328093
0.347583
0.373016
0.400596
0.426576
0.449359
0.469039
0.486443
0.502308
0.51652
0.528139
0.536566
0.542318
0.546394
0.549484
0.551906
0.553801
0.555249
0.556304
0.557006
0.557383
0.557458
0.557246
0.556758
0.556
0.554976
0.553684
0.55212
0.550276
0.548139
0.545696
0.542924
0.539798
0.536289
0.532358
0.527961
0.523043
0.517538
0.511367
0.504435
0.496625
0.48779
0.477764
0.466297
0.45318
0.437903
0.420362
0.399179
0.375332
0.343853
0.312016
0.258744
0.223375
0.111168
0.117673
0.281745
0.282262
0.29262
0.304895
0.315628
0.329579
0.349056
0.374185
0.401372
0.427051
0.449684
0.469321
0.486718
0.502575
0.516779
0.528392
0.5368
0.542513
0.546542
0.549591
0.551982
0.553855
0.555286
0.556329
0.557022
0.557393
0.557464
0.557248
0.556757
0.555997
0.554972
0.553679
0.552114
0.550269
0.548132
0.545688
0.542915
0.53979
0.53628
0.532349
0.527951
0.523032
0.517527
0.511356
0.504422
0.496612
0.487776
0.477749
0.466281
0.453162
0.437883
0.420341
0.399155
0.375304
0.343824
0.311981
0.258709
0.223332
0.111142
0.117642
0.284696
0.284021
0.293922
0.306063
0.316928
0.331046
0.350504
0.375337
0.402139
0.427526
0.450012
0.469609
0.487005
0.502859
0.517055
0.52866
0.537044
0.542715
0.546695
0.549703
0.552063
0.553912
0.555327
0.556359
0.557043
0.557407
0.557473
0.557254
0.55676
0.555999
0.554971
0.553677
0.552112
0.550266
0.548129
0.545684
0.542911
0.539786
0.536276
0.532344
0.527946
0.523027
0.517521
0.51135
0.504416
0.496605
0.487769
0.477741
0.466273
0.453153
0.437874
0.42033
0.399143
0.375291
0.343809
0.311964
0.258692
0.22331
0.111129
0.117626
0.287644
0.285767
0.295219
0.307234
0.318221
0.332496
0.351929
0.37647
0.402898
0.427998
0.450342
0.469902
0.487302
0.503159
0.517349
0.528941
0.537298
0.542923
0.546853
0.54982
0.552148
0.553974
0.555373
0.556392
0.557067
0.557425
0.557486
0.557263
0.556767
0.556004
0.554975
0.55368
0.552113
0.550267
0.54813
0.545685
0.542912
0.539786
0.536276
0.532344
0.527946
0.523027
0.517521
0.51135
0.504416
0.496605
0.487769
0.477741
0.466273
0.453153
0.437874
0.42033
0.399143
0.375291
0.343809
0.311964
0.258692
0.22331
0.111129
0.117626
0.290591
0.287498
0.296511
0.308407
0.319507
0.333928
0.35333
0.377586
0.403648
0.428469
0.450672
0.4702
0.487609
0.503473
0.517659
0.529237
0.537562
0.543138
0.547017
0.54994
0.552236
0.55404
0.555422
0.556429
0.557095
0.557447
0.557502
0.557276
0.556778
0.556012
0.554982
0.553686
0.552119
0.550273
0.548135
0.54569
0.542917
0.539791
0.53628
0.532349
0.527951
0.523032
0.517527
0.511356
0.504422
0.496612
0.487776
0.477749
0.466281
0.453162
0.437883
0.420341
0.399155
0.375304
0.343824
0.311981
0.258709
0.223332
0.111142
0.117642
0.29354
0.289212
0.297796
0.30958
0.320786
0.335343
0.354708
0.378684
0.40439
0.428936
0.451003
0.470501
0.487925
0.5038
0.517984
0.529545
0.537835
0.543359
0.547184
0.550064
0.552329
0.554109
0.555474
0.556469
0.557127
0.557472
0.557523
0.557293
0.556792
0.556025
0.554993
0.553696
0.552128
0.550282
0.548144
0.545698
0.542925
0.5398
0.53629
0.532359
0.527961
0.523043
0.517538
0.511367
0.504435
0.496625
0.48779
0.477764
0.466297
0.45318
0.437903
0.420362
0.399179
0.375332
0.343853
0.312016
0.258744
0.223375
0.111168
0.117673
0.296494
0.290906
0.299072
0.310752
0.322057
0.336742
0.356065
0.379766
0.405122
0.4294
0.451334
0.470806
0.488249
0.504141
0.518324
0.529866
0.538115
0.543584
0.547356
0.550192
0.552425
0.554182
0.555531
0.556513
0.557162
0.557501
0.557547
0.557313
0.55681
0.556041
0.555008
0.55371
0.552142
0.550295
0.548157
0.545711
0.542939
0.539813
0.536304
0.532373
0.527976
0.523058
0.517554
0.511385
0.504453
0.496645
0.487811
0.477787
0.466322
0.453207
0.437933
0.420395
0.399215
0.375372
0.343898
0.312068
0.258796
0.223439
0.111208
0.117721
0.299458
0.292577
0.300339
0.311923
0.323319
0.338123
0.3574
0.380832
0.405846
0.429859
0.451663
0.471112
0.48858
0.504495
0.518678
0.530198
0.538403
0.543815
0.547531
0.550323
0.552524
0.554258
0.55559
0.556561
0.557201
0.557533
0.557574
0.557338
0.556831
0.556061
0.555027
0.553728
0.552159
0.550312
0.548174
0.545729