/*--------------------------------*- C++ -*----------------------------------*\
| =========                 |                                                 |
| \\      /  F ield         | OpenFOAM: The Open Source CFD Toolbox           |
|  \\    /   O peration     | Version:  2.4.0                                 |
|   \\  /    A nd           | Web:      www.OpenFOAM.org                      |
|    \\/     M anipulation  |                                                 |
\*---------------------------------------------------------------------------*/
FoamFile
{
    version     2.0;
    format      ascii;
    class       volScalarField;
    location    "0.16";
    object      p;
}
// * * * * * * * * * * * * * * * * * * * * * * * * * * * * * * * * * * * * * //

dimensions      [0 2 -2 0 0 0 0];

internalField   nonuniform List<scalar> 
6000
(
-0.299894
0.111707
0.103612
0.151244
0.200508
0.247436
0.285074
0.311932
0.332052
0.348336
0.361821
0.373068
0.382513
0.390465
0.39719
0.402911
0.407795
0.411971
0.415548
0.418609
0.421224
0.423445
0.425316
0.426874
0.428146
0.429154
0.429916
0.430446
0.430754
0.430844
0.430722
0.430388
0.429839
0.429071
0.428077
0.426845
0.425362
0.423609
0.421566
0.419203
0.41649
0.413385
0.409842
0.405801
0.401192
0.395928
0.389902
0.382983
0.375005
0.365762
0.354986
0.342342
0.327365
0.309513
0.287808
0.261648
0.227784
0.188798
0.12507
0.0798157
-0.272687
0.106499
0.103109
0.149987
0.199315
0.246358
0.284217
0.31126
0.331487
0.347842
0.361385
0.372679
0.38216
0.390143
0.396894
0.402637
0.407538
0.41173
0.415319
0.418391
0.421013
0.423241
0.425118
0.426679
0.427953
0.428963
0.429726
0.430255
0.43056
0.430648
0.430522
0.430183
0.42963
0.428857
0.427857
0.426618
0.425128
0.423367
0.421313
0.418939
0.416213
0.413093
0.409533
0.405473
0.400842
0.395553
0.389499
0.382547
0.374531
0.365244
0.354417
0.341713
0.326664
0.308724
0.286919
0.260614
0.226629
0.187325
0.123588
0.0778589
-0.254159
0.101191
0.103019
0.149192
0.198538
0.245624
0.28364
0.310831
0.33115
0.347569
0.361151
0.372468
0.381967
0.389965
0.396728
0.402481
0.407392
0.411591
0.415186
0.418263
0.420891
0.423123
0.425003
0.426568
0.427846
0.428858
0.429624
0.430155
0.430464
0.430554
0.430431
0.430096
0.429542
0.428768
0.427766
0.426524
0.425029
0.423263
0.421204
0.418825
0.416093
0.412967
0.409399
0.40533
0.400689
0.395388
0.389321
0.382353
0.37432
0.365012
0.354161
0.341427
0.326344
0.308364
0.286506
0.260153
0.226058
0.186708
0.122727
0.0769609
-0.23919
0.0957478
0.103154
0.148365
0.197686
0.244833
0.283018
0.310358
0.330757
0.347228
0.360851
0.372195
0.381715
0.38973
0.396509
0.402274
0.407195
0.411404
0.415007
0.418091
0.420724
0.42296
0.424844
0.426412
0.427691
0.428705
0.42947
0.430001
0.430307
0.430395
0.430267
0.429924
0.429367
0.428591
0.427587
0.426343
0.424846
0.423076
0.421012
0.418626
0.415886
0.41275
0.409172
0.40509
0.400435
0.395118
0.389032
0.382042
0.373983
0.364645
0.353758
0.340982
0.325847
0.307805
0.285873
0.259411
0.225231
0.185653
0.121655
0.0758844
-0.224202
0.0905399
0.103433
0.147581
0.196821
0.244036
0.282405
0.309903
0.330383
0.346904
0.360565
0.371936
0.381475
0.389506
0.396299
0.402077
0.407009
0.411226
0.414837
0.417928
0.420567
0.422808
0.424697
0.426268
0.427551
0.428568
0.429336
0.429869
0.430178
0.430268
0.430143
0.429805
0.42925
0.428469
0.42746
0.426211
0.424708
0.422933
0.420862
0.41847
0.415722
0.412578
0.40899
0.404897
0.400229
0.394897
0.388794
0.381785
0.373703
0.364338
0.35342
0.340606
0.325427
0.307331
0.285333
0.258794
0.224505
0.184819
0.12067
0.0749082
-0.209329
0.0857299
0.103787
0.146867
0.195953
0.243231
0.281798
0.309469
0.330031
0.346597
0.360292
0.371688
0.381244
0.38929
0.396096
0.401885
0.406826
0.411052
0.414671
0.417768
0.420412
0.422659
0.424552
0.426127
0.427412
0.428431
0.429201
0.429735
0.430043
0.430132
0.430004
0.429661
0.429101
0.428323
0.427313
0.426062
0.424556
0.422777
0.420702
0.418304
0.415549
0.412397
0.4088
0.404697
0.400017
0.394671
0.388552
0.381524
0.37342
0.36403
0.353081
0.340232
0.32501
0.306862
0.284801
0.258181
0.223798
0.183979
0.119735
0.0740142
-0.195211
0.0813258
0.104169
0.146237
0.195095
0.242423
0.281195
0.309053
0.329703
0.346309
0.360034
0.371451
0.381023
0.389082
0.3959
0.401699
0.406649
0.410883
0.414508
0.417612
0.420261
0.422512
0.424409
0.425987
0.427276
0.428297
0.429068
0.429603
0.429912
0.430001
0.429874
0.429533
0.428975
0.428191
0.427177
0.425923
0.424413
0.422629
0.420548
0.418144
0.415382
0.412223
0.408616
0.404502
0.39981
0.394451
0.388315
0.381269
0.373143
0.363728
0.35275
0.339866
0.324602
0.306403
0.284281
0.257584
0.223111
0.183165
0.11885
0.0731809
-0.181926
0.0773312
0.104554
0.145696
0.194259
0.241618
0.280597
0.308654
0.329396
0.34604
0.359791
0.371227
0.380812
0.388883
0.395711
0.401519
0.406478
0.410719
0.414351
0.41746
0.420114
0.42237
0.42427
0.425852
0.427142
0.428165
0.428938
0.429474
0.429784
0.429873
0.429746
0.429402
0.428841
0.428057
0.427042
0.425784
0.424271
0.422483
0.420397
0.417987
0.415219
0.412051
0.408435
0.404312
0.399608
0.394234
0.388083
0.381019
0.372872
0.363432
0.352425
0.339507
0.324202
0.305953
0.283771
0.256999
0.222441
0.182375
0.118007
0.0723907
-0.169322
0.0737558
0.104932
0.145247
0.193459
0.240825
0.280007
0.308274
0.329113
0.345792
0.359564
0.371016
0.380613
0.388694
0.39553
0.401347
0.406312
0.41056
0.414198
0.417312
0.419971
0.42223
0.424134
0.425719
0.427012
0.428037
0.428811
0.429348
0.429658
0.429748
0.42962
0.429276
0.428714
0.427927
0.42691
0.425649
0.424132
0.42234
0.420249
0.417833
0.415058
0.411883
0.408259
0.404125
0.399409
0.394023
0.387856
0.380774
0.372607
0.363142
0.352107
0.339155
0.32381
0.305513
0.283273
0.256427
0.221787
0.181606
0.117197
0.0716358
-0.157305
0.0705917
0.105305
0.144895
0.192707
0.240052
0.27943
0.307912
0.328853
0.345564
0.359353
0.370818
0.380424
0.388513
0.395357
0.401181
0.406153
0.410406
0.414049
0.417168
0.419832
0.422095
0.424002
0.425589
0.426885
0.427911
0.428687
0.429225
0.429536
0.429625
0.429497
0.429152
0.428588
0.4278
0.42678
0.425517
0.423996
0.4222
0.420105
0.417683
0.414901
0.411719
0.408085
0.403942
0.399215
0.393815
0.387634
0.380534
0.372347
0.362858
0.351795
0.33881
0.323426
0.305081
0.282784
0.255867
0.221147
0.180857
0.11642
0.0709126
-0.145844
0.0678195
0.105678
0.144642
0.192013
0.239309
0.27887
0.307571
0.328616
0.345357
0.359159
0.370633
0.380247
0.388342
0.395192
0.401021
0.405999
0.410258
0.413905
0.417029
0.419696
0.421963
0.423873
0.425463
0.426761
0.427789
0.428566
0.429105
0.429416
0.429505
0.429377
0.429031
0.428466
0.427676
0.426654
0.425388
0.423864
0.422063
0.419963
0.417536
0.414748
0.411558
0.407916
0.403763
0.399025
0.393612
0.387416
0.380299
0.372092
0.362581
0.35149
0.338472
0.32305
0.304659
0.282306
0.255319
0.220521
0.180127
0.115673
0.0702189
-0.134912
0.0654204
0.106062
0.144491
0.19139
0.238604
0.278332
0.307251
0.328403
0.34517
0.358981
0.370462
0.38008
0.388181
0.395036
0.400869
0.405851
0.410114
0.413766
0.416894
0.419565
0.421835
0.423748
0.42534
0.42664
0.42767
0.428448
0.428988
0.429299
0.429389
0.42926
0.428913
0.428347
0.427555
0.42653
0.425261
0.423734
0.421929
0.419825
0.417392
0.414598
0.4114
0.407751
0.403588
0.398839
0.393414
0.387203
0.380069
0.371843
0.362309
0.351191
0.338142
0.322682
0.304245
0.281838
0.254783
0.219911
0.179416
0.114954
0.0695532
-0.124473
0.0633784
0.106463
0.144442
0.190843
0.237943
0.27782
0.306955
0.328213
0.345005
0.35882
0.370304
0.379926
0.388029
0.394887
0.400724
0.40571
0.409976
0.413632
0.416763
0.419437
0.42171
0.423626
0.42522
0.426522
0.427553
0.428333
0.428873
0.429185
0.429274
0.429145
0.428798
0.42823
0.427436
0.42641
0.425138
0.423607
0.421799
0.419689
0.417252
0.414451
0.411247
0.407589
0.403417
0.398657
0.39322
0.386995
0.379845
0.371599
0.362043
0.350899
0.337819
0.322322
0.303841
0.281381
0.254259
0.219315
0.178725
0.114264
0.0689143
-0.114493
0.0616779
0.106891
0.144494
0.190381
0.237332
0.277339
0.306682
0.328047
0.34486
0.358676
0.37016
0.379782
0.387886
0.394746
0.400585
0.405574
0.409844
0.413503
0.416636
0.419313
0.421589
0.423507
0.425104
0.426407
0.42744
0.42822
0.428762
0.429074
0.429163
0.429033
0.428685
0.428116
0.427321
0.426292
0.425018
0.423484
0.421671
0.419557
0.417114
0.414308
0.411097
0.407431
0.40325
0.39848
0.39303
0.386791
0.379626
0.371361
0.361783
0.350614
0.337504
0.32197
0.303446
0.280934
0.253748
0.218734
0.178053
0.1136
0.0683011
-0.104941
0.0603015
0.107353
0.144645
0.190008
0.236779
0.276891
0.306435
0.327904
0.344736
0.358549
0.37003
0.37965
0.387753
0.394613
0.400454
0.405444
0.409716
0.413378
0.416514
0.419194
0.421472
0.423392
0.42499
0.426295
0.42733
0.428111
0.428653
0.428965
0.429055
0.428925
0.428575
0.428005
0.427208
0.426177
0.4249
0.423363
0.421547
0.419429
0.416981
0.414168
0.41095
0.407277
0.403087
0.398307
0.392846
0.386593
0.379412
0.371129
0.36153
0.350336
0.337196
0.321627
0.30306
0.280498
0.253249
0.218168
0.1774
0.112962
0.0677127
-0.0957896
0.0592316
0.107852
0.144894
0.189727
0.236286
0.27648
0.306215
0.327786
0.344633
0.358439
0.369914
0.379529
0.387629
0.394488
0.400329
0.40532
0.409594
0.413258
0.416396
0.419078
0.421358
0.42328
0.424881
0.426187
0.427223
0.428005
0.428547
0.42886
0.428949
0.428819
0.428469
0.427897
0.427099
0.426065
0.424786
0.423246
0.421426
0.419303
0.41685
0.414032
0.410808
0.407127
0.402928
0.398138
0.392665
0.3864
0.379203
0.370903
0.361282
0.350064
0.336895
0.321292
0.302684
0.280072
0.252763
0.217618
0.176767
0.112349
0.0671483
-0.0870149
0.0584506
0.108394
0.145238
0.189541
0.235859
0.276108
0.306022
0.327691
0.344551
0.358345
0.369811
0.379419
0.387515
0.394372
0.400211
0.405203
0.409478
0.413143
0.416283
0.418967
0.421248
0.423172
0.424774
0.426082
0.427119
0.427902
0.428445
0.428758
0.428847
0.428716
0.428365
0.427792
0.426992
0.425956
0.424675
0.423131
0.421308
0.419181
0.416724
0.4139
0.410669
0.406981
0.402773
0.397973
0.39249
0.386211
0.379
0.370682
0.361042
0.349799
0.336602
0.320966
0.302317
0.279658
0.252289
0.217082
0.176153
0.111761
0.066607
-0.0785946
0.057941
0.108982
0.145673
0.189451
0.235499
0.27578
0.305858
0.327621
0.34449
0.358269
0.369722
0.379321
0.387411
0.394263
0.4001
0.405091
0.409366
0.413032
0.416174
0.418859
0.421142
0.423068
0.424671
0.42598
0.427018
0.427801
0.428345
0.428658
0.428747
0.428615
0.428264
0.42769
0.426888
0.425851
0.424566
0.42302
0.421193
0.419063
0.4166
0.413771
0.410534
0.406838
0.402623
0.397814
0.392319
0.386028
0.378802
0.370467
0.360807
0.349542
0.336317
0.320648
0.30196
0.279254
0.251828
0.216562
0.175558
0.111197
0.0660881
-0.0705081
0.0576856
0.109617
0.146195
0.189456
0.23521
0.275496
0.305723
0.327574
0.344449
0.35821
0.369647
0.379235
0.387316
0.394163
0.399997
0.404986
0.409261
0.412927
0.416069
0.418756
0.42104
0.422967
0.424571
0.425881
0.42692
0.427704
0.428248
0.428561
0.42865
0.428518
0.428166
0.42759
0.426787
0.425748
0.424461
0.422912
0.421082
0.418947
0.41648
0.413646
0.410403
0.4067
0.402477
0.397658
0.392153
0.38585
0.378609
0.370259
0.360579
0.349291
0.33604
0.320339
0.301613
0.278862
0.25138
0.216057
0.174983
0.110656
0.0655909
-0.0627368
0.0576674
0.110302
0.1468
0.189556
0.234993
0.275259
0.305618
0.327552
0.344429
0.358168
0.369586
0.379159
0.38723
0.39407
0.3999
0.404886
0.40916
0.412826
0.415969
0.418656
0.420942
0.42287
0.424475
0.425786
0.426825
0.42761
0.428155
0.428468
0.428556
0.428424
0.428071
0.427494
0.426689
0.425648
0.424359
0.422807
0.420974
0.418835
0.416364
0.413524
0.410275
0.406566
0.402335
0.397507
0.391992
0.385677
0.378423
0.370056
0.360358
0.349048
0.335771
0.320039
0.301276
0.278481
0.250945
0.215568
0.174426
0.110138
0.0651147
-0.0552632
0.0578699
0.111037
0.147485
0.189748
0.23485
0.27507
0.305545
0.327554
0.344429
0.358142
0.369538
0.379095
0.387154
0.393986
0.39981
0.404793
0.409065
0.41273
0.415873
0.418561
0.420847
0.422776
0.424382
0.425694
0.426734
0.427519
0.428064
0.428377
0.428466
0.428332
0.427978
0.427401
0.426595
0.425552
0.42426
0.422706
0.420869
0.418727
0.416251
0.413407
0.410152
0.406436
0.402197
0.397361
0.391835
0.385509
0.378241
0.369859
0.360143
0.348811
0.335509
0.319748
0.300948
0.278111
0.250524
0.215095
0.173889
0.109642
0.0646588
-0.0480714
0.0582773
0.111824
0.148244
0.19003
0.23478
0.27493
0.305503
0.327581
0.34445
0.358134
0.369504
0.379042
0.387087
0.39391
0.399727
0.404706
0.408975
0.412639
0.415782
0.418469
0.420756
0.422686
0.424293
0.425605
0.426646
0.427432
0.427976
0.42829
0.428378
0.428244
0.427889
0.427311
0.426503
0.425458
0.424164
0.422607
0.420767
0.418622
0.416142
0.413292
0.410032
0.40631
0.402063
0.397219
0.391684
0.385346
0.378066
0.369668
0.359934
0.348582
0.335256
0.319465
0.300631
0.277753
0.250115
0.214637
0.173371
0.109167
0.0642226
-0.0411466
0.0588741
0.112661
0.149073
0.1904
0.234783
0.274841
0.305493
0.327631
0.344491
0.358142
0.369484
0.379001
0.38703
0.393841
0.399651
0.404625
0.408891
0.412553
0.415694
0.418382
0.420669
0.422599
0.424206
0.42552
0.42656
0.427347
0.427892
0.428205
0.428293
0.428159
0.427803
0.427223
0.426414
0.425368
0.424072
0.422512
0.420669
0.41852
0.416036
0.413182
0.409916
0.406188
0.401934
0.397082
0.391537
0.385189
0.377896
0.369484
0.359733
0.348361
0.33501
0.319192
0.300324
0.277406
0.24972
0.214194
0.172873
0.108714
0.0638056
-0.034475
0.0596456
0.11355
0.149968
0.190854
0.23486
0.274803
0.305516
0.327706
0.344552
0.358166
0.369477
0.37897
0.386982
0.393781
0.399582
0.404549
0.408812
0.412471
0.415612
0.418299
0.420586
0.422516
0.424124
0.425437
0.426479
0.427265
0.42781
0.428123
0.428211
0.428076
0.42772
0.427139
0.426329
0.42528
0.423982
0.42242
0.420574
0.418422
0.415934
0.413075
0.409804
0.40607
0.40181
0.396949
0.391396
0.385036
0.377731
0.369305
0.359538
0.348147
0.334773
0.318928
0.300027
0.277071
0.249339
0.213767
0.172393
0.10828
0.0634071
-0.0280437
0.0605776
0.114488
0.150924
0.191388
0.235008
0.274815
0.305571
0.327804
0.344632
0.358207
0.369483
0.378951
0.386944
0.393728
0.399519
0.40448
0.408738
0.412395
0.415534
0.41822
0.420507
0.422437
0.424045
0.425358
0.4264
0.427187
0.427732
0.428045
0.428132
0.427997
0.42764
0.427058
0.426246
0.425196
0.423896
0.422332
0.420483
0.418327
0.415835
0.412972
0.409696
0.405956
0.401689
0.396821
0.391259
0.384889
0.377573
0.369133
0.35935
0.34794
0.334544
0.318673
0.29974
0.276748
0.248971
0.213356
0.171931
0.107867
0.0630268
-0.0218409
0.0616567
0.115474
0.151937
0.191998
0.235226
0.274879
0.305659
0.327926
0.344732
0.358264
0.369503
0.378942
0.386915
0.393684
0.399464
0.404417
0.40867
0.412323
0.41546
0.418145
0.420431
0.422361
0.423969
0.425283
0.426324
0.427111
0.427656
0.427969
0.428056
0.427921
0.427563
0.42698
0.426167
0.425115
0.423813
0.422246
0.420395
0.418236
0.41574
0.412873
0.409592
0.405846
0.401573
0.396698
0.391127
0.384748
0.37742
0.368967
0.359168
0.34774
0.334324
0.318427
0.299464
0.276436
0.248616
0.212961
0.171489
0.107473
0.0626641
-0.0158554
0.0628701
0.116508
0.153003
0.192681
0.235514
0.274993
0.30578
0.328071
0.344851
0.358336
0.369536
0.378945
0.386894
0.393647
0.399415
0.40436
0.408607
0.412256
0.415391
0.418074
0.420359
0.422289
0.423897
0.425211
0.426252
0.427039
0.427584
0.427897
0.427983
0.427847
0.427488
0.426905
0.42609
0.425037
0.423733
0.422164
0.42031
0.418148
0.415649
0.412778
0.409492
0.405741
0.401462
0.396579
0.391
0.384612
0.377273
0.368807
0.358994
0.347549
0.334111
0.31819
0.299198
0.276136
0.248276
0.212582
0.171065
0.107098
0.0623185
-0.0100766
0.0642057
0.117588
0.154118
0.193431
0.235867
0.275157
0.305934
0.32824
0.344989
0.358425
0.369581
0.378958
0.386883
0.393618
0.399373
0.404309
0.408549
0.412194
0.415326
0.418007
0.420291
0.42222
0.423828
0.425142
0.426183
0.42697
0.427515
0.427827
0.427914
0.427777
0.427417
0.426833
0.426017
0.424962
0.423657
0.422086
0.420229
0.418064
0.415562
0.412687
0.409396
0.40564
0.401355
0.396465
0.390879
0.384481
0.377132
0.368654
0.358826
0.347364
0.333907
0.317963
0.298943
0.275848
0.247949
0.212218
0.17066
0.106742
0.0619897
-0.004495
0.0656519
0.118712
0.155277
0.194246
0.236285
0.275371
0.306121
0.328432
0.345146
0.358529
0.36964
0.378982
0.386881
0.393597
0.399338
0.404264
0.408497
0.412137
0.415265
0.417945
0.420227
0.422155
0.423763
0.425076
0.426118
0.426904
0.427449
0.427761
0.427847
0.42771
0.427349
0.426764
0.425947
0.424891
0.423584
0.42201
0.420151
0.417984
0.415478
0.412599
0.409305
0.405543
0.401252
0.396356
0.390762
0.384356
0.376996
0.368507
0.358666
0.347188
0.333712
0.317745
0.298698
0.275573
0.247635
0.21187
0.170273
0.106404
0.0616772
0.000898727
0.067198
0.119878
0.156478
0.19512
0.236765
0.275633
0.30634
0.328647
0.345321
0.358648
0.369711
0.379016
0.386888
0.393583
0.399309
0.404224
0.40845
0.412085
0.415209
0.417886
0.420167
0.422094
0.423701
0.425014
0.426055
0.426842
0.427386
0.427698
0.427783
0.427646
0.427285
0.426698
0.42588
0.424822
0.423514
0.421938
0.420077
0.417906
0.415398
0.412515
0.409217
0.40545
0.401154
0.396252
0.390651
0.384236
0.376867
0.368367
0.358512
0.347019
0.333525
0.317537
0.298464
0.275309
0.247336
0.211538
0.169905
0.106083
0.0613807
0.00611312
0.0688337
0.121084
0.157716
0.196049
0.237304
0.275942
0.306591
0.328884
0.345514
0.358782
0.369795
0.379061
0.386903
0.393577
0.399287
0.404191
0.408408
0.412037
0.415157
0.417832
0.420111
0.422037
0.423642
0.424955
0.425996
0.426782
0.427326
0.427638
0.427723
0.427585
0.427223
0.426635
0.425816
0.424757
0.423447
0.421869
0.420006
0.417833
0.415321
0.412435
0.409133
0.405362
0.401061
0.396152
0.390544
0.384122
0.376744
0.368233
0.358366
0.346858
0.333347
0.317338
0.298241
0.275057
0.247051
0.211222
0.169555
0.105781
0.0610999
0.0111562
0.0705494
0.122328
0.158989
0.19703
0.237898
0.276298
0.306873
0.329144
0.345724
0.358931
0.36989
0.379116
0.386928
0.393579
0.399272
0.404163
0.408371
0.411994
0.41511
0.417781
0.420058
0.421983
0.423588
0.4249
0.42594
0.426726
0.42727
0.427581
0.427666
0.427527
0.427164
0.426576
0.425756
0.424695
0.423383
0.421804
0.419939
0.417763
0.415248
0.412359
0.409053
0.405278
0.400972
0.396058
0.390443
0.384013
0.376626
0.368105
0.358227
0.346705
0.333177
0.317149
0.298029
0.274818
0.246779
0.210921
0.169223
0.105495
0.0608345
0.0160357
0.0723361
0.123607
0.160292
0.198058
0.238546
0.276698
0.307186
0.329425
0.345952
0.359094
0.369998
0.379181
0.38696
0.393587
0.399263
0.404141
0.40834
0.411956
0.415067
0.417735
0.42001
0.421933
0.423536
0.424847
0.425887
0.426673
0.427216
0.427527
0.427611
0.427472
0.427109
0.426519
0.425698
0.424637
0.423323
0.421742
0.419875
0.417697
0.41518
0.412287
0.408978
0.405198
0.400887
0.395968
0.390347
0.38391
0.376515
0.367984
0.358094
0.346559
0.333016
0.316969
0.297827
0.274591
0.246522
0.210637
0.168909
0.105226
0.060584
0.0207585
0.0741854
0.12492
0.161624
0.199129
0.239245
0.277141
0.30753
0.329727
0.346197
0.359271
0.370117
0.379256
0.387002
0.393603
0.39926
0.404124
0.408313
0.411923
0.415028
0.417693
0.419965
0.421886
0.423488
0.424799
0.425838
0.426623
0.427166
0.427476
0.42756
0.42742
0.427056
0.426466
0.425644
0.424581
0.423266
0.421684
0.419814
0.417634
0.415114
0.412219
0.408906
0.405123
0.400808
0.395883
0.390256
0.383813
0.37641
0.36787
0.357969
0.346422
0.332863
0.316799
0.297636
0.274376
0.246279
0.210368
0.168613
0.104974
0.0603484
0.0253316
0.0760894
0.126263
0.16298
0.20024
0.239991
0.277625
0.307903
0.33005
0.346457
0.359462
0.370248
0.37934
0.387051
0.393627
0.399264
0.404114
0.408292
0.411894
0.414994
0.417654
0.419924
0.421843
0.423444
0.424753
0.425792
0.426576
0.427119
0.427429
0.427512
0.427371
0.427007
0.426416
0.425593
0.424529
0.423213
0.421629
0.419757
0.417575
0.415053
0.412155
0.408839
0.405052
0.400732
0.395803
0.390171
0.383721
0.37631
0.367762
0.357851
0.346292
0.33272
0.316639
0.297457
0.274174
0.246049
0.210115
0.168335
0.104738
0.0601274
0.0297611
0.0780408
0.127636
0.164359
0.201387
0.240781
0.278149
0.308305
0.330393
0.346734
0.359666
0.37039
0.379434
0.387109
0.393657
0.399274
0.404109
0.408276
0.41187
0.414964
0.41762
0.419887
0.421804
0.423403
0.424711
0.425749
0.426533
0.427075
0.427384
0.427467
0.427326
0.426961
0.426369
0.425545
0.42448
0.423163
0.421577
0.419704
0.41752
0.414995
0.412095
0.408775
0.404985
0.400662
0.395728
0.390091
0.383634
0.376217
0.36766
0.35774
0.34617
0.332585
0.316489
0.297288
0.273984
0.245834
0.209878
0.168074
0.104518
0.0599207
0.034053
0.0800326
0.129035
0.165758
0.202566
0.241613
0.278712
0.308735
0.330756
0.347027
0.359883
0.370543
0.379538
0.387175
0.393694
0.39929
0.404109
0.408265
0.41185
0.414939
0.41759
0.419853
0.421768
0.423366
0.424673
0.42571
0.426493
0.427034
0.427343
0.427425
0.427283
0.426917
0.426325
0.4255
0.424434
0.423116
0.421529
0.419654
0.417468
0.414941
0.412038
0.408716
0.404923
0.400596
0.395658
0.390016
0.383554
0.37613
0.367566
0.357637
0.346056
0.332459
0.316348
0.29713
0.273806
0.245633
0.209657
0.167832
0.104314
0.0597283
0.038213
0.0820585
0.130458
0.167174
0.203775
0.242484
0.27931
0.309192
0.331138
0.347334
0.360113
0.370707
0.37965
0.387248
0.393739
0.399313
0.404115
0.408259
0.411835
0.414917
0.417564
0.419824
0.421736
0.423332
0.424638
0.425674
0.426456
0.426997
0.427305
0.427386
0.427244
0.426878
0.426284
0.425459
0.424392
0.423072
0.421484
0.419608
0.41742
0.414891
0.411986
0.408661
0.404865
0.400535
0.395593
0.389946
0.383479
0.376049
0.367478
0.357541
0.34595
0.332342
0.316218
0.296984
0.273641
0.245447
0.209451
0.167607
0.104125
0.0595498
0.0422463
0.0841126
0.131904
0.168605
0.20501
0.243391
0.279943
0.309675
0.331538
0.347656
0.360355
0.370881
0.379772
0.387329
0.39379
0.399341
0.404127
0.408258
0.411825
0.4149
0.417542
0.419798
0.421708
0.423302
0.424606
0.425641
0.426422
0.426962
0.42727
0.427351
0.427208
0.426841
0.426247
0.42542
0.424353
0.423032
0.421443
0.419565
0.417376
0.414845
0.411938
0.408611
0.404812
0.400478
0.395532
0.389881
0.38341
0.375974
0.367396
0.357452
0.345853
0.332233
0.316097
0.296848
0.273489
0.245274
0.209262
0.1674
0.103951
0.0593852
0.0461579
0.0861893
0.133369
0.170049
0.206267
0.244331
0.280609
0.310183
0.331957
0.347992
0.360609
0.371066
0.379902
0.387418
0.393847
0.399375
0.404144
0.408262
0.411819
0.414887
0.417524
0.419776
0.421683
0.423275
0.424577
0.425611
0.426392
0.426931
0.427238
0.427318
0.427175
0.426807
0.426213
0.425385
0.424317
0.422995
0.421405
0.419526
0.417335
0.414803
0.411894
0.408564
0.404763
0.400426
0.395477
0.389822
0.383346
0.375905
0.367322
0.35737
0.345763
0.332134
0.315986
0.296724
0.273349
0.245116
0.209088
0.16721
0.103793
0.0592344
0.0499525
0.0882836
0.134852
0.171504
0.207545
0.245301
0.281305
0.310715
0.332392
0.348341
0.360875
0.37126
0.38004
0.387514
0.393912
0.399415
0.404166
0.408271
0.411818
0.414878
0.41751
0.419758
0.421662
0.423251
0.424552
0.425585
0.426364
0.426903
0.427209
0.427289
0.427145
0.426777
0.426182
0.425354
0.424284
0.422962
0.42137
0.41949
0.417298
0.414764
0.411853
0.408522
0.404718
0.400379
0.395427
0.389768
0.383288
0.375843
0.367254
0.357296
0.345681
0.332043
0.315885
0.296611
0.273222
0.244973
0.20893
0.167038
0.10365
0.0590973
0.0536347
0.0903907
0.136351
0.172968
0.208841
0.246299
0.282031
0.31127
0.332844
0.348704
0.361151
0.371464
0.380187
0.387618
0.393982
0.399461
0.404193
0.408284
0.411821
0.414874
0.417499
0.419744
0.421644
0.423231
0.424531
0.425562
0.42634
0.426878
0.427184
0.427263
0.427118
0.426749
0.426154
0.425325
0.424255
0.422932
0.421339
0.419458
0.417265
0.41473
0.411817
0.408484
0.404678
0.400336
0.395381
0.38972
0.383236
0.375787
0.367193
0.357229
0.345608
0.331962
0.315795
0.296509
0.273107
0.244843
0.208788
0.166883
0.103521
0.0589738
0.0572085
0.0925063
0.137863
0.174439
0.210152
0.247323
0.282783
0.311847
0.333313
0.349079
0.361438
0.371677
0.380342
0.387728
0.394059
0.399513
0.404226
0.408302
0.411829
0.414874
0.417493
0.419733
0.42163
0.423215
0.424512
0.425542
0.426319
0.426856
0.427161
0.42724
0.427095
0.426725
0.426129
0.4253
0.424229
0.422905
0.421312
0.41943
0.417235
0.414699
0.411785
0.40845
0.404642
0.400298
0.395341
0.389677
0.38319
0.375737
0.367138
0.35717
0.345542
0.33189
0.315714
0.296418
0.273005
0.244728
0.208662
0.166745
0.103408
0.0588639
0.0606779
0.0946264
0.139387
0.175916
0.211476
0.24837
0.283561
0.312445
0.333796
0.349466
0.361735
0.371898
0.380505
0.387846
0.394142
0.39957
0.404263
0.408325
0.411841
0.414877
0.417491
0.419726
0.42162
0.423202
0.424498
0.425526
0.426302
0.426838
0.427142
0.42722
0.427074
0.426704
0.426108
0.425278
0.424207
0.422882
0.421288
0.419405
0.417209
0.414672
0.411757
0.40842
0.404611
0.400265
0.395306
0.389639
0.383149
0.375693
0.367091
0.357118
0.345485
0.331826
0.315643
0.296339
0.272916
0.244627
0.208551
0.166625
0.103308
0.0587675
0.0640467
0.0967472
0.140921
0.177397
0.212811
0.249437
0.284363
0.313063
0.334294
0.349864
0.362043
0.372129
0.380675
0.38797
0.394231
0.399633
0.404306
0.408353
0.411857
0.414885
0.417492
0.419723
0.421613
0.423193
0.424486
0.425513
0.426288
0.426823
0.427126
0.427204
0.427057
0.426687
0.426089
0.425259
0.424187
0.422862
0.421267
0.419384
0.417187
0.414649
0.411732
0.408395
0.404584
0.400237
0.395276
0.389607
0.383114
0.375655
0.36705
0.357073
0.345436
0.331772
0.315583
0.296271
0.272839
0.244541
0.208457
0.166522
0.103223
0.0586847
0.0673183
0.0988653
0.142463
0.178881
0.214155
0.250524
0.285186
0.3137
0.334806
0.350273
0.362359
0.372367
0.380852
0.3881
0.394326
0.399701
0.404354
0.408385
0.411878
0.414897
0.417498
0.419723
0.42161
0.423186
0.424478
0.425503
0.426277
0.426811
0.427113
0.42719
0.427043
0.426672
0.426074
0.425244
0.424171
0.422845
0.42125
0.419366
0.417169
0.41463
0.411712
0.408374
0.404562
0.400213
0.39525
0.38958
0.383085
0.375624
0.367016
0.357036
0.345395
0.331726
0.315532
0.296214
0.272776
0.244469
0.208378
0.166436
0.103153
0.0586154
0.0704962
0.100978
0.144011
0.180366
0.215506
0.251626
0.286029
0.314355
0.335331
0.350693
0.362684
0.372613
0.381036
0.388237
0.394427
0.399774
0.404406
0.408422
0.411903
0.414913
0.417507
0.419727
0.42161
0.423184
0.424473
0.425496
0.426269
0.426802
0.427104
0.42718
0.427032
0.426661
0.426062
0.425231
0.424159
0.422832
0.421236
0.419352
0.417154
0.414614
0.411696
0.408357
0.404544
0.400194
0.39523
0.389558
0.383062
0.375599
0.366988
0.357006
0.345362
0.33169
0.315491
0.296169
0.272725
0.244411
0.208315
0.166368
0.103097
0.0585598
0.0735834
0.103081
0.145564
0.181851
0.216862
0.252743
0.286891
0.315026
0.335868
0.351122
0.363018
0.372867
0.381228
0.38838
0.394533
0.399852
0.404463
0.408463
0.411932
0.414933
0.41752
0.419735
0.421614
0.423185
0.424471
0.425493
0.426264
0.426796
0.427097
0.427172
0.427024
0.426653
0.426054
0.425222
0.424149
0.422822
0.421226
0.419341
0.417143
0.414603
0.411684
0.408344
0.404531
0.40018
0.395215
0.389542
0.383045
0.37558
0.366968
0.356984
0.345337
0.331663
0.315461
0.296135
0.272686
0.244368
0.208267
0.166316
0.103054
0.0585178
0.0765829
0.105174
0.14712
0.183335
0.218222
0.253872
0.28777
0.315712
0.336417
0.351561
0.36336
0.373129
0.381425
0.388529
0.394645
0.399936
0.404525
0.408509
0.411965
0.414957
0.417537
0.419747
0.421621
0.423189
0.424473
0.425493
0.426263
0.426794
0.427094
0.427168
0.42702
0.426648
0.426048
0.425217
0.424143
0.422816
0.421219
0.419334
0.417136
0.414595
0.411676
0.408336
0.404522
0.40017
0.395205
0.389531
0.383033
0.375567
0.366954
0.356969
0.345321
0.331645
0.315441
0.296112
0.272661
0.244339
0.208236
0.166282
0.103026
0.0584896
0.0794974
0.107252
0.148678
0.184818
0.219585
0.255013
0.288664
0.316413
0.336977
0.352008
0.363709
0.373397
0.381629
0.388684
0.394762
0.400024
0.404592
0.408559
0.412003
0.414985
0.417558
0.419762
0.421632
0.423197
0.424478
0.425496
0.426264
0.426794
0.427094
0.427168
0.427018
0.426646
0.426046
0.425214
0.42414
0.422813
0.421216
0.419331
0.417132
0.414591
0.411672
0.408332
0.404517
0.400166
0.3952
0.389526
0.383027
0.375561
0.366948
0.356961
0.345313
0.331635
0.315431
0.2961
0.272648
0.244325
0.20822
0.166265
0.103012
0.0584754
0.0823297
0.109315
0.150236
0.186296
0.220948
0.256162
0.289573
0.317126
0.337548
0.352463
0.364066
0.373671
0.381839
0.388844
0.394884
0.400117
0.404663
0.408613
0.412044
0.415017
0.417582
0.419781
0.421646
0.423208
0.424487
0.425503
0.42627
0.426798
0.427097
0.42717
0.42702
0.426647
0.426047
0.425215
0.424141
0.422813
0.421217
0.419331
0.417133
0.414592
0.411672
0.408332
0.404517
0.400166
0.3952
0.389526
0.383027
0.375561
0.366948
0.356961
0.345313
0.331635
0.315431
0.2961
0.272648
0.244325
0.20822
0.166265
0.103012
0.0584754
0.0850821
0.11136
0.151792
0.187771
0.222311
0.257318
0.290493
0.317853
0.338128
0.352927
0.364429
0.373952
0.382055
0.389009
0.395011
0.400215
0.404738
0.408672
0.41209
0.415053
0.41761
0.419803
0.421664
0.423222
0.424499
0.425513
0.426278
0.426805
0.427103
0.427175
0.427025
0.426652
0.426051
0.425219
0.424145
0.422817
0.421221
0.419335
0.417136
0.414596
0.411676
0.408336
0.404522
0.400171
0.395205
0.389531
0.383033
0.375567
0.366954
0.356969
0.345321
0.331645
0.315441
0.296112
0.272661
0.244339
0.208236
0.166282
0.103026
0.0584896
0.0877569
0.113385
0.153347
0.189241
0.223673
0.258481
0.291424
0.31859
0.338717
0.353397
0.364799
0.374239
0.382276
0.38918
0.395143
0.400317
0.404818
0.408735
0.412139
0.415092
0.417642
0.419829
0.421686
0.42324
0.424514
0.425526
0.426289
0.426815
0.427112
0.427184
0.427033
0.426659
0.426059
0.425226
0.424152
0.422825
0.421228
0.419342
0.417144
0.414603
0.411685
0.408345
0.404531
0.40018
0.395215
0.389542
0.383045
0.37558
0.366968
0.356984
0.345337
0.331663
0.315461
0.296135
0.272686
0.244368
0.208267
0.166316
0.103054
0.0585178
0.0903564
0.115389
0.154897
0.190705
0.225032
0.259648
0.292365
0.319337
0.339313
0.353873
0.365174
0.374531
0.382502
0.389355
0.395279
0.400424
0.404902
0.408801
0.412193
0.415136
0.417677
0.419858
0.42171
0.423261
0.424532
0.425542
0.426304
0.426829
0.427124
0.427196
0.427044
0.42667
0.42607
0.425237
0.424163
0.422835
0.421239
0.419353
0.417155
0.414615
0.411697
0.408357
0.404544
0.400194
0.395231
0.389558
0.383062
0.375599
0.366989
0.357006
0.345362
0.33169
0.315491
0.296169
0.272725
0.244411
0.208315
0.166368
0.103097
0.0585598
0.0928827
0.117371
0.156443
0.192163
0.226388
0.260818
0.293315
0.320094
0.339918
0.354356
0.365555
0.374828
0.382734
0.389536
0.395421
0.400536
0.404991