/*--------------------------------*- C++ -*----------------------------------*\
| =========                 |                                                 |
| \\      /  F ield         | OpenFOAM: The Open Source CFD Toolbox           |
|  \\    /   O peration     | Version:  2.4.0                                 |
|   \\  /    A nd           | Web:      www.OpenFOAM.org                      |
|    \\/     M anipulation  |                                                 |
\*---------------------------------------------------------------------------*/
FoamFile
{
    version     2.0;
    format      ascii;
    class       volScalarField;
    location    "0.36";
    object      nut;
}
// * * * * * * * * * * * * * * * * * * * * * * * * * * * * * * * * * * * * * //

dimensions      [0 2 -1 0 0 0 0];

internalField   nonuniform List<scalar> 
6000
(
1.24386e-05
9.51942e-06
4.19985e-06
6.33563e-06
5.37731e-06
5.06393e-06
4.72243e-06
5.11579e-06
6.37143e-06
7.59949e-06
8.71645e-06
9.6555e-06
1.03759e-05
1.08916e-05
1.12645e-05
1.15655e-05
1.18477e-05
1.2108e-05
1.23317e-05
1.25209e-05
1.26805e-05
1.28155e-05
1.29298e-05
1.30261e-05
1.31068e-05
1.31734e-05
1.32273e-05
1.32694e-05
1.33006e-05
1.33214e-05
1.33323e-05
1.33337e-05
1.33261e-05
1.33098e-05
1.32851e-05
1.32523e-05
1.32114e-05
1.31623e-05
1.31054e-05
1.30419e-05
1.29722e-05
1.2897e-05
1.28167e-05
1.27318e-05
1.2643e-05
1.25508e-05
1.24557e-05
1.23586e-05
1.22598e-05
1.21603e-05
1.20605e-05
1.19615e-05
1.1863e-05
1.17728e-05
1.16987e-05
1.1651e-05
1.15741e-05
1.15949e-05
1.14009e-05
1.1635e-05
2.33667e-05
3.12823e-05
1.99847e-05
1.53243e-05
1.72826e-05
1.76485e-05
1.79743e-05
1.77372e-05
1.74357e-05
1.71075e-05
1.68918e-05
1.69888e-05
1.73728e-05
1.77837e-05
1.80172e-05
1.80855e-05
1.81012e-05
1.81384e-05
1.821e-05
1.83055e-05
1.84143e-05
1.85296e-05
1.86464e-05
1.87596e-05
1.88646e-05
1.89573e-05
1.90345e-05
1.90934e-05
1.91318e-05
1.91478e-05
1.914e-05
1.91071e-05
1.9048e-05
1.89619e-05
1.88483e-05
1.8707e-05
1.85381e-05
1.83394e-05
1.81096e-05
1.78501e-05
1.75608e-05
1.7242e-05
1.68939e-05
1.65171e-05
1.61124e-05
1.56808e-05
1.52238e-05
1.47432e-05
1.42413e-05
1.37212e-05
1.31864e-05
1.26409e-05
1.20895e-05
1.15363e-05
1.0985e-05
1.04367e-05
9.90799e-06
9.37525e-06
8.87071e-06
8.50717e-06
2.89356e-05
4.68826e-05
2.93474e-05
2.92711e-05
2.74234e-05
2.70284e-05
2.7233e-05
2.76704e-05
2.80977e-05
2.80912e-05
2.7538e-05
2.6739e-05
2.61309e-05
2.58761e-05
2.58531e-05
2.59359e-05
2.60923e-05
2.63157e-05
2.65873e-05
2.6884e-05
2.71875e-05
2.74851e-05
2.77679e-05
2.80296e-05
2.8266e-05
2.84742e-05
2.86524e-05
2.87994e-05
2.89148e-05
2.8998e-05
2.90488e-05
2.90668e-05
2.90515e-05
2.90025e-05
2.89188e-05
2.87992e-05
2.86412e-05
2.84398e-05
2.81931e-05
2.79025e-05
2.75668e-05
2.71836e-05
2.67502e-05
2.62632e-05
2.57192e-05
2.51147e-05
2.44461e-05
2.37099e-05
2.29032e-05
2.2024e-05
2.10708e-05
2.00451e-05
1.89473e-05
1.77881e-05
1.6554e-05
1.53078e-05
1.39121e-05
1.27151e-05
1.10126e-05
1.00476e-05
3.22287e-05
5.47472e-05
3.45902e-05
3.8048e-05
3.23397e-05
3.14382e-05
3.18465e-05
3.27714e-05
3.37777e-05
3.442e-05
3.4422e-05
3.38778e-05
3.31837e-05
3.27011e-05
3.25231e-05
3.25689e-05
3.27456e-05
3.29913e-05
3.32668e-05
3.35484e-05
3.38221e-05
3.40794e-05
3.43153e-05
3.45273e-05
3.47143e-05
3.48765e-05
3.50143e-05
3.51286e-05
3.52202e-05
3.52899e-05
3.53384e-05
3.5366e-05
3.53729e-05
3.53592e-05
3.53243e-05
3.52673e-05
3.51865e-05
3.50781e-05
3.49415e-05
3.47762e-05
3.45803e-05
3.43513e-05
3.40854e-05
3.37786e-05
3.34255e-05
3.30203e-05
3.2556e-05
3.20245e-05
3.14167e-05
3.07225e-05
2.99305e-05
2.90295e-05
2.80057e-05
2.68535e-05
2.55428e-05
2.41293e-05
2.24272e-05
2.08826e-05
1.85221e-05
1.74053e-05
3.39717e-05
5.79626e-05
4.20648e-05
4.44751e-05
3.51129e-05
3.31899e-05
3.34516e-05
3.44742e-05
3.56725e-05
3.66813e-05
3.71743e-05
3.71082e-05
3.67506e-05
3.6432e-05
3.6304e-05
3.63427e-05
3.64743e-05
3.66442e-05
3.68232e-05
3.6998e-05
3.71623e-05
3.73128e-05
3.74478e-05
3.75668e-05
3.76703e-05
3.77591e-05
3.7834e-05
3.78961e-05
3.79462e-05
3.79851e-05
3.80134e-05
3.80317e-05
3.804e-05
3.80387e-05
3.80275e-05
3.8006e-05
3.79731e-05
3.79275e-05
3.78689e-05
3.77966e-05
3.77096e-05
3.76063e-05
3.74845e-05
3.73417e-05
3.71746e-05
3.69792e-05
3.67507e-05
3.64831e-05
3.61692e-05
3.58003e-05
3.53657e-05
3.4853e-05
3.42464e-05
3.3532e-05
3.26796e-05
3.17074e-05
3.04821e-05
2.92917e-05
2.74456e-05
2.67224e-05
3.48982e-05
5.83345e-05
4.89843e-05
4.94889e-05
3.71086e-05
3.36584e-05
3.34656e-05
3.44217e-05
3.56695e-05
3.69027e-05
3.77609e-05
3.80948e-05
3.80721e-05
3.7977e-05
3.79688e-05
3.80503e-05
3.81711e-05
3.82954e-05
3.84096e-05
3.85111e-05
3.86007e-05
3.8679e-05
3.8747e-05
3.88054e-05
3.8855e-05
3.88969e-05
3.89317e-05
3.89604e-05
3.89835e-05
3.90016e-05
3.90151e-05
3.90243e-05
3.90295e-05
3.90307e-05
3.9028e-05
3.90212e-05
3.90096e-05
3.89931e-05
3.89714e-05
3.89444e-05
3.89113e-05
3.88716e-05
3.88242e-05
3.8768e-05
3.87014e-05
3.86225e-05
3.8529e-05
3.84179e-05
3.82856e-05
3.81274e-05
3.79373e-05
3.77082e-05
3.74305e-05
3.70935e-05
3.66804e-05
3.61886e-05
3.55614e-05
3.49071e-05
3.39765e-05
3.37212e-05
3.53895e-05
5.69911e-05
5.4085e-05
5.34213e-05
3.88871e-05
3.36425e-05
3.28242e-05
3.36424e-05
3.49077e-05
3.63156e-05
3.74746e-05
3.81444e-05
3.84081e-05
3.85137e-05
3.86244e-05
3.8762e-05
3.88947e-05
3.90026e-05
3.90844e-05
3.91464e-05
3.91945e-05
3.92327e-05
3.92635e-05
3.92884e-05
3.93087e-05
3.93252e-05
3.93385e-05
3.93494e-05
3.9358e-05
3.93648e-05
3.93699e-05
3.93737e-05
3.93761e-05
3.93774e-05
3.93774e-05
3.93762e-05
3.93736e-05
3.93695e-05
3.93638e-05
3.93565e-05
3.93475e-05
3.93364e-05
3.93231e-05
3.9307e-05
3.92878e-05
3.92647e-05
3.92369e-05
3.92035e-05
3.91632e-05
3.91143e-05
3.90549e-05
3.89823e-05
3.88931e-05
3.8783e-05
3.86472e-05
3.84809e-05
3.82785e-05
3.80485e-05
3.785e-05
3.79671e-05
3.56324e-05
5.46753e-05
5.70701e-05
5.61319e-05
4.06461e-05
3.35809e-05
3.20028e-05
3.26279e-05
3.38993e-05
3.54549e-05
3.68758e-05
3.78407e-05
3.83551e-05
3.86352e-05
3.88505e-05
3.90412e-05
3.91924e-05
3.92973e-05
3.93644e-05
3.94062e-05
3.94326e-05
3.94497e-05
3.94611e-05
3.9469e-05
3.94746e-05
3.94786e-05
3.94816e-05
3.94839e-05
3.94856e-05
3.94871e-05
3.94882e-05
3.94893e-05
3.94902e-05
3.94911e-05
3.9492e-05
3.94929e-05
3.94936e-05
3.94944e-05
3.94953e-05
3.94962e-05
3.94972e-05
3.94984e-05
3.94997e-05
3.95012e-05
3.9503e-05
3.95051e-05
3.95076e-05
3.95105e-05
3.95139e-05
3.9518e-05
3.95231e-05
3.95295e-05
3.95378e-05
3.95484e-05
3.95651e-05
3.95851e-05
3.96348e-05
3.96753e-05
3.99425e-05
4.03182e-05
3.57293e-05
5.18874e-05
5.80377e-05
5.74961e-05
4.21122e-05
3.35826e-05
3.1205e-05
3.15873e-05
3.2848e-05
3.4526e-05
3.61777e-05
3.741e-05
3.81518e-05
3.85877e-05
3.88951e-05
3.91336e-05
3.93048e-05
3.94133e-05
3.9475e-05
3.95076e-05
3.95235e-05
3.95304e-05
3.95326e-05
3.95326e-05
3.95315e-05
3.953e-05
3.95285e-05
3.95271e-05
3.9526e-05
3.95251e-05
3.95247e-05
3.95246e-05
3.95249e-05
3.95256e-05
3.95267e-05
3.95283e-05
3.95303e-05
3.95329e-05
3.95362e-05
3.95402e-05
3.95451e-05
3.95511e-05
3.95584e-05
3.95672e-05
3.95778e-05
3.95906e-05
3.96063e-05
3.96254e-05
3.96487e-05
3.96775e-05
3.97133e-05
3.97581e-05
3.98149e-05
3.9887e-05
3.99831e-05
4.01035e-05
4.02921e-05
4.04902e-05
4.10249e-05
4.15631e-05
3.57423e-05
4.89637e-05
5.72995e-05
5.74453e-05
4.29372e-05
3.3572e-05
3.04944e-05
3.06032e-05
3.18297e-05
3.36031e-05
3.54573e-05
3.6936e-05
3.78909e-05
3.84717e-05
3.88632e-05
3.91459e-05
3.93375e-05
3.94531e-05
3.95149e-05
3.95442e-05
3.95558e-05
3.95583e-05
3.95567e-05
3.95533e-05
3.95495e-05
3.95458e-05
3.95425e-05
3.95397e-05
3.95375e-05
3.95359e-05
3.95348e-05
3.95343e-05
3.95343e-05
3.9535e-05
3.95362e-05
3.9538e-05
3.95405e-05
3.95437e-05
3.95478e-05
3.95529e-05
3.95592e-05
3.95669e-05
3.95764e-05
3.95879e-05
3.9602e-05
3.96191e-05
3.96402e-05
3.96661e-05
3.96981e-05
3.97378e-05
3.97877e-05
3.98505e-05
3.99307e-05
4.00331e-05
4.01696e-05
4.03423e-05
4.06049e-05
4.08908e-05
4.15702e-05
4.22022e-05
3.57088e-05
4.61231e-05
5.52725e-05
5.60476e-05
4.29459e-05
3.34257e-05
2.98632e-05
2.97023e-05
3.08712e-05
3.27126e-05
3.47419e-05
3.64488e-05
3.76076e-05
3.83281e-05
3.88001e-05
3.9125e-05
3.93374e-05
3.9462e-05
3.95267e-05
3.95559e-05
3.95662e-05
3.95672e-05
3.9564e-05
3.95594e-05
3.95546e-05
3.95501e-05
3.95462e-05
3.95429e-05
3.95404e-05
3.95385e-05
3.95372e-05
3.95365e-05
3.95365e-05
3.95371e-05
3.95383e-05
3.95402e-05
3.95428e-05
3.95462e-05
3.95506e-05
3.95561e-05
3.95628e-05
3.95712e-05
3.95814e-05
3.95938e-05
3.96091e-05
3.96279e-05
3.9651e-05
3.96796e-05
3.97151e-05
3.97595e-05
3.98155e-05
3.98864e-05
3.99775e-05
4.00945e-05
4.02509e-05
4.04504e-05
4.07513e-05
4.10849e-05
4.18383e-05
4.25197e-05
3.56509e-05
4.34987e-05
5.23991e-05
5.35263e-05
4.21178e-05
3.30468e-05
2.92744e-05
2.88855e-05
2.99804e-05
3.18639e-05
3.40417e-05
3.59593e-05
3.73151e-05
3.81729e-05
3.87243e-05
3.9091e-05
3.93244e-05
3.9459e-05
3.9528e-05
3.95586e-05
3.95689e-05
3.95695e-05
3.95659e-05
3.95609e-05
3.95557e-05
3.9551e-05
3.95469e-05
3.95435e-05
3.95408e-05
3.95388e-05
3.95375e-05
3.95368e-05
3.95367e-05
3.95373e-05
3.95385e-05
3.95405e-05
3.95431e-05
3.95466e-05
3.9551e-05
3.95566e-05
3.95635e-05
3.9572e-05
3.95825e-05
3.95953e-05
3.9611e-05
3.96303e-05
3.96542e-05
3.96838e-05
3.97207e-05
3.97669e-05
3.98254e-05
3.98999e-05
3.99958e-05
4.01197e-05
4.02857e-05
4.04986e-05
4.08189e-05
4.11776e-05
4.1966e-05
4.26699e-05
3.5582e-05
4.11617e-05
4.90897e-05
5.02255e-05
4.05493e-05
3.23984e-05
2.86904e-05
2.81426e-05
2.91573e-05
3.10605e-05
3.33613e-05
3.5472e-05
3.70179e-05
3.80121e-05
3.86432e-05
3.90519e-05
3.93067e-05
3.94519e-05
3.95257e-05
3.95582e-05
3.95692e-05
3.95699e-05
3.95662e-05
3.9561e-05
3.95558e-05
3.95509e-05
3.95468e-05
3.95433e-05
3.95406e-05
3.95386e-05
3.95373e-05
3.95366e-05
3.95365e-05
3.95371e-05
3.95383e-05
3.95402e-05
3.95429e-05
3.95464e-05
3.95509e-05
3.95565e-05
3.95634e-05
3.9572e-05
3.95825e-05
3.95954e-05
3.96113e-05
3.96309e-05
3.9655e-05
3.9685e-05
3.97224e-05
3.97694e-05
3.9829e-05
3.99049e-05
4.00031e-05
4.013e-05
4.03005e-05
4.052e-05
4.085e-05
4.12216e-05
4.20244e-05
4.27348e-05
3.55098e-05
3.91392e-05
4.56855e-05
4.654e-05
3.84785e-05
3.1515e-05
2.80886e-05
2.74601e-05
2.83983e-05
3.03034e-05
3.27031e-05
3.49888e-05
3.67177e-05
3.78477e-05
3.85593e-05
3.90106e-05
3.92872e-05
3.94433e-05
3.95222e-05
3.95569e-05
3.95687e-05
3.95697e-05
3.9566e-05
3.95609e-05
3.95555e-05
3.95507e-05
3.95465e-05
3.9543e-05
3.95403e-05
3.95383e-05
3.95369e-05
3.95362e-05
3.95362e-05
3.95367e-05
3.9538e-05
3.95399e-05
3.95426e-05
3.95461e-05
3.95506e-05
3.95562e-05
3.95632e-05
3.95718e-05
3.95823e-05
3.95953e-05
3.96112e-05
3.96309e-05
3.96551e-05
3.96853e-05
3.97229e-05
3.97703e-05
3.98303e-05
3.99069e-05
4.00061e-05
4.01345e-05
4.03072e-05
4.05299e-05
4.08645e-05
4.12426e-05
4.20491e-05
4.27572e-05
3.5439e-05
3.74285e-05
4.24394e-05
4.28376e-05
3.62462e-05
3.04853e-05
2.74654e-05
2.68262e-05
2.76987e-05
2.95922e-05
3.2069e-05
3.45113e-05
3.64152e-05
3.768e-05
3.84732e-05
3.89681e-05
3.9267e-05
3.94342e-05
3.95184e-05
3.95554e-05
3.95681e-05
3.95693e-05
3.95658e-05
3.95606e-05
3.95552e-05
3.95504e-05
3.95461e-05
3.95427e-05
3.954e-05
3.95379e-05
3.95366e-05
3.95359e-05
3.95358e-05
3.95364e-05
3.95376e-05
3.95396e-05
3.95422e-05
3.95457e-05
3.95502e-05
3.95559e-05
3.95629e-05
3.95715e-05
3.95821e-05
3.95951e-05
3.9611e-05
3.96307e-05
3.96551e-05
3.96853e-05
3.97231e-05
3.97707e-05
3.9831e-05
3.9908e-05
4.00076e-05
4.01369e-05
4.03107e-05
4.05351e-05
4.08719e-05
4.12532e-05
4.20578e-05
4.27591e-05
3.53721e-05
3.60085e-05
3.95134e-05
3.93984e-05
3.40611e-05
2.93986e-05
2.68306e-05
2.62329e-05
2.70532e-05
2.89259e-05
3.146e-05
3.4041e-05
3.6111e-05
3.75094e-05
3.83852e-05
3.89246e-05
3.92463e-05
3.94249e-05
3.95144e-05
3.95538e-05
3.95674e-05
3.9569e-05
3.95655e-05
3.95603e-05
3.95549e-05
3.955e-05
3.95458e-05
3.95423e-05
3.95396e-05
3.95376e-05
3.95362e-05
3.95355e-05
3.95355e-05
3.9536e-05
3.95373e-05
3.95392e-05
3.95419e-05
3.95454e-05
3.95499e-05
3.95556e-05
3.95626e-05
3.95712e-05
3.95818e-05
3.95948e-05
3.96108e-05
3.96306e-05
3.9655e-05
3.96853e-05
3.97232e-05
3.97709e-05
3.98314e-05
3.99086e-05
4.00087e-05
4.01384e-05
4.03129e-05
4.05383e-05
4.08762e-05
4.1259e-05
4.20593e-05
4.27516e-05
3.53104e-05
3.48481e-05
3.69891e-05
3.63905e-05
3.20667e-05
2.8332e-05
2.62008e-05
2.56759e-05
2.64572e-05
2.8303e-05
3.08772e-05
3.3579e-05
3.58058e-05
3.73358e-05
3.82952e-05
3.88801e-05
3.92253e-05
3.94154e-05
3.95104e-05
3.95522e-05
3.95667e-05
3.95686e-05
3.95652e-05
3.956e-05
3.95547e-05
3.95497e-05
3.95455e-05
3.9542e-05
3.95393e-05
3.95372e-05
3.95359e-05
3.95352e-05
3.95351e-05
3.95357e-05
3.95369e-05
3.95389e-05
3.95416e-05
3.95451e-05
3.95496e-05
3.95552e-05
3.95623e-05
3.95709e-05
3.95815e-05
3.95946e-05
3.96106e-05
3.96304e-05
3.96549e-05
3.96853e-05
3.97233e-05
3.97711e-05
3.98317e-05
3.99092e-05
4.00095e-05
4.01397e-05
4.03147e-05
4.05408e-05
4.08793e-05
4.12626e-05
4.20575e-05
4.274e-05
3.52545e-05
3.3912e-05
3.48861e-05
3.38783e-05
3.03385e-05
2.73394e-05
2.55931e-05
2.51542e-05
2.5907e-05
2.77218e-05
3.0321e-05
3.31267e-05
3.55002e-05
3.71595e-05
3.82032e-05
3.88347e-05
3.92038e-05
3.94058e-05
3.95064e-05
3.95506e-05
3.95661e-05
3.95683e-05
3.95649e-05
3.95598e-05
3.95544e-05
3.95494e-05
3.95452e-05
3.95417e-05
3.95389e-05
3.95369e-05
3.95356e-05
3.95348e-05
3.95348e-05
3.95354e-05
3.95366e-05
3.95386e-05
3.95412e-05
3.95448e-05
3.95493e-05
3.95549e-05
3.9562e-05
3.95706e-05
3.95813e-05
3.95944e-05
3.96104e-05
3.96303e-05
3.96548e-05
3.96852e-05
3.97233e-05
3.97713e-05
3.98321e-05
3.99097e-05
4.00103e-05
4.01408e-05
4.03163e-05
4.05429e-05
4.08817e-05
4.12654e-05
4.20544e-05
4.27269e-05
3.52044e-05
3.31655e-05
3.3182e-05
3.18518e-05
2.8897e-05
2.64393e-05
2.50211e-05
2.46685e-05
2.53995e-05
2.71803e-05
2.97916e-05
3.26849e-05
3.51949e-05
3.69806e-05
3.81092e-05
3.87882e-05
3.91818e-05
3.9396e-05
3.95024e-05
3.9549e-05
3.95655e-05
3.9568e-05
3.95647e-05
3.95595e-05
3.95541e-05
3.95492e-05
3.95449e-05
3.95414e-05
3.95386e-05
3.95366e-05
3.95352e-05
3.95345e-05
3.95345e-05
3.9535e-05
3.95363e-05
3.95382e-05
3.95409e-05
3.95445e-05
3.9549e-05
3.95546e-05
3.95617e-05
3.95704e-05
3.9581e-05
3.95941e-05
3.96102e-05
3.96301e-05
3.96547e-05
3.96852e-05
3.97234e-05
3.97714e-05
3.98324e-05
3.99102e-05
4.00111e-05
4.01419e-05
4.03177e-05
4.05449e-05
4.08839e-05
4.12676e-05
4.20508e-05
4.27136e-05
3.51599e-05
3.25758e-05
3.18314e-05
3.02584e-05
2.7728e-05
2.56834e-05
2.45054e-05
2.42221e-05
2.49327e-05
2.66768e-05
2.92891e-05
3.22549e-05
3.48906e-05
3.67993e-05
3.80132e-05
3.87406e-05
3.91594e-05
3.93861e-05
3.94983e-05
3.95475e-05
3.95649e-05
3.95677e-05
3.95645e-05
3.95593e-05
3.95539e-05
3.95489e-05
3.95446e-05
3.95411e-05
3.95383e-05
3.95363e-05
3.95349e-05
3.95342e-05
3.95341e-05
3.95347e-05
3.9536e-05
3.95379e-05
3.95406e-05
3.95442e-05
3.95487e-05
3.95544e-05
3.95614e-05
3.95701e-05
3.95808e-05
3.95939e-05
3.96101e-05
3.963e-05
3.96546e-05
3.96852e-05
3.97234e-05
3.97716e-05
3.98327e-05
3.99107e-05
4.00118e-05
4.01429e-05
4.03192e-05
4.05468e-05
4.0886e-05
4.12696e-05
4.20471e-05
4.27005e-05
3.51205e-05
3.21142e-05
3.07798e-05
2.9029e-05
2.67991e-05
2.50563e-05
2.40484e-05
2.38156e-05
2.45046e-05
2.62094e-05
2.88131e-05
3.18373e-05
3.45881e-05
3.66159e-05
3.79151e-05
3.8692e-05
3.91366e-05
3.93761e-05
3.94942e-05
3.95459e-05
3.95643e-05
3.95674e-05
3.95643e-05
3.95591e-05
3.95536e-05
3.95486e-05
3.95443e-05
3.95408e-05
3.9538e-05
3.9536e-05
3.95346e-05
3.95339e-05
3.95338e-05
3.95344e-05
3.95357e-05
3.95376e-05
3.95403e-05
3.95439e-05
3.95484e-05
3.95541e-05
3.95611e-05
3.95698e-05
3.95805e-05
3.95937e-05
3.96099e-05
3.96298e-05
3.96545e-05
3.96851e-05
3.97235e-05
3.97717e-05
3.9833e-05
3.99112e-05
4.00125e-05
4.01439e-05
4.03205e-05
4.05486e-05
4.08879e-05
4.12714e-05
4.20434e-05
4.26879e-05
3.5086e-05
3.17557e-05
2.99726e-05
2.80937e-05
2.60723e-05
2.454e-05
2.36488e-05
2.34486e-05
2.41132e-05
2.57762e-05
2.83631e-05
3.14328e-05
3.42881e-05
3.64307e-05
3.78151e-05
3.86422e-05
3.91132e-05
3.93658e-05
3.94901e-05
3.95444e-05
3.95637e-05
3.95672e-05
3.95641e-05
3.95589e-05
3.95534e-05
3.95484e-05
3.95441e-05
3.95405e-05
3.95377e-05
3.95357e-05
3.95343e-05
3.95336e-05
3.95335e-05
3.95341e-05
3.95354e-05
3.95373e-05
3.954e-05
3.95436e-05
3.95481e-05
3.95538e-05
3.95609e-05
3.95696e-05
3.95803e-05
3.95935e-05
3.96097e-05
3.96297e-05
3.96544e-05
3.96851e-05
3.97235e-05
3.97719e-05
3.98333e-05
3.99117e-05
4.00132e-05
4.01449e-05
4.03219e-05
4.05504e-05
4.08897e-05
4.12731e-05
4.20397e-05
4.26757e-05
3.50556e-05
3.14795e-05
2.93605e-05
2.73898e-05
2.55105e-05
2.41201e-05
2.3304e-05
2.312e-05
2.37567e-05
2.53754e-05
2.79384e-05
3.10419e-05
3.39912e-05
3.62441e-05
3.77133e-05
3.85913e-05
3.90894e-05
3.93554e-05
3.94859e-05
3.95429e-05
3.95632e-05
3.95669e-05
3.95639e-05
3.95587e-05
3.95532e-05
3.95481e-05
3.95438e-05
3.95402e-05
3.95374e-05
3.95354e-05
3.9534e-05
3.95333e-05
3.95332e-05
3.95338e-05
3.95351e-05
3.9537e-05
3.95397e-05
3.95433e-05
3.95478e-05
3.95535e-05
3.95606e-05
3.95694e-05
3.95801e-05
3.95933e-05
3.96095e-05
3.96295e-05
3.96543e-05
3.96851e-05
3.97236e-05
3.9772e-05
3.98335e-05
3.99121e-05
4.00139e-05
4.01459e-05
4.03231e-05
4.0552e-05
4.08915e-05
4.12746e-05
4.20362e-05
4.26642e-05
3.50291e-05
3.12683e-05
2.8901e-05
2.6865e-05
2.50807e-05
2.37823e-05
2.30099e-05
2.28285e-05
2.34332e-05
2.50051e-05
2.75383e-05
3.06649e-05
3.3698e-05
3.60564e-05
3.76097e-05
3.85393e-05
3.9065e-05
3.93448e-05
3.94817e-05
3.95414e-05
3.95627e-05
3.95667e-05
3.95638e-05
3.95585e-05
3.9553e-05
3.95479e-05
3.95435e-05
3.954e-05
3.95372e-05
3.95351e-05
3.95337e-05
3.9533e-05
3.9533e-05
3.95335e-05
3.95348e-05
3.95368e-05
3.95395e-05
3.9543e-05
3.95476e-05
3.95533e-05
3.95604e-05
3.95691e-05
3.95799e-05
3.95931e-05
3.96094e-05
3.96294e-05
3.96542e-05
3.96851e-05
3.97236e-05
3.97722e-05
3.98338e-05
3.99125e-05
4.00145e-05
4.01468e-05
4.03244e-05
4.05536e-05
4.08931e-05
4.1276e-05
4.20327e-05
4.26531e-05
3.50059e-05
3.11081e-05
2.85596e-05
2.64773e-05
2.47552e-05
2.35133e-05
2.27619e-05
2.25719e-05
2.3141e-05
2.46638e-05
2.71617e-05
3.0302e-05
3.34093e-05
3.5868e-05
3.75045e-05
3.84862e-05
3.90402e-05
3.9334e-05
3.94775e-05
3.95399e-05
3.95622e-05
3.95666e-05
3.95637e-05
3.95584e-05
3.95528e-05
3.95477e-05
3.95433e-05
3.95397e-05
3.95369e-05
3.95348e-05
3.95335e-05
3.95327e-05
3.95327e-05
3.95333e-05
3.95345e-05
3.95365e-05
3.95392e-05
3.95428e-05
3.95473e-05
3.9553e-05
3.95601e-05
3.95689e-05
3.95797e-05
3.95929e-05
3.96092e-05
3.96293e-05
3.96541e-05
3.9685e-05
3.97237e-05
3.97723e-05
3.98341e-05
3.9913e-05
4.00151e-05
4.01477e-05
4.03256e-05
4.05552e-05
4.08947e-05
4.12773e-05
4.20294e-05
4.26426e-05
3.49856e-05
3.09876e-05
2.83086e-05
2.61937e-05
2.45111e-05
2.33013e-05
2.25542e-05
2.23477e-05
2.28779e-05
2.43496e-05
2.68079e-05
2.99533e-05
3.31255e-05
3.56792e-05
3.73978e-05
3.84321e-05
3.90148e-05
3.93231e-05
3.94732e-05
3.95384e-05
3.95618e-05
3.95664e-05
3.95636e-05
3.95583e-05
3.95526e-05
3.95475e-05
3.95431e-05
3.95395e-05
3.95367e-05
3.95346e-05
3.95332e-05
3.95325e-05
3.95324e-05
3.9533e-05
3.95343e-05
3.95362e-05
3.95389e-05
3.95425e-05
3.95471e-05
3.95528e-05
3.95599e-05
3.95687e-05
3.95795e-05
3.95927e-05
3.9609e-05
3.96291e-05
3.9654e-05
3.9685e-05
3.97237e-05
3.97725e-05
3.98343e-05
3.99134e-05
4.00157e-05
4.01485e-05
4.03267e-05
4.05567e-05
4.08962e-05
4.12785e-05
4.20261e-05
4.26327e-05
3.49679e-05
3.08979e-05
2.81261e-05
2.59886e-05
2.43303e-05
2.3136e-05
2.23821e-05
2.21532e-05
2.26423e-05
2.40611e-05
2.64759e-05
2.96188e-05
3.2847e-05
3.54904e-05
3.72897e-05
3.8377e-05
3.8989e-05
3.93119e-05
3.94688e-05
3.95369e-05
3.95614e-05
3.95663e-05
3.95635e-05
3.95581e-05
3.95525e-05
3.95473e-05
3.95429e-05
3.95392e-05
3.95364e-05
3.95343e-05
3.95329e-05
3.95322e-05
3.95322e-05
3.95327e-05
3.9534e-05
3.9536e-05
3.95387e-05
3.95423e-05
3.95468e-05
3.95526e-05
3.95597e-05
3.95685e-05
3.95793e-05
3.95925e-05
3.96089e-05
3.9629e-05
3.9654e-05
3.9685e-05
3.97238e-05
3.97726e-05
3.98346e-05
3.99138e-05
4.00163e-05
4.01493e-05
4.03278e-05
4.05581e-05
4.08976e-05
4.12796e-05
4.2023e-05
4.26232e-05
3.49524e-05
3.08317e-05
2.79954e-05
2.58426e-05
2.41985e-05
2.30088e-05
2.22426e-05
2.19862e-05
2.24321e-05
2.37966e-05
2.61646e-05
2.92984e-05
3.25744e-05
3.5302e-05
3.71804e-05
3.83209e-05
3.89626e-05
3.93006e-05
3.94645e-05
3.95355e-05
3.9561e-05
3.95662e-05
3.95634e-05
3.9558e-05
3.95523e-05
3.95471e-05
3.95427e-05
3.9539e-05
3.95362e-05
3.95341e-05
3.95327e-05
3.9532e-05
3.95319e-05
3.95325e-05
3.95338e-05
3.95357e-05
3.95384e-05
3.9542e-05
3.95466e-05
3.95523e-05
3.95595e-05
3.95683e-05
3.95791e-05
3.95924e-05
3.96087e-05
3.96289e-05
3.96539e-05
3.96849e-05
3.97238e-05
3.97727e-05
3.98348e-05
3.99141e-05
4.00169e-05
4.01501e-05
4.03288e-05
4.05594e-05
4.08989e-05
4.12806e-05
4.202e-05
4.26142e-05
3.49388e-05
3.07836e-05
2.79034e-05
2.57409e-05
2.41043e-05
2.29124e-05
2.21304e-05
2.18441e-05
2.22455e-05
2.35546e-05
2.58732e-05
2.89918e-05
3.23078e-05
3.51143e-05
3.70701e-05
3.82639e-05
3.89358e-05
3.92891e-05
3.946e-05
3.9534e-05
3.95606e-05
3.95661e-05
3.95634e-05
3.9558e-05
3.95522e-05
3.95469e-05
3.95425e-05
3.95388e-05
3.9536e-05
3.95339e-05
3.95325e-05
3.95317e-05
3.95317e-05
3.95323e-05
3.95335e-05
3.95355e-05
3.95382e-05
3.95418e-05
3.95464e-05
3.95521e-05
3.95593e-05
3.95681e-05
3.95789e-05
3.95922e-05
3.96086e-05
3.96288e-05
3.96538e-05
3.96849e-05
3.97238e-05
3.97728e-05
3.9835e-05
3.99145e-05
4.00174e-05
4.01509e-05
4.03299e-05
4.05607e-05
4.09002e-05
4.12816e-05
4.20171e-05
4.26058e-05
3.4927e-05
3.07493e-05
2.78404e-05
2.56722e-05
2.40391e-05
2.28411e-05
2.20412e-05
2.17243e-05
2.20806e-05
2.33336e-05
2.56005e-05
2.86989e-05
3.20477e-05
3.49276e-05
3.69589e-05
3.82061e-05
3.89085e-05
3.92774e-05
3.94556e-05
3.95326e-05
3.95602e-05
3.95661e-05
3.95633e-05
3.95579e-05
3.95521e-05
3.95468e-05
3.95423e-05
3.95386e-05
3.95357e-05
3.95336e-05
3.95322e-05
3.95315e-05
3.95314e-05
3.9532e-05
3.95333e-05
3.95353e-05
3.9538e-05
3.95416e-05
3.95462e-05
3.95519e-05
3.95591e-05
3.95679e-05
3.95787e-05
3.95921e-05
3.96085e-05
3.96287e-05
3.96537e-05
3.96849e-05
3.97239e-05
3.9773e-05
3.98352e-05
3.99148e-05
4.00179e-05
4.01516e-05
4.03308e-05
4.05619e-05
4.09013e-05
4.12824e-05
4.20143e-05
4.25978e-05
3.49166e-05
3.07252e-05
2.77987e-05
2.5628e-05
2.3996e-05
2.27899e-05
2.19717e-05
2.16241e-05
2.19355e-05
2.31322e-05
2.53457e-05
2.84194e-05
3.17944e-05
3.47423e-05
3.6847e-05
3.81474e-05
3.88808e-05
3.92655e-05
3.94511e-05
3.95311e-05
3.95599e-05
3.95661e-05
3.95633e-05
3.95578e-05
3.9552e-05
3.95466e-05
3.95421e-05
3.95384e-05
3.95355e-05
3.95334e-05
3.9532e-05
3.95313e-05
3.95312e-05
3.95318e-05
3.95331e-05
3.9535e-05
3.95378e-05
3.95414e-05
3.9546e-05
3.95517e-05
3.95589e-05
3.95677e-05
3.95786e-05
3.95919e-05
3.96083e-05
3.96286e-05
3.96537e-05
3.96849e-05
3.97239e-05
3.97731e-05
3.98354e-05
3.99152e-05
4.00184e-05
4.01523e-05
4.03317e-05
4.05631e-05
4.09025e-05
4.12832e-05
4.20117e-05
4.25902e-05
3.49075e-05
3.0709e-05
2.77729e-05
2.56019e-05
2.39699e-05
2.2755e-05
2.19188e-05
2.15414e-05
2.18085e-05
2.2949e-05
2.51079e-05
2.81529e-05
3.15479e-05
3.45588e-05
3.67346e-05
3.80881e-05
3.88527e-05
3.92535e-05
3.94466e-05
3.95297e-05
3.95596e-05
3.95661e-05
3.95634e-05
3.95578e-05
3.95519e-05
3.95465e-05
3.95419e-05
3.95382e-05
3.95354e-05
3.95332e-05
3.95318e-05
3.95311e-05
3.9531e-05
3.95316e-05
3.95329e-05
3.95348e-05
3.95376e-05
3.95412e-05
3.95458e-05
3.95515e-05
3.95587e-05
3.95675e-05
3.95784e-05
3.95918e-05
3.96082e-05
3.96285e-05
3.96536e-05
3.96849e-05
3.9724e-05
3.97732e-05
3.98356e-05
3.99155e-05
4.00189e-05
4.01529e-05
4.03326e-05
4.05642e-05
4.09035e-05
4.12839e-05
4.20091e-05
4.25832e-05
3.48995e-05
3.06985e-05
2.77586e-05
2.55892e-05
2.39566e-05
2.27331e-05
2.18799e-05
2.14739e-05
2.16979e-05
2.27827e-05
2.48861e-05
2.78992e-05
3.13086e-05
3.43773e-05
3.6622e-05
3.80281e-05
3.88242e-05
3.92413e-05
3.9442e-05
3.95283e-05
3.95594e-05
3.95661e-05
3.95634e-05
3.95578e-05
3.95518e-05
3.95464e-05
3.95418e-05
3.95381e-05
3.95352e-05
3.9533e-05
3.95316e-05
3.95309e-05
3.95308e-05
3.95314e-05
3.95327e-05
3.95346e-05
3.95374e-05
3.9541e-05
3.95456e-05
3.95514e-05
3.95585e-05
3.95674e-05
3.95783e-05
3.95916e-05
3.96081e-05
3.96284e-05
3.96536e-05
3.96848e-05
3.9724e-05
3.97733e-05
3.98358e-05
3.99158e-05
4.00193e-05
4.01536e-05
4.03334e-05
4.05652e-05
4.09045e-05
4.12846e-05
4.20067e-05
4.25766e-05
3.48925e-05
3.06923e-05
2.77526e-05
2.55862e-05
2.39531e-05
2.27217e-05
2.18527e-05
2.14198e-05
2.16019e-05
2.26319e-05
2.46794e-05
2.76577e-05
3.10766e-05
3.41981e-05
3.65092e-05
3.79675e-05
3.87953e-05
3.9229e-05
3.94374e-05
3.9527e-05
3.95591e-05
3.95662e-05
3.95635e-05
3.95578e-05
3.95517e-05
3.95463e-05
3.95417e-05
3.95379e-05
3.9535e-05
3.95329e-05
3.95314e-05
3.95307e-05
3.95306e-05
3.95312e-05
3.95325e-05
3.95345e-05
3.95372e-05
3.95408e-05
3.95454e-05
3.95512e-05
3.95584e-05
3.95672e-05
3.95781e-05
3.95915e-05
3.9608e-05
3.96283e-05
3.96535e-05
3.96848e-05
3.9724e-05
3.97734e-05
3.9836e-05
3.99161e-05
4.00197e-05
4.01542e-05
4.03342e-05
4.05662e-05
4.09054e-05
4.12852e-05
4.20044e-05
4.25704e-05
3.48863e-05
3.06893e-05
2.77526e-05
2.55902e-05
2.39571e-05
2.27187e-05
2.18355e-05
2.13773e-05
2.15192e-05
2.24955e-05
2.4487e-05
2.74283e-05
3.08519e-05
3.40216e-05
3.63966e-05
3.79065e-05
3.87662e-05
3.92165e-05
3.94328e-05
3.95256e-05
3.95589e-05
3.95662e-05
3.95636e-05
3.95578e-05
3.95517e-05
3.95462e-05
3.95415e-05
3.95378e-05
3.95348e-05
3.95327e-05
3.95313e-05
3.95305e-05
3.95305e-05
3.9531e-05
3.95323e-05
3.95343e-05
3.9537e-05
3.95406e-05
3.95453e-05
3.9551e-05
3.95582e-05
3.95671e-05
3.9578e-05
3.95914e-05
3.96079e-05
3.96283e-05
3.96535e-05
3.96848e-05
3.97241e-05
3.97735e-05
3.98362e-05
3.99164e-05
4.00201e-05
4.01547e-05
4.03349e-05
4.05671e-05
4.09062e-05
4.12857e-05
4.20023e-05
4.25646e-05
3.48809e-05
3.06886e-05
2.77569e-05
2.55993e-05
2.39665e-05
2.27225e-05
2.18266e-05
2.13449e-05
2.14483e-05
2.23723e-05
2.43079e-05
2.72104e-05
3.06346e-05
3.3848e-05
3.62843e-05
3.78452e-05
3.87367e-05
3.92039e-05
3.94281e-05
3.95242e-05
3.95587e-05
3.95663e-05
3.95637e-05
3.95579e-05
3.95517e-05
3.95461e-05
3.95414e-05
3.95376e-05
3.95347e-05
3.95325e-05
3.95311e-05
3.95304e-05
3.95303e-05
3.95309e-05
3.95321e-05
3.95341e-05
3.95369e-05
3.95405e-05
3.95451e-05
3.95509e-05
3.95581e-05
3.9567e-05
3.95779e-05
3.95913e-05
3.96078e-05
3.96282e-05
3.96534e-05
3.96848e-05
3.97241e-05
3.97736e-05
3.98364e-05
3.99166e-05
4.00205e-05
4.01552e-05
4.03356e-05
4.0568e-05
4.0907e-05
4.12862e-05
4.20003e-05
4.25593e-05
3.48761e-05
3.06895e-05
2.77641e-05
2.56119e-05
2.39801e-05
2.27315e-05
2.18245e-05
2.13211e-05
2.1388e-05
2.2261e-05
2.41414e-05
2.70036e-05
3.04248e-05
3.36775e-05
3.61725e-05
3.77836e-05
3.8707e-05
3.91912e-05
3.94235e-05
3.95229e-05
3.95585e-05
3.95665e-05
3.95638e-05
3.95579e-05
3.95517e-05
3.9546e-05
3.95413e-05
3.95375e-05
3.95346e-05
3.95324e-05
3.9531e-05
3.95302e-05
3.95301e-05
3.95307e-05
3.9532e-05
3.95339e-05
3.95367e-05
3.95403e-05
3.9545e-05
3.95508e-05
3.95579e-05
3.95668e-05
3.95778e-05
3.95912e-05
3.96077e-05
3.96281e-05
3.96534e-05
3.96848e-05
3.97241e-05
3.97736e-05
3.98365e-05
3.99168e-05
4.00209e-05
4.01557e-05
4.03363e-05
4.05688e-05
4.09078e-05
4.12867e-05
4.19984e-05
4.25544e-05
3.48719e-05
3.06916e-05
2.77734e-05
2.56269e-05
2.39968e-05
2.27447e-05
2.18281e-05
2.13048e-05
2.1337e-05
2.21608e-05
2.39865e-05
2.68075e-05
3.02223e-05
3.35104e-05
3.60614e-05
3.77218e-05
3.86771e-05
3.91785e-05
3.94188e-05
3.95216e-05
3.95584e-05
3.95666e-05
3.9564e-05
3.9558e-05
3.95517e-05
3.9546e-05
3.95412e-05
3.95374e-05
3.95344e-05
3.95323e-05
3.95308e-05
3.95301e-05
3.953e-05
3.95306e-05
3.95318e-05
3.95338e-05
3.95366e-05
3.95402e-05
3.95448e-05
3.95506e-05
3.95578e-05
3.95667e-05
3.95776e-05
3.95911e-05
3.96076e-05
3.96281e-05
3.96533e-05
3.96848e-05
3.97242e-05
3.97737e-05
3.98366e-05
3.99171e-05
4.00212e-05
4.01562e-05
4.03369e-05
4.05696e-05
4.09085e-05
4.12871e-05
4.19966e-05
4.255e-05
3.48682e-05
3.06945e-05
2.77839e-05
2.56436e-05
2.40157e-05
2.27612e-05
2.18363e-05
2.12948e-05
2.12942e-05
2.20706e-05
2.38427e-05
2.66215e-05
3.00272e-05
3.33468e-05
3.59512e-05
3.766e-05
3.8647e-05
3.91656e-05
3.94141e-05
3.95203e-05
3.95583e-05
3.95668e-05
3.95641e-05
3.95581e-05
3.95517e-05
3.9546e-05
3.95412e-05
3.95373e-05
3.95343e-05
3.95321e-05
3.95307e-05
3.95299e-05
3.95298e-05
3.95304e-05
3.95317e-05
3.95337e-05
3.95364e-05
3.95401e-05
3.95447e-05
3.95505e-05
3.95577e-05
3.95666e-05
3.95776e-05
3.9591e-05
3.96076e-05
3.9628e-05
3.96533e-05
3.96848e-05
3.97242e-05
3.97738e-05
3.98368e-05
3.99173e-05
4.00215e-05
4.01566e-05
4.03374e-05
4.05702e-05
4.09091e-05
4.12875e-05
4.1995e-05
4.25459e-05
3.48649e-05
3.0698e-05
2.77952e-05
2.56612e-05
2.40361e-05
2.27802e-05
2.18483e-05
2.12902e-05
2.12587e-05
2.19896e-05
2.37091e-05
2.64454e-05
2.98394e-05
3.31869e-05
3.58421e-05
3.75982e-05
3.86169e-05
3.91528e-05
3.94095e-05
3.95191e-05
3.95582e-05
3.9567e-05
3.95643e-05
3.95582e-05
3.95517e-05
3.95459e-05
3.95411e-05
3.95372e-05
3.95342e-05
3.9532e-05
3.95306e-05
3.95298e-05
3.95297e-05
3.95303e-05
3.95315e-05
3.95335e-05
3.95363e-05
3.95399e-05
3.95446e-05
3.95504e-05
3.95576e-05
3.95665e-05
3.95775e-05
3.95909e-05
3.96075e-05
3.96279e-05
3.96533e-05
3.96848e-05
3.97242e-05
3.97739e-05
3.98369e-05
3.99175e-05
4.00218e-05
4.0157e-05
4.0338e-05
4.05709e-05
4.09096e-05
4.12878e-05
4.19934e-05
4.25422e-05
3.4862e-05
3.07018e-05
2.78069e-05
2.56794e-05
2.40575e-05
2.2801e-05
2.18633e-05
2.129e-05
2.12295e-05
2.19167e-05
2.3585e-05
2.62785e-05
2.96587e-05
3.30308e-05
3.57342e-05
3.75367e-05
3.85867e-05
3.91399e-05
3.94048e-05
3.95178e-05
3.95582e-05
3.95673e-05
3.95646e-05
3.95583e-05
3.95518e-05
3.95459e-05
3.9541e-05
3.95371e-05
3.95341e-05
3.95319e-05
3.95305e-05
3.95297e-05
3.95296e-05
3.95302e-05
3.95314e-05
3.95334e-05
3.95362e-05
3.95398e-05
3.95445e-05
3.95503e-05
3.95575e-05
3.95664e-05
3.95774e-05
3.95909e-05
3.96074e-05
3.96279e-05
3.96532e-05
3.96848e-05
3.97242e-05
3.97739e-05
3.9837e-05