/*--------------------------------*- C++ -*----------------------------------*\
| =========                 |                                                 |
| \\      /  F ield         | OpenFOAM: The Open Source CFD Toolbox           |
|  \\    /   O peration     | Version:  2.4.0                                 |
|   \\  /    A nd           | Web:      www.OpenFOAM.org                      |
|    \\/     M anipulation  |                                                 |
\*---------------------------------------------------------------------------*/
FoamFile
{
    version     2.0;
    format      ascii;
    class       surfaceScalarField;
    location    "0.09";
    object      phi;
}
// * * * * * * * * * * * * * * * * * * * * * * * * * * * * * * * * * * * * * //

dimensions      [0 3 -1 0 0 0 0];

internalField   nonuniform List<scalar> 
11840
(
2.67549e-06
7.32451e-06
1.77917e-06
8.96316e-07
3.21817e-06
-1.43899e-06
4.91669e-06
-1.69853e-06
6.33847e-06
-1.42177e-06
7.1324e-06
-7.93936e-07
7.51867e-06
-3.86264e-07
7.75331e-06
-2.34639e-07
7.93752e-06
-1.84211e-07
8.09055e-06
-1.53034e-07
8.21519e-06
-1.24636e-07
8.31591e-06
-1.00722e-07
8.39846e-06
-8.25561e-08
8.46748e-06
-6.90109e-08
8.52602e-06
-5.85436e-08
8.5762e-06
-5.01762e-08
8.61956e-06
-4.33599e-08
8.65726e-06
-3.77087e-08
8.6902e-06
-3.2937e-08
8.71904e-06
-2.88357e-08
8.74429e-06
-2.52541e-08
8.76637e-06
-2.20781e-08
8.78559e-06
-1.92231e-08
8.80221e-06
-1.66205e-08
8.81643e-06
-1.42182e-08
8.82842e-06
-1.19866e-08
8.83829e-06
-9.87265e-09
8.84618e-06
-7.88588e-09
8.85216e-06
-5.98148e-09
8.85629e-06
-4.1312e-09
8.85856e-06
-2.27047e-09
8.8588e-06
-2.44194e-10
8.85708e-06
1.72028e-09
8.85362e-06
3.46678e-09
8.84844e-06
5.17505e-09
8.84155e-06
6.88848e-09
8.83295e-06
8.60583e-09
8.82258e-06
1.0365e-08
8.81042e-06
1.21595e-08
8.79642e-06
1.40016e-08
8.78052e-06
1.59019e-08
8.76264e-06
1.78742e-08
8.74271e-06
1.99311e-08
8.72062e-06
2.209e-08
8.69625e-06
2.43685e-08
8.66947e-06
2.6789e-08
8.64009e-06
2.93759e-08
8.60793e-06
3.21616e-08
8.57275e-06
3.51789e-08
8.53429e-06
3.84576e-08
8.49222e-06
4.20675e-08
8.44625e-06
4.59714e-08
8.39569e-06
5.05594e-08
8.34126e-06
5.44291e-08
8.27914e-06
6.21284e-08
8.22195e-06
5.7184e-08
8.1366e-06
8.53483e-08
8.14758e-06
-1.09809e-08
7.88839e-06
2.59198e-07
-5.0087e-07
4.92466e-06
1.23998e-05
3.58476e-06
2.23622e-06
4.16368e-06
-2.01791e-06
5.79052e-06
-3.32537e-06
7.32938e-06
-2.96063e-06
8.26308e-06
-1.72764e-06
8.70032e-06
-8.23501e-07
8.91477e-06
-4.49092e-07
9.06061e-06
-3.30045e-07
9.17856e-06
-2.70988e-07
9.27237e-06
-2.18446e-07
9.34507e-06
-1.73419e-07
9.40213e-06
-1.39618e-07
9.44814e-06
-1.15019e-07
9.48603e-06
-9.64321e-08
9.51771e-06
-8.18555e-08
9.54452e-06
-7.0175e-08
9.56744e-06
-6.06295e-08
9.58717e-06
-5.26655e-08
9.60423e-06
-4.58891e-08
9.61899e-06
-4.00174e-08
9.63175e-06
-3.48414e-08
9.64274e-06
-3.02058e-08
9.6521e-06
-2.59892e-08
9.65998e-06
-2.20959e-08
9.66646e-06
-1.84622e-08
9.67164e-06
-1.50562e-08
9.6756e-06
-1.18463e-08
9.67837e-06
-8.74507e-09
9.67995e-06
-5.71218e-09
9.68046e-06
-2.78005e-09
9.68008e-06
1.28658e-10
9.67882e-06
2.97988e-09
9.67652e-06
5.77047e-09
9.67313e-06
8.56737e-09
9.66863e-06
1.13823e-08
9.66307e-06
1.41683e-08
9.65642e-06
1.70183e-08
9.64866e-06
1.99189e-08
9.63978e-06
2.28845e-08
9.62975e-06
2.59323e-08
9.61854e-06
2.90813e-08
9.60612e-06
3.23503e-08
9.59245e-06
3.5763e-08
9.57747e-06
3.93448e-08
9.56113e-06
4.31272e-08
9.54336e-06
4.71451e-08
9.52408e-06
5.14402e-08
9.5032e-06
5.60611e-08
9.48061e-06
6.10475e-08
9.45618e-06
6.64968e-08
9.42982e-06
7.23315e-08
9.4012e-06
7.91772e-08
9.37087e-06
8.47665e-08
9.33656e-06
9.64398e-08
9.3055e-06
8.82387e-08
9.25615e-06
1.34697e-07
9.27192e-06
-2.67511e-08
9.1982e-06
3.3292e-07
-8.54691e-07
5.83001e-06
1.65698e-05
4.45144e-06
3.61478e-06
4.64158e-06
-2.20804e-06
6.09194e-06
-4.77573e-06
7.6107e-06
-4.47939e-06
8.59164e-06
-2.70858e-06
9.05733e-06
-1.28919e-06
9.26583e-06
-6.57597e-07
9.392e-06
-4.56216e-07
9.49017e-06
-3.69153e-07
9.56673e-06
-2.95007e-07
9.62423e-06
-2.30917e-07
9.66766e-06
-1.83055e-07
9.70141e-06
-1.48772e-07
9.7283e-06
-1.23319e-07
9.75012e-06
-1.0367e-07
9.76809e-06
-8.81478e-08
9.78308e-06
-7.56245e-08
9.79572e-06
-6.52996e-08
9.80643e-06
-5.66057e-08
9.81555e-06
-4.91376e-08
9.82332e-06
-4.26018e-08
9.82989e-06
-3.67829e-08
9.83542e-06
-3.15146e-08
9.83998e-06
-2.66629e-08
9.84367e-06
-2.21483e-08
9.84653e-06
-1.79178e-08
9.84863e-06
-1.39452e-08
9.85001e-06
-1.01215e-08
9.85067e-06
-6.37312e-09
9.85067e-06
-2.77707e-09
9.85003e-06
7.61665e-10
9.84877e-06
4.24425e-09
9.84685e-06
7.68584e-09
9.84425e-06
1.11717e-08
9.84099e-06
1.46396e-08
9.83705e-06
1.81126e-08
9.83242e-06
2.1643e-08
9.82711e-06
2.5232e-08
9.82109e-06
2.88995e-08
9.81436e-06
3.2665e-08
9.80689e-06
3.65502e-08
9.79866e-06
4.05798e-08
9.78965e-06
4.47804e-08
9.77981e-06
4.91804e-08
9.76912e-06
5.38178e-08
9.75753e-06
5.87307e-08
9.74501e-06
6.39669e-08
9.73149e-06
6.95786e-08
9.71693e-06
7.56074e-08
9.70127e-06
8.21531e-08
9.68448e-06
8.91201e-08
9.66652e-06
9.71397e-08
9.64752e-06
1.03768e-07
9.62752e-06
1.16439e-07
9.60785e-06
1.07915e-07
9.58714e-06
1.55405e-07
9.59264e-06
-3.22515e-08
9.59158e-06
3.3398e-07
-1.12641e-06
6.30776e-06
2.02621e-05
4.9431e-06
4.97944e-06
4.95097e-06
-2.21591e-06
6.24968e-06
-6.07445e-06
7.70928e-06
-5.93899e-06
8.69407e-06
-3.69337e-06
9.1735e-06
-1.76862e-06
9.38308e-06
-8.67181e-07
9.50167e-06
-5.74803e-07
9.59048e-06
-4.57959e-07
9.65856e-06
-3.63092e-07
9.70874e-06
-2.81096e-07
9.74578e-06
-2.20095e-07
9.77391e-06
-1.76899e-07
9.79586e-06
-1.45275e-07
9.81338e-06
-1.21186e-07
9.82761e-06
-1.02381e-07
9.83936e-06
-8.73756e-08
9.84919e-06
-7.51261e-08
9.85748e-06
-6.48976e-08
9.86452e-06
-5.61726e-08
9.87049e-06
-4.85773e-08
9.87555e-06
-4.18412e-08
9.87979e-06
-3.57575e-08
9.8833e-06
-3.0169e-08
9.88613e-06
-2.49756e-08
9.88831e-06
-2.01031e-08
9.8899e-06
-1.55342e-08
9.89093e-06
-1.11497e-08
9.89135e-06
-6.79207e-09
9.89114e-06
-2.5687e-09
9.89041e-06
1.48976e-09
9.88914e-06
5.51214e-09
9.88735e-06
9.47974e-09
9.88504e-06
1.34818e-08
9.8822e-06
1.74825e-08
9.87883e-06
2.14835e-08
9.87493e-06
2.55361e-08
9.87052e-06
2.9647e-08
9.86558e-06
3.38367e-08
9.86012e-06
3.81249e-08
9.85414e-06
4.25356e-08
9.84762e-06
4.70938e-08
9.84057e-06
5.183e-08
9.83298e-06
5.6776e-08
9.82482e-06
6.19721e-08
9.81609e-06
6.74623e-08
9.80676e-06
7.32994e-08
9.7968e-06
7.95412e-08
9.78617e-06
8.62334e-08
9.77485e-06
9.34772e-08
9.76278e-06
1.01185e-07
9.75002e-06
1.09898e-07
9.73641e-06
1.17379e-07
9.72307e-06
1.2978e-07
9.70794e-06
1.23049e-07
9.70043e-06
1.62916e-07
9.69787e-06
-2.9698e-08
9.73247e-06
2.99379e-07
-1.33008e-06
6.63884e-06
2.36232e-05
5.28142e-06
6.33685e-06
5.19544e-06
-2.12993e-06
6.36612e-06
-7.24513e-06
7.75616e-06
-7.32903e-06
8.72722e-06
-4.66443e-06
9.21353e-06
-2.25493e-06
9.42758e-06
-1.08123e-06
9.54484e-06
-6.92062e-07
9.62994e-06
-5.43061e-07
9.69435e-06
-4.275e-07
9.74144e-06
-3.2818e-07
9.77585e-06
-2.54506e-07
9.80168e-06
-2.02731e-07
9.82162e-06
-1.65218e-07
9.83737e-06
-1.3693e-07
9.85003e-06
-1.15049e-07
9.8604e-06
-9.77399e-08
9.86899e-06
-8.37197e-08
9.87619e-06
-7.20946e-08
9.88225e-06
-6.22358e-08
9.88737e-06
-5.36951e-08
9.89168e-06
-4.61476e-08
9.89527e-06
-3.93518e-08
9.89823e-06
-3.31227e-08
9.90059e-06
-2.73418e-08
9.90241e-06
-2.19213e-08
9.9037e-06
-1.68236e-08
9.90446e-06
-1.1912e-08
9.90468e-06
-7.01139e-09
9.90456e-06
-2.45258e-09
9.90398e-06
2.07603e-09
9.90289e-06
6.59762e-09
9.90135e-06
1.10189e-08
9.89936e-06
1.54723e-08
9.89693e-06
1.99152e-08
9.89405e-06
2.43594e-08
9.89074e-06
2.88508e-08
9.88699e-06
3.34002e-08
9.8828e-06
3.80265e-08
9.87817e-06
4.27511e-08
9.87311e-06
4.75969e-08
9.86761e-06
5.25907e-08
9.86168e-06
5.77623e-08
9.85531e-06
6.31458e-08
9.8485e-06
6.87815e-08
9.84125e-06
7.47152e-08
9.83355e-06
8.10024e-08
9.82538e-06
8.7702e-08
9.81676e-06
9.48602e-08
9.80766e-06
1.02576e-07
9.79807e-06
1.1077e-07
9.78809e-06
1.19882e-07
9.77752e-06
1.27946e-07
9.76774e-06
1.39562e-07
9.75594e-06
1.3485e-07
9.75402e-06
1.64833e-07
9.75108e-06
-2.67522e-08
9.79919e-06
2.51268e-07
-1.49304e-06
6.92263e-06
2.67006e-05
5.57365e-06
7.68584e-06
5.42313e-06
-1.97941e-06
6.47479e-06
-8.29679e-06
7.79002e-06
-8.64426e-06
8.7389e-06
-5.6133e-06
9.22822e-06
-2.74425e-06
9.44777e-06
-1.30078e-06
9.56636e-06
-8.10658e-07
9.65021e-06
-6.26906e-07
9.71291e-06
-4.90202e-07
9.75854e-06
-3.73814e-07
9.79174e-06
-2.87707e-07
9.81653e-06
-2.27515e-07
9.83555e-06
-1.84245e-07
9.8505e-06
-1.5188e-07
9.86249e-06
-1.27034e-07
9.87227e-06
-1.07518e-07
9.88036e-06
-9.18144e-08
9.88714e-06
-7.88681e-08
9.89284e-06
-6.7943e-08
9.89766e-06
-5.8516e-08
9.90173e-06
-5.0209e-08
9.90512e-06
-4.27451e-08
9.90791e-06
-3.59166e-08
9.91015e-06
-2.95834e-08
9.91188e-06
-2.36449e-08
9.9131e-06
-1.8045e-08
9.91384e-06
-1.2652e-08
9.91419e-06
-7.36348e-09
9.91402e-06
-2.27886e-09
9.91338e-06
2.71625e-09
9.91235e-06
7.62454e-09
9.91089e-06
1.24829e-08
9.90901e-06
1.73514e-08
9.90671e-06
2.221e-08
9.90401e-06
2.70657e-08
9.90089e-06
3.19618e-08
9.89738e-06
3.69103e-08
9.89348e-06
4.1929e-08
9.88919e-06
4.70402e-08
9.88452e-06
5.22667e-08
9.87948e-06
5.7634e-08
9.87407e-06
6.31728e-08
9.8683e-06
6.8917e-08
9.86217e-06
7.49071e-08
9.8557e-06
8.11898e-08
9.84888e-06
8.78218e-08
9.84172e-06
9.48612e-08
9.83423e-06
1.02354e-07
9.82641e-06
1.10394e-07
9.81827e-06
1.18908e-07
9.80992e-06
1.28229e-07
9.80121e-06
1.36663e-07
9.79351e-06
1.47263e-07
9.78404e-06
1.44312e-07
9.78495e-06
1.63922e-07
9.78337e-06
-2.51674e-08
9.83623e-06
1.98406e-07
-1.63286e-06
7.18805e-06
2.95126e-05
5.85413e-06
9.01976e-06
5.64855e-06
-1.77384e-06
6.5852e-06
-9.23344e-06
7.82324e-06
-9.8823e-06
8.74572e-06
-6.53578e-06
9.2357e-06
-3.23423e-06
9.46085e-06
-1.52593e-06
9.58194e-06
-9.31742e-07
9.66573e-06
-7.10698e-07
9.72771e-06
-5.52187e-07
9.77269e-06
-4.18793e-07
9.80533e-06
-3.20348e-07
9.8296e-06
-2.51776e-07
9.84812e-06
-2.0277e-07
9.86259e-06
-1.6635e-07
9.87412e-06
-1.38562e-07
9.88346e-06
-1.16861e-07
9.89114e-06
-9.9497e-08
9.89753e-06
-8.52551e-08
9.90288e-06
-7.32906e-08
9.90737e-06
-6.30055e-08
9.91113e-06
-5.39707e-08
9.91426e-06
-4.58729e-08
9.91682e-06
-3.84796e-08
9.91887e-06
-3.16317e-08
9.92044e-06
-2.52147e-08
9.92155e-06
-1.91558e-08
9.92223e-06
-1.33288e-08
9.92248e-06
-7.61896e-09
9.92233e-06
-2.12849e-09
9.92181e-06
3.23795e-09
9.92087e-06
8.55982e-09
9.91955e-06
1.38046e-08
9.91785e-06
1.90507e-08
9.91578e-06
2.42845e-08
9.91333e-06
2.95135e-08
9.91052e-06
3.47778e-08
9.90733e-06
4.00908e-08
9.90379e-06
4.54707e-08
9.8999e-06
5.09383e-08
9.89565e-06
5.65165e-08
9.89105e-06
6.22309e-08
9.88611e-06
6.81111e-08
9.88084e-06
7.41903e-08
9.87524e-06
8.05082e-08
9.86931e-06
8.71108e-08
9.86308e-06
9.40547e-08
9.85655e-06
1.01395e-07
9.84973e-06
1.09173e-07
9.84265e-06
1.17477e-07
9.83532e-06
1.26232e-07
9.82788e-06
1.35667e-07
9.82021e-06
1.44334e-07
9.81365e-06
1.53821e-07
9.80569e-06
1.52275e-07
9.80794e-06
1.61674e-07
9.80811e-06
-2.53426e-08
9.86117e-06
1.45349e-07
-1.75681e-06
7.4398e-06
3.20728e-05
6.12889e-06
1.03307e-05
5.8736e-06
-1.51854e-06
6.69923e-06
-1.00591e-05
7.85965e-06
-1.10427e-05
8.75335e-06
-7.42948e-06
9.24213e-06
-3.72301e-06
9.47224e-06
-1.75604e-06
9.59591e-06
-1.05542e-06
9.6799e-06
-7.94691e-07
9.74134e-06
-6.13625e-07
9.78575e-06
-4.63201e-07
9.81787e-06
-3.5247e-07
9.84163e-06
-2.75536e-07
9.85967e-06
-2.20811e-07
9.87368e-06
-1.80362e-07
9.88479e-06
-1.49663e-07
9.89374e-06
-1.25814e-07
9.90107e-06
-1.06825e-07
9.90713e-06
-9.13233e-08
9.9122e-06
-7.83553e-08
9.91644e-06
-6.72472e-08
9.91999e-06
-5.75189e-08
9.92294e-06
-4.88192e-08
9.92535e-06
-4.08923e-08
9.92728e-06
-3.35596e-08
9.92875e-06
-2.66922e-08
9.9298e-06
-2.02032e-08
9.93044e-06
-1.39675e-08
9.9307e-06
-7.87893e-09
9.93057e-06
-2.00307e-09
9.93007e-06
3.74019e-09
9.92921e-06
9.42322e-09
9.92798e-06
1.50279e-08
9.92641e-06
2.06251e-08
9.92449e-06
2.62058e-08
9.92222e-06
3.17792e-08
9.91962e-06
3.73821e-08
9.91668e-06
4.3028e-08
9.91342e-06
4.87365e-08
9.90983e-06
5.45271e-08
9.90592e-06
6.04227e-08
9.9017e-06
6.64484e-08
9.89718e-06
7.26333e-08
9.89236e-06
7.90104e-08
9.88725e-06
8.56186e-08
9.88186e-06
9.25032e-08
9.87619e-06
9.97214e-08
9.87026e-06
1.07325e-07
9.86408e-06
1.15351e-07
9.85768e-06
1.23879e-07
9.85108e-06
1.32835e-07
9.84441e-06
1.42341e-07
9.83757e-06
1.51171e-07
9.83184e-06
1.59547e-07
9.82502e-06
1.59098e-07
9.82794e-06
1.58756e-07
9.82952e-06
-2.69217e-08
9.88095e-06
9.39179e-08
-1.86777e-06
7.67745e-06
3.43953e-05
6.39658e-06
1.16115e-05
6.09684e-06
-1.2188e-06
6.81659e-06
-1.07788e-05
7.90011e-06
-1.21262e-05
8.76346e-06
-8.29283e-06
9.24936e-06
-4.20891e-06
9.48354e-06
-1.99022e-06
9.60956e-06
-1.18144e-06
9.69377e-06
-8.78901e-07
9.75471e-06
-6.74569e-07
9.79859e-06
-5.07082e-07
9.83024e-06
-3.84117e-07
9.85355e-06
-2.98842e-07
9.87115e-06
-2.38412e-07
9.88474e-06
-1.93954e-07
9.89544e-06
-1.60366e-07
9.90402e-06
-1.34391e-07
9.911e-06
-1.13803e-07
9.91674e-06
-9.70676e-08
9.92151e-06
-8.31227e-08
9.92548e-06
-7.12196e-08
9.92879e-06
-6.08255e-08
9.93152e-06
-5.15544e-08
9.93376e-06
-4.31241e-08
9.93553e-06
-3.53375e-08
9.93689e-06
-2.80519e-08
9.93786e-06
-2.11659e-08
9.93844e-06
-1.45557e-08
9.93868e-06
-8.11674e-09
9.93857e-06
-1.88999e-09
9.93812e-06
4.19065e-09
9.93734e-06
1.02047e-08
9.93623e-06
1.6137e-08
9.9348e-06
2.20522e-08
9.93306e-06
2.79482e-08
9.931e-06
3.38344e-08
9.92864e-06
3.97445e-08
9.92597e-06
4.56943e-08
9.92301e-06
5.17018e-08
9.91975e-06
5.77869e-08
9.9162e-06
6.39721e-08
9.91237e-06
7.02819e-08
9.90826e-06
7.67447e-08
9.90387e-06
8.33928e-08
9.89923e-06
9.02644e-08
9.89433e-06
9.74039e-08
9.88918e-06
1.04869e-07
9.8838e-06
1.12707e-07
9.8782e-06
1.2095e-07
9.8724e-06
1.29671e-07
9.86645e-06
1.38794e-07
9.86045e-06
1.4834e-07
9.85434e-06
1.57278e-07
9.84931e-06
1.64573e-07
9.84345e-06
1.6496e-07
9.84677e-06
1.55435e-07
9.84945e-06
-2.96017e-08
9.89849e-06
4.48812e-08
-1.9669e-06
7.90056e-06
3.64948e-05
6.6553e-06
1.28568e-05
6.31676e-06
-8.80263e-07
6.93664e-06
-1.13987e-05
7.94466e-06
-1.31343e-05
8.77644e-06
-9.12462e-06
9.25789e-06
-4.69036e-06
9.49518e-06
-2.22751e-06
9.6232e-06
-1.30946e-06
9.70754e-06
-9.63243e-07
9.76796e-06
-7.34989e-07
9.81128e-06
-5.50407e-07
9.84243e-06
-4.15259e-07
9.86525e-06
-3.2167e-07
9.8824e-06
-2.55553e-07
9.89555e-06
-2.07108e-07
9.90584e-06
-1.70658e-07
9.91404e-06
-1.42586e-07
9.92066e-06
-1.20428e-07
9.92608e-06
-1.02489e-07
9.93056e-06
-8.75983e-08
9.93427e-06
-7.49312e-08
9.93735e-06
-6.3903e-08
9.93988e-06
-5.40911e-08
9.94195e-06
-4.51887e-08
9.94359e-06
-3.69788e-08
9.94484e-06
-2.93049e-08
9.94573e-06
-2.20537e-08
9.94627e-06
-1.50989e-08
9.9465e-06
-8.33827e-09
9.9464e-06
-1.79564e-09
9.94599e-06
4.59814e-09
9.94529e-06
1.09108e-08
9.94428e-06
1.71402e-08
9.94299e-06
2.33443e-08
9.94142e-06
2.95255e-08
9.93956e-06
3.5694e-08
9.93742e-06
4.18817e-08
9.93501e-06
4.81049e-08
9.93233e-06
5.43815e-08
9.92938e-06
6.07313e-08
9.92618e-06
6.71761e-08
9.92272e-06
7.37403e-08
9.91901e-06
8.04516e-08
9.91507e-06
8.73418e-08
9.91088e-06
9.4448e-08
9.90647e-06
1.01814e-07
9.90184e-06
1.09497e-07
9.89701e-06
1.17542e-07
9.89198e-06
1.25975e-07
9.88679e-06
1.34862e-07
9.88147e-06
1.44122e-07
9.87612e-06
1.53685e-07
9.87071e-06
1.62687e-07
9.86634e-06
1.68942e-07
9.86137e-06
1.69937e-07
9.86498e-06
1.51818e-07
9.86851e-06
-3.31248e-08
9.91491e-06
-1.52056e-09
-2.05478e-06
8.10916e-06
3.83856e-05
6.9039e-06
1.40621e-05
6.53234e-06
-5.08706e-07
7.05883e-06
-1.19252e-05
7.99309e-06
-1.40685e-05
8.7923e-06
-9.92383e-06
9.26784e-06
-5.1659e-06
9.50729e-06
-2.46696e-06
9.6369e-06
-1.43906e-06
9.72125e-06
-1.0476e-06
9.7811e-06
-7.94837e-07
9.82383e-06
-5.93136e-07
9.85444e-06
-4.4587e-07
9.87677e-06
-3.44002e-07
9.89344e-06
-2.72226e-07
9.90616e-06
-2.19822e-07
9.91604e-06
-1.8054e-07
9.92386e-06
-1.50401e-07
9.93013e-06
-1.26704e-07
9.93524e-06
-1.07592e-07
9.93942e-06
-9.1786e-08
9.94288e-06
-7.83854e-08
9.94573e-06
-6.67533e-08
9.94807e-06
-5.64312e-08
9.94997e-06
-4.70865e-08
9.95147e-06
-3.84836e-08
9.95262e-06
-3.04516e-08
9.95343e-06
-2.28654e-08
9.95393e-06
-1.5597e-08
9.95413e-06
-8.54468e-09
9.95405e-06
-1.71341e-09
9.95369e-06
4.96009e-09
9.95306e-06
1.15423e-08
9.95216e-06
1.80389e-08
9.951e-06
2.45021e-08
9.94959e-06
3.09387e-08
9.94792e-06
3.73601e-08
9.94601e-06
4.37959e-08
9.94385e-06
5.02633e-08
9.94145e-06
5.678e-08
9.93882e-06
6.33655e-08
9.93595e-06
7.00414e-08
9.93286e-06
7.68314e-08
9.92955e-06
8.37628e-08
9.92602e-06
9.08668e-08
9.92229e-06
9.81797e-08
9.91836e-06
1.05744e-07
9.91424e-06
1.13617e-07
9.90994e-06
1.21841e-07
9.90548e-06
1.30438e-07
9.90088e-06
1.39462e-07
9.89617e-06
1.48832e-07
9.89146e-06
1.58389e-07
9.88673e-06
1.67417e-07
9.883e-06
1.72676e-07
9.87886e-06
1.74077e-07
9.88273e-06
1.47952e-07
9.88687e-06
-3.72683e-08
9.93063e-06
-4.5279e-08
-2.13179e-06
8.30369e-06
4.00819e-05
7.14195e-06
1.52238e-05
6.743e-06
-1.09755e-07
7.18266e-06
-1.23648e-05
8.04513e-06
-1.4931e-05
8.81094e-06
-1.06896e-05
9.27919e-06
-5.63416e-06
9.51988e-06
-2.70765e-06
9.65069e-06
-1.56986e-06
9.73492e-06
-1.13183e-06
9.79414e-06
-8.54056e-07
9.83623e-06
-6.35232e-07
9.86628e-06
-4.7592e-07
9.8881e-06
-3.65821e-07
9.9043e-06
-2.88421e-07
9.91657e-06
-2.32092e-07
9.92604e-06
-1.90011e-07
9.93347e-06
-1.57838e-07
9.9394e-06
-1.32633e-07
9.94419e-06
-1.1238e-07
9.94809e-06
-9.56888e-08
9.95129e-06
-8.15851e-08
9.95392e-06
-6.93796e-08
9.95606e-06
-5.85772e-08
9.9578e-06
-4.88202e-08
9.95917e-06
-3.9854e-08
9.96021e-06
-3.14937e-08
9.96095e-06
-2.36027e-08
9.9614e-06
-1.60504e-08
9.96159e-06
-8.73484e-09
9.96152e-06
-1.64528e-09
9.9612e-06
5.27824e-09
9.96065e-06
1.21011e-08
9.95985e-06
1.88351e-08
9.95882e-06
2.55284e-08
9.95757e-06
3.21915e-08
9.95609e-06
3.88366e-08
9.9544e-06
4.54919e-08
9.95249e-06
5.21747e-08
9.95036e-06
5.8903e-08
9.94803e-06
6.56959e-08
9.9455e-06
7.25745e-08
9.94277e-06
7.95624e-08
9.93985e-06
8.66861e-08
9.93674e-06
9.39763e-08
9.93345e-06
1.01468e-07
9.92999e-06
1.09204e-07
9.92637e-06
1.1724e-07
9.92259e-06
1.25616e-07
9.91868e-06
1.34349e-07
9.91466e-06
1.43484e-07
9.91055e-06
1.52936e-07
9.90648e-06
1.62466e-07
9.90241e-06
1.71483e-07
9.8993e-06
1.7579e-07
9.89595e-06
1.77419e-07
9.90003e-06
1.4387e-07
9.90463e-06
-4.18598e-08
9.94575e-06
-8.6403e-08
-2.19827e-06
8.48479e-06
4.15971e-05
7.36948e-06
1.63391e-05
6.94843e-06
3.11297e-07
7.3077e-06
-1.27241e-05
8.1005e-06
-1.57238e-05
8.83225e-06
-1.14214e-05
9.29194e-06
-6.09385e-06
9.53298e-06
-2.94869e-06
9.66457e-06
-1.70145e-06
9.74854e-06
-1.2158e-06
9.80707e-06
-9.12587e-07
9.84849e-06
-6.76652e-07
9.87795e-06
-5.05381e-07
9.89924e-06
-3.87109e-07
9.91495e-06
-3.04127e-07
9.92677e-06
-2.43913e-07
9.93583e-06
-1.99068e-07
9.94289e-06
-1.64896e-07
9.94847e-06
-1.38217e-07
9.95294e-06
-1.16854e-07
9.95656e-06
-9.93095e-08
9.95951e-06
-8.45335e-08
9.96192e-06
-7.17848e-08
9.96387e-06
-6.05321e-08
9.96544e-06
-5.03923e-08
9.96668e-06
-4.10921e-08
9.96762e-06
-3.24328e-08
9.96829e-06
-2.42665e-08
9.9687e-06
-1.64597e-08
9.96887e-06
-8.90909e-09
9.96881e-06
-1.59064e-09
9.96854e-06
5.55382e-09
9.96805e-06
1.25886e-08
9.96736e-06
1.95311e-08
9.96646e-06
2.64262e-08
9.96536e-06
3.32872e-08
9.96407e-06
4.01275e-08
9.96259e-06
4.69739e-08
9.96092e-06
5.38442e-08
9.95907e-06
6.07561e-08
9.95703e-06
6.77285e-08
9.95483e-06
7.47823e-08
9.95245e-06
8.19405e-08
9.9499e-06
8.92293e-08
9.9472e-06
9.66786e-08
9.94435e-06
1.04323e-07
9.94135e-06
1.12204e-07
9.93821e-06
1.20374e-07
9.93495e-06
1.28876e-07
9.93158e-06
1.37719e-07
9.92813e-06
1.46939e-07
9.92462e-06
1.56447e-07
9.92116e-06
1.65929e-07
9.91774e-06
1.74902e-07
9.91523e-06
1.78302e-07
9.91264e-06
1.80001e-07
9.91691e-06
1.396e-07
9.92182e-06
-4.67673e-08
9.96029e-06
-1.24868e-07
-2.2546e-06
8.65326e-06
4.29439e-05
7.58671e-06
1.74056e-05
7.14844e-06
7.49572e-07
7.43355e-06
-1.30092e-05
8.15891e-06
-1.64491e-05
8.85609e-06
-1.21186e-05
9.30603e-06
-6.54379e-06
9.54658e-06
-3.18924e-06
9.67856e-06
-1.83344e-06
9.76213e-06
-1.29936e-06
9.81991e-06
-9.70367e-07
9.86061e-06
-7.17356e-07
9.88945e-06
-5.34224e-07
9.91019e-06
-4.07849e-07
9.9254e-06
-3.19336e-07
9.93677e-06
-2.55279e-07
9.94541e-06
-2.07712e-07
9.95209e-06
-1.71577e-07
9.95733e-06
-1.43457e-07
9.9615e-06
-1.21018e-07
9.96484e-06
-1.02651e-07
9.96754e-06
-8.72338e-08
9.96973e-06
-7.3972e-08
9.97149e-06
-6.22987e-08
9.97291e-06
-5.18054e-08
9.97401e-06
-4.22002e-08
9.97485e-06
-3.32705e-08
9.97544e-06
-2.48582e-08
9.97581e-06
-1.68256e-08
9.97597e-06
-9.06769e-09
9.97593e-06
-1.549e-09
9.97569e-06
5.78785e-09
9.97527e-06
1.30066e-08
9.97468e-06
2.01291e-08
9.9739e-06
2.7198e-08
9.97296e-06
3.42292e-08
9.97185e-06
4.1237e-08
9.97058e-06
4.82468e-08
9.96915e-06
5.52769e-08
9.96756e-06
6.23451e-08
9.96582e-06
6.94698e-08
9.96393e-06
7.66717e-08
9.96189e-06
8.39734e-08
9.95972e-06
9.14004e-08
9.95742e-06
9.89822e-08
9.95499e-06
1.06753e-07
9.95244e-06
1.14751e-07
9.94978e-06
1.23031e-07
9.94703e-06
1.31632e-07
9.94419e-06
1.4056e-07
9.94129e-06
1.49839e-07
9.93836e-06
1.59377e-07
9.9355e-06
1.6879e-07
9.93271e-06
1.77688e-07
9.93079e-06
1.80226e-07
9.92893e-06
1.8186e-07
9.93336e-06
1.35167e-07
9.93847e-06
-5.18706e-08
9.97426e-06
-1.60662e-07
-2.30112e-06
8.80993e-06
4.41339e-05
7.79397e-06
1.84216e-05
7.34288e-06
1.20066e-06
7.55983e-06
-1.32262e-05
8.22008e-06
-1.71094e-05
8.88234e-06
-1.27808e-05
9.32144e-06
-6.98289e-06
9.56069e-06
-3.42848e-06
9.69267e-06
-1.96542e-06
9.77567e-06
-1.38236e-06
9.83264e-06
-1.02733e-06
9.87258e-06
-7.57301e-07
9.90078e-06
-5.6242e-07
9.92095e-06
-4.28022e-07
9.93565e-06
-3.34037e-07
9.94656e-06
-2.66187e-07
9.95479e-06
-2.1594e-07
9.96109e-06
-1.7788e-07
9.96599e-06
-1.48356e-07
9.96985e-06
-1.24874e-07
9.97291e-06
-1.05718e-07
9.97537e-06
-8.96894e-08
9.97734e-06
-7.59446e-08
9.97892e-06
-6.388e-08
9.98018e-06
-5.30622e-08
9.98116e-06
-4.31805e-08
9.9819e-06
-3.40089e-08
9.98242e-06
-2.53788e-08
9.98274e-06
-1.71486e-08
9.98288e-06
-9.21079e-09
9.98285e-06
-1.51989e-09
9.98266e-06
5.98148e-09
9.98231e-06
1.33567e-08
9.98181e-06
2.06316e-08
9.98116e-06
2.78471e-08
9.98037e-06
3.50211e-08
9.97944e-06
4.2169e-08
9.97837e-06
4.93152e-08
9.97717e-06
5.64784e-08
9.97583e-06
6.36759e-08
9.97438e-06
7.09263e-08
9.9728e-06
7.82498e-08
9.9711e-06
8.56686e-08
9.9693e-06
9.32077e-08
9.96738e-06
1.00896e-07
9.96537e-06
1.08766e-07
9.96326e-06
1.16857e-07
9.96107e-06
1.25221e-07
9.95881e-06
1.33894e-07
9.95649e-06
1.42881e-07
9.95413e-06
1.52194e-07
9.95177e-06
1.61739e-07
9.9495e-06
1.71064e-07
9.94733e-06
1.79858e-07
9.94598e-06
1.81578e-07
9.94481e-06
1.8303e-07
9.94938e-06
1.30598e-07
9.95457e-06
-5.70614e-08
9.98769e-06
-1.93784e-07
-2.33818e-06
8.95563e-06
4.51783e-05
7.99165e-06
1.93856e-05
7.53167e-06
1.66065e-06
7.6862e-06
-1.33807e-05
8.28372e-06
-1.77069e-05
8.91084e-06
-1.3408e-05
9.33813e-06
-7.41018e-06
9.5753e-06
-3.66565e-06
9.7069e-06
-2.09703e-06
9.78919e-06
-1.46465e-06
9.84526e-06
-1.0834e-06
9.8844e-06
-7.96444e-07
9.91192e-06
-5.8994e-07
9.93151e-06
-4.47611e-07
9.9457e-06
-3.48221e-07
9.95614e-06
-2.76631e-07
9.96395e-06
-2.23751e-07
9.96988e-06
-1.83808e-07
9.97444e-06
-1.52917e-07
9.97799e-06
-1.28426e-07
9.98078e-06
-1.08512e-07
9.983e-06
-9.19037e-08
9.98476e-06
-7.77058e-08
9.98616e-06
-6.52792e-08
9.98726e-06
-5.41654e-08
9.98812e-06
-4.40353e-08
9.98876e-06
-3.46495e-08
9.98921e-06
-2.58297e-08
9.98949e-06
-1.74295e-08
9.98962e-06
-9.33865e-09
9.9896e-06
-1.50275e-09
9.98945e-06
6.13575e-09
9.98916e-06
1.36406e-08
9.98875e-06
2.10408e-08
9.98822e-06
2.83761e-08
9.98758e-06
3.56664e-08
9.98682e-06
4.29278e-08
9.98595e-06
5.01841e-08
9.98498e-06
5.74538e-08
9.9839e-06
6.47546e-08
9.98272e-06
7.21046e-08
9.98144e-06
7.95238e-08
9.98008e-06
8.70338e-08
9.97863e-06
9.46593e-08
9.9771e-06
1.02428e-07
9.97549e-06
1.10373e-07
9.97381e-06
1.18532e-07
9.97208e-06
1.26953e-07
9.9703e-06
1.35675e-07
9.96849e-06
1.44696e-07
9.96666e-06
1.54019e-07
9.96486e-06
1.63545e-07
9.96316e-06
1.72763e-07
9.96159e-06
1.81429e-07
9.96079e-06
1.82376e-07
9.96027e-06
1.83548e-07
9.96495e-06
1.25917e-07
9.97013e-06
-6.2242e-08
1.00006e-05
-2.24236e-07
-2.36612e-06
9.09113e-06
4.60872e-05
8.1802e-06
2.02965e-05
7.71481e-06
2.12603e-06
7.81232e-06
-1.34782e-05
8.34956e-06
-1.82441e-05
8.94148e-06
-1.39999e-05
9.35604e-06
-7.82475e-06
9.5904e-06
-3.90001e-06
9.72125e-06
-2.22787e-06
9.80267e-06
-1.54607e-06
9.85778e-06
-1.13851e-06
9.89608e-06
-8.3474e-07
9.92289e-06
-6.16755e-07
9.94188e-06
-4.66599e-07
9.95554e-06
-3.61877e-07
9.96551e-06
-2.86608e-07
9.9729e-06
-2.31143e-07
9.97846e-06
-1.8936e-07
9.98268e-06
-1.5714e-07
9.98593e-06
-1.31676e-07
9.98846e-06
-1.11037e-07
9.99043e-06
-9.38802e-08
9.99199e-06
-7.92589e-08
9.99321e-06
-6.64993e-08
9.99416e-06
-5.51176e-08
9.99489e-06
-4.47669e-08
9.99543e-06
-3.51944e-08
9.99582e-06
-2.62121e-08
9.99606e-06
-1.76689e-08
9.99617e-06
-9.45136e-09
9.99616e-06
-1.4972e-09
9.99605e-06
6.2518e-09
9.99583e-06
1.386e-08
9.99551e-06
2.13591e-08
9.9951e-06
2.87883e-08
9.9946e-06
3.61687e-08
9.99401e-06
4.35177e-08
9.99333e-06
5.08581e-08
9.99258e-06
5.82088e-08
9.99174e-06
6.55872e-08
9.99084e-06
7.30114e-08
9.98986e-06
8.05009e-08
9.98882e-06
8.8077e-08
9.98771e-06
9.57639e-08
9.98655e-06
1.03589e-07
9.98534e-06
1.11584e-07
9.98409e-06
1.19785e-07
9.9828e-06
1.28239e-07
9.98149e-06
1.36984e-07
9.98017e-06
1.46015e-07
9.97887e-06
1.55324e-07
9.9776e-06
1.64809e-07
9.97647e-06
1.73902e-07
9.97548e-06
1.82415e-07
9.97522e-06
1.82636e-07
9.97532e-06
1.83448e-07
9.98009e-06
1.21149e-07
9.98517e-06
-6.7325e-08
1.0013e-05
-2.52029e-07
-2.38526e-06
9.21718e-06
4.687e-05
8.36e-06
2.11537e-05
7.89233e-06
2.5937e-06
7.9379e-06
-1.35238e-05
8.41733e-06
-1.87236e-05
8.97409e-06
-1.45566e-05
9.37513e-06
-8.22579e-06
9.606e-06
-4.13087e-06
9.73572e-06
-2.35759e-06
9.81611e-06
-1.62646e-06
9.87019e-06
-1.19259e-06
9.9076e-06
-8.72146e-07
9.93368e-06
-6.42837e-07
9.95205e-06
-4.84968e-07
9.96517e-06
-3.74997e-07
9.97467e-06
-2.96112e-07
9.98164e-06
-2.38117e-07
9.98682e-06
-1.94539e-07
9.99071e-06
-1.6103e-07
9.99366e-06
-1.34627e-07
9.99592e-06
-1.13297e-07
9.99767e-06
-9.56226e-08
9.99902e-06
-8.06077e-08
1.00001e-05
-6.75435e-08
1.00009e-05
-5.59219e-08
1.00015e-05
-4.53777e-08
1.00019e-05
-3.56454e-08
1.00022e-05
-2.65274e-08
1.00024e-05
-1.78675e-08
1.00025e-05
-9.54913e-09
1.00025e-05
-1.50277e-09
1.00025e-05
6.33075e-09
1.00023e-05
1.40166e-08
1.00021e-05
2.15889e-08
1.00018e-05
2.90864e-08
1.00014e-05
3.65318e-08
1.0001e-05
4.3943e-08
1.00005e-05
5.13424e-08
9.99997e-06
5.87489e-08
9.99937e-06
6.618e-08
9.99873e-06
7.36535e-08
9.99804e-06
8.11886e-08
9.99731e-06
8.88063e-08
9.99655e-06
9.653e-08
9.99575e-06
1.04387e-07
9.99493e-06
1.12407e-07
9.99409e-06
1.20626e-07
9.99324e-06
1.29089e-07
9.99239e-06
1.37834e-07
9.99155e-06
1.46851e-07
9.99075e-06
1.56123e-07
9.99002e-06
1.65544e-07
9.98942e-06
1.74496e-07
9.989e-06
1.82835e-07
9.98926e-06
1.82374e-07
9.98995e-06
1.82763e-07
9.99478e-06
1.16318e-07
9.99969e-06
-7.22321e-08
1.00248e-05
-2.77177e-07
-2.39593e-06
9.33444e-06
4.75356e-05
8.53139e-06
2.19568e-05
8.06423e-06
3.06086e-06
8.06266e-06
-1.35222e-05
8.48679e-06
-1.91477e-05
9.00855e-06
-1.50784e-05
9.39535e-06
-8.61259e-06
9.62207e-06
-4.3576e-06
9.75032e-06
-2.48583e-06
9.82952e-06
-1.70567e-06
9.88249e-06
-1.24556e-06
9.91896e-06
-9.08617e-07
9.94428e-06
-6.68156e-07
9.96201e-06
-5.02701e-07
9.97459e-06
-3.87572e-07
9.98361e-06
-3.05141e-07
9.99017e-06
-2.44671e-07
9.99498e-06
-1.99345e-07
9.99853e-06
-1.64588e-07
1.00012e-05
-1.37284e-07
1.00032e-05
-1.15295e-07
1.00047e-05
-9.71345e-08
1.00058e-05
-8.17555e-08
1.00067e-05
-6.84151e-08
1.00074e-05
-5.6581e-08
1.00079e-05
-4.58702e-08
1.00082e-05
-3.60044e-08
1.00085e-05
-2.67768e-08
1.00086e-05
-1.80261e-08
1.00087e-05
-9.63206e-09
1.00087e-05
-1.51907e-09
1.00087e-05
6.37383e-09
1.00086e-05
1.41123e-08
1.00085e-05
2.17327e-08
1.00083e-05
2.92738e-08
1.0008e-05
3.67594e-08
1.00078e-05
4.4208e-08
1.00075e-05
5.16418e-08
1.00071e-05
5.90798e-08
1.00068e-05
6.65392e-08
1.00064e-05
7.40378e-08
1.0006e-05
8.15944e-08
1.00056e-05
8.92296e-08
1.00051e-05
9.69663e-08
1.00047e-05
1.04831e-07
1.00042e-05
1.12853e-07
1.00038e-05
1.21067e-07
1.00034e-05
1.29516e-07
1.0003e-05
1.38236e-07
1.00026e-05
1.47216e-07
1.00023e-05
1.56428e-07
1.00021e-05
1.65764e-07
1.0002e-05
1.74558e-07
1.00022e-05
1.82704e-07
1.00029e-05
1.81609e-07
1.00042e-05
1.81526e-07
1.0009e-05
1.11445e-07
1.00137e-05
-7.6894e-08
1.00362e-05
-2.99703e-07
-2.39844e-06
9.44354e-06
4.8092e-05
8.69469e-06
2.27056e-05
8.23055e-06
3.52499e-06
8.18635e-06
-1.3478e-05
8.55767e-06
-1.9519e-05
9.04471e-06
-1.55654e-05
9.41664e-06
-8.98451e-06
9.63861e-06
-4.57957e-06
9.76503e-06
-2.61225e-06
9.84289e-06
-1.78353e-06
9.89467e-06
-1.29734e-06
9.93017e-06
-9.44108e-07
9.95469e-06
-6.92686e-07
9.97177e-06
-5.19781e-07
9.98379e-06
-3.99592e-07
9.99234e-06
-3.13689e-07
9.99848e-06
-2.50805e-07
1.00029e-05
-2.0378e-07
1.00061e-05
-1.67817e-07
1.00085e-05
-1.39649e-07
1.00102e-05
-1.17036e-07
1.00115e-05
-9.84197e-08
1.00125e-05
-8.2706e-08
1.00132e-05
-6.91176e-08
1.00137e-05
-5.70979e-08
1.00141e-05
-4.62468e-08
1.00143e-05
-3.62733e-08
1.00145e-05
-2.69618e-08
1.00147e-05
-1.81454e-08
1.00147e-05
-9.70036e-09
1.00147e-05
-1.54557e-09
1.00147e-05
6.38213e-09
1.00147e-05
1.41487e-08
1.00146e-05
2.1793e-08
1.00146e-05
2.93534e-08
1.00145e-05
3.68551e-08
1.00144e-05
4.43172e-08
1.00142e-05
5.17616e-08
1.00141e-05
5.92072e-08
1.0014e-05
6.66713e-08
1.00138e-05
7.41714e-08
1.00137e-05
8.1726e-08
1.00136e-05
8.93552e-08
1.00135e-05
9.70817e-08
1.00134e-05
1.04931e-07
1.00133e-05
1.12932e-07
1.00132e-05
1.21117e-07
1.00132e-05
1.29529e-07
1.00133e-05
1.38201e-07
1.00134e-05
1.47122e-07
1.00135e-05
1.56253e-07
1.00138e-05
1.65482e-07
1.00143e-05
1.74105e-07
1.00149e-05
1.82039e-07
1.00162e-05
1.80357e-07
1.00179e-05
1.79769e-07
1.00228e-05
1.06552e-07
1.00272e-05
-8.12494e-08
1.00471e-05
-3.19633e-07
-2.39311e-06
9.54507e-06
4.85469e-05
8.8502e-06
2.34005e-05
8.39135e-06
3.98384e-06
8.30874e-06
-1.33954e-05
8.62975e-06
-1.984e-05
9.08244e-06
-1.60181e-05
9.43894e-06
-9.34101e-06
9.6556e-06
-4.79623e-06
9.77986e-06