/*--------------------------------*- C++ -*----------------------------------*\
| =========                 |                                                 |
| \\      /  F ield         | OpenFOAM: The Open Source CFD Toolbox           |
|  \\    /   O peration     | Version:  2.4.0                                 |
|   \\  /    A nd           | Web:      www.OpenFOAM.org                      |
|    \\/     M anipulation  |                                                 |
\*---------------------------------------------------------------------------*/
FoamFile
{
    version     2.0;
    format      ascii;
    class       volScalarField;
    location    "6.67";
    object      epsilon;
}
// * * * * * * * * * * * * * * * * * * * * * * * * * * * * * * * * * * * * * //

dimensions      [0 2 -3 0 0 0 0];

internalField   nonuniform List<scalar> 
6000
(
54.173
1.09758
0.0202882
0.134487
0.0725471
0.0863286
0.0616048
0.0575567
0.046094
0.0419017
0.0364391
0.0341193
0.0320282
0.0316058
0.031772
0.0330298
0.0349799
0.0378351
0.0414703
0.0460032
0.0514167
0.0577788
0.0650879
0.0733517
0.0825206
0.0925229
0.103237
0.114488
0.126027
0.137526
0.148573
0.15868
0.167286
0.173765
0.177469
0.177789
0.174222
0.166395
0.154279
0.138124
0.118906
0.0979292
0.0774063
0.0644159
0.100996
0.155814
0.232501
0.345243
0.49188
0.710461
0.96643
1.38625
1.79564
2.65484
3.22055
5.23549
5.67974
11.3826
10.3124
29.0661
17.7229
0.975464
0.0253677
0.0742215
0.0418223
0.0473863
0.0343724
0.0316202
0.0254842
0.0229924
0.0200124
0.0186226
0.0174169
0.0170533
0.0170093
0.0175001
0.0183284
0.0195745
0.0211696
0.0231512
0.0254992
0.0282298
0.0313312
0.0347966
0.0385987
0.0427046
0.0470659
0.0516185
0.0562742
0.0609207
0.0654199
0.069609
0.0733012
0.0762793
0.0783249
0.0792119
0.0787369
0.076718
0.0730638
0.0677523
0.0610045
0.053169
0.0450447
0.0402391
0.0583294
0.0838099
0.117576
0.164631
0.223796
0.308305
0.406433
0.560434
0.715062
1.01756
1.24004
1.92218
2.15729
4.01294
3.92548
9.78167
7.13598
0.711152
0.0303061
0.0435431
0.0252887
0.0273075
0.0200743
0.0182011
0.0147561
0.0132313
0.0115413
0.0107003
0.0100011
0.0097545
0.00969752
0.00992549
0.0103382
0.0109677
0.0117775
0.0127808
0.0139654
0.0153354
0.0168834
0.0186048
0.0204868
0.0225157
0.024672
0.026931
0.029259
0.0316134
0.0339419
0.0361827
0.0382627
0.040095
0.0415926
0.0426504
0.0431675
0.0430401
0.042187
0.0405422
0.0381347
0.0350562
0.0316504
0.030063
0.0405994
0.0547532
0.0726052
0.0961166
0.124574
0.163132
0.207271
0.272787
0.340298
0.46209
0.561625
0.823049
0.949636
1.62773
1.70902
3.74834
3.42004
0.518234
0.034535
0.0274549
0.0160623
0.0164816
0.0122291
0.0109316
0.00891002
0.00795187
0.00696319
0.00645283
0.00605107
0.00590848
0.00588766
0.00603221
0.00628996
0.00667468
0.00716757
0.00777422
0.00848855
0.0093124
0.0102424
0.0112764
0.0124088
0.0136338
0.0149429
0.0163254
0.0177663
0.0192465
0.0207425
0.0222259
0.0236609
0.0250136
0.026236
0.0272738
0.0280726
0.0285732
0.0287225
0.0284703
0.0278082
0.0267568
0.0254807
0.0253631
0.03227
0.0412546
0.0521986
0.0659803
0.0822125
0.103142
0.126842
0.159869
0.194701
0.251892
0.303276
0.417924
0.490261
0.769212
0.855722
1.64498
1.89782
0.395525
0.0386498
0.01904
0.0107892
0.0104254
0.00776259
0.00683617
0.00559701
0.00497973
0.00438746
0.00408048
0.00385777
0.00379339
0.00381281
0.0039366
0.00413706
0.00442083
0.00477857
0.00521343
0.00572294
0.00630848
0.0069688
0.00770305
0.00850865
0.00938268
0.010321
0.0113181
0.0123662
0.0134556
0.0145745
0.0157087
0.0168398
0.0179562
0.0190284
0.0200279
0.0209253
0.0216868
0.0222792
0.0226674
0.0228342
0.0227741
0.0225706
0.0231721
0.0281417
0.0344403
0.0419093
0.0509848
0.0614985
0.0745358
0.0892962
0.108738
0.129839
0.161328
0.192256
0.25061
0.296428
0.427121
0.494891
0.837679
1.19136
0.318419
0.0429757
0.0149623
0.00776923
0.00694112
0.00514184
0.00445098
0.00365567
0.00324781
0.00288708
0.00270745
0.00259466
0.00258508
0.00263669
0.00275961
0.00293899
0.00317872
0.00347452
0.00382878
0.00424093
0.00471227
0.00524256
0.00583159
0.00647814
0.00718082
0.00793767
0.00874598
0.00960206
0.0105013
0.0114382
0.012406
0.0133977
0.0144077
0.0154181
0.0164128
0.017374
0.0182802
0.0191083
0.0198321
0.0204332
0.0208978
0.0212716
0.0222424
0.0260902
0.0308557
0.0363797
0.0428858
0.0503241
0.059257
0.069414
0.0822064
0.0965418
0.116269
0.137341
0.17145
0.203697
0.273607
0.325538
0.49322
0.829185
0.268834
0.0475665
0.0135341
0.00612345
0.00490755
0.00357043
0.00302407
0.00248595
0.00220847
0.00198646
0.00188751
0.00184304
0.00187038
0.0019449
0.00207198
0.00224383
0.00246334
0.00272903
0.00304309
0.00340601
0.00381915
0.00428292
0.00479764
0.00536312
0.0059792
0.00664555
0.00736157
0.00812617
0.00893793
0.00979482
0.0106936
0.0116339
0.0126092
0.0136087
0.0146217
0.0156356
0.016635
0.0176023
0.0185174
0.0193646
0.0201282
0.0208337
0.0220038
0.0251522
0.0289695
0.0333092
0.0382817
0.0438938
0.0504458
0.0579112
0.0669796
0.0774179
0.0909149
0.106384
0.128549
0.15291
0.19487
0.235853
0.326644
0.628421
0.235882
0.05233
0.0138402
0.00540411
0.00373686
0.00262058
0.00215447
0.00176587
0.00156954
0.00143194
0.00138433
0.00138269
0.0014345
0.00152482
0.00165691
0.00182702
0.00203775
0.00228925
0.00258374
0.0029224
0.00330681
0.00373796
0.00421681
0.00474408
0.00532069
0.00594755
0.00662545
0.00735489
0.00813603
0.00896853
0.00985116
0.010784
0.011761
0.0127746
0.0138164
0.0148767
0.0159432
0.0170023
0.0180383
0.0190385
0.0199853
0.0208952
0.0221765
0.0248598
0.028048
0.0316119
0.0355993
0.0400422
0.0451007
0.0508551
0.0576367
0.065583
0.0753831
0.0872128
0.102708
0.121765
0.149287
0.182243
0.235378
0.510221
0.213249
0.0571107
0.0153571
0.00536354
0.00311845
0.0020577
0.00162218
0.00131732
0.00117009
0.00108389
0.00106889
0.00109441
0.00116268
0.00126434
0.00140172
0.00157346
0.00178213
0.00202889
0.00231612
0.00264556
0.00301912
0.00343837
0.00390487
0.00442013
0.00498583
0.00560368
0.00627526
0.0070018
0.00778416
0.00862262
0.00951661
0.0104649
0.0114624
0.0125029
0.0135794
0.0146834
0.0158048
0.0169323
0.0180537
0.0191593
0.020224
0.0212684
0.022612
0.024969
0.027714
0.030737
0.0340499
0.0376957
0.0417562
0.0463551
0.0516382
0.0578908
0.0653253
0.0746166
0.0860253
0.101191
0.120472
0.147127
0.180176
0.437373
0.197245
0.0617379
0.0177422
0.00586822
0.00289289
0.00175293
0.00130451
0.00103968
0.000919409
0.000863694
0.000869174
0.000912274
0.000992228
0.00110289
0.00124617
0.00142211
0.00163339
0.00188185
0.00217012
0.00250042
0.00287504
0.00329607
0.00376558
0.00428563
0.00485836
0.00548593
0.00617027
0.00691288
0.00771484
0.00857657
0.00949695
0.0104738
0.0115027
0.0125781
0.0136934
0.0148408
0.0160114
0.0171957
0.0183838
0.0195662
0.0207116
0.0218486
0.0232251
0.0253424
0.0277595
0.0303849
0.03321
0.0362821
0.039638
0.0434165
0.0476642
0.0527156
0.0585524
0.066012
0.0747514
0.0869845
0.101188
0.122817
0.14449
0.390905
0.185658
0.0660573
0.0207408
0.00683872
0.00298427
0.00163786
0.00113321
0.000875736
0.000765741
0.000726484
0.000744396
0.000799223
0.00088816
0.00100685
0.00115691
0.00133928
0.00155677
0.00181173
0.00210708
0.00244544
0.00282951
0.00326177
0.00374468
0.00428065
0.00487207
0.0055213
0.0062304
0.00700088
0.0078338
0.00872943
0.00968526
0.0106991
0.0117665
0.012882
0.0140393
0.0152307
0.0164481
0.0176828
0.0189271
0.0201661
0.0213703
0.0225724
0.0239631
0.0258973
0.0280615
0.0303812
0.0328368
0.0354762
0.0383104
0.04148
0.0449785
0.0491465
0.0538547
0.059961
0.0668716
0.0768813
0.0877756
0.105447
0.120376
0.360499
0.177122
0.0699511
0.02414
0.00822537
0.00335271
0.00168035
0.00107167
0.000793394
0.000679609
0.000646545
0.000671219
0.00073407
0.000830511
0.000956996
0.0011149
0.00130569
0.00153232
0.00179753
0.00210455
0.00245638
0.00285602
0.00330629
0.00380993
0.00436952
0.00498758
0.00566651
0.00640839
0.0072146
0.0080861
0.0090224
0.0100199
0.0110763
0.012187
0.0133465
0.0145482
0.0157845
0.0170472
0.0183286
0.0196212
0.0209018
0.022151
0.023399
0.0247913
0.0265804
0.0285425
0.0306183
0.0327824
0.0350822
0.0375135
0.0402134
0.0431467
0.0466428
0.0505213
0.0556051
0.061211
0.0695265
0.0781616
0.0927642
0.103528
0.340228
0.170763
0.0733476
0.0277496
0.00998222
0.00397825
0.00187203
0.00110257
0.000775627
0.000644652
0.000609297
0.000636286
0.000704602
0.000807706
0.000942139
0.00110897
0.00130994
0.00154816
0.00182669
0.00214903
0.0025185
0.00293839
0.00341176
0.00394151
0.00453032
0.00518074
0.00589513
0.00667549
0.00752302
0.00843854
0.00942005
0.0104635
0.0115665
0.012724
0.0139301
0.0151779
0.0164593
0.0177664
0.0190916
0.0204241
0.0217368
0.0230208
0.0243003
0.0256851
0.0273554
0.0291508
0.0310254
0.0329516
0.0349753
0.037084
0.0394088
0.0418997
0.0448689
0.0481148
0.0524078
0.0570487
0.0640602
0.0710904
0.0833271
0.0914083
0.326536
0.166004
0.0762214
0.0313975
0.0120556
0.00485324
0.0022132
0.00122127
0.000814919
0.000652526
0.000606849
0.000632132
0.000703854
0.000813048
0.000955729
0.00113253
0.00134528
0.00159721
0.00189162
0.00223227
0.00262278
0.00306663
0.00356705
0.00412707
0.00474938
0.00543647
0.00619062
0.00701373
0.00790673
0.00887039
0.00990011
0.0109927
0.0121451
0.0133517
0.0146059
0.0159007
0.0172273
0.0185774
0.0199436
0.0213063
0.0226459
0.0239562
0.0252559
0.0266262
0.0281959
0.0298498
0.0315537
0.0332797
0.0350723
0.0369142
0.0389303
0.0410636
0.0436075
0.0463553
0.0500222
0.0539254
0.0599189
0.0657672
0.0761746
0.0824527
0.317206
0.162446
0.078587
0.034934
0.0143785
0.00597251
0.00270728
0.00143257
0.000910316
0.000700127
0.00063556
0.000654959
0.0007281
0.000842849
0.000994089
0.00118183
0.00140779
0.00167529
0.00198781
0.00234933
0.00276369
0.00323454
0.00376525
0.00435885
0.00501805
0.0057452
0.00654246
0.0074116
0.00835324
0.00936766
0.010448
0.011592
0.0127956
0.0140525
0.0153558
0.0166977
0.0180688
0.0194604
0.0208617
0.0222487
0.0236103
0.0249395
0.02625
0.0276001
0.0290819
0.0306127
0.032168
0.033721
0.0353148
0.03693
0.0386852
0.040521
0.0427129
0.0450567
0.0482167
0.051539
0.0567242
0.0616735
0.0706526
0.0756663
0.310816
0.159807
0.0804881
0.0382377
0.0168698
0.00732445
0.00336082
0.00174548
0.001066
0.000788155
0.000694741
0.000703452
0.000775778
0.000895419
0.00105545
0.00125499
0.00149546
0.00178022
0.00211281
0.00249742
0.00293805
0.00343848
0.00400215
0.0046321
0.00533093
0.00610086
0.00694386
0.00786162
0.00885434
0.0099212
0.011054
0.0122506
0.0135064
0.0148144
0.0161668
0.0175552
0.0189697
0.0204001
0.0218285
0.0232366
0.0246151
0.0259566
0.0272696
0.0285947
0.0299973
0.0314184
0.0328414
0.0342414
0.0356604
0.0370782
0.0386078
0.0401897
0.0420835
0.0440912
0.0468319
0.0496844
0.0542163
0.0584616
0.0663098
0.0704007
0.306431
0.157877
0.0819864
0.0412208
0.0194383
0.00888627
0.00418184
0.00216804
0.0012908
0.000920461
0.000786015
0.000778152
0.000846909
0.000970505
0.00113939
0.00135148
0.00160764
0.00191117
0.00226559
0.00267525
0.00314427
0.00367652
0.00427544
0.00494401
0.00568475
0.00649965
0.00739051
0.00835887
0.00940455
0.0105248
0.011711
0.012961
0.0142694
0.0156283
0.017029
0.0184628
0.0199188
0.0213814
0.0228325
0.024258
0.0256486
0.0269958
0.0283041
0.0295995
0.030929
0.0322499
0.0335527
0.0348146
0.0360767
0.0373191
0.0386498
0.0400104
0.0416467
0.0433683
0.0457553
0.0482187
0.0522131
0.0558926
0.0628308
0.0662232
0.303426
0.156499
0.0831518
0.0438304
0.0219894
0.0106213
0.00517346
0.00270956
0.00159535
0.00110385
0.000913059
0.00088117
0.000942801
0.001069
0.00124658
0.0014718
0.00174468
0.00206836
0.0024462
0.00288266
0.00338195
0.00394794
0.00458406
0.0052932
0.0060777
0.00693936
0.00787969
0.00890019
0.0100003
0.0111742
0.0124142
0.0137176
0.0150783
0.0164872
0.017935
0.0194122
0.0209053
0.0223937
0.0238643
0.025303
0.0267003
0.0280471
0.0293438
0.0306054
0.0318652
0.0330929
0.0342844
0.0354195
0.0365384
0.0376221
0.0387742
0.0399385
0.0413484
0.0428218
0.0449051
0.0470396
0.0505838
0.0537983
0.0599917
0.0628384
0.301375
0.155549
0.0840541
0.046047
0.0244335
0.0124788
0.00633047
0.00338015
0.00198852
0.00134819
0.00108157
0.00101608
0.00106591
0.00119276
0.00137856
0.0016173
0.00190777
0.00225282
0.0026555
0.00312034
0.00365154
0.00425297
0.00492796
0.00567927
0.00650906
0.00741886
0.00840989
0.00948359
0.0106385
0.0118662
0.0131599
0.0145162
0.0159282
0.0173855
0.0188784
0.0203961
0.0219184
0.0234292
0.0249153
0.0263626
0.0277613
0.0291013
0.03038
0.0316036
0.0327957
0.0339349
0.0350217
0.0360385
0.0370248
0.0379629
0.0389524
0.0399398
0.0411476
0.0424021
0.0442205
0.0460719
0.049233
0.0520575
0.057631
0.0600396
0.299986
0.154932
0.0847573
0.0478788
0.026694
0.014397
0.00763657
0.00418622
0.00248055
0.00166326
0.00129939
0.00118796
0.00121979
0.00134458
0.00153766
0.00179006
0.00209881
0.0024663
0.00289509
0.00338969
0.00395425
0.00459256
0.00530782
0.00610261
0.00697885
0.00793783
0.00898039
0.010108
0.0113174
0.0125986
0.0139454
0.0153534
0.016815
0.0183188
0.0198541
0.0214044
0.0229518
0.024481
0.0259781
0.0274289
0.0288232
0.0301502
0.0314045
0.0325858
0.0337109
0.0347648
0.0357516
0.0366565
0.0375186
0.0383214
0.0391611
0.0399871
0.0410122
0.042071
0.0436551
0.0452592
0.0480893
0.0505812
0.0556304
0.0576794
0.299055
0.154568
0.0853167
0.0493555
0.0287133
0.0163073
0.00906304
0.00512784
0.00308123
0.00205785
0.0015764
0.00140345
0.00140917
0.00152813
0.001727
0.00199288
0.00232037
0.00271119
0.00316716
0.00369272
0.00429187
0.00496827
0.00572493
0.0065642
0.00748775
0.00849659
0.00959111
0.0107729
0.0120359
0.0133699
0.0147684
0.0162264
0.0177355
0.0192829
0.0208535
0.0224314
0.0239998
0.0255427
0.0270457
0.0284944
0.0298783
0.0311858
0.0324096
0.0335442
0.0346018
0.0355721
0.0364625
0.0372605
0.0380048
0.0386805
0.039381
0.0400581
0.0409166
0.0417985
0.043173
0.0445582
0.0470985
0.0493026
0.0539015
0.0556506
0.298442
0.154397
0.0857773
0.0505204
0.0304559
0.0181414
0.0105691
0.00619632
0.00379709
0.00254202
0.00192125
0.00167092
0.00163997
0.00174799
0.00195041
0.00222919
0.00257561
0.00299045
0.00347448
0.00403198
0.00466673
0.00538218
0.00618109
0.00706553
0.00803688
0.00909591
0.0102424
0.0114784
0.0127933
0.0141789
0.0156271
0.0171328
0.0186866
0.0202705
0.0218711
0.0234723
0.0250567
0.0266081
0.0281113
0.0295519
0.030919
0.0322006
0.0333875
0.034471
0.0354599
0.0363474
0.0371436
0.0378384
0.0384702
0.0390258
0.0395957
0.0401347
0.0408397
0.0415604
0.0427456
0.0439351
0.0462187
0.0481709
0.0523778
0.0538733
0.298046
0.154368
0.0861739
0.0514237
0.0319087
0.0198374
0.0121042
0.00737257
0.00462922
0.00312419
0.00234309
0.00199913
0.0019194
0.00200968
0.00221249
0.00250306
0.00286826
0.00330758
0.00382032
0.00441052
0.00508162
0.0058368
0.00667851
0.00760847
0.00862776
0.00973693
0.0109351
0.0122245
0.0135893
0.0150246
0.0165202
0.0180706
0.0196614
0.0212771
0.022903
0.0245223
0.0261173
0.0276712
0.0291684
0.0305944
0.0319381
0.0331869
0.0343307
0.0353585
0.0362766
0.0370814
0.037785
0.0383793
0.038903
0.0393442
0.039791
0.040201
0.040764
0.0413368
0.0423498
0.043363
0.0454169
0.0471465
0.051008
0.0522873
0.2978
0.154442
0.0865317
0.0521173
0.0330785
0.021346
0.0136123
0.00862651
0.00557115
0.00380948
0.00285057
0.00239653
0.00225572
0.00231964
0.00251852
0.00281914
0.00320259
0.00366654
0.00420839
0.0048318
0.00553973
0.00633503
0.00721975
0.00819523
0.00926219
0.0104211
0.0116701
0.0130108
0.0144237
0.0159062
0.0174453
0.0190335
0.0206569
0.0222993
0.0239451
0.0255767
0.0271761
0.028726
0.0302105
0.031615
0.0329281
0.0341373
0.0352318
0.0361989
0.0370439
0.0377653
0.038377
0.0388732
0.0392923
0.0396242
0.0399545
0.0402436
0.0406746
0.0411111
0.0419666
0.04282
0.0446667
0.0461981
0.0497523
0.0508465
0.297654
0.154587
0.0868679
0.0526497
0.0339876
0.0226339
0.0150374
0.00991819
0.00660724
0.00459776
0.00345021
0.00287119
0.00265692
0.00268547
0.00287444
0.00318257
0.00358327
0.00407171
0.00464277
0.00529962
0.00604457
0.00688004
0.00780763
0.00882824
0.00994216
0.0111499
0.0124486
0.0138379
0.0152964
0.0168205
0.0183978
0.0200191
0.0216699
0.0233334
0.024993
0.0266305
0.0282276
0.0297663
0.0312308
0.0326064
0.0338817
0.0350442
0.0360829
0.0369845
0.0377536
0.0383904
0.0389105
0.0393103
0.039628
0.0398551
0.040075
0.0402505
0.0405586
0.0408693
0.0415801
0.0422883
0.0439469
0.0453011
0.0485793
0.049515
0.297576
0.154779
0.0871933
0.0530638
0.0346695
0.023686
0.0163288
0.0112005
0.0077119
0.00548181
0.00414471
0.00342964
0.00313019
0.0031144
0.00328759
0.00359886
0.0040153
0.00452771
0.00512781
0.00581802
0.00659985
0.00747519
0.00844513
0.00951002
0.0106697
0.0119251
0.0132718
0.0147043
0.0162037
0.0177651
0.0193758
0.0210249
0.0226973
0.0243756
0.0260423
0.0276786
0.0292658
0.0307858
0.0322226
0.0335615
0.0347913
0.0359
0.0368764
0.0377075
0.0383974
0.0389482
0.0393768
0.0396817
0.0399008
0.0400273
0.0401423
0.0402112
0.0404048
0.0405994
0.0411772
0.0417531
0.0432401
0.0444354
0.0474642
0.0482643
0.297541
0.155
0.0875136
0.0533958
0.0351632
0.0245038
0.0174467
0.0124233
0.00885017
0.00644584
0.00493127
0.00407548
0.00368137
0.00361247
0.00376385
0.00407476
0.00450463
0.00503922
0.00566788
0.00639108
0.00720933
0.00812389
0.00913522
0.0102431
0.0114467
0.012746
0.0141377
0.0156088
0.0171447
0.0187385
0.0203771
0.022048
0.0237355
0.0254216
0.027088
0.0287153
0.0302847
0.0317778
0.0331786
0.0344727
0.0356493
0.0366967
0.0376044
0.0383598
0.0389673
0.0394304
0.0397673
0.0399784
0.0401016
0.0401316
0.0401472
0.0401161
0.0402032
0.0402909
0.0407463
0.041202
0.042532
0.0435846
0.0463867
0.047072
0.297533
0.155235
0.0878311
0.0536739
0.0355089
0.0251037
0.0183652
0.0135387
0.00997977
0.00746485
0.00579992
0.00480783
0.00431381
0.00418435
0.00430802
0.00461475
0.00505593
0.00561146
0.00626772
0.00702294
0.00787644
0.00882873
0.0098796
0.0110282
0.0122729
0.0136133
0.0150451
0.0165507
0.0181181
0.0197387
0.021399
0.0230851
0.0247805
0.0264666
0.0281246
0.0297347
0.0312776
0.0327351
0.0340913
0.0353322
0.0364475
0.0374262
0.0382587
0.0389333
0.0394549
0.0398286
0.0400736
0.0401922
0.0402222
0.0401596
0.0400811
0.0399566
0.0399449
0.0399346
0.0402778
0.0406243
0.0418107
0.0427354
0.0453308
0.0459199
0.297542
0.155474
0.0881457
0.0539195
0.035745
0.0255123
0.0190741
0.0145057
0.0110546
0.00850516
0.00673235
0.00561971
0.00502689
0.00483228
0.00492324
0.00522218
0.00567249
0.00624762
0.00693037
0.00771643
0.00860371
0.00959187
0.01068
0.0118665
0.0131491
0.0145273
0.0159937
0.0175287
0.0191218
0.0207631
0.0224381
0.0241319
0.0258273
0.0275052
0.0291461
0.0307299
0.0322373
0.0336501
0.0349528
0.0361318
0.0371776
0.0380801
0.038831
0.0394198
0.0398522
0.0401346
0.0402876
0.040315
0.0402544
0.0401035
0.0399363
0.039725
0.0396223
0.0395225
0.0397632
0.0400113
0.0410663
0.0418767
0.0442832
0.0447932
0.29756
0.155711
0.0884561
0.0541475
0.0359053
0.0257629
0.0195783
0.0152948
0.0120294
0.0095263
0.00770156
0.00649671
0.00581461
0.00555479
0.00561006
0.00589839
0.00635599
0.00694953
0.00765771
0.00847334
0.00939275
0.0104146
0.0115373
0.0127585
0.0140753
0.0154874
0.0169819
0.0185407
0.0201532
0.021808
0.0234901
0.0251836
0.0268705
0.0285312
0.0301456
0.0316937
0.033156
0.0345146
0.0357544
0.0368628
0.0378308
0.0386497
0.0393126
0.0398107
0.0401506
0.0403403
0.0404011
0.0403388
0.0401907
0.0399557
0.0397054
0.0394142
0.0392281
0.0390476
0.0391952
0.0393552
0.0402904
0.0409995
0.0432332
0.0436801
0.297582
0.15594
0.0887603
0.0543679
0.0360181
0.025891
0.0198952
0.0158901
0.0128642
0.0104843
0.00867267
0.00741622
0.00666425
0.0063454
0.0063653
0.00664179
0.0071057
0.00771697
0.00844983
0.00929391
0.0102438
0.011297
0.0124513
0.0137036
0.0150502
0.0164915
0.0180074
0.0195836
0.0212083
0.0228691
0.02455
0.0262343
0.0279034
0.0295373
0.0311155
0.0326179
0.0340251
0.0353197
0.0364872
0.0375159
0.0383979
0.0391261
0.0396949
0.0400976
0.0403421
0.0404376
0.0404066
0.0402564
0.040024
0.0397096
0.039382
0.0390177
0.0387562
0.0385038
0.0385677
0.0386499
0.0394761
0.0400962
0.042172
0.0425707
0.297606
0.156158
0.0890563
0.0545863
0.0361054
0.0259309
0.0200517
0.0162907
0.0135292
0.011336
0.00960502
0.00834755
0.00755543
0.00719135
0.0071808
0.0074468
0.00791749
0.0085468
0.00930428
0.0101761
0.011155
0.0122373
0.01342
0.0146994
0.0160714
0.0175351
0.0190663
0.0206529
0.0222821
0.0239403
0.0256111
0.0272769
0.0289184
0.0305153
0.032047
0.0334932
0.0348351
0.0360557
0.0371414
0.0380814
0.0388694
0.0394997
0.0399687
0.0402718
0.0404182
0.0404186
0.0402964
0.0400605
0.0397474
0.0393586
0.0389599
0.0385299
0.038201
0.0378856
0.0378753
0.0378897
0.0386177
0.0391607
0.0410923
0.0414571
0.297629
0.156365
0.0893421
0.0548054
0.0361835
0.0259137
0.0200797
0.0165088
0.0140073
0.0120436
0.0104556
0.00925332
0.00845995
0.00807272
0.00804239
0.00830277
0.0087829
0.00943202
0.0102152
0.0111149
0.0121218
0.0132312
0.0144392
0.0157416
0.0171342
0.0186133
0.020153
0.0217423
0.0233676
0.0250144
0.0266655
0.0283028
0.0299064
0.0314557
0.0329302
0.0343097
0.0355757
0.0367122
0.0377065
0.0385492
0.0392353
0.039761
0.0401248
0.0403245
0.0403707
0.0402756
0.0400633
0.0397444
0.0393547
0.0388969
0.0384338
0.0379457
0.0375578
0.0371885
0.0371135
0.0370703
0.0377105
0.0381878
0.0399885
0.0403328
0.29765
0.156558
0.0896164
0.0550259
0.0362633
0.0258655
0.020013
0.0165674
0.0142957
0.0125791
0.0111835
0.010092
0.00934267
0.00896215
0.00892907
0.00919306
0.00968812
0.0103609
0.0111723
0.0121012
0.0131362
0.0142712
0.0155018
0.0168233
0.0182318
0.0197187
0.0212597
0.0228436
0.0244562
0.0260821
0.0277036
0.0293019
0.0308568
0.0323477
0.0337539
0.0350558
0.0362356
0.0372779
0.0381714
0.0389082
0.039485
0.0399
0.0401539
0.040247
0.0401914
0.040001
0.0397005
0.0393019
0.0388403
0.0383195
0.0377989
0.0372607
0.0368226
0.0364088
0.0362788
0.0361881
0.0367508
0.0371738
0.038856
0.0391925
0.297669
0.156739
0.0898782
0.0552472
0.0363517
0.0258068
0.0198836
0.0164965
0.0144053
0.0129274
0.0117539
0.0108218
0.0101636
0.00982555
0.00981288
0.0100944
0.0106133
0.0113159
0.0121602
0.0131214
0.0141857
0.015346
0.0165971
0.0179341
0.0193541
0.020841
0.0223759
0.0239461
0.0255368
0.027132
0.0287136
0.0302621
0.0317574
0.0331787
0.0345057
0.0357192
0.0368021
0.0377405
0.0385243
0.0391472
0.0396079
0.0399066
0.0400466
0.0400307
0.0398726
0.0395877
0.0392015
0.0387271
0.038199
0.0376217
0.0370512
0.0364714
0.0359921
0.0355434
0.0353681
0.0352403
0.0357358
0.0361155
0.0376913
0.0380321
0.297685
0.156907
0.090127
0.0554679
0.036452
0.0257524
0.0197199
0.0163291
0.0143581
0.0130875
0.0121432
0.0114047
0.0108809
0.0106238
0.0106595
0.0109771
0.0115321
0.0122736
0.0131577
0.0141562
0.0152528
0.0164393
0.0177101
0.0190598
0.0204854
0.0219668
0.0234882
0.0250363
0.0265959
0.0281505
0.0296816
0.0311696
0.0325942
0.0339348
0.0351715
0.0362859
0.037262
0.038087
0.0387526
0.0392543
0.0395927
0.0397705
0.0397935
0.0396671
0.0394067
0.0390292
0.0385605
0.0380152
0.0374266
0.0368
0.0361876
0.035575
0.0350638
0.0345902
0.0343797
0.0342249
0.0346635
0.0350107
0.0364918
0.0368484
0.297699
0.157063
0.0903628
0.0556866
0.0365649
0.0257125
0.0195453
0.0160982
0.014184
0.013072
0.0123406
0.0118114
0.0114555
0.0113156
0.0114299
0.0118056
0.012412
0.013204
0.014137
0.01518
0.0163142
0.0175297
0.0188206
0.0201814
0.0216079
0.0230785
0.0245795
0.0260974
0.0276168
0.029121
0.0305912
0.032008
0.033351
0.0346
0.0357359
0.036741
0.0376006
0.0383035
0.0388431
0.0392171
0.0394282
0.0394816
0.0393855
0.0391481
0.0387866
0.0383193
0.0377725
0.0371619
0.0365195
0.0358513
0.0352057
0.0345696
0.0340363
0.0335478
0.0333122
0.0331409
0.0335327
0.0338582
0.0352558
0.0356391
0.297711
0.157208
0.0905856
0.0559017
0.0366898
0.0256927
0.0193773
0.0158336
0.0139165
0.0129048
0.0123502
0.0120246
0.011855
0.0118615
0.0120832
0.01254
0.0132155
0.0140715
0.0150647
0.0161614
0.0173402
0.0185897
0.0199031
0.0212748
0.0226991
0.0241545
0.0256289
0.0271091
0.0285798
0.0300241
0.0314235
0.0327586
0.0340096
0.0351567
0.0361817
0.0370679
0.0378023
0.0383754
0.0387823
0.0390232
0.0391031
0.0390296
0.0388138
0.0384663
0.0380062
0.037453
0.0368335
0.0361641
0.0354754
0.0347741
0.0341043
0.0334545
0.0329091
0.032416
0.0321655
0.031988
0.0323432
0.0326574
0.0339825
0.0344028
0.29772
0.157344
0.0907961
0.056112
0.0368249
0.0256955
0.0192285
0.0155603
0.0135896
0.0126177
0.0121894
0.0120414
0.0120581
0.012228
0.0125801
0.0131397
0.0139016
0.014836
0.0159016
0.0170629
0.0182955
0.0195857
0.020926
0.0223107
0.0237312
0.0251683
0.0266112
0.0280472
0.0294614
0.0308372
0.0321566
0.0334006
0.0345498
0.0355855
0.0364904
0.0372493
0.0378508
0.0382873
0.0385563
0.0386602
0.0386064
0.0384053
0.0380703
0.0376151
0.0370602
0.0364263
0.0357405
0.0350197
0.0342932
0.0335679
0.0328835
0.0322298
0.0316825
0.0311952
0.0309402
0.0307669
0.0310955
0.0314086
0.0326719
0.0331386
0.297728
0.15747
0.0909948
0.0563164
0.0369679
0.0257209
0.0191063
0.0152978
0.0132341
0.0122459
0.0118864
0.0118738
0.0120575
0.0123921
0.0128874
0.0135658
0.0144294
0.0154553
0.0166053
0.0178425
0.0191392
0.0204788
0.0218525
0.0232539
0.0246714
0.0260889
0.0274969
0.0288836
0.0302349
0.0315348
0.0327661
0.0339104
0.0349494
0.0358653
0.0366422
0.0372666
0.037729
0.0380239
0.0381512
0.0381157
0.0379275
0.0375996
0.0371481
0.0365891
0.0359446
0.0352366
0.034492
0.0337285
0.0329733
0.0322335
0.0315445
0.0308973
0.0303585
0.0298874
0.029638
0.029479
0.0297911
0.0301128
0.0313245
0.0318464
0.297734
0.157588
0.0911825
0.0565142
0.0371165
0.0257672
0.0190145
0.0150599
0.0128762
0.0118245
0.0114763
0.0115463
0.0118611
0.0123444
0.0129821
0.0137866
0.014761
0.015888
0.0171323
0.0184557
0.0198267
0.0212253
0.0226403
0.0240642
0.0254818
0.0268806
0.0282522
0.0295863
0.0308699
0.0320882
0.0332248
0.0342625
0.0351842
0.0359735
0.0366162
0.0371007
0.0374195
0.0375696
0.0375534
0.0373783
0.037057
0.0366052
0.0360414
0.0353843
0.0346572
0.0338831
0.0330887
0.0322917
0.0315177
0.0307737
0.0300905
0.0294601
0.0289401
0.0284954
0.0282619
0.028127
0.0284322
0.028772
0.029942
0.0305271
0.297738
0.157698
0.0913601
0.0567051
0.0372685
0.0258318
0.0189538
0.0148552
0.0125359
0.0113851
0.0109966
0.0110932
0.0114912
0.0120911
0.0128552
0.0137806
0.0148667
0.0160981
0.0174418
0.0188582
0.0203123
0.0217791
0.023244
0.0246977
0.0261207
0.0275035
0.0288396
0.03012
0.0313332
0.032466
0.0335034
0.0344295
0.0352289
0.0358869
0.0363911
0.0367323
0.0369053
0.0369097
0.0367504
0.0364377
0.0359868
0.0354161
0.0347466
0.033999
0.033198
0.0323673
0.031533
0.0307131
0.0299309
0.0291932
0.0285263
0.0279231
0.0274321
0.0270238
0.0268159
0.0267144
0.0270221
0.0273887
0.0285266
0.0291818
0.297742
0.157802
0.0915283
0.0568889
0.037422
0.0259118
0.0189225
0.0146879
0.0122276
0.010954
0.0104837
0.0105537
0.0109814
0.0116536
0.0125133
0.013541
0.0147282
0.0160584
0.0174994
0.0190106
0.0205523
0.0220943
0.023617
0.0251081
0.0265434
0.0279154
0.0292188
0.0304466
0.0315893
0.0326351
0.0335709
0.0343828
0.0350572
0.0355815
0.0359456
0.0361427
0.0361701
0.0360303
0.0357311
0.0352854
0.0347111
0.034029
0.0332624
0.0324341
0.0315696
0.0306933
0.0298305
0.0289989
0.0282195
0.027499
0.0268589
0.026293
0.0258408
0.0254784
0.0253054
0.0252462
0.0255653
0.0259668
0.0270813
0.0278127
0.297744
0.157901
0.091688
0.0570655
0.0375754
0.0260039
0.0189181
0.0145588
0.0119597
0.0105509
0.00996907
0.00996767
0.0103723
0.0110661
0.0119791
0.0130774
0.0143429
0.0157553
0.0172824
0.0188817
0.0205094
0.022129
0.0237149
0.02525
0.0267051
0.0280726
0.0293484
0.0305272
0.0316013
0.0325613
0.033396
0.0340938
0.0346432
0.0350342
0.0352593
0.0353143
0.0351995
0.0349201
0.034487
0.0339157
0.0332269
0.0324436
0.031591
0.0306939
0.0297783
0.0288688
0.0279897
0.0271584
0.0263934
0.0257009
0.0250978
0.0245788
0.0241748
0.0238668
0.0237374
0.0237285
0.0240671
0.0245108
0.0256102
0.0264225
0.297746
0.157994
0.09184
0.0572353
0.0377274
0.0261053
0.0189368
0.0144663
0.0117362
0.0101893
0.00947794
0.0093714
0.00970709
0.0103713
0.0112889
0.0124158
0.0137251
0.0151921
0.016783
0.0184541
0.0201575
0.0218503
0.0234996
0.0250824
0.0265638
0.0279336
0.0291881
0.0303233
0.0313335
0.0322114
0.0329483
0.0335349
0.0339625
0.0342238
0.0343141
0.0342323
0.0339817
0.0335707
0.0330128
0.0323267
0.0315351
0.0306636
0.0297388
0.0287868
0.0278342
0.0269053
0.0260233
0.0252046
0.0244656
0.0238116
0.0232553
0.022792
0.0224445
0.0221987
0.0221204
0.0221686
0.0225343
0.0230261
0.0241179
0.0250147
0.297747
0.158082
0.0919851
0.0573984
0.0378771
0.0262134
0.0189749
0.0144072
0.0115574
0.00987651
0.00902834
0.00879503
0.00902612
0.00961537
0.0104884
0.0115964
0.0129066
0.0143901
0.0160121
0.0177277
0.0194862
0.0212386
0.0229443
0.024573
0.0260843
0.027462
0.0287018
0.0298002
0.030753
0.0315551
0.0322002
0.0326817
0.0329939
0.0331324
0.0330958
0.032886
0.0325096
0.0319782
0.0313084
0.0305213
0.029642
0.0286979
0.027717
0.0267263
0.0257524
0.024819
0.023948
0.0231548
0.022453
0.0218475
0.0213468
0.0209469
0.020663
0.0204856
0.0204648
0.0205757
0.0209746
0.0215195
0.0226103
0.0235936
0.297748
0.158167
0.092124
0.0575554
0.038024
0.0263259
0.0190287
0.0143775
0.0114211
0.00961529
0.00863142
0.00826099
0.00836394
0.00884259
0.00962724
0.0106692
0.0119332
0.0133885
0.0149998
0.0167227
0.0185049
0.0202928
0.0220386
0.0237039
0.0252432
0.0266314
0.0278618
0.0289303
0.0298335
0.030568
0.0311298
0.0315153
0.0317217
0.0317478
0.0315954
0.0312701
0.0307818
0.0301451
0.0293795
0.0285087
0.0275598
0.0265616
0.0255431
0.0245318
0.0235537
0.0226318
0.021786
0.0210306
0.0203769
0.0198287
0.0193911
0.0190607
0.0188458
0.0187414
0.0187828
0.0189603
0.0193974
0.0199988
0.0210939
0.0221643
0.297749
0.158249
0.0922575
0.0577065
0.0381675
0.0264411
0.0190949
0.0143727
0.0113234
0.00940469
0.00829235
0.00778392
0.00774694
0.0080914
0.00875363
0.00968816
0.0108606
0.0122407
0.0137946
0.0154799
0.0172449
0.0190338
0.0207928
0.0224762
0.0240338
0.0254299
0.0266531
0.0276972
0.0285586
0.0292348
0.029724
0.0300251
0.0301381
0.0300655
0.0298123
0.0293877
0.0288048
0.0280814
0.0272398
0.0263059
0.0253084
0.0242773
0.0232419
0.0222295
0.0212653
0.020371
0.0195646
0.0188589
0.0182628
0.0177794
0.0174107
0.0171538
0.0170113
0.0169823
0.0170887
0.0173346
0.0178133
0.0184727
0.0195764
0.0207325
0.297749
0.158328
0.0923862
0.0578524
0.0383075
0.0265575
0.0191704
0.0143884
0.0112594
0.0092413
0.00801165
0.00737137
0.00719278
0.00739146
0.00790929
0.00870511
0.00974753
0.0110089