/*--------------------------------*- C++ -*----------------------------------*\
| =========                 |                                                 |
| \\      /  F ield         | OpenFOAM: The Open Source CFD Toolbox           |
|  \\    /   O peration     | Version:  2.4.0                                 |
|   \\  /    A nd           | Web:      www.OpenFOAM.org                      |
|    \\/     M anipulation  |                                                 |
\*---------------------------------------------------------------------------*/
FoamFile
{
    version     2.0;
    format      ascii;
    class       surfaceScalarField;
    location    "3.54";
    object      phi;
}
// * * * * * * * * * * * * * * * * * * * * * * * * * * * * * * * * * * * * * //

dimensions      [0 3 -1 0 0 0 0];

internalField   nonuniform List<scalar> 
11840
(
7.85153e-07
9.21485e-06
-2.02648e-08
8.05418e-07
-4.80297e-08
2.77648e-08
-7.30409e-08
2.50112e-08
-8.38155e-08
1.07746e-08
-8.52763e-08
1.46073e-09
-8.9317e-08
4.04069e-09
-8.89384e-08
-3.78519e-10
-9.14765e-08
2.53806e-09
-9.21691e-08
6.92575e-10
-9.50883e-08
2.91919e-09
-9.80156e-08
2.92729e-09
-1.03321e-07
5.30563e-09
-1.10014e-07
6.69311e-09
-1.1881e-07
8.7954e-09
-1.28501e-07
9.691e-09
-1.38721e-07
1.02204e-08
-1.48833e-07
1.01115e-08
-1.59408e-07
1.0575e-08
-1.71566e-07
1.21585e-08
-1.87091e-07
1.55252e-08
-2.07682e-07
2.05911e-08
-2.34691e-07
2.70085e-08
-2.68658e-07
3.3967e-08
-3.09237e-07
4.05794e-08
-3.55244e-07
4.60072e-08
-4.04971e-07
4.97262e-08
-4.56445e-07
5.14743e-08
-5.07632e-07
5.11867e-08
-5.56456e-07
4.88242e-08
-6.00762e-07
4.43064e-08
-6.38232e-07
3.74694e-08
-6.663e-07
2.8068e-08
-6.82091e-07
1.57917e-08
-6.8256e-07
4.68971e-10
-6.64127e-07
-1.84336e-08
-6.23347e-07
-4.07792e-08
-5.57001e-07
-6.63464e-08
-4.62615e-07
-9.43865e-08
-3.39666e-07
-1.22949e-07
-1.89984e-07
-1.49682e-07
-2.31602e-08
-1.66824e-07
1.4546e-07
-1.6862e-07
3.11575e-07
-1.66116e-07
4.71972e-07
-1.60397e-07
6.19198e-07
-1.47226e-07
7.44696e-07
-1.25498e-07
8.44107e-07
-9.94111e-08
9.1363e-07
-6.95231e-08
9.57923e-07
-4.42922e-08
9.75448e-07
-1.75252e-08
9.81322e-07
-5.87437e-09
9.64455e-07
1.68673e-08
9.58969e-07
5.48629e-09
9.20629e-07
3.83392e-08
9.33348e-07
-1.27184e-08
8.69804e-07
6.35436e-08
9.39441e-07
-6.96367e-08
8.26888e-07
1.12553e-07
-2.58935e-07
1.91821e-06
1.72966e-05
1.024e-07
2.62123e-06
-7.4176e-08
2.04341e-07
-1.77815e-07
1.28651e-07
-2.09791e-07
4.27502e-08
-2.27484e-07
1.91536e-08
-2.38167e-07
1.47236e-08
-2.43357e-07
4.8121e-09
-2.49971e-07
9.1515e-09
-2.54994e-07
5.71563e-09
-2.62976e-07
1.09016e-08
-2.72713e-07
1.26645e-08
-2.87439e-07
2.00311e-08
-3.06573e-07
2.58272e-08
-3.30421e-07
3.26435e-08
-3.56575e-07
3.58449e-08
-3.83424e-07
3.70693e-08
-4.09902e-07
3.65901e-08
-4.37664e-07
3.83369e-08
-4.70304e-07
4.47978e-08
-5.12762e-07
5.79833e-08
-5.69602e-07
7.74317e-08
-6.43877e-07
1.01283e-07
-7.36148e-07
1.26238e-07
-8.444e-07
1.48832e-07
-9.64533e-07
1.6614e-07
-1.09132e-06
1.76511e-07
-1.21918e-06
1.79334e-07
-1.34264e-06
1.74645e-07
-1.45634e-06
1.62531e-07
-1.55492e-06
1.42882e-07
-1.63273e-06
1.15284e-07
-1.68371e-06
7.90402e-08
-1.7012e-06
3.32853e-08
-1.67791e-06
-2.28234e-08
-1.6063e-06
-9.00456e-08
-1.4785e-06
-1.68573e-07
-1.28752e-06
-2.57325e-07
-1.02824e-06
-3.53669e-07
-6.99831e-07
-4.51358e-07
-3.08615e-07
-5.40898e-07
1.15392e-07
-5.90831e-07
5.37502e-07
-5.9073e-07
9.48948e-07
-5.77562e-07
1.34135e-06
-5.52802e-07
1.69736e-06
-5.03232e-07
1.99949e-06
-4.27631e-07
2.23755e-06
-3.37464e-07
2.40595e-06
-2.37929e-07
2.51124e-06
-1.49584e-07
2.55714e-06
-6.34228e-08
2.56519e-06
-1.39247e-08
2.53302e-06
4.90369e-08
2.50021e-06
3.83018e-08
2.43153e-06
1.07016e-07
2.41284e-06
5.96613e-09
2.32358e-06
1.52809e-07
2.38088e-06
-1.26939e-07
2.25141e-06
2.42019e-07
-6.49037e-07
2.91733e-06
2.43793e-05
3.96787e-07
5.14177e-06
-4.02232e-08
6.41351e-07
-2.39192e-07
3.27619e-07
-3.02498e-07
1.06056e-07
-3.44489e-07
6.11446e-08
-3.64857e-07
3.50917e-08
-3.79321e-07
1.92766e-08
-3.91258e-07
2.10879e-08
-4.02337e-07
1.67944e-08
-4.15886e-07
2.44505e-08
-4.33069e-07
2.98479e-08
-4.57051e-07
4.40133e-08
-4.88181e-07
5.69567e-08
-5.25878e-07
7.03412e-08
-5.66856e-07
7.68224e-08
-6.08266e-07
7.84797e-08
-6.49009e-07
7.73326e-08
-6.91983e-07
8.13116e-08
-7.43394e-07
9.62086e-08
-8.11163e-07
1.25752e-07
-9.02284e-07
1.68553e-07
-1.02079e-06
2.19786e-07
-1.16643e-06
2.71885e-07
-1.33482e-06
3.17214e-07
-1.51848e-06
3.49799e-07
-1.70854e-06
3.66574e-07
-1.89595e-06
3.66748e-07
-2.07209e-06
3.5078e-07
-2.22872e-06
3.19162e-07
-2.35775e-06
2.7191e-07
-2.45087e-06
2.08411e-07
-2.49934e-06
1.27504e-07
-2.49377e-06
2.77212e-08
-2.42429e-06
-9.23021e-08
-2.28095e-06
-2.33386e-07
-2.05414e-06
-3.95382e-07
-1.73605e-06
-5.75423e-07
-1.32262e-06
-7.67096e-07
-8.17309e-07
-9.56669e-07
-2.36952e-07
-1.12125e-06
3.76302e-07
-1.20408e-06
9.91765e-07
-1.20619e-06
1.60124e-06
-1.18703e-06
2.1848e-06
-1.13636e-06
2.71524e-06
-1.03368e-06
3.16783e-06
-8.80214e-07
3.52669e-06
-6.96333e-07
3.78446e-06
-4.95694e-07
3.94678e-06
-3.11908e-07
4.02243e-06
-1.39064e-07
4.03411e-06
-2.56132e-08
3.99184e-06
9.13154e-08
3.93051e-06
9.96282e-08
3.83903e-06
1.985e-07
3.77831e-06
6.66852e-08
3.67884e-06
2.52274e-07
3.69228e-06
-1.40382e-07
3.58586e-06
3.4844e-07
-1.05613e-06
3.80912e-06
3.05702e-05
8.13655e-07
8.13724e-06
5.28669e-08
1.40214e-06
-2.52991e-07
6.33477e-07
-3.61878e-07
2.14943e-07
-4.34077e-07
1.33344e-07
-4.69094e-07
7.01084e-08
-4.95499e-07
4.56822e-08
-5.14925e-07
4.05135e-08
-5.33264e-07
3.5133e-08
-5.53285e-07
4.44723e-08
-5.78226e-07
5.47889e-08
-6.11381e-07
7.71682e-08
-6.53796e-07
9.93716e-08
-7.04103e-07
1.20648e-07
-7.5816e-07
1.3088e-07
-8.12146e-07
1.32465e-07
-8.65117e-07
1.30304e-07
-9.21343e-07
1.37538e-07
-9.89491e-07
1.64356e-07
-1.08005e-06
2.16314e-07
-1.20176e-06
2.90257e-07
-1.35874e-06
3.76765e-07
-1.54911e-06
4.62255e-07
-1.7655e-06
5.33605e-07
-1.99693e-06
5.81231e-07
-2.2311e-06
6.00748e-07
-2.45599e-06
5.91637e-07
-2.66049e-06
5.55276e-07
-2.83428e-06
4.92958e-07
-2.96747e-06
4.05098e-07
-3.05015e-06
2.91094e-07
-3.07218e-06
1.49529e-07
-3.02306e-06
-2.14002e-08
-2.89227e-06
-2.23086e-07
-2.66977e-06
-4.55895e-07
-2.34675e-06
-7.18396e-07
-1.91748e-06
-1.00469e-06
-1.38183e-06
-1.30275e-06
-7.49402e-07
-1.5891e-06
-4.55571e-08
-1.8251e-06
6.92083e-07
-1.94172e-06
1.44864e-06
-1.96275e-06
2.21225e-06
-1.95065e-06
2.94946e-06
-1.87357e-06
3.62378e-06
-1.708e-06
4.20392e-06
-1.46035e-06
4.66889e-06
-1.16131e-06
5.00874e-06
-8.35539e-07
5.22737e-06
-5.30542e-07
5.33577e-06
-2.47458e-07
5.35747e-06
-4.73208e-08
5.31012e-06
1.38666e-07
5.2278e-06
1.81951e-07
5.11422e-06
3.12081e-07
5.01855e-06
1.6235e-07
4.90154e-06
3.69285e-07
4.8782e-06
-1.17037e-07
4.78176e-06
4.44873e-07
-1.44509e-06
4.61556e-06
3.59546e-05
1.32472e-06
1.14281e-05
2.13072e-07
2.51379e-06
-2.18031e-07
1.06458e-06
-3.86733e-07
3.83645e-07
-4.95418e-07
2.42028e-07
-5.50154e-07
1.24844e-07
-5.91338e-07
8.68662e-08
-6.20457e-07
6.96323e-08
-6.47316e-07
6.19925e-08
-6.74685e-07
7.18407e-08
-7.07643e-07
8.77474e-08
-7.49766e-07
1.19291e-07
-8.02635e-07
1.5224e-07
-8.64204e-07
1.82218e-07
-9.29567e-07
1.96242e-07
-9.9417e-07
1.97068e-07
-1.05735e-06
1.93486e-07
-1.1247e-06
2.04885e-07
-1.20698e-06
2.46637e-07
-1.31662e-06
3.25956e-07
-1.46322e-06
4.36858e-07
-1.65013e-06
5.63669e-07
-1.87313e-06
6.85255e-07
-2.12164e-06
7.82116e-07
-2.38142e-06
8.41011e-07
-2.63743e-06
8.56759e-07
-2.87563e-06
8.29834e-07
-3.08352e-06
7.6317e-07
-3.24989e-06
6.59334e-07
-3.3643e-06
5.19503e-07
-3.41661e-06
3.43407e-07
-3.3968e-06
1.29715e-07
-3.29498e-06
-1.23219e-07
-3.10165e-06
-4.1642e-07
-2.80816e-06
-7.49377e-07
-2.40789e-06
-1.11867e-06
-1.89785e-06
-1.51473e-06
-1.28129e-06
-1.91931e-06
-5.71145e-07
-2.29924e-06
2.05446e-07
-2.60169e-06
1.02328e-06
-2.75956e-06
1.87818e-06
-2.81765e-06
2.75216e-06
-2.82462e-06
3.60386e-06
-2.72527e-06
4.3909e-06
-2.49504e-06
5.07672e-06
-2.14616e-06
5.63518e-06
-1.71977e-06
6.05258e-06
-1.25294e-06
6.32964e-06
-8.07599e-07
6.47703e-06
-3.94847e-07
6.51791e-06
-8.82071e-08
6.47405e-06
1.8253e-07
6.38037e-06
2.75632e-07
6.24919e-06
4.43258e-07
6.12642e-06
2.85124e-07
5.98853e-06
5.07174e-07
5.93479e-06
-6.32942e-08
5.8369e-06
5.4276e-07
-1.79341e-06
5.34706e-06
4.06076e-05
1.90254e-06
1.48726e-05
4.48472e-07
3.96785e-06
-1.33164e-07
1.64622e-06
-3.75896e-07
6.26377e-07
-5.27677e-07
3.93809e-07
-6.07339e-07
2.04507e-07
-6.66326e-07
1.45853e-07
-7.07398e-07
1.10705e-07
-7.44104e-07
9.86983e-08
-7.79671e-07
1.07407e-07
-8.20857e-07
1.28933e-07
-8.71631e-07
1.70066e-07
-9.34006e-07
2.14615e-07
-1.0054e-06
2.5361e-07
-1.08026e-06
2.71105e-07
-1.15352e-06
2.70327e-07
-1.22483e-06
2.64794e-07
-1.30088e-06
2.80939e-07
-1.39402e-06
3.39778e-07
-1.51786e-06
4.49794e-07
-1.68202e-06
6.0102e-07
-1.88836e-06
7.7001e-07
-2.13004e-06
9.26931e-07
-2.39351e-06
1.04559e-06
-2.66207e-06
1.10957e-06
-2.91909e-06
1.11378e-06
-3.1498e-06
1.06055e-06
-3.34164e-06
9.55005e-07
-3.4837e-06
8.01396e-07
-3.56614e-06
6.01938e-07
-3.57965e-06
3.56925e-07
-3.51532e-06
6.53777e-08
-3.36454e-06
-2.74001e-07
-3.11913e-06
-6.6183e-07
-2.77194e-06
-1.09657e-06
-2.31801e-06
-1.5726e-06
-1.75603e-06
-2.07671e-06
-1.0906e-06
-2.58474e-06
-3.35034e-07
-3.0548e-06
4.86086e-07
-3.42281e-06
1.35775e-06
-3.63123e-06
2.27883e-06
-3.73873e-06
3.22529e-06
-3.77109e-06
4.15354e-06
-3.65353e-06
5.01976e-06
-3.36126e-06
5.78527e-06
-2.91167e-06
6.4205e-06
-2.355e-06
6.908e-06
-1.74044e-06
7.24404e-06
-1.14364e-06
7.43675e-06
-5.87559e-07
7.50683e-06
-1.5829e-07
7.47732e-06
2.12044e-07
7.38351e-06
3.69446e-07
7.24272e-06
5.84049e-07
7.10139e-06
4.26455e-07
6.94375e-06
6.64807e-07
6.86512e-06
1.53385e-08
6.75803e-06
6.49852e-07
-2.08852e-06
6.00914e-06
4.45984e-05
2.5242e-06
1.83575e-05
7.57452e-07
5.7346e-06
-1.60929e-09
2.40528e-06
-3.28188e-07
9.52955e-07
-5.29939e-07
5.95561e-07
-6.39912e-07
3.14479e-07
-7.1993e-07
2.25871e-07
-7.75298e-07
1.66073e-07
-8.23253e-07
1.46653e-07
-8.67862e-07
1.52016e-07
-9.17443e-07
1.78515e-07
-9.7645e-07
2.29072e-07
-1.04728e-06
2.8545e-07
-1.12698e-06
3.33304e-07
-1.20951e-06
3.53635e-07
-1.28946e-06
3.50273e-07
-1.36675e-06
3.42084e-07
-1.44888e-06
3.63073e-07
-1.54919e-06
4.40086e-07
-1.68175e-06
5.82356e-07
-1.85557e-06
7.74839e-07
-2.07067e-06
9.85111e-07
-2.31776e-06
1.17402e-06
-2.58111e-06
1.30894e-06
-2.8427e-06
1.37116e-06
-3.08564e-06
1.35671e-06
-3.29559e-06
1.27051e-06
-3.46086e-06
1.12027e-06
-3.57156e-06
9.12093e-07
-3.61889e-06
6.49272e-07
-3.59466e-06
3.32693e-07
-3.49105e-06
-3.82368e-08
-3.30043e-06
-4.64615e-07
-3.01553e-06
-9.46737e-07
-2.63014e-06
-1.48195e-06
-2.14023e-06
-2.06252e-06
-1.54511e-06
-2.67183e-06
-8.49542e-07
-3.28031e-06
-6.58905e-08
-3.83846e-06
7.85052e-07
-4.27375e-06
1.69441e-06
-4.54058e-06
2.65905e-06
-4.70337e-06
3.6503e-06
-4.76233e-06
4.62509e-06
-4.62833e-06
5.54072e-06
-4.27688e-06
6.35903e-06
-3.72998e-06
7.04962e-06
-3.04559e-06
7.59306e-06
-2.28388e-06
7.98187e-06
-1.53246e-06
8.22088e-06
-8.26563e-07
8.32662e-06
-2.64037e-07
8.32111e-06
2.17559e-07
8.23798e-06
4.52571e-07
8.0974e-06
7.24633e-07
7.94648e-06
5.77379e-07
7.77402e-06
8.37263e-07
7.67553e-06
1.13824e-07
7.55565e-06
7.69736e-07
-2.32509e-06
6.60562e-06
4.79928e-05
3.17071e-06
2.17925e-05
1.13637e-06
7.76894e-06
1.94387e-07
3.34726e-06
-2.42343e-07
1.38969e-06
-5.01173e-07
8.5439e-07
-6.47048e-07
4.60355e-07
-7.51546e-07
3.30369e-07
-8.23663e-07
2.3819e-07
-8.84367e-07
2.07358e-07
-9.38874e-07
2.06523e-07
-9.96998e-07
2.36638e-07
-1.06374e-06
2.95818e-07
-1.14192e-06
3.63625e-07
-1.22835e-06
4.1974e-07
-1.31675e-06
4.42027e-07
-1.40148e-06
4.35011e-07
-1.48271e-06
4.23307e-07
-1.56838e-06
4.48744e-07
-1.67226e-06
5.43969e-07
-1.80831e-06
7.18408e-07
-1.98452e-06
9.51045e-07
-2.19912e-06
1.19971e-06
-2.44095e-06
1.41585e-06
-2.69311e-06
1.56109e-06
-2.93743e-06
1.61548e-06
-3.15769e-06
1.57697e-06
-3.34071e-06
1.45353e-06
-3.47594e-06
1.25551e-06
-3.55461e-06
9.9076e-07
-3.56887e-06
6.6353e-07
-3.51137e-06
2.75194e-07
-3.37502e-06
-1.74583e-07
-3.15275e-06
-6.86893e-07
-2.83778e-06
-1.2617e-06
-2.42454e-06
-1.89519e-06
-1.90939e-06
-2.57767e-06
-1.29182e-06
-3.2894e-06
-5.76268e-07
-3.99586e-06
2.26226e-07
-4.64095e-06
1.09867e-06
-5.14619e-06
2.03482e-06
-5.47674e-06
3.02743e-06
-5.69597e-06
4.0447e-06
-5.77961e-06
5.04519e-06
-5.62882e-06
5.9881e-06
-5.21978e-06
6.83695e-06
-4.57883e-06
7.56214e-06
-3.77078e-06
8.14411e-06
-2.86586e-06
8.57346e-06
-1.96181e-06
8.85255e-06
-1.10565e-06
8.99372e-06
-4.05211e-07
9.01681e-06
1.94473e-07
8.95182e-06
5.17564e-07
8.8202e-06
8.56253e-07
8.66784e-06
7.29741e-07
8.48748e-06
1.01762e-06
8.37394e-06
2.27361e-07
8.2413e-06
9.02369e-07
-2.50258e-06
7.14008e-06
5.08527e-05
3.82622e-06
2.51063e-05
1.57842e-06
1.00167e-05
4.396e-07
4.48608e-06
-1.16438e-07
1.94572e-06
-4.40193e-07
1.17814e-06
-6.27816e-07
6.47978e-07
-7.60468e-07
4.63021e-07
-8.51931e-07
3.29653e-07
-9.27005e-07
2.82432e-07
-9.92311e-07
2.71829e-07
-1.05913e-06
3.0346e-07
-1.13309e-06
3.6978e-07
-1.21748e-06
4.4801e-07
-1.30914e-06
5.11398e-07
-1.40173e-06
5.34615e-07
-1.48961e-06
5.2289e-07
-1.57305e-06
5.06748e-07
-1.66012e-06
5.35822e-07
-1.76452e-06
6.48361e-07
-1.8996e-06
8.53491e-07
-2.07219e-06
1.12364e-06
-2.27908e-06
1.40659e-06
-2.50799e-06
1.64477e-06
-2.74181e-06
1.79491e-06
-2.96306e-06
1.83673e-06
-3.15672e-06
1.77063e-06
-3.31088e-06
1.60769e-06
-3.41611e-06
1.36075e-06
-3.4645e-06
1.03915e-06
-3.44888e-06
6.47912e-07
-3.36248e-06
1.88789e-07
-3.19856e-06
-3.38495e-07
-2.95035e-06
-9.35104e-07
-2.61148e-06
-1.60057e-06
-2.1767e-06
-2.32997e-06
-1.64261e-06
-3.11176e-06
-1.00867e-06
-3.92335e-06
-2.78839e-07
-4.72569e-06
5.37224e-07
-5.45701e-06
1.4257e-06
-6.03467e-06
2.38072e-06
-6.43177e-06
3.39041e-06
-6.70566e-06
4.42118e-06
-6.81038e-06
5.43344e-06
-6.64108e-06
6.38843e-06
-6.17477e-06
7.25157e-06
-5.44197e-06
7.99474e-06
-4.51395e-06
8.59928e-06
-3.47039e-06
9.05532e-06
-2.41785e-06
9.36412e-06
-1.41444e-06
9.53485e-06
-5.75949e-07
9.58528e-06
1.44043e-07
9.54091e-06
5.61934e-07
9.42354e-06
9.73625e-07
9.27558e-06
8.77702e-07
9.09393e-06
1.19927e-06
8.96958e-06
3.51714e-07
8.82656e-06
1.04539e-06
-2.62323e-06
7.61635e-06
5.32364e-05
4.47758e-06
2.82451e-05
2.0748e-06
1.24195e-05
7.39639e-07
5.82124e-06
5.15929e-08
2.63377e-06
-3.45677e-07
1.57541e-06
-5.81166e-07
8.83467e-07
-7.45873e-07
6.27729e-07
-8.59455e-07
4.43234e-07
-9.50665e-07
3.73643e-07
-1.02776e-06
3.4892e-07
-1.10349e-06
3.79198e-07
-1.18419e-06
4.50474e-07
-1.27373e-06
5.37556e-07
-1.36926e-06
6.06926e-07
-1.46467e-06
6.30021e-07
-1.55444e-06
6.12663e-07
-1.63887e-06
5.91176e-07
-1.72577e-06
6.22723e-07
-1.82825e-06
7.50845e-07
-1.95879e-06
9.84031e-07
-2.1231e-06
1.28794e-06
-2.31696e-06
1.60046e-06
-2.5278e-06
1.85561e-06
-2.739e-06
2.00611e-06
-2.93425e-06
2.03199e-06
-3.09991e-06
1.93629e-06
-3.22523e-06
1.73301e-06
-3.30167e-06
1.43718e-06
-3.32191e-06
1.05939e-06
-3.27926e-06
6.05261e-07
-3.16728e-06
7.68029e-08
-2.97942e-06
-5.26356e-07
-2.70908e-06
-1.20544e-06
-2.35021e-06
-1.95945e-06
-1.8978e-06
-2.78238e-06
-1.34856e-06
-3.661e-06
-7.01854e-07
-4.57005e-06
3.88329e-08
-5.46637e-06
8.65125e-07
-6.2833e-06
1.76563e-06
-6.93517e-06
2.73351e-06
-7.39965e-06
3.75255e-06
-7.72469e-06
4.78829e-06
-7.84612e-06
5.80295e-06
-7.65574e-06
6.75969e-06
-7.1315e-06
7.62576e-06
-6.30805e-06
8.37466e-06
-5.26284e-06
8.98902e-06
-4.08476e-06
9.45943e-06
-2.88826e-06
9.78696e-06
-1.74198e-06
9.97888e-06
-7.67874e-07
1.00515e-05
7.14186e-08
1.00261e-05
5.8738e-07
9.92428e-06
1.07541e-06
9.7836e-06
1.01837e-06
9.60533e-06
1.37754e-06
9.47328e-06
4.8377e-07
9.32297e-06
1.1957e-06
-2.69074e-06
8.03848e-06
5.51979e-05
5.11404e-06
3.11695e-05
2.6154e-06
1.49182e-05
1.09407e-06
7.34256e-06
2.63104e-07
3.46474e-06
-2.1619e-07
2.05471e-06
-5.05931e-07
1.17321e-06
-7.0681e-07
8.28608e-07
-8.45491e-07
5.81915e-07
-9.54783e-07
4.82934e-07
-1.04478e-06
4.38918e-07
-1.12978e-06
4.64195e-07
-1.21685e-06
5.37547e-07
-1.31069e-06
6.31399e-07
-1.40901e-06
7.05247e-07
-1.50624e-06
7.2725e-07
-1.59711e-06
7.03534e-07
-1.68178e-06
6.75839e-07
-1.7674e-06
7.08343e-07
-1.86611e-06
8.49555e-07
-1.98929e-06
1.10721e-06
-2.14173e-06
1.44038e-06
-2.31878e-06
1.7775e-06
-2.50815e-06
2.04498e-06
-2.69427e-06
2.19223e-06
-2.86224e-06
2.19995e-06
-2.99968e-06
2.07373e-06
-3.09686e-06
1.83019e-06
-3.14589e-06
1.48621e-06
-3.13987e-06
1.05338e-06
-3.0724e-06
5.37787e-07
-2.93722e-06
-5.83749e-08
-2.72789e-06
-7.35687e-07
-2.43796e-06
-1.49536e-06
-2.06163e-06
-2.33577e-06
-1.59408e-06
-3.24993e-06
-1.03207e-06
-4.22301e-06
-3.74856e-07
-5.22726e-06
3.7451e-07
-6.21574e-06
1.20874e-06
-7.11754e-06
2.11813e-06
-7.84455e-06
3.0942e-06
-8.37573e-06
4.11698e-06
-8.74747e-06
5.15176e-06
-8.8809e-06
6.16238e-06
-8.66636e-06
7.1137e-06
-8.08283e-06
7.97469e-06
-7.16904e-06
8.72044e-06
-6.00859e-06
9.335e-06
-4.69932e-06
9.80982e-06
-3.36308e-06
1.01464e-05
-2.07856e-06
1.0351e-05
-9.72484e-07
1.04392e-05
-1.67358e-08
1.04286e-05
5.97993e-07
1.03408e-05
1.1632e-06
1.02077e-05
1.1514e-06
1.00351e-05
1.55016e-06
9.8972e-06
6.21704e-07
9.74218e-06
1.35071e-06
-2.70941e-06
8.41072e-06
5.67872e-05
5.72711e-06
3.38531e-05
3.18942e-06
1.74559e-05
1.50095e-06
9.03103e-06
5.21021e-07
4.44467e-06
-5.03747e-08
2.6261e-06
-4.00822e-07
1.52366e-06
-6.4219e-07
1.06998e-06
-8.09191e-07
7.48916e-07
-9.3872e-07
6.12464e-07
-1.04294e-06
5.43137e-07
-1.13773e-06
5.58989e-07
-1.23105e-06
6.30862e-07
-1.3286e-06
7.2895e-07
-1.42898e-06
8.05625e-07
-1.52742e-06
8.25694e-07
-1.61898e-06
7.9509e-07
-1.70346e-06
7.6032e-07
-1.78702e-06
7.91909e-07
-1.88051e-06
9.4304e-07
-1.99414e-06
1.22084e-06
-2.13202e-06
1.57826e-06
-2.28956e-06
1.93505e-06
-2.4553e-06
2.21071e-06
-2.61501e-06
2.35194e-06
-2.75521e-06
2.34015e-06
-2.86473e-06
2.18325e-06
-2.93464e-06
1.9001e-06
-2.95751e-06
1.50908e-06
-2.92675e-06
1.02261e-06
-2.83611e-06
4.47154e-07
-2.67945e-06
-2.15036e-07
-2.45037e-06
-9.64768e-07
-2.1426e-06
-1.80314e-06
-1.75051e-06
-2.72786e-06
-1.26943e-06
-3.73101e-06
-6.96175e-07
-4.79626e-06
-2.99054e-08
-5.89353e-06
7.26691e-07
-6.97234e-06
1.56718e-06
-7.95803e-06
2.48291e-06
-8.76028e-06
3.46349e-06
-9.35631e-06
4.4859e-06
-9.76988e-06
5.51548e-06
-9.91047e-06
6.51747e-06
-9.66835e-06
7.45826e-06
-9.02362e-06
8.30837e-06
-8.01915e-06
9.04444e-06
-6.74465e-06
9.65196e-06
-5.30684e-06
1.01235e-05
-3.83458e-06
1.04611e-05
-2.41625e-06
1.06709e-05
-1.18225e-06
1.07679e-05
-1.13767e-07
1.07672e-05
5.98711e-07
1.06903e-05
1.24017e-06
1.05636e-05
1.27807e-06
1.0397e-05
1.71679e-06
1.02539e-05
7.64773e-07
1.00957e-05
1.50888e-06
-2.68372e-06
8.73733e-06
5.80498e-05
6.31027e-06
3.62802e-05
3.78597e-06
1.99802e-05
1.95672e-06
1.08603e-05
8.26523e-07
5.57486e-06
1.54435e-07
3.29819e-06
-2.64418e-07
1.94251e-06
-5.50775e-07
1.35633e-06
-7.49586e-07
9.47727e-07
-9.01752e-07
7.64629e-07
-1.02175e-06
6.63137e-07
-1.12714e-06
6.64378e-07
-1.22685e-06
7.30568e-07
-1.32783e-06
8.29935e-07
-1.42987e-06
9.07659e-07
-1.52923e-06
9.25055e-07
-1.6213e-06
8.87168e-07
-1.70539e-06
8.44405e-07
-1.78634e-06
8.72861e-07
-1.87348e-06
1.03017e-06
-1.97586e-06
1.32322e-06
-2.0972e-06
1.69961e-06
-2.23339e-06
2.07123e-06
-2.37413e-06
2.35146e-06
-2.50674e-06
2.48455e-06
-2.61916e-06
2.45257e-06
-2.70126e-06
2.26535e-06
-2.74474e-06
1.94358e-06
-2.74252e-06
1.50687e-06
-2.6882e-06
9.68289e-07
-2.57566e-06
3.3461e-07
-2.39876e-06
-3.91938e-07
-2.15115e-06
-1.21237e-06
-1.82674e-06
-2.12755e-06
-1.42005e-06
-3.13454e-06
-9.26522e-07
-4.22454e-06
-3.43024e-07
-5.37976e-06
3.31349e-07
-6.56791e-06
1.09419e-06
-7.73518e-06
1.93966e-06
-8.80349e-06
2.85963e-06
-9.68026e-06
3.84185e-06
-1.03385e-05
4.86082e-06
-1.07889e-05
5.88211e-06
-1.09318e-05
6.87212e-06
-1.06584e-05
7.79858e-06
-9.95009e-06
8.63347e-06
-8.85404e-06
9.35493e-06
-7.46611e-06
9.94987e-06
-5.90178e-06
1.0412e-05
-4.29673e-06
1.07444e-05
-2.74867e-06
1.09531e-05
-1.39087e-06
1.1053e-05
-2.13727e-07
1.10573e-05
5.9442e-07
1.09874e-05
1.31006e-06
1.0865e-05
1.4005e-06
1.07034e-05
1.87838e-06
1.05552e-05
9.1294e-07
1.03944e-05
1.66966e-06
-2.61809e-06
9.02256e-06
5.90273e-05
6.85885e-06
3.84439e-05
4.39451e-06
2.24445e-05
2.45635e-06
1.27984e-05
1.18013e-06
6.85108e-06
3.99267e-07
4.07906e-06
-9.49379e-08
2.43671e-06
-4.31158e-07
1.69255e-06
-6.65561e-07
1.18213e-06
-8.43028e-07
9.42095e-07
-9.80656e-07
8.00765e-07
-1.09775e-06
7.81468e-07
-1.20431e-06
8.37137e-07
-1.30878e-06
9.34404e-07
-1.41236e-06
1.01123e-06
-1.51255e-06
1.02525e-06
-1.60512e-06
9.79739e-07
-1.6887e-06
9.2798e-07
-1.76662e-06
9.5079e-07
-1.84656e-06
1.11011e-06
-1.93646e-06
1.41312e-06
-2.03986e-06
1.80302e-06
-2.15346e-06
2.18483e-06
-2.26844e-06
2.46643e-06
-2.37369e-06
2.5898e-06
-2.45854e-06
2.53742e-06
-2.51377e-06
2.32058e-06
-2.53159e-06
1.9614e-06
-2.50519e-06
1.48046e-06
-2.42826e-06
8.9136e-07
-2.29476e-06
2.01109e-07
-2.09854e-06
-5.88158e-07
-1.83331e-06
-1.4776e-06
-1.49311e-06
-2.46775e-06
-1.07262e-06
-3.55504e-06
-5.67358e-07
-4.72981e-06
2.57431e-08
-5.97286e-06
7.07603e-07
-7.24977e-06
1.47599e-06
-8.50356e-06
2.32543e-06
-9.65294e-06
3.24797e-06
-1.06028e-05
4.22954e-06
-1.13201e-05
5.24278e-06
-1.18021e-05
6.25347e-06
-1.19425e-05
7.22897e-06
-1.16339e-05
8.13821e-06
-1.08593e-05
8.95452e-06
-9.67035e-06
9.65751e-06
-8.16909e-06
1.02355e-05
-6.47981e-06
1.06836e-05
-4.74477e-06
1.10056e-05
-3.07073e-06
1.12079e-05
-1.59317e-06
1.13057e-05
-3.11534e-07
1.13106e-05
5.8954e-07
1.1244e-05
1.37662e-06
1.11235e-05
1.52108e-06
1.09653e-05
2.03655e-06
1.08117e-05
1.06655e-06
1.06481e-05
1.83325e-06
-2.51666e-06
9.27051e-06
5.97568e-05
7.36973e-06
4.03447e-05
5.00518e-06
2.4809e-05
2.99353e-06
1.48101e-05
1.58129e-06
8.26332e-06
6.85955e-07
4.97439e-06
1.09482e-07
3.01318e-06
-2.8176e-07
2.0838e-06
-5.55832e-07
1.4562e-06
-7.61533e-07
1.1478e-06
-9.18955e-07
9.58187e-07
-1.04918e-06
9.11695e-07
-1.16342e-06
9.51378e-07
-1.27173e-06
1.04271e-06
-1.37696e-06
1.11646e-06
-1.47803e-06
1.12632e-06
-1.57112e-06
1.07283e-06
-1.65413e-06
1.01098e-06
-1.72876e-06
1.02542e-06
-1.80093e-06
1.18228e-06
-1.8775e-06
1.48969e-06
-1.96207e-06
1.88758e-06
-2.05236e-06
2.27513e-06
-2.14119e-06
2.55526e-06
-2.21912e-06
2.66773e-06
-2.27674e-06
2.59504e-06
-2.30566e-06
2.3495e-06
-2.29852e-06
1.95426e-06
-2.24868e-06
1.43062e-06
-2.14991e-06
7.92591e-07
-1.99619e-06
4.73898e-08
-1.78135e-06
-8.02995e-07
-1.49916e-06
-1.75979e-06
-1.1438e-06
-2.82311e-06
-7.10048e-07
-3.98879e-06
-1.93524e-07
-5.24633e-06
4.08777e-07
-6.57516e-06
1.09773e-06
-7.93872e-06
1.87117e-06
-9.277e-06
2.72382e-06
-1.05056e-05
3.64756e-06
-1.15265e-05
4.6267e-06
-1.22992e-05
5.63244e-06
-1.28078e-05
6.63079e-06
-1.29408e-05
7.58982e-06
-1.25929e-05
8.47955e-06
-1.17491e-05
9.27459e-06
-1.04654e-05
9.95601e-06
-8.85051e-06
1.05136e-05
-7.0374e-06
1.09437e-05
-5.17484e-06
1.12512e-05
-3.37829e-06
1.1443e-05
-1.78491e-06
1.15344e-05
-4.02929e-07
1.1536e-05
5.87911e-07
1.14693e-05
1.4433e-06
1.13482e-05
1.6422e-06
1.11916e-05
2.19317e-06
1.1032e-05
1.22613e-06
1.0865e-05
2.00027e-06
-2.38322e-06
9.48514e-06
6.02716e-05
7.84113e-06
4.19887e-05
5.60908e-06
2.70411e-05
3.56091e-06
1.68583e-05
2.02818e-06
9.79605e-06
1.01593e-06
5.98665e-06
3.50906e-07
3.67821e-06
-1.00881e-07
2.53558e-06
-4.18935e-07
1.77426e-06
-6.56054e-07
1.38492e-06
-8.35755e-07
1.13789e-06
-9.80897e-07
1.05684e-06
-1.10396e-06
1.07444e-06
-1.21675e-06
1.15549e-06
-1.32393e-06
1.22364e-06
-1.42602e-06
1.22841e-06
-1.51969e-06
1.1665e-06
-1.6021e-06
1.0934e-06
-1.6733e-06
1.09662e-06
-1.73739e-06
1.24637e-06
-1.80019e-06
1.55249e-06
-1.86545e-06
1.95284e-06
-1.93212e-06
2.3418e-06
-1.99475e-06
2.6179e-06
-2.04556e-06
2.71854e-06
-2.07639e-06
2.62587e-06
-2.07956e-06
2.35267e-06
-2.04808e-06
1.92278e-06
-1.97545e-06
1.35799e-06
-1.85547e-06
6.72615e-07
-1.68212e-06
-1.2596e-07
-1.44921e-06
-1.03591e-06
-1.15056e-06
-2.05844e-06
-7.8047e-07
-3.1932e-06
-3.33824e-07
-4.43543e-06
1.93674e-07
-5.77383e-06
8.04933e-07
-7.18642e-06
1.50073e-06
-8.63451e-06
2.27889e-06
-1.00552e-05
3.13417e-06
-1.13609e-05
4.05803e-06
-1.24504e-05
5.03335e-06
-1.32745e-05
6.03025e-06
-1.38047e-05
7.01487e-06
-1.39254e-05
7.95588e-06
-1.35339e-05
8.82422e-06
-1.26174e-05
9.59578e-06
-1.12369e-05
1.02531e-05
-9.50779e-06
1.07873e-05
-7.57167e-06
1.11963e-05
-5.58378e-06
1.14859e-05
-3.66795e-06
1.16636e-05
-1.9626e-06
1.1745e-05
-4.84355e-07
1.17401e-05
5.92809e-07
1.16703e-05
1.51314e-06
1.15465e-05
1.76604e-06
1.13895e-05
2.35016e-06
1.12234e-05
1.39222e-06
1.10521e-05
2.17158e-06
-2.22117e-06
9.67017e-06
6.06015e-05
8.27244e-06
4.33864e-05
6.1984e-06
2.91151e-05
4.15047e-06
1.89062e-05
2.51773e-06
1.14288e-05
1.38997e-06
7.11441e-06
6.31378e-07
4.4368e-06
1.13409e-07
3.05355e-06
-2.53241e-07
2.14091e-06
-5.25165e-07
1.65684e-06
-7.29936e-07
1.34266e-06
-8.92102e-07
1.219e-06
-1.02548e-06
1.20782e-06
-1.14366e-06
1.27367e-06
-1.25327e-06
1.33326e-06
-1.35659e-06
1.33173e-06
-1.45091e-06
1.26083e-06
-1.53277e-06
1.17526e-06
-1.60053e-06
1.16438e-06
-1.65649e-06
1.30233e-06
-1.70541e-06
1.60141e-06
-1.75128e-06
1.9987e-06
-1.79436e-06
2.38488e-06
-1.83099e-06
2.65453e-06
-1.85505e-06
2.7426e-06
-1.85957e-06
2.63038e-06
-1.83754e-06
2.33064e-06
-1.78229e-06
1.86753e-06
-1.68743e-06
1.26312e-06
-1.54678e-06
5.31966e-07
-1.35427e-06
-3.18463e-07
-1.1037e-06
-1.28648e-06
-7.88975e-07
-2.37316e-06
-4.04479e-07
-3.57769e-06
5.48226e-08
-4.89474e-06
5.93128e-07
-6.31213e-06
1.21321e-06
-7.80651e-06
1.91572e-06
-9.33702e-06
2.6984e-06
-1.08379e-05
3.55586e-06
-1.22183e-05
4.479e-06
-1.33735e-05
5.44942e-06
-1.4245e-05
6.43641e-06
-1.47917e-05
7.40621e-06
-1.48952e-05
8.3279e-06
-1.44556e-05
9.17329e-06
-1.34628e-05
9.91947e-06
-1.19831e-05
1.05504e-05
-1.01388e-05
1.10589e-05
-8.08018e-06
1.14441e-05
-5.96892e-06
1.1713e-05
-3.93685e-06
1.18737e-05
-2.1233e-06
1.19422e-05
-5.5283e-07
1.1928e-05
6.07012e-07
1.18523e-05
1.58881e-06
1.17238e-05
1.89456e-06
1.15646e-05
2.50935e-06
1.13914e-05
1.56538e-06
1.12149e-05
2.34813e-06
-2.03351e-06
9.82911e-06
6.07723e-05
8.66396e-06
4.45516e-05
6.76657e-06
3.10125e-05
4.75389e-06
2.09189e-05
3.04557e-06
1.31371e-05
1.80801e-06
8.35197e-06
9.52565e-07
5.29224e-06
3.63004e-07
3.64311e-06
-5.69101e-08
2.56082e-06
-3.67245e-07
1.96717e-06
-6.00149e-07
1.57556e-06
-7.81755e-07
1.40061e-06
-9.27262e-07
1.35332e-06
-1.05203e-06
1.39845e-06
-1.16475e-06
1.44597e-06
-1.26958e-06
1.43656e-06
-1.36467e-06
1.35592e-06
-1.44605e-06
1.25664e-06
-1.51051e-06
1.22884e-06
-1.55853e-06
1.35034e-06
-1.5938e-06
1.63668e-06
-1.62054e-06
2.02544e-06
-1.64035e-06
2.4047e-06
-1.65139e-06
2.66557e-06
-1.6492e-06
2.74041e-06
-1.62793e-06
2.60911e-06
-1.58125e-06
2.28397e-06
-1.50277e-06
1.78905e-06
-1.38617e-06
1.14652e-06
-1.2253e-06
3.71097e-07
-1.01404e-06
-5.29727e-07
-7.46155e-07
-1.55437e-06
-4.15636e-07
-2.70368e-06
-1.69514e-08
-3.97638e-06
4.54863e-07
-5.36655e-06
1.00389e-06
-6.86116e-06
1.63275e-06
-8.43536e-06
2.34191e-06
-1.00462e-05
3.129e-06
-1.16249e-05
3.98832e-06
-1.30776e-05
4.91008e-06
-1.42953e-05
5.87477e-06
-1.52097e-05
6.851e-06
-1.5768e-05
7.80504e-06
-1.58493e-05
8.7063e-06
-1.53568e-05
9.52737e-06
-1.42839e-05
1.02465e-05
-1.27023e-05
1.08493e-05
-1.07415e-05
1.13299e-05
-8.5608e-06
1.1689e-05
-6.32798e-06
1.19347e-05
-4.18259e-06
1.2076e-05
-2.26456e-06
1.2129e-05
-6.05837e-07
1.21031e-05
6.32874e-07
1.20194e-05
1.6726e-06
1.18844e-05
2.02947e-06
1.17214e-05
2.67242e-06
1.15407e-05
1.74608e-06
1.1358e-05
2.53083e-06
-1.82286e-06
9.96523e-06
6.08071e-05
9.01676e-06
4.55e-05
7.30824e-06
3.2721e-05
5.36283e-06
2.28643e-05
3.60619e-06
1.48937e-05
2.26896e-06
9.6892e-06
1.31569e-06
6.24551e-06
6.49726e-07
4.30907e-06
1.71976e-07
3.03857e-06
-1.80516e-07
2.31967e-06
-4.44833e-07
1.83988e-06
-6.48563e-07
1.60434e-06
-8.08342e-07
1.5131e-06
-9.41192e-07
1.5313e-06
-1.05787e-06
1.56265e-06
-1.16462e-06
1.5433e-06
-1.26064e-06
1.45193e-06
-1.34168e-06
1.33769e-06
-1.40311e-06
1.29027e-06
-1.4436e-06
1.39083e-06
-1.46575e-06
1.65883e-06
-1.47392e-06
2.03361e-06
-1.47106e-06
2.40184e-06
-1.45712e-06
2.65163e-06
-1.42927e-06
2.71255e-06
-1.3828e-06
2.56265e-06
-1.31202e-06
2.21318e-06
-1.2108e-06
1.68784e-06
-1.07293e-06
1.00865e-06
-8.92235e-07
1.90403e-07
-6.62544e-07
-7.59417e-07
-3.77628e-07
-1.83928e-06
-3.15416e-08
-3.04977e-06
3.81185e-07
-4.38911e-06
8.6543e-07
-5.8508e-06
1.42514e-06
-7.42087e-06
2.06277e-06
-9.073e-06
2.77862e-06
-1.0762e-05
3.57006e-06
-1.24164e-05
4.43102e-06
-1.39386e-05
5.35091e-06
-1.52152e-05
6.30919e-06
-1.61679e-05
7.27395e-06
-1.67327e-05
8.21143e-06
-1.67867e-05
9.09126e-06
-1.62367e-05
9.88678e-06
-1.50794e-05
1.05775e-05
-1.3393e-05
1.11504e-05
-1.13144e-05
1.16013e-05
-9.01171e-06
1.19323e-05
-6.659e-06
1.21528e-05
-4.40309e-06
1.22725e-05
-2.38428e-06
1.23079e-05
-6.41247e-07
1.22684e-05
6.72392e-07
1.21745e-05
1.76647e-06
1.20317e-05
2.17228e-06
1.18633e-05
2.84086e-06
1.16746e-05
1.93476e-06
1.14849e-05
2.72057e-06
-1.59153e-06
1.00815e-05
6.07256e-05
9.33253e-06
4.6249e-05
7.8193e-06
3.42343e-05
5.96927e-06
2.47143e-05
4.19311e-06
1.66699e-05
2.77057e-06
1.11117e-05
1.72136e-06
7.29472e-06
9.75326e-07
5.05511e-06
4.35488e-07
3.57841e-06
3.68906e-08
2.71826e-06
-2.62249e-07
2.13902e-06
-4.91e-07
1.83309e-06
-6.67492e-07
1.68959e-06
-8.10198e-07
1.674e-06
-9.31939e-07
1.68439e-06
-1.04114e-06
1.6525e-06
-1.13832e-06
1.54911e-06
-1.21924e-06
1.41862e-06
-1.27802e-06
1.34904e-06
-1.31162e-06
1.42443e-06
-1.32143e-06
1.66865e-06
-1.3119e-06
2.02408e-06
-1.2872e-06
2.37714e-06
-1.24906e-06
2.6135e-06
-1.19626e-06
2.65975e-06
-1.12522e-06
2.49161e-06
-1.03089e-06
2.11885e-06
-9.07434e-07
1.56438e-06
-7.48703e-07
8.49915e-07
-5.48538e-07
-9.76142e-09
-3.00708e-07
-1.00725e-06
1.00703e-09
-2.141e-06
3.62495e-07
-3.41126e-06
7.89163e-07
-4.81577e-06
1.28579e-06
-6.34742e-06
1.85619e-06
-7.99127e-06
2.50265e-06
-9.71945e-06
3.22523e-06
-1.14846e-05
4.02103e-06
-1.32122e-05
4.88347e-06
-1.48011e-05
5.80111e-06
-1.61328e-05
6.75244e-06
-1.71193e-05
7.7051e-06
-1.76854e-05
8.62526e-06
-1.77069e-05
9.48271e-06
-1.70941e-05
1.02515e-05
-1.58482e-05
1.09124e-05
-1.40539e-05
1.14539e-05
-1.18559e-05
1.18735e-05