/*--------------------------------*- C++ -*----------------------------------*\
| =========                 |                                                 |
| \\      /  F ield         | OpenFOAM: The Open Source CFD Toolbox           |
|  \\    /   O peration     | Version:  2.4.0                                 |
|   \\  /    A nd           | Web:      www.OpenFOAM.org                      |
|    \\/     M anipulation  |                                                 |
\*---------------------------------------------------------------------------*/
FoamFile
{
    version     2.0;
    format      ascii;
    class       volVectorField;
    location    "275";
    object      U;
}
// * * * * * * * * * * * * * * * * * * * * * * * * * * * * * * * * * * * * * //

dimensions      [0 1 -1 0 0 0 0];

internalField   nonuniform List<vector> 
6000
(
(0.715353 -0.0490114 -4.84233e-17)
(0.237156 -0.0438743 0)
(-0.00430865 -0.00275823 2.01907e-16)
(-0.0797109 0.0169116 0)
(-0.0809482 0.0155021 0)
(-0.0812984 0.0151211 0)
(-0.0803756 0.0145081 1.16006e-16)
(-0.0800124 0.013974 6.84483e-21)
(-0.0812116 0.0138438 0)
(-0.0862977 0.0143984 0)
(-0.095423 0.015349 1.06492e-16)
(-0.106054 0.0160577 -2.02586e-16)
(-0.114281 0.0159197 0)
(-0.116219 0.0145303 0)
(-0.109075 0.0118602 -4.67418e-17)
(-0.0903285 0.00782227 0)
(-0.0598844 0.00271954 0)
(-0.0206936 -0.00231183 -5.97328e-17)
(0.0217879 -0.00548078 -6.7889e-17)
(0.0446551 -0.00563749 0)
(0.0562423 -0.00486854 6.96338e-17)
(0.055261 -0.00324327 3.6258e-17)
(0.0471266 0.000636373 -4.13147e-17)
(-0.0305862 0.00818286 0)
(-0.1021 0.0104237 0)
(-0.167398 0.0104831 0)
(-0.221894 0.00932937 7.12573e-18)
(-0.266217 0.00734634 -5.94087e-18)
(-0.301268 0.00478414 0)
(-0.327761 0.00181461 0)
(-0.346335 -0.00139842 5.50967e-19)
(-0.35751 -0.00470585 0)
(-0.361758 -0.00796482 4.27626e-18)
(-0.359574 -0.0110451 -4.3467e-18)
(-0.351282 -0.0138334 0)
(-0.337244 -0.0162141 0)
(-0.317656 -0.0180866 1.03057e-17)
(-0.292505 -0.0193326 0)
(-0.261426 -0.0198393 1.23908e-17)
(-0.223741 -0.0194475 0)
(-0.178828 -0.0179635 0)
(-0.12626 -0.0153303 3.65141e-17)
(-0.0656971 -0.0116394 -8.75153e-17)
(0.00826592 -0.00496422 0)
(0.0736415 0.00330927 0)
(0.13534 0.0117944 4.61861e-17)
(0.191787 0.0205316 0)
(0.241913 0.0292714 0)
(0.284258 0.0377412 -8.18394e-17)
(0.319294 0.0456399 -7.99465e-17)
(0.346564 0.052935 -7.85918e-17)
(0.369859 0.0595767 -5.23867e-20)
(0.386833 0.0659196 7.52298e-17)
(0.406785 0.0719009 0)
(0.417517 0.0783188 -6.08207e-20)
(0.447331 0.0850569 -6.39456e-17)
(0.450257 0.0928301 5.3684e-17)
(0.523079 0.104638 5e-17)
(0.505994 0.115166 9.84093e-20)
(0.731515 0.149147 0)
(0.741788 -0.124079 2.6113e-17)
(0.337718 -0.060082 1.96359e-17)
(0.0852741 -0.00493523 -4.88569e-17)
(-0.0534794 0.0177561 -6.70454e-17)
(-0.0822703 0.0176264 0)
(-0.0871606 0.0171583 0)
(-0.0877227 0.0165152 -4.92849e-17)
(-0.0882155 0.0159708 9.4807e-17)
(-0.0902822 0.0159541 0)
(-0.0960829 0.016734 0)
(-0.105222 0.0178191 -4.49922e-17)
(-0.114898 0.018396 4.34385e-17)
(-0.121324 0.0178013 2.08549e-17)
(-0.120949 0.0156023 0)
(-0.111331 0.0118583 1.93322e-17)
(-0.0903884 0.00661198 0)
(-0.0585913 0.000265062 0)
(-0.0187097 -0.00535601 0)
(0.0218863 -0.00802454 0)
(0.0456236 -0.00729696 0)
(0.0559391 -0.00525158 5.00968e-22)
(0.0501664 -0.001427 0)
(0.0194404 0.00696394 -1.68457e-17)
(-0.0643366 0.0162682 0)
(-0.137534 0.0184365 0)
(-0.202853 0.0180075 4.77254e-18)
(-0.256396 0.016082 -3.99889e-18)
(-0.29903 0.0131656 7.74048e-22)
(-0.331598 0.00956464 1.52452e-18)
(-0.355023 0.00551137 0)
(-0.37009 0.00120667 -3.25018e-19)
(-0.377411 -0.00317161 -1.249e-18)
(-0.377498 -0.00744545 -2.83313e-21)
(-0.370912 -0.0114522 2.42538e-18)
(-0.358225 -0.0150581 -2.44277e-18)
(-0.339773 -0.0181434 0)
(-0.315725 -0.0206171 0)
(-0.286064 -0.0223633 0)
(-0.250419 -0.0232855 0)
(-0.208134 -0.0232094 0)
(-0.158603 -0.0218764 -1.27008e-17)
(-0.101294 -0.0192245 0)
(-0.0346027 -0.0150824 1.50628e-17)
(0.0387363 -0.00781771 1.60097e-17)
(0.104433 0.00134804 0)
(0.167906 0.0110423 0)
(0.226231 0.021259 0)
(0.278414 0.0316746 0)
(0.323341 0.0419859 4.00427e-17)
(0.361659 0.0517543 0)
(0.393051 0.061061 0)
(0.420795 0.0695091 -4.4661e-17)
(0.442307 0.0779441 -4.49691e-17)
(0.465591 0.0852008 0)
(0.477669 0.093447 -7.95283e-17)
(0.505482 0.0995737 0)
(0.508701 0.10962 -5.91253e-17)
(0.577696 0.118613 -2.5806e-17)
(0.570715 0.134616 1.40536e-17)
(0.78267 0.162535 1.76866e-17)
(0.764722 -0.117927 -1.2617e-18)
(0.407332 -0.0577709 -1.44233e-17)
(0.158267 -0.00758678 0)
(-0.00582814 0.0150491 4.38289e-17)
(-0.0704395 0.0173396 0)
(-0.0826221 0.0167033 0)
(-0.0856401 0.0163003 0)
(-0.0873645 0.0160062 -2.6053e-17)
(-0.0902059 0.0163061 0)
(-0.0963597 0.017398 -2.49218e-17)
(-0.105302 0.0185877 0)
(-0.114288 0.0189297 0)
(-0.119786 0.0177707 -1.14593e-17)
(-0.11855 0.0147451 0)
(-0.108414 0.0100318 0)
(-0.0874433 0.00383272 0)
(-0.0564705 -0.00331683 0)
(-0.0183212 -0.00900587 0)
(0.0196449 -0.0107119 0)
(0.0427439 -0.00865964 1.54022e-17)
(0.0509631 -0.00486069 -1.78738e-17)
(0.0399168 0.00218991 0)
(-0.00767551 0.0153405 -5.45414e-21)
(-0.0882972 0.0256929 -8.96942e-18)
(-0.158456 0.0270142 0)
(-0.219585 0.0251784 -6.12883e-18)
(-0.269091 0.0217509 0)
(-0.30807 0.0174533 2.23934e-18)
(-0.337399 0.0126277 -9.90764e-19)
(-0.357974 0.00750307 0)
(-0.370516 0.00226025 0)
(-0.375558 -0.00294566 8.02165e-19)
(-0.37354 -0.0079399 -2.06306e-21)
(-0.36504 -0.0125596 0)
(-0.350506 -0.0166936 3.03831e-18)
(-0.330223 -0.0202401 0)
(-0.304325 -0.0231272 3.1264e-18)
(-0.272772 -0.0252585 0)
(-0.235184 -0.0265671 0)
(-0.190926 -0.0268852 0)
(-0.139403 -0.0259407 7.29488e-18)
(-0.0799368 -0.0237452 0)
(-0.0107385 -0.0195351 0)
(0.0592025 -0.0120104 -8.8813e-18)
(0.124873 -0.00234002 0)
(0.18821 0.00791476 0)
(0.246326 0.0188412 1.07983e-17)
(0.29824 0.0300335 -1.15057e-17)
(0.342978 0.0411547 -1.22642e-17)
(0.381239 0.0516488 0)
(0.412763 0.0616735 0)
(0.440432 0.0705539 0)
(0.461353 0.0795612 2.85734e-17)
(0.481803 0.0864084 2.67604e-17)
(0.49028 0.0949638 2.35467e-17)
(0.512913 0.099017 0)
(0.516247 0.110243 1.64502e-17)
(0.584674 0.115636 2.81804e-17)
(0.587011 0.136054 0)
(0.791824 0.154308 -9.79504e-18)
(0.783641 -0.0980456 -8.96918e-19)
(0.458627 -0.0529138 1.15161e-17)
(0.219494 -0.00814825 -2.5244e-17)
(0.0482617 0.012656 0)
(-0.0513658 0.0169356 0)
(-0.0746974 0.0159816 0)
(-0.0810228 0.0157363 0)
(-0.084215 0.0156928 0)
(-0.0878108 0.0163079 0)
(-0.0942328 0.0177065 1.68476e-17)
(-0.103027 0.0190097 1.64787e-17)
(-0.111596 0.019156 0)
(-0.116633 0.0174944 0)
(-0.115114 0.013718 0)
(-0.105059 0.00807616 7.40224e-18)
(-0.0846787 0.000940411 0)
(-0.0550821 -0.00698066 7.62787e-18)
(-0.0193164 -0.0127548 -8.24681e-18)
(0.0161133 -0.0134894 0)
(0.0382629 -0.00989498 -1.13973e-17)
(0.0441706 -0.00393798 0)
(0.0266162 0.00698631 -7.5188e-18)
(-0.0316096 0.0244038 1.52266e-17)
(-0.106289 0.0349107 6.41536e-18)
(-0.171766 0.0349755 0)
(-0.228136 0.0316538 2.19318e-18)
(-0.27374 0.0268107 0)
(-0.309622 0.021272 1.60574e-18)
(-0.336492 0.0153607 0)
(-0.355074 0.00927769 0)
(-0.365948 0.00317521 0)
(-0.369543 -0.00281369 5.8432e-19)
(-0.366221 -0.00851309 -2.26267e-18)
(-0.356529 -0.0137597 0)
(-0.340835 -0.0184586 -1.10936e-18)
(-0.319383 -0.0225204 0)
(-0.292278 -0.0258887 -2.27858e-18)
(-0.259463 -0.0284885 0)
(-0.220555 -0.0302814 0)
(-0.174942 -0.0311084 0)
(-0.122038 -0.0307043 5.25344e-18)
(-0.0609682 -0.0291145 0)
(0.00882987 -0.0249928 6.01238e-18)
(0.0761724 -0.0171739 -6.3903e-18)
(0.141511 -0.007038 0)
(0.204267 0.00381404 -7.33896e-18)
(0.261689 0.0154744 -1.56889e-17)
(0.312783 0.0274455 8.37226e-18)
(0.35664 0.0393295 1.78201e-17)
(0.393936 0.0504697 -1.88794e-17)
(0.424344 0.0610391 -1.98132e-17)
(0.450303 0.07019 0)
(0.468438 0.0793906 -1.94066e-17)
(0.484464 0.0857753 -1.73945e-17)
(0.488749 0.0940545 -1.47707e-17)
(0.508502 0.0968218 0)
(0.512665 0.108022 0)
(0.583489 0.111796 -8.72128e-18)
(0.592064 0.133428 0)
(0.794445 0.146902 6.10809e-18)
(0.798857 -0.0800805 -7.40724e-19)
(0.499199 -0.0475924 -1.10447e-19)
(0.271954 -0.0069741 2.13266e-17)
(0.100479 0.0117433 2.8136e-17)
(-0.0226546 0.0164759 0)
(-0.0636749 0.0153915 -1.96083e-17)
(-0.0746768 0.0150934 0)
(-0.0797434 0.0152649 0)
(-0.084206 0.0161741 0)
(-0.0909251 0.0178655 1.30959e-17)
(-0.0996544 0.0192865 -1.27234e-17)
(-0.107991 0.0192659 0)
(-0.112837 0.0171467 0)
(-0.111354 0.0126775 0)
(-0.101715 0.00616911 -5.87961e-18)
(-0.0823004 -0.00183457 0)
(-0.0544152 -0.0104211 -6.21444e-18)
(-0.0213572 -0.016254 6.80559e-18)
(0.0114162 -0.0161144 0)
(0.0324413 -0.0109103 0)
(0.0357493 -0.00237702 5.76036e-18)
(0.0106372 0.012805 6.24623e-18)
(-0.0514179 0.0331523 -1.20704e-17)
(-0.119998 0.0433227 -5.00004e-18)
(-0.18041 0.0421822 0)
(-0.232307 0.037528 1.70182e-18)
(-0.274519 0.0314396 0)
(-0.307849 0.0247933 -1.26228e-18)
(-0.332763 0.0178872 5.64293e-19)
(-0.349796 0.010902 0)
(-0.359397 0.00397039 0)
(-0.361904 -0.00278885 -9.47637e-19)
(-0.35762 -0.00919308 9.19343e-19)
(-0.347053 -0.0150756 0)
(-0.330512 -0.0203576 -9.03631e-19)
(-0.308207 -0.0249608 0)
(-0.280212 -0.0288424 1.85769e-18)
(-0.246457 -0.0319485 0)
(-0.20656 -0.0342668 0)
(-0.159935 -0.0356476 0)
(-0.106006 -0.035851 -4.28186e-18)
(-0.0436698 -0.0348282 -4.57326e-18)
(0.0253275 -0.0307709 -4.89294e-18)
(0.0909495 -0.0226263 7.29466e-21)
(0.155807 -0.0120989 -5.58005e-18)
(0.217847 -0.000654925 5.97537e-18)
(0.27444 0.0117323 1.27396e-17)
(0.324573 0.0244702 0)
(0.367354 0.0370894 -7.19002e-18)
(0.403397 0.0488468 1.51279e-17)
(0.432213 0.0599064 1.56439e-17)
(0.455784 0.0693065 0)
(0.470362 0.0786047 0)
(0.48202 0.0846221 0)
(0.482875 0.0924777 1.04826e-17)
(0.501457 0.0943399 0)
(0.507336 0.105088 0)
(0.581397 0.107959 6.23074e-18)
(0.594968 0.129594 -3.14512e-18)
(0.796256 0.140179 -4.47361e-18)
(0.811742 -0.0646201 -6.47299e-19)
(0.533162 -0.0416563 -8.9719e-18)
(0.317719 -0.00457537 0)
(0.149659 0.0122012 -2.44014e-17)
(0.0132379 0.0161624 -2.34875e-17)
(-0.0489117 0.0150874 -5.32388e-21)
(-0.0665704 0.0144699 0)
(-0.0740974 0.0147864 0)
(-0.0796376 0.0159576 0)
(-0.0867422 0.0179218 -1.10308e-17)
(-0.0955015 0.0194611 0)
(-0.103754 0.0192991 0)
(-0.108604 0.0167683 5.0849e-18)
(-0.107391 0.01167 0)
(-0.0984241 0.00437486 0)
(-0.08026 -0.0044039 0)
(-0.0543441 -0.0135337 0)
(-0.0241553 -0.0193861 -5.97747e-18)
(0.00572518 -0.0184683 0)
(0.0254238 -0.0116326 8.59224e-18)
(0.0258237 -0.000190085 -5.18442e-18)
(-0.00620639 0.0191584 -5.46463e-18)
(-0.0677663 0.0413528 1.00428e-17)
(-0.13038 0.0508983 8.20921e-18)
(-0.185826 0.0486892 0)
(-0.23367 0.0428761 -1.40076e-18)
(-0.272919 0.0356954 0)
(-0.304058 0.0280504 0)
(-0.327311 0.0202224 -9.53345e-19)
(-0.343046 0.0123831 0)
(-0.351599 0.00465389 0)
(-0.353228 -0.00285484 8.19373e-19)
(-0.348201 -0.00995205 0)
(-0.336972 -0.0164672 0)
(-0.319806 -0.0223369 7.88448e-19)
(-0.296879 -0.027493 0)
(-0.268236 -0.0319053 -1.62294e-18)
(-0.233789 -0.0355393 0)
(-0.193161 -0.0384061 0)
(-0.1458 -0.0403664 0)
(-0.0911298 -0.0412242 0)
(-0.0278304 -0.0406669 3.96605e-18)
(0.0393478 -0.036633 4.22211e-18)
(0.103971 -0.0281845 5.82279e-21)
(0.168267 -0.0173133 4.84195e-18)
(0.229552 -0.00528636 5.16716e-18)
(0.285289 0.00781913 -5.51023e-18)
(0.334436 0.0213162 0)
(0.376086 0.0346599 -6.15872e-18)
(0.410748 0.0470304 6.42333e-18)
(0.437707 0.0585724 -1.30721e-17)
(0.458509 0.0682417 0)
(0.469286 0.0776174 0)
(0.477019 0.083342 -9.76032e-18)
(0.475329 0.090693 -8.16469e-18)
(0.493963 0.0918312 7.09675e-18)
(0.502266 0.101907 5.44789e-18)
(0.579794 0.104198 -4.9522e-18)
(0.597745 0.125263 2.45722e-18)
(0.798236 0.13394 0)
(0.823253 -0.0503352 -5.71439e-19)
(0.562657 -0.0352063 0)
(0.358225 -0.00140718 1.67976e-17)
(0.195475 0.0136512 2.17846e-17)
(0.0529891 0.0163418 -4.7299e-21)
(-0.0293479 0.0150625 1.72468e-17)
(-0.0564543 0.013954 0)
(-0.0672348 0.014294 0)
(-0.0741533 0.0156854 0)
(-0.0817767 0.0179002 4.8834e-18)
(-0.090671 0.0195581 4.68113e-18)
(-0.0989698 0.019278 0)
(-0.103989 0.0163787 -4.48885e-18)
(-0.103236 0.0107111 4.48966e-18)
(-0.0951462 0.00270559 0)
(-0.0784595 -0.0067587 0)
(-0.0547118 -0.016325 0)
(-0.0274746 -0.0221542 2.23835e-21)
(-0.000684975 -0.0205283 0)
(0.0173659 -0.0120288 -1.59875e-17)
(0.0144332 0.0025795 4.80813e-18)
(-0.0224121 0.0256646 4.87802e-18)
(-0.0811272 0.0489101 -4.08846e-22)
(-0.138043 0.057718 -3.48815e-18)
(-0.188799 0.0545803 0)
(-0.232984 0.0477671 0)
(-0.269587 0.0396231 0)
(-0.298775 0.0310697 4.59938e-19)
(-0.320557 0.0223819 8.39381e-19)
(-0.335155 0.0137322 0)
(-0.342813 0.00523612 0)
(-0.343716 -0.0029993 -7.38148e-19)
(-0.338113 -0.0107742 -3.58969e-19)
(-0.326395 -0.0179152 0)
(-0.308794 -0.0243728 0)
(-0.285448 -0.0300893 0)
(-0.256371 -0.0350457 0)
(-0.221455 -0.0392253 0)
(-0.180329 -0.0426594 0)
(-0.132476 -0.0452208 0)
(-0.0773178 -0.0467638 0)
(-0.013609 -0.0465819 0)
(0.0515435 -0.0425161 -5.26511e-21)
(0.115482 -0.033829 4.06689e-18)
(0.179169 -0.0226336 0)
(0.239691 -0.0100284 -9.30702e-18)
(0.294579 0.00379197 -4.94541e-18)
(0.342753 0.0180482 0)
(0.383258 0.0321188 5.49805e-18)
(0.416464 0.0451157 -5.6819e-18)
(0.441373 0.0571586 1.13721e-17)
(0.459168 0.0671337 -1.07454e-17)
(0.466162 0.0765918 0)
(0.470517 0.0820617 6.61486e-21)
(0.467137 0.0888458 6.80365e-18)
(0.486792 0.0893373 -1.18899e-17)
(0.498054 0.0986284 -1.59627e-20)
(0.579053 0.100491 -4.17425e-18)
(0.600939 0.120709 2.00422e-18)
(0.800621 0.128027 3.04762e-18)
(0.833806 -0.0368076 -5.14049e-18)
(0.58887 -0.028515 0)
(0.394512 0.00224013 -8.64088e-20)
(0.237983 0.0158115 -3.18851e-20)
(0.0935821 0.0172288 2.05128e-17)
(-0.00432025 0.0152947 1.66916e-17)
(-0.0439417 0.0136469 0)
(-0.0590356 0.0138274 1.09008e-17)
(-0.0677298 0.015381 0)
(-0.0760485 0.0178204 -4.46624e-18)
(-0.0851943 0.0195964 3.19854e-22)
(-0.0936625 0.0192208 -4.12813e-18)
(-0.0989927 0.0159942 0)
(-0.0988589 0.00981349 -8.21925e-18)
(-0.0918143 0.00116858 0)
(-0.0767766 -0.00889924 0)
(-0.0553378 -0.0188135 0)
(-0.0310798 -0.0245762 5.07536e-18)
(-0.00750088 -0.0222928 0)
(0.00844751 -0.0120858 7.60231e-18)
(0.00195554 0.00584859 -9.02183e-18)
(-0.0370235 0.0319863 0)
(-0.0918616 0.0557961 -5.61529e-22)
(-0.143405 0.063852 0)
(-0.189803 0.0599238 0)
(-0.230658 0.0522552 -1.05598e-18)
(-0.264851 0.04326 0)
(-0.292255 0.0338767 -8.27046e-19)
(-0.312694 0.0243847 -3.80666e-19)
(-0.32627 0.0149652 -8.95178e-20)
(-0.333147 0.00573199 8.64497e-20)
(-0.33344 -0.00320731 3.41874e-19)
(-0.327399 -0.011643 6.67242e-19)
(-0.315342 -0.0194014 0)
(-0.297477 -0.0264452 6.6754e-19)
(-0.273901 -0.0327279 0)
(-0.244593 -0.0382405 0)
(-0.209421 -0.0429823 0)
(-0.168014 -0.0470007 1.43847e-18)
(-0.1199 -0.0501827 0)
(-0.0644825 -0.0524174 0)
(-0.000985779 -0.0525446 3.29585e-18)
(0.0623196 -0.0484051 -3.51186e-18)
(0.12567 -0.0395521 0)
(0.188712 -0.0280392 0)
(0.248473 -0.0148574 4.29971e-18)
(0.302528 -0.000321821 4.56571e-18)
(0.349749 0.0146994 -4.81114e-18)
(0.389106 0.0295089 0)
(0.420791 0.043158 0)
(0.443493 0.0557367 0)
(0.458149 0.0660593 9.36912e-21)
(0.46153 0.0756072 0)
(0.463102 0.0808317 7.01926e-18)
(0.458862 0.0869907 0)
(0.480343 0.0868664 5.19033e-18)
(0.494941 0.0953115 -3.96926e-18)
(0.579278 0.0968225 7.36359e-18)
(0.604705 0.116064 -1.75286e-18)
(0.803462 0.122361 -2.72386e-18)
(0.84359 -0.0240137 4.56128e-19)
(0.612544 -0.0217619 -7.10524e-18)
(0.427358 0.00619433 -1.44249e-17)
(0.277393 0.018492 -3.4797e-20)
(0.133877 0.0188097 -1.94471e-17)
(0.0251445 0.0158845 -1.63403e-17)
(-0.0285077 0.0136081 0)
(-0.0493239 0.0134367 -1.04886e-17)
(-0.0603059 0.015069 0)
(-0.0695441 0.0176997 -4.1808e-18)
(-0.0790715 0.0195913 -3.955e-18)
(-0.0878267 0.019142 3.83317e-18)
(-0.093594 0.015628 -3.79975e-18)
(-0.0942155 0.00898734 3.83803e-18)
(-0.088346 -0.00023094 -3.86125e-18)
(-0.0750771 -0.0108274 4.00219e-18)
(-0.0560306 -0.0210151 0)
(-0.0347392 -0.026669 0)
(-0.0143959 -0.0237495 0)
(-0.00111382 -0.0117975 3.6425e-18)
(-0.0107147 0.00935149 4.25494e-18)
(-0.0497952 0.0379861 0)
(-0.100251 0.0620122 -3.35664e-18)
(-0.146768 0.0693573 0)
(-0.189138 0.0647733 0)
(-0.226937 0.0563806 9.53285e-19)
(-0.258898 0.046633 -8.38133e-19)
(-0.284636 0.0364899 3.79736e-19)
(-0.303822 0.0262449 0)
(-0.316457 0.0160944 1.66996e-19)
(-0.322638 0.00615399 -1.62458e-19)
(-0.322423 -0.00346558 0)
(-0.316047 -0.0125438 -3.16395e-19)
(-0.303785 -0.0209082 6.30372e-19)
(-0.285811 -0.0285336 -6.37889e-19)
(-0.262183 -0.0353856 0)
(-0.232842 -0.0414644 0)
(-0.197622 -0.0467834 0)
(-0.156147 -0.0514017 -1.37179e-18)
(-0.107989 -0.0552231 0)
(-0.0525204 -0.0581292 0)
(0.0101903 -0.0585207 -3.11077e-18)
(0.0719388 -0.0542934 0)
(0.134705 -0.0453359 3.53324e-18)
(0.197069 -0.0335085 -3.78597e-18)
(0.256065 -0.0197521 0)
(0.3093 -0.0045004 4.28186e-18)
(0.355583 0.0112938 9.01528e-18)
(0.393783 0.0268601 -4.67759e-18)
(0.423882 0.0411953 0)
(0.444249 0.0543535 0)
(0.45572 0.0650643 4.19488e-18)
(0.455767 0.0747013 0)
(0.455182 0.0796678 6.25042e-18)
(0.450895 0.0851442 0)
(0.474864 0.0844121 4.65274e-18)
(0.493024 0.0919774 3.55114e-18)
(0.580483 0.0931825 -3.34024e-18)
(0.60908 0.111382 0)
(0.806758 0.116896 2.47859e-18)
(0.852719 -0.0119361 2.97465e-18)
(0.634181 -0.0150282 3.19702e-20)
(0.457353 0.0103454 1.34694e-17)
(0.313962 0.0215493 -3.6936e-20)
(0.173184 0.0209689 3.61414e-21)
(0.0572334 0.0169559 0)
(-0.00940504 0.0138636 0)
(-0.0378594 0.0131892 0)
(-0.0517916 0.0147781 -4.40365e-18)
(-0.0622293 0.0175554 7.95694e-18)
(-0.0722851 0.0195559 0)
(-0.081443 0.0190533 3.61628e-18)
(-0.0877603 0.01529 1.67971e-21)
(-0.0892507 0.00823959 -3.63045e-18)
(-0.0846527 -0.00149116 3.60878e-21)
(-0.0732246 -0.0125486 -3.79973e-18)
(-0.0566002 -0.0229461 0)
(-0.0382309 -0.0284505 0)
(-0.0211173 -0.0249031 0)
(-0.0109153 -0.0111792 -3.49577e-18)
(-0.0228194 0.0128986 0)
(-0.0606335 0.0435514 3.67417e-18)
(-0.106521 0.0675769 3.02277e-18)
(-0.148359 0.0742848 -2.4283e-18)
(-0.187008 0.069173 0)
(-0.221978 0.0601737 0)
(-0.251842 0.0497616 7.76209e-19)
(-0.276 0.0389219 0)
(-0.293994 0.027972 3.29592e-19)
(-0.305743 0.0171285 -7.90394e-20)
(-0.311289 0.00651142 7.74495e-20)
(-0.310638 -0.00376335 -3.07786e-19)
(-0.304015 -0.0134632 0)
(-0.291659 -0.0224187 -6.09992e-19)
(-0.273717 -0.0306176 0)
(-0.250206 -0.0380382 0)
(-0.221023 -0.0446905 1.28185e-18)
(-0.185963 -0.0506 0)
(-0.144628 -0.0558325 0)
(-0.0966346 -0.0603119 0)
(-0.0413097 -0.0638467 0)
(0.0201252 -0.0644745 0)
(0.0806052 -0.0601761 0)
(0.142751 -0.0511584 -6.73938e-18)
(0.204399 -0.0390193 3.61158e-18)
(0.262619 -0.0246919 3.84583e-18)
(0.315032 -0.00872379 -8.15083e-18)
(0.360379 0.00785229 -4.27848e-18)
(0.397403 0.0241968 4.41723e-18)
(0.42585 0.0392578 -4.42357e-18)
(0.443783 0.0530428 0)
(0.452112 0.0641793 3.05168e-21)
(0.44917 0.0738899 -6.50484e-18)
(0.447089 0.0785685 -5.68959e-18)
(0.443534 0.0833057 -4.80063e-18)
(0.470512 0.0819623 -8.52376e-18)
(0.492334 0.0886328 -3.26785e-18)
(0.582634 0.0895612 3.08031e-18)
(0.614054 0.10669 1.41054e-18)
(0.810482 0.111597 -2.31983e-18)
(0.861278 -0.000525236 -3.75932e-19)
(0.654136 -0.00835439 6.46175e-18)
(0.48495 0.0146172 -7.51033e-20)
(0.347955 0.0248723 -3.84046e-20)
(0.211101 0.0235946 1.78663e-17)
(0.0909057 0.0185522 1.56662e-17)
(0.0132026 0.0144579 -1.25677e-17)
(-0.0243266 0.0131473 5.07364e-18)
(-0.0420667 0.0145439 -1.45917e-21)
(-0.0540531 0.017406 -3.83454e-18)
(-0.064806 0.0195029 -3.58104e-18)
(-0.0744824 0.0189645 -3.45417e-18)
(-0.0814516 0.0149881 6.85278e-18)
(-0.0839054 0.00757457 2.77849e-21)
(-0.0806459 -0.00261331 3.49865e-18)
(-0.0710892 -0.0140713 0)
(-0.0568695 -0.024624 3.89011e-18)
(-0.0413469 -0.0299406 0)
(-0.0274207 -0.0257599 -5.19686e-18)
(-0.020432 -0.0103131 -3.36741e-18)
(-0.0338484 0.0163754 -3.79516e-18)
(-0.0695251 0.0486234 3.66109e-21)
(-0.110852 0.0725207 -2.74983e-18)
(-0.14835 0.0786812 2.21903e-18)
(-0.183559 0.0731599 0)
(-0.215885 0.0636582 -8.08971e-19)
(-0.243758 0.0526597 0)
(-0.266395 0.0411814 0)
(-0.283237 0.0295722 -3.13587e-19)
(-0.294133 0.0180731 0)
(-0.299082 0.00681058 0)
(-0.298045 -0.00409251 2.9849e-19)
(-0.29124 -0.0143902 0)
(-0.278883 -0.023918 0)
(-0.261094 -0.0326774 6.05261e-19)
(-0.237854 -0.0406617 0)
(-0.209015 -0.0478912 -1.2655e-18)
(-0.174319 -0.054402 0)
(-0.133339 -0.0602624 1.29917e-18)
(-0.0857123 -0.0654188 0)
(-0.0307123 -0.0695262 0)
(0.0290385 -0.0703716 0)
(0.0884975 -0.066047 0)
(0.149964 -0.0569969 3.24381e-18)
(0.210853 -0.04455 0)
(0.26827 -0.0296567 -7.39919e-18)
(0.319847 -0.012973 3.91599e-18)
(0.364246 0.00439412 -4.09266e-18)
(0.40006 0.0215411 4.20005e-18)
(0.426785 0.037371 4.17084e-18)
(0.442221 0.0518294 0)
(0.44752 0.0634187 3.48381e-18)
(0.441998 0.0731754 8.97982e-18)
(0.439106 0.0775225 -5.25183e-18)
(0.437013 0.0814656 4.44539e-18)
(0.467378 0.0795027 3.9623e-18)
(0.492851 0.0852777 0)
(0.585676 0.085951 -2.89601e-18)
(0.619592 0.102003 -2.63347e-18)
(0.814601 0.106441 0)
(0.869329 0.0102697 -1.33165e-18)
(0.672666 -0.001767 0)
(0.510504 0.0189559 -7.1271e-20)
(0.379624 0.028376 -3.93041e-20)
(0.247409 0.0265855 -1.72163e-17)
(0.125371 0.0206385 -3.09358e-17)
(0.038624 0.0154595 2.49995e-17)
(-0.00830646 0.0133566 -5.04779e-18)
(-0.0309735 0.0144116 4.22672e-18)
(-0.0449479 0.0172733 0)
(-0.0565954 0.0194451 -4.31907e-22)
(-0.0669094 0.0188848 0)
(-0.0746235 0.0147287 -6.59724e-18)
(-0.0781196 0.00699475 3.3456e-18)
(-0.076242 -0.00360083 0)
(-0.0685542 -0.0154063 0)
(-0.0566831 -0.0260676 -3.73012e-18)
(-0.0439004 -0.031161 0)
(-0.0330556 -0.0263307 4.96528e-18)
(-0.0291786 -0.00927107 3.23011e-18)
(-0.0434568 0.0196779 -5.63225e-21)
(-0.0764993 0.0531781 -3.12601e-18)
(-0.113399 0.0768797 -2.52183e-18)
(-0.14688 0.082589 0)
(-0.178898 0.0767655 0)
(-0.208736 0.0668533 7.60103e-19)
(-0.234698 0.055338 0)
(-0.255857 0.0432745 3.16124e-19)
(-0.271568 0.0310491 -2.99235e-19)
(-0.281627 0.0189312 7.25519e-20)
(-0.285996 0.00705516 -7.21041e-20)
(-0.2846 -0.00444757 2.9022e-19)
(-0.277657 -0.0153165 -2.89218e-19)
(-0.265367 -0.0253935 5.85823e-19)
(-0.24783 -0.0346958 -6.00506e-19)
(-0.224997 -0.0432333 0)
(-0.196674 -0.0510387 0)
(-0.162548 -0.0581589 0)
(-0.122138 -0.0646599 -2.44605e-21)
(-0.0750825 -0.0705102 1.29948e-18)
(-0.0206553 -0.0751346 0)
(0.0372116 -0.0761832 0)
(0.0957785 -0.0718954 0)
(0.156497 -0.0628294 0)
(0.216571 -0.0500795 0)
(0.273147 -0.0346269 3.91404e-21)
(0.323855 -0.0172296 0)
(0.367276 0.000937687 7.89804e-18)
(0.401837 0.0189133 -8.05546e-18)
(0.426772 0.0355568 -3.95087e-18)
(0.439678 0.0507314 0)
(0.442126 0.0627889 0)
(0.434491 0.072551 -5.57312e-18)
(0.431486 0.0765124 2.26327e-21)
(0.431514 0.0796098 -4.15199e-18)
(0.465505 0.0770197 3.71973e-18)
(0.494531 0.081906 2.85872e-18)
(0.589541 0.0823462 -2.73961e-18)
(0.625646 0.0973311 2.47521e-18)
(0.819078 0.101409 2.08642e-18)
(0.876917 0.020491 3.16518e-19)
(0.689962 0.00471532 -5.98109e-18)
(0.534295 0.0233236 -2.32911e-17)
(0.409199 0.0319966 -3.97342e-20)
(0.282011 0.0298525 1.66397e-17)
(0.160016 0.0231595 1.53412e-17)
(0.0662117 0.0169037 -6.22539e-18)
(0.0103098 0.0138643 0)
(-0.0183071 0.0144289 0)
(-0.0348275 0.0171832 3.66832e-18)
(-0.0476051 0.0193963 3.37581e-18)
(-0.0586833 0.0188229 0)
(-0.0672294 0.0145174 3.19705e-18)
(-0.0718342 0.00650155 0)
(-0.0713651 -0.00445815 0)
(-0.0655203 -0.0165651 0)
(-0.055913 -0.0272955 0)
(-0.0457332 -0.0321356 3.99721e-18)
(-0.037796 -0.0266442 2.37416e-18)
(-0.036761 -0.00811902 -3.09091e-18)
(-0.0514253 0.0227445 -6.00657e-21)
(-0.0816091 0.0572161 0)
(-0.114291 0.0806927 2.32895e-18)
(-0.14406 0.0860469 0)
(-0.173108 0.0800168 0)
(-0.200588 0.0697745 7.16756e-19)
(-0.224705 0.0578048 -6.50762e-19)
(-0.244413 0.0452049 -3.03362e-19)
(-0.259001 0.0324044 2.88896e-19)
(-0.268225 0.0197038 -1.40756e-19)
(-0.272016 0.00724653 1.40824e-19)
(-0.270268 -0.00482575 -2.85187e-19)
(-0.263212 -0.0162366 2.85702e-19)
(-0.251031 -0.0268361 -1.36867e-21)
(-0.233818 -0.0366584 -5.97151e-19)
(-0.211501 -0.0457325 0)
(-0.183851 -0.0541066 0)
(-0.15049 -0.0618395 0)
(-0.110875 -0.0689928 -2.58195e-18)
(-0.0645985 -0.0755479 -1.29325e-18)
(-0.0110689 -0.0806447 0)
(0.0449119 -0.0818898 0)
(0.102597 -0.0777055 -2.86041e-18)
(0.162489 -0.0686345 0)
(0.221686 -0.0555876 0)
(0.277368 -0.0395833 6.96812e-18)
(0.32716 -0.0214752 -3.67665e-18)
(0.369558 -0.00249891 -7.65499e-18)
(0.402807 0.0163324 4.25154e-21)
(0.42589 0.0338347 7.53624e-18)
(0.436271 0.0497609 3.46935e-18)
(0.436104 0.0622887 0)
(0.426872 0.072003 2.61938e-18)
(0.424452 0.0755165 4.62242e-18)
(0.427166 0.077722 3.92158e-18)
(0.464894 0.0745006 -3.53185e-18)
(0.497301 0.0785174 -2.72158e-18)
(0.594156 0.0787422 2.62593e-18)
(0.632162 0.0926777 -1.18034e-18)
(0.823875 0.0964871 -2.01614e-18)
(0.884078 0.0301752 2.92287e-19)
(0.70617 0.0110802 5.80596e-18)
(0.556545 0.027694 6.37103e-20)
(0.436891 0.0356869 -3.97837e-20)
(0.314885 0.0333189 0)
(0.194377 0.026052 0)
(0.0954377 0.0187891 2.88972e-21)
(0.0312602 0.0147221 0)
(-0.00380042 0.0146373 0)
(-0.0235809 0.0171683 1.3554e-21)
(-0.0377769 0.019372 0)
(-0.0497586 0.0187876 0)
(-0.0592207 0.0143591 3.11266e-18)
(-0.0649911 0.00609585 0)
(-0.0659487 -0.00518988 0)
(-0.0619069 -0.0175592 0)
(-0.0544602 -0.0283265 0)
(-0.0467215 -0.03289 -1.52282e-23)
(-0.0414629 -0.0267381 -2.26397e-18)
(-0.0429034 -0.0069105 5.86721e-18)
(-0.0576336 0.0255448 -6.25809e-21)
(-0.0849224 0.0607543 2.69157e-18)
(-0.11364 0.083999 0)
(-0.139981 0.0890898 1.78128e-18)
(-0.166255 0.0829372 0)
(-0.191489 0.072435 -6.83299e-19)
(-0.213813 0.0600663 1.61773e-21)
(-0.232089 0.0469753 0)
(-0.245555 0.0336388 0)
(-0.253935 0.0203906 2.05331e-22)
(-0.257141 0.00738423 -2.04626e-22)
(-0.255037 -0.00522656 1.39778e-19)
(-0.247871 -0.0171481 0)
(-0.235819 -0.0282403 -5.78471e-19)
(-0.218972 -0.0385549 5.98641e-19)
(-0.19725 -0.0481427 0)
(-0.170399 -0.057071 -1.27912e-18)
(-0.137987 -0.0654138 0)
(-0.0993914 -0.0732286 2.56151e-21)
(-0.0541107 -0.0804907 0)
(-0.00183187 -0.0860322 1.29648e-18)
(0.0523326 -0.0874786 1.33218e-18)
(0.109088 -0.0834593 4.69858e-21)
(0.168069 -0.0743921 -2.98158e-18)
(0.226318 -0.0610546 0)
(0.281039 -0.0445069 -3.76931e-21)
(0.329854 -0.0256919 3.59003e-18)
(0.371169 -0.0058978 4.01256e-21)
(0.403041 0.0138168 3.7516e-18)
(0.424218 0.0322212 -3.22272e-21)
(0.432115 0.0489256 -2.3882e-21)
(0.429629 0.061911 0)
(0.419358 0.0715125 0)
(0.418194 0.0745108 0)
(0.424054 0.0757854 0)
(0.465515 0.0719346 0)
(0.501077 0.0751087 2.59222e-18)
(0.599442 0.0751355 0)
(0.639085 0.0880454 0)
(0.828954 0.0916623 -1.94651e-18)
(0.890841 0.0393546 -1.2878e-19)
(0.721406 0.0173195 0)
(0.577437 0.0320483 6.00337e-20)
(0.462884 0.0394117 -3.9527e-20)
(0.346064 0.0369209 0)
(0.228108 0.0292499 7.59597e-18)
(0.125807 0.0210924 -6.27514e-18)
(0.0542862 0.0159601 0)
(0.0126271 0.0150834 0)
(-0.0110661 0.017263 -3.61321e-18)
(-0.0270409 0.0193908 0)
(-0.0400851 0.0187884 0)
(-0.0505481 0.0142589 -3.04708e-18)
(-0.0575325 0.00577838 0)
(-0.0599355 -0.00579994 -3.04915e-18)
(-0.0576516 -0.0183989 0)
(-0.0522542 -0.0291777 0)
(-0.0467781 -0.0334497 1.79813e-22)
(-0.0439348 -0.026652 0)
(-0.0474498 -0.00568633 -2.76758e-18)
(-0.0620382 0.02807 2.91544e-18)
(-0.0865158 0.0638199 -4.99978e-18)
(-0.111546 0.0868376 2.02202e-18)
(-0.134721 0.0917491 -1.68088e-18)
(-0.158395 0.0855471 0)
(-0.18148 0.0748459 -6.51777e-19)
(-0.202055 0.0621281 1.19808e-18)
(-0.218913 0.0485876 0)
(-0.231255 0.0347519 -1.35084e-19)
(-0.238782 0.0209902 6.68159e-20)
(-0.241388 0.00746669 -6.76476e-20)
(-0.238917 -0.00565132 -1.3798e-19)
(-0.231635 -0.0180516 0)
(-0.219712 -0.0296047 -5.74297e-19)
(-0.203245 -0.0403803 5.98324e-19)
(-0.182158 -0.0504526 0)
(-0.156197 -0.0599121 1.30072e-18)
(-0.124888 -0.0688537 0)
(-0.0875299 -0.077336 1.32554e-18)
(-0.0434728 -0.0852958 0)
(0.00719045 -0.0912729 -1.29242e-18)
(0.0596224 -0.0929407 -1.31498e-18)
(0.115367 -0.0891384 4.8369e-21)
(0.173352 -0.080083 2.92215e-18)
(0.230575 -0.0664618 0)
(0.28426 -0.0493793 -3.32916e-18)
(0.332022 -0.0298615 0)
(0.372182 -0.00924133 3.63228e-18)
(0.402607 0.0113838 0)
(0.421836 0.0307304 -3.46548e-18)
(0.427328 0.0482294 -6.28458e-18)
(0.422873 0.0616428 0)
(0.412153 0.0710561 0)
(0.412872 0.0734703 0)
(0.42222 0.0737841 1.77794e-18)
(0.467313 0.0693121 0)
(0.505768 0.0716767 -7.82151e-21)
(0.605325 0.0715237 0)
(0.646362 0.0834351 1.07434e-18)
(0.834281 0.0869247 1.90154e-18)
(0.897232 0.0480592 0)
(0.735763 0.023428 5.5346e-18)
(0.597116 0.0363733 1.04715e-17)
(0.487343 0.0431451 -3.90261e-20)
(0.375608 0.0406067 0)
(0.260959 0.0326884 -7.55986e-18)
(0.156877 0.023777 0)
(0.0791247 0.0175906 5.1036e-18)
(0.0308685 0.015815 4.21207e-18)
(0.00288961 0.0174978 3.60953e-18)
(-0.0153108 0.0194749 3.24942e-18)
(-0.0296069 0.0188358 3.06166e-18)
(-0.0411609 0.0142219 0)
(-0.0493978 0.00555002 0)
(-0.0532759 -0.00629103 2.97328e-18)
(-0.0527079 -0.0190932 0)
(-0.0492493 -0.0298653 0)
(-0.0458507 -0.0338393 -3.51302e-18)
(-0.0451465 -0.0264233 0)
(-0.0503474 -0.00447617 -2.6066e-18)
(-0.0646553 0.0303251 0)
(-0.0864723 0.0664457 2.32516e-18)
(-0.108096 0.0892461 -1.89699e-18)
(-0.128348 0.0940535 0)
(-0.149576 0.0878646 0)
(-0.170599 0.0770173 1.3813e-21)
(-0.189464 0.0639949 -5.78355e-19)
(-0.20492 0.0500435 0)
(-0.216137 0.0357439 1.31693e-19)
(-0.222803 0.0215017 6.50282e-20)
(-0.2248 0.00749206 -6.61685e-20)
(-0.22195 -0.00610224 0)
(-0.214542 -0.0189495 0)
(-0.202734 -0.0309313 1.42989e-21)
(-0.186637 -0.0421346 -1.38368e-21)
(-0.166192 -0.0526571 0)
(-0.141164 -0.0626168 0)
(-0.11107 -0.0721354 1.35456e-18)
(-0.0751463 -0.0812858 0)
(-0.0325469 -0.0899215 0)
(0.0161261 -0.0963417 0)
(0.0669004 -0.0982688 0)
(0.121537 -0.0947253 2.6993e-18)
(0.178434 -0.0856897 2.85965e-18)
(0.234548 -0.0717917 0)
(0.287115 -0.0541827 0)
(0.333742 -0.0339665 3.43341e-18)
(0.372666 -0.0125123 0)
(0.40157 0.0090491 0)
(0.418826 0.0293727 -3.33486e-18)
(0.42204 0.0476726 3.0016e-18)
(0.416009 0.0614668 0)
(0.405447 0.0706082 0)
(0.408611 0.0723702 0)
(0.421669 0.0717039 -1.70956e-18)
(0.470215 0.0666253 1.56116e-18)
(0.511283 0.0682195 -4.82085e-18)
(0.611731 0.0679046 0)
(0.653943 0.078847 -1.04805e-18)
(0.839821 0.0822657 -1.85231e-18)
(0.903271 0.056316 0)