/*--------------------------------*- C++ -*----------------------------------*\
| =========                 |                                                 |
| \\      /  F ield         | OpenFOAM: The Open Source CFD Toolbox           |
|  \\    /   O peration     | Version:  2.4.0                                 |
|   \\  /    A nd           | Web:      www.OpenFOAM.org                      |
|    \\/     M anipulation  |                                                 |
\*---------------------------------------------------------------------------*/
FoamFile
{
    version     2.0;
    format      ascii;
    class       volScalarField;
    location    "2.64";
    object      p;
}
// * * * * * * * * * * * * * * * * * * * * * * * * * * * * * * * * * * * * * //

dimensions      [0 2 -2 0 0 0 0];

internalField   nonuniform List<scalar> 
6000
(
-0.107147
0.24978
0.207028
0.226758
0.219385
0.224245
0.221502
0.223575
0.221643
0.220777
0.217585
0.217849
0.224753
0.238737
0.242919
0.208299
0.172385
0.177381
0.201458
0.212742
0.204202
0.164611
0.0950009
0.033685
-0.00599744
-0.0233895
-0.021385
-0.00252493
0.0307523
0.075956
0.130229
0.19049
0.25323
0.314172
0.368331
0.410891
0.438719
0.451172
0.45036
0.440442
0.426178
0.411479
0.398531
0.388014
0.379662
0.372805
0.366619
0.360388
0.353596
0.345871
0.336898
0.326329
0.313691
0.298359
0.279225
0.255569
0.223923
0.187056
0.124069
0.0822168
-0.0808091
0.246366
0.207107
0.226608
0.219406
0.224221
0.221501
0.223582
0.221705
0.220868
0.217635
0.217637
0.224032
0.237389
0.241437
0.207436
0.171867
0.177044
0.20147
0.212984
0.205302
0.166078
0.0951444
0.0328766
-0.00704883
-0.0245334
-0.0227109
-0.00392614
0.0293477
0.0745127
0.128762
0.189005
0.251726
0.312653
0.366814
0.409412
0.437355
0.449997
0.449376
0.439638
0.425517
0.410899
0.398022
0.387624
0.379354
0.372542
0.366368
0.360128
0.353312
0.345554
0.336536
0.325906
0.31322
0.297808
0.278572
0.254775
0.222968
0.185836
0.12271
0.0803994
-0.0639205
0.242914
0.207138
0.226519
0.21941
0.224208
0.221497
0.223594
0.221756
0.220945
0.217662
0.217477
0.223316
0.235998
0.239803
0.206294
0.170931
0.176445
0.201555
0.213403
0.205678
0.164921
0.0931077
0.0312597
-0.00811775
-0.025498
-0.0237123
-0.00517787
0.0278765
0.0728847
0.127012
0.187163
0.249828
0.31075
0.364968
0.407692
0.435835
0.448695
0.448297
0.43877
0.424834
0.410381
0.397667
0.387303
0.3791
0.372335
0.366189
0.359964
0.353154
0.345395
0.336371
0.325738
0.312992
0.297534
0.278246
0.254378
0.222506
0.185217
0.1221
0.0795235
-0.0516965
0.239062
0.207349
0.226437
0.219405
0.224192
0.221497
0.22361
0.221804
0.221007
0.217649
0.217171
0.222586
0.234738
0.238409
0.205225
0.169795
0.175623
0.201557
0.213678
0.205183
0.161669
0.0898133
0.0293258
-0.00933103
-0.0266577
-0.0250246
-0.00664233
0.0262473
0.0711385
0.125194
0.185313
0.247993
0.308986
0.36333
0.406224
0.434555
0.447564
0.447306
0.437913
0.424106
0.409768
0.39714
0.386902
0.378787
0.372082
0.365968
0.359753
0.352934
0.34515
0.336086
0.325379
0.312631
0.297115
0.277749
0.253786
0.221785
0.184354
0.121012
0.0785219
-0.0398887
0.234936
0.207727
0.226356
0.219399
0.224172
0.221499
0.22363
0.221854
0.221054
0.217599
0.216852
0.221825
0.233579
0.23722
0.204282
0.168551
0.174587
0.201397
0.213613
0.203743
0.157418
0.0860236
0.0272049
-0.0107896
-0.0280351
-0.0265066
-0.00824193
0.0245505
0.0693877
0.12343
0.183573
0.246321
0.30743
0.361929
0.404992
0.433467
0.446576
0.446396
0.437082
0.423363
0.409119
0.3966
0.386472
0.378453
0.371819
0.365747
0.35955
0.352731
0.344935
0.335855
0.325161
0.312315
0.296737
0.277295
0.253237
0.221124
0.183547
0.120087
0.077597
-0.0283038
0.230698
0.208226
0.226262
0.219401
0.224149
0.221503
0.223653
0.221905
0.22109
0.217517
0.216483
0.221005
0.23242
0.236082
0.203402
0.167246
0.173374
0.201032
0.213136
0.201343
0.152566
0.0819366
0.0248581
-0.0125229
-0.0296307
-0.0281449
-0.00995615
0.0227825
0.0676026
0.121661
0.181852
0.244688
0.305932
0.360593
0.40382
0.432413
0.445601
0.445476
0.436221
0.422578
0.408429
0.396022
0.386011
0.378101
0.37155
0.365528
0.359353
0.352535
0.344724
0.335615
0.324868
0.311988
0.296348
0.276828
0.252674
0.220437
0.182729
0.119077
0.0767009
-0.0175636
0.226448
0.208758
0.226139
0.219416
0.224123
0.221509
0.22368
0.221961
0.221119
0.21741
0.216061
0.220108
0.2312
0.234906
0.202552
0.16593
0.172039
0.200431
0.21223
0.198066
0.147172
0.0776557
0.022263
-0.014507
-0.0314226
-0.0299317
-0.0117863
0.0209207
0.0657391
0.119824
0.180067
0.242997
0.304383
0.359211
0.402604
0.431307
0.444571
0.444494
0.435292
0.421726
0.407681
0.395396
0.385518
0.37773
0.371271
0.365307
0.359159
0.352345
0.34452
0.335384
0.324606
0.311675
0.295971
0.276372
0.252123
0.219762
0.181932
0.118093
0.0758792
-0.00772476
0.22226
0.209251
0.225998
0.219439
0.224096
0.221518
0.223712
0.222022
0.221146
0.217281
0.215588
0.219126
0.229914
0.233625
0.201728
0.164664
0.170639
0.199578
0.210875
0.19407
0.14134
0.0732767
0.0194427
-0.0167017
-0.0333848
-0.0318571
-0.0137335
0.0189532
0.0637754
0.117887
0.178183
0.241206
0.302738
0.357741
0.401307
0.430124
0.443464
0.443431
0.43428
0.420794
0.406863
0.394718
0.38499
0.377339
0.370982
0.365085
0.35897
0.352163
0.344326
0.335167
0.324352
0.311373
0.295609
0.275932
0.25159
0.219108
0.181164
0.117155
0.0751241
0.0014425
0.218196
0.209655
0.225853
0.219458
0.224068
0.221528
0.223749
0.22209
0.221172
0.217134
0.215067
0.218059
0.228495
0.232275
0.200937
0.163518
0.169232
0.198482
0.209083
0.189523
0.13524
0.0688591
0.0164396
-0.0190676
-0.0354918
-0.0339062
-0.0157916
0.0168804
0.0617073
0.115843
0.176188
0.239304
0.300986
0.356171
0.399916
0.428854
0.442268
0.442279
0.433177
0.419777
0.405972
0.393983
0.384425
0.376925
0.370684
0.364861
0.358786
0.351989
0.344143
0.33496
0.32411
0.311085
0.29526
0.275508
0.251075
0.218478
0.180424
0.116269
0.0744192
0.0100929
0.214296
0.209946
0.225704
0.219473
0.224042
0.22154
0.22379
0.222166
0.221201
0.216973
0.214503
0.21691
0.226932
0.230865
0.200185
0.162564
0.167881
0.197172
0.20691
0.184569
0.129034
0.0644372
0.0132973
-0.0215698
-0.0377197
-0.0360624
-0.0179497
0.0147095
0.0595394
0.113695
0.174082
0.237288
0.29912
0.354495
0.398423
0.42749
0.440978
0.44103
0.431978
0.418669
0.405003
0.393191
0.383821
0.37649
0.370376
0.364638
0.358607
0.351824
0.343969
0.334764
0.323879
0.310808
0.294925
0.275098
0.250576
0.217869
0.179707
0.115431
0.0737498
0.018279
0.210582
0.210119
0.225535
0.219508
0.224016
0.221555
0.223836
0.22225
0.221233
0.216802
0.213902
0.215686
0.225227
0.229412
0.199472
0.161872
0.166659
0.195705
0.20443
0.179334
0.122849
0.0600375
0.0100558
-0.0241765
-0.0400458
-0.0383089
-0.0201949
0.0124506
0.0572796
0.111449
0.171871
0.235161
0.297142
0.352711
0.396822
0.426025
0.439585
0.439677
0.430676
0.417464
0.403953
0.392337
0.383178
0.376032
0.370059
0.364414
0.358434
0.351667
0.343806
0.334579
0.32366
0.310543
0.294601
0.274701
0.250092
0.217279
0.179011
0.114637
0.0731063
0.0260297
0.207068
0.210177
0.225341
0.219574
0.223992
0.221573
0.223886
0.222342
0.221271
0.216624
0.213271
0.214397
0.223394
0.227925
0.198803
0.161502
0.16564
0.194197
0.201697
0.173939
0.116782
0.055685
0.00675186
-0.0268591
-0.0424486
-0.0406288
-0.0225135
0.0101155
0.054938
0.109113
0.169561
0.232927
0.295054
0.350819
0.395109
0.424451
0.438082
0.438211
0.429262
0.416157
0.402818
0.391421
0.382493
0.375552
0.369733
0.36419
0.358267
0.35152
0.343653
0.334404
0.32345
0.310288
0.294288
0.274315
0.249619
0.216704
0.178332
0.113883
0.0724822
0.0333801
0.203765
0.210126
0.225114
0.219672
0.223963
0.221596
0.22394
0.222441
0.221314
0.216444
0.212618
0.213055
0.221453
0.226389
0.198203
0.161499
0.164894
0.192773
0.198781
0.168486
0.110908
0.0514038
0.00341928
-0.0295909
-0.0449074
-0.0430056
-0.0248913
0.00771638
0.0525258
0.106698
0.167161
0.230594
0.292858
0.348817
0.393282
0.422761
0.436459
0.436624
0.427729
0.414741
0.401592
0.390439
0.381767
0.375049
0.369398
0.363967
0.358106
0.351382
0.343511
0.33424
0.323252
0.310043
0.293984
0.273939
0.249157
0.216143
0.177669
0.113165
0.071873
0.0403652
0.200679
0.209977
0.224848
0.219801
0.223924
0.221625
0.223997
0.222546
0.221364
0.216264
0.211953
0.211676
0.219429
0.224801
0.197715
0.161899
0.164486
0.191536
0.195781
0.163067
0.105279
0.0472164
8.89113e-05
-0.0323474
-0.0474026
-0.0454228
-0.0273141
0.00526623
0.0500545
0.104213
0.16468
0.228168
0.290561
0.346703
0.391339
0.420947
0.434706
0.434904
0.426067
0.413208
0.40027
0.389387
0.380997
0.374523
0.369055
0.363745
0.357952
0.351255
0.343381
0.334087
0.323063
0.309808
0.293689
0.273572
0.248705
0.215595
0.177021
0.11248
0.0712756
0.047013
0.19781
0.209739
0.224538
0.219946
0.223883
0.221657
0.224058
0.222657
0.221419
0.216089
0.211284
0.210278
0.217351
0.223171
0.197388
0.162728
0.164489
0.190569
0.192802
0.157763
0.0999328
0.0431442
-0.00321111
-0.0351059
-0.0499152
-0.0478643
-0.0297677
0.00277803
0.0475365
0.101671
0.162129
0.225658
0.288169
0.344476
0.389277
0.419002
0.432814
0.433041
0.424266
0.411549
0.398846
0.388263
0.380182
0.373974
0.368703
0.363524
0.357806
0.351139
0.343263
0.333947
0.322886
0.309583
0.293404
0.273214
0.248262
0.21506
0.176385
0.111825
0.0706878
0.0533451
0.195159
0.209426
0.224184
0.220093
0.223852
0.221689
0.224122
0.222772
0.22148
0.21592
0.210622
0.20888
0.215247
0.221518
0.197271
0.164008
0.164988
0.189947
0.18994
0.152648
0.0948956
0.0392069
-0.00645532
-0.0378454
-0.0524274
-0.0503146
-0.0322379
0.000264853
0.0449838
0.0990822
0.159518
0.223074
0.28569
0.342139
0.387093
0.416919
0.430772
0.431024
0.422314
0.409756
0.397314
0.387062
0.379322
0.373402
0.368343
0.363305
0.357669
0.351036
0.343159
0.333819
0.322721
0.309368
0.293128
0.272865
0.247828
0.214536
0.175762
0.111198
0.0701082
0.0593801
0.19272
0.20905
0.223789
0.220235
0.22383
0.221722
0.224192
0.222891
0.221546
0.215761
0.209975
0.207499
0.213147
0.219865
0.197407
0.165747
0.166102
0.189729
0.187281
0.147786
0.0901838
0.0354229
-0.00962077
-0.0405464
-0.0549219
-0.0527585
-0.0347109
-0.00226025
0.0424088
0.0964593
0.156858
0.220424
0.283129
0.339695
0.384784
0.414689
0.428569
0.428839
0.420201
0.40782
0.395668
0.385781
0.378415
0.372807
0.367977
0.36309
0.357541
0.350945
0.343068
0.333705
0.322568
0.309164
0.292861
0.272525
0.247403
0.214023
0.175152
0.110597
0.0695359
0.0651346
0.190489
0.208624
0.223355
0.220363
0.223816
0.22176
0.224264
0.223015
0.221615
0.215614
0.209352
0.206152
0.211078
0.21824
0.19786
0.167966
0.167967
0.189986
0.184897
0.143232
0.0858081
0.0318093
-0.0126869
-0.0431909
-0.0573826
-0.0551813
-0.0371729
-0.00478429
0.039824
0.0938137
0.15416
0.21772
0.280488
0.33715
0.382348
0.412305
0.426193
0.426474
0.417914
0.40573
0.393899
0.384417
0.377458
0.37219
0.367604
0.362879
0.357423
0.350868
0.342993
0.333606
0.322428
0.308971
0.292605
0.272195
0.246988
0.213522
0.174554
0.110021
0.0689705
0.0706236
0.188458
0.20816
0.222889
0.220474
0.223809
0.221811
0.224334
0.223142
0.221689
0.21548
0.208759
0.204854
0.209066
0.216664
0.198642
0.170763
0.170645
0.190797
0.182844
0.139029
0.0817744
0.0283812
-0.0156352
-0.045762
-0.0597938
-0.0575686
-0.0396104
-0.0072944
0.0372417
0.0911575
0.151436
0.214974
0.277773
0.334511
0.379782
0.409761
0.423635
0.423917
0.415441
0.403476
0.392002
0.382964
0.376451
0.371549
0.367226
0.362672
0.357317
0.350806
0.342935
0.333523
0.322303
0.308791
0.292359
0.271875
0.246583
0.213033
0.173969
0.109469
0.0684119
0.0758607
0.186621
0.20767
0.222395
0.220563
0.223804
0.221886
0.224389
0.223275
0.221765
0.21536
0.208202
0.203619
0.207132
0.215157
0.199748
0.174198
0.174187
0.192186
0.181163
0.13521
0.0780849
0.0251522
-0.0184497
-0.0482444
-0.062141
-0.0599066
-0.0420102
-0.0097778
0.0346742
0.0885023
0.148698
0.212195
0.274993
0.33178
0.377086
0.407051
0.420882
0.421154
0.412769
0.401048
0.389967
0.381418
0.375392
0.370886
0.366844
0.362472
0.357223
0.35076
0.342893
0.333457
0.322192
0.308624
0.292125
0.271565
0.246188
0.212556
0.173397
0.10894
0.0678603
0.0808584
0.184969
0.207163
0.221881
0.220628
0.223799
0.221978
0.224435
0.22341
0.221845
0.215254
0.207686
0.202457
0.205296
0.213735
0.201157
0.178279
0.178606
0.194167
0.17988
0.131797
0.0747391
0.0221341
-0.0211159
-0.0506239
-0.0644102
-0.0621819
-0.0443592
-0.0122218
0.0321336
0.0858603
0.145956
0.209392
0.272159
0.328961
0.374258
0.404168
0.417926
0.418174
0.409885
0.398434
0.387788
0.379775
0.37428
0.370201
0.366458
0.362279
0.357142
0.350731
0.34287
0.333408
0.322098
0.308471
0.291903
0.271266
0.245803
0.212092
0.172838
0.108434
0.0673161
0.0856283
0.183493
0.20665
0.221352
0.220665
0.223791
0.222083
0.224476
0.223545
0.221929
0.215164
0.207214
0.201377
0.203572
0.212411
0.202836
0.182977
0.18387
0.19674
0.179006
0.128802
0.0717339
0.0193367
-0.0236214
-0.0528873
-0.0665883
-0.0643818
-0.0466448
-0.014614
0.0296324
0.0832433
0.143226
0.20657
0.269282
0.32606
0.3713
0.401107
0.414756
0.414962
0.406777
0.395624
0.385457
0.37803
0.373112
0.369494
0.36607
0.362094
0.357075
0.350719
0.342866
0.333378
0.322021
0.308332
0.291693
0.270979
0.24543
0.211641
0.172293
0.10795
0.0667795
0.0901815
0.182183
0.206138
0.220816
0.220676
0.223778
0.222198
0.224518
0.22367
0.222015
0.21509
0.206789
0.200386
0.201973
0.211194
0.20474
0.188229
0.189906
0.19988
0.178542
0.126231
0.0690643
0.0167681
-0.0259555
-0.0550227
-0.0686629
-0.0664936
-0.0488543
-0.0169418
0.0271825
0.0806633
0.140517
0.203741
0.266372
0.32308
0.368211
0.397865
0.411364
0.411509
0.403433
0.392607
0.382965
0.37618
0.371888
0.368764
0.365681
0.361918
0.357023
0.350725
0.342881
0.333367
0.321961
0.308209
0.291497
0.270704
0.245069
0.211203
0.171762
0.107489
0.0662511
0.0945285
0.18103
0.205635
0.220278
0.220662
0.223757
0.22232
0.224563
0.22378
0.222107
0.215029
0.20641
0.199488
0.200508
0.210093
0.20682
0.193948
0.196604
0.203542
0.178479
0.124079
0.0667236
0.0144345
-0.028109
-0.0570192
-0.0706223
-0.0685054
-0.0509757
-0.0191931
0.0247961
0.0781327
0.137841
0.200917
0.263438
0.320029
0.364993
0.394436
0.407741
0.407801
0.39984
0.389373
0.380306
0.374219
0.370605
0.368013
0.365292
0.361754
0.356987
0.350751
0.342917
0.333376
0.321919
0.308101
0.291314
0.270442
0.24472
0.210779
0.171246
0.107048
0.0657313
0.0986793
0.180024
0.205145
0.219743
0.220624
0.223728
0.222447
0.224613
0.223873
0.222202
0.214985
0.206076
0.198686
0.199185
0.209113
0.209025
0.200027
0.203828
0.207659
0.178799
0.122337
0.0647038
0.0123405
-0.0300741
-0.0588668
-0.0724556
-0.0704057
-0.052997
-0.0213557
0.0224852
0.0756643
0.135204
0.198113
0.260489
0.316911
0.361648
0.390819
0.40388
0.403831
0.395987
0.385911
0.377471
0.372144
0.369263
0.367241
0.364903
0.361601
0.356968
0.350796
0.342974
0.333406
0.321896
0.30801
0.291146
0.270192
0.244384
0.21037
0.170744
0.106629
0.0652206
0.102644
0.179157
0.204674
0.219216
0.220565
0.22369
0.222577
0.224664
0.223954
0.222292
0.214959
0.205782
0.197984
0.198007
0.208258
0.211309
0.206348
0.211424
0.212155
0.179478
0.120991
0.0629955
0.010489
-0.0318445
-0.0605567
-0.0741523
-0.0721834
-0.0549066
-0.0234178
0.0202618
0.0732707
0.13262
0.195339
0.257533
0.313732
0.358177
0.387011
0.399774
0.399587
0.391863
0.382211
0.374453
0.36995
0.36786
0.366449
0.364518
0.361462
0.356968
0.350861
0.343051
0.333456
0.321892
0.307936
0.290993
0.269957
0.244061
0.209975
0.170258
0.10623
0.0647195
0.106431
0.178418
0.204225
0.218703
0.220489
0.223643
0.222706
0.224715
0.224026
0.22237
0.214951
0.205533
0.197378
0.196977
0.20753
0.213631
0.212792
0.219236
0.216942
0.180486
0.12002
0.0615885
0.00888132
-0.033415
-0.0620807
-0.075703
-0.0738279
-0.056693
-0.0253675
0.0181384
0.0709618
0.1301
0.192608
0.254579
0.3105
0.354583
0.38301
0.39542
0.395061
0.38746
0.378265
0.371244
0.367634
0.366395
0.365636
0.364136
0.361337
0.356986
0.350947
0.34315
0.333527
0.321907
0.307879
0.290855
0.269735
0.243751
0.209594
0.169787
0.105851
0.0642284
0.110049
0.177799
0.203802
0.218205
0.220398
0.223589
0.222832
0.224766
0.224094
0.222427
0.214959
0.205329
0.196864
0.196099
0.206931
0.215957
0.219243
0.22711
0.221931
0.181792
0.119404
0.0604713
0.00751753
-0.0347816
-0.0634315
-0.0770986
-0.0753291
-0.0583453
-0.0271932
0.0161277
0.0687478
0.127659
0.18993
0.251638
0.30722
0.35087
0.378817
0.390811
0.390247
0.382767
0.374063
0.367839
0.365193
0.364866
0.364804
0.363759
0.361229
0.357024
0.351053
0.343271
0.333619
0.321942
0.307839
0.290732
0.269528
0.243455
0.209229
0.169333
0.105492
0.0637479
0.113508
0.177292
0.203406
0.217727
0.220296
0.223528
0.222955
0.224814
0.224159
0.22246
0.21498
0.205169
0.19644
0.195376
0.206459
0.218259
0.225594
0.234908
0.227033
0.18336
0.119118
0.059632
0.00639632
-0.0359412
-0.0646027
-0.0783307
-0.076677
-0.0598526
-0.0288834
0.0142409
0.0666419
0.125307
0.187315
0.248718
0.303901
0.347041
0.374431
0.385947
0.385139
0.377777
0.369598
0.364232
0.362622
0.363275
0.363954
0.363388
0.361137
0.357082
0.351181
0.343412
0.333732
0.321996
0.307817
0.290625
0.269335
0.243174
0.208879
0.168894
0.105151
0.0632785
0.116815
0.176888
0.203038
0.217271
0.220188
0.223463
0.223072
0.224858
0.22422
0.22247
0.215006
0.205051
0.196102
0.194811
0.206113
0.220514
0.231754
0.242504
0.232162
0.185155
0.119134
0.0590574
0.00551528
-0.0368919
-0.0655886
-0.0793914
-0.0778626
-0.0612047
-0.0304268
0.0124895
0.0646564
0.123058
0.184775
0.245829
0.300548
0.343101
0.369855
0.380825
0.379732
0.372484
0.364863
0.360416
0.35992
0.361619
0.363085
0.363026
0.361065
0.357163
0.351331
0.343575
0.333865
0.322069
0.307813
0.290534
0.269157
0.242907
0.208545
0.168473
0.104829
0.0628206
0.119978
0.17658
0.2027
0.216839
0.220075
0.223396
0.223183
0.224899
0.224277
0.222462
0.215031
0.204975
0.195849
0.194397
0.205897
0.222706
0.237643
0.249795
0.237242
0.187141
0.119425
0.0587342
0.00487087
-0.0376323
-0.0663841
-0.0802735
-0.0788769
-0.0623916
-0.0318122
0.0108855
0.0628032
0.120921
0.18232
0.242981
0.29717
0.339056
0.365091
0.375444
0.374022
0.366882
0.359852
0.356387
0.357084
0.359898
0.362201
0.362673
0.361012
0.357265
0.351503
0.343759
0.334018
0.322161
0.307825
0.290458
0.268994
0.242655
0.208226
0.168067
0.104525
0.0623748
0.123005
0.176359
0.202392
0.216431
0.219961
0.223329
0.223288
0.224936
0.224329
0.222439
0.215051
0.204939
0.19568
0.194122
0.205823
0.224822
0.243201
0.256695
0.242201
0.189283
0.119959
0.0586513
0.00445785
-0.0381606
-0.0669846
-0.0809704
-0.0797118
-0.0634034
-0.0330282
0.00944035
0.0610936
0.118909
0.179962
0.240184
0.293775
0.334911
0.360143
0.369806
0.368009
0.360967
0.354561
0.352141
0.354112
0.358114
0.3613
0.362331
0.360981
0.357391
0.351697
0.343963
0.334191
0.322272
0.307855
0.290399
0.268846
0.242418
0.207924
0.16768
0.104238
0.0619416
0.125902
0.176219
0.202113
0.216049
0.219849
0.223263
0.223388
0.22497
0.224374
0.222407
0.215063
0.204938
0.195593
0.193971
0.205906
0.226849
0.248384
0.263136
0.246981
0.191537
0.120706
0.0588009
0.00427016
-0.0384756
-0.067386
-0.0814757
-0.0803593
-0.0642303
-0.0340643
0.00816507
0.0595386
0.117033
0.177712
0.237447
0.290371
0.330673
0.355016
0.363913
0.361691
0.354737
0.348985
0.347674
0.351002
0.356265
0.360386
0.362001
0.360972
0.357541
0.351914
0.344188
0.334383
0.3224
0.307902
0.290355
0.268713
0.242196
0.207637
0.167309
0.103968
0.0615214
0.128677
0.176153
0.201865
0.215694
0.21974
0.223201
0.223483
0.225002
0.224413
0.222368
0.215069
0.20497
0.195589
0.193944
0.206149
0.22878
0.253162
0.269068
0.251531
0.193838
0.12167
0.0591716
0.00430268
-0.0385775
-0.0675849
-0.0817837
-0.0808115
-0.0648633
-0.0349104
0.00707005
0.0581488
0.115303
0.175581
0.234781
0.286967
0.326349
0.349715
0.357769
0.35507
0.34819
0.343121
0.342986
0.347755
0.354353
0.359459
0.361686
0.360987
0.357716
0.352153
0.344434
0.334594
0.322546
0.307965
0.290327
0.268596
0.24199
0.207367
0.166956
0.103715
0.0611147
0.131334
0.176156
0.201646
0.215366
0.219638
0.223143
0.223576
0.225032
0.224447
0.222324
0.215073
0.205032
0.195665
0.19404
0.206543
0.230619
0.257522
0.274456
0.255806
0.196143
0.122833
0.0597494
0.00455017
-0.0384675
-0.0675784
-0.0818888
-0.0810613
-0.0652937
-0.0355572
0.00616522
0.0569347
0.11373
0.17358
0.232197
0.283572
0.32195
0.344249
0.35138
0.348148
0.341328
0.33697
0.338073
0.344369
0.352378
0.358522
0.361387
0.361028
0.357917
0.352415
0.3447
0.334823
0.322709
0.308044
0.290315
0.268493
0.241799
0.207112
0.166621
0.103478
0.0607219
0.133882
0.176221
0.201455
0.215064
0.219543
0.223093
0.223667
0.225062
0.224476
0.222279
0.21508
0.205121
0.19582
0.194258
0.207059
0.232392
0.261459
0.279276
0.259763
0.198432
0.124166
0.0605203
0.00500685
-0.0381473
-0.0673642
-0.0817864
-0.0811019
-0.0655135
-0.0359957
0.00546004
0.0559063
0.112326
0.171719
0.229703
0.280195
0.317483
0.338626
0.344752
0.340931
0.334151
0.330531
0.332936
0.340845
0.350343
0.357575
0.361105
0.361095
0.358144
0.3527
0.344985
0.33507
0.322889
0.30814
0.290318
0.268407
0.241624
0.206875
0.166303
0.103256
0.0603434
0.136324
0.176342
0.201293
0.214788
0.219456
0.22305
0.223757
0.225094
0.224502
0.222233
0.215095
0.205239
0.196053
0.194596
0.207677
0.234122
0.264976
0.28352
0.263373
0.200682
0.125642
0.0614712
0.00566642
-0.0376189
-0.0669406
-0.0814722
-0.0809273
-0.0655153
-0.0362176
0.00496351
0.0550735
0.111101
0.170009
0.22731
0.276848
0.312959
0.332856
0.337893
0.333425
0.326665
0.323806
0.327576
0.337185
0.348248
0.356621
0.360842
0.36119
0.358398
0.353009
0.34529
0.335334
0.323085
0.308251
0.290336
0.268335
0.241465
0.206654
0.166004
0.10305
0.0599795
0.138666
0.176516
0.201159
0.214538
0.21938
0.223016
0.223849
0.225129
0.224528
0.222191
0.215122
0.205387
0.196362
0.195051
0.208397
0.235815
0.268081
0.287196
0.26662
0.202862
0.127234
0.0625891
0.00652227
-0.0368847
-0.0663062
-0.0809423
-0.0805318
-0.0652923
-0.0362152
0.0046841
0.0544457
0.110066
0.168462
0.225029
0.27354
0.308389
0.326949
0.330814
0.325638
0.318877
0.316801
0.321996
0.33339
0.346097
0.355663
0.360601
0.361315
0.358681
0.353341
0.345615
0.335614
0.323296
0.308376
0.290369
0.268279
0.241322
0.20645
0.165723
0.102859
0.0596306
0.140913
0.176737
0.201051
0.214314
0.219314
0.222992
0.223943
0.22517
0.224557
0.222155
0.215168
0.205571
0.196745
0.195621
0.209221
0.237469
0.270789
0.290345
0.269472
0.204949
0.128921
0.0638616
0.00756751
-0.0359475
-0.0654602
-0.0801936
-0.0799106
-0.0648382
-0.0359813
0.00462979
0.0540319
0.10923
0.167087
0.222869
0.270282
0.303786
0.320919
0.323526
0.317582
0.310795
0.30952
0.3162
0.329464
0.343891
0.354702
0.360382
0.361469
0.358991
0.353697
0.345959
0.335912
0.323523
0.308517
0.290417
0.268238
0.241195
0.206262
0.16546
0.102684
0.0592969
0.14307
0.177001
0.20097
0.214115
0.21926
0.222979
0.22404
0.225219
0.22459
0.22213
0.215235
0.205795
0.197202
0.196303
0.210149
0.239069
0.273152
0.293018
0.271899
0.206919
0.130681
0.0652765
0.00879512
-0.0348103
-0.0644025
-0.0792235
-0.0790593
-0.0641474
-0.0355094
0.004808
0.0538408
0.108603
0.165894
0.220841
0.267085
0.299162
0.314779
0.316044
0.30927
0.302432
0.301974
0.310193
0.32541
0.341634
0.353741
0.360189
0.361655
0.359331
0.354077
0.346322
0.336225
0.323764
0.308672
0.29048
0.268212
0.241084
0.206091
0.165216
0.102524
0.0589787
0.145141
0.177304
0.200914
0.21394
0.219217
0.222976
0.224142
0.225276
0.224632
0.222119
0.215327
0.206063
0.197733
0.197094
0.211176
0.240612
0.275237
0.295219
0.273897
0.208752
0.132494
0.0668217
0.0101979
-0.0334766
-0.0631331
-0.0780299
-0.0779741
-0.0632151
-0.0347936
0.0052256
0.0538808
0.108196
0.164893
0.218954
0.263962
0.294531
0.308544
0.308383
0.300718
0.293804
0.294175
0.303985
0.321233
0.33933
0.352784
0.360022
0.361874
0.359701
0.354481
0.346704
0.336555
0.324019
0.308841
0.290557
0.2682
0.240989
0.205938
0.164991
0.102378
0.0586761
0.14713
0.177641
0.200882
0.21379
0.219186
0.222984
0.22425
0.225343
0.224685
0.222127
0.21545
0.206382
0.19834
0.197988
0.212296
0.242102
0.27707
0.29697
0.27549
0.210435
0.13434
0.0684858
0.0117687
-0.0319499
-0.0616528
-0.0766111
-0.0766519
-0.0620368
-0.0338286
0.00588887
0.0541595
0.108017
0.164094
0.217219
0.260924
0.289909
0.302231
0.300562
0.291947
0.28493
0.286138
0.297585
0.31694
0.336982
0.351832
0.359884
0.362127
0.360101
0.354909
0.347106
0.336899
0.324289
0.309023
0.290648
0.268204
0.240909
0.205801
0.164784
0.102247
0.0583893
0.149041
0.17801
0.200875
0.213662
0.219168
0.223004
0.224364
0.225421
0.224751
0.222157
0.215606
0.206754
0.199023
0.198981
0.213503
0.243541
0.278664
0.298303
0.276703
0.211957
0.136202
0.070257
0.0134999
-0.0302343
-0.0599627
-0.0749664
-0.0750901
-0.0606089
-0.0326099
0.00680351
0.0546845
0.108075
0.163505
0.215646
0.257983
0.28531
0.295858
0.292601
0.282981
0.275834
0.277883
0.291008
0.312539
0.334596
0.35089
0.359776
0.362414
0.360532
0.355362
0.347525
0.337259
0.324571
0.309219
0.290752
0.268222
0.240846
0.20568
0.164596
0.10213
0.0581186
0.150877
0.178408
0.200891
0.213558
0.219162
0.223036
0.224485
0.225511
0.224832
0.222214
0.2158
0.207184
0.199786
0.200067
0.214785
0.244928
0.280025
0.299254
0.277559
0.213308
0.138062
0.0721241
0.0153842
-0.028334
-0.0580645
-0.0730954
-0.073287
-0.0589285
-0.0311336
0.00797458
0.0554626
0.108377
0.163135
0.214243
0.255154
0.280751
0.289443
0.284523
0.273847
0.266544
0.269434
0.284268
0.308038
0.332178
0.34996
0.359701
0.362737
0.360994
0.355839
0.347964
0.337634
0.324867
0.309427
0.29087
0.268254
0.240798
0.205577
0.164426
0.102028
0.0578639
0.152643
0.17883
0.200929
0.213476
0.219169
0.223079
0.224614
0.225614
0.224929
0.222299
0.216034
0.207674
0.200627
0.201242
0.216132
0.246262
0.281161
0.299856
0.27808
0.214484
0.139904
0.0740757
0.0174138
-0.0262537
-0.0559603
-0.0709983
-0.0712415
-0.0569934
-0.0293965
0.00940655
0.0565001
0.108933
0.162991
0.21302
0.252448
0.276248
0.283008
0.276356
0.264578
0.257096
0.260818
0.277387
0.303449
0.329733
0.349046
0.35966
0.363097
0.361488
0.35634
0.348421
0.338023
0.325176
0.309648
0.291001
0.268301
0.240766
0.20549
0.164275
0.101941
0.0576256
0.15434
0.179274
0.200989
0.213415
0.219188
0.223133
0.22475
0.22573
0.225044
0.222414
0.216313
0.208227
0.201548
0.202498
0.21753
0.247538
0.282076
0.300137
0.278288
0.215483
0.141713
0.0761001
0.0195807
-0.0239982
-0.053653
-0.0686761
-0.068953
-0.054802
-0.0273963
0.0111032
0.0578032
0.109748
0.16308
0.211986
0.249879
0.271819
0.276575
0.268129
0.255211
0.247528
0.252069
0.270387
0.298785
0.327269
0.348153
0.359656
0.363494
0.362013
0.356867
0.348896
0.338427
0.325498
0.309882
0.291145
0.268362
0.24075
0.205421
0.164143
0.101868
0.0574037
0.155972
0.179738
0.20107
0.213376
0.21922
0.2232
0.224895
0.225859
0.225176
0.222561
0.216636
0.208843
0.202547
0.203829
0.218966
0.24875
0.282774
0.300122
0.278206
0.216304
0.143475
0.0781859
0.0218765
-0.0215731
-0.0511457
-0.0661303
-0.0664219
-0.0523538
-0.0251313
0.0130679
0.0593771
0.110829
0.16341
0.21115
0.247459
0.267481
0.270167
0.259875
0.245787
0.237885
0.243224
0.263294
0.294059
0.324793
0.347284
0.359691
0.36393
0.362571
0.357417
0.34939
0.338845
0.325831
0.310127
0.291302
0.268436
0.240748
0.205367
0.164029
0.101809
0.0571984
0.157543
0.180219
0.201171
0.213357
0.219265
0.223278
0.225048
0.226002
0.225327
0.222739
0.217005
0.209522
0.203621
0.205228
0.220426
0.249888
0.28326
0.299833
0.277854
0.21695
0.145176
0.080321
0.0242925
-0.0189842
-0.0484424
-0.0633634
-0.0636493
-0.0496489
-0.0226006
0.0153031
0.0612266
0.112182
0.163984
0.21052
0.245203
0.263254
0.263811
0.251629
0.236354
0.228216
0.234327
0.256137
0.28929
0.322314
0.346443
0.359766
0.364406
0.363161
0.357992
0.349901
0.339276
0.326177
0.310384
0.291471
0.268524
0.240763
0.205331
0.163934
0.101764
0.0570099
0.159053
0.180715
0.201291
0.213359
0.219323
0.223367
0.22521
0.226159
0.225497
0.222948
0.217417
0.210261
0.204766
0.206687
0.221898
0.250941
0.283535
0.299287
0.277255
0.217423
0.146805
0.0824937
0.0268195
-0.0162379
-0.0455476
-0.0603783
-0.0606369
-0.046688
-0.019804
0.0178111
0.0633563
0.11381
0.164809
0.210104
0.243123
0.259155
0.257533
0.243431
0.226961
0.218574
0.225425
0.24895
0.284496
0.319842
0.345636
0.359884
0.364921
0.363783
0.358592
0.35043
0.339721
0.326534
0.310652
0.291653
0.268626
0.240792
0.20531
0.163858
0.101733
0.0568384
0.160507
0.181224
0.20143
0.21338
0.219394
0.223469
0.225381
0.226329
0.225686
0.223186
0.21787
0.211057
0.205975
0.208196
0.223368
0.251894
0.283604
0.298502
0.276428
0.21773
0.148355
0.0846918
0.0294474
-0.0133416
-0.0424665
-0.0571789
-0.0573875
-0.0434731
-0.0167422
0.0205933
0.0657696
0.115719
0.165887
0.209909
0.241231
0.255203
0.251361
0.235324
0.217661
0.209017
0.216567
0.241769
0.279696
0.317386
0.344866
0.360046
0.365477
0.364438
0.359215
0.350977
0.34018
0.326902
0.310931
0.291846
0.26874
0.240837
0.205307
0.163801
0.101716
0.056684
0.161907
0.181744
0.201587
0.213421
0.219478
0.223582
0.225561
0.226513
0.225892
0.223452
0.21836
0.211904
0.207242
0.209745
0.224821
0.252739
0.283473
0.29749
0.275397
0.217877
0.149816
0.0869038
0.0321658
-0.010303
-0.0392052
-0.0537698
-0.0539046
-0.0400066
-0.0134163
0.023651
0.0684697
0.117909
0.167222
0.209941
0.23954
0.251417
0.245327
0.22735
0.20851
0.199604
0.207807
0.234632
0.274915
0.314957
0.344139
0.360255
0.366074
0.365125
0.359862
0.351541
0.340651
0.327281
0.311221
0.29205
0.268868
0.240896
0.205319
0.163762
0.101713
0.0565472
0.163253
0.182273
0.201761
0.21348
0.219575
0.223707
0.22575
0.22671
0.226117
0.223745
0.218883
0.212793
0.208555
0.211325
0.226246
0.253468
0.283147
0.296263
0.274181
0.217876
0.151186
0.0891186
0.0349638
-0.00713079
-0.0357705
-0.0501566
-0.0501924
-0.0362919
-0.00982829
0.0269848
0.0714591
0.120383
0.168814
0.210206
0.238062
0.247816
0.23946
0.219556
0.199565
0.190392
0.199199
0.227579
0.270176
0.312568
0.343461
0.360512
0.366712
0.365844
0.360533
0.352121
0.341135
0.327671
0.311522
0.292266
0.269008
0.240971
0.205348
0.163742
0.101723
0.0564281
0.16455
0.18281
0.201952
0.213558
0.219685
0.223843
0.225948
0.226921
0.226358
0.224063
0.219436
0.213719
0.209905
0.212921
0.227632
0.254077
0.282629
0.294832
0.272801
0.217737
0.152462
0.0913259
0.0378302
-0.00383452
-0.0321702
-0.0463456
-0.0462562
-0.0323331
-0.00598047
0.0305952
0.0747392
0.123141
0.170665
0.21071
0.236807
0.244419
0.233792
0.211987
0.190881
0.181441
0.190794
0.22065
0.265503
0.310231
0.342835
0.36082
0.367393
0.366595
0.361226
0.352718
0.341631