/*--------------------------------*- C++ -*----------------------------------*\
| =========                 |                                                 |
| \\      /  F ield         | OpenFOAM: The Open Source CFD Toolbox           |
|  \\    /   O peration     | Version:  2.4.0                                 |
|   \\  /    A nd           | Web:      www.OpenFOAM.org                      |
|    \\/     M anipulation  |                                                 |
\*---------------------------------------------------------------------------*/
FoamFile
{
    version     2.0;
    format      ascii;
    class       volScalarField;
    location    "3.62";
    object      nut;
}
// * * * * * * * * * * * * * * * * * * * * * * * * * * * * * * * * * * * * * //

dimensions      [0 2 -1 0 0 0 0];

internalField   nonuniform List<scalar> 
6000
(
4.70152e-05
1.44402e-05
4.25067e-06
8.77598e-06
7.78972e-06
8.92951e-06
8.57386e-06
8.95101e-06
8.83201e-06
9.04505e-06
9.08642e-06
9.31915e-06
9.54721e-06
9.93649e-06
1.03917e-05
1.09439e-05
1.15149e-05
1.20997e-05
1.26874e-05
1.33263e-05
1.40697e-05
1.49749e-05
1.60684e-05
1.73452e-05
1.87679e-05
2.02815e-05
2.18255e-05
2.33449e-05
2.47933e-05
2.6132e-05
2.73267e-05
2.83442e-05
2.91493e-05
2.97024e-05
2.99573e-05
2.98569e-05
2.93408e-05
2.83412e-05
2.67876e-05
2.46269e-05
2.18594e-05
1.85636e-05
1.5915e-05
1.91408e-05
2.25752e-05
2.59063e-05
2.88725e-05
3.1356e-05
3.32364e-05
3.46126e-05
3.53715e-05
3.58826e-05
3.57478e-05
3.5934e-05
3.50507e-05
3.56951e-05
3.37719e-05
3.60289e-05
3.22306e-05
3.71681e-05
2.94898e-05
9.50614e-06
3.1685e-06
7.01471e-06
6.32359e-06
7.01939e-06
6.78e-06
7.01693e-06
6.94975e-06
7.10092e-06
7.15913e-06
7.35168e-06
7.56357e-06
7.89571e-06
8.29175e-06
8.76631e-06
9.27496e-06
9.81861e-06
1.04025e-05
1.10659e-05
1.18477e-05
1.27765e-05
1.38515e-05
1.50459e-05
1.63154e-05
1.76122e-05
1.88933e-05
2.01261e-05
2.12881e-05
2.23655e-05
2.33506e-05
2.42404e-05
2.50361e-05
2.57437e-05
2.63737e-05
2.69447e-05
2.75056e-05
2.8155e-05
2.90946e-05
3.0743e-05
3.39687e-05
4.03052e-05
4.41789e-05
3.45192e-05
2.91998e-05
2.66634e-05
2.55744e-05
2.51721e-05
2.50336e-05
2.4973e-05
2.48337e-05
2.46781e-05
2.43231e-05
2.41225e-05
2.35158e-05
2.35742e-05
2.25541e-05
2.34068e-05
2.15562e-05
2.36154e-05
2.14309e-05
8.15952e-06
2.81611e-06
5.88994e-06
5.32764e-06
5.68447e-06
5.50233e-06
5.63995e-06
5.60701e-06
5.72602e-06
5.81191e-06
6.00567e-06
6.24716e-06
6.59777e-06
7.03044e-06
7.55475e-06
8.15645e-06
8.85057e-06
9.66463e-06
1.06428e-05
1.18211e-05
1.3208e-05
1.47741e-05
1.64631e-05
1.8213e-05
1.99706e-05
2.16986e-05
2.33752e-05
2.49934e-05
2.65596e-05
2.80932e-05
2.9628e-05
3.12161e-05
3.29349e-05
3.48873e-05
3.7199e-05
4.01286e-05
4.40962e-05
4.98469e-05
5.87344e-05
7.31857e-05
9.62838e-05
0.000106281
7.58343e-05
5.47006e-05
4.16479e-05
3.36818e-05
2.86845e-05
2.54402e-05
2.32163e-05
2.16166e-05
2.03884e-05
1.93867e-05
1.85713e-05
1.77995e-05
1.72873e-05
1.65498e-05
1.64906e-05
1.55464e-05
1.59983e-05
1.78746e-05
7.96898e-06
2.98956e-06
5.26119e-06
4.70515e-06
4.77013e-06
4.59876e-06
4.65889e-06
4.64851e-06
4.75732e-06
4.88517e-06
5.11927e-06
5.43981e-06
5.88733e-06
6.46225e-06
7.18192e-06
8.06834e-06
9.16586e-06
1.05403e-05
1.22606e-05
1.43757e-05
1.68802e-05
1.97126e-05
2.27782e-05
2.59883e-05
2.92772e-05
3.26043e-05
3.59508e-05
3.93197e-05
4.27379e-05
4.62604e-05
4.99771e-05
5.40233e-05
5.86022e-05
6.38852e-05
7.01662e-05
7.80072e-05
8.82135e-05
0.000102072
0.000121613
0.000149789
0.000187956
0.000197349
0.000149219
0.000108974
8.002e-05
6.00801e-05
4.64182e-05
3.70348e-05
3.04455e-05
2.57793e-05
2.23192e-05
1.97702e-05
1.77285e-05
1.62049e-05
1.48639e-05
1.38892e-05
1.30247e-05
1.23295e-05
1.1785e-05
1.67546e-05
8.44488e-06
3.53675e-06
5.03993e-06
4.40768e-06
4.18783e-06
3.98526e-06
3.97599e-06
3.98008e-06
4.09714e-06
4.2868e-06
4.60553e-06
5.06821e-06
5.71144e-06
6.56992e-06
7.6874e-06
9.14087e-06
1.10304e-05
1.34862e-05
1.66242e-05
2.05156e-05
2.51393e-05
3.03957e-05
3.61543e-05
4.23083e-05
4.87847e-05
5.55355e-05
6.25309e-05
6.97653e-05
7.72687e-05
8.51161e-05
9.344e-05
0.000102444
0.000112427
0.000123341
0.000135731
0.000150279
0.000167871
0.000189801
0.000217875
0.000254244
0.00029685
0.00030025
0.000244382
0.000190439
0.000145994
0.00011135
8.50174e-05
6.54022e-05
5.08628e-05
4.02241e-05
3.22949e-05
2.64845e-05
2.19705e-05
1.87081e-05
1.58993e-05
1.40467e-05
1.2153e-05
1.11632e-05
9.82736e-06
1.71085e-05
9.3978e-06
4.39324e-06
5.14859e-06
4.41307e-06
3.89289e-06
3.61618e-06
3.53456e-06
3.54702e-06
3.69008e-06
3.96955e-06
4.42954e-06
5.12233e-06
6.09975e-06
7.44774e-06
9.26465e-06
1.17138e-05
1.49835e-05
1.92871e-05
2.47829e-05
3.15383e-05
3.94939e-05
4.85179e-05
5.84765e-05
6.9278e-05
8.08507e-05
9.31163e-05
0.000105986
0.000119384
0.00013327
0.000147659
0.000162637
0.000178372
0.00019496
0.000212084
0.000230423
0.000250552
0.000273172
0.000299265
0.000330133
0.000367104
0.000405235
0.000401787
0.000345766
0.00028606
0.000231666
0.000184752
0.000145503
0.000113606
8.82143e-05
6.85238e-05
5.33264e-05
4.18594e-05
3.29657e-05
2.64285e-05
2.10461e-05
1.73672e-05
1.38769e-05
1.19604e-05
9.73765e-06
1.83892e-05
1.07092e-05
5.51805e-06
5.507e-06
4.69851e-06
3.87e-06
3.47319e-06
3.30677e-06
3.32222e-06
3.51062e-06
3.9192e-06
4.59734e-06
5.64567e-06
7.15527e-06
9.28964e-06
1.2237e-05
1.62788e-05
2.17049e-05
2.87836e-05
3.76472e-05
4.82911e-05
6.06034e-05
7.44702e-05
8.98218e-05
0.000106613
0.000124752
0.000144061
0.0001643
0.000185221
0.000206618
0.000228353
0.000250374
0.000272745
0.000295014
0.000316982
0.000339283
0.000362334
0.000386637
0.000412893
0.000442044
0.000474798
0.000504643
0.000495574
0.00044291
0.000382931
0.000324278
0.000269822
0.000220757
0.000177853
0.000141329
0.000111206
8.68347e-05
6.76262e-05
5.24069e-05
4.08266e-05
3.1491e-05
2.47312e-05
1.87917e-05
1.50904e-05
1.16443e-05
2.02058e-05
1.22754e-05
6.86795e-06
6.06278e-06
5.2097e-06
4.11696e-06
3.55687e-06
3.28622e-06
3.29942e-06
3.5561e-06
4.14783e-06
5.14873e-06
6.72565e-06
9.03623e-06
1.23498e-05
1.69727e-05
2.33103e-05
3.17131e-05
4.24039e-05
5.53771e-05
7.05069e-05
8.76821e-05
0.000106905
0.000128232
0.000151657
0.000176997
0.000203882
0.00023183
0.000260349
0.000289017
0.000317512
0.000345629
0.000373285
0.000399506
0.000424472
0.000448667
0.000472387
0.000495991
0.000519999
0.000545146
0.000571587
0.000592527
0.000579313
0.00053091
0.000473325
0.000414123
0.000356211
0.00030116
0.000250283
0.000204553
0.000164756
0.000131029
0.000103229
8.05172e-05
6.25479e-05
4.80748e-05
3.69914e-05
2.77077e-05
2.11852e-05
1.60367e-05
2.2247e-05
1.39957e-05
8.39094e-06
6.80861e-06
5.86433e-06
4.61978e-06
3.87493e-06
3.48105e-06
3.48771e-06
3.84097e-06
4.6866e-06
6.14554e-06
8.47087e-06
1.19101e-05
1.68543e-05
2.37285e-05
3.30166e-05
4.50287e-05
5.98113e-05
7.71495e-05
9.68367e-05
0.000118875
0.00014347
0.000170818
0.000200892
0.000233336
0.000267518
0.000302668
0.000338041
0.000373012
0.000407098
0.000439972
0.000471314
0.000500032
0.000526519
0.000551142
0.00057411
0.000595695
0.000616306
0.00063657
0.000656154
0.000668883
0.000652613
0.000608119
0.000553773
0.000495908
0.000437198
0.000379244
0.000323505
0.000271296
0.000223865
0.000182004
0.000146078
0.00011577
9.08841e-05
7.06338e-05
5.4383e-05
4.10939e-05
3.08124e-05
2.34971e-05
2.42784e-05
1.57761e-05
1.0028e-05
7.74727e-06
6.60466e-06
5.32809e-06
4.42271e-06
3.9023e-06
3.90284e-06
4.38735e-06
5.57193e-06
7.64721e-06
1.09667e-05
1.58775e-05
2.28815e-05
3.24837e-05
4.51559e-05
6.10511e-05
7.99617e-05
0.000101493
0.000125466
0.000152094
0.000181811
0.000214905
0.000251261
0.00029029
0.00033107
0.000372555
0.000413774
0.000453937
0.000492442
0.000528878
0.000562622
0.000592771
0.000619769
0.000643894
0.000665296
0.000684196
0.000700948
0.00071609
0.000729055
0.000734571
0.000715875
0.00067445
0.000623235
0.000567418
0.00050937
0.000450579
0.00039244
0.000336321
0.000283634
0.00023555
0.000192836
0.000155695
0.000124158
9.80796e-05
7.63689e-05
5.87798e-05
4.416e-05
3.43602e-05
2.61484e-05
1.75361e-05
1.17181e-05
8.86496e-06
7.42452e-06
6.16145e-06
5.16325e-06
4.54489e-06
4.55135e-06
5.20774e-06
6.82106e-06
9.67247e-06
1.42178e-05
2.08932e-05
3.02724e-05
4.28717e-05
5.90527e-05
7.87431e-05
0.000101498
0.000126844
0.00015473
0.00018561
0.000220108
0.000258538
0.000300642
0.000345577
0.000392142
0.000439049
0.000485146
0.000529514
0.000571459
0.000610531
0.000645737
0.000676575
0.000703414
0.000726461
0.000745832
0.000761722
0.000774473
0.000784548
0.000791391
0.00079063
0.000769787
0.000730472
0.000681855
0.000628149
0.000571433
0.000513039
0.00045422
0.000396234
0.000340454
0.000288175
0.000240393
0.000197705
0.000160356
0.000128872
0.000101897
8.00423e-05
6.09439e-05
4.85253e-05
2.77812e-05
1.92134e-05
1.34041e-05
1.01284e-05
8.34653e-06
7.05617e-06
6.03059e-06
5.37082e-06
5.41091e-06
6.28206e-06
8.40265e-06
1.21611e-05
1.8104e-05
2.67309e-05
3.86306e-05
5.42587e-05
7.38028e-05
9.69684e-05
0.000123157
0.000151924
0.000183393
0.000218226
0.000257165
0.00030049
0.000347773
0.000397922
0.000449495
0.000501001
0.000551147
0.000598912
0.00064353
0.000684475
0.000720537
0.000751541
0.000777763
0.000799358
0.000816419
0.000829139
0.000837873
0.000843084
0.000844311
0.000838033
0.000815093
0.000776981
0.000730282
0.000678432
0.000623252
0.000565924
0.000507535
0.000449164
0.000392036
0.000337384
0.000286277
0.000239544
0.000197549
0.000161414
0.000129726
0.000103883
8.05311e-05
6.55073e-05
2.91564e-05
2.07657e-05
1.50372e-05
1.1492e-05
9.38562e-06
7.99641e-06
6.96335e-06
6.31491e-06
6.42252e-06
7.54377e-06
1.02209e-05
1.49609e-05
2.23836e-05
3.30194e-05
4.74177e-05
6.59197e-05
8.85222e-05
0.000114764
0.000143993
0.000175863
0.000210668
0.000249211
0.000292279
0.000340074
0.000391991
0.000446719
0.000502613
0.000558019
0.000611531
0.000662047
0.000708738
0.000750951
0.000787454
0.000818242
0.00084352
0.000863402
0.000877976
0.000887443
0.000892212
0.000892793
0.000888841
0.00087762
0.000852504
0.000814797
0.000769338
0.000718958
0.000665268
0.000609316
0.000552031
0.000494292
0.000437126
0.000381595
0.000328726
0.00027942
0.000234085
0.000194252
0.000158634
0.000129254
0.000102121
8.46068e-05
3.02874e-05
2.21686e-05
1.65792e-05
1.29056e-05
1.05376e-05
8.99917e-06
7.93494e-06
7.31629e-06
7.50973e-06
8.89304e-06
1.21321e-05
1.78579e-05
2.67474e-05
3.93342e-05
5.60874e-05
7.72058e-05
0.000102514
0.000131454
0.000163403
0.000198146
0.000236107
0.000278162
0.000325079
0.000376949
0.000433007
0.00049175
0.000551376
0.000610094
0.000666412
0.000719158
0.00076745
0.000810467
0.000847087
0.000877368
0.000901453
0.000919432
0.000931391
0.000937565
0.000938462
0.000934615
0.000925839
0.000910088
0.000882656
0.000844687
0.000799849
0.000750524
0.000698158
0.000643685
0.000587889
0.000531452
0.000475189
0.000419939
0.000366611
0.000316045
0.000268659
0.000226164
0.00018752
0.000155179
0.000124882
0.000105065
3.12038e-05
2.34132e-05
1.80039e-05
1.43202e-05
1.17812e-05
1.00835e-05
8.95208e-06
8.34614e-06
8.6132e-06
1.02343e-05
1.39896e-05
2.06354e-05
3.0897e-05
4.52942e-05
6.41916e-05
8.76386e-05
0.000115319
0.000146644
0.000181066
0.000218509
0.000259487
0.000304881
0.000355389
0.000410977
0.000470734
0.000533001
0.000595852
0.000657388
0.000716048
0.000770594
0.000820108
0.000863559
0.000900034
0.000929573
0.00095227
0.000968195
0.000977442
0.000980329
0.000977434
0.000969328
0.000956004
0.000936016
0.000906107
0.00086733
0.000822582
0.000773921
0.000722668
0.000669664
0.000615559
0.000560854
0.00050615
0.000452049
0.000399295
0.000348588
0.000300315
0.000256185
0.000215453
0.000180803
0.000148032
0.000126156
3.19397e-05
2.45012e-05
1.9296e-05
1.56927e-05
1.30837e-05
1.12549e-05
1.00335e-05
9.40918e-06
9.71099e-06
1.15106e-05
1.56896e-05
2.31301e-05
3.46071e-05
5.06221e-05
7.14271e-05
9.69265e-05
0.000126693
0.00016015
0.000196851
0.000236851
0.000280716
0.000329282
0.000383141
0.000442121
0.000505186
0.000570547
0.000636187
0.000700119
0.000760726
0.000816712
0.000867122
0.000910714
0.000946824
0.000975425
0.000996572
0.00101032
0.00101679
0.00101641
0.00100979
0.000997564
0.000979903
0.000955878
0.000923341
0.000883319
0.00083822
0.000789878
0.000739526
0.000687923
0.000635605
0.000582901
0.000530209
0.000477891
0.000426509
0.000376571
0.00032841
0.000283596
0.000241688
0.000205411
0.000170876
0.000147235
3.2528e-05
2.54419e-05
2.04498e-05
1.69882e-05
1.44066e-05
1.25034e-05
1.11942e-05
1.05264e-05
1.08139e-05
1.27123e-05
1.71905e-05
2.5258e-05
3.77506e-05
5.51601e-05
7.76313e-05
0.000104933
0.000136547
0.00017193
0.000210745
0.000253162
0.000299776
0.000351343
0.000408322
0.000470395
0.000536417
0.000604494
0.000672544
0.000738506
0.000800719
0.000857833
0.000908814
0.000952344
0.000987899
0.0010154
0.00103485
0.00104632
0.00105
0.00104637
0.00103607
0.00101983
0.00099799
0.000970069
0.000934772
0.000893164
0.000847358
0.000799046
0.0007494
0.000699115
0.00064862
0.000598083
0.000547711
0.000497635
0.000448226
0.000399782
0.000352559
0.000307905
0.000265657
0.000228433
0.000192828
0.000167753
3.29975e-05
2.62487e-05
2.14667e-05
1.81817e-05
1.57102e-05
1.38063e-05
1.24368e-05
1.17166e-05
1.19523e-05
1.38635e-05
1.85043e-05
2.70087e-05
4.02906e-05
5.88536e-05
8.27518e-05
0.00011163
0.000144889
0.000182023
0.000222795
0.000267479
0.000316683
0.000371066
0.000430939
0.000495828
0.000564491
0.000634947
0.000705072
0.000772739
0.000836259
0.000894225
0.000945502
0.000988788
0.00102362
0.00104986
0.00106751
0.00107663
0.0010775
0.00107062
0.00105671
0.00103653
0.00101064
0.000978922
0.00094076
0.000897304
0.000850513
0.000801998
0.000752894
0.000703845
0.000655178
0.000606914
0.000559073
0.000511571
0.000464585
0.0004182
0.000372578
0.000328808
0.000286963
0.000249439
0.000213413
0.000187267
3.33724e-05
2.69367e-05
2.23539e-05
1.92574e-05
1.6958e-05
1.51323e-05
1.37512e-05
1.29891e-05
1.31597e-05
1.50039e-05
1.96762e-05
2.84235e-05
4.22569e-05
6.17223e-05
8.68104e-05
0.000117059
0.000151783
0.000190511
0.000233083
0.000279864
0.000331473
0.000388469
0.000451007
0.000518449
0.000589465
0.000661997
0.000733897
0.000802981
0.000867538
0.00092611
0.000977441
0.00102032
0.00105427
0.00107913
0.00109486
0.0011016
0.00109965
0.00108954
0.00107204
0.001048
0.00101816
0.000982719
0.000941616
0.000896123
0.000848135
0.000799237
0.000750546
0.000702662
0.000655819
0.000609896
0.000564735
0.000520047
0.00047582
0.000431928
0.000388433
0.000346152
0.00030535
0.000268122
0.00023227
0.000205428
3.3672e-05
2.75213e-05
2.31218e-05
2.02085e-05
1.81194e-05
1.64455e-05
1.51163e-05
1.4342e-05
1.44534e-05
1.61875e-05
2.07644e-05
2.95721e-05
4.37204e-05
6.38336e-05
8.98742e-05
0.000121293
0.000157318
0.00019749
0.000241698
0.000290388
0.000344191
0.000403575
0.000468542
0.000538284
0.000611385
0.000685717
0.00075912
0.000829356
0.000894705
0.000953658
0.00100483
0.00104714
0.00108008
0.00110343
0.0011172
0.00112153
0.00111674
0.00110341
0.00108235
0.00105452
0.0010208
0.000981708
0.000937616
0.000889953
0.000840619
0.000791207
0.000742835
0.000696065
0.000651042
0.00060751
0.000565136
0.000523439
0.000482221
0.000441156
0.000400198
0.000359903
0.000320683
0.000284286
0.000249137
0.000221983
3.3912e-05
2.8017e-05
2.37826e-05
2.10352e-05
1.91713e-05
1.77092e-05
1.65024e-05
1.57623e-05
1.58371e-05
1.74595e-05
2.18338e-05
3.05342e-05
4.47728e-05
6.52809e-05
9.20344e-05
0.000124428
0.000161591
0.00020306
0.000248736
0.000299129
0.00035489
0.000416414
0.000483564
0.000555354
0.000630287
0.000706161
0.000780815
0.000851961
0.000917875
0.000976981
0.00102783
0.00106943
0.00110122
0.00112299
0.00113474
0.00113663
0.00112899
0.00111245
0.00108787
0.00105631
0.00101879
0.000976106
0.000929009
0.000879097
0.00082832
0.000778309
0.000730194
0.000684508
0.000641307
0.000600205
0.0005607
0.000522126
0.000484106
0.000446121
0.000408019
0.000370112
0.000332922
0.000297825
0.000263846
0.000236756
3.41048e-05
2.8437e-05
2.43494e-05
2.17435e-05
2.00992e-05
1.88894e-05
1.78738e-05
1.7227e-05
1.73033e-05
1.88297e-05
2.29749e-05
3.13893e-05
4.55134e-05
6.61708e-05
9.3395e-05
0.000126562
0.000164697
0.000207315
0.000254287
0.000306166
0.000363629
0.000427023
0.000496095
0.000569678
0.000646197
0.000723368
0.00079904
0.000870866
0.000937133
0.000996178
0.00104655
0.00108729
0.00111784
0.00113797
0.00114767
0.0011471
0.00113661
0.00111688
0.00108881
0.00105356
0.00101232
0.000966112
0.000916023
0.000863827
0.00081156
0.000760908
0.000713023
0.000668412
0.000627044
0.000588408
0.000551835
0.000516486
0.000481804
0.000447092
0.00041209
0.000376895
0.0003421
0.00030871
0.000276303
0.000249642
3.42598e-05
2.87928e-05
2.48348e-05
2.23432e-05
2.08969e-05
1.9958e-05
1.91926e-05
1.87045e-05
1.88337e-05
2.02958e-05
2.42202e-05
3.22641e-05
4.60404e-05
6.66142e-05
9.40655e-05
0.000127796
0.00016673
0.000210345
0.000258439
0.000311582
0.000370479
0.000435453
0.000506167
0.00058128
0.000659138
0.00073737
0.000813835
0.000886122
0.000952542
0.00101131
0.00106105
0.00110084
0.00113008
0.00114852
0.00115614
0.00115308
0.00113975
0.00111684
0.00108533
0.00104646
0.00100157
0.000951914
0.000898873
0.000844404
0.000790643
0.000739349
0.000691699
0.000648173
0.00060866
0.000572523
0.000538934
0.000506885
0.000475647
0.000444352
0.000412637
0.00038041
0.000348306
0.00031697
0.000286478
0.000260592
3.43849e-05
2.90945e-05
2.52507e-05
2.28464e-05
2.15655e-05
2.08942e-05
2.04215e-05
2.01574e-05
2.04007e-05
2.1844e-05
2.55745e-05
3.32328e-05
4.65104e-05
6.67217e-05
9.41576e-05
0.000128232
0.000167778
0.000212232
0.000261275
0.00031546
0.000375516
0.000441767
0.000513827
0.000590192
0.000669137
0.000748193
0.00082523
0.000897761
0.000964078
0.00102242
0.00107144
0.00111019
0.00113806
0.00115477
0.00116027
0.00115472
0.00113855
0.00111249
0.00107759
0.00103516
0.000986706
0.000933693
0.000877769
0.000821077
0.000765865
0.000713967
0.000666586
0.000624179
0.000586551
0.000552946
0.00052238
0.000493687
0.000465967
0.000438192
0.000409905
0.000380847
0.00035167
0.00032268
0.000294395
0.000269609
3.44861e-05
2.93506e-05
2.56078e-05
2.32662e-05
2.21121e-05
2.16859e-05
2.15279e-05
2.15447e-05
2.19681e-05
2.34496e-05
2.70294e-05
3.43117e-05
4.70351e-05
6.66884e-05
9.37845e-05
0.000127974
0.000167931
0.000213056
0.000262874
0.000317885
0.000378829
0.000446043
0.000519138
0.000596461
0.00067623
0.000755866
0.00083318
0.000905747
0.000971795
0.00102959
0.0010778
0.00111544
0.00114188
0.00115681
0.00116017
0.00115213
0.00113314
0.00110396
0.00106571
0.00101981
0.000967888
0.000911626
0.000852922
0.000794098
0.00073752
0.000685095
0.000638051
0.000596815
0.00056111
0.000530067
0.000502551
0.000477249
0.000453097
0.000428911
0.000404155
0.00037842
0.000352354
0.000325952
0.000300117
0.00027673
3.4568e-05
2.95682e-05
2.59153e-05
2.36157e-05
2.2548e-05
2.23296e-05
2.24856e-05
2.28259e-05
2.34937e-05
2.50782e-05
2.85636e-05
3.55008e-05
4.76469e-05
6.66301e-05
9.31882e-05
0.000127144
0.000167276
0.000212893
0.000263312
0.000318944
0.000380514
0.000448379
0.000522184
0.000600153
0.000680392
0.000760327
0.000837708
0.000910123
0.000975752
0.0010329
0.0010802
0.00111666
0.00114162
0.00115474
0.00115594
0.00114542
0.00112362
0.00109138
0.00104985
0.00100056
0.000945278
0.000885898
0.000824548
0.000763724
0.00070591
0.000653079
0.000606472
0.000566479
0.000532744
0.000504286
0.000479833
0.000457935
0.000437373
0.00041681
0.000395657
0.000373358
0.000350542
0.000326926
0.000303742
0.000282029
3.46344e-05
2.97532e-05
2.61812e-05
2.39071e-05
2.28873e-05
2.28295e-05
2.32774e-05
2.39637e-05
2.49319e-05
2.6687e-05
3.01441e-05
3.67853e-05
4.83591e-05
6.6596e-05
9.24477e-05
0.000125943
0.000166011
0.000211844
0.000262664
0.000318723
0.000380672
0.000448884
0.000522991
0.000601238
0.000681646
0.000761625
0.000838857
0.000910933
0.00097601
0.0010324
0.00107872
0.00111393
0.00113736
0.00114864
0.00114768
0.00113468
0.00111012
0.00107485
0.00103012
0.000977548
0.000919041
0.0008567
0.000792874
0.000730229
0.000671355
0.000618281
0.000572245
0.00053359
0.000501875
0.000476019
0.000454625
0.000436118
0.000419138
0.000402197
0.000384691
0.000365905
0.000346439
0.000325767
0.000305396
0.000285603
3.46883e-05
2.99108e-05
2.6412e-05
2.41515e-05
2.31456e-05
2.31961e-05
2.38955e-05
2.49277e-05
2.62374e-05
2.82273e-05
3.17276e-05
3.81358e-05
4.91674e-05
6.66163e-05
9.16266e-05
0.000124452
0.000164212
0.000210034
0.000261044
0.000317306
0.000379364
0.00044759
0.000521636
0.000599809
0.000680072
0.000759825
0.000836684
0.000908232
0.000972636
0.00102817
0.00107342
0.00110733
0.00112918
0.0011386
0.00113548
0.00112002
0.00109273
0.00105451
0.00100667
0.00095093
0.000889352
0.000824236
0.000758145
0.000693906
0.000634201
0.000581094
0.000535799
0.000498598
0.000468959
0.000445709
0.000427345
0.000412188
0.00039875
0.000385411
0.000371551
0.000356316
0.000340265
0.000322656
0.000305225
0.000287562
3.47321e-05
3.00452e-05
2.66132e-05
2.43583e-05
2.33381e-05
2.34447e-05
2.43417e-05
2.56966e-05
2.73686e-05
2.96478e-05
3.32629e-05
3.95105e-05
5.005e-05
6.67018e-05
9.07716e-05
0.000122741
0.000161952
0.000207526
0.000258506
0.000314753
0.000376667
0.000444598
0.000518235
0.000595977
0.000675769
0.000755013
0.00083126
0.000902109
0.000965707
0.00102028
0.00106438
0.00109692
0.00111717
0.00112471
0.00111944
0.00110155
0.00107158
0.00103048
0.000979632
0.000920865
0.000856398
0.000788729
0.000720629
0.000655076
0.000594825
0.000541948
0.000497604
0.000461992
0.000434488
0.000413837
0.000398447
0.000386561
0.000376586
0.000366792
0.000356545
0.000344863
0.000332254
0.000317792
0.000303397
0.000288048
3.47677e-05
3.01598e-05
2.67893e-05
2.45355e-05
2.34795e-05
2.35936e-05
2.46259e-05
2.62596e-05
2.82913e-05
3.0898e-05
3.46933e-05
4.0857e-05
5.09699e-05
6.68439e-05
8.99101e-05
0.000120866
0.000159299
0.000204382
0.000255101
0.000311118
0.000372656
0.00044001
0.000512912
0.000589873
0.000668859
0.000747294
0.000822672
0.000892663
0.000955314
0.00100881
0.00105169
0.00108281
0.00110142
0.00110707
0.00109965
0.00107936
0.00104677
0.00100288
0.000949154
0.000887526
0.000820382
0.000750424
0.000680625
0.000614097
0.000553645
0.000501314
0.000458173
0.000424311
0.000399003
0.000380922
0.000368418
0.000359685
0.000353048
0.000346702
0.000339995
0.000331832
0.000322658
0.000311392
0.000300095
0.000287222
3.47967e-05
3.02576e-05
2.69439e-05
2.46895e-05
2.35827e-05
2.36621e-05
2.47651e-05
2.66172e-05
2.89815e-05
3.19328e-05
3.59611e-05
4.21152e-05
5.18763e-05
6.70152e-05
8.90496e-05
0.000118869
0.000156315
0.000200664
0.000250886
0.000306455
0.0003674
0.000433927
0.000505794
0.000581639
0.000659481
0.000736794
0.000811064
0.000880013
0.000941567
0.000993883
0.00103544
0.00106509
0.00108202
0.00108578
0.00107623
0.00105358
0.00101845
0.000971871
0.000915399
0.000851102
0.000781531
0.000709595
0.000638463
0.000571365
0.000511126
0.000459714
0.000418069
0.000386139
0.000363088
0.00034753
0.000337788
0.000332042
0.000328569
0.000325529
0.000322247
0.000317526
0.000311743
0.000303685
0.00029552
0.000285257
3.48202e-05
3.03412e-05
2.70801e-05
2.48253e-05
2.36588e-05
2.36694e-05
2.47806e-05
2.67802e-05
2.94275e-05
3.27155e-05
3.70113e-05
4.32217e-05
5.27086e-05
6.71725e-05
8.81776e-05
0.000116774
0.000153049
0.00019643
0.000245912
0.000300816
0.000360965
0.000426443
0.000497011
0.000571425
0.000647792
0.000723662
0.000796606
0.000864302
0.000924596
0.000975603
0.00101576
0.00104387
0.0010591
0.00106095
0.00104929
0.00102434
0.000986741
0.000937593
0.000878545
0.000811802
0.000740095
0.000666548
0.000594517
0.000527328
0.000467781
0.000417722
0.000377908
0.00034811
0.000327375
0.000314272
0.000307128
0.000304152
0.000303612
0.000303686
0.000303667
0.000302267
0.000299791
0.000294918
0.000289886
0.000282341
3.48393e-05
3.04127e-05
2.72004e-05
2.49467e-05
2.37168e-05
2.36332e-05
2.46967e-05
2.67678e-05
2.96305e-05
3.32218e-05
3.77963e-05
4.41135e-05
5.34e-05
6.72593e-05
8.72632e-05
0.000114584
0.00014954
0.000191735
0.000240237
0.000294254
0.000353411
0.000417642
0.000486681
0.000559383
0.000633957
0.00070809
0.000779473
0.000845695
0.000904554
0.000954118
0.000992778
0.00101929
0.00103277
0.00103272
0.00101898
0.00099178
0.000951802
0.000900221
0.000838787
0.000769858
0.000696359
0.000621631
0.000549208
0.000482481
0.000424178
0.000375958
0.000338343
0.000310894
0.000292529
0.000281788
0.00027704
0.000276568
0.000278672
0.000281616
0.000284647
0.000286397
0.000287103
0.000285352
0.000283421
0.000278671
3.48549e-05
3.04738e-05
2.73066e-05
2.50565e-05
2.37639e-05
2.35694e-05
2.45379e-05
2.66061e-05
2.96037e-05
3.34415e-05
3.82797e-05
4.47337e-05
5.38825e-05
6.72103e-05
8.626e-05
0.000112286
0.000145808
0.000186622
0.00023391
0.000286818
0.000344794
0.000407602
0.000474917
0.000545656
0.000618144
0.000690305
0.000759859
0.000824376
0.000881613
0.000929588
0.000966643
0.000991483
0.00100319
0.00100123
0.000985428
0.000956048
0.0009138
0.000859942
0.000796344
0.000725533
0.000650643
0.000575236
0.000503008
0.000437376
0.00038093
0.00033508
0.000300054
0.000275174
0.000259224
0.000250732
0.000248145
0.000249864
0.000254266
0.000259787
0.000265598
0.000270279
0.000273994
0.000275263
0.000276369
0.000274455
3.48675e-05
3.05262e-05
2.74007e-05
2.51566e-05
2.38052e-05
2.34909e-05
2.43279e-05
2.63249e-05
2.93715e-05
3.33798e-05
3.84402e-05
4.50355e-05
5.40923e-05
6.69568e-05
8.51103e-05
0.00010985
0.000141859
0.000181126
0.000226982
0.00027856
0.000335165
0.00039639
0.000461816
0.00053038
0.00060055
0.000670502
0.000737968
0.000800546
0.000855964
0.000902195
0.000937529
0.000960621
0.000970511
0.00096663
0.000948809
0.000917318
0.000872922
0.000816967
0.000751463
0.000679125
0.000603312
0.000527808
0.000456446
0.000392612
0.000338689
0.000295761
0.000263716
0.000241615
0.00022811
0.000221736
0.000221049
0.000224613
0.000230923
0.00023868
0.000246949
0.000254287
0.000260795
0.000264938
0.00026898
0.000269909
3.48776e-05
3.05711e-05
2.7484e-05
2.52486e-05
2.38443e-05
2.34083e-05
2.40882e-05
2.59554e-05
2.8966e-05
3.30558e-05
3.82732e-05
4.49874e-05
5.39749e-05
6.64322e-05
8.37507e-05
0.00010723
0.000137681
0.00017527
0.000219495
0.000269528
0.000324573
0.000384061
0.00044746
0.00051367
0.000581366
0.000648873
0.000714008
0.000774414
0.000827811
0.000872134
0.000905623
0.000926883
0.00093491
0.000929107
0.0009093
0.00087578
0.000829373
0.000771531
0.000704422
0.000630972
0.000554781
0.000479848
0.000410103
0.000348831
0.00029812
0.00025866
0.000229962
0.000210819
0.000199768
0.000195368
0.000196313
0.00020136
0.000209166
0.00021878
0.000229133
0.000238805
0.000247844
0.000254674
0.000261515
0.000265255
3.48859e-05
3.06096e-05
2.75579e-05
2.53335e-05
2.38835e-05
2.33292e-05
2.38368e-05
2.55283e-05
2.84244e-05
3.25013e-05
3.77917e-05
4.45756e-05
5.34908e-05
6.55786e-05
8.21179e-05
0.000104378
0.000133251
0.000169063
0.000211485
0.000259768
0.000313065
0.000370668
0.000431917
0.000495642
0.000560733
0.000625598
0.000688179
0.000746192
0.000797367
0.000839613
0.000871126
0.000890463
0.000896579
0.000888848
0.000867095
0.00083164
0.000783382
0.000723898
0.000655537
0.00058146
0.000505522
0.000431916
0.000364611
0.000306696
0.000259874
0.000224379
0.000199331
0.000183276
0.000174658
0.000172085
0.000174401
0.00018058
0.00018953
0.000200547
0.000212571
0.000224214
0.000235479
0.00024477
0.000254237
0.000260715
3.48925e-05
3.06427e-05
2.76234e-05
2.5412e-05
2.3924e-05
2.32589e-05
2.35886e-05
2.50713e-05
2.77861e-05
3.17575e-05
3.70249e-05
4.38065e-05
5.26189e-05
6.43517e-05
8.01558e-05
0.000101238
0.000128536
0.000162503
0.000202978
0.000249323
0.000300688
0.000356257
0.000415245
0.000476411
0.000538772
0.000600835
0.000660671
0.000716087
0.000764845
0.000804844
0.000834248
0.000851568
0.000855721
0.000846059
0.000822407
0.000785128
0.000735208
0.000674369
0.000605172
0.000531035
0.000456069
0.000384629
0.000320631
0.000266861
0.000224543
0.000193418
0.000172231
0.000159321
0.000153082
0.000152192
0.000155647
0.000162645
0.000172395
0.000184384
0.000197653
0.000210877
0.000224031
0.000235522
0.000247408
0.000256512
3.48979e-05
3.06712e-05
2.76815e-05
2.54847e-05
2.39664e-05
2.32008e-05
2.33545e-05
2.46084e-05
2.70892e-05
3.08708e-05
3.60157e-05
4.2706e-05
5.13603e-05
6.27271e-05
7.78217e-05
9.77657e-05
0.000123504
0.000155583
0.000193996
0.000238235
0.000287488
0.000340873
0.000397492
0.000456038
0.00051558
0.000574718
0.000631652
0.000684291
0.000730452
0.000768042
0.000795203
0.000810413
0.000812553
0.000800959
0.000775469
0.000736497
0.000685138
0.000623286
0.000553741
0.000480201
0.000407021
0.000338648
0.000278833
0.000229933
0.000192617
0.000166131
0.000148895
0.000139109
0.000135164
0.000135823
0.000140233
0.000147797
0.000158047
0.000170619
0.000184716
0.000199126
0.000213813
0.000227214
0.000241282
0.000252861
3.49021e-05
3.06958e-05
2.77332e-05
2.55518e-05
2.40106e-05
2.31563e-05
2.31423e-05
2.41591e-05
2.63687e-05
2.98899e-05
3.48168e-05
4.13176e-05
4.97381e-05
6.07028e-05
7.5092e-05
9.39253e-05
0.000118123
0.000148293
0.000184557
0.000226544
0.000273515
0.000324565
0.000378705
0.000434573
0.000491234
0.00054736
0.000601269
0.000650981
0.000694386
0.000729417
0.000754209
0.000767217
0.0007673
0.000753785
0.000726534
0.00068603
0.0006335
0.000571042
0.000501725
0.000429534
0.000359033
0.000294659
0.000239856
0.000196426
0.000164445
0.000142703
0.000129382
0.00012262
0.000120855
0.000122949
0.000128182
0.000136141
0.000146655
0.000159485
0.000174036
0.000189247
0.000205107
0.000220113
0.000236101
0.000249969
3.49056e-05
3.07172e-05
2.77791e-05
2.56139e-05
2.40562e-05
2.31257e-05
2.29566e-05
2.37382e-05
2.56546e-05
2.88613e-05
3.3486e-05
3.96989e-05
4.77969e-05
5.83018e-05
7.19672e-05
8.9702e-05
0.000112377
0.000140628
0.00017468
0.000214294
0.000258826
0.000307388
0.000358933
0.000412065
0.000465797
0.000518852
0.000569647
0.000616316
0.000656831
0.00068917
0.000711481
0.000722208
0.0007202
0.00070479
0.000675879
0.000634044
0.000580671
0.000518093
0.000449673
0.000379677
0.000312803
0.00025334
0.000204259
0.000166716
0.000140201
0.000123141
0.000113582
0.000109684
0.000109972
0.000113412
0.000119396
0.00012766
0.000138283
0.000151128
0.000165814
0.00018148
0.000198163
0.000214462
0.000232092
0.000248031
3.49083e-05
3.07357e-05
2.782e-05