/*--------------------------------*- C++ -*----------------------------------*\
| =========                 |                                                 |
| \\      /  F ield         | OpenFOAM: The Open Source CFD Toolbox           |
|  \\    /   O peration     | Version:  2.4.0                                 |
|   \\  /    A nd           | Web:      www.OpenFOAM.org                      |
|    \\/     M anipulation  |                                                 |
\*---------------------------------------------------------------------------*/
FoamFile
{
    version     2.0;
    format      ascii;
    class       volScalarField;
    location    "1.6";
    object      pPrime2Mean;
}
// * * * * * * * * * * * * * * * * * * * * * * * * * * * * * * * * * * * * * //

dimensions      [0 4 -4 0 0 0 0];

internalField   nonuniform List<scalar> 
2320
(
1092.07
1064.34
1035.43
1006.95
978.827
951.17
923.858
897.026
870.523
844.537
818.865
793.765
768.935
744.756
720.814
697.626
674.623
652.5
630.48
609.455
1092.07
1064.34
1035.44
1006.95
978.832
951.173
923.863
897.028
870.525
844.536
818.862
793.757
768.926
744.737
720.801
697.608
674.597
652.461
630.446
609.418
1092.07
1064.34
1035.43
1006.94
978.823
951.163
923.847
897.001
870.5
844.501
818.833
793.706
768.878
744.677
720.733
697.503
674.509
652.35
630.353
609.293
1092.07
1064.33
1035.42
1006.93
978.813
951.149
923.829
896.982
870.481
844.475
818.801
793.662
768.827
744.597
720.646
697.399
674.399
652.201
630.21
609.134
1092.06
1064.32
1035.41
1006.92
978.8
951.125
923.809
896.952
870.456
844.427
818.753
793.589
768.754
744.494
720.545
697.239
674.244
652
630.036
608.937
1092.06
1064.31
1035.4
1006.9
978.786
951.102
923.79
896.92
870.418
844.38
818.7
793.509
768.666
744.366
720.406
697.053
674.05
651.749
629.798
608.66
1092.05
1064.29
1035.39
1006.89
978.77
951.077
923.77
896.885
870.389
844.328
818.647
793.42
768.581
744.222
720.26
696.828
673.828
651.445
629.51
608.329
1092.04
1064.28
1035.38
1006.87
978.756
951.054
923.746
896.853
870.357
844.276
818.592
793.335
768.492
744.081
720.111
696.604
673.596
651.111
629.204
607.938
1092.04
1064.27
1035.37
1006.86
978.745
951.036
923.73
896.824
870.329
844.228
818.546
793.253
768.402
743.933
719.952
696.356
673.337
650.724
628.831
607.455
1092.03
1064.26
1035.36
1006.85
978.735
951.019
923.717
896.8
870.302
844.186
818.496
793.179
768.313
743.799
719.79
696.126
673.065
650.349
628.453
606.954
1092.02
1064.25
1035.36
1006.83
978.724
951.001
923.702
896.772
870.277
844.141
818.45
793.095
768.22
743.643
719.619
695.843
672.76
649.879
627.972
606.348
1092.01
1064.24
1035.35
1006.82
978.711
950.985
923.683
896.752
870.252
844.107
818.402
793.028
768.12
743.509
719.43
695.602
672.412
649.461
627.412
605.671
1092.01
1064.23
1035.34
1006.81
978.7
950.966
923.665
896.727
870.23
844.066
818.352
792.947
768.02
743.351
719.225
695.274
672.038
648.857
626.825
604.763
1092
1064.22
1035.34
1006.8
978.687
950.953
923.646
896.711
870.207
844.041
818.305
792.894
767.917
743.236
719.018
695.039
671.603
648.384
626.025
603.996
1092
1064.21
1035.33
1006.79
978.673
950.932
923.629
896.691
870.193
844.009
818.267
792.83
767.828
743.093
718.82
694.72
671.164
647.662
625.143
602.549
1091.99
1064.21
1035.33
1006.78
978.66
950.918
923.61
896.688
870.183
843.997
818.227
792.797
767.739
743.015
718.623
694.508
670.68
647.123
624.022
601.369
1091.99
1064.21
1035.33
1006.77
978.652
950.9
923.594
896.679
870.185
843.975
818.211
792.751
767.683
742.903
718.498
694.291
670.348
646.502
622.891
599.316
1092
1064.21
1035.34
1006.77
978.642
950.88
923.58
896.69
870.179
843.966
818.19
792.736
767.627
742.842
718.367
694.109
670.019
646.134
621.948
597.65
1092
1064.21
1035.34
1006.76
978.652
950.889
923.565
896.692
870.185
843.945
818.195
792.726
767.609
742.782
718.308
693.992
669.75
645.668
620.999
595.854
1092
1064.22
1035.35
1006.76
978.635
950.881
923.565
896.674
870.157
843.935
818.179
792.717
767.602
742.793
718.304
693.975
669.739
645.643
620.732
595.101
588.419
568.396
548.366
528.988
509.875
491.037
472.486
454.174
588.4
568.376
548.356
529.012
509.914
491.109
472.559
454.257
588.307
568.275
548.284
528.994
509.875
491.094
472.567
454.263
588.186
568.17
548.201
528.977
509.884
491.16
472.648
454.348
588.034
568.04
548.106
528.963
509.884
491.217
472.731
454.446
587.828
567.857
547.988
528.948
509.89
491.332
472.861
454.603
587.547
567.628
547.855
528.9
509.901
491.452
473.015
454.787
587.254
567.329
547.703
528.877
509.944
491.603
473.204
455.018
586.856
566.929
547.473
528.822
510.03
491.805
473.448
455.316
586.471
566.484
547.167
528.576
510.079
492.041
473.762
455.704
585.956
565.992
546.98
528.329
510.124
492.333
474.177
456.198
585.323
565.324
546.723
528.082
510.203
492.678
474.708
456.815
584.534
564.372
546.271
527.819
510.346
493.096
475.383
457.595
583.645
563.234
545.593
527.55
510.59
493.642
476.242
458.57
582.613
561.902
544.689
527.253
510.93
494.387
477.362
459.781
581.168
560.346
543.556
526.909
511.357
495.368
478.83
461.301
578.852
558.385
542.177
526.507
511.868
496.609
480.749
463.249
575.278
555.824
540.547
526.056
512.473
498.162
483.222
465.87
570.059
552.457
538.678
525.576
513.193
500.065
486.382
469.575
562.828
548.357
536.692
525.23
514.109
502.341
490.318
475.286
436.146
418.427
401.149
384.295
368.054
352.477
337.597
323.517
310.089
297.364
284.961
272.823
260.507
247.946
234.864
221.359
207.459
193.389
179.407
165.703
152.504
139.807
127.7
115.961
104.619
93.3707
82.1659
70.4896
436.227
418.506
401.231
384.379
368.137
352.557
337.697
323.616
310.236
297.524
285.177
273.055
260.769
248.22
235.135
221.616
207.681
193.595
179.558
165.859
152.602
139.949
127.781
116.123
104.738
93.679
82.6177
71.539
436.228
418.515
401.226
384.408
368.176
352.614
337.818
323.784
310.492
297.834
285.579
273.503
261.291
248.745
235.673
222.12
208.159
194.005
179.941
166.165
152.916
140.213
128.09
116.405
105.143
94.1652
83.4439
72.9753
436.314
418.613
401.294
384.49
368.27
352.746
338.037
324.076
310.915
298.366
286.263
274.269
262.15
249.613
236.543
222.93
208.887
194.649
180.477
166.641
153.318
140.607
128.462
116.836
105.632
94.8324
84.4244
74.517
436.416
418.712
401.382
384.584
368.394
352.925
338.313
324.472
311.479
299.083
287.171
275.311
263.312
250.79
237.717
224.019
209.888
195.525
181.238
167.296
153.904
141.148
129.003
117.412
106.294
95.657
85.518
76.0492
436.571
418.863
401.522
384.725
368.572
353.182
338.689
325.023
312.241
300.079
288.399
276.713
264.832
252.345
239.251
225.446
211.16
196.629
182.177
168.116
154.628
141.827
129.662
118.1
107.053
96.5605
86.6484
77.5117
436.761
419.042
401.693
384.903
368.793
353.51
339.152
325.697
313.148
301.271
289.828
278.328
266.562
254.098
240.946
227.01
212.575
197.848
183.242
169.035
155.463
142.605
130.442
118.899
107.929
97.5444
87.8176
78.9072
437.001
419.265
401.908
385.121
369.058
353.888
339.689
326.472
314.188
302.637
291.426
280.122
268.459
256.011
242.787
228.702
214.083
199.139
184.378
170.021
156.353
143.442
131.272
119.754
108.845
98.5535
88.9786
80.215
437.305
419.535
402.158
385.366
369.353
354.301
340.282
327.326
315.352
304.132
293.134
282.009
270.39
257.937
244.609
230.388
215.569
200.431
185.511
171.007
157.247
144.292
132.114
120.63
109.756
99.5457
90.0806
81.4396
437.673
419.856
402.444
385.64
369.687
354.753
340.931
328.243
316.596
305.649
294.825
283.817
272.201
259.752
246.325
231.94
216.919
201.631
186.577
171.903
158.084
145.087
132.918
121.461
110.627
100.485
91.0998
82.5426
438.119
420.247
402.778
385.952
370.046
355.225
341.596
329.157
317.816
307.061
296.345
285.388
273.75
261.281
247.769
233.232
218.006
202.601
187.439
172.646
158.791
145.765
133.627
122.193
111.397
101.329
92.0293
83.5101
438.663
420.713
403.167
386.301
370.415
355.686
342.197
330.003
318.911
308.283
297.605
286.647
274.979
262.431
248.803
234.166
218.828
203.327
188.049
173.203
159.35
146.313
134.224
122.832
112.062
102.018
92.8175
84.3515
439.327
421.267
403.617
386.667
370.778
356.085
342.704
330.711
319.777
309.176
298.489
287.474
275.71
263.11
249.434
234.613
219.185
203.726
188.377
173.505
159.684
146.686
134.639
123.301
112.604
102.609
93.4475
85.0049
440.146
421.93
404.115
387.057
371.123
356.402
343.054
331.189
320.333
309.732
298.939
287.848
276.014
263.282
249.603
234.749
219.211
203.771
188.42
173.615
159.81
146.9
134.901
123.624
112.958
103.031
93.9546
85.5342
441.122
422.691
404.654
387.436
371.421
356.599
343.22
331.373
320.512
309.85
298.966
287.725
275.856
263.079
249.297
234.407
218.955
203.535
188.215
173.515
159.774
146.953
135.009
123.797
113.208
103.335
94.2957
85.8964
442.302
423.535
405.17
387.735
371.583
356.642
343.14
331.235
320.351
309.586
298.52
287.276
275.314
262.545
248.747
233.843
218.444
203.094
187.839
173.254
159.596
146.874
134.975
123.836
113.326
103.528
94.5289
86.1599
443.706
424.41
405.647
387.97
371.657
356.534
342.979
330.882
319.86
309.067
297.928
286.613
274.638
261.86
248.039
233.164
217.843
202.559
187.415
172.916
159.346
146.719
134.881
123.793
113.362
103.618
94.6712
86.3359
445.285
425.198
405.948
388.047
371.576
356.324
342.637
330.428
319.25
308.337
297.174
285.865
273.895
261.129
247.305
232.498
217.22
202.001
186.974
172.573
159.078
146.513
134.731
123.712
113.325
103.651
94.7431
86.4302
446.931
425.942
406.208
388.065
371.39
356.08
342.358
329.986
318.735
307.728
296.566
285.244
273.301
260.522
246.691
231.936
216.732
201.545
186.592
172.244
158.853
146.325
134.596
123.599
113.264
103.647
94.7716
86.4652
448.35
426.237
406.307
388.018
371.225
355.861
342.117
329.713
318.384
307.365
296.18
284.859
272.936
260.149
246.311
231.627
216.443
201.268
186.367
172.067
158.718
146.205
134.503
123.524
113.209
103.64
94.7644
86.4674
56.8744
51.798
47.8295
45.0895
43.0567
41.7293
40.8724
40.5822
60.3942
54.2144
49.9665
46.8722
44.5987
43.0213
41.9968
41.3679
63.2435
56.6825
52.0712
48.6809
46.195
44.284
43.05
42.0172
65.6344
59.0136
54.1492
50.401
47.6043
45.2706
43.6562
42.4856
67.6622
61.0005
55.8692
51.881
48.8006
46.4162
44.3999
42.522
69.4406
62.8269
57.6036
53.4299
50.0351
47.3507
44.9699
42.8355
71.0275
64.4191
58.9986
54.573
50.9545
48.0069
45.4769
43.0892
72.4563
65.831
60.3186
55.7806
52.0158
48.8051
45.9499
43.1894
73.732
67.095
61.475
56.7242
52.6985
49.2735
46.2827
43.5101
74.8476
68.2126
62.4828
57.6068
53.4875
49.9274
46.7227
43.754
75.7952
69.1753
63.3599
58.3549
54.0691
50.3211
46.9966
43.9667
76.6052
69.9911
64.0886
58.9857
54.6178
50.7738
47.3439
44.1991
77.2635
70.6815
64.7038
59.523
55.0747
51.1046
47.577
44.348
77.7961
71.2222
65.1933
59.972
55.4578
51.4053
47.8189
44.5249
78.2193
71.661
65.5843
60.3363
55.7685
51.6529
48.0087
44.6535
78.5326
71.9743
65.8819
60.6388
56.0158
51.8566
48.1727
44.7769
78.7682
72.2241
66.0997
60.8761
56.2076
52.0322
48.3065
44.8766
78.923
72.3817
66.251
61.0503
56.3448
52.1644
48.4119
44.9666
79.0255
72.477
66.3427
61.1801
56.4363
52.2599
48.4911
45.0308
79.0717
72.5056
66.3786
61.2286
56.4827
52.3087
48.5272
45.0673
42.0096
42.1051
40.8254
38.7768
36.788
34.0307
30.1708
26.5846
23.903
20.9256
17.7552
14.5296
11.3803
8.46058
5.88608
3.78955
2.19321
1.11309
0.471826
0.0862157
42.0296
41.6346
40.1783
38.1463
36.2817
33.6953
29.9442
26.4149
23.7283
20.7633
17.6179
14.424
11.3049
8.41019
5.85843
3.77397
2.18789
1.10624
0.46073
0.0686901
41.862
41.2001
39.6914
37.663
35.8445
33.3376
29.6672
26.1817
23.4911
20.547
17.4394
14.287
11.2072
8.3472
5.824
3.75772
2.18247
1.10111
0.452577
0.0648003
41.9156
40.8274
39.1978
37.194
35.3689
32.9171
29.3462
25.9293
23.2528
20.3328
17.2616
14.1492
11.1111
8.28431
5.79269
3.74252
2.17922
1.09845
0.446308
0.0611038
41.4664
40.5058
38.842
36.8245
34.9857
32.5704
29.0803
25.7062
23.0251
20.123
17.0853
14.0125
11.015
8.22298
5.76297
3.73052
2.17855
1.09788
0.442174
0.0590629
41.5699
40.2538
38.4779
36.4633
34.592
32.1837
28.772
25.4533
22.7841
19.9073
16.9077
13.8752
10.92
8.1646
5.73503
3.72193
2.17921
1.0993
0.43904
0.0577346
41.4385
39.9699
38.1127
36.114
34.2195
31.8231
28.494
25.221
22.5551
19.7003
16.7344
13.7407
10.827
8.10784
5.70884
3.715
2.18183
1.10199
0.436811
0.0567663
41.3431
39.878
37.9471
35.861
33.9002
31.4847
28.2177
24.9867
22.3256
19.4925
16.5606
13.6077
10.7352
8.05398
5.68455
3.71143
2.18631
1.10625
0.435369
0.0559616
41.3443
39.6311
37.632
35.5302
33.5286
31.1146
27.9208
24.7451
22.0922
19.2842
16.3878
13.4753
10.6446
8.00099
5.66204
3.70909
2.19229
1.11137
0.434482
0.0552584
41.364
39.4719
37.4513
35.3153
33.2596
30.8215
27.6779
24.5361
21.8773
19.0862
16.2216
13.3488
10.5578
7.95237
5.64283
3.71002
2.20053
1.11781
0.434157
0.0546198
41.549
39.4437
37.2571
35.0369
32.9163
30.4672
27.3868
24.299
21.6485
18.8817
16.0525
13.2195
10.4705
7.90345
5.62476
3.71182
2.20983
1.12496
0.434182
0.0540211
41.5951
39.3638
37.0526
34.7769
32.6133
30.167
27.1515
24.1049
21.4472
18.6952
15.8956
13.1011
10.3906
7.86063
5.61125
3.71732
2.22176
1.13356
0.43482
0.0535002
41.6648
39.3394
36.9548
34.6024
32.3608
29.8764
26.8972
23.8884
21.2331
18.501
15.7334
12.9777
10.3083
7.81725
5.59822
3.72326
2.23422
1.14261
0.435646
0.0529908
41.7312
39.2694
36.7871
34.3656
32.0679
29.5777
26.6568
23.6958
21.0391
18.3226
15.5822
12.8641
10.2343
7.78032
5.59004
3.73283
2.24935
1.15325
0.437133
0.0525607
41.7767
39.212
36.6693
34.201
31.8487
29.3346
26.4471
23.5125
20.8487
18.1459
15.4332
12.7508
10.1607
7.74426
5.58335
3.74356
2.2651
1.16419
0.438716
0.0521395
41.8295
39.1657
36.5508
34.0156
31.599
29.065
26.2256
23.3318
20.6652
17.9765
15.2903
12.6429
10.092
7.71242
5.58046
3.75746
2.28312
1.17648
0.440892
0.0517791
41.8696
39.1163
36.4411
33.8585
31.3912
28.8401
26.0377
23.1702
20.4946
17.8165
15.1541
12.5402
10.0275
7.68417
5.58066
3.77345
2.3024
1.18936
0.443224
0.0514448
41.9106
39.0802
36.3518
33.7156
31.1893
28.6124
25.8461
23.0092
20.3268
17.6599
15.0202
12.4396
9.96518
7.65854
5.58358
3.79205
2.32348
1.20328
0.446017
0.0511539
41.9338
39.0404
36.2614
33.5835
31.0077
28.4089
25.6757
22.8647
20.1734
17.514
14.8952
12.3463
9.90914
7.63811
5.59058
3.8136
2.34596
1.21762
0.448896
0.0508766
41.944
39.0066
36.206
33.4965
30.8778
28.2526
25.5375
22.7487
20.0512
17.3964
14.793
12.2693
9.86313
7.62261
5.59837
3.8333
2.36587
1.23001
0.451643
0.0506777
0.51097
0.215368
0.477759
0.378098
0.116652
0.134083
0.0271258
0.0165922
0.45597
0.547389
0.817579
0.780663
0.32232
0.355107
0.172283
0.147153
0.854264
0.814884
1.10201
1.14855
0.739872
0.698779
0.44525
0.40457
1.07792
1.32898
1.74759
1.855
1.38298
1.21035
0.863336
0.789235
1.66116
2.07137
2.42057
2.66682
2.18267
1.87321
1.42903
1.30486
2.3608
2.87029
3.37578
3.63976
3.10352
2.67954
2.12668
1.94157
3.24506
3.92003
4.38221
4.65452
4.11827
3.59479
2.93687
2.70128
4.23898
4.97408
5.48538
5.82444
5.22814
4.61834
3.85446
3.55983
5.3505
6.1672
6.65345
6.97155
6.3905
5.72635
4.85702
4.5161
6.51095
7.32938
7.76863
8.18954
7.5927
6.87371
5.92485
5.52988
7.72255
8.54026
8.94379
9.38707
8.79647
8.06185
7.03429
6.59953
8.92619
9.70608
10.0024
10.5273
9.99364
9.25139
8.17293
7.69095
10.1263
10.8918
11.1844
11.7568
11.1726
10.4391
9.31177
8.79969
11.2931
12.0396
12.2141
12.8181
12.3196
11.5963
10.464
9.90224
12.4309
13.166
13.3858
14.0509
13.4467
12.716
11.5644
10.9941
13.5715
14.289
14.4076
15.026
14.5477
13.7971
12.6655
12.0681
14.6774
15.4034
15.5367
16.1995
15.617
14.8459
13.7117
13.1103
15.7795
16.4944
16.558
17.1638
16.669
15.8695
14.7531
14.126
16.8531
17.5751
17.6604
18.2433
17.7366
16.867
15.7541
15.1111
17.9211
18.6454
18.713
19.291
18.7929
17.8784
16.7429
16.0678
18.9676
19.7172
19.8806
20.3395
19.8456
18.8235
17.6726
16.9914
19.9792
20.7534
20.9392
21.3962
20.8638
19.7785
18.5654
17.8829
20.9604
21.7395
22.0482
22.4265
21.8282
20.6507
19.4021
18.7451
21.8915
22.6791
23.0571
23.3627
22.7622
21.5141
20.2388
19.5882
22.7768
23.5357
24.0058
24.307
23.6233
22.344
21.0484
20.4147
23.6342
24.3528
24.9203
25.1156
24.4741
23.151
21.8687
21.2382
24.5091
25.1392
25.7557
25.9324
25.2678
23.9541
22.6808
22.0629
25.4078
25.9315
26.6466
26.6819
26.0355
24.7347
23.5195
22.9088
26.438
26.8235
27.5479
27.4844
26.8282
25.5562
24.358
23.7876
27.5557
27.8246
28.5727
28.3941
27.6351
26.3633
25.2659
24.725
28.9168
29.0594
29.7597
29.4697
28.5107
27.2917
26.2205
25.7379
30.3767
30.4934
31.0699
30.6731
29.4695
28.2526
27.2884
26.8527
32.0554
32.1782
32.595
32.0208
30.5302
29.3826
28.4519
28.0824
33.8758
34.0344
34.1454
33.4649
31.7414
30.5743
29.7497
29.4337
35.9137
36.138
35.8527
35.1202
33.0621
31.9189
31.1839
30.9087
38.2419
38.3997
37.7217
36.5551
34.4922
33.3711
32.7479
32.4909
40.8984
40.7961
39.4119
37.8766
36.005
34.9478
34.3982
34.1353
44.1506
43.3209
41.4696
39.3698
37.6201
36.6103
36.0966
35.7734
47.5465
46.0262
43.4862
41.1422
39.3858
38.338
37.8467
37.3825
52.0946
49.3918
45.632
43.0997
41.2176
40.1692
39.5187
39.0005
553.089
545.096
535.709
525.842
516.108
505.871
495.873
485.791
546.201
542.219
535.199
526.933
518.548
509.764
501.388
493.842
541.45
539.498
534.397
527.68
520.584
513.073
506.033
500.21
538.068
537.164
533.493
528.111
522.172
515.797
509.881
505.334
535.607
535.252
532.61
528.331
523.407
518.028
513.086
509.465
533.78
533.713
531.803
528.408
524.346
519.839
515.716
512.84
532.409
532.487
531.097
528.4
525.061
521.308
517.901
515.574
531.367
531.512
530.493
528.348
525.609
522.502
519.679
517.821
530.572
530.739
529.988
528.274
526.039
523.468
521.162
519.639
529.958
530.127
529.571
528.198
526.375
524.262
522.359
521.148
529.488
529.644
529.229
528.126
526.647
524.904
523.361
522.37
529.125
529.264
528.955
528.064
526.864
525.43
524.166
523.372
528.847
528.965
528.737
528.013
527.047
525.863
524.845
524.188
528.633
528.732
528.565
527.975
527.196
526.227
525.395
524.87
528.471
528.55
528.43
527.945
527.322
526.52
525.858
525.423
528.35
528.411
528.327
527.924
527.427
526.764
526.228
525.873
528.263
528.306
528.252
527.91
527.519
526.967
526.549
526.251
528.201
528.23
528.199
527.907
527.601
527.139
526.802
526.562
528.164
528.175
528.163
527.908
527.674
527.285
527.028
526.822
528.144
528.142
528.145
527.917
527.739
527.403
527.201
527.036
528.141
528.122
528.14
527.93
527.803
527.51
527.361
527.212
528.153
528.118
528.149
527.948
527.859
527.6
527.489
527.371
528.175
528.124
528.167
527.969
527.917
527.679
527.602
527.492
528.211
528.141
528.194
527.994
527.971
527.751
527.697
527.605
528.257
528.167
528.232
528.02
528.025
527.812
527.782
527.693
528.315
528.201
528.278
528.052
528.075
527.869
527.853
527.777
528.387
528.244
528.332
528.084
528.128
527.918
527.917
527.841
528.474
528.297
528.398
528.123
528.177
527.965
527.969
527.903
528.577
528.359
528.471
528.166
528.23
528.009
528.018
527.951
528.702
528.437
528.558
528.219
528.278
528.052
528.054
527.994
528.853
528.527
528.657
528.281
528.334
528.097
528.09
528.026
529.036
528.636
528.766
528.352
528.383
528.145
528.118
528.056
529.255
528.764
528.889
528.435
528.438
528.189
528.143
528.073
529.52
528.912
529.022
528.531
528.49
528.238
528.163
528.082
529.839
529.079
529.166
528.643
528.547
528.281
528.18
528.077
530.233
529.274
529.324
528.778
528.609
528.33
528.19
528.067
530.764
529.512
529.503
528.939
528.689
528.382
528.204
528.046
531.581
529.885
529.722
529.136
528.793
528.455
528.227
528.007
532.933
530.472
529.985
529.354
528.922
528.544
528.265
527.865
534.977
531.309
530.259
529.552
529.058
528.663
528.325
527.697
)
;

boundaryField
{
    wall
    {
        type            calculated;
        value           nonuniform List<scalar> 
312
(
1092
1064.22
1035.35
1006.76
978.635
950.881
923.565
896.674
870.157
843.935
818.179
792.717
767.602
742.793
718.304
693.975
669.739
645.643
620.732
595.101
553.089
546.201
541.45
538.068
535.607
533.78
532.409
531.367
530.572
529.958
529.488
529.125
528.847
528.633
528.471
528.35
528.263
528.201
528.164
528.144
528.141
528.153
528.175
528.211
528.257
528.315
528.387
528.474
528.577
528.702
528.853
529.036
529.255
529.52
529.839
530.233
530.764
531.581
532.933
534.977
485.791
493.842
500.21
505.334
509.465
512.84
515.574
517.821
519.639
521.148
522.37
523.372
524.188
524.87
525.423
525.873
526.251
526.562
526.822
527.036
527.212
527.371
527.492
527.605
527.693
527.777
527.841
527.903
527.951
527.994
528.026
528.056
528.073
528.082
528.077
528.067
528.046
528.007
527.865
527.697
448.35
426.237
406.307
388.018
371.225
355.861
342.117
329.713
318.384
307.365
296.18
284.859
272.936
260.149
246.311
231.627
216.443
201.268
186.367
172.067
158.718
146.205
134.503
123.524
113.209
103.64
94.7644
86.4674
79.0717
72.5056
66.3786
61.2286
56.4827
52.3087
48.5272
45.0673
41.944
39.0066
36.206
33.4965
30.8778
28.2526
25.5375
22.7487
20.0512
17.3964
14.793
12.2693
9.86313
7.62261
5.59837
3.8333
2.36587
1.23001
0.451643
0.0506777
42.0096
42.1051
40.8254
38.7768
36.788
34.0307
30.1708
26.5846
23.903
20.9256
17.7552
14.5296
11.3803
8.46058
5.88608
3.78955
2.19321
1.11309
0.471826
0.0862157
0.0165922
0.147153
0.40457
0.789235
1.30486
1.94157
2.70128
3.55983
4.5161
5.52988
6.59953
7.69095
8.79969
9.90224
10.9941
12.0681
13.1103
14.126
15.1111
16.0678
16.9914
17.8829
18.7451
19.5882
20.4147
21.2382
22.0629
22.9088
23.7876
24.725
25.7379
26.8527
28.0824
29.4337
30.9087
32.4909
34.1353
35.7734
37.3825
39.0005
0.51097
0.45597
0.854264
1.07792
1.66116
2.3608
3.24506
4.23898
5.3505
6.51095
7.72255
8.92619
10.1263
11.2931
12.4309
13.5715
14.6774
15.7795
16.8531
17.9211
18.9676
19.9792
20.9604
21.8915
22.7768
23.6342
24.5091
25.4078
26.438
27.5557
28.9168
30.3767
32.0554
33.8758
35.9137
38.2419
40.8984
44.1506
47.5465
52.0946
436.146
418.427
401.149
384.295
368.054
352.477
337.597
323.517
310.089
297.364
284.961
272.823
260.507
247.946
234.864
221.359
207.459
193.389
179.407
165.703
152.504
139.807
127.7
115.961
104.619
93.3707
82.1659
70.4896
588.419
568.396
548.366
528.988
509.875
491.037
472.486
454.174
1092.07
1064.34
1035.43
1006.95
978.827
951.17
923.858
897.026
870.523
844.537
818.865
793.765
768.935
744.756
720.814
697.626
674.623
652.5
630.48
609.455
)
;
    }
    inlet1
    {
        type            calculated;
        value           nonuniform List<scalar> 
20
(
1092.07
1092.07
1092.07
1092.07
1092.06
1092.06
1092.05
1092.04
1092.04
1092.03
1092.02
1092.01
1092.01
1092
1092
1091.99
1091.99
1092
1092
1092
)
;
    }
    inlet2
    {
        type            calculated;
        value           nonuniform List<scalar> 8(534.977 531.309 530.259 529.552 529.058 528.663 528.325 527.697);
    }
    outlet1
    {
        type            calculated;
        value           uniform 0;
    }
    outlet2
    {
        type            calculated;
        value           nonuniform List<scalar> 8(0.494565 0 0.471981 0.326968 0.0452788 0.0701858 0 0);
    }
    defaultFaces
    {
        type            empty;
    }
}


// ************************************************************************* //
