/*--------------------------------*- C++ -*----------------------------------*\
| =========                 |                                                 |
| \\      /  F ield         | OpenFOAM: The Open Source CFD Toolbox           |
|  \\    /   O peration     | Version:  2.4.0                                 |
|   \\  /    A nd           | Web:      www.OpenFOAM.org                      |
|    \\/     M anipulation  |                                                 |
\*---------------------------------------------------------------------------*/
FoamFile
{
    version     2.0;
    format      ascii;
    class       volScalarField;
    location    "0.57";
    object      k;
}
// * * * * * * * * * * * * * * * * * * * * * * * * * * * * * * * * * * * * * //

dimensions      [0 2 -2 0 0 0 0];

internalField   nonuniform List<scalar> 
6000
(
0.011728
0.00596684
0.00122005
0.00140804
0.00211198
0.00245734
0.0020137
0.00148444
0.00104075
0.000753665
0.000586691
0.000563224
0.000760502
0.000994266
0.00121604
0.00140852
0.00155863
0.00166272
0.00172773
0.00176599
0.00178866
0.00180288
0.00181267
0.0018206
0.00182885
0.00183893
0.00184878
0.00185815
0.00186775
0.00187824
0.0018902
0.00190413
0.00192047
0.00193964
0.00196204
0.00198812
0.0020183
0.00205309
0.00209303
0.0021387
0.00219075
0.00224993
0.00231719
0.00239396
0.0024819
0.00258284
0.00269902
0.00283531
0.00299722
0.00318869
0.00341508
0.00368375
0.00400385
0.00439024
0.00485571
0.00544303
0.00613704
0.00712867
0.00810911
0.0101497
0.0120171
0.0102181
0.00119695
0.00113296
0.00109552
0.00100991
0.000918577
0.00086375
0.000799319
0.000764956
0.000767515
0.000801898
0.000853179
0.000908123
0.000973019
0.00105177
0.00113709
0.00121024
0.00125436
0.00126747
0.00126009
0.00124402
0.00122596
0.00120803
0.00119062
0.00117389
0.00115817
0.00114393
0.0011315
0.00112101
0.00111248
0.0011059
0.00110124
0.00109846
0.00109755
0.00109851
0.00110137
0.00110618
0.00111307
0.00112224
0.00113392
0.00114832
0.00116569
0.00118625
0.00121035
0.0012385
0.00127134
0.00130979
0.00135514
0.00140886
0.0014727
0.00154887
0.0016404
0.00175067
0.00188628
0.00204961
0.00226372
0.00251063
0.00287642
0.00332971
0.0115484
0.0134811
0.00171638
0.00114651
0.00106625
0.00105874
0.00105802
0.00101949
0.000946859
0.000897626
0.000886016
0.000894394
0.000904454
0.000909871
0.000913702
0.000923568
0.00094439
0.000970925
0.000990731
0.000995683
0.000987527
0.000972906
0.000957018
0.000941938
0.00092797
0.000915062
0.000903306
0.000892864
0.000883815
0.000876137
0.000869746
0.000864543
0.00086043
0.000857324
0.000855156
0.000853875
0.000853446
0.000853861
0.00085513
0.000857268
0.000860278
0.000864149
0.000868941
0.000874772
0.000881797
0.00089019
0.000900154
0.000911942
0.000925878
0.000942364
0.000961901
0.000985111
0.00101285
0.00104609
0.00108664
0.00113542
0.00119818
0.00126679
0.00136831
0.0014476
0.0114483
0.014462
0.00294711
0.00146471
0.00132836
0.00127093
0.0012427
0.00116466
0.00105204
0.000969249
0.000934548
0.000926436
0.000924958
0.000918671
0.000904435
0.000886223
0.000871833
0.000865468
0.000863804
0.000860687
0.000853549
0.000843874
0.00083395
0.000824947
0.000817032
0.000810063
0.000803945
0.000798653
0.000794161
0.000790416
0.00078734
0.000784854
0.000782889
0.000781385
0.000780296
0.000779586
0.00077923
0.000779216
0.000779538
0.000780193
0.000781169
0.000782453
0.000784064
0.000786057
0.000788511
0.000791506
0.000795132
0.000799495
0.000804722
0.000810967
0.000818422
0.000827317
0.000837969
0.000850698
0.000866205
0.00088458
0.000908604
0.000933138
0.000974088
0.00099797
0.0113647
0.0143286
0.00427302
0.00191736
0.00165772
0.00152053
0.00144484
0.00131042
0.00114497
0.00102114
0.000959379
0.000936218
0.000928655
0.000920427
0.000903782
0.000878474
0.00085095
0.000828709
0.000814281
0.000805106
0.000797932
0.000791468
0.000785759
0.00078097
0.000777026
0.000773748
0.000771001
0.000768709
0.000766823
0.000765294
0.000764074
0.000763117
0.000762384
0.000761844
0.000761472
0.000761252
0.000761174
0.000761231
0.000761422
0.000761744
0.000762199
0.000762802
0.000763566
0.00076452
0.000765711
0.000767198
0.000769045
0.00077133
0.000774147
0.000777612
0.000781872
0.000787107
0.000793563
0.000801499
0.000811466
0.000823536
0.000840081
0.000858176
0.000890913
0.00091997
0.0112951
0.0137096
0.00550851
0.00244154
0.00203738
0.00181465
0.00166946
0.0014633
0.00123623
0.00106725
0.000974984
0.000934693
0.000920154
0.00091147
0.000897382
0.000873775
0.000844517
0.000817374
0.000797598
0.000785311
0.000777905
0.000773087
0.000769698
0.000767224
0.000765377
0.000763959
0.000762842
0.000761955
0.000761253
0.000760708
0.000760294
0.000759988
0.000759774
0.000759638
0.000759571
0.000759567
0.000759625
0.000759744
0.000759928
0.00076018
0.000760501
0.000760904
0.000761413
0.000762056
0.000762871
0.000763901
0.000765204
0.000766849
0.000768926
0.000771547
0.000774861
0.000779051
0.000784385
0.000791146
0.000799967
0.000810998
0.000826873
0.000844822
0.000881026
0.000917985
0.011238
0.0129195
0.00655441
0.00304464
0.00247499
0.00216388
0.0019266
0.00163086
0.00133282
0.0011159
0.000990617
0.000930952
0.000907103
0.000896737
0.000885811
0.000866701
0.000840374
0.000813635
0.000792747
0.000779472
0.000772056
0.00076806
0.000765825
0.000764485
0.000763619
0.00076302
0.000762578
0.000762241
0.000761982
0.000761787
0.000761648
0.000761558
0.000761512
0.000761507
0.000761542
0.000761616
0.000761733
0.000761896
0.000762109
0.000762378
0.000762716
0.000763128
0.000763634
0.000764262
0.000765045
0.000766027
0.000767261
0.000768817
0.000770783
0.000773277
0.000776455
0.000780518
0.000785761
0.00079252
0.000801491
0.000813012
0.000829848
0.000848996
0.000890058
0.000931769
0.0111855
0.0121119
0.00734504
0.00374711
0.0029705
0.00257594
0.00222242
0.0018164
0.00143642
0.00116977
0.00101047
0.000930249
0.000894716
0.000880701
0.000871902
0.000857538
0.000835578
0.000811337
0.000791284
0.000778165
0.000770968
0.000767426
0.000765745
0.000764917
0.000764464
0.000764174
0.00076396
0.000763786
0.000763643
0.000763528
0.000763443
0.000763391
0.000763373
0.00076339
0.000763444
0.000763539
0.000763678
0.000763865
0.000764106
0.000764408
0.000764781
0.000765244
0.000765814
0.000766514
0.000767377
0.000768442
0.000769764
0.00077141
0.000773472
0.00077607
0.000779366
0.000783573
0.000789006
0.000796028
0.000805417
0.000817489
0.000835487
0.000856012
0.000901144
0.000945652
0.0111345
0.0113579
0.00790077
0.0045281
0.00351356
0.00305387
0.00255898
0.00202072
0.00154642
0.0012284
0.00103586
0.000934436
0.000885488
0.000865899
0.000857708
0.000847421
0.000829976
0.000808879
0.000790394
0.000777912
0.000771043
0.00076779
0.000766382
0.000765778
0.00076548
0.000765285
0.000765121
0.000764967
0.000764825
0.0007647
0.000764602
0.000764535
0.000764504
0.000764512
0.000764562
0.000764659
0.000764807
0.00076501
0.000765275
0.000765614
0.000766033
0.000766548
0.000767179
0.000767954
0.000768903
0.000770068
0.000771502
0.000773274
0.000775479
0.000778237
0.000781717
0.000786138
0.000791832
0.00079918
0.000809009
0.000821668
0.000840633
0.000862284
0.000910229
0.0009563
0.0110855
0.0106863
0.00824744
0.00535204
0.00408759
0.00359468
0.00293385
0.00224262
0.00166175
0.00129026
0.00106659
0.000943424
0.000880095
0.000853395
0.000844286
0.000837121
0.000823906
0.00080607
0.000789386
0.000777703
0.000771188
0.000768141
0.000766881
0.000766376
0.000766134
0.000765958
0.000765789
0.000765617
0.00076545
0.000765301
0.000765178
0.000765091
0.000765043
0.000765039
0.000765083
0.000765178
0.000765328
0.00076554
0.00076582
0.000766177
0.000766624
0.000767176
0.000767854
0.000768683
0.000769697
0.000770937
0.000772459
0.000774335
0.000776659
0.000779556
0.0007832
0.000787815
0.000793743
0.000801379
0.000811581
0.000824725
0.000844424
0.00086694
0.000916636
0.000963485
0.0110399
0.0101042
0.00841611
0.0061708
0.00468442
0.00418909
0.00333986
0.00247844
0.00178137
0.00135413
0.0011018
0.000956178
0.000878275
0.000843468
0.000832109
0.000827059
0.00081764
0.000803011
0.000788198
0.000777365
0.000771199
0.000768315
0.000767146
0.000766693
0.000766471
0.000766294
0.000766111
0.000765918
0.000765729
0.000765559
0.000765418
0.000765316
0.000765257
0.000765245
0.000765283
0.000765376
0.000765527
0.000765743
0.00076603
0.000766399
0.000766862
0.000767434
0.000768137
0.000768998
0.00077005
0.000771336
0.000772914
0.000774856
0.000777261
0.000780255
0.000784015
0.000788773
0.000794875
0.00080273
0.000813213
0.000826721
0.000846943
0.000870087
0.000920753
0.000967853
0.0109981
0.0096082
0.00844008
0.00692418
0.00531005
0.00482193
0.00376543
0.00272169
0.00190373
0.00142206
0.00113836
0.000971295
0.000879327
0.000835997
0.00082136
0.000817455
0.000811335
0.000799803
0.000786884
0.000776926
0.000771106
0.000768361
0.00076726
0.000766839
0.000766627
0.000766446
0.000766249
0.000766041
0.000765836
0.000765653
0.000765501
0.00076539
0.000765324
0.000765307
0.000765342
0.000765434
0.000765585
0.000765802
0.000766093
0.000766467
0.000766937
0.000767519
0.000768235
0.000769112
0.000770184
0.000771495
0.000773104
0.000775084
0.000777536
0.00078059
0.000784424
0.000789274
0.000795493
0.000803497
0.000814176
0.000827937
0.000848512
0.000872089
0.000923193
0.000970185
0.0109604
0.00919006
0.00835242
0.00756727
0.00595334
0.00547224
0.00419557
0.00296351
0.00202922
0.00149225
0.00117439
0.000987357
0.000882382
0.000830653
0.00081206
0.00080843
0.000805084
0.0007965
0.000785487
0.000776428
0.000770957
0.000768344
0.000767298
0.000766903
0.000766698
0.000766513
0.000766306
0.000766086
0.000765871
0.000765679
0.00076552
0.000765403
0.000765333
0.000765313
0.000765347
0.000765437
0.000765588
0.000765806
0.000766098
0.000766474
0.000766948
0.000767535
0.000768257
0.000769141
0.000770223
0.000771547
0.000773172
0.000775173
0.000777651
0.000780739
0.000784616
0.000789523
0.000795816
0.000803916
0.000814723
0.000828655
0.000849455
0.000873318
0.000924509
0.000971155
0.0109266
0.00884018
0.00818391
0.00806686
0.00659364
0.00611011
0.00461374
0.00319218
0.00216145
0.00155936
0.00120823
0.00100307
0.000886551
0.000827003
0.000804134
0.000800053
0.000798946
0.00079313
0.000784024
0.000775894
0.000770783
0.0007683
0.000767306
0.000766933
0.000766734
0.000766545
0.000766331
0.000766102
0.000765879
0.000765679
0.000765515
0.000765395
0.000765322
0.0007653
0.000765332
0.000765421
0.000765572
0.00076579
0.000766083
0.00076646
0.000766935
0.000767525
0.00076825
0.000769138
0.000770225
0.000771556
0.000773189
0.000775202
0.000777695
0.000780802
0.000784706
0.000789646
0.000795985
0.000804147
0.000815036
0.00082908
0.00085002
0.000874062
0.00092512
0.000971276
0.0108965
0.00854899
0.00796152
0.00840438
0.00720849
0.00668038
0.00500565
0.00341509
0.00228383
0.00162003
0.00123838
0.00101735
0.000891018
0.000824574
0.000797441
0.000792355
0.000792969
0.000789712
0.000782503
0.00077533
0.000770596
0.000768247
0.000767304
0.000766951
0.000766758
0.000766566
0.000766344
0.000766107
0.000765877
0.000765671
0.000765503
0.000765379
0.000765304
0.00076528
0.000765312
0.0007654
0.000765551
0.000765769
0.000766062
0.00076644
0.000766916
0.000767507
0.000768233
0.000769124
0.000770214
0.000771549
0.000773188
0.000775208
0.00077771
0.00078083
0.000784749
0.000789712
0.000796081
0.000804283
0.000815228
0.000829346
0.000850371
0.00087452
0.000925318
0.000970899
0.0108699
0.00830763
0.00770768
0.00857594
0.0077646
0.00716611
0.00535291
0.00360491
0.00238562
0.00167081
0.00126343
0.0010293
0.000895094
0.000822907
0.000791796
0.000785335
0.00078719
0.000786263
0.000780923
0.000774738
0.0007704
0.000768192
0.0007673
0.000766966
0.000766778
0.000766582
0.000766354
0.000766109
0.000765872
0.000765661
0.000765489
0.000765362
0.000765284
0.000765259
0.00076529
0.000765378
0.000765528
0.000765746
0.000766039
0.000766418
0.000766894
0.000767486
0.000768214
0.000769107
0.000770199
0.000771537
0.00077318
0.000775205
0.000777714
0.000780842
0.000784774
0.000789753
0.000796143
0.000804375
0.000815359
0.00082953
0.000850605
0.000874816
0.000925284
0.000970253
0.0108465
0.00810827
0.00744027
0.0085906
0.00822244
0.00756234
0.00562809
0.00374589
0.00245998
0.00170864
0.00128221
0.0010383
0.000898248
0.00082159
0.000786996
0.000778966
0.000781641
0.000782799
0.000779286
0.000774113
0.000770194
0.000768134
0.000767296
0.000766982
0.000766798
0.000766599
0.000766363
0.00076611
0.000765866
0.00076565
0.000765474
0.000765344
0.000765265
0.000765238
0.000765268
0.000765355
0.000765505
0.000765723
0.000766017
0.000766395
0.000766873
0.000767465
0.000768195
0.000769089
0.000770183
0.000771524
0.00077317
0.000775199
0.000777714
0.00078085
0.000784792
0.000789783
0.000796191
0.000804446
0.00081546
0.000829672
0.000850777
0.000875022
0.000925129
0.000969476
0.010826
0.00794413
0.00717289
0.00846737
0.00854513
0.00785503
0.00581363
0.00382917
0.00250251
0.00173131
0.00129388
0.00104394
0.000900118
0.000820289
0.000782838
0.000773202
0.000776343
0.000779337
0.000777594
0.000773454
0.000769975
0.000768074
0.000767293
0.000766998
0.000766818
0.000766615
0.000766372
0.000766112
0.000765861
0.000765639
0.000765459
0.000765326
0.000765245
0.000765217
0.000765246
0.000765333
0.000765483
0.000765701
0.000765994
0.000766373
0.000766851
0.000767445
0.000768175
0.000769071
0.000770167
0.00077151
0.000773159
0.000775192
0.000777713
0.000780855
0.000784806
0.000789809
0.000796232
0.000804508
0.000815548
0.000829793
0.000850918
0.000875179
0.000924914
0.000968648
0.0108081
0.00780939
0.00691538
0.00823171
0.00870609
0.00802305
0.00589716
0.00385021
0.00251149
0.00173786
0.00129807
0.00104607
0.000900512
0.000818759
0.000779135
0.000767983
0.000771311
0.000775893
0.000775848
0.000772758
0.000769742
0.000768011
0.000767289
0.000767015
0.00076684
0.000766632
0.000766382
0.000766113
0.000765856
0.000765629
0.000765444
0.000765309
0.000765226
0.000765197
0.000765224
0.000765311
0.000765461
0.000765679
0.000765972
0.000766352
0.00076683
0.000767424
0.000768156
0.000769053
0.000770151
0.000771496
0.000773148
0.000775186
0.000777711
0.00078086
0.000784819
0.000789833
0.000796271
0.000804565
0.000815628
0.000829903
0.000851041
0.000875306
0.000924673
0.000967811
0.0107925
0.00769916
0.00667441
0.00791216
0.00869392
0.00804575
0.00587089
0.00380862
0.00248788
0.00172871
0.00129501
0.0010448
0.000899397
0.000816846
0.000775732
0.000763242
0.000766551
0.000772485
0.000774054
0.000772023
0.000769492
0.000767942
0.000767285
0.000767033
0.000766862
0.00076665
0.000766392
0.000766115
0.000765851
0.000765618
0.00076543
0.000765292
0.000765207
0.000765176
0.000765203
0.000765289
0.000765439
0.000765657
0.000765951
0.000766331
0.00076681
0.000767405
0.000768137
0.000769035
0.000770135
0.000771483
0.000773138
0.000775179
0.000777709
0.000780864
0.000784831
0.000789856
0.000796307
0.000804619
0.000815704
0.000830005
0.000851152
0.000875417
0.000924423
0.00096699
0.010779
0.00760928
0.0064541
0.00753736
0.00851393
0.00791132
0.00573384
0.00370847
0.00243518
0.00170558
0.00128545
0.00104049
0.000896873
0.000814485
0.000772507
0.000758913
0.000762062
0.000769128
0.000772218
0.000771248
0.000769223
0.000767868
0.00076728
0.000767052
0.000766884
0.000766669
0.000766402
0.000766118
0.000765846
0.000765608
0.000765416
0.000765275
0.000765188
0.000765157
0.000765183
0.000765268
0.000765418
0.000765636
0.00076593
0.00076631
0.000766789
0.000767385
0.000768119
0.000769018
0.00077012
0.000771469
0.000773127
0.000775172
0.000777707
0.000780868
0.000784842
0.000789877
0.000796342
0.000804671
0.000815776
0.000830102
0.000851257
0.000875515
0.000924173
0.000966195
0.0107672
0.00753629
0.00625654
0.00713374
0.00818681
0.00762279
0.00549434
0.00355832
0.00235892
0.00167119
0.00127059
0.00103367
0.000893152
0.000811682
0.000769376
0.000754932
0.00075784
0.000765837
0.000770347
0.000770434
0.000768935
0.000767786
0.000767273
0.00076707
0.000766907
0.000766687
0.000766413
0.000766121
0.000765842
0.000765599
0.000765402
0.000765258
0.00076517
0.000765137
0.000765162
0.000765248
0.000765397
0.000765615
0.000765909
0.00076629
0.00076677
0.000767366
0.000768101
0.000769002
0.000770105
0.000771457
0.000773117
0.000775165
0.000777704
0.000780871
0.000784854
0.000789898
0.000796375
0.000804721
0.000815845
0.000830195
0.000851354
0.000875603
0.000923927
0.00096543
0.010757
0.00747728
0.00608232
0.00672402
0.00774482
0.00720014
0.0051709
0.00337068
0.00226605
0.00162889
0.00125191
0.00102501
0.000888516
0.000808504
0.000766292
0.000751244
0.000753874
0.000762625
0.000768448
0.000769581
0.000768625
0.000767697
0.000767264
0.000767088
0.000766931
0.000766707
0.000766425
0.000766124
0.000765838
0.000765589
0.000765389
0.000765242
0.000765152
0.000765118
0.000765142
0.000765227
0.000765376
0.000765594
0.000765889
0.00076627
0.000766751
0.000767348
0.000768083
0.000768986
0.00077009
0.000771444
0.000773107
0.000775159
0.000777702
0.000780875
0.000784864
0.000789918
0.000796408
0.000804769
0.000815912
0.000830285
0.000851447
0.000875683
0.000923686
0.000964699
0.0107482
0.00742983
0.00593093
0.00632628
0.00722672
0.00667819
0.00479053
0.0031606
0.00216404
0.0015822
0.00123099
0.00101521
0.000883284
0.000805055
0.000763237
0.000747803
0.000750151
0.000759501
0.000766529
0.00076869
0.000768294
0.000767598
0.000767252
0.000767106
0.000766955
0.000766726
0.000766437
0.000766127
0.000765834
0.00076558
0.000765376
0.000765227
0.000765134
0.000765099
0.000765123
0.000765208
0.000765357
0.000765575
0.000765869
0.000766251
0.000766732
0.00076733
0.000768067
0.00076897
0.000770076
0.000771432
0.000773098
0.000775152
0.0007777
0.000780878
0.000784875
0.000789938
0.000796439
0.000804815
0.000815976
0.00083037
0.000851534
0.000875756
0.000923452
0.000964001
0.0107405
0.00739193
0.00580113
0.00595376
0.00667238
0.00610087
0.00438459
0.00294371
0.00206006
0.00153438
0.00120931
0.00100496
0.000877777
0.000801459
0.000760215
0.000744574
0.000746657
0.000756475
0.000764599
0.000767765
0.00076794
0.000767489
0.000767236
0.000767122
0.000766979
0.000766746
0.000766449
0.000766131
0.000765831
0.000765571
0.000765363
0.000765211
0.000765117
0.000765081
0.000765104
0.000765188
0.000765337
0.000765555
0.00076585
0.000766232
0.000766714
0.000767313
0.00076805
0.000768955
0.000770062
0.00077142
0.000773088
0.000775146
0.000777698
0.000780881
0.000784884
0.000789957
0.000796469
0.00080486
0.000816038
0.000830451
0.000851616
0.000875822
0.000923226
0.000963336
0.0107339
0.00736187
0.0056912
0.00561512
0.00611804
0.00551346
0.00398343
0.00273395
0.00196017
0.00148818
0.00118813
0.000994852
0.000872291
0.000797849
0.000757251
0.000741531
0.000743377
0.000753554
0.000762666
0.000766806
0.000767563
0.00076737
0.000767217
0.000767138
0.000767002
0.000766767
0.000766461
0.000766135
0.000765828
0.000765562
0.00076535
0.000765196
0.0007651
0.000765063
0.000765086
0.00076517
0.000765318
0.000765537
0.000765832
0.000766214
0.000766696
0.000767296
0.000768034
0.00076894
0.000770049
0.000771409
0.000773079
0.00077514
0.000777696
0.000780884
0.000784894
0.000789974
0.000796497
0.000804903
0.000816097
0.000830529
0.000851694
0.000875883
0.000923007
0.000962703
0.0107281
0.00733828
0.00559919
0.00531501
0.00559284
0.00495505
0.0036115
0.00254195
0.00186881
0.00144561
0.00116842
0.000985368
0.000867077
0.000794347
0.000754375
0.000738656
0.000740296
0.000750741
0.000760739
0.000765819
0.000767164
0.000767241
0.000767193
0.000767152
0.000767026
0.000766787
0.000766474
0.000766139
0.000765825
0.000765554
0.000765338
0.000765181
0.000765084
0.000765046
0.000765068
0.000765151
0.0007653
0.000765518
0.000765814
0.000766196
0.000766679
0.000767279
0.000768018
0.000768925
0.000770036
0.000771397
0.00077307
0.000775134
0.000777693
0.000780887
0.000784903
0.000789991
0.000796525
0.000804944
0.000816153
0.000830603
0.000851767
0.000875938
0.000922796
0.000962102
0.0107231
0.00731998
0.00552306
0.00505489
0.00511713
0.00445349
0.00328457
0.00237413
0.00178862
0.00140791
0.00115082
0.00097685
0.00086233
0.000791063
0.000751625
0.000735938
0.0007374
0.000748041
0.000758826
0.000764806
0.000766743
0.0007671
0.000767165
0.000767165
0.000767049
0.000766808
0.000766487
0.000766144
0.000765822
0.000765546
0.000765327
0.000765167
0.000765068
0.000765029
0.00076505
0.000765134
0.000765282
0.000765501
0.000765796
0.000766179
0.000766663
0.000767263
0.000768003
0.000768911
0.000770023
0.000771386
0.000773062
0.000775128
0.000777691
0.000780889
0.000784911
0.000790008
0.000796551
0.000804983
0.000816207
0.000830674
0.000851836
0.000875988
0.000922593
0.000961532
0.0107188
0.007306
0.0054608
0.00483378
0.00470239
0.00402376
0.00300862
0.00223289
0.00172063
0.00137564
0.00113568
0.000969514
0.00085819
0.000788084
0.000749038
0.000733374
0.000734677
0.000745453
0.000756933
0.000763771
0.000766301
0.000766949
0.000767132
0.000767176
0.000767072
0.000766829
0.0007665
0.000766149
0.00076582
0.000765539
0.000765315
0.000765153
0.000765052
0.000765012
0.000765033
0.000765116
0.000765265
0.000765484
0.00076578
0.000766163
0.000766647
0.000767248
0.000767989
0.000768898
0.000770011
0.000771376
0.000773053
0.000775123
0.000777689
0.000780891
0.000784919
0.000790023
0.000796577
0.00080502
0.000816259
0.000830741
0.000851901
0.000876033
0.000922398
0.000960992
0.010715
0.00729554
0.00541051
0.00464913
0.00435241
0.00366954
0.00278437
0.00211764
0.00166464
0.00134886
0.0011231
0.000963464
0.000854743
0.000785475
0.000746648
0.000730962
0.000732114
0.000742978
0.000755068
0.000762719
0.00076584
0.000766786
0.000767095
0.000767186
0.000767095
0.000766849
0.000766514
0.000766155
0.000765819
0.000765532
0.000765304
0.000765139
0.000765037
0.000764996
0.000765016
0.0007651
0.000765248
0.000765467
0.000765763
0.000766147
0.000766631
0.000767233
0.000767975
0.000768885
0.000769999
0.000771366
0.000773045
0.000775117
0.000777687
0.000780894
0.000784927
0.000790038
0.000796601
0.000805056
0.000816308
0.000830805
0.000851961
0.000876074
0.00092221
0.000960482
0.0107117
0.00728792
0.00537043
0.00449737
0.00406518
0.00338649
0.0026084
0.00202626
0.00161972
0.00132726
0.00111304
0.00095872
0.000852031
0.000783282
0.000744482
0.000728703
0.000729701
0.000740614
0.000753236
0.000761654
0.000765359
0.000766612
0.000767052
0.000767193
0.000767117
0.00076687
0.000766528
0.00076616
0.000765817
0.000765525
0.000765294
0.000765126
0.000765022
0.00076498
0.000765
0.000765083
0.000765232
0.000765451
0.000765748
0.000766132
0.000766616
0.000767219
0.000767962
0.000768872
0.000769988
0.000771356
0.000773037
0.000775112
0.000777685
0.000780896
0.000784934
0.000790052
0.000796623
0.00080509
0.000816354
0.000830865
0.000852018
0.000876111
0.000922031
0.00096
0.0107089
0.0072826
0.00533898
0.00437453
0.00383498
0.00316578
0.0024735
0.00195573
0.00158465
0.00131037
0.00110532
0.000955238
0.000850058
0.000781527
0.000742562
0.000726601
0.00072743
0.000738358
0.000751443
0.00076058
0.000764862
0.000766427
0.000767005
0.000767199
0.000767138
0.000766891
0.000766542
0.000766166
0.000765816
0.000765518
0.000765283
0.000765114
0.000765008
0.000764965
0.000764985
0.000765068
0.000765216
0.000765436
0.000765733
0.000766117
0.000766602
0.000767205
0.000767949
0.00076886
0.000769977
0.000771347
0.00077303
0.000775107
0.000777683
0.000780897
0.000784941
0.000790066
0.000796645
0.000805122
0.000816398
0.000830922
0.000852071
0.000876145
0.00092186
0.000959547
0.0107064
0.00727911
0.00531477
0.00427655
0.0036542
0.00299697
0.00237166
0.00190231
0.00155791
0.00129759
0.00109972
0.000952931
0.000848801
0.000780219
0.000740902
0.000724659
0.000725293
0.000736209
0.000749692
0.000759502
0.00076435
0.000766233
0.000766953
0.000767203
0.000767159
0.000766912
0.000766556
0.000766173
0.000765815
0.000765512
0.000765273
0.000765101
0.000764994
0.000764951
0.00076497
0.000765053
0.000765201
0.000765421
0.000765718
0.000766103
0.000766589
0.000767192
0.000767936
0.000768849
0.000769967
0.000771338
0.000773023
0.000775102
0.000777681
0.000780899
0.000784948
0.000790078
0.000796666
0.000805153
0.00081644
0.000830975
0.00085212
0.000876175
0.000921697
0.000959122
0.0107042
0.00727707
0.00529655
0.00419957
0.0035147
0.00286982
0.00229556
0.0018623
0.00153788
0.00128823
0.00109594
0.000951684
0.000848218
0.000779351
0.000739509
0.000722879
0.000723283
0.000734161
0.000747987
0.000758423
0.000763824
0.000766028
0.000766895
0.000767205
0.00076718
0.000766933
0.000766571
0.000766179
0.000765815
0.000765506
0.000765264
0.000765089
0.000764981
0.000764937
0.000764956
0.000765038
0.000765187
0.000765407
0.000765704
0.000766089
0.000766576
0.00076718
0.000767925
0.000768838
0.000769957
0.000771329
0.000773016
0.000775097
0.000777679
0.000780901
0.000784954
0.00079009
0.000796685
0.000805181
0.000816479
0.000831025
0.000852166
0.000876202
0.000921543
0.000958725
0.0107023
0.00727617
0.00528327
0.00414006
0.00340875
0.00277527
0.00223927
0.00183271
0.00152321
0.00128171
0.00109374
0.000951377
0.000848253
0.000778904
0.000738386
0.000721262
0.000721395
0.000732212
0.000746331
0.000757347
0.000763287
0.000765814
0.000766833
0.000767204
0.000767199
0.000766954
0.000766586
0.000766186
0.000765815
0.000765501
0.000765255
0.000765078
0.000764968
0.000764923
0.000764942
0.000765024
0.000765173
0.000765393
0.000765691
0.000766077
0.000766563
0.000767168
0.000767913
0.000768828
0.000769948
0.000771321
0.000773009
0.000775093
0.000777677
0.000780902
0.000784959
0.000790101
0.000796703
0.000805208
0.000816516
0.000831072
0.000852208
0.000876226
0.000921397
0.000958354
0.0107006
0.00727615
0.00527402
0.00409487
0.00332947
0.00270579
0.00219811
0.00181119
0.0015128
0.0012775
0.00109286
0.000951885
0.000848846
0.000778856
0.000737528
0.000719809
0.000719624
0.000730356
0.000744725
0.000756279
0.000762741
0.000765592
0.000766767
0.000767202
0.000767219
0.000766975
0.000766601
0.000766194
0.000765815
0.000765496
0.000765247
0.000765067
0.000764956
0.00076491
0.000764928
0.000765011
0.00076516
0.00076538
0.000765678
0.000766064
0.000766551
0.000767157
0.000767903
0.000768818
0.000769939
0.000771314
0.000773003
0.000775088
0.000777675
0.000780903
0.000784965
0.000790112
0.00079672
0.000805234
0.00081655
0.000831116
0.000852247
0.000876248
0.000921259
0.00095801
0.0106992
0.0072768
0.005268
0.0040613
0.00327106
0.00265535
0.00216844
0.00179592
0.00150578
0.00127519
0.00109308
0.00095309
0.000849933
0.000779174
0.000736926
0.000718518
0.000717966
0.000728591
0.00074317
0.000755221
0.000762188
0.000765363
0.000766696
0.000767198
0.000767237
0.000766996
0.000766616
0.000766201
0.000765816
0.000765492
0.000765239
0.000765057
0.000764944
0.000764898
0.000764916
0.000764998
0.000765147
0.000765368
0.000765666
0.000766053
0.00076654
0.000767146
0.000767893
0.000768808
0.000769931
0.000771306
0.000772997
0.000775084
0.000777673
0.000780904
0.000784969
0.000790121
0.000796736
0.000805257
0.000816582
0.000831157
0.000852283
0.000876267
0.000921129
0.000957692
0.0106979
0.00727795
0.00526457
0.00403703
0.0032288
0.00261929
0.00214745
0.00178546
0.00150143
0.00127439
0.0010942
0.000954883
0.000851448
0.000779826
0.000736569
0.000717387
0.000716417
0.000726911
0.000741667
0.000754176
0.000761629
0.000765126
0.000766621
0.000767193
0.000767255
0.000767017
0.000766632
0.000766209
0.000765817
0.000765488
0.000765231
0.000765047
0.000764933
0.000764886
0.000764904
0.000764986
0.000765135
0.000765356
0.000765655
0.000766042
0.00076653
0.000767136
0.000767883
0.0007688
0.000769923
0.000771299
0.000772992
0.00077508
0.000777671
0.000780905
0.000784974
0.00079013
0.00079675
0.000805279
0.000816612
0.000831195
0.000852316
0.000876284
0.000921008
0.000957401
0.0106968
0.00727946
0.00526316
0.00402012
0.00319891
0.00259403
0.00213304
0.00177868
0.00149916
0.0012748
0.00109605
0.000957161
0.000853331
0.000780777
0.000736441
0.000716411
0.000714973
0.000725314
0.000740217
0.000753146
0.000761067
0.000764884
0.000766543
0.000767185
0.000767273
0.000767038
0.000766648
0.000766218
0.000765819
0.000765484
0.000765224
0.000765038
0.000764923
0.000764875
0.000764892
0.000764975
0.000765124
0.000765345
0.000765644
0.000766031
0.00076652
0.000767127
0.000767874
0.000768791
0.000769915
0.000771293
0.000772987
0.000775077
0.00077767
0.000780906
0.000784978
0.000790139
0.000796764
0.000805299
0.000816639
0.000831229
0.000852346
0.0008763
0.000920896
0.000957135
0.0106958
0.00728124
0.00526331
0.00400897
0.00317843
0.00257687
0.0021236
0.00177475
0.00149853
0.00127617
0.00109849
0.000959835
0.000855523
0.000781992
0.000736526
0.000715584
0.000713631
0.000723794
0.000738818
0.000752135
0.000760504
0.000764637
0.000766461
0.000767176
0.00076729
0.00076706
0.000766664
0.000766227
0.000765821
0.000765481
0.000765217
0.000765029
0.000764913
0.000764864
0.000764881
0.000764964
0.000765113
0.000765335
0.000765634
0.000766022
0.000766511
0.000767118
0.000767866
0.000768784
0.000769908
0.000771287
0.000772982
0.000775073
0.000777668
0.000780907
0.000784982
0.000790146
0.000796776
0.000805317
0.000816664
0.000831261
0.000852373
0.000876314
0.000920792
0.000956894
0.010695
0.00728319
0.00526466
0.00400227
0.00316505
0.00256579
0.00211792
0.00177299
0.00149915
0.00127828
0.00110138
0.000962823
0.00085797
0.000783435
0.000736806
0.000714901
0.000712386
0.00072235
0.000737471
0.000751144
0.000759942
0.000764386
0.000766376
0.000767166
0.000767307
0.000767081
0.00076668
0.000766236
0.000765824
0.000765479
0.000765211
0.000765021
0.000764903
0.000764854
0.000764871
0.000764954
0.000765103
0.000765325
0.000765625
0.000766013
0.000766502
0.00076711
0.000767858
0.000768777
0.000769902
0.000771281
0.000772977
0.00077507
0.000777666
0.000780907
0.000784985
0.000790153
0.000796787
0.000805334
0.000816686
0.000831289
0.000852397
0.000876326
0.000920696
0.000956679
0.0106942
0.00728524
0.00526688
0.00399894
0.00315699
0.00255925
0.00211508
0.00177287
0.00150074
0.00128096
0.00110463
0.000966056
0.000860624
0.000785074
0.000737263
0.000714354
0.000711237
0.000720977
0.000736174
0.000750175
0.000759381
0.000764131
0.000766289
0.000767155
0.000767324
0.000767103
0.000766697
0.000766246
0.000765827
0.000765477
0.000765206
0.000765013
0.000764895
0.000764845
0.000764862
0.000764944
0.000765094
0.000765316
0.000765616
0.000766004
0.000766494