/*--------------------------------*- C++ -*----------------------------------*\
| =========                 |                                                 |
| \\      /  F ield         | OpenFOAM: The Open Source CFD Toolbox           |
|  \\    /   O peration     | Version:  2.4.0                                 |
|   \\  /    A nd           | Web:      www.OpenFOAM.org                      |
|    \\/     M anipulation  |                                                 |
\*---------------------------------------------------------------------------*/
FoamFile
{
    version     2.0;
    format      ascii;
    class       volScalarField;
    location    "2.9";
    object      k;
}
// * * * * * * * * * * * * * * * * * * * * * * * * * * * * * * * * * * * * * //

dimensions      [0 2 -2 0 0 0 0];

internalField   nonuniform List<scalar> 
5625
(
0.0107771
0.0065039
0.00358819
0.00258941
0.00238455
0.00215875
0.00205572
0.00196299
0.0019218
0.00189209
0.00189034
0.00190074
0.00192584
0.0019672
0.0020225
0.00209375
0.00218198
0.00228721
0.00241428
0.00256607
0.00274424
0.00294787
0.00317432
0.00341908
0.00367673
0.00394146
0.00420799
0.00447256
0.0047319
0.00497601
0.00520511
0.00541584
0.00560711
0.0057804
0.005938
0.00608023
0.00620596
0.00631547
0.00641061
0.00649473
0.00657005
0.00663389
0.00668982
0.00673874
0.00678131
0.00681792
0.00684894
0.00687457
0.0068942
0.00690609
0.00690785
0.00689107
0.00684838
0.00678808
0.00666123
0.00677778
0.00690962
0.0069899
0.00703665
0.00702169
0.00696468
0.00684335
0.00672141
0.00654709
0.00637806
0.00613077
0.00604583
0.00591983
0.00596427
0.00603345
0.0062329
0.00651646
0.00701482
0.00785453
0.00696213
0.0102419
0.0126485
0.00962989
0.00679184
0.00548298
0.00466562
0.00425907
0.0039754
0.00382622
0.00373084
0.00370058
0.00371061
0.00375468
0.00382611
0.00392964
0.00406505
0.00423377
0.00443795
0.0046839
0.00497571
0.00531567
0.00570158
0.00612788
0.00658561
0.00706403
0.00755179
0.00803838
0.00851629
0.00897987
0.00941459
0.00981623
0.0101841
0.0105185
0.0108181
0.0110875
0.0113312
0.0115496
0.0117439
0.0119173
0.0120736
0.0122188
0.0123536
0.0124866
0.0126213
0.0127603
0.012906
0.0130602
0.0132255
0.0134018
0.013587
0.0137771
0.0139582
0.0141167
0.0142574
0.0142944
0.0143327
0.0142007
0.0139796
0.0135718
0.0130997
0.0123898
0.0116414
0.0107242
0.00978307
0.00875719
0.00772454
0.00679338
0.00588363
0.00512528
0.00454725
0.00405974
0.00383569
0.00361898
0.00365552
0.00436203
0.00987552
0.0140328
0.0126104
0.00978036
0.00778487
0.00649787
0.00581598
0.00536357
0.00510908
0.00494684
0.0048745
0.00486458
0.00490342
0.00498131
0.0051032
0.00527073
0.00548521
0.00574942
0.00607025
0.00645228
0.00689736
0.00740194
0.00795826
0.00855446
0.00917642
0.00980931
0.0104393
0.0110554
0.0116483
0.0122033
0.0127153
0.0131823
0.013604
0.0139809
0.0143178
0.0146178
0.0148832
0.0151157
0.015319
0.0154991
0.0156623
0.0158133
0.0159596
0.016106
0.0162557
0.0164121
0.0165783
0.0167566
0.0169476
0.017152
0.0173638
0.0175673
0.0177475
0.0179099
0.0179658
0.0179753
0.0177824
0.01746
0.0168987
0.0162881
0.0153718
0.0144033
0.0132169
0.0120065
0.0106737
0.00934826
0.00810323
0.00690386
0.00590324
0.00500296
0.00439766
0.00390242
0.00353489
0.00336437
0.00368835
0.009555
0.0140167
0.0141548
0.0121816
0.00986112
0.00816972
0.00720035
0.00656521
0.00619312
0.00595394
0.00583029
0.0057883
0.00581109
0.00588479
0.00601217
0.00619644
0.00643934
0.00674367
0.00711649
0.00756251
0.00808313
0.00867379
0.0093251
0.0100232
0.0107515
0.0114927
0.0122304
0.0129508
0.0136426
0.014291
0.0148898
0.0154357
0.015928
0.0163676
0.0167585
0.0171034
0.0174051
0.0176665
0.0178925
0.0180889
0.0182625
0.0184194
0.0185675
0.0187123
0.018858
0.0190084
0.0191672
0.0193371
0.0195199
0.0197167
0.0199229
0.0201239
0.0203011
0.0204602
0.0205158
0.0204988
0.0202628
0.0198677
0.0192118
0.0185068
0.0174664
0.0163547
0.0149975
0.0136187
0.0120929
0.0105877
0.00914876
0.00779034
0.00662982
0.00558928
0.00487814
0.00427845
0.00381892
0.00362761
0.0035597
0.00927129
0.0136068
0.0150602
0.013988
0.0118242
0.00983746
0.00857907
0.00774417
0.00723712
0.00690728
0.00672135
0.00663624
0.00663395
0.00669451
0.00681886
0.00700992
0.00727045
0.00760308
0.00801476
0.00851022
0.00909047
0.00975015
0.0104786
0.0112605
0.0120772
0.0129095
0.0137387
0.0145489
0.0153269
0.0160581
0.0167346
0.0173519
0.0179091
0.0184066
0.0188472
0.0192339
0.0195697
0.0198583
0.0201047
0.0203146
0.0204957
0.020655
0.0208001
0.0209376
0.0210724
0.021209
0.0213514
0.0215027
0.0216656
0.0218419
0.0220281
0.0222109
0.0223701
0.0225111
0.0225528
0.0225062
0.0222282
0.0217687
0.0210435
0.0202615
0.0191322
0.0179123
0.0164289
0.0149256
0.0132564
0.0116165
0.0100295
0.0085482
0.00725659
0.00611989
0.00531515
0.00467032
0.00413309
0.00397765
0.0036674
0.00901649
0.0128222
0.0154027
0.0152352
0.0136235
0.0115129
0.00999895
0.00895633
0.00829862
0.00786414
0.00760438
0.00746594
0.0074299
0.0074689
0.00758258
0.00777242
0.00804184
0.00839353
0.00883418
0.00936844
0.00999707
0.010714
0.0115078
0.0123616
0.0132555
0.0141683
0.0150796
0.0159715
0.0168292
0.0176379
0.0183881
0.0190741
0.019694
0.0202477
0.0207372
0.0211651
0.021535
0.0218505
0.0221169
0.0223397
0.022527
0.0226862
0.0228253
0.0229516
0.0230707
0.0231877
0.0233068
0.0234316
0.0235652
0.0237104
0.0238651
0.0240168
0.0241449
0.0242539
0.0242694
0.0241879
0.0238639
0.0233444
0.0225604
0.0217133
0.0205173
0.0192128
0.0176337
0.0160356
0.0142569
0.012511
0.0108033
0.00921885
0.00781236
0.00659563
0.00570588
0.00502592
0.00442697
0.00428056
0.00387241
0.00878532
0.0119577
0.015289
0.0160868
0.0151118
0.0131549
0.0114592
0.0102196
0.00940238
0.00885158
0.00850697
0.00830646
0.00822657
0.00823669
0.00833195
0.00851343
0.00878381
0.00914632
0.00960731
0.0101713
0.010839
0.0116037
0.0124532
0.0133699
0.0143325
0.0153182
0.016305
0.017273
0.0182064
0.0190894
0.019911
0.0206642
0.0213462
0.0219558
0.0224942
0.022964
0.0233683
0.0237112
0.0239976
0.0242332
0.0244258
0.0245832
0.0247138
0.0248255
0.0249247
0.0250168
0.0251066
0.0251978
0.0252938
0.0253986
0.0255114
0.0256205
0.0257054
0.025769
0.0257469
0.0256232
0.0252488
0.0246697
0.0238316
0.0229283
0.0216823
0.0203123
0.018662
0.0169934
0.0151333
0.0133049
0.0114984
0.00982577
0.0083169
0.00702874
0.00606072
0.00534826
0.00469631
0.00455168
0.00408958
0.00857331
0.011097
0.0148769
0.016535
0.0162406
0.0147018
0.0129347
0.0115321
0.0105572
0.00988263
0.0094439
0.00917323
0.0090402
0.00901447
0.0090837
0.00924986
0.00951382
0.00987929
0.0103525
0.010938
0.0116361
0.0124401
0.0133371
0.0143086
0.0153325
0.0163846
0.0174413
0.0184812
0.0194868
0.0204418
0.0213333
0.0221529
0.0228965
0.0235621
0.0241498
0.0246618
0.0251013
0.0254719
0.0257785
0.0260266
0.0262237
0.0263776
0.0264975
0.0265917
0.0266672
0.0267299
0.0267849
0.0268359
0.0268868
0.0269427
0.0270039
0.0270603
0.0270907
0.0270964
0.0270256
0.0268507
0.0264217
0.0257811
0.0248905
0.023938
0.0226553
0.021236
0.0195357
0.0178186
0.0159022
0.0140133
0.0121279
0.0103809
0.008781
0.00742787
0.00638716
0.00564324
0.0049433
0.00479621
0.00429334
0.00837724
0.0102993
0.0141529
0.0165467
0.0170553
0.0160415
0.0143841
0.0128783
0.0117613
0.010962
0.0104229
0.0100749
0.00988146
0.00981232
0.00984867
0.00999244
0.010243
0.0106038
0.0110813
0.0116801
0.0124006
0.0132359
0.0141724
0.0151914
0.0162697
0.0173822
0.0185037
0.0196112
0.020686
0.0217105
0.0226704
0.0235554
0.0243603
0.0250817
0.025719
0.0262737
0.0267486
0.0271471
0.0274738
0.0277341
0.027935
0.0280837
0.0281908
0.0282647
0.0283131
0.028342
0.0283572
0.0283622
0.0283611
0.02836
0.0283614
0.0283558
0.0283207
0.0282578
0.0281262
0.027892
0.0274036
0.0266981
0.0257543
0.0247578
0.0234494
0.0219956
0.020264
0.018519
0.01657
0.0146422
0.0126974
0.0108898
0.00921007
0.00779813
0.0066898
0.00591532
0.00517053
0.00501769
0.0044772
0.00819423
0.00966385
0.0132072
0.0162858
0.0175673
0.0171034
0.0157591
0.0142312
0.0130041
0.0120878
0.0114465
0.0110161
0.010757
0.0106367
0.0106343
0.0107487
0.0109791
0.0113277
0.0118018
0.0124059
0.0131409
0.0139994
0.0149678
0.0160268
0.0171528
0.0183196
0.0195006
0.0206717
0.0218122
0.0229037
0.0239301
0.0248793
0.0257446
0.0265216
0.0272084
0.0278059
0.0283164
0.0287427
0.0290893
0.0293614
0.0295647
0.0297069
0.0297992
0.0298508
0.0298685
0.0298594
0.02983
0.0297836
0.0297242
0.0296591
0.0295931
0.0295169
0.029407
0.0292649
0.0290607
0.02876
0.0282073
0.027432
0.0264325
0.025396
0.0240709
0.0225956
0.0208498
0.0190965
0.0171378
0.0151927
0.013208
0.0113543
0.00960633
0.00814213
0.00697117
0.00616733
0.00537992
0.00521873
0.00464066
0.00802171
0.00914697
0.0121942
0.0156836
0.0177198
0.0178863
0.0169846
0.0155549
0.014267
0.0132522
0.0125128
0.011998
0.0116695
0.0114922
0.0114455
0.0115241
0.0117278
0.0120571
0.0125199
0.0131215
0.0138628
0.0147366
0.0157292
0.0168209
0.0179877
0.0192025
0.0204377
0.0216676
0.0228702
0.0240256
0.0251162
0.0261279
0.0270525
0.0278843
0.0286203
0.0292604
0.0298061
0.0302599
0.0306259
0.0309091
0.0311137
0.031248
0.0313244
0.0313511
0.0313346
0.0312836
0.0312052
0.0311027
0.0309796
0.0308442
0.0307039
0.0305496
0.0303565
0.0301255
0.0298385
0.0294625
0.0288417
0.0279904
0.0269315
0.025857
0.0245227
0.0230374
0.0212929
0.0195499
0.0176035
0.0156629
0.0136585
0.0117738
0.00997009
0.00846093
0.00723251
0.00640094
0.00557282
0.00540122
0.0047849
0.00785779
0.00872044
0.0112114
0.01483
0.0175562
0.0184203
0.0179766
0.016808
0.0155241
0.0144416
0.0136154
0.0130186
0.0126191
0.0123814
0.0122852
0.0123226
0.0124934
0.0127966
0.0132405
0.0138316
0.0145712
0.0154524
0.0164613
0.0175781
0.0187785
0.0200348
0.0213184
0.0226021
0.0238625
0.0250784
0.0262303
0.0273024
0.0282847
0.02917
0.0299543
0.0306364
0.0312168
0.0316976
0.0320823
0.0323757
0.0325806
0.0327059
0.0327653
0.0327642
0.0327103
0.032614
0.0324829
0.03232
0.0321284
0.0319171
0.0316967
0.031458
0.0311745
0.030846
0.0304667
0.030007
0.0293129
0.0283797
0.0272538
0.02614
0.0248028
0.0233186
0.0215916
0.0198766
0.0179638
0.0160496
0.0140459
0.0121465
0.0103004
0.00875452
0.00747421
0.00661702
0.00575006
0.00556659
0.0049115
0.00770105
0.00836358
0.0103079
0.0138319
0.0170888
0.0186535
0.0187227
0.0179315
0.0167433
0.0156364
0.0147435
0.0140724
0.0136034
0.0133042
0.0131548
0.0131467
0.0132788
0.0135497
0.0139675
0.0145402
0.0152702
0.0161507
0.0171678
0.0183021
0.0195287
0.0208196
0.0221452
0.0234773
0.0247907
0.0260629
0.0272729
0.0284027
0.0294405
0.0303778
0.0312092
0.0319322
0.0325466
0.0330535
0.0334561
0.0337587
0.0339629
0.0340787
0.0341195
0.0340879
0.0339942
0.0338496
0.0336624
0.0334356
0.0331712
0.0328793
0.0325736
0.0322453
0.0318654
0.0314319
0.0309515
0.0304
0.0296259
0.0285988
0.0273986
0.0262495
0.0249129
0.0234365
0.0217372
0.0200703
0.0182148
0.0163489
0.0143669
0.0124698
0.0105954
0.00902216
0.00769606
0.00681593
0.00591216
0.00571584
0.00502193
0.00755038
0.00806051
0.0095423
0.0127394
0.0163164
0.0185618
0.0192491
0.0188497
0.0178878
0.0168118
0.0158818
0.0151503
0.0146175
0.014258
0.014054
0.0139972
0.0140863
0.014319
0.014704
0.0152508
0.0159631
0.0168348
0.0178522
0.0189958
0.020241
0.0215593
0.0229204
0.0242948
0.0256559
0.0269798
0.028244
0.0294283
0.0305189
0.0315062
0.032383
0.0331457
0.0337929
0.0343251
0.0347445
0.0350552
0.0352579
0.0353638
0.0353842
0.0353202
0.0351845
0.034989
0.0347429
0.0344492
0.0341087
0.0337321
0.0333369
0.0329147
0.0324336
0.0318889
0.0312995
0.0306448
0.0297796
0.0286643
0.0273928
0.0262031
0.0248692
0.0234066
0.0217436
0.0201318
0.0183499
0.0165567
0.0146176
0.0127407
0.0108532
0.00926266
0.00789746
0.0069976
0.00605943
0.00584973
0.0051175
0.0074049
0.00779881
0.00892263
0.0116274
0.0153347
0.0181922
0.019505
0.0195444
0.0189097
0.0179381
0.0170102
0.0162395
0.0156532
0.015238
0.0149803
0.0148735
0.0149165
0.0151064
0.0154524
0.0159661
0.0166531
0.0175078
0.0185172
0.0196622
0.0209181
0.0222562
0.0236457
0.0250559
0.0264589
0.0278295
0.0291433
0.0303784
0.0315189
0.0325535
0.0334738
0.0342747
0.0349535
0.0355096
0.0359449
0.0362625
0.0364631
0.0365586
0.0365572
0.0364593
0.0362799
0.0360314
0.0357241
0.0353611
0.0349418
0.0344772
0.0339889
0.0334697
0.0328837
0.0322227
0.0315142
0.0307475
0.0297987
0.0285862
0.02723
0.025996
0.0246654
0.0232208
0.0216031
0.0200625
0.018371
0.0166677
0.0147942
0.012956
0.0110713
0.00947455
0.00807757
0.00716171
0.00619194
0.00596878
0.00519933
0.00726391
0.00756898
0.00841728
0.0105805
0.0142136
0.0174954
0.019451
0.0200334
0.0197421
0.0189819
0.0181044
0.0173233
0.0166996
0.0162368
0.0159294
0.015773
0.0157688
0.0159126
0.0162144
0.0166885
0.0173428
0.0181726
0.0191659
0.020304
0.0215625
0.0229126
0.0243231
0.0257623
0.0272009
0.0286123
0.029971
0.0312526
0.0324394
0.0335186
0.0344801
0.0353172
0.0360261
0.036605
0.0370551
0.0373785
0.0375764
0.0376607
0.0376367
0.0375042
0.0372796
0.0369765
0.0366062
0.0361721
0.0356719
0.0351167
0.0345327
0.0339141
0.0332207
0.0324379
0.0316029
0.0307281
0.0296824
0.028366
0.0269179
0.0256344
0.0243062
0.0228817
0.0213157
0.0198576
0.0182742
0.016681
0.014893
0.0131125
0.0112475
0.00965624
0.00823538
0.00730773
0.00630967
0.00607336
0.00526837
0.00712675
0.00736378
0.00800151
0.00965247
0.0130162
0.0165575
0.0191326
0.0202691
0.0203701
0.0198981
0.0191363
0.0183815
0.0177422
0.0172446
0.0168943
0.0166917
0.0166402
0.0167374
0.0169907
0.0174196
0.0180344
0.0188316
0.0198007
0.0209237
0.0221766
0.0235308
0.0249545
0.0264154
0.0278829
0.0293292
0.0307273
0.0320508
0.03328
0.0344005
0.0354005
0.0362719
0.0370092
0.0376096
0.0380732
0.0384015
0.0385963
0.0386686
0.0386219
0.0384541
0.0381834
0.0378244
0.0373899
0.0368835
0.0363011
0.0356535
0.0349717
0.0342522
0.0334496
0.0325372
0.0315826
0.0305852
0.0294367
0.028012
0.0264651
0.0251258
0.0237975
0.0223934
0.0208834
0.0195168
0.0180568
0.0165927
0.0149112
0.0132075
0.0113793
0.00980608
0.00836982
0.00743505
0.00641247
0.00616369
0.00532546
0.0069928
0.00717768
0.00765549
0.00890148
0.0117823
0.0154329
0.0184847
0.0202163
0.0207965
0.0206325
0.0200748
0.0193898
0.0187632
0.0182481
0.0178657
0.017623
0.0175265
0.0175787
0.0177808
0.0181602
0.0187296
0.0194871
0.020424
0.0215237
0.0227629
0.024113
0.0255421
0.0270172
0.0285066
0.0299813
0.031413
0.0327733
0.0340406
0.0351988
0.0362345
0.0371377
0.0379016
0.0385221
0.0389982
0.0393306
0.0395215
0.039581
0.0395123
0.039309
0.0389916
0.0385761
0.0380765
0.0374972
0.0368319
0.0360906
0.0353097
0.0344884
0.0335712
0.0325394
0.0314535
0.0303269
0.0290697
0.0275329
0.025881
0.0244784
0.0231462
0.0217607
0.020309
0.0190412
0.0177177
0.0164002
0.0148459
0.0132381
0.0114647
0.00992249
0.00847984
0.00754298
0.00650014
0.00623991
0.00537128
0.00686176
0.00700633
0.00736332
0.00829305
0.0106116
0.0141829
0.0175765
0.0199031
0.0209753
0.021178
0.020874
0.0203209
0.0197415
0.0192315
0.0188316
0.0185582
0.0184217
0.0184322
0.0185834
0.0189098
0.0194291
0.0201407
0.021038
0.0221065
0.0233238
0.0246616
0.026088
0.0275697
0.0290736
0.0305699
0.0320291
0.0334208
0.0347216
0.0359135
0.0369816
0.0379143
0.0387029
0.0393419
0.0398294
0.0401651
0.0403514
0.0403978
0.040308
0.0400691
0.039705
0.0392327
0.0386678
0.0380155
0.0372672
0.0364316
0.0355507
0.0346242
0.0335991
0.0324431
0.031223
0.0299613
0.0285893
0.0269376
0.0251754
0.0237015
0.0223603
0.0209898
0.0195968
0.0184332
0.0172574
0.0161015
0.0146947
0.0132027
0.0115019
0.010004
0.00856441
0.00763081
0.00657243
0.00630207
0.00540644
0.00673336
0.00684647
0.00711252
0.00779867
0.00956365
0.0128748
0.016456
0.0192661
0.0208869
0.021519
0.0214937
0.021146
0.0206532
0.0201759
0.0197773
0.019486
0.0193179
0.019291
0.0193953
0.019667
0.020133
0.0207935
0.0216443
0.022674
0.0238614
0.0251788
0.0265946
0.028075
0.0295859
0.0310968
0.0325771
0.0339945
0.0353238
0.0365453
0.0376424
0.0386017
0.0394129
0.040069
0.0405667
0.0409051
0.041086
0.0411194
0.0410095
0.0407352
0.0403249
0.0397961
0.0391659
0.038441
0.0376102
0.0366804
0.0356972
0.0346687
0.0335369
0.0322545
0.0308985
0.0294963
0.0280038
0.0262349
0.0243589
0.0228051
0.0214485
0.0200879
0.0187523
0.0176962
0.0166773
0.0156958
0.0144559
0.0130992
0.0114895
0.0100493
0.00862265
0.00769786
0.00662909
0.00635023
0.00543146
0.00660739
0.0066957
0.00689343
0.00739447
0.00870214
0.011551
0.015173
0.0183625
0.0205333
0.0216092
0.0219361
0.0218162
0.0214715
0.0210595
0.0206855
0.0203928
0.0202046
0.0201466
0.0202113
0.0204289
0.0208399
0.0214455
0.0222442
0.023228
0.0243778
0.025667
0.0270642
0.0285353
0.0300458
0.0315642
0.0330587
0.0344959
0.0358485
0.0370951
0.0382176
0.0392007
0.0400323
0.0407039
0.0412107
0.0415509
0.0417259
0.0417465
0.0416178
0.0413087
0.040853
0.0402682
0.0395734
0.0387767
0.0378643
0.0368399
0.0357546
0.0346284
0.0333876
0.0319796
0.0304871
0.0289401
0.0273213
0.0254335
0.0234421
0.0217999
0.0204206
0.0190634
0.0177821
0.0168356
0.01598
0.0151829
0.0141284
0.0129248
0.0114278
0.0100573
0.00865375
0.00774349
0.00666989
0.00638441
0.0054468
0.00648362
0.00655235
0.00669871
0.00706066
0.00801653
0.0102962
0.0137878
0.0172301
0.019866
0.0214529
0.0221624
0.0223168
0.0221616
0.021858
0.0215362
0.0212622
0.0210686
0.0209892
0.0210228
0.0211909
0.0215471
0.0220957
0.022838
0.0237696
0.0248748
0.0261281
0.0274988
0.0289531
0.0304555
0.0319741
0.0334762
0.0349269
0.0362974
0.0375645
0.0387085
0.0397123
0.040562
0.0412474
0.0417622
0.0421034
0.0422719
0.0422804
0.0421338
0.041791
0.0412911
0.0406513
0.0398928
0.0390256
0.0380327
0.0369124
0.0357316
0.0345051
0.0331565
0.0316243
0.0299954
0.0283002
0.0265497
0.0245419
0.0224357
0.020697
0.019287
0.0179258
0.0166944
0.015858
0.0151699
0.0145634
0.0137117
0.0126794
0.0113128
0.0100283
0.00865702
0.00776711
0.00669464
0.00640466
0.00545284
0.0063619
0.00641502
0.00652263
0.0067812
0.0074698
0.00918217
0.0123701
0.0159136
0.018933
0.0210173
0.0221409
0.0226276
0.022692
0.0225446
0.022307
0.0220754
0.0218944
0.0218066
0.0218192
0.0219463
0.0222501
0.0227417
0.0234248
0.0242994
0.0253534
0.0265638
0.0279007
0.0293304
0.0308173
0.0323289
0.0338318
0.0352898
0.0366725
0.0379553
0.0391167
0.0401379
0.0410034
0.0417009
0.0422225
0.042564
0.0427255
0.0427227
0.0425591
0.042184
0.0416414
0.040948
0.040127
0.0391906
0.0381162
0.0369084
0.035629
0.0343035
0.0328483
0.0311938
0.0294295
0.0275841
0.0256967
0.0235681
0.0213504
0.019508
0.0180589
0.0166859
0.0154991
0.0147724
0.0142529
0.0138393
0.0132059
0.0123621
0.0111461
0.00996024
0.008633
0.00776827
0.00670325
0.00641106
0.00544999
0.00624204
0.00628238
0.00636086
0.00654333
0.00703159
0.0082749
0.0109683
0.0144674
0.0177634
0.0202832
0.0218842
0.0227109
0.023051
0.023084
0.0229737
0.0228116
0.0226642
0.0225844
0.0225876
0.0226855
0.0229427
0.0233795
0.0240026
0.0248169
0.0258144
0.0269753
0.0282714
0.0296694
0.0311335
0.032631
0.0341278
0.0355868
0.036976
0.0382695
0.0394442
0.0404796
0.0413582
0.042066
0.0425933
0.0429343
0.0430881
0.0430752
0.0428953
0.0424895
0.0419061
0.0411607
0.0402783
0.0392724
0.0381245
0.0368275
0.0354508
0.0340279
0.0324675
0.030693
0.0287951
0.0267987
0.0247697
0.0225202
0.0201965
0.0182452
0.0167479
0.0153557
0.0142081
0.0135905
0.0132373
0.0130136
0.0126114
0.0119727
0.0109286
0.00985244
0.00857943
0.00774758
0.00669599
0.00640393
0.0054385
0.00612392
0.00615359
0.00620993
0.00633697
0.00667722
0.00756427
0.009668
0.0129575
0.0163969
0.0192859
0.0213298
0.0225637
0.0232013
0.0234637
0.0235042
0.0234477
0.0233579
0.0233057
0.0233133
0.0233963
0.0236165
0.0240031
0.0245675
0.0253202
0.0262574
0.0273633
0.0286122
0.0299718
0.0314062
0.0328825
0.0343667
0.0358204
0.0372104
0.0385096
0.0396932
0.0407392
0.0416283
0.0423446
0.0428764
0.0432161
0.0433618
0.0433396
0.0431445
0.0427098
0.0420874
0.0412911
0.0403482
0.0392794
0.0380577
0.0366734
0.0352012
0.0336825
0.0320184
0.0301263
0.028097
0.0259504
0.0237761
0.0214057
0.0189838
0.0169209
0.015367
0.0139494
0.012836
0.0123271
0.0121343
0.0120902
0.0119294
0.0115112
0.0106625
0.00970536
0.00849625
0.00770335
0.00667276
0.00638319
0.00541846
0.0060074
0.00602808
0.00606722
0.00615415
0.00638681
0.00700742
0.00853963
0.0114598
0.0148869
0.0180499
0.0204957
0.0221531
0.0231261
0.0236494
0.023882
0.0239565
0.0239535
0.0239509
0.0239799
0.0240644
0.0242604
0.0246042
0.0251142
0.0258058
0.0266808
0.0277275
0.0289238
0.0302387
0.031637
0.0330857
0.0345506
0.035993
0.0373782
0.0386779
0.0398662
0.0409192
0.041816
0.0425389
0.0430739
0.0434115
0.0435486
0.0435179
0.0433085
0.0428464
0.0421863
0.0413421
0.0403436
0.0392119
0.0379185
0.0364493
0.0348837
0.0332712
0.0315047
0.0294977
0.0273398
0.0250451
0.0227227
0.0202324
0.0177219
0.0155482
0.0139297
0.0124832
0.0114016
0.0110021
0.0109594
0.0110817
0.0111638
0.0109672
0.0103524
0.00951828
0.00838408
0.00763625
0.00663321
0.00634878
0.00539017
0.00589237
0.00590548
0.00593077
0.00598875
0.00614452
0.0065693
0.00764929
0.0100229
0.0132966
0.0166129
0.0194015
0.0214555
0.0228132
0.0236185
0.024077
0.024316
0.0244279
0.0244984
0.0245705
0.024673
0.02486
0.0251721
0.0256349
0.0262688
0.0270816
0.0280666
0.0292059
0.0304709
0.0318272
0.0332421
0.0346817
0.0361067
0.0374816
0.0387769
0.0399654
0.0410217
0.0419235
0.0426511
0.0431881
0.0435225
0.0436503
0.0436113
0.0433885
0.0429014
0.0422074
0.041318
0.0402645
0.0390722
0.0377097
0.0361584
0.0345017
0.0327973
0.0309299
0.0288106
0.0265273
0.0240879
0.0216162
0.019008
0.0164192
0.0141406
0.0124514
0.0109772
0.00992895
0.00964337
0.00971016
0.00999873
0.0103584
0.0103444
0.00997666
0.00928905
0.00824376
0.00754703
0.00657802
0.0063011
0.00535375
0.00577874
0.00578556
0.00579932
0.00583607
0.00593773
0.00622142
0.00696627
0.00874151
0.0117005
0.0150272
0.0180711
0.0204902
0.0222178
0.0233656
0.0240651
0.0245008
0.0247571
0.0249266
0.0250641
0.0252038
0.0253991
0.0256937
0.0261194
0.0267019
0.027455
0.0283779
0.0294571
0.030668
0.0319774
0.033353
0.0347615
0.0361636
0.0375228
0.0388088
0.0399932
0.0410493
0.0419531
0.0426833
0.0432211
0.0435515
0.0436697
0.0436234
0.0433887
0.0428784
0.0421523
0.0412196
0.0401134
0.0388628
0.0374338
0.0358034
0.0340583
0.032264
0.030297
0.0280682
0.0256627
0.0230836
0.0204629
0.0177407
0.0150841
0.0127119
0.01095
0.00945629
0.00845093
0.00827121
0.00841362
0.00885988
0.00949578
0.00969278
0.00951769
0.00901682
0.00807785
0.00743648
0.00650746
0.00624032
0.00530929
0.00566635
0.00566796
0.00567215
0.00569274
0.0057567
0.00594087
0.00644195
0.0076761
0.0101779
0.013359
0.0165427
0.0192698
0.0213542
0.0228417
0.0238411
0.0244875
0.0249166
0.0252123
0.0254387
0.0256368
0.0258596
0.0261536
0.0265554
0.0270956
0.0277942
0.0286567
0.0296751
0.0308288
0.0320873
0.033419
0.0347911
0.0361651
0.037504
0.0387763
0.0399524
0.0410045
0.0419072
0.042638
0.0431752
0.0435007
0.0436089
0.0435557
0.0433098
0.0427783
0.0420223
0.0410488
0.0398923
0.0385859
0.0370931
0.0353866
0.0335562
0.031674
0.0296088
0.0272732
0.0247489
0.022036
0.0192689
0.016439
0.0137244
0.0112767
0.00944712
0.00795315
0.00701064
0.00691495
0.00711173
0.00768734
0.00858024
0.00902069
0.00899674
0.00868399
0.00789233
0.00730526
0.00642176
0.00616663
0.00525692
0.00555593
0.00555173
0.00554713
0.00555694
0.00559485
0.00571006
0.00603727
0.0068743
0.00878224
0.0116823
0.0148702
0.0178206
0.0202281
0.0220516
0.0233577
0.0242675
0.0248851
0.0253317
0.0256717
0.0259505
0.0262219
0.026534
0.0269278
0.027438
0.0280903
0.0288968
0.0298556
0.0309508
0.0321556
0.0334396
0.0347714
0.0361131
0.0374267
0.0386804
0.0398442
0.0408888
0.0417877
0.042517
0.0430524
0.0433721
0.0434699
0.04341
0.0431538
0.0426029
0.0418194
0.0408075
0.0396033
0.0382435
0.0366894
0.03491
0.0329976
0.0310296
0.0288675
0.0264277
0.0237886
0.0209489
0.0180399
0.0151115
0.0123486
0.00985031
0.0079708
0.00651217
0.00566283
0.00562232
0.00585398
0.00651575
0.00762693
0.00831743
0.00845266
0.00828627
0.00768095
0.00715259
0.006321
0.00608025
0.00519679
0.00544659
0.00543878
0.0054232
0.00542604
0.00544649
0.00551511
0.00572124
0.00627286
0.00760349
0.0100831
0.0131227
0.0161842
0.018856
0.0209974
0.0226127
0.0237967
0.024649
0.025266
0.0257403
0.0261227
0.0264646
0.0268154
0.0272195
0.0277146
0.0283319
0.0290897
0.0299924
0.03103
0.0321798
0.0334141
0.0347017
0.0360064
0.0372909
0.0385223
0.03967
0.0407038
0.0415962
0.0423221
0.0428547
0.0431675
0.0432544
0.0431882
0.0429223
0.0423536
0.0415449
0.0404974
0.0392479
0.0378372
0.0362243
0.0343753
0.0323845
0.0303328
0.0280751
0.025534
0.0227839
0.019825
0.0167817
0.0137673
0.0109663
0.00845015
0.00655876
0.00519367
0.00447623
0.00446412
0.00470733
0.00539376
0.00665862
0.00758439
0.00789989
0.00784457
0.00743171
0.00697607
0.00620542
0.00598149
0.00512913
0.00533824
0.0053283
0.0053026
0.0052969
0.00530699
0.00534556
0.00546979
0.00582095
0.00670285
0.0086222
0.0113788
0.0144185
0.0172689
0.0196884
0.0216053
0.023071
0.0241685
0.024995
0.0256279
0.026131
0.0265659
0.026977
0.0274113
0.0279089
0.0285053
0.0292245
0.0300775
0.0310606
0.032156
0.0333394
0.0345801
0.0358451
0.0370972
0.0383029
0.0394312
0.0404511
0.0413342
0.0420549
0.0425835
0.0428886
0.0429642
0.0428918
0.0426168
0.042032
0.0412003
0.0401196
0.0388276
0.0373685
0.0356991
0.0337837
0.0317184
0.0295849
0.0272332
0.0245936
0.0217371
0.0186671
0.0154999
0.0124153
0.00958974
0.0070978
0.00526292
0.0040753
0.00352831
0.00352933
0.00376064
0.00439497
0.00570556
0.00683219
0.00733601
0.00738504
0.00714204
0.00677291
0.0060761
0.00587099
0.00505416
0.00523082
0.00521932
0.00518696
0.00516927
0.00517282
0.0051927
0.00526363
0.00547815
0.00604411
0.00738258
0.00972644
0.0125975
0.0155144
0.0181475
0.02034
0.0220858
0.0234402
0.0244867
0.0253076
0.0259616
0.0265061
0.026997
0.0274827
0.0280022
0.0285942
0.029288
0.0301006
0.0310352
0.0320784
0.0332108
0.0344046
0.0356278
0.036845
0.0380221
0.0391281
0.0401314
0.0410028
0.0417164
0.0422401
0.0425366
0.0426007
0.0425222
0.0422384
0.0416389
0.0407866
0.0396752
0.0383433
0.0368382
0.0351147
0.0331362
0.0310006
0.0287872
0.0263432
0.0236083
0.0206503
0.0174776
0.0142008
0.0110646
0.00823511
0.00582406
0.00415286
0.00322887
0.0029728
0.00299806
0.00315998
0.00363572
0.00480017
0.00607736
0.00675949
0.00693079
0.0068115
0.00654007
0.00593664
0.00574984
0.00497182
0.00512427
0.00511167
0.00507585
0.00504494
0.00504127
0.00505016
0.00508804
0.00521276
0.00556226
0.0064258
0.00824063
0.0108062
0.0136574
0.0164133
0.0188336
0.0208428
0.0224559
0.0237355
0.0247564
0.0255806
0.0262643
0.0268587
0.0274144
0.027975
0.028581
0.0292653
0.03005
0.0309437
0.0319391
0.0330227
0.0341711
0.0353517
0.0365324
0.0376789
0.0387603
0.0397447
0.0406023
0.0413072
0.0418253
0.0421125
0.0421649
0.0420803
0.041788
0.0411754
0.0403044
0.0391648
0.0377959
0.0362471
0.0344715
0.0324334
0.030232
0.0279403
0.0254061
0.0225795
0.0195257
0.0162592
0.0128907
0.00972476
0.00692485
0.0046765
0.00329563
0.00279167
0.00276694
0.00284111
0.00294506
0.00320834
0.00403004
0.00534396
0.00617915
0.00648152
0.0064518
0.00628068
0.00578876
0.00561893
0.00488171
0.00501852
0.00500519
0.00496829
0.00492607
0.0049112
0.00491376
0.004932
0.00500015
0.00520626
0.00574313
0.00698858
0.00913477
0.0117785
0.014542
0.0171176
0.0193542
0.0212151
0.0227318
0.0239653
0.0249739
0.0258124
0.0265327
0.0271837
0.027808
0.0284479
0.0291396
0.0299096
0.0307731
0.0317292
0.032768
0.0338733
0.0350128
0.0361566
0.0372712
0.0383266
0.0392904
0.0401323
0.0408273
0.0413391
0.0416166
0.0416573
0.0415667
0.0412662
0.0406418
0.0397542
0.0385889
0.0371858
0.0355956
0.0337699
0.0316757
0.0294129
0.0270449
0.0244227
0.0215087
0.0183654
0.0150145
0.0115768
0.00840761
0.00569187
0.0037173
0.00279415
0.00262796
0.00273009
0.00298247
0.00302927
0.00310374
0.00351998
0.00465326
0.00560699
0.00603596
0.00608648
0.00599776
0.00562617
0.00547737
0.00478489
0.00491351
0.00489975
0.00486324
0.00481294
0.00478506
0.0047801
0.00478756
0.00482197
0.00493692
0.00525644
0.00603518
0.00766227
0.0099691
0.0126077
0.0152406
0.0176464
0.0197275
0.0214741
0.0229249
0.0241293
0.0251383
0.0260009
0.0267657
0.0274743
0.0281696
0.0288887
0.0296619
0.0305095
0.0314367
0.0324381
0.0335036
0.0346054
0.035713
0.0367958
0.0378246
0.0387668
0.0395919
0.0402758
0.0407813
0.0410487
0.041078
0.0409813
0.0406728
0.0400381
0.0391358
0.0379472
0.0365128
0.0348837
0.0330097
0.030863
0.0285437
0.0261009
0.0233937
0.0203974
0.0171719
0.0137472
0.010267
0.00712959
0.00458366
0.00302144
0.00256351
0.0025902
0.0029645
0.00337107
0.00338674
0.00326983
0.00336309
0.00406549
0.00505983
0.00559585
0.00573221
0.00570021
0.00544459
0.00532391
0.00468276
0.00480919
0.00479521
0.00475979
0.00470483
0.00466516
0.00464853
0.00464986
0.00466498
0.00472457
0.00490505
0.00537124
0.0064496
0.00832267
0.0107001
0.0132704
0.0157624
0.0180156
0.0199703
0.0216332
0.0230381
0.0242282
0.0252481
0.0261442
0.0269566
0.0277273
0.0284941
0.0292891
0.0301367
0.0310478
0.0320217
0.0330534
0.0341215
0.0351959
0.0362483
0.0372509
0.0381713
0.038979
0.0396513
0.0401506
0.0404078
0.0404266
0.0403237
0.0400076
0.0393641
0.0384488
0.0372394
0.0357768
0.0341111
0.0321907
0.0299952
0.0276242
0.0251085
0.0223196
0.0192474
0.0159479
0.0124619
0.00897068
0.00591659
0.00366294
0.00261584
0.00248316
0.00268831
0.00347187
0.00392923
0.00392624
0.00367467
0.00343127
0.00371548
0.00455363
0.00517085
0.00538955
0.00540303
0.00524575
0.00515864
0.00457599
0.0047055
0.00469149
0.00465732
0.00460059
0.00455179
0.00452231
0.00451488
0.00452014
0.0045481
0.00464361
0.00490885
0.0055552
0.00691538
0.00891667
0.0112927
0.0137643
0.0161186
0.0182408
0.0200972
0.0216981
0.0230738
0.024261
0.025303
0.0262359
0.0271013
0.0279356
0.0287718
0.0296369
0.0305468
0.0315053
0.0325121
0.0335522
0.0345978
0.0356225
0.0366006
0.0375002
0.0382906
0.0389512
0.0394449
0.0396926
0.0397018
0.0395928
0.0392695
0.0386189
0.0376924
0.0364646
0.034977
0.033277
0.0313121
0.0290719
0.0266542
0.0240673
0.021201
0.0180604
0.0146963
0.0111647
0.00770059
0.00480954
0.00298282
0.00241516
0.00246493
0.00302674
0.00417551
0.00458879
0.00456797
0.00428983
0.00362772
0.00363296
0.00412799
0.00477375
0.00505938
0.00512017
0.00503299
0.0049835
0.00446494
0.00460238
0.00458847
0.00455548
0.00449905
0.00444418
0.00440337
0.00438329
0.00438215
0.00439276
0.00443882
0.00458072
0.00494909
0.00580057
0.00735171
0.00940691
0.011734
0.0140944
0.016322