/*--------------------------------*- C++ -*----------------------------------*\
| =========                 |                                                 |
| \\      /  F ield         | OpenFOAM: The Open Source CFD Toolbox           |
|  \\    /   O peration     | Version:  2.4.0                                 |
|   \\  /    A nd           | Web:      www.OpenFOAM.org                      |
|    \\/     M anipulation  |                                                 |
\*---------------------------------------------------------------------------*/
FoamFile
{
    version     2.0;
    format      ascii;
    class       volScalarField;
    location    "80";
    object      nut;
}
// * * * * * * * * * * * * * * * * * * * * * * * * * * * * * * * * * * * * * //

dimensions      [0 2 -1 0 0 0 0];

internalField   nonuniform List<scalar> 
6000
(
1.3523e-05
9.84286e-06
5.61653e-06
5.2288e-06
5.77433e-06
6.67982e-06
7.36347e-06
8.04854e-06
7.26924e-06
8.18688e-06
9.08092e-06
9.79883e-06
9.87498e-06
9.41752e-06
1.23568e-05
6.95695e-06
1.11369e-05
1.41372e-05
1.6239e-05
1.76926e-05
1.86167e-05
1.9078e-05
1.91315e-05
1.88448e-05
1.82092e-05
1.74245e-05
1.6555e-05
1.56447e-05
1.47268e-05
1.38262e-05
1.29689e-05
1.22145e-05
1.15728e-05
1.09221e-05
1.0266e-05
9.60825e-06
8.95082e-06
8.29821e-06
7.65188e-06
7.04309e-06
5.90075e-06
6.17521e-06
6.48866e-06
6.82016e-06
7.15541e-06
7.48915e-06
7.81535e-06
8.13102e-06
8.43319e-06
8.72026e-06
8.991e-06
9.24541e-06
9.48265e-06
9.70453e-06
9.90647e-06
1.01019e-05
1.02566e-05
1.04659e-05
1.04758e-05
1.10648e-05
2.1716e-05
1.64113e-05
1.45821e-05
1.65026e-05
2.292e-05
2.70942e-05
3.87375e-05
5.08038e-05
4.29879e-05
3.41024e-05
2.69284e-05
2.11183e-05
1.62078e-05
1.6037e-05
1.60199e-05
1.06605e-05
1.13144e-05
1.17612e-05
1.22679e-05
1.30332e-05
1.42149e-05
1.59633e-05
1.83714e-05
2.1307e-05
2.39687e-05
2.66769e-05
2.93195e-05
3.17901e-05
3.40048e-05
3.58996e-05
3.7433e-05
3.86236e-05
3.97549e-05
4.08622e-05
4.19694e-05
4.31095e-05
4.42645e-05
4.54273e-05
4.64403e-05
4.72636e-05
4.43925e-05
4.03637e-05
3.65393e-05
3.29898e-05
2.97244e-05
2.67581e-05
2.40849e-05
2.16967e-05
1.95741e-05
1.76984e-05
1.6047e-05
1.45994e-05
1.33353e-05
1.22381e-05
1.12916e-05
1.04781e-05
9.80681e-06
9.1659e-06
8.73327e-06
7.54366e-06
2.84096e-05
2.20256e-05
1.98175e-05
2.48481e-05
4.36064e-05
5.49962e-05
7.20048e-05
8.54328e-05
7.93226e-05
6.77456e-05
5.74033e-05
4.76961e-05
3.58567e-05
2.70535e-05
1.72702e-05
1.25689e-05
1.34577e-05
1.57223e-05
1.96203e-05
2.53376e-05
3.28358e-05
4.16842e-05
5.08445e-05
5.87009e-05
6.43279e-05
6.90968e-05
7.29707e-05
7.59699e-05
7.81651e-05
7.96553e-05
8.05583e-05
8.10285e-05
8.12894e-05
8.14244e-05
8.14678e-05
8.1451e-05
8.13258e-05
8.10195e-05
8.02132e-05
7.92182e-05
7.58124e-05
7.12891e-05
6.66879e-05
6.21269e-05
5.7638e-05
5.32734e-05
4.9062e-05
4.50359e-05
4.12076e-05
3.75892e-05
3.41799e-05
3.09797e-05
2.79787e-05
2.51793e-05
2.25521e-05
2.01501e-05
1.7832e-05
1.59394e-05
1.37272e-05
1.29166e-05
3.19962e-05
2.5631e-05
2.31351e-05
2.92007e-05
5.52076e-05
7.43914e-05
9.30898e-05
0.000107073
0.000102014
8.95838e-05
7.84486e-05
6.74272e-05
5.06891e-05
3.29183e-05
1.76282e-05
1.58132e-05
2.00845e-05
2.78211e-05
3.85951e-05
5.12635e-05
6.4338e-05
7.64231e-05
8.63924e-05
9.35423e-05
9.8457e-05
0.000102231
0.000104984
0.000106851
0.000107978
0.00010851
0.000108582
0.000108331
0.000107877
0.000107289
0.00010659
0.000105789
0.000104816
0.000103533
0.000101644
9.98327e-05
9.65891e-05
9.26432e-05
8.85218e-05
8.43174e-05
8.00493e-05
7.57583e-05
7.14708e-05
6.72207e-05
6.30277e-05
5.89127e-05
5.48851e-05
5.09556e-05
4.71226e-05
4.34005e-05
3.97556e-05
3.62912e-05
3.27523e-05
2.99227e-05
2.61643e-05
2.65088e-05
3.37171e-05
2.77737e-05
2.52096e-05
3.14086e-05
5.99463e-05
8.56741e-05
0.000104764
0.000119308
0.000115126
0.000101952
9.04368e-05
7.87926e-05
5.81675e-05
3.45412e-05
1.89949e-05
2.14773e-05
3.14819e-05
4.59978e-05
6.22906e-05
7.77624e-05
9.09172e-05
0.000101251
0.000108781
0.000113726
0.000117054
0.000119442
0.000121047
0.000122015
0.000122475
0.000122542
0.000122313
0.000121872
0.000121278
0.000120564
0.000119735
0.000118769
0.000117577
0.000115951
0.000113785
0.00011192
0.000109271
0.000106153
0.000102834
9.9376e-05
9.57912e-05
9.21049e-05
8.83372e-05
8.45153e-05
8.06579e-05
7.6786e-05
7.29127e-05
6.90522e-05
6.52095e-05
6.14015e-05
5.76055e-05
5.39254e-05
5.01198e-05
4.70666e-05
4.30453e-05
4.42948e-05
3.45683e-05
2.90349e-05
2.64671e-05
3.22763e-05
6.12768e-05
9.11263e-05
0.000109968
0.000125724
0.0001227
0.000108759
9.68753e-05
8.4804e-05
6.15562e-05
3.37493e-05
2.18937e-05
2.98096e-05
4.62965e-05
6.5714e-05
8.35285e-05
9.7664e-05
0.000107952
0.000115036
0.000119652
0.000122324
0.000124005
0.000125113
0.000125788
0.000126136
0.000126239
0.000126163
0.000125955
0.000125646
0.000125251
0.000124765
0.000124172
0.000123415
0.000122383
0.000120811
0.000118936
0.000117515
0.000115665
0.000113447
0.000111016
0.000108418
0.000105663
0.000102766
9.97417e-05
9.66117e-05
9.33929e-05
9.01042e-05
8.67612e-05
8.33799e-05
7.99721e-05
7.65558e-05
7.31294e-05
6.97742e-05
6.63482e-05
6.35716e-05
6.02727e-05
6.19082e-05
3.50083e-05
2.97814e-05
2.71982e-05
3.23254e-05
6.04953e-05
9.22361e-05
0.000110894
0.000129025
0.000127359
0.000112465
9.99661e-05
8.74022e-05
6.2453e-05
3.22214e-05
2.64126e-05
4.04552e-05
6.22914e-05
8.33541e-05
9.94464e-05
0.000110219
0.000116812
0.000120558
0.000122468
0.000123105
0.000123311
0.000123335
0.000123266
0.000123161
0.000123054
0.000122962
0.000122888
0.000122825
0.000122748
0.000122622
0.000122407
0.000122018
0.000121311
0.000120019
0.000118812
0.000118103
0.000117112
0.000115792
0.000114255
0.000112536
0.000110647
0.000108598
0.000106402
0.000104074
0.000101631
9.90883e-05
9.64637e-05
9.37739e-05
9.10366e-05
8.82699e-05
8.54959e-05
8.27656e-05
8.00666e-05
7.78534e-05
7.57542e-05
7.75075e-05
3.52387e-05
3.0225e-05
2.75992e-05
3.19036e-05
5.82691e-05
9.05758e-05
0.000109032
0.000130868
0.000130786
0.000114565
0.00010096
8.77003e-05
6.10838e-05
3.12698e-05
3.2561e-05
5.26018e-05
7.74549e-05
9.73037e-05
0.000109939
0.000116767
0.000119771
0.000120568
0.000120203
0.000119189
0.0001182
0.00011735
0.000116677
0.000116195
0.000115901
0.000115782
0.000115809
0.000115946
0.000116145
0.000116345
0.000116489
0.000116461
0.000116088
0.000115216
0.000114871
0.000114928
0.000114756
0.000114278
0.000113583
0.000112704
0.000111659
0.000110451
0.000109096
0.000107605
0.000105993
0.000104274
0.000102467
0.000100587
9.8656e-05
9.66923e-05
9.47387e-05
9.28152e-05
9.10399e-05
8.95725e-05
8.88828e-05
9.06996e-05
3.53551e-05
3.04882e-05
2.77991e-05
3.12387e-05
5.50655e-05
8.7112e-05
0.00010527
0.000132184
0.000134117
0.000116047
0.000100606
8.63461e-05
5.74082e-05
3.1922e-05
4.02261e-05
6.52384e-05
9.05393e-05
0.000107341
0.000115929
0.000118994
0.000118927
0.00011737
0.000115273
0.000113045
0.000111157
0.000109618
0.000108427
0.000107578
0.00010705
0.000106811
0.000106821
0.000107025
0.000107363
0.000107756
0.000108136
0.00010836
0.00010823
0.000107911
0.000108398
0.000109134
0.000109668
0.00010992
0.000109967
0.000109841
0.000109563
0.000109138
0.000108581
0.000107903
0.000107119
0.000106242
0.000105289
0.000104278
0.000103232
0.000102166
0.000101141
0.000100147
9.94212e-05
9.88343e-05
9.96481e-05
0.000101587
3.54069e-05
3.06425e-05
2.78798e-05
3.04764e-05
5.13299e-05
8.20782e-05
0.000100596
0.000133242
0.000138097
0.000117613
9.93821e-05
8.36629e-05
5.28979e-05
3.41402e-05
4.91489e-05
7.74255e-05
0.000101041
0.000113932
0.000118585
0.000118453
0.000116014
0.000112772
0.000109497
0.00010645
0.0001039
0.000101794
0.000100122
9.88775e-05
9.8037e-05
9.75672e-05
9.74189e-05
9.75338e-05
9.78444e-05
9.82666e-05
9.87198e-05
9.90396e-05
9.90613e-05
9.93759e-05
0.000100501
0.000101755
0.000102836
0.000103672
0.000104326
0.000104827
0.0001052
0.000105452
0.000105602
0.00010566
0.000105645
0.00010557
0.000105456
0.000105317
0.000105182
0.000105061
0.00010503
0.000105049
0.000105456
0.000105857
0.000108216
0.000110386
3.54213e-05
3.073e-05
2.78923e-05
2.97061e-05
4.74296e-05
7.58695e-05
9.52694e-05
0.00013393
0.000143116
0.000119781
9.76197e-05
7.97864e-05
4.87209e-05
3.7863e-05
5.89358e-05
8.84726e-05
0.000108976
0.000117801
0.000119026
0.000116432
0.000112358
0.000108057
0.000104069
0.000100483
9.74167e-05
9.48022e-05
9.26492e-05
9.0968e-05
8.97449e-05
8.8948e-05
8.8526e-05
8.84192e-05
8.85596e-05
8.8859e-05
8.92304e-05
8.94947e-05
8.96608e-05
9.05507e-05
9.2061e-05
9.36501e-05
9.51106e-05
9.63727e-05
9.74851e-05
9.84726e-05
9.93595e-05
0.000100157
0.000100887
0.000101564
0.000102211
0.000102848
0.000103498
0.00010418
0.000104926
0.000105747
0.000106727
0.000107803
0.000109393
0.000110866
0.000114781
0.000117311
3.54139e-05
3.07761e-05
2.7868e-05
2.89792e-05
4.36382e-05
6.90007e-05
8.92965e-05
0.000134002
0.000149236
0.000122938
9.55777e-05
7.47853e-05
4.57865e-05
4.30456e-05
6.91097e-05
9.79946e-05
0.000114658
0.000119716
0.000118208
0.000113913
0.000108868
0.00010401
9.96338e-05
9.56699e-05
9.21463e-05
8.9032e-05
8.63792e-05
8.42261e-05
8.25713e-05
8.13859e-05
8.06161e-05
8.02008e-05
8.00717e-05
8.01363e-05
8.03035e-05
8.04051e-05
8.07957e-05
8.20333e-05
8.37042e-05
8.5459e-05
8.71422e-05
8.86845e-05
9.01166e-05
9.14558e-05
9.27238e-05
9.39335e-05
9.51077e-05
9.62684e-05
9.74442e-05
9.86628e-05
9.99571e-05
0.000101356
0.000102898
0.000104602
0.000106559
0.00010869
0.000111471
0.000114072
0.000119532
0.000122554
3.53938e-05
3.07966e-05
2.78257e-05
2.83222e-05
4.01375e-05
6.19925e-05
8.27263e-05
0.000133203
0.000156264
0.000127392
9.34957e-05
6.88649e-05
4.47766e-05
4.96131e-05
7.91881e-05
0.000105881
0.000118537
0.00012038
0.000116884
0.000111577
0.000106093
0.000101029
9.64565e-05
9.218e-05
8.81998e-05
8.45637e-05
8.1383e-05
7.87298e-05
7.6616e-05
7.50132e-05
7.38625e-05
7.30978e-05
7.26469e-05
7.24103e-05
7.22952e-05
7.22369e-05
7.28609e-05
7.41773e-05
7.58336e-05
7.76091e-05
7.93792e-05
8.10741e-05
8.2706e-05
8.42821e-05
8.58174e-05
8.7323e-05
8.88215e-05
9.03381e-05
9.19076e-05
9.35676e-05
9.53632e-05
9.73383e-05
9.95466e-05
0.00010202
0.000104865
0.000107996
0.000111933
0.000115681
0.000122645
0.000126287
3.53667e-05
3.08013e-05
2.77767e-05
2.77458e-05
3.70301e-05
5.52828e-05
7.57175e-05
0.000131336
0.000163845
0.000133408
9.17105e-05
6.33585e-05
4.56456e-05
5.74185e-05
8.87624e-05
0.000112226
0.00012109
0.000120385
0.000115605
0.000109856
0.000104319
9.92746e-05
9.46055e-05
9.00059e-05
8.55287e-05
8.13256e-05
7.75799e-05
7.44018e-05
7.18145e-05
6.97875e-05
6.82529e-05
6.71335e-05
6.63478e-05
6.5786e-05
6.53603e-05
6.52684e-05
6.59664e-05
6.71692e-05
6.8683e-05
7.03618e-05
7.21036e-05
7.38404e-05
7.55689e-05
7.72852e-05
7.89956e-05
8.07054e-05
8.24331e-05
8.42034e-05
8.60536e-05
8.80292e-05
9.01871e-05
9.25887e-05
9.53088e-05
9.84029e-05
0.000101999
0.000106023
0.000111029
0.000115902
0.000124302
0.000128674
3.53359e-05
3.07964e-05
2.77275e-05
2.72512e-05
3.43563e-05
4.91808e-05
6.84744e-05
0.000128295
0.000171555
0.000141194
9.07834e-05
5.92524e-05
4.83793e-05
6.6218e-05
9.75522e-05
0.000117248
0.000122771
0.000120199
0.000114748
0.000108999
0.000103678
9.87825e-05
9.40467e-05
8.90646e-05
8.40175e-05
7.91822e-05
7.4824e-05
7.1093e-05
6.80218e-05
6.55741e-05
6.36686e-05
6.22109e-05
6.11036e-05
6.02264e-05
5.95583e-05
5.95082e-05
6.00942e-05
6.10786e-05
6.23673e-05
6.38617e-05
6.54809e-05
6.71634e-05
6.88962e-05
7.06673e-05
7.24738e-05
7.43139e-05
7.61986e-05
7.81476e-05
8.0196e-05
8.23914e-05
8.47989e-05
8.7495e-05
9.05769e-05
9.41301e-05
9.83141e-05
0.000103085
0.000109027
0.000114956
0.00012469
0.000129879
3.53035e-05
3.07861e-05
2.76817e-05
2.68339e-05
3.21123e-05
4.38581e-05
6.12687e-05
0.000124077
0.000178959
0.000150849
9.15521e-05
5.7307e-05
5.30063e-05
7.56826e-05
0.000105423
0.000121229
0.000123978
0.000120177
0.000114562
0.000109143
0.000104214
9.95317e-05
9.47048e-05
8.92463e-05
8.35298e-05
7.79793e-05
7.29497e-05
6.86319e-05
6.50646e-05
6.2201e-05
5.9942e-05
5.81705e-05
5.67684e-05
5.561e-05
5.48641e-05
5.47822e-05
5.51627e-05
5.58892e-05
5.69136e-05
5.81694e-05
5.95966e-05
6.11455e-05
6.28006e-05
6.4547e-05
6.63759e-05
6.82795e-05
7.02605e-05
7.23313e-05
7.45198e-05
7.68701e-05
7.94484e-05
8.23404e-05
8.56613e-05
8.95267e-05
9.4133e-05
9.94824e-05
0.000106197
0.000113073
0.000124006
0.000130068
3.5271e-05
3.07728e-05
2.7641e-05
2.64868e-05
3.02662e-05
3.93696e-05
5.45411e-05
0.000118784
0.000185653
0.000162272
9.50878e-05
5.81365e-05
5.95519e-05
8.54473e-05
0.000112371
0.000124465
0.000125042
0.000120579
0.000115207
0.000110362
0.00010594
0.000101482
9.6498e-05
9.04368e-05
8.39297e-05
7.75678e-05
7.17995e-05
6.6855e-05
6.27752e-05
5.94974e-05
5.68994e-05
5.48381e-05
5.31718e-05
5.18259e-05
5.10987e-05
5.08903e-05
5.10508e-05
5.15238e-05
5.22813e-05
5.32786e-05
5.44743e-05
5.58331e-05
5.73437e-05
5.8994e-05
6.07746e-05
6.26755e-05
6.4694e-05
6.68348e-05
6.91172e-05
7.15773e-05
7.4276e-05
7.72996e-05
8.0773e-05
8.48362e-05
8.97205e-05
9.54847e-05
0.000102795
0.000110478
0.000122452
0.000129409
3.52391e-05
3.07583e-05
2.76061e-05
2.62017e-05
2.87716e-05
3.56861e-05
4.8554e-05
0.00011257
0.000191289
0.000175144
0.000102708
6.20379e-05
6.79679e-05
9.51793e-05
0.000118497
0.000127246
0.000126236
0.000121597
0.000116793
0.000112701
0.000108851
0.000104591
9.93442e-05
9.25268e-05
8.50931e-05
7.78153e-05
7.12361e-05
6.56214e-05
6.10093e-05
5.73147e-05
5.4387e-05
5.20556e-05
5.01578e-05
4.87767e-05
4.80197e-05
4.76584e-05
4.76207e-05
4.78693e-05
4.8383e-05
4.91307e-05
5.00852e-05
5.1225e-05
5.25461e-05
5.40435e-05
5.57128e-05
5.75468e-05
5.9542e-05
6.16989e-05
6.40294e-05
6.65605e-05
6.93436e-05
7.24591e-05
7.60317e-05
8.02152e-05
8.52682e-05
9.13066e-05
9.90431e-05
0.000107381
0.000120224
0.000128067
3.52084e-05
3.07436e-05
2.75773e-05
2.59704e-05
2.75772e-05
3.27264e-05
4.34849e-05
0.000105638
0.000195587
0.00018897
0.000114908
6.93847e-05
7.80737e-05
0.000104636
0.000123964
0.000129836
0.000127779
0.000123374
0.000119395
0.00011619
0.000112942
0.000108817
0.000103164
9.54154e-05
8.69101e-05
7.86089e-05
7.11457e-05
6.48165e-05
5.96504e-05
5.55335e-05
5.22813e-05
4.96957e-05
4.7645e-05
4.62937e-05
4.54439e-05
4.49421e-05
4.47398e-05
4.4802e-05
4.51082e-05
4.56341e-05
4.63614e-05
4.7279e-05
4.83904e-05
4.96992e-05
5.1209e-05
5.292e-05
5.48327e-05
5.69488e-05
5.92769e-05
6.18373e-05
6.46712e-05
6.78491e-05
7.14882e-05
7.57455e-05
8.08941e-05
8.70998e-05
9.51188e-05
0.000103964
0.000117501
0.000126193
3.51792e-05
3.07295e-05
2.75543e-05
2.57848e-05
2.66329e-05
3.03852e-05
3.93328e-05
9.82419e-05
0.000198357
0.000203145
0.000131133
8.04484e-05
8.95529e-05
0.000113693
0.000128975
0.00013247
0.000129849
0.000126022
0.000123075
0.000120852
0.000118204
0.000114117
0.000107878
9.90091e-05
8.92841e-05
7.98532e-05
7.14352e-05
6.43489e-05
5.86076e-05
5.40621e-05
5.04881e-05
4.76655e-05
4.55888e-05
4.4203e-05
4.32479e-05
4.26277e-05
4.22932e-05
4.22064e-05
4.2344e-05
4.26838e-05
4.32121e-05
4.39238e-05
4.48277e-05
4.59347e-05
4.72567e-05
4.88033e-05
5.0583e-05
5.26037e-05
5.48759e-05
5.74177e-05
6.02635e-05
6.34737e-05
6.71543e-05
7.14567e-05
7.66568e-05
8.29566e-05
9.11471e-05
0.000100367
0.000114437
0.000123923
3.51517e-05
3.07164e-05
2.75366e-05
2.56379e-05
2.58928e-05
2.85534e-05
3.59943e-05
9.06576e-05
0.000199505
0.000217037
0.000149763
9.51381e-05
0.000102019
0.000122345
0.000133747
0.000135357
0.000132593
0.000129631
0.000127879
0.000126702
0.000124619
0.000120448
0.000113406
0.000103219
9.2128e-05
8.14657e-05
7.20273e-05
6.41453e-05
5.78098e-05
5.28303e-05
4.89366e-05
4.59518e-05
4.38753e-05
4.23993e-05
4.13464e-05
4.06282e-05
4.01887e-05
3.99848e-05
3.99891e-05
4.01789e-05
4.05414e-05
4.10743e-05
4.17882e-05
4.2699e-05
4.3825e-05
4.51845e-05
4.67955e-05
4.86749e-05
5.08402e-05
5.33127e-05
5.61252e-05
5.93313e-05
6.30259e-05
6.73508e-05
7.25747e-05
7.89224e-05
8.72055e-05
9.66938e-05
0.000111156
0.000121368
3.51259e-05
3.07044e-05
2.75239e-05
2.55233e-05
2.53175e-05
2.71309e-05
3.33333e-05
8.31736e-05
0.000199033
0.000230077
0.000169773
0.000112886
0.000115116
0.000130686
0.000138499
0.000138681
0.000136137
0.000134275
0.000133845
0.000133739
0.000132155
0.00012775
0.000119662
0.000107958
9.53602e-05
8.33724e-05
7.28559e-05
6.41455e-05
5.72006e-05
5.17838e-05
4.75873e-05
4.45473e-05
4.2394e-05
4.08182e-05
3.9678e-05
3.88785e-05
3.83553e-05
3.80599e-05
3.79601e-05
3.80316e-05
3.82606e-05
3.86446e-05
3.91943e-05
3.9927e-05
4.08647e-05
4.20322e-05
4.34559e-05
4.51623e-05
4.71786e-05
4.95339e-05
5.22649e-05
5.54239e-05
5.90985e-05
6.34203e-05
6.8646e-05
7.50113e-05
8.33339e-05
9.30086e-05
0.000107749
0.000118619
3.51019e-05
3.06938e-05
2.75154e-05
2.54356e-05
2.48737e-05
2.60318e-05
3.12183e-05
7.6111e-05
0.000197036
0.000241824
0.000190182
0.000132802
0.000128606
0.000138879
0.000143446
0.000142608
0.000140586
0.000140012
0.000140991
0.000141945
0.000140759
0.000135949
0.000126552
0.000113135
9.89018e-05
8.55053e-05
7.38628e-05
6.42988e-05
5.67341e-05
5.08792e-05
4.64734e-05
4.33628e-05
4.10888e-05
3.94158e-05
3.8198e-05
3.73303e-05
3.67398e-05
3.63724e-05
3.61917e-05
3.61707e-05
3.62941e-05
3.65578e-05
3.69706e-05
3.75491e-05
3.83165e-05
3.93009e-05
4.05344e-05
4.20519e-05
4.38904e-05
4.60891e-05
4.86931e-05
5.17591e-05
5.53729e-05
5.96596e-05
6.48627e-05
7.12214e-05
7.95474e-05
8.93482e-05
0.000104277
0.000115742
3.50795e-05
3.06845e-05
2.75108e-05
2.53701e-05
2.4534e-05
2.51853e-05
2.9536e-05
7.01032e-05
0.000193678
0.000251956
0.000210212
0.000153962
0.000142393
0.000147134
0.000148797
0.000147283
0.000146027
0.000146881
0.000149309
0.00015127
0.000150347
0.00014494
0.00013397
0.000118659
0.000102674
8.77994e-05
7.4995e-05
6.45611e-05
5.63717e-05
5.01069e-05
4.55917e-05
4.23261e-05
3.99245e-05
3.81598e-05
3.68726e-05
3.5947e-05
3.53017e-05
3.48775e-05
3.46337e-05
3.45408e-05
3.45813e-05
3.47491e-05
3.50504e-05
3.54998e-05
3.61194e-05
3.69379e-05
3.79905e-05
3.93173e-05
4.09635e-05
4.29785e-05
4.54178e-05
4.8347e-05
5.18561e-05
5.60689e-05
6.12191e-05
6.7546e-05
7.58468e-05
8.57287e-05
0.000100778
0.000112781
3.50588e-05
3.06766e-05
2.75096e-05
2.53228e-05
2.42763e-05
2.4535e-05
2.8192e-05
6.49648e-05
0.000189127
0.000260273
0.000229246
0.000175573
0.00015651
0.000155687
0.000154746
0.000152836
0.000152529
0.000154893
0.000158758
0.000161626
0.000160805
0.0001546
0.000141798
0.00012443
0.000106598
9.01918e-05
7.62031e-05
6.48931e-05
5.60827e-05
4.95455e-05
4.48479e-05
4.14025e-05
3.88758e-05
3.70252e-05
3.56758e-05
3.47007e-05
3.40107e-05
3.35412e-05
3.32479e-05
3.30989e-05
3.30746e-05
3.31666e-05
3.33783e-05
3.37217e-05
3.42165e-05
3.48902e-05
3.57782e-05
3.69233e-05
3.83756e-05
4.01929e-05
4.2441e-05
4.51965e-05
4.85582e-05
5.26547e-05
5.7715e-05
6.39799e-05
7.22279e-05
8.21543e-05
9.72741e-05
0.000109766
3.50397e-05
3.067e-05
2.75112e-05
2.52905e-05
2.4083e-05
2.40365e-05
2.71111e-05
6.04286e-05
0.000183673
0.000266625
0.000246777
0.000196926
0.000171065
0.000164783
0.00016148
0.000159378
0.000160133
0.000164024
0.00016925
0.00017288
0.000171982
0.000164781
0.000149902
0.000130343
0.00011059
9.2621e-05
7.74401e-05
6.52584e-05
5.59202e-05
4.91497e-05
4.41962e-05
4.05695e-05
3.79226e-05
3.59922e-05
3.45872e-05
3.35698e-05
3.2843e-05
3.23375e-05
3.20054e-05
3.18125e-05
3.17374e-05
3.17696e-05
3.19098e-05
3.2167e-05
3.25582e-05
3.31086e-05
3.38517e-05
3.48304e-05
3.60971e-05
3.77145e-05
3.97569e-05
4.23118e-05
4.54891e-05
4.9427e-05
5.43563e-05
6.05228e-05
6.8687e-05
7.86237e-05
9.37725e-05
0.000106712
3.50221e-05
3.06647e-05
2.75153e-05
2.52703e-05
2.39402e-05
2.36553e-05
2.62352e-05
5.63415e-05
0.000177512
0.000270952
0.000262439
0.000217253
0.000186179
0.000174657
0.000169166
0.000166996
0.00016885
0.000174207
0.00018065
0.00018485
0.000183683
0.000175304
0.000158132
0.000136284
0.000114566
9.50259e-05
7.86607e-05
6.56482e-05
5.59563e-05
4.88331e-05
4.36126e-05
3.98094e-05
3.70486e-05
3.50446e-05
3.35903e-05
3.25369e-05
3.17801e-05
3.12461e-05
3.08835e-05
3.06563e-05
3.05414e-05
3.05263e-05
3.06094e-05
3.0797e-05
3.11031e-05
3.15499e-05
3.21683e-05
3.29992e-05
3.40945e-05
3.55192e-05
3.73525e-05
3.96909e-05
4.26555e-05
4.63969e-05
5.11528e-05
5.71797e-05
6.52237e-05
7.51348e-05
9.02762e-05
0.000103628
3.50058e-05
3.06604e-05
2.75215e-05
2.52599e-05
2.38368e-05
2.33648e-05
2.55199e-05
5.26152e-05
0.000170555
0.000273214
0.000276139
0.000236145
0.000201899
0.000185517
0.000177948
0.000175747
0.000178651
0.000185331
0.000192771
0.000197304
0.000195672
0.000185951
0.00016632
0.000142132
0.000118438
9.73454e-05
7.98254e-05
6.62251e-05
5.60721e-05
4.85624e-05
4.30797e-05
3.91075e-05
3.62401e-05
3.41691e-05
3.26716e-05
3.15881e-05
3.08073e-05
3.02508e-05
2.98646e-05
2.96107e-05
2.94644e-05
2.9412e-05
2.94496e-05
2.95809e-05
2.98174e-05
3.0178e-05
3.06905e-05
3.13926e-05
3.23341e-05
3.35791e-05
3.5209e-05
3.73256e-05
4.00592e-05
4.35733e-05
4.8116e-05
5.39598e-05
6.1842e-05
7.16874e-05
8.67847e-05
0.000100514
3.49909e-05
3.06573e-05
2.75295e-05
2.52575e-05
2.37641e-05
2.31445e-05
2.49313e-05
4.92008e-05
0.000162842
0.000273394
0.000287793
0.000253408
0.000218089
0.00019751
0.000187938
0.000185656
0.000189467
0.000197235
0.00020538
0.000209964
0.000207669
0.000196463
0.000174278
0.000147756
0.000122113
9.95184e-05
8.11087e-05
6.69058e-05
5.62104e-05
4.83177e-05
4.25831e-05
3.84515e-05
3.54856e-05
3.33547e-05
3.18201e-05
3.0712e-05
2.99124e-05
2.93388e-05
2.89344e-05
2.86599e-05
2.84892e-05
2.84072e-05
2.84082e-05
2.84942e-05
2.86737e-05
2.8963e-05
2.93862e-05
2.99777e-05
3.07836e-05
3.18655e-05
3.33036e-05
3.52019e-05
3.76966e-05
4.09617e-05
4.52572e-05
5.08749e-05
5.85501e-05
6.82843e-05
8.32978e-05
9.73697e-05
3.49773e-05
3.0655e-05
2.7539e-05
2.52615e-05
2.37154e-05
2.29785e-05
2.44435e-05
4.607e-05
0.000154473
0.000271511
0.000297305
0.000269038
0.000234326
0.000210685
0.000199199
0.000196701
0.00020118
0.000209714
0.0002182
0.000222512
0.000219348
0.000206535
0.000181795
0.000153016
0.000125496
0.000101729
8.2509e-05
6.75817e-05
5.63442e-05
4.80832e-05
4.21102e-05
3.78305e-05
3.47754e-05
3.2592e-05
3.10265e-05
2.98992e-05
2.90856e-05
2.84995e-05
2.80817e-05
2.77914e-05
2.76017e-05
2.74963e-05
2.74681e-05
2.75173e-05
2.76502e-05
2.78804e-05
2.82288e-05
2.8726e-05
2.94141e-05
3.03506e-05
3.16125e-05
3.33026e-05
3.5559e-05
3.85632e-05
4.25852e-05
4.79377e-05
5.53592e-05
6.4932e-05
7.98166e-05
9.41933e-05
3.49648e-05
3.06537e-05
2.75498e-05
2.52705e-05
2.36854e-05
2.28549e-05
2.40368e-05
4.32054e-05
0.000145583
0.000267625
0.000304586
0.000283054
0.000250216
0.000224821
0.000211693
0.000208816
0.000213625
0.000222517
0.00023092
0.000234594
0.000230337
0.000215815
0.000188633
0.000157768
0.000128853
0.000104016
8.38693e-05
6.82124e-05
5.64544e-05
4.78452e-05
4.16502e-05
3.72352e-05
3.4101e-05
3.18732e-05
3.02832e-05
2.91418e-05
2.83187e-05
2.77241e-05
2.72968e-05
2.69949e-05
2.67906e-05
2.66668e-05
2.66152e-05
2.66345e-05
2.67292e-05
2.69104e-05
2.71962e-05
2.76134e-05
2.82e-05
2.90086e-05
3.01116e-05
3.16078e-05
3.36339e-05
3.63742e-05
4.01054e-05
4.51599e-05
5.22826e-05
6.16404e-05
7.63448e-05
9.09832e-05
3.49533e-05
3.06531e-05
2.75615e-05
2.52835e-05
2.36699e-05
2.27642e-05
2.3696e-05
4.05941e-05
0.000136327
0.000261833
0.000309558
0.000295402
0.000265438
0.000239583
0.000225208
0.000221816
0.00022658
0.00023534
0.000243182
0.000245829
0.00024023
0.000223918
0.000194777
0.000162346
0.000132147
0.000106197
8.51275e-05
6.87725e-05
5.65245e-05
4.75914e-05
4.11934e-05
3.66577e-05
3.34556e-05
3.11917e-05
2.95836e-05
2.84332e-05
2.76047e-05
2.70053e-05
2.65721e-05
2.6262e-05
2.60468e-05
2.59086e-05
2.58382e-05
2.58332e-05
2.58965e-05
2.6037e-05
2.62704e-05
2.66199e-05
2.71194e-05
2.78166e-05
2.87781e-05
3.00973e-05
3.1906e-05
3.43871e-05
3.78196e-05
4.25512e-05
4.93341e-05
5.8422e-05
7.2889e-05
8.77394e-05
3.49429e-05
3.06533e-05
2.75741e-05
2.52997e-05
2.36656e-05
2.26993e-05
2.34091e-05
3.82248e-05
0.000126869
0.000254272
0.000312173
0.000305969
0.0002797
0.000254539
0.000239423
0.000235415
0.000239748
0.000247873
0.00025467
0.000255933
0.000248846
0.000230944
0.000200365
0.00016663
0.000135219
0.000108193
8.62486e-05
6.92414e-05
5.654e-05
4.73113e-05
4.07316e-05
3.60912e-05
3.2833e-05
3.05419e-05
2.89222e-05
2.77678e-05
2.6938e-05
2.63371e-05
2.59009e-05
2.55856e-05
2.53624e-05
2.52131e-05
2.51278e-05
2.51029e-05
2.51403e-05
2.5247e-05
2.54364e-05
2.57287e-05
2.61537e-05
2.67543e-05
2.75913e-05
2.8751e-05
3.03585e-05
3.25913e-05
3.57254e-05
4.01184e-05
4.6527e-05
5.52909e-05
6.94588e-05
8.44636e-05
3.49333e-05
3.06541e-05
2.75873e-05
2.53182e-05
2.367e-05
2.26545e-05
2.3167e-05
3.60858e-05
0.000117371
0.000245112
0.000312416
0.000314609
0.000292737
0.00026922
0.000253919
0.000249258
0.000252799
0.000259823
0.000265164
0.0002648
0.000256194
0.000236984
0.000205344
0.000170506
0.000137982
0.000109957
8.72056e-05
6.96007e-05
5.6488e-05
4.69953e-05
4.02577e-05
3.553e-05
3.22284e-05
2.99192e-05
2.82945e-05
2.71409e-05
2.63135e-05
2.57143e-05
2.52777e-05
2.49597e-05
2.4731e-05
2.45733e-05
2.44761e-05
2.44351e-05
2.4451e-05
2.45296e-05
2.46819e-05
2.49257e-05
2.52872e-05
2.58046e-05
2.65325e-05
2.75502e-05
2.89742e-05
3.09737e-05
3.3817e-05
3.78647e-05
4.38726e-05
5.22625e-05
6.6066e-05
8.116e-05
3.49246e-05
3.06554e-05
2.7601e-05
2.53387e-05
2.36811e-05
2.26256e-05
2.29621e-05
3.41648e-05
0.000107988
0.000234549
0.000310313
0.00032117
0.000304295
0.000283163
0.000268224
0.000262943
0.000265399
0.000270937
0.000274515
0.000272388
0.000262323
0.000242088
0.000209661
0.000173897
0.000140379
0.000111454
8.79756e-05
6.98347e-05
5.63574e-05
4.66356e-05
3.97656e-05
3.49694e-05
3.16376e-05
2.93196e-05
2.76966e-05
2.65487e-05
2.57272e-05
2.51323e-05
2.46978e-05
2.43792e-05
2.41472e-05
2.39833e-05
2.38768e-05
2.38226e-05
2.38207e-05
2.38757e-05
2.39968e-05
2.41995e-05
2.45067e-05
2.49523e-05
2.55854e-05
2.64777e-05
2.77364e-05
2.95203e-05
3.20859e-05
3.57899e-05
4.13801e-05
4.93519e-05
6.27249e-05
7.7835e-05
3.49167e-05
3.06571e-05
2.7615e-05
2.53604e-05
2.36972e-05
2.2609e-05
2.27887e-05
3.24482e-05
9.88624e-05
0.000222805
0.000305931
0.00032552
0.000314139
0.000295948
0.000281863
0.000276062
0.000277235
0.000281009
0.00028263
0.000278703
0.000267295
0.00024628
0.000213271
0.000176747
0.000142372
0.000112657
8.85389e-05
6.99294e-05
5.61385e-05
4.62255e-05
3.92507e-05
3.44053e-05
3.10572e-05
2.874e-05
2.71253e-05
2.59877e-05
2.51754e-05
2.45875e-05
2.41571e-05
2.38397e-05
2.36063e-05
2.34381e-05
2.33242e-05
2.32594e-05
2.32427e-05
2.32778e-05
2.33725e-05
2.35402e-05
2.38011e-05
2.41849e-05
2.47356e-05
2.55178e-05
2.66291e-05
2.82164e-05
3.05214e-05
3.38906e-05
3.90556e-05
4.65732e-05
5.94514e-05
7.44975e-05
3.49094e-05
3.06593e-05
2.76292e-05
2.53831e-05
2.37172e-05
2.26022e-05
2.26421e-05
3.09222e-05
9.01161e-05
0.000210117
0.000299382
0.000327564
0.000322061
0.00030722
0.000294396
0.000288228
0.000288025
0.000289878
0.000289459
0.000283773
0.000271167
0.000249571
0.00021614
0.000179017
0.000143928
0.000113543
8.8879e-05
6.98734e-05
5.58235e-05
4.57595e-05
3.87089e-05
3.38349e-05
3.04845e-05
2.81778e-05
2.6578e-05
2.5455e-05
2.46552e-05
2.40765e-05
2.36521e-05
2.33376e-05
2.31041e-05
2.29331e-05
2.28137e-05
2.27402e-05
2.27113e-05
2.27297e-05
2.2802e-05
2.29398e-05
2.31609e-05
2.34916e-05
2.3971e-05
2.46569e-05
2.56375e-05
2.70475e-05
2.91115e-05
3.21607e-05
3.6902e-05
4.3939e-05
5.6262e-05
7.11589e-05
3.49029e-05
3.06618e-05
2.76436e-05
2.54065e-05
2.37401e-05
2.26031e-05
2.25184e-05
2.95722e-05
8.1851e-05
0.000196731
0.000290815
0.000327251
0.000327888
0.000316694
0.00030545
0.000299099
0.000297531
0.000297426
0.000294982
0.000287637
0.000273989
0.000251965
0.000218246
0.00018068
0.000145024
0.000114092
8.89822e-05
6.96573e-05
5.54063e-05
4.52337e-05
3.81375e-05
3.32559e-05
2.99176e-05
2.76309e-05
2.60524e-05
2.49484e-05
2.41639e-05
2.35966e-05
2.31797e-05
2.28695e-05
2.26373e-05
2.24649e-05
2.23413e-05
2.22608e-05
2.22217e-05
2.22259e-05
2.22791e-05
2.23914e-05
2.25784e-05
2.28633e-05
2.32809e-05
2.38827e-05
2.47482e-05
2.59995e-05
2.78434e-05
3.05916e-05
3.49188e-05
4.14591e-05
5.31738e-05
6.78325e-05
3.48969e-05
3.06646e-05
2.76581e-05
2.54302e-05
2.3765e-05
2.26099e-05
2.24143e-05
2.83835e-05
7.41455e-05
0.000182896
0.000280418
0.000324586
0.000331492
0.000324156
0.000314733
0.000308399
0.000305565
0.000303567
0.0002992
0.000290339
0.0002758
0.000253463
0.000219575
0.000181716
0.000145643
0.000114292
8.88384e-05
6.92742e-05
5.48825e-05
4.46452e-05
3.75345e-05
3.26668e-05
2.9355e-05
2.70979e-05
2.55468e-05
2.44658e-05
2.36993e-05
2.31452e-05
2.27374e-05
2.24325e-05
2.22027e-05
2.20299e-05
2.19034e-05
2.18173e-05
2.17697e-05
2.17619e-05
2.17988e-05
2.18891e-05
2.20467e-05
2.22921e-05
2.26562e-05
2.31848e-05
2.39492e-05
2.50596e-05
2.67045e-05
2.91734e-05
3.3103e-05
3.91408e-05
5.0203e-05
6.45337e-05
3.48914e-05
3.06676e-05
2.76725e-05
2.54541e-05
2.37914e-05
2.26215e-05
2.23273e-05
2.73416e-05
6.70538e-05
0.000168855
0.000268408
0.000319625
0.000332797
0.000329461
0.000322038
0.00031592
0.000311988
0.000308249
0.000302122
0.000291914
0.000276629
0.000254056
0.000220122
0.000182116
0.000145773
0.000114131
8.84401e-05
6.87194e-05
5.42492e-05
4.39925e-05
3.68992e-05
3.20668e-05
2.87958e-05
2.65775e-05
2.50597e-05
2.40055e-05
2.32595e-05
2.27203e-05
2.23227e-05
2.20243e-05
2.17976e-05
2.16254e-05
2.14969e-05
2.14064e-05
2.13516e-05
2.13336e-05
2.13565e-05
2.1428e-05
2.15602e-05
2.17715e-05
2.20891e-05
2.25541e-05
2.32299e-05
2.42157e-05
2.56821e-05
2.78952e-05
3.14486e-05
3.69881e-05
4.73648e-05
6.12794e-05
3.48865e-05
3.06709e-05
2.76868e-05
2.5478e-05
2.38188e-05
2.26368e-05
2.22551e-05
2.64326e-05
6.0607e-05
0.000154842
0.000255028
0.000312471
0.000331777
0.000332525
0.000327235
0.000321528
0.00031671
0.000311443
0.000303768
0.000292397
0.0002765
0.000253754
0.000219887
0.000181876
0.000145407
0.000113605
8.77833e-05
6.79905e-05
5.35055e-05
4.32754e-05
3.62313e-05
3.14559e-05
2.82396e-05
2.60691e-05
2.45902e-05
2.35663e-05
2.28428e-05
2.232e-05
2.19337e-05
2.16425e-05
2.14198e-05
2.12488e-05
2.11192e-05
2.10252e-05
2.09645e-05
2.09378e-05
2.09487e-05
2.10038e-05
2.1114e-05
2.12956e-05
2.15729e-05