/*--------------------------------*- C++ -*----------------------------------*\
| =========                 |                                                 |
| \\      /  F ield         | OpenFOAM: The Open Source CFD Toolbox           |
|  \\    /   O peration     | Version:  2.4.0                                 |
|   \\  /    A nd           | Web:      www.OpenFOAM.org                      |
|    \\/     M anipulation  |                                                 |
\*---------------------------------------------------------------------------*/
FoamFile
{
    version     2.0;
    format      ascii;
    class       volScalarField;
    location    "7.24";
    object      epsilon;
}
// * * * * * * * * * * * * * * * * * * * * * * * * * * * * * * * * * * * * * //

dimensions      [0 2 -3 0 0 0 0];

internalField   nonuniform List<scalar> 
6000
(
54.1729
1.0976
0.0202856
0.13449
0.0725456
0.0863225
0.0615948
0.057541
0.0460697
0.0418603
0.0363666
0.0339936
0.0318233
0.0312902
0.0313141
0.0323946
0.0341345
0.0367457
0.0401085
0.0443458
0.0494505
0.0555024
0.062516
0.0705173
0.079476
0.0893363
0.0999894
0.111275
0.122952
0.134698
0.146101
0.156662
0.165805
0.172892
0.177233
0.178185
0.175204
0.167868
0.156084
0.140058
0.120703
0.0993077
0.0781476
0.0582299
0.0910327
0.142474
0.215386
0.323518
0.465647
0.678086
0.929428
1.3402
1.74653
2.58968
3.15887
5.1399
5.60715
11.23
10.2289
28.7315
17.7229
0.975471
0.0253661
0.074223
0.0418215
0.0473832
0.0343673
0.0316122
0.0254716
0.0229709
0.0199749
0.0185583
0.0173131
0.0168954
0.016783
0.0171905
0.0179221
0.0190592
0.0205358
0.0223926
0.0246142
0.0272219
0.0302102
0.033579
0.0373072
0.0413666
0.0457118
0.0502817
0.0549898
0.0597236
0.0643436
0.0686827
0.0725478
0.0757191
0.0779646
0.0790491
0.0787572
0.0768931
0.0733466
0.0680808
0.0612909
0.0533109
0.0449145
0.0367942
0.0534857
0.0776612
0.110024
0.15543
0.213012
0.295438
0.391968
0.543029
0.696492
0.993992
1.21709
1.88914
2.13006
3.96285
3.89323
9.67926
7.13598
0.711155
0.0303049
0.0435437
0.0252882
0.0273059
0.0200715
0.0181966
0.0147488
0.0132187
0.0115192
0.0106627
0.00994099
0.00966408
0.00956919
0.00975172
0.0101123
0.0106839
0.0114317
0.0123705
0.0134903
0.0147978
0.0162883
0.0179597
0.0198018
0.0218021
0.0239421
0.0261977
0.0285352
0.0309116
0.0332737
0.0355579
0.037689
0.0395783
0.0411368
0.0422557
0.0428309
0.0427543
0.0419381
0.0403096
0.0378842
0.0347404
0.0311819
0.027801
0.0376856
0.0512001
0.0683722
0.0910977
0.11878
0.156352
0.199654
0.263828
0.330575
0.450273
0.549526
0.807126
0.934819
1.60504
1.69079
3.70689
3.42004
0.518235
0.0345341
0.0274552
0.016062
0.0164806
0.0122275
0.0109289
0.00890525
0.00794336
0.00694814
0.00642743
0.00601088
0.0058487
0.00580355
0.00591914
0.00614379
0.00649177
0.00694528
0.00751084
0.00818363
0.00896679
0.00985832
0.0108574
0.0119597
0.0131598
0.0144497
0.0158186
0.0172516
0.0187293
0.0202276
0.0217173
0.0231627
0.024525
0.0257607
0.0268119
0.0276228
0.0281323
0.0282842
0.0280245
0.0273378
0.0262364
0.0248487
0.0236767
0.0302164
0.0388259
0.0493655
0.0626778
0.0784192
0.0987344
0.121839
0.15402
0.188176
0.244113
0.294863
0.407463
0.479487
0.754694
0.841701
1.62099
1.89782
0.395525
0.038649
0.01904
0.0107889
0.0104248
0.0077615
0.00683425
0.00559349
0.00497318
0.00437576
0.00406085
0.00382707
0.00374823
0.00374979
0.00385237
0.00402852
0.0042852
0.00461364
0.00501763
0.00549549
0.00604946
0.00667916
0.00738459
0.00816384
0.00901433
0.00993206
0.0109115
0.0119448
0.0130219
0.0141305
0.0152556
0.016378
0.0174855
0.0185495
0.0195398
0.0204263
0.0211743
0.0217495
0.0221148
0.0222501
0.0221443
0.0218501
0.0217862
0.0265135
0.0325612
0.0397552
0.0485102
0.0586723
0.0712755
0.0855729
0.104399
0.124896
0.155478
0.185659
0.242598
0.287564
0.415861
0.482684
0.819855
1.19136
0.318419
0.042975
0.0149621
0.00776901
0.00694068
0.00514107
0.00444952
0.00365278
0.00324222
0.00287701
0.00269067
0.00256873
0.00254736
0.00258449
0.00269018
0.00284972
0.00306715
0.00333859
0.00366688
0.00405203
0.00449596
0.00499911
0.00556185
0.00618343
0.00686267
0.0075976
0.00838546
0.00922233
0.0101033
0.0110224
0.0119724
0.0129447
0.0139354
0.0149261
0.0158998
0.0168387
0.0177206
0.0185221
0.019216
0.0197826
0.0202038
0.0204998
0.0210226
0.024691
0.0292716
0.0345907
0.0408584
0.0480279
0.0566344
0.0664241
0.0787501
0.0925731
0.111609
0.131961
0.165005
0.196236
0.264407
0.314862
0.478923
0.829186
0.268834
0.0475658
0.0135339
0.00612323
0.00490721
0.00356984
0.00302286
0.0024834
0.00220337
0.00197724
0.00187225
0.00181972
0.00183679
0.00189872
0.00201077
0.00216515
0.00236484
0.00260862
0.00289904
0.00323704
0.00362449
0.00406231
0.0045513
0.00509157
0.0056831
0.00632553
0.00701817
0.00775976
0.00854861
0.00938246
0.0102581
0.011173
0.0121234
0.0130974
0.014084
0.0150704
0.0160407
0.0169775
0.0178598
0.0186711
0.0193925
0.0200284
0.02088
0.0238851
0.0275563
0.0317335
0.036518
0.041915
0.0482104
0.0553793
0.0640844
0.0740994
0.087062
0.101902
0.123248
0.146628
0.187281
0.226668
0.315102
0.628421
0.235882
0.0523294
0.0138399
0.00540385
0.00373657
0.00262009
0.00215341
0.00176352
0.00156472
0.00142319
0.00136996
0.00136093
0.00140336
0.00148217
0.00160042
0.00175429
0.00194639
0.00217708
0.00244884
0.00276323
0.00312226
0.00352735
0.00397982
0.00448069
0.00503098
0.00563162
0.00628339
0.0069867
0.00774159
0.0085476
0.00940326
0.0103083
0.0112576
0.0122429
0.0132558
0.0142863
0.0153217
0.0163484
0.0173498
0.0183132
0.0192193
0.0200647
0.0211095
0.0236727
0.0267398
0.0301692
0.034002
0.0382671
0.0431168
0.0486268
0.055117
0.0627138
0.0720921
0.0833922
0.0982505
0.116442
0.142969
0.174434
0.226044
0.510222
0.213249
0.0571101
0.0153567
0.00536324
0.00311816
0.00205726
0.00162121
0.00131508
0.00116545
0.00107544
0.00105508
0.0010736
0.00113301
0.00122373
0.00134784
0.00150387
0.00169434
0.00192058
0.00218517
0.00249017
0.00283787
0.00323022
0.00366914
0.00415642
0.0046939
0.00528339
0.00592653
0.00662457
0.00737833
0.00818805
0.00905305
0.00997208
0.0109403
0.0119512
0.0129974
0.0140705
0.0151596
0.0162537
0.0173395
0.0184075
0.0194337
0.020417
0.0215785
0.0238317
0.0264731
0.0293812
0.0325633
0.0360585
0.0399443
0.044338
0.0493813
0.055342
0.0624352
0.0712834
0.0821852
0.0966163
0.115123
0.140483
0.172528
0.437373
0.197245
0.0617373
0.0177417
0.00586785
0.00289258
0.00175252
0.00130359
0.00103753
0.000914885
0.00085544
0.000855699
0.000892003
0.000963332
0.00106328
0.00119345
0.00135377
0.00154683
0.00177458
0.00203983
0.00234507
0.00269295
0.00308592
0.00352644
0.00401689
0.00455964
0.00515699
0.00581101
0.0065233
0.00729491
0.0081263
0.00901654
0.00996317
0.0109618
0.0120066
0.0130908
0.0142066
0.0153442
0.0164946
0.0176462
0.0187917
0.0198995
0.0209785
0.0222107
0.0242365
0.0265627
0.0290879
0.0318
0.034742
0.0379491
0.0415524
0.0455988
0.0504033
0.0559576
0.0630439
0.07137
0.0829831
0.0965708
0.117105
0.13809
0.390905
0.185658
0.0660567
0.0207402
0.00683827
0.00298392
0.00163745
0.00113232
0.000873634
0.000761283
0.00071832
0.000731053
0.00077913
0.000859474
0.000967426
0.00110431
0.00127088
0.00146984
0.00170362
0.00197529
0.00228774
0.002644
0.00304694
0.00349944
0.00400427
0.00456412
0.00518152
0.00585873
0.00659739
0.00739856
0.00826271
0.00918756
0.0101703
0.0112067
0.012291
0.0134167
0.0145761
0.01576
0.0169604
0.0181674
0.0193716
0.0205381
0.0216852
0.0229588
0.0248111
0.0268941
0.029125
0.0314813
0.034007
0.0367123
0.0397306
0.0430573
0.0470139
0.0514841
0.0572729
0.0638392
0.0733233
0.0837133
0.100464
0.114899
0.360499
0.177122
0.0699505
0.0241393
0.00822482
0.0033523
0.00167992
0.0010708
0.000791318
0.000675172
0.000638372
0.00065782
0.000713842
0.000801572
0.000917141
0.00106161
0.00123622
0.00144383
0.00168723
0.00196977
0.00229471
0.00266541
0.0030851
0.00355695
0.00408397
0.00466902
0.00531471
0.00602332
0.00679642
0.00763494
0.00853897
0.00950473
0.0105294
0.0116086
0.0127363
0.013906
0.01511
0.0163389
0.0175858
0.0188414
0.0200885
0.0213001
0.022496
0.0237911
0.0255063
0.0273949
0.0293909
0.0314667
0.0336659
0.0359845
0.0385523
0.0413373
0.0446508
0.048326
0.053137
0.0584513
0.0663172
0.0745305
0.088354
0.0987461
0.340228
0.170763
0.0733471
0.0277488
0.00998158
0.00397776
0.00187155
0.00110169
0.000773557
0.000640194
0.000601027
0.000622662
0.000683968
0.000778124
0.000901337
0.00105434
0.00123865
0.00145724
0.0017132
0.00201017
0.00235173
0.00274153
0.00318307
0.00367972
0.00423464
0.00485074
0.00553059
0.00627645
0.00708973
0.00797114
0.00891982
0.00993096
0.0110017
0.0121271
0.0133011
0.0145164
0.0157655
0.0170385
0.0183292
0.0196262
0.0209058
0.0221524
0.0233826
0.0246853
0.0262882
0.0280166
0.0298189
0.0316657
0.0335998
0.0356088
0.0378175
0.0401792
0.0429893
0.0460598
0.0501165
0.0545072
0.0611307
0.067802
0.0793737
0.0871652
0.326536
0.166004
0.076221
0.0313967
0.0120549
0.00485266
0.00221267
0.00122037
0.000812842
0.000648018
0.000598408
0.000618138
0.00068258
0.00078249
0.000913543
0.00107603
0.00127152
0.00150311
0.00177413
0.00208848
0.00245002
0.00286264
0.00333003
0.0038557
0.00444287
0.00509444
0.00581288
0.00660035
0.00745807
0.00838653
0.00938309
0.0104428
0.0115625
0.0127366
0.0139585
0.0152205
0.0165147
0.0178308
0.0191627
0.020492
0.0217982
0.0230715
0.0243247
0.0256243
0.0271324
0.0287248
0.0303626
0.0320168
0.0337289
0.0354822
0.0373956
0.0394154
0.04182
0.0444151
0.047876
0.0515623
0.0572182
0.0627571
0.0725918
0.0786382
0.317206
0.162446
0.0785867
0.0349332
0.0143777
0.00597181
0.00270666
0.00143163
0.000908222
0.000695551
0.000626894
0.00064048
0.000705988
0.000811027
0.000950139
0.00112297
0.00133101
0.00157739
0.00186564
0.00219988
0.00258421
0.00302271
0.00351922
0.0040773
0.00470017
0.00539069
0.00615114
0.0069836
0.00788904
0.00886777
0.0099143
0.0110249
0.0121954
0.0134196
0.0146904
0.0159994
0.0173382
0.0186957
0.0200643
0.0214189
0.022747
0.0240399
0.0253064
0.0265948
0.02802
0.029494
0.0309887
0.0324763
0.0339975
0.0355334
0.0371973
0.0389329
0.0410021
0.0432123
0.0461915
0.0493244
0.0542137
0.0588935
0.0673753
0.0722006
0.310816
0.159807
0.0804878
0.038237
0.0168689
0.00732365
0.0033601
0.00174449
0.00106388
0.000783504
0.000685819
0.000688398
0.000752664
0.000862081
0.00100939
0.00119336
0.00141516
0.00167796
0.00198535
0.00234167
0.00275122
0.0032182
0.00374653
0.00433981
0.00500121
0.00573347
0.00653866
0.00741876
0.00837443
0.00940527
0.0105036
0.0116666
0.012889
0.014164
0.0154838
0.0168393
0.0182216
0.0196188
0.0210161
0.0223921
0.0237374
0.0250434
0.026315
0.0275854
0.0289359
0.0303043
0.0316714
0.0330117
0.0343649
0.0357115
0.0371596
0.0386528
0.0404381
0.0423282
0.0449096
0.0475956
0.0518666
0.0558752
0.0632883
0.0672243
0.306431
0.157877
0.0819862
0.0412201
0.0194374
0.00888536
0.00418101
0.00216699
0.00128866
0.000915743
0.00077683
0.000762468
0.000822664
0.000935437
0.00109093
0.0012867
0.00152337
0.00180403
0.00213228
0.00251263
0.00294951
0.0034472
0.00400969
0.00464051
0.00534275
0.00611902
0.00697112
0.00790093
0.00890877
0.0099928
0.0111441
0.0123603
0.013635
0.0149609
0.0163291
0.01773
0.019154
0.0205856
0.0220061
0.0233999
0.0247577
0.0260704
0.0273396
0.0285862
0.0298674
0.0311394
0.0323904
0.0335977
0.0348
0.0359783
0.0372359
0.0385178
0.0400578
0.0416757
0.0439216
0.0462381
0.0500009
0.0534713
0.0600264
0.0632907
0.303426
0.156499
0.0831517
0.0438298
0.0219885
0.0106203
0.00517251
0.00270841
0.00159317
0.00109908
0.000903624
0.000864834
0.000917333
0.00103202
0.00119545
0.00140351
0.00165602
0.00195585
0.00230652
0.00271263
0.0031787
0.00370906
0.00430768
0.00497801
0.00572301
0.00654513
0.00744585
0.00842694
0.00948842
0.010626
0.0118309
0.0131005
0.0144273
0.0158032
0.0172187
0.0186631
0.0201257
0.0215842
0.0230246
0.0244323
0.0257976
0.0271109
0.0283708
0.0295882
0.0308034
0.0319855
0.0331291
0.0342141
0.0352785
0.0363044
0.0373909
0.0384851
0.0398094
0.041191
0.043149
0.0451532
0.0484911
0.0515197
0.0573736
0.0601141
0.301376
0.155549
0.084054
0.0460465
0.0244326
0.0124777
0.00632939
0.0033789
0.0019863
0.00134339
0.00107193
0.00099911
0.00103917
0.00115375
0.00132453
0.00154519
0.00181433
0.00213452
0.00250898
0.00294239
0.0034393
0.00400403
0.00464047
0.00535196
0.00614126
0.0070107
0.00796131
0.00899482
0.010111
0.0113019
0.0125602
0.0138828
0.0152608
0.0166854
0.0181464
0.0196319
0.0211254
0.0226069
0.0240634
0.0254805
0.026848
0.0281558
0.0293997
0.0305831
0.0317338
0.0328306
0.0338731
0.0348437
0.0357803
0.0366661
0.0375968
0.0385216
0.0396532
0.0408263
0.0425331
0.0442687
0.047245
0.0499036
0.0551747
0.0574952
0.299986
0.154932
0.0847572
0.0478784
0.0266932
0.0143958
0.00763538
0.00418485
0.00247826
0.00165844
0.00128959
0.0011704
0.00119179
0.00130345
0.00148057
0.00171388
0.00200028
0.00234181
0.00274128
0.00320336
0.00373254
0.00433309
0.00500877
0.00576276
0.00659758
0.00751541
0.00851681
0.00960345
0.0107743
0.0120183
0.0133294
0.014704
0.0161317
0.017603
0.0191068
0.0206269
0.0221461
0.0236467
0.0251151
0.0265366
0.0279007
0.0291968
0.0304184
0.0315629
0.0326495
0.0336639
0.0346097
0.0354721
0.0362887
0.0370442
0.037831
0.0386011
0.0395583
0.0405449
0.0420293
0.0435302
0.0461942
0.0485374
0.0533156
0.0552919
0.299055
0.154568
0.0853166
0.0493552
0.0287126
0.0163062
0.00906175
0.00512634
0.00307886
0.00205301
0.00156651
0.0013854
0.00137997
0.00148486
0.00166674
0.00191242
0.00221646
0.00258017
0.00300568
0.00349758
0.00406026
0.00469784
0.00541392
0.00621144
0.00709264
0.00805962
0.0091123
0.0102524
0.0114772
0.0127736
0.0141363
0.0155614
0.0170365
0.0185519
0.0200927
0.0216414
0.0231823
0.0246974
0.0261726
0.027593
0.0289479
0.0302259
0.0314188
0.0325196
0.0335415
0.0344751
0.0353274
0.0360863
0.036789
0.0374219
0.0380747
0.0387021
0.0394999
0.0403177
0.0416031
0.042896
0.0452864
0.0473568
0.0517118
0.0534009
0.298442
0.154397
0.0857773
0.0505201
0.0304553
0.0181403
0.0105677
0.0061947
0.00379462
0.00253714
0.00191131
0.00165251
0.00160968
0.00170266
0.00188697
0.00214433
0.00246612
0.00285263
0.003305
0.00382769
0.00442485
0.00510042
0.00585777
0.00669953
0.00762765
0.00864414
0.00974821
0.0109417
0.012219
0.0135666
0.0149793
0.0164525
0.0179725
0.019526
0.0210976
0.0226705
0.0242283
0.0257529
0.0272293
0.0286428
0.029982
0.0312354
0.0323934
0.0334458
0.0344014
0.0352548
0.0360157
0.0366744
0.0372683
0.0377851
0.0383121
0.0388066
0.0394575
0.0401213
0.0412266
0.0423336
0.0444814
0.0463128
0.0502991
0.0517456
0.298046
0.154368
0.0861739
0.0514236
0.0319082
0.0198364
0.0121028
0.00737086
0.00462666
0.00311929
0.00233313
0.00198047
0.00188822
0.00196242
0.00214592
0.00241377
0.00275309
0.00316276
0.0036426
0.00419681
0.00482918
0.00554342
0.0063426
0.00722901
0.00820418
0.00927018
0.0104253
0.0116718
0.0129995
0.0143966
0.0158567
0.0173755
0.0189337
0.0205197
0.0221174
0.0237095
0.0252788
0.026807
0.0282787
0.0296787
0.0309958
0.0322179
0.0333346
0.0343335
0.0352208
0.0359938
0.0366646
0.0372258
0.0377148
0.0381209
0.0385291
0.0388994
0.0394141
0.0399363
0.0408776
0.0418169
0.0437473
0.0453675
0.0490285
0.0502682
0.2978
0.154442
0.0865317
0.0521172
0.033078
0.0213451
0.013611
0.00862474
0.00556852
0.00380456
0.00284064
0.00237772
0.00222385
0.00227071
0.002449
0.0027255
0.00308173
0.00351465
0.0040223
0.00460848
0.00527654
0.00602984
0.00687108
0.00780215
0.00882414
0.00993925
0.0111448
0.0124428
0.0138186
0.0152627
0.0167674
0.0183242
0.0199161
0.0215297
0.0231483
0.0247538
0.0263286
0.027854
0.0293141
0.0306939
0.0319818
0.0331657
0.0342348
0.0351752
0.0359915
0.0366833
0.0372645
0.0377302
0.0381176
0.0384177
0.0387133
0.038967
0.039355
0.0397466
0.0405376
0.0413248
0.0430588
0.0444908
0.0478618
0.0489242
0.297654
0.154587
0.0868679
0.0526496
0.0339873
0.0226332
0.0150361
0.0099164
0.00660456
0.00459284
0.00344035
0.00285236
0.00262455
0.00263513
0.00280228
0.0030848
0.00345686
0.0039128
0.00444831
0.00506666
0.00577056
0.00656297
0.00744614
0.00842152
0.00948964
0.010653
0.0119078
0.0132547
0.0146764
0.0161628
0.0177061
0.0192964
0.0209168
0.0225525
0.0241859
0.0257985
0.027372
0.0288875
0.0303289
0.0316811
0.0329325
0.0340712
0.0350861
0.0359629
0.0367052
0.0373144
0.0378063
0.038178
0.0384666
0.0386649
0.0388536
0.0389977
0.0392674
0.0395384
0.0401912
0.0408399
0.0423953
0.0436589
0.0467688
0.0476793
0.297576
0.154779
0.0871933
0.0530638
0.0346694
0.0236854
0.0163277
0.0111988
0.00770921
0.00547693
0.00413499
0.00341094
0.00309757
0.00306297
0.00321308
0.00349731
0.00388362
0.00436198
0.00492511
0.00557551
0.0063151
0.00714632
0.0080709
0.00908979
0.0102029
0.0114133
0.0127156
0.0141069
0.0155693
0.0170938
0.018671
0.0202897
0.0219328
0.0235842
0.0252258
0.0268385
0.0284033
0.0299014
0.0313163
0.0326332
0.0338405
0.0349266
0.0358808
0.0366886
0.0373536
0.0378787
0.038281
0.0385598
0.0387522
0.0388527
0.0389397
0.0389807
0.0391402
0.0392997
0.0398253
0.0403477
0.0417399
0.0428523
0.0457257
0.0465061
0.297541
0.155
0.0875136
0.0533958
0.0351631
0.0245034
0.0174458
0.0124217
0.00884753
0.00644105
0.00492177
0.00405707
0.0036488
0.00356035
0.00368748
0.00396988
0.00436801
0.00486705
0.00545727
0.0061393
0.00691409
0.00778346
0.00874852
0.00980966
0.0109661
0.0122199
0.013567
0.0149979
0.0164967
0.0180543
0.01966
0.0213012
0.0229605
0.0246207
0.0262632
0.0278682
0.0294164
0.0308888
0.0322691
0.0335424
0.0346978
0.0357239
0.0366107
0.0373443
0.0379283
0.0383674
0.0386797
0.0388667
0.0389654
0.0389718
0.0389622
0.0389065
0.0389633
0.0390201
0.0394285
0.039836
0.0410788
0.0420552
0.0447131
0.0453832
0.297533
0.155235
0.0878311
0.0536739
0.0355089
0.0251034
0.0183645
0.0135373
0.00997727
0.00746023
0.00579074
0.00478988
0.0042816
0.00413203
0.00423035
0.00450717
0.00491499
0.00543342
0.00604973
0.00676242
0.00757124
0.00847727
0.00948098
0.0105821
0.0117793
0.0130736
0.0144616
0.0159269
0.0174574
0.0190426
0.0206706
0.0223277
0.023996
0.0256574
0.0272927
0.0288816
0.0304046
0.0318427
0.0331796
0.034401
0.0354962
0.0364548
0.0372675
0.0379215
0.0384211
0.038772
0.0389939
0.03909
0.0390974
0.0390134
0.0389123
0.0387662
0.0387277
0.0386902
0.0389912
0.0392944
0.0404002
0.0412547
0.0437155
0.044293
0.297542
0.155474
0.0881457
0.0539195
0.0357451
0.0255122
0.0190736
0.0145045
0.0110523
0.00850078
0.00672358
0.0056024
0.00499538
0.00478029
0.00484499
0.00511269
0.00552803
0.0060645
0.00670577
0.0074479
0.00828928
0.00923013
0.0102702
0.0114086
0.0126432
0.0139747
0.015398
0.0168931
0.0184496
0.0200561
0.0216996
0.0233652
0.0250346
0.0266889
0.0283082
0.0298721
0.0313608
0.0327554
0.0340399
0.0352005
0.0362273
0.0371107
0.0378426
0.0384119
0.0388232
0.0390841
0.0392151
0.0392214
0.0391399
0.0389695
0.038782
0.0385517
0.0384254
0.0383021
0.0385048
0.0387141
0.0396943
0.04044
0.0427201
0.0432214
0.29756
0.155711
0.0884561
0.0541476
0.0359054
0.0257629
0.019578
0.0152938
0.0120274
0.00952227
0.00769332
0.00648024
0.00578417
0.00550372
0.00553203
0.00578792
0.00620904
0.00676236
0.00742751
0.0081978
0.00907007
0.0100436
0.0111174
0.0122898
0.0135581
0.0149229
0.0163753
0.0178945
0.0194706
0.0210915
0.0227429
0.0244089
0.0260708
0.027709
0.0293031
0.0308324
0.0322771
0.0336186
0.0348413
0.0359321
0.0368821
0.0376827
0.0383273
0.0388066
0.0391262
0.0392951
0.039335
0.0392527
0.039085
0.0388321
0.0385636
0.0382558
0.038049
0.0378483
0.0379619
0.0380873
0.0389529
0.0396021
0.0417164
0.0421569
0.297582
0.15594
0.0887603
0.0543679
0.0360182
0.025891
0.0198951
0.0158895
0.0128626
0.0104807
0.00866509
0.00740078
0.00663523
0.00629585
0.00628836
0.00653145
0.00695746
0.007527
0.0082153
0.00901262
0.00991409
0.010918
0.0120225
0.0132253
0.0145231
0.0159168
0.0173913
0.0189282
0.0205169
0.0221444
0.0237954
0.0254531
0.0270983
0.0287107
0.0302697
0.0317543
0.0331449
0.0344234
0.0355747
0.0365866
0.0374512
0.0381615
0.0387125
0.0390968
0.0393215
0.0393967
0.0393454
0.039176
0.0389251
0.0385942
0.0382502
0.0378716
0.0375921
0.0373225
0.0373562
0.0374075
0.0381691
0.0387336
0.040696
0.04109
0.297606
0.156158
0.0890563
0.0545863
0.0361055
0.025931
0.0200517
0.0162903
0.0135279
0.0113329
0.00959823
0.00833335
0.00752817
0.00714393
0.00710588
0.00733779
0.00776938
0.00835552
0.00906694
0.0098906
0.0108198
0.0118517
0.0129838
0.0142131
0.0155358
0.0169527
0.0184423
0.0199898
0.0215834
0.0232091
0.0248508
0.0264908
0.0281094
0.0296858
0.0311992
0.0326287
0.0339548
0.03516
0.0362301
0.037154
0.037925
0.0385377
0.0389889
0.0392736
0.0394003
0.0393807
0.0392385
0.0389839
0.0386531
0.0382489
0.0378355
0.0373931
0.0370488
0.0367191
0.036682
0.0366692
0.037337
0.0378283
0.0396518
0.040013
0.297629
0.156365
0.0893421
0.0548054
0.0361836
0.0259139
0.0200799
0.0165087
0.0140064
0.0120411
0.0104498
0.00924055
0.0084348
0.00802803
0.00797043
0.00819638
0.00863647
0.00924116
0.00997681
0.010827
0.0117829
0.0128408
0.0139974
0.0152492
0.0165918
0.0180248
0.0195229
0.0210735
0.0226636
0.0242785
0.0259013
0.0275136
0.0290951
0.0306249
0.0320818
0.0334453
0.0346964
0.035818
0.0367971
0.0376239
0.0382931
0.0388012
0.039147
0.039328
0.0393543
0.039239
0.0390067
0.0386693
0.0382625
0.0377902
0.0373136
0.036815
0.0364141
0.0360332
0.0359347
0.0358678
0.0364519
0.0368813
0.0385782
0.0389196
0.29765
0.156558
0.0896164
0.0550259
0.0362634
0.0258657
0.0200133
0.0165676
0.0142953
0.0125773
0.0111786
0.0100809
0.00931994
0.00892076
0.00886101
0.00909062
0.00954505
0.0101723
0.010935
0.011813
0.0127958
0.0138782
0.0150565
0.0163267
0.0176845
0.0191261
0.0206256
0.0221711
0.023749
0.0253436
0.0269374
0.0285114
0.030045
0.031517
0.0329065
0.034193
0.0353581
0.0363859
0.0372644
0.0379853
0.038545
0.0389419
0.0391773
0.0392511
0.039175
0.0389638
0.038643
0.0382257
0.0377472
0.0372125
0.0366796
0.0361325
0.0356836
0.0352609
0.0351105
0.0349995
0.03551
0.0358885
0.0374708
0.0378048
0.297669
0.156739
0.0898782
0.0552472
0.0363518
0.025807
0.019884
0.0164968
0.0144053
0.0129263
0.0117502
0.0108123
0.0101435
0.00978796
0.00974961
0.0099973
0.0104753
0.0111318
0.0119262
0.0128353
0.0138462
0.0149528
0.0161507
0.0174358
0.0188041
0.0202468
0.0217402
0.0232722
0.0248286
0.026393
0.0279474
0.0294723
0.0309469
0.0323499
0.0336606
0.034859
0.0359275
0.0368514
0.03762
0.0382267
0.0386696
0.0389496
0.0390701
0.0390339
0.0388544
0.0385479
0.0381406
0.0376471
0.0371019
0.0365112
0.0359292
0.0353419
0.0348538
0.0343988
0.0342063
0.0340613
0.0345084
0.0348469
0.0363262
0.0366646
0.297685
0.156907
0.090127
0.0554679
0.0364521
0.0257527
0.0197203
0.0163296
0.0143585
0.013087
0.0121405
0.0113971
0.0108638
0.0105904
0.0106018
0.0108866
0.0114011
0.0120961
0.0129295
0.0138748
0.0149169
0.0160486
0.0172653
0.0185624
0.019937
0.0213735
0.0228534
0.0243636
0.0258891
0.0274133
0.0289177
0.0303825
0.0317868
0.0331095
0.0343302
0.0354296
0.0363912
0.0372014
0.0378513
0.038336
0.0386559
0.0388139
0.038816
0.0386679
0.0383848
0.0379845
0.0374937
0.0369285
0.0363224
0.0356823
0.0350592
0.0344404
0.0339223
0.0334447
0.0332199
0.0330513
0.033445
0.0337544
0.0351418
0.0354959
0.297699
0.157063
0.0903627
0.0556866
0.036565
0.0257127
0.0195457
0.0160988
0.0141846
0.0130721
0.012339
0.0118056
0.0114414
0.0112868
0.0113785
0.0117227
0.0122897
0.0130355
0.0139174
0.0149063
0.0159849
0.0171447
0.0183806
0.0196881
0.021064
0.0224892
0.0239485
0.0254286
0.0269142
0.0283882
0.029832
0.0312258
0.0325487
0.03378
0.0348997
0.0358897
0.0367345
0.037422
0.0379451
0.0383011
0.0384924
0.0385244
0.0384059
0.0381451
0.0377592
0.0372676
0.0366973
0.0360657
0.0354051
0.0347233
0.0340672
0.033426
0.0328875
0.0323973
0.0321503
0.0319683
0.0323187
0.0326095
0.0339162
0.0342966
0.297711
0.157208
0.0905856
0.0559017
0.0366899
0.0256929
0.0193777
0.0158343
0.0139174
0.0129055
0.0123496
0.0120206
0.011844
0.0118375
0.0120385
0.012466
0.0131034
0.0139141
0.0148563
0.0158985
0.017021
0.0182137
0.0194712
0.020789
0.0221627
0.0235723
0.0250049
0.0264473
0.0278841
0.0292984
0.0306715
0.0319837
0.0332146
0.0343438
0.0353523
0.036223
0.0369418
0.0374985
0.0378879
0.0381094
0.0381679
0.0380714
0.0378311
0.0374582
0.0369717
0.0363923
0.0357476
0.0350558
0.034348
0.0336325
0.0329524
0.0322981
0.031749
0.0312563
0.0309971
0.0308122
0.0311293
0.0314119
0.0326486
0.0330653
0.29772
0.157344
0.0907961
0.056112
0.0368249
0.0256957
0.0192288
0.015561
0.0135906
0.0126188
0.0121897
0.0120392
0.01205
0.0122088
0.0125425
0.0130751
0.0138013
0.0146919
0.0157073
0.0168142
0.0179899
0.0192227
0.0205063
0.0218362
0.0232061
0.0245969
0.0259978
0.0273957
0.0287759
0.0301216
0.0314146
0.0326354
0.0337643
0.0347816
0.0356695
0.036412
0.0369969
0.0374159
0.0376659
0.0377487
0.0376716
0.0374453
0.0370838
0.0366008
0.0360173
0.0353551
0.0346421
0.0338973
0.0331503
0.03241
0.0317151
0.0310575
0.0305076
0.0300227
0.0297615
0.0295836
0.0298775
0.0301621
0.0313391
0.0318015
0.297728
0.15747
0.0909948
0.0563164
0.0369679
0.025721
0.0191067
0.0152985
0.0132352
0.0122472
0.0118874
0.0118731
0.0120522
0.0123776
0.012857
0.0135114
0.0143419
0.0153262
0.0164277
0.0176112
0.0188511
0.0201328
0.021449
0.0227948
0.0241615
0.0255324
0.0268978
0.0282461
0.029563
0.0308326
0.0320371
0.0331578
0.0341758
0.0350726
0.0358316
0.0364385
0.036883
0.0371589
0.0372653
0.0372069
0.0369933
0.0366379
0.0361573
0.0355681
0.0348926
0.034154
0.0333802
0.0325906
0.0318134
0.0310575
0.0303575
0.0297064
0.0291658
0.0286986
0.0284454
0.0282846
0.028565
0.0288612
0.0299888
0.0305055
0.297734
0.157588
0.0911825
0.0565142
0.0371165
0.0257673
0.0190148
0.0150606
0.0128772
0.011826
0.0114778
0.0115468
0.0118584
0.0123343
0.0129588
0.0137423
0.0146871
0.0157756
0.0169737
0.0182449
0.0195598
0.0209006
0.0222576
0.0236254
0.0249918
0.0263433
0.0276718
0.0289669
0.0302156
0.0314029
0.032512
0.0335254
0.0344253
0.0351945
0.0358181
0.0362837
0.036583
0.0367122
0.0366732
0.036473
0.036124
0.0356423
0.0350469
0.034357
0.0335963
0.0327892
0.0319632
0.0311381
0.0303403
0.0295787
0.0288835
0.0282489
0.0277276
0.027288
0.0270525
0.0269182
0.0271947
0.0275117
0.0285996
0.0291782
0.297738
0.157698
0.0913601
0.0567051
0.0372685
0.0258319
0.018954
0.0148558
0.012537
0.0113866
0.0109986
0.0110947
0.0114906
0.012085
0.0128385
0.0137463
0.0148065
0.0160033
0.0173041
0.0186709
0.0200704
0.02148
0.022887
0.0242841
0.0256555
0.0269905
0.0282826
0.0295232
0.0307008
0.0318017
0.0328107
0.0337115
0.0344878
0.0351244
0.035608
0.0359287
0.0360803
0.0360617
0.0358775
0.0355373
0.0350564
0.0344534
0.0337496
0.0329666
0.0321295
0.0312633
0.0303951
0.0295448
0.0287367
0.0279797
0.0272995
0.0266911
0.0261988
0.0257961
0.0255877
0.0254889
0.0257706
0.0261168
0.0271743
0.0278215
0.297742
0.157802
0.0915283
0.0568888
0.037422
0.0259119
0.0189228
0.0146884
0.0122286
0.0109555
0.0104858
0.010556
0.0109825
0.011651
0.0125026
0.0135162
0.0146816
0.0159815
0.0173839
0.0188488
0.0203386
0.0218249
0.0232905
0.0247249
0.0261084
0.0274318
0.0286905
0.0298776
0.0309835
0.0319963
0.0329025
0.0336877
0.0343376
0.0348389
0.0351806
0.0353552
0.0353592
0.0351943
0.0348679
0.0343924
0.0337856
0.0330688
0.0322655
0.0313993
0.0304964
0.0295821
0.028683
0.0278187
0.0270112
0.0262692
0.025614
0.0250415
0.0245873
0.0242303
0.0240577
0.0240025
0.0242977
0.0246808
0.0257166
0.026438
0.297744
0.157901
0.091688
0.0570655
0.0375754
0.026004
0.0189182
0.0145592
0.0119606
0.0105524
0.00997127
0.00997039
0.0103747
0.0110663
0.0119736
0.0130612
0.0143091
0.0156961
0.0171895
0.0187471
0.0203265
0.0218932
0.0234234
0.0249026
0.0263059
0.0276243
0.0288545
0.0299914
0.0310275
0.0319531
0.0327568
0.0334262
0.0339494
0.0343155
0.0345162
0.0345466
0.0344061
0.0340994
0.0336367
0.0330334
0.0323099
0.0314896
0.0305982
0.0296609
0.0287047
0.027755
0.0268375
0.0259711
0.0251756
0.0244591
0.0238386
0.0233109
0.0229033
0.0225998
0.0224707
0.0224663
0.0227828
0.0232093
0.0242313
0.0250312
0.297746
0.157994
0.09184
0.0572353
0.0377274
0.0261054
0.0189369
0.0144667
0.011737
0.0101907
0.0094801
0.00937434
0.00971034
0.0103736
0.0112877
0.012407
0.013703
0.0151496
0.0167123
0.0183472
0.0200071
0.0216508
0.0232472
0.0247756
0.0262058
0.0275264
0.0287345
0.0298268
0.0307976
0.0316395
0.0323436
0.0329
0.0332994
0.0335337
0.0335975
0.0334888
0.0332103
0.0327697
0.0321801
0.0314598
0.0306315
0.029721
0.0287555
0.0277617
0.0267665
0.0257956
0.0248731
0.0240172
0.0232451
0.0225644
0.0219878
0.021513
0.0211595
0.0209161
0.0208373
0.0208895
0.0212337
0.021709
0.0227243
0.0236055
0.297747
0.158082
0.0919851
0.0573984
0.0378771
0.0262134
0.018975
0.0144075
0.0115581
0.00987774
0.00903037
0.00879798
0.00902985
0.00961911
0.0104904
0.0115936
0.0128944
0.0143627
0.0159623
0.0176479
0.0193688
0.0210772
0.0227341
0.0243112
0.0257727
0.0271016
0.0282947
0.0293492
0.0302613
0.0310257
0.0316361
0.0320854
0.0323672
0.0324765
0.032411
0.0321721
0.0317656
0.0312025
0.0304989
0.0296758
0.0287582
0.0277736
0.0267507
0.0257169
0.0246991
0.0237224
0.0228092
0.0219766
0.0212393
0.0206039
0.0200797
0.0196646
0.0193713
0.0191931
0.0191696
0.0192827
0.01966
0.0201878
0.0212024
0.0221661
0.297748
0.158167
0.092124
0.0575553
0.0380239
0.026326
0.0190288
0.0143777
0.0114217
0.00961636
0.00863325
0.00826382
0.00836783
0.00884721
0.00963151
0.0106711
0.0119292
0.0133739
0.0149687
0.0166682
0.0184196
0.0201698
0.0218722
0.0234901
0.0249822
0.0263229
0.0275068
0.0285309
0.0293922
0.0300875
0.0306128
0.030964
0.0311377
0.0311323
0.0309489
0.0305922
0.0300717
0.0294013
0.0286003
0.0276921
0.0267037
0.0256642
0.024603
0.0235479
0.0225253
0.0215591
0.02067
0.0198734
0.0191817
0.0186005
0.0181355
0.0177854
0.0175567
0.0174469
0.0174822
0.0176585
0.0180727
0.0186551
0.0196737
0.0207193
0.297749
0.158249
0.0922574
0.0577065
0.0381674
0.0264411
0.0190949
0.0143728
0.0113238
0.00940561
0.00829397
0.00778653
0.00775075
0.00809639
0.00875931
0.00969324
0.0108628
0.0122365
0.0137794
0.0154478
0.0171893
0.0189477
0.0206701
0.0223117
0.0238261
0.0251771
0.0263551
0.027355
0.0281739
0.0288097
0.0292607
0.0295255
0.0296038
0.0294974
0.029211
0.028753
0.028136
0.0273774
0.0264991
0.0255269
0.0244895
0.0234168
0.0223386
0.0212826
0.0202741
0.0193353
0.018485
0.0177367
0.0171003
0.0165806
0.0161802
0.0158984
0.0157367
0.0156963
0.0157917
0.0160315
0.0164846
0.0171215
0.0181474
0.0192722
0.297749
0.158328
0.0923861
0.0578524
0.0383074
0.0265575
0.0191704
0.0143886
0.0112598
0.00924207
0.00801305
0.00737369
0.00719634
0.00739645
0.00791563
0.00871221