/*--------------------------------*- C++ -*----------------------------------*\
| =========                 |                                                 |
| \\      /  F ield         | OpenFOAM: The Open Source CFD Toolbox           |
|  \\    /   O peration     | Version:  2.4.0                                 |
|   \\  /    A nd           | Web:      www.OpenFOAM.org                      |
|    \\/     M anipulation  |                                                 |
\*---------------------------------------------------------------------------*/
FoamFile
{
    version     2.0;
    format      ascii;
    class       surfaceScalarField;
    location    "7.24";
    object      phi;
}
// * * * * * * * * * * * * * * * * * * * * * * * * * * * * * * * * * * * * * //

dimensions      [0 3 -1 0 0 0 0];

internalField   nonuniform List<scalar> 
11840
(
7.85112e-07
9.21489e-06
-2.03288e-08
8.05441e-07
-4.80749e-08
2.77462e-08
-7.30511e-08
2.49762e-08
-8.37742e-08
1.07231e-08
-8.51703e-08
1.39611e-09
-8.91249e-08
3.95459e-09
-8.86284e-08
-4.9649e-10
-9.10128e-08
2.38434e-09
-9.15495e-08
5.36723e-10
-9.42752e-08
2.72566e-09
-9.67964e-08
2.52129e-09
-1.01198e-07
4.40198e-09
-1.06373e-07
5.17462e-09
-1.13308e-07
6.93516e-09
-1.21513e-07
8.2045e-09
-1.31438e-07
9.92494e-09
-1.42881e-07
1.14434e-08
-1.56037e-07
1.31559e-08
-1.70806e-07
1.47693e-08
-1.8722e-07
1.64134e-08
-2.05144e-07
1.79246e-08
-2.24445e-07
1.93011e-08
-2.4486e-07
2.04147e-08
-2.66064e-07
2.12044e-08
-2.87639e-07
2.15741e-08
-3.09094e-07
2.14554e-08
-3.29847e-07
2.07527e-08
-3.49219e-07
1.93719e-08
-3.66445e-07
1.72267e-08
-3.80696e-07
1.42505e-08
-3.91084e-07
1.03883e-08
-3.96703e-07
5.61896e-09
-3.96697e-07
-6.01944e-12
-3.90156e-07
-6.54141e-09
-3.76316e-07
-1.38396e-08
-3.54522e-07
-2.17944e-08
-3.24192e-07
-3.03293e-08
-2.85017e-07
-3.91754e-08
-2.36693e-07
-4.83245e-08
-1.79468e-07
-5.72242e-08
-1.13592e-07
-6.58767e-08
-4.06347e-08
-7.29568e-08
3.57564e-08
-7.63911e-08
1.09815e-07
-7.40587e-08
1.84201e-07
-7.43859e-08
2.55957e-07
-7.1756e-08
3.29398e-07
-7.34407e-08
3.96048e-07
-6.665e-08
4.66929e-07
-7.08815e-08
5.22641e-07
-5.57118e-08
5.91224e-07
-6.85835e-08
6.27901e-07
-3.66764e-08
7.00225e-07
-7.23245e-08
7.05674e-07
-5.44901e-09
7.98726e-07
-9.30515e-08
7.53947e-07
4.47792e-08
9.07048e-07
-1.53101e-07
7.87254e-07
1.19794e-07
-3.99116e-07
1.9181e-06
1.72968e-05
1.02181e-07
2.62136e-06
-7.43366e-08
2.04264e-07
-1.77887e-07
1.28527e-07
-2.09728e-07
4.25638e-08
-2.27243e-07
1.89117e-08
-2.3769e-07
1.44012e-08
-2.42553e-07
4.36602e-09
-2.48748e-07
8.58015e-09
-2.53328e-07
5.11598e-09
-2.60723e-07
1.01214e-08
-2.69231e-07
1.1029e-08
-2.81368e-07
1.65394e-08
-2.96364e-07
2.01704e-08
-3.15448e-07
2.60184e-08
-3.38258e-07
3.10148e-08
-3.65346e-07
3.70132e-08
-3.96538e-07
4.2635e-08
-4.32022e-07
4.86402e-08
-4.71623e-07
5.43698e-08
-5.15219e-07
6.00099e-08
-5.62419e-07
6.51251e-08
-6.12712e-07
6.9594e-08
-6.6532e-07
7.30221e-08
-7.19275e-07
7.51597e-08
-7.73402e-07
7.57008e-08
-8.26349e-07
7.44028e-08
-8.76556e-07
7.09601e-08
-9.22255e-07
6.50702e-08
-9.61499e-07
5.6471e-08
-9.92216e-07
4.49674e-08
-1.01224e-06
3.04151e-08
-1.01941e-06
1.27872e-08
-1.01157e-06
-7.84907e-09
-9.86767e-07
-3.13424e-08
-9.43144e-07
-5.74629e-08
-8.7916e-07
-8.57777e-08
-7.93513e-07
-1.15977e-07
-6.85373e-07
-1.47315e-07
-5.54157e-07
-1.7954e-07
-4.00237e-07
-2.11145e-07
-2.2482e-07
-2.41293e-07
-3.18294e-08
-2.65948e-07
1.65611e-07
-2.73831e-07
3.57073e-07
-2.65521e-07
5.47245e-07
-2.64558e-07
7.32481e-07
-2.56992e-07
9.16333e-07
-2.57293e-07
1.08878e-06
-2.39097e-07
1.26033e-06
-2.42426e-07
1.4094e-06
-2.04789e-07
1.56507e-06
-2.2425e-07
1.67895e-06
-1.50552e-07
1.82334e-06
-2.16719e-07
1.88804e-06
-7.01508e-08
2.04095e-06
-2.45955e-07
2.03959e-06
4.61374e-08
2.25648e-06
-3.69998e-07
2.17516e-06
2.01118e-07
-1.04412e-06
2.91716e-06
2.43796e-05
3.96464e-07
5.14206e-06
-4.05384e-08
6.41267e-07
-2.39367e-07
3.27355e-07
-3.02468e-07
1.05665e-07
-3.44182e-07
6.06256e-08
-3.64177e-07
3.43957e-08
-3.78121e-07
1.83107e-08
-3.89398e-07
1.9857e-08
-3.99755e-07
1.54732e-08
-4.12306e-07
2.26718e-08
-4.27408e-07
2.61316e-08
-4.47173e-07
3.63043e-08
-4.71797e-07
4.47942e-08
-5.02355e-07
5.65762e-08
-5.38883e-07
6.75434e-08
-5.81837e-07
7.99665e-08
-6.31151e-07
9.1949e-08
-6.86891e-07
1.04381e-07
-7.48797e-07
1.16276e-07
-8.16507e-07
1.2772e-07
-8.89326e-07
1.37944e-07
-9.66298e-07
1.46566e-07
-1.04609e-06
1.52817e-07
-1.12707e-06
1.56139e-07
-1.2073e-06
1.55931e-07
-1.28459e-06
1.51689e-07
-1.35645e-06
1.4282e-07
-1.42012e-06
1.28742e-07
-1.47263e-06
1.08978e-07
-1.51085e-06
8.31924e-08
-1.53161e-06
5.11721e-08
-1.53176e-06
1.29316e-08
-1.50827e-06
-3.13297e-08
-1.45845e-06
-8.11646e-08
-1.37986e-06
-1.36058e-07
-1.27053e-06
-1.95101e-07
-1.12901e-06
-2.57505e-07
-9.54513e-07
-3.21808e-07
-7.46997e-07
-3.87056e-07
-5.07839e-07
-4.50303e-07
-2.40539e-07
-5.08593e-07
4.73672e-08
-5.53854e-07
3.38781e-07
-5.65245e-07
6.25503e-07
-5.52243e-07
9.11997e-07
-5.51052e-07
1.19424e-06
-5.39238e-07
1.47217e-06
-5.35216e-07
1.73744e-06
-5.04369e-07
1.99481e-06
-4.99793e-07
2.22839e-06
-4.38374e-07
2.4565e-06
-4.52356e-07
2.64488e-06
-3.38935e-07
2.84385e-06
-4.15694e-07
2.97513e-06
-2.01426e-07
3.16091e-06
-4.31732e-07
3.22697e-06
-1.99308e-08
3.45671e-06
-5.99736e-07
3.47125e-06
1.86574e-07
-1.77426e-06
3.80889e-06
3.05707e-05
8.13208e-07
8.13775e-06
5.24375e-08
1.40204e-06
-2.53311e-07
6.33104e-07
-3.61939e-07
2.14293e-07
-4.33776e-07
1.32463e-07
-4.68298e-07
6.89172e-08
-4.94014e-07
4.40269e-08
-5.12564e-07
3.8407e-08
-5.29919e-07
3.2828e-08
-5.48527e-07
4.12799e-08
-5.70549e-07
4.81536e-08
-5.97972e-07
6.37269e-08
-6.31819e-07
7.8642e-08
-6.73132e-07
9.78886e-08
-7.22258e-07
1.16669e-07
-7.79576e-07
1.37285e-07
-8.4506e-07
1.57433e-07
-9.1862e-07
1.7794e-07
-9.99831e-07
1.97487e-07
-1.08803e-06
2.15922e-07
-1.18216e-06
2.32069e-07
-1.28075e-06
2.45158e-07
-1.38189e-06
2.53956e-07
-1.48325e-06
2.57504e-07
-1.58217e-06
2.54846e-07
-1.67565e-06
2.45171e-07
-1.76039e-06
2.27561e-07
-1.83279e-06
2.01143e-07
-1.88905e-06
1.65242e-07
-1.9253e-06
1.19436e-07
-1.93765e-06
6.35228e-08
-1.92238e-06
-2.33179e-09
-1.87609e-06
-7.76214e-08
-1.7958e-06
-1.61458e-07
-1.67904e-06
-2.52818e-07
-1.52404e-06
-3.50102e-07
-1.32978e-06
-4.51765e-07
-1.09626e-06
-5.55324e-07
-8.24683e-07
-6.58635e-07
-5.18123e-07
-7.56862e-07
-1.82577e-07
-8.44139e-07
1.71828e-07
-9.08259e-07
5.31015e-07
-9.24433e-07
8.91725e-07
-9.12952e-07
1.2557e-06
-9.15032e-07
1.61805e-06
-9.01585e-07
1.97515e-06
-8.92318e-07
2.31958e-06
-8.48801e-07
2.65103e-06
-8.31239e-07
2.95774e-06
-7.45086e-07
3.24957e-06
-7.44186e-07
3.50245e-06
-5.9181e-07
3.75087e-06
-6.64118e-07
3.93843e-06
-3.88986e-07
4.15656e-06
-6.49859e-07
4.27606e-06
-1.39433e-07
4.52163e-06
-8.45302e-07
4.61292e-06
9.5279e-08
-2.53356e-06
4.61529e-06
3.59554e-05
1.32414e-06
1.14289e-05
2.12441e-07
2.51374e-06
-2.18536e-07
1.06408e-06
-3.86942e-07
3.82699e-07
-4.95197e-07
2.40717e-07
-5.49335e-07
1.23056e-07
-5.89686e-07
8.43776e-08
-6.17743e-07
6.64644e-08
-6.43379e-07
5.84641e-08
-6.68936e-07
6.68369e-08
-6.98192e-07
7.74091e-08
-7.33236e-07
9.87714e-08
-7.7582e-07
1.21225e-07
-8.27031e-07
1.491e-07
-8.87458e-07
1.77096e-07
-9.57408e-07
2.07236e-07
-1.03682e-06
2.36841e-07
-1.12539e-06
2.66514e-07
-1.22247e-06
2.94563e-07
-1.32702e-06
3.20475e-07
-1.43754e-06
3.42591e-07
-1.55204e-06
3.59653e-07
-1.66797e-06
3.69893e-07
-1.78237e-06
3.71899e-07
-1.89187e-06
3.64345e-07
-1.99281e-06
3.46111e-07
-2.08123e-06
3.15983e-07
-2.15294e-06
2.7285e-07
-2.20363e-06
2.15932e-07
-2.22903e-06
1.4484e-07
-2.22504e-06
5.95265e-08
-2.18786e-06
-3.95097e-08
-2.11421e-06
-1.51268e-07
-2.00141e-06
-2.74265e-07
-1.84745e-06
-4.06772e-07
-1.65123e-06
-5.46328e-07
-1.41256e-06
-6.90431e-07
-1.13246e-06
-8.35426e-07
-8.13348e-07
-9.77747e-07
-4.59574e-07
-1.11064e-06
-7.8409e-08
-1.2253e-06
3.19737e-07
-1.3064e-06
7.26218e-07
-1.33091e-06
1.14153e-06
-1.32826e-06
1.56409e-06
-1.3376e-06
1.98855e-06
-1.32605e-06
2.40875e-06
-1.31251e-06
2.81799e-06
-1.25804e-06
3.21161e-06
-1.22486e-06
3.58109e-06
-1.11457e-06
3.92877e-06
-1.09186e-06
4.23872e-06
-9.01764e-07
4.53219e-06
-9.57581e-07
4.76953e-06
-6.26331e-07
5.01897e-06
-8.99302e-07
5.18272e-06
-3.03182e-07
5.4455e-06
-1.10808e-06
5.59601e-06
-5.52359e-08
-3.28253e-06
5.34676e-06
4.06087e-05
1.90184e-06
1.48738e-05
4.47634e-07
3.96794e-06
-1.33891e-07
1.64561e-06
-3.7631e-07
6.25118e-07
-5.27612e-07
3.92019e-07
-6.06595e-07
2.02039e-07
-6.64633e-07
1.42416e-07
-7.04493e-07
1.06324e-07
-7.39766e-07
9.37379e-08
-7.73163e-07
1.00234e-07
-8.09958e-07
1.14204e-07
-8.52527e-07
1.41341e-07
-9.03273e-07
1.71971e-07
-9.63392e-07
2.09219e-07
-1.03365e-06
2.47353e-07
-1.11426e-06
2.87851e-07
-1.20506e-06
3.27641e-07
-1.3055e-06
3.66952e-07
-1.4146e-06
4.03663e-07
-1.53092e-06
4.36796e-07
-1.65248e-06
4.64145e-07
-1.77672e-06
4.83895e-07
-1.90054e-06
4.93718e-07
-2.0204e-06
4.91752e-07
-2.13239e-06
4.76339e-07
-2.2324e-06
4.46118e-07
-2.31609e-06
3.99674e-07
-2.37902e-06
3.3578e-07
-2.41678e-06
2.53697e-07
-2.42517e-06
1.53226e-07
-2.40028e-06
3.46402e-08
-2.33873e-06
-1.01065e-07
-2.2377e-06
-2.523e-07
-2.09504e-06
-4.16922e-07
-1.9094e-06
-5.92412e-07
-1.68031e-06
-7.75413e-07
-1.40831e-06
-9.62438e-07
-1.09504e-06
-1.14869e-06
-7.43588e-07
-1.3292e-06
-3.58757e-07
-1.49547e-06
5.20474e-08
-1.63611e-06
4.79448e-07
-1.7338e-06
9.19216e-07
-1.77068e-06
1.37341e-06
-1.78245e-06
1.83782e-06
-1.80201e-06
2.30706e-06
-1.79529e-06
2.77361e-06
-1.77906e-06
3.23171e-06
-1.71614e-06
3.67371e-06
-1.66686e-06
4.09392e-06
-1.53478e-06
4.48825e-06
-1.48619e-06
4.84795e-06
-1.26146e-06
5.18168e-06
-1.29131e-06
5.46506e-06
-9.09707e-07
5.74417e-06
-1.17842e-06
5.9487e-06
-5.07711e-07
6.22793e-06
-1.3873e-06
6.42631e-06
-2.53613e-07
-3.99427e-06
6.0088e-06
4.45999e-05
2.52338e-06
1.83592e-05
7.56392e-07
5.73493e-06
-2.60437e-09
2.4046e-06
-3.28864e-07
9.51378e-07
-5.30108e-07
5.93263e-07
-6.39343e-07
3.11274e-07
-7.18328e-07
2.21401e-07
-7.72369e-07
1.60365e-07
-8.18724e-07
1.40093e-07
-8.60867e-07
1.42377e-07
-9.05506e-07
1.58843e-07
-9.55451e-07
1.91286e-07
-1.0137e-06
2.30225e-07
-1.08161e-06
2.77129e-07
-1.16007e-06
3.25804e-07
-1.24917e-06
3.76958e-07
-1.3486e-06
4.27064e-07
-1.45749e-06
4.75848e-07
-1.57453e-06
5.20702e-07
-1.69784e-06
5.60106e-07
-1.82497e-06
5.91275e-07
-1.9529e-06
6.11823e-07
-2.07807e-06
6.18892e-07
-2.19655e-06
6.10231e-07
-2.30417e-06
5.83952e-07
-2.39662e-06
5.3857e-07
-2.46955e-06
4.72601e-07
-2.51861e-06
3.84842e-07
-2.53964e-06
2.74729e-07
-2.52879e-06
1.42377e-07
-2.48263e-06
-1.1524e-08
-2.39825e-06
-1.8544e-07
-2.27334e-06
-3.77216e-07
-2.1062e-06
-5.84056e-07
-1.89595e-06
-8.02666e-07
-1.64252e-06
-1.02884e-06
-1.3468e-06
-1.25815e-06
-1.01073e-06
-1.48476e-06
-6.3759e-07
-1.70234e-06
-2.32173e-07
-1.90088e-06
1.98514e-07
-2.06679e-06
6.4648e-07
-2.18177e-06
1.11018e-06
-2.23438e-06
1.59172e-06
-2.26399e-06
2.08514e-06
-2.29543e-06
2.58511e-06
-2.29526e-06
3.08357e-06
-2.27752e-06
3.57562e-06
-2.20819e-06
4.05201e-06
-2.14325e-06
4.50944e-06
-1.99221e-06
4.93922e-06
-1.91598e-06
5.33883e-06
-1.66107e-06
5.70585e-06
-1.65832e-06
6.03032e-06
-1.23418e-06
6.33581e-06
-1.4839e-06
6.58009e-06
-7.51989e-07
6.87318e-06
-1.6804e-06
7.11377e-06
-4.942e-07
-4.65135e-06
6.60526e-06
4.79946e-05
3.16978e-06
2.17947e-05
1.13507e-06
7.76963e-06
1.93089e-07
3.34659e-06
-2.43336e-07
1.3878e-06
-5.01652e-07
8.5158e-07
-6.46756e-07
4.56378e-07
-7.5017e-07
3.24814e-07
-8.20886e-07
2.31081e-07
-8.79871e-07
1.99079e-07
-9.31701e-07
1.94206e-07
-9.84505e-07
2.11647e-07
-1.04164e-06
2.48421e-07
-1.10669e-06
2.95273e-07
-1.18117e-06
3.51614e-07
-1.26607e-06
4.10703e-07
-1.36138e-06
4.72266e-07
-1.46656e-06
5.32243e-07
-1.58047e-06
5.89755e-07
-1.70143e-06
6.41664e-07
-1.8272e-06
6.85874e-07
-1.95495e-06
7.19033e-07
-2.08135e-06
7.38224e-07
-2.2026e-06
7.40136e-07
-2.3146e-06
7.22235e-07
-2.41317e-06
6.82523e-07
-2.49411e-06
6.19509e-07
-2.55327e-06
5.31754e-07
-2.5866e-06
4.18174e-07
-2.59032e-06
2.78454e-07
-2.56101e-06
1.13065e-07
-2.49567e-06
-7.68646e-08
-2.39178e-06
-2.89327e-07
-2.24735e-06
-5.21653e-07
-2.06099e-06
-7.70415e-07
-1.83207e-06
-1.03159e-06
-1.56073e-06
-1.30018e-06
-1.24802e-06
-1.57087e-06
-8.95945e-07
-1.83684e-06
-5.07794e-07
-2.09049e-06
-8.8184e-08
-2.32049e-06
3.56471e-07
-2.51145e-06
8.19509e-07
-2.64481e-06
1.30068e-06
-2.71555e-06
1.80136e-06
-2.76467e-06
2.31458e-06
-2.80865e-06
2.83507e-06
-2.81575e-06
3.35459e-06
-2.79703e-06
3.86888e-06
-2.72248e-06
4.36799e-06
-2.64236e-06
4.85041e-06
-2.47464e-06
5.30462e-06
-2.37019e-06
5.73301e-06
-2.08946e-06
6.12465e-06
-2.04997e-06
6.48231e-06
-1.59184e-06
6.80868e-06
-1.81028e-06
7.08968e-06
-1.03299e-06
7.39246e-06
-1.98317e-06
7.67167e-06
-7.73418e-07
-5.24356e-06
7.13972e-06
5.08549e-05
3.8252e-06
2.51092e-05
1.57689e-06
1.00179e-05
4.37977e-07
4.4855e-06
-1.17806e-07
1.94358e-06
-4.41061e-07
1.17483e-06
-6.27904e-07
6.43221e-07
-7.59455e-07
4.56365e-07
-8.49486e-07
3.21112e-07
-9.22778e-07
2.72371e-07
-9.85297e-07
2.56725e-07
-1.04663e-06
2.72977e-07
-1.11076e-06
3.12558e-07
-1.18187e-06
3.6638e-07
-1.26168e-06
4.31427e-07
-1.35127e-06
5.00288e-07
-1.45051e-06
5.7151e-07
-1.5587e-06
6.40434e-07
-1.67444e-06
7.0549e-07
-1.79577e-06
7.63e-07
-1.9202e-06
8.10297e-07
-2.04468e-06
8.43513e-07
-2.16572e-06
8.59268e-07
-2.27949e-06
8.53899e-07
-2.38194e-06
8.24689e-07
-2.46905e-06
7.69631e-07
-2.53685e-06
6.87312e-07
-2.58149e-06
5.76397e-07
-2.59928e-06
4.35963e-07
-2.58679e-06
2.6596e-07
-2.54094e-06
6.72127e-08
-2.45904e-06
-1.58756e-07
-2.33884e-06
-4.09535e-07
-2.17852e-06
-6.81966e-07
-1.97692e-06
-9.72016e-07
-1.73354e-06
-1.27497e-06
-1.44863e-06
-1.58509e-06
-1.12328e-06
-1.89621e-06
-7.59521e-07
-2.2006e-06
-3.60559e-07
-2.48945e-06
6.92223e-08
-2.75028e-06
5.24037e-07
-2.96626e-06
9.98356e-07
-3.11913e-06
1.49231e-06
-3.20951e-06
2.00628e-06
-3.27864e-06
2.53275e-06
-3.33513e-06
3.06652e-06
-3.34953e-06
3.59937e-06
-3.32988e-06
4.12747e-06
-3.25057e-06
4.64064e-06
-3.15553e-06
5.13858e-06
-2.97257e-06
5.60818e-06
-2.83979e-06
6.05536e-06
-2.53664e-06
6.46331e-06
-2.45792e-06
6.84491e-06
-1.97344e-06
7.18572e-06
-2.15109e-06
7.49716e-06
-1.34443e-06
7.80458e-06
-2.29058e-06
8.11748e-06
-1.08633e-06
-5.7669e-06
7.61599e-06
5.32389e-05
4.47647e-06
2.82488e-05
2.07304e-06
1.24214e-05
7.37661e-07
5.82088e-06
4.98162e-08
2.63143e-06
-3.47009e-07
1.57166e-06
-5.81735e-07
8.77948e-07
-7.45359e-07
6.19988e-07
-8.57521e-07
4.33274e-07
-9.46948e-07
3.61798e-07
-1.02126e-06
3.31032e-07
-1.09155e-06
3.4327e-07
-1.16254e-06
3.83552e-07
-1.23902e-06
4.42862e-07
-1.32298e-06
5.15387e-07
-1.41562e-06
5.92919e-07
-1.51675e-06
6.72647e-07
-1.62557e-06
7.49247e-07
-1.74048e-06
8.20402e-07
-1.85939e-06
8.81911e-07
-1.97965e-06
9.30555e-07
-2.09815e-06
9.62021e-07
-2.21142e-06
9.72538e-07
-2.3157e-06
9.58177e-07
-2.40713e-06
9.16118e-07
-2.4819e-06
8.44403e-07
-2.53633e-06
7.41738e-07
-2.56685e-06
6.06915e-07
-2.57006e-06
4.39176e-07
-2.54283e-06
2.38731e-07
-2.48235e-06
6.73297e-09
-2.38614e-06
-2.54966e-07
-2.25209e-06
-5.43591e-07
-2.07855e-06
-8.555e-07
-1.86448e-06
-1.18608e-06
-1.60949e-06
-1.52997e-06
-1.31386e-06
-1.88071e-06
-9.78751e-07
-2.23132e-06
-6.0613e-07
-2.57322e-06
-1.99126e-07
-2.89646e-06
2.3813e-07
-3.18753e-06
7.00452e-07
-3.42859e-06
1.18322e-06
-3.60189e-06
1.68641e-06
-3.7127e-06
2.20933e-06
-3.80155e-06
2.74431e-06
-3.8701e-06
3.28619e-06
-3.89141e-06
3.82688e-06
-3.87057e-06
4.3628e-06
-3.78649e-06
4.88383e-06
-3.67657e-06
5.39042e-06
-3.47916e-06
5.86867e-06
-3.31804e-06
6.32687e-06
-2.99484e-06
6.74435e-06
-2.87539e-06
7.14147e-06
-2.37056e-06
7.49079e-06
-2.50041e-06
7.8248e-06
-1.67844e-06
8.13219e-06
-2.59797e-06
8.47165e-06
-1.42579e-06
-6.2226e-06
8.03813e-06
5.52008e-05
5.11288e-06
3.1174e-05
2.61342e-06
1.49208e-05
1.09172e-06
7.34258e-06
2.60837e-07
3.46232e-06
-2.18058e-07
2.05055e-06
-5.0708e-07
1.16697e-06
-7.06925e-07
8.19833e-07
-8.44243e-07
5.70592e-07
-9.51812e-07
4.69367e-07
-1.03915e-06
4.18367e-07
-1.11896e-06
4.23086e-07
-1.19678e-06
4.61374e-07
-1.27809e-06
5.24163e-07
-1.36519e-06
6.02489e-07
-1.45948e-06
6.87216e-07
-1.56083e-06
7.73996e-07
-1.66838e-06
8.56793e-07
-1.78047e-06
9.32496e-07
-1.89496e-06
9.96399e-07
-2.00917e-06
1.04476e-06
-2.12004e-06
1.07289e-06
-2.22419e-06
1.07669e-06
-2.31803e-06
1.05202e-06
-2.39791e-06
9.95995e-07
-2.46026e-06
9.06754e-07
-2.50165e-06
7.83125e-07
-2.51877e-06
6.2403e-07
-2.50846e-06
4.28872e-07
-2.46783e-06
1.98099e-07
-2.39426e-06
-6.68398e-08
-2.28541e-06
-3.63816e-07
-2.13929e-06
-6.89707e-07
-1.9544e-06
-1.04039e-06
-1.72979e-06
-1.4107e-06
-1.46512e-06
-1.79463e-06
-1.16076e-06
-2.18508e-06
-8.17834e-07
-2.57424e-06
-4.38312e-07
-2.95274e-06
-2.52137e-08
-3.30956e-06
4.17583e-07
-3.63033e-06
8.85424e-07
-3.89643e-06
1.37438e-06
-4.09085e-06
1.88401e-06
-4.22234e-06
2.4126e-06
-4.33015e-06
2.95253e-06
-4.41003e-06
3.49871e-06
-4.43759e-06
4.04322e-06
-4.41508e-06
4.58266e-06
-4.32593e-06
5.1071e-06
-4.201e-06
5.61742e-06
-3.98948e-06
6.09942e-06
-3.80004e-06
6.56291e-06
-3.45834e-06
6.9848e-06
-3.29728e-06
7.39073e-06
-2.77649e-06
7.7438e-06
-2.85348e-06
8.09287e-06
-2.02751e-06
8.39665e-06
-2.90176e-06
8.75458e-06
-1.78372e-06
-6.61547e-06
8.41038e-06
5.67904e-05
5.7259e-06
3.38585e-05
3.18724e-06
1.74595e-05
1.49821e-06
9.03161e-06
5.1823e-07
4.4423e-06
-5.28345e-08
2.62162e-06
-4.02646e-07
1.51678e-06
-6.43061e-07
1.06025e-06
-8.08792e-07
7.36323e-07
-9.36717e-07
5.97292e-07
-1.0385e-06
5.2015e-07
-1.12858e-06
5.13166e-07
-1.21338e-06
5.46172e-07
-1.29916e-06
6.09941e-07
-1.38866e-06
6.9199e-07
-1.48358e-06
7.82132e-07
-1.58388e-06
8.74305e-07
-1.6888e-06
9.61708e-07
-1.79669e-06
1.04039e-06
-1.90544e-06
1.10515e-06
-2.01244e-06
1.15176e-06
-2.11473e-06
1.17519e-06
-2.20909e-06
1.17105e-06
-2.29212e-06
1.13504e-06
-2.36037e-06
1.06425e-06
-2.41053e-06
9.56905e-07
-2.43936e-06
8.11958e-07
-2.44379e-06
6.28457e-07
-2.42087e-06
4.05951e-07
-2.36788e-06
1.45112e-07
-2.28236e-06
-1.52359e-07
-2.16209e-06
-4.84088e-07
-2.00519e-06
-8.46602e-07
-1.81028e-06
-1.2353e-06
-1.57648e-06
-1.6445e-06
-1.30353e-06
-2.06758e-06
-9.9182e-07
-2.49679e-06
-6.42508e-07
-2.92356e-06
-2.5752e-07
-3.33773e-06
1.60224e-07
-3.7273e-06
6.07086e-07
-4.07719e-06
1.07886e-06
-4.3682e-06
1.57214e-06
-4.58412e-06
2.08593e-06
-4.73613e-06
2.61763e-06
-4.86184e-06
3.15975e-06
-4.95215e-06
3.70733e-06
-4.98517e-06
4.25264e-06
-4.9604e-06
4.7924e-06
-4.86569e-06
5.31693e-06
-4.72553e-06
5.82739e-06
-4.49994e-06
6.30955e-06
-4.2822e-06
6.77416e-06
-3.92295e-06
7.19669e-06
-3.71981e-06
7.60636e-06
-3.18616e-06
7.95961e-06
-3.20673e-06
8.31746e-06
-2.38536e-06
8.61517e-06
-3.19947e-06
8.98398e-06
-2.15253e-06
-6.95191e-06
8.73701e-06
5.80534e-05
6.30905e-06
3.62865e-05
3.78362e-06
1.99849e-05
1.9536e-06
1.08616e-05
8.23171e-07
5.57272e-06
1.51281e-07
3.29351e-06
-2.67008e-07
1.93507e-06
-5.52521e-07
1.34576e-06
-7.50188e-07
9.3399e-07
-9.00916e-07
7.48021e-07
-1.0188e-06
6.38034e-07
-1.12012e-06
6.14482e-07
-1.21228e-06
6.38338e-07
-1.30246e-06
7.00121e-07
-1.39393e-06
7.83453e-07
-1.48877e-06
8.76981e-07
-1.5872e-06
9.7273e-07
-1.68857e-06
1.06308e-06
-1.79136e-06
1.14318e-06
-1.89355e-06
1.20734e-06
-1.99265e-06
1.25086e-06
-2.08586e-06
1.2684e-06
-2.17012e-06
1.25531e-06
-2.24224e-06
1.20716e-06
-2.29899e-06
1.121e-06
-2.33724e-06
9.95154e-07
-2.35398e-06
8.28701e-07
-2.34632e-06
6.20795e-07
-2.31149e-06
3.71123e-07
-2.24694e-06
8.05614e-08
-2.15032e-06
-2.48978e-07
-2.01952e-06
-6.1489e-07
-1.85278e-06
-1.01334e-06
-1.64881e-06
-1.43927e-06
-1.40682e-06
-1.88649e-06
-1.12661e-06
-2.34779e-06
-8.08608e-07
-2.8148e-06
-4.5398e-07
-3.27818e-06
-6.46299e-08
-3.72708e-06
3.56626e-07
-4.14856e-06
8.06367e-07
-4.52693e-06
1.28076e-06
-4.84259e-06
1.77676e-06
-5.08012e-06
2.29281e-06
-5.25219e-06
2.82553e-06
-5.39456e-06
3.36767e-06
-5.49429e-06
3.91436e-06
-5.53186e-06
4.45811e-06
-5.50414e-06
4.99572e-06
-5.4033e-06
5.51782e-06
-5.24763e-06
6.02571e-06
-5.00783e-06
6.50533e-06
-4.76182e-06
6.96796e-06
-4.38559e-06
7.3883e-06
-4.14014e-06
7.79796e-06
-3.59582e-06
8.14875e-06
-3.55752e-06
8.51049e-06
-2.7471e-06
8.80052e-06
-3.4895e-06
9.17381e-06
-2.52582e-06
-7.23847e-06
9.02226e-06
5.90311e-05
6.85762e-06
3.84511e-05
4.39201e-06
2.24505e-05
2.45286e-06
1.28008e-05
1.1762e-06
6.84939e-06
3.9538e-07
4.07432e-06
-9.83873e-08
2.42884e-06
-4.33892e-07
1.68127e-06
-6.67303e-07
1.1674e-06
-8.43536e-07
9.24253e-07
-9.79437e-07
7.73935e-07
-1.09323e-06
7.28275e-07
-1.19343e-06
7.3854e-07
-1.28823e-06
7.94918e-07
-1.38153e-06
8.76752e-07
-1.47595e-06
9.71403e-07
-1.57199e-06
1.06878e-06
-1.66927e-06
1.16036e-06
-1.76642e-06
1.24032e-06
-1.86157e-06
1.30249e-06
-1.95239e-06
1.34168e-06
-2.03626e-06
1.35226e-06
-2.1103e-06
1.32936e-06
-2.17154e-06
1.2684e-06
-2.21694e-06
1.1664e-06
-2.24357e-06
1.02179e-06
-2.24861e-06
8.33743e-07
-2.22934e-06
6.0152e-07
-2.18315e-06
3.2493e-07
-2.10762e-06
5.04049e-09
-2.00054e-06
-3.56067e-07
-1.85987e-06
-7.55556e-07
-1.68399e-06
-1.18922e-06
-1.4717e-06
-1.65157e-06
-1.22228e-06
-2.1359e-06
-9.35599e-07
-2.63447e-06
-6.12116e-07
-3.13828e-06
-2.53023e-07
-3.63728e-06
1.39803e-07
-4.11991e-06
5.63647e-07
-4.5724e-06
1.01527e-06
-4.97855e-06
1.49114e-06
-5.31846e-06
1.98847e-06
-5.57745e-06
2.50516e-06
-5.76888e-06
3.0372e-06
-5.9266e-06
3.57756e-06
-6.03465e-06
4.1215e-06
-6.0758e-06
4.66178e-06
-6.04442e-06
5.19527e-06
-5.9368e-06
5.71293e-06
-5.76529e-06
6.21614e-06
-5.51104e-06
6.69111e-06
-5.23679e-06
7.14941e-06
-4.84389e-06
7.56541e-06
-4.55614e-06
7.97223e-06
-4.00264e-06
8.31856e-06
-3.90385e-06
8.68046e-06
-3.10899e-06
8.96175e-06
-3.7708e-06
9.33449e-06
-2.89856e-06
-7.4811e-06
9.27024e-06
5.97609e-05
7.36851e-06
4.03528e-05
5.00258e-06
2.48165e-05
2.98968e-06
1.48137e-05
1.57674e-06
8.26233e-06
6.81278e-07
4.96979e-06
1.05093e-07
3.00502e-06
-2.85591e-07
2.07195e-06
-5.58844e-07
1.44065e-06
-7.6354e-07
1.12895e-06
-9.19668e-07
9.30063e-07
-1.04747e-06
8.56077e-07
-1.15667e-06
8.47743e-07
-1.2566e-06
8.94842e-07
-1.3519e-06
9.72051e-07
-1.44582e-06
1.06533e-06
-1.53928e-06
1.16223e-06
-1.63218e-06
1.25326e-06
-1.72338e-06
1.33152e-06
-1.81123e-06
1.39034e-06
-1.89358e-06
1.42403e-06
-1.96799e-06
1.42668e-06
-2.03181e-06
1.39318e-06
-2.08224e-06
1.31883e-06
-2.11646e-06
1.20062e-06
-2.13173e-06
1.03705e-06
-2.12539e-06
8.27402e-07
-2.09487e-06
5.71007e-07
-2.03774e-06
2.67796e-07
-1.9517e-06
-8.09981e-08
-1.83462e-06
-4.73147e-07
-1.68461e-06
-9.05571e-07
-1.50013e-06
-1.3737e-06
-1.28008e-06
-1.87161e-06
-1.02384e-06
-2.39215e-06
-7.31314e-07
-2.92699e-06
-4.03018e-07
-3.46657e-06
-4.01572e-08
-4.00014e-06
3.55411e-07
-4.51547e-06
7.81061e-07
-4.99805e-06
1.2337e-06
-5.4312e-06
1.71005e-06
-5.7948e-06
2.20748e-06
-6.07488e-06
2.72341e-06
-6.28481e-06
3.25331e-06
-6.45649e-06
3.79038e-06
-6.57173e-06
4.33003e-06
-6.61544e-06
4.86525e-06
-6.57965e-06
5.39301e-06
-6.46456e-06
5.90458e-06
-6.27686e-06
6.40139e-06
-6.00786e-06
6.87001e-06
-5.70541e-06
7.32212e-06
-5.296e-06
7.73206e-06
-4.96608e-06
8.13388e-06
-4.40445e-06
8.47422e-06
-4.24419e-06
8.83342e-06
-3.4682e-06
9.10527e-06
-4.04264e-06
9.4736e-06
-3.26689e-06
-7.68486e-06
9.48489e-06
6.0276e-05
7.83995e-06
4.19978e-05
5.6064e-06
2.705e-05
3.55674e-06
1.68633e-05
2.02304e-06
9.79603e-06
1.01041e-06
5.98242e-06
3.45486e-07
3.66995e-06
-1.05915e-07
2.52335e-06
-4.2334e-07
1.75808e-06
-6.59701e-07
1.36531e-06
-8.38563e-07
1.10892e-06
-9.8221e-07
9.99725e-07
-1.10168e-06
9.67216e-07
-1.20754e-06
1.00069e-06
-1.30527e-06
1.06979e-06
-1.39889e-06
1.15894e-06
-1.48976e-06
1.25311e-06
-1.57822e-06
1.34171e-06
-1.66337e-06
1.41668e-06
-1.74382e-06
1.47079e-06
-1.81761e-06
1.49782e-06
-1.88255e-06
1.49162e-06
-1.93618e-06
1.44681e-06
-1.97591e-06
1.35856e-06
-1.99912e-06
1.22382e-06
-2.00324e-06
1.04117e-06
-1.98578e-06
8.09944e-07
-1.94433e-06
5.29558e-07
-1.87659e-06
2.00054e-07
-1.78039e-06
-1.77198e-07
-1.6537e-06
-5.99837e-07
-1.49474e-06
-1.06453e-06
-1.3021e-06
-1.56634e-06
-1.07476e-06
-2.09895e-06
-8.1218e-07
-2.65473e-06
-5.14335e-07
-3.22484e-06
-1.8178e-07
-3.79913e-06
1.84258e-07
-4.36618e-06
5.81941e-07
-4.91316e-06
1.00871e-06
-5.42482e-06
1.46161e-06
-5.8841e-06
1.93753e-06
-6.27072e-06
2.43396e-06
-6.57132e-06
2.9479e-06
-6.79875e-06
3.47439e-06
-6.98299e-06
4.0069e-06
-7.10423e-06
4.54092e-06
-7.14946e-06
5.06973e-06
-7.10846e-06
5.59038e-06
-6.9852e-06
6.09447e-06
-6.78095e-06
6.58345e-06
-6.49684e-06
7.0443e-06
-6.16626e-06
7.4887e-06
-5.7404e-06
7.89118e-06
-5.36857e-06
8.28627e-06
-4.79954e-06
8.61939e-06
-4.57731e-06
8.9737e-06
-3.82251e-06
9.23556e-06
-4.3045e-06
9.59657e-06
-3.6279e-06
-7.85397e-06
9.66995e-06
6.06061e-05
8.2713e-06
4.33964e-05
6.19568e-06
2.91256e-05
4.14603e-06
1.8913e-05
2.51201e-06
1.14301e-05
1.38359e-06
7.11084e-06
6.24853e-07
4.42868e-06
1.07062e-07
3.04114e-06
-2.59163e-07
2.1243e-06
-5.30586e-07
1.63673e-06
-7.34974e-07
1.31331e-06
-8.96598e-07
1.16135e-06
-1.02791e-06
1.09853e-06
-1.14078e-06
1.11356e-06
-1.24165e-06
1.17066e-06
-1.33536e-06
1.25265e-06
-1.42388e-06
1.34163e-06
-1.50798e-06
1.42581e-06
-1.58713e-06
1.49583e-06
-1.66019e-06
1.54385e-06
-1.72546e-06
1.5631e-06
-1.78098e-06
1.54713e-06
-1.8245e-06
1.49033e-06
-1.85365e-06
1.38772e-06
-1.866e-06
1.23617e-06
-1.85916e-06
1.03433e-06
-1.83081e-06
7.81593e-07
-1.77868e-06
4.77427e-07
-1.7006e-06
1.21978e-07
-1.59453e-06
-2.8327e-07
-1.45854e-06
-7.35827e-07
-1.29098e-06
-1.23209e-06
-1.09054e-06
-1.76678e-06
-8.56302e-07
-2.33318e-06
-5.87797e-07
-2.92323e-06
-2.85075e-07
-3.52756e-06
5.12621e-08
-4.13547e-06
4.19969e-07
-4.73488e-06
8.19216e-07
-5.3124e-06
1.2465e-06
-5.85211e-06
1.69897e-06
-6.33656e-06
2.17364e-06
-6.74539e-06
2.66808e-06
-7.06575e-06
3.17891e-06
-7.30958e-06
3.70091e-06
-7.50499e-06
4.22771e-06
-7.63104e-06
4.75495e-06
-7.6767e-06
5.27617e-06
-7.62968e-06
5.7885e-06
-7.49753e-06
6.28389e-06
-7.27635e-06
6.76381e-06
-6.97676e-06
7.21566e-06
-6.61811e-06
7.65107e-06
-6.1758e-06
8.04491e-06
-5.76242e-06
8.43187e-06
-5.1865e-06
8.75674e-06
-4.90218e-06
9.10442e-06
-4.17019e-06
9.35586e-06
-4.55594e-06
9.70736e-06
-3.9794e-06
-7.99187e-06
9.82892e-06
6.07771e-05
8.66288e-06
4.45624e-05
6.76385e-06
3.10247e-05
4.74923e-06
2.09276e-05
3.03929e-06
1.314e-05
1.80075e-06
8.34938e-06
9.44873e-07
5.28456e-06
3.55251e-07
3.63077e-06
-6.44789e-08
2.54403e-06
-3.74573e-07
1.94683e-06
-6.07538e-07
1.54628e-06
-7.89541e-07
1.34335e-06
-9.34568e-07
1.24356e-06
-1.05581e-06
1.2348e-06
-1.16076e-06
1.27561e-06
-1.2552e-06
1.34709e-06
-1.34177e-06
1.42819e-06
-1.42177e-06
1.50582e-06
-1.49508e-06
1.56913e-06
-1.56088e-06
1.60964e-06
-1.61773e-06
1.61996e-06
-1.66393e-06
1.59332e-06
-1.69746e-06
1.52386e-06
-1.71618e-06
1.40643e-06
-1.71783e-06
1.23783e-06
-1.70022e-06
1.01672e-06
-1.66119e-06
7.42557e-07
-1.5986e-06
4.14836e-07
-1.51042e-06
3.38056e-08
-1.39473e-06
-3.98962e-07
-1.24971e-06
-8.80847e-07
-1.07384e-06
-1.40797e-06
-8.65908e-07
-1.97471e-06
-6.25104e-07
-2.57399e-06
-3.51037e-07
-3.1973e-06
-4.38286e-08
-3.83477e-06
2.95871e-07
-4.47517e-06
6.66795e-07
-5.10581e-06
1.06711e-06
-5.71272e-06
1.49435e-06
-6.27936e-06
1.94574e-06
-6.78795e-06
2.41842e-06
-7.21807e-06
2.90995e-06
-7.55729e-06
3.4167e-06
-7.81633e-06
3.9332e-06
-8.02149e-06
4.4533e-06
-8.15114e-06
4.97273e-06
-8.19613e-06
5.4853e-06
-8.14225e-06
5.98824e-06
-8.00046e-06
6.47385e-06
-7.76197e-06
6.94362e-06
-7.44653e-06
7.38539e-06
-7.05988e-06
7.81068e-06
-6.60109e-06
8.19485e-06
-6.14658e-06
8.5725e-06
-5.56416e-06
8.88824e-06
-5.21791e-06
9.22787e-06
-4.50982e-06
9.46851e-06
-4.79658e-06
9.80883e-06
-4.31972e-06
-8.1014e-06
9.96506e-06
6.08121e-05
9.01576e-06
4.55117e-05
7.30556e-06
3.27349e-05
5.358e-06
2.28752e-05
3.5994e-06
1.48986e-05
2.26081e-06
9.68797e-06
1.30678e-06
6.23859e-06
6.40472e-07
4.29707e-06
1.6264e-07
3.02187e-06
-1.89888e-07
2.29936e-06
-4.54687e-07
1.81108e-06
-6.59711e-07
1.54838e-06
-8.20596e-07
1.40445e-06
-9.51853e-07
1.36606e-06
-1.06208e-06
1.38583e-06
-1.15809e-06
1.4431e-06
-1.24329e-06
1.5134e-06
-1.31961e-06
1.58215e-06
-1.38737e-06
1.63689e-06
-1.44613e-06
1.6684e-06
-1.49475e-06
1.66858e-06
-1.5318e-06
1.63037e-06
-1.55551e-06
1.54757e-06
-1.56395e-06
1.41488e-06
-1.55509e-06
1.22896e-06
-1.5269e-06
9.88533e-07
-1.47738e-06
6.93033e-07
-1.40454e-06
3.41993e-07
-1.30648e-06
-6.42493e-08
-1.18139e-06
-5.2405e-07
-1.02759e-06
-1.03465e-06
-8.43658e-07
-1.59189e-06
-6.28521e-07
-2.18984e-06
-3.81452e-07
-2.82106e-06
-1.0215e-07
-3.4766e-06
2.09195e-07
-4.14611e-06
5.5188e-07
-4.81785e-06
9.24608e-07
-5.47853e-06
1.32553e-06
-6.11364e-06
1.75221e-06
-6.70604e-06
2.20194e-06
-7.23767e-06
2.67192e-06
-7.68805e-06
3.15972e-06
-8.04509e-06
3.66147e-06
-8.31808e-06
4.17158e-06
-8.53159e-06
4.68405e-06
-8.66361e-06
5.19473e-06
-8.70681e-06
5.6977e-06
-8.64522e-06
6.19028e-06
-8.49304e-06
6.66515e-06
-8.23683e-06
7.12377e-06
-7.90515e-06
7.55448e-06
-7.49059e-06
7.96866e-06
-7.01528e-06
8.34222e-06
-6.52014e-06
8.70954e-06
-5.93148e-06
9.01535e-06
-5.52372e-06
9.34576e-06
-4.84023e-06
9.57525e-06
-5.02607e-06
9.9031e-06
-4.64757e-06
-8.18486e-06
1.00814e-05
6.07307e-05
9.3316e-06
4.62615e-05
7.81668e-06
3.42498e-05
5.96434e-06
2.47275e-05
4.18587e-06
1.66771e-05
2.76157e-06
1.11123e-05
1.71121e-06
7.28895e-06
9.6449e-07
5.04379e-06
4.24256e-07
3.5621e-06
2.53114e-08
2.6983e-06
-2.74686e-07
2.11107e-06
-5.05559e-07
1.77925e-06
-6.84709e-07
1.5836e-06
-8.27882e-07
1.50923e-06
-9.44831e-07
1.50278e-06
-1.04348e-06
1.54175e-06
-1.12808e-06
1.598e-06
-1.20129e-06
1.65536e-06
-1.26392e-06
1.69952e-06
-1.31596e-06
1.72044e-06
-1.35662e-06
1.70924e-06
-1.38475e-06
1.6585e-06
-1.39885e-06
1.56167e-06
-1.39722e-06
1.41325e-06
-1.37804e-06
1.20978e-06
-1.33947e-06
9.49963e-07
-1.27966e-06
6.33225e-07
-1.19678e-06
2.59106e-07
-1.08905e-06
-1.71978e-07
-9.54779e-07
-6.58319e-07
-7.92414e-07
-1.19702e-06
-6.00678e-07
-1.78363e-06
-3.78595e-07
-2.41193e-06
-1.25541e-07
-3.07411e-06
1.58696e-07
-3.76084e-06
4.73855e-07
-4.46127e-06
8.19176e-07
-5.16317e-06
1.19332e-06
-5.85268e-06
1.59442e-06
-6.51474e-06
2.02006e-06
-7.13168e-06
2.46755e-06
-7.68517e-06
2.93418e-06