/*--------------------------------*- C++ -*----------------------------------*\
| =========                 |                                                 |
| \\      /  F ield         | OpenFOAM: The Open Source CFD Toolbox           |
|  \\    /   O peration     | Version:  2.4.0                                 |
|   \\  /    A nd           | Web:      www.OpenFOAM.org                      |
|    \\/     M anipulation  |                                                 |
\*---------------------------------------------------------------------------*/
FoamFile
{
    version     2.0;
    format      ascii;
    class       volScalarField;
    location    "6.33";
    object      p;
}
// * * * * * * * * * * * * * * * * * * * * * * * * * * * * * * * * * * * * * //

dimensions      [0 2 -2 0 0 0 0];

internalField   nonuniform List<scalar> 
6000
(
0.0495685
0.278736
0.275686
0.299015
0.304454
0.312134
0.31517
0.318785
0.32072
0.322798
0.324187
0.325585
0.326689
0.32778
0.328755
0.329732
0.330682
0.331662
0.332673
0.333748
0.334901
0.336158
0.337539
0.339071
0.340776
0.34268
0.344807
0.347181
0.349825
0.352761
0.356005
0.359569
0.363459
0.367672
0.372196
0.377006
0.38206
0.387304
0.392662
0.398046
0.403331
0.408408
0.413101
0.41732
0.420666
0.423142
0.424271
0.424327
0.422142
0.418925
0.411656
0.404479
0.388787
0.377994
0.346163
0.336194
0.267497
0.277288
0.110301
0.202871
0.0645877
0.276951
0.275729
0.298867
0.304371
0.312047
0.315113
0.318732
0.320681
0.322763
0.324161
0.325563
0.326672
0.327766
0.328744
0.329723
0.330675
0.331657
0.332669
0.333745
0.334899
0.336157
0.337539
0.339071
0.340777
0.342682
0.344809
0.347184
0.34983
0.352767
0.356012
0.359578
0.36347
0.367686
0.37221
0.37702
0.382074
0.387317
0.39267
0.398049
0.403325
0.408389
0.413067
0.417271
0.420613
0.423078
0.424192
0.424222
0.422012
0.418748
0.411445
0.404187
0.388462
0.377517
0.345695
0.335403
0.266933
0.275885
0.109662
0.200214
0.0784321
0.274875
0.275826
0.298749
0.304299
0.31198
0.315064
0.318689
0.320648
0.322735
0.324138
0.325543
0.326656
0.327753
0.328733
0.329714
0.330668
0.331651
0.332665
0.333742
0.334897
0.336155
0.337538
0.339071
0.340777
0.342682
0.34481
0.347185
0.349831
0.352768
0.356014
0.359581
0.363473
0.367689
0.372214
0.377023
0.382074
0.387313
0.392661
0.39803
0.403292
0.408338
0.412993
0.417175
0.42051
0.422966
0.424067
0.424079
0.421845
0.418546
0.411207
0.403887
0.388121
0.377061
0.345219
0.334679
0.266284
0.274626
0.10881
0.197868
0.0899004
0.272697
0.275965
0.298658
0.304245
0.311925
0.315022
0.318653
0.320619
0.32271
0.324117
0.325525
0.326641
0.32774
0.328722
0.329705
0.330661
0.331645
0.33266
0.333738
0.334893
0.336152
0.337535
0.339067
0.340773
0.342678
0.344805
0.34718
0.349826
0.352763
0.356008
0.359574
0.363465
0.367679
0.372202
0.377008
0.382054
0.387286
0.392624
0.397979
0.403223
0.408246
0.412874
0.417023
0.420343
0.42279
0.423881
0.423879
0.421626
0.418303
0.410933
0.403567
0.387758
0.376611
0.344729
0.334
0.265623
0.273493
0.107925
0.195932
0.099887
0.270525
0.276127
0.298591
0.304209
0.311879
0.314987
0.318621
0.320592
0.322687
0.324097
0.325509
0.326627
0.327728
0.328712
0.329696
0.330653
0.331638
0.332653
0.333732
0.334887
0.336146
0.337528
0.339061
0.340766
0.34267
0.344796
0.34717
0.349814
0.352749
0.355993
0.359556
0.363444
0.367654
0.372172
0.376971
0.382009
0.387229
0.392552
0.397889
0.403112
0.408111
0.412711
0.416819
0.420108
0.422539
0.423613
0.423597
0.421325
0.417982
0.410582
0.403181
0.38733
0.376115
0.344184
0.333305
0.264917
0.272396
0.107016
0.19425
0.108956
0.268425
0.276297
0.298547
0.304186
0.311841
0.314957
0.318592
0.320569
0.322666
0.32408
0.325493
0.326614
0.327716
0.328702
0.329687
0.330644
0.33163
0.332646
0.333724
0.334879
0.336138
0.33752
0.339051
0.340755
0.342658
0.344783
0.347155
0.349796
0.352729
0.355968
0.359527
0.36341
0.367613
0.372123
0.376911
0.381937
0.387143
0.392448
0.397766
0.402967
0.407945
0.412517
0.416582
0.419826
0.422226
0.423271
0.423231
0.420932
0.417564
0.410131
0.402698
0.386802
0.375532
0.343545
0.332547
0.264124
0.271282
0.106049
0.192715
0.117279
0.266438
0.276469
0.298523
0.304178
0.31181
0.314934
0.318567
0.320548
0.322647
0.324063
0.325478
0.326601
0.327705
0.328691
0.329677
0.330635
0.331622
0.332637
0.333716
0.33487
0.336128
0.33751
0.33904
0.340742
0.342643
0.344766
0.347135
0.349773
0.352701
0.355935
0.359488
0.363363
0.367558
0.372057
0.376833
0.381845
0.387035
0.392324
0.397623
0.402805
0.407764
0.412312
0.416334
0.419523
0.421881
0.422885
0.422806
0.420466
0.417062
0.409586
0.402116
0.386166
0.374847
0.342791
0.331699
0.263215
0.270118
0.104983
0.191272
0.124942
0.264587
0.276643
0.2985
0.304194
0.311788
0.314917
0.318546
0.32053
0.322629
0.324048
0.325465
0.326588
0.327694
0.328681
0.329667
0.330626
0.331612
0.332628
0.333706
0.334861
0.336118
0.337498
0.339027
0.340727
0.342626
0.344745
0.347111
0.349744
0.352667
0.355895
0.359441
0.363307
0.367492
0.37198
0.376744
0.381742
0.386918
0.39219
0.397474
0.40264
0.407581
0.412106
0.416087
0.41922
0.421528
0.422481
0.422353
0.419961
0.416508
0.408975
0.401456
0.385439
0.374067
0.341926
0.330754
0.262178
0.268885
0.103798
0.189877
0.132046
0.262883
0.276816
0.298486
0.304222
0.311774
0.314907
0.318529
0.320516
0.322615
0.324035
0.325452
0.326577
0.327683
0.328671
0.329658
0.330616
0.331603
0.332618
0.333696
0.33485
0.336106
0.337485
0.339012
0.340711
0.342606
0.344722
0.347084
0.349712
0.352629
0.35585
0.359388
0.363246
0.367421
0.371898
0.376651
0.381636
0.386799
0.392058
0.397328
0.40248
0.407405
0.411907
0.415849
0.418927
0.421184
0.422081
0.421897
0.419443
0.415931
0.408329
0.40075
0.384652
0.373218
0.340974
0.329726
0.261028
0.267578
0.102491
0.188502
0.138686
0.261334
0.276985
0.298476
0.304261
0.311768
0.314903
0.318517
0.320505
0.322602
0.324023
0.325441
0.326567
0.327673
0.328661
0.329648
0.330607
0.331593
0.332609
0.333686
0.334839
0.336094
0.337472
0.338997
0.340693
0.342585
0.344697
0.347054
0.349677
0.352588
0.355802
0.359332
0.363182
0.367348
0.371815
0.376558
0.381533
0.386684
0.391932
0.397189
0.402328
0.407238
0.411718
0.415623
0.41865
0.420854
0.421695
0.421451
0.418931
0.415353
0.407675
0.400026
0.383836
0.372329
0.339968
0.328638
0.259791
0.26621
0.10108
0.18714
0.144943
0.259943
0.277146
0.298465
0.304311
0.311769
0.314905
0.318508
0.320496
0.322592
0.324014
0.325431
0.326557
0.327663
0.328652
0.329639
0.330598
0.331584
0.332599
0.333676
0.334828
0.336082
0.337457
0.33898
0.340673
0.342562
0.34467
0.347022
0.34964
0.352545
0.355753
0.359275
0.363117
0.367276
0.371735
0.376469
0.381434
0.386576
0.391813
0.39706
0.402186
0.407081
0.411539
0.415408
0.418389
0.420543
0.421328
0.421023
0.418436
0.414788
0.40703
0.399303
0.383015
0.371426
0.338935
0.327516
0.258501
0.264803
0.0995955
0.185794
0.150876
0.258711
0.277296
0.298449
0.304369
0.311777
0.314913
0.318504
0.320492
0.322584
0.324006
0.325423
0.326549
0.327655
0.328644
0.329631
0.330589
0.331575
0.33259
0.333666
0.334817
0.336069
0.337442
0.338962
0.340652
0.342537
0.344642
0.346989
0.349601
0.352501
0.355703
0.359219
0.363054
0.367205
0.371657
0.376384
0.381341
0.386475
0.391703
0.396939
0.402054
0.406935
0.41137
0.415207
0.418144
0.42025
0.42098
0.420615
0.417961
0.414242
0.406402
0.398594
0.382203
0.370525
0.337899
0.326384
0.257187
0.26338
0.0980715
0.18448
0.156535
0.25764
0.277431
0.298426
0.304435
0.311791
0.314928
0.318504
0.320491
0.322579
0.324001
0.325416
0.326542
0.327648
0.328637
0.329624
0.330582
0.331567
0.332581
0.333656
0.334806
0.336056
0.337427
0.338944
0.340631
0.342512
0.344612
0.346955
0.349563
0.352457
0.355653
0.359164
0.362993
0.367138
0.371584
0.376304
0.381255
0.386381
0.391601
0.396828
0.401932
0.406797
0.41121
0.415017
0.417915
0.419975
0.420653
0.420229
0.417509
0.413717
0.405796
0.397904
0.381411
0.369638
0.336876
0.325258
0.255874
0.261959
0.0965411
0.183208
0.161955
0.256729
0.277552
0.298395
0.304505
0.31181
0.314949
0.318508
0.320493
0.322576
0.323997
0.325412
0.326538
0.327643
0.328631
0.329618
0.330575
0.33156
0.332573
0.333647
0.334795
0.336043
0.337411
0.338925
0.340609
0.342487
0.344583
0.346921
0.349524
0.352414
0.355605
0.359111
0.362935
0.367075
0.371515
0.37623
0.381175
0.386294
0.391507
0.396725
0.401818
0.406669
0.41106
0.414837
0.4177
0.419717
0.420344
0.419862
0.417078
0.413215
0.405214
0.397237
0.380644
0.368773
0.335876
0.324148
0.254579
0.260555
0.0950322
0.181988
0.167165
0.255978
0.277658
0.298352
0.304579
0.311834
0.314976
0.318516
0.320499
0.322576
0.323997
0.32541
0.326535
0.32764
0.328627
0.329613
0.33057
0.331554
0.332566
0.333638
0.334784
0.33603
0.337396
0.338907
0.340587
0.342461
0.344554
0.346888
0.349487
0.352372
0.355559
0.35906
0.36288
0.367015
0.371451
0.376161
0.3811
0.386214
0.39142
0.39663
0.401712
0.406548
0.410919
0.414668
0.417498
0.419474
0.420053
0.419515
0.416669
0.412736
0.404657
0.396595
0.379904
0.367932
0.334905
0.323062
0.253316
0.259178
0.093566
0.180824
0.172189
0.255382
0.277754
0.298298
0.304653
0.31186
0.315008
0.318528
0.320508
0.322579
0.323999
0.32541
0.326534
0.327638
0.328625
0.32961
0.330566
0.331549
0.332559
0.33363
0.334774
0.336018
0.337381
0.338889
0.340566
0.342437
0.344526
0.346856
0.349451
0.352332
0.355515
0.359012
0.362828
0.36696
0.371392
0.376097
0.381032
0.38614
0.39134
0.396542
0.401614
0.406435
0.410785
0.414509
0.417307
0.419243
0.419777
0.419185
0.416279
0.412277
0.404124
0.395976
0.379193
0.367118
0.333968
0.322003
0.252093
0.257835
0.0921583
0.179718
0.177042
0.254937
0.277842
0.29823
0.304727
0.311888
0.315045
0.318543
0.320522
0.322585
0.324003
0.325412
0.326536
0.327639
0.328625
0.329609
0.330564
0.331546
0.332555
0.333624
0.334766
0.336007
0.337367
0.338873
0.340546
0.342414
0.344499
0.346826
0.349418
0.352295
0.355474
0.358968
0.362781
0.366909
0.371337
0.376039
0.38097
0.386073
0.391266
0.396461
0.401522
0.406328
0.410658
0.414357
0.417126
0.419025
0.419514
0.41887
0.415907
0.411837
0.403613
0.395381
0.378509
0.36633
0.333067
0.320975
0.250916
0.25653
0.0908194
0.178666
0.181738
0.25464
0.277929
0.29815
0.304797
0.311917
0.315087
0.318562
0.320538
0.322594
0.324011
0.325417
0.32654
0.327642
0.328628
0.32961
0.330564
0.331544
0.332552
0.333619
0.334759
0.335998
0.337355
0.338858
0.340528
0.342393
0.344475
0.346798
0.349387
0.352261
0.355437
0.358927
0.362737
0.366862
0.371288
0.375986
0.380913
0.386012
0.391199
0.396386
0.401437
0.406228
0.410538
0.414212
0.416954
0.418817
0.419264
0.418569
0.415551
0.411414
0.403122
0.394806
0.377852
0.365568
0.3322
0.319977
0.249788
0.255265
0.0895561
0.177667
0.186288
0.254482
0.278019
0.298058
0.304861
0.311945
0.315134
0.318585
0.320559
0.322606
0.324021
0.325424
0.326547
0.327648
0.328632
0.329614
0.330566
0.331545
0.332551
0.333616
0.334754
0.33599
0.337345
0.338845
0.340513
0.342374
0.344453
0.346773
0.349359
0.35223
0.355403
0.358891
0.362698
0.36682
0.371243
0.375939
0.380862
0.385956
0.391138
0.396317
0.401357
0.406133
0.410424
0.414075
0.416789
0.418617
0.419024
0.418279
0.415208
0.411006
0.40265
0.394252
0.37722
0.36483
0.331369
0.31901
0.248711
0.254039
0.0883722
0.176714
0.190701
0.254457
0.278119
0.297956
0.304919
0.311972
0.315184
0.318611
0.320583
0.32262
0.324033
0.325434
0.326556
0.327656
0.328639
0.32962
0.330571
0.331548
0.332552
0.333615
0.334751
0.335985
0.337338
0.338835
0.3405
0.342358
0.344434
0.346752
0.349335
0.352203
0.355373
0.358858
0.362663
0.366784
0.371204
0.375897
0.380817
0.385907
0.391083
0.396254
0.401283
0.406044
0.410315
0.413943
0.416632
0.418426
0.418793
0.418
0.414878
0.410612
0.402195
0.393715
0.376613
0.364117
0.330573
0.318073
0.247685
0.252852
0.0872693
0.175804
0.194983
0.254558
0.278234
0.297847
0.304968
0.311997
0.315236
0.31864
0.320611
0.322638
0.324049
0.325446
0.326568
0.327667
0.328649
0.329628
0.330578
0.331554
0.332556
0.333617
0.334751
0.335983
0.337333
0.338827
0.34049
0.342346
0.344419
0.346734
0.349314
0.35218
0.355348
0.358831
0.362634
0.366752
0.371171
0.375861
0.380778
0.385863
0.391033
0.396196
0.401215
0.40596
0.410212
0.413816
0.41648
0.41824
0.41857
0.417729
0.414558
0.41023
0.401755
0.393195
0.376027
0.363425
0.329809
0.317164
0.24671
0.251704
0.0862476
0.17493
0.199141
0.254775
0.278368
0.297735
0.305008
0.312018
0.315292
0.318672
0.320643
0.322658
0.324068
0.325462
0.326583
0.32768
0.328662
0.32964
0.330589
0.331563
0.332563
0.333623
0.334754
0.335984
0.337332
0.338824
0.340484
0.342337
0.344408
0.346721
0.349298
0.352162
0.355328
0.358809
0.36261
0.366727
0.371143
0.375831
0.380744
0.385826
0.39099
0.396144
0.401151
0.405881
0.410113
0.413694
0.416333
0.418061
0.418353
0.417465
0.414247
0.409858
0.401328
0.392689
0.375462
0.362753
0.329078
0.316283
0.245785
0.250593
0.0853061
0.174089
0.20318
0.255103
0.278525
0.297622
0.305039
0.312035
0.315349
0.318707
0.320679
0.322682
0.32409
0.32548
0.326601
0.327697
0.328678
0.329655
0.330602
0.331575
0.332574
0.333631
0.334761
0.335989
0.337334
0.338824
0.340482
0.342333
0.344401
0.346712
0.349288
0.352149
0.355313
0.358793
0.362592
0.366707
0.371121
0.375807
0.380717
0.385794
0.390952
0.396097
0.401092
0.405807
0.410018
0.413577
0.416191
0.417886
0.418142
0.417208
0.413944
0.409496
0.400914
0.392196
0.374916
0.3621
0.328376
0.315427
0.244909
0.249516
0.0844434
0.173273
0.207106
0.255531
0.278709
0.297514
0.305062
0.312047
0.315406
0.318744
0.320719
0.322709
0.324115
0.3255
0.326621
0.327716
0.328698
0.329673
0.33062
0.331591
0.332588
0.333644
0.334772
0.335998
0.337341
0.338828
0.340484
0.342333
0.3444
0.346708
0.349282
0.352142
0.355305
0.358783
0.362581
0.366694
0.371106
0.375789
0.380696
0.385768
0.39092
0.396056
0.401039
0.405736
0.409928
0.413463
0.416053
0.417715
0.417935
0.416956
0.413648
0.40914
0.40051
0.391715
0.374388
0.361465
0.327704
0.314596
0.244081
0.248473
0.0836573
0.17248
0.210924
0.256053
0.278921
0.297413
0.305077
0.312054
0.315464
0.318784
0.320763
0.32274
0.324144
0.325525
0.326645
0.327739
0.32872
0.329695
0.330641
0.33161
0.332606
0.333661
0.334787
0.336011
0.337352
0.338838
0.340492
0.342339
0.344404
0.346711
0.349283
0.352141
0.355302
0.358779
0.362576
0.366688
0.371098
0.375779
0.380682
0.385749
0.390893
0.39602
0.40099
0.405671
0.409842
0.413354
0.415918
0.417548
0.417732
0.416708
0.413358
0.408792
0.400116
0.391245
0.373876
0.360845
0.327059
0.313788
0.2433
0.247461
0.0829457
0.171705
0.214638
0.256661
0.279164
0.297324
0.305087
0.312055
0.315521
0.318826
0.320811
0.322775
0.324177
0.325552
0.326672
0.327766
0.328747
0.329721
0.330666
0.331634
0.332629
0.333682
0.334807
0.336029
0.337369
0.338853
0.340505
0.342351
0.344414
0.346719
0.34929
0.352147
0.355307
0.358783
0.362578
0.366689
0.371098
0.375775
0.380675
0.385736
0.390873
0.39599
0.400947
0.405609
0.409759
0.413247
0.415786
0.417383
0.417533
0.416464
0.413072
0.408449
0.39973
0.390784
0.373379
0.360241
0.326441
0.313002
0.242565
0.246479
0.0823061
0.170944
0.218253
0.257347
0.279437
0.297249
0.305093
0.312052
0.315577
0.31887
0.320864
0.322815
0.324214
0.325584
0.326703
0.327796
0.328777
0.329751
0.330695
0.331663
0.332657
0.333709
0.334832
0.336053
0.337391
0.338874
0.340524
0.342368
0.34443
0.346734
0.349304
0.35216
0.355319
0.358794
0.362589
0.366698
0.371104
0.375779
0.380675
0.385731
0.39086
0.395965
0.400908
0.405552
0.40968
0.413143
0.415657
0.417221
0.417336
0.416223
0.412791
0.408111
0.399352
0.390332
0.372896
0.359651
0.325849
0.312237
0.241873
0.245525
0.0817361
0.170193
0.221774
0.258105
0.279742
0.297191
0.305097
0.312045
0.315632
0.318916
0.320921
0.322859
0.324257
0.325619
0.326739
0.32783
0.328812
0.329786
0.33073
0.331697
0.33269
0.333741
0.334863
0.336083
0.33742
0.338901
0.34055
0.342393
0.344454
0.346757
0.349325
0.35218
0.355339
0.358813
0.362607
0.366715
0.371119
0.375791
0.380682
0.385732
0.390852
0.395947
0.400874
0.405499
0.409605
0.413043
0.41553
0.417061
0.417141
0.415984
0.412512
0.407777
0.398981
0.389887
0.372427
0.359073
0.32528
0.311492
0.241224
0.244597
0.0812333
0.16945
0.225205
0.258928
0.280077
0.297153
0.305102
0.312036
0.315686
0.318965
0.320983
0.322908
0.324305
0.32566
0.326779
0.327868
0.328851
0.329825
0.33077
0.331736
0.332728
0.333778
0.3349
0.336119
0.337455
0.338935
0.340583
0.342425
0.344485
0.346787
0.349355
0.35221
0.355368
0.358841
0.362634
0.36674
0.371143
0.375811
0.380698
0.38574
0.390852
0.395934
0.400845
0.40545
0.409533
0.412945
0.415405
0.416902
0.416947
0.415746
0.412237
0.407446
0.398615
0.389449
0.37197
0.358508
0.324735
0.310766
0.240617
0.243694
0.0807952
0.168711
0.228552
0.25981
0.280441
0.297135
0.30511
0.312025
0.315738
0.319015
0.321049
0.322964
0.324359
0.325707
0.326824
0.327912
0.328896
0.32987
0.330815
0.331781
0.332773
0.333823
0.334944
0.336162
0.337497
0.338976
0.340624
0.342465
0.344524
0.346826
0.349393
0.352248
0.355405
0.358878
0.36267
0.366775
0.371175
0.37584
0.380721
0.385757
0.390858
0.395927
0.400821
0.405405
0.409464
0.412849
0.415282
0.416744
0.416755
0.41551
0.411963
0.407118
0.398255
0.389017
0.371525
0.357955
0.324213
0.310058
0.240051
0.242815
0.0804196
0.167975
0.231818
0.260745
0.280835
0.297138
0.305123
0.312015
0.31579
0.319068
0.32112
0.323025
0.32442
0.32576
0.326876
0.327961
0.328946
0.32992
0.330866
0.331833
0.332825
0.333874
0.334994
0.336212
0.337547
0.339026
0.340673
0.342513
0.344572
0.346873
0.349441
0.352295
0.355453
0.358925
0.362716
0.366819
0.371217
0.375878
0.380753
0.385781
0.390871
0.395926
0.400803
0.405365
0.409399
0.412756
0.41516
0.416587
0.416563
0.415274
0.411691
0.406792
0.397899
0.388592
0.37109
0.357413
0.323712
0.309367
0.239523
0.241959
0.0801043
0.16724
0.235008
0.261728
0.281255
0.297165
0.305142
0.312007
0.315843
0.319124
0.321197
0.323093
0.324488
0.32582
0.326934
0.328017
0.329002
0.329977
0.330924
0.331891
0.332883
0.333932
0.335053
0.336271
0.337605
0.339084
0.340731
0.342571
0.344629
0.346931
0.349498
0.352353
0.35551
0.358982
0.362772
0.366874
0.371269
0.375925
0.380794
0.385813
0.390892
0.395931
0.400789
0.405328
0.409336
0.412664
0.415039
0.416431
0.416372
0.415039
0.41142
0.406468
0.397548
0.388171
0.370666
0.356881
0.323233
0.308693
0.239034
0.241124
0.0798471
0.166503
0.238127
0.262754
0.281701
0.297214
0.30517
0.312003
0.315896
0.319183
0.321279
0.323169
0.324564
0.325888
0.327
0.328079
0.329066
0.330041
0.330989
0.331957
0.33295
0.333999
0.33512
0.336338
0.337673
0.339151
0.340798
0.342638
0.344697
0.346999
0.349566
0.352421
0.355578
0.35905
0.362839
0.366939
0.371331
0.375982
0.380845
0.385854
0.39092
0.395943
0.400781
0.405296
0.409277
0.412575
0.41492
0.416275
0.416181
0.414804
0.41115
0.406146
0.397201
0.387755
0.370252
0.356359
0.322774
0.308036
0.238583
0.24031
0.079646
0.165763
0.241179
0.263819
0.28217
0.297286
0.305206
0.312004
0.315952
0.319246
0.321367
0.323252
0.324649
0.325965
0.327075
0.32815
0.329137
0.330112
0.331062
0.33203
0.333024
0.334074
0.335196
0.336414
0.337749
0.339228
0.340875
0.342715
0.344775
0.347077
0.349646
0.3525
0.355658
0.35913
0.362918
0.367015
0.371404
0.37605
0.380905
0.385903
0.390956
0.395962
0.400779
0.405267
0.40922
0.412487
0.414801
0.416119
0.415989
0.414568
0.41088
0.405824
0.396857
0.387344
0.369848
0.355847
0.322335
0.307395
0.238168
0.239516
0.0794991
0.16502
0.244168
0.264918
0.282662
0.29738
0.305253
0.312011
0.316011
0.319314
0.321461
0.323345
0.324744
0.326052
0.327159
0.32823
0.329217
0.330192
0.331143
0.332113
0.333108
0.334159
0.335281
0.3365
0.337836
0.339316
0.340963
0.342804
0.344864
0.347167
0.349737
0.352592
0.35575
0.359221
0.363008
0.367104
0.371488
0.376128
0.380975
0.385962
0.391
0.395987
0.400781
0.405243
0.409166
0.412401
0.414682
0.415962
0.415797
0.414332
0.410611
0.405504
0.396517
0.386937
0.369453
0.355345
0.321916
0.306769
0.237789
0.238741
0.0794046
0.164272
0.2471
0.266046
0.283174
0.297495
0.305311
0.312026
0.316074
0.319387
0.321563
0.323446
0.32485
0.32615
0.327254
0.328321
0.329306
0.330281
0.331234
0.332205
0.333201
0.334253
0.335377
0.336597
0.337934
0.339414
0.341063
0.342905
0.344966
0.34727
0.34984
0.352697
0.355855
0.359326
0.363112
0.367204
0.371584
0.376218
0.381055
0.38603
0.391053
0.396019
0.40079
0.405223
0.409115
0.412316
0.414564
0.415805
0.415604
0.414094
0.410341
0.405183
0.396179
0.386534
0.369068
0.354852
0.321516
0.30616
0.237446
0.237985
0.0793607
0.163518
0.249977
0.267201
0.283704
0.297632
0.305381
0.312049
0.316143
0.319467
0.321673
0.323558
0.324967
0.32626
0.327361
0.328423
0.329407
0.330381
0.331335
0.332307
0.333305
0.334359
0.335483
0.336705
0.338043
0.339525
0.341175
0.343018
0.34508
0.347386
0.349957
0.352815
0.355973
0.359444
0.363228
0.367318
0.371693
0.37632
0.381147
0.386108
0.391113
0.396059
0.400804
0.405207
0.409067
0.412233
0.414446
0.415647
0.415409
0.413855
0.41007
0.404863
0.395843
0.386136
0.36869
0.354369
0.321136
0.305565
0.237137
0.237247
0.0793657
0.162759
0.252805
0.268379
0.284251
0.297788
0.305461
0.312081
0.316218
0.319554
0.321791
0.32368
0.325096
0.326384
0.327482
0.328538
0.32952
0.330492
0.331447
0.332421
0.333421
0.334476
0.335602
0.336825
0.338166
0.339649
0.3413
0.343144
0.345208
0.347516
0.350089
0.352947
0.356106
0.359577
0.363359
0.367445
0.371815
0.376434
0.38125
0.386196
0.391183
0.396105
0.400823
0.405195
0.409021
0.41215
0.414327
0.415488
0.415213
0.413615
0.409799
0.404543
0.395511
0.385741
0.368322
0.353895
0.320774
0.304986
0.236862
0.236527
0.0794181
0.161993
0.255587
0.269577
0.284814
0.297963
0.305554
0.312123
0.316299
0.31965
0.321918
0.323814
0.325239
0.326521
0.327617
0.328667
0.329646
0.330617
0.331572
0.332547
0.333549
0.334606
0.335734
0.336959
0.338301
0.339786
0.341439
0.343286
0.345351
0.34766
0.350235
0.353094
0.356254
0.359724
0.363504
0.367587
0.37195
0.37656
0.381364
0.386295
0.391261
0.396159
0.400848
0.405187
0.408978
0.412069
0.414208
0.415327
0.415015
0.413372
0.409526
0.404223
0.39518
0.385349
0.367962
0.35343
0.32043
0.304423
0.23662
0.235825
0.0795163
0.161222
0.258328
0.270791
0.285389
0.298156
0.305657
0.312175
0.316389
0.319754
0.322055
0.323961
0.325395
0.326674
0.327767
0.328811
0.329788
0.330756
0.331711
0.332687
0.33369
0.334749
0.33588
0.337107
0.338452
0.339939
0.341593
0.343442
0.34551
0.347821
0.350397
0.353258
0.356418
0.359887
0.363665
0.367744
0.3721
0.3767
0.38149
0.386404
0.391349
0.39622
0.400879
0.405183
0.408936
0.411988
0.414088
0.415165
0.414815
0.413128
0.409252
0.403903
0.394851
0.384961
0.36761
0.352975
0.320105
0.303875
0.236411
0.235141
0.0796589
0.160444
0.261031
0.272019
0.285976
0.298366
0.305772
0.312238
0.316486
0.319867
0.322202
0.32412
0.325566
0.326844
0.327935
0.328973
0.329946
0.330911
0.331865
0.332841
0.333847
0.334908
0.336041
0.33727
0.338617
0.340107
0.341764
0.343615
0.345685
0.347998
0.350576
0.353438
0.356599
0.360067
0.363842
0.367916
0.372265
0.376854
0.38163
0.386524
0.391446
0.396289
0.400915
0.405182
0.408897
0.411907
0.413968
0.415001
0.414612
0.41288
0.408977
0.403581
0.394524
0.384577
0.367267
0.352529
0.319798
0.303343
0.236234
0.234475
0.0798442
0.159661
0.263699
0.273257
0.286574
0.298591
0.305897
0.31231
0.316591
0.319989
0.32236
0.324293
0.325753
0.32703
0.328121
0.329153
0.330122
0.331083
0.332037
0.333012
0.33402
0.335083
0.336218
0.33745
0.3388
0.340292
0.341952
0.343805
0.345878
0.348194
0.350774
0.353637
0.356798
0.360264
0.364037
0.368104
0.372445
0.377022
0.381782
0.386656
0.391552
0.396366
0.400957
0.405186
0.408859
0.411826
0.413845
0.414834
0.414406
0.41263
0.408699
0.403259
0.394198
0.384196
0.366931
0.352093
0.319509
0.302827
0.236089
0.233826
0.080071
0.158872
0.266338
0.274504
0.28718
0.298831
0.306032
0.312393
0.316704
0.320121
0.322528
0.324479
0.325955
0.327235
0.328325
0.329352
0.330317
0.331274
0.332226
0.333201
0.33421
0.335275
0.336413
0.337648
0.339001
0.340496
0.342158
0.344014
0.34609
0.348408
0.35099
0.353854
0.357015
0.36048
0.364249
0.36831
0.372641
0.377205
0.381947
0.386799
0.391669
0.39645
0.401005
0.405193
0.408823
0.411745
0.413722
0.414664
0.414197
0.412377
0.408418
0.402936
0.393874
0.383819
0.366603
0.351667
0.319238
0.302328
0.235975
0.233195
0.0803378
0.158079
0.26895
0.275756
0.287794
0.299084
0.306177
0.312485
0.316826
0.320262
0.322708
0.324679
0.326174
0.327458
0.328551
0.329573
0.330534
0.331486
0.332436
0.33341
0.334419
0.335486
0.336627
0.337864
0.339221
0.340719
0.342384
0.344243
0.346322
0.348642
0.351226
0.354092
0.357252
0.360715
0.364479
0.368534
0.372854
0.377403
0.382126
0.386954
0.391795
0.396542
0.401058
0.405203
0.408788
0.411664
0.413596
0.414491
0.413985
0.41212
0.408136
0.402611
0.393551
0.383445
0.366284
0.35125
0.318984
0.301844
0.235892
0.232583
0.0806431
0.157282
0.271538
0.277011
0.288413
0.29935
0.306331
0.312587
0.316957
0.320414
0.322898
0.324892
0.326408
0.3277
0.328796
0.329816
0.330773
0.33172
0.332667
0.33364
0.334649
0.335718
0.336861
0.338102
0.339461
0.340963
0.342631
0.344494
0.346575
0.348898
0.351484
0.35435
0.35751
0.360971
0.36473
0.368776
0.373084
0.377617
0.38232
0.387122
0.391932
0.396642
0.401117
0.405216
0.408755
0.411582
0.413467
0.414315
0.413768
0.41186
0.40785
0.402285
0.393228
0.383075
0.365972
0.350844
0.318748
0.301378
0.235839
0.231989
0.0809855
0.156482
0.274107
0.278267
0.289037
0.299626
0.306494
0.312698
0.317095
0.320574
0.323098
0.325119
0.326659
0.327962
0.329064
0.330081
0.331035
0.331979
0.332922
0.333893
0.334902
0.335971
0.337117
0.338361
0.339724
0.341229
0.342901
0.344767
0.346851
0.349177
0.351764
0.354631
0.35779
0.361248
0.365001
0.369038
0.373333
0.377848
0.382528
0.387303
0.392079
0.39675
0.401182
0.405233
0.408722
0.411498
0.413336
0.414135
0.413547
0.411595
0.407561
0.401958
0.392907
0.382708
0.365667
0.350447
0.318529
0.300928
0.235816
0.231414
0.0813634
0.155681
0.27666
0.279522
0.289663
0.299913
0.306664
0.312818
0.317242
0.320744
0.323309
0.325358
0.326926
0.328242
0.329353
0.330371
0.331323
0.332262
0.333202
0.33417
0.335179
0.336249
0.337397
0.338643
0.34001
0.341519
0.343194
0.345064
0.347151
0.349479
0.352068
0.354936
0.358093
0.361547
0.365293
0.36932
0.373601
0.378096
0.382752
0.387496
0.392236
0.396866
0.401251
0.405253
0.40869
0.411414
0.413202
0.413951
0.413321
0.411326
0.407268
0.401628
0.392586
0.382345
0.36537
0.350062
0.318327
0.300496
0.235821
0.230858
0.0817754
0.154879
0.2792
0.280772
0.290291
0.300209
0.306842
0.312947
0.317396
0.320923
0.32353
0.325611
0.327207
0.328541
0.329663
0.330684
0.331636
0.332572
0.333509
0.334474
0.335482
0.336552
0.337702
0.338951
0.340321
0.341834
0.343513
0.345386
0.347477
0.349807
0.352398
0.355265
0.358421
0.36187
0.365608
0.369623
0.373888
0.378362
0.382991
0.387702
0.392404
0.39699
0.401327
0.405275
0.408658
0.411327
0.413064
0.413762
0.41309
0.411052
0.406971
0.401297
0.392265
0.381984
0.36508
0.349687
0.318142
0.300082
0.235854
0.230323
0.0822196
0.154079
0.28173
0.282017
0.29092
0.300513
0.307027
0.313084
0.317558
0.32111
0.32376
0.325875
0.327504
0.328858
0.329995
0.331021
0.331975
0.332909
0.333843
0.334806
0.335812
0.336883
0.338034
0.339286
0.340659
0.342176
0.343859
0.345736
0.347829
0.350162
0.352754
0.355621
0.358774
0.362217
0.365947
0.369949
0.374195
0.378647
0.383246
0.387923
0.392583
0.397122
0.401407
0.405299
0.408626
0.411238
0.412922
0.413567
0.412854
0.410772
0.40667
0.400963
0.391945
0.381627
0.364797
0.349322
0.317973
0.299686
0.235915
0.229808
0.0826943
0.153281
0.284255
0.283252
0.291547
0.300825
0.307219
0.313229
0.317728
0.321307
0.324
0.32615
0.327814
0.329192
0.330346
0.331382
0.33234
0.333274
0.334206
0.335167
0.336172
0.337242
0.338394
0.339649
0.341025
0.342546
0.344233
0.346114
0.34821
0.350545
0.353138
0.356004
0.359153
0.36259
0.36631
0.370297
0.374524
0.37895
0.383518
0.388157
0.392773
0.397262
0.401492
0.405326
0.408594
0.411147
0.412775
0.413368
0.412611
0.410487
0.406365
0.400626
0.391624
0.381274
0.364521
0.348968
0.31782
0.299309
0.236001
0.229314
0.0831977
0.152487
0.286776
0.284477
0.292172
0.301143
0.307416
0.313382
0.317905
0.321511
0.324248
0.326437
0.328137
0.329542
0.330718
0.331766
0.332731
0.333666
0.334599
0.335558
0.336562
0.337632
0.338785
0.340042
0.341422
0.342946
0.344638
0.346521
0.348621
0.350958
0.353551
0.356415
0.35956
0.36299
0.366698
0.370669
0.374874
0.379273
0.383807
0.388405
0.392974
0.39741
0.401583
0.405356
0.408561
0.411052
0.412624
0.413162
0.412362
0.410197
0.406055
0.400287
0.391302
0.380923
0.364251
0.348626
0.317682
0.29895
0.236113
0.228843
0.0837277
0.151701
0.289299
0.285689
0.292793
0.301466
0.307618
0.313542
0.31809
0.321723
0.324505
0.326733
0.328473
0.329908
0.331107
0.332171
0.333146
0.334087
0.335021
0.33598
0.336984
0.338054
0.339208
0.340466
0.341849
0.343377
0.345073
0.34696
0.349063
0.351401
0.353994
0.356856
0.359997
0.363417
0.367112
0.371065
0.375247
0.379615
0.384113
0.388667
0.393187
0.397566
0.401678
0.405387
0.408528
0.410955
0.412469
0.412951
0.412107
0.4099
0.405739
0.399944
0.39098
0.380575
0.363988
0.348294
0.317559
0.298611
0.236249
0.228394
0.084282
0.150922
0.291825
0.286886
0.29341
0.301794
0.307826
0.313709
0.318281
0.321943
0.32477
0.327039
0.32882
0.330287
0.331514
0.332597
0.333585
0.334534
0.335472
0.336433
0.337438
0.338508
0.339664
0.340924
0.34231
0.343842
0.345541
0.347432
0.349537
0.351877
0.35447
0.357329
0.360463
0.363874
0.367554
0.371487
0.375642
0.379978
0.384436
0.388944
0.393411
0.397731
0.401778
0.40542
0.408494
0.410855
0.412308
0.412734
0.411846
0.409597
0.405419
0.399599
0.390657
0.380231
0.363729
0.347973
0.317449
0.298291
0.236406
0.227969
0.0848581
0.150155
0.294358
0.288064
0.29402
0.302125
0.308037
0.313882
0.318479
0.322171
0.325043
0.327355
0.329177
0.33068
0.331937
0.333042
0.334047
0.335006
0.335952
0.336916
0.337923
0.338996
0.340153
0.341416
0.342804
0.34434
0.346043
0.347937
0.350045
0.352386
0.354977
0.357833
0.36096
0.364359
0.368023
0.371934
0.376061
0.380362
0.384778
0.389236
0.393646
0.397903
0.401884
0.405455
0.408459
0.410752
0.412143
0.412511
0.411578
0.409289
0.405093
0.399252
0.390333
0.379889
0.363477
0.347664
0.317352
0.29799
0.236585
0.227568
0.0854533
0.149401
0.296903
0.289222
0.294622
0.302459
0.308252
0.314062
0.318684
0.322406
0.325324
0.327679
0.329545
0.331085
0.332374
0.333504
0.334529
0.335502
0.336458
0.337429
0.33844
0.339516
0.340676
0.341942
0.343334
0.344872
0.34658
0.348477
0.350587
0.352929
0.355519
0.358369
0.361488