/*--------------------------------*- C++ -*----------------------------------*\
| =========                 |                                                 |
| \\      /  F ield         | OpenFOAM: The Open Source CFD Toolbox           |
|  \\    /   O peration     | Version:  2.4.0                                 |
|   \\  /    A nd           | Web:      www.OpenFOAM.org                      |
|    \\/     M anipulation  |                                                 |
\*---------------------------------------------------------------------------*/
FoamFile
{
    version     2.0;
    format      ascii;
    class       surfaceScalarField;
    location    "3.14";
    object      phi;
}
// * * * * * * * * * * * * * * * * * * * * * * * * * * * * * * * * * * * * * //

dimensions      [0 3 -1 0 0 0 0];

internalField   nonuniform List<scalar> 
11840
(
7.83218e-07
9.21678e-06
-9.3402e-07
1.71724e-06
6.55317e-07
-1.58934e-06
1.38816e-07
5.16501e-07
-2.06057e-07
3.44873e-07
-2.6139e-07
5.53328e-08
-2.77407e-07
1.60176e-08
-2.97511e-07
2.01035e-08
-4.2154e-07
1.24029e-07
-7.02763e-07
2.81224e-07
-1.24794e-06
5.45181e-07
-1.8839e-06
6.3596e-07
-2.46769e-06
5.83784e-07
-2.68387e-06
2.16177e-07
-2.24396e-06
-4.3991e-07
-8.51535e-07
-1.39242e-06
1.50657e-06
-2.35811e-06
4.27422e-06
-2.76764e-06
5.30622e-06
-1.032e-06
3.79748e-06
1.50874e-06
2.29149e-06
1.50599e-06
1.65791e-06
6.33582e-07
-9.47367e-07
2.60528e-06
-5.26664e-06
4.31927e-06
-9.04794e-06
3.7813e-06
-1.1506e-05
2.45803e-06
-1.30313e-05
1.52534e-06
-1.39706e-05
9.39331e-07
-1.44702e-05
4.99589e-07
-1.45686e-05
9.83522e-08
-1.43229e-05
-2.45688e-07
-1.37813e-05
-5.41571e-07
-1.2947e-05
-8.343e-07
-1.18183e-05
-1.1287e-06
-1.03916e-05
-1.42676e-06
-8.66337e-06
-1.7282e-06
-6.63683e-06
-2.02654e-06
-4.33228e-06
-2.30455e-06
-1.79822e-06
-2.53406e-06
8.71357e-07
-2.66958e-06
3.54881e-06
-2.67745e-06
6.08008e-06
-2.53127e-06
8.31303e-06
-2.23295e-06
1.01151e-05
-1.80208e-06
1.13951e-05
-1.28003e-06
1.21051e-05
-7.09965e-07
1.21581e-05
-5.30208e-08
1.15584e-05
5.99697e-07
1.05227e-05
1.03577e-06
9.31588e-06
1.20677e-06
8.17253e-06
1.14335e-06
7.25383e-06
9.18699e-07
6.58186e-06
6.71977e-07
6.18623e-06
3.95628e-07
5.92514e-06
2.61083e-07
5.95856e-06
-3.34124e-08
5.85073e-06
1.07823e-07
6.26191e-06
-4.11172e-07
6.0231e-06
2.38808e-07
-1.16402e-06
2.45148e-06
1.67653e-05
-5.04925e-07
4.67364e-06
3.60702e-07
-2.45496e-06
-9.3855e-08
9.71058e-07
-3.02331e-07
5.53349e-07
-4.02833e-07
1.55834e-07
-4.06903e-07
2.00875e-08
-4.53784e-07
6.69852e-08
-6.29667e-07
2.99911e-07
-1.00151e-06
6.53064e-07
-1.5995e-06
1.14318e-06
-2.24008e-06
1.27654e-06
-2.74553e-06
1.08924e-06
-2.88345e-06
3.54092e-07
-2.41466e-06
-9.08696e-07
-1.06641e-06
-2.74068e-06
1.22028e-06
-4.64479e-06
3.88607e-06
-5.43344e-06
5.46466e-06
-2.61059e-06
4.75833e-06
2.21506e-06
3.05677e-06
3.20755e-06
1.07608e-06
2.61427e-06
-3.10597e-06
6.78732e-06
-8.06233e-06
9.27563e-06
-1.12866e-05
7.00562e-06
-1.30385e-05
4.20988e-06
-1.408e-05
2.56688e-06
-1.46811e-05
1.54037e-06
-1.49349e-05
7.53358e-07
-1.49006e-05
6.41343e-08
-1.45851e-05
-5.6125e-07
-1.39739e-05
-1.15278e-06
-1.3065e-05
-1.74318e-06
-1.18571e-05
-2.33657e-06
-1.03471e-05
-2.93674e-06
-8.53265e-06
-3.54267e-06
-6.41917e-06
-4.14002e-06
-4.03153e-06
-4.69219e-06
-1.42343e-06
-5.14215e-06
1.31523e-06
-5.40824e-06
4.06225e-06
-5.42447e-06
6.67148e-06
-5.1405e-06
8.99275e-06
-4.55422e-06
1.0895e-05
-3.7043e-06
1.22841e-05
-2.66921e-06
1.31141e-05
-1.53992e-06
1.34245e-05
-3.63383e-07
1.32582e-05
7.65924e-07
1.2621e-05
1.67302e-06
1.16154e-05
2.21234e-06
1.04289e-05
2.32983e-06
9.2882e-06
2.05943e-06
8.34426e-06
1.61592e-06
7.69981e-06
1.04009e-06
7.28821e-06
6.72677e-07
7.1918e-06
6.30039e-08
7.10294e-06
1.96678e-07
7.46022e-06
-7.68452e-07
7.38145e-06
3.1758e-07
-2.18286e-06
3.60702e-06
2.31583e-05
1.8073e-08
8.26259e-06
5.1605e-08
-2.4885e-06
-3.10183e-07
1.33285e-06
-3.55273e-07
5.98439e-07
-4.69785e-07
2.70346e-07
-4.73634e-07
2.39367e-08
-5.38053e-07
1.31404e-07
-7.24591e-07
4.86448e-07
-1.11147e-06
1.03994e-06
-1.68646e-06
1.71817e-06
-2.30281e-06
1.89289e-06
-2.79287e-06
1.5793e-06
-2.94557e-06
5.06793e-07
-2.51174e-06
-1.34253e-06
-1.23585e-06
-4.01657e-06
9.39494e-07
-6.82013e-06
3.48501e-06
-7.97896e-06
5.12058e-06
-4.24616e-06
4.74195e-06
2.5937e-06
3.08786e-06
4.86164e-06
3.38096e-07
5.36403e-06
-4.34095e-06
1.14664e-05
-8.78391e-06
1.37186e-05
-1.13511e-05
9.57277e-06
-1.28552e-05
5.71404e-06
-1.38357e-05
3.54736e-06
-1.44282e-05
2.13292e-06
-1.4693e-05
1.01807e-06
-1.46607e-05
3.18339e-08
-1.43359e-05
-8.85997e-07
-1.37131e-05
-1.7756e-06
-1.27937e-05
-2.6626e-06
-1.15759e-05
-3.55429e-06
-1.00565e-05
-4.45619e-06
-8.23278e-06
-5.36639e-06
-6.11044e-06
-6.26236e-06
-3.71491e-06
-7.08772e-06
-1.10018e-06
-7.75688e-06
1.64505e-06
-8.15347e-06
4.39826e-06
-8.17767e-06
7.0132e-06
-7.75545e-06
9.34125e-06
-6.88226e-06
1.12534e-05
-5.61642e-06
1.26575e-05
-4.07337e-06
1.35105e-05
-2.39292e-06
1.38373e-05
-6.90153e-07
1.36959e-05
9.07352e-07
1.31429e-05
2.22603e-06
1.22611e-05
3.09408e-06
1.11793e-05
3.41165e-06
1.00759e-05
3.16284e-06
9.11325e-06
2.57857e-06
8.41456e-06
1.73878e-06
7.96817e-06
1.11907e-06
7.81755e-06
2.13624e-07
7.73665e-06
2.77577e-07
8.01926e-06
-1.05106e-06
8.00751e-06
3.29325e-07
-3.05013e-06
4.5284e-06
2.86299e-05
7.55697e-07
1.20353e-05
-2.41302e-07
-1.4915e-06
-4.62714e-07
1.55426e-06
-3.88551e-07
5.24276e-07
-5.11916e-07
3.93711e-07
-5.20536e-07
3.25573e-08
-5.96565e-07
2.07433e-07
-7.83024e-07
6.72907e-07
-1.16407e-06
1.42099e-06
-1.71259e-06
2.26669e-06
-2.31058e-06
2.49088e-06
-2.80077e-06
2.06949e-06
-2.98048e-06
6.86499e-07
-2.5984e-06
-1.7246e-06
-1.4081e-06
-5.20687e-06
6.51353e-07
-8.87959e-06
3.09681e-06
-1.04244e-05
4.73494e-06
-5.88428e-06
4.52687e-06
2.80176e-06
2.88448e-06
6.50403e-06
-3.34046e-07
8.58256e-06
-5.06347e-06
1.61958e-05
-8.92571e-06
1.75808e-05
-1.11107e-05
1.17578e-05
-1.25321e-05
7.13542e-06
-1.34978e-05
4.513e-06
-1.4092e-05
2.7272e-06
-1.43618e-05
1.28783e-06
-1.43307e-05
6.80019e-10
-1.40032e-05
-1.21345e-06
-1.33794e-05
-2.39939e-06
-1.24604e-05
-3.58164e-06
-1.12441e-05
-4.77057e-06
-9.72686e-06
-5.97341e-06
-7.90585e-06
-7.1874e-06
-5.78644e-06
-8.38177e-06
-3.39391e-06
-9.48025e-06
-7.82114e-07
-1.03687e-05
1.95973e-06
-1.08953e-05
4.70712e-06
-1.09251e-05
7.31385e-06
-1.03622e-05
9.63198e-06
-9.2004e-06
1.15337e-05
-7.51812e-06
1.29288e-05
-5.46849e-06
1.37768e-05
-3.2409e-06
1.40974e-05
-1.01077e-06
1.39524e-05
1.05233e-06
1.34191e-05
2.7593e-06
1.25894e-05
3.92383e-06
1.15767e-05
4.42431e-06
1.05262e-05
4.21338e-06
9.58327e-06
3.52149e-06
8.86694e-06
2.4551e-06
8.39471e-06
1.59131e-06
8.19169e-06
4.16643e-07
8.10126e-06
3.68002e-07
8.29801e-06
-1.24781e-06
8.33355e-06
2.93782e-07
-3.72275e-06
5.30437e-06
3.33255e-05
1.48903e-06
1.58506e-05
-2.63365e-07
2.60902e-07
-5.51765e-07
1.84266e-06
-4.14802e-07
3.87312e-07
-5.42811e-07
5.2172e-07
-5.57858e-07
4.76039e-08
-6.40831e-07
2.90407e-07
-8.21977e-07
8.54053e-07
-1.18858e-06
1.78759e-06
-1.71157e-06
2.78969e-06
-2.29499e-06
3.07429e-06
-2.79121e-06
2.56571e-06
-3.00373e-06
8.99022e-07
-2.68309e-06
-2.04524e-06
-1.58805e-06
-6.30191e-06
3.49651e-07
-1.08173e-05
2.70074e-06
-1.27755e-05
4.33359e-06
-7.51713e-06
4.23566e-06
2.89969e-06
2.57592e-06
8.16377e-06
-9.16162e-07
1.20746e-05
-5.49125e-06
2.07709e-05
-8.85146e-06
2.0941e-05
-1.08047e-05
1.37111e-05
-1.21785e-05
8.50921e-06
-1.31298e-05
5.46433e-06
-1.37212e-05
3.31861e-06
-1.39911e-05
1.55773e-06
-1.39594e-05
-3.10286e-08
-1.36316e-05
-1.54133e-06
-1.30094e-05
-3.02157e-06
-1.20936e-05
-4.49746e-06
-1.08818e-05
-5.9823e-06
-9.37021e-06
-7.48503e-06
-7.55549e-06
-9.00212e-06
-5.4426e-06
-1.04947e-05
-3.05641e-06
-1.18664e-05
-4.50691e-07
-1.29744e-05
2.28387e-06
-1.36299e-05
5.02094e-06
-1.36621e-05
7.61427e-06
-1.29555e-05
9.91619e-06
-1.15023e-05
1.17996e-05
-9.40154e-06
1.3176e-05
-6.84493e-06
1.40072e-05
-4.0721e-06
1.43118e-05
-1.31529e-06
1.41531e-05
1.21099e-06
1.36185e-05
3.29394e-06
1.28079e-05
4.7344e-06
1.18325e-05
5.39973e-06
1.08197e-05
5.22611e-06
9.89888e-06
4.44234e-06
9.17762e-06
3.17636e-06
8.68809e-06
2.08084e-06
8.44436e-06
6.60375e-07
8.34108e-06
4.71278e-07
8.46374e-06
-1.37047e-06
8.53828e-06
2.19248e-07
-4.22617e-06
5.97513e-06
3.73504e-05
2.23817e-06
1.95876e-05
-6.35522e-08
2.56263e-06
-5.82241e-07
2.36135e-06
-4.38261e-07
2.43332e-07
-5.66361e-07
6.4982e-07
-5.88154e-07
6.93973e-08
-6.74754e-07
3.77007e-07
-8.4711e-07
1.02641e-06
-1.19494e-06
2.13541e-06
-1.69325e-06
3.288e-06
-2.26413e-06
3.64517e-06
-2.76927e-06
3.07084e-06
-3.01842e-06
1.14818e-06
-2.76605e-06
-2.29762e-06
-1.77397e-06
-7.29399e-06
3.55529e-08
-1.26268e-05
2.29064e-06
-1.50306e-05
3.9171e-06
-9.14359e-06
3.90259e-06
2.9142e-06
2.21623e-06
9.85013e-06
-1.41021e-06
1.57011e-05
-5.73192e-06
2.50926e-05
-8.67521e-06
2.38843e-05
-1.04723e-05
1.55082e-05
-1.18057e-05
9.84257e-06
-1.27397e-05
6.39835e-06
-1.33243e-05
3.90323e-06
-1.35913e-05
1.82466e-06
-1.35579e-05
-6.44055e-08
-1.323e-05
-1.86918e-06
-1.26102e-05
-3.64145e-06
-1.16984e-05
-5.40918e-06
-1.04924e-05
-7.18835e-06
-8.98776e-06
-8.98965e-06
-7.18092e-06
-1.0809e-05
-5.0762e-06
-1.25994e-05
-2.6979e-06
-1.42447e-05
-9.96938e-08
-1.55726e-05
2.62504e-06
-1.63546e-05
5.34935e-06
-1.63864e-05
7.92651e-06
-1.55327e-05
1.02087e-05
-1.37845e-05
1.20693e-05
-1.12622e-05
1.34215e-05
-8.19708e-06
1.42291e-05
-4.87968e-06
1.45111e-05
-1.59731e-06
1.43325e-05
1.3896e-06
1.37862e-05
3.84026e-06
1.29782e-05
5.54234e-06
1.20205e-05
6.35742e-06
1.10312e-05
6.21541e-06
1.01272e-05
5.34635e-06
9.4049e-06
3.89869e-06
8.90319e-06
2.58256e-06
8.6287e-06
9.34865e-07
8.5126e-06
5.87376e-07
8.57899e-06
-1.43686e-06
8.67856e-06
1.19685e-07
-4.60622e-06
6.56029e-06
4.07901e-05
2.97185e-06
2.3176e-05
2.31024e-07
5.30346e-06
-5.35726e-07
3.1281e-06
-4.5872e-07
1.66327e-07
-5.83759e-07
7.74859e-07
-6.12088e-07
9.7726e-08
-7.00001e-07
4.6492e-07
-8.61049e-07
1.18746e-06
-1.1876e-06
2.46197e-06
-1.6616e-06
3.762e-06
-2.22083e-06
4.20439e-06
-2.73616e-06
3.58618e-06
-3.02444e-06
1.43646e-06
-2.84545e-06
-2.47661e-06
-1.96275e-06
-8.17669e-06
-2.88974e-07
-1.43006e-05
1.8658e-06
-1.71854e-05
3.4856e-06
-1.07634e-05
3.54257e-06
2.85722e-06
1.83425e-06
1.15584e-05
-1.82507e-06
1.93604e-05
-5.84512e-06
2.91126e-05
-8.44265e-06
2.64819e-05
-1.0123e-05
1.71886e-05
-1.14162e-05
1.11357e-05
-1.23298e-05
7.31197e-06
-1.29045e-05
4.47789e-06
-1.31661e-05
2.08631e-06
-1.31301e-05
-1.00473e-07
-1.2802e-05
-2.19722e-06
-1.21844e-05
-4.25909e-06
-1.12769e-05
-6.31662e-06
-1.0077e-05
-8.38832e-06
-8.57997e-06
-1.04866e-05
-6.78182e-06
-1.26071e-05
-4.6862e-06
-1.4695e-05
-2.31667e-06
-1.66143e-05
2.7223e-07
-1.81615e-05
2.98618e-06
-1.90686e-05
5.69619e-06
-1.90965e-05
8.25532e-06
-1.80918e-05
1.05154e-05
-1.60446e-05
1.23501e-05
-1.30969e-05
1.36739e-05
-9.52092e-06
1.4453e-05
-5.65876e-06
1.47077e-05
-1.85198e-06
1.45044e-05
1.59289e-06
1.394e-05
4.40468e-06
1.3125e-05
6.35727e-06
1.21731e-05
7.30941e-06
1.11967e-05
7.19176e-06
1.03038e-05
6.23923e-06
9.58099e-06
4.62154e-06
9.06995e-06
3.0936e-06
8.77208e-06
1.23274e-06
8.64408e-06
7.15374e-07
8.66935e-06
-1.46213e-06
8.7816e-06
7.43445e-09
-4.9003e-06
7.07126e-06
4.37188e-05
3.68426e-06
2.6563e-05
6.54528e-07
8.33319e-06
-4.06694e-07
4.18932e-06
-4.71456e-07
2.31089e-07
-5.95117e-07
8.98519e-07
-6.29729e-07
1.32338e-07
-7.17407e-07
5.52597e-07
-8.65273e-07
1.33532e-06
-1.16892e-06
2.76562e-06
-1.61853e-06
4.21161e-06
-2.16606e-06
4.75193e-06
-2.69177e-06
4.11188e-06
-3.02047e-06
1.76517e-06
-2.91854e-06
-2.57854e-06
-2.15077e-06
-8.94446e-06
-6.18705e-07
-1.58327e-05
1.42829e-06
-1.92324e-05
3.03995e-06
-1.2375e-05
3.16415e-06
2.73302e-06
1.44694e-06
1.32757e-05
-2.16898e-06
2.29763e-05
-5.86704e-06
3.28107e-05
-8.17498e-06
2.87898e-05
-9.75988e-06
1.87735e-05
-1.10111e-05
1.23869e-05
-1.19015e-05
8.20237e-06
-1.24635e-05
5.03992e-06
-1.2718e-05
2.3408e-06
-1.26783e-05
-1.40237e-07
-1.23495e-05
-2.52599e-06
-1.17338e-05
-4.87482e-06
-1.08304e-05
-7.21994e-06
-9.63661e-06
-9.58214e-06
-8.14754e-06
-1.19757e-05
-6.35856e-06
-1.43961e-05
-4.27256e-06
-1.6781e-05
-1.91238e-06
-1.89744e-05
6.66618e-07
-2.07405e-05
3.36831e-06
-2.17703e-05
6.0629e-06
-2.1791e-05
8.60263e-06
-2.06315e-05
1.08387e-05
-1.82806e-05
1.26449e-05
-1.49032e-05
1.39373e-05
-1.08132e-05
1.4684e-05
-6.40546e-06
1.49073e-05
-2.07527e-06
1.46754e-05
1.82479e-06
1.40882e-05
4.99187e-06
1.32599e-05
7.18557e-06
1.23057e-05
8.26361e-06
1.13348e-05
8.16259e-06
1.04483e-05
7.12577e-06
9.72439e-06
5.34544e-06
9.20566e-06
3.61233e-06
8.8896e-06
1.5488e-06
8.75078e-06
8.54194e-07
8.74575e-06
-1.4571e-06
8.86248e-06
-1.09297e-07
-5.13323e-06
7.51665e-06
4.62022e-05
4.3691e-06
2.97106e-05
1.18052e-06
1.15218e-05
-2.08424e-07
5.57827e-06
-4.66973e-07
4.89638e-07
-5.99772e-07
1.03132e-06
-6.40904e-07
1.7347e-07
-7.27437e-07
6.3913e-07
-8.60734e-07
1.46862e-06
-1.14026e-06
3.04514e-06
-1.56498e-06
4.63633e-06
-2.10012e-06
5.28707e-06
-2.63542e-06
4.64718e-06
-3.00471e-06
2.13445e-06
-2.98208e-06
-2.60117e-06
-2.33381e-06
-9.59272e-06
-9.48681e-07
-1.72178e-05
9.81373e-07
-2.11624e-05
2.58171e-06
-1.39754e-05
2.7733e-06
2.54143e-06
1.06486e-06
1.49841e-05
-2.44965e-06
2.64908e-05
-5.82095e-06
3.6182e-05
-7.88296e-06
3.08518e-05
-9.38406e-06
2.02746e-05
-1.05912e-05
1.35941e-05
-1.14559e-05
9.06705e-06
-1.2003e-05
5.58707e-06
-1.22487e-05
2.58651e-06
-1.22043e-05
-1.84673e-07
-1.18742e-05
-2.85611e-06
-1.12599e-05
-5.48911e-06
-1.03604e-05
-8.11943e-06
-9.17263e-06
-1.07699e-05
-7.69155e-06
-1.34568e-05
-5.91197e-06
-1.61757e-05
-3.8359e-06
-1.88571e-05
-1.48546e-06
-2.13249e-05
1.08291e-06
-2.33089e-05
3.77142e-06
-2.44588e-05
6.44971e-06
-2.44693e-05
8.96894e-06
-2.31508e-05
1.11794e-05
-2.04911e-05
1.29551e-05
-1.66789e-05
1.42132e-05
-1.20713e-05
1.49243e-05
-7.11653e-06
1.51127e-05
-2.26372e-06
1.48488e-05
2.08873e-06
1.4235e-05
5.60559e-06
1.33887e-05
8.0319e-06
1.24267e-05
9.22566e-06
1.14559e-05
9.13335e-06
1.05719e-05
8.00973e-06
9.84618e-06
6.0712e-06
9.32071e-06
4.1378e-06
8.9901e-06
1.8794e-06
8.84148e-06
1.00282e-06
8.81357e-06
-1.42919e-06
8.9297e-06
-2.25429e-07
-5.32086e-06
7.90414e-06
4.8298e-05
5.02047e-06
3.25942e-05
1.77246e-06
1.47698e-05
5.56673e-08
7.29506e-06
-4.35383e-07
9.80688e-07
-5.96166e-07
1.1921e-06
-6.45261e-07
2.22565e-07
-7.30359e-07
7.24229e-07
-8.48103e-07
1.58636e-06
-1.10249e-06
3.29953e-06
-1.50149e-06
5.03533e-06
-2.02293e-06
5.8085e-06
-2.56625e-06
5.19051e-06
-2.97513e-06
2.54334e-06
-3.03264e-06
-2.54366e-06
-2.50723e-06
-1.01181e-05
-1.27339e-06
-1.84516e-05
5.28983e-07
-2.29648e-05
2.11327e-06
-1.55597e-05
2.37474e-06
2.27996e-06
6.94979e-07
1.66639e-05
-2.67381e-06
2.98596e-05
-5.72245e-06
3.92306e-05
-7.57244e-06
3.27018e-05
-8.99615e-06
2.16983e-05
-1.01571e-05
1.47551e-05
-1.09939e-05
9.90387e-06
-1.15243e-05
6.11739e-06
-1.17598e-05
2.82206e-06
-1.17098e-05
-2.34688e-07
-1.13777e-05
-3.18821e-06
-1.07644e-05
-6.10244e-06
-9.86838e-06
-9.01542e-06
-8.68647e-06
-1.19518e-05
-7.21335e-06
-1.49299e-05
-5.44325e-06
-1.79458e-05
-3.37727e-06
-2.0923e-05
-1.03686e-06
-2.36653e-05
1.52024e-06
-2.5866e-05
4.19483e-06
-2.71334e-05
6.85609e-06
-2.71306e-05
9.35387e-06
-2.56486e-05
1.15374e-05
-2.26746e-05
1.32807e-05
-1.84222e-05
1.45022e-05
-1.32928e-05
1.51749e-05
-7.78916e-06
1.53255e-05
-2.41431e-06
1.50265e-05
2.38772e-06
1.43831e-05
6.24901e-06
1.3515e-05
8.89994e-06
1.25409e-05
1.01998e-05
1.15661e-05
1.01081e-05
1.06817e-05
8.89412e-06
9.95322e-06
6.79967e-06
9.42158e-06
4.66944e-06
9.079e-06
2.22198e-06
8.92144e-06
1.16038e-06
8.87572e-06
-1.38347e-06
8.98813e-06
-3.37833e-07
-5.4734e-06
8.24071e-06
5.00573e-05
5.63378e-06
3.52012e-05
2.40895e-06
1.79946e-05
4.31946e-07
9.27206e-06
-3.66142e-07
1.77878e-06
-5.81408e-07
1.40737e-06
-6.4221e-07
2.83367e-07
-7.26294e-07
8.08313e-07
-8.27889e-07
1.68796e-06
-1.05624e-06
3.52788e-06
-1.42839e-06
5.40748e-06
-1.93433e-06
6.31445e-06
-2.48334e-06
5.73951e-06
-2.92975e-06
2.98975e-06
-3.0668e-06
-2.40661e-06
-2.66619e-06
-1.05187e-05
-1.58709e-06
-1.95307e-05
7.29124e-08
-2.46248e-05
1.6381e-06
-1.71249e-05
1.97241e-06
1.94566e-06
3.42725e-07
1.82936e-05
-2.847e-06
3.30494e-05
-5.58233e-06
4.1966e-05
-7.24674e-06
3.43662e-05
-8.59655e-06
2.30481e-05
-9.70959e-06
1.58681e-05
-1.05167e-05
1.0711e-05
-1.10286e-05
6.62925e-06
-1.12528e-05
3.04626e-06
-1.11964e-05
-2.91099e-07
-1.08617e-05
-3.52289e-06
-1.02489e-05
-6.71527e-06
-9.35605e-06
-9.90825e-06
-8.17976e-06
-1.31281e-05
-6.71449e-06
-1.63952e-05
-4.95386e-06
-1.97064e-05
-2.898e-06
-2.29789e-05
-5.6787e-07
-2.59954e-05
1.97736e-06
-2.84112e-05
4.6374e-06
-2.97934e-05
7.281e-06
-2.97742e-05
9.75648e-06
-2.8124e-05
1.19119e-05
-2.48301e-05
1.36212e-05
-2.01315e-05
1.48041e-05
-1.44757e-05
1.54359e-05
-8.42096e-06
1.5546e-05
-2.5244e-06
1.52093e-05
2.7244e-06
1.45335e-05
6.92484e-06
1.36408e-05
9.79267e-06
1.26512e-05
1.11894e-05
1.16691e-05
1.10902e-05
1.07819e-05
9.78132e-06
1.00499e-05
7.53166e-06
9.51246e-06
5.2069e-06
9.15974e-06
2.57469e-06
8.994e-06
1.32612e-06
8.93394e-06
-1.32341e-06
9.04075e-06
-4.44643e-07
-5.59759e-06
8.53255e-06
5.15248e-05
6.20574e-06
3.7528e-05
3.06783e-06
2.11325e-05
8.64275e-07
1.14756e-05
-2.33479e-07
2.87653e-06
-5.50372e-07
1.72426e-06
-6.30755e-07
3.6375e-07
-7.15207e-07
8.92765e-07
-8.00495e-07
1.77325e-06
-1.00198e-06
3.72936e-06
-1.34589e-06
5.7514e-06
-1.83414e-06
6.8027e-06
-2.38585e-06
6.29122e-06
-2.86669e-06
3.47059e-06
-3.08126e-06
-2.19204e-06
-2.80593e-06
-1.07941e-05
-1.88413e-06
-2.04525e-05
-3.68709e-07
-2.61402e-05
1.16093e-06
-1.86545e-05
1.56942e-06
1.53717e-06
2.17458e-08
1.98412e-05
-2.97353e-06
3.60446e-05
-5.40818e-06
4.44006e-05
-6.9078e-06
3.58658e-05
-8.18558e-06
2.43259e-05
-9.24925e-06
1.69318e-05
-1.00252e-05
1.1487e-05
-1.05172e-05
7.12129e-06
-1.07291e-05
3.2581e-06
-1.06656e-05
-3.54611e-07
-1.03278e-05
-3.86067e-06
-9.71508e-06
-7.328e-06
-8.8251e-06
-1.07982e-05
-7.65422e-06
-1.4299e-05
-6.19667e-06
-1.78527e-05
-4.44544e-06
-2.14576e-05
-2.39966e-06
-2.50247e-05
-7.98273e-08
-2.83152e-05
2.4527e-06
-3.09437e-05
5.09766e-06
-3.24384e-05
7.72303e-06
-3.23995e-05
1.01754e-05
-3.05764e-05
1.23017e-05
-2.69564e-05
1.39756e-05
-2.18053e-05
1.51181e-05
-1.56183e-05
1.5707e-05
-9.00987e-06
1.57744e-05
-2.59177e-06
1.53977e-05
3.10109e-06
1.46871e-05
7.63543e-06
1.37672e-05
1.07126e-05
1.27594e-05
1.21971e-05
1.17675e-05
1.20822e-05
1.08755e-05
1.06733e-05
1.01392e-05
8.2679e-06
9.59615e-06
5.74998e-06
9.23463e-06
2.93621e-06
9.06132e-06
1.49944e-06
8.98933e-06
-1.25143e-06
9.08942e-06
-5.44725e-07
-5.69803e-06
8.78523e-06
5.27395e-05
6.73439e-06
3.95788e-05
3.73312e-06
2.41338e-05
1.35722e-06
1.38515e-05
-2.02518e-08
4.254e-06
-4.94524e-07
2.19853e-06
-6.09197e-07
4.78423e-07
-6.96854e-07
9.80422e-07
-7.66237e-07
1.84263e-06
-9.40117e-07
3.90324e-06
-1.25421e-06
6.06549e-06
-1.72223e-06
7.27072e-06
-2.27308e-06
6.84207e-06
-2.78432e-06
3.98183e-06
-3.07307e-06
-1.90329e-06
-2.92202e-06
-1.09451e-05
-2.15969e-06
-2.12149e-05
-7.98745e-07
-2.75012e-05
6.87925e-07
-2.01412e-05
1.16747e-06
1.05763e-06
-3.07172e-07
2.13159e-05
-3.05673e-06
3.87942e-05
-5.20548e-06
4.65494e-05
-6.55681e-06
3.72172e-05
-7.76355e-06
2.55326e-05
-8.77677e-06
1.7945e-05
-9.52034e-06
1.22305e-05
-9.99142e-06
7.59237e-06
-1.01901e-05
3.45676e-06
-1.01189e-05
-4.25808e-07
-9.7776e-06
-4.20196e-06
-9.16466e-06
-7.94094e-06
-8.27729e-06
-1.16856e-05
-7.11162e-06
-1.54647e-05
-5.66165e-06
-1.93027e-05
-3.91971e-06
-2.31996e-05
-1.88393e-06
-2.70605e-05
4.24832e-07
-3.0624e-05
2.9445e-06
-3.34634e-05
5.57388e-06
-3.50677e-05
8.18046e-06
-3.50061e-05
1.0609e-05
-3.3005e-05
1.27051e-05
-2.90524e-05
1.43423e-05
-2.34425e-05
1.54431e-05
-1.6719e-05
1.59874e-05
-9.5542e-06
1.60102e-05
-2.61453e-06
1.55915e-05
3.51973e-06
1.48442e-05
8.3828e-06
1.38949e-05
1.16619e-05
1.28667e-05
1.32253e-05
1.18627e-05
1.30862e-05
1.09643e-05
1.15717e-05
1.02232e-05
9.00904e-06
9.67458e-06
6.29856e-06
9.30525e-06
3.30554e-06
9.12485e-06
1.67983e-06
9.04266e-06
-1.16923e-06
9.13532e-06
-6.37385e-07
-5.77795e-06
9.00374e-06
5.37358e-05
7.21899e-06
4.13636e-05
4.39267e-06
2.69601e-05
1.9008e-06
1.63434e-05
2.3171e-07
5.92309e-06
-4.01343e-07
2.83159e-06
-5.74726e-07
6.51805e-07
-6.70671e-07
1.07637e-06
-7.25335e-07
1.89729e-06
-8.71041e-07
4.04894e-06
-1.1536e-06
6.34804e-06
-1.59858e-06
7.71571e-06
-2.14456e-06
7.38804e-06
-2.68135e-06
4.51862e-06
-3.03968e-06
-1.54496e-06
-3.01049e-06
-1.09743e-05
-2.40907e-06
-2.18163e-05
-1.20886e-06
-2.87014e-05
2.24272e-07
-2.15743e-05
7.70173e-07
5.11725e-07
-5.99789e-07
2.26858e-05
-3.09951e-06
4.12939e-05
-4.9782e-06
4.84281e-05
-6.19449e-06
3.84335e-05
-7.33078e-06
2.66689e-05
-8.29283e-06
1.8907e-05
-9.00306e-06
1.29408e-05
-9.4523e-06
8.04161e-06
-9.63711e-06
3.64157e-06
-9.55776e-06
-5.05154e-07
-9.21263e-06
-4.54709e-06
-8.59926e-06
-8.55432e-06
-7.71433e-06
-1.25705e-05
-6.55373e-06
-1.66253e-05
-5.11122e-06
-2.07452e-05
-3.37847e-06
-2.49323e-05
-1.35263e-06
-2.90863e-05
9.44882e-07
-3.29215e-05
3.45083e-06
-3.59694e-05
6.06417e-06
-3.76811e-05
8.65137e-06
-3.75933e-05
1.10554e-05
-3.5409e-05
1.31204e-05
-3.11174e-05
1.47199e-05
-2.5042e-05
1.57776e-05
-1.77767e-05
1.6276e-05
-1.00526e-05
1.62527e-05
-2.5912e-06
1.57905e-05
3.98193e-06
1.50046e-05
9.16864e-06
1.40242e-05
1.26423e-05
1.29738e-05
1.42758e-05
1.19559e-05
1.4104e-05
1.10498e-05
1.24779e-05
1.03031e-05
9.75568e-06
9.7491e-06
6.85259e-06
9.3727e-06
3.68194e-06
9.18563e-06
1.86691e-06
9.09445e-06
-1.07805e-06
9.17925e-06
-7.22188e-07
-5.83969e-06
9.19258e-06
5.45432e-05
7.65981e-06
4.28964e-05
5.03695e-06
2.9583e-05
2.48586e-06
1.88945e-05
5.71273e-07
7.83768e-06
-2.59271e-07
3.66213e-06
-5.23e-07
9.15535e-07
-6.35604e-07
1.18897e-06
-6.77869e-07
1.93956e-06
-7.95112e-07
4.16619e-06
-1.04434e-06
6.59727e-06
-1.4633e-06
8.13467e-06
-2.00002e-06
7.92476e-06
-2.55686e-06
5.07546e-06
-2.97913e-06
-1.12269e-06
-3.06808e-06
-1.08854e-05
-2.62787e-06
-2.22565e-05
-1.59145e-06
-2.97378e-05
-2.24132e-07
-2.29416e-05
3.80946e-07
-9.33533e-08
-8.64827e-07
2.39316e-05
-3.10473e-06
4.35338e-05
-4.72925e-06
5.00526e-05
-5.82129e-06
3.95255e-05
-6.8876e-06
2.77352e-05
-7.79807e-06
1.98175e-05
-8.47428e-06
1.3617e-05
-8.90098e-06
8.46831e-06
-9.07142e-06
3.81202e-06
-8.98359e-06
-5.92992e-07
-8.63441e-06
-4.89626e-06
-8.02047e-06
-9.16826e-06
-7.1379e-06
-1.34531e-05
-5.98229e-06
-1.77809e-05
-4.54715e-06
-2.21803e-05
-2.8235e-06
-2.6656e-05
-8.07631e-07
-3.11022e-05
1.47812e-06
-3.52073e-05
3.96972e-06
-3.84609e-05
6.56648e-06
-4.02779e-05
9.13364e-06
-4.01605e-05
1.15123e-05
-3.77877e-05
1.35453e-05
-3.31504e-05
1.51062e-05
-2.66029e-05
1.612e-05
-1.87906e-05
1.65715e-05
-1.05041e-05
1.6501e-05
-2.52068e-06
1.5994e-05
4.48892e-06
1.51683e-05
9.99431e-06
1.41553e-05
1.36553e-05
1.3081e-05
1.53501e-05
1.20479e-05
1.51371e-05
1.11328e-05
1.3393e-05
1.03801e-05
1.05083e-05
9.82069e-06
7.41204e-06
9.43779e-06
4.06483e-06
9.24437e-06
2.06033e-06
9.1451e-06
-9.78789e-07
9.22177e-06
-7.98856e-07
-5.88499e-06
9.35582e-06
5.51874e-05
8.05798e-06
4.41942e-05
5.65833e-06
3.19826e-05
3.10202e-06
2.14508e-05
9.89375e-07
9.95032e-06
-6.47168e-08
4.71622e-06
-4.47994e-07
1.29881e-06
-5.89856e-07
1.33083e-06
-6.23712e-07
1.97341e-06
-7.12678e-07
4.25515e-06
-9.26815e-07
6.81141e-06
-1.31664e-06
8.52449e-06
-1.8395e-06
8.44762e-06
-2.41039e-06
5.64636e-06
-2.8901e-06
-6.42984e-07
-3.09224e-06
-1.06832e-05
-2.81232e-06
-2.25364e-05
-1.94164e-06
-3.06085e-05
-6.51904e-07
-2.42314e-05
1.53199e-08
-7.60577e-07
-1.10113e-06
2.50481e-05
-3.07485e-06
4.55075e-05
-4.46077e-06
5.14385e-05
-5.4375e-06
4.05022e-05
-6.43433e-06
2.8732e-05
-7.29312e-06
2.06763e-05
-7.93485e-06
1.42587e-05
-8.33852e-06
8.87198e-06
-8.49424e-06
3.96773e-06
-8.39768e-06
-6.89551e-07
-8.04434e-06
-5.24959e-06
-7.4298e-06
-9.78281e-06
-6.54957e-06
-1.43333e-05
-5.39895e-06
-1.89315e-05
-3.97116e-06
-2.36081e-05
-2.25656e-06
-2.83706e-05
-2.50817e-07
-3.31079e-05
2.02252e-06
-3.74806e-05
4.49912e-06
-4.09375e-05
7.07867e-06
-4.28574e-05
9.62498e-06
-4.27068e-05
1.19774e-05
-4.01401e-05
1.39775e-05
-3.51506e-05
1.5499e-05
-2.81244e-05
1.64683e-05
-1.97598e-05
1.68724e-05
-1.09082e-05
1.6754e-05
-2.4023e-06
1.62014e-05
5.04154e-06
1.53349e-05
1.08608e-05
1.42881e-05
1.47021e-05
1.31886e-05
1.64495e-05
1.2139e-05
1.61868e-05
1.1214e-05
1.4318e-05
1.04549e-05
1.12674e-05
9.89004e-06
7.97691e-06
9.50109e-06
4.45379e-06
9.30158e-06
2.25984e-06
9.1949e-06
-8.72112e-07
9.26325e-06
-8.67207e-07
-5.91518e-06
9.49709e-06
5.56903e-05
8.41527e-06
4.5276e-05
6.25081e-06
3.41471e-05
3.73853e-06
2.39631e-05
1.47695e-06
1.22119e-05
2.06564e-07
5.9866e-06
-3.42153e-07
1.84753e-06
-5.30538e-07
1.51922e-06
-5.62407e-07
2.00528e-06
-6.24037e-07
4.31678e-06
-8.01458e-07
6.98883e-06
-1.159e-06
8.88203e-06
-1.66327e-06
8.95189e-06
-2.24193e-06
6.22501e-06
-2.7719e-06
-1.13009e-07
-3.08127e-06
-1.03739e-05
-2.95947e-06
-2.26582e-05
-2.25654e-06
-3.13114e-05
-1.06043e-06
-2.54275e-05
-3.72884e-07
-1.44812e-06
-1.30751e-06
2.59827e-05
-3.01199e-06
4.7212e-05
-4.17436e-06
5.26009e-05
-5.04334e-06
4.13712e-05
-5.97133e-06
2.966e-05
-6.77859e-06
2.14836e-05
-7.3856e-06
1.48657e-05
-7.76592e-06
9.2523e-06
-7.90667e-06
4.10848e-06
-7.80126e-06
-7.94955e-07
-7.44375e-06
-5.6071e-06
-6.82865e-06
-1.03979e-05
-5.95085e-06
-1.52111e-05
-4.80529e-06
-2.00771e-05
-3.3849e-06
-2.50285e-05
-1.67935e-06
-3.00761e-05
3.15881e-07
-3.51032e-05
2.57609e-06
-3.97408e-05
5.037e-06
-4.33985e-05
7.59854e-06
-4.5419e-05
1.0123e-05
-4.52313e-05
1.24481e-05
-4.24652e-05
1.44145e-05
-3.7117e-05
1.5896e-05
-2.96059e-05
1.68205e-05
-2.06843e-05
1.7177e-05
-1.12647e-05
1.70105e-05
-2.23588e-06
1.64119e-05
5.6402e-06
1.55038e-05
1.17689e-05
1.44223e-05
1.57836e-05
1.32967e-05
1.75752e-05
1.22295e-05
1.7254e-05
1.12938e-05
1.52536e-05
1.0528e-05
1.20333e-05
9.95767e-06
8.54719e-06
9.56302e-06
4.84845e-06
9.35764e-06
2.46521e-06
9.24405e-06
-7.58523e-07
9.30396e-06
-9.27117e-07
-5.93132e-06
9.61966e-06
5.60707e-05
8.73396e-06
4.61617e-05
6.80977e-06
3.60713e-05
4.38494e-06
2.63879e-05
2.02233e-06
1.45745e-05
5.41631e-07
7.4673e-06
-1.93527e-07
2.58269e-06
-4.53236e-07
1.77893e-06
-4.93001e-07
2.04505e-06
-5.29386e-07
4.35317e-06
-6.68779e-07
7.12822e-06
-9.90944e-07
9.2042e-06
-1.4719e-06
9.43285e-06
-2.05189e-06
6.80501e-06
-2.62453e-06
4.59628e-07
-3.03426e-06
-9.96412e-06
-3.0672e-06
-2.26253e-05
-2.53375e-06
-3.18449e-05
-1.44465e-06
-2.65166e-05
-7.28445e-07
-2.16432e-06
-1.48216e-06
2.67364e-05
-2.91798e-06
4.86478e-05
-3.87122e-06
5.35541e-05
-4.63897e-06
4.2139e-05
-5.49893e-06
3.052e-05
-6.25506e-06
2.22397e-05
-6.8273e-06
1.5438e-05
-7.1841e-06
9.6091e-06
-7.30977e-06
4.23415e-06
-7.19549e-06
-9.09232e-07
-6.83386e-06
-5.96873e-06
-6.21835e-06
-1.10134e-05
-5.34315e-06
-1.60863e-05
-4.20279e-06
-2.12174e-05
-2.7899e-06
-2.64414e-05
-1.0935e-06
-3.17725e-05
8.90667e-07
-3.70873e-05
3.13687e-06
-4.1987e-05
5.58135e-06
-4.58429e-05
8.12388e-06
-4.79615e-05
1.06253e-05
-4.77327e-05
1.29218e-05
-4.47617e-05
1.48534e-05
-3.90486e-05
1.62944e-05
-3.10469e-05
1.7174e-05
-2.15639e-05
1.74832e-05
-1.15739e-05
1.72691e-05
-2.02172e-06
1.66244e-05
6.28486e-06
1.56745e-05
1.27189e-05
1.45577e-05
1.69003e-05
1.34051e-05
1.87277e-05
1.23196e-05
1.83395e-05
1.13727e-05
1.62006e-05
1.05997e-05
1.28063e-05
1.0024e-05
9.12289e-06
9.6239e-06
5.24851e-06
9.41284e-06
2.67628e-06
9.29272e-06
-6.38411e-07
9.34411e-06
-9.78501e-07
-5.93426e-06
9.72638e-06
5.63443e-05
9.01672e-06
4.68714e-05
7.3319e-06
3.77561e-05
5.0314e-06
2.86884e-05
2.61387e-06
1.6992e-05
9.39329e-07
9.14184e-06
1.32152e-08
3.5088e-06
-3.51681e-07
2.14382e-06
-4.13797e-07
2.10717e-06
-4.28739e-07
4.36811e-06
-5.29324e-07
7.22881e-06
-8.13163e-07
9.48804e-06
-1.26618e-06
9.88587e-06
-1.84112e-06
7.37994e-06
-2.44854e-06
1.06705e-06
-2.95103e-06
-9.46163e-06
-3.13418e-06
-2.24421e-05
-2.77119e-06
-3.22078e-05
-1.80005e-06
-2.74877e-05
-1.05812e-06
-2.90626e-06
-1.62362e-06
2.73019e-05
-2.79439e-06
4.98186e-05
-3.55227e-06
5.4312e-05
-4.2245e-06
4.28112e-05
-5.01748e-06
3.1313e-05
-5.72308e-06
2.29453e-05
-6.26067e-06
1.59756e-05
-6.59393e-06
9.94236e-06
-6.70451e-06
4.34473e-06
-6.58142e-06
-1.03232e-06
-6.21582e-06
-6.33433e-06
-5.6001e-06
-1.16291e-05
-4.72773e-06
-1.69587e-05
-3.59281e-06
-2.23523e-05
-2.18759e-06
-2.78466e-05
-5.00573e-07
-3.34595e-05
1.47179e-06
-3.90597e-05
3.70309e-06
-4.42183e-05
6.13024e-06
-4.82701e-05
8.65252e-06
-5.04838e-05
1.11293e-05
-5.02094e-05
1.33956e-05
-4.7028e-05
1.52912e-05
-4.09441e-05
1.66912e-05
-3.24469e-05
1.75263e-05
-2.23991e-05
1.77891e-05
-1.18367e-05
1.75281e-05
-1.7607e-06
1.6838e-05
6.97494e-06
1.58463e-05
1.37106e-05
1.46939e-05
1.80527e-05
1.35139e-05
1.99078e-05
1.24094e-05
1.9444e-05
1.14506e-05
1.71594e-05
1.06703e-05
1.35866e-05
1.00892e-05
9.70399e-06
9.68396e-06
5.65373e-06
9.46736e-06
2.89288e-06
9.34103e-06
-5.12079e-07
9.38383e-06
-1.0213e-06
-5.92471e-06
9.8198e-06
5.65245e-05
9.26647e-06
4.74247e-05
7.81505e-06
3.92075e-05
5.66895e-06
3.08345e-05
3.24079e-06
1.94202e-05
1.39813e-06
1.09845e-05
2.62369e-07
4.64456e-06
-2.17817e-07
2.62401e-06
-3.22039e-07
2.21139e-06
-3.21795e-07
4.36787e-06
-3.83643e-07
7.29066e-06
-6.26464e-07
9.73086e-06
-1.04714e-06
1.03065e-05
-1.61078e-06
7.94358e-06
-2.24501e-06
1.70128e-06
-2.83201e-06
-8.87464e-06
-3.15973e-06
-2.21144e-05
-2.967e-06
-3.24006e-05
-2.12166e-06
-2.8333e-05
-1.35789e-06
-3.67003e-06
-1.73082e-06
2.76748e-05
-2.6426e-06
5.07304e-05
-3.2182e-06
5.48876e-05
-3.80007e-06
4.33931e-05
-4.52731e-06
3.20402e-05
-5.18318e-06
2.36011e-05
-5.6864e-06
1.64788e-05
-5.99622e-06
1.02522e-05
-6.09179e-06
4.4403e-06
-5.96002e-06
-1.16409e-06
-5.59066e-06
-6.7037e-06
-4.97501e-06
-1.22448e-05
-4.10578e-06
-1.78279e-05
-2.97659e-06
-2.34815e-05
-1.5793e-06
-2.92439e-05
9.79265e-08
-3.51368e-05
2.0576e-06
-4.10194e-05
4.27306e-06
-4.64338e-05
6.68184e-06
-5.06789e-05
9.18231e-06
-5.29842e-05
1.16325e-05
-5.26597e-05
1.38667e-05
-4.92621e-05
1.57247e-05
-4.28022e-05
1.70832e-05
-3.38054e-05
1.78744e-05
-2.31903e-05
1.80921e-05
-1.20544e-05
1.77858e-05
-1.45435e-06
1.70514e-05
7.70932e-06