/*--------------------------------*- C++ -*----------------------------------*\
| =========                 |                                                 |
| \\      /  F ield         | OpenFOAM: The Open Source CFD Toolbox           |
|  \\    /   O peration     | Version:  2.4.0                                 |
|   \\  /    A nd           | Web:      www.OpenFOAM.org                      |
|    \\/     M anipulation  |                                                 |
\*---------------------------------------------------------------------------*/
FoamFile
{
    version     2.0;
    format      ascii;
    class       volScalarField;
    location    "3.85";
    object      nut;
}
// * * * * * * * * * * * * * * * * * * * * * * * * * * * * * * * * * * * * * //

dimensions      [0 2 -1 0 0 0 0];

internalField   nonuniform List<scalar> 
6000
(
4.70152e-05
1.44406e-05
4.24977e-06
8.77632e-06
7.78944e-06
8.92845e-06
8.57164e-06
8.94733e-06
8.82628e-06
9.03806e-06
9.0792e-06
9.31049e-06
9.53116e-06
9.90553e-06
1.03436e-05
1.08897e-05
1.14814e-05
1.21232e-05
1.27997e-05
1.35385e-05
1.43619e-05
1.5296e-05
1.63459e-05
1.75004e-05
1.87313e-05
2.00027e-05
2.12758e-05
2.25143e-05
2.36855e-05
2.47601e-05
2.57109e-05
2.6511e-05
2.71329e-05
2.75469e-05
2.77193e-05
2.76122e-05
2.71869e-05
2.64009e-05
2.52136e-05
2.35902e-05
2.15294e-05
1.90865e-05
1.63654e-05
1.72103e-05
1.98294e-05
2.25373e-05
2.51609e-05
2.76058e-05
2.96829e-05
3.14647e-05
3.27054e-05
3.37947e-05
3.41516e-05
3.4879e-05
3.43201e-05
3.53896e-05
3.35629e-05
3.6178e-05
3.22666e-05
3.76105e-05
2.94897e-05
9.50652e-06
3.16754e-06
7.01487e-06
6.3233e-06
7.01856e-06
6.77824e-06
7.01398e-06
6.94515e-06
7.09534e-06
7.15338e-06
7.3451e-06
7.55251e-06
7.87612e-06
8.26382e-06
8.73903e-06
9.26602e-06
9.84843e-06
1.04837e-05
1.11933e-05
1.19948e-05
1.29008e-05
1.3906e-05
1.49911e-05
1.61264e-05
1.72804e-05
1.84242e-05
1.95348e-05
2.05952e-05
2.15942e-05
2.25252e-05
2.33861e-05
2.41786e-05
2.49104e-05
2.55925e-05
2.62458e-05
2.69162e-05
2.76855e-05
2.87051e-05
3.02611e-05
3.28927e-05
3.75768e-05
4.52856e-05
4.04831e-05
3.3515e-05
2.92318e-05
2.68101e-05
2.55161e-05
2.48512e-05
2.45331e-05
2.4315e-05
2.42098e-05
2.39487e-05
2.38977e-05
2.33923e-05
2.35918e-05
2.26039e-05
2.35806e-05
2.16781e-05
2.38937e-05
2.14309e-05
8.15977e-06
2.81539e-06
5.88994e-06
5.32731e-06
5.68371e-06
5.50075e-06
5.63726e-06
5.60276e-06
5.72084e-06
5.80664e-06
6.00039e-06
6.24035e-06
6.58833e-06
7.02057e-06
7.5515e-06
8.16915e-06
8.8841e-06
9.71083e-06
1.06752e-05
1.1798e-05
1.30858e-05
1.45244e-05
1.60826e-05
1.77222e-05
1.94069e-05
2.11081e-05
2.28074e-05
2.44974e-05
2.61816e-05
2.78749e-05
2.96053e-05
3.14171e-05
3.33777e-05
3.55659e-05
3.80969e-05
4.11815e-05
4.51447e-05
5.05228e-05
5.82323e-05
6.97917e-05
8.75111e-05
0.000111674
9.63947e-05
7.25246e-05
5.51555e-05
4.33689e-05
3.54462e-05
3.01352e-05
2.64533e-05
2.38776e-05
2.19709e-05
2.05398e-05
1.94214e-05
1.84689e-05
1.78134e-05
1.69944e-05
1.6853e-05
1.58516e-05
1.62856e-05
1.78746e-05
7.96914e-06
2.98899e-06
5.26104e-06
4.70472e-06
4.76933e-06
4.59715e-06
4.65606e-06
4.64396e-06
4.75169e-06
4.87954e-06
5.11481e-06
5.43735e-06
5.88874e-06
6.47154e-06
7.20355e-06
8.10173e-06
9.19649e-06
1.05318e-05
1.2154e-05
1.41017e-05
1.63859e-05
1.8988e-05
2.18641e-05
2.49626e-05
2.82357e-05
3.1648e-05
3.51796e-05
3.88293e-05
4.26159e-05
4.65824e-05
5.08005e-05
5.53797e-05
6.04878e-05
6.62085e-05
7.28395e-05
8.07978e-05
9.06815e-05
0.000103395
0.000120321
0.000143395
0.000174884
0.00021077
0.000185832
0.000144922
0.000110663
8.44561e-05
6.50208e-05
5.09563e-05
4.06795e-05
3.32923e-05
2.7762e-05
2.37744e-05
2.06119e-05
1.83628e-05
1.64092e-05
1.50984e-05
1.38621e-05
1.30126e-05
1.22719e-05
1.67546e-05
8.44497e-06
3.53627e-06
5.03963e-06
4.40709e-06
4.18689e-06
3.98341e-06
3.97264e-06
3.97458e-06
4.09014e-06
4.27992e-06
4.60153e-06
5.07088e-06
5.72609e-06
6.60227e-06
7.73769e-06
9.19388e-06
1.1043e-05
1.33806e-05
1.62953e-05
1.98599e-05
2.41004e-05
2.89984e-05
3.44991e-05
4.05363e-05
4.70464e-05
5.39783e-05
6.1298e-05
6.8995e-05
7.7087e-05
8.5628e-05
9.4714e-05
0.000104496
0.000115147
0.000126623
0.000139389
0.000153928
0.000170884
0.000191168
0.000216056
0.000247093
0.000285548
0.000323105
0.000293245
0.000242556
0.000194942
0.000154277
0.000120866
9.43451e-05
7.34911e-05
5.75789e-05
4.52687e-05
3.61595e-05
2.89797e-05
2.38756e-05
1.95433e-05
1.67859e-05
1.3999e-05
1.25926e-05
1.08003e-05
1.71085e-05
9.39785e-06
4.39279e-06
5.14815e-06
4.41226e-06
3.89169e-06
3.61389e-06
3.5303e-06
3.53982e-06
3.68063e-06
3.96032e-06
4.42561e-06
5.1315e-06
6.13178e-06
7.50973e-06
9.34898e-06
1.17816e-05
1.4949e-05
1.90187e-05
2.41307e-05
3.03895e-05
3.78292e-05
4.64276e-05
5.61195e-05
6.68228e-05
7.84465e-05
9.08977e-05
0.000104088
0.000117949
0.000132438
0.000147554
0.000163341
0.000179913
0.000197138
0.000214926
0.000233766
0.000254047
0.000276275
0.000301161
0.000329671
0.0003629
0.000401122
0.000433889
0.000403137
0.000349847
0.000295449
0.000244939
0.000199808
0.000160838
0.000127773
0.000100659
7.85475e-05
6.12974e-05
4.74588e-05
3.72056e-05
2.8728e-05
2.30241e-05
1.77084e-05
1.48029e-05
1.1692e-05
1.83893e-05
1.07092e-05
5.51761e-06
5.50646e-06
4.69745e-06
3.86841e-06
3.47022e-06
3.30112e-06
3.31241e-06
3.49734e-06
3.90611e-06
4.59287e-06
5.66328e-06
7.21047e-06
9.38964e-06
1.23594e-05
1.63481e-05
2.15812e-05
2.82879e-05
3.66279e-05
4.66962e-05
5.8509e-05
7.20355e-05
8.72054e-05
0.000103916
0.000122021
0.000141337
0.00016166
0.000182793
0.000204566
0.000226857
0.000249591
0.000272771
0.000295766
0.000318703
0.000341957
0.000365802
0.000390587
0.000416842
0.000445293
0.000476773
0.000510607
0.000536343
0.000506861
0.000455189
0.000399156
0.000343872
0.000291318
0.000242887
0.000199128
0.000160855
0.000127909
0.000100678
7.81062e-05
6.04634e-05
4.59049e-05
3.53584e-05
2.61681e-05
2.04385e-05
1.54276e-05
2.02058e-05
1.22754e-05
6.8675e-06
6.06213e-06
5.20838e-06
4.11487e-06
3.55297e-06
3.27862e-06
3.28587e-06
3.53717e-06
4.12876e-06
5.14269e-06
6.75394e-06
9.12125e-06
1.24957e-05
1.71328e-05
2.3361e-05
3.14654e-05
4.16759e-05
5.4098e-05
6.87641e-05
8.56627e-05
0.000104773
0.000126034
0.000149312
0.00017437
0.000200882
0.000228477
0.000256792
0.000285498
0.000314336
0.000343104
0.000371575
0.000398912
0.000425391
0.000451282
0.000476766
0.000502079
0.000527626
0.000553979
0.000581766
0.000609688
0.000628299
0.00060085
0.0005526
0.000497857
0.000441368
0.000385183
0.000330865
0.000279387
0.000232009
0.00018929
0.000152132
0.000120211
9.39477e-05
7.19956e-05
5.49418e-05
4.06145e-05
3.05401e-05
2.29106e-05
2.2247e-05
1.39956e-05
8.39046e-06
6.80783e-06
5.86279e-06
4.61712e-06
3.86988e-06
3.47089e-06
3.46907e-06
3.81403e-06
4.65869e-06
6.13626e-06
8.5117e-06
1.20308e-05
1.70508e-05
2.39213e-05
3.30355e-05
4.46681e-05
5.89591e-05
7.5894e-05
9.54293e-05
0.000117558
0.000142305
0.000169632
0.000199354
0.000231109
0.000264399
0.000298669
0.000333387
0.000368079
0.000402364
0.00043595
0.000468287
0.000498657
0.000527359
0.000554581
0.000580436
0.000605085
0.000628847
0.000652202
0.000675553
0.000697404
0.000709596
0.000684151
0.000639716
0.000587565
0.000531904
0.000474668
0.000417366
0.000361106
0.000307297
0.000256948
0.000211296
0.000170754
0.000135905
0.000106212
8.17701e-05
6.15388e-05
4.58597e-05
3.49947e-05
2.42784e-05
1.5776e-05
1.00275e-05
7.74636e-06
6.60293e-06
5.32486e-06
4.41634e-06
3.88902e-06
3.87765e-06
4.34967e-06
5.53165e-06
7.63219e-06
1.10208e-05
1.60369e-05
2.31297e-05
3.27075e-05
4.51585e-05
6.06636e-05
7.92053e-05
0.00010064
0.000124887
0.000151994
0.000182058
0.000215054
0.000250722
0.000288555
0.000327877
0.000367959
0.000408119
0.000447763
0.000486421
0.000523747
0.000558793
0.000591212
0.000621209
0.000648906
0.00067437
0.000697707
0.000719184
0.000739223
0.000758016
0.000774182
0.000780823
0.000756969
0.000716038
0.000666816
0.000612946
0.00055618
0.000497893
0.000439168
0.000381385
0.000325736
0.000273612
0.000225957
0.000183505
0.000146549
0.000114722
8.8411e-05
6.64761e-05
5.20065e-05
2.61484e-05
1.7536e-05
1.17176e-05
8.86394e-06
7.42259e-06
6.15775e-06
5.15562e-06
4.52819e-06
4.51843e-06
5.15667e-06
6.7647e-06
9.64854e-06
1.42836e-05
2.10907e-05
3.0572e-05
4.3138e-05
5.90972e-05
7.84808e-05
0.000101105
0.000126742
0.00015533
0.000187003
0.000221925
0.000260062
0.00030106
0.00034426
0.000388819
0.000433857
0.000478567
0.000522263
0.000564399
0.000604515
0.000641523
0.000675289
0.000705948
0.000733566
0.000758179
0.000779857
0.00079884
0.000815487
0.000829911
0.000840915
0.000842786
0.000819965
0.000781917
0.000735452
0.000683684
0.000628175
0.000570154
0.000510602
0.000450789
0.000391904
0.000335355
0.000282368
0.000233798
0.000190589
0.000152068
0.000119977
9.17959e-05
7.36042e-05
2.77812e-05
1.92133e-05
1.34036e-05
1.01273e-05
8.3444e-06
7.05207e-06
6.02189e-06
5.35083e-06
5.36977e-06
6.21577e-06
8.32714e-06
1.21247e-05
1.81781e-05
2.69628e-05
3.89837e-05
5.4597e-05
7.39804e-05
9.70069e-05
0.000123366
0.000152805
0.000185325
0.000221142
0.000260464
0.000303217
0.000348946
0.000396843
0.000445919
0.000495166
0.000543679
0.000590692
0.000635605
0.000677799
0.000716217
0.000750829
0.000781707
0.000808876
0.000832348
0.000852175
0.000868583
0.000881881
0.000892222
0.000898567
0.00089629
0.000873925
0.000838047
0.000793924
0.000744206
0.000690281
0.000633241
0.000573945
0.000513522
0.00045305
0.000393876
0.000337289
0.000284232
0.000236042
0.000191935
0.000154689
0.000120791
9.89497e-05
2.91564e-05
2.07655e-05
1.50366e-05
1.14908e-05
9.3833e-06
7.99198e-06
6.95387e-06
6.29221e-06
6.37365e-06
7.46186e-06
1.01244e-05
1.49086e-05
2.24601e-05
3.32797e-05
4.78292e-05
6.63696e-05
8.89299e-05
0.000115252
0.000144956
0.000177814
0.000213899
0.000253493
0.000296807
0.00034371
0.000393635
0.000445645
0.000498623
0.000551458
0.000603163
0.000652911
0.000700057
0.000743785
0.0007832
0.000818285
0.000849059
0.000875516
0.000897652
0.000915511
0.000929316
0.000939381
0.000945905
0.000948027
0.000942067
0.000919622
0.000885215
0.000842931
0.000795026
0.000742739
0.000687044
0.000628682
0.000568634
0.00050782
0.000447475
0.000388811
0.000332819
0.000280985
0.000232582
0.000191005
0.000152248
0.000126965
3.02874e-05
2.21685e-05
1.65786e-05
1.29043e-05
1.05351e-05
8.99444e-06
7.92493e-06
7.29169e-06
7.45448e-06
8.79658e-06
1.20142e-05
1.77859e-05
2.68186e-05
3.96145e-05
5.6561e-05
7.78022e-05
0.000103225
0.000132481
0.000165171
0.000201122
0.000240473
0.000283535
0.000330495
0.000381144
0.000434806
0.000490432
0.000546797
0.000602708
0.000657108
0.000709119
0.000758073
0.000802912
0.000843002
0.000878271
0.000908695
0.000934241
0.000954897
0.00097071
0.000981916
0.000988872
0.000991811
0.00099006
0.000980749
0.000957755
0.000924187
0.000883231
0.000836824
0.000786079
0.000731877
0.000674845
0.000615832
0.000555577
0.000495187
0.000435702
0.000378136
0.000323929
0.000272529
0.000227545
0.000184947
0.000156533
3.12037e-05
2.34131e-05
1.80034e-05
1.43189e-05
1.17786e-05
1.00785e-05
8.94171e-06
8.32048e-06
8.55337e-06
1.01254e-05
1.38508e-05
2.05401e-05
3.09533e-05
4.55824e-05
6.47238e-05
8.83982e-05
0.000116367
0.000148229
0.000183601
0.000222376
0.000264742
0.000311013
0.000361322
0.000415367
0.000472373
0.000531193
0.000590513
0.000649073
0.000705759
0.000759648
0.000810007
0.000855676
0.000896182
0.000931402
0.000961278
0.000985755
0.00100482
0.00101853
0.00102716
0.00103112
0.00103066
0.00102531
0.00101288
0.000988939
0.000955658
0.000915555
0.000870313
0.000820943
0.000768249
0.000712765
0.000655213
0.000596154
0.000536558
0.000477253
0.000419246
0.000363801
0.000310608
0.000263159
0.000217773
0.000186611
3.19396e-05
2.45011e-05
1.92955e-05
1.56914e-05
1.3081e-05
1.12497e-05
1.00229e-05
9.38314e-06
9.64849e-06
1.1392e-05
1.55311e-05
2.30077e-05
3.46375e-05
5.09021e-05
7.2003e-05
9.78399e-05
0.000128065
0.000162251
0.000200048
0.000241418
0.000286584
0.000335832
0.000389225
0.000446362
0.000506372
0.000568024
0.000629931
0.000690779
0.000749406
0.000804849
0.000856283
0.000902549
0.000943252
0.00097823
0.00100739
0.00103067
0.00104804
0.00105962
0.00106572
0.00106675
0.00106304
0.0010543
0.0010389
0.0010137
0.000980243
0.000940573
0.000896176
0.000847986
0.000796748
0.000742911
0.000687086
0.000629667
0.000571483
0.000513132
0.000455596
0.000399884
0.000345955
0.000296943
0.000249771
0.0002163
3.2528e-05
2.54418e-05
2.04493e-05
1.6987e-05
1.44038e-05
1.2498e-05
1.11833e-05
1.05004e-05
1.07506e-05
1.25867e-05
1.7014e-05
2.51052e-05
3.77438e-05
5.54123e-05
7.82248e-05
0.000105966
0.000138189
0.000174456
0.000214457
0.000258215
0.000305976
0.000357986
0.000414221
0.000474176
0.000536888
0.000601059
0.000665233
0.000728058
0.000788329
0.00084505
0.000897282
0.000943942
0.000984654
0.00101922
0.00104753
0.00106949
0.0010851
0.00109453
0.00109811
0.00109628
0.00108945
0.00107748
0.00105922
0.00103249
0.000998472
0.000958874
0.000915034
0.000867831
0.000817963
0.000765807
0.000711871
0.000656394
0.000600067
0.000543263
0.000486915
0.000431744
0.000377972
0.000328226
0.000280176
0.000244867
3.29975e-05
2.62486e-05
2.14663e-05
1.81806e-05
1.57075e-05
1.38008e-05
1.24258e-05
1.16909e-05
1.18895e-05
1.37339e-05
1.83122e-05
2.68234e-05
4.02365e-05
5.90572e-05
8.33283e-05
0.00011273
0.00014672
0.000184854
0.000226857
0.000272805
0.000322959
0.000377516
0.000436361
0.000498881
0.000564024
0.000630432
0.000696592
0.000761122
0.000822774
0.000880532
0.000933326
0.000980199
0.00102076
0.00105477
0.00108209
0.00110263
0.00111644
0.0011237
0.00112478
0.00112015
0.00111027
0.00109519
0.00107415
0.00104568
0.0010108
0.000970974
0.000927442
0.000881049
0.000832454
0.000781975
0.000730022
0.000676695
0.000622547
0.000567738
0.000513135
0.000459165
0.000406286
0.000356541
0.000308407
0.000271742
3.33723e-05
2.69366e-05
2.23536e-05
1.92564e-05
1.69555e-05
1.51269e-05
1.37402e-05
1.29638e-05
1.30981e-05
1.48733e-05
1.94715e-05
2.82056e-05
4.2148e-05
6.18582e-05
8.73325e-05
0.000118162
0.000153706
0.000193512
0.000237323
0.000285264
0.000337603
0.000394487
0.000455713
0.000520556
0.000587879
0.000656271
0.000724162
0.000790151
0.00085295
0.000911505
0.000964679
0.00101161
0.00105186
0.00108518
0.00111141
0.00113046
0.00114242
0.00114751
0.0011461
0.0011387
0.00112585
0.00110775
0.00108396
0.00105362
0.00101762
0.000977319
0.000933887
0.000888149
0.000840735
0.000791911
0.000741997
0.000690964
0.000639226
0.000586751
0.000534322
0.000482083
0.000430694
0.000381591
0.000334048
0.00029651
3.3672e-05
2.75212e-05
2.31215e-05
2.02076e-05
1.8117e-05
1.64402e-05
1.51054e-05
1.43173e-05
1.43937e-05
1.6058e-05
2.05511e-05
2.93234e-05
4.35527e-05
6.38863e-05
9.03062e-05
0.000122336
0.000159231
0.000200524
0.000245957
0.000295686
0.000349992
0.000408976
0.000472349
0.00053928
0.000608543
0.000678683
0.000748071
0.000815295
0.000879027
0.000938158
0.000991557
0.00103839
0.00107821
0.00111071
0.00113574
0.00115326
0.00116335
0.00116624
0.00116234
0.00115222
0.00113646
0.00111541
0.00108891
0.00105657
0.00101927
0.000978295
0.000934795
0.000889584
0.000843271
0.000796078
0.000748236
0.000699597
0.000650441
0.000600556
0.000550631
0.000500548
0.000451126
0.000403214
0.000356828
0.000318887
3.3912e-05
2.80169e-05
2.37823e-05
2.10344e-05
1.91691e-05
1.77041e-05
1.64917e-05
1.57384e-05
1.57797e-05
1.73328e-05
2.16157e-05
3.02588e-05
4.45465e-05
6.52412e-05
9.23475e-05
0.00012535
0.000163398
0.000205999
0.000252866
0.000304177
0.000360221
0.000421065
0.000486345
0.000555128
0.000626098
0.00069776
0.000768426
0.000836676
0.00090114
0.000960653
0.00101413
0.00106073
0.00109997
0.00113156
0.00115533
0.00117126
0.00117945
0.00118013
0.00117377
0.00116093
0.00114231
0.00111837
0.0010892
0.00105477
0.00101603
0.000974241
0.000930539
0.000885754
0.00084048
0.000794895
0.000749148
0.000702979
0.000656533
0.000609436
0.00056227
0.000514682
0.000467606
0.000421349
0.000376591
0.000338696
3.41047e-05
2.84369e-05
2.43491e-05
2.17428e-05
2.00973e-05
1.88847e-05
1.78635e-05
1.72039e-05
1.72484e-05
1.87072e-05
2.27554e-05
3.10927e-05
4.5232e-05
6.60355e-05
9.35693e-05
0.000127316
0.000166316
0.000210046
0.000258161
0.000310845
0.00036839
0.000430843
0.00049778
0.000568174
0.000640618
0.000713584
0.000785313
0.000854391
0.0009194
0.000979121
0.00103254
0.00107876
0.00111731
0.00114791
0.00117038
0.00118468
0.00119093
0.0011894
0.00118057
0.00116505
0.00114361
0.00111682
0.00108502
0.00104846
0.00100817
0.000965451
0.000921451
0.000877018
0.000832735
0.000788746
0.000745114
0.000701477
0.000657841
0.000613685
0.000569477
0.000524655
0.000480225
0.000436013
0.000393271
0.000355847
3.42598e-05
2.87927e-05
2.48346e-05
2.23427e-05
2.08953e-05
1.99537e-05
1.91829e-05
1.86826e-05
1.87817e-05
2.01785e-05
2.40026e-05
3.19516e-05
4.57104e-05
6.63862e-05
9.40915e-05
0.00012835
0.000168096
0.000212775
0.000261953
0.000315796
0.000374603
0.000438404
0.000506738
0.000578493
0.000652174
0.000726226
0.000798809
0.000868521
0.000933884
0.000993669
0.00104686
0.00109258
0.00113038
0.00115992
0.00118102
0.00119367
0.00119797
0.00119422
0.00118292
0.00116475
0.00114052
0.00111094
0.00107653
0.00103781
0.000995919
0.000952191
0.000907826
0.000863695
0.000820376
0.00077798
0.000736486
0.000695434
0.000654689
0.000613599
0.000572504
0.000530664
0.000489118
0.000447277
0.000406871
0.000370316
3.43849e-05
2.90945e-05
2.52506e-05
2.2846e-05
2.15642e-05
2.08905e-05
2.04126e-05
2.01367e-05
2.03518e-05
2.17328e-05
2.53621e-05
3.29113e-05
4.61379e-05
6.64087e-05
9.4036e-05
0.00012857
0.000168847
0.000214291
0.000264346
0.000319141
0.000378967
0.00044385
0.000513311
0.000586169
0.00066084
0.000735757
0.000808982
0.000879139
0.000944646
0.00100433
0.00105718
0.00110234
0.0011393
0.00116772
0.00118742
0.00119836
0.00120069
0.00119472
0.00118097
0.00116017
0.00113319
0.00110087
0.00106389
0.001023
0.000979477
0.000934703
0.000889934
0.00084608
0.000803715
0.000762921
0.000723591
0.000685172
0.000647389
0.000609466
0.000571609
0.000532925
0.000494453
0.000455247
0.000417448
0.000382128
3.44861e-05
2.93505e-05
2.56077e-05
2.32659e-05
2.2111e-05
2.16828e-05
2.15199e-05
2.15256e-05
2.19226e-05
2.33453e-05
2.68248e-05
3.39878e-05
4.66317e-05
6.62973e-05
9.35242e-05
0.000128095
0.000168681
0.000214699
0.000265445
0.000320986
0.000381593
0.000447291
0.000517601
0.000591293
0.000666696
0.00074225
0.000815891
0.000886232
0.000951734
0.0010112
0.00106362
0.00110812
0.00114417
0.00117142
0.00118967
0.0011989
0.00119924
0.00119104
0.00117485
0.00115145
0.00112176
0.00108675
0.00104725
0.00100421
0.000959044
0.00091321
0.000868028
0.000824447
0.000783043
0.000743869
0.000706737
0.000670998
0.000636238
0.000601567
0.000567049
0.000531661
0.000496413
0.000460065
0.000425094
0.000391349
3.45679e-05
2.95681e-05
2.59152e-05
2.36154e-05
2.25472e-05
2.23271e-05
2.24786e-05
2.28086e-05
2.34518e-05
2.49812e-05
2.8369e-05
3.51805e-05
4.72235e-05
6.6177e-05
9.28069e-05
0.000127049
0.000167706
0.000214099
0.000265349
0.000321437
0.000382594
0.000448842
0.00051972
0.000593969
0.000669834
0.000745696
0.000819535
0.00088988
0.000955238
0.00101438
0.00106626
0.00111002
0.0011451
0.00117112
0.00118789
0.00119537
0.00119373
0.0011833
0.00116469
0.00113871
0.00110637
0.00106871
0.00102674
0.000981602
0.00093481
0.000887931
0.000842349
0.000799059
0.00075864
0.000721116
0.000686216
0.000653204
0.000621522
0.000590175
0.000559079
0.0005271
0.000495195
0.000461893
0.000429932
0.000398072
3.46343e-05
2.97532e-05
2.61811e-05
2.39069e-05
2.28868e-05
2.28275e-05
2.32716e-05
2.39484e-05
2.4894e-05
2.65978e-05
2.99612e-05
3.64738e-05
4.79264e-05
6.60976e-05
9.19666e-05
0.000125657
0.000166134
0.000212614
0.000264156
0.000320596
0.000382084
0.000448626
0.00051976
0.000594223
0.000670263
0.000746186
0.000819997
0.000890173
0.000955246
0.00101394
0.00106519
0.00110813
0.00114218
0.00116693
0.00118218
0.0011879
0.00118425
0.00117161
0.0011506
0.00112209
0.00108713
0.00104689
0.00100252
0.00095533
0.000906962
0.000859079
0.000813137
0.000770177
0.00073078
0.000694945
0.000662318
0.000632077
0.000603522
0.000575559
0.000547951
0.00051947
0.000491005
0.000460908
0.000432104
0.000402411
3.46883e-05
2.99108e-05
2.64119e-05
2.41513e-05
2.31452e-05
2.31947e-05
2.38909e-05
2.49146e-05
2.62037e-05
2.81464e-05
3.1558e-05
3.78375e-05
4.87349e-05
6.60888e-05
9.1069e-05
0.000124005
0.000164056
0.000210388
0.000261998
0.000318571
0.000380147
0.000446707
0.000517795
0.000592171
0.000668095
0.000743818
0.000817369
0.00088721
0.000951851
0.00100998
0.00106051
0.00110255
0.0011355
0.00115893
0.00117263
0.00117657
0.00117092
0.00115608
0.0011327
0.00110168
0.00106417
0.00102142
0.000974731
0.000925565
0.000875692
0.000826872
0.000780635
0.000738065
0.000699744
0.000665643
0.000635332
0.000607902
0.000582515
0.000557983
0.000533915
0.000509002
0.000484054
0.000457292
0.000431767
0.000404494
3.47321e-05
3.00451e-05
2.66131e-05
2.43582e-05
2.33379e-05
2.34439e-05
2.43383e-05
2.56858e-05
2.73393e-05
2.95756e-05
3.31076e-05
3.92292e-05
4.96265e-05
6.61603e-05
9.01607e-05
0.000122166
0.000161557
0.000207501
0.000258952
0.000315437
0.000376871
0.000443189
0.000513945
0.000587936
0.000663449
0.000738707
0.000811766
0.0008811
0.000945158
0.00100259
0.0010523
0.00109337
0.00112515
0.00114722
0.00115935
0.0011615
0.00115384
0.00113681
0.00111109
0.00107763
0.00103763
0.000992449
0.000943527
0.000892482
0.000841201
0.000791541
0.000745098
0.000702998
0.00066582
0.000633508
0.000605554
0.000580969
0.000558782
0.000537716
0.000517225
0.000495927
0.000474556
0.000451239
0.000429091
0.000404464
3.47677e-05
3.01598e-05
2.67892e-05
2.45354e-05
2.34794e-05
2.35932e-05
2.46237e-05
2.62512e-05
2.82666e-05
3.08349e-05
3.45534e-05
4.05958e-05
5.05626e-05
6.63019e-05
8.92682e-05
0.000120199
0.000158713
0.000204032
0.00025509
0.000311269
0.00037234
0.000438175
0.00050833
0.000581649
0.000656459
0.000730976
0.000803331
0.000871965
0.00093528
0.000991897
0.00104067
0.00108068
0.00111124
0.00113191
0.00114243
0.00114277
0.00113312
0.00111392
0.00108589
0.00105004
0.00100762
0.000960113
0.000909073
0.000856271
0.000803708
0.000753331
0.0007068
0.000665272
0.000629319
0.000598856
0.000573298
0.000551584
0.000532615
0.000515033
0.000498138
0.000480483
0.000462733
0.000442947
0.000424256
0.000402472
3.47966e-05
3.02576e-05
2.69439e-05
2.46895e-05
2.35827e-05
2.36621e-05
2.47639e-05
2.66111e-05
2.89616e-05
3.18788e-05
3.58373e-05
4.18767e-05
5.14917e-05
6.6485e-05
8.83968e-05
0.000118144
0.000155588
0.000200052
0.000250484
0.000306136
0.000366634
0.000431761
0.000501068
0.000573443
0.000647263
0.000720763
0.000792206
0.00085994
0.000922344
0.000978003
0.00102574
0.0010646
0.00109387
0.00111308
0.00112197
0.0011205
0.00110886
0.00108753
0.00105724
0.00101905
0.000974311
0.000924575
0.000871549
0.000817137
0.000763448
0.000712513
0.000666042
0.000625213
0.000590582
0.000562031
0.000538903
0.000520073
0.000504322
0.000490222
0.000476922
0.000462913
0.000448815
0.000432625
0.000417448
0.000398678
3.48202e-05
3.03412e-05
2.70801e-05
2.48253e-05
2.36589e-05
2.36697e-05
2.47803e-05
2.67763e-05
2.94122e-05
3.26707e-05
3.69041e-05
4.30078e-05
5.2352e-05
6.66646e-05
8.75319e-05
0.000116022
0.000152232
0.000195625
0.000245198
0.000300106
0.000359827
0.00042404
0.000492272
0.00056345
0.000636004
0.00070825
0.000778547
0.000845173
0.000906488
0.000961044
0.00100762
0.00104524
0.00107316
0.00109086
0.00109809
0.0010948
0.00108119
0.00105774
0.00102525
0.000984806
0.000937839
0.000886011
0.000831155
0.000775311
0.000720687
0.000669388
0.000623159
0.000583182
0.000549986
0.000523413
0.000502742
0.000486789
0.000474235
0.00046359
0.000453858
0.000443475
0.000433043
0.000420489
0.000408867
0.000393253
3.48393e-05
3.04127e-05
2.72003e-05
2.49467e-05
2.3717e-05
2.36338e-05
2.46972e-05
2.67659e-05
2.96196e-05
3.31861e-05
3.77057e-05
4.39256e-05
5.30757e-05
6.67825e-05
8.664e-05
0.000113833
0.00014868
0.000190806
0.000239295
0.00029324
0.000351985
0.000415093
0.000482047
0.000551797
0.000622824
0.000693604
0.000762518
0.000827823
0.000887865
0.000941163
0.000986461
0.00102274
0.00104922
0.00106538
0.00107092
0.0010658
0.00105023
0.00102471
0.00099006
0.000947454
0.000898381
0.000844612
0.000788114
0.00073105
0.000675725
0.000624299
0.000578531
0.000539589
0.000507956
0.000483429
0.000465229
0.000452126
0.000442718
0.000435468
0.000429248
0.000422462
0.00041567
0.000406768
0.00039872
0.000386378
3.48549e-05
3.04738e-05
2.73066e-05
2.50564e-05
2.37641e-05
2.35701e-05
2.4539e-05
2.6606e-05
2.9597e-05
3.34146e-05
3.82057e-05
4.45725e-05
5.35938e-05
6.6772e-05
8.56723e-05
0.00011156
0.000144946
0.000185635
0.000232828
0.000285597
0.000343171
0.000404993
0.000470487
0.000538603
0.000607879
0.000676983
0.000744284
0.000808057
0.000866636
0.000918514
0.000962398
0.00099723
0.0010222
0.00103675
0.00104058
0.00103362
0.00101611
0.000988554
0.000951831
0.000907162
0.000856123
0.000800596
0.000742676
0.000684651
0.000628904
0.000577634
0.00053259
0.000494896
0.000464972
0.000442561
0.000426829
0.000416521
0.000410174
0.000406222
0.000403418
0.000400168
0.000396968
0.000391704
0.000387225
0.000378245
3.48674e-05
3.05262e-05
2.74006e-05
2.51566e-05
2.38054e-05
2.34917e-05
2.43295e-05
2.63262e-05
2.93685e-05
3.33611e-05
3.83822e-05
4.49013e-05
5.38414e-05
6.6563e-05
8.4569e-05
0.000109167
0.00014103
0.000180141
0.000225842
0.000277227
0.00033344
0.000393807
0.000457676
0.000523974
0.00059133
0.000658545
0.000724014
0.000786043
0.000842968
0.00089326
0.000935591
0.000968867
0.000992244
0.00100513
0.00100721
0.000998416
0.000978975
0.000949441
0.000910724
0.000864114
0.000811277
0.000754207
0.000695131
0.00063645
0.000580616
0.000529839
0.000485827
0.000449629
0.000421578
0.00040135
0.000388067
0.000380464
0.000377049
0.000376252
0.000376725
0.000376916
0.000377225
0.000375552
0.000374613
0.000369054
3.48776e-05
3.0571e-05
2.7484e-05
2.52486e-05
2.38445e-05
2.34091e-05
2.409e-05
2.5958e-05
2.89662e-05
3.30446e-05
3.82305e-05
4.48797e-05
5.37632e-05
6.60875e-05
8.32643e-05
0.000106607
0.000136913
0.000174336
0.000218374
0.000268178
0.000322842
0.00038159
0.000443686
0.000507999
0.000573297
0.000638432
0.000701868
0.000761952
0.000817033
0.000865569
0.000906203
0.000937806
0.000959501
0.00097067
0.000970967
0.000960326
0.000938988
0.000907534
0.000866923
0.000818517
0.00076408
0.000705725
0.000645808
0.000586837
0.000531312
0.000481424
0.000438803
0.000404384
0.000378384
0.000360402
0.000349525
0.000344498
0.00034384
0.000346001
0.000349557
0.000353053
0.000356754
0.000358587
0.000361127
0.000359013
3.48859e-05
3.06096e-05
2.75578e-05
2.53335e-05
2.38836e-05
2.333e-05
2.38389e-05
2.55317e-05
2.84274e-05
3.24968e-05
3.77631e-05
4.44936e-05
5.33184e-05
6.52857e-05
8.16932e-05
0.000103825
0.000132565
0.000168219
0.000210448
0.000258488
0.000311423
0.000368392
0.000428575
0.000490768
0.000553882
0.000616775
0.000677995
0.000735945
0.000788999
0.000835611
0.000874403
0.000904214
0.000924134
0.000933519
0.000932003
0.000919518
0.000896317
0.000863016
0.00082063
0.000770603
0.000714804
0.000655471
0.000595089
0.000536261
0.000481509
0.000432969
0.000392146
0.00035982
0.000336063
0.000320384
0.000311842
0.000309222
0.000311091
0.000315956
0.000322339
0.000328961
0.000335889
0.000341101
0.000347024
0.000348339
3.48925e-05
3.06427e-05
2.76233e-05
2.5412e-05
2.39241e-05
2.32597e-05
2.35907e-05
2.50753e-05
2.77912e-05
3.17587e-05
3.70089e-05
4.37485e-05
5.24853e-05
6.41123e-05
7.97974e-05
0.000100765
0.00012795
0.000161781
0.000202079
0.000248191
0.000299222
0.000354256
0.000412396
0.000472371
0.000533175
0.000593686
0.000652532
0.000708176
0.00075903
0.000803555
0.000840359
0.000868258
0.000886312
0.000893849
0.000890491
0.000876167
0.000851148
0.00081609
0.000772075
0.000720637
0.000663761
0.000603818
0.000543417
0.000485238
0.000431795
0.000385122
0.00034655
0.000316655
0.000295337
0.000282003
0.0002757
0.000275274
0.000279388
0.00028664
0.000295539
0.00030505
0.000314989
0.000323403
0.000332573
0.000337256
3.48979e-05
3.06712e-05
2.76815e-05
2.54846e-05
2.39665e-05
2.32015e-05
2.33566e-05
2.46128e-05
2.70959e-05
3.08767e-05
3.60107e-05
4.26698e-05
5.12634e-05
6.2541e-05
7.75322e-05
9.73778e-05
0.000123026
0.000155003
0.000193275
0.000237314
0.000286277
0.000339223
0.000395191
0.000452858
0.000511248
0.000569261
0.000625596
0.000678783
0.000727278
0.000769563
0.000804242
0.000830111
0.000846206
0.000851837
0.000846611
0.000830461
0.000803684
0.000766983
0.000721515
0.000668921
0.000611313
0.000551196
0.0004913
0.000434357
0.00038283
0.000338594
0.000302754
0.000275639
0.000256949
0.000245986
0.000241794
0.000243312
0.000249338
0.000258605
0.000269704
0.000281761
0.000294431
0.000305819
0.000318053
0.000325995
3.49021e-05
3.06958e-05
2.77331e-05
2.55518e-05
2.40106e-05
2.31569e-05
2.31443e-05
2.41636e-05
2.63764e-05
2.98993e-05
3.4821e-05
4.13007e-05
4.96754e-05
6.05684e-05
7.48721e-05
9.3626e-05
0.00011776
0.000147868
0.000184041
0.000225882
0.000272624
0.000323334
0.000377003
0.000432273
0.000488158
0.000543579
0.000597291
0.000647892
0.000693888
0.000733792
0.000766215
0.000789942
0.000803994
0.000807664
0.000800554
0.000782607
0.000754151
0.00071595
0.000669249
0.000615808
0.00055788
0.000498108
0.000439326
0.000384283
0.000335335
0.00029414
0.000261515
0.000237511
0.000221614
0.000213021
0.000210791
0.000213974
0.000221544
0.000232406
0.000245332
0.000259543
0.000274608
0.000288684
0.000303753
0.000314794
3.49056e-05
3.07171e-05
2.7779e-05
2.56138e-05
2.40563e-05
2.31262e-05
2.29585e-05
2.37427e-05
2.56629e-05
2.88733e-05
3.34976e-05
3.96985e-05
4.77647e-05
5.82159e-05
7.18153e-05
8.94916e-05
0.000112131
0.000140363
0.000174384
0.000213921
0.000258305
0.000306632
0.000357876
0.000410656
0.000463957
0.000516706
0.000567705
0.000615612
0.00065899
0.00069639
0.000726439
0.000747924
0.000759857
0.000761524
0.000752528
0.00073283
0.000702802
0.000663281
0.000615618
0.000561708
0.000503951
0.000445131
0.000388156
0.000335744
0.000290074
0.000252517
0.000223558
0.000202945
0.000189959
0.000183703
0.000183267
0.000187828
0.00019656
0.000208574
0.000222912
0.000238842
0.000255912
0.000272338
0.000289965
0.000303892
3.49083e-05
3.07357e-05
2.78199e-05
2.56711e-05
2.41029e-05
2.31088e-05
2.28013e-05
2.336e-05