/*--------------------------------*- C++ -*----------------------------------*\
| =========                 |                                                 |
| \\      /  F ield         | OpenFOAM: The Open Source CFD Toolbox           |
|  \\    /   O peration     | Version:  2.4.0                                 |
|   \\  /    A nd           | Web:      www.OpenFOAM.org                      |
|    \\/     M anipulation  |                                                 |
\*---------------------------------------------------------------------------*/
FoamFile
{
    version     2.0;
    format      ascii;
    class       volVectorField;
    location    "2.89";
    object      U;
}
// * * * * * * * * * * * * * * * * * * * * * * * * * * * * * * * * * * * * * //

dimensions      [0 1 -1 0 0 0 0];

internalField   nonuniform List<vector> 
6000
(
(0.513477 -0.0430633 -6.40724e-18)
(-0.317806 0.0668518 0)
(0.112301 -0.0274543 9.84022e-18)
(0.00763555 -0.00147218 0)
(0.00613538 6.60055e-06 0)
(-0.0295725 0.00564045 0)
(-0.00582301 0.00113727 4.21879e-18)
(-0.0186353 0.00327968 5.76068e-23)
(-0.0117515 0.00248981 0)
(-0.0301648 0.00606674 0)
(-0.0557986 0.0107376 3.48166e-18)
(-0.0927459 0.0155906 -6.58269e-18)
(-0.11681 0.0167107 0)
(-0.108291 0.0116272 0)
(-0.0518902 -0.000372189 -1.59828e-18)
(0.065765 -0.0178827 0)
(0.217577 -0.0332905 0)
(0.339826 -0.0342186 -1.29641e-18)
(0.301139 -0.0205214 -1.23246e-18)
(0.151946 -0.00906037 0)
(0.125916 -0.0119797 1.47761e-18)
(0.140957 -0.00565936 7.18892e-19)
(-0.0468198 0.0176942 -6.03833e-19)
(-0.286011 0.031559 0)
(-0.46256 0.0309501 0)
(-0.565948 0.0254075 0)
(-0.623718 0.0194213 1.94773e-20)
(-0.651903 0.0132214 -1.24136e-20)
(-0.657394 0.00684679 0)
(-0.643903 0.000105963 0)
(-0.616974 -0.00573148 1.30308e-20)
(-0.57657 -0.0109112 0)
(-0.522967 -0.0151448 2.38804e-19)
(-0.456099 -0.0181771 -3.21336e-19)
(-0.375909 -0.0197252 0)
(-0.282882 -0.019479 0)
(-0.178676 -0.0171402 1.17071e-18)
(-0.0665054 -0.012494 0)
(0.0488398 -0.00528738 1.40857e-18)
(0.16079 0.00403618 0)
(0.263002 0.0147205 0)
(0.349334 0.0259268 2.7782e-18)
(0.415009 0.0366676 -5.32975e-18)
(0.458103 0.046659 0)
(0.471272 0.054036 0)
(0.452899 0.0568652 2.45781e-18)
(0.415711 0.0559888 0)
(0.376744 0.0534454 0)
(0.347509 0.0513978 -5.10541e-18)
(0.331486 0.0510133 -5.23276e-18)
(0.327766 0.0525942 -5.36012e-18)
(0.334023 0.056064 -2.75899e-21)
(0.347541 0.0610819 5.55783e-18)
(0.367312 0.0671845 0)
(0.391865 0.0744653 -6.08073e-21)
(0.424993 0.0835481 -5.41043e-18)
(0.457591 0.0938146 5.04399e-18)
(0.516738 0.10842 4.53848e-18)
(0.540163 0.119609 1.74518e-20)
(0.679681 0.150452 0)
(0.726727 -0.108541 4.88672e-18)
(-0.209293 0.0626406 5.74505e-18)
(0.0922412 -0.0316669 -4.77452e-18)
(-0.0244806 0.00918381 -5.0849e-18)
(0.00574693 0.00116262 0)
(-0.0409313 0.00829257 0)
(-0.0125404 0.0021014 -4.14542e-18)
(-0.0271204 0.00495419 7.97791e-18)
(-0.0221748 0.00492221 0)
(-0.0453849 0.0100829 0)
(-0.0744243 0.0158982 -3.36567e-18)
(-0.109574 0.0202007 3.15796e-18)
(-0.12798 0.0192921 1.49121e-18)
(-0.117325 0.010979 0)
(-0.0620894 -0.00580612 1.47305e-18)
(0.0527188 -0.0283071 0)
(0.205233 -0.046051 0)
(0.329144 -0.0396216 0)
(0.357666 -0.0181111 0)
(0.239784 -0.00479644 0)
(0.162493 -0.00893457 2.16249e-21)
(0.100676 0.0109043 0)
(-0.193394 0.0504639 -5.74029e-19)
(-0.455736 0.0605838 0)
(-0.58316 0.0484543 0)
(-0.641341 0.0354973 4.60442e-20)
(-0.670439 0.0252715 -1.81996e-20)
(-0.680387 0.0161194 1.12364e-21)
(-0.675946 0.00750398 1.12261e-20)
(-0.659191 -0.000927787 0)
(-0.628303 -0.00867768 -1.20091e-20)
(-0.584044 -0.0156979 -7.49721e-20)
(-0.52659 -0.021699 -2.17817e-21)
(-0.455905 -0.0263863 2.92177e-19)
(-0.371954 -0.0294024 -3.68317e-19)
(-0.275253 -0.0302988 0)
(-0.167498 -0.0285963 0)
(-0.0519524 -0.0239322 0)
(0.0666519 -0.0160531 0)
(0.182108 -0.00524662 0)
(0.288046 0.00774084 -2.57962e-18)
(0.378419 0.0218965 0)
(0.448673 0.0360067 2.46537e-18)
(0.49599 0.0491445 2.38998e-18)
(0.522616 0.060586 0)
(0.530032 0.0691478 0)
(0.517911 0.0734477 0)
(0.491754 0.0736963 0)
(0.461467 0.0718051 4.94845e-18)
(0.436421 0.0700158 0)
(0.422149 0.0698565 0)
(0.420178 0.0719815 -5.37024e-18)
(0.429674 0.0763863 -5.46649e-18)
(0.449571 0.0831758 0)
(0.476751 0.0921068 -1.09232e-17)
(0.51402 0.103474 0)
(0.552131 0.116159 -9.91779e-18)
(0.617828 0.13441 -4.42667e-18)
(0.649454 0.148207 3.15105e-18)
(0.809621 0.186737 2.2665e-18)
(0.798617 -0.0913392 -3.36062e-19)
(-0.0779066 0.0480408 -5.36926e-18)
(0.0671405 -0.027593 0)
(-0.056074 0.0173087 5.04073e-18)
(0.00284666 0.0022627 0)
(-0.0451048 0.00926967 0)
(-0.0171595 0.00278818 0)
(-0.0317951 0.00592701 -3.8999e-18)
(-0.0282893 0.0070211 0)
(-0.051924 0.0132779 -3.478e-18)
(-0.0800792 0.0196202 0)
(-0.113203 0.0229481 0)
(-0.131257 0.0200832 -1.40935e-18)
(-0.122206 0.0083993 0)
(-0.0699999 -0.0129302 0)
(0.039403 -0.0398771 0)
(0.18802 -0.0585228 0)
(0.310913 -0.045622 0)
(0.34734 -0.0132316 0)
(0.260051 0.00331552 1.27031e-18)
(0.169526 0.000858226 -1.39209e-18)
(0.0352399 0.0386159 0)
(-0.284023 0.0858404 2.57196e-21)
(-0.492973 0.082134 -3.47268e-19)
(-0.580657 0.0574059 0)
(-0.631001 0.0396821 -8.41859e-20)
(-0.659705 0.0268881 0)
(-0.670842 0.0158356 9.54506e-21)
(-0.667157 0.00553496 -1.02104e-20)
(-0.649589 -0.00414785 0)
(-0.618111 -0.0132797 0)
(-0.57333 -0.0216266 6.75383e-20)
(-0.515408 -0.0289289 -2.22752e-21)
(-0.444295 -0.0348982 0)
(-0.359947 -0.0391462 6.5564e-19)
(-0.262863 -0.0411273 0)
(-0.154737 -0.040212 9.21591e-19)
(-0.0388064 -0.0358703 0)
(0.0802059 -0.0277789 0)
(0.196102 -0.0161372 0)
(0.302451 -0.00167849 2.32019e-18)
(0.393273 0.0144676 0)
(0.464092 0.0309043 0)
(0.512329 0.0463475 -2.20775e-18)
(0.539365 0.0598937 0)
(0.54839 0.0707005 0)
(0.542504 0.0775314 2.25252e-18)
(0.525814 0.0802208 -2.32229e-18)
(0.504104 0.0799504 -2.4046e-18)
(0.484155 0.078609 0)
(0.471644 0.0779382 0)
(0.469662 0.0790593 0)
(0.478611 0.0825215 5.40218e-18)
(0.498039 0.0886208 5.45179e-18)
(0.525577 0.0969899 5.41999e-18)
(0.563865 0.107784 0)
(0.604419 0.120562 4.9276e-18)
(0.672314 0.137674 8.79524e-18)
(0.708434 0.153412 0)
(0.873725 0.188045 -2.25238e-18)
(0.836446 -0.059927 -2.63425e-19)
(0.0438253 0.0395104 4.93671e-18)
(0.0470906 -0.0202861 -4.63926e-18)
(-0.0762517 0.0223409 0)
(-8.31775e-05 0.00264513 0)
(-0.0471549 0.00998184 0)
(-0.0209428 0.00329945 0)
(-0.035254 0.00674985 0)
(-0.0327244 0.00877788 0)
(-0.0557252 0.0159385 3.38007e-18)
(-0.0826828 0.0227172 3.13016e-18)
(-0.114677 0.0254124 0)
(-0.133265 0.0208875 0)
(-0.126337 0.0061043 0)
(-0.0778784 -0.0197287 1.24762e-18)
(0.0255313 -0.0513259 0)
(0.169251 -0.0709083 1.19508e-18)
(0.291502 -0.0517599 -1.08033e-18)
(0.329581 -0.00898347 0)
(0.258957 0.0125658 -1.23346e-18)
(0.162166 0.0155927 0)
(-0.0269777 0.0697698 -6.35942e-19)
(-0.334497 0.117589 1.02336e-18)
(-0.49194 0.0978085 3.26231e-19)
(-0.566139 0.0644298 0)
(-0.616187 0.0437554 3.83576e-20)
(-0.645508 0.0288595 0)
(-0.657241 0.0160659 6.6962e-21)
(-0.653732 0.00416137 0)
(-0.635962 -0.00707893 0)
(-0.604429 -0.0176723 0)
(-0.559641 -0.0274372 5.97981e-20)
(-0.501748 -0.0361403 -3.48229e-19)
(-0.430689 -0.0435002 0)
(-0.346401 -0.049095 -2.98348e-19)
(-0.24937 -0.0522765 0)
(-0.141279 -0.052257 -8.4356e-19)
(-0.025339 -0.0483275 0)
(0.0936203 -0.0400061 0)
(0.209364 -0.0274135 0)
(0.315443 -0.0113412 2.11804e-18)
(0.405911 0.00693615 0)
(0.476337 0.025802 2.07e-18)
(0.524337 0.0436956 -2.0473e-18)
(0.550943 0.0594263 0)
(0.559625 0.0718264 -2.07836e-18)
(0.554819 0.0799771 -4.28262e-18)
(0.541443 0.0838281 2.22928e-18)
(0.524607 0.0844558 4.65534e-18)
(0.509355 0.0835672 -4.85639e-18)
(0.49991 0.0828813 -5.04655e-18)
(0.499026 0.0837267 0)
(0.507566 0.0869492 -5.33901e-18)
(0.525838 0.0925551 -5.40267e-18)
(0.552212 0.100616 -5.36004e-18)
(0.589441 0.111086 0)
(0.629819 0.124196 0)
(0.696789 0.140401 -4.35083e-18)
(0.734907 0.157992 0)
(0.896497 0.187703 2.16741e-18)
(0.861465 -0.0344657 -2.46474e-19)
(0.153263 0.0355974 -8.98865e-20)
(0.053938 -0.0144503 4.5968e-18)
(-0.0865584 0.0250045 4.98179e-18)
(-0.00297051 0.00260034 0)
(-0.0484458 0.0105793 -4.25745e-18)
(-0.0241897 0.00374189 0)
(-0.038098 0.00749484 0)
(-0.0361632 0.0103333 0)
(-0.0581539 0.0183182 3.30081e-18)
(-0.0839481 0.0255265 -3.03825e-18)
(-0.115238 0.0277801 0)
(-0.134703 0.0217501 0)
(-0.130278 0.0040452 0)
(-0.0860982 -0.0261175 -1.19318e-18)
(0.0108698 -0.062351 0)
(0.148814 -0.0830676 -1.14696e-18)
(0.270823 -0.0581058 1.0463e-18)
(0.310151 -0.00539214 0)
(0.249644 0.0221849 0)
(0.146508 0.0338295 6.60282e-19)
(-0.0810354 0.101678 6.12463e-19)
(-0.359838 0.143738 -9.64094e-19)
(-0.480805 0.109607 -2.94074e-19)
(-0.550934 0.0709563 0)
(-0.60057 0.0478755 3.36918e-20)
(-0.629917 0.0308753 0)
(-0.641756 0.0162784 -6.22662e-21)
(-0.63824 0.00274117 6.8589e-21)
(-0.62041 -0.0100526 0)
(-0.58893 -0.0221287 0)
(-0.544243 -0.0333347 -1.10677e-19)
(-0.486495 -0.0434633 1.61667e-19)
(-0.415608 -0.0522412 0)
(-0.331499 -0.0592115 -2.75495e-19)
(-0.234631 -0.0636198 0)
(-0.126676 -0.0645161 7.84857e-19)
(-0.0108307 -0.0610026 0)
(0.107914 -0.0524338 0)
(0.223299 -0.0388647 0)
(0.328861 -0.0211453 -1.99918e-18)
(0.418664 -0.000701625 -1.97946e-18)
(0.488311 0.0206179 -1.96077e-18)
(0.535565 0.0409556 6.23893e-21)
(0.561319 0.0587811 -1.95019e-18)
(0.569107 0.072751 1.98025e-18)
(0.563915 0.0819495 4.08355e-18)
(0.55119 0.0864313 0)
(0.536111 0.0873792 -2.24547e-18)
(0.523122 0.0865476 4.71661e-18)
(0.515529 0.085658 4.92935e-18)
(0.515481 0.0860368 0)
(0.523834 0.0884805 0)
(0.541222 0.0932321 0)
(0.566494 0.10065 5.2978e-18)
(0.60254 0.110417 0)
(0.64223 0.123 0)
(0.708004 0.138142 4.24633e-18)
(0.746843 0.155518 -2.96916e-18)
(0.904424 0.181972 -2.10425e-18)
(0.880248 -0.0137279 -2.28007e-19)
(0.250984 0.0348359 -4.54643e-18)
(0.0812535 -0.00958778 0)
(-0.0880342 0.0266837 -4.96e-18)
(-0.00584014 0.00238584 -4.46198e-18)
(-0.0493289 0.0111156 4.52081e-22)
(-0.0269535 0.00413168 0)
(-0.0404748 0.00817187 0)
(-0.0388402 0.0117131 0)
(-0.0596649 0.020475 -3.23211e-18)
(-0.0843461 0.0281329 0)
(-0.115149 0.0300882 0)
(-0.135683 0.0227172 1.25448e-18)
(-0.134051 0.00230398 0)
(-0.0945773 -0.0319379 0)
(-0.00443708 -0.072667 0)
(0.126813 -0.0947683 0)
(0.248858 -0.0645177 -1.01388e-18)
(0.28967 -0.00230853 0)
(0.236344 0.0320677 1.16827e-18)
(0.125406 0.0545973 -6.43572e-19)
(-0.1259 0.132838 -5.85606e-19)
(-0.369933 0.165197 9.05605e-19)
(-0.467098 0.119357 5.47509e-19)
(-0.535452 0.0772812 0)
(-0.584132 0.0519512 -3.16833e-20)
(-0.613128 0.0328724 0)
(-0.624813 0.0164665 0)
(-0.621195 0.00129363 -1.2262e-20)
(-0.603327 -0.0130397 0)
(-0.571911 -0.026588 0)
(-0.52735 -0.039227 1.03285e-19)
(-0.469779 -0.0507742 0)
(-0.399105 -0.0609647 0)
(-0.315221 -0.0693068 2.62641e-19)
(-0.218559 -0.074938 0)
(-0.110776 -0.0767446 -7.51231e-19)
(0.00492458 -0.073631 0)
(0.123369 -0.064794 0)
(0.238294 -0.050233 0)
(0.343209 -0.0308524 0)
(0.432176 -0.00823421 1.90198e-18)
(0.500821 0.0155342 1.87245e-18)
(0.547025 0.0382953 6.22481e-21)
(0.571639 0.0581969 1.87947e-18)
(0.578223 0.0736929 1.89848e-18)
(0.572037 0.0838191 -1.96468e-18)
(0.558858 0.0887107 0)
(0.544015 0.0896881 -2.16872e-18)
(0.531755 0.0886364 2.28809e-18)
(0.524909 0.0873531 -4.80401e-18)
(0.525183 0.0871911 0)
(0.533291 0.0890223 0)
(0.54997 0.0932374 -5.23598e-18)
(0.574401 0.100021 -5.20711e-18)
(0.609611 0.109119 5.05387e-18)
(0.648723 0.121294 4.69187e-18)
(0.713832 0.135483 -4.15706e-18)
(0.752849 0.153072 2.89097e-18)
(0.907902 0.176627 0)
(0.895317 0.00501683 -2.04961e-19)
(0.337851 0.0365182 0)
(0.120077 -0.00435107 4.38576e-18)
(-0.0781193 0.027426 4.89871e-18)
(-0.00848025 0.00225769 -4.46073e-22)
(-0.0498957 0.0115912 4.17448e-18)
(-0.0292256 0.00447035 0)
(-0.0424172 0.00877651 0)
(-0.040853 0.0129265 0)
(-0.0604446 0.0224315 1.5879e-18)
(-0.0840408 0.0305713 1.45128e-18)
(-0.114468 0.0323548 0)
(-0.136174 0.0238075 -1.22676e-18)
(-0.137542 0.000901381 1.15157e-18)
(-0.103116 -0.037166 0)
(-0.0201342 -0.0822154 0)
(0.103522 -0.105987 0)
(0.225712 -0.0709926 4.85083e-21)
(0.268321 0.000357706 0)
(0.22067 0.0422485 -2.29301e-18)
(0.100479 0.0771612 6.22368e-19)
(-0.161498 0.162249 5.65702e-19)
(-0.370816 0.18309 -9.50257e-21)
(-0.452667 0.127901 -2.56343e-19)
(-0.519479 0.0834312 0)
(-0.566823 0.0559184 0)
(-0.595214 0.034809 0)
(-0.606578 0.0166134 9.93473e-22)
(-0.602788 -0.000180766 1.03423e-20)
(-0.584863 -0.0160332 0)
(-0.553496 -0.0310351 0)
(-0.509056 -0.0450909 -9.74622e-20)
(-0.451669 -0.0580414 -7.13123e-20)
(-0.381226 -0.0696318 0)
(-0.297588 -0.0793362 0)
(-0.201151 -0.0861835 0)
(-0.0935546 -0.0888929 0)
(0.0219646 -0.0861625 0)
(0.140053 -0.0770352 0)
(0.254457 -0.0614635 0)
(0.358642 -0.040405 0)
(0.446654 -0.0156009 0)
(0.51414 0.0106156 -6.70872e-21)
(0.559078 0.0357862 1.80796e-18)
(0.582332 0.0577524 0)
(0.58749 0.0747485 -3.68324e-18)
(0.579976 0.08574 -1.89962e-18)
(0.565802 0.0909291 0)
(0.550456 0.0917849 2.1085e-18)
(0.538137 0.0903603 -2.23033e-18)
(0.531425 0.0885757 4.69717e-18)
(0.531717 0.0878422 -4.90338e-18)
(0.539567 0.0890762 0)
(0.555749 0.0926352 5.10798e-21)
(0.579593 0.0988266 5.13476e-18)
(0.614254 0.10734 -9.94742e-18)
(0.653007 0.11905 -1.3055e-20)
(0.71777 0.132498 -4.03735e-18)
(0.757018 0.149781 2.76628e-18)
(0.910288 0.171267 1.89921e-18)
(0.907626 0.0223087 -9.07348e-19)
(0.414765 0.0400941 0)
(0.166262 0.00157391 9.86668e-21)
(-0.0565353 0.0276111 -3.26318e-21)
(-0.0102398 0.00242491 4.48536e-18)
(-0.0501416 0.0120061 4.15115e-18)
(-0.0309818 0.00475482 0)
(-0.043923 0.00930366 3.62472e-18)
(-0.0422453 0.013977 0)
(-0.0605752 0.0241995 -1.56261e-18)
(-0.0830871 0.0328579 2.79741e-22)
(-0.113176 0.0345874 -1.30154e-18)
(-0.136088 0.0250271 0)
(-0.140581 -0.000156446 -2.26153e-18)
(-0.111465 -0.0418021 0)
(-0.0359181 -0.0909817 0)
(0.0793558 -0.116744 0)
(0.201562 -0.0775606 9.8916e-19)
(0.246263 0.00265023 0)
(0.203395 0.052764 1.12876e-18)
(0.0736743 0.10061 -1.20897e-18)
(-0.188805 0.189514 0)
(-0.366087 0.198155 -1.00508e-20)
(-0.437907 0.135622 0)
(-0.502886 0.0893792 0)
(-0.548645 0.0597431 -2.47412e-20)
(-0.576243 0.0366652 0)
(-0.587165 0.016712 -1.21889e-21)
(-0.583141 -0.00168017 -4.63751e-21)
(-0.565128 -0.0190313 -3.28236e-21)
(-0.533785 -0.0354684 6.83169e-21)
(-0.489453 -0.0509248 4.67256e-20)
(-0.432247 -0.065264 1.37354e-19)
(-0.362042 -0.0782425 0)
(-0.278661 -0.089302 2.41729e-19)
(-0.18246 -0.0973614 0)
(-0.0750543 -0.100968 0)
(0.0402473 -0.0986053 0)
(0.15794 -0.0891641 8.53486e-19)
(0.271778 -0.0725585 0)
(0.375173 -0.0497975 0)
(0.462137 -0.0227868 1.78974e-18)
(0.528341 0.00588763 -1.77553e-18)
(0.571845 0.0334658 0)
(0.593561 0.0574898 0)
(0.597117 0.0759683 1.79729e-18)
(0.588056 0.0877847 1.85419e-18)
(0.572572 0.0932004 -1.94197e-18)
(0.556312 0.0938398 0)
(0.543508 0.0919475 0)
(0.5366 0.0895947 0)
(0.536763 0.0882645 2.38952e-21)
(0.544381 0.0888947 0)
(0.560199 0.0918416 5.08474e-18)
(0.583623 0.0974608 0)
(0.617912 0.105404 4.9073e-18)
(0.656437 0.116619 -4.53215e-18)
(0.721007 0.129418 7.92127e-18)
(0.760504 0.146246 -2.70372e-18)
(0.912365 0.166089 -1.84834e-18)
(0.917663 0.0379427 1.70954e-19)
(0.482602 0.0450273 -3.96521e-18)
(0.217038 0.00815908 -4.14234e-18)
(-0.0260989 0.0279706 -3.25984e-21)
(-0.00997675 0.00302399 -4.49996e-18)
(-0.049989 0.0123814 -4.14178e-18)
(-0.0321927 0.00498303 0)
(-0.04498 0.00974971 -3.58991e-18)
(-0.0430367 0.0148659 0)
(-0.0600911 0.025785 -1.54165e-18)
(-0.081494 0.0349982 -1.40237e-18)
(-0.111228 0.0367845 1.28044e-18)
(-0.135317 0.0263721 -1.18051e-18)
(-0.142979 -0.000873367 1.11504e-18)
(-0.119353 -0.0458518 -1.06568e-18)
(-0.0514707 -0.0989564 1.06435e-18)
(0.0548267 -0.127051 0)
(0.176599 -0.084244 0)
(0.223656 0.00458625 0)
(0.184986 0.0635991 5.5224e-19)
(0.0464585 0.124328 5.87686e-19)
(-0.209033 0.214422 0)
(-0.357875 0.210903 -3.77273e-19)
(-0.422853 0.142732 0)
(-0.485621 0.0950931 0)
(-0.529624 0.0634053 2.38403e-20)
(-0.556286 0.0384279 -4.05223e-21)
(-0.56667 0.0167556 2.5532e-22)
(-0.562359 -0.00320757 0)
(-0.544226 -0.0220365 6.17276e-21)
(-0.512883 -0.0398916 -1.30668e-20)
(-0.468643 -0.0567332 0)
(-0.411612 -0.0724473 -6.65277e-20)
(-0.341646 -0.0868037 1.81126e-19)
(-0.258528 -0.0992127 -2.36644e-19)
(-0.162568 -0.108483 0)
(-0.0553552 -0.112982 0)
(0.059687 -0.11097 0)
(0.176953 -0.101192 -8.39973e-19)
(0.290192 -0.0835277 0)
(0.392745 -0.0590355 0)
(0.478589 -0.0297916 -1.76287e-18)
(0.543408 0.00135822 0)
(0.585343 0.0313493 1.72261e-18)
(0.60537 0.057428 -1.73797e-18)
(0.607179 0.0773765 0)
(0.59641 0.089989 1.80948e-18)
(0.57941 0.09558 3.8026e-18)
(0.561979 0.0959338 -2.01417e-18)
(0.548426 0.0935024 0)
(0.541127 0.0905289 0)
(0.541084 0.0885794 2.37627e-18)
(0.548506 0.0886067 0)
(0.56406 0.0909628 5.0201e-18)
(0.587178 0.0960143 0)
(0.621197 0.1034 4.84221e-18)
(0.659563 0.114098 4.45814e-18)
(0.724009 0.126305 -3.90217e-18)
(0.763754 0.142566 0)
(0.914395 0.161056 1.78423e-18)
(0.925838 0.0519249 2.03539e-19)
(0.54221 0.0508677 7.40595e-20)
(0.270235 0.0152941 4.04966e-18)
(0.0113063 0.028968 -3.43227e-21)
(-0.00662713 0.00413409 -5.69982e-22)
(-0.0492583 0.0127596 0)
(-0.0328235 0.00515469 0)
(-0.045575 0.010113 0)
(-0.0432366 0.015594 -1.6481e-18)
(-0.0590045 0.0271907 3.04484e-18)
(-0.0792501 0.036992 0)
(-0.108569 0.0389384 1.26116e-18)
(-0.133746 0.0278312 2.63698e-21)
(-0.144547 -0.0012595 -1.09495e-18)
(-0.126511 -0.049323 7.75331e-21)
(-0.066485 -0.106153 -1.05672e-18)
(0.0304779 -0.136884 0)
(0.150959 -0.0910384 0)
(0.20066 0.00616829 0)
(0.165777 0.0746924 -5.47208e-19)
(0.0198167 0.147855 0)
(-0.22333 0.236907 4.90099e-19)
(-0.347438 0.221733 3.43659e-19)
(-0.407453 0.14935 -2.00008e-19)
(-0.467675 0.100547 0)
(-0.509805 0.066892 0)
(-0.535415 0.0400878 3.92912e-21)
(-0.54519 0.0167388 0)
(-0.540548 -0.00476633 2.23205e-21)
(-0.522266 -0.0250519 -2.91198e-21)
(-0.490901 -0.0443081 6.27378e-21)
(-0.446739 -0.0625201 -4.20218e-20)
(-0.389876 -0.0795959 0)
(-0.320148 -0.0953206 -1.77691e-19)
(-0.237295 -0.109075 0)
(-0.14158 -0.119556 0)
(-0.0345601 -0.124941 6.75607e-19)
(0.0801756 -0.123264 0)
(0.196991 -0.113129 0)
(0.309603 -0.0943785 0)
(0.411272 -0.0681245 0)
(0.495934 -0.0366175 0)
(0.559282 -0.00297053 0)
(0.599533 0.0294434 -3.39714e-18)
(0.617747 0.0575764 1.71606e-18)
(0.617683 0.0789853 1.72094e-18)
(0.605082 0.0923712 -3.5533e-18)
(0.586421 0.0980973 -1.86668e-18)
(0.567644 0.0981092 1.9799e-18)
(0.553162 0.0950781 -2.10463e-18)
(0.545339 0.0914362 0)
(0.545042 0.0888447 8.86712e-22)
(0.552304 0.0882706 -4.86395e-18)
(0.567676 0.0900501 -4.97225e-18)
(0.590576 0.0945421 -4.96138e-18)
(0.624394 0.10138 -9.5998e-18)
(0.662642 0.111548 -4.4196e-18)
(0.726989 0.123194 3.83681e-18)
(0.766967 0.138827 2.56462e-18)
(0.91649 0.156153 -1.75954e-18)
(0.932521 0.0644576 -1.49091e-19)
(0.594389 0.0572717 3.78651e-18)
(0.324163 0.0228549 2.34918e-21)
(0.0548723 0.0306647 -3.81286e-21)
(0.000784904 0.00609727 4.44064e-18)
(-0.0476084 0.0131995 4.16132e-18)
(-0.0328232 0.00527734 -3.77839e-18)
(-0.0456951 0.0103941 1.76706e-18)
(-0.0428526 0.016162 -5.20169e-22)
(-0.0573181 0.028417 -1.50532e-18)
(-0.0763367 0.0388347 -1.36617e-18)
(-0.105143 0.0410373 -1.2457e-18)
(-0.131268 0.0293885 2.3003e-18)
(-0.145103 -0.0013298 5.65039e-21)
(-0.132679 -0.0522247 1.04399e-18)
(-0.0806893 -0.112563 0)
(0.00682393 -0.146231 1.01846e-18)
(0.12467 -0.0979095 0)
(0.17742 0.00738754 -9.83065e-19)
(0.14602 0.0859537 -5.36629e-19)
(-0.00561252 0.170815 -5.48622e-19)
(-0.232692 0.256994 -8.40205e-21)
(-0.335522 0.230969 -3.32447e-19)
(-0.39165 0.155543 1.9384e-19)
(-0.449058 0.105721 0)
(-0.489235 0.0701943 -1.75674e-20)
(-0.513709 0.0416381 0)
(-0.522817 0.0166577 0)
(-0.517809 -0.00635905 -2.17742e-21)
(-0.499355 -0.02808 0)
(-0.467953 -0.0487208 0)
(-0.423856 -0.0682888 4.11771e-20)
(-0.367153 -0.0867136 0)
(-0.297661 -0.103797 0)
(-0.215076 -0.118893 2.24687e-19)
(-0.119605 -0.130586 0)
(-0.0127879 -0.13685 -6.69494e-19)
(0.1016 -0.135492 0)
(0.217944 -0.124979 8.15286e-19)
(0.329902 -0.105118 0)
(0.430651 -0.0770699 0)
(0.514078 -0.0432679 0)
(0.575883 -0.00709885 0)
(0.614357 0.027751 1.68049e-18)
(0.630648 0.0579404 0)
(0.628608 0.0808013 -3.39133e-18)
(0.614074 0.0949411 1.74839e-18)
(0.593642 0.100768 -1.8319e-18)
(0.573394 0.10039 1.9461e-18)
(0.557852 0.0967045 2.07475e-18)
(0.549405 0.0923475 0)
(0.548821 0.0890888 2.3172e-18)
(0.555954 0.0879111 7.22265e-18)
(0.571218 0.0891249 -4.92188e-18)
(0.593977 0.0930685 4.92418e-18)
(0.627651 0.0993697 4.76298e-18)
(0.665811 0.109 0)
(0.730069 0.120101 -3.80704e-18)
(0.770256 0.135073 -5.06166e-18)
(0.918714 0.151358 0)
(0.938022 0.0757435 3.92031e-19)
(0.639896 0.0639736 0)
(0.377494 0.0307182 7.77185e-23)
(0.102794 0.0332204 -4.30764e-21)
(0.0149515 0.00852945 -4.36611e-18)
(-0.0444362 0.0137935 -8.36691e-18)
(-0.0321044 0.00537173 7.55915e-18)
(-0.0453254 0.0105962 -1.75652e-18)
(-0.041894 0.0165712 1.61857e-18)
(-0.0550327 0.0294631 0)
(-0.0727353 0.0405199 -2.83458e-22)
(-0.100902 0.0430672 0)
(-0.12779 0.0310246 -2.27425e-18)
(-0.144489 -0.00110268 1.0778e-18)
(-0.137626 -0.0545674 0)
(-0.0938093 -0.118195 0)
(-0.0157493 -0.155032 -1.01271e-18)
(0.0976684 -0.104801 0)
(0.154069 0.00822174 9.88368e-19)
(0.125898 0.0972772 5.32737e-19)
(-0.0294157 0.192909 4.3223e-21)
(-0.237943 0.274759 -4.56869e-19)
(-0.32257 0.238861 -3.0317e-19)
(-0.375398 0.161344 0)
(-0.429798 0.110601 0)
(-0.467971 0.0733063 1.71296e-20)
(-0.491242 0.043074 0)
(-0.499642 0.0165097 -2.58908e-21)
(-0.494243 -0.00798739 -6.35836e-22)
(-0.4756 -0.0311222 2.21706e-21)
(-0.444147 -0.0531316 -5.43042e-21)
(-0.400108 -0.0740418 3.88119e-20)
(-0.343559 -0.0938033 -5.96833e-20)
(-0.274301 -0.112237 1.67538e-19)
(-0.191983 -0.128673 -2.22382e-19)
(-0.0967563 -0.141579 0)
(0.00983887 -0.148714 0)
(0.123842 -0.147658 0)
(0.239695 -0.136751 -3.43097e-21)
(0.350977 -0.115752 8.4378e-19)
(0.450776 -0.0858775 0)
(0.532923 -0.0497467 0)
(0.593126 -0.0110284 0)
(0.629744 0.0262731 0)
(0.644022 0.0585225 0)
(0.639914 0.0828282 6.36151e-21)
(0.623363 0.0977039 0)
(0.60108 0.103602 3.60981e-18)
(0.579267 0.102791 -3.83647e-18)
(0.562566 0.0983992 -2.04561e-18)
(0.553416 0.0932804 0)
(0.552511 0.0893258 0)
(0.559544 0.0875375 -4.76813e-18)
(0.574766 0.0881946 3.1038e-21)
(0.597458 0.0916016 -4.87821e-18)
(0.631046 0.0973769 4.71823e-18)
(0.669148 0.106467 4.32712e-18)
(0.733318 0.117035 -3.75669e-18)
(0.773692 0.131328 4.98717e-18)
(0.921107 0.146659 1.69405e-18)
(0.942594 0.0859321 1.3184e-19)
(0.679436 0.0707642 -3.5154e-18)
(0.429213 0.0387684 -7.61606e-18)
(0.153627 0.0366906 -4.93801e-21)
(0.0359804 0.0113883 4.27612e-18)
(-0.0387527 0.014663 4.20083e-18)
(-0.0305135 0.00547729 -1.89456e-18)
(-0.0444421 0.0107266 0)
(-0.0403739 0.0168239 0)
(-0.0521523 0.0303274 1.4778e-18)
(-0.0684326 0.0420396 1.3375e-18)
(-0.0958091 0.0450125 0)
(-0.123236 0.0327181 1.1268e-18)
(-0.142576 -0.000598801 0)
(-0.141153 -0.0563631 0)
(-0.105586 -0.123063 0)
(-0.0369826 -0.163181 0)
(0.0699212 -0.11166 9.75917e-19)
(0.130736 0.00863472 4.95065e-19)
(0.10552 0.108547 -5.23927e-19)
(-0.0513104 0.213904 4.1973e-21)
(-0.23976 0.290302 0)
(-0.308845 0.245608 2.95054e-19)
(-0.358664 0.166769 0)
(-0.409926 0.11518 0)
(-0.446065 0.076225 1.33306e-20)
(-0.468088 0.0443925 2.21686e-21)
(-0.47575 0.0162933 2.53612e-21)
(-0.46994 -0.00965223 6.23287e-22)
(-0.451099 -0.0341797 -4.15562e-21)
(-0.419589 -0.057542 1.04703e-20)
(-0.375603 -0.0797813 -3.82122e-20)
(-0.319205 -0.100868 5.88932e-20)
(-0.25018 -0.120645 -1.8149e-21)
(-0.168129 -0.138418 -2.16989e-19)
(-0.073144 -0.152538 0)
(0.0331984 -0.160536 0)
(0.146786 -0.159767 0)
(0.262131 -0.148449 -1.61016e-18)
(0.372717 -0.126287 -8.43193e-19)
(0.471538 -0.0945529 0)
(0.552371 -0.0560585 0)
(0.610923 -0.0147617 -1.65787e-18)
(0.64562 0.0250094 0)
(0.657808 0.0593241 0)
(0.651555 0.0850677 3.29893e-18)
(0.632919 0.100662 -1.69227e-18)
(0.60872 0.106603 -3.55814e-18)
(0.585274 0.105319 1.86644e-21)
(0.567337 0.100173 4.04064e-18)
(0.557416 0.0942456 2.14998e-18)
(0.556162 0.0895627 0)
(0.563114 0.0871523 2.36258e-18)
(0.578354 0.0872586 4.84035e-18)
(0.601053 0.0901408 4.84404e-18)
(0.634615 0.0954027 -4.68943e-18)
(0.672693 0.103953 -4.30042e-18)
(0.736778 0.113997 3.7337e-18)
(0.777318 0.127605 -2.46823e-18)
(0.923694 0.142046 -1.68356e-18)
(0.946442 0.0951451 1.24595e-19)
(0.713673 0.0774838 3.48517e-18)
(0.478562 0.0468944 3.70961e-21)
(0.206198 0.0410285 -5.64949e-21)
(0.0630406 0.0149177 0)
(-0.0291445 0.0157673 0)
(-0.027787 0.00566045 1.72726e-22)
(-0.043001 0.0107992 0)
(-0.0383089 0.0169239 0)
(-0.0486867 0.031008 7.40173e-22)
(-0.0634236 0.0433853 0)
(-0.0898405 0.0468569 0)
(-0.117556 0.0344467 1.11306e-18)
(-0.13927 0.000159978 0)
(-0.143106 -0.0576253 0)
(-0.115802 -0.127173 0)
(-0.0567079 -0.170557 0)
(0.0416268 -0.118439 8.60051e-22)
(0.107571 0.00858786 -4.98479e-19)
(0.0848946 0.119628 1.0389e-18)
(-0.0710577 0.233626 3.94733e-21)
(-0.238688 0.303737 4.1147e-19)
(-0.2945 0.251366 0)
(-0.341429 0.171826 1.5609e-19)
(-0.389477 0.119454 0)
(-0.423573 0.0789492 -1.30603e-20)
(-0.444316 0.0455924 1.53266e-21)
(-0.451221 0.016008 0)
(-0.444989 -0.0113538 0)
(-0.425944 -0.0372526 1.95507e-22)
(-0.394377 -0.0619527 -2.03493e-22)
(-0.350442 -0.0855088 1.80038e-20)
(-0.294195 -0.10791 0)
(-0.225403 -0.129023 -1.62475e-19)
(-0.143619 -0.148132 2.15679e-19)
(-0.0488732 -0.163466 0)
(0.0571722 -0.172317 -6.4717e-19)
(0.170321 -0.171823 0)
(0.28514 -0.16008 3.93939e-21)
(0.395008 -0.136729 0)
(0.49283 -0.103102 8.47084e-19)
(0.572321 -0.0622084 8.39337e-19)
(0.629186 -0.0183022 1.03489e-20)
(0.661912 0.0239587 -1.62963e-18)
(0.671948 0.0603455 0)
(0.663484 0.0875207 -7.18225e-21)
(0.642705 0.103816 1.67546e-18)
(0.61654 0.109773 3.34499e-21)
(0.59141 0.107979 1.8687e-18)
(0.572178 0.102034 -8.61443e-22)
(0.561429 0.0952499 -3.52785e-22)
(0.559796 0.0898031 0)
(0.566681 0.0867546 0)
(0.581991 0.0863128 0)
(0.604767 0.0886809 0)
(0.638363 0.0934428 0)
(0.67646 0.101459 4.25532e-18)
(0.740463 0.110988 0)
(0.781158 0.123909 0)
(0.926484 0.137514 -1.65475e-18)
(0.949738 0.103495 -5.15289e-19)
(0.743225 0.0840171 0)
(0.525 0.0549887 5.20554e-21)
(0.259513 0.0461292 -6.38162e-21)
(0.0954908 0.0191756 0)
(-0.0144783 0.0171725 2.07949e-18)
(-0.0235106 0.0060049 -1.91351e-18)
(-0.0409196 0.0108371 0)
(-0.0357158 0.0168779 0)
(-0.0446533 0.031503 -1.45504e-18)
(-0.0577135 0.0445483 0)
(-0.08299 0.0485848 0)
(-0.110727 0.0361882 -1.10589e-18)
(-0.134515 0.00115155 0)
(-0.143377 -0.0583676 -9.90459e-19)
(-0.124293 -0.130526 0)
(-0.0748407 -0.177099 0)
(0.0134065 -0.125092 1.90104e-21)
(0.0847215 0.00806822 0)
(0.0638739 0.130487 -5.14322e-19)
(-0.0883835 0.251874 4.94778e-19)
(-0.235169 0.315192 -7.97997e-19)
(-0.279624 0.256259 2.56243e-19)
(-0.323682 0.176517 -1.53047e-19)
(-0.368488 0.123421 0)
(-0.400543 0.0814794 -9.4613e-21)
(-0.419989 0.0466732 -8.79511e-21)
(-0.426126 0.015654 0)
(-0.419469 -0.0130916 8.15252e-22)
(-0.400221 -0.0403406 1.72399e-21)
(-0.368598 -0.0663641 -4.78258e-21)
(-0.32472 -0.0912254 -1.77846e-20)
(-0.268625 -0.114931 0)
(-0.200068 -0.137373 -1.57557e-19)
(-0.118549 -0.15782 2.10877e-19)
(-0.0240456 -0.174365 0)
(0.0816491 -0.184059 6.45934e-19)
(0.194342 -0.183829 0)
(0.308614 -0.171648 8.01275e-19)
(0.417744 -0.147084 0)
(0.514546 -0.111531 -8.50705e-19)
(0.592675 -0.0682019 -8.42876e-19)
(0.647828 -0.0216541 1.12234e-20)
(0.678548 0.0231187 1.63261e-18)
(0.686382 0.0615859 0)
(0.675654 0.0901871 -1.61732e-18)
(0.652684 0.107167 0)
(0.624516 0.113114 1.73577e-18)
(0.597665 0.110774 0)
(0.577093 0.103985 -1.97467e-18)
(0.565468 0.0962982 -4.21165e-18)
(0.563423 0.0900494 0)
(0.570245 0.0863425 0)
(0.585669 0.0853512 0)
(0.608588 0.0872145 2.38295e-18)
(0.64228 0.0914904 0)
(0.680439 0.0989794 -8.97059e-21)
(0.744369 0.108005 0)
(0.785212 0.120243 2.39215e-18)
(0.929476 0.133056 1.6469e-18)
(0.952619 0.111088 0)
(0.768671 0.0902854 3.28479e-18)
(0.568165 0.0629513 3.63593e-18)
(0.312704 0.0518585 -7.08274e-21)
(0.132585 0.0241243 0)
(0.00557209 0.0189957 -2.05104e-18)
(-0.0171315 0.00660238 0)
(-0.03805 0.0108759 1.74909e-18)
(-0.0326053 0.0166973 1.58475e-18)
(-0.0400772 0.0318112 1.44706e-18)
(-0.0513193 0.0455204 1.30608e-18)
(-0.0752681 0.050181 1.18689e-18)
(-0.10275 0.0379215 0)
(-0.128293 0.00235425 0)
(-0.14191 -0.0586038 9.88733e-19)
(-0.130949 -0.133116 0)
(-0.0913249 -0.182769 0)
(-0.0137239 -0.131561 -9.6362e-19)
(0.0622773 0.00710314 0)
(0.0426664 0.140998 -5.09158e-19)
(-0.103151 0.268474 0)
(-0.229556 0.324802 3.87422e-19)
(-0.264262 0.260387 -2.51261e-19)
(-0.305423 0.180844 0)
(-0.346993 0.127085 0)
(-0.377025 0.0838175 1.63915e-21)
(-0.395167 0.0476357 5.07102e-21)
(-0.400533 0.0152321 0)
(-0.39345 -0.0148647 -8.03019e-22)
(-0.374004 -0.0434429 1.31454e-21)
(-0.342334 -0.0707758 -4.31815e-21)
(-0.298518 -0.0969315 0)
(-0.242582 -0.121933 0)
(-0.174262 -0.145699 1.92765e-21)
(-0.0930095 -0.167484 -2.01334e-21)
(0.00123779 -0.185236 0)
(0.10653 -0.195762 0)
(0.218749 -0.195791 7.28024e-19)
(0.332451 -0.183156 0)
(0.440817 -0.157357 0)
(0.536579 -0.119846 0)
(0.613333 -0.0740449 0)
(0.66676 -0.0248224 1.65252e-18)
(0.695452 0.0224861 1.61651e-18)
(0.701052 0.063044 0)
(0.688017 0.0930661 0)
(0.662819 0.110713 1.63247e-18)
(0.63262 0.116623 0)
(0.604023 0.113705 0)
(0.582078 0.10603 -1.95337e-18)
(0.569535 0.0973942 2.08585e-18)
(0.567047 0.0903034 0)
(0.573803 0.0859139 0)
(0.589374 0.0843678 0)
(0.612493 0.0857334 -2.36732e-18)
(0.64634 0.0895365 2.29152e-18)
(0.68461 0.0965073 -8.38419e-18)
(0.748478 0.105041 0)
(0.789468 0.116602 -2.3787e-18)
(0.932659 0.128666 -1.62155e-18)
(0.955195 0.118016 0)
(0.790543 0.0962388 -3.26705e-18)
(0.607847 0.0706931 0)
(0.36501 0.0580712 -5.80506e-18)
(0.173496 0.0296967 0)
(0.0310425 0.0213238 -2.01422e-18)
(-0.00803433 0.00760653 0)
(-0.0341411 0.0109661 -1.75688e-18)
(-0.0289722 0.0164003 -1.5822e-18)
(-0.0349896 0.0319325 -1.43915e-18)
(-0.0442701 0.0462939 -1.2975e-18)
(-0.0667021 0.0516318 -1.17915e-18)
(-0.0936536 0.0396269 0)
(-0.120624 0.00374731 0)
(-0.138689 -0.0583482 0)
(-0.135696 -0.134938 0)
(-0.10601 -0.18753 0)
(-0.0389966 -0.137835 4.80359e-19)