/*--------------------------------*- C++ -*----------------------------------*\
| =========                 |                                                 |
| \\      /  F ield         | OpenFOAM: The Open Source CFD Toolbox           |
|  \\    /   O peration     | Version:  2.4.0                                 |
|   \\  /    A nd           | Web:      www.OpenFOAM.org                      |
|    \\/     M anipulation  |                                                 |
\*---------------------------------------------------------------------------*/
FoamFile
{
    version     2.0;
    format      ascii;
    class       surfaceScalarField;
    location    "1.09";
    object      phi_0;
}
// * * * * * * * * * * * * * * * * * * * * * * * * * * * * * * * * * * * * * //

dimensions      [0 3 -1 0 0 0 0];

internalField   nonuniform List<scalar> 
4456
(
2.76633e-06
-2.66326e-07
2.41634e-06
3.49987e-07
2.51552e-06
-9.91772e-08
2.20232e-06
3.13199e-07
2.17171e-06
3.06121e-08
2.351e-06
-1.79294e-07
2.33094e-06
2.00563e-08
2.28011e-06
5.08368e-08
2.40594e-06
-1.25835e-07
2.27199e-06
1.33951e-07
2.31635e-06
-4.43572e-08
2.09202e-06
2.24323e-07
2.32521e-06
-2.33184e-07
2.18743e-06
1.37779e-07
2.19961e-06
-1.21782e-08
2.31521e-06
-1.15607e-07
2.29512e-06
2.00957e-08
2.5091e-06
-2.13977e-07
2.27123e-06
2.37869e-07
-6.82191e-08
2.33945e-06
2.51694e-06
-2.83266e-07
2.35313e-06
5.13798e-07
2.51256e-06
-2.58607e-07
2.52486e-06
3.00903e-07
2.36282e-06
1.92643e-07
2.64937e-06
-4.65842e-07
2.53623e-06
1.33201e-07
2.27393e-06
3.13134e-07
2.56705e-06
-4.18951e-07
2.51505e-06
1.85945e-07
2.44379e-06
2.6902e-08
2.67718e-06
-9.06553e-09
2.44979e-06
-5.79261e-09
2.54033e-06
4.7244e-08
2.65175e-06
-1.23607e-07
2.50893e-06
2.72212e-08
2.53525e-06
-6.23184e-09
2.73137e-06
-4.10097e-07
2.69191e-06
2.77336e-07
2.1708e-07
2.40661e-06
2.55958e-06
-3.42842e-07
2.50033e-06
5.73043e-07
2.56014e-06
-3.1842e-07
2.6366e-06
2.24444e-07
2.50054e-06
3.28703e-07
2.61352e-06
-5.78814e-07
2.55929e-06
1.87425e-07
2.59185e-06
2.80572e-07
2.47579e-06
-3.02889e-07
2.59893e-06
6.28069e-08
2.53448e-06
9.13494e-08
2.5313e-06
-5.88571e-09
2.63822e-06
-1.12714e-07
2.37956e-06
3.05908e-07
2.5642e-06
-3.08246e-07
2.39071e-06
2.00712e-07
2.45892e-06
-7.44432e-08
2.58228e-06
-5.33458e-07
2.45498e-06
4.04637e-07
-8.87898e-08
2.76085e-06
2.46816e-06
-3.11005e-07
2.6542e-06
3.87009e-07
2.64443e-06
-3.08656e-07
2.64346e-06
2.25415e-07
2.61626e-06
3.55903e-07
2.55401e-06
-5.16559e-07
2.5184e-06
2.23028e-07
2.6259e-06
1.73071e-07
2.55398e-06
-2.30967e-07
2.55445e-06
6.23362e-08
2.5972e-06
4.86036e-08
2.52108e-06
7.02304e-08
2.57775e-06
-1.69381e-07
2.59123e-06
2.92426e-07
2.64825e-06
-3.65264e-07
2.55443e-06
2.94529e-07
2.59748e-06
-1.17491e-07
2.46815e-06
-4.04131e-07
2.56322e-06
3.09571e-07
-1.37879e-07
2.61231e-06
2.44149e-06
-2.52494e-07
2.55929e-06
2.6921e-07
2.47168e-06
-2.21044e-07
2.60435e-06
9.27429e-08
2.57868e-06
3.81575e-07
2.42506e-06
-3.62941e-07
2.52589e-06
1.22194e-07
2.56022e-06
1.38747e-07
2.43245e-06
-1.03201e-07
2.50478e-06
-9.9885e-09
2.53801e-06
1.53656e-08
2.50702e-06
1.01228e-07
2.48831e-06
-1.5067e-07
2.60449e-06
1.76247e-07
2.53315e-06
-2.93929e-07
2.59552e-06
2.32155e-07
2.38352e-06
9.45168e-08
2.3982e-06
-4.18814e-07
2.68309e-06
2.46859e-08
7.25681e-09
2.53795e-06
2.44386e-06
-1.96351e-07
2.50173e-06
2.1134e-07
2.46354e-06
-1.82853e-07
2.519e-06
3.72752e-08
2.58013e-06
3.20445e-07
2.45717e-06
-2.3998e-07
2.55108e-06
2.82902e-08
2.56004e-06
1.29778e-07
2.51501e-06
-5.8168e-08
2.53532e-06
-3.02971e-08
2.55985e-06
-9.165e-09
2.52875e-06
1.32326e-07
2.52137e-06
-1.43286e-07
2.6264e-06
7.12182e-08
2.55559e-06
-2.23127e-07
2.55074e-06
2.37009e-07
2.47252e-06
1.72736e-07
2.52102e-06
-4.67313e-07
2.59087e-06
-4.51603e-08
-2.85986e-08
2.62672e-06
2.45268e-06
-1.4903e-07
2.53201e-06
1.32011e-07
2.47867e-06
-1.2952e-07
2.46101e-06
5.49424e-08
2.55423e-06
2.27219e-07
2.53546e-06
-2.21206e-07
2.51841e-06
4.53373e-08
2.53258e-06
1.15612e-07
2.51202e-06
-3.76112e-08
2.52585e-06
-4.41233e-08
2.53294e-06
-1.62584e-08
2.53253e-06
1.32742e-07
2.47194e-06
-8.27031e-08
2.5769e-06
-3.37396e-08
2.53501e-06
-1.81233e-07
2.50644e-06
2.65574e-07
2.56472e-06
1.14458e-07
2.45674e-06
-3.59334e-07
2.57032e-06
-1.5874e-07
-2.98793e-08
2.5716e-06
2.46594e-06
-1.14969e-07
2.52379e-06
7.41634e-08
2.47353e-06
-7.92667e-08
2.44788e-06
8.05959e-08
2.5441e-06
1.31e-07
2.51742e-06
-1.94524e-07
2.497e-06
6.57601e-08
2.47676e-06
1.35845e-07
2.47446e-06
-3.53113e-08
2.54241e-06
-1.12069e-07
2.53315e-06
-6.99639e-09
2.49956e-06
1.66334e-07
2.49851e-06
-8.16532e-08
2.54519e-06
-8.04237e-08
2.49543e-06
-1.31478e-07
2.55113e-06
2.09881e-07
2.50988e-06
1.5571e-07
2.50073e-06
-3.50186e-07
2.53103e-06
-1.89046e-07
-5.67461e-09
2.50683e-06
2.46999e-06
-8.49556e-08
2.51828e-06
2.587e-08
2.46676e-06
-2.77501e-08
2.45482e-06
9.25357e-08
2.53628e-06
4.95416e-08
2.54e-06
-1.98242e-07
2.4913e-06
1.14459e-07
2.43912e-06
1.88028e-07
2.52483e-06
-1.21024e-07
2.54401e-06
-1.31247e-07
2.49341e-06
4.35966e-08
2.51815e-06
1.41602e-07
2.49144e-06
-5.49428e-08
2.51513e-06
-1.0412e-07
2.51969e-06
-1.36035e-07
2.49082e-06
2.38748e-07
2.56679e-06
7.97467e-08
2.51523e-06
-2.98634e-07
2.48924e-06
-1.63048e-07
-2.35347e-08
2.5071e-06
2.51121e-06
-9.61635e-08
2.49886e-06
3.8213e-08
2.45842e-06
1.26992e-08
2.4716e-06
7.93521e-08
2.51839e-06
2.7523e-09
2.52389e-06
-2.03741e-07
2.48002e-06
1.58325e-07
2.47792e-06
1.90127e-07
2.5285e-06
-1.716e-07
2.51576e-06
-1.18506e-07
2.48342e-06
7.59307e-08
2.51287e-06
1.12152e-07
2.51787e-06
-5.9936e-08
2.52593e-06
-1.12178e-07
2.50058e-06
-1.10685e-07
2.50151e-06
2.37814e-07
2.54387e-06
3.7391e-08
2.50467e-06
-2.59438e-07
2.52139e-06
-1.79764e-07
4.08017e-08
2.45705e-06
2.48709e-06
-8.32534e-08
2.45624e-06
6.90651e-08
2.4415e-06
2.74393e-08
2.4853e-06
3.55456e-08
2.52338e-06
-3.53239e-08
2.47008e-06
-1.50436e-07
2.4899e-06
1.38496e-07
2.51587e-06
1.6416e-07
2.53357e-06
-1.89294e-07
2.50111e-06
-8.60481e-08
2.46583e-06
1.11213e-07
2.52786e-06
5.01148e-08
2.51721e-06
-4.92784e-08
2.49974e-06
-9.47121e-08
2.48957e-06
-1.00519e-07
2.46245e-06
2.64935e-07
2.5247e-06
-2.48562e-08
2.52565e-06
-2.60386e-07
2.47282e-06
-1.26939e-07
5.87631e-08
2.45486e-06
2.47909e-06
-6.23416e-08
2.47727e-06
7.08788e-08
2.45686e-06
4.78514e-08
2.52483e-06
-3.24249e-08
2.53227e-06
-4.27653e-08
2.46904e-06
-8.7198e-08
2.50775e-06
9.97853e-08
2.55069e-06
1.21219e-07
2.51971e-06
-1.58315e-07
2.46204e-06
-2.83824e-08
2.4748e-06
9.84548e-08
2.52185e-06
3.06268e-09
2.51338e-06
-4.08057e-08
2.49348e-06
-7.48073e-08
2.43387e-06
-4.09098e-08
2.47748e-06
2.21318e-07
2.57388e-06
-1.21252e-07
2.46417e-06
-1.50675e-07
2.47427e-06
-1.37038e-07
9.1675e-08
2.44136e-06
2.4687e-06
-3.10429e-08
2.50471e-06
3.48658e-08
2.48804e-06
6.45232e-08
2.53053e-06
-7.49093e-08
2.52882e-06
-4.1059e-08
2.47488e-06
-3.32543e-08
2.49418e-06
8.04789e-08
2.54031e-06
7.5089e-08
2.50859e-06
-1.26591e-07
2.45105e-06
2.91556e-08
2.4985e-06
5.10102e-08
2.50915e-06
-7.59535e-09
2.49936e-06
-3.10094e-08
2.49309e-06
-6.85428e-08
2.43681e-06
1.53778e-08
2.5253e-06
1.32823e-07
2.54604e-06
-1.41992e-07
2.46838e-06
-7.30153e-08
2.43807e-06
-1.06728e-07
2.92272e-08
2.50052e-06
2.46753e-06
1.42583e-09
2.51996e-06
-1.75603e-08
2.49681e-06
8.7673e-08
2.5206e-06
-9.87058e-08
2.52343e-06
-4.38841e-08
2.48436e-06
5.81246e-09
2.47781e-06
8.70336e-08
2.52622e-06
2.66778e-08
2.5132e-06
-1.13573e-07
2.45214e-06
9.02144e-08
2.53802e-06
-3.487e-08
2.49793e-06
3.24932e-08
2.47852e-06
-1.15959e-08
2.49521e-06
-8.52273e-08
2.46586e-06
4.4726e-08
2.54461e-06
5.40695e-08
2.51313e-06
-1.10516e-07
2.44369e-06
-3.56621e-09
2.46312e-06
-1.26162e-07
-5.28257e-08
2.54517e-06
2.49304e-06
8.38981e-09
2.5184e-06
-4.29234e-08
2.50412e-06
1.01948e-07
2.51139e-06
-1.05975e-07
2.49713e-06
-2.9624e-08
2.4744e-06
2.85456e-08
2.46898e-06
9.24584e-08
2.52004e-06
-2.43822e-08
2.49922e-06
-9.27587e-08
2.48902e-06
1.00413e-07
2.5369e-06
-8.27519e-08
2.50675e-06
6.26514e-08
2.49118e-06
3.96602e-09
2.48686e-06
-8.08999e-08
2.48942e-06
4.21611e-08
2.54278e-06
7.08301e-10
2.48281e-06
-5.05463e-08
2.4693e-06
9.947e-09
2.47819e-06
-1.35052e-07
-1.17487e-07
2.54285e-06
2.50399e-06
4.39832e-09
2.51882e-06
-5.77553e-08
2.50663e-06
1.14142e-07
2.50637e-06
-1.0572e-07
2.46382e-06
1.29301e-08
2.45539e-06
3.69753e-08
2.49741e-06
5.04358e-08
2.53559e-06
-6.25621e-08
2.49123e-06
-4.83946e-08
2.51573e-06
7.59158e-08
2.52309e-06
-9.01157e-08
2.49565e-06
9.00961e-08
2.52594e-06
-2.63319e-08
2.4743e-06
-2.92549e-08
2.51368e-06
2.78083e-09
2.51307e-06
1.31432e-09
2.47348e-06
-1.09498e-08
2.4874e-06
-3.98049e-09
2.48971e-06
-1.37362e-07
-1.55608e-07
2.52784e-06
2.51963e-06
-1.52273e-08
2.49663e-06
-3.47563e-08
2.51153e-06
9.92421e-08
2.50826e-06
-1.02454e-07
2.44489e-06
7.6296e-08
2.45823e-06
2.36354e-08
2.5311e-06
-2.24315e-08
2.53419e-06
-6.56497e-08
2.4839e-06
1.89679e-09
2.53216e-06
2.76575e-08
2.47869e-06
-3.66468e-08
2.48983e-06
7.89485e-08
2.52709e-06
-6.35882e-08
2.48729e-06
1.05493e-08
2.52161e-06
-3.15384e-08
2.49361e-06
2.93093e-08
2.48527e-06
-2.60396e-09
2.48241e-06
-1.12971e-09
2.49493e-06
-1.49881e-07
-1.30482e-07
2.46981e-06
2.5244e-06
-3.96228e-08
2.4867e-06
2.93634e-09
2.49419e-06
9.17519e-08
2.5001e-06
-1.08357e-07
2.44947e-06
1.26918e-07
2.48157e-06
-8.46298e-09
2.54113e-06
-8.19898e-08
2.51589e-06
-4.04109e-08
2.49199e-06
2.57963e-08
2.52629e-06
-6.63761e-09
2.4614e-06
2.82385e-08
2.49838e-06
4.19736e-08
2.51143e-06
-7.66457e-08
2.47777e-06
4.42158e-08
2.51163e-06
-6.53954e-08
2.47766e-06
6.32717e-08
2.48973e-06
-1.46731e-08
2.47877e-06
9.8357e-09
2.47969e-06
-1.50805e-07
-5.9888e-08
2.4091e-06
2.50176e-06
-4.1382e-08
2.47679e-06
2.79053e-08
2.52154e-06
4.69988e-08
2.47889e-06
-6.57075e-08
2.50606e-06
9.97481e-08
2.52576e-06
-2.81554e-08
2.50025e-06
-5.64819e-08
2.48107e-06
-2.12345e-08
2.4914e-06
1.54704e-08
2.49131e-06
-6.55362e-09
2.48113e-06
3.84234e-08
2.51739e-06
5.71129e-09
2.48446e-06
-4.37158e-08
2.49764e-06
3.10383e-08
2.47239e-06
-4.01506e-08
2.49357e-06
4.20961e-08
2.4897e-06
-1.08063e-08
2.47092e-06
2.86211e-08
2.45506e-06
-1.34943e-07
1.04321e-08
2.38474e-06
2.45862e-06
2.48652e-06
2.53352e-06
2.46781e-06
2.56756e-06
2.53941e-06
2.48293e-06
2.46169e-06
2.47716e-06
2.47061e-06
2.50903e-06
2.51474e-06
2.47103e-06
2.50207e-06
2.46191e-06
2.50401e-06
2.4932e-06
2.52183e-06
2.38688e-06
2.39731e-06
2.49171e-06
-1.52265e-07
1.96719e-06
5.24525e-07
2.19592e-06
-2.2873e-07
2.09777e-06
9.81406e-08
1.80935e-06
2.88428e-07
2.26535e-06
-4.56e-07
2.2257e-06
3.96479e-08
-3.96295e-07
2.62199e-06
2.43175e-06
-1.77407e-07
2.94911e-06
7.1666e-09
2.64782e-06
7.25608e-08
2.6049e-06
1.41059e-07
2.80094e-06
9.23903e-08
2.63624e-06
-2.913e-07
2.49248e-06
1.83403e-07
-5.5753e-07
2.65372e-06
2.36796e-06
2.15485e-07
2.58191e-06
-2.06785e-07
2.81629e-06
-1.61817e-07
2.76334e-06
1.9401e-07
2.68433e-06
1.71393e-07
2.67288e-06
-2.79849e-07
2.89053e-06
-3.42415e-08
-2.44291e-07
2.57729e-06
2.48682e-06
3.40977e-07
2.43862e-06
-1.58588e-07
2.56724e-06
-2.90434e-07
2.6626e-06
9.86427e-08
2.74277e-06
9.12265e-08
2.54759e-06
-8.46714e-08
2.57635e-06
-6.29955e-08
-2.73436e-07
2.60549e-06
2.50564e-06
3.73289e-07
2.40965e-06
-6.25964e-08
2.52775e-06
-4.08534e-07
2.70523e-06
-7.88402e-08
2.51353e-06
2.82926e-07
2.57407e-06
-1.45213e-07
2.60476e-06
-9.36819e-08
-2.52438e-07
2.58376e-06
2.58278e-06
4.17227e-07
2.61042e-06
-9.02318e-08
2.57689e-06
-3.75005e-07
2.61793e-06
-1.1988e-07
2.72832e-06
1.72532e-07
2.64478e-06
-6.16684e-08
2.59472e-06
-4.36258e-08
-3.96339e-07
2.73863e-06
2.58621e-06
4.02618e-07
2.54595e-06
-4.99696e-08
2.49836e-06
-3.27416e-07
2.57319e-06
-1.94713e-07
2.62103e-06
1.24696e-07
2.54548e-06
1.38805e-08
2.68651e-06
-1.8466e-07
-2.85513e-07
2.57568e-06
2.58922e-06
3.20224e-07
2.50828e-06
3.09767e-08
2.55345e-06
-3.72586e-07
2.56122e-06
-2.02483e-07
2.58879e-06
9.71207e-08
2.59045e-06
1.22217e-08
2.60437e-06
-1.98578e-07
-3.70819e-07
2.68967e-06
2.52432e-06
3.03003e-07
2.61608e-06
-6.07864e-08
2.55411e-06
-3.10617e-07
2.54037e-06
-1.88741e-07
2.56047e-06
7.70166e-08
2.57556e-06
-2.86323e-09
2.65805e-06
-2.81065e-07
-3.50579e-07
2.63781e-06
2.55009e-06
2.09958e-07
2.57318e-06
-8.38723e-08
2.57382e-06
-3.11257e-07
2.53791e-06
-1.52834e-07
2.51361e-06
1.01322e-07
2.56609e-06
-5.53487e-08
2.59679e-06
-3.11768e-07
-3.0208e-07
2.5483e-06
2.50812e-06
1.56701e-07
2.61153e-06
-1.87287e-07
2.56108e-06
-2.60806e-07
2.48255e-06
-7.42995e-08
2.49887e-06
8.50025e-08
2.54974e-06
-1.06218e-07
2.5675e-06
-3.29526e-07
-2.79046e-07
2.54446e-06
2.55764e-06
4.04119e-08
2.59412e-06
-2.23766e-07
2.49264e-06
-1.59318e-07
2.48658e-06
-6.8239e-08
2.46722e-06
1.04356e-07
2.56274e-06
-2.01734e-07
2.55925e-06
-3.26041e-07
-2.30561e-07
2.51077e-06
2.59657e-06
-5.56373e-08
2.52048e-06
-1.47676e-07
2.45507e-06
-9.39051e-08
2.42644e-06
-3.961e-08
2.55388e-06
-2.30855e-08
2.58736e-06
-2.35218e-07
2.49674e-06
-2.35415e-07
-2.17325e-07
2.4835e-06
2.57949e-06
-8.99527e-08
2.47532e-06
-4.3505e-08
2.41234e-06
-3.09237e-08
2.48817e-06
-1.15447e-07
2.5999e-06
-1.34813e-07
2.57967e-06
-2.14985e-07
2.49691e-06
-1.52655e-07
-1.33077e-07
2.41266e-06
2.53752e-06
-8.46184e-08
2.44982e-06
4.41923e-08
2.48525e-06
-6.63535e-08
2.51275e-06
-1.42944e-07
2.62299e-06
-2.45056e-07
2.55827e-06
-1.50261e-07
2.4444e-06
-3.87941e-08
-7.19185e-08
2.38325e-06
2.47235e-06
-2.91348e-08
2.51068e-06
5.86743e-09
2.52102e-06
-7.66953e-08
2.562e-06
-1.8393e-07
2.60317e-06
-2.8622e-07
2.51025e-06
-5.73405e-08
2.4642e-06
7.25702e-09
6.29637e-08
2.32931e-06
2.47138e-06
-3.07056e-08
2.57757e-06
-1.00324e-07
2.55538e-06
-5.45058e-08
2.567e-06
-1.95546e-07
2.54716e-06
-2.66382e-07
2.4815e-06
8.32115e-09
2.40584e-06
8.29173e-08
1.67366e-07
2.30143e-06
2.4557e-06
-7.73118e-08
2.64162e-06
-2.86241e-07
2.57551e-06
1.16012e-08
2.58055e-06
-2.00586e-07
2.51715e-06
-2.02979e-07
2.46681e-06
5.86595e-08
2.4102e-06
1.39532e-07
2.87236e-07
2.29033e-06
2.50729e-06
-1.99863e-07
2.55915e-06
-3.38104e-07
2.5539e-06
1.6854e-08
2.54191e-06
-1.88601e-07
2.42502e-06
-8.60847e-08
2.45611e-06
2.7569e-08
2.35906e-06
2.36578e-07
3.50831e-07
2.29547e-06
2.3848e-06
-1.87353e-07
2.40523e-06
-3.58535e-07
2.38085e-06
4.12374e-08
2.21948e-06
-2.72332e-08
2.1395e-06
-6.09588e-09
2.19797e-06
-3.09015e-08
2.18193e-06
2.52615e-07
2.2165e-06
3.16263e-07
1.99978e-06
6.22212e-07
2.59593e-06
-5.96153e-07
3.43969e-06
-8.4376e-07
2.18282e-06
1.25687e-06
2.96978e-06
-7.86958e-07
3.00349e-06
-3.37109e-08
2.94936e-06
5.41335e-08
3.59525e-06
-6.45891e-07
3.366e-06
2.29249e-07
5.23045e-06
-1.86445e-06
5.48297e-06
-2.52514e-07
5.94401e-06
-4.61046e-07
6.39113e-06
-4.47115e-07
6.98363e-06
-5.92496e-07
7.50495e-06
-5.21322e-07
8.19667e-06
-6.91721e-07
8.53782e-06
-3.41156e-07
8.99697e-06
-4.59147e-07
9.16015e-06
-1.63174e-07
9.31204e-06
-1.51894e-07
9.32583e-06
-1.37909e-08
9.2728e-06
5.30316e-08
9.06749e-06
2.05305e-07
8.82407e-06
2.43428e-07
8.35475e-06
4.69318e-07
7.95796e-06
3.96791e-07
6.97215e-06
9.85804e-07
6.82434e-07
6.28972e-06
2.72105e-06
5.54877e-07
2.62947e-06
-5.04567e-07
2.64043e-06
-8.54724e-07
3.00516e-06
8.92137e-07
3.44868e-06
-1.23048e-06
3.88759e-06
-4.7262e-07
3.79728e-06
1.44445e-07
3.65422e-06
-5.02828e-07
4.06986e-06
-1.86391e-07
4.31137e-06
-2.10596e-06
4.40092e-06
-3.42064e-07
5.29285e-06
-1.35298e-06
5.95533e-06
-1.1096e-06
6.60138e-06
-1.23854e-06
7.29633e-06
-1.21628e-06
7.77035e-06
-1.16574e-06
8.22208e-06
-7.92882e-07
8.621e-06
-8.58064e-07
8.87565e-06
-4.17828e-07
9.0867e-06
-3.6294e-07
9.15845e-06
-8.55436e-08
9.05872e-06
1.52763e-07
8.85898e-06
4.05038e-07
8.56468e-06
5.37731e-07
7.97902e-06
1.05498e-06
7.56218e-06
8.13625e-07
6.61968e-06
1.92831e-06
1.10859e-06
6.19353e-06
2.95748e-06
1.74688e-07
3.15819e-06
-7.05284e-07
2.77978e-06
-4.76311e-07
3.60647e-06
6.54527e-08
2.83575e-06
-4.59762e-07
3.25546e-06
-8.92332e-07
3.83873e-06
-4.38819e-07
3.82779e-06
-4.91888e-07
4.34566e-06
-7.04269e-07
4.36827e-06
-2.12856e-06
4.93595e-06
-9.09744e-07
5.497e-06
-1.91403e-06
6.16263e-06
-1.77523e-06
6.8855e-06
-1.96141e-06
7.35854e-06
-1.68932e-06
7.87886e-06
-1.68607e-06
8.3616e-06
-1.27561e-06
8.85326e-06
-1.34972e-06
9.15743e-06
-7.22005e-07
9.45998e-06
-6.65488e-07
9.36662e-06
7.81526e-09
9.30211e-06
2.17273e-07
8.92898e-06
7.78171e-07
8.51319e-06
9.53517e-07
8.02587e-06
1.54231e-06
7.46945e-06
1.37005e-06
7.00873e-06
2.38903e-06
1.79528e-06
6.32204e-06
2.78392e-06
-3.73758e-09
2.53286e-06
-4.54225e-07
2.45957e-06
-4.03026e-07
3.04477e-06
-5.19743e-07
2.77219e-06
-1.8719e-07
3.27481e-06
-1.39494e-06
3.52145e-06
-6.85462e-07
3.78618e-06
-7.56621e-07
3.97991e-06
-8.97992e-07
4.39224e-06
-2.5409e-06
4.97402e-06
-1.49152e-06
5.39044e-06
-2.33045e-06
6.222e-06
-2.60678e-06
6.7327e-06
-2.47211e-06
7.26969e-06
-2.22631e-06
7.97723e-06
-2.3936e-06
8.52971e-06
-1.8281e-06
9.03631e-06
-1.85632e-06
9.30917e-06
-9.94865e-07
9.43153e-06
-7.87851e-07
9.41151e-06
2.78378e-08
9.25235e-06
3.76439e-07
8.92021e-06
1.11031e-06
8.56935e-06
1.30438e-06
8.10301e-06
2.00865e-06
7.48458e-06
1.98848e-06
7.15643e-06
2.71717e-06
2.68482e-06
6.26689e-06
2.91853e-06
-3.38505e-07
2.58946e-06
-1.25156e-07
2.72927e-06
-5.42836e-07
2.66695e-06
-4.57429e-07
3.08895e-06
-6.09184e-07
3.10082e-06
-1.40682e-06
3.24757e-06
-8.32206e-07
3.63186e-06
-1.14092e-06
4.05406e-06
-1.32019e-06
4.45734e-06
-2.94418e-06
4.70988e-06
-1.74405e-06
5.6457e-06
-3.26628e-06
6.21006e-06
-3.17114e-06
6.64454e-06
-2.90659e-06
7.46376e-06
-3.04554e-06
8.17143e-06
-3.10127e-06
8.64532e-06
-2.30199e-06
9.149e-06
-2.36001e-06
9.34341e-06
-1.18927e-06
9.59014e-06
-1.03458e-06
9.54408e-06
7.38997e-08
9.49869e-06
4.21829e-07
9.20931e-06
1.39968e-06
8.83664e-06
1.67705e-06
8.42302e-06
2.42226e-06
7.76114e-06
2.65036e-06
7.24051e-06
3.23781e-06
3.49095e-06
6.43438e-06
2.69443e-06
-2.94314e-07
2.82964e-06
-2.60362e-07
2.81273e-06
-5.25928e-07
2.80382e-06
-4.48516e-07
3.14504e-06
-9.50405e-07
2.91607e-06
-1.17785e-06
3.36255e-06
-1.27869e-06
3.44666e-06
-1.22503e-06
3.92311e-06
-1.79663e-06
3.85064e-06
-2.87171e-06
4.63514e-06
-2.52855e-06
5.46149e-06
-4.09264e-06
5.64817e-06
-3.35782e-06
6.64869e-06
-3.90711e-06
7.53118e-06
-3.92803e-06
8.06382e-06
-3.63391e-06
8.58679e-06
-2.82496e-06
9.0181e-06
-2.79132e-06
9.21253e-06
-1.3837e-06
9.41594e-06
-1.238e-06
9.34754e-06
1.42299e-07
9.23538e-06
5.33993e-07
8.95874e-06
1.67632e-06
8.53356e-06
2.10223e-06
8.10086e-06
2.85496e-06
7.50434e-06
3.24689e-06
7.15138e-06
3.59076e-06
4.11455e-06
6.52778e-06
2.6833e-06
-4.01928e-07
2.68849e-06
-2.65551e-07
2.58721e-06
-4.24653e-07
2.92191e-06
-7.83207e-07
2.80909e-06
-8.37589e-07
3.04849e-06
-1.41725e-06
3.16925e-06
-1.39945e-06
3.42734e-06
-1.48311e-06
3.98172e-06
-2.35101e-06
4.01093e-06
-2.90093e-06
4.83057e-06
-3.34819e-06
5.02707e-06
-4.28914e-06
5.88977e-06
-4.22053e-06
6.99053e-06
-5.00787e-06
7.39541e-06
-4.3329e-06
7.8126e-06
-4.05109e-06
8.39689e-06
-3.40925e-06
8.6383e-06
-3.03272e-06
8.8283e-06
-1.57371e-06
8.95323e-06
-1.36293e-06
8.87143e-06
2.241e-07
8.80879e-06
5.96632e-07
8.63649e-06
1.84863e-06
8.29424e-06
2.44448e-06
8.03703e-06
3.11216e-06
7.51932e-06
3.7646e-06
7.22714e-06
3.88294e-06
4.74751e-06
6.59418e-06
2.67117e-06
-3.83426e-07
2.56692e-06
-1.61298e-07
2.74907e-06
-6.06805e-07
2.61262e-06
-6.46759e-07
2.88541e-06
-1.11038e-06
2.93759e-06
-1.46942e-06
2.94557e-06
-1.40744e-06
3.48081e-06
-2.01835e-06
3.65427e-06
-2.52446e-06
3.8709e-06
-3.11756e-06
4.57919e-06
-4.05649e-06
5.11109e-06
-4.82103e-06
6.16666e-06
-5.2761e-06
6.49998e-06
-5.34119e-06
6.72148e-06
-4.55441e-06
7.31272e-06
-4.64234e-06
7.65026e-06
-3.74679e-06
7.61682e-06
-2.99928e-06
7.88122e-06
-1.8381e-06
7.89657e-06
-1.37829e-06
7.84042e-06
2.80254e-07
7.94199e-06
4.95057e-07
7.69406e-06
2.09656e-06
7.54631e-06
2.59223e-06
7.33268e-06
3.32579e-06
7.01458e-06
4.0827e-06
6.93928e-06
3.95824e-06
5.4156e-06
6.27119e-06
2.53242e-06
-2.78043e-07
2.64958e-06
-2.78453e-07
2.56819e-06
-5.25412e-07
2.69801e-06
-7.7658e-07
2.7437e-06
-1.15607e-06
2.65387e-06
-1.3796e-06
3.0118e-06
-1.76536e-06
3.15618e-06
-2.16273e-06
3.3875e-06
-2.75578e-06
3.83548e-06
-3.56554e-06
4.45298e-06
-4.67399e-06
5.13315e-06
-5.5012e-06
5.61503e-06
-5.75798e-06
5.71342e-06
-5.43958e-06
6.24415e-06
-5.08514e-06
6.51213e-06
-4.91031e-06
6.33177e-06
-3.56643e-06
6.45019e-06
-3.11771e-06
6.73422e-06
-2.12213e-06
6.64079e-06
-1.28486e-06
6.7594e-06
1.61648e-07
6.777e-06
4.77456e-07
6.54731e-06
2.32625e-06
6.5407e-06
2.59884e-06
6.34703e-06
3.51946e-06
6.13157e-06
4.29817e-06
6.35724e-06
3.73257e-06
5.99094e-06
5.7819e-06
2.56994e-06
-2.99687e-07
2.518e-06
-2.26512e-07
2.60201e-06
-6.0942e-07
2.58436e-06
-7.58937e-07
2.5794e-06
-1.1511e-06
2.72141e-06
-1.52161e-06
2.74153e-06
-1.78548e-06
3.06652e-06
-2.48772e-06
3.31654e-06
-3.00581e-06
3.71579e-06
-3.96478e-06
4.3532e-06
-5.3114e-06
4.73755e-06
-5.88555e-06
4.87384e-06
-5.89428e-06
5.03941e-06
-5.60515e-06
5.24105e-06
-5.28678e-06
4.90817e-06
-4.57744e-06
5.06384e-06
-3.72209e-06
5.47248e-06
-3.52635e-06
5.31197e-06
-1.96162e-06
5.22373e-06
-1.19661e-06
5.56876e-06
-1.83385e-07
5.51937e-06
5.26853e-07
5.47763e-06
2.36799e-06
5.40897e-06
2.66749e-06
5.34215e-06
3.58629e-06
5.14065e-06
4.49966e-06
5.05179e-06
3.82143e-06
6.4297e-06
4.61303e-06
2.4794e-06
-2.34626e-07
2.53713e-06
-2.8424e-07
2.53634e-06
-6.08634e-07
2.49128e-06
-7.13876e-07
2.59137e-06
-1.25119e-06
2.48318e-06
-1.41343e-06
2.71849e-06
-2.02079e-06
2.84575e-06
-2.61498e-06
2.97128e-06
-3.13133e-06
3.56522e-06
-4.55873e-06
3.88926e-06
-5.63544e-06
3.97019e-06
-5.96648e-06
3.99377e-06
-5.91785e-06
3.96836e-06
-5.57973e-06
3.87486e-06
-5.19328e-06
3.88276e-06
-4.58534e-06
4.03796e-06
-3.87729e-06
3.61984e-06
-3.10824e-06
3.50298e-06
-1.84475e-06
3.81654e-06
-1.51018e-06
3.94489e-06
-3.11733e-07
3.73675e-06
7.34988e-07
3.85926e-06
2.24548e-06
3.84169e-06
2.68507e-06
3.63194e-06
3.79603e-06
4.53989e-06
3.59172e-06
4.80158e-06
3.55974e-06
7.41643e-06
3.81485e-06
2.47507e-06
-1.98932e-07
2.4554e-06
-2.64564e-07
2.46453e-06
-6.17764e-07
2.44116e-06
-6.90513e-07
2.41161e-06
-1.22163e-06
2.47869e-06
-1.4805e-06
2.53507e-06
-2.07717e-06
2.59899e-06
-2.6789e-06
2.9103e-06
-3.44265e-06
3.22522e-06
-4.87365e-06
3.28501e-06
-5.69523e-06
3.19831e-06
-5.87977e-06
3.04018e-06
-5.75972e-06
2.88707e-06
-5.42662e-06
2.66836e-06
-4.97458e-06
2.48258e-06
-4.39956e-06
2.24736e-06
-3.64206e-06
2.11077e-06
-2.97165e-06
2.38736e-06
-2.12134e-06
2.07816e-06
-1.20097e-06
2.01904e-06
-2.52612e-07
2.39953e-06
3.54501e-07
2.53168e-06
2.11333e-06
2.77917e-06
2.43758e-06
2.39932e-06
4.17588e-06
1.68333e-06
4.30771e-06
2.39002e-06
2.85306e-06
6.61346e-06
3.19298e-06
2.385e-06
-1.00432e-07
2.4381e-06
-3.17667e-07
2.40687e-06
-5.86527e-07
2.33641e-06
-6.20052e-07
2.35836e-06
-1.24358e-06
2.26587e-06
-1.38802e-06
2.39288e-06
-2.20418e-06
2.44786e-06
-2.73388e-06
2.54903e-06
-3.54382e-06
2.73206e-06
-5.05669e-06
2.57007e-06
-5.53323e-06
2.17639e-06
-5.48609e-06
1.83865e-06
-5.42198e-06
1.60725e-06
-5.19522e-06
1.29453e-06
-4.66186e-06
1.01667e-06
-4.1217e-06
7.54069e-07
-3.37946e-06
5.09553e-07
-2.72714e-06
4.68848e-07
-2.08064e-06
3.3842e-07
-1.07054e-06
6.5982e-07
-5.74012e-07
7.20478e-07
2.93843e-07
5.36245e-07
2.29756e-06
3.12698e-07
2.66113e-06
1.10212e-06
3.38645e-06
1.6323e-06
3.77753e-06
1.53407e-06
2.95129e-06
6.52172e-06
1.62581e-06
2.38075e-06
-6.85192e-08
2.40009e-06
-3.37006e-07
2.31478e-06
-5.0122e-07
2.3222e-06
-6.27477e-07
2.21077e-06
-1.13215e-06
2.17871e-06
-1.35596e-06
2.23138e-06
-2.25685e-06
2.1445e-06
-2.647e-06
2.31271e-06
-3.71203e-06
2.12743e-06
-4.8714e-06
1.60273e-06
-5.00854e-06
1.21454e-06
-5.0979e-06
8.55149e-07
-5.0626e-06
4.44735e-07
-4.78481e-06
-1.53742e-08
-4.20175e-06
-3.31624e-07
-3.80545e-06
-5.86528e-07
-3.12455e-06
-9.22704e-07
-2.39096e-06
-1.11918e-06
-1.88416e-06
-1.23123e-06
-9.58499e-07
-1.31005e-06
-4.95189e-07
-1.50349e-06
4.87279e-07
-9.87923e-07
1.782e-06
-9.23877e-07
2.59708e-06
-5.83851e-07
3.04643e-06
-2.26188e-07
3.41986e-06
1.74858e-07
2.55024e-06
5.98899e-06
7.07592e-07
2.3617e-06
-4.69709e-08
2.37605e-06
-3.51362e-07
2.24386e-06
-3.69022e-07
2.23032e-06
-6.13943e-07
2.13253e-06
-1.03436e-06
2.04763e-06
-1.27106e-06
2.00505e-06
-2.21426e-06
1.97163e-06
-2.61357e-06
1.86224e-06
-3.60265e-06
1.41883e-06
-4.42799e-06
8.52012e-07
-4.44172e-06
1.25742e-07
-4.37163e-06
-5.39426e-07
-4.39743e-06
-9.31587e-07
-4.39265e-06
-1.32264e-06
-3.81069e-06
-1.87944e-06
-3.24866e-06
-2.2427e-06
-2.76129e-06
-2.49893e-06
-2.13473e-06
-2.78918e-06
-1.59391e-06
-2.9068e-06
-8.40874e-07
-3.04163e-06
-3.60361e-07
-3.07868e-06
5.24324e-07
-2.80788e-06
1.5112e-06
-2.92792e-06
2.71712e-06
-2.25589e-06
2.3744e-06
-1.35647e-06
2.52045e-06
-1.40139e-06
2.59516e-06
5.39357e-06
-8.05974e-07
2.35394e-06
-7.15918e-08
2.30983e-06
-3.07252e-07
2.1733e-06
-2.32496e-07
2.16095e-06
-6.01588e-07
1.98435e-06
-8.57772e-07
1.89925e-06
-1.18596e-06
1.76934e-06
-2.08435e-06
1.53811e-06
-2.38235e-06
1.34123e-06
-3.40577e-06
6.4189e-07
-3.72864e-06
-1.45961e-07
-3.65387e-06
-7.46376e-07
-3.77121e-06
-1.41152e-06
-3.73229e-06
-2.1751e-06
-3.62906e-06
-2.72402e-06
-3.26177e-06
-3.21196e-06
-2.76072e-06
-3.72423e-06
-2.24902e-06
-4.12999e-06
-1.72897e-06
-4.51747e-06
-1.20643e-06
-4.73965e-06
-6.18699e-07
-4.95571e-06
-1.44299e-07
-4.946e-06
5.14614e-07
-4.77479e-06
1.33999e-06
-4.40182e-06
2.34414e-06
-3.46984e-06
1.44243e-06
-3.196e-06
2.2466e-06
-2.78186e-06
2.18102e-06
3.96105e-06
-1.34934e-06
2.3258e-06
-9.59575e-08
2.2471e-06
-2.28553e-07
2.13314e-06
-1.18539e-07
2.08985e-06
-5.58299e-07
1.92509e-06
-6.93006e-07
1.79378e-06
-1.05465e-06
1.46106e-06
-1.75163e-06
1.14994e-06
-2.07122e-06
5.74953e-07
-2.83079e-06
-2.13967e-07
-2.93973e-06
-1.06246e-06
-2.80538e-06
-2.02657e-06
-2.8071e-06
-2.79793e-06
-2.96093e-06
-3.48071e-06
-2.94628e-06
-4.13792e-06
-2.60457e-06
-4.71033e-06
-2.18831e-06
-5.22733e-06
-1.73203e-06
-5.68741e-06
-1.26888e-06
-6.08366e-06
-8.10175e-07
-6.32025e-06
-3.82116e-07
-6.45695e-06
-7.60097e-09
-6.39569e-06
4.53355e-07
-6.11494e-06
1.05925e-06
-5.41002e-06
1.63922e-06
-4.92154e-06
9.53946e-07
-4.64096e-06
1.96603e-06
-3.52543e-06
1.06549e-06
3.2743e-06
-2.83868e-06
2.30123e-06
-1.06863e-07
2.18465e-06
-1.1197e-07
2.09898e-06
-3.2872e-08
1.99023e-06
-4.4955e-07
1.80026e-06
-5.03032e-07
1.61065e-06
-8.65042e-07
1.18971e-06
-1.33069e-06
6.25831e-07
-1.50735e-06
-1.07227e-07
-2.09773e-06
-1.05385e-06
-1.9931e-06
-1.97774e-06
-1.88149e-06
-2.95335e-06
-1.83149e-06
-3.92212e-06
-1.99216e-06
-4.7304e-06
-2.13799e-06
-5.43709e-06
-1.89788e-06
-6.05283e-06
-1.57256e-06
-6.58528e-06
-1.19958e-06
-7.00056e-06
-8.53602e-07
-7.32074e-06
-4.89999e-07
-7.48223e-06
-2.20627e-07
-7.54658e-06
5.67506e-08
-7.41948e-06
3.26251e-07
-7.04187e-06
6.81643e-07
-6.31321e-06
9.10555e-07
-6.0526e-06
6.93343e-07
-5.54628e-06
1.4597e-06
-4.9923e-06
5.11514e-07
2.73936e-06
-4.45735e-06
2.2312e-06
-4.25916e-08
2.12354e-06
-4.3127e-09
2.09243e-06
-1.76457e-09
1.94017e-06
-2.9729e-07
1.71604e-06
-2.78902e-07
1.3833e-06
-5.323e-07
8.15511e-07
-7.62903e-07
1.27315e-07
-8.19149e-07
-8.8251e-07
-1.0879e-06
-1.89646e-06
-9.7915e-07
-2.91475e-06
-8.63198e-07
-3.87843e-06
-8.67807e-07
-4.77688e-06
-1.09372e-06
-5.7697e-06
-1.14518e-06
-6.63796e-06
-1.02962e-06
-7.35628e-06
-8.54237e-07
-7.93176e-06
-6.24098e-07
-8.33753e-06
-4.47829e-07
-8.58716e-06
-2.40373e-07
-8.69588e-06
-1.11905e-07
-8.6925e-06
5.33704e-08
-8.54358e-06
1.77326e-07
-8.18851e-06
3.2658e-07
-7.70534e-06
4.27385e-07
-7.41887e-06
4.06867e-07
-6.75813e-06
7.98956e-07
-6.47659e-06
2.29975e-07
1.57736e-06
-5.31459e-06
2.17391e-06
2.16959e-06
2.16783e-06
1.87054e-06
1.59164e-06
1.05934e-06
2.96433e-07
-5.22716e-07
-1.61062e-06
-2.58977e-06
-3.45297e-06
-4.32077e-06
-5.41449e-06
-6.55967e-06
-7.58929e-06
-8.44353e-06
-9.06762e-06
-9.51545e-06
-9.75583e-06
-9.86773e-06
-9.81436e-06
-9.63703e-06
-9.31045e-06
-8.88307e-06
-8.4762e-06
-7.67725e-06
-7.44727e-06
-5.86991e-06
4.89607e-06
3.32767e-06
-1.93402e-06
5.15012e-06
2.63251e-06
-2.88657e-06
4.91927e-06
3.94494e-07
-1.63639e-07
4.18359e-06
-1.98865e-06
2.72432e-06
2.98444e-06
-3.98197e-07
1.59735e-06
1.95016e-06
2.16921e-06
-1.13492e-06
4.393e-08
-1.49764e-06
3.40387e-06
-1.88047e-06
-1.17002e-06
3.09442e-06
5.97144e-06
3.54976e-06
5.19036e-06
3.41359e-06
4.8322e-06
7.52651e-07
2.92298e-06
-7.94219e-08
2.08961e-06
4.35172e-07
3.53632e-06
7.22498e-07
1.22046e-06
8.18211e-07
-8.20793e-07
1.60783e-07
6.54795e-06
3.32385e-06
6.22767e-06
3.73387e-06
5.33902e-06
1.6413e-06
3.64914e-06
1.61046e-06
2.79236e-06
1.29195e-06
3.6099e-06
-9.50359e-08
-4.76668e-07
4.90477e-06
1.02849e-06
-2.32595e-06
6.15475e-06
3.43599e-06
5.9787e-06
3.90992e-06
5.01954e-06
2.60047e-06
4.02604e-06
2.60396e-06
6.27174e-07
4.69082e-06
-1.29927e-06
1.8314e-06
1.54906e-08
3.59002e-06
1.64521e-06
-6.01225e-07
6.06887e-06
3.80149e-06
5.676e-06
4.30279e-06
4.61547e-06
3.661e-06
4.31e-06
2.90943e-06
3.09942e-06
5.9014e-06
-2.18064e-07
5.14889e-06
-6.15453e-07
3.98741e-06
2.17814e-07
8.11944e-07
6.19393e-06
4.13535e-06
5.75086e-06
4.74586e-06
5.1437e-06
4.26816e-06
4.52194e-06
3.53118e-06
4.75793e-06
5.66541e-06
3.89133e-06
6.01549e-06
2.42261e-06
5.45613e-06
-1.92384e-07
2.8328e-06
6.35881e-06
4.37072e-06
5.73253e-06
5.37214e-06
5.01842e-06
4.98227e-06
4.29188e-06
4.25772e-06
4.62744e-06
5.32985e-06
5.12802e-06
5.51491e-06
4.71822e-06
5.86593e-06
5.0905e-07
4.01678e-06
6.35281e-06
4.2891e-06
5.81923e-06
5.90571e-06
5.20941e-06
5.5921e-06
4.82366e-06
4.64346e-06
4.66996e-06
5.48355e-06
4.98155e-06
5.20332e-06
5.20154e-06
5.64594e-06
1.29481e-06
4.41578e-06
5.95278e-06
4.11822e-06
5.5205e-06
6.33799e-06
4.78235e-06
6.33024e-06
4.67405e-06
4.75176e-06
4.79659e-06
5.36102e-06
4.93747e-06
5.06244e-06
5.08106e-06
5.50235e-06
1.90471e-06
4.47116e-06
5.18294e-06
3.5483e-06
5.22911e-06
6.29182e-06
4.48631e-06
7.07305e-06
4.26617e-06
4.9719e-06
4.536e-06
5.09119e-06
4.65767e-06
4.94077e-06
4.88474e-06
5.27529e-06
2.40141e-06
4.38804e-06
3.93008e-06
3.43308e-06
4.46577e-06
5.75614e-06
4.38629e-06
7.15253e-06
4.06133e-06
5.29687e-06
4.16284e-06
4.98967e-06
4.29861e-06
4.805e-06
4.69626e-06
4.87763e-06
2.79075e-06
4.30692e-06
3.51614e-06
3.10992e-06
3.60011e-06
5.67216e-06
3.68939e-06
7.06326e-06