/*--------------------------------*- C++ -*----------------------------------*\
| =========                 |                                                 |
| \\      /  F ield         | OpenFOAM: The Open Source CFD Toolbox           |
|  \\    /   O peration     | Version:  2.4.0                                 |
|   \\  /    A nd           | Web:      www.OpenFOAM.org                      |
|    \\/     M anipulation  |                                                 |
\*---------------------------------------------------------------------------*/
FoamFile
{
    version     2.0;
    format      ascii;
    class       volVectorField;
    location    "0.19";
    object      U_0;
}
// * * * * * * * * * * * * * * * * * * * * * * * * * * * * * * * * * * * * * //

dimensions      [0 1 -1 0 0 0 0];

internalField   nonuniform List<vector> 
2320
(
(0.85216 0.00133857 0)
(1.14381 -0.00341478 0)
(0.863523 0.00253443 0)
(1.14222 -0.0038679 0)
(0.874846 0.000271587 0)
(1.15058 0.00118539 0)
(0.870737 -0.00840553 0)
(1.16935 0.00897076 0)
(0.885497 -0.0156738 0)
(1.12328 0.0122831 0)
(1.00364 -0.0254144 0)
(0.983892 0.0306006 0)
(1.12032 -0.0239359 0)
(0.909442 -0.0420345 0)
(1.24766 0.162634 0)
(0.6662 -0.2668 0)
(1.68003 0.198657 0)
(0.238382 0.029759 0)
(2.10967 -0.282058 0)
(0.51859 0.113506 0)
(0.857532 0.00230632 0)
(1.13501 -0.00607284 0)
(0.879965 0.00300102 0)
(1.11374 -0.00690624 0)
(0.928034 0.0016055 0)
(1.06478 -0.00584883 0)
(1.00304 0.00678305 0)
(0.986772 -0.0244474 0)
(1.09197 0.0481451 0)
(0.891901 -0.0807868 0)
(1.1619 0.104599 0)
(0.827161 -0.101096 0)
(1.23085 0.0724846 0)
(0.717875 -0.0343463 0)
(1.40456 -0.0351398 0)
(0.88627 0.0368792 0)
(0.968361 0.0249063 0)
(1.62638 -0.265506 0)
(1.28368 0.167937 0)
(1.23229 0.07541 0)
(0.870176 0.00647972 0)
(1.11489 -0.0182644 0)
(0.911782 0.01758 0)
(1.06662 -0.0330639 0)
(0.999436 0.0304694 0)
(0.966739 -0.0429511 0)
(1.12287 0.0374143 0)
(0.845516 -0.0446748 0)
(1.22021 0.0386944 0)
(0.814713 -0.0332845 0)
(1.15448 0.0164446 0)
(1.03999 -0.0117482 0)
(0.895364 0.0428017 0)
(1.19861 -0.140736 0)
(1.09592 0.0946789 0)
(0.91958 -0.0525718 0)
(1.3143 -0.152561 0)
(1.01925 -0.129876 0)
(1.47852 -0.0758104 0)
(1.2359 0.280536 0)
(0.883083 0.0110733 0)
(1.10015 -0.0297117 0)
(0.92516 0.0312717 0)
(1.05493 -0.0552796 0)
(0.994991 0.0567189 0)
(0.98906 -0.0746434 0)
(1.06609 0.074594 0)
(0.937795 -0.0810459 0)
(1.11804 0.0745239 0)
(0.91458 -0.0546525 0)
(1.10675 0.00414752 0)
(1.01093 0.0165532 0)
(0.988311 0.006921 0)
(0.996329 -0.141407 0)
(1.28675 0.105557 0)
(0.565284 -0.0737078 0)
(1.40687 -0.0340574 0)
(0.974279 -0.371724 0)
(1.61083 0.0782032 0)
(0.917654 0.226051 0)
(0.910042 0.0145818 0)
(1.06234 -0.0404025 0)
(0.96633 0.0428389 0)
(1.00732 -0.0723524 0)
(1.03681 0.067904 0)
(0.949612 -0.0839316 0)
(1.0964 0.0699342 0)
(0.898902 -0.0765856 0)
(1.16804 0.0576145 0)
(0.828648 -0.0372025 0)
(1.17678 -0.0250098 0)
(0.970158 0.0373542 0)
(0.954466 0.0586914 0)
(1.02612 -0.303792 0)
(1.35 0.309131 0)
(0.48992 -0.102028 0)
(1.3734 -0.363262 0)
(1.26559 -0.19785 0)
(0.871368 -0.0503621 0)
(1.65953 0.258105 0)
(0.942713 0.023926 0)
(1.02531 -0.0563801 0)
(0.991162 0.0591013 0)
(0.992612 -0.0933683 0)
(1.02548 0.0894456 0)
(0.987137 -0.109715 0)
(1.04503 0.105322 0)
(0.965524 -0.126025 0)
(1.12176 0.115223 0)
(0.897883 -0.0665572 0)
(1.11458 -0.0566221 0)
(1.05231 0.120305 0)
(0.922296 -0.0067974 0)
(1.01134 -0.353327 0)
(1.35604 0.380761 0)
(0.75117 -0.0840175 0)
(1.24665 -0.443028 0)
(1.02156 -0.124738 0)
(1.15034 -0.117358 0)
(1.02632 0.139187 0)
(0.988096 0.0281483 0)
(0.973307 -0.0602862 0)
(1.02237 0.0560556 0)
(0.966493 -0.0881402 0)
(1.0291 0.0733004 0)
(0.98116 -0.0952544 0)
(1.04598 0.0867426 0)
(0.947216 -0.119271 0)
(1.10143 0.0991784 0)
(0.950569 -0.0371538 0)
(0.987554 -0.100433 0)
(1.13844 0.125473 0)
(0.917791 0.0851693 0)
(0.971731 -0.550949 0)
(1.27033 0.461621 0)
(1.1253 -0.0510361 0)
(0.925139 -0.508819 0)
(1.12938 -0.117735 0)
(0.913459 -0.0867144 0)
(1.26597 -0.0712143 0)
(1.03979 0.0409394 0)
(0.923178 -0.0688796 0)
(1.04185 0.0588426 0)
(0.95456 -0.0934116 0)
(1.01818 0.0800518 0)
(0.979083 -0.117428 0)
(1.04975 0.12147 0)
(0.924458 -0.159879 0)
(1.08059 0.119948 0)
(0.994143 -0.0156887 0)
(0.920478 -0.150611 0)
(1.10749 0.164757 0)
(1.07752 0.0689962 0)
(0.898769 -0.532351 0)
(1.01058 0.3381 0)
(1.45861 0.0654609 0)
(0.573759 -0.438384 0)
(1.27756 -0.101869 0)
(0.657797 -0.195209 0)
(1.56701 -0.17672 0)
(1.09928 0.0427326 0)
(0.861163 -0.0539182 0)
(1.07266 0.0347007 0)
(0.922496 -0.0715939 0)
(1.0311 0.058147 0)
(0.942242 -0.107687 0)
(1.07987 0.111685 0)
(0.869291 -0.132736 0)
(1.0767 0.0704937 0)
(0.968333 0.041061 0)
(0.958741 -0.163149 0)
(0.974195 0.0619659 0)
(1.25956 0.173168 0)
(0.786109 -0.494542 0)
(0.829827 0.204361 0)
(1.41876 0.147029 0)
(0.537561 -0.431908 0)
(1.48244 -0.130377 0)
(0.465502 -0.269238 0)
(1.66915 -0.410986 0)
(1.15708 0.0574926 0)
(0.802912 -0.0488273 0)
(1.11041 0.0221275 0)
(0.88639 -0.068025 0)
(1.05825 0.066164 0)
(0.896522 -0.138883 0)
(1.12857 0.154043 0)
(0.771815 -0.158145 0)
(1.17658 0.0740732 0)
(0.73848 0.0397514 0)
(1.23027 -0.151052 0)
(0.552897 0.0250063 0)
(1.48596 0.138371 0)
(0.587158 -0.302854 0)
(1.00161 0.00236696 0)
(1.14963 0.216958 0)
(1.16276 -0.496223 0)
(1.22832 -0.0473925 0)
(1.19502 -0.30165 0)
(1.04567 -0.439541 0)
(1.20725 0.0579108 0)
(0.737585 -0.0214057 0)
(1.17017 -0.0145982 0)
(0.81726 -0.0398314 0)
(1.1191 0.0484761 0)
(0.829784 -0.139121 0)
(1.17838 0.168633 0)
(0.707274 -0.155401 0)
(1.22886 0.0858574 0)
(0.636487 0.0126139 0)
(1.28596 -0.0671446 0)
(0.4597 -0.0699959 0)
(1.40648 0.15768 0)
(0.6414 -0.257012 0)
(1.16532 -0.0848794 0)
(0.89845 0.106512 0)
(1.17096 -0.485426 0)
(0.940794 -0.115365 0)
(1.20683 -0.219734 0)
(0.60778 -0.251975 0)
(1.25101 0.0814323 0)
(0.680124 -0.0222665 0)
(1.23601 -0.0256996 0)
(0.740147 -0.0375749 0)
(1.19431 0.0557691 0)
(0.757781 -0.168935 0)
(1.22579 0.214728 0)
(0.684551 -0.186791 0)
(1.24577 0.113798 0)
(0.692385 0.00649545 0)
(1.19766 -0.066265 0)
(0.739147 -0.0334158 0)
(1.11787 0.051031 0)
(0.941617 -0.181484 0)
(1.0367 -0.132114 0)
(1.03459 0.204184 0)
(0.764769 -0.538567 0)
(1.40957 -0.0184212 0)
(0.244991 -0.194963 0)
(1.60616 -0.154789 0)
(1.28027 0.0868849 0)
(0.636795 -0.00357347 0)
(1.29561 -0.0526536 0)
(0.655337 -0.0125269 0)
(1.26485 0.0348084 0)
(0.684623 -0.155699 0)
(1.24898 0.208688 0)
(0.730536 -0.167794 0)
(1.16545 0.0890072 0)
(0.90597 0.0289734 0)
(1.01676 -0.0772382 0)
(0.946757 -0.0455006 0)
(1.0721 0.0750731 0)
(0.786996 -0.236963 0)
(1.09589 -0.124917 0)
(0.922471 0.251868 0)
(1.104 -0.717599 0)
(1.3507 0.152918 0)
(1.06654 -0.323493 0)
(1.72167 -0.273739 0)
(1.31242 0.118709 0)
(0.619262 -0.021753 0)
(1.33897 -0.0435198 0)
(0.613865 -0.0156808 0)
(1.31004 0.0365132 0)
(0.647757 -0.162648 0)
(1.24633 0.201381 0)
(0.80352 -0.145683 0)
(1.07206 0.0349745 0)
(0.992419 0.0696274 0)
(1.05658 -0.0775493 0)
(0.787061 -0.0694429 0)
(1.31941 0.136696 0)
(0.509055 -0.203344 0)
(1.23036 -0.180069 0)
(0.829325 0.202177 0)
(1.12669 -0.755776 0)
(0.994418 0.0574201 0)
(1.37648 -0.438017 0)
(1.56896 0.19075 0)
(1.32733 0.11577 0)
(0.650267 -0.00679381 0)
(1.35083 -0.0573417 0)
(0.62271 0.00883007 0)
(1.31819 0.0128193 0)
(0.670621 -0.122689 0)
(1.21788 0.136125 0)
(0.859399 -0.0862329 0)
(1.05555 0.000247463 0)
(0.940649 0.0245282 0)
(1.17676 0.04402 0)
(0.654461 -0.204757 0)
(1.39023 0.237156 0)
(0.678413 -0.217645 0)
(1.11681 -0.254448 0)
(0.982338 0.25677 0)
(1.01794 -0.785423 0)
(0.442607 0.0177639 0)
(1.50745 -0.689262 0)
(1.66341 0.0955346 0)
(1.34922 0.126856 0)
(0.716219 -0.0269337 0)
(1.31694 -0.0385816 0)
(0.729729 0.00744957 0)
(1.2749 0.00805117 0)
(0.778521 -0.109984 0)
(1.16513 0.108781 0)
(0.918813 -0.0740131 0)
(1.05312 0.00303711 0)
(0.924768 -0.00323411 0)
(1.16779 0.0781203 0)
(0.804188 -0.190272 0)
(1.17757 0.155057 0)
(1.08988 -0.0865279 0)
(0.793577 -0.308923 0)
(1.15621 0.223406 0)
(0.770314 -0.393704 0)
(0.205787 -0.177956 0)
(1.43278 -1.0505 0)
(1.02351 1.09665 0)
(1.31011 0.08093 0)
(0.828486 0.0171631 0)
(1.2505 -0.0716152 0)
(0.816072 0.0362874 0)
(1.26585 -0.0152576 0)
(0.818717 -0.0663567 0)
(1.16858 0.0654344 0)
(0.945324 -0.0371536 0)
(1.07857 0.00877824 0)
(0.91821 -0.0496199 0)
(1.17006 0.126045 0)
(0.91742 -0.237702 0)
(1.00065 0.128571 0)
(1.30813 -0.0663935 0)
(0.475882 -0.242174 0)
(1.35573 0.222318 0)
(0.422638 -0.34253 0)
(1.19255 -0.356274 0)
(1.29212 -1.24206 0)
(0.397394 0.316819 0)
(1.26173 0.0577828 0)
(0.855071 0.00658644 0)
(1.23076 -0.040768 0)
(0.841472 0.00591281 0)
(1.24621 0.00237411 0)
(0.863518 -0.0594608 0)
(1.14875 0.0499429 0)
(0.965389 -0.0364245 0)
(1.06974 0.0285043 0)
(0.962665 -0.0633708 0)
(1.03515 0.0993296 0)
(1.14913 -0.119057 0)
(0.602219 -0.0171698 0)
(1.56843 0.142364 0)
(0.200201 -0.31498 0)
(1.57489 0.212295 0)
(0.621315 -0.213176 0)
(1.3205 -0.648231 0)
(0.00733378 -0.463069 0)
(-1.28161 1.59219 0)
(1.15602 0.0214579 0)
(0.94006 0.035024 0)
(1.1525 -0.0716316 0)
(0.878559 0.0349935 0)
(1.1983 -0.0306421 0)
(0.858524 -0.0140993 0)
(1.14847 0.016814 0)
(0.903545 -0.00818436 0)
(1.10383 0.0226713 0)
(0.913928 -0.050459 0)
(0.997717 0.0533588 0)
(1.09605 -0.0520313 0)
(0.723148 -0.0564105 0)
(1.18835 0.10204 0)
(0.902857 -0.192614 0)
(0.843751 -0.0139755 0)
(1.10502 -0.199796 0)
(0.874789 -0.116942 0)
(-0.806108 -0.0862451 0)
(-1.27978 -0.485985 0)
(1.10298 0.0101437 0)
(0.958461 0.0123613 0)
(1.20436 -0.0153949 0)
(0.769473 -0.00960078 0)
(1.26776 0.00700745 0)
(0.712414 -0.0327578 0)
(1.18082 0.0311031 0)
(0.815509 -0.0234041 0)
(1.09654 0.036916 0)
(0.961456 -0.0249959 0)
(0.909965 0.0273889 0)
(1.16545 -0.00489196 0)
(0.747249 -0.0320122 0)
(1.04013 0.0290454 0)
(0.937051 -0.114559 0)
(0.489258 0.0639263 0)
(0.971873 -0.188943 0)
(-0.201712 0.297994 0)
(1.27059 0.58193 0)
(0.906136 0.662518 0)
(1.68468 0.0474918 0)
(0.767186 -0.0169611 0)
(2.06054 -0.331648 0)
(2.35063 -0.261959 0)
(3.00846 0.250109 0)
(1.36653 -0.0409753 0)
(2.80506 -0.215828 0)
(1.38143 -0.0249442 0)
(0.859271 -0.137597 0)
(1.61404 -0.22209 0)
(1.95172 -0.400958 0)
(2.29987 -0.288111 0)
(2.48999 0.286423 0)
(2.4209 0.0977567 0)
(2.11222 0.237172 0)
(2.60738 -0.231789 0)
(1.18791 -0.0839024 0)
(1.17143 -0.60655 0)
(1.93163 -0.639501 0)
(2.18264 -0.564868 0)
(2.40763 0.279774 0)
(2.26374 0.100358 0)
(2.24818 -0.26111 0)
(3.37182 -0.438912 0)
(1.5711 -0.10131 0)
(1.29303 -0.651085 0)
(2.26147 -0.838769 0)
(1.34341 -0.608641 0)
(2.42713 0.2771 0)
(2.12291 0.10681 0)
(2.87225 -0.288791 0)
(3.30245 -0.378558 0)
(1.04409 -0.202336 0)
(1.98896 -1.01401 0)
(1.13192 -0.608555 0)
(1.40554 -0.67833 0)
(2.05649 -0.0166789 0)
(2.28395 -0.162041 0)
(2.67271 -0.794638 0)
(3.30407 -0.664435 0)
(1.88362 -0.255223 0)
(0.896025 -0.675449 0)
(1.48956 -0.540898 0)
(1.40376 -1.09559 0)
(1.79573 -0.135488 0)
(2.38313 -0.294462 0)
(2.52922 -0.753928 0)
(3.0057 -0.757869 0)
(1.54041 -0.16367 0)
(0.478726 -0.886064 0)
(2.55761 -0.805424 0)
(1.05945 -0.881161 0)
(2.11278 -0.446052 0)
(2.21968 -0.538562 0)
(3.08871 -1.04743 0)
(3.00945 -1.11319 0)
(1.36432 0.157114 0)
(1.12142 -1.18082 0)
(2.24324 -0.818878 0)
(1.42981 -0.912157 0)
(1.89724 -0.688479 0)
(2.52328 -0.866015 0)
(3.53045 -1.07114 0)
(2.88504 -1.06907 0)
(1.12112 0.0564544 0)
(1.83089 -1.39919 0)
(1.63225 -0.90822 0)
(1.1528 -0.65167 0)
(2.40158 -1.01727 0)
(2.78613 -1.40898 0)
(3.19081 -1.16252 0)
(3.06629 -1.17834 0)
(0.874051 0.0594185 0)
(1.81748 -1.36923 0)
(0.289367 -0.561028 0)
(1.85592 -1.33614 0)
(3.06339 -1.42448 0)
(2.4789 -1.30975 0)
(2.99968 -1.17432 0)
(3.48901 -1.35083 0)
(0.820269 -0.395889 0)
(1.11856 -1.01483 0)
(0.662668 -0.850209 0)
(2.86699 -2.10533 0)
(2.32917 -1.40063 0)
(2.27573 -1.37673 0)
(3.22246 -1.5849 0)
(3.43414 -1.42408 0)
(0.253607 -0.245342 0)
(1.69709 -1.36428 0)
(1.80661 -1.50116 0)
(2.71268 -1.99316 0)
(1.84297 -1.17053 0)
(2.72961 -1.80007 0)
(3.2075 -1.70808 0)
(2.95692 -1.48187 0)
(0.62254 -0.4503 0)
(1.94062 -1.64515 0)
(1.5313 -1.48034 0)
(2.33864 -2.08884 0)
(1.97094 -1.38134 0)
(2.85355 -2.11336 0)
(2.97822 -1.65976 0)
(2.60307 -1.49882 0)
(0.65675 -0.449485 0)
(1.85988 -1.7113 0)
(1.81106 -1.75674 0)
(2.3261 -2.11723 0)
(1.89201 -1.51213 0)
(2.91705 -2.29425 0)
(2.3411 -1.5378 0)
(2.39017 -1.59537 0)
(0.0672157 -0.68884 0)
(2.15149 -2.23864 0)
(1.56644 -1.8486 0)
(2.15575 -2.07227 0)
(2.00399 -1.75531 0)
(2.69865 -2.27001 0)
(1.81322 -1.34208 0)
(2.86847 -2.17659 0)
(0.89407 -0.777204 0)
(1.8761 -2.2359 0)
(1.62364 -1.83565 0)
(2.1073 -2.1984 0)
(1.97693 -1.87366 0)
(2.24107 -2.19776 0)
(1.89257 -1.52895 0)
(3.05055 -2.66635 0)
(0.73849 -1.18321 0)
(1.96078 -2.57326 0)
(1.59886 -2.09867 0)
(1.9589 -2.17404 0)
(1.80319 -1.88557 0)
(2.16791 -2.21095 0)
(1.92435 -1.72354 0)
(2.91918 -2.98654 0)
(1.47127 -1.68281 0)
(1.66556 -2.38768 0)
(1.4653 -1.95058 0)
(1.86954 -2.21194 0)
(1.80981 -2.06564 0)
(1.93981 -2.17137 0)
(1.93712 -1.96811 0)
(2.62008 -3.11271 0)
(1.28599 -2.97678 0)
(1.41357 -2.59558 0)
(1.47737 -2.31545 0)
(1.82106 -2.2728 0)
(1.41922 -2.00859 0)
(1.81459 -2.20088 0)
(1.79107 -2.1795 0)
(2.27198 -2.97436 0)
(1.5606 -2.74675 0)
(1.65447 -2.34215 0)
(1.39817 -2.16322 0)
(1.58173 -2.11548 0)
(1.48592 -2.13112 0)
(1.63431 -2.27918 0)
(1.50489 -2.2713 0)
(1.6461 -2.66631 0)
(3.26543 -0.232357 0)
(2.3587 -0.122666 0)
(3.90154 -0.410405 0)
(4.08598 -0.108325 0)
(4.21726 -0.0697865 0)
(4.58198 0.0123371 0)
(3.97762 0.0645857 0)
(4.53904 -0.0918653 0)
(3.86533 0.0596234 0)
(4.20749 -0.13126 0)
(3.77016 0.112484 0)
(3.6113 -0.0857716 0)
(3.8088 0.0707694 0)
(3.12558 -0.00882097 0)
(3.89836 -0.0614532 0)
(3.02317 0.0313299 0)
(4.09439 -0.0215185 0)
(2.66143 -0.0172839 0)
(4.1516 0.00603841 0)
(1.79504 0.0982047 0)
(4.22565 -0.143292 0)
(1.61884 0.182043 0)
(4.29055 -0.26761 0)
(2.23859 0.322717 0)
(3.35753 -0.411792 0)
(3.08033 0.016037 0)
(2.69381 0.151709 0)
(4.22047 -0.487826 0)
(2.9022 -0.225857 0)
(2.90455 -0.231433 0)
(3.62385 -0.441267 0)
(3.40254 -0.063606 0)
(4.34389 -0.15927 0)
(3.76148 0.0857427 0)
(4.5327 -0.0295643 0)
(4.19928 0.133539 0)
(4.18829 0.117613 0)
(4.17923 0.172148 0)
(3.52098 0.190527 0)
(4.02614 0.0726281 0)
(3.19091 0.146134 0)
(3.76624 -0.0187259 0)
(3.31148 0.093756 0)
(3.5715 -0.113169 0)
(3.55389 0.18164 0)
(3.34656 0.00244135 0)
(3.08422 0.400859 0)
(3.14174 -0.117324 0)
(2.80662 0.223153 0)
(3.12054 -0.224433 0)
(3.15161 0.00469755 0)
(2.67754 0.0759063 0)
(3.76994 0.0842968 0)
(1.7649 0.192577 0)
(3.86455 -0.561081 0)
(2.46298 0.199737 0)
(2.47801 -0.39539 0)
(3.69613 -0.480906 0)
(2.9644 -0.693587 0)
(4.05144 -0.432683 0)
(3.4549 -0.241075 0)
(3.99072 -0.083202 0)
(3.81762 -0.1404 0)
(4.32859 0.085304 0)
(4.21167 0.067269 0)
(4.23528 0.211351 0)
(3.87791 0.196768 0)
(4.02081 0.0872634 0)
(3.63527 0.192345 0)
(3.70641 -0.054647 0)
(3.21889 0.0354796 0)
(3.71608 -0.091638 0)
(2.94533 0.0997293 0)
(3.54067 0.212155 0)
(2.571 0.144801 0)
(3.28353 0.21869 0)
(2.39765 -0.117171 0)
(3.37968 -0.00459144 0)
(2.19471 -0.0355997 0)
(3.47755 -0.0203229 0)
(1.82165 0.0921841 0)
(3.76891 -0.0811395 0)
(1.97853 -0.129344 0)
(3.25268 -0.421207 0)
(3.29671 -0.351775 0)
(3.48084 -0.462717 0)
(3.42315 -0.627007 0)
(3.87479 -0.298021 0)
(3.46716 -0.138527 0)
(4.05155 -0.104651 0)
(3.62478 -0.200002 0)
(4.45614 -0.0768332 0)
(4.22879 0.178596 0)
(4.44069 0.320658 0)
(3.79207 0.30431 0)
(4.05806 0.199748 0)
(3.81476 0.264463 0)
(3.56904 0.217642 0)
(3.2722 0.0621966 0)
(3.20662 0.0488244 0)
(3.22661 0.243367 0)
(3.22511 0.191861 0)
(2.79427 0.497827 0)
(2.92787 -0.0150175 0)
(2.93435 0.156952 0)
(2.80819 -0.120947 0)
(3.12051 -0.00992635 0)
(2.7106 0.197932 0)
(3.166 0.0200703 0)
(2.37811 0.0144434 0)
(3.16944 -0.204461 0)
(2.80279 -0.602139 0)
(3.28911 -0.462573 0)
(3.18148 -0.571037 0)
(3.8323 -0.849827 0)
(3.91596 -0.4801 0)
(4.08424 -0.288515 0)
(4.1698 -0.170848 0)
(4.11107 -0.327591 0)
(4.21937 -0.219946 0)
(4.41447 0.0788756 0)
(4.53758 0.435875 0)
(4.13743 0.41246 0)
(4.09799 0.0623943 0)
(4.00913 0.439648 0)
(3.74841 0.210654 0)
(3.30936 0.225689 0)
(3.18429 -0.0855497 0)
(3.08045 0.0954248 0)
(2.98605 0.440171 0)
(3.01637 0.299728 0)
(2.76616 0.148384 0)
(3.26808 -0.0497244 0)
(3.07035 -0.0998009 0)
(3.29715 -0.0023618 0)
(2.8036 -0.00577711 0)
(3.24861 0.213969 0)
(2.44988 -0.035214 0)
(3.54547 -0.384189 0)
(2.14097 -0.357908 0)
(3.3865 -0.279572 0)
(3.32972 -0.752778 0)
(3.83463 -1.02933 0)
(4.04192 -0.473481 0)
(4.27782 -0.236399 0)
(4.21788 -0.162221 0)
(4.46279 -0.194131 0)
(4.21752 -0.265517 0)
(4.46733 0.0244321 0)
(4.39952 0.450846 0)
(4.48904 0.521206 0)
(4.13885 0.265151 0)
(4.04235 0.41079 0)
(4.09381 0.583098 0)
(3.53229 0.334531 0)
(3.75548 0.177593 0)
(2.83706 0.333832 0)
(3.2598 0.23704 0)
(2.58501 0.593309 0)
(3.41416 -0.118665 0)
(2.81389 -0.0231413 0)
(3.74192 -0.110213 0)
(2.9556 0.121939 0)
(3.46112 0.180838 0)
(2.73511 0.257416 0)
(3.23273 -0.193506 0)
(3.04189 -0.0492012 0)
(3.09524 -0.740253 0)
(3.52113 -0.575033 0)
(3.98212 -0.791841 0)
(3.97393 -1.18776 0)
(4.23739 -0.680832 0)
(4.16313 -0.343859 0)
(4.4469 -0.256425 0)
(4.47078 -0.304117 0)
(4.59264 -0.227188 0)
(4.34414 0.00884874 0)
(4.55436 0.441361 0)
(4.32259 0.574365 0)
(4.33966 0.259505 0)
(3.94903 0.470368 0)
(4.21491 0.492162 0)
(3.76837 0.37771 0)
(4.0119 0.266597 0)
(3.3925 0.328019 0)
(3.37678 0.561623 0)
(2.85438 0.247956 0)
(3.38307 0.0184388 0)
(3.0893 -0.209186 0)
(3.57862 -0.172269 0)
(3.09174 0.129315 0)
(3.23462 0.12494 0)
(2.71863 0.319514 0)
(3.33649 -0.157547 0)
(2.67988 -0.294242 0)
(3.57017 -0.539728 0)
(3.62077 -0.751349 0)
(4.20718 -0.941243 0)
(4.17381 -1.20984 0)
(4.47743 -0.605849 0)
(4.28181 -0.339099 0)
(4.65867 -0.341559 0)
(4.69852 -0.269356 0)
(4.8633 -0.215304 0)
(4.44878 0.0294924 0)
(4.75116 0.475708 0)
(4.52986 0.632122 0)
(4.55638 0.440188 0)
(3.91022 0.475887 0)
(4.12965 0.660404 0)
(3.63916 0.434151 0)
(4.0865 0.346688 0)
(3.59148 0.620805 0)
(3.58688 0.533898 0)
(3.39573 0.550083 0)
(3.19143 -0.192316 0)
(3.45923 -0.14897 0)
(2.92336 -0.0953589 0)
(3.30469 0.276064 0)
(2.69965 0.368414 0)
(3.14152 0.170892 0)
(2.73389 -0.147966 0)
(3.31009 -0.232203 0)
(2.9256 -0.524467 0)
(3.63822 -1.20417 0)
(4.06374 -1.06302 0)
(4.11369 -1.31017 0)
(4.13135 -0.739507 0)
(4.44599 -0.418328 0)
(4.60864 -0.456625 0)
(4.86409 -0.381787 0)
(4.646 -0.139222 0)
(4.5918 0.0799362 0)
(4.55985 0.405287 0)
(4.77015 0.666849 0)
(4.1887 0.565754 0)
(4.13733 0.678832 0)
(3.89427 0.647361 0)
(4.15228 0.380429 0)
(3.46832 0.32311 0)
(3.9163 0.575405 0)
(3.33226 0.696264 0)
(3.78743 0.439415 0)
(3.04431 -0.0237454 0)
(3.22984 -0.0636748 0)
(2.80548 -0.0904324 0)
(2.96216 0.242749 0)
(2.75951 0.248034 0)
(2.99081 0.26603 0)
(2.8093 -0.208187 0)
(3.16242 -0.404415 0)
(2.72228 -0.262528 0)
(3.45557 -1.28341 0)
(4.00173 -1.21504 0)
(4.27262 -1.22619 0)
(3.81067 -0.792807 0)
(4.36295 -0.571904 0)
(4.40669 -0.562679 0)
(4.79005 -0.251124 0)
(4.31913 -0.112516 0)
(4.59113 0.103407 0)
(4.18019 0.406818 0)
(4.52824 0.820987 0)
(4.00671 0.720502 0)
(4.23581 0.623447 0)
(3.80744 0.644568 0)
(3.99609 0.625753 0)
(3.46399 0.472834 0)
(3.63925 0.649329 0)
(3.50326 0.630774 0)
(3.78258 0.648272 0)
(3.24363 0.119129 0)
(3.15795 -0.0465733 0)
(3.00625 0.0506421 0)
(2.98821 0.289322 0)
(2.78254 0.335017 0)
(2.95815 0.139284 0)
(3.10124 -0.220347 0)
(3.00466 -0.226595 0)
(2.75367 -0.481329 0)
(3.32929 -1.45511 0)
(3.94693 -1.41589 0)
(3.79592 -1.17805 0)
(3.86341 -0.794483 0)
(4.39702 -0.725436 0)
(4.33473 -0.643387 0)
(4.74895 -0.314003 0)
(4.26139 -0.0877548 0)
(4.65234 0.177036 0)
(4.10346 0.46 0)
(4.58835 0.783637 0)
(4.32019 0.713052 0)
(4.07543 0.803491 0)
(3.75573 0.747548 0)
(3.59171 0.561312 0)
(3.12872 0.520544 0)
(3.16026 0.583973 0)
(3.3823 0.587241 0)
(3.21614 0.612447 0)
(3.49171 0.264901 0)
(2.71417 0.0574887 0)
(3.14291 -0.00491859 0)
(2.52428 0.352763 0)
(2.90164 0.267092 0)
(2.91947 0.112211 0)
(3.4157 -0.214342 0)
(2.74927 -0.216874 0)
(3.21672 -0.199173 0)
(3.30844 -1.53393 0)
(3.45584 -1.41946 0)
(3.6854 -1.20624 0)
(4.23796 -1.07707 0)
(4.5279 -0.822044 0)
(4.65663 -0.710021 0)
(4.79617 -0.198678 0)
(4.54572 -0.0843002 0)
(4.85852 0.195515 0)
(4.70992 0.457129 0)
(4.90672 0.696593 0)
(4.57245 0.952024 0)
(4.18982 0.930952 0)
(4.20107 0.872033 0)
(3.47836 0.911814 0)
(3.23328 0.675513 0)
(2.88994 0.521896 0)
(3.28527 0.598506 0)
(2.8461 0.579903 0)
(3.54159 0.35229 0)
(3.11995 0.144288 0)
(3.10254 0.144221 0)
(2.40378 0.441616 0)
(2.85986 0.113374 0)
(2.88285 -0.124734 0)
(3.40645 -0.128439 0)
(3.30091 -0.153089 0)
(3.14074 -0.268209 0)
(3.15212 -1.68316 0)
(3.64395 -1.56779 0)
(4.22029 -1.5605 0)
(4.65589 -1.23422 0)
(4.69924 -0.958144 0)
(4.77577 -0.778832 0)
(4.54598 -0.312148 0)
(4.61376 -0.164563 0)
(4.42066 0.0780847 0)
(4.82671 0.468679 0)
(4.42297 0.817302 0)
(4.41056 1.02773 0)
(4.2123 0.968066 0)
(4.12758 1.05223 0)
(3.46676 1.07117 0)
(3.4536 0.819825 0)
(3.13975 0.557801 0)
(2.92236 0.604953 0)
(3.28618 0.491042 0)
(3.24056 0.149772 0)
(3.49925 0.26013 0)
(2.90484 0.346587 0)
(3.03547 0.446751 0)
(3.07571 0.052063 0)
(3.15456 -0.198989 0)
(3.00845 -0.400642 0)
(3.32098 -0.0901552 0)
(2.90204 -0.0861959 0)
(3.47982 -2.05501 0)
(3.9688 -1.97649 0)
(4.30018 -1.79543 0)
(4.20767 -1.35729 0)
(4.1793 -0.91335 0)
(3.71954 -0.588409 0)
(3.57443 -0.0926392 0)
(3.74453 -0.0323151 0)
(3.64021 0.11077 0)
(4.08741 0.533589 0)
(3.58123 0.937575 0)
(3.78274 1.06076 0)
(3.66316 1.08844 0)
(3.51835 1.22765 0)
(3.26278 1.22266 0)
(3.34529 0.851724 0)
(3.21482 0.792745 0)
(3.11301 0.554822 0)
(3.22894 0.413404 0)
(3.29093 0.250765 0)
(3.1605 0.307224 0)
(3.17166 0.395074 0)
(3.29691 0.365688 0)
(3.43589 0.0816985 0)
(3.12845 -0.0926401 0)
(3.06657 -0.202479 0)
(2.70717 -0.111673 0)
(2.82158 0.00416957 0)
(3.71759 -2.38912 0)
(3.78877 -2.03415 0)
(3.35785 -1.75323 0)
(2.91369 -1.09693 0)
(2.66105 -0.658405 0)
(2.43452 -0.49799 0)
(2.52883 -0.349849 0)
(3.05148 -0.278371 0)
(2.65542 -0.0743763 0)
(3.22845 0.534205 0)
(2.73568 0.921295 0)
(2.84021 0.935542 0)
(2.69906 1.14842 0)
(2.68951 1.25932 0)
(2.85763 1.18427 0)
(2.99769 0.824034 0)
(3.01218 0.689366 0)
(3.05547 0.58442 0)
(2.9093 0.394332 0)
(2.9945 0.187804 0)
(2.94652 0.336725 0)
(3.22353 0.270261 0)
(3.24161 0.310399 0)
(3.23467 0.143847 0)
(3.00704 -0.0402663 0)
(2.95139 -0.171474 0)
(2.68777 0.0391739 0)
(2.49339 0.0493676 0)
(3.30889 -2.48031 0)
(2.93728 -1.65271 0)
(1.98475 -1.31439 0)
(1.62105 -0.976934 0)
(1.93358 -0.651136 0)
(1.26675 -0.494679 0)
(1.78384 -0.34856 0)
(1.28623 -0.102762 0)
(1.58488 0.0283051 0)
(1.50825 0.567443 0)
(1.80081 1.15912 0)
(1.40311 1.05753 0)
(1.79408 1.15408 0)
(2.05479 1.12805 0)
(2.50424 1.0625 0)
(2.64593 0.760284 0)
(2.70748 0.781554 0)
(2.62059 0.600167 0)
(2.77069 0.444768 0)
(2.68751 0.241124 0)
(2.88756 0.177474 0)
(2.92677 0.2557 0)
(2.88012 0.339977 0)
(2.9666 0.198852 0)
(3.02334 0.0452506 0)
(2.952 -0.0448968 0)
(2.63497 0.102599 0)
(2.64533 0.123455 0)
(2.81355 -2.28495 0)
(1.91294 -1.59583 0)
(0.412312 -1.16491 0)
(0.366629 -0.976532 0)
(0.0673057 -0.538199 0)
(-0.113787 -0.514607 0)
(-0.0883745 -0.376381 0)
(-0.0146746 -0.258716 0)
(-0.162746 -0.167751 0)
(0.0991544 0.457019 0)
(0.468414 0.949894 0)
(0.586839 0.903078 0)
(0.909489 0.889251 0)
(1.27643 0.888111 0)
(1.7032 0.903057 0)
(1.75326 0.680397 0)
(2.0155 0.735616 0)
(2.17741 0.525652 0)
(2.39598 0.34736 0)
(2.48784 0.147922 0)
(2.52528 0.226443 0)
(2.49438 0.276137 0)
(2.71757 0.285889 0)
(3.00784 0.0868977 0)
(3.10743 -0.041338 0)
(2.83313 0.0293986 0)
(2.65991 0.195967 0)
(2.85964 -0.0274715 0)
(1.79088 -1.71223 0)
(0.309287 -0.247964 0)
(-0.443443 -0.645307 0)
(-0.988192 -0.762296 0)
(-1.04676 -0.359253 0)
(-1.54941 -0.369698 0)
(-1.24953 -0.332047 0)
(-1.84411 -0.0349846 0)
(-1.66996 -0.0383629 0)
(-1.88304 0.311519 0)
(-0.491001 0.944598 0)
(-0.903677 0.776962 0)
(0.140194 0.766384 0)
(0.325763 0.770224 0)
(0.807679 0.819412 0)
(1.04681 0.586978 0)
(1.67776 0.624017 0)
(1.94311 0.370937 0)
(2.33785 0.298188 0)
(2.38813 0.181819 0)
(2.48401 0.171134 0)
(2.65321 0.161027 0)
(2.91868 0.0753705 0)
(3.03294 0.0141915 0)
(2.92668 0.129413 0)
(2.70633 0.177298 0)
(2.85536 0.0724119 0)
(3.0766 -0.1061 0)
(1.19652 -1.28616 0)
(-0.185149 -0.648577 0)
(-1.25813 -0.475772 0)
(-1.50976 -0.680566 0)
(-2.17211 -0.309045 0)
(-2.39053 -0.505104 0)
(-2.20863 -0.241826 0)
(-2.38809 -0.106471 0)
(-2.74366 -0.153408 0)
(-3.03086 -0.0917973 0)
(-1.87314 0.454872 0)
(-1.63671 0.589598 0)
(-1.23694 0.311453 0)
(-0.0172322 0.557457 0)
(0.121586 0.562977 0)
(0.511156 0.179259 0)
(1.374 0.326829 0)
(1.55457 0.163812 0)
(1.93106 0.142964 0)
(2.03362 0.090997 0)
(2.17615 0.0870061 0)
(2.28563 0.0649978 0)
(2.38293 0.0913666 0)
(2.35112 0.0900742 0)
(2.40275 0.111786 0)
(2.57066 0.0721162 0)
(2.60607 0.00985658 0)
(2.52296 -0.0481796 0)
(-0.156001 -0.256282 0)
(-1.45261 1.04744 0)
(0.579112 -0.103729 0)
(-2.63716 -0.20845 0)
(-1.15364 0.113966 0)
(-3.04894 -0.359705 0)
(-3.03077 -0.265532 0)
(-4.07382 0.277062 0)
(-2.63964 0.199412 0)
(-4.09748 -0.0393147 0)
(-2.74724 0.249604 0)
(-2.73915 0.380601 0)
(-0.875451 -0.0654844 0)
(-2.25348 0.124282 0)
(0.541084 0.520114 0)
(-0.118032 -0.0216679 0)
(0.826001 0.124214 0)
(0.845457 0.0488275 0)
(1.20052 0.075604 0)
(1.33059 0.0487655 0)
(1.47157 0.0427291 0)
(1.5882 0.0494157 0)
(1.71367 0.0338152 0)
(1.83093 0.0183906 0)
(1.94228 0.0244195 0)
(2.08859 0.0710936 0)
(2.23247 0.0819189 0)
(2.26551 -0.0516037 0)
(2.87579 0.585758 0)
(4.4537 -2.05768 0)
(2.91322 -2.18273 0)
(1.83491 -2.24168 0)
(1.32986 -1.9834 0)
(1.7182 -2.35177 0)
(0.973345 -1.95438 0)
(0.0930657 -1.64326 0)
(3.61548 0.113978 0)
(4.09675 -1.72172 0)
(1.93898 -1.14233 0)
(1.89363 -1.89547 0)
(2.02618 -2.21497 0)
(1.15536 -2.4477 0)
(0.388953 -2.02239 0)
(0.430754 -1.57651 0)
(3.52194 -0.330012 0)
(3.30318 -1.32192 0)
(3.33741 -1.36595 0)
(2.9254 -2.03844 0)
(2.64448 -1.60571 0)
(1.03834 -1.28878 0)
(0.177885 -1.39686 0)
(-0.298766 -0.949604 0)
(3.06842 -0.0041549 0)
(3.42879 -1.26903 0)
(1.845 -0.954514 0)
(1.38942 -1.56485 0)
(0.998864 -1.34216 0)
(0.497617 -1.45255 0)
(0.555619 -1.52658 0)
(0.231304 -1.38939 0)
(3.98151 -0.696056 0)
(2.98985 -0.792155 0)
(3.35916 -0.577011 0)
(3.28776 -1.57811 0)
(2.60783 -1.15119 0)
(2.02334 -0.878599 0)
(2.24241 -1.11246 0)
(1.11607 -0.718716 0)
(3.31621 -0.495581 0)
(2.48297 -0.698924 0)
(3.28267 -1.03388 0)
(1.24466 -0.98314 0)
(0.124455 -0.802579 0)
(1.77841 -1.43844 0)
(1.29556 -1.11935 0)
(1.4473 -0.596765 0)
(2.44029 -0.460725 0)
(3.51527 -0.827247 0)
(2.40517 -0.20478 0)
(2.87327 -0.126699 0)
(3.02771 -1.25131 0)
(3.51744 -1.53256 0)
(1.67528 -0.925355 0)
(1.80067 -0.515617 0)
(2.73757 -0.472061 0)
(2.96718 -0.513689 0)
(1.51284 -0.576087 0)
(2.92383 -1.23116 0)
(2.39531 -1.07039 0)
(0.986212 -0.583252 0)
(-0.00790677 -0.354845 0)
(-0.160834 -0.582626 0)
(3.19407 -0.577412 0)
(2.13356 -0.255642 0)
(2.94889 -0.332674 0)
(2.33265 -0.681949 0)
(2.11308 -0.366903 0)
(2.46303 -0.526073 0)
(2.25531 -0.254278 0)
(2.80024 -0.84161 0)
(2.8113 -0.162642 0)
(2.23336 -0.296089 0)
(2.68996 -0.58205 0)
(1.91454 -0.721831 0)
(2.64333 -0.979739 0)
(2.40309 -0.609759 0)
(1.81552 -0.528754 0)
(2.00516 -0.881805 0)
(2.39238 -0.338937 0)
(3.18746 -0.257148 0)
(2.40033 -0.240961 0)
(2.56463 -0.796635 0)
(3.01389 -0.667608 0)
(2.42223 -0.239076 0)
(2.65534 -0.0749129 0)
(2.30574 -0.332318 0)
(3.076 -0.144485 0)
(2.7514 -0.244968 0)
(2.40921 -0.185959 0)
(3.08615 -0.934982 0)
(2.21412 -0.826106 0)
(2.35228 -0.382701 0)
(2.14455 -0.411692 0)
(2.43176 -0.722303 0)
(2.78708 -0.176343 0)
(2.16451 0.0683923 0)
(2.66974 -0.489381 0)
(2.70254 -0.761572 0)
(2.47397 -0.363943 0)
(2.38826 -0.268815 0)
(2.30935 -0.176206 0)
(2.06048 -0.292229 0)
(2.42209 0.214781 0)
(2.66127 -0.147962 0)
(2.97354 -0.413743 0)
(2.47588 -0.793453 0)
(2.40135 -0.598519 0)
(2.32855 -0.272862 0)
(2.15308 -0.219258 0)
(2.61475 -0.63446 0)
(2.4509 -0.086269 0)
(3.02796 -0.216294 0)
(2.95183 -0.413154 0)
(2.80847 -0.533285 0)
(2.20686 -0.313582 0)
(2.11209 -0.175589 0)
(2.17974 -0.382435 0)
(2.76779 -0.615784 0)
(2.83103 -0.0678809 0)
(2.87089 -0.359369 0)
(2.96584 -0.31515 0)
(2.73678 -0.400165 0)
(2.27339 -0.20999 0)
(2.32893 -0.221915 0)
(2.34435 -0.543568 0)
(2.39889 -0.71268 0)
(3.13071 -0.203493 0)
(3.0632 -0.304969 0)
(2.55872 -0.339466 0)
(2.36303 -0.219165 0)
(2.14389 -0.113489 0)
(2.36764 -0.229535 0)
(2.14544 -0.491513 0)
(2.02397 -0.576532 0)
(2.92485 -0.161467 0)
(2.63511 -0.0397216 0)
(2.33903 0.00905397 0)
(2.32084 -0.188244 0)
(2.30337 -0.174396 0)
(2.30907 -0.193303 0)
(1.89795 -0.367605 0)
(1.62298 -0.546059 0)
(2.4896 0.010537 0)
(2.44189 -0.0326004 0)
(2.22197 -0.180567 0)
(2.10727 -0.207965 0)
(2.15926 -0.10585 0)
(2.07261 -0.0401578 0)
(1.55425 -0.210877 0)
(1.13877 -0.347163 0)
(2.04744 -0.10587 0)
(2.07901 0.111741 0)
(2.21171 0.153043 0)
(1.99632 -0.159147 0)
(1.46728 -0.122858 0)
(1.557 0.125108 0)
(1.64951 0.0792671 0)
(1.24565 -0.165352 0)
(-1.27231 -0.889399 0)
(0.246655 0.309273 0)
(0.416482 0.464208 0)
(0.714997 0.501537 1.50052e-18)
(1.40172 0.809073 1.3076e-19)
(1.53536 0.608718 0)
(2.37057 0.644008 1.09555e-18)
(2.00412 0.455918 5.79227e-20)
(2.46829 0.48314 7.35552e-19)
(2.11145 0.375811 6.80878e-19)
(2.69404 0.429221 0)
(2.32429 0.34496 5.57187e-19)
(2.94151 0.431423 -2.3257e-20)
(2.5516 0.358917 4.48711e-19)
(3.18274 0.458384 5.45019e-21)
(2.78644 0.38606 -6.00947e-21)
(3.40978 0.484454 -1.33506e-19)
(3.08986 0.408421 9.94488e-20)
(3.64756 0.511198 9.89336e-22)
(3.43032 0.140505 1.89033e-22)
(-0.536276 -1.29401 0)
(0.587749 -0.47221 0)
(0.485086 -0.0430513 -6.74521e-20)
(1.00167 0.370336 -3.12414e-18)
(1.43219 0.654428 -6.95776e-20)
(1.64352 0.528697 1.62835e-18)
(2.27077 0.514737 -1.07916e-18)
(2.04672 0.337259 4.11923e-19)
(2.40346 0.357048 7.85383e-19)
(2.18771 0.301039 -6.83152e-19)
(2.61193 0.358674 0)
(2.39975 0.318152 5.42994e-19)
(2.82877 0.36924 7.14516e-21)
(2.60966 0.319169 -4.51697e-19)
(3.05302 0.37504 8.4232e-22)
(2.82799 0.319433 0)
(3.28649 0.392664 -9.32818e-22)
(3.11826 0.33148 0)
(3.50184 0.398296 0)
(3.39707 -0.006773 0)
(-0.338083 -0.193497 0)
(0.600111 -0.024332 -7.58435e-20)
(0.619957 0.385593 1.35666e-19)