/*--------------------------------*- C++ -*----------------------------------*\
| =========                 |                                                 |
| \\      /  F ield         | OpenFOAM: The Open Source CFD Toolbox           |
|  \\    /   O peration     | Version:  2.4.0                                 |
|   \\  /    A nd           | Web:      www.OpenFOAM.org                      |
|    \\/     M anipulation  |                                                 |
\*---------------------------------------------------------------------------*/
FoamFile
{
    version     2.0;
    format      ascii;
    class       volScalarField;
    location    "0.5";
    object      p;
}
// * * * * * * * * * * * * * * * * * * * * * * * * * * * * * * * * * * * * * //

dimensions      [0 2 -2 0 0 0 0];

internalField   nonuniform List<scalar> 
6000
(
-0.171309
0.192211
0.139306
0.13162
0.104431
0.130979
0.173768
0.216441
0.248188
0.274245
0.298025
0.320843
0.341937
0.3602
0.374932
0.386205
0.394716
0.401319
0.406655
0.411086
0.414802
0.417917
0.420513
0.422657
0.424405
0.425802
0.426881
0.427672
0.428194
0.428463
0.42849
0.428282
0.427841
0.427167
0.426254
0.425095
0.423677
0.421984
0.419996
0.417686
0.415021
0.411964
0.408466
0.404471
0.399907
0.394689
0.388709
0.381838
0.37391
0.36472
0.353998
0.341407
0.326485
0.308686
0.28705
0.260925
0.227201
0.188057
0.12496
0.078605
-0.144739
0.18861
0.140121
0.131869
0.104139
0.129794
0.172659
0.215556
0.247479
0.2736
0.297414
0.320273
0.341437
0.359787
0.374603
0.385941
0.394494
0.401123
0.406474
0.410916
0.41464
0.417761
0.420362
0.42251
0.42426
0.425658
0.426738
0.427529
0.42805
0.428317
0.428342
0.42813
0.427685
0.427006
0.426087
0.424921
0.423494
0.421792
0.419792
0.41747
0.414792
0.411721
0.408208
0.404194
0.39961
0.394368
0.388361
0.381458
0.373493
0.364259
0.353487
0.340836
0.325843
0.307957
0.286221
0.259953
0.226099
0.18667
0.123527
0.0767221
-0.127778
0.184934
0.140377
0.132049
0.103806
0.129342
0.171989
0.215048
0.247079
0.27321
0.297007
0.319866
0.341067
0.359478
0.374362
0.385754
0.394341
0.400989
0.40635
0.410798
0.414526
0.41765
0.420254
0.422404
0.424156
0.425555
0.426637
0.427428
0.427949
0.428217
0.428241
0.42803
0.427584
0.426904
0.425984
0.424817
0.42339
0.421688
0.419689
0.417364
0.414682
0.411605
0.408084
0.404063
0.39947
0.394218
0.3882
0.381284
0.373305
0.364055
0.353262
0.340589
0.325568
0.30765
0.285867
0.259556
0.225608
0.186071
0.12277
0.0758686
-0.115445
0.180878
0.140926
0.132152
0.103321
0.128328
0.171199
0.214508
0.246653
0.272779
0.296549
0.319405
0.340644
0.359122
0.374081
0.385533
0.394158
0.400825
0.406197
0.410651
0.414383
0.41751
0.420115
0.422267
0.42402
0.42542
0.426502
0.427292
0.427813
0.428079
0.428102
0.427887
0.427438
0.426754
0.425829
0.424656
0.423221
0.421508
0.419495
0.41716
0.41447
0.411383
0.407852
0.403818
0.39921
0.393941
0.387902
0.380963
0.372955
0.363672
0.352841
0.340121
0.325046
0.307058
0.285201
0.258772
0.224755
0.185063
0.121684
0.0748275
-0.103522
0.176564
0.141448
0.132171
0.102709
0.127337
0.170388
0.213993
0.246248
0.272346
0.296073
0.318921
0.340199
0.35875
0.373792
0.385312
0.393977
0.400665
0.406048
0.410509
0.414244
0.417373
0.419981
0.422134
0.423889
0.42529
0.426372
0.427163
0.427684
0.42795
0.427971
0.427756
0.427306
0.42662
0.425693
0.424518
0.423082
0.421368
0.419357
0.417018
0.414318
0.411222
0.40768
0.403634
0.399013
0.393729
0.387674
0.380715
0.372686
0.363377
0.352516
0.33976
0.324643
0.306607
0.284685
0.258198
0.224048
0.184222
0.120706
0.0738832
-0.0918499
0.17213
0.14191
0.132103
0.101996
0.126273
0.169559
0.2135
0.245865
0.271912
0.295578
0.31841
0.339727
0.358358
0.373495
0.38509
0.393801
0.400512
0.405905
0.41037
0.414108
0.417239
0.419848
0.422003
0.423759
0.425161
0.426243
0.427034
0.427555
0.42782
0.42784
0.427623
0.427171
0.426483
0.425553
0.424374
0.422932
0.421212
0.419189
0.416843
0.414139
0.411036
0.407486
0.403431
0.398797
0.393499
0.387428
0.38045
0.372398
0.363062
0.352169
0.339376
0.324214
0.306122
0.284134
0.257553
0.223316
0.183369
0.119729
0.0730025
-0.0810477
0.167642
0.142263
0.131937
0.101211
0.125142
0.168713
0.213029
0.245503
0.271478
0.295065
0.317871
0.339224
0.35794
0.373182
0.384866
0.39363
0.400365
0.405769
0.410238
0.413978
0.41711
0.419719
0.421875
0.423631
0.425034
0.426116
0.426907
0.427427
0.427692
0.427712
0.427493
0.427039
0.426349
0.425416
0.424234
0.422789
0.421065
0.419043
0.416688
0.413976
0.410864
0.407304
0.403237
0.398592
0.39328
0.387192
0.380195
0.372122
0.36276
0.351837
0.339008
0.323803
0.305659
0.283608
0.256951
0.222616
0.182551
0.118802
0.0721928
-0.0711636
0.163171
0.14248
0.131644
0.100377
0.123965
0.167858
0.21258
0.245165
0.271046
0.294536
0.317304
0.338689
0.357493
0.372851
0.384635
0.393461
0.400224
0.405639
0.410112
0.413854
0.416986
0.419595
0.421751
0.423508
0.42491
0.425993
0.426783
0.427303
0.427567
0.427585
0.427365
0.42691
0.426217
0.425282
0.424096
0.422648
0.420919
0.418887
0.41653
0.413812
0.410692
0.407124
0.403047
0.39839
0.393064
0.386961
0.379946
0.371852
0.362465
0.351513
0.338649
0.323403
0.305209
0.283097
0.256364
0.221937
0.181761
0.117922
0.0714405
-0.061965
0.158782
0.142537
0.131223
0.0995186
0.122767
0.167007
0.212158
0.244852
0.270619
0.293997
0.316716
0.338126
0.357019
0.3725
0.384397
0.393294
0.400091
0.405517
0.409994
0.413736
0.416867
0.419477
0.421632
0.423388
0.42479
0.425873
0.426663
0.427181
0.427444
0.427462
0.427241
0.426783
0.426088
0.42515
0.423962
0.422509
0.420776
0.418741
0.416377
0.413652
0.410525
0.406948
0.402861
0.398192
0.392853
0.386735
0.379702
0.371587
0.362176
0.351195
0.338298
0.323011
0.304769
0.282598
0.255791
0.221278
0.180997
0.117087
0.0707322
-0.0532967
0.154523
0.142422
0.130685
0.0986601
0.121578
0.166175
0.211769
0.244565
0.270206
0.293455
0.316113
0.337539
0.35652
0.372132
0.384151
0.393129
0.399963
0.405403
0.409883
0.413624
0.416755
0.419363
0.421517
0.423273
0.424674
0.425756
0.426546
0.427063
0.427325
0.427341
0.427119
0.426659
0.425962
0.425022
0.42383
0.422374
0.420636
0.418597
0.416227
0.413495
0.410361
0.406775
0.402679
0.397999
0.392647
0.386513
0.379464
0.371328
0.361893
0.350884
0.337954
0.322628
0.304338
0.28211
0.255232
0.220635
0.180254
0.116289
0.0700593
-0.0451042
0.150425
0.142131
0.130033
0.0978438
0.120391
0.165381
0.211421
0.24431
0.269811
0.292919
0.315502
0.336935
0.356
0.371746
0.383898
0.392965
0.399842
0.405297
0.409779
0.41352
0.416649
0.419255
0.421408
0.423162
0.424563
0.425643
0.426432
0.426949
0.427209
0.427224
0.427
0.426539
0.425839
0.424896
0.423701
0.422241
0.4205
0.418455
0.41608
0.413342
0.4102
0.406606
0.4025
0.397809
0.392445
0.386297
0.37923
0.371074
0.361616
0.35058
0.337618
0.322253
0.303916
0.281632
0.254685
0.220008
0.179532
0.115524
0.0694165
-0.0373553
0.146509
0.141674
0.129308
0.097091
0.11931
0.164652
0.211115
0.24409
0.26944
0.292394
0.314892
0.336321
0.355464
0.371346
0.383638
0.392802
0.399727
0.405198
0.409683
0.413422
0.416548
0.419152
0.421303
0.423056
0.424455
0.425534
0.426321
0.426837
0.427096
0.42711
0.426884
0.426421
0.425719
0.424773
0.423575
0.422112
0.420367
0.418317
0.415937
0.413192
0.410043
0.406441
0.402326
0.397624
0.392247
0.386085
0.379001
0.370826
0.361345
0.350283
0.337289
0.321886
0.303504
0.281165
0.254151
0.219397
0.178829
0.114791
0.0688006
-0.0300116
0.142796
0.141073
0.128532
0.0964303
0.11836
0.163976
0.210851
0.243907
0.269096
0.291889
0.31429
0.335704
0.354916
0.370933
0.383371
0.39264
0.399618
0.405106
0.409594
0.413331
0.416454
0.419055
0.421204
0.422954
0.424351
0.425429
0.426215
0.426729
0.426987
0.426999
0.426771
0.426306
0.425602
0.424654
0.423453
0.421986
0.420236
0.418182
0.415796
0.413046
0.40989
0.40628
0.402155
0.397443
0.392054
0.385877
0.378778
0.370584
0.361081
0.349992
0.336967
0.321528
0.303101
0.280709
0.253629
0.218801
0.178146
0.114088
0.0682095
-0.0230354
0.1393
0.140356
0.127725
0.0958845
0.117534
0.163416
0.210637
0.243762
0.268784
0.29141
0.313704
0.33509
0.354362
0.370511
0.383099
0.39248
0.399515
0.405022
0.409512
0.413246
0.416366
0.418964
0.421109
0.422857
0.424251
0.425327
0.426111
0.426624
0.42688
0.426891
0.426661
0.426194
0.425488
0.424537
0.423333
0.421863
0.420109
0.418051
0.41566
0.412903
0.409741
0.406122
0.401989
0.397266
0.391865
0.385675
0.378559
0.370347
0.360822
0.349708
0.336653
0.321177
0.302707
0.280263
0.253119
0.21822
0.177482
0.113414
0.0676418
-0.0163963
0.136033
0.139553
0.126915
0.0954942
0.116868
0.162992
0.210482
0.243657
0.268508
0.290963
0.313141
0.334487
0.353806
0.370082
0.382823
0.392321
0.399417
0.404946
0.409438
0.413169
0.416284
0.418877
0.421019
0.422764
0.424156
0.42523
0.426012
0.426522
0.426777
0.426786
0.426554
0.426085
0.425377
0.424423
0.423216
0.421743
0.419985
0.417922
0.415526
0.412764
0.409595
0.405969
0.401826
0.397094
0.391681
0.385478
0.378346
0.370116
0.36057
0.34943
0.336346
0.320835
0.302323
0.279828
0.252622
0.217654
0.176837
0.112766
0.0670963
-0.0100706
0.132999
0.138694
0.126136
0.0952982
0.1164
0.162719
0.210394
0.243593
0.26827
0.290553
0.312608
0.3339
0.353254
0.369649
0.382543
0.392164
0.399325
0.404876
0.409371
0.413098
0.416208
0.418796
0.420934
0.422675
0.424064
0.425136
0.425915
0.426424
0.426677
0.426684
0.426451
0.425979
0.425269
0.424313
0.423103
0.421626
0.419865
0.417797
0.415396
0.412628
0.409452
0.405819
0.401668
0.396926
0.391502
0.385285
0.378139
0.36989
0.360324
0.34916
0.336046
0.320502
0.301948
0.279404
0.252138
0.217104
0.176211
0.112145
0.0665722
-0.00403788
0.130202
0.137809
0.125423
0.0953291
0.116164
0.162612
0.210376
0.243571
0.268073
0.290184
0.312111
0.333338
0.352712
0.369216
0.382262
0.392008
0.399238
0.404814
0.409311
0.413034
0.416138
0.418721
0.420854
0.422591
0.423977
0.425045
0.425823
0.426329
0.42658
0.426585
0.42635
0.425877
0.425164
0.424205
0.422993
0.421512
0.419747
0.417676
0.41527
0.412496
0.409314
0.405673
0.401514
0.396762
0.391327
0.385098
0.377936
0.369671
0.360084
0.348896
0.335755
0.320176
0.301583
0.27899
0.251666
0.216569
0.175604
0.111549
0.0660688
0.00171976
0.12764
0.136926
0.124807
0.0956139
0.11619
0.162682
0.210434
0.24359
0.267919
0.28986
0.311654
0.332805
0.352185
0.368787
0.38198
0.391854
0.399157
0.404759
0.409259
0.412976
0.416074
0.418651
0.420778
0.422511
0.423893
0.424959
0.425734
0.426238
0.426487
0.42649
0.426252
0.425777
0.425062
0.424101
0.422885
0.421402
0.419633
0.417557
0.415147
0.412368
0.409179
0.405532
0.401364
0.396603
0.391157
0.384915
0.377739
0.369457
0.35985
0.34864
0.335471
0.31986
0.301227
0.278588
0.251207
0.216049
0.175016
0.110979
0.0655853
0.00721837
0.125311
0.136068
0.124314
0.0961727
0.116503
0.162937
0.21057
0.243651
0.267807
0.289583
0.311243
0.332306
0.351678
0.368364
0.3817
0.391704
0.399082
0.40471
0.409213
0.412925
0.416015
0.418586
0.420708
0.422436
0.423814
0.424876
0.425648
0.42615
0.426396
0.426397
0.426158
0.425681
0.424963
0.424
0.422781
0.421295
0.419522
0.417442
0.415027
0.412243
0.409048
0.405394
0.401218
0.396448
0.390991
0.384738
0.377548
0.369249
0.359623
0.34839
0.335194
0.319552
0.300881
0.278197
0.250761
0.215545
0.174447
0.110432
0.0651213
0.0124723
0.123208
0.135254
0.123964
0.0970168
0.117115
0.16338
0.210783
0.243752
0.267739
0.289356
0.310879
0.331847
0.351195
0.367952
0.381423
0.391556
0.399012
0.404669
0.409175
0.41288
0.415963
0.418527
0.420642
0.422365
0.423739
0.424797
0.425566
0.426065
0.426309
0.426308
0.426067
0.425587
0.424867
0.423901
0.42268
0.421191
0.419415
0.417331
0.414911
0.412122
0.408921
0.40526
0.401077
0.396297
0.390831
0.384565
0.377362
0.369047
0.359403
0.348148
0.334926
0.319253
0.300545
0.277817
0.250328
0.215056
0.173897
0.109908
0.0646761
0.0174947
0.121326
0.134501
0.123769
0.0981469
0.118031
0.164009
0.211071
0.243893
0.267715
0.28918
0.310566
0.33143
0.35074
0.367554
0.381151
0.391413
0.398948
0.404635
0.409143
0.412842
0.415917
0.418473
0.420581
0.422298
0.423667
0.424722
0.425487
0.425984
0.426226
0.426222
0.425979
0.425497
0.424775
0.423806
0.422582
0.42109
0.419311
0.417223
0.414799
0.412004
0.408798
0.40513
0.40094
0.396152
0.390675
0.384398
0.377181
0.368851
0.359189
0.347912
0.334666
0.318962
0.300219
0.277448
0.249908
0.214583
0.173366
0.109407
0.0642492
0.0222974
0.119655
0.133818
0.123736
0.0995526
0.119242
0.164816
0.211433
0.244071
0.267734
0.289054
0.310306
0.331058
0.350318
0.367173
0.380886
0.391274
0.39889
0.404607
0.409118
0.41281
0.415876
0.418424
0.420525
0.422236
0.4236
0.42465
0.425412
0.425906
0.426145
0.426139
0.425894
0.42541
0.424685
0.423714
0.422488
0.420992
0.41921
0.417118
0.41469
0.41189
0.408679
0.405005
0.400807
0.39601
0.390524
0.384236
0.377006
0.368661
0.358981
0.347684
0.334413
0.318681
0.299902
0.277091
0.249501
0.214125
0.172854
0.108928
0.0638402
0.0268919
0.118187
0.133214
0.123861
0.101213
0.120729
0.165788
0.211861
0.244285
0.267795
0.28898
0.310099
0.330734
0.349931
0.366811
0.38063
0.391141
0.398838
0.404587
0.409101
0.412785
0.415842
0.41838
0.420474
0.422178
0.423537
0.424582
0.425341
0.425832
0.426068
0.42606
0.425812
0.425325
0.424599
0.423626
0.422396
0.420898
0.419112
0.417017
0.414584
0.41178
0.408563
0.404883
0.400678
0.395873
0.390378
0.384079
0.376837
0.368477
0.35878
0.347463
0.334169
0.318408
0.299596
0.276745
0.249107
0.213683
0.17236
0.10847
0.0634485
0.0312888
0.116909
0.132693
0.124137
0.103098
0.122462
0.166906
0.212351
0.244533
0.267898
0.288956
0.309946
0.33046
0.349582
0.366473
0.380385
0.391013
0.398792
0.404574
0.40909
0.412766
0.415813
0.418342
0.420427
0.422125
0.423477
0.424518
0.425273
0.42576
0.425994
0.425983
0.425733
0.425245
0.424516
0.42354
0.422308
0.420807
0.419018
0.416919
0.414483
0.411674
0.408452
0.404765
0.400554
0.395741
0.390237
0.383928
0.376673
0.3683
0.358586
0.34725
0.333932
0.318145
0.299301
0.276411
0.248727
0.213257
0.171885
0.108034
0.0630737
0.0354981
0.115813
0.132255
0.124551
0.105173
0.124407
0.168151
0.212896
0.244812
0.268041
0.288982
0.309846
0.330236
0.349272
0.36616
0.380153
0.390893
0.398752
0.404567
0.409086
0.412754
0.41579
0.418309
0.420385
0.422076
0.423422
0.424458
0.425209
0.425693
0.425923
0.42591
0.425657
0.425167
0.424435
0.423458
0.422223
0.420719
0.418927
0.416825
0.414384
0.411571
0.408344
0.404652
0.400434
0.395614
0.390101
0.383781
0.376516
0.368128
0.358399
0.347044
0.333704
0.317891
0.299015
0.276088
0.248361
0.212847
0.171429
0.107617
0.0627155
0.0395297
0.114886
0.131901
0.125088
0.107399
0.126524
0.169501
0.213489
0.245122
0.268223
0.289056
0.309798
0.330062
0.349005
0.365874
0.379935
0.39078
0.398719
0.404567
0.409089
0.412748
0.415772
0.418281
0.420348
0.422031
0.423371
0.424402
0.425148
0.425628
0.425856
0.42584
0.425585
0.425092
0.424359
0.423378
0.422142
0.420635
0.41884
0.416734
0.41429
0.411473
0.408241
0.404543
0.400318
0.395491
0.38997
0.38364
0.376363
0.367963
0.358218
0.346845
0.333485
0.317646
0.29874
0.275777
0.248008
0.212452
0.170991
0.107221
0.0623733
0.0433927
0.114118
0.131627
0.125731
0.109737
0.128775
0.170935
0.214124
0.24546
0.268442
0.289177
0.309802
0.329938
0.348779
0.365617
0.379733
0.390676
0.398693
0.404575
0.409099
0.412748
0.41576
0.418258
0.420316
0.42199
0.423323
0.424349
0.425091
0.425567
0.425792
0.425773
0.425516
0.425021
0.424285
0.423302
0.422063
0.420554
0.418756
0.416647
0.414199
0.411378
0.408141
0.404438
0.400207
0.395373
0.389843
0.383505
0.376217
0.367804
0.358045
0.346654
0.333273
0.31741
0.298475
0.275478
0.247669
0.212073
0.170572
0.106843
0.0620469
0.0470959
0.113499
0.131431
0.126464
0.112152
0.131122
0.172434
0.214797
0.245826
0.268698
0.289343
0.309855
0.329863
0.348597
0.365392
0.379549
0.390582
0.398674
0.404589
0.409116
0.412755
0.415754
0.41824
0.420288
0.421953
0.42328
0.4243
0.425037
0.42551
0.425731
0.42571
0.42545
0.424952
0.424214
0.42323
0.421988
0.420476
0.418675
0.416563
0.414112
0.411287
0.408045
0.404337
0.4001
0.395259
0.389722
0.383375
0.376077
0.367651
0.357878
0.346471
0.33307
0.317183
0.29822
0.275192
0.247343
0.21171
0.170171
0.106485
0.061736
0.0506479
0.113018
0.131308
0.127271
0.114613
0.133533
0.173979
0.215502
0.246218
0.268988
0.289551
0.309955
0.329836
0.348457
0.365198
0.379384
0.390498
0.398663
0.40461
0.409139
0.412767
0.415754
0.418227
0.420264
0.421921
0.423241
0.424254
0.424987
0.425456
0.425674
0.42565
0.425387
0.424887
0.424147
0.42316
0.421916
0.420402
0.418598
0.416483
0.414029
0.411199
0.407954
0.404241
0.399998
0.395151
0.389606
0.38325
0.375942
0.367505
0.357718
0.346295
0.332875
0.316966
0.297977
0.274917
0.247031
0.211363
0.169788
0.106145
0.0614401
0.0540567
0.112665
0.131255
0.12814
0.117094
0.135979
0.175557
0.216235
0.246635
0.269312
0.289801
0.310102
0.329856
0.348361
0.365037
0.379239
0.390425
0.398659
0.404638
0.409169
0.412786
0.415759
0.418219
0.420245
0.421893
0.423205
0.424213
0.42494
0.425405
0.42562
0.425593
0.425328
0.424826
0.424083
0.423094
0.421848
0.420331
0.418525
0.416407
0.413949
0.411116
0.407866
0.404148
0.3999
0.395047
0.389495
0.383131
0.375813
0.367365
0.357565
0.346127
0.332689
0.316759
0.297744
0.274654
0.246733
0.211032
0.169423
0.105823
0.061159
0.0573298
0.112431
0.131267
0.129058
0.119573
0.138438
0.177156
0.216994
0.247077
0.269668
0.29009
0.310291
0.329921
0.348306
0.364909
0.379115
0.390364
0.398663
0.404674
0.409206
0.412811
0.415769
0.418216
0.420231
0.421869
0.423173
0.424175
0.424897
0.425358
0.425569
0.425539
0.425271
0.424767
0.424022
0.423031
0.421783
0.420263
0.418455
0.416334
0.413873
0.411036
0.407783
0.40406
0.399807
0.394948
0.389389
0.383017
0.37569
0.367232
0.357419
0.345966
0.332511
0.316561
0.297521
0.274403
0.246449
0.210716
0.169077
0.105519
0.0608925
0.0604746
0.112307
0.13134
0.130017
0.122035
0.140892
0.178767
0.217776
0.247544
0.270056
0.290416
0.310522
0.330029
0.348292
0.364815
0.379013
0.390316
0.398676
0.404716
0.409249
0.412842
0.415785
0.418218
0.420221
0.42185
0.423146
0.42414
0.424857
0.425314
0.425521
0.425488
0.425218
0.424711
0.423965
0.422971
0.421721
0.420199
0.418388
0.416265
0.4138
0.410961
0.407703
0.403977
0.399719
0.394853
0.389288
0.382909
0.375573
0.367105
0.35728
0.345814
0.332342
0.316372
0.297309
0.274164
0.246179
0.210416
0.168748
0.105232
0.0606403
0.0634978
0.112285
0.131472
0.131008
0.124469
0.143327
0.180382
0.21858
0.248033
0.270473
0.290777
0.310791
0.330178
0.348318
0.364753
0.378933
0.390281
0.398697
0.404766
0.409299
0.412878
0.415806
0.418225
0.420216
0.421834
0.423122
0.42411
0.424821
0.425273
0.425477
0.425441
0.425168
0.424659
0.42391
0.422915
0.421662
0.420138
0.418325
0.416199
0.413732
0.410889
0.407628
0.403897
0.399634
0.394764
0.389193
0.382806
0.375462
0.366984
0.357149
0.345669
0.332182
0.316193
0.297109
0.273938
0.245922
0.210132
0.168437
0.104963
0.0604021
0.0664058
0.112356
0.131657
0.132026
0.126866
0.145735
0.181995
0.219404
0.248547
0.270918
0.291171
0.311097
0.330365
0.348383
0.364725
0.378877
0.39026
0.398727
0.404823
0.409355
0.412921
0.415833
0.418237
0.420215
0.421823
0.423102
0.424083
0.424788
0.425236
0.425436
0.425397
0.425122
0.42461
0.423859
0.422861
0.421607
0.420081
0.418265
0.416137
0.413667
0.410821
0.407557
0.403822
0.399555
0.394679
0.389102
0.382709
0.375357
0.36687
0.357024
0.345532
0.33203
0.316024
0.296919
0.273724
0.24568
0.209864
0.168145
0.10471
0.0601777
0.0692046
0.112514
0.131895
0.133067
0.129222
0.148109
0.183604
0.220246
0.249083
0.271391
0.291597
0.311437
0.330589
0.348484
0.36473
0.378845
0.390253
0.398766
0.404887
0.409418
0.41297
0.415865
0.418254
0.420219
0.421815
0.423085
0.424059
0.424759
0.425202
0.425399
0.425356
0.425078
0.424564
0.423811
0.422812
0.421555
0.420027
0.418209
0.416079
0.413606
0.410757
0.407489
0.403751
0.39948
0.3946
0.389017
0.382617
0.375258
0.366763
0.356906
0.345402
0.331887
0.315864
0.296739
0.273522
0.245452
0.209612
0.167869
0.104473
0.0599671
0.0718999
0.11275
0.13218
0.134127
0.131533
0.150444
0.185204
0.221107
0.249642
0.27189
0.292051
0.311809
0.330848
0.348621
0.364766
0.378836
0.390261
0.398814
0.404958
0.409487
0.413024
0.415902
0.418275
0.420226
0.421812
0.423073
0.424039
0.424733
0.425171
0.425364
0.425319
0.425038
0.424522
0.423767
0.422765
0.421506
0.419976
0.418157
0.416024
0.413549
0.410697
0.407426
0.403685
0.39941
0.394525
0.388937
0.382531
0.375166
0.366662
0.356796
0.345281
0.331752
0.315715
0.296571
0.273332
0.245238
0.209375
0.167612
0.104252
0.0597699
0.0744969
0.11306
0.132512
0.135203
0.133797
0.152739
0.186794
0.221985
0.250223
0.272414
0.292534
0.31221
0.331139
0.348791
0.364833
0.378851
0.390284
0.398872
0.405036
0.409562
0.413084
0.415944
0.418301
0.420238
0.421813
0.423064
0.424023
0.424711
0.425144
0.425333
0.425284
0.425001
0.424483
0.423725
0.422722
0.421461
0.419929
0.418108
0.415973
0.413496
0.410641
0.407368
0.403623
0.399344
0.394455
0.388862
0.382451
0.375079
0.366568
0.356693
0.345168
0.331627
0.315575
0.296414
0.273155
0.245038
0.209155
0.167372
0.104048
0.0595861
0.0770005
0.113436
0.132886
0.136292
0.136015
0.154992
0.188373
0.22288
0.250825
0.272962
0.293041
0.312639
0.331459
0.348993
0.36493
0.378889
0.390322
0.39894
0.405122
0.409644
0.413149
0.415991
0.418331
0.420255
0.421817
0.423059
0.42401
0.424692
0.425121
0.425305
0.425253
0.424967
0.424447
0.423687
0.422682
0.421419
0.419886
0.418062
0.415925
0.413446
0.410589
0.407313
0.403565
0.399283
0.39439
0.388793
0.382376
0.374998
0.36648
0.356597
0.345062
0.33151
0.315444
0.296268
0.272991
0.244852
0.20895
0.167149
0.103859
0.0594155
0.0794154
0.113873
0.133301
0.137393
0.138187
0.157202
0.18994
0.223791
0.251449
0.273532
0.293573
0.313094
0.331808
0.349224
0.365055
0.37895
0.390376
0.399017
0.405215
0.409732
0.413221
0.416043
0.418366
0.420275
0.421826
0.423058
0.424001
0.424677
0.4251
0.425281
0.425226
0.424937
0.424414
0.423652
0.422645
0.421381
0.419846
0.41802
0.415881
0.4134
0.410541
0.407263
0.403512
0.399226
0.39433
0.388729
0.382307
0.374924
0.366399
0.356509
0.344965
0.331402
0.315324
0.296133
0.272839
0.24468
0.208761
0.166944
0.103685
0.0592581
0.0817457
0.114366
0.133755
0.138505
0.140314
0.15937
0.191495
0.224717
0.252093
0.274124
0.294127
0.313572
0.332183
0.349484
0.365209
0.379035
0.390446
0.399105
0.405315
0.409826
0.413297
0.4161
0.418406
0.4203
0.421838
0.42306
0.423996
0.424665
0.425083
0.42526
0.425201
0.42491
0.424384
0.423621
0.422612
0.421346
0.419809
0.417982
0.415841
0.413358
0.410497
0.407216
0.403463
0.399175
0.394275
0.38867
0.382244
0.374855
0.366325
0.356427
0.344876
0.331303
0.315214
0.296009
0.2727
0.244523
0.208587
0.166756
0.103526
0.0591137
0.0839955
0.114908
0.134244
0.139626
0.142397
0.161496
0.193037
0.225657
0.252758
0.274735
0.294701
0.314072
0.332581
0.349769
0.365388
0.379142
0.390531
0.399203
0.405423
0.409926
0.413379
0.416162
0.41845
0.420328
0.421854
0.423066
0.423994
0.424656
0.425069
0.425242
0.42518
0.424886
0.424358
0.423593
0.422582
0.421314
0.419776
0.417947
0.415805
0.41332
0.410457
0.407174
0.403418
0.399127
0.394225
0.388616
0.382186
0.374793
0.366257
0.356353
0.344794
0.331213
0.315113
0.295896
0.272573
0.24438
0.20843
0.166585
0.103383
0.0589823
0.0861686
0.115496
0.134768
0.140754
0.144436
0.163582
0.194567
0.226611
0.253441
0.275366
0.295295
0.314592
0.333002
0.350079
0.365593
0.37927
0.390632
0.399311
0.405538
0.410032
0.413467
0.416229
0.418498
0.420361
0.421874
0.423076
0.423995
0.424651
0.425059
0.425227
0.425162
0.424865
0.424335
0.423568
0.422555
0.421286
0.419746
0.417916
0.415772
0.413286
0.410421
0.407136
0.403378
0.399085
0.394179
0.388568
0.382134
0.374737
0.366196
0.356287
0.344721
0.331132
0.315023
0.295795
0.272459
0.244251
0.208288
0.166432
0.103254
0.0588639
0.0882684
0.116126
0.135324
0.141889
0.146434
0.165627
0.196083
0.227576
0.254144
0.276014
0.295906
0.31513
0.333442
0.350412
0.365821
0.37942
0.390749
0.399429
0.40566
0.410144
0.413559
0.4163
0.41855
0.420398
0.421898
0.423089
0.424
0.424649
0.425052
0.425216
0.425147
0.424847
0.424315
0.423546
0.422532
0.421261
0.41972
0.417889
0.415743
0.413255
0.410389
0.407103
0.403343
0.399047
0.394139
0.388525
0.382088
0.374687
0.366142
0.356228
0.344656
0.33106
0.314942
0.295705
0.272357
0.244136
0.208162
0.166296
0.10314
0.0587584
0.0902983
0.116792
0.135909
0.143029
0.148392
0.167634
0.197587
0.228553
0.254864
0.276678
0.296534
0.315685
0.333902
0.350766
0.366071
0.37959
0.390881
0.399557
0.40579
0.410262
0.413657
0.416376
0.418607
0.420439
0.421925
0.423106
0.424008
0.424651
0.425048
0.425208
0.425136
0.424833
0.424299
0.423527
0.422512
0.42124
0.419697
0.417865
0.415718
0.413229
0.410362
0.407073
0.403312
0.399014
0.394104
0.388487
0.382048
0.374643
0.366094
0.356176
0.344599
0.330996
0.314872
0.295626
0.272268
0.244036
0.208052
0.166177
0.103041
0.0586659
0.0922612
0.117491
0.136522
0.144173
0.15031
0.169601
0.199078
0.22954
0.255601
0.277358
0.297176
0.316256
0.334378
0.351139
0.366343
0.379779
0.391028
0.399696
0.405926
0.410386
0.413759
0.416457
0.418668
0.420483
0.421957
0.423127
0.42402
0.424656
0.425047
0.425203
0.425127
0.424822
0.424285
0.423512
0.422495
0.421222
0.419678
0.417844
0.415697
0.413206
0.410338
0.407048
0.403285
0.398986
0.394074
0.388455
0.382013
0.374606
0.366054
0.356131
0.34455
0.330942
0.314811
0.295558
0.272192
0.24395
0.207957
0.166075
0.102956
0.0585863
0.09416
0.118219
0.137161
0.145321
0.15219
0.171532
0.200555
0.230536
0.256353
0.278052
0.297832
0.31684
0.33487
0.35153
0.366634
0.379988
0.39119
0.399845
0.40607
0.410516
0.413867
0.416542
0.418733
0.420531
0.421991
0.42315
0.424035
0.424664
0.42505
0.425201
0.425122
0.424814
0.424275
0.423501
0.422482
0.421207
0.419662
0.417827
0.415679
0.413187
0.410318
0.407027
0.403263
0.398962
0.394049
0.388428
0.381984
0.374575
0.36602
0.356094
0.344509
0.330897
0.314761
0.295501
0.272128
0.243878
0.207879
0.16599
0.102886
0.0585197
0.0959974
0.118973
0.137823
0.146471
0.154033
0.173425
0.202019
0.231541
0.257121
0.27876
0.298501
0.317438
0.335376
0.351937
0.366943
0.380214
0.391366
0.400004
0.406221
0.41065
0.413979
0.416631
0.418802
0.420584
0.42203
0.423178
0.424054
0.424675
0.425056
0.425203
0.42512
0.42481
0.424269
0.423492
0.422472
0.421196
0.41965
0.417814
0.415665
0.413172
0.410302
0.40701
0.403245
0.398944
0.394029
0.388406
0.381961
0.37455
0.365992
0.356064
0.344476
0.330861
0.314721
0.295456
0.272077
0.24382
0.207816
0.165922
0.102829
0.0584661
0.0977759
0.11975
0.138508
0.147622
0.155841
0.175283
0.20347
0.232552
0.257903
0.279479
0.29918
0.318046
0.335895
0.35236
0.367269
0.380457
0.391557
0.400173
0.406379
0.410791
0.414096
0.416724
0.418875
0.420639
0.422072
0.423209
0.424075
0.42469
0.425065
0.425207
0.425122
0.424808
0.424265
0.423487
0.422465
0.421188
0.419641
0.417805
0.415654
0.413161
0.41029
0.406998
0.403232
0.398929
0.394014
0.38839
0.381944
0.374531
0.365972
0.356042
0.344451
0.330834
0.31469
0.295422
0.272039
0.243777
0.207768
0.165871
0.102787
0.0584257
0.0994979
0.120546
0.139214
0.148774
0.157613
0.177106
0.204907
0.23357
0.258697
0.28021
0.29987
0.318666
0.336425
0.352796
0.367611
0.380717
0.391761
0.400351
0.406543
0.410936
0.414217
0.416822
0.418951
0.420699
0.422117
0.423243
0.424101
0.424708
0.425077
0.425215
0.425126
0.42481
0.424265
0.423485
0.422462
0.421184
0.419636
0.417799
0.415648
0.413154
0.410282
0.406989
0.403223
0.39892
0.394004
0.388379
0.381932
0.374518
0.365958
0.356027
0.344435
0.330815
0.31467
0.295399
0.272013
0.243749
0.207737
0.165837
0.102759
0.0583985
0.101165
0.12136
0.139938
0.149926
0.159352
0.178895
0.20633
0.234594
0.259504
0.280952
0.30057
0.319294
0.336966
0.353244
0.367968
0.380991
0.391978
0.400539
0.406714
0.411087
0.414343
0.416923
0.419032
0.420762
0.422166
0.42328
0.424129
0.424729
0.425093
0.425227
0.425134
0.424815
0.424268
0.423486
0.422462
0.421183
0.419634
0.417796
0.415645
0.413151
0.410279
0.406985
0.403219
0.398915
0.393998
0.388374
0.381926
0.374512
0.365952
0.35602
0.344427
0.330806
0.31466
0.295388
0.272001
0.243734
0.207721
0.16582
0.102745
0.0583848
0.102781
0.122188
0.14068
0.151077
0.161058
0.18065
0.207739
0.235622
0.260321
0.281703
0.301277
0.319931
0.337516
0.353704
0.368338
0.38128
0.392208
0.400737
0.406892
0.411243
0.414474
0.417029
0.419116
0.420828
0.422218
0.423321
0.424161
0.424754
0.425112
0.425241
0.425145
0.424823
0.424274
0.423491
0.422465
0.421185
0.419636
0.417798
0.415646
0.413152
0.410279
0.406986
0.403219
0.398915
0.393999
0.388374
0.381926
0.374512
0.365951
0.35602
0.344427
0.330806
0.31466
0.295388
0.272001
0.243734
0.207721
0.16582
0.102745
0.0583848
0.104346
0.123029
0.141437
0.152226
0.162733
0.182373
0.209134
0.236654
0.261149
0.282463
0.301992
0.320575
0.338075
0.354173
0.36872
0.381582
0.392449
0.400943
0.407076
0.411404
0.414608
0.417138
0.419204
0.420898
0.422274
0.423365
0.424196
0.424782
0.425134
0.425259
0.425159
0.424835
0.424283
0.423498
0.422472
0.421191
0.419641
0.417802
0.41565
0.413156
0.410284
0.40699
0.403223
0.39892
0.394004
0.388379
0.381932
0.374518
0.365958
0.356027
0.344435
0.330815
0.31467
0.295399
0.272013
0.243749
0.207737
0.165837
0.102759
0.0583985
0.105862
0.12388
0.142208
0.153373
0.164376
0.184064
0.210515
0.237688
0.261986
0.283231
0.302714
0.321226
0.33864
0.354652
0.369113
0.381896
0.392702
0.401159
0.407267
0.411569
0.414747
0.417251
0.419295
0.420972
0.422333
0.423412
0.424234
0.424812
0.425159
0.425279
0.425176
0.424849
0.424296
0.42351
0.422482
0.421201
0.41965
0.417811
0.415659
0.413164
0.410292
0.406999
0.403232
0.39893
0.394014
0.38839
0.381944
0.374531
0.365972
0.356042
0.344451
0.330833
0.31469
0.295422
0.272039
0.243777
0.207768
0.165871
0.102787
0.0584256
0.107331
0.124738
0.142993
0.154516
0.165989
0.185724
0.211881
0.238725
0.262832
0.284006
0.303442
0.321883
0.339213
0.355139
0.369516
0.382222
0.392967
0.401382
0.407463
0.411739
0.414889
0.417368
0.41939
0.421048
0.422395
0.423463
0.424275
0.424846
0.425187
0.425303
0.425196
0.424867
0.424312
0.423524
0.422495
0.421213
0.419662
0.417823
0.415671
0.413176
0.410305
0.407012
0.403246
0.398944
0.394029
0.388406
0.381961
0.374549
0.365992
0.356064
0.344476
0.33086
0.31472
0.295456
0.272077
0.24382
0.207816
0.165922
0.102829
0.058466
0.108755
0.125603
0.143789
0.155656
0.167573
0.187354
0.213234
0.239763
0.263685
0.284788
0.304175
0.322545
0.339791
0.355632
0.369929
0.382559
0.393241
0.401614
0.407665
0.411914
0.415035
0.417488
0.419488