/*--------------------------------*- C++ -*----------------------------------*\
| =========                 |                                                 |
| \\      /  F ield         | OpenFOAM: The Open Source CFD Toolbox           |
|  \\    /   O peration     | Version:  2.4.0                                 |
|   \\  /    A nd           | Web:      www.OpenFOAM.org                      |
|    \\/     M anipulation  |                                                 |
\*---------------------------------------------------------------------------*/
FoamFile
{
    version     2.0;
    format      ascii;
    class       volScalarField;
    location    "20";
    object      sigmaxy;
}
// * * * * * * * * * * * * * * * * * * * * * * * * * * * * * * * * * * * * * //

dimensions      [1 -1 -2 0 0 0 0];

internalField   nonuniform List<scalar> 
1000
(
-5434.46
-4161.91
-3312.65
-2709.97
-2265.48
-1928.54
-1667.42
-1459.78
-1288.02
-1057.41
-6490.13
-4448.48
-3175.61
-2340.86
-1773.88
-1377.13
-1092.14
-879.207
-707.21
-498.924
-7252.67
-4589.26
-2972.43
-1953.37
-1290.12
-847.606
-544.962
-330.57
-169.149
6.01454
-7629.95
-4548.67
-2707.46
-1569.95
-849.267
-382.774
-75.7938
131.008
276.256
418.575
-7564.83
-4309.58
-2383.3
-1210.75
-479.893
-17.3432
278.402
469.275
594.893
706.15
-7030.29
-3868.6
-2011.53
-890.882
-201.162
228.46
496.723
663.794
767.98
851.33
-6042.62
-3237.41
-1600.09
-619.504
-20.8319
347.456
573.459
710.332
791.751
850.93
-4649.22
-2445.03
-1164.74
-401.343
61.7612
344.371
515.409
617.021
675.443
714.698
-2936.5
-1538.68
-727.584
-244.791
47.6236
225.333
332.741
396.11
432.576
456.231
-1022.77
-613.823
-356.873
-197.69
-97.5174
-33.688
7.76077
34.6713
52.8003
66.1092
310.705
98.5262
-68.1712
-167.528
-220.474
-245.527
-254.599
-254.469
-249.369
-243.131
711.971
-290.725
-820.136
-1086.58
-1205.59
-1241.67
-1231.8
-1197.06
-1149.85
-1103.84
992.051
-601.102
-1422.69
-1823.09
-1994.97
-2039.86
-2014.77
-1952.1
-1870.69
-1792.89
1049.1
-934.281
-1947.73
-2432.57
-2630.93
-2672.63
-2628.84
-2539.91
-2429.12
-2327.29
822.112
-1322.5
-2405.46
-2907.14
-3098.35
-3121.12
-3053.48
-2939.38
-2804.2
-2686.93
289.27
-1772.42
-2784.04
-3231.4
-3378.42
-3365.52
-3268.64
-3130.84
-2976.99
-2853.65
-542.754
-2262.81
-3074.05
-3395.68
-3463.68
-3399.37
-3268.83
-3109.36
-2942.85
-2823.15
-1629.79
-2778.95
-3266.79
-3402.79
-3362.56
-3234.92
-3067.78
-2888.61
-2715.13
-2607.83
-2878.19
-3288.71
-3365.1
-3271.45
-3102.05
-2903.92
-2699.57
-2503.35
-2325.22
-2233.64
-4189.82
-3763.45
-3380.05
-3031.49
-2723.04
-2452.71
-2215.97
-2008.83
-1824.36
-1732.82
-226.333
-201.274
-180.671
-162.436
-146.192
-131.62
-118.447
-106.428
-95.3402
-84.9639
-75.1105
-65.5349
-56.08
-46.5281
-36.6676
-26.1526
-15.018
-3.63594
4.66808
-0.185182
-1022.28
-913.393
-823.48
-743.921
-673.589
-611.264
-555.777
-506.055
-461.13
-420.088
-382.096
-346.337
-312.085
-278.425
-244.748
-210.063
-173.557
-133.894
-89.3991
-35.0194
-1663.1
-1494.29
-1353.33
-1227.31
-1114.93
-1014.64
-924.891
-844.147
-770.977
-704.005
-641.939
-583.485
-527.442
-472.599
-417.67
-361.162
-301.53
-235.789
-159.395
-62.4656
-2164.92
-1958.77
-1784.8
-1627.34
-1485.18
-1356.94
-1241.1
-1136.08
-1040.3
-952.146
-870.063
-792.493
-717.881
-644.592
-571.008
-495.142
-414.452
-324.722
-219.806
-86.9364
-2509.26
-2291.89
-2105.31
-1933.49
-1775.64
-1631.03
-1498.67
-1377.32
-1265.57
-1161.89
-1064.64
-972.15
-882.664
-794.378
-705.23
-612.735
-513.84
-403.209
-273.38
-109.543
-2678.85
-2478.99
-2301.77
-2134.15
-1976.05
-1827.91
-1689.77
-1561.08
-1440.98
-1328.22
-1221.39
-1118.84
-1018.81
-919.321
-818.194
-712.649
-599.036
-471.271
-320.687
-130.359
-2668.25
-2514.24
-2367.82
-2222.91
-2080.26
-1941.93
-1809.35
-1682.96
-1562.73
-1447.93
-1337.59
-1230.26
-1124.36
-1017.95
-908.787
-793.944
-669.651
-529.051
-362.141
-149.07
-2484.85
-2400.44
-2302.58
-2197.2
-2084.55
-1969.29
-1853.45
-1739.38
-1627.36
-1517.97
-1410.36
-1303.9
-1196.99
-1088.09
-974.952
-854.736
-723.526
-574.359
-395.751
-165.011
-2140.76
-2137.51
-2102.36
-2050.25
-1982.04
-1902.26
-1815.03
-1723.06
-1628.35
-1531.81
-1433.82
-1333.93
-1231.32
-1124.5
-1011.54
-889.595
-755.085
-600.678
-416.267
-179.457
-1643.9
-1721.99
-1767.05
-1785.01
-1776.3
-1745.76
-1698.65
-1638.92
-1569.88
-1493.59
-1411.28
-1323.44
-1229.64
-1129.12
-1019.91
-899.608
-763.939
-608.533
-425.472
-190.603
-1186.63
-1319.82
-1440.21
-1513.26
-1549.67
-1557.94
-1543.77
-1512.3
-1466.97
-1410.61
-1344.8
-1270.46
-1187.7
-1095.87
-993.602
-878.097
-746.217
-594.211
-418.076
-197.596
-859.717
-1014.22
-1162.02
-1267.99
-1335.05
-1370.63
-1381.15
-1371.61
-1345.79
-1306.45
-1255.46
-1193.9
-1122.11
-1039.79
-945.738
-837.334
-711.452
-567.384
-402.751
-199.263
-544.579
-708.062
-872.276
-1003.43
-1098.25
-1160.98
-1196.88
-1210.58
-1205.74
-1185.16
-1150.78
-1103.86
-1044.98
-974.099
-890.285
-791.203
-674.209
-539.356
-387.109
-199.852
-287.306
-445.645
-612.121
-755.471
-868.544
-951.96
-1008.93
-1043
-1057.32
-1054.42
-1036.19
-1003.94
-958.385
-899.702
-827.255
-738.886
-632.267
-509.001
-370.034
-198.575
-80.2043
-229.585
-390.475
-536.245
-658.328
-754.92
-827.172
-877.272
-907.533
-920.012
-916.381
-897.861
-865.21
-818.757
-758.067
-681.251
-586.351
-475.301
-350.642
-196.313
84.8438
-53.9922
-205.205
-347.183
-471.362
-574.628
-656.594
-718.184
-760.803
-785.917
-794.847
-788.637
-768.009
-733.368
-684.438
-619.466
-536.723
-439.063
-329.278
-192.849
214.614
87.8598
-51.7244
-186.315
-307.94
-412.928
-499.927
-568.879
-620.381
-655.304
-674.576
-679.015
-669.253
-645.703
-608.173
-555.057
-484.852
-400.566
-306.315
-189.027
315.503
201.304
74.3233
-50.8372
-166.933
-270.117
-358.495
-431.334
-488.599
-530.649
-558.044
-571.373
-571.15
-557.771
-531.09
-489.541
-431.737
-361.315
-282.684
-184.727
392.562
290.906
176.729
61.9944
-46.7492
-145.72
-232.748
-306.684
-367.043
-413.793
-447.196
-467.647
-475.56
-471.307
-454.75
-424.379
-378.905
-321.977
-259.071
-180.653
449.541
359.968
258.443
154.553
54.2155
-38.9437
-122.644
-195.496
-256.728
-306.04
-343.486
-369.332
-383.939
-387.679
-380.445
-360.721
-327.206
-283.899
-236.363
-176.672
489.261
411.277
321.858
228.793
137.375
51.0406
-27.9233
-98.011
-158.287
-208.295
-247.972
-277.535
-297.36
-307.882
-309.06
-299.411
-277.621
-247.455
-214.962
-173.322
514.06
446.857
368.801
286.251
203.899
124.992
51.7521
-14.2726
-72.0804
-121.14
-161.363
-192.993
-216.504
-232.479
-241.03
-240.745
-230.218
-213.199
-195.305
-170.363
525.604
468.173
400.662
328.127
254.774
183.627
116.82
55.8837
1.82591
-44.817
-83.9918
-116.034
-141.596
-161.506
-176.155
-184.347
-184.704
-180.469
-176.901
-167.988
524.547
476.056
418.356
355.337
290.85
227.663
167.848
112.849
63.6668
20.7744
-15.8242
-46.612
-72.4476
-94.501
-113.602
-128.996
-139.486
-148.074
-158.996
-165.711
511.111
470.969
422.417
368.559
312.832
257.842
205.522
157.251
113.951
76.0452
43.4556
15.5873
-8.61783
-30.6991
-52.0709
-72.7628
-92.2655
-113.526
-139.8
-163.209
484.856
452.558
412.673
367.806
320.917
274.49
230.235
189.475
152.986
121.174
93.8702
70.4735
49.7854
30.0311
9.17993
-13.8928
-40.1036
-73.5533
-116.847
-159.85
443.528
418.62
387.36
351.575
313.955
276.634
241.181
208.694
179.881
155.046
134.057
116.334
100.786
85.6029
68.437
47.2132
18.7144
-24.7623
-87.1685
-154.292
381.522
363.949
341.6
315.507
287.965
260.659
234.91
211.529
191.131
173.919
159.848
148.461
138.937
129.792
119.097
104.51
80.3312
34.0791
-44.7179
-142.128
289.281
280.434
268.179
253.39
237.556
221.876
207.153
193.981
182.742
173.648
166.675
161.622
158.002
154.941
151.4
146.272
134.314
98.4075
17.9229
-104.507
158.894
160.934
161.913
162.011
161.453
160.532
159.482
158.565
157.968
157.859
158.308
159.338
160.824
162.552
164.417
166.244
165.601
153.69
111.296
1.11581
69.2646
446.618
704.108
850.524
872.412
759.769
513.354
146.659
-316.581
-847.781
64.9628
413.102
659.538
812.656
861.227
796.182
616.661
330.518
-51.5827
-527.877
61.8967
385.802
621.856
778.451
845.751
815.163
684.49
457.839
141.153
-261.514
58.6665
359.898
584.698
741.814
822.763
819.608
729.345
553.757
295.693
-39.6499
55.2077
335.234
548.152
703.162
793.074
810.606
752.421
618.922
411.524
136.074
51.6134
312.004
512.924
664.019
759.286
792.152
759.265
660.367
495.899
272.294
47.9807
290.319
479.484
625.51
723.473
767.539
754.505
683.718
555.24
375.506
44.3416
270.113
447.967
588.237
686.966
739.038
741.471
693.531
595.059
452.239
40.716
251.262
418.289
552.396
650.482
708.074
722.484
692.994
619.454
507.414
37.0638
233.514
390.183
517.877
614.246
675.396
698.967
684.354
631.376
544.975
33.3639
216.639
363.283
484.366
578.135
641.275
671.7
668.901
632.771
567.617
29.538
200.261
337.157
451.387
541.824
605.603
640.935
647.421
625.078
577.536
25.556
184.148
311.349
418.419
504.816
568.024
606.591
620.235
609.071
576.019
21.253
167.914
285.277
384.875
466.424
527.978
568.259
587.237
584.932
563.717
16.649
151.243
258.459
349.975
425.85
484.595
525.209
547.763
552.294
540.664
11.5268
133.416
229.947
312.438
381.62
436.236
475.766
500.267
509.938
506.042
5.75675
113.919
198.254
270.302
331.155
380.116
416.868
441.728
454.833
457.054
-0.418699
91.3315
160.821
219.815
269.919
311.027
342.939
366.13
380.753
386.971
-4.52895
64.446
114.516
156.644
192.9
223.313
247.853
266.861
280.198
288.276
0.943447
30.3769
53.5917
73.9802
92.4393
108.985
123.463
135.71
145.447
153.473
)
;

boundaryField
{
    left
    {
        type            symmetryPlane;
    }
    right
    {
        type            calculated;
        value           nonuniform List<scalar> 
30
(
-4.47319
-21.9343
-38.4682
-54.1578
-69.1126
-82.995
-95.2864
-106.709
-118.644
-131.181
-141.146
-147.833
-152.277
-155.084
-156.853
-158.027
-158.915
-159.685
-160.478
-161.363
-162.427
-163.659
-165.073
-166.535
-167.98
-169.015
-168.775
-164.137
-146.986
-106.136
)
;
    }
    down
    {
        type            symmetryPlane;
    }
    up
    {
        type            calculated;
        value           nonuniform List<scalar> 
30
(
4.56079
22.1904
38.5235
53.6295
67.6871
80.6861
92.4138
102.602
111.246
118.697
124.46
129.186
133.697
137.74
141.198
144.093
146.538
148.698
150.736
152.8
154.994
157.38
159.956
162.66
165.335
167.573
168.209
163.917
146.786
106.059
)
;
    }
    hole
    {
        type            calculated;
        value           nonuniform List<scalar> 
20
(
-5673.64
-6906.73
-7812.29
-8289.49
-8268.04
-7719.05
-6656.28
-5133.36
-3242.93
-1114.43
334.191
943.343
1371.78
1526.49
1342.04
798.163
-106.054
-1318.62
-2734.18
-4236.23
)
;
    }
    frontAndBack
    {
        type            empty;
    }
}


// ************************************************************************* //
