/*--------------------------------*- C++ -*----------------------------------*\
| =========                 |                                                 |
| \\      /  F ield         | OpenFOAM: The Open Source CFD Toolbox           |
|  \\    /   O peration     | Version:  2.4.0                                 |
|   \\  /    A nd           | Web:      www.OpenFOAM.org                      |
|    \\/     M anipulation  |                                                 |
\*---------------------------------------------------------------------------*/
FoamFile
{
    version     2.0;
    format      ascii;
    class       volScalarField;
    location    "1.33";
    object      pPrime2Mean;
}
// * * * * * * * * * * * * * * * * * * * * * * * * * * * * * * * * * * * * * //

dimensions      [0 4 -4 0 0 0 0];

internalField   nonuniform List<scalar> 
2320
(
1313.48
1280.13
1245.35
1211.09
1177.26
1143.99
1111.14
1078.86
1046.98
1015.72
984.839
954.642
924.778
895.688
866.896
838.996
811.34
784.721
758.251
732.953
1313.49
1280.13
1245.36
1211.1
1177.27
1143.99
1111.14
1078.86
1046.98
1015.72
984.837
954.634
924.769
895.667
866.883
838.977
811.311
784.677
758.214
732.913
1313.49
1280.13
1245.35
1211.08
1177.26
1143.98
1111.12
1078.83
1046.95
1015.67
984.801
954.572
924.71
895.594
866.8
838.85
811.202
784.539
758.096
732.759
1313.48
1280.12
1245.34
1211.07
1177.25
1143.97
1111.1
1078.81
1046.93
1015.64
984.763
954.521
924.651
895.499
866.696
838.726
811.071
784.362
757.926
732.57
1313.48
1280.1
1245.33
1211.05
1177.23
1143.94
1111.08
1078.77
1046.9
1015.59
984.705
954.432
924.562
895.377
866.572
838.534
810.881
784.12
757.713
732.33
1313.47
1280.09
1245.32
1211.04
1177.21
1143.91
1111.06
1078.73
1046.85
1015.53
984.643
954.339
924.458
895.225
866.407
838.313
810.649
783.821
757.427
731.999
1313.46
1280.07
1245.31
1211.02
1177.2
1143.88
1111.03
1078.69
1046.82
1015.47
984.579
954.233
924.354
895.053
866.23
838.044
810.38
783.456
757.077
731.6
1313.46
1280.06
1245.29
1211
1177.18
1143.85
1111
1078.65
1046.78
1015.41
984.513
954.131
924.247
894.883
866.049
837.775
810.098
783.055
756.705
731.128
1313.45
1280.05
1245.28
1210.98
1177.16
1143.83
1110.99
1078.62
1046.75
1015.35
984.456
954.033
924.136
894.705
865.855
837.476
809.783
782.589
756.251
730.547
1313.44
1280.03
1245.27
1210.97
1177.15
1143.81
1110.97
1078.59
1046.71
1015.3
984.395
953.942
924.028
894.542
865.659
837.197
809.452
782.134
755.788
729.939
1313.43
1280.02
1245.26
1210.95
1177.14
1143.79
1110.95
1078.56
1046.68
1015.25
984.338
953.842
923.914
894.355
865.449
836.857
809.08
781.568
755.202
729.207
1313.42
1280.01
1245.26
1210.93
1177.12
1143.77
1110.93
1078.53
1046.65
1015.2
984.281
953.759
923.794
894.191
865.221
836.561
808.658
781.056
754.522
728.382
1313.41
1279.99
1245.25
1210.92
1177.11
1143.75
1110.9
1078.5
1046.63
1015.16
984.22
953.663
923.673
894.001
864.973
836.17
808.204
780.334
753.804
727.293
1313.4
1279.99
1245.24
1210.91
1177.09
1143.73
1110.88
1078.48
1046.6
1015.13
984.166
953.597
923.548
893.86
864.725
835.881
807.682
779.755
752.839
726.347
1313.4
1279.98
1245.23
1210.9
1177.07
1143.71
1110.86
1078.46
1046.58
1015.09
984.12
953.523
923.442
893.69
864.486
835.5
807.153
778.893
751.775
724.623
1313.39
1279.97
1245.23
1210.89
1177.06
1143.69
1110.84
1078.46
1046.57
1015.08
984.072
953.48
923.334
893.591
864.252
835.239
806.578
778.236
750.434
723.177
1313.39
1279.97
1245.23
1210.88
1177.05
1143.67
1110.82
1078.45
1046.58
1015.05
984.054
953.427
923.267
893.457
864.099
834.977
806.174
777.491
749.083
720.734
1313.39
1279.97
1245.23
1210.87
1177.03
1143.64
1110.81
1078.46
1046.57
1015.04
984.027
953.407
923.197
893.381
863.941
834.757
805.782
777.032
747.943
718.708
1313.4
1279.97
1245.24
1210.86
1177.04
1143.65
1110.79
1078.46
1046.58
1015.01
984.033
953.395
923.175
893.306
863.872
834.614
805.463
776.48
746.824
716.533
1313.4
1279.98
1245.24
1210.85
1177.02
1143.64
1110.78
1078.44
1046.54
1015
984.009
953.379
923.159
893.314
863.857
834.588
805.439
776.425
746.477
715.561
707.677
683.591
659.526
636.231
613.27
590.635
568.349
546.342
707.659
683.571
659.519
636.264
613.321
590.727
568.442
546.447
707.541
683.446
659.429
636.239
613.27
590.704
568.447
546.451
707.395
683.319
659.329
636.218
613.281
590.784
568.544
546.554
707.208
683.16
659.213
636.197
613.28
590.851
568.642
546.672
706.958
682.939
659.069
636.177
613.287
590.988
568.798
546.861
706.616
682.66
658.905
636.116
613.3
591.131
568.985
547.083
706.259
682.298
658.718
636.083
613.351
591.312
569.214
547.363
705.775
681.816
658.437
636.012
613.451
591.553
569.509
547.723
705.299
681.279
658.068
635.722
613.512
591.838
569.89
548.191
704.67
680.681
657.83
635.433
613.57
592.191
570.393
548.786
703.894
679.874
657.504
635.142
613.668
592.61
571.034
549.53
702.935
678.736
656.952
634.829
613.843
593.118
571.85
550.469
701.841
677.372
656.133
634.508
614.137
593.782
572.886
551.64
700.568
675.775
655.049
634.153
614.544
594.683
574.235
553.098
698.792
673.897
653.692
633.74
615.056
595.866
576
554.928
695.99
671.531
652.043
633.259
615.67
597.361
578.307
557.276
691.698
668.444
650.091
632.718
616.397
599.23
581.278
560.433
685.471
664.4
647.854
632.145
617.265
601.519
585.074
564.892
676.82
659.481
645.473
631.73
618.367
604.253
589.8
571.762
524.672
503.356
482.545
462.208
442.554
423.631
405.462
388.168
371.589
355.78
340.376
325.316
310.212
294.949
279.33
263.369
247.136
230.763
214.524
198.537
183.043
168.012
153.573
139.49
125.84
112.297
98.817
84.7911
524.771
503.451
482.64
462.302
442.645
423.716
405.569
388.273
371.738
355.944
340.592
325.553
310.474
295.233
279.607
263.64
247.371
230.991
214.692
198.718
183.158
168.184
153.67
139.685
125.984
112.663
99.3561
86.0347
524.771
503.462
482.636
462.337
442.69
423.774
405.697
388.439
371.995
356.249
340.991
325.998
310.992
295.769
280.154
264.171
247.884
231.446
215.132
199.079
183.537
168.505
154.046
140.024
126.465
113.24
100.336
87.7473
524.875
503.579
482.716
462.432
442.792
423.915
405.924
388.736
372.419
356.779
341.667
326.758
311.843
296.641
281.036
265.018
248.655
232.156
215.736
199.638
184.019
168.983
154.496
140.541
127.049
114.032
101.5
89.583
524.998
503.698
482.821
462.54
442.931
424.105
406.213
389.142
372.988
357.493
342.566
327.79
312.996
297.821
282.231
266.153
249.725
233.126
216.604
200.411
184.723
169.641
155.151
141.231
127.834
115.005
102.791
91.3993
525.185
503.88
482.987
462.701
443.127
424.381
406.605
389.705
373.754
358.486
343.783
329.18
314.502
299.381
283.791
267.639
251.086
234.348
217.678
201.378
185.595
170.465
155.948
142.055
128.732
116.069
104.122
93.1289
525.414
504.095
483.189
462.905
443.371
424.731
407.087
390.393
374.663
359.673
345.195
330.773
316.216
301.137
285.522
269.274
252.617
235.713
218.915
202.475
186.61
171.413
156.89
143.007
129.763
117.218
105.489
94.7679
525.704
504.362
483.443
463.156
443.664
425.136
407.645
391.182
375.706
361.031
346.773
332.539
318.097
303.059
287.415
271.063
254.27
237.179
220.249
203.662
187.695
172.433
157.89
144.021
130.834
118.389
106.836
96.2942
526.07
504.685
483.737
463.438
443.992
425.58
408.262
392.053
376.876
362.52
348.459
334.397
320.014
305.003
289.3
272.864
255.914
238.66
221.587
204.854
188.787
173.467
158.901
145.056
131.892
119.533
108.106
97.7135
526.514
505.07
484.076
463.755
444.365
426.067
408.941
392.991
378.134
364.032
350.125
336.174
321.811
306.841
291.09
274.537
257.419
240.043
222.848
205.937
189.807
174.433
159.865
146.034
132.901
120.612
109.275
98.9833
527.051
505.538
484.473
464.118
444.77
426.58
409.644
393.933
379.372
365.437
351.613
337.709
323.345
308.391
292.603
275.936
258.64
241.17
223.875
206.841
190.67
175.256
160.711
146.89
133.786
121.575
110.341
100.093
527.705
506.098
484.936
464.528
445.189
427.087
410.282
394.811
380.488
366.652
352.841
338.934
324.556
309.554
293.682
276.951
259.572
242.021
224.611
207.526
191.356
175.921
161.422
147.636
134.547
122.354
111.239
101.059
528.504
506.762
485.473
464.96
445.607
427.531
410.827
395.555
381.375
367.537
353.697
339.728
325.264
310.234
294.34
277.438
259.99
242.501
225.022
207.909
191.772
176.375
161.912
148.179
135.167
123.028
111.956
101.802
529.49
507.557
486.067
465.423
446.009
427.888
411.208
396.063
381.95
368.088
354.118
340.074
325.547
310.396
294.517
277.599
260.044
242.585
225.103
208.061
191.94
176.636
162.22
148.549
135.563
123.501
112.537
102.411
530.664
508.469
486.713
465.882
446.368
428.127
411.406
396.275
382.146
368.198
354.123
339.919
325.362
310.177
294.195
277.25
259.787
242.35
224.903
207.966
191.912
176.703
162.342
148.742
135.845
123.848
112.928
102.83
532.081
509.481
487.335
466.252
446.575
428.198
411.345
396.155
382.003
367.931
353.653
339.452
324.795
309.625
293.623
276.66
259.248
241.886
224.499
207.682
191.714
176.611
162.294
148.777
135.976
124.072
113.201
103.144
533.767
510.531
487.912
466.548
446.688
428.107
411.199
395.813
381.526
367.423
353.063
338.777
324.108
308.921
292.896
275.943
258.605
241.311
224.037
207.303
191.427
176.427
162.176
148.72
136.014
124.182
113.372
103.363
535.661
511.479
488.282
466.662
446.621
427.902
410.86
395.369
380.927
366.713
352.316
338.035
323.356
308.165
292.129
275.238
257.929
240.696
223.546
206.914
191.117
176.181
161.994
148.62
135.97
124.23
113.464
103.493
537.641
512.377
488.596
466.697
446.43
427.649
410.583
394.925
380.43
366.127
351.728
337.424
322.765
307.536
291.478
274.626
257.396
240.184
223.111
206.534
190.853
175.956
161.833
148.485
135.901
124.239
113.508
103.553
539.325
512.737
488.722
466.653
446.257
427.426
410.339
394.661
380.094
365.795
351.366
337.048
322.406
307.152
291.078
274.297
257.077
239.869
222.854
206.331
190.695
175.812
161.72
148.395
135.841
124.237
113.505
103.565
68.4114
62.3004
57.5214
54.2061
51.725
50.1076
49.0335
48.7906
72.6436
65.2133
60.0968
56.3422
53.582
51.6579
50.432
49.7367
76.0582
68.1664
62.6096
58.5095
55.4978
53.1931
51.7117
50.5082
78.9084
70.9463
65.0905
60.5691
57.1798
54.3653
52.4757
51.088
81.3209
73.3178
67.1485
62.3469
58.6302
55.7548
53.3448
51.1221
83.4317
75.4903
69.2129
64.1936
60.1098
56.878
54.0341
51.4874
85.3057
77.379
70.8779
65.5661
61.2197
57.677
54.6362
51.7721
86.9819
79.0467
72.4444
67.0035
62.485
58.6321
55.2052
51.9008
88.468
80.5316
73.8132
68.1317
63.3113
59.2043
55.6085
52.2793
89.7601
81.8413
75.003
69.1796
64.2519
59.9858
56.1379
52.5734
90.8506
82.967
76.0371
70.0699
64.9528
60.4656
56.4732
52.8308
91.7831
83.9201
76.893
70.8188
65.6119
61.0104
56.8931
53.1132
92.5419
84.7318
77.6198
71.4598
66.1638
61.4128
57.1799
53.2983
93.161
85.3677
78.1995
71.9993
66.6296
61.7791
57.4755
53.5148
93.6626
85.8931
78.6685
72.4413
67.0088
62.0831
57.71
53.6751
94.0401
86.272
79.0309
72.813
67.3133
62.3344
57.9121
53.8273
94.3322
86.5837
79.3026
73.107
67.5513
62.5515
58.0776
53.9518
94.5308
86.7853
79.4937
73.3255
67.7234
62.7135
58.2072
54.0615
94.6653
86.9134
79.6183
73.4909
67.839
62.8311
58.3049
54.1416
94.7255
86.9525
79.6615
73.5519
67.8965
62.8892
58.3486
54.1847
50.475
50.4797
48.944
46.5158
44.16
40.8889
36.2685
31.9556
28.7288
25.1474
21.336
17.4588
13.6742
10.1652
7.07222
4.55302
2.6359
1.33819
0.567505
0.102456
50.4645
49.8927
48.1789
45.7763
43.566
40.49
35.9955
31.7494
28.5174
24.9516
21.1708
17.3318
13.5836
10.1047
7.03896
4.53439
2.62942
1.33
0.554218
0.0822624
50.2396
49.3882
47.6129
45.2047
43.0429
40.0567
35.6593
31.4672
28.2316
24.6914
20.9561
17.1671
13.4661
10.0289
6.99755
4.5149
2.6228
1.32377
0.544355
0.0777507
50.3046
48.9522
47.0347
44.6511
42.4792
39.5548
35.2741
31.1639
27.9447
24.4336
20.7421
17.0013
13.3503
9.95339
6.95978
4.49669
2.61877
1.32047
0.536759
0.0734406
49.7907
48.5918
46.621
44.2179
42.0245
39.1379
34.9519
30.8938
27.6697
24.1807
20.5298
16.8368
13.2347
9.87974
6.92395
4.48227
2.61783
1.31968
0.531701
0.0710377
49.9094
48.3059
46.1944
43.7906
41.5554
38.6738
34.5806
30.5896
27.3799
23.9214
20.3161
16.6718
13.1204
9.80948
6.89024
4.47184
2.61851
1.32124
0.527846
0.0694501
49.7561
47.9823
45.7696
43.3808
41.1135
38.2414
34.245
30.3092
27.1038
23.6719
20.1073
16.5098
13.0084
9.74122
6.85866
4.46345
2.62156
1.32436
0.525093
0.0682787
49.6554
47.8823
45.5765
43.0797
40.7302
37.8334
33.911
30.0266
26.8271
23.4216
19.898
16.3498
12.898
9.67635
6.82937
4.459
2.62682
1.32935
0.523281
0.0672978
49.6648
47.5979
45.205
42.6878
40.2878
37.3907
33.5543
29.7361
26.5463
23.171
19.6901
16.1904
12.7889
9.61254
6.80221
4.45609
2.63392
1.3354
0.522152
0.0664388
49.6992
47.4207
44.9948
42.4324
39.9644
37.0364
33.2596
29.4831
26.2869
22.9323
19.4899
16.038
12.6844
9.55393
6.77901
4.45705
2.6437
1.34303
0.5217
0.0656578
49.9196
47.3899
44.7644
42.0999
39.5536
36.6117
32.9103
29.1984
26.012
22.6865
19.2865
15.8824
12.5793
9.49499
6.7572
4.45911
2.65477
1.35155
0.521684
0.0649269
49.9822
47.301
44.5257
41.7919
39.1916
36.2508
32.6257
28.9634
25.7689
22.4616
19.0974
15.7397
12.4829
9.44331
6.74081
4.46556
2.66899
1.36179
0.522401
0.0642903
50.0709
47.2743
44.4083
41.5812
38.8869
35.9007
32.3198
28.7033
25.5117
22.2282
18.9023
15.5912
12.3839
9.39101
6.72505
4.47261
2.68386
1.3726
0.523358
0.06367
50.1556
47.1948
44.2109
41.2997
38.5369
35.5426
32.0307
28.471
25.2778
22.0132
18.7202
15.4543
12.2947
9.34643
6.71507
4.48398
2.70195
1.3853
0.525106
0.0631454
50.2161
47.1294
44.071
41.1014
38.272
35.2487
31.7774
28.2501
25.0486
21.8006
18.541
15.3179
12.206
9.3029
6.70688
4.49678
2.7208
1.3984
0.526983
0.0626338
50.2831
47.0755
43.9304
40.8797
37.9727
34.9254
31.5114
28.0327
24.8277
21.5967
18.3691
15.188
12.1233
9.26449
6.7033
4.51338
2.74238
1.41312
0.529568
0.0621959
50.335
47.018
43.8001
40.6908
37.7224
34.6541
31.2845
27.8378
24.6222
21.4041
18.205
15.0644
12.0455
9.23037
6.70339
4.53249
2.76549
1.42856
0.532354
0.0617909
50.3858
46.9749
43.6932
40.5191
37.4799
34.3807
31.0544
27.6444
24.4206
21.2158
18.0441
14.9435
11.9706
9.19953
6.70686
4.55479
2.79077
1.44525
0.535692
0.0614385
50.4145
46.9274
43.5849
40.3601
37.2614
34.1356
30.8491
27.4703
24.2358
21.0403
17.8936
14.8312
11.9031
9.17488
6.71519
4.58062
2.81775
1.46246
0.539149
0.0611041
50.4266
46.8866
43.518
40.2554
37.1052
33.9478
30.6831
27.331
24.0892
20.8991
17.7709
14.7388
11.8479
9.15626
6.72452
4.60426
2.84162
1.47731
0.542435
0.0608642
0.591093
0.24884
0.55215
0.436016
0.136686
0.115901
0.0305356
0.0193344
0.529882
0.623732
0.93367
0.8917
0.367235
0.393892
0.198424
0.170357
0.983846
0.931444
1.25842
1.30557
0.845161
0.808262
0.514867
0.466753
1.24839
1.51313
1.97639
2.09298
1.5649
1.37776
0.990102
0.906345
1.91008
2.34839
2.73031
2.9963
2.46256
2.12995
1.63357
1.49415
2.71209
3.25602
3.79753
4.07157
3.48227
3.01783
2.41653
2.21511
3.71363
4.4367
4.91432
5.19335
4.60734
4.03965
3.32708
3.07657
4.84133
5.62407
6.15064
6.49006
5.84147
5.1876
4.35534
4.04697
6.09789
6.96816
7.45359
7.7607
7.12674
6.41293
5.4833
5.13381
7.4149
8.27858
8.70614
9.12883
8.47974
7.73995
6.69058
6.28619
8.79701
9.6434
10.0295
10.4652
9.82483
9.04471
7.95365
7.51196
10.1753
10.9665
11.2266
11.7739
11.199
10.465
9.26475
8.76813
11.5616
12.3194
12.5804
13.1719
12.5532
11.7798
10.5785
10.0551
12.9198
13.6505
13.7709
14.4225
13.8961
13.1882
11.9363
11.345
14.2522
14.9663
15.1415
15.8578
15.2293
14.4652
13.227
12.6329
15.6044
16.3037
16.3532
17.0425
16.5455
15.784
14.5471
13.9134
16.9274
17.6424
17.7152
18.4389
17.8391
17.0339
15.8016
15.1655
18.2417
18.9497
18.9408
19.633
19.1223
18.2899
17.0741
16.3996
19.5513
20.2603
20.2847
20.9567
20.4504
19.5294
18.3029
17.6042
20.8644
21.5832
21.5878
22.2624
21.7582
20.7743
19.5297
18.786
22.1498
22.8976
23.0269
23.5731
23.079
21.9725
20.6899
19.9336
23.4142
24.2027
24.36
24.8922
24.355
23.161
21.8082
21.05
24.6383
25.4345
25.7441
26.1999
25.5753
24.2816
22.8616
22.134
25.8102
26.6269
27.0273
27.3841
26.7616
25.3618
23.918
23.1993
26.9272
27.7145
28.2355
28.5913
27.8577
26.4369
24.9469
24.2457
28.0163
28.7783
29.4146
29.6382
28.9547
27.4574
25.9902
25.2892
29.1218
29.791
30.4921
30.6924
29.9704
28.4939
27.0266
26.3322
30.2615
30.8175
31.6302
31.668
30.9622
29.4855
28.0932
27.3981
31.5477
31.9541
32.7775
32.7042
31.9736
30.533
29.1516
28.4985
32.9401
33.2101
34.0649
33.8552
33.0055
31.5497
30.2901
29.664
34.6196
34.7522
35.5391
35.1984
34.1023
32.7052
31.4744
30.9134
36.4086
36.5099
37.1622
36.6836
35.3031
33.9004
32.7907
32.2779
38.4573
38.5746
39.0277
38.3439
36.6237
35.2868
34.2106
33.7714
40.6748
40.8259
40.9301
40.1147
38.1149
36.754
35.7829
35.4013
43.144
43.3751
43.0096
42.1368
39.734
38.3813
37.5055
37.1709
45.9548
46.1032
45.2918
43.8938
41.4776
40.1364
39.3715
39.0632
49.1632
49.0007
47.3528
45.5247
43.3101
42.028
41.3336
41.0282
53.0643
52.039
49.8551
47.3469
45.2501
44.0087
43.3536
42.9896
57.164
55.3251
52.296
49.4891
47.3579
46.0789
45.4326
44.9279
62.6219
59.358
54.8831
51.8342
49.5375
48.2291
47.4243
46.893
665.136
655.567
644.296
632.466
620.769
608.493
596.472
584.391
656.883
652.114
643.688
633.776
623.701
613.166
603.096
594.059
651.189
648.852
642.73
634.676
626.151
617.141
608.676
601.704
647.139
646.054
641.648
635.196
628.059
620.413
613.299
607.853
644.189
643.764
640.593
635.463
629.545
623.093
617.15
612.813
642
641.92
639.627
635.557
630.675
625.269
620.312
616.865
640.357
640.452
638.781
635.55
631.537
627.035
622.938
620.149
639.107
639.283
638.058
635.487
632.196
628.47
625.076
622.848
638.154
638.357
637.453
635.399
632.712
629.632
626.858
625.033
637.417
637.622
636.952
635.308
633.117
630.584
628.297
626.845
636.853
637.042
636.542
635.221
633.443
631.355
629.501
628.314
636.418
636.587
636.214
635.146
633.704
631.986
630.468
629.516
636.083
636.228
635.952
635.085
633.924
632.506
631.283
630.496
635.827
635.948
635.747
635.039
634.102
632.941
631.942
631.314
635.632
635.729
635.584
635.003
634.252
633.292
632.498
631.978
635.487
635.563
635.459
634.978
634.379
633.585
632.941
632.517
635.382
635.436
635.369
634.962
634.489
633.828
633.325
632.971
635.307
635.345
635.305
634.959
634.587
634.035
633.628
633.343
635.262
635.278
635.262
634.96
634.675
634.21
633.901
633.655
635.237
635.238
635.24
634.971
634.755
634.353
634.109
633.912
635.232
635.214
635.234
634.986
634.831
634.483
634.304
634.125
635.246
635.209
635.242
635.007
634.898
634.592
634.457
634.316
635.27
635.214
635.263
635.033
634.967
634.688
634.593
634.462
635.313
635.235
635.295
635.062
635.031
634.773
634.707
634.598
635.365
635.265
635.338
635.093
635.095
634.847
634.809
634.703
635.433
635.305
635.392
635.131
635.154
634.914
634.895
634.805
635.516
635.356
635.456
635.17
635.217
634.974
634.972
634.883
635.616
635.417
635.532
635.218
635.275
635.032
635.036
634.957
635.734
635.489
635.617
635.269
635.339
635.085
635.094
635.015
635.877
635.58
635.717
635.331
635.396
635.138
635.139
635.067
636.049
635.684
635.831
635.404
635.462
635.192
635.183
635.107
636.256
635.809
635.956
635.488
635.52
635.249
635.218
635.144
636.504
635.955
636.097
635.584
635.585
635.302
635.249
635.165
636.803
636.123
636.248
635.695
635.646
635.361
635.275
635.178
637.163
636.312
636.413
635.824
635.714
635.412
635.296
635.176
637.607
636.531
636.592
635.978
635.787
635.471
635.311
635.167
638.205
636.8
636.794
636.161
635.878
635.531
635.329
635.147
639.129
637.221
637.042
636.383
635.998
635.616
635.357
635.106
640.657
637.886
637.34
636.631
636.145
635.719
635.403
634.951
642.969
638.832
637.649
636.855
636.302
635.857
635.474
634.774
)
;

boundaryField
{
    wall
    {
        type            calculated;
        value           nonuniform List<scalar> 
312
(
1313.4
1279.98
1245.24
1210.85
1177.02
1143.64
1110.78
1078.44
1046.54
1015
984.009
953.379
923.159
893.314
863.857
834.588
805.439
776.425
746.477
715.561
665.136
656.883
651.189
647.139
644.189
642
640.357
639.107
638.154
637.417
636.853
636.418
636.083
635.827
635.632
635.487
635.382
635.307
635.262
635.237
635.232
635.246
635.27
635.313
635.365
635.433
635.516
635.616
635.734
635.877
636.049
636.256
636.504
636.803
637.163
637.607
638.205
639.129
640.657
642.969
584.391
594.059
601.704
607.853
612.813
616.865
620.149
622.848
625.033
626.845
628.314
629.516
630.496
631.314
631.978
632.517
632.971
633.343
633.655
633.912
634.125
634.316
634.462
634.598
634.703
634.805
634.883
634.957
635.015
635.067
635.107
635.144
635.165
635.178
635.176
635.167
635.147
635.106
634.951
634.774
539.325
512.737
488.722
466.653
446.257
427.426
410.339
394.661
380.094
365.795
351.366
337.048
322.406
307.152
291.078
274.297
257.077
239.869
222.854
206.331
190.695
175.812
161.72
148.395
135.841
124.237
113.505
103.565
94.7255
86.9525
79.6615
73.5519
67.8965
62.8892
58.3486
54.1847
50.4266
46.8866
43.518
40.2554
37.1052
33.9478
30.6831
27.331
24.0892
20.8991
17.7709
14.7388
11.8479
9.15626
6.72452
4.60426
2.84162
1.47731
0.542435
0.0608642
50.475
50.4797
48.944
46.5158
44.16
40.8889
36.2685
31.9556
28.7288
25.1474
21.336
17.4588
13.6742
10.1652
7.07222
4.55302
2.6359
1.33819
0.567505
0.102456
0.0193344
0.170357
0.466753
0.906345
1.49415
2.21511
3.07657
4.04697
5.13381
6.28619
7.51196
8.76813
10.0551
11.345
12.6329
13.9134
15.1655
16.3996
17.6042
18.786
19.9336
21.05
22.134
23.1993
24.2457
25.2892
26.3322
27.3981
28.4985
29.664
30.9134
32.2779
33.7714
35.4013
37.1709
39.0632
41.0282
42.9896
44.9279
46.893
0.591093
0.529882
0.983846
1.24839
1.91008
2.71209
3.71363
4.84133
6.09789
7.4149
8.79701
10.1753
11.5616
12.9198
14.2522
15.6044
16.9274
18.2417
19.5513
20.8644
22.1498
23.4142
24.6383
25.8102
26.9272
28.0163
29.1218
30.2615
31.5477
32.9401
34.6196
36.4086
38.4573
40.6748
43.144
45.9548
49.1632
53.0643
57.164
62.6219
524.672
503.356
482.545
462.208
442.554
423.631
405.462
388.168
371.589
355.78
340.376
325.316
310.212
294.949
279.33
263.369
247.136
230.763
214.524
198.537
183.043
168.012
153.573
139.49
125.84
112.297
98.817
84.7911
707.677
683.591
659.526
636.231
613.27
590.635
568.349
546.342
1313.48
1280.13
1245.35
1211.09
1177.26
1143.99
1111.14
1078.86
1046.98
1015.72
984.839
954.642
924.778
895.688
866.896
838.996
811.34
784.721
758.251
732.953
)
;
    }
    inlet1
    {
        type            calculated;
        value           nonuniform List<scalar> 
20
(
1313.48
1313.49
1313.49
1313.48
1313.48
1313.47
1313.46
1313.46
1313.45
1313.44
1313.43
1313.42
1313.41
1313.4
1313.4
1313.39
1313.39
1313.39
1313.4
1313.4
)
;
    }
    inlet2
    {
        type            calculated;
        value           nonuniform List<scalar> 8(642.969 638.832 637.649 636.855 636.302 635.857 635.474 634.774);
    }
    outlet1
    {
        type            calculated;
        value           uniform 0;
    }
    outlet2
    {
        type            calculated;
        value           nonuniform List<scalar> 8(0.57059 0 0.54614 0.383416 0.0544696 0.061074 0 0);
    }
    defaultFaces
    {
        type            empty;
    }
}


// ************************************************************************* //
