/*--------------------------------*- C++ -*----------------------------------*\
| =========                 |                                                 |
| \\      /  F ield         | OpenFOAM: The Open Source CFD Toolbox           |
|  \\    /   O peration     | Version:  2.4.0                                 |
|   \\  /    A nd           | Web:      www.OpenFOAM.org                      |
|    \\/     M anipulation  |                                                 |
\*---------------------------------------------------------------------------*/
FoamFile
{
    version     2.0;
    format      ascii;
    class       volScalarField;
    location    "5.04";
    object      p;
}
// * * * * * * * * * * * * * * * * * * * * * * * * * * * * * * * * * * * * * //

dimensions      [0 2 -2 0 0 0 0];

internalField   nonuniform List<scalar> 
6000
(
-0.115406
0.24142
0.19869
0.218574
0.211191
0.216012
0.212987
0.214984
0.213666
0.21438
0.213711
0.213867
0.213599
0.213786
0.21397
0.214382
0.214787
0.215231
0.215595
0.215924
0.216331
0.216969
0.217885
0.219104
0.22064
0.222514
0.224743
0.22735
0.230355
0.233775
0.237625
0.241912
0.246635
0.251778
0.257314
0.2632
0.269375
0.275769
0.282283
0.288835
0.295274
0.30155
0.307415
0.312941
0.317687
0.321989
0.32496
0.327629
0.327934
0.328764
0.324762
0.324092
0.312154
0.312149
0.283284
0.292019
0.222244
0.266169
0.0862998
0.246989
-0.0890667
0.238005
0.198763
0.218421
0.211211
0.215998
0.212999
0.214984
0.213684
0.214396
0.213735
0.213887
0.213611
0.213786
0.213958
0.214372
0.214796
0.215264
0.215643
0.215969
0.216362
0.216986
0.217891
0.219098
0.220623
0.222486
0.224704
0.227298
0.230284
0.233697
0.237538
0.241814
0.246525
0.251657
0.257181
0.263054
0.269215
0.275595
0.282093
0.288628
0.295048
0.301301
0.307142
0.312639
0.317353
0.321623
0.324562
0.327183
0.327448
0.328207
0.324159
0.323376
0.311396
0.311193
0.282313
0.290668
0.221118
0.264055
0.0849539
0.243217
-0.0721787
0.23455
0.198792
0.218329
0.21122
0.215992
0.213006
0.214992
0.2137
0.214422
0.213764
0.213919
0.213632
0.213795
0.213955
0.214372
0.214817
0.215315
0.215712
0.216038
0.21642
0.217031
0.217924
0.219119
0.220632
0.222482
0.224686
0.227266
0.230245
0.233631
0.23745
0.241704
0.246392
0.2515
0.256998
0.262846
0.26898
0.275332
0.281801
0.288307
0.294695
0.300916
0.306721
0.312183
0.316856
0.321088
0.323982
0.32656
0.326766
0.327474
0.323346
0.322501
0.31041
0.310126
0.281105
0.289314
0.219545
0.262195
0.0828449
0.239977
-0.0599558
0.230698
0.199003
0.218245
0.211219
0.215987
0.213011
0.215003
0.213715
0.214451
0.213791
0.213951
0.213653
0.213806
0.213955
0.214377
0.214839
0.215363
0.215775
0.216101
0.216476
0.217076
0.217957
0.219141
0.220641
0.222478
0.224667
0.227231
0.23019
0.23356
0.237357
0.241589
0.246252
0.251334
0.256805
0.262625
0.268731
0.275054
0.281493
0.287968
0.294323
0.300512
0.30628
0.311706
0.316335
0.320526
0.323368
0.325903
0.326038
0.326699
0.322469
0.321579
0.309331
0.309017
0.279744
0.287947
0.217747
0.260412
0.0802995
0.237037
-0.0481485
0.226571
0.199385
0.218164
0.211218
0.215978
0.213015
0.215013
0.213727
0.214477
0.213815
0.21398
0.213672
0.213818
0.213956
0.214381
0.214858
0.215401
0.215824
0.216151
0.21652
0.217113
0.217984
0.219156
0.220645
0.222469
0.224644
0.227192
0.230134
0.233487
0.237264
0.241475
0.246116
0.251175
0.256623
0.262418
0.268498
0.274795
0.281206
0.287654
0.293979
0.300138
0.305872
0.311264
0.315852
0.320002
0.322791
0.32528
0.325343
0.325956
0.321618
0.320685
0.308264
0.307931
0.278365
0.286606
0.215892
0.258677
0.0776604
0.23434
-0.0365636
0.222335
0.199894
0.218068
0.211224
0.215966
0.213019
0.215022
0.213738
0.214499
0.213835
0.214005
0.213688
0.213828
0.213958
0.214386
0.214873
0.21543
0.215861
0.21619
0.216556
0.217142
0.218004
0.219166
0.220644
0.222456
0.224618
0.227152
0.230078
0.233414
0.237174
0.241366
0.245988
0.251026
0.256453
0.262226
0.268284
0.274559
0.280946
0.287369
0.293668
0.299799
0.305503
0.310862
0.31541
0.31952
0.322256
0.324701
0.324691
0.325255
0.320808
0.319832
0.307235
0.306885
0.277018
0.285302
0.21406
0.256982
0.0750759
0.23184
-0.0258228
0.218087
0.200433
0.217944
0.211244
0.21595
0.213024
0.215029
0.213747
0.214518
0.213852
0.214027
0.213702
0.213837
0.213959
0.214389
0.214883
0.215451
0.215888
0.21622
0.216585
0.217166
0.21802
0.219173
0.22064
0.22244
0.22459
0.227111
0.230022
0.233343
0.237086
0.241261
0.245865
0.250886
0.256294
0.262049
0.268087
0.274342
0.280708
0.287109
0.293383
0.29949
0.305164
0.310493
0.315003
0.319074
0.321759
0.324159
0.324078
0.324593
0.320039
0.319018
0.306248
0.305879
0.275714
0.284043
0.212273
0.255339
0.0725881
0.229528
-0.015983
0.213902
0.200931
0.217802
0.21127
0.215931
0.21303
0.215034
0.213756
0.214535
0.213867
0.214046
0.213714
0.213845
0.21396
0.214391
0.214891
0.215467
0.215909
0.216244
0.216609
0.217186
0.218032
0.219177
0.220634
0.222423
0.224562
0.22707
0.229967
0.233273
0.237002
0.241161
0.245749
0.250753
0.256144
0.261883
0.267904
0.274141
0.280488
0.286871
0.293123
0.299206
0.304853
0.310153
0.314627
0.31866
0.321295
0.323651
0.323499
0.323966
0.319307
0.318242
0.305302
0.304914
0.274455
0.282828
0.210539
0.253753
0.0702066
0.227393
-0.00681415
0.209842
0.201339
0.217656
0.211291
0.215912
0.213037
0.215038
0.213764
0.21455
0.21388
0.214063
0.213724
0.213852
0.213961
0.214393
0.214895
0.215477
0.215924
0.216263
0.216629
0.217203
0.218043
0.219179
0.220627
0.222406
0.224533
0.227028
0.229913
0.233205
0.23692
0.241065
0.245638
0.250628
0.256005
0.261728
0.267734
0.273956
0.280287
0.286652
0.292884
0.298946
0.304568
0.30984
0.314279
0.318275
0.320861
0.323175
0.322954
0.323374
0.31861
0.317503
0.304394
0.303989
0.27324
0.281659
0.208861
0.252223
0.0679362
0.225417
0.00183837
0.205946
0.201633
0.217506
0.211307
0.215896
0.213046
0.215042
0.213772
0.214563
0.213892
0.214078
0.213732
0.213858
0.213961
0.214394
0.214898
0.215484
0.215934
0.216277
0.216646
0.217218
0.218052
0.21918
0.220619
0.222387
0.224503
0.226987
0.22986
0.233139
0.236841
0.240972
0.245533
0.25051
0.255873
0.261584
0.267577
0.273786
0.280103
0.286452
0.292667
0.298709
0.304307
0.309552
0.313958
0.317919
0.320458
0.322729
0.32244
0.322814
0.317949
0.316799
0.303526
0.303103
0.272071
0.280533
0.207242
0.250747
0.0657802
0.223585
0.0100272
0.202238
0.201809
0.217337
0.211345
0.215881
0.213057
0.215044
0.213781
0.214575
0.213903
0.214091
0.21374
0.213863
0.213961
0.214393
0.214899
0.215487
0.21594
0.216288
0.21666
0.217231
0.218059
0.21918
0.22061
0.222369
0.224474
0.226947
0.229808
0.233075
0.236764
0.240884
0.245433
0.250398
0.255751
0.261451
0.267432
0.27363
0.279934
0.28627
0.292468
0.298492
0.304068
0.309288
0.313662
0.317588
0.320081
0.322311
0.321957
0.322284
0.31732
0.316128
0.302696
0.302253
0.270948
0.279449
0.205684
0.249324
0.0637395
0.221878
0.0177809
0.19873
0.201869
0.217142
0.211413
0.215866
0.213073
0.215047
0.21379
0.214587
0.213913
0.214103
0.213747
0.213867
0.21396
0.214392
0.214898
0.215489
0.215944
0.216297
0.216672
0.217242
0.218066
0.21918
0.220601
0.222351
0.224446
0.226908
0.229758
0.233013
0.236691
0.2408
0.245338
0.250293
0.255635
0.261326
0.267299
0.273487
0.27978
0.286104
0.292288
0.298295
0.30385
0.309045
0.313388
0.317282
0.31973
0.321919
0.321501
0.321782
0.316722
0.315488
0.301901
0.301437
0.269869
0.278403
0.204187
0.247948
0.0618128
0.220283
0.0251349
0.195433
0.201822
0.216914
0.211513
0.215844
0.213094
0.215049
0.213801
0.214598
0.213923
0.214114
0.213753
0.213871
0.213958
0.214391
0.214897
0.215488
0.215946
0.216304
0.216683
0.217253
0.218072
0.219179
0.220593
0.222333
0.224418
0.22687
0.229709
0.232954
0.236621
0.240719
0.245247
0.250193
0.255528
0.261211
0.267175
0.273355
0.279639
0.285953
0.292124
0.298115
0.30365
0.308823
0.313136
0.316997
0.319402
0.321551
0.321071
0.321306
0.316154
0.314876
0.301141
0.300653
0.268833
0.277393
0.20275
0.246619
0.0599977
0.218784
0.0321239
0.192353
0.201675
0.216647
0.211646
0.215806
0.213121
0.215054
0.213813
0.214609
0.213934
0.214124
0.213758
0.213874
0.213956
0.214388
0.214894
0.215486
0.215946
0.216309
0.216693
0.217263
0.218078
0.219179
0.220585
0.222316
0.224392
0.226834
0.229662
0.232897
0.236554
0.240642
0.245162
0.2501
0.255427
0.261103
0.267061
0.273235
0.279511
0.285815
0.291975
0.297952
0.303469
0.308619
0.312904
0.316733
0.319096
0.321205
0.320664
0.320855
0.315612
0.314291
0.300413
0.299899
0.267838
0.276417
0.201372
0.245332
0.058291
0.21737
0.038776
0.189492
0.201442
0.216336
0.211794
0.215766
0.213151
0.21506
0.213827
0.21462
0.213945
0.214135
0.213764
0.213876
0.213954
0.214385
0.214891
0.215484
0.215946
0.216314
0.216703
0.217273
0.218085
0.21918
0.220578
0.222301
0.224367
0.226799
0.229617
0.232842
0.23649
0.24057
0.245081
0.250012
0.255333
0.261004
0.266957
0.273125
0.279395
0.285691
0.29184
0.297804
0.303304
0.308432
0.312689
0.316488
0.31881
0.320879
0.32028
0.320425
0.315096
0.31373
0.299716
0.299172
0.266883
0.275472
0.200052
0.244084
0.0566892
0.216029
0.0451127
0.186848
0.201133
0.215981
0.211941
0.215733
0.213178
0.215071
0.213844
0.214632
0.213957
0.214145
0.21377
0.213878
0.213952
0.214382
0.214888
0.215481
0.215945
0.216319
0.216713
0.217284
0.218092
0.219181
0.220572
0.222287
0.224344
0.226766
0.229575
0.23279
0.236429
0.240501
0.245005
0.24993
0.255246
0.260912
0.266861
0.273025
0.27929
0.28558
0.291719
0.29767
0.303154
0.308261
0.312492
0.31626
0.318542
0.320573
0.319916
0.320016
0.314604
0.313192
0.299047
0.298471
0.265967
0.274556
0.198789
0.242873
0.0551888
0.214752
0.0511525
0.184417
0.200762
0.215585
0.212081
0.215707
0.213207
0.215086
0.213866
0.214645
0.213971
0.214156
0.213776
0.213881
0.213949
0.214379
0.214884
0.215479
0.215945
0.216325
0.216723
0.217296
0.218101
0.219185
0.220568
0.222274
0.224323
0.226736
0.229535
0.232741
0.236371
0.240436
0.244933
0.249853
0.255165
0.260828
0.266774
0.272935
0.279195
0.285479
0.291611
0.29755
0.303018
0.308105
0.31231
0.316049
0.318292
0.320283
0.319571
0.319626
0.314133
0.312675
0.298407
0.297793
0.265087
0.273667
0.197581
0.241695
0.053786
0.213529
0.0569121
0.182193
0.200341
0.215151
0.212207
0.215689
0.213238
0.215105
0.213892
0.214661
0.213986
0.214167
0.213783
0.213883
0.213948
0.214376
0.214881
0.215477
0.215946
0.216331
0.216735
0.217308
0.218111
0.21919
0.220566
0.222264
0.224304
0.226708
0.229498
0.232696
0.236318
0.240375
0.244867
0.249782
0.25509
0.260751
0.266695
0.272854
0.279111
0.285391
0.291515
0.297443
0.302896
0.307963
0.312143
0.315852
0.318057
0.32001
0.319244
0.319254
0.313684
0.312178
0.297792
0.297137
0.264243
0.272803
0.196428
0.240549
0.0524775
0.212352
0.0624064
0.180171
0.199883
0.214684
0.212315
0.215676
0.21328
0.215124
0.213924
0.21468
0.214005
0.21418
0.213792
0.213887
0.213947
0.214373
0.214878
0.215476
0.215948
0.216339
0.216748
0.217323
0.218123
0.219197
0.220566
0.222257
0.224289
0.226683
0.229464
0.232653
0.236268
0.240318
0.244805
0.249716
0.255022
0.260681
0.266624
0.272781
0.279037
0.285312
0.29143
0.297348
0.302787
0.307835
0.31199
0.31567
0.317838
0.319752
0.318934
0.318898
0.313254
0.311699
0.297202
0.296502
0.263434
0.271962
0.195327
0.239432
0.0512598
0.211214
0.067649
0.178343
0.199398
0.214191
0.212401
0.215665
0.213341
0.215137
0.213962
0.214703
0.214027
0.214196
0.213803
0.213892
0.213947
0.214371
0.214877
0.215476
0.215952
0.216349
0.216763
0.21734
0.218138
0.219207
0.22057
0.222253
0.224276
0.226662
0.229434
0.232615
0.236222
0.240266
0.244748
0.249656
0.25496
0.260618
0.266561
0.272718
0.278972
0.285244
0.291356
0.297265
0.30269
0.307719
0.311849
0.315501
0.317633
0.319509
0.31864
0.318558
0.312843
0.311237
0.296636
0.295887
0.262657
0.271142
0.194277
0.238342
0.0501295
0.210108
0.0726523
0.176699
0.198899
0.213679
0.212462
0.215651
0.21342
0.215148
0.214004
0.21473
0.214054
0.214214
0.213816
0.213898
0.213948
0.21437
0.214876
0.215477
0.215957
0.216362
0.216781
0.217359
0.218155
0.21922
0.220576
0.222252
0.224266
0.226644
0.229407
0.23258
0.23618
0.240219
0.244697
0.249602
0.254905
0.260563
0.266506
0.272663
0.278917
0.285186
0.291293
0.297193
0.302604
0.307615
0.311722
0.315344
0.317441
0.319278
0.31836
0.318232
0.312449
0.310792
0.296093
0.295289
0.261912
0.270343
0.193277
0.237276
0.0490835
0.209029
0.077428
0.175231
0.198392
0.213152
0.212496
0.215634
0.213511
0.21516
0.214051
0.214764
0.214086
0.214236
0.213832
0.213907
0.213952
0.21437
0.214876
0.21548
0.215966
0.216377
0.216802
0.217382
0.218176
0.219236
0.220586
0.222254
0.224261
0.226629
0.229385
0.23255
0.236143
0.240177
0.244651
0.249554
0.254856
0.260514
0.266458
0.272617
0.27887
0.285138
0.29124
0.297131
0.30253
0.307522
0.311606
0.3152
0.317261
0.31906
0.318094
0.317919
0.312072
0.310361
0.295571
0.294708
0.261198
0.269563
0.192326
0.236234
0.0481188
0.207971
0.0819871
0.17393
0.197888
0.212619
0.212504
0.21561
0.213614
0.215179
0.2141
0.214803
0.214124
0.214262
0.213853
0.21392
0.213958
0.214373
0.214878
0.215485
0.215976
0.216395
0.216826
0.217408
0.218201
0.219256
0.2206
0.222261
0.224259
0.22662
0.229367
0.232525
0.236112
0.24014
0.24461
0.249512
0.254813
0.260473
0.266419
0.272579
0.278833
0.2851
0.291198
0.29708
0.302466
0.30744
0.311501
0.315066
0.317094
0.318854
0.317842
0.317619
0.31171
0.309944
0.29507
0.294143
0.260514
0.268801
0.191423
0.235212
0.0472326
0.20693
0.0863401
0.172786
0.197392
0.212084
0.212488
0.215578
0.213726
0.215206
0.214151
0.214845
0.214169
0.214294
0.213879
0.213936
0.213967
0.214378
0.214883
0.215493
0.21599
0.216417
0.216854
0.217439
0.21823
0.219281
0.220619
0.222272
0.224262
0.226615
0.229354
0.232504
0.236085
0.240109
0.244576
0.249476
0.254778
0.260439
0.266387
0.27255
0.278805
0.285071
0.291165
0.297039
0.302413
0.307369
0.311408
0.314944
0.316938
0.318659
0.317602
0.317331
0.311364
0.30954
0.294589
0.293593
0.25986
0.268055
0.190567
0.23421
0.0464223
0.2059
0.0904971
0.171789
0.196911
0.211554
0.212448
0.215537
0.213844
0.215241
0.214208
0.21489
0.214222
0.214332
0.21391
0.213956
0.213981
0.214386
0.21489
0.215503
0.216008
0.216443
0.216887
0.217474
0.218263
0.219311
0.220642
0.222288
0.224271
0.226615
0.229346
0.232489
0.236064
0.240083
0.244548
0.249447
0.254749
0.260413
0.266363
0.272529
0.278786
0.285051
0.291142
0.297008
0.302371
0.307308
0.311325
0.314832
0.316793
0.318475
0.317375
0.317055
0.311033
0.30915
0.294127
0.293057
0.259234
0.267325
0.189757
0.233226
0.0456854
0.20488
0.0944676
0.170931
0.196449
0.211033
0.212389
0.215489
0.213966
0.215284
0.214275
0.214937
0.214281
0.214377
0.213948
0.213983
0.213999
0.214398
0.2149
0.215516
0.216028
0.216474
0.216924
0.217514
0.218302
0.219345
0.220671
0.22231
0.224285
0.226621
0.229344
0.23248
0.236049
0.240064
0.244526
0.249425
0.254728
0.260394
0.266348
0.272516
0.278776
0.285041
0.291128
0.296987
0.302338
0.307258
0.311252
0.31473
0.316658
0.318301
0.317159
0.31679
0.310715
0.308771
0.293685
0.292535
0.258636
0.26661
0.188991
0.232259
0.0450194
0.203864
0.0982609
0.170202
0.196009
0.210525
0.212314
0.215433
0.21409
0.215334
0.214354
0.214987
0.214346
0.214429
0.213995
0.214016
0.214024
0.214415
0.214914
0.215533
0.216053
0.216508
0.216966
0.217559
0.218347
0.219386
0.220706
0.222338
0.224305
0.226632
0.229348
0.232477
0.23604
0.240051
0.244511
0.24941
0.254715
0.260383
0.266341
0.272513
0.278775
0.28504
0.291125
0.296976
0.302315
0.307217
0.311189
0.314638
0.316534
0.318138
0.316954
0.316535
0.310411
0.308404
0.29326
0.292026
0.258065
0.26591
0.188269
0.231307
0.0444221
0.202851
0.101886
0.169592
0.195595
0.210035
0.212225
0.215371
0.214214
0.215392
0.214444
0.215042
0.214416
0.214489
0.214049
0.214057
0.214056
0.214438
0.214933
0.215554
0.216082
0.216548
0.217014
0.21761
0.218398
0.219434
0.220748
0.222373
0.224331
0.226651
0.229359
0.232481
0.236039
0.240046
0.244504
0.249402
0.254709
0.260381
0.266342
0.272518
0.278783
0.285048
0.29113
0.296975
0.302302
0.307185
0.311136
0.314555
0.31642
0.317983
0.31676
0.31629
0.310121
0.308049
0.292854
0.291529
0.25752
0.265223
0.187591
0.230369
0.0438916
0.201837
0.105351
0.169094
0.195208
0.209564
0.212128
0.215305
0.214336
0.215457
0.214547
0.215103
0.214492
0.214555
0.214112
0.214106
0.214095
0.214467
0.214958
0.215579
0.216115
0.216592
0.217067
0.217668
0.218455
0.219488
0.220797
0.222414
0.224365
0.226677
0.229377
0.232492
0.236045
0.240048
0.244504
0.249402
0.254711
0.260387
0.266353
0.272532
0.2788
0.285066
0.291146
0.296982
0.302299
0.307163
0.311092
0.314482
0.316316
0.317838
0.316577
0.316056
0.309843
0.307704
0.292464
0.291045
0.257002
0.26455
0.186955
0.229445
0.0434257
0.20082
0.108665
0.168699
0.194851
0.209116
0.212024
0.215237
0.214457
0.215528
0.214663
0.215172
0.214573
0.214628
0.214185
0.214165
0.214144
0.214505
0.21499
0.21561
0.216153
0.216641
0.217126
0.217732
0.21852
0.219549
0.220853
0.222463
0.224406
0.22671
0.229402
0.232511
0.236058
0.240058
0.244512
0.249411
0.254722
0.260401
0.266372
0.272556
0.278827
0.285093
0.291171
0.297
0.302304
0.307151
0.311057
0.314418
0.316221
0.317703
0.316404
0.315831
0.309578
0.30737
0.292092
0.290572
0.25651
0.263889
0.18636
0.228533
0.0430228
0.199797
0.111835
0.1684
0.194522
0.208692
0.211918
0.21517
0.214575
0.215604
0.21479
0.215251
0.214662
0.214707
0.214266
0.214233
0.214203
0.214551
0.215029
0.215647
0.216197
0.216696
0.217191
0.217803
0.218592
0.219619
0.220917
0.222521
0.224456
0.226751
0.229436
0.232538
0.23608
0.240076
0.244529
0.249428
0.254742
0.260425
0.2664
0.272588
0.278863
0.28513
0.291205
0.297027
0.30232
0.307147
0.311032
0.314363
0.316135
0.317576
0.316241
0.315615
0.309325
0.307047
0.291737
0.290111
0.256043
0.26324
0.185807
0.227632
0.042681
0.198768
0.114868
0.168188
0.194224
0.208294
0.211812
0.215106
0.214692
0.215686
0.214929
0.215341
0.214761
0.214792
0.214356
0.214312
0.214272
0.214607
0.215077
0.215692
0.216247
0.216757
0.217262
0.21788
0.218671
0.219696
0.220989
0.222586
0.224514
0.226801
0.229479
0.232574
0.236111
0.240103
0.244555
0.249455
0.254771
0.260458
0.266438
0.272631
0.278909
0.285176
0.291249
0.297063
0.302344
0.307153
0.311016
0.314316
0.316058
0.317458
0.316088
0.315408
0.309084
0.306733
0.291398
0.289662
0.255601
0.262603
0.185294
0.226742
0.0423988
0.197729
0.117772
0.168057
0.193956
0.207922
0.211709
0.215046
0.21481
0.215773
0.215077
0.215444
0.214871
0.214884
0.214454
0.2144
0.214353
0.214674
0.215134
0.215744
0.216304
0.216823
0.21734
0.217965
0.218759
0.219782
0.221071
0.222661
0.224581
0.226861
0.229531
0.23262
0.236151
0.24014
0.24459
0.249491
0.25481
0.2605
0.266485
0.272683
0.278964
0.285233
0.291303
0.297109
0.302378
0.307168
0.311009
0.314278
0.31599
0.317348
0.315945
0.315211
0.308855
0.306429
0.291076
0.289223
0.255183
0.261979
0.184821
0.225863
0.0421746
0.196679
0.120553
0.168001
0.193718
0.207578
0.211612
0.214993
0.214928
0.215867
0.215235
0.215559
0.214993
0.214986
0.214561
0.214499
0.214445
0.214752
0.215202
0.215806
0.216368
0.216897
0.217425
0.218058
0.218855
0.219877
0.221162
0.222746
0.224658
0.22693
0.229592
0.232675
0.2362
0.240186
0.244635
0.249536
0.254858
0.260553
0.266543
0.272745
0.27903
0.285299
0.291366
0.297164
0.302422
0.307192
0.311011
0.314249
0.315931
0.317247
0.315811
0.315022
0.308638
0.306136
0.29077
0.288795
0.254791
0.261365
0.184387
0.224993
0.042007
0.195618
0.123218
0.168013
0.193509
0.20726
0.211521
0.214948
0.215049
0.215968
0.215403
0.215687
0.215129
0.215098
0.214678
0.214608
0.214549
0.214843
0.215281
0.215877
0.21644
0.216977
0.217516
0.218158
0.218959
0.219981
0.221263
0.22284
0.224745
0.227009
0.229664
0.23274
0.236261
0.240243
0.24469
0.249592
0.254917
0.260616
0.266611
0.272817
0.279105
0.285375
0.29144
0.297229
0.302474
0.307224
0.311021
0.314228
0.315881
0.317155
0.315687
0.314843
0.308432
0.305852
0.290479
0.288379
0.254422
0.260763
0.183993
0.224131
0.0418947
0.194543
0.125772
0.168087
0.19333
0.206969
0.211439
0.214913
0.215174
0.216078
0.215578
0.215828
0.215281
0.215222
0.214805
0.214728
0.214665
0.214946
0.215372
0.215959
0.216522
0.217066
0.217616
0.218266
0.219072
0.220095
0.221373
0.222945
0.224842
0.227099
0.229747
0.232816
0.236332
0.24031
0.244756
0.249659
0.254986
0.26069
0.266689
0.2729
0.279191
0.285461
0.291523
0.297303
0.302536
0.307266
0.311041
0.314216
0.31584
0.31707
0.315573
0.314672
0.308238
0.305578
0.290205
0.287973
0.254078
0.260172
0.183637
0.223278
0.0418364
0.193455
0.12822
0.168218
0.193178
0.206706
0.211367
0.214889
0.215303
0.216198
0.215763
0.215981
0.215447
0.215361
0.214944
0.214858
0.214793
0.215062
0.215477
0.216052
0.216614
0.217163
0.217723
0.218382
0.219194
0.220219
0.221494
0.223061
0.224951
0.227201
0.229841
0.232904
0.236414
0.240389
0.244834
0.249737
0.255067
0.260774
0.266778
0.272994
0.279288
0.285557
0.291616
0.297387
0.302607
0.307317
0.311069
0.314211
0.315807
0.316994
0.315467
0.31451
0.308055
0.305313
0.289946
0.287578
0.253757
0.259592
0.183318
0.222433
0.041831
0.192351
0.130569
0.168401
0.193055
0.206468
0.211306
0.214876
0.215439
0.216329
0.215957
0.216148
0.21563
0.215515
0.215097
0.215001
0.214933
0.215191
0.215594
0.216158
0.216716
0.21727
0.217839
0.218508
0.219326
0.220352
0.221626
0.223188
0.225072
0.227314
0.229947
0.233003
0.236508
0.24048
0.244923
0.249827
0.255159
0.26087
0.266879
0.273098
0.279395
0.285664
0.291719
0.297481
0.302688
0.307376
0.311106
0.314216
0.315783
0.316927
0.315371
0.314357
0.307884
0.305059
0.289704
0.287193
0.25346
0.259023
0.183038
0.221596
0.0418773
0.191231
0.132824
0.168631
0.192958
0.206257
0.211257
0.214875
0.215581
0.216473
0.216162
0.216328
0.215828
0.215685
0.215266
0.215157
0.215087
0.215334
0.215726
0.216278
0.21683
0.217387
0.217964
0.218642
0.219467
0.220496
0.221769
0.223326
0.225204
0.227439
0.230066
0.233115
0.236615
0.240583
0.245025
0.249929
0.255264
0.260978
0.266991
0.273214
0.279513
0.285781
0.291832
0.297584
0.302777
0.307444
0.311151
0.314228
0.315767
0.316867
0.315285
0.314212
0.307725
0.304814
0.289476
0.28682
0.253187
0.258466
0.182794
0.220766
0.0419742
0.190094
0.134987
0.168904
0.192888
0.20607
0.211219
0.214886
0.21573
0.216629
0.216378
0.216521
0.216042
0.215874
0.215451
0.215328
0.215255
0.21549
0.215871
0.216411
0.216958
0.217515
0.2181
0.218786
0.219617
0.22065
0.221923
0.223477
0.225349
0.227578
0.230197
0.23324
0.236735
0.240699
0.245139
0.250044
0.25538
0.261098
0.267115
0.273341
0.279642
0.285909
0.291955
0.297697
0.302876
0.307521
0.311205
0.314249
0.315759
0.316816
0.315207
0.314076
0.307576
0.304579
0.289265
0.286457
0.252938
0.257919
0.182588
0.219944
0.042121
0.18894
0.137065
0.169216
0.192843
0.205909
0.211194
0.214911
0.215888
0.216798
0.216607
0.21673
0.216271
0.216081
0.215655
0.215515
0.215437
0.215662
0.216032
0.216558
0.217098
0.217656
0.218246
0.21894
0.219779
0.220815
0.222088
0.22364
0.225507
0.227729
0.230342
0.233379
0.236868
0.240829
0.245267
0.250172
0.25551
0.261231
0.267251
0.27348
0.279782
0.286047
0.292088
0.297819
0.302984
0.307607
0.311267
0.314278
0.31576
0.316773
0.315139
0.313949
0.30744
0.304354
0.289069
0.286106
0.252711
0.257383
0.182418
0.219128
0.0423165
0.187768
0.139061
0.169562
0.192823
0.205772
0.211182
0.214948
0.216054
0.216981
0.216848
0.216954
0.216516
0.216306
0.215878
0.21572
0.215636
0.215849
0.216208
0.216721
0.217253
0.217809
0.218404
0.219105
0.219951
0.220992
0.222266
0.223815
0.225678
0.227894
0.2305
0.233531
0.237016
0.240973
0.245409
0.250313
0.255653
0.261376
0.2674
0.273631
0.279934
0.286197
0.292232
0.297952
0.303101
0.307701
0.311338
0.314315
0.31577
0.316738
0.315081
0.313831
0.307314
0.304138
0.288889
0.285765
0.252509
0.256859
0.182284
0.218319
0.0425601
0.186577
0.140979
0.169941
0.192827
0.205658
0.211183
0.214998
0.216228
0.217177
0.217103
0.217196
0.216778
0.216551
0.216122
0.215945
0.215853
0.216052
0.2164
0.2169
0.217424
0.217977
0.218575
0.219282
0.220134
0.22118
0.222456
0.224003
0.225862
0.228073
0.230673
0.233699
0.237178
0.241131
0.245565
0.250469
0.255809
0.261535
0.267561
0.273794
0.280098
0.286357
0.292386
0.298093
0.303228
0.307804
0.311417
0.31436
0.315788
0.316711
0.315031
0.313722
0.3072
0.303933
0.288725
0.285436
0.252329
0.256346
0.182187
0.217517
0.0428508
0.185368
0.142822
0.170347
0.192854
0.205567
0.211197
0.215061
0.216411
0.217387
0.217371
0.217455
0.217056
0.216814
0.216386
0.216192
0.21609
0.216273
0.21661
0.217096
0.217611
0.21816
0.21876
0.219471
0.22033
0.22138
0.222658
0.224205
0.22606
0.228267
0.230861
0.233881
0.237355
0.241304
0.245736
0.250639
0.25598
0.261707
0.267735
0.273969
0.280273
0.286528
0.29255
0.298245
0.303363
0.307916
0.311505
0.314413
0.315814
0.316692
0.314991
0.313622
0.307098
0.303739
0.288576
0.285119
0.252173
0.255845
0.182125
0.216721
0.043188
0.184141
0.144594
0.170778
0.192904
0.205499
0.211223
0.215136
0.216603
0.217609
0.217652
0.217732
0.217353
0.217097
0.216672
0.21646
0.216347
0.216514
0.216838
0.217309
0.217815
0.218359
0.218959
0.219675
0.220539
0.221594
0.222874
0.22442
0.226273
0.228475
0.231065
0.234079
0.237548
0.241493
0.245922
0.250824
0.256166
0.261894
0.267923
0.274157
0.28046
0.286711
0.292725
0.298406
0.303508
0.308036
0.311601
0.314474
0.315848
0.316682
0.31496
0.313531
0.307007
0.303554
0.288443
0.284813
0.25204
0.255355
0.182098
0.215932
0.0435709
0.182894
0.146299
0.171231
0.192975
0.205453
0.211263
0.215223
0.216802
0.217844
0.217946
0.218028
0.217668
0.217401
0.216979
0.216752
0.216628
0.216776
0.217085
0.217542
0.218037
0.218575
0.219175
0.219893
0.220762
0.221821
0.223104
0.22465
0.226501
0.228699
0.231284
0.234293
0.237757
0.241699
0.246125
0.251025
0.256366
0.262095
0.268124
0.274358
0.280659
0.286904
0.29291
0.298577
0.303661
0.308164
0.311705
0.314544
0.315891
0.31668
0.314938
0.31345
0.306928
0.303381
0.288326
0.284519
0.25193
0.254877
0.182107
0.215149
0.0439991
0.181629
0.147938
0.171704
0.193067
0.205428
0.211317
0.215323
0.217011
0.21809
0.218252
0.21834
0.218003
0.217725
0.217307
0.217067
0.216931
0.217061
0.217353
0.217794
0.218278
0.21881
0.219408
0.220128
0.221
0.222063
0.223348
0.224895
0.226744
0.228939
0.23152
0.234523
0.237983
0.241921
0.246344
0.251242
0.256583
0.262311
0.26834
0.274573
0.28087
0.287109
0.293106
0.298757
0.303824
0.308301
0.311817
0.314621
0.315942
0.316686
0.314926
0.313377
0.306861
0.303218
0.288225
0.284237
0.251844
0.254411
0.182151
0.214374
0.0444717
0.180344
0.149515
0.172194
0.193179
0.205425
0.211383
0.215435
0.217228
0.218347
0.218569
0.21867
0.218356
0.218071
0.217658
0.217406
0.21726
0.217369
0.217644
0.218068
0.21854
0.219065
0.21966
0.220379
0.221254
0.22232
0.223608
0.225155
0.227004
0.229196
0.231772
0.234772
0.238227
0.24216
0.24658
0.251476
0.256815
0.262542
0.26857
0.2748
0.281094
0.287326
0.293312
0.298948
0.303995
0.308447
0.311937
0.314706
0.316001
0.316701
0.314924
0.313314
0.306806
0.303066
0.28814
0.283967
0.25178
0.253958
0.18223
0.213605
0.0449884
0.17904
0.151033
0.172699
0.193311
0.205441
0.211463
0.21556
0.217453
0.218616
0.218897
0.219015
0.218728
0.21844
0.218031
0.217768
0.217613
0.217703
0.21796
0.218365
0.218824
0.21934
0.219931
0.22065
0.221526
0.222594
0.223884
0.225432
0.22728
0.22947
0.232043
0.235038
0.238488
0.242417
0.246834
0.251727
0.257064
0.262789
0.268815
0.275042
0.28133
0.287554
0.293528
0.299147
0.304176
0.308601
0.312066
0.314799
0.316069
0.316724
0.31493
0.313261
0.306762
0.302925
0.288071
0.28371
0.25174
0.253517
0.182344
0.212843
0.0455486
0.177718
0.152493
0.173217
0.193462
0.205477
0.211556
0.215696
0.217686
0.218895
0.219236
0.219374
0.219117
0.21883
0.218427
0.218155
0.217992
0.218063
0.2183
0.218686
0.219132
0.219638
0.220224
0.22094
0.221816
0.222886
0.224178
0.225727
0.227574
0.229762
0.232331
0.235322
0.238769
0.242694
0.247106
0.251996
0.25733
0.263052
0.269075
0.275297
0.281579
0.287793
0.293755
0.299356
0.304365
0.308763
0.312202
0.3149
0.316144
0.316755
0.314947
0.313217
0.306731
0.302795
0.288019
0.283465
0.251724
0.253089
0.182492
0.212088
0.0461519
0.176376
0.153899
0.173745
0.19363
0.205533
0.211662
0.215844
0.217928
0.219183
0.219584
0.219747
0.219522
0.219241
0.218846
0.218567
0.218397
0.218449
0.218668
0.219033
0.219464
0.21996
0.22054
0.221252
0.222127
0.223198
0.22449
0.22604
0.227887
0.230073
0.232639
0.235627
0.239069
0.242989
0.247397
0.252283
0.257613
0.263331
0.26935
0.275566
0.281841
0.288044
0.293993
0.299575
0.304563
0.308933
0.312347
0.315008
0.316228
0.316795
0.314973
0.313183
0.306712
0.302677
0.287982
0.283234
0.251731
0.252674
0.182675
0.21134
0.0467979
0.175017
0.155253
0.174283
0.193815
0.205607
0.211781
0.216004
0.218178
0.219482
0.219942
0.220133
0.219942
0.219672
0.219289
0.219004
0.218827
0.218863
0.219063
0.219407
0.219823
0.220307
0.22088
0.221588
0.222461
0.22353
0.224823
0.226373
0.228219
0.230403
0.232967
0.235951
0.239389
0.243305
0.247708
0.252589
0.257915
0.263628
0.269641
0.27585
0.282116
0.288307
0.294241
0.299803
0.304769
0.309111
0.312499
0.315125
0.31632
0.316844
0.315008
0.31316
0.306705
0.302571
0.287962
0.283016
0.251761
0.252272
0.182892
0.2106
0.0474861
0.173638
0.156556
0.174828
0.194017
0.2057
0.211913
0.216176
0.218437
0.219789
0.220308
0.22053
0.220375
0.220122
0.219753
0.219465
0.219283
0.219303
0.219486
0.21981
0.220209
0.220681
0.221246
0.221948
0.222817
0.223885
0.225177
0.226727
0.228572
0.230755
0.233316
0.236296
0.23973
0.243641
0.248039
0.252915
0.258235
0.263942
0.269948
0.276149
0.282404
0.288581
0.294499
0.30004
0.304984
0.309297
0.312659
0.315249
0.316421
0.316901
0.315054
0.313146
0.306711
0.302477
0.287959
0.282812
0.251814
0.251884
0.183144
0.209868
0.0482163
0.172242
0.157811
0.17538
0.194235
0.20581
0.212059
0.21636
0.218704
0.220106
0.220683
0.220938
0.220821
0.220587
0.220237
0.219951
0.219766
0.219771
0.219937
0.220241
0.220625
0.221084
0.221639
0.222334
0.223199
0.224264
0.225555
0.227103
0.228947
0.231129
0.233687
0.236664
0.240093
0.243999
0.248392
0.253262
0.258575
0.264274
0.270272
0.276463
0.282706
0.288868
0.294768
0.300287
0.305207
0.309491
0.312826
0.315381
0.316529
0.316966
0.315109
0.313143
0.306729
0.302395
0.287972
0.282621
0.251891
0.251511
0.183429
0.209144
0.0489882
0.170829
0.159019
0.175936
0.194468
0.205938
0.212217
0.216555
0.21898
0.220432
0.221066
0.221355
0.221277
0.221067
0.220739
0.22046
0.220273
0.220267
0.220417
0.220703
0.22107
0.221516
0.222061
0.222748
0.223607
0.224668
0.225957
0.227504
0.229346
0.231525