/*--------------------------------*- C++ -*----------------------------------*\
| =========                 |                                                 |
| \\      /  F ield         | OpenFOAM: The Open Source CFD Toolbox           |
|  \\    /   O peration     | Version:  2.4.0                                 |
|   \\  /    A nd           | Web:      www.OpenFOAM.org                      |
|    \\/     M anipulation  |                                                 |
\*---------------------------------------------------------------------------*/
FoamFile
{
    version     2.0;
    format      ascii;
    class       surfaceScalarField;
    location    "5.04";
    object      phi;
}
// * * * * * * * * * * * * * * * * * * * * * * * * * * * * * * * * * * * * * //

dimensions      [0 3 -1 0 0 0 0];

internalField   nonuniform List<scalar> 
11840
(
7.83544e-07
9.21646e-06
-9.36208e-07
1.71975e-06
6.5842e-07
-1.59463e-06
1.46019e-07
5.12401e-07
-2.06031e-07
3.5205e-07
-3.0479e-07
9.87592e-08
-4.09275e-07
1.04484e-07
-5.0576e-07
9.64855e-08
-6.97524e-07
1.91764e-07
-8.67384e-07
1.69861e-07
-1.12046e-06
2.53076e-07
-1.32327e-06
2.0281e-07
-1.52942e-06
2.06151e-07
-1.65499e-06
1.25573e-07
-1.74103e-06
8.60305e-08
-1.80237e-06
6.13492e-08
-1.92623e-06
1.23853e-07
-2.15709e-06
2.30865e-07
-2.48214e-06
3.25049e-07
-2.82059e-06
3.38444e-07
-3.11195e-06
2.91365e-07
-3.34755e-06
2.356e-07
-3.54205e-06
1.94502e-07
-3.70293e-06
1.60877e-07
-3.8339e-06
1.30972e-07
-3.93596e-06
1.02054e-07
-4.00869e-06
7.27385e-08
-4.05051e-06
4.18177e-08
-4.0581e-06
7.59153e-09
-4.03074e-06
-2.73603e-08
-3.96908e-06
-6.16628e-08
-3.87208e-06
-9.69965e-08
-3.73888e-06
-1.33209e-07
-3.56893e-06
-1.6995e-07
-3.3624e-06
-2.06526e-07
-3.11967e-06
-2.42729e-07
-2.8423e-06
-2.77369e-07
-2.53128e-06
-3.11023e-07
-2.1901e-06
-3.41179e-07
-1.81919e-06
-3.70912e-07
-1.42528e-06
-3.93904e-07
-1.00556e-06
-4.19724e-07
-5.72599e-07
-4.32961e-07
-1.17245e-07
-4.55354e-07
3.38404e-07
-4.55649e-07
8.1679e-07
-4.78386e-07
1.27384e-06
-4.57047e-07
1.77408e-06
-5.00242e-07
2.21461e-06
-4.40533e-07
2.7443e-06
-5.29687e-07
3.13736e-06
-3.93058e-07
3.72214e-06
-5.84779e-07
4.01394e-06
-2.91809e-07
4.71022e-06
-6.9628e-07
4.80839e-06
-9.81624e-08
5.70932e-06
-9.00936e-07
5.46651e-06
2.42809e-07
6.7643e-06
-1.29778e-06
6.10206e-06
6.6224e-07
-2.51611e-06
2.45143e-06
1.6765e-05
-5.06832e-07
4.67801e-06
3.68196e-07
-2.46966e-06
-8.68315e-08
9.67429e-07
-3.1236e-07
5.77579e-07
-4.67269e-07
2.53668e-07
-5.68252e-07
2.05468e-07
-6.88215e-07
2.16449e-07
-8.83837e-07
3.87385e-07
-1.07767e-06
3.63691e-07
-1.31921e-06
4.94623e-07
-1.52675e-06
4.10351e-07
-1.71067e-06
3.90062e-07
-1.8327e-06
2.47606e-07
-1.91845e-06
1.71783e-07
-2.00419e-06
1.47085e-07
-2.15772e-06
2.77392e-07
-2.40987e-06
4.83008e-07
-2.72641e-06
6.41591e-07
-3.03351e-06
6.45544e-07
-3.29188e-06
5.49735e-07
-3.5034e-06
4.47117e-07
-3.67843e-06
3.69532e-07
-3.82176e-06
3.04213e-07
-3.93557e-06
2.44779e-07
-4.02011e-06
1.86598e-07
-4.07476e-06
1.27387e-07
-4.09828e-06
6.53365e-08
-4.09054e-06
-1.52836e-10
-4.04971e-06
-6.81839e-08
-3.97401e-06
-1.37365e-07
-3.86201e-06
-2.08999e-07
-3.71287e-06
-2.82341e-07
-3.52622e-06
-3.56606e-07
-3.30223e-06
-4.30518e-07
-3.04156e-06
-5.03391e-07
-2.74563e-06
-5.733e-07
-2.41613e-06
-6.40523e-07
-2.0557e-06
-7.0161e-07
-1.66674e-06
-7.59871e-07
-1.253e-06
-8.07646e-07
-8.17085e-07
-8.55641e-07
-3.6344e-07
-8.86605e-07
1.05421e-07
-9.24215e-07
5.83515e-07
-9.33742e-07
1.07208e-06
-9.66954e-07
1.56122e-06
-9.46184e-07
2.06127e-06
-1.00029e-06
2.55e-06
-9.29261e-07
3.05827e-06
-1.03796e-06
3.53158e-06
-8.66374e-07
4.0526e-06
-1.1058e-06
4.48548e-06
-7.24682e-07
5.03928e-06
-1.25009e-06
5.38388e-06
-4.42763e-07
6.02709e-06
-1.54414e-06
6.20215e-06
6.77498e-08
7.04879e-06
-2.14442e-06
7.06322e-06
6.47816e-07
-4.11107e-06
3.60695e-06
2.31581e-05
1.72711e-08
8.26769e-06
5.84891e-08
-2.51087e-06
-3.04832e-07
1.33075e-06
-3.68292e-07
6.41038e-07
-5.3233e-07
4.17706e-07
-6.20972e-07
2.9411e-07
-7.49134e-07
3.44611e-07
-9.28121e-07
5.66372e-07
-1.12456e-06
5.60135e-07
-1.34747e-06
7.17529e-07
-1.55255e-06
6.1543e-07
-1.72946e-06
5.66976e-07
-1.85811e-06
3.76248e-07
-1.95283e-06
2.66506e-07
-2.04974e-06
2.43992e-07
-2.20402e-06
4.31674e-07
-2.4424e-06
7.21387e-07
-2.7339e-06
9.33095e-07
-3.01756e-06
9.29196e-07
-3.26053e-06
7.92709e-07
-3.46231e-06
6.48894e-07
-3.62943e-06
5.36659e-07
-3.76569e-06
4.40471e-07
-3.87279e-06
3.51872e-07
-3.95086e-06
2.64673e-07
-3.99926e-06
1.75789e-07
-4.017e-06
8.30784e-08
-4.00304e-06
-1.41148e-08
-3.95605e-06
-1.15175e-07
-3.87401e-06
-2.19405e-07
-3.75573e-06
-3.27281e-07
-3.60041e-06
-4.37663e-07
-3.4077e-06
-5.49317e-07
-3.1778e-06
-6.60415e-07
-2.91146e-06
-7.69728e-07
-2.61006e-06
-8.74705e-07
-2.27546e-06
-9.75123e-07
-1.91012e-06
-1.06695e-06
-1.51687e-06
-1.15312e-06
-1.09885e-06
-1.22567e-06
-6.59718e-07
-1.29477e-06
-2.02425e-07
-1.3439e-06
2.68529e-07
-1.39517e-06
7.50685e-07
-1.4159e-06
1.2406e-06
-1.45687e-06
1.73578e-06
-1.44136e-06
2.23449e-06
-1.499e-06
2.73295e-06
-1.42772e-06
3.23364e-06
-1.53864e-06
3.72591e-06
-1.35864e-06
4.22516e-06
-1.60505e-06
4.69849e-06
-1.19802e-06
5.19881e-06
-1.7504e-06
5.63099e-06
-8.74947e-07
6.15122e-06
-2.06437e-06
6.50992e-06
-2.90949e-07
7.10061e-06
-2.73511e-06
7.45764e-06
2.9078e-07
-5.18821e-06
4.52846e-06
2.86296e-05
7.56547e-07
1.20396e-05
-2.33623e-07
-1.52071e-06
-4.60401e-07
1.55753e-06
-3.98814e-07
5.79451e-07
-5.64e-07
5.82892e-07
-6.42725e-07
3.72834e-07
-7.74344e-07
4.7623e-07
-9.38844e-07
7.30872e-07
-1.13191e-06
7.53204e-07
-1.3417e-06
9.27319e-07
-1.54295e-06
8.16673e-07
-1.71741e-06
7.41438e-07
-1.8521e-06
5.10943e-07
-1.95542e-06
3.69822e-07
-2.05979e-06
3.48367e-07
-2.21147e-06
5.83354e-07
-2.43447e-06
9.44383e-07
-2.70353e-06
1.20216e-06
-2.96811e-06
1.19377e-06
-3.1988e-06
1.0234e-06
-3.39239e-06
8.42487e-07
-3.55285e-06
6.97116e-07
-3.68318e-06
5.70799e-07
-3.78476e-06
4.53451e-07
-3.85764e-06
3.37556e-07
-3.90116e-06
2.19306e-07
-3.91428e-06
9.62035e-08
-3.89584e-06
-3.25553e-08
-3.84432e-06
-1.66696e-07
-3.75797e-06
-3.0576e-07
-3.63559e-06
-4.49658e-07
-3.47641e-06
-5.96843e-07
-3.2801e-06
-7.45625e-07
-3.04688e-06
-8.93636e-07
-2.77753e-06
-1.03908e-06
-2.47342e-06
-1.17882e-06
-2.13648e-06
-1.31206e-06
-1.76914e-06
-1.4343e-06
-1.37435e-06
-1.54791e-06
-9.55082e-07
-1.64493e-06
-5.15292e-07
-1.73456e-06
-5.7546e-08
-1.80165e-06
4.13282e-07
-1.866e-06
8.95644e-07
-1.89826e-06
1.38491e-06
-1.94614e-06
1.88059e-06
-1.93704e-06
2.37744e-06
-1.99586e-06
2.87722e-06
-1.92749e-06
3.37362e-06
-2.03505e-06
3.87001e-06
-1.85504e-06
4.35973e-06
-2.09477e-06
4.8447e-06
-1.68298e-06
5.32345e-06
-2.22915e-06
5.7853e-06
-1.3368e-06
6.25577e-06
-2.53484e-06
6.68409e-06
-7.19271e-07
7.16709e-06
-3.21811e-06
7.65931e-06
-2.01445e-07
-6.01595e-06
5.30458e-06
3.3325e-05
1.49058e-06
1.58536e-05
-2.59642e-07
2.29514e-07
-5.5157e-07
1.84946e-06
-4.19439e-07
4.4732e-07
-5.80955e-07
7.44409e-07
-6.51961e-07
4.4384e-07
-7.83523e-07
6.07791e-07
-9.3614e-07
8.83489e-07
-1.12308e-06
9.40143e-07
-1.32242e-06
1.12666e-06
-1.51935e-06
1.0136e-06
-1.69267e-06
9.14763e-07
-1.83269e-06
6.50959e-07
-1.94374e-06
4.80875e-07
-2.05374e-06
4.58368e-07
-2.20161e-06
7.31219e-07
-2.40934e-06
1.15211e-06
-2.65767e-06
1.45049e-06
-2.90497e-06
1.44107e-06
-3.12432e-06
1.24276e-06
-3.31014e-06
1.0283e-06
-3.4643e-06
8.51275e-07
-3.58908e-06
6.95587e-07
-3.68558e-06
5.4995e-07
-3.75375e-06
4.05727e-07
-3.79289e-06
2.58446e-07
-3.80193e-06
1.05241e-07
-3.7796e-06
-5.48887e-08
-3.72431e-06
-2.21981e-07
-3.63446e-06
-3.95611e-07
-3.50887e-06
-5.75248e-07
-3.34677e-06
-7.58946e-07
-3.14784e-06
-9.44552e-07
-2.91231e-06
-1.12916e-06
-2.64099e-06
-1.3104e-06
-2.33525e-06
-1.48456e-06
-1.99707e-06
-1.65024e-06
-1.62884e-06
-1.80253e-06
-1.2336e-06
-1.94315e-06
-8.14248e-07
-2.06428e-06
-3.74832e-07
-2.17398e-06
8.21683e-08
-2.25865e-06
5.51902e-07
-2.33573e-06
1.03302e-06
-2.37938e-06
1.5206e-06
-2.43371e-06
2.01479e-06
-2.43123e-06
2.50913e-06
-2.4902e-06
3.00742e-06
-2.42578e-06
3.5e-06
-2.52762e-06
3.99585e-06
-2.3509e-06
4.47923e-06
-2.57815e-06
4.96682e-06
-2.17057e-06
5.43367e-06
-2.696e-06
5.90635e-06
-1.80948e-06
6.35172e-06
-2.9802e-06
6.80934e-06
-1.17689e-06
7.24024e-06
-3.64901e-06
7.78745e-06
-7.48657e-07
-6.70477e-06
5.97547e-06
3.73496e-05
2.24012e-06
1.9589e-05
-6.28188e-08
2.53245e-06
-5.83073e-07
2.36971e-06
-4.36608e-07
3.00854e-07
-5.89402e-07
8.97203e-07
-6.54139e-07
5.08578e-07
-7.83487e-07
7.37139e-07
-9.25699e-07
1.0257e-06
-1.10529e-06
1.11973e-06
-1.29536e-06
1.31673e-06
-1.48776e-06
1.206e-06
-1.66027e-06
1.08728e-06
-1.80494e-06
7.95632e-07
-1.9229e-06
5.98831e-07
-2.03737e-06
5.72844e-07
-2.18086e-06
8.74707e-07
-2.37374e-06
1.34499e-06
-2.60254e-06
1.67929e-06
-2.83348e-06
1.67202e-06
-3.04184e-06
1.45112e-06
-3.21996e-06
1.20642e-06
-3.36793e-06
9.99248e-07
-3.48733e-06
8.14985e-07
-3.57894e-06
6.41563e-07
-3.64262e-06
4.69407e-07
-3.67763e-06
2.93449e-07
-3.68284e-06
1.10454e-07
-3.65692e-06
-8.08098e-08
-3.59827e-06
-2.80626e-07
-3.50536e-06
-4.88524e-07
-3.37703e-06
-7.03585e-07
-3.21249e-06
-9.23477e-07
-3.01147e-06
-1.14558e-06
-2.77418e-06
-1.36645e-06
-2.50145e-06
-1.58313e-06
-2.19466e-06
-1.79135e-06
-1.85582e-06
-1.98908e-06
-1.4873e-06
-2.17104e-06
-1.09221e-06
-2.33824e-06
-6.73412e-07
-2.48308e-06
-2.34962e-07
-2.61243e-06
2.20643e-07
-2.71425e-06
6.88678e-07
-2.80377e-06
1.16778e-06
-2.85848e-06
1.65297e-06
-2.91891e-06
2.14466e-06
-2.92293e-06
2.63593e-06
-2.98146e-06
3.1314e-06
-2.92126e-06
3.62e-06
-3.01622e-06
4.11329e-06
-2.84418e-06
4.59126e-06
-3.05612e-06
5.07778e-06
-2.65709e-06
5.53623e-06
-3.15445e-06
6.01216e-06
-2.28541e-06
6.44204e-06
-3.41008e-06
6.91268e-06
-1.64753e-06
7.31394e-06
-4.05028e-06
7.8834e-06
-1.31811e-06
-7.3021e-06
6.56073e-06
4.07888e-05
2.97402e-06
2.31757e-05
2.30271e-07
5.2762e-06
-5.36343e-07
3.13632e-06
-4.51505e-07
2.16017e-07
-5.91896e-07
1.03759e-06
-6.51298e-07
5.6798e-07
-7.77204e-07
8.63044e-07
-9.09835e-07
1.15833e-06
-1.08149e-06
1.29139e-06
-1.26286e-06
1.4981e-06
-1.45053e-06
1.39367e-06
-1.62216e-06
1.25891e-06
-1.77085e-06
9.44317e-07
-1.89493e-06
7.22916e-07
-2.01306e-06
6.90975e-07
-2.15193e-06
1.01357e-06
-2.3305e-06
1.52356e-06
-2.54071e-06
1.88949e-06
-2.75588e-06
1.88719e-06
-2.95332e-06
1.64856e-06
-3.12368e-06
1.37677e-06
-3.26545e-06
1.14102e-06
-3.37949e-06
9.29026e-07
-3.46629e-06
7.28361e-07
-3.52558e-06
5.28698e-07
-3.55656e-06
3.24436e-07
-3.55809e-06
1.11985e-07
-3.52877e-06
-1.10139e-07
-3.46699e-06
-3.42398e-07
-3.37128e-06
-5.84237e-07
-3.24048e-06
-8.34387e-07
-3.07382e-06
-1.09013e-06
-2.87102e-06
-1.34838e-06
-2.63231e-06
-1.60516e-06
-2.35852e-06
-1.85692e-06
-2.05105e-06
-2.09882e-06
-1.71192e-06
-2.32822e-06
-1.34352e-06
-2.53944e-06
-9.48966e-07
-2.7328e-06
-5.31141e-07
-2.9009e-06
-9.40632e-08
-3.0495e-06
3.59711e-07
-3.16802e-06
8.25604e-07
-3.26966e-06
1.30215e-06
-3.33503e-06
1.78447e-06
-3.40123e-06
2.27299e-06
-3.41145e-06
2.76071e-06
-3.46918e-06
3.25257e-06
-3.41312e-06
3.73692e-06
-3.50057e-06
4.2265e-06
-3.33377e-06
4.6993e-06
-3.52892e-06
5.18285e-06
-3.14064e-06
5.63436e-06
-3.60596e-06
6.10983e-06
-2.76088e-06
6.52864e-06
-3.82889e-06
7.00446e-06
-2.12335e-06
7.38659e-06
-4.43241e-06
7.96281e-06
-1.89432e-06
-7.83185e-06
7.07178e-06
4.37171e-05
3.6866e-06
2.65608e-05
6.53707e-07
8.3091e-06
-4.06511e-07
4.19654e-06
-4.60223e-07
2.6973e-07
-5.8948e-07
1.16685e-06
-6.44297e-07
6.22797e-07
-7.66131e-07
9.84878e-07
-8.89692e-07
1.28189e-06
-1.05313e-06
1.45482e-06
-1.22606e-06
1.67103e-06
-1.40879e-06
1.5764e-06
-1.57928e-06
1.4294e-06
-1.73133e-06
1.09636e-06
-1.86081e-06
8.52398e-07
-1.98196e-06
8.12128e-07
-2.11615e-06
1.14776e-06
-2.28105e-06
1.68846e-06
-2.47348e-06
2.08192e-06
-2.67327e-06
2.08698e-06
-2.85976e-06
1.83505e-06
-3.02222e-06
1.53923e-06
-3.15769e-06
1.27649e-06
-3.26634e-06
1.03767e-06
-3.34832e-06
8.10344e-07
-3.40325e-06
5.83629e-07
-3.43027e-06
3.51458e-07
-3.42819e-06
1.09903e-07
-3.39556e-06
-1.42768e-07
-3.33081e-06
-4.07152e-07
-3.23246e-06
-6.82586e-07
-3.09937e-06
-9.67471e-07
-2.93079e-06
-1.25871e-06
-2.72643e-06
-1.55275e-06
-2.48652e-06
-1.84507e-06
-2.21192e-06
-2.13152e-06
-1.90403e-06
-2.40671e-06
-1.56488e-06
-2.66736e-06
-1.19689e-06
-2.90743e-06
-8.03171e-07
-3.12652e-06
-3.86626e-07
-3.31745e-06
4.87666e-08
-3.4849e-06
5.00377e-07
-3.61963e-06
9.63771e-07
-3.73305e-06
1.43737e-06
-3.80863e-06
1.9164e-06
-3.88026e-06
2.40127e-06
-3.89632e-06
2.88504e-06
-3.95295e-06
3.3727e-06
-3.90078e-06
3.85249e-06
-3.98036e-06
4.33764e-06
-3.81891e-06
4.80522e-06
-3.9965e-06
5.28466e-06
-3.62009e-06
5.72988e-06
-4.05118e-06
6.20277e-06
-3.23377e-06
6.61277e-06
-4.23889e-06
7.08943e-06
-2.60002e-06
7.45786e-06
-4.80084e-06
8.03264e-06
-2.4691e-06
-8.30773e-06
7.51722e-06
4.61998e-05
4.37157e-06
2.97065e-05
1.18032e-06
1.15003e-05
-2.07568e-07
5.58443e-06
-4.53374e-07
5.15536e-07
-5.82186e-07
1.29566e-06
-6.33449e-07
6.7406e-07
-7.51005e-07
1.10243e-06
-8.6588e-07
1.39677e-06
-1.02098e-06
1.60992e-06
-1.18558e-06
1.83563e-06
-1.36311e-06
1.75393e-06
-1.53209e-06
1.59838e-06
-1.68684e-06
1.25112e-06
-1.82102e-06
9.86577e-07
-1.94468e-06
9.35787e-07
-2.07425e-06
1.27733e-06
-2.22615e-06
1.84035e-06
-2.40157e-06
2.25735e-06
-2.58629e-06
2.2717e-06
-2.76173e-06
2.01049e-06
-2.9161e-06
1.6936e-06
-3.04515e-06
1.40554e-06
-3.14831e-06
1.14084e-06
-3.22544e-06
8.8747e-07
-3.27599e-06
6.34186e-07
-3.29906e-06
3.74522e-07
-3.29339e-06
1.04237e-07
-3.25752e-06
-1.78639e-07
-3.18987e-06
-4.74802e-07
-3.08899e-06
-7.83463e-07
-2.95375e-06
-1.10271e-06
-2.78339e-06
-1.42908e-06
-2.57762e-06
-1.75852e-06
-2.33669e-06
-2.08599e-06
-2.06146e-06
-2.40674e-06
-1.75335e-06
-2.71483e-06
-1.41439e-06
-3.00631e-06
-1.04703e-06
-3.2748e-06
-6.54379e-07
-3.51916e-06
-2.39365e-07
-3.73246e-06
1.94081e-07
-3.91834e-06
6.4325e-07
-4.0688e-06
1.10384e-06
-4.19364e-06
1.57415e-06
-4.27894e-06
2.04955e-06
-4.35565e-06
2.53036e-06
-4.37713e-06
3.00982e-06
-4.43241e-06
3.49284e-06
-4.3838e-06
3.96776e-06
-4.45529e-06
4.44793e-06
-4.29907e-06
4.91014e-06
-4.45871e-06
5.38471e-06
-4.09465e-06
5.82388e-06
-4.49035e-06
6.29284e-06
-3.70273e-06
6.69526e-06
-4.64131e-06
7.17012e-06
-3.07488e-06
7.52783e-06
-5.15854e-06
8.09644e-06
-3.03771e-06
-8.73846e-06
7.90474e-06
4.82951e-05
5.02304e-06
3.25882e-05
1.77315e-06
1.47502e-05
5.75959e-08
7.29998e-06
-4.20915e-07
9.94047e-07
-5.69022e-07
1.44377e-06
-6.18711e-07
7.2375e-07
-7.32154e-07
1.21588e-06
-8.38707e-07
1.50332e-06
-9.85452e-07
1.75667e-06
-1.14175e-06
1.99193e-06
-1.31382e-06
1.92599e-06
-1.48085e-06
1.76541e-06
-1.63763e-06
1.4079e-06
-1.77582e-06
1.12477e-06
-1.90155e-06
1.06151e-06
-2.02666e-06
1.40244e-06
-2.16625e-06
1.97995e-06
-2.32541e-06
2.4165e-06
-2.49533e-06
2.44162e-06
-2.6596e-06
2.17476e-06
-2.80566e-06
1.83967e-06
-2.9281e-06
1.52798e-06
-3.02567e-06
1.2384e-06
-3.09786e-06
9.59663e-07
-3.144e-06
6.80324e-07
-3.16309e-06
3.93606e-07
-3.15384e-06
9.49895e-08
-3.11475e-06
-2.17722e-07
-3.04426e-06
-5.45292e-07
-2.94093e-06
-8.86796e-07
-2.80362e-06
-1.24002e-06
-2.63158e-06
-1.60112e-06
-2.42452e-06
-1.96558e-06
-2.1827e-06
-2.32781e-06
-1.90699e-06
-2.68245e-06
-1.59881e-06
-3.02301e-06
-1.26023e-06
-3.3449e-06
-8.93674e-07
-3.64135e-06
-5.02295e-07
-3.91054e-06
-8.9025e-08
-4.14573e-06
3.42244e-07
-4.34961e-06
7.88726e-07
-4.51529e-06
1.24624e-06
-4.65115e-06
1.71297e-06
-4.74568e-06
2.18442e-06
-4.82709e-06
2.66083e-06
-4.85354e-06
3.13565e-06
-4.90723e-06
3.61364e-06
-4.86179e-06
4.0834e-06
-4.92505e-06
4.55814e-06
-4.77381e-06
5.01479e-06
-4.91536e-06
5.4839e-06
-4.56376e-06
5.91708e-06
-4.92353e-06
6.38119e-06
-4.16684e-06
6.77667e-06
-5.03679e-06
7.248e-06
-3.54621e-06
7.59668e-06
-5.50723e-06
8.15621e-06
-3.59723e-06
-9.13003e-06
8.24131e-06
5.00538e-05
5.63641e-06
3.51931e-05
2.41052e-06
1.79761e-05
4.34557e-07
9.27594e-06
-3.52149e-07
1.78075e-06
-5.47607e-07
1.63923e-06
-5.99708e-07
7.7585e-07
-7.09617e-07
1.32579e-06
-8.08281e-07
1.60199e-06
-9.46762e-07
1.89515e-06
-1.09475e-06
2.13992e-06
-1.26107e-06
2.09231e-06
-1.42567e-06
1.93001e-06
-1.58381e-06
1.56604e-06
-1.72533e-06
1.26629e-06
-1.85274e-06
1.18891e-06
-1.97358e-06
1.52329e-06
-2.10161e-06
2.10798e-06
-2.24522e-06
2.56012e-06
-2.4006e-06
2.597e-06
-2.55357e-06
2.32773e-06
-2.6911e-06
1.9772e-06
-2.80675e-06
1.64362e-06
-2.89858e-06
1.33023e-06
-2.96574e-06
1.02683e-06
-3.0074e-06
7.21976e-07
-3.02246e-06
4.08668e-07
-3.00961e-06
8.21394e-08
-2.96732e-06
-2.60013e-07
-2.89401e-06
-6.18596e-07
-2.78827e-06
-9.92539e-07
-2.64895e-06
-1.37934e-06
-2.47531e-06
-1.77477e-06
-2.26706e-06
-2.17383e-06
-2.02446e-06
-2.57041e-06
-1.74839e-06
-2.95852e-06
-1.44028e-06
-3.33112e-06
-1.10222e-06
-3.68296e-06
-7.36644e-07
-4.00693e-06
-3.4671e-07
-4.30048e-06
6.46232e-08
-4.55706e-06
4.93503e-07
-4.77849e-06
9.37073e-07
-4.95886e-06
1.39125e-06
-5.10533e-06
1.85414e-06
-5.20857e-06
2.32135e-06
-5.2943e-06
2.79306e-06
-5.32525e-06
3.26293e-06
-5.3771e-06
3.73556e-06
-5.33442e-06
4.19985e-06
-5.38934e-06
4.6688e-06
-5.24275e-06
5.11964e-06
-5.3662e-06
5.58283e-06
-5.02696e-06
6.00995e-06
-5.35065e-06
6.46853e-06
-4.62542e-06
6.85742e-06
-5.42568e-06
7.32398e-06
-4.01277e-06
7.6646e-06
-5.84784e-06
8.21316e-06
-4.1458e-06
-9.48678e-06
8.53314e-06
5.15206e-05
6.20838e-06
3.75179e-05
3.0702e-06
2.11143e-05
8.67917e-07
1.14782e-05
-2.20979e-07
2.86965e-06
-5.13234e-07
1.93148e-06
-5.75618e-07
8.38235e-07
-6.83185e-07
1.43335e-06
-7.74544e-07
1.69335e-06
-9.0496e-07
2.02556e-06
-1.04463e-06
2.2796e-06
-1.20492e-06
2.2526e-06
-1.36659e-06
2.09168e-06
-1.52539e-06
1.72485e-06
-1.66958e-06
1.41048e-06
-1.7983e-06
1.31764e-06
-1.91511e-06
1.6401e-06
-2.03232e-06
2.22518e-06
-2.16112e-06
2.68892e-06
-2.30222e-06
2.7381e-06
-2.44377e-06
2.46928e-06
-2.57255e-06
2.10598e-06
-2.6812e-06
1.75227e-06
-2.76713e-06
1.41617e-06
-2.82915e-06
1.08884e-06
-2.86623e-06
7.59058e-07
-2.87722e-06
4.19649e-07
-2.86073e-06
6.56529e-08
-2.81522e-06
-3.0552e-07
-2.73912e-06
-6.947e-07
-2.631e-06
-1.10066e-06
-2.48972e-06
-1.52061e-06
-2.31453e-06
-1.94996e-06
-2.10517e-06
-2.3832e-06
-1.86188e-06
-2.81369e-06
-1.58556e-06
-3.23484e-06
-1.27765e-06
-3.63904e-06
-9.40238e-07
-4.02037e-06
-5.75795e-07
-4.37137e-06
-1.8747e-07
-4.6888e-06
2.21747e-07
-4.96628e-06
6.48037e-07
-5.20478e-06
1.08848e-06
-5.3993e-06
1.53909e-06
-5.55594e-06
1.99789e-06
-5.66737e-06
2.46059e-06
-5.757e-06
2.92731e-06
-5.79198e-06
3.39194e-06
-5.84173e-06
3.8589e-06
-5.80137e-06
4.31743e-06
-5.84787e-06
4.78024e-06
-5.70557e-06
5.22504e-06
-5.811e-06
5.68193e-06
-5.48385e-06
6.10285e-06
-5.77158e-06
6.55535e-06
-5.07791e-06
6.93779e-06
-5.80812e-06
7.39868e-06
-4.47366e-06
7.73174e-06
-6.18091e-06
8.26811e-06
-4.68217e-06
-9.81201e-06
8.7858e-06
5.27348e-05
6.737e-06
3.95667e-05
3.73617e-06
2.41151e-05
1.36201e-06
1.38524e-05
-6.53921e-09
4.23819e-06
-4.57346e-07
2.38229e-06
-5.44927e-07
9.25815e-07
-6.52377e-07
1.5408e-06
-7.37282e-07
1.77825e-06
-8.5997e-07
2.14825e-06
-9.91357e-07
2.41098e-06
-1.14535e-06
2.40659e-06
-1.30357e-06
2.24989e-06
-1.46233e-06
1.88361e-06
-1.60852e-06
1.55666e-06
-1.73822e-06
1.44734e-06
-1.85126e-06
1.75314e-06
-1.95839e-06
2.33231e-06
-2.07311e-06
2.80363e-06
-2.20022e-06
2.86521e-06
-2.33026e-06
2.59932e-06
-2.45005e-06
2.22577e-06
-2.55149e-06
1.85372e-06
-2.63137e-06
1.49605e-06
-2.68812e-06
1.14559e-06
-2.72054e-06
7.91477e-07
-2.72737e-06
4.26483e-07
-2.70721e-06
4.54852e-08
-2.65846e-06
-3.54266e-07
-2.57955e-06
-7.73605e-07
-2.46907e-06
-1.21115e-06
-2.32587e-06
-1.66381e-06
-2.1492e-06
-2.12663e-06
-1.93878e-06
-2.59361e-06
-1.69489e-06
-3.05758e-06
-1.41842e-06
-3.51131e-06
-1.11082e-06
-3.94665e-06
-7.74189e-07
-4.35699e-06
-4.11018e-07
-4.73454e-06
-2.44576e-08
-5.07536e-06
3.82472e-07
-5.37321e-06
8.05981e-07
-5.62829e-06
1.2431e-06
-5.83642e-06
1.68991e-06
-6.00275e-06
2.14437e-06
-6.12182e-06
2.60231e-06
-6.21494e-06
3.06377e-06
-6.25345e-06
3.52288e-06
-6.30084e-06
3.98388e-06
-6.26237e-06
4.43637e-06
-6.30036e-06
4.89274e-06
-6.16194e-06
5.33122e-06
-6.24948e-06
5.78147e-06
-5.93409e-06
6.19602e-06
-6.18613e-06
6.642e-06
-5.52389e-06
7.01799e-06
-6.18411e-06
7.4725e-06
-4.92817e-06
7.79827e-06
-6.50667e-06
8.32159e-06
-5.20549e-06
-1.01084e-05
9.00427e-06
5.37306e-05
7.22154e-06
4.13494e-05
4.39627e-06
2.69404e-05
1.90642e-06
1.63422e-05
2.38013e-07
5.9066e-06
-3.66461e-07
2.98676e-06
-5.04998e-07
1.06435e-06
-6.16368e-07
1.65217e-06
-6.96107e-07
1.85799e-06
-8.1159e-07
2.26373e-06
-9.3479e-07
2.53418e-06
-1.08227e-06
2.55407e-06
-1.23652e-06
2.40414e-06
-1.39457e-06
2.04166e-06
-1.54208e-06
1.70418e-06
-1.67243e-06
1.57769e-06
-1.78196e-06
1.86267e-06
-1.87977e-06
2.43012e-06
-1.98113e-06
2.905e-06
-2.09458e-06
2.97865e-06
-2.21303e-06
2.71778e-06
-2.32363e-06
2.33637e-06
-2.41766e-06
1.94775e-06
-2.4913e-06
1.5697e-06
-2.54265e-06
1.19693e-06
-2.5703e-06
8.1913e-07
-2.57291e-06
4.29093e-07
-2.54901e-06
2.15845e-08
-2.49699e-06
-4.06279e-07
-2.41528e-06
-8.55318e-07
-2.30245e-06
-1.32398e-06
-2.15735e-06
-1.80891e-06
-1.97924e-06
-2.30474e-06
-1.76784e-06
-2.80501e-06
-1.52342e-06
-3.302e-06
-1.24689e-06
-3.78784e-06
-9.39703e-07
-4.25384e-06
-6.03983e-07
-4.69271e-06
-2.42221e-07
-5.0963e-06
1.42422e-07
-5.46001e-06
5.46896e-07
-5.77768e-06
9.67434e-07
-6.04883e-06
1.40102e-06
-6.27001e-06
1.84381e-06
-6.44554e-06
2.2937e-06
-6.57172e-06
2.74663e-06
-6.66786e-06
3.20258e-06
-6.7094e-06
3.65589e-06
-6.75415e-06
4.11066e-06
-6.71714e-06
4.55682e-06
-6.74653e-06
5.00648e-06
-6.61159e-06
5.43838e-06
-6.68139e-06
5.88167e-06
-6.37738e-06
6.28965e-06
-6.59411e-06
6.72872e-06
-5.96296e-06
7.0982e-06
-6.55359e-06
7.54576e-06
-5.37573e-06
7.86429e-06
-6.8252e-06
8.37399e-06
-5.71519e-06
-1.03779e-05
9.19306e-06
5.45375e-05
7.66227e-06
4.28802e-05
5.04096e-06
2.95617e-05
2.49224e-06
1.88909e-05
5.75926e-07
7.82291e-06
-2.27939e-07
3.79063e-06
-4.51558e-07
1.28797e-06
-5.7385e-07
1.77446e-06
-6.50419e-07
1.93456e-06
-7.59482e-07
2.3728e-06
-8.74708e-07
2.64941e-06
-1.0155e-06
2.69487e-06
-1.16531e-06
2.55395e-06
-1.32196e-06
2.1983e-06
-1.47014e-06
1.85236e-06
-1.60081e-06
1.70836e-06
-1.70708e-06
1.96894e-06
-1.7963e-06
2.51934e-06
-1.88507e-06
2.99377e-06
-1.98519e-06
3.07877e-06
-2.09203e-06
2.82462e-06
-2.19325e-06
2.43758e-06
-2.27965e-06
2.03415e-06
-2.3469e-06
1.63694e-06
-2.3927e-06
1.24273e-06
-2.41547e-06
8.4191e-07
-2.41378e-06
4.27398e-07
-2.38609e-06
-6.10603e-09
-2.33078e-06
-4.61593e-07
-2.24624e-06
-9.39852e-07
-2.13106e-06
-1.43916e-06
-1.9841e-06
-1.95587e-06
-1.80459e-06
-2.48425e-06
-1.59226e-06
-3.01734e-06
-1.3474e-06
-3.54686e-06
-1.0709e-06
-4.06434e-06
-7.64234e-07
-4.5605e-06
-4.29542e-07
-5.02741e-06
-6.9328e-08
-5.45652e-06
3.13246e-07
-5.84258e-06
7.15097e-07
-6.17953e-06
1.13248e-06
-6.46621e-06
1.56234e-06
-6.69987e-06
2.00089e-06
-6.88409e-06
2.44598e-06
-7.01681e-06
2.89365e-06
-7.11553e-06
3.34384e-06
-7.15959e-06
3.79109e-06
-7.20141e-06
4.23935e-06
-7.16539e-06
4.67893e-06
-7.1861e-06
5.12158e-06
-7.05424e-06
5.54665e-06
-7.10646e-06
5.98269e-06
-6.81342e-06
6.38388e-06
-6.9953e-06
6.8157e-06
-6.39478e-06
7.17855e-06
-6.91644e-06
7.61868e-06
-5.81586e-06
7.92993e-06
-7.13645e-06
8.4256e-06
-6.21087e-06
-1.06225e-05
9.35626e-06
5.51813e-05
8.06032e-06
4.41761e-05
5.66263e-06
3.19594e-05
3.10909e-06
2.14445e-05
9.93739e-07
9.93826e-06
-3.90027e-08
4.82337e-06
-3.78346e-07
1.62731e-06
-5.22806e-07
1.91893e-06
-5.99349e-07
2.0111e-06
-7.03147e-07
2.4766e-06
-8.10781e-07
2.75704e-06
-9.44818e-07
2.82891e-06
-1.08975e-06
2.69888e-06
-1.24433e-06
2.35288e-06
-1.39252e-06
2.00055e-06
-1.52319e-06
1.83903e-06
-1.62644e-06
2.0722e-06
-1.70781e-06
2.60071e-06
-1.78474e-06
3.0707e-06
-1.87193e-06
3.16596e-06
-1.96717e-06
2.91985e-06
-2.05883e-06
2.52924e-06
-2.13742e-06
2.11275e-06
-2.19809e-06
1.6976e-06
-2.23821e-06
1.28285e-06
-2.256e-06
8.59707e-07
-2.24992e-06
4.21317e-07
-2.21838e-06
-3.76452e-08
-2.15973e-06
-5.20245e-07
-2.07236e-06
-1.02722e-06
-1.95484e-06
-1.55668e-06
-1.80603e-06
-2.10468e-06
-1.62517e-06
-2.66512e-06
-1.41198e-06
-3.23053e-06
-1.16674e-06
-3.7921e-06
-8.90368e-07
-4.34071e-06
-5.84336e-07
-4.86654e-06
-2.50796e-07
-5.36095e-06
1.07732e-07
-5.81504e-06
4.88082e-07
-6.22293e-06
8.87141e-07
-6.57859e-06
1.30118e-06
-6.88025e-06
1.72711e-06
-7.1258e-06
2.1612e-06
-7.31818e-06
2.60127e-06
-7.45688e-06
3.04345e-06
-7.5577e-06
3.48762e-06
-7.60376e-06
3.92856e-06
-7.64234e-06
4.37006e-06
-7.60689e-06
4.80277e-06
-7.61882e-06
5.23815e-06
-7.48962e-06
5.65614e-06
-7.52445e-06
6.08465e-06
-7.24193e-06
6.47881e-06
-7.38946e-06
6.90308e-06
-6.81905e-06
7.25912e-06
-7.27248e-06
7.6914e-06
-6.24814e-06
7.99526e-06
-7.4403e-06
8.47664e-06
-6.69226e-06
-1.08436e-05
9.49748e-06
5.56838e-05
8.41745e-06
4.52562e-05
6.25528e-06
3.41216e-05
3.74622e-06
2.39536e-05
1.4824e-06
1.22021e-05
2.3157e-07
6.0742e-06
-2.77131e-07
2.13602e-06
-4.60157e-07
2.10195e-06
-5.41653e-07
2.0926e-06
-6.41883e-07
2.57683e-06
-7.42558e-07
2.85772e-06
-8.69885e-07
2.95623e-06
-1.00957e-06
2.83857e-06
-1.16147e-06
2.50478e-06
-1.30903e-06
2.14811e-06
-1.43935e-06
1.96934e-06
-1.53982e-06
2.17266e-06
-1.61405e-06
2.67495e-06
-1.67991e-06
3.13656e-06
-1.7546e-06
3.24065e-06
-1.83829e-06
3.00354e-06
-1.92027e-06
2.61123e-06
-1.99087e-06
2.18334e-06
-2.04479e-06
1.75153e-06
-2.07909e-06
1.31714e-06
-2.0918e-06
8.72413e-07
-2.08124e-06
4.10766e-07
-2.0458e-06
-7.30923e-08
-1.98377e-06
-5.82272e-07
-1.89355e-06
-1.11744e-06
-1.7737e-06
-1.67653e-06
-1.62307e-06
-2.25531e-06
-1.44089e-06
-2.84729e-06
-1.2269e-06
-3.44452e-06
-9.81369e-07
-4.03763e-06
-7.0522e-07
-4.61686e-06
-3.99934e-07
-5.17182e-06
-6.76734e-08
-5.69321e-06
2.89026e-07
-6.17174e-06
6.66994e-07
-6.6009e-06
1.06309e-06
-6.97469e-06
1.47359e-06
-7.29075e-06
1.8954e-06
-7.5476e-06
2.32481e-06
-7.7476e-06
2.75963e-06
-7.8917e-06
3.19607e-06
-7.99414e-06
3.63399e-06
-8.04169e-06
4.06835e-06
-8.07671e-06
4.50283e-06
-8.04137e-06
4.92843e-06
-8.04441e-06
5.35628e-06
-7.91748e-06
5.76691e-06
-7.93508e-06
6.18764e-06
-7.66266e-06
6.57453e-06
-7.77635e-06
6.99095e-06
-7.23547e-06
7.34001e-06
-7.62154e-06
7.76408e-06
-6.67221e-06
8.06036e-06
-7.73658e-06
8.52727e-06
-7.15917e-06
-1.10425e-05
9.62e-06
5.60638e-05
8.73597e-06
4.61402e-05
6.81432e-06
3.60432e-05
4.39313e-06
2.63747e-05
2.02927e-06
1.45659e-05
5.63172e-07
7.5403e-06
-1.33771e-07
2.83296e-06
-3.81284e-07
2.34946e-06
-4.75576e-07
2.18689e-06
-5.74728e-07
2.67598e-06
-6.69432e-07
2.95242e-06
-7.90274e-07
3.07707e-06
-9.24451e-07
2.97275e-06
-1.07311e-06
2.65344e-06
-1.21941e-06
2.29442e-06
-1.34905e-06
2.09898e-06
-1.44693e-06
2.27055e-06
-1.51472e-06
2.74274e-06
-1.5703e-06
3.19214e-06
-1.63296e-06
3.30331e-06
-1.70522e-06
3.0758e-06
-1.77742e-06
2.68343e-06
-1.83986e-06
2.24579e-06
-1.88689e-06
1.79855e-06
-1.91523e-06
1.34548e-06
-1.92274e-06
8.79921e-07
-1.90764e-06
3.95664e-07
-1.86822e-06
-1.12505e-07
-1.80279e-06
-6.47707e-07
-1.70971e-06
-1.21053e-06
-1.58753e-06
-1.79871e-06
-1.4351e-06
-2.40774e-06
-1.25166e-06
-3.03073e-06
-1.03693e-06
-3.65925e-06
-7.91197e-07
-4.28336e-06
-5.15373e-07
-4.89269e-06
-2.10953e-07
-5.47624e-06
1.19895e-07
-6.02406e-06
4.74617e-07
-6.52647e-06
8.5004e-07
-6.97632e-06
1.24299e-06
-7.36764e-06
1.64977e-06
-7.69753e-06
2.06724e-06
-7.96508e-06
2.49176e-06
-8.17212e-06
2.9211e-06
-8.32104e-06
3.35156e-06
-8.42461e-06
3.78299e-06
-8.47311e-06
4.21053e-06
-8.50424e-06
4.63773e-06
-8.46858e-06
5.05594e-06
-8.46262e-06
5.47601e-06
-8.33755e-06
5.87903e-06
-8.3381e-06
6.29171e-06
-8.07534e-06
6.6711e-06
-8.15574e-06
7.0794e-06
-7.64377e-06
7.42126e-06
-7.9634e-06
7.83679e-06
-7.08774e-06
8.1253e-06
-8.0251e-06
8.57762e-06
-7.61148e-06
-1.12203e-05
9.72668e-06
5.63371e-05
9.01854e-06
4.68483e-05
7.33642e-06
3.77254e-05
5.03998e-06
2.86712e-05
2.62239e-06
1.69835e-05
9.58598e-07
9.20409e-06
6.14346e-08
3.73012e-06
-2.79622e-07
2.69052e-06
-3.98649e-07
2.30592e-06
-5.00377e-07
2.7777e-06
-5.90605e-07
3.04265e-06
-7.05429e-07
3.1919e-06
-8.3397e-07
3.10129e-06
-9.78893e-07
2.79836e-06
-1.12337e-06
2.43889e-06
-1.25198e-06
2.22759e-06
-1.34746e-06
2.36602e-06
-1.40948e-06
2.80476e-06
-1.45556e-06
3.23823e-06
-1.50673e-06
3.35448e-06
-1.56771e-06
3.13678e-06
-1.63008e-06
2.7458e-06
-1.68423e-06
2.29994e-06
-1.72422e-06
1.83854e-06
-1.74649e-06
1.36775e-06
-1.7487e-06
8.82132e-07
-1.72897e-06
3.75936e-07
-1.68554e-06
-1.55936e-07
-1.61666e-06
-7.16583e-07
-1.5207e-06
-1.30648e-06
-1.39621e-06
-1.9232e-06
-1.24203e-06
-2.56192e-06
-1.05738e-06
-3.21539e-06
-8.41983e-07
-3.87464e-06
-5.9613e-07
-4.52922e-06
-3.2074e-07
-5.16808e-06
-1.73102e-08
-5.77967e-06
3.11984e-07
-6.35335e-06
6.64573e-07
-6.87905e-06
1.03728e-06
-7.34903e-06
1.4269e-06
-7.75726e-06
1.82975e-06
-8.10038e-06
2.24268e-06
-8.37801e-06
2.66208e-06
-8.59151e-06
3.08571e-06
-8.74467e-06
3.50996e-06
-8.84886e-06
3.93465e-06
-8.8978e-06
4.35511e-06
-8.9247e-06
4.77479e-06
-8.88826e-06
5.18536e-06
-8.87319e-06
5.5974e-06
-8.74958e-06
5.99255e-06
-8.73325e-06
6.39693e-06
-8.47972e-06
6.76857e-06
-8.52737e-06
7.16849e-06
-8.04369e-06
7.50292e-06
-8.29784e-06
7.90961e-06
-7.49443e-06
8.19015e-06
-8.30563e-06
8.62781e-06
-8.04914e-06
-1.1378e-05
9.82005e-06
5.6517e-05
9.2681e-06
4.74003e-05
7.81947e-06
3.9174e-05
5.67779e-06
3.08129e-05
3.25081e-06
1.94105e-05
1.41639e-06
1.10385e-05
3.08196e-07
4.83832e-06
-1.46824e-07
3.14554e-06
-3.07426e-07
2.46652e-06
-4.17065e-07
2.88734e-06
-5.05035e-07
3.13062e-06
-6.14636e-07
3.3015e-06
-7.37607e-07
3.22426e-06
-8.78421e-07
2.93917e-06
-1.02054e-06
2.58101e-06
-1.1478e-06
2.35485e-06
-1.24103e-06
2.45925e-06
-1.29793e-06
2.86166e-06
-1.33532e-06
3.27562e-06
-1.37555e-06
3.39471e-06
-1.42548e-06
3.18671e-06
-1.47801e-06
2.79833e-06
-1.52378e-06
2.34571e-06
-1.5566e-06
1.87136e-06
-1.57268e-06
1.38383e-06
-1.56951e-06
8.78954e-07
-1.54508e-06
3.51511e-07
-1.49758e-06
-2.03433e-07
-1.42524e-06
-7.88924e-07
-1.32641e-06
-1.40532e-06
-1.19962e-06
-2.04999e-06
-1.04371e-06
-2.71783e-06
-8.57909e-07
-3.40119e-06
-6.41933e-07
-4.09062e-06
-3.96063e-07
-4.77509e-06
-1.21224e-07
-5.44292e-06
1.81081e-07
-6.08198e-06
5.08672e-07
-6.68094e-06
8.58963e-07
-7.22935e-06