/*--------------------------------*- C++ -*----------------------------------*\
| =========                 |                                                 |
| \\      /  F ield         | OpenFOAM: The Open Source CFD Toolbox           |
|  \\    /   O peration     | Version:  2.4.0                                 |
|   \\  /    A nd           | Web:      www.OpenFOAM.org                      |
|    \\/     M anipulation  |                                                 |
\*---------------------------------------------------------------------------*/
FoamFile
{
    version     2.0;
    format      ascii;
    class       volScalarField;
    location    "40";
    object      p;
}
// * * * * * * * * * * * * * * * * * * * * * * * * * * * * * * * * * * * * * //

dimensions      [0 2 -2 0 0 0 0];

internalField   nonuniform List<scalar> 
400
(
0.33672
0.287634
0.239836
0.203988
0.180403
0.163882
0.149843
0.13629
0.122958
0.110058
0.0977411
0.0859764
0.0746992
0.0638098
0.0532763
0.0430309
0.0330767
0.0233475
0.0138691
0.00454096
0.335769
0.2876
0.239921
0.204063
0.180452
0.163914
0.149863
0.136303
0.122966
0.110064
0.0977469
0.0859814
0.0747037
0.0638136
0.0532797
0.0430339
0.0330795
0.0233499
0.0138715
0.00454302
0.334866
0.287643
0.240087
0.204188
0.180527
0.16396
0.149892
0.136319
0.122976
0.110072
0.0977531
0.0859869
0.0747085
0.0638177
0.0532833
0.0430369
0.0330824
0.0233523
0.0138736
0.00454479
0.334122
0.287736
0.240281
0.204327
0.180613
0.164015
0.149927
0.13634
0.122989
0.110081
0.0977609
0.0859936
0.0747143
0.0638225
0.0532876
0.0430404
0.0330856
0.0233551
0.0138759
0.00454676
0.333504
0.287829
0.240454
0.204448
0.180689
0.164067
0.149962
0.136362
0.123004
0.110091
0.0977699
0.0860014
0.0747213
0.0638284
0.0532927
0.0430446
0.0330896
0.0233584
0.0138788
0.00454938
0.332993
0.287904
0.240596
0.204545
0.180752
0.164111
0.149992
0.136382
0.123016
0.110101
0.0977787
0.0860092
0.0747284
0.0638343
0.0532982
0.0430491
0.033094
0.0233621
0.013882
0.00455233
0.332584
0.287961
0.240706
0.20462
0.180802
0.164146
0.150017
0.136398
0.123027
0.11011
0.0977862
0.086016
0.0747346
0.0638396
0.0533031
0.0430532
0.033098
0.0233654
0.0138851
0.00455503
0.332278
0.288002
0.240789
0.204677
0.180839
0.164173
0.150036
0.13641
0.123035
0.110116
0.097792
0.0860212
0.0747394
0.0638437
0.0533069
0.0430564
0.0331012
0.0233681
0.0138876
0.00455715
0.332073
0.288029
0.240844
0.204714
0.180865
0.164191
0.150048
0.136418
0.123041
0.11012
0.0977959
0.0860246
0.0747427
0.0638465
0.0533096
0.0430586
0.0331033
0.02337
0.0138893
0.00455857
0.331971
0.288043
0.240872
0.204734
0.180877
0.1642
0.150055
0.136422
0.123043
0.110122
0.0977979
0.0860264
0.0747443
0.0638479
0.0533109
0.0430597
0.0331044
0.0233709
0.0138902
0.00455928
0.331971
0.288043
0.240872
0.204734
0.180877
0.1642
0.150055
0.136422
0.123043
0.110122
0.0977979
0.0860264
0.0747443
0.0638479
0.0533109
0.0430597
0.0331044
0.0233709
0.0138902
0.00455927
0.332073
0.288029
0.240844
0.204714
0.180865
0.164191
0.150048
0.136418
0.123041
0.11012
0.0977959
0.0860246
0.0747427
0.0638465
0.0533096
0.0430586
0.0331033
0.02337
0.0138893
0.00455855
0.332278
0.288002
0.240789
0.204677
0.180839
0.164173
0.150036
0.13641
0.123035
0.110116
0.097792
0.0860212
0.0747394
0.0638437
0.0533069
0.0430564
0.0331012
0.0233681
0.0138876
0.00455712
0.332584
0.287961
0.240706
0.20462
0.180802
0.164146
0.150017
0.136398
0.123027
0.11011
0.0977862
0.086016
0.0747346
0.0638396
0.0533031
0.0430532
0.033098
0.0233654
0.0138851
0.00455501
0.332993
0.287904
0.240596
0.204545
0.180752
0.164111
0.149992
0.136382
0.123016
0.110101
0.0977787
0.0860092
0.0747284
0.0638343
0.0532982
0.0430491
0.033094
0.023362
0.0138821
0.00455231
0.333504
0.287829
0.240454
0.204448
0.180689
0.164067
0.149962
0.136362
0.123004
0.110091
0.0977699
0.0860014
0.0747213
0.0638284
0.0532927
0.0430446
0.0330896
0.0233584
0.0138788
0.00454937
0.334122
0.287736
0.240281
0.204327
0.180613
0.164015
0.149927
0.13634
0.122989
0.110081
0.0977609
0.0859936
0.0747143
0.0638225
0.0532876
0.0430404
0.0330856
0.023355
0.013876
0.00454675
0.334866
0.287643
0.240087
0.204188
0.180527
0.16396
0.149892
0.136319
0.122976
0.110072
0.0977531
0.0859869
0.0747085
0.0638177
0.0532833
0.0430369
0.0330824
0.0233523
0.0138736
0.00454479
0.335769
0.2876
0.239921
0.204063
0.180452
0.163914
0.149863
0.136303
0.122966
0.110064
0.0977469
0.0859814
0.0747037
0.0638136
0.0532797
0.0430339
0.0330795
0.0233499
0.0138715
0.00454302
0.33672
0.287634
0.239836
0.203988
0.180403
0.163882
0.149842
0.13629
0.122958
0.110058
0.0977411
0.0859764
0.0746992
0.0638098
0.0532763
0.0430309
0.0330767
0.0233475
0.0138691
0.00454095
)
;

boundaryField
{
    inlet
    {
        type            zeroGradient;
    }
    outlet
    {
        type            fixedValue;
        value           uniform 0;
    }
    fixedWalls
    {
        type            zeroGradient;
    }
    frontAndBack
    {
        type            empty;
    }
}


// ************************************************************************* //
