/*--------------------------------*- C++ -*----------------------------------*\
| =========                 |                                                 |
| \\      /  F ield         | OpenFOAM: The Open Source CFD Toolbox           |
|  \\    /   O peration     | Version:  2.4.0                                 |
|   \\  /    A nd           | Web:      www.OpenFOAM.org                      |
|    \\/     M anipulation  |                                                 |
\*---------------------------------------------------------------------------*/
FoamFile
{
    version     2.0;
    format      ascii;
    class       volVectorField;
    location    "0.53";
    object      U;
}
// * * * * * * * * * * * * * * * * * * * * * * * * * * * * * * * * * * * * * //

dimensions      [0 1 -1 0 0 0 0];

internalField   nonuniform List<vector> 
6000
(
(0.16525 -0.0067496 1.09318e-18)
(-0.0092008 0.0017314 0)
(0.00114738 -0.000306303 6.99816e-18)
(-0.00628696 0.00120536 0)
(-0.00442715 0.000885406 0)
(-0.00792244 0.00161159 0)
(-0.0154322 0.00306625 3.77346e-18)
(-0.0262573 0.00475393 1.06254e-21)
(-0.0324172 0.00538984 0)
(-0.0315309 0.0048015 0)
(-0.0250591 0.00343333 4.80905e-18)
(-0.0169964 0.00206656 -1.02416e-17)
(-0.0095487 0.000967645 0)
(-0.00348988 0.000162276 0)
(0.00150964 -0.000437513 -2.80833e-18)
(0.00583348 -0.000891324 0)
(0.00967837 -0.00122939 0)
(0.0130449 -0.00145658 -2.89483e-18)
(0.0158706 -0.00157912 -2.90472e-18)
(0.0181545 -0.00161419 0)
(0.0199827 -0.0015845 2.90526e-18)
(0.021475 -0.00150925 1.45013e-18)
(0.0227319 -0.00140089 -1.44673e-18)
(0.0238181 -0.00126681 0)
(0.0247735 -0.00111191 0)
(0.0256255 -0.000939911 0)
(0.0263964 -0.000753686 7.1573e-19)
(0.0271046 -0.00055537 -7.14064e-19)
(0.0277655 -0.000346469 0)
(0.0283914 -0.000127987 0)
(0.0289924 9.94561e-05 8.87938e-20)
(0.029577 0.000335546 0)
(0.0301525 0.000580203 7.09079e-19)
(0.0307258 0.00083354 -7.08803e-19)
(0.0313028 0.00109584 0)
(0.0318894 0.00136753 0)
(0.0324915 0.00164922 1.41847e-18)
(0.0331148 0.00194168 0)
(0.0337654 0.0022459 1.42044e-18)
(0.0344499 0.00256306 0)
(0.0351753 0.0028946 0)
(0.0359495 0.00324226 2.84657e-18)
(0.036781 0.00360741 -5.69358e-18)
(0.0376805 0.00399145 0)
(0.0386577 0.00439842 0)
(0.0397292 0.00483198 2.83504e-18)
(0.0409027 0.00529581 0)
(0.0422129 0.00579604 0)
(0.0436457 0.00633602 -5.56137e-18)
(0.045303 0.00692965 -5.4937e-18)
(0.0470557 0.00757091 -5.39711e-18)
(0.0492766 0.00830571 -2.40676e-21)
(0.0513271 0.00907083 5.0913e-18)
(0.0546603 0.0100544 0)
(0.0565813 0.0109147 -3.76713e-21)
(0.0626437 0.0124528 -4.23345e-18)
(0.0625651 0.0131393 3.57253e-18)
(0.0761761 0.0161829 3.22794e-18)
(0.0689535 0.0157603 5.709e-21)
(0.0999901 0.0223533 0)
(0.360596 -0.0165605 -1.56764e-18)
(0.00457002 0.0061344 4.15098e-18)
(0.0066241 -0.00112484 -4.1955e-18)
(-0.0137154 0.00310891 -4.48756e-18)
(-0.0112558 0.00247994 0)
(-0.0221706 0.00504453 0)
(-0.0417992 0.0092358 -4.2815e-18)
(-0.0662474 0.013139 8.57843e-18)
(-0.0773996 0.0136348 0)
(-0.0719849 0.0110761 0)
(-0.0545082 0.00712504 -5.30731e-18)
(-0.033955 0.00354571 5.63141e-18)
(-0.0149499 0.000803178 2.92926e-18)
(0.000861234 -0.00117559 0)
(0.0140099 -0.00263141 3.05421e-18)
(0.0252267 -0.00370582 0)
(0.0349409 -0.00445779 0)
(0.0431764 -0.00489713 0)
(0.0498984 -0.00505682 0)
(0.0552373 -0.00500201 0)
(0.0594797 -0.00480193 -2.68957e-22)
(0.062935 -0.00450534 0)
(0.065837 -0.00413863 -1.5394e-18)
(0.0683331 -0.00371598 0)
(0.070516 -0.00324735 0)
(0.0724536 -0.00274102 7.61049e-19)
(0.0742006 -0.00220356 -7.58577e-19)
(0.0758026 -0.00163968 1.44735e-23)
(0.0772964 -0.00105257 3.77259e-19)
(0.0787118 -0.000444281 0)
(0.0800733 0.000183986 -9.39874e-20)
(0.0814015 0.000831676 -3.75559e-19)
(0.0827143 0.00149876 -2.61908e-23)
(0.0840282 0.00218567 7.50728e-19)
(0.0853581 0.00289323 -7.51016e-19)
(0.0867185 0.00362269 0)
(0.0881237 0.00437568 0)
(0.0895884 0.00515425 0)
(0.0911277 0.00596097 0)
(0.092758 0.00679891 0)
(0.0944972 0.00767177 -3.03459e-18)
(0.0963652 0.00858402 0)
(0.0983836 0.0095402 3.04871e-18)
(0.100579 0.0105458 3.05375e-18)
(0.102978 0.0116094 0)
(0.105621 0.0127406 0)
(0.10853 0.0139491 0)
(0.111788 0.015251 0)
(0.115376 0.016655 6.0722e-18)
(0.119516 0.0181974 0)
(0.12396 0.0198632 0)
(0.129494 0.0217686 -5.8462e-18)
(0.134826 0.0237594 -5.68768e-18)
(0.14299 0.0262955 0)
(0.148433 0.0285632 -1.03262e-17)
(0.162781 0.032463 0)
(0.164566 0.0344148 -8.27344e-18)
(0.195636 0.0418874 -3.7573e-18)
(0.183033 0.0415095 1.99921e-18)
(0.253204 0.0567433 2.17013e-18)
(0.501247 -0.0115647 -1.74145e-19)
(0.0438064 0.008433 -4.1151e-18)
(0.0162671 -0.00173332 0)
(-0.0165242 0.00436834 4.49393e-18)
(-0.0160093 0.00392916 0)
(-0.0346311 0.00876482 0)
(-0.0644137 0.0154739 0)
(-0.0978058 0.0203584 -4.29476e-18)
(-0.10987 0.0192445 0)
(-0.0982514 0.0138466 -4.91003e-18)
(-0.0705407 0.00735101 0)
(-0.0393311 0.00200531 0)
(-0.010719 -0.00183791 -2.9275e-18)
(0.0132117 -0.00451529 0)
(0.0332558 -0.00645097 0)
(0.0503747 -0.00784683 0)
(0.0650435 -0.00874491 0)
(0.0772781 -0.00915206 0)
(0.087111 -0.00914009 0)
(0.0948392 -0.00883252 3.10588e-18)
(0.10095 -0.00834334 -3.09803e-18)
(0.105915 -0.00774077 0)
(0.110073 -0.0070546 7.8364e-23)
(0.113635 -0.0062988 -1.53178e-18)
(0.116734 -0.00548466 0)
(0.119473 -0.00462286 -1.52057e-18)
(0.121934 -0.00372204 0)
(0.124185 -0.00278817 7.55647e-19)
(0.126283 -0.00182503 -3.76903e-19)
(0.12827 -0.000834933 0)
(0.130184 0.000180844 0)
(0.132055 0.00122181 3.75234e-19)
(0.133911 0.00228817 -3.6187e-23)
(0.135775 0.00338075 0)
(0.137671 0.00450097 1.50088e-18)
(0.13962 0.00565081 0)
(0.141644 0.00683286 1.5042e-18)
(0.143766 0.00805033 0)
(0.146007 0.00930714 0)
(0.148393 0.010608 0)
(0.150951 0.0119585 3.03383e-18)
(0.153712 0.0133655 0)
(0.156709 0.014837 0)
(0.159983 0.016383 -3.0542e-18)
(0.163573 0.0180146 0)
(0.167542 0.0197464 0)
(0.17193 0.0215932 3.05796e-18)
(0.176851 0.0235791 -3.05105e-18)
(0.182299 0.0257188 -3.03693e-18)
(0.188576 0.0280639 0)
(0.195384 0.0306004 0)
(0.203761 0.0334854 0)
(0.212069 0.0365281 5.69203e-18)
(0.22429 0.0403333 5.49593e-18)
(0.233222 0.043862 5.17903e-18)
(0.254176 0.0495917 0)
(0.258955 0.052905 4.15292e-18)
(0.303112 0.0634879 7.5506e-18)
(0.28963 0.064177 0)
(0.389132 0.08462 -2.19004e-18)
(0.605553 -5.33097e-05 -1.44872e-19)
(0.100423 0.010117 3.99224e-18)
(0.0312449 -0.0019188 -4.18391e-18)
(-0.014682 0.00516834 0)
(-0.0183308 0.00525771 0)
(-0.0444646 0.0125739 0)
(-0.0821443 0.0213832 0)
(-0.120435 0.0261619 0)
(-0.130539 0.0224787 0)
(-0.112212 0.0138986 4.91393e-18)
(-0.0757202 0.00500746 5.28963e-18)
(-0.035915 -0.00168308 0)
(0.000357573 -0.00618249 0)
(0.0309262 -0.00919993 0)
(0.056787 -0.0113496 3.0317e-18)
(0.0789434 -0.0128464 0)
(0.0978063 -0.0136916 3.08482e-18)
(0.113351 -0.0138878 -3.09699e-18)
(0.125676 -0.0135546 0)
(0.135249 -0.0128798 -3.09794e-18)
(0.142752 -0.0120202 0)
(0.148812 -0.0110559 -1.53974e-18)
(0.153859 -0.0100126 3.06803e-18)
(0.158155 -0.00889904 1.52815e-18)
(0.161871 -0.00772524 0)
(0.165134 -0.0065028 7.58507e-19)
(0.168053 -0.00524126 0)
(0.170716 -0.00394678 7.53865e-19)
(0.173194 -0.00262288 0)
(0.175543 -0.00127139 0)
(0.177811 0.000106907 0)
(0.180036 0.00151207 3.74377e-19)
(0.182253 0.0029449 -1.49686e-18)
(0.184493 0.00440695 0)
(0.186785 0.0059004 -7.48858e-19)
(0.189157 0.00742814 0)
(0.191635 0.00899376 -1.50121e-18)
(0.19425 0.0106016 0)
(0.197029 0.012257 0)
(0.200004 0.013966 0)
(0.203211 0.0157362 3.02763e-18)
(0.206689 0.0175762 0)
(0.21048 0.0194965 3.04213e-18)
(0.214637 0.0215097 -3.04833e-18)
(0.219214 0.02363 0)
(0.224286 0.0258758 -3.05505e-18)
(0.229912 0.028266 -6.10807e-18)
(0.236232 0.0308315 3.04814e-18)
(0.243257 0.0335919 6.06765e-18)
(0.251338 0.0366095 -6.0205e-18)
(0.260179 0.0398747 -5.94749e-18)
(0.270946 0.0435713 0)
(0.281885 0.047493 -5.693e-18)
(0.297426 0.0523308 -5.49896e-18)
(0.309684 0.0569294 -5.16825e-18)
(0.335717 0.0640918 0)
(0.344225 0.0686548 0)
(0.397595 0.0814564 -3.77735e-18)
(0.386709 0.083511 0)
(0.506672 0.106859 2.14218e-18)
(0.684757 0.0139371 -1.26295e-19)
(0.167108 0.0119947 -3.18291e-20)
(0.0525826 -0.00158555 4.15885e-18)
(-0.00815806 0.00564563 4.48457e-18)
(-0.0178907 0.00648132 0)
(-0.0510176 0.0162631 -4.43697e-18)
(-0.0943301 0.0266379 0)
(-0.134346 0.0304268 0)
(-0.140828 0.0235847 0)
(-0.116208 0.0117657 4.89097e-18)
(-0.0727075 0.000765202 -5.27867e-18)
(-0.0263425 -0.00687206 0)
(0.0158148 -0.0116781 0)
(0.0517207 -0.014772 0)
(0.0824244 -0.0169368 -3.01858e-18)
(0.10886 -0.0183657 0)
(0.13131 -0.0190069 -3.07264e-18)
(0.149655 -0.0188578 3.0853e-18)
(0.164018 -0.0180918 0)
(0.17501 -0.0169662 0)
(0.183506 -0.0156795 1.53964e-18)
(0.190291 -0.0143182 1.53472e-18)
(0.195893 -0.0128978 -3.05802e-18)
(0.200624 -0.0114176 -1.52316e-18)
(0.20468 -0.00988418 0)
(0.208216 -0.00830879 7.56101e-19)
(0.21136 -0.00670094 0)
(0.214218 -0.00506611 -7.51611e-19)
(0.216875 -0.00340668 3.74883e-19)
(0.2194 -0.0017234 0)
(0.221846 -1.59846e-05 0)
(0.22426 0.00171658 -7.46584e-19)
(0.226683 0.00347607 7.46293e-19)
(0.229151 0.00526496 0)
(0.231698 0.00708643 -7.46661e-19)
(0.234357 0.00894436 0)
(0.237158 0.0108434 1.49687e-18)
(0.240135 0.012789 0)
(0.243323 0.0147877 0)
(0.246758 0.0168469 0)
(0.250481 0.0189756 -3.02018e-18)
(0.254538 0.0211842 -3.02714e-18)
(0.258979 0.0234849 -3.03504e-18)
(0.263867 0.0258924 7.86958e-22)
(0.269264 0.0284235 -3.04537e-18)
(0.27526 0.0310998 3.0486e-18)
(0.281928 0.0339436 6.09349e-18)
(0.289425 0.0369905 0)
(0.297786 0.0402643 -3.02765e-18)
(0.307387 0.043836 6.01053e-18)
(0.317963 0.0476997 5.93861e-18)
(0.330727 0.0520576 0)
(0.343956 0.0566988 0)
(0.362197 0.0623634 0)
(0.377509 0.0678506 5.1651e-18)
(0.407405 0.0761104 0)
(0.419918 0.0817789 0)
(0.479549 0.0960992 3.74773e-18)
(0.473344 0.0995915 -1.96369e-18)
(0.606822 0.124261 -2.14329e-18)
(0.746106 0.0285454 -1.13292e-19)
(0.238328 0.0145728 -3.82364e-18)
(0.0807801 -0.000727741 0)
(0.00313228 0.00596436 -4.47376e-18)
(-0.014413 0.00761029 -4.49421e-18)
(-0.0538317 0.0196663 -1.7575e-21)
(-0.100719 0.0310416 0)
(-0.140205 0.0331784 0)
(-0.142419 0.0228909 0)
(-0.11252 0.00797074 -4.88064e-18)
(-0.0638701 -0.00480404 0)
(-0.0128324 -0.0130446 0)
(0.0336491 -0.0178932 2.88282e-18)
(0.0737093 -0.0208737 0)
(0.108338 -0.0229052 0)
(0.138375 -0.0241437 0)
(0.163933 -0.0244725 0)
(0.184728 -0.0238805 -3.07024e-18)
(0.200825 -0.0225985 0)
(0.212929 -0.0209595 3.07376e-18)
(0.222099 -0.0192057 -1.53364e-18)
(0.229298 -0.0174272 -1.52867e-18)
(0.235165 -0.0156234 3.04651e-18)
(0.240065 -0.0137801 3.03522e-18)
(0.244224 -0.011898 0)
(0.247814 -0.00998718 -7.53475e-19)
(0.250982 -0.00805628 0)
(0.25385 -0.00610931 0)
(0.256517 -0.0041468 -7.47241e-19)
(0.259059 -0.00216772 0)
(0.261539 -0.00017028 0)
(0.264008 0.00184792 7.44126e-19)
(0.266513 0.00388991 0)
(0.269093 0.00595935 0)
(0.271786 0.00806057 7.44363e-19)
(0.274627 0.0101986 0)
(0.277652 0.0123792 -1.49238e-18)
(0.280897 0.0146089 0)
(0.284399 0.0168954 0)
(0.288199 0.0192473 0)
(0.292342 0.0216749 0)
(0.29688 0.02419 3.01879e-18)
(0.301868 0.0268063 3.02537e-18)
(0.307373 0.0295399 8.6232e-22)
(0.31347 0.0324101 3.03737e-18)
(0.320255 0.0354407 3.03867e-18)
(0.327814 0.0386567 -3.03852e-18)
(0.336319 0.0420968 0)
(0.345822 0.0457884 -3.01753e-18)
(0.356716 0.0498091 2.99507e-18)
(0.368778 0.054156 -5.91812e-18)
(0.38322 0.0590427 0)
(0.398428 0.0642625 0)
(0.418877 0.0705754 -5.46639e-18)
(0.436918 0.0767835 -5.14309e-18)
(0.469773 0.085865 4.82125e-18)
(0.486214 0.0924779 4.11477e-18)
(0.550044 0.107786 -3.74616e-18)
(0.549424 0.112635 1.96326e-18)
(0.691426 0.137596 0)
(0.794363 0.0429761 -1.02556e-19)
(0.310196 0.0180734 0)
(0.115693 0.000661167 4.08863e-18)
(0.0193244 0.00626686 4.45551e-18)
(-0.00769102 0.00866297 -1.65781e-21)
(-0.0526387 0.0226678 4.4176e-18)
(-0.101384 0.0345078 0)
(-0.138918 0.0345391 0)
(-0.136975 0.0207468 0)
(-0.103125 0.00297758 2.42112e-18)
(-0.0511147 -0.0112424 2.6052e-18)
(0.00292511 -0.0198113 0)
(0.0523655 -0.0245062 -2.86407e-18)
(0.0954531 -0.0272333 2.93318e-18)
(0.133116 -0.0290238 0)
(0.166122 -0.0299891 0)
(0.194395 -0.0299348 0)
(0.21741 -0.0288323 6.75059e-22)
(0.235067 -0.0269715 0)
(0.248089 -0.0247693 -6.11974e-18)
(0.257701 -0.0225187 1.5268e-18)
(0.265063 -0.0203123 1.52242e-18)
(0.270954 -0.0181288 -1.67586e-22)
(0.275805 -0.0159351 -1.51169e-18)
(0.279869 -0.0137234 0)
(0.283334 -0.0115015 0)
(0.286363 -0.00927682 0)
(0.289092 -0.00705109 3.73107e-19)
(0.291632 -0.00482237 7.44548e-19)
(0.294068 -0.00258726 0)
(0.296469 -0.000341937 0)
(0.298891 0.00191771 -7.41538e-19)
(0.301383 0.00419623 -3.70607e-19)
(0.303989 0.00649873 0)
(0.306747 0.00883084 0)
(0.309697 0.0111988 0)
(0.312876 0.0136096 0)
(0.316321 0.0160709 0)
(0.320072 0.0185915 0)
(0.324174 0.0211811 0)
(0.328673 0.0238512 0)
(0.333624 0.0266149 0)
(0.339087 0.0294865 -8.4994e-22)
(0.345135 0.0324841 3.02283e-18)
(0.351845 0.0356284 0)
(0.359324 0.0389448 -6.05891e-18)
(0.367667 0.0424604 -3.02758e-18)
(0.377051 0.046216 0)
(0.387552 0.0502422 3.0096e-18)
(0.399564 0.0546199 -2.9875e-18)
(0.412913 0.0593507 5.90384e-18)
(0.428785 0.0646528 -5.79849e-18)
(0.445703 0.0703293 0)
(0.467984 0.0771395 6.76701e-21)
(0.488422 0.08392 5.13444e-18)
(0.523589 0.0935988 -9.61882e-18)
(0.543664 0.100992 -1.02805e-20)
(0.610333 0.116894 -3.7111e-18)
(0.615393 0.122927 1.93518e-18)
(0.762535 0.147536 2.07481e-18)
(0.832721 0.0567965 2.91707e-18)
(0.380125 0.0225214 0)
(0.156608 0.00260383 2.61962e-21)
(0.0405239 0.0066765 -9.79315e-23)
(0.00245395 0.00966437 4.47209e-18)
(-0.0473391 0.0252001 4.40761e-18)
(-0.0966247 0.0370319 0)
(-0.131471 0.0346898 4.23223e-18)
(-0.125977 0.017497 0)
(-0.0895923 -0.00281885 -2.40966e-18)
(-0.0358241 -0.0181936 -4.11582e-21)
(0.0197934 -0.0268827 -2.73608e-18)
(0.0709655 -0.0312806 0)
(0.115992 -0.0336467 -5.82705e-18)
(0.155806 -0.0351222 0)
(0.191158 -0.0357671 0)
(0.221791 -0.0352916 0)
(0.246866 -0.0336358 3.03792e-18)
(0.266006 -0.0311485 0)
(0.279853 -0.0283414 3.04534e-18)
(0.289761 -0.0255692 -3.03986e-18)
(0.297104 -0.0229299 0)
(0.30283 -0.0203767 -1.99357e-22)
(0.307459 -0.0178516 0)
(0.311275 -0.015335 0)
(0.314477 -0.0128308 -7.47625e-19)
(0.317242 -0.0103449 0)
(0.31972 -0.00787638 -7.43465e-19)
(0.322032 -0.00542026 -3.70929e-19)
(0.324272 -0.00297012 -9.25532e-20)
(0.326512 -0.000519717 9.24317e-20)
(0.328812 0.00193712 3.6948e-19)
(0.331226 0.00440673 7.38654e-19)
(0.333797 0.0068958 0)
(0.336566 0.0094114 7.39156e-19)
(0.339574 0.0119611 0)
(0.342859 0.0145532 0)
(0.346459 0.0171964 0)
(0.350417 0.0199007 1.48799e-18)
(0.354777 0.0226768 0)
(0.359589 0.0255373 0)
(0.364909 0.028496 2.99826e-18)
(0.3708 0.0315682 -3.00624e-18)
(0.377337 0.0347739 0)
(0.384603 0.0381342 0)
(0.392709 0.0416758 3.01973e-18)
(0.401757 0.0454272 3.01859e-18)
(0.41193 0.0494311 -3.01105e-18)
(0.42332 0.0537197 0)
(0.436321 0.0583761 0)
(0.450801 0.0634059 0)
(0.467915 0.0690278 4.99082e-21)
(0.48632 0.0750573 0)
(0.510151 0.0822401 5.43738e-18)
(0.532675 0.0894641 0)
(0.569699 0.0995616 4.79646e-18)
(0.593016 0.107577 -4.09286e-18)
(0.661662 0.123789 7.39736e-18)
(0.672024 0.130789 -1.9328e-18)
(0.822104 0.154677 -2.07134e-18)
(0.863409 0.0697469 8.60991e-20)
(0.446474 0.0278155 -3.51657e-18)
(0.202424 0.00512673 -3.98771e-18)
(0.0667189 0.00730418 -6.2666e-23)
(0.0162025 0.0106397 -4.45855e-18)
(-0.0379671 0.0272403 -4.39325e-18)
(-0.0868814 0.0386669 0)
(-0.118822 0.0338355 -4.22227e-18)
(-0.110645 0.0134508 0)
(-0.0730549 -0.00910788 -2.38491e-18)
(-0.0188699 -0.0254004 -2.56823e-18)
(0.0371241 -0.0340581 2.71622e-18)
(0.0889056 -0.0380466 -2.8186e-18)
(0.134828 -0.0399694 2.89348e-18)
(0.175918 -0.0410839 -2.94142e-18)
(0.212979 -0.0413904 2.97675e-18)
(0.245603 -0.0404833 0)
(0.272598 -0.0382529 0)
(0.2932 -0.0351029 0)
(0.307859 -0.0316532 1.51493e-18)
(0.317996 -0.0283357 1.51303e-18)
(0.325203 -0.0252602 0)
(0.33063 -0.0223504 -1.50442e-18)
(0.334911 -0.0195168 0)
(0.338366 -0.0167229 0)
(0.341209 -0.0139673 7.4484e-19)
(0.343625 -0.0112539 -7.42555e-19)
(0.345776 -0.00857906 3.7038e-19)
(0.347792 -0.00593405 0)
(0.349774 -0.00330905 1.84451e-19)
(0.3518 -0.00069493 -1.84216e-19)
(0.353932 0.0019168 0)
(0.356223 0.00453443 -3.68062e-19)
(0.35872 0.00716636 7.36111e-19)
(0.361465 0.00982124 -7.36725e-19)
(0.364498 0.012508 0)
(0.367858 0.0152362 0)
(0.371584 0.0180157 0)
(0.375718 0.0208574 -1.48321e-18)
(0.380308 0.0237734 0)
(0.385401 0.0267775 0)
(0.391058 0.0298821 -2.98859e-18)
(0.397341 0.0331064 0)
(0.404329 0.0364698 3.00079e-18)
(0.412108 0.0399943 -3.00542e-18)
(0.42079 0.0437078 0)
(0.430485 0.0476394 3.0064e-18)
(0.441379 0.0518328 6.00198e-18)
(0.453574 0.0563219 -2.98701e-18)
(0.467466 0.0611902 0)
(0.482957 0.0664472 0)
(0.50117 0.0723086 2.88414e-18)
(0.520883 0.0786042 0)
(0.546052 0.0860572 5.41062e-18)
(0.570389 0.0936152 0)
(0.608952 0.103991 4.76791e-18)
(0.635099 0.112487 4.06566e-18)
(0.705189 0.128802 -3.68555e-18)
(0.720256 0.136552 0)
(0.87188 0.159524 2.03319e-18)
(0.888042 0.0816952 -3.181e-18)
(0.508275 0.0337884 1.90186e-20)
(0.251837 0.00824309 3.93634e-18)
(0.0977566 0.00824136 -1.01007e-22)
(0.0337034 0.011623 -1.68758e-21)
(-0.0246497 0.0288033 0)
(-0.0726629 0.0395023 0)
(-0.101828 0.0321796 0)
(-0.0919093 0.00886133 -2.21189e-18)
(-0.0542304 -0.0156677 4.73763e-18)
(-0.000708116 -0.0326908 0)
(0.0546488 -0.0412011 2.69082e-18)
(0.106015 -0.0446881 2.12197e-21)
(0.151855 -0.0461062 -2.87094e-18)
(0.193365 -0.0468362 1.7455e-21)
(0.231473 -0.0468101 -2.95838e-18)
(0.265679 -0.0454843 0)
(0.294428 -0.0426757 0)
(0.316486 -0.0388368 0)
(0.33199 -0.0347087 -1.5078e-18)
(0.342356 -0.0308203 0)
(0.349372 -0.0273035 1.50243e-18)
(0.354418 -0.0240507 1.49799e-18)
(0.358265 -0.0209327 -1.49321e-18)
(0.361288 -0.0178901 0)
(0.363713 -0.0149144 0)
(0.36573 -0.0120066 7.39961e-19)
(0.367509 -0.00916036 0)
(0.369192 -0.006363 3.68204e-19)
(0.370883 -0.00360076 -9.19118e-20)
(0.372665 -0.000861284 9.17982e-20)
(0.374603 0.00186645 -3.6684e-19)
(0.376748 0.00459283 0)
(0.37915 0.00732806 -7.3375e-19)
(0.381849 0.0100823 0)
(0.384886 0.012866 0)
(0.3883 0.0156898 1.47188e-18)
(0.39213 0.0185648 0)
(0.396419 0.0215029 0)
(0.401214 0.0245171 0)
(0.406565 0.0276217 0)
(0.41253 0.0308304 0)
(0.419177 0.0341632 0)
(0.426583 0.0376397 -5.98072e-18)
(0.434836 0.0412829 2.99551e-18)
(0.444053 0.045121 2.99649e-18)
(0.454345 0.0491841 -5.99168e-18)
(0.465902 0.0535161 -2.99047e-18)
(0.478836 0.0581521 2.97744e-18)
(0.49354 0.0631751 -2.95359e-18)
(0.509945 0.068598 0)
(0.529143 0.074632 2.54231e-21)
(0.550017 0.0811205 -5.58225e-18)
(0.576365 0.0887601 -5.39625e-18)
(0.602283 0.0965602 -5.07068e-18)
(0.642158 0.107102 -9.50593e-18)
(0.670748 0.115957 -4.05803e-18)
(0.741955 0.132226 3.64936e-18)
(0.761072 0.140527 1.89138e-18)
(0.913382 0.162496 -2.02958e-18)
(0.907839 0.0926007 -7.52139e-20)
(0.565024 0.0402489 3.38375e-18)
(0.303503 0.0119412 2.63545e-21)
(0.13331 0.0095586 -1.9357e-22)
(0.0550717 0.0126598 4.41179e-18)
(-0.00756982 0.02993 4.35912e-18)
(-0.0544868 0.0396469 -4.17244e-18)
(-0.081206 0.0299047 2.08379e-18)
(-0.0704041 0.00391897 6.79012e-21)
(-0.0335023 -0.0223516 -2.3544e-18)
(0.0184934 -0.0399512 -2.52294e-18)
(0.0723483 -0.0482196 -2.67253e-18)
(0.122389 -0.0511294 5.55678e-18)
(0.167256 -0.0519984 1.94095e-21)
(0.208367 -0.0523379 2.90316e-18)
(0.246845 -0.0520037 0)
(0.28217 -0.050291 2.9648e-18)
(0.312453 -0.046917 0)
(0.335935 -0.0423721 -2.99652e-18)
(0.352338 -0.0375312 -1.50035e-18)
(0.362974 -0.0330429 -1.49933e-18)
(0.369797 -0.0290762 -2.78661e-22)
(0.374426 -0.0254914 -1.49243e-18)
(0.377795 -0.0221122 1.48789e-18)
(0.380349 -0.0188494 0)
(0.382327 -0.0156833 -7.39318e-19)
(0.383924 -0.0126123 0)
(0.385317 -0.00962701 0)
(0.386652 -0.00671064 -3.67053e-19)
(0.388043 -0.00384515 0)
(0.389572 -0.00101466 0)
(0.391306 0.00179457 3.65729e-19)
(0.393297 0.00459508 0)
(0.395594 0.00739889 0)
(0.398237 0.0102177 7.31692e-19)
(0.401266 0.0130634 0)
(0.40472 0.0159476 -1.46744e-18)
(0.408639 0.0188826 0)
(0.413065 0.0218813 1.47285e-18)
(0.418044 0.0249575 0)
(0.423628 0.0281251 0)
(0.429876 0.0314014 0)
(0.436855 0.0348044 0)
(0.444646 0.0383551 2.97998e-18)
(0.453337 0.0420768 0)
(0.463045 0.0459983 -5.97158e-18)
(0.473888 0.0501502 2.98504e-18)
(0.486055 0.0545764 -2.97722e-18)
(0.499666 0.0593126 2.96391e-18)
(0.515112 0.0644412 2.94375e-18)
(0.532347 0.0699777 0)
(0.552437 0.0761274 2.85887e-18)
(0.574351 0.0827471 8.34465e-18)
(0.601749 0.0905045 -5.36674e-18)
(0.629054 0.0984697 5.05675e-18)
(0.670075 0.109091 4.73631e-18)
(0.700767 0.118199 0)
(0.772888 0.134314 -3.64235e-18)
(0.795431 0.142996 -3.76507e-18)
(0.947911 0.163939 0)
(0.923742 0.102479 3.42077e-18)
(0.616535 0.0470086 0)
(0.356151 0.0161811 2.60439e-21)
(0.172875 0.0113052 -3.21963e-22)
(0.0803704 0.0137899 -4.38382e-18)
(0.0130745 0.0306932 -8.67616e-18)
(-0.032834 0.0392141 8.31227e-18)
(-0.0575063 0.0271622 -2.07864e-18)
(-0.0465222 -0.0012443 2.1899e-18)
(-0.0110383 -0.0290543 0)
(0.0387253 -0.0471071 3.96196e-21)
(0.0903455 -0.0550508 0)
(0.138278 -0.0573216 -5.51968e-18)
(0.181383 -0.0576111 2.83472e-18)
(0.221337 -0.0575671 0)
(0.259514 -0.0569634 0)
(0.29545 -0.0549114 -2.94842e-18)
(0.326979 -0.0509995 0)
(0.351805 -0.0457413 2.98227e-18)
(0.369147 -0.0401557 1.49392e-18)
(0.38012 -0.0350355 3.08458e-22)
(0.386786 -0.0306047 -1.49088e-18)
(0.390999 -0.0266953 -1.48679e-18)
(0.393879 -0.023076 0)
(0.395953 -0.0196193 0)
(0.397482 -0.0162907 7.37088e-19)
(0.398663 -0.0130847 0)
(0.399675 -0.00998935 3.66617e-19)
(0.40067 -0.00698344 -3.65876e-19)
(0.401766 -0.00404446 9.13206e-20)
(0.403049 -0.00115278 -9.12121e-20)
(0.404583 0.00170819 3.64579e-19)
(0.406424 0.0045532 -3.64477e-19)
(0.408615 0.00739601 7.29082e-19)
(0.411199 0.0102499 -7.29705e-19)
(0.414215 0.0131278 0)
(0.4177 0.0160428 0)
(0.421695 0.0190078 0)
(0.426241 0.0220367 -4.11817e-22)
(0.431385 0.0251442 1.47165e-18)
(0.437179 0.0283441 0)
(0.443682 0.0316553 0)
(0.450963 0.0350957 0)
(0.459102 0.0386868 0)
(0.468191 0.0424524 0)
(0.478347 0.0464215 1.32692e-21)
(0.489691 0.0506249 0)
(0.502414 0.0551066 5.93252e-18)
(0.516642 0.0599027 -5.90561e-18)
(0.532763 0.065094 -2.92959e-18)
(0.550751 0.0706989 0)
(0.571649 0.0769158 0)
(0.594494 0.0836143 -5.53772e-18)
(0.622835 0.0914321 6.7556e-21)
(0.651363 0.0994977 -5.02603e-18)
(0.6934 0.110127 4.70354e-18)
(0.725902 0.119401 4.00985e-18)
(0.798808 0.135282 -3.60534e-18)
(0.824222 0.144206 3.73575e-18)
(0.976572 0.164135 1.97836e-18)
(0.936498 0.111377 6.78082e-20)
(0.662838 0.0538961 -3.25172e-18)
(0.408646 0.0208965 -7.54778e-18)
(0.215798 0.0135085 -4.69514e-22)
(0.109572 0.0150589 4.35003e-18)
(0.0371128 0.0311737 4.31259e-18)
(-0.00811936 0.038313 -2.071e-18)
(-0.0311273 0.0240705 0)
(-0.0204959 -0.00654329 0)
(0.013079 -0.0356897 2.31541e-18)
(0.0600569 -0.0541047 2.4883e-18)
(0.108822 -0.061649 0)
(0.153991 -0.0632312 2.74402e-18)
(0.19466 -0.0629221 0)
(0.232776 -0.0625117 0)
(0.270008 -0.0616874 0)
(0.306023 -0.0593563 0)
(0.338451 -0.0549479 2.95232e-18)
(0.364477 -0.0489801 1.48364e-18)
(0.382768 -0.042622 -1.48729e-18)
(0.394145 -0.0368355 3.22866e-22)
(0.400714 -0.031922 0)
(0.404542 -0.0276905 1.48228e-18)
(0.406946 -0.0238484 0)
(0.408553 -0.0202216 0)
(0.40965 -0.0167557 7.34845e-19)
(0.410435 -0.0134399 -7.32951e-19)
(0.411087 -0.0102596 -3.65706e-19)
(0.411763 -0.00718952 3.64985e-19)
(0.412584 -0.00420248 -1.82185e-19)
(0.413636 -0.00127486 1.81973e-19)
(0.414985 0.00161285 -3.63723e-19)
(0.416684 0.00447759 3.63624e-19)
(0.418777 0.00733484 -1.70865e-22)
(0.421305 0.0101993 -7.27636e-19)
(0.424305 0.0130851 0)
(0.427816 0.0160061 0)
(0.431876 0.0189764 0)
(0.436527 0.0220103 -2.92885e-18)
(0.441817 0.025123 -1.46787e-18)
(0.447796 0.0283296 0)
(0.454526 0.0316485 0)
(0.462076 0.0350986 -2.95329e-18)
(0.470527 0.0387016 0)
(0.479972 0.0424816 0)
(0.490531 0.0464675 5.92787e-18)
(0.502325 0.0506905 -2.96104e-18)
(0.515549 0.0551941 -5.90956e-18)
(0.530332 0.0600149 1.76114e-21)
(0.547062 0.0652322 5.83671e-18)
(0.565727 0.0708662 2.8816e-18)
(0.587353 0.0771088 0)
(0.611032 0.0838408 2.75752e-18)
(0.640221 0.0916706 5.32365e-18)
(0.669829 0.0997819 5.00876e-18)
(0.712774 0.110361 -4.68815e-18)
(0.746839 0.119729 -3.99827e-18)
(0.820439 0.135317 3.5956e-18)
(0.84825 0.14437 -1.85798e-18)
(1.0003 0.163316 -1.97363e-18)
(0.946706 0.11936 6.49463e-20)
(0.704105 0.060765 3.21475e-18)
(0.460028 0.0260019 -2.59489e-21)
(0.261314 0.0161731 -6.19757e-22)
(0.142532 0.0165108 0)
(0.0644128 0.0314486 0)
(0.0193155 0.0370498 -2.28204e-21)
(-0.00235219 0.0207198 0)
(0.00752923 -0.0118987 0)
(0.0388057 -0.0422145 -5.29423e-21)
(0.0825582 -0.0608955 0)
(0.127953 -0.0679773 0)
(0.169826 -0.0688326 2.72672e-18)
(0.2075 -0.0679154 0)
(0.243191 -0.0671626 0)
(0.278884 -0.0661739 0)
(0.314444 -0.0636339 0)
(0.347378 -0.0587831 -1.21652e-21)
(0.374404 -0.0521207 -1.47753e-18)
(0.393609 -0.044969 2.9634e-18)
(0.405443 -0.0384821 3.31899e-22)
(0.411983 -0.0330627 1.48088e-18)
(0.415476 -0.0285065 0)
(0.417437 -0.0244553 1.47397e-18)
(0.418604 -0.0206792 0)
(0.419298 -0.0170981 -7.33195e-19)
(0.419717 -0.0136943 1.53533e-22)
(0.420041 -0.0104505 0)
(0.420428 -0.00733768 0)
(0.420999 -0.00432383 1.97772e-23)
(0.421844 -0.00138122 -2.00964e-23)
(0.423026 0.00151266 1.81426e-19)
(0.424598 0.00437687 0)
(0.426603 0.00722856 -7.25786e-19)
(0.42908 0.0100837 7.26211e-19)
(0.432066 0.0129575 0)
(0.435598 0.0158647 -1.45544e-18)
(0.439715 0.01882 0)
(0.444458 0.0218385 4.15774e-22)
(0.449875 0.0249353 0)
(0.456018 0.0281272 1.46668e-18)
(0.462947 0.0314319 1.46965e-18)
(0.470733 0.0348688 1.04636e-21)
(0.479458 0.0384598 -2.94959e-18)
(0.489218 0.0422292 0)
(0.500133 0.046206 -1.31294e-21)
(0.512327 0.0504213 2.9522e-18)
(0.525995 0.0549183 1.57442e-21)
(0.541273 0.0597337 2.93048e-18)
(0.558545 0.0649451 -1.94137e-21)
(0.577814 0.0705745 -2.17227e-21)
(0.60009 0.0768069 0)
(0.624512 0.0835336 0)
(0.654458 0.0913343 0)
(0.685019 0.0994444 0)
(0.728778 0.109928 0)
(0.764194 0.119325 3.96607e-18)
(0.838419 0.134576 0)
(0.86823 0.143669 0)
(1.0199 0.161675 -1.94352e-18)
(0.954856 0.126503 -1.85027e-18)
(0.740606 0.0674957 0)
(0.509519 0.0313995 -2.66001e-21)
(0.3086 0.0192812 -7.55366e-22)
(0.178977 0.0181838 0)
(0.094857 0.031598 2.12615e-18)
(0.0492259 0.0355133 -2.04276e-18)
(0.0285938 0.017177 0)
(0.0374191 -0.0172234 0)
(0.0661049 -0.0486004 -2.28674e-18)
(0.106268 -0.0674373 0)
(0.147875 -0.0740025 0)
(0.186028 -0.0741035 -2.71502e-18)
(0.220263 -0.0725761 0)
(0.253037 -0.07151 -2.83698e-18)
(0.286663 -0.0704181 0)
(0.321256 -0.0677468 0)
(0.354283 -0.0625187 -1.26393e-21)
(0.38206 -0.0551893 0)
(0.402098 -0.047231 -1.47665e-18)
(0.414419 -0.0400117 1.47829e-18)
(0.420994 -0.0340607 -2.95409e-18)
(0.424211 -0.0291731 1.47414e-18)
(0.425773 -0.024922 -1.47089e-18)
(0.426537 -0.0210139 0)
(0.426864 -0.0173367 -7.31528e-19)
(0.426955 -0.0138636 1.45969e-18)
(0.426987 -0.0105745 0)
(0.427118 -0.00743665 -1.81705e-19)
(0.42747 -0.00441342 9.07353e-20)
(0.428133 -0.00147289 -9.06344e-20)
(0.42917 0.00141049 -1.81143e-19)
(0.430632 0.00425791 0)
(0.432561 0.00708802 -7.24315e-19)
(0.434994 0.00991798 7.24721e-19)
(0.437968 0.012764 0)
(0.441519 0.0156415 1.45309e-18)
(0.445685 0.0185658 0)
(0.450508 0.0215524 1.45823e-18)
(0.456034 0.024617 0)
(0.462318 0.0277766 -1.46391e-18)
(0.46942 0.031049 -1.46674e-18)
(0.477411 0.0344538 1.03386e-21)
(0.486376 0.0380133 2.9431e-18)
(0.496409 0.0417515 0)
(0.507635 0.0456976 -2.94621e-18)
(0.520179 0.0498824 0)
(0.534237 0.0543487 2.93497e-18)
(0.549949 0.0591331 0)
(0.5677 0.0643116 -2.8964e-18)
(0.587502 0.0699073 -5.71738e-18)
(0.610354 0.0760989 0)
(0.635433 0.082787 0)
(0.666052 0.0905237 0)
(0.697452 0.0985922 2.47446e-18)
(0.741937 0.10894 0)
(0.778522 0.118316 -9.16991e-21)
(0.85331 0.133195 0)
(0.884793 0.142258 1.81667e-18)
(1.03604 0.159369 1.93694e-18)
(0.961349 0.132883 0)
(0.772668 0.0739954 3.13681e-18)
(0.556519 0.0369873 3.63641e-18)
(0.356817 0.0227952 -8.58372e-22)
(0.218505 0.0201064 0)
(0.128315 0.0317021 -2.11147e-18)
(0.0814528 0.0337814 0)
(0.0614978 0.0135154 2.03042e-18)
(0.0690604 -0.0224927 2.12897e-18)
(0.0949139 -0.0547921 2.26712e-18)
(0.131179 -0.0736897 2.43777e-18)
(0.168658 -0.079693 2.58932e-18)
(0.20277 -0.0790223 0)
(0.233225 -0.0768896 0)
(0.262691 -0.0755428 2.82678e-18)
(0.2938 -0.0744109 0)
(0.326953 -0.0716912 0)
(0.359658 -0.0661606 -2.91329e-18)
(0.387906 -0.0582036 0)
(0.408655 -0.0494358 -1.47151e-18)
(0.421461 -0.0414564 0)
(0.428127 -0.0349472 1.47374e-18)
(0.431128 -0.0297175 -1.47136e-18)
(0.432341 -0.025272 0)
(0.432742 -0.021246 0)
(0.432741 -0.0174891 1.52376e-22)
(0.432543 -0.0139624 -7.28738e-19)
(0.432321 -0.010643 0)
(0.43223 -0.00749462 1.81471e-19)
(0.432394 -0.00447612 9.05822e-20)
(0.432901 -0.00155135 -9.04834e-20)
(0.433815 0.00130828 0)
(0.435184 0.004126 0)
(0.437048 0.00692192 1.70036e-22)
(0.439445 0.00971429 -1.74839e-22)
(0.44241 0.0125201 0)
(0.445978 0.0153554 0)
(0.450186 0.0182362 1.45281e-18)
(0.455078 0.021178 0)
(0.460699 0.0241971 0)
(0.467103 0.0273104 0)
(0.474353 0.0305361 0)
(0.48252 0.0338939 2.9328e-18)
(0.49169 0.0374058 2.93565e-18)
(0.50196 0.0410961 0)
(0.513454 0.0449935 0)
(0.526301 0.0491289 2.93372e-18)
(0.540698 0.0535444 0)
(0.556789 0.0582765 0)
(0.574957 0.0633991 -2.88455e-18)
(0.595227 0.0689368 2.84902e-18)
(0.618584 0.0750615 0)
(0.644239 0.0816824 0)
(0.675453 0.0893256 0)
(0.707588 0.0973181 -2.46482e-18)
(0.752717 0.107499 2.29902e-18)
(0.790315 0.116807 -7.84357e-18)
(0.865609 0.131291 0)
(0.898488 0.140264 -1.80931e-18)
(1.0493 0.156529 -1.9076e-18)
(0.966516 0.138578 0)
(0.800655 0.0801959 -3.11426e-18)
(0.600593 0.0426651 0)
(0.405158 0.0266602 -6.04936e-18)
(0.260598 0.0222947 0)
(0.164612 0.0318317 -2.0946e-18)
(0.115876 0.0319273 0)
(0.0961862 0.00979068 -2.02418e-18)
(0.102322 -0.0276639 -2.12124e-18)
(0.125131 -0.0607428 -2.25775e-18)
(0.157234 -0.0796126 -2.42757e-18)
(0.190314 -0.0850178 -2.57927e-18)
(0.220143 -0.0835679 0)
(0.246577 -0.0808412 0)
(0.272441 -0.079248 0)
(0.300662 -0.0781401 0)
(0.331956 -0.0754577 0)