/*--------------------------------*- C++ -*----------------------------------*\
| =========                 |                                                 |
| \\      /  F ield         | OpenFOAM: The Open Source CFD Toolbox           |
|  \\    /   O peration     | Version:  2.4.0                                 |
|   \\  /    A nd           | Web:      www.OpenFOAM.org                      |
|    \\/     M anipulation  |                                                 |
\*---------------------------------------------------------------------------*/
FoamFile
{
    version     2.0;
    format      ascii;
    class       surfaceScalarField;
    location    "1.6";
    object      phi;
}
// * * * * * * * * * * * * * * * * * * * * * * * * * * * * * * * * * * * * * //

dimensions      [0 3 -1 0 0 0 0];

internalField   nonuniform List<scalar> 
11840
(
7.78718e-07
9.22128e-06
-9.33294e-07
1.71201e-06
6.38211e-07
-1.5715e-06
2.11674e-07
4.26536e-07
3.74468e-08
1.74227e-07
2.01072e-07
-1.63626e-07
1.05449e-06
-8.53417e-07
2.76272e-06
-1.70823e-06
4.3308e-06
-1.56808e-06
4.60688e-06
-2.76087e-07
3.94664e-06
6.60247e-07
2.5352e-06
1.41144e-06
-5.85755e-07
3.12095e-06
-4.80769e-06
4.22194e-06
-8.89784e-06
4.09015e-06
-1.19454e-05
3.04758e-06
-1.36605e-05
1.71513e-06
-1.40374e-05
3.76904e-07
-1.33537e-05
-6.83714e-07
-1.18902e-05
-1.46353e-06
-9.81844e-06
-2.07175e-06
-7.39621e-06
-2.42224e-06
-4.96538e-06
-2.43083e-06
-2.82288e-06
-2.1425e-06
-1.10096e-06
-1.72192e-06
2.00494e-07
-1.30145e-06
1.17076e-06
-9.70261e-07
1.86971e-06
-6.98953e-07
2.39579e-06
-5.26079e-07
2.82148e-06
-4.25692e-07
3.19462e-06
-3.73144e-07
3.54333e-06
-3.48708e-07
3.88129e-06
-3.37962e-07
4.2128e-06
-3.3151e-07
4.53671e-06
-3.23907e-07
4.84917e-06
-3.12457e-07
5.14535e-06
-2.96181e-07
5.42047e-06
-2.7512e-07
5.67044e-06
-2.49976e-07
5.89237e-06
-2.21928e-07
6.08484e-06
-1.92474e-07
6.24806e-06
-1.63213e-07
6.38368e-06
-1.35621e-07
6.49454e-06
-1.10857e-07
6.58419e-06
-8.96539e-08
6.65648e-06
-7.2294e-08
6.71515e-06
-5.86634e-08
6.76351e-06
-4.83644e-08
6.80433e-06
-4.08232e-08
6.83987e-06
-3.55336e-08
6.87153e-06
-3.16613e-08
6.90076e-06
-2.92307e-08
6.92759e-06
-2.68329e-08
6.95501e-06
-2.7416e-08
6.97726e-06
-2.22555e-08
7.0148e-06
-3.75404e-08
7.01904e-06
-4.2363e-09
7.13162e-06
-1.12576e-07
7.00694e-06
1.24677e-07
-5.91728e-07
2.44469e-06
1.67766e-05
-5.08395e-07
4.66509e-06
3.15516e-07
-2.39541e-06
-6.1897e-08
8.03949e-07
-4.24309e-08
1.54761e-07
4.3977e-08
-2.50033e-07
9.16098e-07
-1.72554e-06
2.55308e-06
-3.34521e-06
4.24881e-06
-3.2638e-06
4.8892e-06
-9.16484e-07
4.10968e-06
1.43977e-06
1.11224e-06
4.40887e-06
-4.11124e-06
8.34444e-06
-9.33897e-06
9.44966e-06
-1.27535e-05
7.50466e-06
-1.44126e-05
4.7067e-06
-1.4942e-05
2.24449e-06
-1.47549e-05
1.89878e-07
-1.38718e-05
-1.56685e-06
-1.22701e-05
-3.06524e-06
-1.00987e-05
-4.24312e-06
-7.59241e-06
-4.92856e-06
-5.0628e-06
-4.96043e-06
-2.79144e-06
-4.41386e-06
-9.27415e-07
-3.58595e-06
5.26737e-07
-2.7556e-06
1.6172e-06
-2.06073e-06
2.42953e-06
-1.51128e-06
3.05652e-06
-1.15307e-06
3.5716e-06
-9.40773e-07
4.02549e-06
-8.27036e-07
4.44873e-06
-7.71946e-07
4.85635e-06
-7.4558e-07
5.25298e-06
-7.28139e-07
5.63718e-06
-7.08112e-07
6.00459e-06
-6.7987e-07
6.3499e-06
-6.41481e-07
6.66797e-06
-5.93197e-07
6.95464e-06
-5.36641e-07
7.20711e-06
-4.74395e-07
7.42427e-06
-4.09641e-07
7.60679e-06
-3.4573e-07
7.75688e-06
-2.85715e-07
7.878e-06
-2.31977e-07
7.97435e-06
-1.86e-07
8.05039e-06
-1.48335e-07
8.11044e-06
-1.18709e-07
8.15833e-06
-9.62581e-08
8.19726e-06
-7.9755e-08
8.22971e-06
-6.79819e-08
8.25757e-06
-5.95192e-08
8.2822e-06
-5.38613e-08
8.30424e-06
-4.88744e-08
8.32543e-06
-4.86038e-08
8.34348e-06
-4.03071e-08
8.36948e-06
-6.35436e-08
8.37619e-06
-1.09477e-08
8.46922e-06
-2.05604e-07
8.45494e-06
1.38958e-07
-1.07798e-06
3.59842e-06
2.31782e-05
7.20378e-09
8.2563e-06
2.17076e-08
-2.40992e-06
-2.89371e-07
1.11503e-06
-1.76629e-07
4.20192e-08
-1.11315e-07
-3.15348e-07
6.60216e-07
-2.49707e-06
2.15269e-06
-4.83768e-06
3.84024e-06
-4.95136e-06
4.48e-06
-1.55624e-06
3.19101e-06
2.72876e-06
-9.16875e-07
8.51676e-06
-6.52472e-06
1.39523e-05
-1.07076e-05
1.36326e-05
-1.29481e-05
9.74514e-06
-1.42081e-05
5.96666e-06
-1.48272e-05
2.8636e-06
-1.47027e-05
6.53439e-08
-1.38106e-05
-2.45888e-06
-1.21998e-05
-4.67604e-06
-1.00291e-05
-6.41384e-06
-7.53286e-06
-7.42482e-06
-5.01039e-06
-7.48291e-06
-2.72931e-06
-6.69494e-06
-8.4204e-07
-5.47322e-06
6.42822e-07
-4.24046e-06
1.76545e-06
-3.18336e-06
2.61507e-06
-2.36089e-06
3.28057e-06
-1.81858e-06
3.83461e-06
-1.49481e-06
4.3285e-06
-1.32092e-06
4.79349e-06
-1.23694e-06
5.24486e-06
-1.19695e-06
5.68678e-06
-1.17006e-06
6.11674e-06
-1.13807e-06
6.52893e-06
-1.09206e-06
6.91654e-06
-1.0291e-06
7.27318e-06
-9.49839e-07
7.59375e-06
-8.5721e-07
7.87499e-06
-7.55631e-07
8.11573e-06
-6.50385e-07
8.31689e-06
-5.46889e-07
8.48115e-06
-4.49975e-07
8.61251e-06
-3.63337e-07
8.71575e-06
-2.89241e-07
8.79591e-06
-2.28494e-07
8.85784e-06
-1.80638e-07
8.90588e-06
-1.44294e-07
8.94365e-06
-1.1753e-07
8.97404e-06
-9.83714e-08
8.99915e-06
-8.463e-08
9.02063e-06
-7.53405e-08
9.03939e-06
-6.76348e-08
9.05704e-06
-6.62545e-08
9.07212e-06
-5.53861e-08
9.09358e-06
-8.49981e-08
9.10083e-06
-1.81968e-08
9.17558e-06
-2.80361e-07
9.17431e-06
1.40236e-07
-1.50869e-06
4.51862e-06
2.86596e-05
7.34488e-07
1.20404e-05
-2.64466e-07
-1.41097e-06
-4.50723e-07
1.30129e-06
-3.05081e-07
-1.03623e-07
-2.74404e-07
-3.46025e-07
3.57598e-07
-3.12907e-06
1.69033e-06
-6.17041e-06
3.32901e-06
-6.59005e-06
3.86353e-06
-2.09076e-06
1.98252e-06
4.60978e-06
-2.72139e-06
1.32207e-05
-7.74347e-06
1.89744e-05
-1.07921e-05
1.66812e-05
-1.26134e-05
1.15665e-05
-1.39736e-05
7.32683e-06
-1.46755e-05
3.56552e-06
-1.45735e-05
-3.67042e-08
-1.36701e-05
-3.36229e-06
-1.20553e-05
-6.29082e-06
-9.88511e-06
-8.58401e-06
-7.39999e-06
-9.90994e-06
-4.89845e-06
-9.98444e-06
-2.63771e-06
-8.95568e-06
-7.63281e-07
-7.34765e-06
7.14877e-07
-5.71862e-06
1.83578e-06
-4.30426e-06
2.68903e-06
-3.21415e-06
3.3614e-06
-2.49094e-06
3.92501e-06
-2.05842e-06
4.43151e-06
-1.82742e-06
4.91268e-06
-1.71811e-06
5.38416e-06
-1.66843e-06
5.85008e-06
-1.63598e-06
6.30739e-06
-1.59538e-06
6.74928e-06
-1.53394e-06
7.16753e-06
-1.44735e-06
7.55421e-06
-1.33652e-06
7.90275e-06
-1.20575e-06
8.20874e-06
-1.06162e-06
8.47031e-06
-9.11962e-07
8.68812e-06
-7.64694e-07
8.86494e-06
-6.26792e-07
9.00509e-06
-5.03494e-07
9.11381e-06
-3.97956e-07
9.19659e-06
-3.11279e-07
9.25877e-06
-2.42813e-07
9.30512e-06
-1.90645e-07
9.33969e-06
-1.52096e-07
9.36569e-06
-1.2438e-07
9.38558e-06
-1.0452e-07
9.40122e-06
-9.09763e-08
9.41364e-06
-8.00539e-08
9.42468e-06
-7.72997e-08
9.43263e-06
-6.33313e-08
9.44721e-06
-9.95829e-08
9.44739e-06
-1.83751e-08
9.50904e-06
-3.42004e-07
9.50656e-06
1.42714e-07
-1.87224e-06
5.294e-06
3.33656e-05
1.46453e-06
1.58699e-05
-2.65176e-07
3.18736e-07
-5.52504e-07
1.58861e-06
-4.24203e-07
-2.31925e-07
-4.46692e-07
-3.23535e-07
4.30565e-08
-3.61882e-06
1.18008e-06
-7.30744e-06
2.72838e-06
-8.13835e-06
3.09456e-06
-2.45694e-06
7.07865e-07
6.99648e-06
-4.09528e-06
1.80238e-05
-8.19237e-06
2.30715e-05
-1.05379e-05
1.90267e-05
-1.23509e-05
1.33794e-05
-1.3801e-05
8.77693e-06
-1.45224e-05
4.28697e-06
-1.44184e-05
-1.40695e-07
-1.35083e-05
-4.27239e-06
-1.18803e-05
-7.91888e-06
-9.6941e-06
-1.07702e-05
-7.20197e-06
-1.24021e-05
-4.71507e-06
-1.24713e-05
-2.48739e-06
-1.11834e-05
-6.48817e-07
-9.18622e-06
8.01287e-07
-7.16873e-06
1.9014e-06
-5.40437e-06
2.74112e-06
-4.05387e-06
3.40519e-06
-3.15502e-06
3.96475e-06
-2.61798e-06
4.47112e-06
-2.33379e-06
4.95602e-06
-2.20302e-06
5.43512e-06
-2.14753e-06
5.91241e-06
-2.11327e-06
6.38448e-06
-2.06744e-06
6.84384e-06
-1.99331e-06
7.2814e-06
-1.88491e-06
7.6881e-06
-1.74322e-06
8.05621e-06
-1.57386e-06
8.38026e-06
-1.38568e-06
8.65759e-06
-1.18928e-06
8.88837e-06
-9.95474e-07
9.07526e-06
-8.13681e-07
9.22269e-06
-6.50928e-07
9.33614e-06
-5.11402e-07
9.42141e-06
-3.96556e-07
9.48416e-06
-3.05564e-07
9.52949e-06
-2.35971e-07
9.56173e-06
-1.84339e-07
9.58439e-06
-1.47043e-07
9.60015e-06
-1.20279e-07
9.61104e-06
-1.01868e-07
9.61835e-06
-8.73634e-08
9.62372e-06
-8.26627e-08
9.62646e-06
-6.6076e-08
9.633e-06
-1.06119e-07
9.63088e-06
-1.62537e-08
9.67528e-06
-3.86409e-07
9.67933e-06
1.38667e-07
-2.15841e-06
5.96461e-06
3.74009e-05
2.21131e-06
1.96232e-05
-5.13947e-08
2.58144e-06
-5.96921e-07
2.13414e-06
-5.25895e-07
-3.02951e-07
-6.14118e-07
-2.35312e-07
-3.1263e-07
-3.92031e-06
6.42794e-07
-8.26286e-06
2.04848e-06
-9.54404e-06
2.19278e-06
-2.60123e-06
-5.6811e-07
9.75736e-06
-5.03366e-06
2.24894e-05
-8.24123e-06
2.6279e-05
-1.02567e-05
2.10422e-05
-1.21562e-05
1.52789e-05
-1.36352e-05
1.02559e-05
-1.43632e-05
5.01499e-06
-1.42643e-05
-2.39547e-07
-1.33517e-05
-5.185e-06
-1.17078e-05
-9.56283e-06
-9.49119e-06
-1.29867e-05
-6.96531e-06
-1.49279e-05
-4.46728e-06
-1.49694e-05
-2.266e-06
-1.33847e-05
-4.76395e-07
-1.09758e-05
9.28844e-07
-8.57396e-06
1.99154e-06
-6.46707e-06
2.80372e-06
-4.86605e-06
3.44813e-06
-3.79943e-06
3.99424e-06
-3.16408e-06
4.49236e-06
-2.8319e-06
4.97367e-06
-2.68434e-06
5.45348e-06
-2.62733e-06
5.93539e-06
-2.59518e-06
6.41548e-06
-2.54754e-06
6.8856e-06
-2.46342e-06
7.33576e-06
-2.33508e-06
7.75596e-06
-2.16341e-06
8.13749e-06
-1.95539e-06
8.47402e-06
-1.72221e-06
8.76226e-06
-1.47752e-06
9.00204e-06
-1.23525e-06
9.19591e-06
-1.00755e-06
9.34839e-06
-8.03409e-07
9.46513e-06
-6.28147e-07
9.55217e-06
-4.83596e-07
9.61536e-06
-3.68746e-07
9.65997e-06
-2.80587e-07
9.69055e-06
-2.14916e-07
9.71077e-06
-1.67261e-07
9.72348e-06
-1.32987e-07
9.73084e-06
-1.09229e-07
9.73432e-06
-9.08445e-08
9.73544e-06
-8.37883e-08
9.7342e-06
-6.48288e-08
9.73547e-06
-1.07395e-07
9.73186e-06
-1.26396e-08
9.76059e-06
-4.1514e-07
9.7788e-06
1.20455e-07
-2.37138e-06
6.54993e-06
4.0851e-05
2.94293e-06
2.32302e-05
2.36713e-07
5.28766e-06
-5.65096e-07
2.93595e-06
-6.00732e-07
-2.67315e-07
-7.58539e-07
-7.75057e-08
-6.29911e-07
-4.04893e-06
9.52045e-08
-8.98798e-06
1.30254e-06
-1.07514e-05
1.20406e-06
-2.50275e-06
-1.71179e-06
1.26732e-05
-5.59955e-06
2.63771e-05
-8.10925e-06
2.87887e-05
-1.00126e-05
2.29456e-05
-1.19805e-05
1.72468e-05
-1.34664e-05
1.17419e-05
-1.42064e-05
5.75492e-06
-1.41198e-05
-3.26117e-07
-1.32126e-05
-6.09223e-06
-1.15594e-05
-1.1216e-05
-9.30997e-06
-1.52362e-05
-6.72966e-06
-1.75083e-05
-4.18432e-06
-1.75147e-05
-1.98154e-06
-1.55874e-05
-2.4011e-07
-1.27173e-05
1.11201e-06
-9.92608e-06
2.12254e-06
-7.4776e-06
2.894e-06
-5.6375e-06
3.50801e-06
-4.41345e-06
4.03189e-06
-3.68796e-06
4.5144e-06
-3.31441e-06
4.9858e-06
-3.15573e-06
5.46076e-06
-3.10229e-06
5.94238e-06
-3.0768e-06
6.4261e-06
-3.03126e-06
6.90299e-06
-2.94031e-06
7.36208e-06
-2.79417e-06
7.79229e-06
-2.59363e-06
8.18389e-06
-2.34699e-06
8.52971e-06
-2.06803e-06
8.82589e-06
-1.7737e-06
9.07201e-06
-1.48137e-06
9.27063e-06
-1.20617e-06
9.42645e-06
-9.5923e-07
9.54535e-06
-7.47045e-07
9.63356e-06
-5.71813e-07
9.69712e-06
-4.32297e-07
9.74142e-06
-3.24894e-07
9.77112e-06
-2.44611e-07
9.78998e-06
-1.86119e-07
9.80095e-06
-1.43962e-07
9.80627e-06
-1.14552e-07
9.80756e-06
-9.21338e-08
9.80618e-06
-8.24016e-08
9.80289e-06
-6.15407e-08
9.80017e-06
-1.04673e-07
9.79786e-06
-1.03356e-08
9.81266e-06
-4.2994e-07
9.84553e-06
8.75895e-08
-2.52249e-06
7.06128e-06
4.37897e-05
3.65381e-06
2.66377e-05
6.49028e-07
8.29244e-06
-4.47001e-07
4.03198e-06
-6.39635e-07
-7.46815e-08
-8.63912e-07
1.46771e-07
-8.90773e-07
-4.02207e-06
-4.14614e-07
-9.46414e-06
5.07361e-07
-1.16733e-05
1.96912e-07
-2.1923e-06
-2.66301e-06
1.55331e-05
-5.88476e-06
2.95989e-05
-7.90368e-06
3.08077e-05
-9.79948e-06
2.48414e-05
-1.18019e-05
1.92492e-05
-1.32918e-05
1.32319e-05
-1.40457e-05
6.50883e-06
-1.39746e-05
-3.97234e-07
-1.30807e-05
-6.9862e-06
-1.14308e-05
-1.28659e-05
-9.16043e-06
-1.75065e-05
-6.52383e-06
-2.01449e-05
-3.90306e-06
-2.01355e-05
-1.65902e-06
-1.78315e-05
6.55134e-08
-1.44418e-05
1.35525e-06
-1.12158e-05
2.30327e-06
-8.42561e-06
3.0224e-06
-6.35663e-06
3.59593e-06
-4.98698e-06
4.08907e-06
-4.18109e-06
4.54864e-06
-3.77399e-06
5.00371e-06
-3.61081e-06
5.46824e-06
-3.56682e-06
5.94477e-06
-3.55332e-06
6.42813e-06
-3.51462e-06
6.90853e-06
-3.42071e-06
7.37395e-06
-3.25959e-06
7.81205e-06
-3.03174e-06
8.2119e-06
-2.74684e-06
8.56533e-06
-2.42146e-06
8.86786e-06
-2.07623e-06
9.11882e-06
-1.73233e-06
9.32085e-06
-1.4082e-06
9.4789e-06
-1.11729e-06
9.59916e-06
-8.67301e-07
9.68811e-06
-6.6076e-07
9.75193e-06
-4.96116e-07
9.79613e-06
-3.691e-07
9.82541e-06
-2.73889e-07
9.84358e-06
-2.04285e-07
9.85363e-06
-1.54015e-07
9.85783e-06
-1.18752e-07
9.8579e-06
-9.22039e-08
9.85507e-06
-7.95728e-08
9.85068e-06
-5.71549e-08
9.84564e-06
-9.96314e-08
9.84433e-06
-9.02135e-09
9.84964e-06
-4.35257e-07
9.89324e-06
4.39967e-08
-2.62695e-06
7.50723e-06
4.62825e-05
4.33748e-06
2.98074e-05
1.16072e-06
1.14692e-05
-2.53143e-07
5.44584e-06
-6.35664e-07
3.0784e-07
-9.21777e-07
4.32884e-07
-1.08611e-06
-3.85774e-06
-8.72317e-07
-9.67793e-06
-2.88799e-07
-1.22569e-05
-8.24535e-07
-1.65656e-06
-3.40607e-06
1.81147e-05
-5.97245e-06
3.21652e-05
-7.67171e-06
3.25069e-05
-9.59936e-06
2.6769e-05
-1.16115e-05
2.12613e-05
-1.31033e-05
1.47236e-05
-1.38667e-05
7.27221e-06
-1.38097e-05
-4.5424e-07
-1.29342e-05
-7.86171e-06
-1.13006e-05
-1.44994e-05
-9.02866e-06
-1.97785e-05
-6.35256e-06
-2.2821e-05
-3.65038e-06
-2.28377e-05
-1.32986e-06
-2.0152e-05
4.1658e-07
-1.61882e-05
1.65415e-06
-1.24534e-05
2.53612e-06
-9.30758e-06
3.19417e-06
-7.01468e-06
3.71851e-06
-5.51132e-06
4.17313e-06
-4.63572e-06
4.60276e-06
-4.20361e-06
5.03509e-06
-4.04314e-06
5.48339e-06
-4.01512e-06
5.94974e-06
-4.01967e-06
6.42848e-06
-3.99336e-06
6.90905e-06
-3.90128e-06
7.37834e-06
-3.72888e-06
7.82262e-06
-3.47601e-06
8.2295e-06
-3.15372e-06
8.5896e-06
-2.78156e-06
8.89762e-06
-2.38425e-06
9.15259e-06
-1.9873e-06
9.35723e-06
-1.61284e-06
9.5168e-06
-1.27686e-06
9.63786e-06
-9.88359e-07
9.72719e-06
-7.50093e-07
9.79117e-06
-5.60093e-07
9.83539e-06
-4.13318e-07
9.86456e-06
-3.03058e-07
9.88249e-06
-2.22217e-07
9.89219e-06
-1.63715e-07
9.89592e-06
-1.22487e-07
9.89547e-06
-9.1747e-08
9.89198e-06
-7.60843e-08
9.88714e-06
-5.23206e-08
9.88088e-06
-9.33661e-08
9.88054e-06
-8.68156e-09
9.87971e-06
-4.34431e-07
9.92922e-06
-5.51222e-09
-2.69777e-06
7.89541e-06
4.83871e-05
4.98809e-06
3.27147e-05
1.73784e-06
1.47195e-05
-7.97353e-09
7.19165e-06
-5.86433e-07
8.86299e-07
-9.31934e-07
7.78386e-07
-1.2116e-06
-3.57808e-06
-1.2516e-06
-9.63792e-06
-1.01657e-06
-1.24919e-05
-1.73368e-06
-9.39454e-07
-3.9374e-06
2.03184e-05
-5.92652e-06
3.41544e-05
-7.43221e-06
3.40126e-05
-9.39712e-06
2.87339e-05
-1.14028e-05
2.3267e-05
-1.28898e-05
1.62107e-05
-1.36542e-05
8.03658e-06
-1.36076e-05
-5.00806e-07
-1.27533e-05
-8.71608e-06
-1.11461e-05
-1.61066e-05
-8.89101e-06
-2.20335e-05
-6.20047e-06
-2.55115e-05
-3.43366e-06
-2.56045e-05
-1.02079e-06
-2.25649e-05
7.80948e-07
-1.799e-05
1.99672e-06
-1.36692e-05
2.81809e-06
-1.0129e-05
3.4103e-06
-7.60689e-06
3.87859e-06
-5.97961e-06
4.28816e-06
-5.04529e-06
4.68162e-06
-4.59707e-06
5.0852e-06
-4.44672e-06
5.5115e-06
-4.44143e-06
5.96238e-06
-4.47055e-06
6.43191e-06
-4.46289e-06
6.90899e-06
-4.37836e-06
7.37946e-06
-4.19935e-06
7.82815e-06
-3.9247e-06
8.241e-06
-3.56657e-06
8.60714e-06
-3.14769e-06
8.92019e-06
-2.6973e-06
9.17872e-06
-2.24583e-06
9.38547e-06
-1.8196e-06
9.54607e-06
-1.43746e-06
9.66749e-06
-1.10978e-06
9.75689e-06
-8.39497e-07
9.82087e-06
-6.24072e-07
9.86511e-06
-4.57562e-07
9.89433e-06
-3.32278e-07
9.91232e-06
-2.40198e-07
9.92203e-06
-1.73433e-07
9.92574e-06
-1.26188e-07
9.92521e-06
-9.12214e-08
9.92158e-06
-7.24498e-08
9.9167e-06
-4.74446e-08
9.90994e-06
-8.66065e-08
9.91026e-06
-8.99744e-09
9.90584e-06
-4.30015e-07
9.95765e-06
-5.7322e-08
-2.74435e-06
8.23276e-06
5.01543e-05
5.60108e-06
3.53464e-05
2.36222e-06
1.79583e-05
3.72592e-07
9.18128e-06
-4.94202e-07
1.75309e-06
-8.99336e-07
1.18352e-06
-1.26988e-06
-3.20753e-06
-1.53515e-06
-9.37266e-06
-1.64519e-06
-1.23818e-05
-2.4754e-06
-1.09242e-07
-4.27057e-06
2.21136e-05
-5.79192e-06
3.56757e-05
-7.19062e-06
3.54113e-05
-9.18219e-06
3.07255e-05
-1.1169e-05
2.52537e-05
-1.26414e-05
1.76831e-05
-1.33976e-05
8.79284e-06
-1.33577e-05
-5.40772e-07
-1.25258e-05
-9.5479e-06
-1.09519e-05
-1.76806e-05
-8.72758e-06
-2.42579e-05
-6.04564e-06
-2.81934e-05
-3.24286e-06
-2.84073e-05
-7.45214e-07
-2.50625e-05
1.13854e-06
-1.98737e-05
2.36623e-06
-1.48969e-05
3.14188e-06
-1.09046e-05
3.66859e-06
-8.1336e-06
4.07618e-06
-6.3872e-06
4.43552e-06
-5.40463e-06
4.78772e-06
-4.94927e-06
5.15732e-06
-4.81632e-06
5.55627e-06
-4.84038e-06
5.98642e-06
-4.9007e-06
6.44194e-06
-4.91841e-06
6.9115e-06
-4.84792e-06
7.38013e-06
-4.66797e-06
7.83123e-06
-4.3758e-06
8.24895e-06
-3.98429e-06
8.62059e-06
-3.51933e-06
8.93844e-06
-3.01515e-06
9.20033e-06
-2.50771e-06
9.40893e-06
-2.0282e-06
9.5702e-06
-1.59872e-06
9.69162e-06
-1.2312e-06
9.78078e-06
-9.28658e-07
9.84455e-06
-6.87844e-07
9.88874e-06
-5.01746e-07
9.91805e-06
-3.61589e-07
9.93622e-06
-2.58369e-07
9.94617e-06
-1.83384e-07
9.95011e-06
-1.30128e-07
9.94981e-06
-9.09239e-08
9.94637e-06
-6.9008e-08
9.94172e-06
-4.2796e-08
9.93496e-06
-7.98475e-08
9.93573e-06
-9.76524e-09
9.92939e-06
-4.23678e-07
9.98102e-06
-1.0895e-07
-2.77309e-06
8.52545e-06
5.16289e-05
6.17319e-06
3.76987e-05
3.01159e-06
2.11199e-05
7.96399e-07
1.13965e-05
-3.41425e-07
2.89092e-06
-8.29596e-07
1.67169e-06
-1.26941e-06
-2.76772e-06
-1.71514e-06
-8.92693e-06
-2.12118e-06
-1.19758e-05
-3.01536e-06
7.84933e-07
-4.43097e-06
2.35292e-05
-5.5987e-06
3.68434e-05
-6.94584e-06
3.67584e-05
-8.94722e-06
3.27269e-05
-1.0904e-05
2.72106e-05
-1.23507e-05
1.91298e-05
-1.30909e-05
9.53306e-06
-1.30545e-05
-5.77234e-07
-1.22463e-05
-1.0356e-05
-1.07108e-05
-1.92161e-05
-8.52682e-06
-2.64418e-05
-5.87049e-06
-3.08497e-05
-3.05991e-06
-3.12178e-05
-5.00768e-07
-2.76217e-05
1.47288e-06
-2.18474e-05
2.74418e-06
-1.61682e-05
3.49676e-06
-1.16572e-05
3.96445e-06
-8.60129e-06
4.30937e-06
-6.73212e-06
4.61465e-06
-5.70991e-06
4.92166e-06
-5.25627e-06
5.25305e-06
-5.14771e-06
5.62001e-06
-5.20733e-06
6.02453e-06
-5.30523e-06
6.46125e-06
-5.35513e-06
6.91903e-06
-5.3057e-06
7.38244e-06
-5.13138e-06
7.83363e-06
-4.82699e-06
8.25488e-06
-4.40554e-06
8.63147e-06
-3.89593e-06
8.95398e-06
-3.33766e-06
9.21922e-06
-2.77295e-06
9.4296e-06
-2.23858e-06
9.59136e-06
-1.76048e-06
9.7125e-06
-1.35234e-06
9.80113e-06
-1.01729e-06
9.86446e-06
-7.51173e-07
9.90844e-06
-5.45722e-07
9.93778e-06
-3.90936e-07
9.95617e-06
-2.76762e-07
9.96646e-06
-1.93669e-07
9.97079e-06
-1.34454e-07
9.97089e-06
-9.10309e-08
9.96785e-06
-6.59672e-08
9.9636e-06
-3.85483e-08
9.95715e-06
-7.33967e-08
9.95825e-06
-1.08584e-08
9.95106e-06
-4.16488e-07
1.00009e-05
-1.58751e-07
-2.78832e-06
8.77902e-06
5.28499e-05
6.70245e-06
3.97753e-05
3.66956e-06
2.41528e-05
1.27751e-06
1.37885e-05
-1.20959e-07
4.28939e-06
-7.25815e-07
2.27655e-06
-1.22094e-06
-2.27259e-06
-1.79929e-06
-8.34858e-06
-2.43083e-06
-1.13443e-05
-3.3517e-06
1.70581e-06
-4.44962e-06
2.46271e-05
-5.36619e-06
3.776e-05
-6.69387e-06
3.80861e-05
-8.68694e-06
3.472e-05
-1.06032e-05
2.91269e-05
-1.20138e-05
2.05403e-05
-1.27316e-05
1.02509e-05
-1.26963e-05
-6.12567e-07
-1.19128e-05
-1.11395e-05
-1.04198e-05
-2.07091e-05
-8.28371e-06
-2.85779e-05
-5.66492e-06
-3.34685e-05
-2.86793e-06
-3.40148e-05
-2.77042e-07
-3.02125e-05
1.77696e-06
-2.39014e-05
3.11383e-06
-1.7505e-05
3.86967e-06
-1.2413e-05
4.29115e-06
-9.02277e-06
4.57492e-06
-7.0159e-06
4.82376e-06
-5.95875e-06
5.08264e-06
-5.51515e-06
5.37267e-06
-5.43774e-06
5.70391e-06
-5.53858e-06
6.07852e-06
-5.67984e-06
6.49191e-06
-5.76852e-06
6.93358e-06
-5.74737e-06
7.3881e-06
-5.5859e-06
7.8367e-06
-5.27558e-06
8.25986e-06
-4.82871e-06
8.64067e-06
-4.27674e-06
8.96769e-06
-3.66468e-06
9.23638e-06
-3.04164e-06
9.44862e-06
-2.45082e-06
9.61083e-06
-1.92269e-06
9.73153e-06
-1.47305e-06
9.81941e-06
-1.10517e-06
9.88207e-06
-8.13831e-07
9.92566e-06
-5.89311e-07
9.95493e-06
-4.2021e-07
9.9735e-06
-2.95336e-07
9.98414e-06
-2.04304e-07
9.98891e-06
-1.39227e-07
9.98951e-06
-9.16305e-08
9.98698e-06
-6.34407e-08
9.98324e-06
-3.48017e-08
9.97727e-06
-6.74295e-08
9.97862e-06
-1.22038e-08
9.97119e-06
-4.09061e-07
1.00182e-05
-2.05743e-07
-2.79288e-06
8.99842e-06
5.38514e-05
7.1881e-06
4.15856e-05
4.32372e-06
2.70172e-05
1.80923e-06
1.6303e-05
1.51616e-07
5.947e-06
-5.87396e-07
3.01556e-06
-1.13418e-06
-1.7258e-06
-1.80373e-06
-7.67903e-06
-2.58861e-06
-1.05594e-05
-3.50752e-06
2.62471e-06
-4.35786e-06
2.54774e-05
-5.10636e-06
3.85085e-05
-6.42989e-06
3.94096e-05
-8.3976e-06
3.66877e-05
-1.02634e-05
3.09926e-05
-1.16289e-05
2.19058e-05
-1.23194e-05
1.09414e-05
-1.22833e-05
-6.48716e-07
-1.15252e-05
-1.18975e-05
-1.00785e-05
-2.21558e-05
-7.99653e-06
-3.06599e-05
-5.42438e-06
-3.60407e-05
-2.65573e-06
-3.67835e-05
-6.49415e-08
-3.28033e-05
2.05288e-06
-2.60192e-05
3.46333e-06
-1.89155e-05
4.24695e-06
-1.31966e-05
4.64011e-06
-9.41593e-06
4.86843e-06
-7.24422e-06
5.06025e-06
-6.15056e-06
5.26901e-06
-5.72391e-06
5.51542e-06
-5.68415e-06
5.80819e-06
-5.83134e-06
6.1494e-06
-6.02105e-06
6.5354e-06
-6.15452e-06
6.95678e-06
-6.16875e-06
7.39862e-06
-6.02775e-06
7.84163e-06
-5.71859e-06
8.26474e-06
-5.25182e-06
8.64879e-06
-4.66079e-06
8.98006e-06
-3.99595e-06
9.2523e-06
-3.31388e-06
9.46659e-06
-2.66511e-06
9.62934e-06
-2.08543e-06
9.74956e-06
-1.59327e-06
9.83653e-06
-1.19213e-06
9.89833e-06
-8.75631e-07
9.94136e-06
-6.3234e-07
9.97043e-06
-4.49281e-07
9.98911e-06
-3.14014e-07
1.00001e-05
-2.15258e-07
1.00053e-05
-1.44451e-07
1.00064e-05
-9.27511e-08
1.00044e-05
-6.14763e-08
1.00012e-05
-3.1603e-08
9.99584e-06
-6.20308e-08
9.99739e-06
-1.37548e-08
9.99005e-06
-4.01716e-07
1.00337e-05
-2.49376e-07
-2.78867e-06
9.18815e-06
5.46633e-05
7.63037e-06
4.31434e-05
4.96428e-06
2.96833e-05
2.38242e-06
1.88849e-05
4.82545e-07
7.84688e-06
-4.10677e-07
3.90878e-06
-1.01612e-06
-1.12036e-06
-1.74555e-06
-6.94961e-06
-2.62183e-06
-9.68311e-06
-3.51754e-06
3.52042e-06
-4.18372e-06
2.61436e-05
-4.82617e-06
3.9151e-05
-6.14943e-06
4.07329e-05
-8.07671e-06
3.8615e-05
-9.88289e-06
3.27988e-05
-1.11961e-05
2.3219e-05
-1.18554e-05
1.16008e-05
-1.18167e-05
-6.87408e-07
-1.10846e-05
-1.26297e-05
-9.68716e-06
-2.35533e-05
-7.66495e-06
-3.26821e-05
-5.14723e-06
-3.85584e-05
-2.41747e-06
-3.95132e-05
1.70203e-07
-3.5391e-05
2.30858e-06
-2.81576e-05
3.78711e-06
-2.0394e-05
4.61639e-06
-1.40259e-05
5.00148e-06
-9.80101e-06
5.18433e-06
-7.42707e-06
5.32094e-06
-6.28717e-06
5.47857e-06
-5.88154e-06
5.67987e-06
-5.88546e-06
5.93226e-06
-6.08372e-06
6.23744e-06
-6.32624e-06
6.59265e-06
-6.50973e-06
6.9899e-06
-6.566e-06
7.41528e-06
-6.45313e-06
7.84951e-06
-6.15282e-06
8.2703e-06
-5.67261e-06
8.65631e-06
-5.0468e-06
8.99138e-06
-4.33102e-06
9.26723e-06
-3.58973e-06
9.48379e-06
-2.88168e-06
9.64726e-06
-2.2489e-06
9.76704e-06
-1.71305e-06
9.85303e-06
-1.27812e-06
9.91383e-06
-9.3643e-07
9.95615e-06
-6.74656e-07
9.98489e-06
-4.78022e-07
1.00036e-05
-3.32704e-07
1.00148e-05
-2.26476e-07
1.00204e-05
-1.501e-07
1.00221e-05
-9.43864e-08
1.00207e-05
-6.00814e-08
1.0018e-05
-2.89633e-08
1.00132e-05
-5.72269e-08
1.0015e-05
-1.54763e-08
1.00078e-05
-3.94581e-07
1.00478e-05
-2.89377e-07
-2.77692e-06
9.35223e-06
5.53111e-05
8.03031e-06
4.44653e-05
5.58347e-06
3.21301e-05
2.98752e-06
2.14808e-05
8.83868e-07
9.95053e-06
-1.92605e-07
4.98526e-06
-8.70819e-07
-4.42145e-07
-1.63932e-06
-6.1811e-06
-2.55933e-06
-8.7631e-06
-3.41716e-06
4.37826e-06
-3.95001e-06
2.66764e-05
-4.52933e-06
3.97303e-05
-5.84884e-06
4.20524e-05
-7.7228e-06
4.04889e-05
-9.46147e-06
3.45375e-05
-1.07167e-05
2.44742e-05
-1.13418e-05
1.22259e-05
-1.1299e-05
-7.30226e-07
-1.05928e-05
-1.33358e-05
-9.24687e-06
-2.48992e-05
-7.28928e-06
-3.46397e-05
-4.83301e-06
-4.10147e-05
-2.15104e-06
-4.21952e-05
4.07883e-07
-3.79499e-05
2.5535e-06
-3.03032e-05
4.08527e-06
-2.19258e-05
4.96897e-06
-1.49096e-05
5.36523e-06
-1.01973e-05
5.51598e-06
-7.57782e-06
5.60199e-06
-6.37318e-06
5.70875e-06
-5.9883e-06
5.86413e-06
-6.04083e-06
6.07497e-06
-6.29457e-06
6.34232e-06
-6.59358e-06
6.66408e-06
-6.83149e-06
7.03384e-06
-6.93576e-06
7.43918e-06
-6.85847e-06
7.86137e-06
-6.57501e-06
8.27731e-06
-6.08855e-06
8.66372e-06
-5.43322e-06
9.0019e-06
-4.66919e-06
9.28128e-06
-3.86911e-06
9.50033e-06
-3.10072e-06
9.66474e-06
-2.41331e-06
9.78421e-06
-1.83252e-06
9.8692e-06
-1.36312e-06
9.92891e-06
-9.96137e-07
9.97039e-06
-7.16135e-07
9.99868e-06
-5.06316e-07
1.00173e-05
-3.51317e-07
1.00287e-05
-2.37895e-07
1.00347e-05
-1.56133e-07
1.00369e-05
-9.65127e-08
1.0036e-05
-5.92422e-08
1.00339e-05
-2.68728e-08
1.00297e-05
-5.30105e-08
1.00316e-05
-1.73369e-08
1.00247e-05
-3.87674e-07
1.00609e-05
-3.25643e-07
-2.75848e-06
9.49429e-06
5.58168e-05
8.38965e-06
4.55699e-05
6.17513e-06
3.43446e-05
3.61432e-06
2.40416e-05
1.34885e-06
1.2216e-05
7.27983e-08
6.26131e-06
-6.9947e-07
3.30124e-07
-1.49614e-06
-5.38443e-06
-2.42607e-06
-7.83317e-06
-3.23673e-06
5.18891e-06
-3.67404e-06
2.71137e-05
-4.21747e-06
4.02737e-05
-5.52547e-06
4.33604e-05
-7.33529e-06
4.22987e-05
-8.9998e-06
3.6202e-05
-1.01928e-05
2.56672e-05
-1.07814e-05
1.28145e-05
-1.0733e-05
-7.78628e-07
-1.00524e-05
-1.40165e-05
-8.75938e-06
-2.61922e-05
-6.87038e-06
-3.65287e-05
-4.48187e-06
-4.34032e-05
-1.85572e-06
-4.48214e-05
6.62697e-07
-4.04683e-05
2.79617e-06
-3.24366e-05
4.36187e-06
-2.34915e-05
5.29955e-06
-1.58473e-05
5.72231e-06
-1.062e-05
5.85609e-06
-7.71161e-06
5.89895e-06
-6.41603e-06
5.9567e-06
-6.04606e-06
6.06608e-06
-6.15021e-06
6.23482e-06
-6.46331e-06
6.46323e-06
-6.82199e-06
6.74962e-06
-7.11789e-06
7.08914e-06
-7.27528e-06
7.47119e-06
-7.24051e-06
7.8781e-06
-6.98192e-06
8.28653e-06
-6.49699e-06
8.67153e-06
-5.81821e-06
9.01189e-06
-5.00956e-06
9.29457e-06
-4.15179e-06
9.51623e-06
-3.32238e-06
9.68182e-06
-2.5789e-06
9.80113e-06
-1.95182e-06
9.88518e-06
-1.44717e-06
9.94374e-06
-1.0547e-06
9.98429e-06
-7.56684e-07
1.0012e-05
-5.34064e-07
1.00305e-05
-3.69768e-07
1.0042e-05
-2.49453e-07
1.00484e-05
-1.62509e-07
1.0051e-05
-9.90996e-08
1.00507e-05
-5.89351e-08
1.00491e-05
-2.53115e-08
1.00455e-05
-4.93573e-08
1.00475e-05
-1.93069e-08
1.00407e-05
-3.80954e-07
1.00733e-05
-3.58174e-07
-2.7339e-06
9.61756e-06
5.61992e-05
8.71059e-06
4.64769e-05
6.73456e-06
3.63207e-05
4.25278e-06
2.65234e-05
1.87168e-06
1.45971e-05
4.09468e-07
7.72353e-06
-4.99259e-07
1.23885e-06
-1.32363e-06
-4.56006e-06
-2.24187e-06
-6.91493e-06
-2.99993e-06
5.94697e-06
-3.36815e-06
2.7482e-05
-3.89096e-06
4.07965e-05
-5.1776e-06
4.46471e-05
-6.91432e-06
4.40355e-05
-8.49934e-06
3.7787e-05
-9.62718e-06
2.67951e-05
-1.01776e-05
1.33649e-05
-1.01223e-05
-8.33933e-07
-9.46643e-06
-1.46724e-05
-8.22701e-06
-2.74316e-05
-6.40958e-06
-3.83462e-05
-4.09434e-06
-4.57184e-05
-1.53149e-06
-4.73842e-05
9.37225e-07
-4.2937e-05
3.04304e-06
-3.45425e-05
4.62275e-06
-2.50712e-05
5.60677e-06
-1.68313e-05
6.06565e-06
-1.10789e-05
6.19736e-06
-7.84332e-06
6.20678e-06
-6.42545e-06
6.21922e-06
-6.0585e-06
6.28341e-06
-6.21439e-06
6.41003e-06
-6.58993e-06
6.59902e-06
-7.01098e-06
6.84881e-06
-7.36768e-06
7.15595e-06
-7.58243e-06
7.51188e-06
-7.59644e-06
7.90047e-06
-7.37051e-06
8.29866e-06
-6.89517e-06
8.68023e-06
-6.19979e-06
9.02164e-06
-5.35096e-06
9.30719e-06
-4.43733e-06
9.5315e-06
-3.5467e-06
9.69849e-06
-2.74589e-06
9.81782e-06
-2.07116e-06
9.90101e-06
-1.53035e-06
9.95842e-06
-1.11211e-06
9.99796e-06
-7.9623e-07
1.00251e-05
-5.61179e-07
1.00433e-05
-3.87981e-07
1.00549e-05
-2.61092e-07
1.00616e-05
-1.69183e-07
1.00646e-05
-1.02116e-07
1.00648e-05
-5.9134e-08
1.00638e-05
-2.42554e-08
1.00606e-05
-4.62362e-08
1.00627e-05
-2.13577e-08
1.00561e-05
-3.7435e-07
1.00849e-05
-3.87023e-07
-2.70362e-06
9.72491e-06
5.64743e-05
8.99574e-06
4.7206e-05
7.25833e-06
3.80581e-05
4.89329e-06
2.88884e-05
2.44228e-06
1.70481e-05
7.93588e-07
9.37222e-06
-2.62063e-07
2.2945e-06
-1.12618e-06
-3.69594e-06
-2.02188e-06
-6.01923e-06
-2.72414e-06
6.64924e-06
-3.04068e-06
2.77985e-05
-3.54957e-06
4.13054e-05
-4.80435e-06
4.59018e-05
-6.46066e-06
4.56918e-05
-7.96208e-06
3.92884e-05
-9.02294e-06
2.78559e-05
-9.53436e-06
1.38763e-05
-9.47098e-06
-8.9731e-07
-8.83858e-06
-1.53048e-05
-7.65257e-06
-2.86176e-05
-5.90871e-06
-4.009e-05
-3.67135e-06
-4.79558e-05
-1.1787e-06
-4.98769e-05
1.23236e-06
-4.53481e-05
3.29839e-06
-3.66085e-05
4.87391e-06
-2.66467e-05
5.89211e-06
-1.78495e-05
6.3907e-06
-1.15775e-05
6.53315e-06
-7.98577e-06
6.52018e-06
-6.41248e-06
6.49282e-06
-6.03114e-06
6.51368e-06
-6.23525e-06
6.59873e-06
-6.67497e-06
6.74832e-06
-7.16057e-06
6.96087e-06
-7.58023e-06
7.23413e-06
-7.85569e-06
7.5616e-06
-7.9239e-06
7.9291e-06
-7.73801e-06
8.31435e-06
-7.28043e-06
8.69036e-06
-6.5758e-06
9.03145e-06
-5.69205e-06
9.31927e-06
-4.72516e-06
9.54617e-06
-3.7736e-06
9.71471e-06
-2.91443e-06
9.83427e-06
-2.19072e-06
9.9167e-06
-1.61279e-06
9.97296e-06
-1.16837e-06
1.00115e-05
-8.34725e-07
1.00379e-05
-5.87589e-07
1.00558e-05
-4.05886e-07
1.00674e-05
-2.72755e-07
1.00744e-05
-1.76116e-07
1.00778e-05
-1.0553e-07
1.00785e-05
-5.98126e-08
1.00779e-05
-2.36801e-08
1.00753e-05
-4.36142e-08
1.00774e-05
-2.34624e-08
1.00708e-05
-3.67786e-07
1.00961e-05
-4.12277e-07
-2.66793e-06
9.81885e-06
5.66555e-05
9.24795e-06
4.77769e-05
7.74417e-06
3.95619e-05
5.52702e-06
3.11056e-05
3.05064e-06
1.95245e-05
1.23168e-06
1.11912e-05
2.43005e-08
3.50188e-06
-9.05333e-07
-2.76631e-06
-1.77697e-06
-5.1476e-06
-2.42155e-06
7.29382e-06
-2.69698e-06
2.80739e-05
-3.19287e-06
4.18013e-05
-4.4055e-06
4.71145e-05
-5.9755e-06
4.72618e-05
-7.39042e-06
4.07033e-05
-8.38352e-06
2.88491e-05
-8.85556e-06
1.43484e-05
-8.78311e-06
-9.69766e-07
-8.17269e-06
-1.59152e-05
-7.0392e-06
-2.97511e-05
-5.36996e-06
-4.17593e-05
-3.21416e-06
-5.01116e-05
-7.97961e-07
-5.22931e-05
1.54816e-06
-4.76942e-05
3.5647e-06
-3.8625e-05
5.12056e-06
-2.82026e-05
6.15877e-06
-1.88877e-05
6.69536e-06
-1.21141e-05
6.8581e-06
-8.14851e-06
6.83394e-06
-6.38832e-06
6.77376e-06
-5.97096e-06
6.75432e-06
-6.21581e-06
6.79895e-06
-6.7196e-06
6.90961e-06
-7.27123e-06
7.08482e-06
-7.75544e-06
7.32326e-06
-8.09413e-06
7.62045e-06
-8.22109e-06
7.96441e-06
-8.08198e-06
8.33415e-06
-7.65017e-06
8.7024e-06
-6.94404e-06