/*--------------------------------*- C++ -*----------------------------------*\
| =========                 |                                                 |
| \\      /  F ield         | OpenFOAM: The Open Source CFD Toolbox           |
|  \\    /   O peration     | Version:  2.4.0                                 |
|   \\  /    A nd           | Web:      www.OpenFOAM.org                      |
|    \\/     M anipulation  |                                                 |
\*---------------------------------------------------------------------------*/
FoamFile
{
    version     2.0;
    format      ascii;
    class       volScalarField;
    location    "2.21";
    object      p;
}
// * * * * * * * * * * * * * * * * * * * * * * * * * * * * * * * * * * * * * //

dimensions      [0 2 -2 0 0 0 0];

internalField   nonuniform List<scalar> 
6000
(
-0.0853789
0.271571
0.228773
0.248566
0.241115
0.246253
0.243067
0.24428
0.24174
0.243606
0.249362
0.254067
0.227479
0.185703
0.178847
0.195891
0.202674
0.188696
0.143355
0.0730427
0.00781088
-0.0374015
-0.0578395
-0.0536733
-0.0269695
0.0186133
0.0786174
0.147964
0.221068
0.2915
0.352576
0.399282
0.429898
0.44561
0.450235
0.447855
0.441872
0.434453
0.426774
0.419381
0.41252
0.406262
0.400565
0.395291
0.390244
0.385186
0.379847
0.373942
0.367182
0.359266
0.349858
0.338572
0.324904
0.308283
0.287683
0.262492
0.22931
0.190924
0.126556
0.0826167
-0.0590434
0.268159
0.228855
0.248419
0.241132
0.246232
0.243088
0.244303
0.241726
0.243384
0.248834
0.2534
0.227163
0.185577
0.178574
0.195821
0.202981
0.189812
0.144729
0.0734046
0.00712306
-0.0384849
-0.0591403
-0.0552177
-0.0285463
0.0171105
0.0771662
0.146615
0.219877
0.29053
0.351864
0.398818
0.429636
0.445473
0.450135
0.447748
0.441736
0.434286
0.42658
0.419192
0.412338
0.406082
0.400359
0.395096
0.390048
0.384981
0.379624
0.373693
0.366899
0.358939
0.349478
0.338127
0.324382
0.307666
0.286952
0.261617
0.228275
0.189614
0.125126
0.0807388
-0.042155
0.264711
0.228882
0.248336
0.24113
0.246223
0.2431
0.24432
0.241694
0.243177
0.248289
0.252688
0.226641
0.18503
0.178115
0.195795
0.203305
0.189969
0.143552
0.0714369
0.0053869
-0.0398166
-0.0603515
-0.0563272
-0.0298768
0.0156352
0.0756637
0.145162
0.218558
0.289434
0.351054
0.398287
0.429301
0.445267
0.449983
0.447613
0.441601
0.434155
0.426465
0.419075
0.412212
0.405962
0.400292
0.394989
0.389932
0.384856
0.379487
0.373541
0.366729
0.358748
0.349262
0.337883
0.324104
0.307348
0.286589
0.261191
0.227791
0.18897
0.124489
0.079855
-0.0299316
0.260864
0.229103
0.248239
0.241119
0.246211
0.243121
0.244333
0.241641
0.242938
0.247766
0.252085
0.226185
0.184379
0.177503
0.195722
0.203469
0.189182
0.140491
0.0682975
0.00325864
-0.041401
-0.0618954
-0.0580336
-0.0315897
0.0138977
0.0739638
0.143565
0.217143
0.288289
0.350235
0.39777
0.428982
0.445072
0.449829
0.447465
0.441443
0.433984
0.426277
0.418879
0.412035
0.405786
0.400077
0.394811
0.389756
0.384673
0.37929
0.373326
0.366488
0.358475
0.34895
0.337525
0.323691
0.306868
0.286028
0.260533
0.227001
0.188058
0.123318
0.0788619
-0.018125
0.256741
0.229486
0.248145
0.241108
0.246197
0.243147
0.244343
0.241569
0.242658
0.247231
0.251528
0.225805
0.18368
0.176739
0.195552
0.20329
0.187489
0.136616
0.0648335
0.000948319
-0.0432764
-0.0637256
-0.059829
-0.0335323
0.0119676
0.0720991
0.141819
0.215593
0.287028
0.349325
0.397196
0.428644
0.444885
0.449689
0.447326
0.441286
0.433811
0.426099
0.418712
0.411861
0.405619
0.399927
0.394648
0.389587
0.384495
0.379098
0.373114
0.366251
0.358208
0.348647
0.33718
0.323297
0.306418
0.285509
0.259931
0.226303
0.187224
0.122434
0.0779565
-0.00654216
0.252504
0.229984
0.248038
0.241105
0.246183
0.243178
0.244353
0.241479
0.242327
0.246641
0.250923
0.225447
0.182971
0.175862
0.195257
0.20268
0.184964
0.132311
0.0611929
-0.00160706
-0.0454791
-0.065854
-0.0619814
-0.0357049
0.00981666
0.0700171
0.139855
0.21383
0.285572
0.348255
0.396508
0.428239
0.444669
0.449541
0.447184
0.441129
0.433635
0.425913
0.418516
0.411675
0.405438
0.399751
0.394477
0.389414
0.384314
0.378904
0.372899
0.366011
0.357937
0.348339
0.336829
0.322895
0.305955
0.284973
0.259307
0.225566
0.186371
0.121373
0.0770924
0.00419551
0.248254
0.230518
0.247904
0.241116
0.246168
0.243216
0.244365
0.241372
0.241941
0.245978
0.250209
0.225094
0.182307
0.174931
0.194807
0.201624
0.181743
0.127637
0.0573914
-0.00446208
-0.0479889
-0.0682534
-0.0643843
-0.0381128
0.0074339
0.0677013
0.137654
0.211832
0.283901
0.347004
0.395684
0.427744
0.444402
0.449366
0.447027
0.44096
0.433452
0.42572
0.418323
0.411484
0.405254
0.399573
0.394303
0.38924
0.384134
0.378711
0.372688
0.365775
0.35767
0.348035
0.336481
0.322496
0.305495
0.28444
0.258689
0.224835
0.185533
0.120362
0.0762999
0.0140311
0.244064
0.231013
0.247751
0.241135
0.246154
0.24326
0.24438
0.241249
0.241499
0.245205
0.249394
0.224744
0.181752
0.174012
0.194179
0.200169
0.178009
0.1227
0.0534564
-0.00759953
-0.0507648
-0.0708968
-0.0670176
-0.0407467
0.00482703
0.0651588
0.135222
0.209607
0.282021
0.345575
0.394722
0.427147
0.444072
0.449156
0.446847
0.440774
0.433255
0.425517
0.418119
0.411285
0.405062
0.399391
0.394126
0.389065
0.383954
0.37852
0.37248
0.365543
0.357408
0.347737
0.336141
0.322105
0.305045
0.283919
0.258084
0.224119
0.184719
0.119381
0.075567
0.0231944
0.239998
0.231419
0.247596
0.241152
0.246143
0.243311
0.2444
0.241113
0.241005
0.244311
0.248496
0.224398
0.181372
0.173189
0.193383
0.198414
0.17394
0.117651
0.0494045
-0.0109728
-0.0537679
-0.0737567
-0.0698598
-0.0435877
0.00201349
0.0624062
0.132575
0.207169
0.279942
0.343973
0.393624
0.426445
0.443669
0.4489
0.446637
0.440565
0.433041
0.4253
0.417905
0.411077
0.404865
0.399203
0.393947
0.388889
0.383776
0.378332
0.372274
0.365314
0.35715
0.347445
0.335807
0.321723
0.304606
0.28341
0.257494
0.223424
0.18393
0.118442
0.0748879
0.0318401
0.236095
0.231713
0.247439
0.241163
0.246135
0.243368
0.244426
0.240968
0.240466
0.243307
0.247529
0.224055
0.181232
0.172557
0.192507
0.196425
0.169684
0.112604
0.0452501
-0.014536
-0.0569631
-0.0768051
-0.0728869
-0.0466136
-0.000985889
0.0594636
0.129732
0.204533
0.277677
0.34221
0.392384
0.425649
0.443189
0.448591
0.446391
0.44033
0.432805
0.425068
0.417679
0.410861
0.40466
0.399011
0.393765
0.388711
0.383596
0.378143
0.37207
0.365088
0.356896
0.347157
0.335479
0.321348
0.304175
0.282912
0.256919
0.222749
0.183167
0.117549
0.0742518
0.0400211
0.232377
0.231889
0.247261
0.241197
0.24613
0.243431
0.244458
0.240817
0.239889
0.242209
0.246487
0.223743
0.181392
0.172212
0.191677
0.194271
0.165349
0.107624
0.0410171
-0.0182476
-0.060317
-0.0800137
-0.0760737
-0.0498009
-0.00414869
0.0563525
0.126713
0.201719
0.275242
0.340295
0.391019
0.424751
0.442627
0.448223
0.446103
0.440063
0.432546
0.424818
0.41744
0.410635
0.404448
0.398813
0.393579
0.388531
0.383415
0.377955
0.371867
0.364863
0.356644
0.346872
0.335155
0.320978
0.303752
0.282425
0.256356
0.222092
0.182425
0.116702
0.0736488
0.047766
0.228859
0.231948
0.24706
0.241263
0.246126
0.243499
0.244496
0.240663
0.239287
0.241039
0.245367
0.223515
0.181911
0.172255
0.19101
0.192048
0.161022
0.102754
0.0367359
-0.0220686
-0.0637966
-0.0833535
-0.0793944
-0.0531252
-0.00745169
0.0530953
0.123538
0.198744
0.272651
0.338241
0.389535
0.423756
0.441983
0.447789
0.445767
0.439761
0.43226
0.424548
0.417188
0.410399
0.40423
0.398611
0.393389
0.388349
0.383233
0.377766
0.371663
0.364639
0.356393
0.346588
0.334834
0.320613
0.303334
0.281945
0.255804
0.221451
0.181702
0.115896
0.0730715
0.0551102
0.22555
0.231898
0.246828
0.241365
0.246117
0.243574
0.244539
0.240511
0.238671
0.239818
0.244183
0.223431
0.182854
0.172806
0.190611
0.189868
0.156784
0.098024
0.032439
-0.0259613
-0.0673696
-0.0867961
-0.0828232
-0.0565622
-0.0108714
0.049715
0.120231
0.195629
0.269921
0.336059
0.387939
0.422667
0.441257
0.447287
0.445378
0.439418
0.431943
0.424256
0.41692
0.410154
0.404004
0.398404
0.393196
0.388165
0.38305
0.377576
0.371459
0.364415
0.356142
0.346306
0.334515
0.32025
0.302922
0.281473
0.255261
0.220825
0.180997
0.115128
0.0725144
0.0620887
0.222457
0.231748
0.246558
0.241499
0.246094
0.243655
0.244585
0.240364
0.238052
0.23857
0.242956
0.223486
0.184321
0.174023
0.190593
0.187831
0.152701
0.0934609
0.0281586
-0.0298902
-0.071005
-0.0903136
-0.0863346
-0.0600879
-0.0143844
0.0462344
0.116813
0.192393
0.267068
0.33376
0.386239
0.421488
0.44045
0.446715
0.444932
0.439032
0.431593
0.42394
0.416636
0.409898
0.403772
0.398192
0.393001
0.387979
0.382866
0.377385
0.371255
0.36419
0.355892
0.346025
0.334197
0.319891
0.302513
0.281006
0.254726
0.220212
0.180308
0.114397
0.0719734
0.0687294
0.219582
0.231509
0.246246
0.241652
0.246065
0.24374
0.244636
0.240224
0.237441
0.237316
0.241709
0.22377
0.186346
0.176064
0.191073
0.186018
0.148831
0.0890836
0.0239262
-0.0338217
-0.0746729
-0.0938791
-0.089904
-0.0636787
-0.0179679
0.0426763
0.113306
0.189056
0.264107
0.331356
0.384441
0.420221
0.439561
0.446069
0.444425
0.438598
0.431207
0.423598
0.416336
0.409633
0.403535
0.397977
0.392803
0.387792
0.382681
0.377195
0.371051
0.363966
0.355643
0.345745
0.333882
0.319534
0.302108
0.280545
0.254199
0.219611
0.179634
0.113698
0.0714458
0.0750541
0.216923
0.231193
0.245891
0.241807
0.246042
0.243822
0.24469
0.240093
0.236846
0.236075
0.240463
0.224303
0.18903
0.179
0.192103
0.184482
0.145218
0.0849077
0.0197717
-0.0377249
-0.0783454
-0.0974671
-0.0935076
-0.0673119
-0.0215995
0.0390628
0.109731
0.185639
0.261055
0.328859
0.382553
0.418868
0.438592
0.44535
0.443854
0.438114
0.430783
0.423229
0.416018
0.409357
0.403292
0.39776
0.392605
0.387604
0.382496
0.377004
0.370847
0.363743
0.355394
0.345466
0.333567
0.319179
0.301707
0.28009
0.25368
0.219022
0.178973
0.113029
0.0709294
0.0810814
0.214476
0.230814
0.245495
0.241955
0.246027
0.243897
0.244748
0.239973
0.236274
0.234863
0.239237
0.225081
0.192413
0.182842
0.193692
0.18326
0.141895
0.0809462
0.0157229
-0.0415714
-0.0819958
-0.101053
-0.0971226
-0.0709656
-0.025258
0.0354151
0.10611
0.182161
0.257929
0.32628
0.380582
0.417432
0.437542
0.444555
0.443217
0.437577
0.430319
0.422832
0.415683
0.409072
0.403045
0.397541
0.392406
0.387417
0.382312
0.376814
0.370644
0.363519
0.355145
0.345187
0.333255
0.318827
0.301309
0.279639
0.253168
0.218444
0.178327
0.112388
0.0704229
0.086828
0.212236
0.230383
0.245061
0.242088
0.24602
0.243962
0.244811
0.239865
0.235732
0.233695
0.238045
0.226076
0.196458
0.187547
0.195835
0.182367
0.138882
0.0772105
0.0118053
-0.0453349
-0.0855996
-0.104614
-0.100727
-0.0746189
-0.0289227
0.0317538
0.102463
0.178641
0.254744
0.323628
0.378533
0.415913
0.436409
0.443684
0.442513
0.436985
0.429814
0.422406
0.415329
0.408779
0.402795
0.397321
0.392208
0.387231
0.382129
0.376625
0.370441
0.363297
0.354898
0.34491
0.332944
0.318478
0.300915
0.279194
0.252663
0.217877
0.177693
0.111775
0.0699252
0.0923088
0.210196
0.229913
0.244594
0.242203
0.246018
0.244024
0.244873
0.239772
0.235222
0.232581
0.236903
0.227252
0.201077
0.193009
0.1985
0.181809
0.136193
0.0737099
0.00804155
-0.048992
-0.0891338
-0.108128
-0.1043
-0.0782517
-0.032574
0.0280985
0.0988097
0.175098
0.251517
0.320915
0.376412
0.414314
0.435194
0.442734
0.441739
0.436337
0.429267
0.42195
0.414958
0.408476
0.402542
0.397103
0.392012
0.387047
0.381948
0.376438
0.37024
0.363076
0.354652
0.344635
0.332635
0.318131
0.300525
0.278755
0.252165
0.217321
0.177073
0.111187
0.0694358
0.0975375
0.20835
0.229416
0.2441
0.242295
0.246016
0.244093
0.244925
0.239694
0.234749
0.231531
0.235821
0.228565
0.206146
0.199075
0.201626
0.181576
0.133831
0.0704524
0.00445175
-0.0525214
-0.092577
-0.111574
-0.107823
-0.0818447
-0.0361932
0.0244679
0.0951688
0.171549
0.248262
0.31815
0.374226
0.412634
0.433895
0.441703
0.440895
0.435631
0.428677
0.421465
0.414569
0.408166
0.402289
0.396887
0.391819
0.386867
0.38177
0.376253
0.370041
0.362857
0.354407
0.344362
0.332328
0.317787
0.300138
0.278321
0.251675
0.216776
0.176466
0.110623
0.0689543
0.102527
0.206687
0.228901
0.243584
0.242361
0.246008
0.244173
0.244961
0.239633
0.234314
0.230553
0.234808
0.229971
0.211528
0.205571
0.205129
0.181652
0.13179
0.0674441
0.00105322
-0.0559041
-0.0959095
-0.114933
-0.111274
-0.0853793
-0.0397622
0.0208796
0.0915579
0.168013
0.244994
0.315344
0.371977
0.410876
0.432511
0.440589
0.439978
0.434867
0.428043
0.42095
0.414162
0.407849
0.402035
0.396674
0.39163
0.38669
0.381595
0.376071
0.369845
0.36264
0.354165
0.34409
0.332024
0.317446
0.299756
0.277892
0.251192
0.216242
0.175872
0.110082
0.0684804
0.107288
0.205201
0.228379
0.243052
0.2424
0.245992
0.244263
0.244981
0.239586
0.23392
0.229653
0.233873
0.23143
0.21708
0.21232
0.208918
0.182014
0.130064
0.0646892
-0.0021393
-0.0591229
-0.0991129
-0.118187
-0.114637
-0.0888376
-0.0432637
0.0173508
0.0879942
0.164507
0.241725
0.312509
0.369669
0.409038
0.431038
0.43939
0.438987
0.434043
0.427365
0.420405
0.413739
0.407526
0.401782
0.396465
0.391447
0.386519
0.381425
0.375894
0.369652
0.362426
0.353926
0.343821
0.331723
0.317109
0.299378
0.277469
0.250717
0.215719
0.175291
0.109564
0.068014
0.111832
0.20388
0.227858
0.242512
0.24241
0.245964
0.244357
0.244987
0.239547
0.233569
0.228835
0.233021
0.232906
0.222672
0.219157
0.212903
0.182635
0.128638
0.0621906
-0.00511359
-0.0621629
-0.10217
-0.121317
-0.117894
-0.092202
-0.0466809
0.0138976
0.0844937
0.161046
0.238464
0.309656
0.367308
0.407121
0.429475
0.438103
0.437919
0.43316
0.426644
0.419832
0.413298
0.407196
0.401531
0.396262
0.391271
0.386354
0.381261
0.37572
0.369463
0.362215
0.353689
0.343556
0.331425
0.316776
0.299005
0.277053
0.250249
0.215207
0.174723
0.109068
0.067555
0.11617
0.202716
0.227344
0.241968
0.242393
0.245923
0.244453
0.244983
0.239518
0.233258
0.228105
0.232256
0.234371
0.228189
0.22594
0.216997
0.183485
0.127497
0.0599492
-0.00785971
-0.0650109
-0.105067
-0.124307
-0.121027
-0.0954554
-0.0499975
0.0105356
0.0810718
0.157645
0.235225
0.306794
0.364896
0.405125
0.42782
0.436725
0.436772
0.432215
0.42588
0.41923
0.412842
0.406861
0.401282
0.396066
0.391102
0.386197
0.381102
0.375552
0.369278
0.362008
0.353456
0.343293
0.331131
0.316446
0.298637
0.276643
0.24979
0.214706
0.174169
0.108593
0.0671034
0.120312
0.201699
0.226843
0.241426
0.24235
0.245868
0.244546
0.24497
0.239494
0.232987
0.227467
0.231583
0.235802
0.233539
0.23255
0.221123
0.184534
0.126624
0.0579642
-0.0103699
-0.0676551
-0.107787
-0.127141
-0.124019
-0.0985811
-0.0531975
0.00728
0.077742
0.154315
0.232024
0.303929
0.362437
0.403049
0.426069
0.435253
0.435545
0.431208
0.425072
0.4186
0.412371
0.406521
0.401036
0.395877
0.390942
0.386047
0.380951
0.37539
0.369098
0.361806
0.353227
0.343035
0.33084
0.316122
0.298274
0.276239
0.249339
0.214217
0.173627
0.108137
0.0666593
0.124267
0.200821
0.226361
0.240891
0.242283
0.245799
0.244631
0.244951
0.239474
0.232757
0.226928
0.231002
0.237183
0.238645
0.238895
0.225217
0.18575
0.126
0.0562337
-0.0126382
-0.0700856
-0.110318
-0.129805
-0.126854
-0.101562
-0.0562651
0.00414537
0.0745169
0.151068
0.228875
0.301069
0.359932
0.40089
0.42422
0.433685
0.434235
0.430139
0.424221
0.417944
0.411885
0.406176
0.400793
0.395695
0.390792
0.385907
0.380808
0.375235
0.368924
0.361608
0.353002
0.342781
0.330555
0.315802
0.297917
0.275842
0.248897
0.213738
0.173099
0.107702
0.0662226
0.128045
0.200071
0.2259
0.240367
0.242197
0.245716
0.244705
0.244926
0.239456
0.23257
0.226489
0.230517
0.238502
0.243455
0.244907
0.229222
0.187103
0.125605
0.0547539
-0.0146606
-0.0722938
-0.112649
-0.132284
-0.129517
-0.104383
-0.0591848
0.00114621
0.0714343
0.147892
0.225788
0.298219
0.357385
0.398649
0.422269
0.432016
0.432841
0.429005
0.423327
0.417261
0.411385
0.405828
0.400554
0.395522
0.390651
0.385776
0.380673
0.375087
0.368756
0.361416
0.352783
0.342532
0.330274
0.315487
0.297566
0.275453
0.248463
0.213272
0.172585
0.107285
0.0657935
0.131654
0.199441
0.225464
0.239858
0.242093
0.245622
0.244768
0.244896
0.23944
0.232426
0.226149
0.230135
0.239755
0.247931
0.250537
0.233097
0.188563
0.125422
0.0535203
-0.0164345
-0.0742722
-0.114767
-0.134564
-0.131992
-0.107027
-0.0619414
-0.0017031
0.068479
0.144827
0.222773
0.295387
0.354797
0.396322
0.420213
0.430243
0.431359
0.427808
0.42239
0.416552
0.410873
0.405476
0.400318
0.395358
0.390521
0.385656
0.380547
0.374947
0.368595
0.36123
0.352569
0.342288
0.329998
0.315179
0.297222
0.275071
0.248038
0.212816
0.172084
0.106886
0.065372
0.135104
0.198922
0.225054
0.239367
0.241976
0.245517
0.244817
0.244858
0.239428
0.232322
0.2259
0.22987
0.24094
0.252048
0.255755
0.236805
0.190103
0.12543
0.0525268
-0.0179589
-0.076015
-0.116664
-0.136633
-0.134264
-0.109479
-0.0645196
-0.00438745
0.0656625
0.141884
0.219838
0.292577
0.352168
0.393908
0.418047
0.428364
0.429787
0.426545
0.421412
0.415819
0.410348
0.405122
0.400087
0.395202
0.390401
0.385546
0.380431
0.374815
0.368442
0.361051
0.352361
0.34205
0.329729
0.314876
0.296884
0.274697
0.247623
0.212373
0.171596
0.106506
0.0649582
0.138401
0.198506
0.224673
0.238897
0.241848
0.245404
0.244853
0.244813
0.239421
0.232258
0.225741
0.229734
0.242056
0.255795
0.260543
0.240321
0.191695
0.125612
0.0517668
-0.0192341
-0.0775171
-0.11833
-0.138479
-0.136319
-0.111723
-0.0669042
-0.00689572
0.0630003
0.139072
0.216991
0.289794
0.349501
0.391404
0.415768
0.426373
0.428124
0.425215
0.420391
0.415062
0.409813
0.404765
0.399861
0.395055
0.390292
0.385447
0.380326
0.374692
0.368296
0.360878
0.35216
0.341819
0.329466
0.31458
0.296553
0.274331
0.247217
0.211941
0.171123
0.106143
0.0645523
0.141555
0.198186
0.22432
0.238449
0.241714
0.245285
0.244876
0.24476
0.239422
0.232231
0.225673
0.22973
0.243108
0.259169
0.264895
0.243624
0.193317
0.125947
0.0512323
-0.0202613
-0.0787746
-0.119758
-0.14009
-0.138143
-0.113744
-0.0690799
-0.00921479
0.0605049
0.136401
0.214241
0.287043
0.346794
0.388808
0.413372
0.424268
0.426367
0.423819
0.419329
0.414283
0.409267
0.404406
0.399639
0.394916
0.390194
0.38536
0.38023
0.374578
0.368158
0.360713
0.351966
0.341594
0.329209
0.314291
0.29623
0.273974
0.246822
0.211522
0.170663
0.105797
0.0641544
0.144572
0.197953
0.223997
0.238025
0.241577
0.245162
0.244888
0.244701
0.239431
0.232243
0.225696
0.229843
0.244117
0.262175
0.268811
0.246699
0.194945
0.126415
0.050914
-0.0210413
-0.079784
-0.120939
-0.141456
-0.139723
-0.115528
-0.0710315
-0.0113309
0.0581875
0.133879
0.211595
0.284327
0.344048
0.386115
0.410855
0.422045
0.424513
0.422356
0.418225
0.413482
0.408712
0.404047
0.399421
0.394787
0.390107
0.385284
0.380146
0.374475
0.36803
0.360556
0.351779
0.341377
0.32896
0.31401
0.295915
0.273626
0.246437
0.211116
0.170217
0.105468
0.0637647
0.14746
0.197801
0.223704
0.237626
0.241439
0.245038
0.244892
0.244636
0.23945
0.232293
0.225809
0.230052
0.245114
0.264821
0.272294
0.249534
0.19653
0.127027
0.0508001
-0.0215751
-0.080542
-0.121867
-0.142567
-0.141047
-0.117059
-0.0727433
-0.0132312
0.0560587
0.131518
0.209059
0.28165
0.341262
0.383324
0.408211
0.419699
0.42256
0.420824
0.417082
0.412661
0.408149
0.403688
0.399209
0.394666
0.390031
0.385219
0.380072
0.374381
0.36791
0.360408
0.3516
0.341167
0.328719
0.313737
0.295609
0.273288
0.246063
0.210722
0.169786
0.105154
0.0633833
0.150224
0.197723
0.223441
0.237252
0.241303
0.244915
0.244888
0.244568
0.239478
0.232382
0.226012
0.230352
0.246106
0.267119
0.275353
0.252116
0.19808
0.127737
0.0508787
-0.021866
-0.0810447
-0.122535
-0.143414
-0.142102
-0.118323
-0.0742016
-0.0149039
0.0541289
0.129324
0.20664
0.279013
0.338435
0.38043
0.405438
0.417227
0.420505
0.419223
0.415898
0.41182
0.40758
0.403329
0.399002
0.394554
0.389966
0.385166
0.380009
0.374297
0.367799
0.360268
0.35143
0.340965
0.328486
0.313472
0.295312
0.272959
0.245699
0.210341
0.169369
0.104857
0.0630105
0.152872
0.197714
0.223206
0.236904
0.241171
0.244796
0.244881
0.244501
0.239517
0.232511
0.2263
0.230745
0.247096
0.26908
0.277998
0.254438
0.199571
0.128531
0.0511396
-0.0219186
-0.0812911
-0.122938
-0.143988
-0.142878
-0.119306
-0.0753939
-0.0163376
0.0524082
0.127307
0.204344
0.27642
0.335567
0.377431
0.402529
0.414623
0.418346
0.417552
0.414675
0.410961
0.407004
0.402972
0.398801
0.394451
0.38991
0.385123
0.379957
0.374223
0.367698
0.360137
0.351268
0.340772
0.328261
0.313216
0.295024
0.272641
0.245348
0.209973
0.168966
0.104576
0.0626464
0.15541
0.197767
0.223
0.236583
0.241045
0.244682
0.244872
0.244437
0.239569
0.232682
0.22667
0.23123
0.248074
0.270735
0.280254
0.256482
0.20098
0.129397
0.0515732
-0.0217384
-0.0812814
-0.123072
-0.14428
-0.143362
-0.119996
-0.0763084
-0.0175219
0.0509062
0.125475
0.202176
0.273872
0.332655
0.374321
0.39948
0.411885
0.41608
0.41581
0.413413
0.410084
0.406424
0.402616
0.398606
0.394356
0.389866
0.385092
0.379916
0.37416
0.367607
0.360015
0.351115
0.340588
0.328046
0.31297
0.294746
0.272333
0.245008
0.209618
0.168579
0.10431
0.0622913
0.157842
0.197876
0.222823
0.236287
0.240927
0.244575
0.244864
0.24438
0.239637
0.232893
0.227119
0.231802
0.249033
0.272172
0.282118
0.258222
0.202294
0.13032
0.0521693
-0.0213314
-0.0810156
-0.122931
-0.144284
-0.143545
-0.120383
-0.0769345
-0.0184467
0.0496323
0.123836
0.200141
0.271371
0.329698
0.371099
0.396287
0.409006
0.413703
0.413997
0.412114
0.409191
0.40584
0.402265
0.398418
0.39427
0.389831
0.385072
0.379886
0.374108
0.367526
0.359903
0.350971
0.340412
0.32784
0.312733
0.294478
0.272036
0.24468
0.209278
0.168206
0.104059
0.0619454
0.160175
0.198038
0.222672
0.236017
0.240819
0.244477
0.244859
0.244334
0.239721
0.233146
0.227642
0.232457
0.249972
0.273411
0.283617
0.25966
0.203499
0.131284
0.0529173
-0.0207037
-0.0804947
-0.122513
-0.143992
-0.143419
-0.120456
-0.0772622
-0.0191029
0.0485953
0.122396
0.198244
0.268917
0.326694
0.36776
0.392943
0.405981
0.411211
0.412111
0.410777
0.408284
0.405254
0.401917
0.398237
0.394193
0.389807
0.385062
0.379867
0.374066
0.367455
0.359801
0.350837
0.340247
0.327643
0.312506
0.294221
0.271751
0.244365
0.208951
0.167849
0.103823
0.0616089
0.162412
0.198247
0.222549
0.235772
0.24072
0.244389
0.244859
0.244301
0.239825
0.23344
0.228233
0.23319
0.250891
0.27447
0.284764
0.260809
0.204585
0.132276
0.0538066
-0.0198619
-0.07972
-0.121815
-0.143398
-0.142975
-0.120208
-0.077283
-0.0194819
0.0478035
0.121164
0.196489
0.266511
0.323641
0.3643
0.389445
0.402805
0.408601
0.410151
0.409403
0.407363
0.404667
0.401574
0.398063
0.394125
0.389792
0.385063
0.379858
0.374034
0.367394
0.359709
0.350713
0.340091
0.327457
0.312289
0.293974
0.271478
0.244063
0.208639
0.167507
0.103602
0.0612822
0.164559
0.198499
0.222451
0.235551
0.240633
0.244313
0.244866
0.244284
0.239952
0.233776
0.228889
0.233991
0.251786
0.275362
0.285581
0.261681
0.205541
0.133283
0.0548266
-0.018813
-0.0786933
-0.120835
-0.142498
-0.142207
-0.119629
-0.0769892
-0.019576
0.047265
0.120146
0.19488
0.264153
0.320539
0.360717
0.385785
0.399471
0.405868
0.408115
0.407994
0.40643
0.404081
0.401237
0.397898
0.394066
0.389788
0.385074
0.37986
0.374013
0.367344
0.359626
0.350599
0.339946
0.327281
0.312084
0.29374
0.271216
0.243774
0.208341
0.167181
0.103396
0.0609654
0.16662
0.198789
0.222379
0.235355
0.240557
0.244248
0.244882
0.244284
0.240103
0.234154
0.229601
0.23485
0.252655
0.276096
0.286093
0.262287
0.206361
0.134293
0.0559664
-0.0175642
-0.0774172
-0.119571
-0.141287
-0.141108
-0.118715
-0.0763743
-0.0193784
0.046987
0.119347
0.193419
0.261845
0.317385
0.357005
0.381958
0.395973
0.403008
0.406002
0.40655
0.405487
0.403496
0.400908
0.397742
0.394017
0.389793
0.385095
0.379872
0.374002
0.367303
0.359554
0.350495
0.339811
0.327115
0.311889
0.293516
0.270968
0.243499
0.208058
0.16687
0.103204
0.0606588
0.1686
0.199115
0.222332
0.235182
0.240493
0.244195
0.244907
0.244304
0.24028
0.234571
0.230365
0.235755
0.253491
0.276677
0.286327
0.262636
0.20704
0.135293
0.0572154
-0.0161234
-0.075895
-0.118022
-0.139764
-0.139675
-0.11746
-0.075433
-0.0188832
0.0469765
0.118775
0.192109
0.259586
0.314178
0.353163
0.377958
0.392302
0.400014
0.40381
0.405072
0.404534
0.402914
0.400586
0.397596
0.393978
0.389808
0.385126
0.379894
0.374001
0.367273
0.359492
0.350402
0.339687
0.326961
0.311706
0.293305
0.270732
0.243238
0.207791
0.166576
0.103027
0.0603627
0.170501
0.199472
0.222309
0.235033
0.240441
0.244156
0.244943
0.244343
0.240483
0.235027
0.231174
0.236693
0.25429
0.277108
0.286306
0.262736
0.207577
0.136274
0.0585627
-0.0144987
-0.0741305
-0.11619
-0.137924
-0.137905
-0.115859
-0.0741615
-0.0180852
0.0472398
0.118433
0.190953
0.257376
0.310918
0.349187
0.373777
0.388451
0.396879
0.401536
0.403559
0.403574
0.402337
0.400274
0.397459
0.393949
0.389834
0.385167
0.379927
0.37401
0.367253
0.359441
0.350319
0.339573
0.326818
0.311534
0.293106
0.270509
0.242991
0.207538
0.166299
0.102864
0.0600774
0.172328
0.199857
0.222308
0.234907
0.240402
0.24413
0.244991
0.244402
0.240712
0.23552
0.232019
0.237653
0.255046
0.277389
0.286054
0.262595
0.207968
0.137226
0.0599973
-0.0126986
-0.0721285
-0.114076
-0.135768
-0.135794
-0.113911
-0.072557
-0.0169802
0.0477828
0.118328
0.189954
0.255216
0.307604
0.345074
0.369407
0.384408
0.393598
0.399178
0.402014
0.402607
0.401767
0.399973
0.397334
0.39393
0.389868
0.385218
0.379969
0.374029
0.367243
0.3594
0.350246
0.339471
0.326686
0.311375
0.29292
0.2703
0.242758
0.207302
0.166038
0.102716
0.0598032
0.174083
0.200267
0.22233
0.234802
0.240376
0.244117
0.24505
0.244482
0.240966
0.236047
0.232895
0.238622
0.255749
0.27752
0.28559
0.262222
0.208214
0.138139
0.0615082
-0.0107323
-0.0698945
-0.111681
-0.133296
-0.133342
-0.111616
-0.0706183
-0.0155648
0.0486107
0.118462
0.189111
0.253106
0.304236
0.34082
0.364841
0.380164
0.39016
0.396732
0.400436
0.401637
0.401203
0.399683
0.39722
0.393921
0.389913
0.385279
0.38002
0.374058
0.367243
0.359369
0.350185
0.339379
0.326566
0.311228
0.292747
0.270105
0.242541
0.207081
0.165793
0.102582
0.0595404
0.175771
0.200699
0.222374
0.23472
0.240362
0.244118
0.245122
0.244582
0.241243
0.236603
0.233794
0.239588
0.25639
0.277501
0.284933
0.261631
0.208313
0.139006
0.063084
-0.00860957
-0.0674351
-0.10901
-0.130509
-0.130551
-0.108972
-0.0683453
-0.0138364
0.0497281
0.11884
0.188427
0.251047
0.300814
0.336422
0.360069
0.375706
0.386557
0.394196
0.398826
0.400663
0.40065
0.399406
0.397119
0.393924
0.389968
0.385348
0.380081
0.374097
0.367253
0.359348
0.350134
0.339299
0.326458
0.311093
0.292587
0.269924
0.242339
0.206876
0.165566
0.102462
0.0592892
0.177394
0.201151
0.222439
0.234658
0.240362
0.244132
0.245206
0.244701
0.241542
0.237185
0.234708
0.240541
0.256958
0.277331
0.284097
0.260835
0.208269
0.139819
0.0647133
-0.00634094
-0.0647578
-0.106067
-0.127411
-0.127422
-0.105984
-0.0657395
-0.0117932
0.0511393
0.119463
0.187902
0.24904
0.29734
0.331876
0.355079
0.371019
0.382777
0.391566
0.397184
0.399689
0.400107
0.399143
0.397031
0.393938
0.390033
0.385427
0.380151
0.374145
0.367272
0.359338
0.350094
0.339231
0.326361
0.310971
0.29244
0.269757
0.242152
0.206688
0.165357
0.102356
0.0590501
0.178955
0.20162
0.222524
0.234618
0.240375
0.24416
0.245303
0.244838
0.241859
0.237786
0.235629
0.241471
0.257446
0.277014
0.283092
0.259853
0.208081
0.140571
0.0663843
-0.00393777
-0.0618714
-0.102859
-0.124006
-0.123959
-0.102655
-0.0628033
-0.00943399
0.0528477
0.120336
0.187536
0.247086
0.293815
0.327181
0.349861
0.36609
0.378811
0.388838
0.395511
0.398716
0.399577
0.398895
0.396957
0.393964
0.390107
0.385516
0.38023
0.374202
0.367302
0.359338
0.350065
0.339173
0.326277
0.310861
0.292308
0.269605
0.241981
0.206517
0.165165
0.102265
0.0588234
0.180456
0.202104
0.222628
0.234598
0.240402
0.244201
0.245412
0.244993
0.242194
0.238402
0.23655
0.24237
0.257849
0.276553
0.281927
0.258705
0.207755
0.141259
0.0680856
-0.00141234
-0.0587858
-0.0993927
-0.1203
-0.120169
-0.0989903
-0.0595405
-0.00675813
0.0548561
0.121458
0.187331
0.245188
0.290242
0.322331
0.344403
0.360901
0.374644
0.386008
0.393808
0.397745
0.399062
0.398664
0.396898
0.394002
0.390192
0.385613
0.380318
0.374268
0.367341
0.359349
0.350047
0.339128
0.326206
0.310765
0.292189
0.269467
0.241826
0.206362
0.16499
0.102188
0.0586093
0.181901
0.202602
0.222751
0.234597
0.240442
0.244256
0.245534
0.245165
0.242544
0.239027
0.237463
0.243231
0.258162
0.275951
0.280612
0.257412
0.207296
0.141878
0.0698056
0.00122219
-0.0555127
-0.0956783
-0.116301
-0.116058
-0.0949983
-0.0559559
-0.00376548
0.0571667
0.12283
0.187285
0.243349
0.286625
0.317323
0.33869
0.355435
0.370263
0.38307
0.392074
0.396778
0.398563
0.398451
0.396854
0.394052
0.390287
0.385719
0.380414
0.374343
0.367389
0.359369
0.35004
0.339094
0.326146
0.310682
0.292084
0.269345
0.241687
0.206225
0.164834
0.102126
0.0584082
0.183291
0.20311
0.222892
0.234616
0.240495
0.244324
0.245668
0.245354
0.242907
0.239658
0.238363
0.244048
0.258387
0.275218
0.279157
0.255994
0.206714
0.142425
0.0715337
0.00395187
-0.0520651
-0.0917268
-0.11202
-0.111638
-0.0906879
-0.0520551
-0.000456271
0.0597809
0.124451
0.187399
0.241572
0.282967
0.312153
0.332709
0.349674
0.365654
0.380019
0.390311
0.395819
0.398082
0.398257
0.396825
0.394115
0.390392
0.385834
0.380519
0.374426
0.367447
0.359399
0.350043
0.339072
0.326099
0.310613
0.291993
0.269238
0.241565
0.206105
0.164696
0.102078
0.0582205
0.184628
0.203627
0.223051
0.234654
0.240562
0.244405
0.245814
0.245558
0.243281
0.240291
0.239243
0.244819
0.258524
0.274363
0.277572
0.25447
0.206025
0.142903
0.07326
0.00676221
-0.0484574
-0.0875512
-0.107469
-0.106918
-0.0860697
-0.0478442
0.003169
0.0626992
0.12632
0.187671
0.239861
0.279272
0.306818
0.326445
0.343598
0.360804
0.376852
0.388518
0.394868
0.397622
0.398083
0.396814
0.394191
0.390508
0.385958
0.380633
0.374519
0.367514
0.35944
0.350058
0.339061
0.326065
0.310556
0.291917
0.269147
0.24146
0.206002
0.164577
0.102044
0.0580466
0.185916
0.204153
0.223226
0.23471
0.240642
0.2445
0.245972
0.245776
0.243666
0.240922
0.2401
0.245542
0.258579
0.273399
0.275873
0.252857
0.205243
0.143312
0.0749765
0.00963863
-0.0447056
-0.0831666
-0.102661
-0.101914
-0.0811557
-0.0433296
0.00710959
0.0659211
0.128435
0.188103
0.238222
0.275545
0.301315
0.319885
0.337191
0.355698
0.373564
0.386697
0.393929
0.397185
0.39793
0.39682
0.39428
0.390633
0.386091
0.380754
0.374619
0.36759
0.35949
0.350083
0.339062
0.326043
0.310514
0.291856
0.269071
0.241371
0.205917
0.164476