/*--------------------------------*- C++ -*----------------------------------*\
| =========                 |                                                 |
| \\      /  F ield         | OpenFOAM: The Open Source CFD Toolbox           |
|  \\    /   O peration     | Version:  2.4.0                                 |
|   \\  /    A nd           | Web:      www.OpenFOAM.org                      |
|    \\/     M anipulation  |                                                 |
\*---------------------------------------------------------------------------*/
FoamFile
{
    version     2.0;
    format      ascii;
    class       volScalarField;
    location    "400";
    object      k;
}
// * * * * * * * * * * * * * * * * * * * * * * * * * * * * * * * * * * * * * //

dimensions      [0 2 -2 0 0 0 0];

internalField   nonuniform List<scalar> 
12225
(
0.664177
0.875648
1.01806
1.09941
1.14353
1.15657
1.15585
1.1403
1.12246
1.09718
1.07461
1.04765
1.02545
1.00001
0.97995
0.957041
0.939249
0.918838
0.380105
0.384498
0.387009
0.389647
0.391552
0.394543
0.397199
0.401902
0.406477
0.413783
0.420823
0.431094
0.440734
0.453957
0.46598
0.480688
0.493399
0.507077
0.372799
0.369269
0.364436
0.358702
0.352394
0.345969
0.339514
0.333498
0.327817
0.322899
0.31851
0.315041
0.31218
0.310299
0.309025
0.308686
0.30881
0.309786
0.372924
0.37032
0.367144
0.363466
0.359434
0.355148
0.350707
0.346214
0.341727
0.337335
0.333064
0.328983
0.325099
0.321458
0.318057
0.31492
0.312033
0.30944
0.373147
0.371131
0.368857
0.36634
0.363648
0.360815
0.357887
0.354899
0.351887
0.348879
0.3459
0.342971
0.340108
0.337323
0.334629
0.332029
0.329532
0.327157
0.373249
0.371517
0.369684
0.367744
0.365725
0.36364
0.361509
0.359349
0.357177
0.355007
0.352852
0.350721
0.348625
0.346568
0.344558
0.342597
0.340692
0.338864
0.373278
0.371669
0.370053
0.368411
0.366751
0.365073
0.363383
0.361688
0.359995
0.358312
0.356645
0.354999
0.353378
0.351787
0.350229
0.348706
0.347222
0.345801
0.373277
0.371705
0.370169
0.368652
0.367152
0.365663
0.364185
0.362719
0.361267
0.359832
0.358418
0.357027
0.35566
0.354321
0.353011
0.351733
0.350489
0.349302
0.37327
0.371708
0.370205
0.368748
0.36733
0.365945
0.364588
0.363257
0.361951
0.36067
0.359414
0.358184
0.356981
0.355806
0.35466
0.353544
0.352462
0.351432
0.373262
0.371699
0.370208
0.368778
0.367403
0.366078
0.364795
0.36355
0.362341
0.361166
0.360023
0.358911
0.357829
0.356777
0.355756
0.354766
0.353809
0.352902
0.373254
0.371687
0.370197
0.368775
0.367417
0.366118
0.364871
0.363673
0.36252
0.361408
0.360335
0.359299
0.358297
0.35733
0.356396
0.355496
0.354631
0.353813
0.373248
0.371677
0.370182
0.36876
0.367405
0.366114
0.36488
0.363701
0.362572
0.361491
0.360454
0.359458
0.358502
0.357585
0.356704
0.355859
0.355051
0.354291
0.373243
0.371668
0.37017
0.368745
0.367388
0.366096
0.364865
0.36369
0.362569
0.361498
0.360474
0.359496
0.35856
0.357665
0.35681
0.355993
0.355215
0.354484
0.37324
0.371662
0.370161
0.368733
0.367373
0.366079
0.364846
0.363671
0.36255
0.361481
0.360461
0.359487
0.358558
0.357671
0.356825
0.356018
0.35525
0.35453
0.373237
0.371657
0.370154
0.368723
0.367362
0.366066
0.364831
0.363654
0.362532
0.361463
0.360442
0.359469
0.358541
0.357656
0.356811
0.356006
0.35524
0.354521
0.373236
0.371654
0.370149
0.368717
0.367354
0.366056
0.36482
0.363642
0.362519
0.361449
0.360428
0.359454
0.358526
0.35764
0.356795
0.355988
0.355221
0.3545
0.373235
0.371652
0.370146
0.368713
0.367349
0.36605
0.364813
0.363635
0.362511
0.36144
0.360419
0.359445
0.358515
0.357628
0.356782
0.355974
0.355204
0.35448
0.373234
0.371651
0.370144
0.368711
0.367347
0.366048
0.364811
0.363632
0.362509
0.361438
0.360416
0.359442
0.358512
0.357624
0.356776
0.355967
0.355195
0.354468
0.373234
0.371651
0.370145
0.368712
0.367348
0.36605
0.364814
0.363635
0.362513
0.361442
0.36042
0.359446
0.358515
0.357627
0.356779
0.355968
0.355195
0.354467
0.373234
0.371652
0.370147
0.368715
0.367353
0.366056
0.36482
0.363643
0.362521
0.361451
0.36043
0.359455
0.358525
0.357636
0.356787
0.355975
0.355201
0.354471
0.373236
0.371654
0.370151
0.368721
0.36736
0.366065
0.36483
0.363654
0.362532
0.361461
0.36044
0.359464
0.358531
0.357639
0.356787
0.355971
0.355191
0.354456
0.373238
0.371659
0.370158
0.36873
0.36737
0.366074
0.364839
0.363659
0.362533
0.361456
0.360425
0.359439
0.358494
0.357588
0.356719
0.355886
0.355087
0.354332
0.373241
0.371665
0.370166
0.368736
0.367372
0.366068
0.364818
0.36362
0.362469
0.361362
0.360297
0.359272
0.358284
0.357332
0.356413
0.355528
0.354676
0.353866
0.373246
0.37167
0.370165
0.368719
0.367326
0.365979
0.364675
0.36341
0.362181
0.360986
0.359826
0.358698
0.357603
0.356539
0.355506
0.354505
0.353536
0.35261
0.373249
0.37166
0.370116
0.3686
0.367107
0.365634
0.36418
0.362745
0.361331
0.359939
0.358572
0.357232
0.355921
0.35464
0.353391
0.352174
0.350991
0.349856
0.37324
0.371586
0.369909
0.368196
0.366452
0.364684
0.362898
0.361106
0.359317
0.357538
0.355777
0.354042
0.352336
0.350664
0.34903
0.347437
0.345888
0.344397
0.3732
0.371362
0.369352
0.367181
0.36488
0.362482
0.360014
0.357504
0.354977
0.352454
0.349951
0.347484
0.345063
0.342698
0.340396
0.338163
0.336003
0.33393
0.373266
0.37113
0.36846
0.36536
0.361948
0.358319
0.354562
0.350752
0.346952
0.343209
0.339564
0.33604
0.332663
0.329443
0.326392
0.323513
0.320812
0.318291
0.376727
0.377379
0.37699
0.375986
0.374633
0.373051
0.371476
0.370066
0.368946
0.368114
0.367627
0.36744
0.367589
0.368015
0.368747
0.369722
0.370972
0.372444
0.50926
0.62166
0.711968
0.782118
0.835127
0.874316
0.903679
0.926666
0.943959
0.956472
0.964835
0.969843
0.971993
0.971915
0.969962
0.966612
0.962095
0.956768
0.00283856
0.0176707
0.0334755
0.0586143
0.0903378
0.116948
0.140356
0.161373
0.180156
0.196855
0.211654
0.224732
0.236248
0.246317
0.255046
0.262519
0.268827
0.274035
0.278206
0.281393
0.28365
0.285029
0.285574
0.285333
0.284333
0.282602
0.280141
0.276947
0.272983
0.268646
0.264074
0.259095
0.253542
0.247232
0.239966
0.231511
0.221584
0.209819
0.195724
0.178623
0.157578
0.131579
0.0991205
0.058241
0.0266908
0.0335023
0.0681507
0.128661
0.188141
0.22336
0.251153
0.222874
0.214709
0.434068
0.652844
0.786005
0.886838
0.965484
1.03058
1.08429
1.13028
1.16904
1.20294
1.23171
1.25723
1.27886
1.2982
1.31451
1.32912
1.34135
1.35223
1.36128
1.3692
1.37575
1.38129
1.38586
1.38949
1.39249
1.39462
1.3964
1.39745
1.39806
1.39775
1.39681
1.39515
1.39288
1.39009
1.38671
1.383
1.37875
1.37432
1.36946
1.36452
1.35932
1.35412
1.34885
1.34367
1.33865
1.33383
1.32939
1.32528
1.32175
1.31869
1.31636
1.31465
1.31367
1.31323
1.31317
1.31313
1.31254
1.31063
1.30618
1.29782
1.28421
1.26442
1.23649
1.19946
1.15373
1.10176
1.04935
1.00412
0.976024
0.958813
0.93869
0.917221
0.895128
0.872886
0.849629
0.827284
0.805054
0.784345
0.763669
0.744601
0.725363
0.707749
0.689726
0.673313
0.656229
0.640736
0.624301
0.609458
0.593403
0.57929
0.563938
0.550537
0.535374
0.522109
0.506718
0.493346
0.477574
0.464068
0.447941
0.434426
0.418092
0.404792
0.388475
0.375665
0.359616
0.347584
0.332044
0.321049
0.306214
0.296464
0.282463
0.274098
0.260983
0.254077
0.24182
0.236381
0.224879
0.220862
0.209822
0.207097
0.196236
0.194923
0.184668
0.185078
0.174069
0.175305
0.161089
0.00237523
0.0208742
0.075833
0.131478
0.185611
0.236874
0.283675
0.325181
0.361305
0.392342
0.418712
0.440834
0.459084
0.473783
0.485206
0.493629
0.499303
0.502481
0.503408
0.502335
0.49951
0.495177
0.48956
0.48287
0.475285
0.466958
0.457999
0.448471
0.438347
0.427365
0.41528
0.40186
0.386891
0.370182
0.351666
0.331376
0.309593
0.2867
0.263313
0.239776
0.216132
0.191802
0.166355
0.142532
0.122914
0.112918
0.146633
0.264998
0.432723
0.588992
0.902801
0.989925
0.981246
1.01198
1.09337
1.17332
1.23425
1.2929
1.35202
1.41312
1.47322
1.53178
1.58696
1.63851
1.68589
1.729
1.76818
1.80331
1.83508
1.86334
1.88882
1.91143
1.93173
1.94985
1.96602
1.98065
1.99364
2.00562
2.01626
2.02637
2.03507
2.0426
2.04866
2.05395
2.05804
2.06139
2.06383
2.06554
2.06664
2.06705
2.06716
2.06672
2.06623
2.06536
2.06465
2.06382
2.06338
2.06321
2.0637
2.06494
2.06719
2.07078
2.07586
2.08301
2.09238
2.10464
2.11998
2.13909
2.16218
2.18942
2.22021
2.25277
2.28361
2.30792
2.32416
2.32695
2.31163
2.27786
2.22904
2.163
2.08381
2.0146
1.94545
1.87405
1.79972
1.72694
1.65212
1.58041
1.50948
1.44284
1.37767
1.317
1.25782
1.20309
1.14966
1.10053
1.05237
1.00832
0.964846
0.92535
0.885995
0.850538
0.814298
0.781899
0.748715
0.719463
0.688934
0.662453
0.634251
0.610341
0.584247
0.562799
0.538648
0.519602
0.497246
0.480565
0.459858
0.445512
0.426291
0.414251
0.396327
0.386557
0.369717
0.362179
0.346182
0.340843
0.325425
0.322266
0.307141
0.306174
0.291016
0.291616
0.276198
0.277973
0.262138
0.26526
0.248754
0.253452
0.235607
0.241684
0.00383412
0.0522958
0.125265
0.195588
0.262482
0.324651
0.380867
0.430469
0.473417
0.510023
0.540677
0.565773
0.585702
0.600852
0.611616
0.618387
0.621571
0.621585
0.61885
0.613792
0.606821
0.598311
0.588609
0.578038
0.566885
0.555396
0.543762
0.53211
0.520476
0.508721
0.496399
0.483206
0.468707
0.452362
0.433577
0.411794
0.386658
0.358134
0.326886
0.294152
0.261588
0.23085
0.203217
0.181216
0.169283
0.188696
0.29319
0.534263
1.005
1.2429
1.20264
1.16133
1.16771
1.22617
1.3274
1.44745
1.57125
1.7016
1.83143
1.95695
2.07454
2.1815
2.27818
2.3635
2.43928
2.50529
2.56339
2.61376
2.65779
2.69588
2.72891
2.75734
2.78169
2.80252
2.8202
2.83532
2.84805
2.85886
2.86775
2.87514
2.88068
2.88463
2.88681
2.88755
2.88665
2.88436
2.88052
2.87532
2.86863
2.86048
2.85109
2.84067
2.82934
2.81708
2.80405
2.79021
2.77577
2.76073
2.74534
2.72965
2.71391
2.69827
2.68302
2.66852
2.65519
2.64363
2.63448
2.62872
2.62744
2.632
2.6436
2.66243
2.68574
2.70517
2.71578
2.71039
2.68623
2.64473
2.58498
2.50433
2.41661
2.33557
2.25672
2.1784
2.09983
2.02147
1.94224
1.86399
1.78658
1.7116
1.63877
1.56935
1.50249
1.43925
1.37851
1.32127
1.26627
1.21452
1.16465
1.11778
1.07244
1.02987
0.988442
0.949332
0.910921
0.874864
0.839275
0.80599
0.77296
0.742234
0.711572
0.683269
0.65485
0.628897
0.602644
0.579006
0.554868
0.533523
0.511444
0.492357
0.472265
0.455372
0.437165
0.422365
0.405911
0.39307
0.378215
0.367165
0.353747
0.344297
0.332153
0.32405
0.312977
0.305928
0.295749
0.289477
0.280118
0.274447
0.265996
0.260658
0.0135131
0.094728
0.189036
0.280769
0.364212
0.436342
0.496899
0.546922
0.587745
0.620557
0.646327
0.665863
0.679858
0.68893
0.693646
0.694543
0.692131
0.686903
0.679325
0.66984
0.658863
0.646782
0.633954
0.620701
0.607299
0.593967
0.580866
0.568085
0.555607
0.543101
0.530447
0.517417
0.503634
0.488574
0.471563
0.451818
0.42857
0.401169
0.369557
0.334552
0.298273
0.263887
0.235706
0.219951
0.237801
0.376955
0.735194
1.31569
1.41939
1.33889
1.263
1.25445
1.3183
1.43851
1.59511
1.76948
1.94975
2.12971
2.30282
2.46487
2.61384
2.74855
2.86955
2.97717
3.07269
3.15691
3.23102
3.29584
3.35232
3.40123
3.44328
3.47903
3.50905
3.53399
3.5544
3.57131
3.58515
3.59624
3.60482
3.61112
3.61519
3.61709
3.61689
3.61471
3.61054
3.60448
3.59647
3.58659
3.57476
3.56089
3.54499
3.52725
3.50767
3.48622
3.46287
3.43757
3.41032
3.38106
3.3498
3.3165
3.28117
3.24376
3.20432
3.1629
3.1197
3.07501
3.02925
2.98304
2.93743
2.89424
2.85614
2.82624
2.80657
2.79529
2.78352
2.75962
2.71756
2.65828
2.58404
2.50172
2.42083
2.3414
2.26463
2.19109
2.12004
2.05093
1.98292
1.91554
1.8471
1.77921
1.71257
1.64797
1.58543
1.52543
1.46771
1.41258
1.35961
1.30912
1.26057
1.21429
1.1697
1.12719
1.08609
1.04672
1.0083
0.971466
0.935479
0.901023
0.867294
0.835055
0.803434
0.773287
0.743674
0.715551
0.687897
0.661775
0.636068
0.611954
0.588199
0.5661
0.544292
0.524196
0.504304
0.486163
0.468124
0.451852
0.43557
0.421043
0.406394
0.393459
0.380301
0.368782
0.356944
0.346648
0.335947
0.326701
0.316977
0.308709
0.299827
0.29241
0.0476076
0.160691
0.291239
0.404852
0.495048
0.564916
0.618822
0.660211
0.691505
0.714426
0.730281
0.74013
0.744877
0.745311
0.742133
0.735961
0.727341
0.716749
0.704603
0.691273
0.677095
0.662375
0.647401
0.632431
0.617675
0.603286
0.58935
0.575867
0.562681
0.5496
0.536591
0.523544
0.510232
0.496269
0.481079
0.463893
0.443793
0.419771
0.391084
0.357853
0.321998
0.287813
0.26376
0.271997
0.390901
0.764651
1.32298
1.55602
1.45868
1.34619
1.31758
1.37827
1.50633
1.67905
1.87825
2.08795
2.29839
2.5029
2.69732
2.8791
3.04716
3.20116
3.34142
3.46847
3.58303
3.68583
3.77753
3.85875
3.93005
3.99201
4.04507
4.08957
4.12674
4.15765
4.18296
4.20364
4.22018
4.23296
4.24226
4.24832
4.25119
4.25117
4.24844
4.24314
4.23534
4.22513
4.21256
4.1977
4.18059
4.16132
4.13972
4.1156
4.08888
4.05945
4.02718
3.99192
3.95353
3.9118
3.86655
3.81754
3.76453
3.70718
3.64517
3.57817
3.50594
3.42835
3.34539
3.25728
3.16484
3.07011
2.97665
2.88966
2.81551
2.75892
2.71435
2.66431
2.59869
2.52089
2.43985
2.36088
2.28373
2.20973
2.14038
2.0758
2.01532
1.95817
1.90331
1.84988
1.79629
1.74129
1.68625
1.63198
1.57883
1.52715
1.47702
1.42859
1.38177
1.33666
1.29307
1.25108
1.21047
1.17134
1.13339
1.09663
1.06065
1.02571
0.991513
0.958338
0.925856
0.894374
0.863536
0.833688
0.80445
0.776211
0.748569
0.721958
0.695946
0.671009
0.646679
0.623468
0.600866
0.57942
0.55857
0.538895
0.519785
0.50185
0.484431
0.468165
0.452351
0.437654
0.423328
0.410077
0.397097
0.385158
0.373367
0.362615
0.351864
0.342228
0.332371
0.323678
0.0854394
0.255335
0.417182
0.533809
0.617033
0.677485
0.721414
0.75254
0.773337
0.785671
0.791088
0.790921
0.786335
0.77833
0.767734
0.755204
0.741242
0.726216
0.71041
0.694052
0.677348
0.660503
0.64373
0.627242
0.611216
0.595762
0.580917
0.566629
0.552683
0.538923
0.525381
0.512057
0.498868
0.485596
0.471827
0.456917
0.439957
0.419812
0.395361
0.366147
0.333823
0.304625
0.298368
0.380179
0.706187
1.22586
1.57935
1.57296
1.42816
1.36438
1.40658
1.52814
1.70327
1.91029
2.13374
2.36095
2.58472
2.80041
3.00567
3.19914
3.38014
3.54845
3.70417
3.84757
3.97894
4.0986
4.20678
4.30371
4.38951
4.46437
4.52853
4.582
4.62678
4.66433
4.69561
4.72099
4.74093
4.7558
4.76594
4.77165
4.773
4.77064
4.76486
4.75586
4.74376
4.72869
4.7107
4.68986
4.66616
4.63958
4.61005
4.57751
4.54186
4.50298
4.4607
4.41483
4.36516
4.31143
4.25335
4.1906
4.12282
4.04958
3.97036
3.88457
3.79159
3.6908
3.58162
3.46356
3.33669
3.20244
3.06393
2.92705
2.80137
2.69885
2.61494
2.53353
2.44446
2.35836
2.27501
2.1946
2.11857
2.04773
1.98268
1.92342
1.86934
1.81971
1.77371
1.73065
1.68919
1.6469
1.6038
1.56076
1.51821
1.47642
1.43554
1.3957
1.35688
1.31914
1.2824
1.24669
1.2119
1.17805
1.14498
1.11256
1.08059
1.04917
1.0182
0.98781
0.957867
0.928511
0.8996
0.871297
0.843452
0.816251
0.789539
0.763523
0.73804
0.713316
0.689174
0.665854
0.643156
0.621331
0.600156
0.579887
0.560272
0.541578
0.52352
0.50638
0.489833
0.474186
0.45907
0.444833
0.43104
0.418112
0.405522
0.393804
0.382301
0.371717
0.361183
0.351569
0.121858
0.358388
0.534109
0.645976
0.721504
0.773528
0.808362
0.829751
0.840397
0.842519
0.838053
0.828685
0.815848
0.800703
0.784118
0.766667
0.748673
0.730284
0.711558
0.692562
0.67337
0.654088
0.634889
0.616
0.597654
0.580036
0.563246
0.547275
0.531964
0.517052
0.502601
0.48868
0.475309
0.462404
0.449711
0.436735
0.422666
0.40643
0.386899
0.363669
0.339455
0.327718
0.381321
0.618395
1.06375
1.49206
1.62714
1.51428
1.4055
1.41144
1.51208
1.67687
1.88099
2.10649
2.34087
2.57481
2.80323
3.0233
3.23376
3.43389
3.6232
3.80143
3.9684
4.12404
4.26824
4.40091
4.52196
4.63129
4.72875
4.81425
4.88791
4.9498
5.00149
5.04404
5.07845
5.10552
5.12582
5.13985
5.14804
5.15075
5.14843
5.14183
5.13134
5.1172
5.09961
5.07872
5.05463
5.02742
4.9971
4.96368
4.92709
4.88727
4.8441
4.79743
4.74707
4.69282
4.63442
4.57159
4.504
4.43129
4.35309
4.26896
4.17838
4.08068
3.97509
3.86077
3.73679
3.60185
3.45496
3.29676
3.1297
2.95886
2.79327
2.65092
2.52599
2.41002
2.30698
2.21183
2.12278
2.04013
1.96386
1.89403
1.83055
1.77332
1.7221
1.67623
1.63501
1.59769
1.56345
1.53031
1.49644
1.46267
1.42931
1.39651
1.36438
1.33293
1.30219
1.27213
1.2427
1.21389
1.18563
1.15787
1.13052
1.10335
1.07628
1.04937
1.02257
0.995933
0.969426
0.943118
0.916965
0.89106
0.86536
0.839978
0.814874
0.790174
0.765836
0.741999
0.718611
0.695814
0.673544
0.651943
0.630929
0.610643
0.590977
0.572074
0.553801
0.536305
0.519421
0.503313
0.487775
0.473004
0.45874
0.445235
0.432158
0.419844
0.407871
0.396676
0.385715
0.375512
0.156589
0.454439
0.638099
0.747159
0.817402
0.862438
0.888922
0.901061
0.9021
0.894797
0.881546
0.86436
0.844833
0.824141
0.80308
0.782069
0.761143
0.740131
0.718786
0.697089
0.675019
0.652556
0.629846
0.607159
0.584832
0.563255
0.542875
0.523888
0.506258
0.489556
0.473794
0.458994
0.445214
0.432455
0.420599
0.40933
0.39807
0.386068
0.372742
0.359157
0.353871
0.391754
0.549524
0.889213
1.30931
1.57382
1.57012
1.45303
1.4078
1.47182
1.61381
1.80503
2.02419
2.25718
2.49427
2.72879
2.9572
3.17785
3.39008
3.59343
3.78745
3.97174
4.14588
4.30948
4.46214
4.60347
4.7331
4.85072
4.95604
5.04884
5.12907
5.19665
5.25215
5.29691
5.33222
5.35919
5.37861
5.39111
5.3972
5.39728
5.3922
5.38264
5.36901
5.3516
5.33062
5.30621
5.27851
5.24758
5.21344
5.17606
5.13538
5.0913
5.04365
4.99226
4.93692
4.87737
4.81333
4.74446
4.67041
4.59077
4.50514
4.41316
4.31434
4.20799
4.09327
3.96936
3.83568
3.69032
3.53058
3.35663
3.17106
2.97875
2.78391
2.61011
2.45171
2.31014
2.18802
2.08169
1.98708
1.90161
1.82415
1.75421
1.6914
1.63529
1.58549
1.54158
1.50293
1.46881
1.43856
1.41088
1.38338
1.35634
1.32994
1.30424
1.27924
1.25491
1.23118
1.20801
1.18532
1.16303
1.14108
1.11937
1.09779
1.07606
1.05421
1.03221
1.01002
0.987668
0.965123
0.942428
0.919578
0.896637
0.873614
0.850595
0.8276
0.804728
0.782001
0.759528
0.737325
0.715501
0.69406
0.673108
0.652631
0.632728
0.613364
0.594633
0.576476
0.558986
0.542076
0.525848
0.510181
0.495197
0.480735
0.466953
0.453642
0.44101
0.428795
0.417259
0.406067
0.395538
0.193758
0.539485
0.733157
0.84402
0.911703
0.95119
0.970172
0.973799
0.966142
0.950614
0.930045
0.906659
0.882064
0.857301
0.832934
0.809139
0.7858
0.762572
0.739031
0.714853
0.689847
0.66393
0.637194
0.6097
0.581902
0.554552
0.52845
0.50428
0.48259
0.463434
0.445912
0.42992
0.415482
0.402688
0.391561
0.382041
0.374001
0.367506
0.363786
0.368663
0.401712
0.50987
0.750172
1.1049
1.42648
1.55336
1.49394
1.41339
1.4252
1.53063
1.69825
1.9029
2.12733
2.36058
2.59538
2.82696
3.05275
3.27162
3.48318
3.68704
3.88274
4.06975
4.2475
4.41541
4.57287
4.71929
4.85413
4.97693
5.08733
5.18508
5.26996
5.34165
5.40012
5.44687
5.48326
5.51074
5.53032
5.54268
5.54843
5.54802
5.54244
5.53229
5.518
5.49984
5.47802
5.4527
5.42397
5.39188
5.35642
5.31755
5.27516
5.2291
5.17918
5.12516
5.06676
5.0037
4.93567
4.86228
4.78309
4.6976
4.60537
4.50616
4.39967
4.28518
4.16158
4.02787
3.88507
3.73096
3.5603
3.37347
3.17533
2.97095
2.76759
2.57129
2.38376
2.21742
2.07858
1.96254
1.86253
1.77434
1.69585
1.62594
1.56386
1.50895
1.46057
1.41822
1.38141
1.34945
1.32172
1.29736
1.27426
1.25198
1.23065
1.21024
1.1907
1.17192
1.15382
1.13629
1.11923
1.10253
1.08609
1.06979
1.05342
1.03685
1.02
1.00283
0.985272
0.967297
0.948878
0.930023
0.910734
0.891058
0.871022
0.850701
0.830143
0.809441
0.788653
0.767881
0.74718
0.726654
0.706345
0.686351
0.666699
0.647474
0.628685
0.610407
0.592625
0.575408
0.558717
0.542622
0.527056
0.5121
0.497655
0.483823
0.470476
0.457743
0.445463
0.433793
0.422529
0.411868
0.224645
0.618228
0.826375
0.941735
1.0085
1.04356
1.05612
1.05257
1.0379
1.01612
0.99034
0.96285
0.935138
0.908038
0.88187
0.856566
0.831808
0.807161
0.782149
0.756274
0.729116
0.700416
0.670108
0.638317
0.605097
0.571155
0.537535
0.505405
0.476099
0.450729
0.42964
0.41138
0.395614
0.382467
0.372135
0.364929
0.361503
0.363499
0.375363
0.408814
0.490092
0.658893
0.930882
1.24079
1.45569
1.49579
1.42922
1.39215
1.44626
1.57779
1.75853
1.96735
2.19049
2.4195
2.64897
2.87537
3.09671
3.31204
3.52098
3.72317
3.91812
4.10525
4.28391
4.45341
4.61305
4.76214
4.90006
5.02623
5.14024
5.24179
5.33057
5.40609
5.46804
5.51778
5.55662
5.58616
5.60757
5.6216
5.62885
5.62992
5.62574
5.61689
5.60379
5.58672
5.56586
5.54134
5.51324
5.48156
5.44627
5.40729
5.36447
5.3176
5.26642
5.2106
5.14978
5.0836
5.01177
4.93388
4.84942
4.75776
4.65821
4.55072
4.43566
4.31227
4.179
4.03334
3.88026
3.7171
3.54147
3.35184
3.14934
2.93957
2.72756
2.51248
2.30421
2.12137
1.97103
1.84778
1.74391
1.65409
1.5754
1.50619
1.44536
1.39206
1.3455
1.30501
1.27006
1.24008
1.21443
1.19246
1.1727
1.15401
1.13652
1.12014
1.10476
1.09027
1.07653
1.06344
1.05085
1.03866
1.02674
1.01496
1.00302
0.990926
0.978537
0.965753
0.952479
0.938645
0.924197
0.909113
0.893379
0.87702
0.860065
0.842576
0.824612
0.806263
0.787605
0.768743
0.749753
0.730741
0.711778
0.69296
0.674344
0.656014
0.638005
0.620389
0.60318
0.586438
0.570156
0.554387
0.539102
0.524356
0.510097
0.496391
0.483162
0.470494
0.45829
0.446646
0.435434
0.424787
0.249528
0.690793
0.915141
1.03703
1.10473
1.13728
1.14564
1.13753
1.11876
1.09375
1.06573
1.03691
1.00858
0.981377
0.955436
0.93055
0.906304
0.882195
0.857678
0.832211
0.805245
0.776262
0.744863
0.71082
0.674177
0.635313
0.594958
0.553896
0.513873
0.476981
0.445113
0.420229
0.40037
0.385265
0.375118
0.370682
0.373626
0.38751
0.419835
0.485575
0.608218
0.80763
1.0667
1.30854
1.43787
1.43395
1.38181
1.38125
1.46271
1.60794
1.7926
1.99928
2.21692
2.43889
2.66102
2.8806
3.09594
3.30618
3.51088
3.70962
3.90192
4.08719
4.26476
4.43393
4.59396
4.74413
4.88375
5.01218
5.12893
5.2336
5.32585
5.40515
5.47123
5.52502
5.56766
5.60073
5.62544
5.64257
5.65269
5.65655
5.65502
5.64869
5.63795
5.62307
5.60423
5.58151
5.55495
5.52452
5.49014
5.45167
5.40891
5.36158
5.30933
5.25171
5.18823
5.1183
5.04178
4.95839
4.86757
4.76864
4.66029
4.54253
4.41743
4.28404
4.14177
3.99028
3.83032
3.66127
3.48187
3.28999
3.08566
2.8725
2.65242
2.42512
2.20645
2.01582
1.85982
1.73317
1.62787
1.5381
1.46042
1.39283
1.334
1.2829
1.23866
1.20048
1.16771
1.13985
1.11627
1.09642
1.0794
1.06375
1.04943
1.03632
1.02429
1.0132
1.00292
0.993314
0.984256
0.975623
0.967291
0.959117
0.950811
0.942408
0.933759
0.924727
0.915185
0.905028
0.894172
0.88256
0.870156
0.856961
0.842989
0.828288
0.812916
0.796955
0.78049
0.763623
0.746446
0.729068
0.711577
0.694074
0.676633
0.659343
0.642259
0.625454
0.608963
0.592844
0.577111
0.561814
0.546946
0.532552
0.518608
0.505161
0.492172
0.479696
0.467677
0.456178
0.445119
0.434593
0.267097
0.752804
0.993577
1.12353
1.1944
1.22717
1.2346
1.22569
1.20695
1.18296
1.15679
1.1304
1.10484
1.08058
1.05763
1.03578
1.01465
0.993805
0.972743
0.950895
0.92763
0.902284
0.874161
0.842653
0.807169
0.767497
0.723826
0.676773
0.627405
0.577596
0.529859
0.487145
0.454863
0.432308
0.419055
0.415796
0.424863
0.450955
0.502699
0.593386
0.737339
0.936002
1.15697
1.33248
1.40383
1.38297
1.34979
1.37426
1.47032
1.61968
1.80174
2.002
2.21138
2.42444
2.6378
2.84922
3.05721
3.26091
3.45986
3.65361
3.84168
4.0235
4.19843
4.36578
4.52483
4.67483
4.81503
4.94475
5.06337
5.17043
5.2656
5.34824
5.41867
5.47716
5.52455
5.56221
5.59128
5.61253
5.62649
5.63403
5.636
5.63299
5.62539
5.61345
5.59732
5.57704
5.55259
5.52384
5.49064
5.45283
5.41009
5.36205
5.30825
5.24814
5.18105
5.10589
5.02284
4.93213
4.83311
4.72542
4.60877
4.48339
4.34987
4.20833
4.05884
3.90146
3.73635
3.56318
3.38089
3.18727
2.98194
2.7669
2.54128
2.30962
2.08938
1.89854
1.74274
1.61674
1.51276
1.42491
1.34961
1.28469
1.22867
1.18042
1.13898
1.10354
1.07334
1.04783
1.02648
1.00873
0.994028
0.98124
0.969728
0.959472
0.95031
0.942089
0.934666
0.92791
0.921696
0.915905
0.910419
0.905092
0.899681
0.894245
0.888627
0.882671
0.876232
0.869182
0.861408
0.852828
0.843382
0.833044
0.82181
0.80971
0.796791
0.783126
0.768797
0.753904
0.738545
0.722829
0.706855
0.690727
0.674533
0.658365
0.642293
0.626394
0.610716
0.595321
0.580238
0.565515
0.551164
0.537223
0.52369
0.510603
0.497944
0.485754
0.474005
0.462741
0.451909
0.441582
0.278055
0.799265
1.05379
1.19164
1.26773
1.30457
1.31593
1.31148
1.29837
1.28097
1.26194
1.24293
1.22466
1.2074
1.19108
1.17556
1.16061
1.146
1.13143
1.11648
1.10063
1.08322
1.06346
1.04047
1.01331
0.980985
0.942716
0.898029
0.846937
0.790163
0.729371
0.667444
0.608604
0.56229
0.534622
0.52394
0.531974
0.562912
0.623634
0.722703
0.865109
1.04133
1.21666
1.33878
1.37488
1.34995
1.33124
1.36869
1.46883
1.6152
1.7899
1.98068
2.17978
2.3825
2.58591
2.78798
2.9873
3.18307
3.37479
3.56204
3.74436
3.92124
4.09207
4.25621
4.41295
4.56153
4.70116
4.83106
4.95053
5.05896
5.15588
5.24158
5.31611
5.37944
5.43206
5.47496
5.50914
5.53529
5.55385
5.5658
5.572
5.57301
5.56921
5.56084
5.54798
5.53062
5.50862
5.48175
5.44958
5.41206
5.36869
5.31894
5.26223
5.19798
5.12561
5.04458
4.95476
4.85614
4.74864
4.63233
4.50743
4.37435
4.2336
4.0856
3.93068
3.76898
3.60051
3.42488
3.24081
3.04665
2.84194
2.62677
2.4002
2.17036
1.95525
1.77047
1.61989
1.49823
1.39815
1.31408
1.24253
1.18129
1.12886
1.08406
1.0459
1.01355
0.986222
0.963311
0.944335
0.928772
0.916172
0.905907
0.897117
0.889463
0.882885
0.877204
0.872276
0.867964
0.864148
0.860715
0.857551
0.85449
0.851419
0.848366
0.845172
0.841681
0.837744
0.833221
0.827988
0.821941
0.815004
0.807127
0.798289
0.788501
0.777796
0.766235
0.753892
0.74086
0.727237
0.71313
0.698643
0.683883
0.668943
0.653921
0.638895
0.623945
0.609131
0.594517
0.580143
0.566059
0.552289
0.538871
0.525815
0.513155
0.500891
0.489055
0.477636
0.466669
0.45612
0.44605
0.295657
0.83004
1.09214
1.23623
1.31905
1.36405
1.38508
1.39132
1.38975
1.38467
1.37854
1.3725
1.36692
1.36175
1.35677
1.3518
1.34677
1.34167
1.33646
1.33107
1.32528
1.31873
1.31084
1.30081
1.28769
1.27024
1.247
1.21652
1.17745
1.12874
1.06994
1.0017
0.926422
0.848986
0.779838
0.738207
0.725318
0.742365
0.792502
0.878872
0.999956
1.14183
1.27322
1.35522
1.36944
1.34232
1.32886
1.36768
1.46349
1.60343
1.76706
1.94529
2.13164
2.32198
2.51364
2.70467
2.89366
3.07977
3.26253
3.44154
3.6164
3.78664
3.95175
4.11112
4.26408
4.40984
4.54765
4.67642
4.79514
4.90355
5.0017
5.08983
5.16798
5.23595
5.29388
5.34237
5.38217
5.41386
5.43775
5.45488
5.46606
5.47181
5.47247
5.46821
5.45904
5.44483
5.42534
5.40018
5.36893
5.3311
5.28612
5.23338
5.17227
5.10227
5.02299
4.93423
4.83605
4.72869
4.61252
4.48804
4.3558
4.21643
4.07049
3.91844
3.7606
3.59697
3.42745
3.25157
3.06799
2.8755
2.67335
2.45976
2.23577
2.01272
1.80809
1.63419
1.4928
1.37848
1.28453
1.20587
1.13927
1.08264
1.0345
0.993671
0.959179
0.930171
0.90592
0.885777
0.869261
0.855932
0.845369
0.837191
0.830854
0.825789
0.8216
0.818238
0.815569
0.813447
0.811752
0.810372
0.809196
0.807992
0.806909
0.805819
0.804587
0.803071
0.801129
0.798626
0.795433
0.791439
0.786556
0.780721
0.773898
0.766081
0.757291
0.747575
0.736998
0.725646
0.71361
0.700995
0.687903
0.674442
0.660708
0.646801
0.632804
0.618801
0.604858
0.591041
0.577399
0.563983
0.550827
0.537968
0.525427
0.513237
0.501407
0.489968
0.478919
0.46829
0.458062
0.448286
0.3036
0.824899
1.08784
1.23699
1.32906
1.38743
1.4253
1.45094
1.46961
1.48478
1.49852
1.51184
1.52513
1.53853
1.5511
1.56245
1.57254
1.58149
1.58948
1.59669
1.60332
1.60948
1.61509
1.61982
1.62309
1.62399
1.62123
1.61307
1.59745
1.57209
1.53466
1.48313
1.41639
1.33522
1.24339
1.14912
1.07965
1.05249
1.06391
1.11206
1.19129
1.28695
1.37295
1.41893
1.41203
1.37511
1.3551
1.38603
1.4687
1.59094
1.73741
1.89911
2.06994
2.24589
2.42425
2.60298
2.78053
2.95592
3.12863
3.29825
3.46446
3.62687
3.78501
3.93845
4.08638
4.2277
4.3614
4.48706
4.60383
4.71134
4.80985
4.89958
4.98052
5.05241
5.1152
5.16918
5.2148
5.25245
5.2823
5.30533
5.32224
5.33345
5.33919
5.33952
5.33429
5.32321
5.30584
5.2816
5.24988
5.21
5.1613
5.10318
5.03519
4.95709
4.8689
4.77092
4.66365
4.54778
4.42408
4.29336
4.15631
4.0136
3.86568
3.71288
3.55532
3.39285
3.22525
3.05181
2.87121
2.68233
2.48347
2.27278
2.05453
1.84261
1.65259
1.49306
1.36369
1.25898
1.1729
1.10099
1.04036
0.989099
0.945806
0.909352
0.878792
0.853313
0.832219
0.814906
0.800879
0.789761
0.781186
0.774835
0.770404
0.76751
0.765731
0.76464
0.764059
0.76395
0.764197
0.764679
0.765286
0.765812
0.766417
0.766982
0.767379
0.767481
0.767156
0.766274
0.764712
0.762361
0.759129
0.754946
0.749767
0.743578
0.736389
0.728234
0.719171
0.709275
0.698635
0.687347
0.675512
0.663235
0.650614
0.637747
0.624721
0.61162
0.598516
0.585476
0.572555
0.559804
0.547263
0.534972
0.522959
0.511254
0.499877
0.488854
0.478195
0.467928
0.458041
0.448581
0.29698
0.787717
1.04455
1.19538
1.29524
1.36665
1.42212
1.46933
1.51302
1.55588
1.59901
1.64226
1.68456
1.72442
1.76154
1.79568
1.82703
1.8562
1.88346
1.90859
1.93197
1.9542
1.9758
1.99704
2.01804
2.03866
2.05841
2.07624
2.09053
2.09892
2.09847
2.0857
2.0568
2.00824
1.93766
1.84498
1.73464
1.62927
1.57113
1.54977
1.55853
1.58409
1.60472
1.59693
1.54993
1.48169
1.43842
1.44335
1.4975
1.59109
1.71194
1.85107
2.00205
2.16045
2.32316
2.48786
2.65265
2.81628
2.97799
3.13742
3.29426
3.44805
3.59803
3.74353
3.88431
4.01951
4.14809
4.2695
4.38328
4.48922
4.58737
4.67786
4.76066
4.83559
4.90255
4.96159
5.01289
5.05658
5.09267
5.12199
5.145
5.16195
5.17287
5.17757
5.17569
5.16665
5.14976
5.12422
5.08926
5.04421
4.98852
4.92192
4.84442
4.7564
4.65853
4.55169
4.43687
4.31506
4.18723
4.05417
3.91649
3.77462
3.62877
3.47898
3.3251
3.16674
3.0035
2.83434
2.65795
2.47312
2.27777
2.0716
1.86262
1.66568
1.4933
1.35046
1.23503
1.14153
1.06461
1.00046
0.946564
0.901229
0.86317
0.831339
0.804853
0.782964
0.765024
0.750501
0.738925
0.729939
0.723255
0.718599
0.715731
0.714428
0.714447
0.715427
0.717063
0.718961
0.721024
0.723243
0.725499
0.727625
0.729764
0.731803
0.733625
0.735111
0.73614
0.736593
0.736357
0.735327
0.733416
0.730555
0.726697
0.721823
0.715935
0.709063
0.701256
0.692583
0.683126
0.672977
0.662234
0.650996
0.639363
0.627428
0.615283
0.603009
0.590681
0.578367
0.566126
0.554009
0.542061
0.530323
0.518826
0.507602
0.496674
0.486071
0.475805
0.465906
0.456366
0.44723
0.275698
0.724541
0.970247
1.1197
1.22492
1.30703
1.3774
1.44299
1.50812
1.57517
1.64505
1.71758
1.79177
1.86611
1.93894
2.00873
2.07424
2.13439
2.18901
2.23899
2.28525
2.32912
2.37219
2.41423
2.45598
2.49832
2.5418
2.58673
2.63283
2.67912
2.72372
2.76353
2.79425
2.81039
2.80562
2.7735
2.70829
2.60574
2.4702
2.36096
2.27376
2.19789
2.11904
2.01739
1.87865
1.74156