/*--------------------------------*- C++ -*----------------------------------*\
| =========                 |                                                 |
| \\      /  F ield         | OpenFOAM: The Open Source CFD Toolbox           |
|  \\    /   O peration     | Version:  2.4.0                                 |
|   \\  /    A nd           | Web:      www.OpenFOAM.org                      |
|    \\/     M anipulation  |                                                 |
\*---------------------------------------------------------------------------*/
FoamFile
{
    version     2.0;
    format      ascii;
    class       surfaceScalarField;
    location    "6.73";
    object      phi;
}
// * * * * * * * * * * * * * * * * * * * * * * * * * * * * * * * * * * * * * //

dimensions      [0 3 -1 0 0 0 0];

internalField   nonuniform List<scalar> 
11840
(
7.85114e-07
9.21489e-06
-2.03264e-08
8.0544e-07
-4.80733e-08
2.77469e-08
-7.30508e-08
2.49775e-08
-8.37758e-08
1.0725e-08
-8.51744e-08
1.39857e-09
-8.91324e-08
3.95801e-09
-8.86411e-08
-4.91299e-10
-9.10359e-08
2.39475e-09
-9.15943e-08
5.58442e-10
-9.43656e-08
2.77125e-09
-9.69684e-08
2.60283e-09
-1.01502e-07
4.53396e-09
-1.06866e-07
5.36391e-09
-1.14055e-07
7.18898e-09
-1.22575e-07
8.52019e-09
-1.32876e-07
1.03001e-08
-1.44741e-07
1.18659e-08
-1.58352e-07
1.36102e-08
-1.73585e-07
1.52333e-08
-1.90447e-07
1.68616e-08
-2.08773e-07
1.83267e-08
-2.284e-07
1.96264e-08
-2.49033e-07
2.0633e-08
-2.70325e-07
2.12927e-08
-2.91844e-07
2.15183e-08
-3.13091e-07
2.12468e-08
-3.33476e-07
2.03851e-08
-3.52323e-07
1.88469e-08
-3.68874e-07
1.65515e-08
-3.82313e-07
1.3439e-08
-3.91776e-07
9.4629e-09
-3.9638e-07
4.60379e-09
-3.95284e-07
-1.09616e-09
-3.87609e-07
-7.67471e-09
-3.72615e-07
-1.49937e-08
-3.49668e-07
-2.29474e-08
-3.182e-07
-3.14683e-08
-2.77925e-07
-4.02747e-08
-2.2853e-07
-4.93944e-08
-1.70325e-07
-5.82052e-08
-1.03555e-07
-6.67706e-08
-3.00882e-08
-7.34665e-08
4.6324e-08
-7.64122e-08
1.20307e-07
-7.39829e-08
1.94696e-07
-7.43893e-08
2.66272e-07
-7.15754e-08
3.39588e-07
-7.33162e-08
4.05772e-07
-6.61841e-08
4.7644e-07
-7.06677e-08
5.31327e-07
-5.48875e-08
5.99796e-07
-6.84688e-08
6.35171e-07
-3.5375e-08
7.07784e-07
-7.26134e-08
7.11219e-07
-3.43515e-09
8.05357e-07
-9.41372e-08
7.5762e-07
4.77366e-08
9.12971e-07
-1.55351e-07
7.8977e-07
1.23201e-07
-4.04786e-07
1.91811e-06
1.72968e-05
1.0219e-07
2.62136e-06
-7.43308e-08
2.04267e-07
-1.77885e-07
1.28531e-07
-2.0973e-07
4.25708e-08
-2.27253e-07
1.89209e-08
-2.37708e-07
1.44138e-08
-2.42585e-07
4.38531e-09
-2.48808e-07
8.61789e-09
-2.53446e-07
5.1958e-09
-2.60962e-07
1.02873e-08
-2.69686e-07
1.13275e-08
-2.82174e-07
1.70215e-08
-2.97672e-07
2.08625e-08
-3.17425e-07
2.69415e-08
-3.41062e-07
3.21576e-08
-3.69121e-07
3.83584e-08
-4.01388e-07
4.41336e-08
-4.38006e-07
5.02281e-08
-4.78735e-07
5.59624e-08
-5.23384e-07
6.15102e-08
-5.71481e-07
6.64239e-08
-6.22437e-07
7.05827e-08
-6.75403e-07
7.35991e-08
-7.29362e-07
7.52511e-08
-7.8311e-07
7.52664e-08
-8.35285e-07
7.34221e-08
-8.84323e-07
6.94231e-08
-9.28469e-07
6.29929e-08
-9.65806e-07
5.38884e-08
-9.94303e-07
4.19358e-08
-1.01185e-06
2.70151e-08
-1.01634e-06
9.09297e-09
-1.00568e-06
-1.17638e-08
-9.77962e-07
-3.5389e-08
-9.31384e-07
-6.15719e-08
-8.64451e-07
-8.98801e-08
-7.75891e-07
-1.20028e-07
-6.64918e-07
-1.51248e-07
-5.30962e-07
-1.8335e-07
-3.74519e-07
-2.14648e-07
-1.96931e-07
-2.44359e-07
-2.8441e-09
-2.67553e-07
1.94082e-07
-2.73338e-07
3.85293e-07
-2.65194e-07
5.75239e-07
-2.64335e-07
7.59965e-07
-2.56301e-07
9.43241e-07
-2.56592e-07
1.11461e-06
-2.37557e-07
1.28525e-06
-2.41299e-07
1.43262e-06
-2.0226e-07
1.58731e-06
-2.23164e-07
1.69875e-06
-1.46812e-07
1.84257e-06
-2.16435e-07
1.90382e-06
-6.46842e-08
2.05718e-06
-2.47497e-07
2.05105e-06
5.38632e-08
2.27013e-06
-3.7443e-07
2.18401e-06
2.09328e-07
-1.05848e-06
2.91717e-06
2.43796e-05
3.96476e-07
5.14205e-06
-4.05269e-08
6.4127e-07
-2.39361e-07
3.27365e-07
-3.0247e-07
1.0568e-07
-3.44194e-07
6.06453e-08
-3.64203e-07
3.44225e-08
-3.78169e-07
1.83517e-08
-3.89487e-07
1.99362e-08
-3.99933e-07
1.56414e-08
-4.12666e-07
2.30204e-08
-4.28101e-07
2.6762e-08
-4.48401e-07
3.73221e-08
-4.73796e-07
4.62569e-08
-5.05375e-07
5.85208e-08
-5.4316e-07
6.99422e-08
-5.87572e-07
8.27706e-08
-6.38484e-07
9.50461e-08
-6.9588e-07
1.07624e-07
-7.59397e-07
1.19479e-07
-8.28558e-07
1.30672e-07
-9.02549e-07
1.40414e-07
-9.80294e-07
1.48328e-07
-1.06036e-06
1.53667e-07
-1.14105e-06
1.55936e-07
-1.22038e-06
1.54604e-07
-1.29617e-06
1.49211e-07
-1.36594e-06
1.39188e-07
-1.42695e-06
1.24006e-07
-1.47629e-06
1.03225e-07
-1.51091e-06
7.65536e-08
-1.52771e-06
4.3819e-08
-1.52364e-06
5.02167e-09
-1.49577e-06
-3.96336e-08
-1.44148e-06
-8.96825e-08
-1.3584e-06
-1.44646e-07
-1.24467e-06
-2.03614e-07
-1.09886e-06
-2.65833e-07
-9.20309e-07
-3.29802e-07
-7.09047e-07
-3.94612e-07
-4.66687e-07
-4.57008e-07
-1.97083e-07
-5.13963e-07
9.11182e-08
-5.55755e-07
3.82065e-07
-5.64285e-07
6.68685e-07
-5.51813e-07
9.54935e-07
-5.50585e-07
1.2366e-06
-5.37966e-07
1.5137e-06
-5.33695e-07
1.77763e-06
-5.01485e-07
2.03358e-06
-4.97247e-07
2.265e-06
-4.33678e-07
2.49135e-06
-4.49515e-07
2.67668e-06
-3.32141e-07
2.87404e-06
-4.13802e-07
3.00113e-06
-1.91769e-07
3.18618e-06
-4.32553e-07
3.24663e-06
-6.58846e-09
3.47747e-06
-6.05261e-07
3.48698e-06
1.99817e-07
-1.79795e-06
3.8089e-06
3.05707e-05
8.13224e-07
8.13773e-06
5.24532e-08
1.40204e-06
-2.533e-07
6.33118e-07
-3.61938e-07
2.14318e-07
-4.33788e-07
1.32496e-07
-4.68328e-07
6.89625e-08
-4.94072e-07
4.40958e-08
-5.12674e-07
3.85383e-08
-5.30141e-07
3.31075e-08
-5.4898e-07
4.18597e-08
-5.71425e-07
4.92067e-08
-5.99531e-07
6.54284e-08
-6.34363e-07
8.10887e-08
-6.76974e-07
1.01133e-07
-7.27688e-07
1.20656e-07
-7.86831e-07
1.41914e-07
-8.54284e-07
1.625e-07
-9.29842e-07
1.83181e-07
-1.01294e-06
2.02577e-07
-1.10277e-06
2.20498e-07
-1.1981e-06
2.35743e-07
-1.29732e-06
2.47557e-07
-1.39841e-06
2.54754e-07
-1.49896e-06
2.56485e-07
-1.59627e-06
2.51918e-07
-1.68738e-06
2.40313e-07
-1.76899e-06
2.20798e-07
-1.83757e-06
1.92585e-07
-1.8894e-06
1.55062e-07
-1.92072e-06
1.07873e-07
-1.92778e-06
5.08752e-08
-1.90697e-06
-1.57863e-08
-1.85501e-06
-9.15902e-08
-1.76906e-06
-1.75638e-07
-1.64676e-06
-2.66948e-07
-1.48644e-06
-3.63927e-07
-1.28722e-06
-4.65053e-07
-1.04923e-06
-5.6779e-07
-7.73853e-07
-6.69993e-07
-4.64447e-07
-7.66414e-07
-1.27422e-07
-8.50988e-07
2.26643e-07
-9.0982e-07
5.85375e-07
-9.23016e-07
9.46133e-07
-9.12572e-07
1.30988e-06
-9.14331e-07
1.67163e-06
-8.9972e-07
2.0278e-06
-8.89867e-07
2.37083e-06
-8.44512e-07
2.70063e-06
-8.27051e-07
3.00507e-06
-7.38108e-07
3.29472e-06
-7.39167e-07
3.54432e-06
-5.81744e-07
3.79043e-06
-6.59914e-07
3.97345e-06
-3.7479e-07
4.18989e-06
-6.48986e-07
4.30328e-06
-1.19984e-07
4.54886e-06
-8.50836e-07
4.63498e-06
1.13692e-07
-2.56619e-06
4.6153e-06
3.59554e-05
1.32416e-06
1.14289e-05
2.12464e-07
2.51374e-06
-2.18518e-07
1.0641e-06
-3.86935e-07
3.82735e-07
-4.95206e-07
2.40767e-07
-5.49366e-07
1.23123e-07
-5.89749e-07
8.44786e-08
-6.17866e-07
6.66549e-08
-6.43628e-07
5.88697e-08
-6.69448e-07
6.76801e-08
-6.99189e-07
7.8948e-08
-7.35022e-07
1.01261e-07
-7.78741e-07
1.24808e-07
-8.31446e-07
1.53837e-07
-8.93682e-07
1.82891e-07
-9.65682e-07
2.13914e-07
-1.04726e-06
2.44079e-07
-1.13798e-06
2.73897e-07
-1.23699e-06
3.01592e-07
-1.3431e-06
3.26603e-07
-1.4546e-06
3.47247e-07
-1.56934e-06
3.62299e-07
-1.68467e-06
3.70076e-07
-1.79752e-06
3.69339e-07
-1.90455e-06
3.58946e-07
-2.00212e-06
3.37885e-07
-2.08634e-06
3.05017e-07
-2.15311e-06
2.59352e-07
-2.19824e-06
2.002e-07
-2.21763e-06
1.27263e-07
-2.20733e-06
4.05674e-08
-2.1637e-06
-5.94082e-08
-2.08364e-06
-1.71653e-07
-1.9646e-06
-2.94681e-07
-1.80473e-06
-4.26816e-07
-1.60305e-06
-5.65608e-07
-1.35953e-06
-7.08578e-07
-1.0753e-06
-8.52011e-07
-7.52998e-07
-9.92299e-07
-3.97182e-07
-1.12223e-06
-1.54371e-08
-1.23273e-06
3.82092e-07
-1.30735e-06
7.88298e-07
-1.32922e-06
1.20362e-06
-1.3279e-06
1.62581e-06
-1.33651e-06
2.04951e-06
-1.32342e-06
2.46856e-06
-1.30891e-06
2.87628e-06
-1.25223e-06
3.26809e-06
-1.21886e-06
3.63533e-06
-1.10535e-06
3.98066e-06
-1.0845e-06
4.28751e-06
-8.88594e-07
4.57832e-06
-9.50719e-07
4.81132e-06
-6.07791e-07
5.05838e-06
-8.96053e-07
5.21613e-06
-2.77733e-07
5.47794e-06
-1.11264e-06
5.62338e-06
-3.17515e-08
-3.32288e-06
5.34677e-06
4.06086e-05
1.90186e-06
1.48738e-05
4.47665e-07
3.96794e-06
-1.33865e-07
1.64563e-06
-3.76296e-07
6.25166e-07
-5.27615e-07
3.92086e-07
-6.06623e-07
2.0213e-07
-6.64696e-07
1.42551e-07
-7.04617e-07
1.06576e-07
-7.40023e-07
9.42754e-08
-7.73698e-07
1.01355e-07
-8.1101e-07
1.16261e-07
-8.54426e-07
1.44677e-07
-9.0639e-07
1.76772e-07
-9.68102e-07
2.15549e-07
-1.04027e-06
2.55057e-07
-1.12301e-06
2.96654e-07
-1.216e-06
3.3707e-07
-1.31851e-06
3.7641e-07
-1.42937e-06
4.1245e-07
-1.54693e-06
4.44161e-07
-1.669e-06
4.6932e-07
-1.79288e-06
4.8618e-07
-1.91535e-06
4.92547e-07
-2.03282e-06
4.86806e-07
-2.14143e-06
4.67555e-07
-2.23713e-06
4.33585e-07
-2.31569e-06
3.83583e-07
-2.37282e-06
3.16478e-07
-2.40427e-06
2.31649e-07
-2.40601e-06
1.29006e-07
-2.37435e-06
8.90254e-09
-2.30606e-06
-1.277e-07
-2.19849e-06
-2.79221e-07
-2.04965e-06
-4.43521e-07
-1.85831e-06
-6.18151e-07
-1.62414e-06
-7.9978e-07
-1.34777e-06
-9.84947e-07
-1.03098e-06
-1.16881e-06
-6.7699e-07
-1.34629e-06
-2.90763e-07
-1.50846e-06
1.20103e-07
-1.6436e-06
5.46932e-07
-1.73418e-06
9.86586e-07
-1.76888e-06
1.44063e-06
-1.78194e-06
1.9044e-06
-1.80028e-06
2.37257e-06
-1.7916e-06
2.83763e-06
-1.77397e-06
3.29391e-06
-1.70852e-06
3.73378e-06
-1.65873e-06
4.15163e-06
-1.5232e-06
4.5434e-06
-1.47626e-06
4.90019e-06
-1.24538e-06
5.23106e-06
-1.28159e-06
5.51062e-06
-8.87352e-07
5.78692e-06
-1.17236e-06
5.98619e-06
-4.77004e-07
6.26358e-06
-1.39003e-06
6.45748e-06
-2.2565e-07
-4.04046e-06
6.00882e-06
4.45998e-05
2.52341e-06
1.83592e-05
7.56431e-07
5.73492e-06
-2.56824e-09
2.40463e-06
-3.2884e-07
9.51437e-07
-5.30103e-07
5.93349e-07
-6.39363e-07
3.11391e-07
-7.18384e-07
2.21572e-07
-7.72485e-07
1.60678e-07
-8.18969e-07
1.40759e-07
-8.61385e-07
1.43772e-07
-9.06542e-07
1.61418e-07
-9.57339e-07
1.95473e-07
-1.01682e-06
2.36254e-07
-1.08632e-06
2.85052e-07
-1.16666e-06
3.35389e-07
-1.25781e-06
3.87804e-07
-1.35926e-06
4.38521e-07
-1.46996e-06
4.87114e-07
-1.58837e-06
5.30861e-07
-1.71241e-06
5.68197e-07
-1.83943e-06
5.96345e-07
-1.96628e-06
6.1303e-07
-2.08933e-06
6.15592e-07
-2.20463e-06
6.02112e-07
-2.30811e-06
5.7103e-07
-2.39557e-06
5.21051e-07
-2.46281e-06
4.50816e-07
-2.50563e-06
3.59308e-07
-2.52008e-06
2.46092e-07
-2.50247e-06
1.11399e-07
-2.44957e-06
-4.39961e-08
-2.35864e-06
-2.18637e-07
-2.22747e-06
-4.10391e-07
-2.05452e-06
-6.16471e-07
-1.839e-06
-8.33667e-07
-1.58096e-06
-1.05782e-06
-1.28137e-06
-1.28453e-06
-9.42258e-07
-1.50792e-06
-5.67027e-07
-1.72152e-06
-1.60583e-07
-1.9149e-06
2.69981e-07
-2.07416e-06
7.17541e-07
-2.18174e-06
1.1812e-06
-2.23254e-06
1.66238e-06
-2.26312e-06
2.15489e-06
-2.29279e-06
2.65348e-06
-2.2902e-06
3.15009e-06
-2.27057e-06
3.63996e-06
-2.19839e-06
4.11383e-06
-2.1326e-06
4.56861e-06
-1.97798e-06
4.99547e-06
-1.90313e-06
5.39211e-06
-1.64202e-06
5.75597e-06
-1.64545e-06
6.07703e-06
-1.20841e-06
6.37931e-06
-1.47463e-06
6.6193e-06
-7.16992e-07
6.90974e-06
-1.68048e-06
7.14689e-06
-4.628e-07
-4.70103e-06
6.60528e-06
4.79945e-05
3.16982e-06
2.17946e-05
1.13512e-06
7.76961e-06
1.93137e-07
3.34661e-06
-2.433e-07
1.38787e-06
-5.01636e-07
8.51685e-07
-6.46766e-07
4.56521e-07
-7.50214e-07
3.2502e-07
-8.20985e-07
2.31449e-07
-8.80086e-07
1.99859e-07
-9.32165e-07
1.95851e-07
-9.85453e-07
2.14705e-07
-1.04339e-06
2.53412e-07
-1.1096e-06
3.02462e-07
-1.18558e-06
3.61029e-07
-1.2722e-06
4.22014e-07
-1.36932e-06
4.84925e-07
-1.47621e-06
5.45407e-07
-1.5915e-06
6.02407e-07
-1.71331e-06
6.52674e-07
-1.83921e-06
6.94088e-07
-1.9662e-06
7.2334e-07
-2.09085e-06
7.37681e-07
-2.20933e-06
7.34067e-07
-2.31759e-06
7.10376e-07
-2.41157e-06
6.65005e-07
-2.48719e-06
5.9668e-07
-2.54048e-06
5.04097e-07
-2.56754e-06
3.86375e-07
-2.56478e-06
2.43331e-07
-2.52893e-06
7.55495e-08
-2.45716e-06
-1.15769e-07
-2.34707e-06
-3.2873e-07
-2.19676e-06
-5.60692e-07
-2.005e-06
-8.08238e-07
-1.77122e-06
-1.06744e-06
-1.49567e-06
-1.33338e-06
-1.17945e-06
-1.60075e-06
-8.24659e-07
-1.86271e-06
-4.34688e-07
-2.11149e-06
-1.42233e-08
-2.33536e-06
4.30304e-07
-2.51869e-06
8.93108e-07
-2.64454e-06
1.37425e-06
-2.71368e-06
1.87438e-06
-2.76325e-06
2.38645e-06
-2.80487e-06
2.90531e-06
-2.80905e-06
3.42268e-06
-2.78794e-06
3.9345e-06
-2.71022e-06
4.43076e-06
-2.62886e-06
4.91021e-06
-2.45743e-06
5.36113e-06
-2.35405e-06
5.78631e-06
-2.0672e-06
6.17442e-06
-2.03355e-06
6.52872e-06
-1.56272e-06
6.85144e-06
-1.79735e-06
7.12884e-06
-9.9439e-07
7.42817e-06
-1.97981e-06
7.70498e-06
-7.39605e-07
-5.29428e-06
7.13974e-06
5.08548e-05
3.82524e-06
2.51091e-05
1.57695e-06
1.00179e-05
4.38036e-07
4.48552e-06
-1.17756e-07
1.94367e-06
-4.4103e-07
1.17496e-06
-6.27899e-07
6.4339e-07
-7.59482e-07
4.56604e-07
-8.4956e-07
3.21526e-07
-9.22945e-07
2.73244e-07
-9.85671e-07
2.58577e-07
-1.04742e-06
2.7645e-07
-1.11225e-06
3.18251e-07
-1.18438e-06
3.7459e-07
-1.26549e-06
4.4214e-07
-1.35654e-06
5.13063e-07
-1.45726e-06
5.8564e-07
-1.56673e-06
6.54879e-07
-1.68335e-06
7.19024e-07
-1.80498e-06
7.74303e-07
-1.92894e-06
8.1805e-07
-2.05209e-06
8.46489e-07
-2.17087e-06
8.56462e-07
-2.28144e-06
8.44641e-07
-2.37986e-06
8.08792e-07
-2.4622e-06
7.47352e-07
-2.52467e-06
6.59141e-07
-2.56353e-06
5.4296e-07
-2.57525e-06
3.98096e-07
-2.55655e-06
2.24631e-07
-2.5045e-06
2.34983e-08
-2.41654e-06
-2.03731e-07
-2.29049e-06
-4.54774e-07
-2.12468e-06
-7.26502e-07
-1.91803e-06
-1.01489e-06
-1.67012e-06
-1.31535e-06
-1.38128e-06
-1.62221e-06
-1.05269e-06
-1.92934e-06
-6.86431e-07
-2.22897e-06
-2.85806e-07
-2.51211e-06
1.44757e-07
-2.76593e-06
5.99525e-07
-2.97346e-06
1.07375e-06
-3.11876e-06
1.56763e-06
-3.20756e-06
2.08088e-06
-3.27649e-06
2.60603e-06
-3.33002e-06
3.13798e-06
-3.341e-06
3.66849e-06
-3.31845e-06
4.1939e-06
-3.23563e-06
4.70398e-06
-3.13894e-06
5.19871e-06
-2.95216e-06
5.66473e-06
-2.82007e-06
6.10846e-06
-2.51093e-06
6.51252e-06
-2.43762e-06
6.89063e-06
-1.94083e-06
7.22735e-06
-2.13407e-06
7.53544e-06
-1.30248e-06
7.83871e-06
-2.28308e-06
8.1498e-06
-1.0507e-06
-5.81651e-06
7.616e-06
5.32388e-05
4.47651e-06
2.82486e-05
2.07311e-06
1.24213e-05
7.37734e-07
5.8209e-06
4.98808e-08
2.63152e-06
-3.4696e-07
1.5718e-06
-5.81712e-07
8.78142e-07
-7.45364e-07
6.20256e-07
-8.57561e-07
4.33724e-07
-9.47052e-07
3.62734e-07
-1.02151e-06
3.33033e-07
-1.09212e-06
3.47058e-07
-1.16367e-06
3.89801e-07
-1.24096e-06
4.51888e-07
-1.32595e-06
5.2713e-07
-1.41971e-06
6.06821e-07
-1.52191e-06
6.8784e-07
-1.63154e-06
7.64505e-07
-1.74683e-06
8.34312e-07
-1.86551e-06
8.92991e-07
-1.98482e-06
9.3736e-07
-2.10158e-06
9.63242e-07
-2.21226e-06
9.67142e-07
-2.31314e-06
9.4552e-07
-2.40044e-06
8.96095e-07
-2.47048e-06
8.17396e-07
-2.5197e-06
7.08362e-07
-2.54466e-06
5.6792e-07
-2.5421e-06
3.95529e-07
-2.50899e-06
1.91527e-07
-2.44266e-06
-4.28333e-08
-2.34072e-06
-3.05667e-07
-2.20116e-06
-5.94333e-07
-2.02245e-06
-9.05217e-07
-1.80362e-06
-1.23372e-06
-1.54436e-06
-1.57461e-06
-1.24504e-06
-1.92153e-06
-9.06879e-07
-2.2675e-06
-5.31909e-07
-2.60394e-06
-1.23342e-07
-2.92068e-06
3.14681e-07
-3.20395e-06
7.7706e-07
-3.43584e-06
1.25982e-06
-3.60152e-06
1.76288e-06
-3.71062e-06
2.28495e-06
-3.79856e-06
2.81847e-06
-3.86355e-06
3.35841e-06
-3.88093e-06
3.89663e-06
-3.85667e-06
4.42974e-06
-3.76874e-06
4.94754e-06
-3.65674e-06
5.45076e-06
-3.45538e-06
5.92525e-06
-3.29455e-06
6.3798e-06
-2.96548e-06
6.79314e-06
-2.85096e-06
7.18658e-06
-2.33427e-06
7.53146e-06
-2.47895e-06
7.86208e-06
-1.6331e-06
8.16479e-06
-2.58579e-06
8.50255e-06
-1.38846e-06
-6.26948e-06
8.03814e-06
5.52007e-05
5.11292e-06
3.11738e-05
2.61349e-06
1.49207e-05
1.09181e-06
7.34258e-06
2.6092e-07
3.46241e-06
-2.1799e-07
2.05071e-06
-5.07035e-07
1.16719e-06
-7.06905e-07
8.20126e-07
-8.44244e-07
5.71063e-07
-9.51841e-07
4.70331e-07
-1.03925e-06
4.20442e-07
-1.11926e-06
4.27067e-07
-1.19745e-06
4.67994e-07
-1.27932e-06
5.33759e-07
-1.36714e-06
6.14947e-07
-1.46219e-06
7.01868e-07
-1.56417e-06
7.89824e-07
-1.67207e-06
8.72408e-07
-1.78409e-06
9.46323e-07
-1.89792e-06
1.00683e-06
-2.01082e-06
1.05025e-06
-2.11965e-06
1.07208e-06
-2.22104e-06
1.06853e-06
-2.31142e-06
1.0359e-06
-2.38722e-06
9.71893e-07
-2.44498e-06
8.75156e-07
-2.48137e-06
7.44756e-07
-2.4932e-06
5.79746e-07
-2.47742e-06
3.79748e-07
-2.43123e-06
1.45343e-07
-2.35213e-06
-1.21938e-07
-2.23786e-06
-4.19939e-07
-2.08653e-06
-7.45663e-07
-1.89673e-06
-1.09501e-06
-1.6676e-06
-1.46286e-06
-1.39889e-06
-1.84332e-06
-1.09102e-06
-2.2294e-06
-7.45204e-07
-2.61332e-06
-3.63452e-07
-2.9857e-06
5.11423e-08
-3.33528e-06
4.94715e-07
-3.64752e-06
9.62713e-07
-3.90384e-06
1.45172e-06
-4.09054e-06
1.96115e-06
-4.22004e-06
2.48879e-06
-4.3262e-06
3.02718e-06
-4.40193e-06
3.57133e-06
-4.42509e-06
4.11331e-06
-4.39865e-06
4.64987e-06
-4.3053e-06
5.171e-06
-4.17787e-06
5.67787e-06
-3.96225e-06
6.15601e-06
-3.77269e-06
6.61574e-06
-3.42521e-06
7.03333e-06
-3.26855e-06
7.43542e-06
-2.73636e-06
7.78382e-06
-2.82735e-06
8.12935e-06
-1.97863e-06
8.4281e-06
-2.88454e-06
8.7841e-06
-1.74446e-06
-6.65852e-06
8.41039e-06
5.67903e-05
5.72594e-06
3.38583e-05
3.18732e-06
1.74594e-05
1.49831e-06
9.03159e-06
5.18332e-07
4.44239e-06
-5.27444e-08
2.62179e-06
-4.02576e-07
1.51702e-06
-6.43011e-07
1.06056e-06
-8.0875e-07
7.36801e-07
-9.36665e-07
5.98247e-07
-1.03844e-06
5.22221e-07
-1.12858e-06
5.17202e-07
-1.21354e-06
5.52959e-07
-1.29962e-06
6.19834e-07
-1.3895e-06
7.0483e-07
-1.48479e-06
7.97153e-07
-1.58532e-06
8.90358e-07
-1.69018e-06
9.77265e-07
-1.7976e-06
1.05374e-06
-1.90536e-06
1.11459e-06
-2.01078e-06
1.15567e-06
-2.11087e-06
1.17217e-06
-2.2024e-06
1.16006e-06
-2.28199e-06
1.11549e-06
-2.34628e-06
1.03619e-06
-2.39203e-06
9.20902e-07
-2.41611e-06
7.68835e-07
-2.41552e-06
5.79156e-07
-2.38741e-06
3.51644e-07
-2.32917e-06
8.7103e-08
-2.23841e-06
-2.127e-07
-2.11299e-06
-5.45359e-07
-1.95114e-06
-9.07512e-07
-1.75156e-06
-1.2946e-06
-1.51346e-06
-1.70096e-06
-1.23665e-06
-2.12012e-06
-9.21604e-07
-2.54445e-06
-5.69532e-07
-2.96539e-06
-1.82414e-07
-3.37281e-06
2.36774e-07
-3.75446e-06
6.84427e-07
-4.09518e-06
1.15645e-06
-4.37586e-06
1.64981e-06
-4.5839e-06
2.16332e-06
-4.73355e-06
2.69399e-06
-4.85687e-06
3.23453e-06
-4.94246e-06
3.78003e-06
-4.9706e-06
4.32279e-06
-4.9414e-06
4.85965e-06
-4.84217e-06
5.38086e-06
-4.69908e-06
5.88785e-06
-4.46923e-06
6.36611e-06
-4.25096e-06
6.8269e-06
-3.886e-06
7.24506e-06
-3.68671e-06
7.65079e-06
-3.14209e-06
7.99924e-06
-3.1758e-06
8.35339e-06
-2.33279e-06
8.64587e-06
-3.17701e-06
9.01238e-06
-2.11098e-06
-6.9904e-06
8.73702e-06
5.80533e-05
6.30909e-06
3.62862e-05
3.7837e-06
1.99847e-05
1.95371e-06
1.08616e-05
8.23294e-07
5.5728e-06
1.51397e-07
3.29368e-06
-2.6691e-07
1.93532e-06
-5.52439e-07
1.34609e-06
-7.501e-07
9.34462e-07
-9.00783e-07
7.4893e-07
-1.01858e-06
6.4002e-07
-1.11981e-06
6.18431e-07
-1.21193e-06
6.45079e-07
-1.30213e-06
7.10033e-07
-1.39364e-06
7.96344e-07
-1.4885e-06
8.92007e-07
-1.58677e-06
9.88633e-07
-1.68773e-06
1.07822e-06
-1.78973e-06
1.15574e-06
-1.89068e-06
1.21554e-06
-1.98802e-06
1.25302e-06
-2.07893e-06
1.26308e-06
-2.16036e-06
1.24148e-06
-2.22912e-06
1.18425e-06
-2.28205e-06
1.08911e-06
-2.31609e-06
9.54947e-07
-2.32832e-06
7.8106e-07
-2.3159e-06
5.66738e-07
-2.27616e-06
3.11905e-07
-2.20663e-06
1.75714e-08
-2.10503e-06
-3.143e-07
-1.96933e-06
-6.81061e-07
-1.79787e-06
-1.07897e-06
-1.58945e-06
-1.50302e-06
-1.34335e-06
-1.94705e-06
-1.05947e-06
-2.40401e-06
-7.38272e-07
-2.86564e-06
-3.81006e-07
-3.32266e-06
1.03844e-08
-3.76421e-06
4.33041e-07
-4.17712e-06
8.83587e-07
-4.54572e-06
1.35829e-06
-4.85056e-06
1.8544e-06
-5.08001e-06
2.3701e-06
-5.24925e-06
2.90175e-06
-5.38852e-06
3.44226e-06
-5.48298e-06
3.98687e-06
-5.5152e-06
4.52806e-06
-5.4826e-06
5.0628e-06
-5.3769e-06
5.5816e-06
-5.21789e-06
6.08604e-06
-4.97367e-06
6.56178e-06
-4.7267e-06
7.02059e-06
-4.34482e-06
7.43655e-06
-4.10266e-06
7.84222e-06
-3.54777e-06
8.18814e-06
-3.52172e-06
8.54606e-06
-2.6907e-06
8.83076e-06
-3.4617e-06
9.20136e-06
-2.48157e-06
-7.27192e-06
9.02227e-06
5.9031e-05
6.85767e-06
3.84508e-05
4.39211e-06
2.24503e-05
2.45299e-06
1.28007e-05
1.17634e-06
6.84945e-06
3.95523e-07
4.0745e-06
-9.82581e-08
2.42911e-06
-4.33775e-07
1.68161e-06
-6.6717e-07
1.16786e-06
-8.43326e-07
9.25086e-07
-9.79068e-07
7.75762e-07
-1.09264e-06
7.32e-07
-1.19259e-06
7.45029e-07
-1.28714e-06
8.04582e-07
-1.38017e-06
8.89382e-07
-1.47427e-06
9.86101e-07
-1.56983e-06
1.0842e-06
-1.66639e-06
1.17478e-06
-1.76249e-06
1.25184e-06
-1.8562e-06
1.30925e-06
-1.94514e-06
1.34196e-06
-2.02667e-06
1.34461e-06
-2.09792e-06
1.31273e-06
-2.1559e-06
1.24224e-06
-2.19764e-06
1.13086e-06
-2.22027e-06
9.77576e-07
-2.22103e-06
7.81814e-07
-2.19724e-06
5.42954e-07
-2.14639e-06
2.61057e-07
-2.06614e-06
-6.26815e-08
-1.95431e-06
-4.26132e-07
-1.80897e-06
-8.26397e-07
-1.62859e-06
-1.25935e-06
-1.41205e-06
-1.71956e-06
-1.15871e-06
-2.20039e-06
-8.68509e-07
-2.69421e-06
-5.41979e-07
-3.19217e-06
-1.80362e-07
-3.68427e-06
2.14419e-07
-4.15899e-06
6.39624e-07
-4.60233e-06
1.09206e-06
-4.99816e-06
1.5683e-06
-5.3268e-06
2.06574e-06
-5.57745e-06
2.58202e-06
-5.76553e-06
3.11294e-06
-5.91945e-06
3.65168e-06
-6.02171e-06
4.19355e-06
-6.05707e-06
4.7313e-06
-6.02036e-06
5.26197e-06
-5.90756e-06
5.77639e-06
-5.73231e-06
6.27619e-06
-5.47347e-06
6.74733e-06
-5.19784e-06
7.20185e-06
-4.79934e-06
7.6135e-06
-4.51431e-06
8.01633e-06
-3.9506e-06
8.3578e-06
-3.86319e-06
8.71579e-06
-3.0487e-06
8.99173e-06
-3.73765e-06
9.36141e-06
-2.85125e-06
-7.50914e-06
9.27025e-06
5.97607e-05
7.36856e-06
4.03525e-05
5.00267e-06
2.48162e-05
2.98983e-06
1.48135e-05
1.57691e-06
8.26237e-06
6.8145e-07
4.96996e-06
1.05256e-07
3.0053e-06
-2.85435e-07
2.0723e-06
-5.58665e-07
1.44109e-06
-7.63262e-07
1.12968e-06
-9.19168e-07
9.31668e-07
-1.04663e-06
8.59457e-07
-1.15539e-06
8.53793e-07
-1.25482e-06
9.04014e-07
-1.34957e-06
9.84137e-07
-1.44288e-06
1.0794e-06
-1.53556e-06
1.17688e-06
-1.62749e-06
1.2667e-06
-1.71743e-06
1.34178e-06
-1.8037e-06
1.39551e-06
-1.88409e-06
1.42235e-06
-1.95616e-06
1.41668e-06
-2.01723e-06
1.3738e-06
-2.06453e-06
1.28954e-06
-2.09525e-06
1.16158e-06
-2.10671e-06
9.89036e-07
-2.0963e-06
7.71404e-07
-2.06151e-06
5.08163e-07
-1.99996e-06
1.99503e-07
-1.90942e-06
-1.53222e-07
-1.78782e-06
-5.47733e-07
-1.63335e-06
-9.80869e-07
-1.44457e-06
-1.44813e-06
-1.22046e-06
-1.94367e-06
-9.60467e-07
-2.46038e-06
-6.64582e-07
-2.9901e-06
-3.33371e-07
-3.52338e-06
3.19015e-08
-4.04954e-06
4.29344e-07
-4.55643e-06
8.56312e-07
-5.02929e-06
1.30977e-06
-5.45161e-06
1.78652e-06
-5.80355e-06
2.28405e-06
-6.07498e-06
2.79952e-06
-6.281e-06
3.32829e-06
-6.44822e-06
3.86375e-06
-6.55717e-06
4.40135e-06
-6.59467e-06
4.9341e-06
-6.55311e-06
5.45909e-06
-6.43255e-06
5.9675e-06
-6.24072e-06
6.46099e-06
-5.96696e-06
6.92586e-06
-5.66271e-06
7.37426e-06
-5.24773e-06
7.77992e-06
-4.91996e-06
8.17778e-06
-4.34847e-06
8.5133e-06
-4.1987e-06
8.86856e-06
-3.40396e-06
9.13508e-06
-4.00416e-06
9.50004e-06
-3.21621e-06
-7.70722e-06
9.4849e-06
6.02758e-05
7.83999e-06
4.19974e-05
5.60649e-06
2.70497e-05
3.5569e-06
1.68631e-05
2.02323e-06
9.79603e-06
1.01062e-06
5.98257e-06
3.45687e-07
3.67023e-06
-1.05717e-07
2.5237e-06
-4.23116e-07
1.75849e-06
-6.59362e-07
1.36593e-06
-8.37955e-07
1.11026e-06
-9.81158e-07
1.00266e-06
-1.10003e-06
9.72664e-07
-1.20517e-06
1.00916e-06
-1.30212e-06
1.08108e-06
-1.39485e-06
1.17213e-06
-1.48471e-06
1.26675e-06
-1.57197e-06
1.35397e-06
-1.65571e-06
1.42552e-06
-1.73446e-06
1.47427e-06
-1.80625e-06
1.49414e-06
-1.86886e-06
1.47929e-06
-1.91981e-06
1.42475e-06
-1.95653e-06
1.32626e-06
-1.9764e-06
1.18145e-06
-1.9769e-06
9.89534e-07
-1.95558e-06
7.50082e-07
-1.91007e-06
4.62654e-07
-1.83813e-06
1.27561e-07
-1.73764e-06
-2.5371e-07
-1.60664e-06
-6.78736e-07
-1.44343e-06
-1.14408e-06
-1.24668e-06
-1.64488e-06
-1.01546e-06
-2.17489e-06
-7.49298e-07
-2.72654e-06
-4.48241e-07
-3.29115e-06
-1.12902e-07
-3.85872e-06
2.55441e-07
-4.41789e-06
6.54919e-07
-4.95591e-06
1.08297e-06
-5.45734e-06
1.53667e-06
-5.90532e-06
2.01301e-06
-6.27989e-06
2.50953e-06
-6.5715e-06
3.02296e-06
-6.79442e-06
3.54832e-06
-6.97358e-06
4.07923e-06
-7.08809e-06
4.61126e-06
-7.1267e-06
5.13767e-06
-7.07952e-06
5.65563e-06
-6.9505e-06
6.15665e-06
-6.74174e-06
6.64241e-06
-6.45272e-06
7.09962e-06
-6.11991e-06
7.5404e-06
-5.68851e-06
7.9387e-06
-5.31826e-06
8.32991e-06
-4.73968e-06
8.65828e-06
-4.52707e-06
9.00865e-06
-3.75434e-06
9.26523e-06
-4.26075e-06
9.62262e-06
-3.5736e-06
-7.87039e-06
9.66996e-06
6.06059e-05
8.27134e-06
4.3396e-05
6.19578e-06
2.91253e-05
4.1462e-06
1.89127e-05
2.51222e-06
1.143e-05
1.38382e-06
7.11097e-06
6.25095e-07
4.42896e-06
1.07305e-07
3.04149e-06
-2.58892e-07
2.12468e-06
-5.30194e-07
1.63723e-06
-7.34286e-07
1.31435e-06
-8.95391e-07
1.16376e-06
-1.02597e-06
1.10325e-06
-1.13795e-06
1.12113e-06
-1.23781e-06
1.18094e-06
-1.33042e-06
1.26474e-06
-1.41772e-06
1.35405e-06
-1.50045e-06
1.4367e-06
-1.57805e-06
1.50311e-06
-1.64933e-06
1.54555e-06
-1.71258e-06
1.55739e-06
-1.76578e-06
1.5325e-06
-1.80671e-06
1.46568e-06
-1.83297e-06
1.35252e-06
-1.84214e-06
1.19062e-06
-1.83187e-06
9.79258e-07
-1.79985e-06
7.18064e-07
-1.74386e-06
4.06666e-07
-1.66179e-06
4.54914e-08
-1.55163e-06
-3.63868e-07
-1.41153e-06
-8.18839e-07
-1.23991e-06
-1.3157e-06
-1.03554e-06
-1.84925e-06
-7.97598e-07
-2.41283e-06
-5.25672e-07
-2.99847e-06
-2.19884e-07
-3.59694e-06
1.19108e-07
-4.19771e-06
4.90015e-07
-4.7888e-06
8.90975e-07
-5.35687e-06
1.31949e-06
-5.88585e-06
1.77273e-06
-6.35856e-06
2.24784e-06
-6.755e-06
2.74235e-06
-7.06601e-06
3.25264e-06
-7.30472e-06
3.77351e-06
-7.49445e-06
4.29875e-06
-7.61332e-06
4.82405e-06
-7.652e-06
5.34295e-06
-7.59842e-06
5.85268e-06
-7.46024e-06
6.34512e-06
-7.23418e-06
6.82193e-06
-6.92954e-06
7.27027e-06
-6.56824e-06
7.70217e-06
-6.12042e-06
8.09195e-06
-5.70804e-06
8.47513e-06
-5.12287e-06
8.79535e-06
-4.84728e-06
9.13912e-06
-4.09811e-06
9.38537e-06
-4.507e-06
9.73304e-06
-3.92126e-06
-8.00215e-06
9.82893e-06
6.0777e-05
8.66292e-06
4.4562e-05
6.76395e-06
3.10242e-05
4.7494e-06
2.09273e-05
3.03952e-06
1.31399e-05
1.80101e-06
8.34948e-06
9.45157e-07
5.28481e-06
3.55543e-07
3.63111e-06
-6.41583e-08
2.54438e-06
-3.74134e-07
1.94721e-06
-6.06793e-07
1.54701e-06
-7.88231e-07
1.3452e-06
-9.3243e-07
1.24745e-06
-1.05264e-06
1.24134e-06
-1.1564e-06
1.28471e-06
-1.24955e-06
1.35789e-06
-1.33472e-06
1.43922e-06
-1.41322e-06
1.5152e-06
-1.48487e-06
1.57476e-06
-1.54883e-06
1.60951e-06
-1.60365e-06
1.61221e-06
-1.64758e-06
1.57643e-06
-1.67861e-06
1.4967e-06
-1.69455e-06
1.36846e-06
-1.69318e-06
1.18925e-06
-1.6723e-06
9.58384e-07
-1.62978e-06
6.75544e-07
-1.56353e-06
3.40411e-07
-1.47155e-06
-4.64834e-08
-1.35196e-06
-4.83457e-07
-1.20302e-06
-9.67782e-07
-1.02327e-06
-1.49545e-06
-8.11598e-07
-2.06092e-06
-5.67256e-07
-2.65717e-06
-2.89926e-07
-3.2758e-06
2.02046e-08
-3.90707e-06
3.62433e-07
-4.53994e-06
7.3545e-07
-5.16181e-06
1.13739e-06
-5.75881e-06
1.5658e-06
-6.31426e-06
2.01795e-06
-6.81071e-06
2.49106e-06
-7.22811e-06
2.98264e-06
-7.55759e-06
3.48882e-06
-7.8109e-06
4.0042e-06
-8.00982e-06
4.52276e-06
-8.13189e-06
5.04032e-06
-8.16956e-06
5.55066e-06
-8.10876e-06
6.05111e-06
-7.96069e-06
6.5339e-06
-7.71697e-06
7.00069e-06
-7.39633e-06
7.43908e-06
-7.00664e-06
7.86101e-06
-6.54235e-06
8.24126e-06
-6.08829e-06
8.61526e-06
-5.49687e-06
8.92646e-06
-5.15849e-06
9.26225e-06
-4.4339e-06
9.49781e-06
-4.74255e-06
9.83413e-06
-4.25759e-06
-8.10533e-06
9.96507e-06
6.08119e-05
9.0158e-06
4.55113e-05
7.30566e-06
3.27344e-05
5.35818e-06
2.28748e-05
3.59965e-06
1.48984e-05
2.26111e-06
9.68801e-06
1.30711e-06
6.23882e-06
6.40817e-07
4.2974e-06
1.63014e-07
3.02219e-06
-1.89404e-07
2.29962e-06
-4.53903e-07
1.81151e-06
-6.58346e-07
1.54965e-06
-8.18343e-07
1.40744e-06
-9.48459e-07
1.37146e-06
-1.05736e-06
1.39361e-06
-1.15193e-06
1.45246e-06
-1.2356e-06
1.52289e-06
-1.3103e-06
1.5899e-06
-1.37632e-06
1.64078e-06
-1.4332e-06
1.66639e-06
-1.4798e-06
1.6588e-06
-1.51462e-06
1.61125e-06
-1.5359e-06
1.51799e-06
-1.5417e-06
1.37425e-06
-1.52995e-06
1.1775e-06
-1.49866e-06
9.27093e-07
-1.44583e-06
6.22712e-07
-1.3695e-06
2.64088e-07
-1.26783e-06
-1.48158e-07
-1.13903e-06
-6.1226e-07
-9.81479e-07
-1.12533e-06
-7.93856e-07
-1.68308e-06
-5.75147e-07
-2.27963e-06
-3.24706e-07
-2.90761e-06
-4.22958e-08
-3.55821e-06
2.71828e-07
-4.2212e-06
6.16916e-07
-4.88503e-06
9.91628e-07
-5.53653e-06
1.39409e-06
-6.16127e-06
1.82188e-06
-6.74205e-06
2.27232e-06
-7.26115e-06
2.74272e-06
-7.69851e-06
3.23054e-06
-8.04541e-06
3.73171e-06
-8.31207e-06
4.2407e-06
-8.51882e-06
4.75169e-06
-8.64287e-06
5.26056e-06
-8.67843e-06
5.76139e-06
-8.60959e-06
6.2516e-06
-8.4509e-06
6.72377e-06
-8.18914e-06
7.17956e-06
-7.85212e-06
7.60706e-06
-7.43414e-06
8.01803e-06
-6.95332e-06
8.38783e-06
-6.45808e-06
8.75164e-06
-5.86068e-06
9.05307e-06
-5.45992e-06
9.37973e-06
-4.76056e-06
9.60425e-06
-4.96706e-06
9.928e-06
-4.58134e-06
-8.18229e-06
1.00814e-05
6.07305e-05
9.33163e-06
4.62611e-05
7.81678e-06
3.42492e-05
5.96452e-06
2.4727e-05
4.18614e-06
1.66768e-05
2.7619e-06
1.11123e-05
1.71159e-06
7.28914e-06
9.64891e-07
5.04409e-06
4.24689e-07
3.56239e-06
2.58448e-08
2.69847e-06
-2.73876e-07
2.11123e-06
-5.04178e-07
1.77995e-06
-6.82416e-07
1.58568e-06
-8.24382e-07
1.51342e-06
-9.39911e-07
1.50914e-06
-1.037e-06
1.54955e-06
-1.11997e-06
1.60585e-06
-1.19145e-06
1.66138e-06
-1.25229e-06
1.70162e-06
-1.30244e-06
1.71654e-06
-1.34108e-06
1.69744e-06
-1.36703e-06
1.63721e-06
-1.37879e-06
1.52974e-06
-1.37463e-06
1.37009e-06
-1.3527e-06
1.15558e-06
-1.31119e-06
8.85578e-07
-1.24824e-06
5.59762e-07
-1.16204e-06
1.77893e-07
-1.05087e-06
-2.59333e-07
-9.13061e-07
-7.50069e-07
-7.47133e-07
-1.29126e-06
-5.51877e-07
-1.87833e-06
-3.26392e-07
-2.50511e-06
-7.01296e-08
-3.16388e-06
2.17061e-07
-3.8454e-06
5.34858e-07
-4.53899e-06
8.82453e-07
-5.23262e-06
1.25847e-06
-5.91254e-06
1.66102e-06
-6.56382e-06
2.08769e-06
-7.16873e-06
2.53586e-06
-7.70932e-06
3.00288e-06
-8.16552e-06
3.48616e-06
-8.5287e-06
3.98149e-06