/*--------------------------------*- C++ -*----------------------------------*\
| =========                 |                                                 |
| \\      /  F ield         | OpenFOAM: The Open Source CFD Toolbox           |
|  \\    /   O peration     | Version:  2.4.0                                 |
|   \\  /    A nd           | Web:      www.OpenFOAM.org                      |
|    \\/     M anipulation  |                                                 |
\*---------------------------------------------------------------------------*/
FoamFile
{
    version     2.0;
    format      ascii;
    class       volScalarField;
    location    "2.27";
    object      epsilon;
}
// * * * * * * * * * * * * * * * * * * * * * * * * * * * * * * * * * * * * * //

dimensions      [0 2 -3 0 0 0 0];

internalField   nonuniform List<scalar> 
6000
(
0.995042
0.382842
0.0492733
0.00538173
0.00128741
0.00294988
0.00197657
0.00354022
0.00563246
0.0101689
0.0213726
0.0498574
0.0735477
0.0797119
0.0660598
0.0415908
0.0313423
0.0358032
0.0379433
0.0686037
0.117572
0.152224
0.161667
0.150886
0.128975
0.103823
0.0811431
0.0615184
0.0450914
0.0316528
0.0210985
0.0123974
0.00596493
0.00476431
0.00660949
0.00924223
0.0121324
0.0147261
0.016744
0.0181258
0.0192057
0.0203348
0.0217375
0.023562
0.0259237
0.0290075
0.0330128
0.0381643
0.0447511
0.0531671
0.0639606
0.0779209
0.0961688
0.120459
0.153143
0.198983
0.261925
0.362115
0.486279
0.767361
0.558253
0.356257
0.0228631
0.00530192
0.000627391
0.00108426
0.00128919
0.00212927
0.00351505
0.00595627
0.0120533
0.0229282
0.0285308
0.0253537
0.0230187
0.0197949
0.016075
0.0364981
0.11634
0.104251
0.061917
0.0430326
0.0324953
0.0250752
0.0201417
0.0177078
0.0154791
0.0134005
0.0113955
0.0093795
0.00729795
0.00513398
0.00321356
0.00227551
0.00194307
0.00186211
0.00198326
0.00224416
0.00257518
0.00296052
0.00330713
0.00360047
0.00388184
0.00420098
0.00461048
0.00513318
0.00579538
0.00663366
0.00769423
0.00903791
0.0107479
0.0129403
0.0157838
0.0195194
0.0245304
0.0313334
0.0409821
0.0544561
0.0759323
0.108783
0.416717
0.412126
0.0305533
0.0036927
0.000570189
0.000825662
0.00127278
0.0020257
0.00340379
0.0056731
0.0108458
0.0199951
0.0249208
0.0207341
0.0170785
0.0143639
0.0178162
0.0669903
0.105981
0.0518376
0.0246392
0.0161377
0.0124717
0.0108532
0.0103656
0.0103624
0.010289
0.0100561
0.00956809
0.00871654
0.00741397
0.00568507
0.00380354
0.00245722
0.0016777
0.00116941
0.000885062
0.000763809
0.000746793
0.000796465
0.000873494
0.000948402
0.00101792
0.00109052
0.00118201
0.00129848
0.00144358
0.00162459
0.00185067
0.00213342
0.00248837
0.00293643
0.00350811
0.0042434
0.00521384
0.00648242
0.00828799
0.0105394
0.0144679
0.0181079
0.367356
0.406547
0.0516646
0.00235274
0.000602812
0.000791395
0.00132292
0.00208916
0.00351589
0.00576878
0.0103963
0.0189491
0.0249291
0.0208546
0.0166631
0.0147771
0.0253355
0.0839181
0.0727082
0.027448
0.0136594
0.010049
0.00903712
0.00903733
0.00951614
0.0101
0.0105486
0.010761
0.0106225
0.00999868
0.00876756
0.00692909
0.00473428
0.00304732
0.00200627
0.0012854
0.000829419
0.000572293
0.000445883
0.00039688
0.000390215
0.000399055
0.000412967
0.000430694
0.000455955
0.000489563
0.000531711
0.000583821
0.000647903
0.000726575
0.000823341
0.000942826
0.00109173
0.00127826
0.00151791
0.00181988
0.00224045
0.00272071
0.00358454
0.00409954
0.343012
0.37642
0.0740797
0.00200204
0.000658867
0.000806572
0.00136857
0.00216651
0.00361852
0.00583071
0.00996197
0.0176494
0.024779
0.0215418
0.0173071
0.0168053
0.0349911
0.0836434
0.0475978
0.0171283
0.0100131
0.00870249
0.00880482
0.0094671
0.0103644
0.0112315
0.0119043
0.0122775
0.0122332
0.0116268
0.0103159
0.00827579
0.00573733
0.00375572
0.0024848
0.00158665
0.000987932
0.000621907
0.000419978
0.000319143
0.000275165
0.000258366
0.000254218
0.000257064
0.000265622
0.000278876
0.000296271
0.000317893
0.000344161
0.000375796
0.000413891
0.000459943
0.000516162
0.000585144
0.00067198
0.000779053
0.000925347
0.00108808
0.00138045
0.00156619
0.329442
0.340287
0.0972954
0.00319884
0.000743359
0.000834086
0.00139394
0.00221487
0.00364854
0.00576245
0.0094354
0.0158985
0.0236558
0.0219819
0.0181468
0.0195616
0.0447687
0.0733306
0.0321729
0.012527
0.00895284
0.00885251
0.00958116
0.0106473
0.0118106
0.0128474
0.0136196
0.0140302
0.0139722
0.0133042
0.0118714
0.00962471
0.00676862
0.0045119
0.00301057
0.00194851
0.00122384
0.000754503
0.000476718
0.000327222
0.000253521
0.0002192
0.000204573
0.000200321
0.000202493
0.000208942
0.00021853
0.000230802
0.000245667
0.000263313
0.0002842
0.000309048
0.00033899
0.000375343
0.000420809
0.000476623
0.0005531
0.000639483
0.000800619
0.000936401
0.321265
0.305807
0.114453
0.00857995
0.000908259
0.00086682
0.00140005
0.00222355
0.00359568
0.0055605
0.00878471
0.0140077
0.0215235
0.0220735
0.0189563
0.0227805
0.0525283
0.0597968
0.0230627
0.0104521
0.00899125
0.0096496
0.0108391
0.0122148
0.0135743
0.0147103
0.0155023
0.0158714
0.0157333
0.0149596
0.0133893
0.0109485
0.00781261
0.00530158
0.0035591
0.00232867
0.00149091
0.000929515
0.00057585
0.000373473
0.000267674
0.000215251
0.000190641
0.000180605
0.000178741
0.000181753
0.000187936
0.000196451
0.000206931
0.000219333
0.00023389
0.000251071
0.000271689
0.000296702
0.000328205
0.000367112
0.000421974
0.000484431
0.00061275
0.00073374
0.315834
0.275729
0.1263
0.0183538
0.00127544
0.000910544
0.00139689
0.00219929
0.00347859
0.00526935
0.0080903
0.0122933
0.018753
0.0219731
0.0197227
0.026307
0.0563174
0.0474793
0.0176492
0.00965154
0.00957756
0.0108173
0.0124064
0.014048
0.0155584
0.0167379
0.0174849
0.0177477
0.0174749
0.0165608
0.0148437
0.012225
0.00885301
0.00611713
0.00412813
0.00271495
0.00176536
0.0011253
0.000702235
0.000444719
0.000302659
0.000229059
0.000192776
0.000176274
0.000170536
0.00017088
0.000174899
0.00018137
0.000189698
0.000199683
0.000211426
0.000225273
0.000241905
0.000262142
0.000287894
0.000319955
0.000366555
0.000419784
0.000537533
0.000651712
0.311903
0.25063
0.13358
0.0308216
0.00213758
0.000981587
0.00139902
0.00215975
0.00333242
0.00495507
0.0074578
0.0109483
0.0159122
0.0218446
0.0205045
0.0299802
0.0563227
0.0376597
0.0144
0.00956488
0.0104896
0.0122466
0.0142118
0.0160934
0.0177173
0.0188897
0.0195323
0.0196288
0.0191703
0.0180832
0.0162108
0.0134308
0.00987121
0.0069468
0.00471729
0.00310839
0.00203728
0.00132635
0.000844881
0.000535012
0.000353664
0.00025535
0.000204917
0.000180511
0.000170211
0.000167701
0.000169723
0.000174613
0.000181535
0.000190135
0.000200405
0.000212595
0.000227304
0.000245276
0.000268353
0.00029727
0.000340323
0.000389454
0.000504131
0.000614117
0.308907
0.230199
0.137021
0.0443041
0.0042265
0.00111227
0.0014224
0.00212762
0.00319747
0.00468226
0.00696786
0.0100048
0.0135209
0.0216578
0.0213454
0.0335928
0.0534951
0.0302244
0.012464
0.00991148
0.0116287
0.013885
0.0162163
0.018317
0.0200186
0.0211354
0.0216175
0.0214903
0.0207975
0.019506
0.0174696
0.0145431
0.0108483
0.00777413
0.00532155
0.0035124
0.00230604
0.00152309
0.00099374
0.000638609
0.000417863
0.000292164
0.000225033
0.000190959
0.000175019
0.000169049
0.000168778
0.000172025
0.000177679
0.000185223
0.000194536
0.000205777
0.000219466
0.000236283
0.000258031
0.000285403
0.000326828
0.000374021
0.000488001
0.00059498
0.306559
0.213811
0.137416
0.0569848
0.00888905
0.00136785
0.00148275
0.00212478
0.00310946
0.00450117
0.00665938
0.00938959
0.0118439
0.0211305
0.0222349
0.0368472
0.0488071
0.0247044
0.0113619
0.0105412
0.012945
0.0156996
0.0183898
0.0206882
0.0224315
0.0234463
0.0237152
0.0233112
0.0223385
0.0208129
0.0186032
0.015543
0.0117672
0.00858029
0.00593099
0.00392733
0.00257494
0.00171186
0.00114049
0.000748936
0.000492225
0.000338186
0.000252308
0.000206813
0.000184005
0.000173764
0.000170673
0.000171953
0.000176178
0.000182654
0.000191138
0.000201693
0.000214758
0.000230944
0.000252004
0.000278603
0.000319255
0.000365521
0.000479352
0.000583956
0.304683
0.200782
0.135566
0.0678999
0.0153908
0.00187467
0.00159672
0.00216793
0.00309351
0.00444049
0.0065422
0.00906732
0.0108302
0.0198963
0.0231278
0.039265
0.0431703
0.0206371
0.0108147
0.0113698
0.0144085
0.0176646
0.0207041
0.0231765
0.0249253
0.0257946
0.0258021
0.0250728
0.0237792
0.0219923
0.0196004
0.0164167
0.0126148
0.00934692
0.0065327
0.00434949
0.002847
0.00189324
0.0012797
0.00085973
0.000572931
0.000391713
0.00028601
0.000227656
0.000196798
0.000181431
0.000174903
0.00017377
0.000176255
0.000181469
0.00018904
0.000198934
0.000211502
0.00022728
0.000247959
0.000274167
0.000314435
0.000360267
0.000473831
0.000576397
0.303161
0.190482
0.132206
0.0765277
0.0231321
0.00290725
0.00178735
0.00226709
0.00316253
0.00450916
0.0066105
0.00900765
0.0103152
0.0178322
0.0239952
0.0402249
0.0374726
0.0176546
0.0106527
0.0123477
0.0159975
0.0197562
0.0231313
0.0257512
0.02747
0.0281539
0.0278572
0.0267597
0.0251091
0.0230375
0.0204551
0.0171561
0.0133818
0.010058
0.00711299
0.00477216
0.00312303
0.00206981
0.00140912
0.000965606
0.0006556
0.000450364
0.000325028
0.000252958
0.000213091
0.000191816
0.000181253
0.000177242
0.000177623
0.000181296
0.00018776
0.000196882
0.000208925
0.000224346
0.00024476
0.000270752
0.0003108
0.00035643
0.000469396
0.000570088
0.301911
0.182367
0.127952
0.0827204
0.031283
0.00512041
0.00209663
0.00242708
0.00331908
0.00470438
0.00685271
0.00918069
0.0100624
0.0154239
0.024804
0.0395366
0.0322415
0.015484
0.0107683
0.0134437
0.0176937
0.0219513
0.0256444
0.0283838
0.0300382
0.0305006
0.0298621
0.0283597
0.0263215
0.0239457
0.0211656
0.0177583
0.0140626
0.0107007
0.0076591
0.00518699
0.00340143
0.00224414
0.00152903
0.00106287
0.000735856
0.000511173
0.000367739
0.00028186
0.000232398
0.000204616
0.000189517
0.000182219
0.000180154
0.000181999
0.000187121
0.000195295
0.000206696
0.000221707
0.000241857
0.000267686
0.000307553
0.000353071
0.000465077
0.000563965
0.300878
0.175992
0.123288
0.086585
0.0392876
0.00886957
0.00260599
0.00265171
0.00355849
0.00501765
0.00725751
0.0095688
0.00998786
0.013339
0.0252643
0.0373216
0.0276925
0.0139276
0.0110913
0.0146365
0.0194802
0.0242284
0.0282186
0.0310488
0.0326064
0.0328149
0.0318019
0.0298632
0.0274125
0.0247172
0.0217341
0.0182332
0.0146462
0.0112649
0.00816025
0.0055853
0.00367868
0.00241776
0.00164112
0.00114977
0.000809973
0.000570927
0.000412093
0.00031316
0.000253993
0.000219366
0.00019939
0.000188505
0.000183727
0.0001835
0.000187059
0.00019409
0.000204694
0.000219184
0.000239004
0.000264644
0.000304302
0.000349715
0.000460433
0.000557535
0.300018
0.170994
0.118568
0.0883875
0.0466922
0.0140738
0.00348018
0.00295067
0.00387208
0.00543811
0.00781586
0.0101699
0.0101246
0.011861
0.0246835
0.0339636
0.0238718
0.0128427
0.011574
0.0159102
0.0213413
0.0265672
0.030832
0.0337247
0.0351552
0.0350806
0.0336646
0.0312634
0.0283808
0.025355
0.0221654
0.018601
0.0151179
0.011744
0.00860806
0.00595897
0.00395018
0.00259079
0.00174765
0.00122653
0.000875586
0.000626724
0.000455875
0.000345408
0.00027695
0.000235444
0.000210446
0.000195812
0.00018816
0.000185696
0.00018752
0.000193238
0.000202887
0.000216722
0.000236106
0.000261485
0.000300864
0.000346132
0.00045529
0.000550598
0.2993
0.167085
0.114037
0.0884813
0.0531025
0.0203
0.00507507
0.00335052
0.00425015
0.00595384
0.00852031
0.0109895
0.0105154
0.0108193
0.0228094
0.0301143
0.0207437
0.0121254
0.0121833
0.0172519
0.0232618
0.0289498
0.0334662
0.0363946
0.0376695
0.0372853
0.0354412
0.0325558
0.0292269
0.0258639
0.0224658
0.0188721
0.0154778
0.0121344
0.00899644
0.00630109
0.00421095
0.00276209
0.00185065
0.00129471
0.000931793
0.000676331
0.000496961
0.000377046
0.000300217
0.000252118
0.000222166
0.000203775
0.000193205
0.000188432
0.000188422
0.000192706
0.000201267
0.000214315
0.000233143
0.000258166
0.000297169
0.000342222
0.000449602
0.000543101
0.298697
0.164034
0.109849
0.087252
0.0582391
0.0270085
0.00772086
0.00391175
0.00468573
0.00655205
0.00936314
0.0120339
0.0111921
0.0101094
0.0201082
0.0262829
0.0182381
0.0116988
0.0128955
0.0186502
0.0252277
0.0313598
0.0361057
0.0390448
0.0401377
0.0394192
0.0371245
0.0337371
0.0299525
0.0262499
0.0226435
0.0190563
0.01573
0.0124351
0.00932144
0.00660621
0.00445615
0.00292965
0.00195133
0.00135636
0.000978947
0.000718409
0.000533563
0.000406566
0.000322688
0.000268606
0.000233983
0.00021198
0.000198568
0.000191512
0.000189648
0.000192436
0.000199816
0.000211968
0.000230127
0.000254685
0.000293207
0.000337955
0.000443386
0.000535057
0.298191
0.16166
0.106089
0.0850763
0.0619571
0.033718
0.0114868
0.00475985
0.00518036
0.0072193
0.0103346
0.0133068
0.0121792
0.00971899
0.0172398
0.0227953
0.0162753
0.0115058
0.0136928
0.0200947
0.0272256
0.0337831
0.0387377
0.0416649
0.042551
0.0414747
0.0387089
0.034805
0.0305602
0.0265196
0.0227082
0.0191634
0.0158797
0.0126473
0.00958104
0.00687039
0.00468155
0.00309096
0.00205004
0.00141351
0.0010183
0.000752581
0.000564443
0.000432672
0.000343319
0.000284141
0.000245331
0.000220005
0.000203937
0.000194711
0.000191049
0.000192344
0.000198501
0.000209679
0.000227072
0.000251063
0.000288994
0.000333339
0.000436683
0.000526511
0.297764
0.15982
0.102789
0.0822943
0.0642402
0.0399889
0.0162028
0.00610963
0.00575445
0.00794251
0.0114213
0.0148083
0.0134963
0.00967647
0.0147106
0.0198185
0.0147786
0.0115026
0.0145618
0.0215754
0.0292426
0.0362066
0.0413512
0.044246
0.0449017
0.043445
0.0401891
0.035758
0.0310528
0.0266802
0.0226878
0.0191853
0.0159329
0.0127738
0.00977489
0.00709111
0.00488366
0.00324343
0.00214638
0.00146772
0.00105157
0.000779345
0.000589032
0.000454431
0.000361235
0.000298037
0.00025569
0.000227454
0.000209007
0.000197805
0.000192467
0.00019233
0.00019727
0.000207436
0.000223991
0.000247323
0.000284558
0.0003284
0.000429544
0.000517514
0.297403
0.158401
0.0999486
0.0791935
0.0651799
0.0454595
0.021614
0.00815865
0.00646594
0.00871158
0.0126053
0.0165333
0.0151597
0.0100125
0.0127669
0.0174067
0.0136793
0.0116558
0.0154912
0.0230822
0.0312666
0.0386182
0.043936
0.0467802
0.0471826
0.0453232
0.0415599
0.0365941
0.0314333
0.0267385
0.022607
0.0191187
0.0158962
0.012819
0.0099041
0.00726717
0.00505992
0.00338461
0.0022394
0.00152
0.00108056
0.00079983
0.000607438
0.000471367
0.000375817
0.000309747
0.000264626
0.000233986
0.000213512
0.000200584
0.000193745
0.000192285
0.000196058
0.000205213
0.000220887
0.000243487
0.000279933
0.000323173
0.000422023
0.000508123
0.297097
0.157314
0.097545
0.0760017
0.0649481
0.0498657
0.0273825
0.0110479
0.00742401
0.00952458
0.0138639
0.0184709
0.0171824
0.0107445
0.0114549
0.0155464
0.012919
0.0119395
0.0164713
0.0246055
0.0332855
0.0410061
0.0464819
0.0492591
0.0493858
0.0471018
0.0428152
0.0373113
0.0317044
0.0267019
0.0224786
0.01897
0.0157773
0.0127884
0.0099711
0.00739852
0.00520865
0.00351241
0.00232789
0.00157074
0.00110681
0.000815503
0.000620335
0.000483485
0.000386762
0.000318914
0.000271821
0.000239338
0.000217237
0.000202871
0.000194742
0.000192106
0.0001948
0.000202974
0.000217755
0.000239574
0.000275151
0.000317696
0.000414175
0.000498394
0.296838
0.156489
0.0955412
0.0728885
0.0637661
0.053051
0.0331319
0.0148151
0.00876771
0.0104034
0.0151708
0.0206018
0.0195745
0.0118767
0.0107256
0.014191
0.0124486
0.0123331
0.0174931
0.0261353
0.0352873
0.0433581
0.0489783
0.0516729
0.0515018
0.0487716
0.043948
0.0379074
0.031869
0.0265817
0.0223089
0.018747
0.0155841
0.0126884
0.00997933
0.00748611
0.00532906
0.00362519
0.00241056
0.00161986
0.00113148
0.000827869
0.000628776
0.000491219
0.000394098
0.000325396
0.000277098
0.000243343
0.000220029
0.000204537
0.000195348
0.000191703
0.00019343
0.000200685
0.000214585
0.000235593
0.000270241
0.000312009
0.000406054
0.000488384
0.296617
0.15587
0.0938946
0.0699705
0.0618752
0.0549654
0.0384903
0.0193656
0.0106268
0.011423
0.0165028
0.0228957
0.0223425
0.0134062
0.0105094
0.013284
0.0122273
0.0128201
0.018548
0.0276612
0.0372598
0.0456619
0.0514131
0.0540104
0.0535192
0.0503218
0.0449501
0.0383795
0.0319294
0.026417
0.0220761
0.0184563
0.0153245
0.0125256
0.0099331
0.00753175
0.00542112
0.00372186
0.00248619
0.00166693
0.00115524
0.000838255
0.000633982
0.000495319
0.000398153
0.00032927
0.000280427
0.00024593
0.000221809
0.000205497
0.000195485
0.000191008
0.000191894
0.00019831
0.000211362
0.000231552
0.000265228
0.000306151
0.000397714
0.000478149
0.296429
0.155414
0.0925604
0.0673197
0.0595122
0.0556567
0.0431294
0.0244794
0.0131154
0.0126959
0.0178317
0.0253088
0.0254887
0.0153296
0.0107489
0.0127713
0.0122216
0.0133871
0.0196274
0.0291729
0.0391905
0.0479038
0.0537727
0.0562579
0.0554245
0.0517399
0.0458123
0.0387249
0.0318885
0.0262254
0.0217795
0.0181046
0.0150066
0.0123071
0.00983737
0.007538
0.00548547
0.00380182
0.00255379
0.00171133
0.00117836
0.000847673
0.000637136
0.000496706
0.00039948
0.000330804
0.000281915
0.000247128
0.000222565
0.000205719
0.000195108
0.000189976
0.000190154
0.00019582
0.000208074
0.000227454
0.000260134
0.000300157
0.000389207
0.000467746
0.296267
0.155087
0.0914952
0.0649732
0.0568908
0.0552523
0.0467942
0.0298447
0.0162972
0.0142995
0.0191894
0.02778
0.0290082
0.0176489
0.0114043
0.0126062
0.012404
0.0140228
0.0207226
0.0306598
0.0410664
0.0500693
0.0560419
0.0583995
0.0572017
0.0530115
0.0465248
0.0389412
0.0317694
0.0259984
0.0214228
0.0176986
0.0146379
0.0120403
0.00969755
0.00750799
0.00552337
0.00386498
0.00261264
0.00175242
0.00120081
0.000856777
0.000639244
0.000496319
0.000398757
0.000330407
0.000281787
0.00024705
0.000222346
0.000205216
0.000194209
0.000188586
0.000188185
0.000193195
0.000204711
0.000223304
0.000254978
0.000294061
0.000380583
0.000457228
0.296129
0.154861
0.0906584
0.0629413
0.05419
0.0539363
0.0493225
0.035102
0.0201544
0.0163153
0.0206699
0.030229
0.0328836
0.0203775
0.0124484
0.0127509
0.0127514
0.0147175
0.0218247
0.0321108
0.0428738
0.0521428
0.0582034
0.0604165
0.0588326
0.0541212
0.0470775
0.039026
0.0316136
0.0257102
0.0210095
0.0172447
0.014226
0.0117323
0.00951937
0.00744533
0.00553655
0.0039117
0.00266227
0.00178958
0.00122233
0.000865891
0.000641049
0.000494993
0.000396683
0.000328559
0.000280346
0.000245876
0.000221254
0.00020404
0.00019281
0.00018684
0.000185979
0.000190426
0.000201267
0.000219106
0.000249777
0.000287893
0.000371887
0.000446648
0.29601
0.154715
0.0900136
0.0612159
0.0515494
0.0519243
0.0506526
0.039891
0.0245694
0.0188115
0.0223862
0.0325845
0.0370775
0.0235442
0.0138608
0.0131752
0.013245
0.0154627
0.0229253
0.033515
0.0445986
0.0541072
0.0602376
0.0622878
0.060297
0.0550523
0.0474606
0.0389911
0.0314286
0.0253563
0.0205439
0.0167492
0.0137782
0.0113904
0.00930871
0.00735399
0.00552713
0.00394269
0.00270255
0.00182233
0.00124254
0.000875072
0.000643018
0.00049339
0.00039389
0.000325758
0.000277931
0.000243827
0.000219427
0.000202275
0.000190956
0.000184761
0.000183545
0.000187514
0.000197744
0.000214865
0.000244546
0.000281681
0.000363162
0.000436055
0.295906
0.154632
0.0895285
0.059777
0.0490692
0.0494392
0.0508194
0.0438924
0.0293275
0.0218211
0.0243709
0.0348528
0.0415223
0.0271943
0.0156241
0.0138557
0.0138694
0.0162514
0.0240163
0.0348612
0.046226
0.0559437
0.0621228
0.0639891
0.0615727
0.0557878
0.0476654
0.0388962
0.0311716
0.0249369
0.0200304
0.0162184
0.0133016
0.0110215
0.00907151
0.00723814
0.00549755
0.00395903
0.0027336
0.00185033
0.00126109
0.000884195
0.000645374
0.000491959
0.000390892
0.000322455
0.000274883
0.00024114
0.000217024
0.000200023
0.000188712
0.000182387
0.000180901
0.000184468
0.000194146
0.000210591
0.000239303
0.000275452
0.000354448
0.000425495
0.295817
0.154597
0.0891753
0.0585976
0.0468137
0.0466907
0.0499405
0.0468615
0.0341379
0.0253213
0.0266567
0.0370597
0.0461073
0.0313865
0.0177231
0.0147749
0.0146125
0.0170787
0.0250917
0.0361388
0.0477398
0.0576316
0.0638343
0.0654931
0.0626357
0.0563111
0.0477191
0.0387403
0.0308299
0.0244541
0.0194738
0.0156582
0.0128029
0.0106325
0.00881364
0.00710211
0.0054505
0.00396203
0.00275576
0.0018734
0.00127762
0.000893035
0.000648142
0.000490957
0.000388053
0.000319021
0.000271509
0.000238044
0.000214207
0.000197396
0.000186154
0.000179765
0.000178079
0.000181307
0.000190487
0.000206294
0.000234064
0.00026923
0.000345781
0.00041501
0.295739
0.1546
0.0889301
0.0576476
0.0448172
0.0438608
0.0481951
0.0486498
0.0386691
0.0292175
0.0292622
0.0392876
0.0506647
0.0361816
0.020145
0.0159215
0.0154666
0.0179452
0.0261509
0.0373382
0.049122
0.0591468
0.0653435
0.0667686
0.0634609
0.0566068
0.0476841
0.0384836
0.0304003
0.0239113
0.0188792
0.0150745
0.0122886
0.0102297
0.00854084
0.00695026
0.00538879
0.00395322
0.00276958
0.00189153
0.00129186
0.000901327
0.000651221
0.000490475
0.000385595
0.000315726
0.000268059
0.000234745
0.000211133
0.000194508
0.00018336
0.000176951
0.000175114
0.000178054
0.000186783
0.000201989
0.000228844
0.000263038
0.000337193
0.000404637
0.295671
0.154633
0.0887727
0.0568966
0.0430911
0.0410954
0.0457989
0.0492144
0.0425906
0.0333387
0.032175
0.0415754
0.0550517
0.041625
0.0228805
0.0172921
0.0164294
0.0188672
0.0272073
0.0384525
0.0503508
0.0604595
0.0666162
0.0677795
0.064022
0.0567448
0.0475216
0.0381111
0.0298842
0.0233128
0.0182516
0.0144731
0.0117649
0.00981948
0.00825865
0.00678692
0.00531535
0.00393427
0.00277577
0.00190487
0.00130367
0.000908819
0.000654438
0.000490484
0.000383617
0.000312739
0.000264721
0.000231411
0.000207939
0.000191464
0.00018041
0.000174001
0.000172047
0.000174737
0.000183054
0.000197693
0.000223662
0.000256898
0.000328714
0.000394412
0.295612
0.154686
0.0886862
0.0563153
0.0416294
0.0385009
0.0429782
0.0486142
0.045615
0.0374471
0.0353376
0.0439311
0.0591334
0.0477197
0.0259283
0.0188922
0.0175065
0.0198777
0.0282549
0.039488
0.0514269
0.0615458
0.0676097
0.068502
0.0643528
0.0567079
0.0472125
0.0376187
0.029285
0.0226638
0.0175964
0.0138597
0.0112377
0.00940753
0.00797232
0.0066163
0.00523311
0.00390695
0.00277527
0.00191371
0.00131295
0.000915298
0.000657592
0.00049088
0.000382123
0.000310147
0.000261619
0.00022817
0.000204739
0.000188359
0.000177378
0.000170972
0.000168919
0.000171386
0.000179322
0.000193423
0.000218536
0.00025083
0.00032037
0.000384364
0.29556
0.154756
0.0886563
0.0558768
0.0404152
0.0361466
0.0399475
0.0469945
0.0475322
0.0412605
0.0386384
0.0463516
0.0627803
0.0543881
0.0293084
0.0207329
0.0187087
0.0209595
0.0292858
0.0404389
0.052345
0.0624047
0.0683304
0.0689491
0.0644546
0.0564855
0.0467491
0.037008
0.0286082
0.0219698
0.0169193
0.0132398
0.0107125
0.00899935
0.00768684
0.00644246
0.005145
0.0038731
0.0027691
0.00191843
0.00131975
0.000920609
0.000660489
0.000491523
0.000381057
0.000307967
0.000258821
0.000225109
0.00020162
0.000185271
0.000174328
0.000167915
0.000165769
0.000168031
0.00017561
0.000189198
0.000213482
0.000244854
0.000312185
0.000374519
0.295514
0.154837
0.088671
0.0555572
0.0394249
0.0340698
0.0368926
0.0445634
0.0482333
0.0444852
0.041911
0.0488207
0.0659237
0.0614075
0.0330865
0.0228142
0.0200354
0.0221094
0.0302939
0.0413008
0.0531017
0.063038
0.0687853
0.0691311
0.0643282
0.0560726
0.0461303
0.0362841
0.0278606
0.0212372
0.0162256
0.0126186
0.0101946
0.0086
0.00740683
0.00626926
0.00505386
0.00383456
0.00275831
0.00191951
0.00132415
0.000924659
0.000662964
0.00049226
0.000380325
0.000306169
0.000256348
0.00022228
0.000198644
0.00018226
0.000171315
0.000164875
0.000162635
0.000164701
0.000171941
0.000185037
0.000208519
0.000238989
0.000304181
0.0003649
0.295474
0.154926
0.0887204
0.0553356
0.038632
0.0322817
0.0339603
0.041563
0.0477201
0.0468538
0.0449427
0.0511865
0.0686031
0.0683631
0.0374005
0.0251261
0.0214993
0.0233236
0.0312752
0.0420708
0.0536961
0.0634491
0.0689822
0.0690569
0.0639751
0.0554688
0.0453599
0.0354545
0.0270501
0.0204726
0.015521
0.0120013
0.00968882
0.00821415
0.0071366
0.00610034
0.00496245
0.00379318
0.00274398
0.00191748
0.00132634
0.000927417
0.000664889
0.000492949
0.000379818
0.000304695
0.000254189
0.000219703
0.000195851
0.000179371
0.000168383
0.000161893
0.000159549
0.000161423
0.000168336
0.000180958
0.000203662
0.000233252
0.000296375
0.000355527
0.295439
0.155019
0.0887963
0.0551937
0.0380093
0.030775
0.0312545
0.03824
0.046099
0.0481609
0.0474946
0.0533173
0.0708001
0.0748081
0.04246
0.027725
0.0231085
0.0245985
0.0322278
0.0427471
0.0541292
0.0636433
0.0689297
0.0687344
0.063399
0.0546776
0.044445
0.0345288
0.0261853
0.0196826
0.014811
0.0113928
0.00919969
0.00784607
0.0068801
0.00593909
0.00487339
0.00375074
0.00272723
0.00191293
0.00132656
0.000928906
0.00066618
0.000493471
0.000379428
0.000303472
0.000252312
0.000217379
0.000193259
0.000176635
0.000165564
0.000158999
0.00015654
0.000158221
0.000164815
0.000176977
0.000198927
0.000227657
0.000288784
0.000346418
0.295408
0.155114
0.0888917
0.0551162
0.0375311
0.0295299
0.028839
0.0348214
0.043562
0.0482922
0.0493287
0.0550628
0.0724639
0.0805133
0.0482515
0.0306505
0.0248722
0.0259309
0.0331511
0.0433295
0.0544034
0.063627
0.0686368
0.0681718
0.0626058
0.0537056
0.0433955
0.033518
0.0252757
0.0188742
0.0141008
0.0107975
0.00873137
0.00749967
0.00664094
0.00578864
0.00478915
0.00370898
0.00270914
0.00190647
0.00132508
0.000929201
0.000666792
0.000493731
0.000379058
0.000302425
0.00025067
0.000215291
0.000190874
0.000174068
0.000162882
0.000156218
0.000153631
0.000155115
0.000161396
0.00017311
0.000194327
0.000222219
0.000281421
0.000337584
0.29538
0.155209
0.0890011
0.0550901
0.0371737
0.0285194
0.0267424
0.0314952
0.0403579
0.0472404
0.0502397
0.0562524
0.0735156
0.0853647
0.054601
0.0339021
0.0267975
0.0273182
0.034046
0.0438189
0.054523
0.0634075
0.0681133
0.0673784
0.0616034
0.0525623
0.0422232
0.0324343
0.0243308
0.018054
0.0133955
0.0102198
0.00828767
0.0071785
0.0064224
0.00565189
0.00471205
0.00366953
0.00269082
0.00189874
0.00132223
0.000928416
0.00066672
0.000493665
0.000378627
0.000301482
0.000249214
0.000213413
0.000188689
0.000171678
0.000160351
0.000153568
0.00015084
0.000152122
0.000158094
0.00016937
0.000189875
0.000216949
0.000274298
0.000329038
0.295356
0.155303
0.0891197
0.0551043
0.0369159
0.0277137
0.0249665
0.0284013
0.0367575
0.0451068
0.0500864
0.0567128
0.0738499
0.0892111
0.0612864
0.0374895
0.0288897
0.0287584
0.0349141
0.0442176
0.0544931
0.0629934
0.0673697
0.0663645
0.060402
0.0512595
0.0409422
0.0312907
0.0233602
0.0172285
0.0126998
0.00966345
0.00787205
0.00688578
0.00622747
0.00553148
0.00464426
0.00363395
0.00267335
0.00189042
0.00131835
0.000926702
0.000665991
0.000493234
0.000378071
0.000300579
0.000247896
0.000211714
0.000186691
0.000169464
0.000157979
0.000151061
0.000148179
0.000149256
0.000154921
0.000165767
0.000185581
0.000211857
0.000267425
0.000320788
0.295335
0.155396
0.0892439
0.0551496
0.0367395
0.0270829
0.0234941
0.0256294
0.0330216
0.0420859
0.0488162
0.0562927
0.0733331
0.0918901
0.0680361
0.0414211
0.031153
0.0302502
0.0357575
0.0445288
0.0543202
0.0623939
0.0664173
0.0651417
0.0590138
0.0498114
0.0395678
0.0301009
0.0223734
0.0164037
0.0120182
0.00913215
0.00748769
0.00662447
0.0060589
0.00542982
0.00458779
0.00360386
0.00265795
0.00188219
0.00131383
0.000924229
0.000664662
0.000492428
0.000377347
0.000299666
0.00024667
0.000210163
0.000184863
0.00016742
0.000155768
0.000148703
0.00014566
0.000146525
0.000151886
0.000162311
0.000181453
0.000206952
0.000260807
0.00031284
0.295316
0.155485
0.0893706
0.0552184
0.0366289
0.0265986
0.0222967
0.0232239
0.0293734
0.0384372
0.0464793
0.0548896
0.0718378
0.0932438
0.0745328
0.0456891
0.0335916
0.0317927
0.0365785
0.0447569
0.0540116
0.0616193
0.065268
0.0637229
0.0574531
0.0482341
0.0381167
0.0288785
0.0213793
0.0155853
0.0113547
0.0086291
0.00713749
0.00639731
0.00591916
0.00534913
0.00454446
0.00358153
0.00264571
0.00187471
0.00130901
0.000921186
0.000662808
0.000491256
0.00037643
0.000298704
0.000245499
0.00020873
0.000183184
0.000165537
0.000153717
0.000146498
0.000143286
0.000143938
0.000148996
0.000159009
0.000177497
0.00020224
0.00025445
0.000305199
0.295299
0.155571
0.0894977
0.0553043
0.0365706
0.0262353
0.0213399
0.0211928
0.0259826
0.0344481
0.0432267
0.0524747
0.0693476
0.0931291
0.0804269
0.0502539
0.0362093
0.0333863
0.0373795
0.0449065
0.0535756
0.0606805
0.0639349
0.0621228
0.055736
0.0465456
0.0366065
0.0276371
0.0203864
0.0147782
0.0107127
0.00815722
0.00682417
0.00620689
0.00581059
0.00529139
0.00451597
0.00356781
0.00263748
0.00186855
0.00130427
0.000917774
0.000660526
0.000489748
0.000375312
0.000297667
0.000244353
0.00020739
0.000181637
0.000163803
0.000151819
0.000144445
0.000141061
0.000141498
0.000146257
0.000155864
0.000173717
0.000197724
0.000248356
0.000297867
0.295285
0.155654
0.0896233
0.0554023
0.0365535
0.0259709
0.0205882
0.019518
0.0229588
0.030396
0.0392922
0.0491084
0.0658557
0.0914118
0.085359
0.0550303
0.0390071
0.0350328
0.0381632
0.0449832
0.0530208
0.0595893
0.0624321
0.0603572
0.0538807
0.0447653
0.0350553
0.02639
0.019402
0.0139868
0.0100956
0.00771917
0.00655031
0.0060557
0.00573534
0.00525844
0.00450386
0.00356381
0.00263413
0.00186432
0.00129997
0.000914206
0.000657927
0.000487952
0.000374
0.000296542
0.00024321
0.000206121
0.000180205
0.000162208
0.00015007
0.000142542
0.000138986
0.000139207
0.00014367
0.00015288
0.000170117
0.000193409
0.000242527
0.000290843
0.295272
0.155732
0.089746
0.055508
0.0365684
0.025786
0.0200076
0.0181653
0.0203559
0.0265165
0.0349607
0.0449438
0.0614156
0.088156
0.0889961
0.0598789
0.0419779
0.0367359
0.0389332
0.0449931
0.0523571
0.0583584
0.0607747
0.0584439
0.0519072
0.0429144
0.0334816
0.0251493
0.0184325
0.0132145
0.00950589
0.00731735
0.00631847
0.00594624
0.00569545
0.00525189
0.00450954
0.00357068
0.00263653
0.0018626
0.00129648
0.000910706
0.000655137
0.000485927
0.000372515
0.000295327
0.000242056
0.000204906
0.000178873
0.00016074
0.000148461
0.000140785
0.000137058
0.000137064
0.000141236
0.000150058
0.000166697
0.000189294
0.000236963
0.000284127
0.29526
0.155807
0.0898651
0.0556182
0.0366074
0.0256647
0.0195675
0.0170925
0.0181819
0.0229824
0.0305278
0.0402137
0.0561537
0.0834621
0.0910575
0.0646048
0.0450998
0.0385
0.0396944
0.0449431
0.0515948
0.0570016
0.0589795
0.0564023
0.0498373
0.041015
0.0319037
0.0239263
0.0174833
0.0124646
0.00894609
0.00695404
0.00613124
0.0058811
0.00569291
0.0052732
0.00453429
0.00358957