/*--------------------------------*- C++ -*----------------------------------*\
| =========                 |                                                 |
| \\      /  F ield         | OpenFOAM: The Open Source CFD Toolbox           |
|  \\    /   O peration     | Version:  2.4.0                                 |
|   \\  /    A nd           | Web:      www.OpenFOAM.org                      |
|    \\/     M anipulation  |                                                 |
\*---------------------------------------------------------------------------*/
FoamFile
{
    version     2.0;
    format      ascii;
    class       volScalarField;
    location    "2.27";
    object      nut;
}
// * * * * * * * * * * * * * * * * * * * * * * * * * * * * * * * * * * * * * //

dimensions      [0 2 -1 0 0 0 0];

internalField   nonuniform List<scalar> 
6000
(
1.24048e-05
1.0166e-05
5.70853e-06
3.00325e-06
2.02599e-06
2.89756e-06
2.71231e-06
3.51597e-06
4.36045e-06
5.60913e-06
7.46772e-06
1.04409e-05
1.24875e-05
1.33787e-05
1.30993e-05
1.16065e-05
1.07841e-05
1.15358e-05
1.21292e-05
1.48902e-05
1.82896e-05
2.0399e-05
2.12191e-05
2.10826e-05
2.02941e-05
1.90928e-05
1.77554e-05
1.63152e-05
1.47994e-05
1.32127e-05
1.15708e-05
9.74235e-06
7.65161e-06
6.83013e-06
7.52494e-06
8.33448e-06
9.04079e-06
9.53679e-06
9.81664e-06
9.90979e-06
9.90176e-06
9.86427e-06
9.8331e-06
9.82282e-06
9.83543e-06
9.87534e-06
9.9428e-06
1.00323e-05
1.01369e-05
1.02501e-05
1.03664e-05
1.04818e-05
1.05925e-05
1.06988e-05
1.07933e-05
1.08921e-05
1.09517e-05
1.10906e-05
1.10022e-05
1.13702e-05
2.33579e-05
3.48559e-05
1.70797e-05
8.62197e-06
7.04717e-06
9.97516e-06
1.71906e-05
1.98521e-05
2.71079e-05
3.63665e-05
5.05237e-05
6.47992e-05
6.926e-05
5.48471e-05
3.59891e-05
3.08757e-05
3.17044e-05
3.63532e-05
3.96795e-05
3.14008e-05
2.39618e-05
2.26338e-05
2.59833e-05
3.29632e-05
4.24101e-05
5.05894e-05
5.88341e-05
6.64394e-05
7.24717e-05
7.5821e-05
7.53106e-05
7.06056e-05
5.99258e-05
4.16788e-05
2.72926e-05
1.73512e-05
1.18439e-05
9.32111e-06
8.36478e-06
8.06382e-06
8.04368e-06
8.12254e-06
8.21847e-06
8.29854e-06
8.33623e-06
8.34719e-06
8.34776e-06
8.34292e-06
8.33408e-06
8.32079e-06
8.30178e-06
8.27486e-06
8.23908e-06
8.18968e-06
8.13284e-06
8.0438e-06
7.97906e-06
7.77482e-06
7.71153e-06
7.389e-06
2.88996e-05
5.03776e-05
2.428e-05
1.12916e-05
1.49043e-05
2.01334e-05
2.97267e-05
3.49315e-05
4.64788e-05
6.12725e-05
8.31899e-05
0.000106553
0.000117445
0.000102331
7.37801e-05
5.74223e-05
5.2685e-05
5.2502e-05
4.31776e-05
2.90064e-05
3.04513e-05
4.634e-05
6.96505e-05
9.33295e-05
0.000112336
0.000125356
0.000135257
0.000141396
0.000143153
0.000139846
0.000130821
0.000115875
9.47872e-05
7.27762e-05
5.57341e-05
4.09947e-05
2.92592e-05
2.09823e-05
1.59043e-05
1.29849e-05
1.14586e-05
1.07596e-05
1.04707e-05
1.03387e-05
1.02058e-05
1.00489e-05
9.87509e-06
9.68159e-06
9.46785e-06
9.23551e-06
8.98693e-06
8.72389e-06
8.44773e-06
8.15721e-06
7.85501e-06
7.52886e-06
7.20441e-06
6.79973e-06
6.39105e-06
5.77997e-06
3.21947e-05
5.72628e-05
2.76043e-05
1.30552e-05
2.16585e-05
2.826e-05
3.86132e-05
4.58107e-05
5.98537e-05
7.76238e-05
0.000102918
0.00012823
0.000140688
0.000129605
0.000103028
8.23887e-05
6.82303e-05
6.0507e-05
4.03244e-05
3.33056e-05
5.67574e-05
9.57937e-05
0.000129963
0.000154345
0.000170407
0.000180606
0.000186544
0.000188068
0.000184884
0.000176451
0.000162132
0.000141692
0.000115407
9.10274e-05
7.27261e-05
5.72058e-05
4.46543e-05
3.5044e-05
2.80276e-05
2.31064e-05
1.98536e-05
1.79934e-05
1.7019e-05
1.64954e-05
1.61046e-05
1.57435e-05
1.53731e-05
1.49604e-05
1.44903e-05
1.3962e-05
1.33823e-05
1.27615e-05
1.21086e-05
1.14341e-05
1.07375e-05
1.0041e-05
9.30572e-06
8.64538e-06
7.80875e-06
7.47335e-06
3.39564e-05
5.94784e-05
3.40196e-05
1.43796e-05
2.65206e-05
3.44106e-05
4.51582e-05
5.37518e-05
6.9225e-05
8.84829e-05
0.000114534
0.000138146
0.000148997
0.000143636
0.000121803
0.000100179
7.95136e-05
6.21982e-05
3.88428e-05
4.78399e-05
9.78943e-05
0.000146506
0.000177846
0.000197696
0.000210574
0.000218297
0.000221455
0.000220024
0.000213815
0.000202316
0.000184831
0.000161024
0.000131023
0.000104171
8.39526e-05
6.71269e-05
5.36706e-05
4.3644e-05
3.66949e-05
3.19654e-05
2.86298e-05
2.64706e-05
2.52296e-05
2.45632e-05
2.41404e-05
2.38071e-05
2.34809e-05
2.30965e-05
2.26164e-05
2.20266e-05
2.13289e-05
2.05354e-05
1.96603e-05
1.87257e-05
1.77346e-05
1.67468e-05
1.56743e-05
1.48694e-05
1.37174e-05
1.4376e-05
3.49041e-05
5.90674e-05
4.13492e-05
1.45045e-05
2.9184e-05
3.92425e-05
5.02355e-05
5.9743e-05
7.59131e-05
9.56974e-05
0.000120959
0.000141452
0.00014849
0.000149794
0.000133367
0.000112283
8.72835e-05
6.01029e-05
4.11243e-05
7.2886e-05
0.000141376
0.000187554
0.000214295
0.000231495
0.000242894
0.000249102
0.000250299
0.000246611
0.000238017
0.000224113
0.000204203
0.000177838
0.000144811
0.000115592
9.31768e-05
7.48109e-05
6.01642e-05
4.91001e-05
4.16159e-05
3.7079e-05
3.43407e-05
3.26521e-05
3.16762e-05
3.11848e-05
3.09522e-05
3.08473e-05
3.07786e-05
3.0669e-05
3.04667e-05
3.01436e-05
2.96897e-05
2.91086e-05
2.8411e-05
2.76181e-05
2.6741e-05
2.58492e-05
2.48791e-05
2.42611e-05
2.34442e-05
2.53185e-05
3.54151e-05
5.72195e-05
4.68726e-05
1.63045e-05
2.91738e-05
4.31511e-05
5.44135e-05
6.44707e-05
8.07958e-05
0.000100476
0.000124194
0.000141357
0.000142923
0.000151038
0.000140118
0.000120535
9.11981e-05
5.72358e-05
4.79788e-05
0.000105242
0.000179821
0.000221067
0.000245571
0.000262089
0.000272919
0.000277916
0.000277237
0.000271259
0.000260241
0.000243977
0.000221837
0.000193287
0.000157785
0.000126465
0.000101707
8.16352e-05
6.58387e-05
5.36565e-05
4.50747e-05
3.9946e-05
3.73211e-05
3.60685e-05
3.5498e-05
3.53054e-05
3.53271e-05
3.54815e-05
3.57011e-05
3.59186e-05
3.60814e-05
3.61551e-05
3.61216e-05
3.59754e-05
3.57219e-05
3.53746e-05
3.49552e-05
3.45118e-05
3.40718e-05
3.39179e-05
3.40309e-05
3.66762e-05
3.56746e-05
5.4664e-05
5.05839e-05
2.26465e-05
2.70223e-05
4.62405e-05
5.81168e-05
6.84649e-05
8.45538e-05
0.000103758
0.000125752
0.000139852
0.000135154
0.00014907
0.000143578
0.000126136
9.21841e-05
5.53761e-05
5.98452e-05
0.000139916
0.000212698
0.000250928
0.000275444
0.000292356
0.000302889
0.000306572
0.000303745
0.000295141
0.000281388
0.000262564
0.000238171
0.00020763
0.000170162
0.000137121
0.000110008
8.80292e-05
7.10701e-05
5.79806e-05
4.82838e-05
4.20877e-05
3.89128e-05
3.76464e-05
3.72982e-05
3.73419e-05
3.75736e-05
3.79331e-05
3.83805e-05
3.8867e-05
3.9348e-05
3.97899e-05
4.01719e-05
4.04842e-05
4.07295e-05
4.09144e-05
4.10717e-05
4.12188e-05
4.14861e-05
4.19206e-05
4.31447e-05
4.6221e-05
3.57846e-05
5.18491e-05
5.27338e-05
3.0539e-05
2.46443e-05
4.8327e-05
6.1601e-05
7.21658e-05
8.77758e-05
0.000106339
0.000126777
0.000138142
0.000127558
0.000144915
0.000144757
0.000129739
9.08601e-05
5.52519e-05
7.67396e-05
0.000173195
0.000241892
0.000279666
0.000305631
0.000323408
0.000333605
0.000335693
0.000330321
0.000318643
0.000301744
0.00028006
0.000253282
0.00022084
0.000181881
0.000147554
0.000118231
9.41978e-05
7.59261e-05
6.20916e-05
5.15446e-05
4.42458e-05
4.01169e-05
3.83639e-05
3.79207e-05
3.80367e-05
3.83816e-05
3.88658e-05
3.946e-05
4.01309e-05
4.08436e-05
4.15685e-05
4.22863e-05
4.29866e-05
4.3673e-05
4.43493e-05
4.50598e-05
4.5796e-05
4.67809e-05
4.78251e-05
5.01535e-05
5.35261e-05
3.58069e-05
4.90443e-05
5.35894e-05
3.82213e-05
2.40134e-05
4.89463e-05
6.4927e-05
7.59213e-05
9.09747e-05
0.000108911
0.000128115
0.000137046
0.000121795
0.000139145
0.000144359
0.000131574
8.78699e-05
5.71719e-05
9.7978e-05
0.000203677
0.000269221
0.000308578
0.000336798
0.000355589
0.00036528
0.000365443
0.000357097
0.000341874
0.000321387
0.000296503
0.000267157
0.000232831
0.000192814
0.000157618
0.000126371
0.000100265
8.04767e-05
6.58934e-05
5.47776e-05
4.66024e-05
4.14329e-05
3.88876e-05
3.80418e-05
3.80271e-05
3.8364e-05
3.88867e-05
3.95501e-05
4.03257e-05
4.11851e-05
4.21033e-05
4.30634e-05
4.40566e-05
4.50891e-05
4.61657e-05
4.73422e-05
4.85941e-05
5.02193e-05
5.18364e-05
5.51566e-05
5.87923e-05
3.57792e-05
4.64036e-05
5.34209e-05
4.46707e-05
2.6402e-05
4.75676e-05
6.7943e-05
7.99471e-05
9.45535e-05
0.000112016
0.000130378
0.000137411
0.000118429
0.000131953
0.000142862
0.000131519
8.39867e-05
6.12857e-05
0.000122227
0.000231496
0.000295897
0.000338236
0.000369119
0.000388916
0.000397888
0.000395796
0.000384062
0.000364838
0.000340331
0.000311902
0.00027978
0.000243531
0.00020285
0.000167128
0.000134329
0.000106279
8.48192e-05
6.93486e-05
5.7824e-05
4.90671e-05
4.29981e-05
3.95607e-05
3.80998e-05
3.77654e-05
3.79664e-05
3.84408e-05
3.91022e-05
3.99137e-05
4.08479e-05
4.18821e-05
4.30013e-05
4.41982e-05
4.54819e-05
4.68598e-05
4.83982e-05
5.00662e-05
5.22176e-05
5.43361e-05
5.84881e-05
6.23792e-05
3.57242e-05
4.40058e-05
5.24858e-05
4.96395e-05
3.20708e-05
4.44513e-05
7.03101e-05
8.42905e-05
9.87602e-05
0.000116008
0.00013391
0.000139547
0.000117334
0.00012334
0.000140529
0.00012899
8.03452e-05
6.76905e-05
0.000147919
0.000257349
0.000322617
0.000368824
0.000402551
0.000423269
0.000431301
0.000426647
0.000411148
0.000387502
0.000358569
0.000326264
0.000291153
0.000252911
0.000211922
0.000175913
0.000141957
0.00011222
8.90404e-05
7.24926e-05
6.05696e-05
5.14772e-05
4.47514e-05
4.0486e-05
3.83196e-05
3.7528e-05
3.74779e-05
3.78204e-05
3.84149e-05
3.92036e-05
4.01536e-05
4.12416e-05
4.24528e-05
4.37805e-05
4.52354e-05
4.68272e-05
4.86303e-05
5.06141e-05
5.31715e-05
5.57035e-05
6.05127e-05
6.46456e-05
3.56557e-05
4.18825e-05
5.10141e-05
5.31145e-05
3.86175e-05
4.08141e-05
7.1566e-05
8.88319e-05
0.000103668
0.000121042
0.000138825
0.000143479
0.00011811
0.000113642
0.000137403
0.000124563
7.75654e-05
7.64398e-05
0.000173726
0.000281955
0.000349727
0.00040033
0.000436948
0.000458468
0.000465348
0.000457856
0.000438255
0.00040981
0.000376084
0.000339602
0.0003013
0.000260979
0.000220013
0.000183838
0.000149101
0.000118014
9.3189e-05
7.53997e-05
6.29739e-05
5.36839e-05
4.65526e-05
4.1621e-05
3.87665e-05
3.74486e-05
3.7061e-05
3.71995e-05
3.76696e-05
3.83854e-05
3.93032e-05
4.03958e-05
4.16469e-05
4.30492e-05
4.4613e-05
4.63495e-05
4.83375e-05
5.05499e-05
5.3404e-05
5.62595e-05
6.1558e-05
6.59052e-05
3.55818e-05
4.0036e-05
4.92006e-05
5.52116e-05
4.48338e-05
3.82632e-05
7.12106e-05
9.33161e-05
0.000109194
0.000127092
0.000145073
0.000149134
0.000120604
0.00010406
0.000133222
0.000118852
7.58719e-05
8.75089e-05
0.000198798
0.000305871
0.000377362
0.000432646
0.000472124
0.000494313
0.000499839
0.000489265
0.000465269
0.000431693
0.000392852
0.00035193
0.000310259
0.000267776
0.000227141
0.000190817
0.000155628
0.000123555
9.72683e-05
7.81476e-05
6.50576e-05
5.5593e-05
4.82563e-05
4.28573e-05
3.9407e-05
3.75582e-05
3.67847e-05
3.66656e-05
3.69645e-05
3.75664e-05
3.84134e-05
3.94719e-05
4.0723e-05
4.21574e-05
4.37837e-05
4.56129e-05
4.77249e-05
5.00967e-05
5.3158e-05
5.6255e-05
6.18946e-05
6.6418e-05
3.55077e-05
3.84518e-05
4.72031e-05
5.61096e-05
5.02211e-05
3.9705e-05
6.8959e-05
9.73836e-05
0.000115135
0.000134
0.000152503
0.000156387
0.000124847
9.61156e-05
0.000127215
0.000112409
7.54106e-05
0.000100759
0.000222754
0.00032947
0.000405525
0.000465614
0.000507879
0.000530599
0.000534584
0.00052071
0.000492063
0.000453071
0.000408842
0.000363259
0.000318073
0.000273432
0.000233278
0.000196796
0.000161434
0.000128736
0.000101244
8.07944e-05
6.6878e-05
5.71724e-05
4.97511e-05
4.40737e-05
4.01593e-05
3.78252e-05
3.66551e-05
3.62476e-05
3.63423e-05
3.67994e-05
3.75458e-05
3.85407e-05
3.97611e-05
4.11953e-05
4.28497e-05
4.47336e-05
4.69256e-05
4.94053e-05
5.26053e-05
5.58756e-05
6.17343e-05
6.63909e-05
3.54364e-05
3.71064e-05
4.51438e-05
5.60118e-05
5.45765e-05
4.42235e-05
6.504e-05
0.000100581
0.000121204
0.000141518
0.000160904
0.000165078
0.00013091
9.07998e-05
0.000119212
0.000105886
7.62819e-05
0.000115925
0.000245545
0.000352974
0.000434147
0.000499056
0.00054401
0.000567124
0.000569388
0.000552022
0.000518507
0.000473858
0.000424014
0.000373594
0.000324782
0.000278181
0.000238324
0.000201754
0.000166448
0.000133457
0.000105057
8.33692e-05
6.85053e-05
5.8439e-05
5.09703e-05
4.51634e-05
4.09272e-05
3.81862e-05
3.66412e-05
3.59374e-05
3.58104e-05
3.61029e-05
3.67281e-05
3.76375e-05
3.88042e-05
4.0214e-05
4.18706e-05
4.37813e-05
4.60214e-05
4.8572e-05
5.18612e-05
5.52518e-05
6.12351e-05
6.59835e-05
3.53697e-05
3.59729e-05
4.31131e-05
5.51242e-05
5.78135e-05
5.00867e-05
6.03735e-05
0.000102358
0.00012706
0.000149356
0.000170037
0.000175039
0.00013889
8.83587e-05
0.000110344
9.97754e-05
7.8564e-05
0.000132631
0.0002673
0.000376492
0.000463111
0.000532788
0.000580317
0.000603687
0.000604062
0.000583031
0.000544459
0.000493955
0.00043832
0.000382936
0.000330423
0.000282157
0.000242301
0.000205695
0.000170631
0.000137638
0.000108638
8.5873e-05
7.00044e-05
5.9443e-05
5.18935e-05
4.60502e-05
4.16221e-05
3.85689e-05
3.66946e-05
3.57071e-05
3.53558e-05
3.54749e-05
3.59672e-05
3.6777e-05
3.78738e-05
3.92409e-05
4.08801e-05
4.27964e-05
4.50613e-05
4.76564e-05
5.09998e-05
5.44716e-05
6.05102e-05
6.53143e-05
3.53082e-05
3.5024e-05
4.11746e-05
5.36424e-05
5.99269e-05
5.60296e-05
5.79274e-05
0.000102122
0.00013231
0.000157205
0.000179647
0.000186083
0.000148817
8.88451e-05
0.000101491
9.45296e-05
8.23207e-05
0.000150443
0.000288208
0.000400052
0.000492278
0.000566619
0.000616603
0.000640096
0.000638419
0.000613565
0.000569778
0.000513259
0.000451704
0.000391278
0.000335027
0.000285463
0.000245259
0.000208643
0.000173968
0.000141221
0.000111919
8.82847e-05
7.14237e-05
6.02489e-05
5.2538e-05
4.66934e-05
4.21751e-05
3.89056e-05
3.67627e-05
3.55201e-05
3.49549e-05
3.49023e-05
3.52582e-05
3.59615e-05
3.69781e-05
3.82897e-05
3.98965e-05
4.18023e-05
4.40743e-05
4.66942e-05
5.00673e-05
5.3592e-05
5.96376e-05
6.44683e-05
3.52524e-05
3.42336e-05
3.93697e-05
5.17437e-05
6.09729e-05
6.13493e-05
5.90189e-05
9.94044e-05
0.000136508
0.000164748
0.000189465
0.000198002
0.000160626
9.22725e-05
9.36371e-05
9.05066e-05
8.75992e-05
0.000168928
0.000308452
0.000423627
0.000521492
0.000600362
0.000652672
0.000676159
0.000672274
0.000643453
0.000594315
0.00053166
0.000464106
0.00039861
0.000338628
0.00028819
0.000247248
0.00021063
0.000176459
0.00014417
0.00011484
9.0569e-05
7.27898e-05
6.09207e-05
5.29463e-05
4.70853e-05
4.2542e-05
3.91417e-05
3.67967e-05
3.5339e-05
3.45809e-05
3.43667e-05
3.45903e-05
3.51863e-05
3.6118e-05
3.73661e-05
3.89298e-05
4.08123e-05
4.30776e-05
4.57073e-05
4.90922e-05
5.26496e-05
5.86691e-05
6.35047e-05
3.52023e-05
3.3578e-05
3.77223e-05
4.95823e-05
6.10529e-05
6.56832e-05
6.27274e-05
9.46407e-05
0.000139128
0.000171655
0.000199213
0.000210553
0.00017417
9.86377e-05
8.76708e-05
8.79681e-05
9.44219e-05
0.000187702
0.00032818
0.00044715
0.00055059
0.000633827
0.000688332
0.000711687
0.000705442
0.000672522
0.000617921
0.000549043
0.000475458
0.000404916
0.00034146
0.000290217
0.000248311
0.000211696
0.000178122
0.000146468
0.000117353
9.26844e-05
7.41093e-05
6.15117e-05
5.31738e-05
4.72453e-05
4.27042e-05
3.92395e-05
3.67568e-05
3.51302e-05
3.42077e-05
3.38491e-05
3.39501e-05
3.44433e-05
3.52903e-05
3.6471e-05
3.79845e-05
3.98343e-05
4.20818e-05
4.47092e-05
4.80923e-05
5.1667e-05
5.76388e-05
6.24637e-05
3.51576e-05
3.30362e-05
3.6243e-05
4.72875e-05
6.0298e-05
6.8862e-05
6.76209e-05
9.02119e-05
0.000139558
0.000177571
0.000208593
0.000223459
0.000189252
0.000107902
8.42104e-05
8.70936e-05
0.000102776
0.000206463
0.000347491
0.000470527
0.000579403
0.000666826
0.000723391
0.00074649
0.000737742
0.000700601
0.000640444
0.000565294
0.000485692
0.00041018
0.00034377
0.000291413
0.000248487
0.000211886
0.000178983
0.000148111
0.000119424
9.45893e-05
7.53725e-05
6.20598e-05
5.32783e-05
4.72117e-05
4.26666e-05
3.91802e-05
3.66154e-05
3.48671e-05
3.38132e-05
3.33319e-05
3.33244e-05
3.37235e-05
3.44896e-05
3.56027e-05
3.70624e-05
3.88728e-05
4.10937e-05
4.37087e-05
4.7079e-05
5.06594e-05
5.65688e-05
6.13723e-05
3.51179e-05
3.259e-05
3.49328e-05
4.49637e-05
5.88564e-05
7.08373e-05
7.26886e-05
8.78357e-05
0.000137661
0.0001821
0.000217294
0.000236413
0.000205623
0.000119977
8.35805e-05
8.79995e-05
0.000112605
0.000224991
0.000366435
0.000493647
0.000607762
0.000699173
0.000757656
0.000780379
0.00076899
0.000727515
0.00066173
0.000580294
0.000494739
0.000414384
0.000345677
0.000291771
0.000247817
0.000211248
0.000179077
0.000149109
0.000121033
9.6247e-05
7.65595e-05
6.25865e-05
5.33113e-05
4.70329e-05
4.24528e-05
3.8963e-05
3.63582e-05
3.45317e-05
3.33805e-05
3.28008e-05
3.27017e-05
3.30179e-05
3.371e-05
3.47584e-05
3.61631e-05
3.793e-05
4.01177e-05
4.27121e-05
4.60606e-05
4.96368e-05
5.54738e-05
6.02485e-05
3.50828e-05
3.22235e-05
3.37859e-05
4.26913e-05
5.68819e-05
7.16421e-05
7.72717e-05
8.78868e-05
0.000134133
0.000184841
0.000224984
0.000249079
0.000222989
0.000134718
8.5896e-05
9.07537e-05
0.000123805
0.000243142
0.000385021
0.000516386
0.000635496
0.000730679
0.000790935
0.000813163
0.000799001
0.000753091
0.000681623
0.000593928
0.000502532
0.000417567
0.000347208
0.000291304
0.000246343
0.000209833
0.000178444
0.000149482
0.000122172
9.76279e-05
7.76449e-05
6.30983e-05
5.33133e-05
4.67599e-05
4.20995e-05
3.86034e-05
3.59846e-05
3.41157e-05
3.2899e-05
3.22457e-05
3.20732e-05
3.23195e-05
3.29462e-05
3.39345e-05
3.52855e-05
3.70068e-05
3.91566e-05
4.17238e-05
4.50429e-05
4.86065e-05
5.43641e-05
5.91046e-05
3.5052e-05
3.19235e-05
3.27921e-05
4.05292e-05
5.45247e-05
7.1366e-05
8.09609e-05
8.98863e-05
0.000129961
0.000185719
0.000231288
0.000261095
0.000241009
0.000151927
9.11557e-05
9.53818e-05
0.000136227
0.000260828
0.000403226
0.000538612
0.000662434
0.000761158
0.000823032
0.000844647
0.000827593
0.000777156
0.000699969
0.000606083
0.000509008
0.000420167
0.000347987
0.00029002
0.000244104
0.000207689
0.00017713
0.000149257
0.000122843
9.87109e-05
7.86024e-05
6.35901e-05
5.33115e-05
4.64385e-05
4.16496e-05
3.81284e-05
3.55059e-05
3.362e-05
3.23652e-05
3.16612e-05
3.14331e-05
3.16227e-05
3.21935e-05
3.31278e-05
3.44281e-05
3.61035e-05
3.82125e-05
4.07474e-05
4.40305e-05
4.75744e-05
5.32472e-05
5.79498e-05
3.50249e-05
3.16786e-05
3.19386e-05
3.85175e-05
5.19241e-05
7.01379e-05
8.35228e-05
9.30228e-05
0.000126253
0.000184916
0.000235761
0.000272081
0.0002593
0.000171338
9.92875e-05
0.000101867
0.000149688
0.000277995
0.000420996
0.000560188
0.000688407
0.000790421
0.00085375
0.000874637
0.000854577
0.000799533
0.000716615
0.00061665
0.000514109
0.000422393
0.000347896
0.000287931
0.00024114
0.000204871
0.000175182
0.000148467
0.000123057
9.94837e-05
7.9408e-05
6.40487e-05
5.33199e-05
4.61059e-05
4.11457e-05
3.75718e-05
3.49427e-05
3.30538e-05
3.17814e-05
3.10464e-05
3.07789e-05
3.09246e-05
3.14491e-05
3.23361e-05
3.35893e-05
3.52198e-05
3.72866e-05
3.97852e-05
4.30274e-05
4.65453e-05
5.21292e-05
5.67907e-05
3.50012e-05
3.14794e-05
3.12116e-05
3.66804e-05
4.92037e-05
6.81118e-05
8.48535e-05
9.64918e-05
0.0001238
0.000182675
0.000238335
0.00028164
0.000277445
0.00019262
0.000110155
0.000110145
0.000163985
0.000294612
0.000438263
0.000580978
0.000713247
0.000818283
0.000882891
0.000902932
0.000879766
0.000820049
0.000731409
0.00062553
0.000518037
0.000424108
0.000346894
0.000285053
0.000237492
0.00020143
0.000172652
0.00014715
0.000122833
9.99421e-05
8.00422e-05
6.44572e-05
5.33412e-05
4.57875e-05
4.06251e-05
3.69692e-05
3.4321e-05
3.24327e-05
3.11557e-05
3.04046e-05
3.01113e-05
3.02243e-05
3.07113e-05
3.15576e-05
3.2768e-05
3.43556e-05
3.63796e-05
3.88394e-05
4.20365e-05
4.5523e-05
5.1015e-05
5.56328e-05
3.49805e-05
3.13179e-05
3.05968e-05
3.50296e-05
4.64678e-05
6.5455e-05
8.49464e-05
9.96366e-05
0.000122849
0.000179455
0.00023912
0.000289363
0.000294999
0.000215369
0.000123558
0.000120103
0.000178908
0.000310657
0.000454943
0.000600844
0.000736786
0.000844553
0.000910254
0.000929329
0.00090297
0.000838529
0.000744206
0.000632626
0.00052128
0.000424896
0.000344964
0.000281407
0.000233202
0.00019742
0.000169593
0.000145347
0.000122194
0.000100089
8.04905e-05
6.47976e-05
5.33698e-05
4.54979e-05
4.0117e-05
3.6353e-05
3.36685e-05
3.17752e-05
3.04998e-05
2.97422e-05
2.94333e-05
2.95229e-05
2.99802e-05
3.07917e-05
3.19637e-05
3.35107e-05
3.54922e-05
3.79114e-05
4.10605e-05
4.45111e-05
4.99088e-05
5.44808e-05
3.49624e-05
3.11874e-05
3.00806e-05
3.35667e-05
4.38007e-05
6.2337e-05
8.38695e-05
0.000101981
0.00012317
0.000175828
0.000238346
0.000294921
0.000311492
0.000239121
0.000139253
0.000131584
0.000194255
0.000326114
0.000470953
0.000619652
0.000758858
0.000869042
0.000935634
0.00095362
0.000923995
0.000854799
0.000754863
0.000637995
0.000523961
0.000424598
0.0003421
0.000277018
0.000228314
0.000192894
0.000166059
0.000143103
0.000121168
9.99339e-05
8.07444e-05
6.50531e-05
5.33948e-05
4.52412e-05
3.96407e-05
3.575e-05
3.3011e-05
3.11025e-05
2.98277e-05
2.90681e-05
2.87501e-05
2.8823e-05
2.92568e-05
3.00389e-05
3.11763e-05
3.26851e-05
3.4625e-05
3.70027e-05
4.01014e-05
4.35124e-05
4.88144e-05
5.33386e-05
3.49466e-05
3.10824e-05
2.96499e-05
3.22862e-05
4.12663e-05
5.89209e-05
8.17456e-05
0.000103218
0.000124256
0.000172326
0.000236233
0.000298266
0.000326431
0.000263358
0.000156986
0.000144399
0.000209842
0.000340976
0.000486216
0.000637274
0.000779294
0.000891554
0.000958822
0.000975594
0.000942646
0.000868687
0.00076325
0.000642258
0.000525555
0.000423144
0.000338307
0.000271918
0.000222874
0.000187909
0.000162106
0.000140464
0.000119788
9.94908e-05
8.08004e-05
6.52098e-05
5.34026e-05
4.50143e-05
3.9206e-05
3.5179e-05
3.23701e-05
3.0434e-05
2.91539e-05
2.83923e-05
2.80682e-05
2.81287e-05
2.85433e-05
2.93001e-05
3.04063e-05
3.18793e-05
3.37786e-05
3.61143e-05
3.91611e-05
4.25296e-05
4.77348e-05
5.22097e-05
3.49328e-05
3.09984e-05
2.92929e-05
3.11775e-05
3.89097e-05
5.53557e-05
7.87368e-05
0.000103188
0.000125511
0.000169291
0.000233044
0.000299491
0.0003393
0.000287523
0.000176518
0.000158354
0.000225523
0.000355266
0.00050068
0.000653586
0.000797921
0.000911889
0.000979605
0.000995032
0.000958725
0.000880022
0.000769556
0.000645488
0.000525811
0.000420509
0.000333602
0.000266141
0.000216931
0.000182521
0.000157789
0.000137478
0.000118087
9.87779e-05
8.06596e-05
6.52573e-05
5.33797e-05
4.48089e-05
3.88149e-05
3.46512e-05
3.17615e-05
2.97858e-05
2.84917e-05
2.77247e-05
2.73944e-05
2.74443e-05
2.78426e-05
2.8577e-05
2.96548e-05
3.10939e-05
3.29537e-05
3.52473e-05
3.82412e-05
4.15647e-05
4.66729e-05
5.10971e-05
3.49207e-05
3.09315e-05
2.8999e-05
3.02272e-05
3.67593e-05
5.17715e-05
7.50284e-05
0.00010185
0.000126387
0.00016681
0.00022907
0.000298863
0.000349549
0.000311035
0.000197635
0.000173281
0.000241214
0.000369073
0.000514337
0.000668477
0.000814561
0.000929838
0.000997763
0.00101171
0.00097203
0.000888644
0.000774358
0.00064728
0.000524613
0.000416687
0.00032801
0.00025973
0.000210538
0.000176787
0.000153164
0.000134194
0.000116103
9.78166e-05
8.03271e-05
6.51892e-05
5.33135e-05
4.46141e-05
3.84636e-05
3.41706e-05
3.11948e-05
2.91698e-05
2.78524e-05
2.70742e-05
2.67355e-05
2.67747e-05
2.71579e-05
2.78717e-05
2.89229e-05
3.03299e-05
3.21511e-05
3.44026e-05
3.7343e-05
4.06198e-05
4.5631e-05
5.00036e-05
3.49102e-05
3.08787e-05
2.87586e-05
2.94198e-05
3.48292e-05
4.82759e-05
7.08155e-05
9.92619e-05
0.000126443
0.00016473
0.000224582
0.000296562
0.000356864
0.000333301
0.000220132
0.000189076
0.000256949
0.000382625
0.000527247
0.00068184
0.00082902
0.00094518
0.00101307
0.0010254
0.000982361
0.000895062
0.000777407
0.000647399
0.000521912
0.000411691
0.000321564
0.00025273
0.000203748
0.000170766
0.000148289
0.00013066
0.000113871
9.66308e-05
7.9814e-05
6.50031e-05
5.31938e-05
4.44182e-05
3.81442e-05
3.37357e-05
3.0674e-05
2.85932e-05
2.7244e-05
2.64483e-05
2.60973e-05
2.61242e-05
2.64922e-05
2.71863e-05
2.82122e-05
2.95881e-05
3.13717e-05
3.35812e-05
3.64679e-05
3.96965e-05
4.46113e-05
4.89314e-05
3.4901e-05
3.08372e-05
2.85634e-05
2.87398e-05
3.31219e-05
4.49532e-05
6.62905e-05
9.55561e-05
0.000125377
0.000162739
0.000219777
0.000292711
0.000361118
0.00035371
0.000243767
0.000205743
0.000272985
0.000396131
0.000539236
0.000693676
0.000841279
0.000957761
0.00102529
0.00103596
0.000989918
0.000899213
0.000778512
0.000645722
0.000517698
0.000405548
0.000314307
0.000245194
0.00019662
0.000164515
0.000143221
0.000126928
0.000111431
9.52458e-05
7.9134e-05
6.46999e-05
5.30128e-05
4.42102e-05
3.78471e-05
3.33413e-05
3.01987e-05
2.80592e-05
2.66719e-05
2.58524e-05
2.54847e-05
2.54969e-05
2.58486e-05
2.65229e-05
2.75241e-05
2.88697e-05
3.06163e-05
3.2784e-05
3.56168e-05
3.87962e-05
4.36156e-05
4.78825e-05
3.48929e-05
3.08049e-05
2.84061e-05
2.81715e-05
3.16314e-05
4.1864e-05
6.16327e-05
9.0918e-05
0.000123024
0.000160458
0.000214742
0.000287409
0.000362356
0.000371614
0.000268194
0.000223428
0.000289703
0.000408976
0.000550258
0.000703946
0.000851325
0.000967608
0.00103448
0.00104344
0.000994734
0.000901029
0.000777547
0.000642195
0.000511986
0.000398297
0.000306289
0.000237179
0.000189212
0.000158096
0.000138014
0.000123044
0.000108822
9.36882e-05
7.83013e-05
6.42829e-05
5.27656e-05
4.39804e-05
3.75622e-05
3.29797e-05
2.97651e-05
2.75677e-05
2.61382e-05
2.52898e-05
2.49012e-05
2.48957e-05
2.52297e-05
2.58836e-05
2.68601e-05
2.81758e-05
2.98857e-05
3.20118e-05
3.47907e-05
3.79201e-05
4.26452e-05
4.68587e-05
3.48859e-05
3.078e-05
2.82805e-05
2.77005e-05
3.03455e-05
3.90477e-05
5.70001e-05
8.55672e-05
0.000119344
0.000157518
0.000209446
0.000280687
0.000360824
0.000386332
0.00029286
0.00024246
0.000306546
0.000421181
0.000560273
0.000712626
0.000859166
0.000974762
0.0010407
0.00104794
0.000996832
0.00090046
0.000774443
0.000636813
0.000504814
0.000389989
0.000297567
0.000228745
0.000181586
0.000151567
0.000132726
0.000119058
0.00010608
9.1985e-05
7.73323e-05
6.37581e-05
5.24497e-05
4.37212e-05
3.72799e-05
3.26426e-05
2.93675e-05
2.7116e-05
2.56429e-05
2.47622e-05
2.4349e-05
2.43231e-05
2.46374e-05
2.527e-05
2.62215e-05
2.75073e-05
2.91809e-05
3.12654e-05
3.39905e-05
3.70693e-05
4.17016e-05
4.58613e-05
3.48797e-05
3.07612e-05
2.8181e-05
2.73129e-05
2.9248e-05
3.65245e-05
5.25239e-05
7.97384e-05
0.00011441
0.000153621
0.000203756
0.000272908
0.000356705
0.000397417
0.000316918
0.000262983
0.00032297
0.000432745
0.000569245
0.000719706
0.000864824
0.000979275
0.00104402
0.00104951
0.000996234
0.000897475
0.000769174
0.000629601
0.000496231
0.000380684
0.000288207
0.000219956
0.000173804
0.000144988
0.00012741
0.000115017
0.000103246
9.01635e-05
7.6244e-05
6.31333e-05
5.20649e-05
4.34268e-05
3.6992e-05
3.23214e-05
2.89992e-05
2.66998e-05
2.51842e-05
2.42694e-05
2.38291e-05
2.37803e-05
2.40732e-05
2.46834e-05
2.56093e-05
2.68651e-05
2.85024e-05
3.05453e-05
3.32168e-05
3.62447e-05
4.07857e-05
4.48915e-05
3.48743e-05
3.07472e-05
2.81032e-05
2.69967e-05
2.83203e-05
3.42991e-05
4.8306e-05
7.36638e-05
0.000108382
0.00014857
0.000197478
0.000264233
0.000350196
0.000404474
0.000339229
0.000284508
0.000338873
0.000443646
0.000577148
0.000725188
0.000868334
0.000981207
0.0010445
0.00104823
0.000992968
0.000892065
0.000761753
0.000620608
0.000486306
0.000370452
0.000278276
0.00021088
0.00016593
0.000138418
0.000122121
0.000110967
0.000100355
8.82505e-05
7.50542e-05
6.24175e-05
5.16131e-05
4.30937e-05
3.66916e-05
3.20085e-05
2.86532e-05
2.6314e-05
2.47591e-05
2.38103e-05
2.33414e-05
2.3268e-05
2.35379e-05
2.41246e-05
2.50243e-05
2.62498e-05
2.78507e-05
2.98521e-05
3.24703e-05
3.54469e-05
3.98983e-05
4.39503e-05
3.48695e-05
3.07371e-05
2.80432e-05
2.67409e-05
2.75436e-05
3.23639e-05
4.44189e-05
6.7559e-05
0.000101486
0.000142287
0.000190407
0.000254697
0.000341478
0.000407535
0.000358906
0.000306199
0.000354153
0.000453843
0.000583954
0.000729082
0.00086974
0.000980627
0.00104224
0.00104416
0.000987068
0.00088425
0.000752217
0.000609902
0.000475116
0.000359371
0.000267851
0.000201587
0.000158026
0.000131915
0.00011691
0.000106953
9.74432e-05
8.62716e-05
7.37803e-05
6.1621e-05
5.10978e-05
4.27201e-05
3.63735e-05
3.16972e-05
2.83231e-05
2.59531e-05
2.43637e-05
2.33826e-05
2.2885e-05
2.2786e-05
2.30319e-05
2.35941e-05
2.4467e-05
2.56618e-05
2.72264e-05
2.91862e-05
3.17512e-05
3.46765e-05
3.90401e-05
4.30384e-05
3.48654e-05
3.07299e-05
2.79976e-05
2.65357e-05
2.68989e-05
3.07025e-05
4.09071e-05
6.16111e-05
9.39881e-05
0.000134808
0.000182367
0.000244281
0.000330704
0.00040679
0.000375557
0.000327069
0.000368662
0.000463264
0.000589637
0.000731401
0.000869095
0.000977608
0.00103729
0.00103738
0.000978581
0.000874068
0.000740632
0.00059757
0.000462752
0.000347526
0.00025701
0.000192145
0.000150156
0.000125537
0.000111829
0.000103018
9.45468e-05
8.42507e-05
7.244e-05
6.0755e-05
5.0524e-05
4.2306e-05
3.60343e-05
3.13822e-05
2.80029e-05
2.56119e-05
2.3994e-05
2.29837e-05
2.24584e-05
2.23337e-05
2.2555e-05
2.3092e-05
2.39377e-05
2.51015e-05
2.66296e-05
2.85478e-05
3.10601e-05
3.39339e-05
3.82115e-05
4.21563e-05
3.48617e-05
3.07253e-05
2.79636e-05
2.63728e-05
2.63684e-05
2.92926e-05
3.77911e-05
5.59715e-05
8.61704e-05
0.000126276
0.000173252
0.000232941
0.000317975
0.000402407
0.000388924
0.00034626
0.000382195
0.00047181
0.000594163
0.000732164
0.000866456
0.000972228
0.00102976
0.00102796
0.000967566
0.000861578
0.000727079
0.000583709
0.00044931
0.000335007
0.000245833
0.000182626
0.000142381
0.000119339
0.000106927
9.92056e-05
9.16992e-05
8.22079e-05
7.10514e-05
5.9832e-05
4.9898e-05
4.18527e-05
3.56719e-05
3.10592e-05
2.76878e-05
2.52858e-05
2.36462e-05
2.26107e-05
2.20597e-05
2.19099e-05
2.21065e-05
2.26182e-05
2.34361e-05
2.45688e-05
2.60604e-05
2.7937e-05
3.03968e-05
3.32193e-05
3.74128e-05
4.13044e-05
3.48585e-05
3.07225e-05
2.79391e-05
2.62449e-05
2.59356e-05
2.81088e-05
3.50708e-05
5.07522e-05
7.83071e-05
0.000116921
0.000163047
0.00022063
0.000303321
0.000394535
0.000398811
0.000363129
0.000394491
0.00047935
0.000597484
0.000731384
0.000861879
0.000964569
0.00101973
0.001016
0.000954096
0.000846862
0.000711659
0.000568432
0.000434897
0.000321909
0.000234403
0.000173099
0.000134762
0.000113375
0.000102253
9.5555e-05
8.8933e-05
8.01615e-05
6.96379e-05
5.88661e-05
4.92269e-05
4.13627e-05
3.52854e-05
3.07255e-05
2.73738e-05
2.49706e-05
2.33168e-05
2.22607e-05
2.16868e-05
2.15134e-05
2.16858e-05
2.2172e-05
2.29621e-05
2.40635e-05