/*--------------------------------*- C++ -*----------------------------------*\
| =========                 |                                                 |
| \\      /  F ield         | OpenFOAM: The Open Source CFD Toolbox           |
|  \\    /   O peration     | Version:  2.4.0                                 |
|   \\  /    A nd           | Web:      www.OpenFOAM.org                      |
|    \\/     M anipulation  |                                                 |
\*---------------------------------------------------------------------------*/
FoamFile
{
    version     2.0;
    format      ascii;
    class       volScalarField;
    location    "0.47";
    object      pPrime2Mean;
}
// * * * * * * * * * * * * * * * * * * * * * * * * * * * * * * * * * * * * * //

dimensions      [0 4 -4 0 0 0 0];

internalField   nonuniform List<scalar> 
2320
(
3623.75
3531.76
3435.63
3340.84
3247.36
3155.29
3064.5
2975.16
2887.1
2800.57
2715.28
2631.64
2549.24
2468.63
2389.26
2311.91
2235.78
2161.92
2089.25
2019.02
3623.75
3531.77
3435.64
3340.85
3247.37
3155.28
3064.49
2975.15
2887.08
2800.54
2715.25
2631.59
2549.17
2468.55
2389.17
2311.8
2235.67
2161.79
2089.14
2018.9
3623.75
3531.78
3435.65
3340.85
3247.36
3155.28
3064.47
2975.12
2887.05
2800.49
2715.19
2631.5
2549.07
2468.4
2388.99
2311.55
2235.39
2161.44
2088.79
2018.54
3623.75
3531.75
3435.63
3340.82
3247.33
3155.23
3064.42
2975.06
2886.99
2800.4
2715.07
2631.36
2548.9
2468.17
2388.72
2311.21
2235.02
2160.99
2088.34
2018.03
3623.73
3531.73
3435.61
3340.8
3247.3
3155.19
3064.37
2974.99
2886.9
2800.28
2714.95
2631.17
2548.67
2467.87
2388.37
2310.74
2234.49
2160.37
2087.7
2017.37
3623.73
3531.73
3435.62
3340.79
3247.28
3155.15
3064.34
2974.93
2886.82
2800.15
2714.79
2630.94
2548.41
2467.5
2387.94
2310.18
2233.86
2159.61
2086.91
2016.51
3623.71
3531.71
3435.6
3340.76
3247.23
3155.1
3064.28
2974.85
2886.72
2800.02
2714.62
2630.7
2548.11
2467.08
2387.44
2309.5
2233.1
2158.65
2085.9
2015.42
3623.69
3531.67
3435.55
3340.7
3247.18
3155.02
3064.19
2974.73
2886.59
2799.84
2714.42
2630.42
2547.79
2466.62
2386.9
2308.76
2232.25
2157.56
2084.76
2014.13
3623.65
3531.63
3435.5
3340.65
3247.12
3154.96
3064.12
2974.65
2886.48
2799.7
2714.23
2630.16
2547.44
2466.15
2386.31
2307.96
2231.29
2156.3
2083.4
2012.55
3623.62
3531.58
3435.46
3340.6
3247.07
3154.88
3064.05
2974.54
2886.37
2799.53
2714.05
2629.87
2547.1
2465.64
2385.7
2307.1
2230.26
2154.93
2081.89
2010.75
3623.57
3531.55
3435.42
3340.56
3247.02
3154.84
3063.99
2974.48
2886.27
2799.4
2713.85
2629.62
2546.73
2465.14
2385.03
2306.2
2229.09
2153.39
2080.07
2008.66
3623.54
3531.49
3435.38
3340.49
3246.97
3154.77
3063.92
2974.37
2886.18
2799.24
2713.68
2629.32
2546.38
2464.59
2384.35
2305.23
2227.86
2151.72
2078.04
2006.13
3623.5
3531.44
3435.32
3340.44
3246.91
3154.7
3063.85
2974.28
2886.07
2799.12
2713.48
2629.07
2546.01
2464.11
2383.62
2304.24
2226.47
2149.86
2075.69
2003.23
3623.48
3531.4
3435.3
3340.4
3246.88
3154.65
3063.81
2974.21
2886.01
2798.99
2713.33
2628.81
2545.67
2463.59
2382.95
2303.24
2225.08
2147.92
2072.98
1999.93
3623.44
3531.38
3435.26
3340.36
3246.83
3154.6
3063.76
2974.16
2885.93
2798.9
2713.17
2628.62
2545.34
2463.14
2382.24
2302.27
2223.57
2145.77
2069.92
1995.68
3623.42
3531.35
3435.24
3340.32
3246.79
3154.55
3063.73
2974.13
2885.91
2798.83
2713.04
2628.43
2545.04
2462.72
2381.65
2301.41
2222.2
2143.7
2066.46
1990.98
3623.4
3531.33
3435.22
3340.29
3246.74
3154.52
3063.71
2974.11
2885.91
2798.8
2712.98
2628.32
2544.85
2462.38
2381.19
2300.68
2220.98
2141.73
2063.03
1985.05
3623.39
3531.31
3435.2
3340.24
3246.69
3154.47
3063.68
2974.12
2885.91
2798.82
2712.89
2628.3
2544.64
2462.11
2380.79
2300.12
2220.06
2140.05
2059.75
1978.99
3623.37
3531.29
3435.16
3340.19
3246.64
3154.47
3063.68
2974.11
2885.98
2798.84
2712.94
2628.3
2544.63
2461.91
2380.7
2299.7
2219.37
2138.76
2057.3
1972.48
3623.37
3531.28
3435.14
3340.14
3246.55
3154.33
3063.56
2974
2885.8
2798.7
2712.78
2628.14
2544.42
2461.83
2380.45
2299.53
2219.05
2137.96
2055.58
1968.06
1949.9
1883.14
1817.38
1753.3
1690.43
1628.45
1567.58
1507.39
1949.81
1883.08
1817.34
1753.35
1690.54
1628.72
1567.88
1507.69
1949.48
1882.77
1817.15
1753.27
1690.52
1628.76
1567.95
1507.8
1949.08
1882.4
1816.88
1753.2
1690.56
1628.96
1568.22
1508.16
1948.48
1881.94
1816.58
1753.14
1690.64
1629.24
1568.56
1508.57
1947.74
1881.32
1816.16
1753.03
1690.72
1629.62
1569.1
1509.2
1946.74
1880.52
1815.66
1752.85
1690.85
1630.08
1569.76
1509.99
1945.62
1879.5
1815.06
1752.67
1691.06
1630.65
1570.59
1510.97
1944.18
1878.22
1814.26
1752.42
1691.34
1631.41
1571.63
1512.2
1942.57
1876.74
1813.26
1751.92
1691.64
1632.35
1572.95
1513.74
1940.58
1875
1812.27
1751.47
1692.03
1633.53
1574.62
1515.61
1938.09
1872.7
1810.96
1750.93
1692.55
1634.97
1576.67
1517.88
1935.18
1869.86
1809.23
1750.31
1693.25
1636.73
1579.2
1520.64
1931.49
1866.32
1806.98
1749.59
1694.2
1638.92
1582.32
1524.05
1927.11
1862.07
1804.16
1748.74
1695.39
1641.7
1586.24
1528.26
1921.21
1856.77
1800.69
1747.72
1696.85
1645.17
1591.24
1533.53
1913.15
1850.08
1796.47
1746.52
1698.6
1649.46
1597.63
1540.26
1901.69
1841.38
1791.42
1745.16
1700.68
1654.73
1605.8
1549.19
1886.12
1830.47
1785.59
1743.69
1703.14
1661.08
1616.15
1561.64
1863.54
1817.19
1779.25
1742.58
1706.19
1668.54
1629.01
1580.66
1448.08
1389.62
1332.2
1275.82
1220.83
1167.3
1115.38
1065.08
1016.44
969.403
923.728
879.11
835.172
791.456
747.74
703.808
659.776
615.854
572.507
530.117
489.148
449.674
411.876
375.418
340.147
305.451
270.487
233.771
1448.37
1389.94
1332.5
1276.08
1221.08
1167.53
1115.6
1065.31
1016.73
969.72
924.121
879.545
835.644
791.965
748.244
704.284
660.197
616.227
572.796
530.385
489.351
449.926
412.084
375.752
340.569
306.154
271.77
236.425
1448.42
1389.98
1332.54
1276.17
1221.19
1167.65
1115.76
1065.55
1017.07
970.174
924.682
880.248
836.44
792.819
749.11
705.121
660.976
616.891
573.374
530.829
489.757
450.279
412.491
376.229
341.291
307.269
273.82
240.649
1448.84
1390.38
1332.87
1276.49
1221.49
1167.97
1116.16
1066.04
1017.72
971.01
925.746
881.487
837.826
794.312
750.605
706.54
662.22
617.964
574.221
531.537
490.308
450.812
413.051
376.964
342.306
308.851
276.395
245.113
1449.27
1390.78
1333.24
1276.85
1221.84
1168.36
1116.64
1066.66
1018.57
972.081
927.124
883.115
839.688
796.266
752.569
708.407
663.927
619.415
575.414
532.482
491.081
451.497
413.765
377.838
343.519
310.644
279.164
249.398
1449.92
1391.41
1333.8
1277.39
1222.35
1168.93
1117.33
1067.56
1019.75
973.642
929.085
885.435
842.26
798.993
755.296
710.988
666.188
621.325
576.94
533.719
492.053
452.364
414.64
378.888
344.905
312.625
282.012
253.462
1450.73
1392.17
1334.49
1278.04
1222.97
1169.62
1118.16
1068.64
1021.17
975.506
931.382
888.117
845.275
802.142
758.431
713.927
668.821
623.523
578.742
535.113
493.2
453.333
415.621
380.001
346.389
314.623
284.794
257.173
1451.75
1393.11
1335.34
1278.8
1223.69
1170.42
1119.1
1069.9
1022.83
977.734
934.095
891.291
848.83
805.88
762.179
717.393
671.876
626.058
580.83
536.729
494.489
454.404
416.662
381.174
347.887
316.62
287.45
260.561
1453
1394.21
1336.3
1279.63
1224.48
1171.28
1120.16
1071.36
1024.82
980.346
937.235
894.937
852.759
809.953
766.172
721.113
675.12
628.801
583.051
538.471
495.857
455.544
417.722
382.362
349.361
318.549
289.925
263.63
1454.47
1395.49
1337.4
1280.55
1225.39
1172.25
1121.38
1073.01
1027.05
983.153
940.541
898.65
856.705
814.057
770.16
724.705
678.283
631.54
585.294
540.177
497.238
456.698
418.781
383.521
350.782
320.365
292.203
266.382
1456.18
1396.97
1338.62
1281.58
1226.38
1173.3
1122.69
1074.7
1029.32
985.88
943.619
901.985
860.218
817.669
773.667
727.901
680.992
633.894
587.277
541.721
498.461
457.737
419.753
384.607
352.116
322.041
294.273
268.827
1458.21
1398.69
1340.02
1282.73
1227.41
1174.36
1123.86
1076.27
1031.38
988.299
946.275
904.813
863.177
820.573
776.423
730.469
683.245
635.772
588.755
543.007
499.563
458.634
420.616
385.584
353.333
323.546
296.122
270.978
1460.62
1400.67
1341.58
1283.95
1228.45
1175.28
1124.83
1077.57
1033
990.061
948.133
906.745
865.095
822.5
778.38
731.929
684.489
637.143
589.738
543.766
500.314
459.356
421.334
386.44
354.4
324.893
297.749
272.852
1463.51
1402.95
1343.25
1285.21
1229.44
1176.02
1125.47
1078.37
1033.96
991.187
949.11
907.68
866.051
823.293
779.303
732.82
684.967
637.606
590.217
544.257
500.724
459.807
421.895
387.18
355.336
326.075
299.166
274.472
1466.93
1405.49
1345.01
1286.46
1230.37
1176.54
1125.81
1078.65
1034.2
991.332
949.206
907.578
865.959
823.246
779.055
732.502
684.872
637.46
590.087
544.335
500.866
460.069
422.311
387.778
356.13
327.091
300.372
275.845
1470.94
1408.27
1346.69
1287.48
1230.92
1176.73
1125.69
1078.31
1033.82
990.715
948.185
906.716
864.94
822.363
778.183
731.583
684.101
636.847
589.604
544.065
500.728
460.145
422.58
388.265
356.79
327.948
301.374
276.986
1475.6
1411.13
1348.25
1288.31
1231.32
1176.65
1125.43
1077.61
1032.82
989.671
947.024
905.391
863.648
821.081
776.811
730.322
683.06
635.91
588.919
543.622
500.428
460.093
422.733
388.653
357.321
328.662
302.186
277.915
1480.73
1413.69
1349.28
1288.75
1231.28
1176.34
1124.84
1076.78
1031.59
988.184
945.411
903.874
862.081
819.562
775.251
728.984
681.842
634.825
588.169
543.05
499.999
459.948
422.807
388.965
357.71
329.196
302.791
278.608
1486.16
1416.21
1350.12
1288.91
1231.01
1175.94
1124.41
1075.99
1030.67
986.949
944.164
902.585
860.844
818.237
773.879
727.784
680.82
633.937
587.473
542.457
499.664
459.808
422.85
389.174
357.985
329.58
303.2
279.084
1490.13
1417.2
1350.53
1288.92
1230.72
1175.58
1123.96
1075.51
1029.97
986.199
943.324
901.729
860.041
817.383
772.978
727.092
680.188
633.374
587.015
542.108
499.454
459.7
422.851
389.284
358.113
329.756
303.384
279.306
188.57
171.532
158.205
148.716
141.081
135.469
131.669
130.842
200.356
179.751
165.343
154.532
146.076
139.709
135.333
133.07
209.381
187.7
172.089
160.26
150.982
143.977
138.957
134.999
216.588
194.878
178.465
165.664
155.413
147.293
141.745
136.627
222.661
201.053
184.02
170.483
159.638
150.84
143.789
137.44
227.896
206.557
189.263
175.169
163.561
154.046
146.024
138.559
232.451
211.335
193.707
179.045
166.821
156.604
147.818
139.658
236.464
215.53
197.743
182.766
170.125
159.247
149.691
140.617
239.989
219.228
201.32
185.948
172.7
161.217
151.096
141.785
243.098
222.471
204.457
188.829
175.284
163.405
152.727
142.873
245.822
225.301
207.208
191.352
177.413
165.062
153.974
143.803
248.201
227.749
209.586
193.535
179.33
166.693
155.279
144.774
250.256
229.857
211.642
195.434
181.004
168.054
156.33
145.542
252.011
231.652
213.392
197.058
182.416
169.243
157.302
146.296
253.495
233.159
214.857
198.428
183.617
170.264
158.107
146.913
254.711
234.407
216.066
199.547
184.599
171.106
158.784
147.458
255.688
235.4
217.033
200.462
185.387
171.791
159.325
147.908
256.408
236.152
217.745
201.113
185.984
172.308
159.74
148.266
256.889
236.64
218.242
201.588
186.373
172.648
160.034
148.522
257.107
236.889
218.478
201.802
186.574
172.827
160.168
148.644
134.588
134.079
130.324
124.821
119.51
111.69
99.4501
87.5448
78.6087
68.7398
58.3039
47.6984
37.3579
27.7594
19.324
12.4365
7.22271
3.67801
1.56985
0.254626
134.102
132.696
128.702
123.291
118.208
110.64
98.6532
86.9151
77.9957
68.1958
57.8565
47.3577
37.115
27.5992
19.2334
12.3891
7.20243
3.65703
1.53359
0.220733
133.428
131.597
127.455
121.938
116.814
109.368
97.6655
86.1063
77.2009
67.4827
57.2662
46.906
36.7929
27.3919
19.1193
12.336
7.18134
3.63808
1.50378
0.211725
133.7
130.847
126.304
120.699
115.441
108.038
96.5948
85.2547
76.393
66.7637
56.6716
46.4481
36.4712
27.1853
19.0114
12.2871
7.16692
3.62586
1.48063
0.202542
133.318
130.31
125.496
119.709
114.264
106.837
95.6283
84.4624
75.6112
66.0589
56.0843
45.996
36.1525
26.985
18.9105
12.2476
7.16044
3.62062
1.46393
0.196614
133.865
129.946
124.688
118.728
113.068
105.571
94.5921
83.6256
74.8141
65.3472
55.4942
45.5408
35.8359
26.79
18.8147
12.2159
7.1592
3.62097
1.45078
0.192123
133.872
129.478
123.919
117.832
111.973
104.402
93.632
82.8314
74.0403
64.6514
54.9133
45.0934
35.5254
26.6023
18.7262
12.1917
7.16515
3.62666
1.4413
0.188544
134.116
129.452
123.562
117.111
110.955
103.261
92.6787
82.0413
73.2721
63.9589
54.335
44.6498
35.2192
26.4206
18.643
12.1755
7.17664
3.63686
1.43424
0.185417
134.585
129.068
122.806
116.198
109.845
102.096
91.7045
81.2445
72.4984
63.2688
53.7619
44.2109
34.9177
26.2448
18.5671
12.1659
7.19421
3.6512
1.4297
0.182685
135.065
128.934
122.409
115.58
108.974
101.093
90.8437
80.5182
71.7723
62.6078
53.2089
43.7867
34.6274
26.0797
18.5008
12.165
7.2182
3.66962
1.42701
0.180209
135.707
128.975
121.919
114.765
107.913
99.9648
89.9
79.7476
71.023
61.9341
52.6496
43.3589
34.3382
25.9171
18.4399
12.1689
7.24681
3.69128
1.42599
0.177953
136.15
128.921
121.457
114.052
106.989
98.9847
89.0884
79.0729
70.3398
61.308
52.1243
42.9598
34.0688
25.7709
18.3918
12.1831
7.2829
3.7173
1.42686
0.175967
136.586
128.934
121.152
113.465
106.135
98.0109
88.243
78.3606
69.6346
60.6666
51.587
42.5502
33.7957
25.6259
18.3474
12.2007
7.32192
3.74555
1.42877
0.174097
136.998
128.87
120.742
112.794
105.244
97.0639
87.4568
77.7156
68.9865
60.0724
51.0846
42.1707
33.5472
25.5002
18.3173
12.2292
7.3691
3.77866
1.43273
0.172495
137.322
128.788
120.403
112.241
104.484
96.2186
86.7296
77.0921
68.3478
59.4821
50.5874
41.7916
33.3002
25.3781
18.2925
12.2622
7.41906
3.81341
1.43735
0.170975
137.62
128.713
120.083
111.676
103.701
95.3602
86.0125
76.4986
67.7426
58.9232
50.1157
41.4346
33.0721
25.2712
18.281
12.306
7.47675
3.85266
1.44389
0.169685
137.852
128.62
119.771
111.16
103.005
94.5922
85.3633
75.9459
67.1669
58.3864
49.6588
41.0896
32.8536
25.1738
18.2782
12.3561
7.5384
3.89397
1.45113
0.168493
138.024
128.519
119.493
110.693
102.349
93.8493
84.738
75.4205
66.6174
57.8721
49.2188
40.759
32.6489
25.0891
18.2871
12.4163
7.60671
3.93885
1.45987
0.167476
138.127
128.415
119.212
110.258
101.748
93.1666
84.1622
74.9318
66.1014
57.3847
48.8004
40.4458
32.4591
25.0183
18.3077
12.4858
7.6799
3.98575
1.46926
0.166529
138.171
128.3
119.026
109.975
101.329
92.662
83.7181
74.5629
65.7123
57.0085
48.4727
40.1987
32.3114
24.9682
18.3324
12.5485
7.74279
4.02456
1.4777
0.165846
1.0441
0.502539
1.16757
0.86039
0.26781
0.0919218
0.0448335
0.0423806
0.980595
1.25651
1.84665
1.76379
0.810156
0.615137
0.402138
0.378817
1.97886
1.9546
2.54434
2.63841
1.86071
1.52739
1.11602
1.03818
2.60899
3.18084
3.97341
4.19918
3.36045
2.8074
2.18469
2.01441
4.06966
4.95522
5.56456
6.02735
5.19682
4.42112
3.58203
3.30018
5.81334
6.87952
7.70052
8.1179
7.28853
6.3358
5.28548
4.88041
7.98921
9.35362
10.0059
10.4447
9.62754
8.5067
7.255
6.73384
10.3971
11.8509
12.5562
12.9582
12.1496
10.8912
9.45781
8.82725
13.0448
14.6197
15.2456
15.596
14.7866
13.4369
11.8433
11.124
15.8255
17.3317
17.8422
18.288
17.5083
16.0932
14.3829
13.5867
18.6945
20.1227
20.5934
21
20.2391
18.8372
17.0334
16.1834
21.5939
22.8912
23.1169
23.7495
23.0214
21.6443
19.7849
18.8862
24.5354
25.7782
26.0369
26.5923
25.8227
24.5148
22.6166
21.6825
27.5229
28.7104
28.6617
29.4408
28.6786
27.4344
25.5272
24.5594
30.5563
31.7209
31.7427
32.4806
31.634
30.3997
28.498
27.5109
33.6571
34.7775
34.6197
35.412
34.6558
33.4115
31.5424
30.5296
36.8159
37.9305
37.8453
38.6213
37.7894
36.4871
34.6419
33.6075
40.0527
41.1565
40.993
41.7415
40.9777
39.6257
37.7978
36.7378
43.3413
44.4796
44.3959
45.081
44.3297
42.8351
41.002
39.916
46.7046
47.8848
47.7677
48.4896
47.7108
46.105
44.2536
43.1371
50.0956
51.3185
51.3485
51.9494
51.1736
49.4229
47.5387
46.4023
53.5175
54.7829
54.8712
55.4596
54.6492
52.7747
50.862
49.7154
56.9646
58.2008
58.4669
58.9622
58.1065
56.1349
54.2245
53.0824
60.4359
61.6275
62.0376
62.3739
61.5595
59.5328
57.6418
56.5161
63.9801
65.0293
65.5515
65.8637
65.0179
62.9801
61.1235
60.0306
67.6412
68.5509
69.169
69.2957
68.5063
66.5113
64.6955
63.6414
71.4932
72.1557
72.8284
72.9187
72.1367
70.1635
68.3785
67.369
75.6238
76.0671
76.7916
76.7073
75.8775
73.964
72.2026
71.2309
80.1307
80.2772
81.0246
80.7323
79.8589
77.9396
76.174
75.2367
85.0901
84.9697
85.6568
85.1509
84.0256
82.0955
80.3137
79.3958
90.538
90.2365
90.7764
89.9941
88.4914
86.4456
84.6185
83.7094
96.4897
96.1128
96.3678
95.2292
93.1547
90.969
89.0896
88.1755
102.879
102.617
102.447
100.807
98.0816
95.6863
93.7102
92.7843
109.694
109.436
108.62
106.626
103.237
100.54
98.4541
97.5158
117.107
116.959
115.263
112.946
108.592
105.5
103.3
102.349
125.319
124.827
122.407
118.92
113.944
110.545
108.224
107.254
134.478
133.14
129.124
124.39
119.297
115.648
113.166
112.178
145.026
141.861
136.44
130.212
124.711
120.757
118.096
117.037
156.824
151.393
143.68
136.321
130.233
125.86
122.886
121.753
171.437
162.612
150.87
142.555
135.71
130.763
127.486
126.383
1832.11
1806.6
1776.13
1744.54
1712.73
1680
1647.06
1615.3
1810.02
1797.33
1774.56
1748.11
1720.71
1692.67
1665.08
1641.51
1794.78
1788.57
1772.04
1750.56
1727.38
1703.4
1680.21
1662.14
1783.98
1781.09
1769.18
1751.99
1732.6
1712.23
1692.79
1678.66
1776.09
1774.96
1766.39
1752.72
1736.65
1719.45
1703.22
1692.02
1770.27
1770.05
1763.84
1753
1739.74
1725.33
1711.82
1702.88
1765.87
1766.14
1761.6
1753
1742.09
1730.1
1718.92
1711.74
1762.55
1763.04
1759.7
1752.86
1743.91
1733.97
1724.75
1718.99
1759.99
1760.58
1758.1
1752.65
1745.33
1737.12
1729.56
1724.89
1758.04
1758.63
1756.79
1752.43
1746.46
1739.69
1733.5
1729.75
1756.51
1757.09
1755.7
1752.22
1747.36
1741.79
1736.74
1733.7
1755.35
1755.87
1754.83
1752.03
1748.08
1743.52
1739.4
1736.95
1754.43
1754.9
1754.12
1751.87
1748.67
1744.93
1741.59
1739.63
1753.74
1754.14
1753.55
1751.75
1749.15
1746.09
1743.38
1741.78
1753.18
1753.54
1753.1
1751.65
1749.56
1747.05
1744.87
1743.6
1752.78
1753.08
1752.75
1751.58
1749.89
1747.85
1746.09
1745.03
1752.45
1752.72
1752.48
1751.53
1750.18
1748.51
1747.1
1746.28
1752.23
1752.45
1752.27
1751.51
1750.42
1749.05
1747.92
1747.23
1752.05
1752.24
1752.12
1751.5
1750.63
1749.52
1748.63
1748.08
1751.95
1752.1
1752.02
1751.51
1750.81
1749.9
1749.18
1748.74
1751.87
1752
1751.95
1751.53
1750.98
1750.24
1749.69
1749.31
1751.84
1751.93
1751.91
1751.57
1751.13
1750.51
1750.07
1749.78
1751.82
1751.9
1751.9
1751.61
1751.27
1750.76
1750.42
1750.16
1751.85
1751.89
1751.91
1751.66
1751.39
1750.96
1750.71
1750.5
1751.88
1751.91
1751.94
1751.72
1751.52
1751.15
1750.95
1750.76
1751.94
1751.94
1751.99
1751.77
1751.63
1751.31
1751.17
1751.02
1752.01
1751.99
1752.05
1751.84
1751.74
1751.46
1751.35
1751.21
1752.12
1752.05
1752.13
1751.91
1751.85
1751.59
1751.51
1751.39
1752.22
1752.13
1752.21
1752
1751.96
1751.71
1751.66
1751.54
1752.35
1752.21
1752.31
1752.08
1752.06
1751.83
1751.79
1751.67
1752.49
1752.31
1752.42
1752.18
1752.16
1751.94
1751.91
1751.8
1752.67
1752.43
1752.53
1752.27
1752.26
1752.06
1752.02
1751.9
1752.87
1752.56
1752.65
1752.39
1752.36
1752.16
1752.13
1752.01
1753.11
1752.72
1752.77
1752.5
1752.45
1752.27
1752.22
1752.1
1753.38
1752.89
1752.92
1752.63
1752.55
1752.38
1752.32
1752.2
1753.72
1753.08
1753.07
1752.77
1752.66
1752.49
1752.41
1752.3
1754.16
1753.3
1753.26
1752.95
1752.78
1752.61
1752.52
1752.41
1754.89
1753.64
1753.49
1753.15
1752.93
1752.76
1752.65
1752.5
1756.1
1754.14
1753.76
1753.38
1753.11
1752.91
1752.8
1752.65
1758.02
1754.86
1754.01
1753.58
1753.3
1753.09
1752.93
1753.02
)
;

boundaryField
{
    wall
    {
        type            calculated;
        value           nonuniform List<scalar> 
312
(
3623.37
3531.28
3435.14
3340.14
3246.55
3154.33
3063.56
2974
2885.8
2798.7
2712.78
2628.14
2544.42
2461.83
2380.45
2299.53
2219.05
2137.96
2055.58
1968.06
1832.11
1810.02
1794.78
1783.98
1776.09
1770.27
1765.87
1762.55
1759.99
1758.04
1756.51
1755.35
1754.43
1753.74
1753.18
1752.78
1752.45
1752.23
1752.05
1751.95
1751.87
1751.84
1751.82
1751.85
1751.88
1751.94
1752.01
1752.12
1752.22
1752.35
1752.49
1752.67
1752.87
1753.11
1753.38
1753.72
1754.16
1754.89
1756.1
1758.02
1615.3
1641.51
1662.14
1678.66
1692.02
1702.88
1711.74
1718.99
1724.89
1729.75
1733.7
1736.95
1739.63
1741.78
1743.6
1745.03
1746.28
1747.23
1748.08
1748.74
1749.31
1749.78
1750.16
1750.5
1750.76
1751.02
1751.21
1751.39
1751.54
1751.67
1751.8
1751.9
1752.01
1752.1
1752.2
1752.3
1752.41
1752.5
1752.65
1753.02
1490.13
1417.2
1350.53
1288.92
1230.72
1175.58
1123.96
1075.51
1029.97
986.199
943.324
901.729
860.041
817.383
772.978
727.092
680.188
633.374
587.015
542.108
499.454
459.7
422.851
389.284
358.113
329.756
303.384
279.306
257.107
236.889
218.478
201.802
186.574
172.827
160.168
148.644
138.171
128.3
119.026
109.975
101.329
92.662
83.7181
74.5629
65.7123
57.0085
48.4727
40.1987
32.3114
24.9682
18.3324
12.5485
7.74279
4.02456
1.4777
0.165846
134.588
134.079
130.324
124.821
119.51
111.69
99.4501
87.5448
78.6087
68.7398
58.3039
47.6984
37.3579
27.7594
19.324
12.4365
7.22271
3.67801
1.56985
0.254626
0.0423806
0.378817
1.03818
2.01441
3.30018
4.88041
6.73384
8.82725
11.124
13.5867
16.1834
18.8862
21.6825
24.5594
27.5109
30.5296
33.6075
36.7378
39.916
43.1371
46.4023
49.7154
53.0824
56.5161
60.0306
63.6414
67.369
71.2309
75.2367
79.3958
83.7094
88.1755
92.7843
97.5158
102.349
107.254
112.178
117.037
121.753
126.383
1.0441
0.980595
1.97886
2.60899
4.06966
5.81334
7.98921
10.3971
13.0448
15.8255
18.6945
21.5939
24.5354
27.5229
30.5563
33.6571
36.8159
40.0527
43.3413
46.7046
50.0956
53.5175
56.9646
60.4359
63.9801
67.6412
71.4932
75.6238
80.1307
85.0901
90.538
96.4897
102.879
109.694
117.107
125.319
134.478
145.026
156.824
171.437
1448.08
1389.62
1332.2
1275.82
1220.83
1167.3
1115.38
1065.08
1016.44
969.403
923.728
879.11
835.172
791.456
747.74
703.808
659.776
615.854
572.507
530.117
489.148
449.674
411.876
375.418
340.147
305.451
270.487
233.771
1949.9
1883.14
1817.38
1753.3
1690.43
1628.45
1567.58
1507.39
3623.75
3531.76
3435.63
3340.84
3247.36
3155.29
3064.5
2975.16
2887.1
2800.57
2715.28
2631.64
2549.24
2468.63
2389.26
2311.91
2235.78
2161.92
2089.25
2019.02
)
;
    }
    inlet1
    {
        type            calculated;
        value           nonuniform List<scalar> 
20
(
3623.75
3623.75
3623.75
3623.75
3623.73
3623.73
3623.71
3623.69
3623.65
3623.62
3623.57
3623.54
3623.5
3623.48
3623.44
3623.42
3623.4
3623.39
3623.37
3623.37
)
;
    }
    inlet2
    {
        type            calculated;
        value           nonuniform List<scalar> 8(1758.02 1754.86 1754.01 1753.58 1753.3 1753.09 1752.93 1753.02);
    }
    outlet1
    {
        type            calculated;
        value           uniform 0;
    }
    outlet2
    {
        type            calculated;
        value           nonuniform List<scalar> 8(0.982599 0 1.16848 0.804297 0.116753 0 0 0);
    }
    defaultFaces
    {
        type            empty;
    }
}


// ************************************************************************* //
