/*--------------------------------*- C++ -*----------------------------------*\
| =========                 |                                                 |
| \\      /  F ield         | OpenFOAM: The Open Source CFD Toolbox           |
|  \\    /   O peration     | Version:  2.4.0                                 |
|   \\  /    A nd           | Web:      www.OpenFOAM.org                      |
|    \\/     M anipulation  |                                                 |
\*---------------------------------------------------------------------------*/
FoamFile
{
    version     2.0;
    format      ascii;
    class       volScalarField;
    location    "2.3";
    object      k;
}
// * * * * * * * * * * * * * * * * * * * * * * * * * * * * * * * * * * * * * //

dimensions      [0 2 -2 0 0 0 0];

internalField   nonuniform List<scalar> 
6000
(
0.168231
0.0132557
0.000986543
0.00361622
0.00250952
0.0029403
0.00244643
0.00242243
0.00216477
0.00212398
0.00206396
0.00210335
0.00204689
0.00180867
0.00125174
0.000586946
0.000364439
0.000883455
0.00119512
0.00100547
0.000985279
0.00345292
0.00757005
0.0127024
0.0180377
0.0228649
0.0266536
0.0289973
0.0295386
0.0279761
0.0242749
0.0187192
0.0120124
0.00533977
0.00158531
0.00478755
0.00857337
0.0114612
0.0131588
0.0137811
0.0136274
0.0130409
0.0123003
0.0116112
0.0111215
0.0109433
0.0111468
0.0117966
0.0129044
0.0145756
0.0167368
0.0197183
0.0230534
0.0279703
0.0322961
0.0409307
0.0447571
0.0631347
0.061205
0.104961
0.0762072
0.0101437
0.000950218
0.00240244
0.00171672
0.00193096
0.00162415
0.00158908
0.00142787
0.00139354
0.00135223
0.00136455
0.00131705
0.00115829
0.000815104
0.00042236
0.000351421
0.000684846
0.000872719
0.000790629
0.00095894
0.00245412
0.00457536
0.00692459
0.00914976
0.0110055
0.0123401
0.0130516
0.013047
0.0122799
0.0107615
0.0085847
0.00594291
0.00318379
0.00162305
0.0030894
0.00464499
0.00580884
0.00649696
0.00675843
0.00670674
0.00647725
0.00618383
0.00591523
0.00573867
0.00570674
0.00585345
0.00620808
0.00677791
0.00760789
0.00866887
0.0100974
0.0117081
0.0140009
0.0161209
0.020026
0.0221511
0.0301308
0.0303987
0.048476
0.0412225
0.00802618
0.000977603
0.00168676
0.00122547
0.0013191
0.00111808
0.00108138
0.00097746
0.000950972
0.000923398
0.000924747
0.000886965
0.000779287
0.000565309
0.000337303
0.000341589
0.000564314
0.000699178
0.000709321
0.000977915
0.00196342
0.00317217
0.00436383
0.00538018
0.00614231
0.00662273
0.00681594
0.00671954
0.00636079
0.00574578
0.00490343
0.00387302
0.00271321
0.00193849
0.00240507
0.00292197
0.00332334
0.00356677
0.00365597
0.00362327
0.0035166
0.00338399
0.00326661
0.0031973
0.00320203
0.0032978
0.00349826
0.00380806
0.00424704
0.00480417
0.00553856
0.00637668
0.00752975
0.00865555
0.0105638
0.0118221
0.0155503
0.0163006
0.0242115
0.0260625
0.00677225
0.00107408
0.0012665
0.000918123
0.000939028
0.000798256
0.000762979
0.000694169
0.00067507
0.000657832
0.00065615
0.000628332
0.00055677
0.000425911
0.000300564
0.000339674
0.000500151
0.000621914
0.000712369
0.0010344
0.00174328
0.00250919
0.00319012
0.00372136
0.00409279
0.00432076
0.00442938
0.00444391
0.00437705
0.00421837
0.003962
0.00359197
0.00304996
0.00247786
0.00235947
0.00230914
0.00228598
0.00226402
0.00222671
0.00216757
0.00209052
0.0020109
0.001946
0.00191113
0.00191872
0.00197693
0.00209216
0.00226707
0.00251047
0.00281864
0.00321816
0.00368089
0.00429853
0.004935
0.00593189
0.00671031
0.00856734
0.00929254
0.0129146
0.0187962
0.0060912
0.00123499
0.00103294
0.000728686
0.000700229
0.000592861
0.000559289
0.000512503
0.000499892
0.000490856
0.000490402
0.000472769
0.000428929
0.000354474
0.00029453
0.000349253
0.000478725
0.000610586
0.000770984
0.0011248
0.00168606
0.00224084
0.00271291
0.00308814
0.00338362
0.00362441
0.00383408
0.00402597
0.00417535
0.00425921
0.00425119
0.00411384
0.00374291
0.00317673
0.00272575
0.00232251
0.00200076
0.0017629
0.00159516
0.00147488
0.00138017
0.00130535
0.00125175
0.00122307
0.0012232
0.00125484
0.00132051
0.00142118
0.00156051
0.00173754
0.00196461
0.00223196
0.00258028
0.00295748
0.00350895
0.00400471
0.00498459
0.00556345
0.00728391
0.0150487
0.00576589
0.00145075
0.000926156
0.000619181
0.000551459
0.000460701
0.000427868
0.000395083
0.000388088
0.000386033
0.000389336
0.000382146
0.000360938
0.000326469
0.000309116
0.000371867
0.000490934
0.000646121
0.000867815
0.00124719
0.00174117
0.00221821
0.00264874
0.00304367
0.00342123
0.00379278
0.00416522
0.00450848
0.00478696
0.0049716
0.00503055
0.00492386
0.00454599
0.00394547
0.00331645
0.00269225
0.00214345
0.00170779
0.00139409
0.00118287
0.00103889
0.000941033
0.000877399
0.000841715
0.000830867
0.000843174
0.000878426
0.000936061
0.00101706
0.00112127
0.00125454
0.00141428
0.00161895
0.00185036
0.00217062
0.00249245
0.0030376
0.00346556
0.00431173
0.013016
0.00565583
0.00171003
0.000911574
0.000567684
0.000462986
0.000377462
0.000343801
0.000319857
0.000317747
0.000322064
0.000330781
0.000334265
0.000332284
0.000327173
0.000338457
0.00040763
0.000529868
0.000715641
0.00099202
0.00139994
0.00188279
0.00236985
0.00286306
0.00337712
0.00390941
0.00444085
0.00495224
0.00537962
0.00570052
0.00589091
0.00592507
0.00576964
0.00534094
0.00470803
0.0039851
0.00323121
0.00252169
0.00191596
0.00145107
0.00112737
0.000910121
0.000768976
0.000680811
0.000629764
0.000605786
0.000602836
0.000618116
0.00064949
0.000696281
0.000758258
0.000838151
0.00093587
0.00106002
0.00120559
0.00139918
0.00161087
0.00192911
0.00223371
0.00266613
0.0118777
0.00567221
0.00200062
0.00096766
0.000562015
0.000417365
0.000328513
0.000292085
0.000273439
0.00027561
0.000286053
0.000301343
0.00031563
0.000330343
0.000347461
0.00037906
0.000455725
0.000589977
0.000809778
0.00113656
0.00158116
0.00209573
0.00265555
0.00327896
0.00396281
0.00466504
0.00533039
0.0059182
0.00636289
0.00666311
0.00680638
0.00677685
0.00654863
0.00607211
0.00541465
0.00464292
0.00381687
0.003004
0.00226889
0.0016669
0.00122329
0.000916831
0.000716709
0.000592283
0.000518916
0.000479414
0.000462953
0.000463835
0.000478193
0.000504008
0.000540575
0.000588935
0.00064962
0.000726703
0.000819938
0.00094072
0.0010813
0.00127508
0.00148756
0.00171897
0.0112301
0.00575883
0.00230982
0.00108045
0.000594388
0.000404485
0.000305
0.000263538
0.000247522
0.000253422
0.000269933
0.000292615
0.000317695
0.000347066
0.000381591
0.00042878
0.00051482
0.000666638
0.000921618
0.00129686
0.00178908
0.0023703
0.00304995
0.00384511
0.00471291
0.0055631
0.00631464
0.00691866
0.00733241
0.00757292
0.00764021
0.00752876
0.00722116
0.00670826
0.00603492
0.00524336
0.00438273
0.00350906
0.00268457
0.00197221
0.00141635
0.00101506
0.000745546
0.00057536
0.000473327
0.000415386
0.000385544
0.00037475
0.000377171
0.00038945
0.000410182
0.000439322
0.00047728
0.000525917
0.000586387
0.000663555
0.000757586
0.000879749
0.00102651
0.00115758
0.0108618
0.00588028
0.00262511
0.0012389
0.000659996
0.000418859
0.000301675
0.000252534
0.000236882
0.000245929
0.000268501
0.000299139
0.000334875
0.000377239
0.000426011
0.000486294
0.000583463
0.000756139
0.00104631
0.00147028
0.00202281
0.00270072
0.00353533
0.00452149
0.00556077
0.00652105
0.00731367
0.0078889
0.00823863
0.00839304
0.00836452
0.00815855
0.00777169
0.00722943
0.00655001
0.00576091
0.0048947
0.00399313
0.00311245
0.00231807
0.00166664
0.00117452
0.000831487
0.000609006
0.000472862
0.000393321
0.000349203
0.000327746
0.000320902
0.000323851
0.000334324
0.000351426
0.000375158
0.000406167
0.000445754
0.000495891
0.000559147
0.000638253
0.000739262
0.000818713
0.0106568
0.00601475
0.00293501
0.00143282
0.000755466
0.00045774
0.000315654
0.00025571
0.00023825
0.000249748
0.000278332
0.000317297
0.000363495
0.000417575
0.00047869
0.000550871
0.00066043
0.000855295
0.00118089
0.001656
0.00228285
0.00308354
0.00409621
0.00527305
0.00645679
0.00748878
0.00828715
0.00880008
0.00906091
0.00910859
0.00896808
0.00865677
0.00819455
0.00762554
0.00694874
0.00618009
0.00533313
0.00443224
0.00352399
0.00267326
0.00194521
0.00137208
0.000957081
0.000679259
0.000505034
0.000400947
0.00034115
0.000309046
0.000294186
0.000290138
0.000293639
0.000303006
0.000317724
0.000337652
0.000363813
0.000396793
0.000439586
0.000491824
0.000561466
0.00061347
0.0105487
0.00614937
0.00322995
0.00165208
0.000878375
0.000519216
0.000345699
0.000271228
0.000249653
0.000262716
0.000297161
0.000344689
0.000401207
0.000466186
0.000538689
0.000622299
0.000745007
0.000962543
0.0013242
0.00185484
0.00257063
0.00351525
0.00471614
0.00606893
0.00736589
0.00843597
0.00920728
0.00963701
0.00978891
0.0097129
0.00944686
0.00902133
0.00849104
0.00789382
0.0072258
0.00649151
0.00568518
0.00481116
0.00390202
0.00301875
0.00223261
0.00159045
0.00110868
0.000775615
0.000561117
0.000430164
0.000353195
0.000309942
0.000287488
0.000277673
0.000276133
0.000280396
0.000289388
0.000302352
0.000319925
0.000341905
0.000371122
0.00040614
0.000454544
0.000491465
0.0104984
0.00627711
0.0035028
0.00188647
0.00102588
0.000601856
0.00039182
0.000298329
0.000270029
0.000283508
0.000323512
0.000379773
0.000446636
0.000522212
0.000605853
0.000700859
0.00083714
0.00107755
0.0014766
0.00206875
0.00288748
0.00399045
0.0053774
0.00688328
0.00826331
0.00934335
0.010061
0.0103904
0.0104171
0.0102037
0.00980151
0.00926
0.00866384
0.008037
0.00738101
0.00669075
0.00594248
0.00511893
0.00423455
0.00334202
0.00251602
0.00181739
0.0012758
0.000889776
0.000634443
0.000475122
0.000379679
0.00032458
0.000294502
0.000279497
0.000274033
0.000274821
0.000280212
0.000288894
0.000301122
0.000316125
0.000336484
0.000360341
0.00039462
0.000423027
0.0104826
0.00639463
0.00374906
0.00212608
0.00119423
0.000704802
0.000454071
0.000337071
0.000298988
0.000311405
0.000356477
0.00042161
0.000499096
0.00058551
0.000680588
0.000787289
0.000937452
0.00120099
0.00163955
0.00229998
0.00323341
0.00450114
0.00606222
0.00769514
0.00913089
0.0101973
0.0108399
0.0110541
0.0109429
0.0105821
0.0100363
0.00938463
0.00872057
0.00806233
0.00741878
0.00677793
0.00610061
0.00534777
0.00451228
0.00363366
0.0027864
0.00204427
0.00145072
0.0010153
0.000719779
0.000531358
0.000416458
0.000348816
0.000310858
0.000290864
0.000282092
0.000280415
0.000283597
0.000289798
0.000298918
0.000309691
0.000324525
0.00034123
0.000366446
0.00039
0.0104869
0.00650083
0.00396666
0.00236186
0.00137854
0.000827055
0.000532361
0.000388184
0.000336678
0.000346145
0.000395547
0.000469676
0.000558356
0.000656394
0.000763671
0.000882702
0.00104713
0.00133428
0.00181501
0.00255029
0.00360642
0.0050373
0.00675404
0.00848757
0.00995476
0.0109875
0.0115376
0.0116248
0.0113661
0.0108513
0.0101604
0.00940793
0.00867229
0.00798058
0.00734764
0.00675756
0.00615914
0.00549293
0.00472803
0.00388591
0.0030366
0.00226472
0.00162774
0.00114731
0.000813088
0.000595452
0.000460433
0.000379636
0.000333451
0.000308448
0.000296669
0.000293131
0.000295015
0.000299958
0.000307552
0.000316035
0.000327771
0.000340112
0.000359957
0.000380817
0.0105025
0.00659588
0.0041556
0.00258618
0.00157296
0.000966899
0.000626674
0.000452462
0.000383702
0.000387843
0.000440516
0.000523709
0.000624422
0.000735425
0.000856088
0.00098846
0.00116775
0.00147919
0.00200483
0.00282025
0.00400242
0.00558784
0.00743808
0.0092469
0.010724
0.0117059
0.0121493
0.0121006
0.0116885
0.0110168
0.0101897
0.00934034
0.0085321
0.00780511
0.0071795
0.00663805
0.00612155
0.0055529
0.00487679
0.00409238
0.00326054
0.00247352
0.00180248
0.00128213
0.000911319
0.000664836
0.000509319
0.000414879
0.000360075
0.000329914
0.000315216
0.000310143
0.000311296
0.000315802
0.000322985
0.000330575
0.000341025
0.000351023
0.000368276
0.000387794
0.0105238
0.00668059
0.00431737
0.00279322
0.00177102
0.00112164
0.000736894
0.000530335
0.00044109
0.000436938
0.000491413
0.000583595
0.000697368
0.00082324
0.000958868
0.00110601
0.00130099
0.00163742
0.00221027
0.00310897
0.00441556
0.00614156
0.00810156
0.00996203
0.0114299
0.0123465
0.0126719
0.0124812
0.0119129
0.011086
0.0101399
0.00919369
0.00831404
0.0075509
0.00692878
0.00643122
0.00599499
0.00552944
0.00495593
0.0042481
0.00345298
0.00266617
0.00197131
0.00141688
0.00101216
0.000737612
0.000561473
0.000453024
0.000389207
0.000353653
0.000335977
0.000329487
0.000330216
0.000334798
0.000342328
0.000350025
0.000360548
0.000369708
0.000386518
0.000405599
0.0105474
0.00675599
0.00445448
0.00297913
0.00196619
0.00128752
0.000862259
0.000622154
0.000509905
0.000494188
0.000548472
0.000649302
0.000777214
0.000920416
0.00107293
0.00123672
0.00144842
0.0018103
0.00243165
0.00341405
0.00483891
0.00668778
0.00873363
0.0106239
0.0120656
0.0129043
0.0131035
0.0127676
0.0120431
0.011075
0.0100194
0.00897992
0.00803226
0.00723352
0.00661146
0.00615141
0.00578987
0.00542757
0.0049654
0.00434977
0.00360953
0.00283863
0.00213103
0.00154913
0.00111377
0.000812362
0.000615731
0.000493009
0.000419832
0.000378604
0.000357784
0.000349837
0.000350243
0.000355161
0.000363506
0.00037199
0.000383582
0.000393031
0.000411077
0.000430358
0.0105712
0.00682316
0.00456996
0.00314195
0.00215238
0.00145985
0.00100112
0.000728055
0.000590934
0.000560658
0.00061214
0.000720848
0.000863838
0.00102675
0.00119892
0.00138169
0.00161131
0.00199857
0.00266827
0.00373191
0.00526503
0.0072168
0.00932523
0.0112253
0.0126255
0.0133755
0.013443
0.012961
0.0120866
0.0109971
0.00983715
0.00871044
0.00770023
0.00686832
0.006244
0.00581453
0.00551911
0.00525525
0.00490777
0.00439594
0.00372686
0.00298739
0.00227873
0.00167672
0.00121461
0.000887971
0.000671251
0.00053413
0.000451303
0.000404103
0.000379899
0.000370337
0.000370355
0.000375671
0.000385049
0.000394731
0.00040807
0.000418627
0.000439195
0.000459142
0.0105941
0.0068831
0.00466698
0.00328139
0.0023245
0.0016333
0.00115084
0.000847568
0.000684747
0.000637528
0.000683095
0.000798316
0.000956966
0.00114195
0.00133713
0.00154165
0.00179049
0.00220234
0.00291853
0.00405815
0.00568659
0.00772014
0.00986894
0.0117603
0.0131054
0.0137567
0.01369
0.0130636
0.0120583
0.0108581
0.0096014
0.00839568
0.00733031
0.00646962
0.00584241
0.00543705
0.00519738
0.00502291
0.00478811
0.00438715
0.00380284
0.00310951
0.00241178
0.00179764
0.00131329
0.000963495
0.000727384
0.000575904
0.000483214
0.000429754
0.000401886
0.000390467
0.000389911
0.000395525
0.000405953
0.000417011
0.00043249
0.000444711
0.000468718
0.000489677
0.0106153
0.00693666
0.00474864
0.00339851
0.00247876
0.00180234
0.00130776
0.000979415
0.000791513
0.000725768
0.0007624
0.000881888
0.00105619
0.00126537
0.00148732
0.00171681
0.00198632
0.00242115
0.00318022
0.00438807
0.00609683
0.00819064
0.0103588
0.0122241
0.0135018
0.0140445
0.0138446
0.0130854
0.0119654
0.0106642
0.00931992
0.0080449
0.00693341
0.00605021
0.00542141
0.00503494
0.00484007
0.0047428
0.00461374
0.00432593
0.0038367
0.00320278
0.00252785
0.00191005
0.00140849
0.00103807
0.000783579
0.00061797
0.000515302
0.000455328
0.000423506
0.00040994
0.000408541
0.000414236
0.00042557
0.000437994
0.000455754
0.000469958
0.000497972
0.000520189
0.0106345
0.0069846
0.00481771
0.00349528
0.00261287
0.00196171
0.00146739
0.00112137
0.000910779
0.000825842
0.000851515
0.000971934
0.00116101
0.00139597
0.00164871
0.00190678
0.00219869
0.00265418
0.00345083
0.00471719
0.00649
0.0086226
0.0107902
0.0126132
0.013812
0.0142384
0.0139113
0.0130353
0.0118128
0.010421
0.0089996
0.00766618
0.00651893
0.00562111
0.00499389
0.00462283
0.00446231
0.0044282
0.00439377
0.00421666
0.00382904
0.00326581
0.002625
0.00201221
0.00149895
0.00111088
0.000839323
0.000660016
0.000547375
0.000480693
0.000444639
0.000428616
0.000426056
0.000431537
0.000443517
0.00045715
0.000477126
0.000493429
0.000525689
0.000549324
0.0106516
0.00702752
0.00487664
0.00357425
0.00272599
0.0021069
0.00162471
0.00127022
0.00104129
0.000937751
0.000950962
0.00106998
0.00127098
0.00153237
0.00181996
0.00211047
0.00242702
0.00290047
0.00372804
0.00504171
0.00686165
0.0090118
0.0111599
0.0129243
0.0140336
0.0143395
0.0138977
0.0129186
0.0116055
0.0101341
0.00864661
0.00726652
0.00609484
0.00519147
0.00457058
0.00421336
0.00407816
0.00409257
0.00413857
0.00406534
0.00378188
0.0032981
0.00270174
0.00210262
0.0015835
0.0011811
0.000894112
0.000701747
0.000579267
0.000505755
0.000465225
0.000446443
0.000442386
0.000447317
0.00045961
0.000474191
0.000496156
0.000514508
0.000550966
0.000576098
0.0106666
0.00706594
0.00492744
0.00363819
0.00281858
0.00223448
0.00177458
0.00142188
0.00118085
0.00106084
0.00106092
0.00117648
0.00138717
0.00167296
0.00199854
0.00232601
0.00267025
0.00315909
0.00401002
0.00535899
0.00720898
0.00935567
0.0114657
0.013155
0.0141625
0.0143538
0.0138097
0.0127403
0.0113483
0.00980834
0.00826642
0.00685198
0.00566783
0.0047687
0.00416
0.00381682
0.0036998
0.00374876
0.00385915
0.00387927
0.00369849
0.00330009
0.00275713
0.00217998
0.00166102
0.00124794
0.000947433
0.000742857
0.000610811
0.000530432
0.000485232
0.000463413
0.000457529
0.00046156
0.000473798
0.000489001
0.000512616
0.000532836
0.000573215
0.000599852
0.0106797
0.00710031
0.00497174
0.00368986
0.00289214
0.00234237
0.00191223
0.00157158
0.00132629
0.00119364
0.00118105
0.00129142
0.00150968
0.00181781
0.00218078
0.00255067
0.00292663
0.00342928
0.00429583
0.00566798
0.00753115
0.00965348
0.0116988
0.0133007
0.0142042
0.014288
0.013653
0.0125054
0.0110458
0.00944849
0.007864
0.0064279
0.00524353
0.00435865
0.00376858
0.003441
0.00333714
0.00340825
0.00356644
0.00366659
0.00358329
0.00327313
0.00279078
0.0022433
0.00173051
0.00131064
0.000998766
0.000783024
0.000641822
0.000554633
0.000504629
0.000479536
0.000471522
0.000474313
0.000486121
0.000501586
0.000526446
0.000548262
0.000592115
0.000620202
0.0106909
0.00713102
0.00501084
0.00373182
0.00294887
0.00242981
0.00203365
0.00171428
0.00147353
0.0013337
0.00131031
0.00141442
0.00163794
0.00196641
0.00236539
0.00278083
0.00319343
0.00371039
0.0045856
0.00596966
0.00782086
0.00989497
0.0118599
0.0133657
0.0141646
0.0141487
0.0134334
0.0122188
0.0107026
0.00905896
0.00744393
0.00599906
0.00482668
0.00396588
0.00340092
0.0030914
0.00299763
0.00308066
0.00327072
0.0034358
0.00344152
0.00321939
0.0028029
0.00229191
0.00179113
0.00136847
0.00104759
0.000821908
0.000672099
0.00057825
0.000523378
0.000494823
0.000484414
0.000485656
0.000496674
0.000512039
0.000537706
0.000560787
0.000607561
0.000636989
0.0107006
0.0071584
0.0050457
0.00376633
0.00299138
0.00249734
0.00213596
0.00184506
0.00161782
0.00147764
0.00144678
0.00154453
0.00177106
0.00211712
0.00255068
0.00301419
0.00346735
0.00400169
0.00487858
0.00625473
0.00807273
0.01008
0.0119518
0.0133551
0.0140497
0.0139421
0.0131566
0.0118857
0.0103232
0.00864399
0.00701055
0.00556986
0.00442135
0.00359386
0.0030601
0.00277145
0.0026863
0.00277346
0.00298105
0.00319529
0.00327902
0.00314179
0.00279426
0.00232547
0.00184219
0.00142079
0.00109341
0.000859162
0.000701419
0.000601157
0.000541422
0.000509276
0.000496256
0.00049568
0.000505582
0.000520502
0.000546539
0.000570526
0.00061961
0.000650225
0.0107088
0.00718278
0.00507708
0.00379525
0.00302241
0.00254651
0.00221758
0.00195962
0.00175404
0.00162114
0.00158757
0.00168008
0.00190779
0.00226818
0.0027336
0.00324587
0.00374503
0.00429947
0.00516898
0.00652017
0.00828556
0.01021
0.0119784
0.0132745
0.0138658
0.0136749
0.0128284
0.0115108
0.00991181
0.0082077
0.00656802
0.00514435
0.00403102
0.00324518
0.00274794
0.00248295
0.00240608
0.00249188
0.00270492
0.00295289
0.00310185
0.0030438
0.00276616
0.00234402
0.00188322
0.00146702
0.00113575
0.000894438
0.00072955
0.000623212
0.000558692
0.000522885
0.000507096
0.000504481
0.000512986
0.000527145
0.00055314
0.000577668
0.000628438
0.000660056
0.0107157
0.00720444
0.0051055
0.00382011
0.00304461
0.00257961
0.00227834
0.00205465
0.00187717
0.00175928
0.00172886
0.00181854
0.00204634
0.00241758
0.002911
0.00347057
0.00402052
0.00459914
0.00545417
0.00676444
0.00845982
0.0102877
0.0119446
0.0131301
0.0136197
0.0133537
0.0124546
0.0110992
0.0094728
0.00775412
0.00612045
0.00472636
0.00365867
0.00292166
0.00246532
0.00222636
0.00215815
0.00223911
0.00244807
0.00271549
0.002916
0.00292928
0.00272036
0.00234793
0.00191394
0.0015067
0.00117417
0.000927398
0.000756256
0.00064426
0.000575106
0.00053563
0.000516967
0.000512147
0.000519027
0.000532154
0.000557733
0.00058245
0.000634301
0.000666716
0.0107215
0.00722366
0.00513138
0.00384205
0.00306034
0.00259941
0.00231925
0.00212813
0.00198275
0.00188679
0.00186598
0.00195646
0.00218421
0.00256302
0.00307972
0.0036834
0.00428734
0.0048955
0.00573181
0.00698725
0.00859744
0.0103173
0.0118562
0.0129291
0.0133189
0.0129854
0.0120412
0.0106558
0.00901033
0.00728728
0.00567186
0.00431946
0.0033068
0.00262452
0.00221235
0.00200126
0.00194235
0.00201659
0.00221444
0.00248881
0.00272711
0.00280229
0.00265901
0.00233792
0.00193429
0.00153951
0.0012083
0.000957728
0.000781317
0.000664143
0.00059057
0.00054748
0.000525898
0.000518763
0.000523842
0.000535715
0.000560552
0.000585135
0.000637506
0.000670499
0.0107264
0.00724069
0.00515502
0.00386191
0.00307167
0.00260878
0.00234235
0.00217946
0.0020673
0.00199858
0.00199374
0.00208953
0.00231818
0.00270176
0.00323651
0.00387949
0.0045386
0.00518252
0.00599944
0.00718917
0.00870146
0.0103038
0.0117195
0.0126786
0.0129727
0.0125768
0.011594
0.0101853
0.00852847
0.00681121
0.00522626
0.00392698
0.00297744
0.0023544
0.00198861
0.00180656
0.00175765
0.00182437
0.00200635
0.00227727
0.00254021
0.00266687
0.00258452
0.00231501
0.00194445
0.00156522
0.00123784
0.000985142
0.000804491
0.000682704
0.000604989
0.000558397
0.000533906
0.000524399
0.000527559
0.000538006
0.000561834
0.000585994
0.00063838
0.000671735
0.0107304
0.00725576
0.00517665
0.0038803
0.00308023
0.00261055
0.0023504
0.00220942
0.00212866
0.0020902
0.00210677
0.00221276
0.00244422
0.00283057
0.00337798
0.00405405
0.00476719
0.00545324
0.00625399
0.00737108
0.00877562
0.010253
0.0115417
0.0123863
0.0125886
0.0121348
0.0111185
0.00969212
0.00803121
0.00632995
0.00478756
0.00355192
0.00267214
0.00211149
0.00179326
0.00164082
0.00160242
0.00166154
0.00182475
0.00208398
0.00235958
0.00252689
0.00249946
0.00228043
0.00194477
0.00158377
0.00126255
0.0010094
0.000825558
0.000699789
0.000618269
0.00056834
0.000541004
0.000529122
0.000530298
0.000539199
0.000561803
0.000585297
0.000637261
0.000670764
0.0107338
0.0072691
0.00519645
0.0038976
0.0030873
0.00260724
0.00234651
0.00221998
0.0021662
0.00215827
0.00220005
0.00232084
0.0025577
0.00294565
0.00350062
0.00420248
0.00496599
0.00569972
0.00649125
0.00753353
0.00882382
0.0101708
0.0113299
0.0120599
0.0121738
0.0116659
0.01062
0.00918052
0.00752243
0.00584757
0.00435958
0.00319692
0.00239201
0.00189557
0.00162522
0.00150239
0.00147479
0.00152657
0.0016695
0.00191087
0.00218864
0.00238593
0.00240646
0.00223565
0.00193583
0.00159522
0.0012823
0.0010303
0.00084434
0.000715261
0.00063032
0.00057727
0.000547203
0.00053299
0.000532166
0.000539449
0.000560674
0.000583301
0.000634475
0.000667928
0.0107365
0.0072809
0.00521458
0.00391404
0.00309378
0.00260101
0.00233385
0.002214
0.00218077
0.0022009
0.00226942
0.00240857
0.0026536
0.00304278
0.00360068
0.0043204
0.00512815
0.00591328
0.00670546
0.00767605
0.0088495
0.0100631
0.0110912
0.0117068
0.0117354
0.011176
0.0101031
0.00865429
0.00700591
0.00536816
0.00394593
0.00286422
0.0021377
0.00170612
0.00148322
0.00138959
0.00137282
0.00141763
0.00153974
0.00175885
0.00202999
0.00224713
0.00230809
0.00218225
0.00191833
0.00159976
0.00129703
0.00104772
0.000860693
0.000729002
0.000641066
0.000585154
0.000552512
0.000536057
0.000533262
0.000538902
0.000558641
0.000580249
0.000630335
0.000663557
0.0107388
0.00729134
0.00523118
0.00392977
0.00310029
0.0025936
0.00231544
0.00219489
0.00217456
0.00221779
0.00231201
0.0024714
0.00272691
0.00311745
0.00367434
0.00440376
0.00524739
0.00608485
0.00688917
0.00779647
0.00885496
0.00993481
0.010832
0.0113335
0.0112795
0.0106701
0.00957181
0.00811682
0.00648538
0.00489578
0.00355001
0.00255562
0.00190944
0.00154235
0.00136595
0.0013008
0.00129465
0.00133283
0.00143415
0.00162804
0.00188544
0.00211314
0.00220683
0.00212188
0.00189316
0.00159772
0.00130678
0.00106157
0.000874511
0.000740917
0.000650445
0.000591966
0.000556944
0.000538374
0.000533677
0.000537689
0.000555886
0.000576363
0.000625128
0.000657962
0.0107407
0.00730061
0.00524637
0.00394484
0.00310719
0.00258629
0.00229393
0.00216625
0.00215079
0.00221029
0.0023266
0.00250593
0.00277317
0.00316524
0.00371781
0.00444888
0.0053182
0.00620547
0.00703329
0.00789044
0.00884068
0.00978962
0.0105575
0.0109454
0.0108109
0.0101521
0.00902907
0.00757111
0.00596454
0.0044345
0.00317486
0.00227242
0.00170711
0.00140333
0.00127212
0.00123454
0.00123864
0.00127036
0.00135118
0.00151801
0.0017561
0.00198616
0.00210491
0.00205623
0.00186126
0.00158953
0.00131167
0.00107183
0.000885731
0.000750942
0.000658411
0.000597692
0.000560517
0.000539992
0.000533497
0.00053593
0.000552569
0.000571845
0.000619118
0.000651428
0.0107422
0.00730884
0.00526028
0.00395927
0.00311465
0.00258
0.0022715
0.00213154
0.00211331
0.00218118
0.00231376
0.00251038
0.00278895
0.00318227
0.0037276
0.00445268
0.00533619
0.00626695
0.00712756
0.00795111
0.0088047
0.00962899
0.0102711
0.0105459
0.0103331
0.00962472
0.00847707
0.00701983
0.0054472
0.00398828
0.00282311
0.00201546
0.00153028
0.00128805
0.00120051
0.00118953
0.0012034
0.00122868
0.00128941
0.00142797
0.00164254
0.00186786
0.00200436
0.00198694
0.00182368
0.00157572
0.0013119
0.00107855
0.000894333
0.000759042
0.000664943
0.000602332
0.000563257
0.000540963
0.000532803
0.000533735
0.000548836
0.000566876
0.000612542
0.000644218
0.0107434
0.00731617
0.00527301
0.00397307
0.0031227
0.00257527
0.00224983
0.00209389
0.00206621
0.00213429
0.0022758
0.00248479
0.00277237
0.00316565
0.00370093
0.00441285
0.00529831
0.00626252
0.00716137
0.00796926
0.00874223
0.00945177
0.00997349
0.0101366
0.00984753
0.0090889
0.00791713
0.00646554
0.00493728
0.00356095
0.00249695
0.00178514
0.00137829
0.00119545
0.00115006
0.00116477
0.00118787
0.00120653
0.00124734
0.001357
0.00154492
0.0017595
0.00190691
0.00191558
0.00178151
0.00155688
0.00130777
0.00108184
0.000900343
0.000765216
0.000670041
0.000605899
0.000565198
0.000541343
0.000531671
0.000531206
0.000544818
0.000561618
0.000605607
0.000636564
0.0107444
0.00732272
0.00528468
0.00398623
0.0031313
0.00257237
0.00223014
0.00205589
0.00201345
0.00207413
0.00221644
0.00243118
0.00272345
0.00311406
0.00363615
0.00432822
0.00520317
0.00618751
0.00712484
0.0079339
0.00864548
0.00925375
0.00966279
0.00972019
0.00935379
0.00854425
0.00734988
0.00591089
0.00443892
0.0031561
0.00219805
0.00158146
0.00125032
0.00112453
0.00111986
0.00115951
0.00119136
0.00120304
0.00122383
0.00130415
0.0014631
0.00166196
0.00181403
0.00184361
0.00173582
0.00153369
0.00129962
0.00108186
0.000903831
0.000769494
0.000673728
0.000608427
0.000566385
0.000541192
0.000530179
0.000528438
0.000540635
0.000556215
0.0005985
0.000628673
0.0107452
0.00732859
0.00529538
0.00399876
0.00314034
0.00257137
0.00221315
0.00201959
0.00195858
0.00200536
0.00214048
0.00235327
0.00264424
0.00302805
0.00353318
0.00419903
0.00505126
0.00603989
0.00700999
0.00783336
0.0085041
0.0090276
0.00933374
0.00929198
0.00884897
0.00798905
0.00677576
0.00535896
0.00395652
0.00277702
0.00192757
0.00140407
0.00114545
0.00107438
0.00110923
0.00117331
0.00121355
0.00121776
0.0012181
0.00126864
0.00139682
0.00157582
0.00172695
0.00177235
0.00168769
0.00150686
0.00128786
0.00107882
0.00090491
0.000771941
0.000676054
0.000609963
0.000566873
0.000540575
0.000528404
0.00052552
0.000536393
0.000550795
0.00059138
0.000620728
0.0107459
0.00733387
0.00530522
0.00401064
0.00314971
0.00257219
0.00219928
0.0019864
0.00190455
0.00193244
0.00205319
0.00225613
0.00253874
0.00291029
0.00339389
0.00402734
0.00484522
0.00582075
0.00681203
0.00765688
0.00830614
0.0087632
0.00897798
0.00884479
0.00832822
0.00742086
0.00619549
0.00481353
0.00349466
0.00242654
0.00168612
0.00125234
0.00106273
0.0010442
0.00111773
0.00120609
0.00125454
0.00125069
0.00122983
0.00124991
0.00134576
0.00150144
0.00164663
0.00170299
0.00163815
0.0014771
0.00127293
0.00107299
0.000903733
0.000772653
0.000677091
0.000610573
0.000566729
0.000539563
0.000526422
0.000522539
0.00053219
0.000545472
0.00058439
0.000612889
0.0107464
0.00733865
0.00531428
0.0040219
0.00315927
0.00257465
0.00218861
0.00195725
0.00185363
0.00185925
0.00195984
0.00214563
0.00241249
0.00276544
0.00322226
0.00381724
0.00459004
0.00553459
0.00653033
0.00739635
0.00803962
0.00844871
0.00858453
0.00836988
0.00778575
0.00683734
0.00561084
0.00427937
0.00305801
0.00210697
0.00147386
0.00112542
0.0010012
0.00103338
0.00114518
0.00125807
0.00131481
0.00130227
0.0012591
0.00124765
0.00130967
0.00143903
0.00157384
0.00163659
0.00158818
0.00144516
0.00125533
0.00106466
0.000900488
0.000771756
0.000676932
0.000610339
0.000566031
0.000538234
0.000524313
0.000519576
0.000528118
0.000540347
0.00057765
0.000605292
0.0107467
0.007343
0.00532265
0.00403255
0.0031689
0.00257851
0.00218103
0.00193257
0.00180739
0.00178897
0.00186529
0.00202787
0.00227205
0.00259986
0.00302425
0.00357493
0.00429307
0.00518937
0.00616918
0.00704814
0.00769463
0.00807218
0.00814092
0.00785826
0.00721608
0.00623745
0.00502527
0.00376227
0.00265109
0.00181998
0.00129044
0.00102231
0.000959983
0.00104147
0.0011917
0.00132987
0.00139526
0.00137339
0.00130643
0.00126192
0.00128839
0.00138874
0.00150919
0.00157403
0.00153868
0.00141175
0.00123555
0.00105418
0.000895397
0.000769401
0.000675696
0.000609358
0.000564868
0.000536671
0.000522158
0.000516714
0.00052426
0.000535513
0.000571267
0.000598057
0.0107471
0.00734698
0.0053304
0.00404261
0.00317849
0.00258353
0.00217631
0.00191247
0.00176677
0.00172393
0.00177358
0.00190857
0.00212433
0.002421
0.00280749
0.00330853
0.00396391
0.00479635
0.00573806
0.00661455
0.00726561
0.00762385
0.00763949
0.00730279
0.00661572
0.00562261
0.00444448
0.00326889
0.00227803
0.00156655
0.00113513
0.000941908
0.000938292
0.00106827
0.0012577
0.00142241
0.00149713
0.00146529
0.00137275
0.00129307
0.00128196
0.00135069
0.00145318
0.0015161
0.00149048
0.00137759
0.00121413
0.00104189
0.000888707
0.000765766