/*--------------------------------*- C++ -*----------------------------------*\
| =========                 |                                                 |
| \\      /  F ield         | OpenFOAM: The Open Source CFD Toolbox           |
|  \\    /   O peration     | Version:  2.4.0                                 |
|   \\  /    A nd           | Web:      www.OpenFOAM.org                      |
|    \\/     M anipulation  |                                                 |
\*---------------------------------------------------------------------------*/
FoamFile
{
    version     2.0;
    format      ascii;
    class       volScalarField;
    location    "6.98";
    object      epsilon;
}
// * * * * * * * * * * * * * * * * * * * * * * * * * * * * * * * * * * * * * //

dimensions      [0 2 -3 0 0 0 0];

internalField   nonuniform List<scalar> 
6000
(
54.1729
1.09759
0.0202867
0.134488
0.0725458
0.0863242
0.061598
0.0575462
0.0460782
0.0418753
0.0363943
0.0340431
0.0319058
0.031419
0.031503
0.0326589
0.0344892
0.0372066
0.0406898
0.0450601
0.0503065
0.0565041
0.0636605
0.0717933
0.0808638
0.0908082
0.101511
0.112803
0.124439
0.13609
0.147343
0.157701
0.166592
0.173384
0.177404
0.178027
0.174729
0.167114
0.155122
0.138988
0.119654
0.0984292
0.0775689
0.0605462
0.0956585
0.148666
0.223311
0.333494
0.477672
0.692709
0.946197
1.36052
1.76858
2.61753
3.18653
5.17909
5.64014
11.2893
10.2677
28.8505
17.7229
0.975469
0.0253667
0.0742223
0.0418217
0.0473841
0.034369
0.0316149
0.0254761
0.0229788
0.0199892
0.0185835
0.0173547
0.0169595
0.0168759
0.0173186
0.0180916
0.0192759
0.0208045
0.0227169
0.0249959
0.0276605
0.0307026
0.034119
0.0378857
0.0419722
0.0463314
0.0509003
0.055591
0.0602904
0.0648589
0.0691308
0.072915
0.0759925
0.0781374
0.0791187
0.0787271
0.0767736
0.073158
0.0678521
0.0610628
0.0531359
0.044862
0.0382064
0.0557002
0.0804793
0.113484
0.159618
0.217914
0.301213
0.398474
0.550678
0.704767
1.00405
1.22729
1.90272
2.14225
3.98243
3.90783
9.71604
7.13598
0.711154
0.0303054
0.0435434
0.0252883
0.0273064
0.0200724
0.0181982
0.0147515
0.0132234
0.0115278
0.0106777
0.0099653
0.00970103
0.00962206
0.00982378
0.0102065
0.010803
0.0115776
0.0125446
0.0136931
0.0150287
0.0165454
0.01824
0.0201012
0.0221158
0.0242648
0.0265235
0.0288581
0.0312256
0.0335729
0.0358368
0.0379431
0.0398036
0.04133
0.0424155
0.0429572
0.0428491
0.0420069
0.0403613
0.0379335
0.0348102
0.0313163
0.0287403
0.038974
0.0527832
0.0702638
0.0933323
0.121355
0.159333
0.203001
0.267692
0.334796
0.455246
0.554734
0.813626
0.941173
1.61394
1.69859
3.72204
3.42004
0.518234
0.0345345
0.027455
0.0160621
0.0164809
0.0122281
0.0109299
0.00890707
0.00794669
0.00695417
0.00643776
0.00602739
0.00587341
0.00583844
0.00596616
0.00620467
0.00656807
0.00703813
0.00762098
0.00831129
0.00911163
0.0100194
0.0110332
0.0121482
0.0133587
0.0146566
0.0160309
0.0174667
0.0189447
0.0204408
0.0219262
0.0233649
0.0247204
0.0259471
0.0269885
0.0277896
0.02829
0.028435
0.0281725
0.0274897
0.0264039
0.0250611
0.0243597
0.0310829
0.039864
0.0505857
0.0641015
0.0800547
0.100621
0.123976
0.156484
0.190926
0.247322
0.298362
0.411676
0.483918
0.760375
0.847393
1.62993
1.89782
0.395525
0.0386493
0.01904
0.010789
0.010425
0.00776191
0.00683499
0.00559489
0.00497583
0.00438057
0.00406898
0.00383983
0.003767
0.00377593
0.00388718
0.00407319
0.00434076
0.00468089
0.00509709
0.00558736
0.00615358
0.00679501
0.00751132
0.00830032
0.00915932
0.0100843
0.0110696
0.0121075
0.0131881
0.0142992
0.0154261
0.01655
0.0176589
0.0187237
0.0197151
0.020603
0.0213532
0.0219319
0.0223029
0.0224469
0.0223561
0.0220971
0.0223245
0.0271657
0.0333265
0.0406429
0.0495361
0.0598484
0.0726294
0.0871178
0.106185
0.126927
0.157848
0.188335
0.245783
0.291109
0.420241
0.487486
0.826564
1.19136
0.318419
0.0429752
0.0149622
0.0077691
0.00694086
0.00514138
0.0044501
0.00365396
0.00324453
0.0028812
0.00269766
0.0025795
0.00256293
0.00260585
0.00271831
0.0028855
0.0031114
0.00339193
0.00372975
0.00412463
0.00457827
0.00509084
0.0056625
0.00629234
0.00697914
0.00772094
0.00851505
0.00935763
0.0102439
0.0111682
0.0121234
0.0131015
0.014098
0.0150946
0.0160748
0.0170205
0.0179099
0.0187197
0.0194231
0.0200006
0.0204365
0.0207618
0.0214756
0.025224
0.0298863
0.0352952
0.0416649
0.0489483
0.0576889
0.0676292
0.0801394
0.0941675
0.113467
0.134103
0.16754
0.199167
0.267963
0.318989
0.484319
0.829186
0.268834
0.0475661
0.0135339
0.00612332
0.00490735
0.00357008
0.00302335
0.00248444
0.00220548
0.00198106
0.00187855
0.00182926
0.00185038
0.00191714
0.00203481
0.00219556
0.00240232
0.00265376
0.00295226
0.0032986
0.00369447
0.00414062
0.00463768
0.0051857
0.00578465
0.00643421
0.00713377
0.00788218
0.00867787
0.00951872
0.0104014
0.0113245
0.012283
0.0132653
0.0142606
0.0152562
0.0162361
0.0171831
0.0180765
0.0188995
0.0196355
0.0202968
0.0212801
0.0243464
0.0280808
0.032328
0.0371923
0.0426796
0.0490807
0.0563708
0.0652209
0.0754047
0.0885741
0.103659
0.125313
0.149066
0.190198
0.23018
0.31946
0.628421
0.235882
0.0523296
0.01384
0.00540396
0.00373669
0.00262029
0.00215384
0.00176448
0.00156669
0.00142675
0.00137577
0.00136962
0.0014156
0.00149863
0.00162181
0.00178133
0.00197975
0.00221733
0.00249647
0.00281859
0.00318554
0.00359861
0.00405903
0.00456775
0.0051258
0.00573414
0.00639362
0.0071047
0.0078675
0.00868164
0.00954574
0.0104597
0.011418
0.0124125
0.013435
0.0144754
0.0155211
0.0165587
0.0175719
0.0185477
0.0194676
0.0203361
0.0214756
0.0240883
0.0272066
0.030693
0.0345908
0.03893
0.0438658
0.0494757
0.0560833
0.0638196
0.0733634
0.0848691
0.0999704
0.118488
0.145385
0.177399
0.229567
0.510222
0.213249
0.0571103
0.0153568
0.00536336
0.00311828
0.00205744
0.0016216
0.00131598
0.0011673
0.0010788
0.00106051
0.00108166
0.00114431
0.00123889
0.00136757
0.00152887
0.00172531
0.00195814
0.00222988
0.00254246
0.00289804
0.00329848
0.00374559
0.0042411
0.00478686
0.00538467
0.00603618
0.00674268
0.00750502
0.00832349
0.00919747
0.0101257
0.0111032
0.0121236
0.0131796
0.0142628
0.0153624
0.0164676
0.0175655
0.0186461
0.0196851
0.0206899
0.021922
0.0242166
0.0269009
0.0298569
0.0330935
0.0366512
0.0406091
0.0450868
0.0502275
0.0563052
0.0635342
0.0725548
0.0836529
0.0983605
0.117159
0.142992
0.175414
0.437373
0.197245
0.0617375
0.0177419
0.005868
0.00289271
0.00175268
0.00130395
0.00103836
0.000916642
0.000858623
0.000860839
0.000899622
0.000974009
0.00107765
0.00121223
0.0013777
0.00157665
0.00181097
0.00208341
0.00239635
0.00275233
0.0031537
0.00360281
0.00410196
0.0046535
0.00525969
0.00592261
0.00664383
0.00742445
0.00826494
0.0091643
0.0101202
0.0111282
0.0121824
0.0132764
0.0144023
0.0155504
0.0167117
0.0178756
0.0190333
0.0201534
0.0212523
0.0225388
0.0246001
0.0269631
0.0295294
0.0322882
0.035284
0.0385526
0.0422279
0.0463569
0.051261
0.0569292
0.0641617
0.0726503
0.0844973
0.098321
0.119254
0.140506
0.390905
0.185658
0.0660569
0.0207404
0.00683845
0.00298406
0.00163761
0.00113266
0.000874428
0.000762962
0.000721374
0.000735996
0.000786479
0.000869818
0.000981425
0.0011227
0.00129445
0.00149938
0.00173987
0.00201892
0.00233935
0.00270404
0.00311578
0.00357731
0.00409131
0.00466041
0.0052871
0.0059736
0.00672154
0.00753201
0.00840542
0.00933941
0.0103314
0.0113771
0.0124708
0.013606
0.0147754
0.0159695
0.0171808
0.0184
0.0196154
0.020794
0.0219596
0.023276
0.0251592
0.0272744
0.0295412
0.0319382
0.0345108
0.0372697
0.0403505
0.0437484
0.0477911
0.0523588
0.0582731
0.0649769
0.0746605
0.0852466
0.102334
0.116967
0.360499
0.177122
0.0699507
0.0241396
0.00822504
0.00335246
0.00168009
0.00107112
0.00079208
0.000676795
0.000641345
0.000662659
0.000721081
0.000811821
0.000931093
0.00108004
0.00125996
0.00147371
0.00172404
0.00201425
0.0023475
0.00272702
0.00315592
0.00363723
0.00417385
0.00476857
0.00542392
0.00614216
0.00692483
0.00777288
0.00868619
0.00966107
0.010695
0.0117833
0.0129203
0.0140993
0.015313
0.0165518
0.0178093
0.0190769
0.0203342
0.0215576
0.0227708
0.0241005
0.0258428
0.0277599
0.0297877
0.0318996
0.0341402
0.0365058
0.0391286
0.0419759
0.0453647
0.0491245
0.0540446
0.0594774
0.0675155
0.0758957
0.090006
0.100553
0.340228
0.170763
0.0733473
0.0277491
0.00998183
0.00397796
0.00187173
0.00110201
0.000774299
0.000641785
0.000603965
0.000627483
0.000691233
0.000788472
0.000915496
0.00107313
0.00126292
0.00148788
0.00175105
0.00205601
0.00240624
0.00280526
0.00325642
0.00376295
0.00432787
0.004954
0.00564386
0.00639963
0.00722271
0.00811386
0.00907177
0.010092
0.0111718
0.0123063
0.0134892
0.0147138
0.0159723
0.0172548
0.0185558
0.019864
0.0211532
0.0224113
0.0236576
0.0249886
0.0266158
0.0283696
0.0302003
0.0320793
0.0340503
0.0361012
0.0383588
0.0407756
0.0436522
0.0467971
0.0509497
0.0554439
0.0622178
0.0690337
0.0808525
0.0887701
0.326536
0.166004
0.0762212
0.031397
0.0120552
0.00485289
0.00221287
0.0012207
0.000813574
0.000649596
0.000601354
0.000623014
0.000689981
0.00079309
0.000928103
0.0010954
0.0012966
0.00153482
0.00181335
0.00213603
0.00250661
0.00292882
0.00340623
0.00394217
0.00453971
0.00520165
0.00593039
0.00672804
0.00759576
0.00853417
0.00953983
0.0106086
0.0117372
0.0129201
0.0141508
0.0154218
0.0167251
0.0180502
0.0193923
0.0207313
0.022047
0.0233315
0.0245995
0.0259229
0.0274526
0.0290679
0.0307314
0.0324146
0.0341599
0.0359507
0.0379078
0.039977
0.0424408
0.045102
0.0486479
0.0524259
0.0582145
0.0638805
0.0739305
0.0800828
0.317206
0.162446
0.0785868
0.0349335
0.014378
0.00597209
0.00270691
0.00143197
0.000908954
0.000697133
0.00062988
0.000645468
0.000713613
0.000821996
0.000965247
0.0011431
0.00135709
0.00161039
0.00190646
0.00224937
0.0026431
0.00309157
0.00359847
0.00416718
0.00480077
0.00550195
0.00627298
0.00711585
0.00803146
0.00902011
0.0100758
0.0111953
0.0123746
0.0136075
0.0148868
0.0162043
0.017552
0.0189181
0.0202962
0.0216595
0.0229968
0.0243004
0.0255805
0.0268892
0.0283338
0.0298286
0.0313466
0.0328606
0.0344118
0.0359818
0.0376851
0.0394651
0.0415876
0.043857
0.0469123
0.050127
0.0551345
0.0599275
0.0685988
0.0735152
0.310816
0.159807
0.0804879
0.0382373
0.0168693
0.00732397
0.00336038
0.00174486
0.00106463
0.000785103
0.000688868
0.000693541
0.000760577
0.000873508
0.00102516
0.00121438
0.0014424
0.0017124
0.00202793
0.00239326
0.00281255
0.00328986
0.00382894
0.00443319
0.00510561
0.00584881
0.00666482
0.00755554
0.00852151
0.00956218
0.0106696
0.0118415
0.0130725
0.014356
0.015684
0.0170477
0.0184385
0.0198438
0.0212493
0.0226337
0.0239879
0.0253039
0.026588
0.0278759
0.029244
0.0306313
0.0320197
0.0333841
0.0347647
0.0361423
0.0376263
0.0391597
0.0409933
0.0429369
0.0455868
0.0483466
0.0527236
0.056834
0.0644156
0.0684313
0.306431
0.157877
0.0819863
0.0412204
0.0194378
0.00888572
0.00418134
0.00216738
0.00128941
0.000917364
0.000779955
0.000767794
0.000830912
0.000947388
0.00110745
0.00130871
0.00155187
0.00184003
0.00217675
0.00256643
0.00301338
0.00352175
0.0040953
0.00473741
0.00545096
0.00623841
0.00710153
0.00804213
0.00906039
0.0101541
0.0113145
0.0125394
0.0138226
0.0151566
0.0165327
0.0179413
0.0193737
0.0208122
0.0222402
0.023642
0.0250082
0.0263304
0.027611
0.0288728
0.03017
0.0314594
0.03273
0.0339594
0.0351869
0.0363935
0.037684
0.0390025
0.0405865
0.0422531
0.0445612
0.0469446
0.0508034
0.0543662
0.0610721
0.0644073
0.303426
0.156499
0.0831518
0.0438301
0.0219888
0.0106207
0.0051729
0.00270886
0.00159395
0.00110073
0.000906832
0.000870359
0.000925946
0.00104454
0.00121277
0.00142659
0.00168586
0.00199351
0.00235294
0.00276871
0.00324518
0.00378653
0.00439652
0.00507842
0.00583498
0.0066685
0.00758041
0.00857244
0.00964443
0.0107916
0.0120054
0.0132834
0.0146185
0.0160023
0.0174253
0.0188771
0.0203472
0.0218119
0.0232593
0.0246744
0.0260476
0.0273698
0.02864
0.0298709
0.0311006
0.0322988
0.0334605
0.0345658
0.0356535
0.0367055
0.0378223
0.0389501
0.0403146
0.0417408
0.0437556
0.0458211
0.0492463
0.0523593
0.0583496
0.0611536
0.301376
0.155549
0.084054
0.0460467
0.0244329
0.0124782
0.00632983
0.00337939
0.00198711
0.00134506
0.00107521
0.00100484
0.00104816
0.00116687
0.0013427
0.00156939
0.00184558
0.00217388
0.00255742
0.00300079
0.00350841
0.00408442
0.00473252
0.00545583
0.00625693
0.00713793
0.00809987
0.00914444
0.0102712
0.0114714
0.0127386
0.0140693
0.0154554
0.0168875
0.0183555
0.019848
0.0213479
0.0228352
0.0242981
0.025722
0.0270969
0.0284129
0.0296663
0.0308616
0.0320256
0.0331373
0.0341965
0.035186
0.0361443
0.0370543
0.0380129
0.0389688
0.0401374
0.0413516
0.0431105
0.0449024
0.0479588
0.050695
0.0560901
0.0584684
0.299986
0.154932
0.0847572
0.0478786
0.0266935
0.0143963
0.00763586
0.0041854
0.00247912
0.00166015
0.00129295
0.00117632
0.00120117
0.00131718
0.00149961
0.00173924
0.00203297
0.00238291
0.00279176
0.0032641
0.00380428
0.00441639
0.00510398
0.00587002
0.00671683
0.00764639
0.00865921
0.00975701
0.0109382
0.0121915
0.0135113
0.0148937
0.0163292
0.0178077
0.0193181
0.0208442
0.0223692
0.0238752
0.0253493
0.026777
0.028148
0.0294516
0.0306818
0.0318369
0.0329357
0.0339639
0.0349253
0.0358054
0.0366422
0.0374202
0.038233
0.039032
0.0400235
0.0410481
0.0425807
0.0441336
0.0468713
0.0492864
0.0541782
0.0562074
0.299055
0.154568
0.0853166
0.0493553
0.0287129
0.0163066
0.00906228
0.00512695
0.00307976
0.00205475
0.00156993
0.0013915
0.00138971
0.00149921
0.00168666
0.00193894
0.0022506
0.00262303
0.00305821
0.00356067
0.00413461
0.004784
0.00551222
0.00632199
0.00721536
0.00819417
0.00925835
0.0104097
0.0116444
0.0129501
0.0143213
0.0157538
0.0172366
0.0187587
0.0203052
0.0218593
0.0234054
0.0249254
0.0264058
0.0278318
0.0291929
0.0304778
0.0316786
0.032789
0.0338221
0.0347685
0.0356355
0.0364109
0.0371326
0.0377866
0.0384637
0.039118
0.0399478
0.0408009
0.0421309
0.0434722
0.0459309
0.0480682
0.0525278
0.0542658
0.298442
0.154397
0.0857773
0.0505202
0.0304556
0.0181407
0.0105683
0.00619537
0.00379559
0.00253893
0.00191479
0.00165877
0.00161977
0.00171759
0.00190774
0.00217201
0.0025017
0.00289722
0.00335956
0.00389308
0.00450176
0.00518936
0.00595905
0.00681325
0.00775367
0.00878209
0.00989769
0.0111025
0.0123893
0.0137462
0.015167
0.0166474
0.0181745
0.019734
0.0213108
0.0228886
0.0244509
0.0259798
0.0274609
0.0288794
0.0302243
0.0314839
0.0326491
0.0337101
0.0346761
0.0355416
0.0363163
0.0369906
0.0376023
0.0381391
0.0386889
0.0392087
0.0398895
0.0405862
0.0417331
0.0428853
0.0450966
0.0469907
0.0510739
0.0525658
0.298046
0.154368
0.0861739
0.0514237
0.0319084
0.0198368
0.0121034
0.00737157
0.00462768
0.00312112
0.00233667
0.00198686
0.00189862
0.00197791
0.00216752
0.00244257
0.00279008
0.00320906
0.00369914
0.00426442
0.00490856
0.00563505
0.00644674
0.00734572
0.00833331
0.00941133
0.010578
0.0118359
0.0131726
0.0145788
0.0160468
0.0175723
0.019137
0.0207285
0.0223309
0.0239273
0.0255005
0.0270325
0.0285081
0.0299126
0.0312348
0.0324626
0.0335858
0.0345926
0.0354896
0.0362739
0.0369578
0.0375339
0.0380397
0.0384647
0.0388945
0.0392886
0.0398314
0.0403845
0.0413647
0.0423463
0.0443362
0.0460152
0.0497665
0.0510487
0.2978
0.154442
0.0865317
0.0521172
0.0330782
0.0213455
0.0136116
0.00862548
0.00556959
0.00380645
0.00284424
0.00238423
0.00223451
0.0022867
0.00247138
0.00275538
0.00312007
0.00356258
0.00408073
0.00467823
0.00535827
0.006124
0.0069779
0.00792166
0.00895615
0.0100833
0.0113004
0.0126095
0.0139941
0.0154472
0.0169593
0.0185224
0.0201202
0.0217387
0.0233614
0.0249707
0.0265488
0.0280774
0.0295409
0.0309246
0.0322171
0.0334062
0.0344812
0.0354288
0.0362543
0.0369568
0.0375506
0.0380304
0.0384339
0.038752
0.0390681
0.0393444
0.0397588
0.0401795
0.0410071
0.041834
0.0436239
0.0451114
0.048567
0.0496694
0.297654
0.154587
0.0868679
0.0526496
0.0339875
0.0226335
0.0150367
0.00991716
0.00660567
0.00459477
0.00344399
0.00285897
0.00263544
0.00265156
0.00282536
0.00311567
0.00349645
0.00396226
0.00450852
0.0051384
0.00585448
0.00665949
0.00755545
0.00854359
0.00962427
0.0107998
0.012066
0.0134236
0.0148539
0.0163488
0.0178992
0.0194954
0.0211212
0.0227612
0.0243982
0.026014
0.0275902
0.0291084
0.0305527
0.0319083
0.0331638
0.0343072
0.0353275
0.0362111
0.036962
0.0375816
0.0380855
0.0384708
0.0387749
0.0389904
0.0391986
0.0393641
0.0396589
0.0399574
0.0406447
0.0413308
0.0429389
0.044255
0.0474446
0.048393
0.297576
0.154779
0.0871933
0.0530638
0.0346694
0.0236856
0.0163282
0.0111995
0.00771035
0.00547889
0.00413866
0.0034176
0.00310865
0.00307979
0.0032368
0.00352907
0.00392434
0.00441284
0.00498694
0.00564908
0.00640102
0.00724497
0.00818245
0.00921416
0.0103398
0.0115624
0.0128762
0.0142776
0.0157484
0.0172809
0.0188649
0.020489
0.0221369
0.0237922
0.0254369
0.0270521
0.0286191
0.0301193
0.0315367
0.0328564
0.0340674
0.0351579
0.0361171
0.0369314
0.0376046
0.0381396
0.0385536
0.0388456
0.0390531
0.0391701
0.0392758
0.0393373
0.0395205
0.0397061
0.0402642
0.0408221
0.0422642
0.0434264
0.0463751
0.0471917
0.297541
0.155
0.0875136
0.0533958
0.0351632
0.0245036
0.0174462
0.0124224
0.00884866
0.00644301
0.00492543
0.00406375
0.00366
0.00357748
0.00371173
0.00400242
0.00440977
0.00491915
0.00552054
0.00621449
0.00700177
0.00788398
0.00886201
0.00993601
0.011105
0.012371
0.0137295
0.0151698
0.0166768
0.0182421
0.0198541
0.0215003
0.0231639
0.0248275
0.0264725
0.0280795
0.0296293
0.0311034
0.0324857
0.0337615
0.0349202
0.0359504
0.0368419
0.0375817
0.0381738
0.0386226
0.0389464
0.0391462
0.0392596
0.0392819
0.0392903
0.0392542
0.0393336
0.0394151
0.0398544
0.0402956
0.0415857
0.0426095
0.0453389
0.0460436
0.297533
0.155235
0.0878311
0.0536739
0.0355089
0.0251035
0.0183648
0.0135379
0.00997836
0.00746216
0.00579436
0.00479653
0.00429284
0.00414935
0.00425503
0.00454035
0.00495761
0.00548657
0.00611422
0.00683897
0.00766039
0.00857935
0.00959607
0.0107101
0.0119197
0.0132261
0.014625
0.0160996
0.0176381
0.0192305
0.0208644
0.0225261
0.0241982
0.0258624
0.0274997
0.0290901
0.0306143
0.0320537
0.0333922
0.0346157
0.035714
0.0366765
0.0374938
0.038154
0.0386614
0.0390219
0.0392552
0.039364
0.0393857
0.0393173
0.0392336
0.0391062
0.0390893
0.0390754
0.0394056
0.0397408
0.0408915
0.0417913
0.0443202
0.044931
0.297542
0.155474
0.0881457
0.0539195
0.0357451
0.0255123
0.0190739
0.0145051
0.0110534
0.00850265
0.00672712
0.00560895
0.00500657
0.00479769
0.00486993
0.00514634
0.00557132
0.00611846
0.00677121
0.00752551
0.00837957
0.0093334
0.0103865
0.0115377
0.0127848
0.0141282
0.015562
0.0170661
0.0186302
0.0202436
0.0218926
0.0235623
0.025235
0.0268917
0.0285125
0.0300775
0.0315669
0.0329624
0.0342482
0.0354108
0.0364405
0.0373277
0.0380643
0.0386396
0.0390589
0.0393294
0.0394717
0.0394907
0.0394233
0.0392681
0.0390975
0.0388853
0.0387796
0.0386787
0.0389092
0.0391489
0.0401719
0.0409609
0.0433061
0.0438395
0.29756
0.155711
0.0884561
0.0541476
0.0359054
0.0257629
0.0195782
0.0152943
0.0120283
0.00952403
0.00769672
0.00648661
0.00579519
0.00552105
0.00555707
0.00582185
0.00625276
0.00681687
0.00749361
0.00827614
0.00916113
0.0101476
0.0112344
0.0124197
0.0137003
0.0150769
0.0165393
0.0180672
0.0196507
0.021278
0.0229345
0.0246043
0.026269
0.0279091
0.0295043
0.0310342
0.0324794
0.0338215
0.0350453
0.036138
0.0370908
0.0378953
0.0385447
0.0390302
0.0393579
0.0395366
0.0395879
0.0395182
0.0393646
0.0391267
0.0388747
0.0385843
0.0383973
0.0382178
0.0383579
0.0385121
0.0394186
0.0401091
0.0422859
0.0427574
0.297582
0.15594
0.0887603
0.0543679
0.0360182
0.025891
0.0198952
0.0158898
0.0128634
0.0104823
0.00866829
0.00740689
0.00664595
0.00631295
0.00631329
0.00656541
0.00700136
0.00758178
0.00828172
0.00909132
0.0100055
0.0110224
0.0121398
0.0133554
0.0146654
0.016071
0.0175547
0.0191
0.0206959
0.0223293
0.023985
0.0256462
0.0272937
0.0289076
0.0304673
0.0319523
0.0333431
0.034622
0.0357743
0.0367881
0.0376556
0.03837
0.0389261
0.0393169
0.0395499
0.0396352
0.0395955
0.0394389
0.039202
0.038886
0.0385582
0.0381964
0.0379359
0.0376865
0.0377453
0.037824
0.0386245
0.0392286
0.041251
0.0416752
0.297606
0.156158
0.0890563
0.0545863
0.0361055
0.025931
0.0200517
0.0162905
0.0135286
0.0113343
0.00960117
0.0083391
0.00753847
0.0071606
0.00713047
0.00737152
0.00781316
0.00841023
0.00913332
0.00996925
0.0109111
0.011956
0.0131009
0.0143428
0.0156776
0.0171058
0.0186046
0.0201602
0.0217607
0.023392
0.0250379
0.026681
0.0283015
0.0298791
0.0313929
0.0328225
0.0341487
0.0353543
0.0364255
0.0373513
0.0381254
0.0387424
0.0391992
0.0394909
0.0396263
0.0396172
0.0394869
0.0392454
0.0389287
0.0385394
0.0381417
0.0377157
0.0373896
0.0370791
0.0370659
0.037079
0.0377839
0.038313
0.0401944
0.040585
0.297629
0.156365
0.0893421
0.0548054
0.0361835
0.0259139
0.0200799
0.0165088
0.0140069
0.0120423
0.0104524
0.00924586
0.00844452
0.00804406
0.00799441
0.00822958
0.00867979
0.00929543
0.0100427
0.0109051
0.0118737
0.0129444
0.0141138
0.015378
0.0167327
0.0181764
0.0196834
0.0212418
0.0228385
0.0244586
0.0260853
0.0277003
0.0292835
0.0308141
0.0322713
0.0336348
0.0348858
0.0360079
0.0369882
0.0378172
0.0384899
0.0390028
0.0393546
0.0395432
0.0395788
0.0394745
0.0392546
0.0389306
0.0385381
0.0380806
0.0376196
0.0371369
0.0367534
0.0363908
0.036315
0.0362725
0.0368921
0.0373575
0.0391103
0.0394803
0.29765
0.156558
0.0896164
0.0550259
0.0362634
0.0258657
0.0200132
0.0165676
0.0142956
0.0125782
0.0111808
0.0100856
0.00932895
0.00893594
0.0088841
0.00912295
0.00958754
0.0102258
0.011
0.0118902
0.0128855
0.0139806
0.0151715
0.016454
0.0178237
0.0192755
0.0207837
0.0223367
0.0239207
0.0255203
0.0271177
0.0286941
0.0302291
0.0317018
0.0330914
0.0343778
0.035543
0.0365714
0.0374514
0.0381749
0.0387386
0.0391409
0.039383
0.039465
0.0393989
0.0391994
0.0388914
0.038488
0.0380241
0.0375044
0.0369869
0.0364552
0.0360231
0.0356177
0.0354888
0.0354007
0.035945
0.0363579
0.0379943
0.0383561
0.297669
0.156739
0.0898782
0.0552472
0.0363518
0.0258069
0.0198839
0.0164968
0.0144054
0.0129269
0.011752
0.0108165
0.0101517
0.00980208
0.00977151
0.0100284
0.0105166
0.0111839
0.0119898
0.0129109
0.0139342
0.0150533
0.0162637
0.0175609
0.0189411
0.0203933
0.0218951
0.0234344
0.0249966
0.0265657
0.0281234
0.0296505
0.0311263
0.0325299
0.0338406
0.035039
0.0361079
0.0370326
0.0378031
0.0384129
0.0388605
0.0391465
0.0392745
0.0392473
0.0390786
0.0387845
0.0383908
0.0379117
0.0373815
0.0368058
0.0362392
0.035667
0.035195
0.0347564
0.0345841
0.0344608
0.0349399
0.0353112
0.0368427
0.0372083
0.297685
0.156907
0.090127
0.0554679
0.036452
0.0257526
0.0197202
0.0163295
0.0143584
0.0130874
0.0121419
0.0114005
0.010871
0.0106033
0.0106222
0.010916
0.0114406
0.0121464
0.0129912
0.0139483
0.0150026
0.0161467
0.0173756
0.0186846
0.0200706
0.0215164
0.0230044
0.0245215
0.0260527
0.0275813
0.0290888
0.0305556
0.031961
0.0332842
0.0345051
0.0356047
0.0365668
0.0373784
0.0380306
0.0385191
0.0388443
0.0390093
0.0390198
0.0388817
0.0386102
0.0382231
0.0377466
0.0371964
0.0366057
0.035981
0.0353731
0.0347691
0.0342667
0.0338046
0.0335989
0.0334505
0.0338747
0.0342151
0.0356531
0.0360336
0.297699
0.157063
0.0903627
0.0556866
0.036565
0.0257127
0.0195455
0.0160986
0.0141845
0.0130722
0.01234
0.0118084
0.0114475
0.0112982
0.0113971
0.0117502
0.012327
0.0130834
0.0139765
0.014977
0.0160676
0.0172394
0.0184874
0.0198064
0.0211932
0.0226275
0.0240948
0.0255815
0.0270725
0.0285507
0.0299975
0.0313932
0.0327172
0.033949
0.0350691
0.0360596
0.0369053
0.0375947
0.0381209
0.0384814
0.0386789
0.0387188
0.0386096
0.0383599
0.0379866
0.037509
0.0369539
0.0363379
0.0356933
0.035027
0.0343864
0.0337597
0.0332363
0.0327608
0.0325317
0.0323687
0.032748
0.0330681
0.0344237
0.0348299
0.297711
0.157208
0.0905856
0.0559017
0.0366899
0.0256929
0.0193776
0.015834
0.0139171
0.0129054
0.0123502
0.0120227
0.0118489
0.0118473
0.0120551
0.012491
0.0131381
0.0139591
0.0149122
0.0159658
0.0170999
0.0183044
0.0195736
0.0209027
0.0222868
0.0237053
0.0251456
0.0265943
0.0280363
0.0294546
0.0308306
0.0321447
0.0333767
0.0345067
0.0355158
0.0363874
0.0371077
0.0376669
0.0380601
0.0382871
0.0383527
0.038265
0.0380352
0.0376744
0.0372016
0.0366372
0.0360085
0.035333
0.0346417
0.0339422
0.0332776
0.0326378
0.0321033
0.0316246
0.0313824
0.031215
0.0315595
0.0318698
0.0331538
0.0335958
0.29772
0.157344
0.0907961
0.056112
0.0368249
0.0256956
0.0192287
0.0155608
0.0135903
0.0126185
0.0121898
0.0120405
0.0120539
0.0122169
0.0125569
0.0130975
0.0138329
0.0147334
0.0157594
0.0168771
0.0180642
0.0193083
0.0206033
0.0219442
0.023324
0.0247235
0.0261317
0.0275358
0.0289211
0.0302707
0.0315665
0.0327893
0.0339195
0.0349378
0.0358267
0.0365706
0.0371577
0.0375799
0.0378345
0.0379237
0.0378548
0.0376384
0.0372885
0.0368187
0.0362499
0.0356037
0.0349077
0.03418
0.0334501
0.0327262
0.0320471
0.0314039
0.0308683
0.0303967
0.0301515
0.02999
0.0303098
0.0306205
0.0318433
0.0323304
0.297728
0.15747
0.0909948
0.0563164
0.0369679
0.025721
0.0191065
0.0152983
0.0132348
0.0122468
0.0118872
0.0118738
0.012055
0.012384
0.012869
0.0135307
0.0143699
0.0153638
0.0164752
0.0176691
0.0189197
0.0202124
0.0215396
0.0228961
0.0242722
0.0256514
0.027024
0.0283782
0.0297001
0.0309735
0.0321808
0.0333037
0.0343232
0.0352214
0.0359819
0.0365909
0.0370382
0.0373181
0.0374302
0.0373791
0.0371748
0.0368305
0.0363626
0.0357877
0.035128
0.0344064
0.0336503
0.0328787
0.0321193
0.0313803
0.0306964
0.0300598
0.0295334
0.029079
0.028841
0.0286953
0.0290003
0.0293211
0.0304931
0.0310339
0.297734
0.157588
0.0911825
0.0565142
0.0371165
0.0257673
0.0190147
0.0150603
0.0128769
0.0118255
0.0114774
0.011547
0.0118601
0.0123391
0.0129683
0.0137584
0.0147112
0.0158086
0.0170161
0.018297
0.0196221
0.0209732
0.0223407
0.0237187
0.025094
0.0264535
0.0277889
0.0290898
0.0303433
0.0315345
0.0326466
0.0336623
0.0345641
0.0353352
0.0359608
0.0364291
0.0367321
0.0368663
0.0368339
0.036642
0.0363034
0.0358338
0.0352523
0.0345778
0.033834
0.0330448
0.0322375
0.0314312
0.0306518
0.0299078
0.0292291
0.0286092
0.028102
0.0276749
0.027454
0.0273339
0.0276337
0.0279739
0.0291047
0.0297071
0.297738
0.157698
0.0913601
0.0567051
0.0372685
0.0258319
0.0189539
0.0148556
0.0125366
0.0113861
0.010998
0.0110945
0.0114914
0.0120882
0.0128457
0.0137592
0.0148265
0.0160313
0.0173407
0.0187165
0.0201253
0.0215445
0.0229613
0.024368
0.0257478
0.0270904
0.0283892
0.0296355
0.0308178
0.0319226
0.0329348
0.0338382
0.0346168
0.0352558
0.0357422
0.0360663
0.0362224
0.0362099
0.0360332
0.0357025
0.035233
0.0346432
0.0339543
0.0331878
0.0323686
0.0315212
0.0306726
0.0298418
0.0290529
0.0283141
0.0276508
0.0270577
0.0265795
0.0261893
0.025995
0.0259097
0.0262135
0.0265817
0.0276808
0.0283517
0.297742
0.157802
0.0915283
0.0568888
0.037422
0.0259118
0.0189227
0.0146882
0.0122282
0.010955
0.0104852
0.0105554
0.0109826
0.0116528
0.0125076
0.0135259
0.0146975
0.0160045
0.0174145
0.0188874
0.0203854
0.0218804
0.0233548
0.0247982
0.0261894
0.0275199
0.028785
0.0299776
0.0310882
0.0321051
0.0330147
0.0338029
0.0344556
0.0349599
0.0353051
0.0354839
0.0354934
0.0353355
0.0350176
0.0345526
0.0339583
0.0332557
0.0324684
0.0316196
0.0307354
0.0298408
0.028962
0.028118
0.0273305
0.0266074
0.0259698
0.025413
0.0249733
0.0246289
0.0244702
0.024428
0.0247445
0.0251487
0.0262249
0.0269698
0.297744
0.157901
0.091688
0.0570655
0.0375754
0.026004
0.0189182
0.0145591
0.0119603
0.0105519
0.00997055
0.00996959
0.0103743
0.011067
0.0119766
0.0130679
0.0143208
0.0157139
0.0172137
0.0187782
0.0203647
0.0219388
0.0234768
0.0249638
0.0263741
0.027699
0.0289352
0.0300775
0.0311183
0.0320481
0.0328554
0.0335282
0.0340548
0.0344246
0.0346295
0.0346651
0.034531
0.0342323
0.0337792
0.0331874
0.0324772
0.031672
0.0307974
0.0298784
0.0289417
0.0280124
0.0271159
0.0262705
0.0254956
0.0247988
0.0241967
0.0236854
0.0232929
0.0230025
0.0228873
0.0228959
0.0232329
0.0236798
0.0247412
0.0255648
0.297746
0.157994
0.09184
0.0572353
0.0377274
0.0261054
0.0189369
0.0144665
0.0117367
0.0101902
0.00947937
0.00937341
0.00970947
0.0103734
0.011289
0.012411
0.0137109
0.0151623
0.0167303
0.0183707
0.0200363
0.0216859
0.0232887
0.0248237
0.0262599
0.0275861
0.0287998
0.0298971
0.0308726
0.0317188
0.0324268
0.0329871
0.0333905
0.0336292
0.033698
0.0335954
0.0333243
0.0328925
0.0323135
0.0316056
0.0307916
0.029897
0.028949
0.0279741
0.026999
0.0260491
0.0251482
0.0243139
0.0235631
0.0229028
0.0223455
0.0218879
0.0215504
0.0213208
0.0212562
0.0213216
0.0216861
0.0221814
0.0232353
0.0241407
0.297747
0.158082
0.0919851
0.0573984
0.0378771
0.0262134
0.018975
0.0144074
0.0115579
0.00987731
0.00902968
0.00879701
0.00902873
0.00961821
0.0104904
0.0115954
0.012899
0.0143708
0.0159743
0.0176639
0.019389
0.0211017
0.0227632
0.0243454
0.0258115
0.0271451
0.0283429
0.029402
0.0303186
0.0310874
0.031702
0.0321557
0.0324421
0.0325565
0.0324968
0.0322649
0.0318667
0.0313133
0.0306212
0.0298113
0.0289087
0.0279407
0.0269359
0.0259214
0.0249242
0.0239688
0.0230776
0.0222671
0.0215517
0.0209376
0.0204334
0.0200367
0.0197603
0.019597
0.0195886
0.0197155
0.0201131
0.020661
0.0217136
0.0227023
0.297748
0.158167
0.092124
0.0575553
0.0380239
0.026326
0.0190288
0.0143776
0.0114215
0.00961599
0.00863262
0.00826287
0.0083666
0.00884589
0.00963053
0.0106711
0.0119309
0.0133779
0.0149753
0.0166772
0.0184311
0.0201838
0.0218889
0.02351
0.025005
0.0263491
0.0275368
0.0285648
0.0294303
0.0301298
0.0306596
0.0310155
0.0311944
0.0311948
0.031018
0.0306692
0.0301577
0.029498
0.0287092
0.0278149
0.0268421
0.0258197
0.0247769
0.0237415
0.0227396
0.021795
0.0209281
0.020154
0.0194846
0.0189253
0.0184813
0.0181508
0.0179403
0.0178467
0.0178981
0.0180895
0.0185244
0.0191273
0.0201836
0.0212555
0.297749
0.158249
0.0922574
0.0577065
0.0381675
0.0264411
0.0190949
0.0143728
0.0113237
0.00940529
0.00829341
0.00778564
0.0077495
0.00809485
0.00875769
0.00969196
0.0108623
0.0122371
0.0137812
0.0154507
0.0171929
0.0189518
0.0206748
0.0223175
0.0238328
0.0251855
0.0263659
0.0273689
0.0281913
0.0288312
0.0292866
0.0295564
0.0296404
0.0295404
0.0292615
0.028812
0.0282049
0.0274577
0.0265924
0.0256346
0.0246131
0.0235579
0.0224983
0.021462
0.0204742
0.019557
0.0187288
0.0180031
0.0173895
0.0168922
0.0165137
0.0162527
0.0161105
0.016088
0.016201
0.0164574
0.016932
0.0175905
0.0186542
0.0198071
0.297749
0.158328
0.0923862
0.0578524
0.0383074
0.0265575
0.0191704
0.0143885
0.0112597
0.0092418
0.00801256
0.0073729
0.00719515
0.00739484
0.00791367
0.00871007
0.00975195