/*--------------------------------*- C++ -*----------------------------------*\
| =========                 |                                                 |
| \\      /  F ield         | OpenFOAM: The Open Source CFD Toolbox           |
|  \\    /   O peration     | Version:  2.4.0                                 |
|   \\  /    A nd           | Web:      www.OpenFOAM.org                      |
|    \\/     M anipulation  |                                                 |
\*---------------------------------------------------------------------------*/
FoamFile
{
    version     2.0;
    format      ascii;
    class       surfaceScalarField;
    location    "2.68";
    object      phi;
}
// * * * * * * * * * * * * * * * * * * * * * * * * * * * * * * * * * * * * * //

dimensions      [0 3 -1 0 0 0 0];

internalField   nonuniform List<scalar> 
11840
(
7.83104e-07
9.2169e-06
-9.31779e-07
1.71488e-06
6.51129e-07
-1.58291e-06
1.3455e-07
5.16579e-07
-1.97138e-07
3.31688e-07
-2.15467e-07
1.83295e-08
-1.64335e-07
-5.11324e-08
-2.02723e-07
3.83887e-08
-4.2397e-07
2.21246e-07
-8.48258e-07
4.24288e-07
-1.37727e-06
5.29015e-07
-1.56618e-06
1.88904e-07
-8.60755e-07
-7.05421e-07
1.18114e-06
-2.04189e-06
4.66741e-06
-3.48628e-06
7.79184e-06
-3.12442e-06
7.77791e-06
1.39316e-08
5.24988e-06
2.52803e-06
3.69668e-06
1.5532e-06
3.88173e-06
-1.85046e-07
2.20765e-06
1.67407e-06
-2.81877e-06
5.02642e-06
-8.69486e-06
5.8761e-06
-1.30451e-05
4.35022e-06
-1.56061e-05
2.56098e-06
-1.69281e-05
1.32199e-06
-1.73991e-05
4.71066e-07
-1.72221e-05
-1.77002e-07
-1.65597e-05
-6.62442e-07
-1.54883e-05
-1.07136e-06
-1.40308e-05
-1.4575e-06
-1.22117e-05
-1.81911e-06
-1.00567e-05
-2.15495e-06
-7.60716e-06
-2.44958e-06
-4.93632e-06
-2.67084e-06
-2.15872e-06
-2.77761e-06
5.69272e-07
-2.72799e-06
3.0755e-06
-2.50623e-06
5.19697e-06
-2.12147e-06
6.82089e-06
-1.62392e-06
7.88298e-06
-1.06209e-06
8.31872e-06
-4.35745e-07
8.13701e-06
1.81712e-07
7.58058e-06
5.56424e-07
6.97305e-06
6.07534e-07
6.4911e-06
4.81946e-07
6.16289e-06
3.28219e-07
5.9566e-06
2.06287e-07
5.83754e-06
1.19061e-07
5.78115e-06
5.63915e-08
5.76869e-06
1.24603e-08
5.7927e-06
-2.40118e-08
5.8523e-06
-5.95994e-08
5.94841e-06
-9.61152e-08
6.06451e-06
-1.16093e-07
6.2191e-06
-1.54592e-07
6.33373e-06
-1.14629e-07
6.59946e-06
-2.6573e-07
6.57455e-06
2.49077e-08
-7.60627e-07
2.45186e-06
1.6765e-05
-5.02762e-07
4.66951e-06
3.51313e-07
-2.43698e-06
-9.81919e-08
9.66084e-07
-2.7999e-07
5.13486e-07
-3.44133e-07
8.24724e-08
-2.91825e-07
-1.0344e-07
-3.67091e-07
1.13654e-07
-6.53957e-07
5.08112e-07
-1.13837e-06
9.08701e-07
-1.64581e-06
1.03646e-06
-1.77471e-06
3.17802e-07
-1.06251e-06
-1.41763e-06
9.61069e-07
-4.06547e-06
4.32045e-06
-6.84566e-06
7.60822e-06
-6.41219e-06
8.77416e-06
-1.15201e-06
7.34961e-06
3.95257e-06
5.36758e-06
3.53522e-06
4.07379e-06
1.10875e-06
-1.07728e-07
5.85559e-06
-7.47903e-06
1.23977e-05
-1.34916e-05
1.18887e-05
-1.64398e-05
7.2984e-06
-1.76731e-05
3.79434e-06
-1.81504e-05
1.79921e-06
-1.8157e-05
4.77697e-07
-1.77721e-05
-5.61901e-07
-1.69831e-05
-1.45139e-06
-1.57882e-05
-2.26631e-06
-1.4215e-05
-3.03074e-06
-1.22861e-05
-3.74802e-06
-1.00284e-05
-4.41261e-06
-7.48699e-06
-4.99099e-06
-4.7405e-06
-5.41733e-06
-1.90588e-06
-5.61223e-06
8.69299e-07
-5.50317e-06
3.42494e-06
-5.06187e-06
5.61778e-06
-4.31431e-06
7.34843e-06
-3.35457e-06
8.5655e-06
-2.27915e-06
9.29288e-06
-1.16313e-06
9.58762e-06
-1.13025e-07
9.48401e-06
6.60038e-07
9.06965e-06
1.02189e-06
8.5262e-06
1.0254e-06
8.01516e-06
8.39255e-07
7.61759e-06
6.03862e-07
7.3444e-06
3.92251e-07
7.17546e-06
2.25333e-07
7.09159e-06
9.63248e-08
7.07808e-06
-1.04971e-08
7.12148e-06
-1.03002e-07
7.20993e-06
-1.84563e-07
7.32671e-06
-2.32874e-07
7.47672e-06
-3.04601e-07
7.60799e-06
-2.45901e-07
7.84859e-06
-5.06333e-07
7.93082e-06
-5.73239e-08
-1.44772e-06
3.60751e-06
2.31575e-05
1.93977e-08
8.25762e-06
4.39933e-08
-2.46158e-06
-3.13194e-07
1.32327e-06
-3.32424e-07
5.32716e-07
-4.15155e-07
1.65202e-07
-3.74414e-07
-1.44181e-07
-4.68968e-07
2.08208e-07
-7.66192e-07
8.05336e-07
-1.25772e-06
1.40023e-06
-1.75522e-06
1.53396e-06
-1.89416e-06
4.56744e-07
-1.22596e-06
-2.08583e-06
7.04293e-07
-5.99572e-06
3.918e-06
-1.00594e-05
7.14172e-06
-9.63591e-06
8.5323e-06
-2.54259e-06
7.59726e-06
4.88762e-06
5.73417e-06
5.39831e-06
3.28185e-06
3.56106e-06
-2.52617e-06
1.16636e-05
-9.89163e-06
1.97632e-05
-1.44144e-05
1.64114e-05
-1.63642e-05
9.24825e-06
-1.74072e-05
4.83729e-06
-1.79162e-05
2.30818e-06
-1.79605e-05
5.22058e-07
-1.7572e-05
-9.50397e-07
-1.67628e-05
-2.26062e-06
-1.55534e-05
-3.4757e-06
-1.39688e-05
-4.61535e-06
-1.20307e-05
-5.68616e-06
-9.7657e-06
-6.67758e-06
-7.21957e-06
-7.53712e-06
-4.47204e-06
-8.16486e-06
-1.63973e-06
-8.44454e-06
1.13122e-06
-8.27411e-06
3.68131e-06
-7.61196e-06
5.87015e-06
-6.50315e-06
7.60273e-06
-5.08715e-06
8.83863e-06
-3.51505e-06
9.60028e-06
-1.92478e-06
9.95749e-06
-4.70229e-07
9.9746e-06
6.42924e-07
9.72439e-06
1.2721e-06
9.31115e-06
1.43864e-06
8.85762e-06
1.29278e-06
8.45795e-06
1.00353e-06
8.1548e-06
6.95402e-07
7.95164e-06
4.28493e-07
7.83651e-06
2.11454e-07
7.79742e-06
2.85933e-08
7.81837e-06
-1.2395e-07
7.89079e-06
-2.56983e-07
7.99744e-06
-3.39525e-07
8.14277e-06
-4.49932e-07
8.27487e-06
-3.77999e-07
8.51229e-06
-7.43754e-07
8.6116e-06
-1.56641e-07
-2.0795e-06
4.5288e-06
2.86287e-05
7.55771e-07
1.20306e-05
-2.48504e-07
-1.4573e-06
-4.63488e-07
1.53826e-06
-3.71514e-07
4.40742e-07
-4.67178e-07
2.60866e-07
-4.41573e-07
-1.69786e-07
-5.47528e-07
3.14164e-07
-8.44665e-07
1.10247e-06
-1.33469e-06
1.89025e-06
-1.83204e-06
2.0313e-06
-1.99833e-06
6.23041e-07
-1.39569e-06
-2.68847e-06
4.17481e-07
-7.80889e-06
3.49521e-06
-1.31371e-05
6.66206e-06
-1.28028e-05
8.11439e-06
-3.99492e-06
7.39946e-06
5.60255e-06
5.58828e-06
7.20949e-06
2.19187e-06
6.95748e-06
-4.45035e-06
1.83058e-05
-1.09962e-05
2.6309e-05
-1.4337e-05
1.97523e-05
-1.5974e-05
1.08853e-05
-1.70443e-05
5.9075e-06
-1.75829e-05
2.84682e-06
-1.76392e-05
5.78391e-07
-1.72489e-05
-1.3407e-06
-1.64371e-05
-3.0725e-06
-1.52284e-05
-4.68439e-06
-1.36461e-05
-6.19758e-06
-1.17116e-05
-7.62068e-06
-9.45111e-06
-8.93807e-06
-6.91024e-06
-1.0078e-05
-4.16904e-06
-1.09061e-05
-1.34411e-06
-1.12695e-05
1.4168e-06
-1.1035e-05
3.9516e-06
-1.01468e-05
6.12121e-06
-8.67277e-06
7.8321e-06
-6.79804e-06
9.0491e-06
-4.73204e-06
9.79943e-06
-2.67511e-06
1.01543e-05
-8.25065e-07
1.01937e-05
6.03477e-07
9.99705e-06
1.46876e-06
9.6523e-06
1.78339e-06
9.25338e-06
1.69171e-06
8.8779e-06
1.37901e-06
8.57082e-06
1.00248e-06
8.3469e-06
6.5241e-07
8.20414e-06
3.5422e-07
8.13431e-06
9.84214e-08
8.1301e-06
-1.19742e-07
8.18154e-06
-3.08418e-07
8.2732e-06
-4.31187e-07
8.40708e-06
-5.83808e-07
8.53576e-06
-5.06682e-07
8.75999e-06
-9.67982e-07
8.8728e-06
-2.69459e-07
-2.62315e-06
5.30464e-06
3.33241e-05
1.48868e-06
1.58466e-05
-2.6529e-07
2.9667e-07
-5.5136e-07
1.82433e-06
-4.05809e-07
2.95191e-07
-5.09972e-07
3.65029e-07
-4.99698e-07
-1.80059e-07
-6.1273e-07
4.27196e-07
-9.064e-07
1.39614e-06
-1.39225e-06
2.37611e-06
-1.89538e-06
2.53443e-06
-2.09826e-06
8.25917e-07
-1.57475e-06
-3.21198e-06
1.09268e-07
-9.49291e-06
3.03803e-06
-1.60659e-05
6.15357e-06
-1.59183e-05
7.64107e-06
-5.48242e-06
7.05214e-06
6.19148e-06
5.19828e-06
9.06334e-06
1.03574e-06
1.112e-05
-5.88244e-06
2.5224e-05
-1.14251e-05
3.18516e-05
-1.40177e-05
2.23449e-05
-1.55847e-05
1.24523e-05
-1.66616e-05
6.98439e-06
-1.72026e-05
3.38789e-06
-1.7258e-05
6.33779e-07
-1.68654e-05
-1.73331e-06
-1.60537e-05
-3.88424e-06
-1.4848e-05
-5.89006e-06
-1.32707e-05
-7.77488e-06
-1.13425e-05
-9.54885e-06
-9.08921e-06
-1.11914e-05
-6.55593e-06
-1.26113e-05
-3.82272e-06
-1.36393e-05
-1.00677e-06
-1.40854e-05
1.741e-06
-1.37828e-05
4.25602e-06
-1.26618e-05
6.40007e-06
-1.08168e-05
8.08001e-06
-8.47797e-06
9.26372e-06
-5.91575e-06
9.98329e-06
-3.39468e-06
1.03147e-05
-1.15648e-06
1.03443e-05
5.73857e-07
1.01538e-05
1.65925e-06
9.82577e-06
2.11145e-06
9.44345e-06
2.07403e-06
9.07595e-06
1.7465e-06
8.76582e-06
1.31261e-06
8.53018e-06
8.8805e-07
8.37108e-06
5.13324e-07
8.28527e-06
1.84227e-07
8.26511e-06
-9.9584e-08
8.30357e-06
-3.46872e-07
8.38684e-06
-5.14465e-07
8.51108e-06
-7.08046e-07
8.64388e-06
-6.39482e-07
8.84211e-06
-1.16621e-06
8.99246e-06
-4.19812e-07
-3.05356e-06
5.97528e-06
3.73488e-05
2.23759e-06
1.95843e-05
-6.12776e-08
2.59554e-06
-5.81633e-07
2.34468e-06
-4.37205e-07
1.50763e-07
-5.45634e-07
4.73458e-07
-5.49751e-07
-1.75943e-07
-6.67403e-07
5.44847e-07
-9.5584e-07
1.68458e-06
-1.43654e-06
2.85681e-06
-1.94878e-06
3.04667e-06
-2.19382e-06
1.07095e-06
-1.75828e-06
-3.64751e-06
-2.21956e-07
-1.10292e-05
2.54735e-06
-1.88352e-05
5.6067e-06
-1.89777e-05
7.12929e-06
-7.005e-06
6.63003e-06
6.69074e-06
4.66073e-06
1.10326e-05
-9.47504e-08
1.58755e-05
-6.90633e-06
3.20356e-05
-1.15041e-05
3.64494e-05
-1.36458e-05
2.44866e-05
-1.51909e-05
1.39973e-05
-1.62495e-05
8.04299e-06
-1.67798e-05
3.91821e-06
-1.68283e-05
6.82262e-07
-1.64321e-05
-2.12946e-06
-1.56206e-05
-4.6958e-06
-1.44182e-05
-7.09244e-06
-1.28466e-05
-9.3465e-06
-1.09259e-05
-1.14695e-05
-8.68112e-06
-1.34362e-05
-6.15671e-06
-1.51357e-05
-3.43258e-06
-1.63634e-05
-6.27191e-07
-1.68908e-05
2.10467e-06
-1.65147e-05
4.59675e-06
-1.51538e-05
6.71133e-06
-1.29314e-05
8.35508e-06
-1.01217e-05
9.49779e-06
-7.05847e-06
1.01761e-05
-4.07298e-06
1.04724e-05
-1.45277e-06
1.04786e-05
5.67626e-07
1.02769e-05
1.86098e-06
9.94435e-06
2.44397e-06
9.55817e-06
2.46021e-06
9.18448e-06
2.12019e-06
8.86588e-06
1.63122e-06
8.62077e-06
1.13316e-06
8.45234e-06
6.81752e-07
8.35751e-06
2.79056e-07
8.33064e-06
-7.27089e-08
8.36354e-06
-3.79777e-07
8.44413e-06
-5.95053e-07
8.56267e-06
-8.26581e-07
8.7022e-06
-7.79013e-07
8.87593e-06
-1.33994e-06
9.06536e-06
-6.09245e-07
-3.38607e-06
6.56034e-06
4.07885e-05
2.9711e-06
2.31735e-05
2.34176e-07
5.33246e-06
-5.35864e-07
3.11472e-06
-4.64159e-07
7.90582e-08
-5.74294e-07
5.83593e-07
-5.91373e-07
-1.58863e-07
-7.12093e-07
6.65567e-07
-9.93987e-07
1.96647e-06
-1.46884e-06
3.33166e-06
-1.99163e-06
3.56945e-06
-2.28187e-06
1.36119e-06
-1.94006e-06
-3.98932e-06
-5.65137e-07
-1.24042e-05
2.02959e-06
-2.14299e-05
5.02056e-06
-2.19686e-05
6.58429e-06
-8.56873e-06
6.15868e-06
7.11636e-06
4.02091e-06
1.31704e-05
-1.15239e-06
2.10488e-05
-7.59928e-06
3.84825e-05
-1.13914e-05
4.02415e-05
-1.32618e-05
2.6357e-05
-1.47787e-05
1.55142e-05
-1.58049e-05
9.06919e-06
-1.63171e-05
4.43048e-06
-1.63551e-05
7.20281e-07
-1.59542e-05
-2.53044e-06
-1.51422e-05
-5.50771e-06
-1.3943e-05
-8.29164e-06
-1.23775e-05
-1.09121e-05
-1.04651e-05
-1.33819e-05
-8.22998e-06
-1.56713e-05
-5.71559e-06
-1.76501e-05
-3.00167e-06
-1.90773e-05
-2.08585e-07
-1.96839e-05
2.50468e-06
-1.92279e-05
4.97139e-06
-1.76206e-05
7.05371e-06
-1.50137e-05
8.6578e-06
-1.17258e-05
9.75467e-06
-8.15533e-06
1.03849e-05
-4.70318e-06
1.06378e-05
-1.70573e-06
1.06124e-05
5.93063e-07
1.03916e-05
2.08182e-06
1.00467e-05
2.78883e-06
9.64876e-06
2.85815e-06
9.26219e-06
2.50676e-06
8.93138e-06
1.96202e-06
8.67665e-06
1.38789e-06
8.50162e-06
8.56784e-07
8.40255e-06
3.78134e-07
8.3729e-06
-4.30591e-08
8.4036e-06
-4.10479e-07
8.48372e-06
-6.75176e-07
8.59938e-06
-9.42238e-07
8.7442e-06
-9.23838e-07
8.90165e-06
-1.49739e-06
9.11697e-06
-8.24566e-07
-3.65037e-06
7.07121e-06
4.37173e-05
3.68341e-06
2.65613e-05
6.58031e-07
8.35783e-06
-4.07836e-07
4.18059e-06
-4.81287e-07
1.52508e-07
-5.95374e-07
6.9768e-07
-6.23879e-07
-1.30358e-07
-7.46472e-07
7.8816e-07
-1.02055e-06
2.24055e-06
-1.48861e-06
3.79972e-06
-2.02184e-06
4.10268e-06
-2.35824e-06
1.69759e-06
-2.11372e-06
-4.23383e-06
-9.00608e-07
-1.36173e-05
1.49401e-06
-2.38245e-05
4.40029e-06
-2.48749e-05
6.01185e-06
-1.01803e-05
5.65083e-06
7.47737e-06
3.32412e-06
1.54971e-05
-2.09124e-06
2.64642e-05
-8.03698e-06
4.44282e-05
-1.11681e-05
4.33726e-05
-1.2869e-05
2.8058e-05
-1.43424e-05
1.69875e-05
-1.53282e-05
1.0055e-05
-1.58178e-05
4.92004e-06
-1.5843e-05
7.45466e-07
-1.54361e-05
-2.93734e-06
-1.46233e-05
-6.32053e-06
-1.34271e-05
-9.4878e-06
-1.18679e-05
-1.24712e-05
-9.96463e-06
-1.52852e-05
-7.74008e-06
-1.78959e-05
-5.23684e-06
-2.01533e-05
-2.53426e-06
-2.17799e-05
2.44315e-07
-2.24625e-05
2.93684e-06
-2.19205e-05
5.37629e-06
-2.006e-05
7.42421e-06
-1.70616e-05
8.98617e-06
-1.32878e-05
1.00339e-05
-9.20307e-06
1.06112e-05
-5.28048e-06
1.08145e-05
-1.90902e-06
1.07509e-05
6.56686e-07
1.0506e-05
2.32673e-06
1.01456e-05
3.14919e-06
9.73342e-06
3.27033e-06
9.33138e-06
2.90881e-06
8.98609e-06
2.30731e-06
8.72061e-06
1.65337e-06
8.53921e-06
1.03818e-06
8.43706e-06
4.80288e-07
8.40625e-06
-1.22494e-08
8.43646e-06
-4.40689e-07
8.517e-06
-7.55712e-07
8.63141e-06
-1.05665e-06
8.7795e-06
-1.07193e-06
8.92735e-06
-1.64524e-06
9.1562e-06
-1.05341e-06
-3.87006e-06
7.51653e-06
4.62007e-05
4.36816e-06
2.97097e-05
1.18354e-06
1.15425e-05
-2.10003e-07
5.57414e-06
-4.79179e-07
4.21684e-07
-6.07809e-07
8.26311e-07
-6.46584e-07
-9.1584e-08
-7.69891e-07
9.11467e-07
-1.03471e-06
2.50538e-06
-1.49461e-06
4.25962e-06
-2.03686e-06
4.64493e-06
-2.41853e-06
2.07927e-06
-2.27277e-06
-4.3796e-06
-1.22357e-06
-1.46665e-05
9.52417e-07
-2.60005e-05
3.75649e-06
-2.7679e-05
5.41968e-06
-1.18435e-05
5.11538e-06
7.78167e-06
2.60383e-06
1.80087e-05
-2.90696e-06
3.19749e-05
-8.28197e-06
4.98032e-05
-1.08783e-05
4.5969e-05
-1.24641e-05
2.96438e-05
-1.38807e-05
1.84041e-05
-1.48216e-05
1.09959e-05
-1.52854e-05
5.38386e-06
-1.52961e-05
7.56211e-07
-1.48825e-05
-3.35099e-06
-1.40684e-05
-7.13467e-06
-1.28751e-05
-1.0681e-05
-1.13226e-05
-1.40237e-05
-9.42901e-06
-1.71788e-05
-7.21596e-06
-2.01089e-05
-4.7249e-06
-2.26444e-05
-2.03487e-06
-2.44699e-05
7.27413e-07
-2.52247e-05
3.39713e-06
-2.45902e-05
5.80778e-06
-2.24707e-05
7.81961e-06
-1.90735e-05
9.33753e-06
-1.48057e-05
1.03338e-05
-1.01993e-05
1.08547e-05
-5.80143e-06
1.10033e-05
-2.05757e-06
1.08958e-05
7.64198e-07
1.06226e-05
2.59994e-06
1.02451e-05
3.52664e-06
9.81858e-06
3.69686e-06
9.40072e-06
3.32667e-06
9.03981e-06
2.66822e-06
8.76227e-06
1.93091e-06
8.57377e-06
1.22668e-06
8.46856e-06
5.85497e-07
8.43707e-06
1.92382e-08
8.46744e-06
-4.71053e-07
8.5486e-06
-8.36877e-07
8.66254e-06
-1.17059e-06
8.81233e-06
-1.22172e-06
8.95456e-06
-1.78747e-06
9.18901e-06
-1.28786e-06
-4.05941e-06
7.90397e-06
4.82968e-05
5.01948e-06
3.25942e-05
1.77471e-06
1.47872e-05
5.37076e-08
7.29514e-06
-4.48236e-07
9.23628e-07
-6.09873e-07
9.87947e-07
-6.58913e-07
-4.25437e-08
-7.81668e-07
1.03422e-06
-1.03548e-06
2.75919e-06
-1.48536e-06
4.7095e-06
-2.03407e-06
5.19363e-06
-2.45857e-06
2.50377e-06
-2.41111e-06
-4.42706e-06
-1.52714e-06
-1.55504e-05
4.18331e-07
-2.7946e-05
3.1038e-06
-3.03645e-05
4.81668e-06
-1.35564e-05
4.55946e-06
8.03888e-06
1.88209e-06
2.06861e-05
-3.60193e-06
3.7459e-05
-8.38181e-06
5.45831e-05
-1.05467e-05
4.81338e-05
-1.2044e-05
3.11412e-05
-1.33944e-05
1.97545e-05
-1.42876e-05
1.1889e-05
-1.47237e-05
5.81992e-06
-1.47189e-05
7.51458e-07
-1.4298e-05
-3.77195e-06
-1.34822e-05
-7.95044e-06
-1.22919e-05
-1.18713e-05
-1.07462e-05
-1.55693e-05
-8.8628e-06
-1.90623e-05
-6.66198e-06
-2.23097e-05
-4.18398e-06
-2.51224e-05
-1.50768e-06
-2.71462e-05
1.23662e-06
-2.7969e-05
3.88199e-06
-2.72355e-05
6.26259e-06
-2.48513e-05
8.23692e-06
-2.10478e-05
9.70926e-06
-1.6278e-05
1.06523e-05
-1.11423e-05
1.11144e-05
-6.26353e-06
1.12042e-05
-2.14741e-06
1.10477e-05
9.20675e-07
1.07421e-05
2.90558e-06
1.03462e-05
3.92257e-06
9.9062e-06
4.13683e-06
9.47363e-06
3.75924e-06
9.09706e-06
3.04479e-06
8.80647e-06
2.2215e-06
8.60981e-06
1.42334e-06
8.50095e-06
6.94362e-07
8.46862e-06
5.15613e-08
8.49924e-06
-5.01665e-07
8.58093e-06
-9.18567e-07
8.69463e-06
-1.2843e-06
8.84493e-06
-1.37201e-06
8.98363e-06
-1.92617e-06
9.21876e-06
-1.52299e-06
-4.22684e-06
8.2405e-06
5.00563e-05
5.63275e-06
3.52019e-05
2.4104e-06
1.80096e-05
4.30627e-07
9.27491e-06
-3.78313e-07
1.73257e-06
-5.98709e-07
1.20834e-06
-6.60367e-07
1.91148e-08
-7.8126e-07
1.15512e-06
-1.02193e-06
2.99986e-06
-1.45944e-06
5.147e-06
-2.01111e-06
5.74531e-06
-2.47467e-06
2.96733e-06
-2.52347e-06
-4.37826e-06
-1.80516e-06
-1.62688e-05
-9.75989e-08
-2.96535e-05
2.45715e-06
-3.29192e-05
4.21057e-06
-1.53098e-05
3.98825e-06
8.26121e-06
1.17275e-06
2.35016e-05
-4.18356e-06
4.28153e-05
-8.37123e-06
5.87708e-05
-1.01867e-05
4.99493e-05
-1.16068e-05
3.25613e-05
-1.2885e-05
2.10327e-05
-1.37291e-05
1.27332e-05
-1.41362e-05
6.22701e-06
-1.41153e-05
7.30553e-07
-1.36867e-05
-4.20057e-06
-1.28691e-05
-8.76802e-06
-1.16816e-05
-1.30588e-05
-1.0143e-05
-1.71079e-05
-8.27011e-06
-2.09352e-05
-6.0821e-06
-2.44977e-05
-3.61783e-06
-2.75867e-05
-9.56396e-07
-2.98077e-05
1.7684e-06
-3.06938e-05
4.38831e-06
-2.98555e-05
6.73782e-06
-2.72008e-05
8.67349e-06
-2.29835e-05
1.00989e-05
-1.77035e-05
1.09873e-05
-1.20307e-05
1.13887e-05
-6.66494e-06
1.14168e-05
-2.17548e-06
1.12069e-05
1.13054e-06
1.08648e-05
3.24777e-06
1.04487e-05
4.33861e-06
9.99641e-06
4.58913e-06
9.55114e-06
4.20451e-06
9.15994e-06
3.43599e-06
8.85598e-06
2.52546e-06
8.65018e-06
1.62914e-06
8.53678e-06
8.07761e-07
8.50308e-06
8.52619e-08
8.53365e-06
-5.32237e-07
8.61553e-06
-1.00044e-06
8.72886e-06
-1.39763e-06
8.87866e-06
-1.52181e-06
9.01479e-06
-2.06229e-06
9.2474e-06
-1.75561e-06
-4.37746e-06
8.53232e-06
5.15239e-05
6.20469e-06
3.75296e-05
3.06859e-06
2.11457e-05
8.6329e-07
1.14802e-05
-2.445e-07
2.84036e-06
-5.69395e-07
1.53324e-06
-6.50342e-07
1.00062e-07
-7.6835e-07
1.27312e-06
-9.93381e-07
3.22489e-06
-1.41566e-06
5.56929e-06
-1.96608e-06
6.29572e-06
-2.4639e-06
3.46515e-06
-2.60558e-06
-4.23658e-06
-2.05259e-06
-1.68217e-05
-5.74338e-07
-3.11318e-05
1.82653e-06
-3.53201e-05
3.60497e-06
-1.70882e-05
3.40402e-06
8.46216e-06
4.85891e-07
2.64197e-05
-4.66022e-06
4.79614e-05
-8.27524e-06
6.23858e-05
-9.80582e-06
5.14799e-05
-1.11519e-05
3.39073e-05
-1.23543e-05
2.22351e-05
-1.31488e-05
1.35276e-05
-1.35262e-05
6.60442e-06
-1.34888e-05
6.93146e-07
-1.30523e-05
-4.63704e-06
-1.22329e-05
-9.58749e-06
-1.10482e-05
-1.42435e-05
-9.51671e-06
-1.86394e-05
-7.65462e-06
-2.27972e-05
-5.4798e-06
-2.66726e-05
-3.02976e-06
-3.00367e-05
-3.84232e-07
-3.24532e-05
2.31965e-06
-3.33977e-05
4.91332e-06
-3.24491e-05
7.2309e-06
-2.95183e-05
9.12692e-06
-2.48795e-05
1.05044e-05
-1.9081e-05
1.1337e-05
-1.28633e-05
1.16764e-05
-7.0043e-06
1.16404e-05
-2.13949e-06
1.13734e-05
1.39753e-06
1.09906e-05
3.63057e-06
1.05524e-05
4.77683e-06
1.00886e-05
5.05288e-06
9.63309e-06
4.66002e-06
9.2292e-06
3.83988e-06
8.91234e-06
2.84232e-06
8.69678e-06
1.84469e-06
8.57794e-06
9.26608e-07
8.54207e-06
1.21125e-07
8.57204e-06
-5.62202e-07
8.65354e-06
-1.08194e-06
8.7661e-06
-1.5102e-06
8.91448e-06
-1.67019e-06
9.0483e-06
-2.19612e-06
9.27611e-06
-1.98342e-06
-4.51444e-06
8.78498e-06
5.2739e-05
6.73333e-06
3.95812e-05
3.73329e-06
2.41457e-05
1.35634e-06
1.38572e-05
-3.15149e-08
4.22821e-06
-5.13765e-07
2.01549e-06
-6.2783e-07
2.14128e-07
-7.42857e-07
1.38815e-06
-9.49451e-07
3.43149e-06
-1.35324e-06
5.97308e-06
-1.89763e-06
6.84011e-06
-2.42416e-06
3.99167e-06
-2.65425e-06
-4.00648e-06
-2.26537e-06
-1.72106e-05
-1.01607e-06
-3.23811e-05
1.21344e-06
-3.75496e-05
2.99747e-06
-1.88723e-05
2.8043e-06
8.65533e-06
-1.82205e-07
2.94062e-05
-5.03734e-06
5.28165e-05
-8.11189e-06
6.54604e-05
-9.40781e-06
5.27758e-05
-1.06792e-05
3.51787e-05
-1.18044e-05
2.33603e-05
-1.25492e-05
1.42725e-05
-1.28967e-05
6.95186e-06
-1.28426e-05
6.39106e-07
-1.23983e-05
-5.08138e-06
-1.15769e-05
-1.04088e-05
-1.03951e-05
-1.54253e-05
-8.87072e-06
-2.01638e-05
-7.01957e-06
-2.46484e-05
-4.85819e-06
-2.88339e-05
-2.4227e-06
-3.24722e-05
2.05769e-07
-3.50817e-05
2.88763e-06
-3.60796e-05
5.45456e-06
-3.50161e-05
7.73954e-06
-3.18033e-05
9.59507e-06
-2.6735e-05
1.09236e-05
-2.04095e-05
1.16994e-05
-1.36392e-05
1.19757e-05
-7.28057e-06
1.1874e-05
-2.03776e-06
1.15468e-05
1.72467e-06
1.11196e-05
4.05779e-06
1.06568e-05
5.23968e-06
1.0182e-05
5.52768e-06
9.71872e-06
5.12327e-06
9.30471e-06
4.25389e-06
8.9762e-06
3.17083e-06
8.7508e-06
2.07009e-06
8.62573e-06
1.05167e-06
8.58682e-06
1.60036e-07
8.6154e-06
-5.90778e-07
8.69581e-06
-1.16235e-06
8.80698e-06
-1.62136e-06
8.95304e-06
-1.81625e-06
9.08438e-06
-2.32745e-06
9.3057e-06
-2.20474e-06
-4.63973e-06
9.00348e-06
5.37355e-05
7.21794e-06
4.13668e-05
4.39236e-06
2.69713e-05
1.89998e-06
1.63495e-05
2.2496e-07
5.90323e-06
-4.19887e-07
2.66033e-06
-5.90932e-07
3.85173e-07
-7.04858e-07
1.50208e-06
-8.90162e-07
3.61679e-06
-1.27183e-06
6.35474e-06
-1.8051e-06
7.37339e-06
-2.3543e-06
4.54087e-06
-2.66744e-06
-3.69334e-06
-2.44012e-06
-1.74379e-05
-1.41756e-06
-3.34036e-05
6.10175e-07
-3.95773e-05
2.38073e-06
-2.06428e-05
2.18928e-06
8.84678e-06
-8.21713e-07
3.24172e-05
-5.31918e-06
5.7314e-05
-7.89441e-06
6.80356e-05
-8.99462e-06
5.3876e-05
-1.01891e-05
3.63732e-05
-1.1237e-05
2.44082e-05
-1.19326e-05
1.49681e-05
-1.22501e-05
7.26932e-06
-1.21794e-05
5.68466e-07
-1.17273e-05
-5.53351e-06
-1.09041e-05
-1.1232e-05
-9.72516e-06
-1.66043e-05
-8.20796e-06
-2.1681e-05
-6.3678e-06
-2.64886e-05
-4.21999e-06
-3.09817e-05
-1.79933e-06
-3.48929e-05
8.10988e-07
-3.7692e-05
3.46992e-06
-3.87385e-05
6.00975e-06
-3.75559e-05
8.26155e-06
-3.40551e-05
1.00759e-05
-2.85494e-05
1.13547e-05
-2.16883e-05
1.20729e-05
-1.43574e-05
1.22853e-05
-7.49296e-06
1.21167e-05
-1.86911e-06
1.1727e-05
2.11433e-06
1.12519e-05
4.53288e-06
1.07617e-05
5.72991e-06
1.02757e-05
6.01368e-06
9.80699e-06
5.59198e-06
9.38578e-06
4.6751e-06
9.04753e-06
3.50907e-06
8.81276e-06
2.30486e-06
8.68097e-06
1.18346e-06
8.63813e-06
2.02874e-07
8.66442e-06
-6.1706e-07
8.74288e-06
-1.24082e-06
8.85189e-06
-1.73037e-06
8.99477e-06
-1.95913e-06
9.12316e-06
-2.45585e-06
9.33669e-06
-2.41826e-06
-4.75447e-06
9.19232e-06
5.45432e-05
7.65879e-06
4.29003e-05
5.03626e-06
2.95938e-05
2.48493e-06
1.89009e-05
5.66144e-07
7.82202e-06
-2.76803e-07
3.50328e-06
-5.36298e-07
6.44667e-07
-6.54419e-07
1.6202e-06
-8.15921e-07
3.77829e-06
-1.17155e-06
6.71037e-06
-1.68845e-06
7.89029e-06
-2.25406e-06
5.10648e-06
-2.64417e-06
-3.30324e-06
-2.57457e-06
-1.75075e-05
-1.77825e-06
-3.42e-05
-2.07587e-08
-4.13348e-05
1.74752e-06
-2.24111e-05
1.566e-06
9.0283e-06
-1.41849e-06
3.54017e-05
-5.51324e-06
6.14087e-05
-7.63264e-06
7.0155e-05
-8.56724e-06
5.48106e-05
-9.68254e-06
3.74885e-05
-1.0654e-05
2.53797e-05
-1.1301e-05
1.5615e-05
-1.15886e-05
7.55699e-06
-1.15016e-05
4.81376e-07
-1.10418e-05
-5.99328e-06
-1.0217e-05
-1.20568e-05
-9.04097e-06
-1.77803e-05
-7.53096e-06
-2.3191e-05
-5.7018e-06
-2.83177e-05
-3.5676e-06
-3.31159e-05
-1.16215e-06
-3.72983e-05
1.42912e-06
-4.02832e-05
4.06441e-06
-4.13738e-05
6.57679e-06
-4.00683e-05
8.7949e-06
-3.62732e-05
1.05675e-05
-3.0322e-05
1.17959e-05
-2.29167e-05
1.24558e-05
-1.50173e-05
1.26037e-05
-7.64085e-06
1.23673e-05
-1.63278e-06
1.19134e-05
2.56825e-06
1.13875e-05
5.05883e-06
1.0867e-05
6.25036e-06
1.03691e-05
6.51161e-06
9.89677e-06
6.06428e-06
9.47137e-06
5.1005e-06
9.12579e-06
3.85465e-06
8.88265e-06
2.54801e-06
8.74395e-06
1.32216e-06
8.69641e-06
2.50423e-07
8.71944e-06
-6.40096e-07
8.79503e-06
-1.31641e-06
8.90104e-06
-1.83637e-06
9.03987e-06
-2.09797e-06
9.1647e-06
-2.58067e-06
9.3694e-06
-2.62297e-06
-4.85925e-06
9.35556e-06
5.51876e-05
8.057e-06
4.41988e-05
5.65736e-06
3.19935e-05
3.10086e-06
2.14574e-05
9.85512e-07
9.93737e-06
-8.06936e-08
4.56949e-06
-4.58818e-07
1.02279e-06
-5.91309e-07
1.75269e-06
-7.27479e-07
3.91446e-06
-1.05302e-06
7.03591e-06
-1.54831e-06
8.38558e-06
-2.12402e-06
5.68219e-06
-2.58444e-06
-2.84282e-06
-2.66774e-06
-1.74242e-05
-2.09809e-06
-3.47696e-05
-5.67644e-07
-4.28653e-05
1.09788e-06
-2.40766e-05
9.43857e-07
9.18233e-06
-1.96753e-06
3.83131e-05
-5.62737e-06
6.50686e-05
-7.33398e-06
7.18616e-05
-8.12615e-06
5.56028e-05
-9.16026e-06
3.85226e-05
-1.00569e-05
2.62763e-05
-1.06561e-05
1.62142e-05
-1.09143e-05
7.8152e-06
-1.0811e-05
3.78071e-07
-1.03438e-05
-6.46045e-06
-9.51757e-06
-1.2883e-05
-8.34468e-06
-1.89532e-05
-6.84193e-06
-2.46938e-05
-5.02377e-06
-3.01359e-05
-2.90318e-06
-3.52365e-05
-5.13389e-07
-3.96881e-05
2.0579e-06
-4.28545e-05
4.66912e-06
-4.3985e-05
7.15365e-06
-4.25528e-05
9.33758e-06
-3.84572e-05
1.10679e-05
-3.20523e-05
1.22454e-05
-2.40941e-05
1.28464e-05
-1.56184e-05
1.29294e-05
-7.72378e-06
1.26249e-05
-1.32825e-06
1.21055e-05
3.08765e-06
1.15262e-05
5.63814e-06
1.09726e-05
6.80387e-06
1.04616e-05
7.02269e-06
9.98697e-06
6.53887e-06
9.56026e-06
5.52721e-06
9.21004e-06
4.20487e-06
8.95997e-06
2.79808e-06
8.81454e-06
1.46758e-06
8.76166e-06
3.03301e-07
8.78053e-06
-6.5896e-07
8.85229e-06
-1.38818e-06
8.9544e-06
-1.93848e-06
9.08837e-06
-2.23194e-06
9.20892e-06
-2.70123e-06
9.404e-06
-2.81805e-06
-4.95429e-06
9.49685e-06
5.56907e-05
8.41434e-06
4.52814e-05
6.24962e-06
3.41582e-05
3.7371e-06
2.39699e-05
1.47366e-06
1.22008e-05
1.89483e-07
5.85367e-06
-3.51572e-07
1.56385e-06
-5.14583e-07
1.9157e-06
-6.25832e-07
4.02571e-06
-9.17288e-07
7.32736e-06
-1.38583e-06
8.85412e-06
-1.9654e-06
6.26177e-06
-2.48908e-06
-2.31915e-06
-2.71942e-06
-1.71939e-05
-2.37814e-06
-3.51109e-05
-1.12749e-06
-4.41159e-05
4.44107e-07
-2.56482e-05
3.37029e-07
9.28941e-06
-2.46318e-06
4.11133e-05
-5.66893e-06
6.82743e-05
-7.00397e-06
7.31966e-05
-7.67164e-06
5.62705e-05
-8.62326e-06
3.94742e-05
-9.44699e-06
2.71e-05
-9.99935e-06
1.67666e-05
-1.02285e-05
8.04439e-06
-1.01093e-05
2.58841e-07
-9.63504e-06
-6.93473e-06
-8.80769e-06
-1.37104e-05
-7.63814e-06
-2.01227e-05
-6.14277e-06
-2.61891e-05
-4.33564e-06
-3.1943e-05
-2.22862e-06
-3.73436e-05
1.44893e-07
-4.20616e-05
2.69532e-06
-4.5405e-05
5.28218e-06
-4.65719e-05
7.73841e-06
-4.5009e-05
9.88765e-06
-4.06064e-05
1.15753e-05
-3.374e-05
1.27015e-05
-2.52203e-05
1.32434e-05
-1.61603e-05
1.3261e-05
-7.74146e-06
1.28881e-05
-9.55296e-07
1.23025e-05
3.67326e-06
1.16678e-05
6.27277e-06
1.10786e-05
7.39311e-06
1.05528e-05
7.54851e-06
1.00766e-05
7.015e-06
9.65116e-06
5.95269e-06
9.29908e-06
4.55695e-06
9.04387e-06
3.05329e-06
8.89222e-06
1.61923e-06
8.8336e-06
3.61919e-07
8.84746e-06
-6.72816e-07
8.91447e-06
-1.45519e-06
9.01181e-06
-2.03582e-06
9.14012e-06
-2.36026e-06
9.25569e-06
-2.81679e-06
9.4405e-06
-3.00287e-06
-5.03961e-06
9.61943e-06
5.60713e-05
8.73308e-06
4.61677e-05
6.80844e-06
3.60828e-05
4.38321e-06
2.63951e-05
2.01927e-06
1.45647e-05
5.25427e-07
7.34751e-06
-2.03365e-07
2.29264e-06
-4.22009e-07
2.13434e-06
-5.12051e-07
4.11576e-06
-7.65755e-07
7.58107e-06
-1.20261e-06
9.29098e-06
-1.77997e-06
6.83913e-06
-2.35949e-06
-1.73963e-06
-2.72985e-06
-1.68235e-05
-2.61588e-06
-3.52249e-05
-1.65621e-06
-4.50756e-05
-2.03145e-07
-2.71013e-05
-2.8319e-07
9.36945e-06
-2.90067e-06
4.37308e-05
-5.64452e-06
7.10182e-05
-6.6468e-06
7.41989e-05
-7.20389e-06
5.68275e-05
-8.07247e-06
4.03428e-05
-8.82562e-06
2.78532e-05
-9.33219e-06
1.72732e-05
-9.53287e-06
8.24507e-06
-9.39804e-06
1.2401e-07
-8.91697e-06
-7.41579e-06
-8.08884e-06
-1.45385e-05
-6.92294e-06
-2.12886e-05
-5.43512e-06
-2.76769e-05
-3.63908e-06
-3.3739e-05
-1.5457e-06
-3.94369e-05
8.10581e-07
-4.44179e-05
3.33958e-06
-4.7934e-05
5.90186e-06
-4.91341e-05
8.32921e-06
-4.74364e-05
1.04432e-05
-4.27204e-05
1.20878e-05
-3.53846e-05
1.31625e-05
-2.62949e-05
1.3645e-05
-1.66428e-05
1.35972e-05
-7.69373e-06
1.31558e-05
-5.13875e-07
1.25036e-05
4.32545e-06
1.18122e-05
6.96417e-06
1.11849e-05
8.02049e-06
1.06424e-05
8.09092e-06
1.01649e-05
7.4925e-06
9.74283e-06
6.37481e-06
9.39161e-06
4.90817e-06
9.13327e-06
3.31163e-06
8.9762e-06
1.7763e-06
8.91167e-06
4.26451e-07
8.91982e-06
-6.80968e-07
8.98122e-06
-1.51658e-06
9.07295e-06
-2.12755e-06
9.19488e-06
-2.48218e-06
9.30476e-06
-2.92667e-06
9.4788e-06
-3.17691e-06
-5.11509e-06
9.72617e-06
5.63451e-05
9.01591e-06
4.6878e-05
7.33048e-06
3.77683e-05
5.02938e-06
2.86962e-05
2.61076e-06
1.69834e-05
9.2404e-07
9.03423e-06
3.98238e-09
3.2127e-06
-3.09413e-07
2.44774e-06
-3.87017e-07
4.19336e-06
-6.00086e-07
7.79413e-06
-1.0006e-06
9.6915e-06
-1.56982e-06
7.40835e-06
-2.19748e-06
-1.11197e-06
-2.69952e-06
-1.63215e-05
-2.80761e-06
-3.51168e-05
-2.13723e-06
-4.5746e-05
-8.35376e-07
-2.84031e-05
-9.04023e-07
9.4381e-06
-3.27481e-06
4.61015e-05
-5.56002e-06
7.33034e-05
-6.26562e-06
7.49045e-05
-6.72306e-06
5.7285e-05
-7.50881e-06
4.11286e-05
-8.19383e-06
2.85382e-05
-8.65572e-06
1.77351e-05
-8.82843e-06
8.41778e-06
-8.67835e-06
-2.60763e-08
-8.19084e-06
-7.9033e-06
-7.36231e-06
-1.53671e-05
-6.20041e-06
-2.24505e-05
-4.72041e-06
-2.91569e-05
-2.93559e-06
-3.55239e-05
-8.56079e-07
-4.15164e-05
1.48227e-06
-4.67562e-05
3.98918e-06
-5.04409e-05
6.52649e-06
-5.16715e-05
8.92425e-06
-4.98341e-05
1.10023e-05
-4.47985e-05
1.26036e-05
-3.69858e-05
1.36267e-05
-2.7318e-05
1.40498e-05
-1.70659e-05
1.39367e-05
-7.58062e-06
1.3427e-05
-4.14674e-09
1.27082e-05
5.04423e-06
1.1959e-05
7.71333e-06
1.12914e-05
8.6881e-06
1.07304e-05
8.6519e-06
1.02512e-05
7.97169e-06
9.83409e-06
6.79195e-06
9.48627e-06
5.25599e-06
9.22693e-06
3.57097e-06
9.06551e-06
1.93773e-06
8.99513e-06
4.96827e-07
8.99705e-06
-6.82888e-07
9.05208e-06
-1.57161e-06
9.13744e-06
-2.21292e-06
9.2523e-06
-2.59703e-06
9.35588e-06
-3.03026e-06
9.51872e-06
-3.33975e-06
-5.1806e-06
9.8196e-06
5.65255e-05
9.26573e-06
4.74318e-05
7.8136e-06
3.92204e-05
5.66668e-06
3.08431e-05
3.23746e-06
1.94126e-05
1.38375e-06
1.08879e-05
2.44852e-07
4.35159e-06
-1.70193e-07
2.86278e-06
-2.51024e-07
4.27419e-06
-4.2208e-07
7.96519e-06
-7.81949e-07
1.00514e-05
-1.33726e-06
7.96365e-06
-2.00508e-06
-4.44145e-07
-2.62914e-06
-1.56974e-05
-2.95016e-06
-3.47957e-05
-2.56271e-06
-4.61334e-05
-1.44299e-06
-2.95229e-05
-1.48953e-06
9.48463e-06
-3.58141e-06
4.81934e-05
-5.42055e-06
7.51425e-05
-5.86282e-06
7.53468e-05
-6.22934e-06
5.76515e-05
-6.93317e-06
4.18324e-05
-7.55259e-06
2.91576e-05
-7.97095e-06
1.81534e-05
-8.11628e-06
8.5631e-06
-7.95129e-06
-1.91065e-07
-7.4577e-06
-8.39689e-06
-6.62919e-06
-1.61956e-05
-5.47171e-06
-2.3608e-05
-3.99988e-06
-3.06288e-05
-2.22647e-06
-3.72973e-05
-1.61104e-07
-4.35818e-05
2.15831e-06
-4.90757e-05
4.64275e-06
-5.29253e-05
7.15452e-06
-5.41832e-05
9.52181e-06
-5.22014e-05
1.15632e-05
-4.68399e-05
1.31208e-05
-3.85434e-05
1.40923e-05
-2.82896e-05
1.44562e-05
-1.74298e-05
1.4278e-05
-7.40238e-06
1.37003e-05
5.73533e-07
1.29152e-05
5.82935e-06
1.21077e-05
8.52078e-06
1.13982e-05
9.39767e-06
1.08166e-05
9.23345e-06
1.0335e-05