/*--------------------------------*- C++ -*----------------------------------*\
| =========                 |                                                 |
| \\      /  F ield         | OpenFOAM: The Open Source CFD Toolbox           |
|  \\    /   O peration     | Version:  2.4.0                                 |
|   \\  /    A nd           | Web:      www.OpenFOAM.org                      |
|    \\/     M anipulation  |                                                 |
\*---------------------------------------------------------------------------*/
FoamFile
{
    version     2.0;
    format      ascii;
    class       volVectorField;
    location    "0.17";
    object      U;
}
// * * * * * * * * * * * * * * * * * * * * * * * * * * * * * * * * * * * * * //

dimensions      [0 1 -1 0 0 0 0];

internalField   nonuniform List<vector> 
6000
(
(0.165746 -0.00688333 7.37367e-19)
(-0.00780368 0.00142489 0)
(-0.00160882 0.000247178 6.66904e-18)
(-0.0110056 0.00197041 0)
(-0.00456738 0.000423743 0)
(0.00511231 -0.00159522 0)
(0.0162589 -0.00357083 5.80105e-18)
(0.0245502 -0.00481405 2.79143e-21)
(0.0298486 -0.0054128 0)
(0.0330857 -0.00563087 0)
(0.0353956 -0.00568486 6.44294e-18)
(0.0373126 -0.00565557 -1.29447e-17)
(0.0389521 -0.0055599 0)
(0.040337 -0.00540714 0)
(0.0415056 -0.00520883 -3.22482e-18)
(0.042503 -0.00497523 0)
(0.0433661 -0.00471395 0)
(0.0441222 -0.00443051 -3.17443e-18)
(0.0447917 -0.0041294 -3.15476e-18)
(0.0453905 -0.00381399 0)
(0.0459309 -0.00348656 3.11514e-18)
(0.0464229 -0.00314887 1.548e-18)
(0.0468743 -0.00280231 -1.53884e-18)
(0.0472916 -0.002448 0)
(0.0476802 -0.00208685 0)
(0.0480446 -0.00171956 0)
(0.0483885 -0.00134673 7.53904e-19)
(0.0487155 -0.000968803 -7.50835e-19)
(0.0490286 -0.000586152 0)
(0.0493305 -0.000199054 0)
(0.049624 0.00019228 9.29585e-20)
(0.0499116 0.000587665 0)
(0.0501961 0.000986722 7.40527e-19)
(0.0504796 0.00139212 -7.39405e-19)
(0.0507653 0.00180143 0)
(0.0510564 0.00221342 0)
(0.0513555 0.00263077 1.47512e-18)
(0.0516664 0.00305353 0)
(0.0519929 0.00348219 1.47435e-18)
(0.0523393 0.00391746 0)
(0.0527107 0.00436024 0)
(0.0531127 0.00481166 2.94661e-18)
(0.0535519 0.00527311 -5.88852e-18)
(0.0540364 0.00574634 0)
(0.0545741 0.00623342 0)
(0.0551786 0.00673712 2.92464e-18)
(0.0558564 0.00726027 0)
(0.0566378 0.00780801 0)
(0.0575091 0.00838253 -5.72267e-18)
(0.0585646 0.00899703 -5.64823e-18)
(0.0596819 0.0096431 -5.5441e-18)
(0.0612153 0.0103668 -2.50645e-21)
(0.0625544 0.0111014 5.22044e-18)
(0.0650991 0.0120273 0)
(0.0662461 0.0128223 -3.87229e-21)
(0.071393 0.0142488 -4.32751e-18)
(0.070538 0.0148383 3.64789e-18)
(0.0830519 0.0177048 3.28954e-18)
(0.0752196 0.0171982 5.79301e-21)
(0.105088 0.0235583 0)
(0.361729 -0.0169477 -1.1576e-18)
(0.00913708 0.00524046 3.89301e-18)
(0.00346952 -7.7657e-05 -3.98866e-18)
(-0.0164641 0.00350073 -4.74703e-18)
(0.00263769 -0.00161921 0)
(0.0296563 -0.00735337 0)
(0.058123 -0.0123247 -6.56356e-18)
(0.0785757 -0.0151081 1.36722e-17)
(0.0910882 -0.0162169 0)
(0.0985062 -0.01646 0)
(0.103689 -0.0163741 -7.06652e-18)
(0.107902 -0.0161117 7.06017e-18)
(0.111416 -0.0156922 3.51672e-18)
(0.114302 -0.0151386 0)
(0.116668 -0.0144828 3.47349e-18)
(0.118634 -0.0137514 0)
(0.120292 -0.0129624 0)
(0.12171 -0.0121286 0)
(0.122938 -0.0112599 0)
(0.124017 -0.0103635 0)
(0.124975 -0.00944462 -5.60806e-23)
(0.125837 -0.00850706 0)
(0.126622 -0.00755375 -1.62834e-18)
(0.127345 -0.00658694 0)
(0.128019 -0.00560832 0)
(0.128654 -0.00461917 7.99052e-19)
(0.129261 -0.00362042 -7.94972e-19)
(0.129846 -0.00261271 1.51418e-23)
(0.130417 -0.00159646 3.94111e-19)
(0.13098 -0.000571886 0)
(0.131542 0.000460958 -9.79268e-20)
(0.132109 0.00150213 -3.9083e-19)
(0.132686 0.0025514 -3.86347e-23)
(0.133279 0.00361072 7.79557e-19)
(0.133894 0.00468396 -7.79037e-19)
(0.134539 0.00576488 0)
(0.135221 0.00685818 0)
(0.135946 0.00796519 0)
(0.136725 0.00908761 0)
(0.137567 0.0102275 0)
(0.138483 0.0113875 -3.13051e-18)
(0.139487 0.0125705 0)
(0.140595 0.0137803 3.14e-18)
(0.141825 0.0150214 3.14262e-18)
(0.143198 0.0162992 0)
(0.144744 0.0176207 0)
(0.146483 0.0189931 0)
(0.148482 0.0204291 0)
(0.150724 0.0219352 6.22561e-18)
(0.153406 0.0235422 0)
(0.156303 0.0252348 0)
(0.160139 0.0271179 -5.9809e-18)
(0.163715 0.0290478 -5.81415e-18)
(0.169887 0.0314412 0)
(0.173411 0.0335607 -1.05387e-17)
(0.185372 0.0371646 0)
(0.185262 0.0389039 -8.42905e-18)
(0.213373 0.0458765 -3.82295e-18)
(0.199369 0.0453285 2.03601e-18)
(0.266127 0.0598526 2.18937e-18)
(0.502888 -0.0122716 -1.7522e-19)
(0.0520051 0.00681372 -3.85776e-18)
(0.0170271 -0.00129271 0)
(-0.00874356 0.00172797 4.75312e-18)
(0.021547 -0.00731992 0)
(0.0637299 -0.0163749 0)
(0.106788 -0.0234644 0)
(0.137647 -0.0269903 -6.82115e-18)
(0.156178 -0.028014 0)
(0.166833 -0.0279058 -7.03224e-18)
(0.174011 -0.0274366 0)
(0.179695 -0.0267586 0)
(0.184323 -0.025865 -3.51155e-18)
(0.188012 -0.0247873 0)
(0.190931 -0.023577 0)
(0.193267 -0.0222739 0)
(0.195164 -0.0209035 0)
(0.196728 -0.0194829 0)
(0.198037 -0.0180247 0)
(0.19915 -0.0165381 3.3255e-18)
(0.200113 -0.0150296 -3.2988e-18)
(0.200962 -0.0135042 0)
(0.201727 -0.0119652 7.04046e-23)
(0.20243 -0.0104152 -1.61368e-18)
(0.20309 -0.00885584 0)
(0.203724 -0.00728812 -1.59448e-18)
(0.204345 -0.00571263 0)
(0.204965 -0.00412955 7.89579e-19)
(0.205593 -0.00253873 -3.93234e-19)
(0.206241 -0.000939729 0)
(0.206915 0.00066814 0)
(0.207625 0.00228578 3.89993e-19)
(0.208379 0.00391401 -6.56781e-23)
(0.209185 0.00555297 0)
(0.210052 0.00721087 1.55484e-18)
(0.210987 0.0088833 0)
(0.212002 0.0105736 1.55514e-18)
(0.213107 0.0122847 0)
(0.214315 0.0140196 0)
(0.215638 0.0157819 0)
(0.217092 0.0175757 3.1255e-18)
(0.218698 0.0194056 0)
(0.220475 0.0212774 0)
(0.222452 0.0231978 -3.13893e-18)
(0.224657 0.0251748 0)
(0.227134 0.0272187 0)
(0.229913 0.0293404 3.13567e-18)
(0.233088 0.0315574 -3.1264e-18)
(0.236648 0.0338816 -3.10979e-18)
(0.240856 0.0363525 0)
(0.245443 0.0389602 0)
(0.251352 0.0418336 0)
(0.25708 0.0448146 5.81294e-18)
(0.266329 0.0484249 5.60943e-18)
(0.272388 0.0517563 5.28154e-18)
(0.289699 0.0570385 0)
(0.291596 0.0600653 4.22848e-18)
(0.331138 0.0698419 7.68234e-18)
(0.315511 0.0702994 0)
(0.409436 0.0895357 -2.20952e-18)
(0.607551 -0.00115751 -1.46835e-19)
(0.112494 0.00758537 3.73519e-18)
(0.0394539 -0.00313261 -3.95748e-18)
(0.00992336 -0.00243515 0)
(0.0486168 -0.0154122 0)
(0.103019 -0.0273046 0)
(0.157856 -0.0357977 0)
(0.1975 -0.0394507 0)
(0.22106 -0.0399342 0)
(0.234044 -0.0391659 7.00655e-18)
(0.242236 -0.0381045 7.0259e-18)
(0.248419 -0.0368605 0)
(0.25327 -0.0353782 0)
(0.256951 -0.0336899 0)
(0.259678 -0.0318642 3.45344e-18)
(0.261694 -0.0299518 0)
(0.263194 -0.0279826 3.39798e-18)
(0.264318 -0.0259755 -3.36906e-18)
(0.265168 -0.0239436 0)
(0.26582 -0.0218964 -3.31278e-18)
(0.266334 -0.0198404 0)
(0.266756 -0.0177799 -1.63022e-18)
(0.267124 -0.0157177 3.23688e-18)
(0.267466 -0.0136551 1.60755e-18)
(0.267807 -0.0115928 0)
(0.268167 -0.00953061 7.94216e-19)
(0.268562 -0.00746793 0)
(0.269007 -0.00540361 7.86517e-19)
(0.269513 -0.00333615 0)
(0.270093 -0.00126373 0)
(0.270756 0.00081575 0)
(0.271511 0.00290471 3.88508e-19)
(0.27237 0.0050057 -1.55167e-18)
(0.273341 0.0071212 0)
(0.274433 0.00925467 -7.74603e-19)
(0.275656 0.0114097 0)
(0.277023 0.0135899 -1.54963e-18)
(0.278545 0.0157994 0)
(0.280236 0.0180426 0)
(0.282112 0.0203247 0)
(0.284191 0.0226513 3.11352e-18)
(0.286495 0.0250291 0)
(0.28905 0.0274655 3.12319e-18)
(0.291887 0.0299694 -3.12706e-18)
(0.295042 0.032551 0)
(0.298566 0.0352231 -3.12922e-18)
(0.3025 0.0379997 -6.25208e-18)
(0.30695 0.040902 3.11797e-18)
(0.311919 0.0439456 6.20233e-18)
(0.317703 0.0471769 -6.15003e-18)
(0.324032 0.0505895 -6.07165e-18)
(0.331951 0.0543294 0)
(0.339868 0.0582309 -5.80516e-18)
(0.351851 0.0628766 -5.60451e-18)
(0.360631 0.0672778 -5.26328e-18)
(0.382156 0.0739081 0)
(0.387077 0.0781527 0)
(0.43457 0.0899172 -3.84199e-18)
(0.420951 0.0917039 0)
(0.53345 0.1134 2.16101e-18)
(0.68695 0.0123618 -1.2924e-19)
(0.183045 0.00832911 -3.29099e-20)
(0.0708252 -0.0054263 3.93274e-18)
(0.037205 -0.00833375 4.69006e-18)
(0.0808702 -0.0249873 0)
(0.143958 -0.0391552 -5.9745e-18)
(0.207673 -0.0484374 0)
(0.254543 -0.0517408 0)
(0.282318 -0.0513318 0)
(0.296857 -0.0496484 6.96557e-18)
(0.305131 -0.0478186 -6.99097e-18)
(0.310848 -0.0458915 0)
(0.315036 -0.0437429 0)
(0.31792 -0.041395 0)
(0.319743 -0.0389294 -3.437e-18)
(0.320795 -0.0364057 0)
(0.321312 -0.0338551 -3.38212e-18)
(0.321467 -0.0312953 3.35348e-18)
(0.321379 -0.028738 0)
(0.32114 -0.0261908 0)
(0.32082 -0.0236585 1.63528e-18)
(0.320471 -0.0211434 1.62295e-18)
(0.320136 -0.0186459 -3.22226e-18)
(0.319847 -0.0161656 -1.60018e-18)
(0.31963 -0.0137008 0)
(0.319508 -0.0112496 7.90626e-19)
(0.319498 -0.00880908 0)
(0.319615 -0.00637616 -7.83184e-19)
(0.319872 -0.00394738 3.90013e-19)
(0.32028 -0.00151895 0)
(0.320851 0.000913177 0)
(0.321594 0.0033534 -7.73752e-19)
(0.322519 0.00580682 7.72612e-19)
(0.323636 0.00827546 0)
(0.324954 0.0107659 -7.71153e-19)
(0.326485 0.0132843 0)
(0.328241 0.0158358 1.54262e-18)
(0.330235 0.0184261 0)
(0.332481 0.0210617 0)
(0.334997 0.0237496 0)
(0.337803 0.0264974 -3.10055e-18)
(0.340923 0.0293135 -3.10462e-18)
(0.344384 0.0322075 -3.11026e-18)
(0.348223 0.0351902 1.07259e-21)
(0.352477 0.0382742 -3.11543e-18)
(0.357205 0.0414746 3.11661e-18)
(0.362452 0.0448077 6.22459e-18)
(0.368335 0.0482979 0)
(0.374866 0.0519635 -3.08867e-18)
(0.382357 0.0558559 6.12776e-18)
(0.390559 0.0599715 6.05072e-18)
(0.400544 0.0644663 0)
(0.410751 0.0691748 0)
(0.425323 0.0747052 0)
(0.436981 0.0800521 5.25122e-18)
(0.462 0.087769 0)
(0.470584 0.0931441 0)
(0.523596 0.106293 3.80859e-18)
(0.514286 0.109521 -1.9949e-18)
(0.638872 0.13218 -2.16142e-18)
(0.74833 0.0264327 -1.17265e-19)
(0.257863 0.00954019 -3.57543e-18)
(0.110599 -0.00801841 0)
(0.0711126 -0.0153325 -4.67026e-18)
(0.116019 -0.0353031 -5.27007e-18)
(0.183932 -0.051179 1.17999e-20)
(0.253559 -0.0607425 0)
(0.306095 -0.0633363 0)
(0.3374 -0.0617641 0)
(0.35292 -0.0589576 -6.92386e-18)
(0.360527 -0.0562194 0)
(0.36496 -0.0535312 0)
(0.367734 -0.0506802 3.45972e-18)
(0.369174 -0.0476638 0)
(0.369534 -0.0445713 0)
(0.369131 -0.0414682 0)
(0.368239 -0.0383846 0)
(0.367051 -0.035334 -3.33604e-18)
(0.365705 -0.032324 0)
(0.364298 -0.0293586 3.28089e-18)
(0.362904 -0.0264389 -1.62765e-18)
(0.36158 -0.0235639 -1.61504e-18)
(0.360367 -0.0207308 3.20719e-18)
(0.359298 -0.0179361 3.18577e-18)
(0.358398 -0.0151754 0)
(0.357689 -0.0124438 -7.87165e-19)
(0.357185 -0.00973616 0)
(0.356901 -0.00704681 0)
(0.356849 -0.00436998 -7.76634e-19)
(0.357038 -0.00169967 0)
(0.357479 0.000970318 0)
(0.358181 0.00364653 7.70375e-19)
(0.359154 0.00633691 0)
(0.360406 0.00904261 0)
(0.361949 0.0117754 7.67885e-19)
(0.363795 0.0145422 0)
(0.365954 0.0173501 -1.53599e-18)
(0.368443 0.0202071 0)
(0.371277 0.0231215 0)
(0.374476 0.0261024 0)
(0.378061 0.0291596 0)
(0.382059 0.0323037 3.09075e-18)
(0.386501 0.0355463 3.09421e-18)
(0.391425 0.0389007 1.18062e-21)
(0.396873 0.0423816 3.10131e-18)
(0.402908 0.0460066 3.09979e-18)
(0.409582 0.0497945 -3.09751e-18)
(0.417016 0.0537722 0)
(0.425233 0.0579609 -3.07129e-18)
(0.434549 0.062415 3.04639e-18)
(0.444744 0.0671346 -6.01568e-18)
(0.456878 0.072279 0)
(0.469475 0.0776901 0)
(0.486601 0.0839766 -5.54781e-18)
(0.501241 0.0901558 -5.21738e-18)
(0.529359 0.0987562 4.89033e-18)
(0.541916 0.105161 4.17175e-18)
(0.598947 0.11926 -3.8015e-18)
(0.595109 0.1239 1.9924e-18)
(0.727355 0.146599 0)
(0.796461 0.0402704 -1.07568e-19)
(0.332826 0.011452 0)
(0.157582 -0.0107191 3.85616e-18)
(0.110076 -0.0228853 4.6272e-18)
(0.152469 -0.0457846 1.22496e-20)
(0.221324 -0.0628545 5.85541e-18)
(0.293912 -0.0723046 0)
(0.350516 -0.0739297 0)
(0.384734 -0.0709902 0)
(0.400872 -0.0668945 3.43658e-18)
(0.407331 -0.0631439 3.45105e-18)
(0.409911 -0.0596558 0)
(0.410748 -0.0561076 -3.44028e-18)
(0.410316 -0.0524524 3.4216e-18)
(0.408874 -0.0487792 0)
(0.406746 -0.0451573 0)
(0.40423 -0.0416127 0)
(0.401534 -0.0381521 6.40452e-22)
(0.398803 -0.0347766 0)
(0.396134 -0.0314846 -6.53085e-18)
(0.393601 -0.0282722 1.61975e-18)
(0.391255 -0.0251338 1.60789e-18)
(0.389135 -0.0220629 -2.87771e-22)
(0.387269 -0.0190521 -1.58597e-18)
(0.385677 -0.016094 0)
(0.384377 -0.0131806 0)
(0.383379 -0.0103039 0)
(0.382696 -0.00745595 3.88144e-19)
(0.382335 -0.00462861 7.73384e-19)
(0.382304 -0.00181373 0)
(0.382612 0.000996948 0)
(0.383266 0.0038119 -7.67179e-19)
(0.384275 0.0066414 -3.82951e-19)
(0.385649 0.00948725 0)
(0.387399 0.0123647 0)
(0.389536 0.0152816 0)
(0.392075 0.018247 0)
(0.395032 0.0212709 0)
(0.398426 0.0243636 0)
(0.402278 0.0275363 0)
(0.406615 0.0308009 0)
(0.411466 0.0341702 0)
(0.416867 0.0376583 -1.16467e-21)
(0.42286 0.0412808 3.08357e-18)
(0.429493 0.0450549 0)
(0.436834 0.0490009 -6.16867e-18)
(0.444941 0.0531403 -3.07949e-18)
(0.453941 0.0575027 0)
(0.463869 0.0621122 3.05639e-18)
(0.475041 0.0670257 -3.03164e-18)
(0.487266 0.0722474 5.98681e-18)
(0.501579 0.0779368 -5.87567e-18)
(0.516603 0.0839464 0)
(0.536265 0.0908715 7.34545e-21)
(0.553909 0.0977726 5.19576e-18)
(0.584921 0.107094 -9.73279e-18)
(0.601516 0.114415 -1.07722e-20)
(0.66173 0.129162 -3.75887e-18)
(0.663728 0.135093 1.96126e-18)
(0.800847 0.157308 2.09075e-18)
(0.834557 0.0534564 2.59017e-18)
(0.405153 0.0141173 0)
(0.210086 -0.0133139 -5.13197e-22)
(0.152847 -0.0305321 -1.0244e-20)
(0.189243 -0.0559932 5.17447e-18)
(0.255423 -0.0738395 5.77479e-18)
(0.328164 -0.0829024 0)
(0.387211 -0.0833921 6.55046e-18)
(0.423727 -0.0789404 0)
(0.440291 -0.0734277 -3.41358e-18)
(0.445399 -0.0685933 -1.29443e-21)
(0.445849 -0.0643014 -3.42911e-18)
(0.444488 -0.0600966 0)
(0.442002 -0.0558639 -6.80612e-18)
(0.438651 -0.0516823 0)
(0.434752 -0.0476213 0)
(0.430605 -0.0437015 0)
(0.426427 -0.0399202 3.30427e-18)
(0.42236 -0.0362698 0)
(0.418496 -0.0327417 3.25142e-18)
(0.414899 -0.0293262 -3.22601e-18)
(0.411614 -0.0260126 0)
(0.40867 -0.0227901 -3.12251e-22)
(0.406088 -0.0196476 0)
(0.403882 -0.0165741 0)
(0.402061 -0.013559 -7.80684e-19)
(0.400631 -0.0105918 0)
(0.3996 -0.00766206 -7.73519e-19)
(0.398971 -0.0047598 -3.8533e-19)
(0.39875 -0.00187498 -9.60004e-20)
(0.398941 0.00100235 9.57439e-20)
(0.399552 0.00388223 3.82252e-19)
(0.400589 0.00677567 7.63213e-19)
(0.402064 0.00968885 0)
(0.403987 0.0126359 7.61579e-19)
(0.406372 0.0156267 0)
(0.409233 0.0186721 0)
(0.41259 0.0217837 0)
(0.416466 0.0249735 1.52499e-18)
(0.420885 0.0282546 0)
(0.425878 0.0316408 0)
(0.431481 0.0351472 3.06103e-18)
(0.437733 0.0387901 -3.06588e-18)
(0.444685 0.0425875 0)
(0.452392 0.0465594 0)
(0.460929 0.0507286 3.06923e-18)
(0.470362 0.0551196 3.06475e-18)
(0.480826 0.0597651 -3.0536e-18)
(0.49237 0.0646925 0)
(0.50531 0.069961 0)
(0.519485 0.0755797 0)
(0.535906 0.0817069 5.63189e-21)
(0.553287 0.0882075 0)
(0.57541 0.0956571 5.48845e-18)
(0.595982 0.103168 0)
(0.629745 0.113071 4.83914e-18)
(0.650269 0.121186 -4.12981e-18)
(0.713229 0.13637 7.47492e-18)
(0.720936 0.143422 -1.95566e-18)
(0.861283 0.164895 -2.08467e-18)
(0.864873 0.0657473 9.3078e-20)
(0.473081 0.0174744 -3.29597e-18)
(0.266181 -0.0155949 -3.77278e-18)
(0.198355 -0.0378977 -8.71742e-21)
(0.225821 -0.0656077 -5.1144e-18)
(0.286202 -0.0839347 -5.7201e-18)
(0.356573 -0.0924576 0)
(0.416461 -0.0917324 -6.49118e-18)
(0.454631 -0.0856776 0)
(0.471528 -0.0786538 -3.38768e-18)
(0.475316 -0.0726904 -3.40837e-18)
(0.473626 -0.0676163 3.41032e-18)
(0.470053 -0.0628201 -3.40072e-18)
(0.465545 -0.058092 3.38609e-18)
(0.460372 -0.0534882 -3.36476e-18)
(0.454824 -0.0490763 3.34126e-18)
(0.449194 -0.0448696 0)
(0.443695 -0.0408546 0)
(0.438458 -0.0370138 0)
(0.433565 -0.0333307 1.61935e-18)
(0.429068 -0.0297895 1.60745e-18)
(0.424998 -0.0263743 0)
(0.421374 -0.0230699 -1.58491e-18)
(0.418209 -0.0198618 0)
(0.415506 -0.016736 0)
(0.413268 -0.0136793 7.78507e-19)
(0.411496 -0.0106791 -7.74558e-19)
(0.41019 -0.00772324 3.85688e-19)
(0.40935 -0.00479999 0)
(0.408979 -0.00189793 1.9148e-19)
(0.40908 0.000994135 -1.9097e-19)
(0.409657 0.00388739 0)
(0.410717 0.00679285 -3.80566e-19)
(0.412269 0.00972156 7.59951e-19)
(0.414327 0.012685 -7.59523e-19)
(0.416904 0.0156953 0)
(0.420018 0.0187646 0)
(0.42369 0.0219056 0)
(0.427947 0.0251319 -1.52036e-18)
(0.432819 0.0284579 0)
(0.43834 0.0318991 0)
(0.444552 0.0354724 -3.05047e-18)
(0.451502 0.0391961 0)
(0.459249 0.0430906 3.05454e-18)
(0.467855 0.0471781 -3.05513e-18)
(0.477405 0.0514844 0)
(0.487976 0.0560368 3.04793e-18)
(0.499713 0.060871 6.07716e-18)
(0.512679 0.0660181 -3.02044e-18)
(0.527198 0.07154 0)
(0.543135 0.0774508 0)
(0.561483 0.0839082 2.90717e-18)
(0.581043 0.0907895 0)
(0.605465 0.0986498 5.44394e-18)
(0.628779 0.106653 0)
(0.665135 0.117014 4.79363e-18)
(0.689347 0.125793 4.08863e-18)
(0.754806 0.141258 -3.71326e-18)
(0.767823 0.149242 0)
(0.910479 0.16988 2.04388e-18)
(0.889058 0.0770283 -2.89298e-18)
(0.535589 0.0214019 1.41354e-20)
(0.323932 -0.0173899 3.73531e-18)
(0.245608 -0.0446873 -6.7418e-21)
(0.261954 -0.0744018 9.09078e-21)
(0.314045 -0.0930412 0)
(0.37992 -0.100987 0)
(0.439155 -0.0990475 0)
(0.478301 -0.0913487 -3.31141e-18)
(0.49547 -0.0827494 6.73104e-18)
(0.498117 -0.0756302 0)
(0.494478 -0.0698093 3.39125e-18)
(0.488863 -0.0644985 1.02798e-21)
(0.482518 -0.0593647 -3.37006e-18)
(0.475732 -0.054428 8.75636e-22)
(0.468762 -0.0497508 -3.32935e-18)
(0.461881 -0.0453391 0)
(0.455287 -0.0411678 0)
(0.449099 -0.0372089 0)
(0.443383 -0.0334379 -1.61503e-18)
(0.438175 -0.0298328 0)
(0.433495 -0.026373 1.5914e-18)
(0.42935 -0.0230394 1.58071e-18)
(0.425742 -0.0198143 -1.57078e-18)
(0.422666 -0.0166813 0)
(0.420118 -0.0136253 0)
(0.418093 -0.0106318 7.73091e-19)
(0.416586 -0.00768744 0)
(0.415593 -0.00477926 3.83374e-19)
(0.415114 -0.00189486 -9.55587e-20)
(0.415149 0.000977797 9.53053e-20)
(0.415702 0.00385065 -3.80323e-19)
(0.416779 0.00673522 0)
(0.418389 0.00964417 -7.58566e-19)
(0.420544 0.0125888 0)
(0.423262 0.0155821 0)
(0.426561 0.0186372 1.51471e-18)
(0.430466 0.0217675 0)
(0.435006 0.0249876 0)
(0.440215 0.028313 0)
(0.446134 0.0317605 0)
(0.45281 0.0353483 0)
(0.460297 0.0390965 0)
(0.468661 0.0430271 -6.0897e-18)
(0.477974 0.0471647 3.04542e-18)
(0.48833 0.0515371 3.04134e-18)
(0.499819 0.0561748 -6.07174e-18)
(0.512597 0.061116 -3.02562e-18)
(0.526743 0.0663955 3.00757e-18)
(0.54259 0.0720779 -2.97855e-18)
(0.560032 0.0781827 0)
(0.580053 0.084867 2.79523e-21)
(0.601527 0.0920208 -5.60559e-18)
(0.628004 0.10018 -5.41359e-18)
(0.653784 0.108558 -5.08163e-18)
(0.692515 0.119256 -9.52285e-18)
(0.72008 0.128568 -4.06626e-18)
(0.78785 0.144189 3.66407e-18)
(0.805638 0.152916 1.9031e-18)
(0.950099 0.172717 -2.03496e-18)
(0.908366 0.0872757 -8.38389e-20)
(0.592192 0.0257574 3.1853e-18)
(0.381588 -0.0185778 6.32047e-21)
(0.293649 -0.0506811 -4.37523e-21)
(0.297509 -0.0822219 5.04278e-18)
(0.339503 -0.101123 5.59386e-18)
(0.399215 -0.108556 -6.03345e-18)
(0.456485 -0.105474 3.18056e-18)
(0.495919 -0.0961367 2.43004e-21)
(0.513285 -0.0859239 -3.34541e-18)
(0.515033 -0.0776339 -3.36954e-18)
(0.50975 -0.0711052 -3.37704e-18)
(0.502375 -0.0653562 6.74211e-18)
(0.494458 -0.0599038 9.37647e-22)
(0.486325 -0.0547173 3.34073e-18)
(0.478198 -0.0498513 0)
(0.470319 -0.0453047 3.29536e-18)
(0.462869 -0.041041 0)
(0.45595 -0.0370217 -3.24671e-18)
(0.449611 -0.0332147 -1.61132e-18)
(0.443875 -0.0295923 -1.59966e-18)
(0.438747 -0.0261296 -3.35565e-22)
(0.434225 -0.0228043 -1.57837e-18)
(0.4303 -0.0195962 1.56859e-18)
(0.42696 -0.0164869 0)
(0.424195 -0.0134596 -7.75526e-19)
(0.421994 -0.0104988 0)
(0.420348 -0.00759013 0)
(0.41925 -0.00471988 -3.8294e-19)
(0.418698 -0.00187505 0)
(0.418689 0.000956921 0)
(0.419226 0.0037884 3.79904e-19)
(0.420314 0.00663128 0)
(0.421964 0.00949871 0)
(0.424188 0.0124023 7.56631e-19)
(0.427003 0.0153555 0)
(0.430431 0.0183717 -1.5128e-18)
(0.434499 0.021465 0)
(0.439238 0.0246505 1.51349e-18)
(0.444687 0.0279445 0)
(0.450891 0.0313645 0)
(0.457901 0.0349298 0)
(0.46578 0.0386615 0)
(0.474599 0.0425832 3.03786e-18)
(0.48444 0.046721 0)
(0.495406 0.0511048 -6.06584e-18)
(0.5076 0.0557672 3.02657e-18)
(0.521188 0.060749 -3.01268e-18)
(0.536266 0.066088 2.99332e-18)
(0.55318 0.0718516 2.96728e-18)
(0.571849 0.0780641 0)
(0.593257 0.0848825 2.87064e-18)
(0.61634 0.0922089 8.36359e-18)
(0.644577 0.100562 -5.37029e-18)
(0.672491 0.109201 5.05299e-18)
(0.713326 0.120122 4.72852e-18)
(0.743843 0.129835 0)
(0.813728 0.145507 -3.64285e-18)
(0.835689 0.154796 -3.77475e-18)
(0.98166 0.173799 0)
(0.923774 0.0965209 3.17525e-18)
(0.642779 0.0304006 0)
(0.437687 -0.0190926 9.03896e-21)
(0.341564 -0.0557284 -1.70857e-21)
(0.332366 -0.0889705 -5.00561e-18)
(0.363122 -0.108179 -1.11046e-17)
(0.415472 -0.115246 1.19671e-17)
(0.46969 -0.111151 -3.15717e-18)
(0.508755 -0.100223 3.26513e-18)
(0.526204 -0.0883833 0)
(0.527296 -0.0789155 1.33976e-21)
(0.520712 -0.0717145 0)
(0.5119 -0.0655956 -6.72025e-18)
(0.502703 -0.0599014 3.34909e-18)
(0.493495 -0.0545371 0)
(0.484466 -0.0495462 0)
(0.475827 -0.0449211 -3.28969e-18)
(0.467738 -0.0406149 0)
(0.460282 -0.0365791 3.24232e-18)
(0.453495 -0.0327745 1.60937e-18)
(0.447383 -0.0291682 3.38423e-22)
(0.441943 -0.0257319 -1.58696e-18)
(0.43716 -0.0224405 -1.57628e-18)
(0.433019 -0.0192719 0)
(0.429501 -0.0162062 0)
(0.426591 -0.0132255 7.74952e-19)
(0.424273 -0.0103137 0)
(0.422536 -0.00745556 3.83942e-19)
(0.42137 -0.0046371 -3.82524e-19)
(0.420769 -0.00184496 9.53277e-20)
(0.420732 0.000933663 -9.50751e-20)
(0.42126 0.0037113 3.79487e-19)
(0.422357 0.00650006 -3.7885e-19)
(0.424034 0.00931313 7.5664e-19)
(0.426304 0.0121624 -7.56117e-19)
(0.429184 0.0150613 0)
(0.432698 0.0180235 0)
(0.436875 0.0210633 0)
(0.441749 0.0241962 -4.57839e-22)
(0.44736 0.0274386 1.5127e-18)
(0.453759 0.0308087 0)
(0.461001 0.0343262 0)
(0.469153 0.0380132 0)
(0.478294 0.0418941 0)
(0.488513 0.0459961 0)
(0.499923 0.0503506 1.46683e-21)
(0.512636 0.0549919 0)
(0.526831 0.0599629 6.01036e-18)
(0.542618 0.0653038 -5.9697e-18)
(0.560355 0.0710843 -2.95446e-18)
(0.579987 0.0773329 0)
(0.602502 0.0842067 0)
(0.626891 0.0916186 -5.54517e-18)
(0.656582 0.100072 6.99686e-21)
(0.686281 0.108869 -5.01102e-18)
(0.728918 0.119909 4.68241e-18)
(0.761962 0.129897 3.98783e-18)
(0.833734 0.145526 -3.59218e-18)
(0.859259 0.155206 3.73027e-18)
(1.00653 0.173464 1.9717e-18)
(0.936057 0.104825 7.76721e-20)
(0.687497 0.0352056 -3.09455e-18)
(0.491107 -0.018918 -7.27626e-18)
(0.388521 -0.0597413 1.14336e-21)
(0.366381 -0.0945954 4.98637e-18)
(0.385354 -0.114226 5.51696e-18)
(0.429574 -0.121132 -2.97453e-18)
(0.479899 -0.116202 0)
(0.517996 -0.103765 0)
(0.535378 -0.0903083 3.30919e-18)
(0.536015 -0.0796619 3.34363e-18)
(0.528459 -0.0718174 0)
(0.518529 -0.0653847 3.35222e-18)
(0.508328 -0.0595124 0)
(0.498294 -0.0540291 0)
(0.488588 -0.0489641 0)
(0.479392 -0.044304 0)
(0.470843 -0.0399925 3.26153e-18)
(0.463009 -0.0359721 1.61909e-18)
(0.455909 -0.0321968 -1.6075e-18)
(0.449542 -0.0286297 3.32058e-22)
(0.44389 -0.0252393 0)
(0.438934 -0.0219986 1.57546e-18)
(0.434651 -0.0188839 0)
(0.431017 -0.0158744 0)
(0.428013 -0.0129513 7.74314e-19)
(0.425621 -0.0100981 -7.70673e-19)
(0.423826 -0.00729934 -3.83798e-19)
(0.422617 -0.00454073 3.82385e-19)
(0.421988 -0.00180883 -1.90568e-19)
(0.421934 0.000909221 1.90063e-19)
(0.422456 0.00362595 -3.79355e-19)
(0.42356 0.00635347 3.78715e-19)
(0.425254 0.00910484 -1.80763e-22)
(0.427554 0.011892 -7.55456e-19)
(0.430476 0.0147285 0)
(0.434047 0.0176277 0)
(0.438294 0.0206041 0)
(0.443256 0.0236732 -3.02167e-18)
(0.448975 0.0268515 -1.51193e-18)
(0.455503 0.0301573 0)
(0.4629 0.0336108 0)
(0.471237 0.0372342 -3.02768e-18)
(0.480599 0.0410525 0)
(0.49108 0.0450937 0)
(0.502801 0.0493901 6.04331e-18)
(0.515884 0.053977 -3.01225e-18)
(0.530518 0.0588989 -5.99827e-18)
(0.546826 0.0641978 1.88038e-21)
(0.56518 0.0699452 5.89501e-18)
(0.585544 0.076173 2.90251e-18)
(0.608916 0.0830382 0)
(0.634335 0.0904632 2.76197e-18)
(0.665191 0.0989374 5.31745e-18)
(0.696344 0.107801 4.98877e-18)
(0.740479 0.118869 -4.65873e-18)
(0.775634 0.129019 -3.96544e-18)
(0.849045 0.144521 3.57035e-18)
(0.877549 0.154441 -1.84812e-18)
(1.02595 0.172006 -1.95884e-18)
(0.945839 0.112263 7.52766e-20)
(0.726665 0.0400665 3.06528e-18)
(0.541058 -0.0180775 -1.44165e-20)
(0.433803 -0.0626869 4.04686e-21)
(0.399379 -0.0990823 0)
(0.406534 -0.119293 0)
(0.442229 -0.126281 -4.21479e-21)
(0.48805 -0.120721 0)
(0.524661 -0.106888 0)
(0.541799 -0.0918451 -1.62055e-21)
(0.542126 -0.0800257 0)
(0.533882 -0.0715595 0)
(0.523116 -0.0648558 3.34501e-18)
(0.512156 -0.0588555 0)
(0.501504 -0.053299 0)
(0.491305 -0.0481985 0)
(0.481713 -0.0435355 0)
(0.472842 -0.0392455 -7.04537e-22)
(0.464748 -0.0352625 -1.61829e-18)
(0.457438 -0.031535 3.21331e-18)
(0.4509 -0.0280222 3.2405e-22)
(0.44511 -0.0246905 1.58456e-18)
(0.440041 -0.0215111 0)
(0.435667 -0.0184592 1.56484e-18)
(0.43196 -0.0155133 0)
(0.428897 -0.0126543 -7.74144e-19)
(0.426458 -0.0098654 1.54291e-22)
(0.424628 -0.00713096 0)
(0.423393 -0.00443672 0)
(0.422745 -0.00176925 1.99404e-23)
(0.422681 0.000884217 -2.03309e-23)
(0.423201 0.00353612 1.89558e-19)
(0.42431 0.00619848 0)
(0.426016 0.00888412 -7.56038e-19)
(0.428335 0.011605 7.55306e-19)
(0.431285 0.0143742 0)
(0.434892 0.0172054 -1.50909e-18)
(0.439186 0.0201126 0)
(0.444204 0.0231112 4.37351e-22)
(0.449993 0.0262179 0)
(0.456605 0.0294507 1.51147e-18)
(0.464104 0.0328298 1.51225e-18)
(0.472564 0.0363775 1.11452e-21)
(0.482073 0.0401191 -3.02511e-18)
(0.492731 0.0440827 0)
(0.504666 0.0483012 -1.3981e-21)
(0.518006 0.0528105 3.01008e-18)
(0.532949 0.0576558 1.66618e-21)
(0.54963 0.0628806 2.97381e-18)
(0.568432 0.0685572 -2.03112e-21)
(0.589341 0.0747207 -2.25774e-21)
(0.613359 0.0815271 0)
(0.639569 0.0889073 0)
(0.671338 0.0973378 0)
(0.70365 0.106193 0)
(0.749 0.11721 0)
(0.785885 0.127423 3.92703e-18)
(0.860683 0.142727 0)
(0.891632 0.152754 0)
(1.04098 0.169672 -1.92351e-18)
(0.953627 0.118918 -1.7563e-18)
(0.760705 0.0448988 0)
(0.587053 -0.0166234 -1.69011e-20)
(0.476842 -0.0645787 6.88801e-21)
(0.43118 -0.102449 0)
(0.426878 -0.123419 2.72406e-18)
(0.453958 -0.130747 -2.93104e-18)
(0.494872 -0.124781 0)
(0.529569 -0.109685 0)
(0.546277 -0.0931047 -3.2855e-18)
(0.54638 -0.0801244 0)
(0.537673 -0.0710526 0)
(0.526307 -0.0641086 -3.34123e-18)
(0.514788 -0.0580172 0)
(0.503684 -0.052422 -3.31802e-18)
(0.493133 -0.0473144 0)
(0.483262 -0.0426714 0)
(0.474172 -0.0384212 -6.81421e-22)
(0.465902 -0.0344906 0)
(0.458452 -0.0308228 -1.60612e-18)
(0.451802 -0.0273742 1.595e-18)
(0.445922 -0.024109 -3.16828e-18)
(0.440781 -0.0209973 1.57384e-18)
(0.436348 -0.0180135 -1.56464e-18)
(0.432594 -0.0151357 0)
(0.429494 -0.0123446 -7.73753e-19)
(0.427026 -0.00962315 1.5404e-18)
(0.425173 -0.00695585 0)
(0.423922 -0.00432849 -1.91019e-19)
(0.423263 -0.00172777 9.52263e-20)
(0.423194 0.000858949 -9.49736e-20)
(0.423713 0.0034439 -1.89539e-19)
(0.424825 0.00603896 0)
(0.42654 0.00865666 -7.55611e-19)
(0.428872 0.0113088 7.54867e-19)
(0.431841 0.0140083 0)
(0.435472 0.0167685 1.50893e-18)
(0.439796 0.0196032 0)
(0.444852 0.0225277 1.50962e-18)
(0.450687 0.0255582 0)
(0.457354 0.0287128 -1.51125e-18)
(0.464921 0.0320112 -1.51201e-18)
(0.473462 0.0354759 1.08668e-21)
(0.483069 0.0391317 3.02446e-18)
(0.493846 0.0430069 0)
(0.505925 0.0471344 -3.01678e-18)
(0.519441 0.0515502 0)
(0.534598 0.0563 2.99257e-18)
(0.551541 0.0614279 0)
(0.570664 0.0670066 -2.93837e-18)
(0.591967 0.0730733 -5.78343e-18)
(0.616463 0.0797826 0)
(0.643271 0.0870729 0)
(0.675739 0.0954081 0)
(0.708957 0.104194 2.46818e-18)
(0.755275 0.115096 0)
(0.793553 0.125289 -9.00433e-21)
(0.869499 0.140334 0)
(0.902424 0.150355 1.79722e-18)
(1.05254 0.166664 1.91142e-18)
(0.959833 0.124873 0)
(0.790096 0.0496379 3.03783e-18)
(0.628859 -0.014626 3.58259e-18)
(0.517228 -0.0654666 9.58016e-21)
(0.461616 -0.104742 0)
(0.446516 -0.126648 -2.71596e-18)
(0.465126 -0.134576 0)
(0.500901 -0.128431 3.07378e-18)
(0.533347 -0.11222 3.19462e-18)
(0.549439 -0.0941673 3.27394e-18)
(0.549358 -0.0800448 3.31757e-18)
(0.540353 -0.0703791 3.33521e-18)
(0.528571 -0.0632153 0)
(0.516647 -0.0570589 0)
(0.505216 -0.0514496 3.31656e-18)
(0.494414 -0.0463551 0)
(0.484351 -0.0417478 0)
(0.47511 -0.0375498 -3.25651e-18)
(0.466721 -0.0336813 0)
(0.459177 -0.030081 -1.6053e-18)
(0.452452 -0.0267025 0)
(0.446512 -0.0235087 1.58386e-18)
(0.441323 -0.0204685 -1.57373e-18)
(0.436851 -0.017556 0)
(0.433066 -0.0147488 0)
(0.429942 -0.0120277 1.45982e-22)
(0.427455 -0.00937555 -7.70083e-19)
(0.425588 -0.00677697 0)
(0.424326 -0.0042179 1.91009e-19)
(0.423661 -0.0016852 9.51827e-20)
(0.423588 0.000833549 -9.49292e-20)
(0.424107 0.00335038 0)
(0.425222 0.00587694 0)
(0.426944 0.00842548 1.67691e-22)
(0.429286 0.0110076 -1.73659e-22)
(0.432268 0.013636 0)
(0.435915 0.0163235 0)
(0.440261 0.0190839 1.50821e-18)
(0.445343 0.021932 0)
(0.45121 0.0248838 0)
(0.457915 0.0279571 0)
(0.465528 0.0311712 0)
(0.474124 0.0345482 3.02355e-18)
(0.483798 0.0381128 3.02189e-18)
(0.494657 0.0418929 0)
(0.506834 0.0459209 0)
(0.52047 0.0502331 3.00395e-18)
(0.535775 0.0548746 0)
(0.552902 0.05989 0)
(0.57225 0.0653515 -2.93327e-18)
(0.593837 0.0712979 2.88903e-18)
(0.61868 0.077882 0)
(0.645931 0.0850482 0)
(0.678925 0.0932482 0)
(0.712843 0.101916 -2.46374e-18)
(0.759916 0.11265 2.28883e-18)
(0.799304 0.122756 -7.77175e-18)
(0.87618 0.137492 0)
(0.910682 0.147417 -1.78866e-18)
(1.06139 0.163147 -1.88136e-18)
(0.964791 0.130206 0)
(0.815339 0.0542374 -3.02108e-18)
(0.666445 -0.0121646 0)
(0.554707 -0.065427 -6.65463e-18)
(0.490551 -0.106025 0)
(0.465518 -0.129033 -2.70453e-18)
(0.475974 -0.137804 0)
(0.506513 -0.131706 -3.06183e-18)
(0.536451 -0.114535 -3.18395e-18)
(0.551755 -0.0950869 -3.26639e-18)
(0.551489 -0.0798477 -3.31294e-18)
(0.542299 -0.0695973 -3.3324e-18)
(0.530235 -0.0622263 0)
(0.518021 -0.0560222 0)
(0.506352 -0.0504158 0)
(0.49537 -0.0453483 0)
(0.48517 -0.0407875 0)
(0.475824 -0.0366497 1.62746e-18)
(0.467352 -0.0328494 0)
(0.459743 -0.0293214 1.60523e-18)
(0.452966 -0.0260168 0)
(0.446984 -0.0228972 1.58322e-18)
(0.441761 -0.0199309 1.5731e-18)
(0.437263 -0.0170915 0)
(0.433456 -0.0143565 7.77417e-19)
(0.430314 -0.0117066 7.73542e-19)