/*--------------------------------*- C++ -*----------------------------------*\
| =========                 |                                                 |
| \\      /  F ield         | OpenFOAM: The Open Source CFD Toolbox           |
|  \\    /   O peration     | Version:  2.4.0                                 |
|   \\  /    A nd           | Web:      www.OpenFOAM.org                      |
|    \\/     M anipulation  |                                                 |
\*---------------------------------------------------------------------------*/
FoamFile
{
    version     2.0;
    format      ascii;
    class       volVectorField;
    location    "6.87";
    object      U;
}
// * * * * * * * * * * * * * * * * * * * * * * * * * * * * * * * * * * * * * //

dimensions      [0 1 -1 0 0 0 0];

internalField   nonuniform List<vector> 
6000
(
(0.165117 -0.00671282 1.28099e-18)
(-0.00974648 0.00185859 0)
(0.000828242 -0.000234137 7.21724e-18)
(-0.00663399 0.00128764 0)
(-0.00500581 0.000987422 0)
(-0.00607623 0.0011399 0)
(-0.00534316 0.00098397 4.00558e-18)
(-0.00550688 0.000961787 3.33569e-22)
(-0.00512298 0.000866084 0)
(-0.00512283 0.000821153 0)
(-0.00494572 0.00075867 3.90698e-18)
(-0.00496799 0.000720854 -7.7396e-18)
(-0.00496114 0.000683451 0)
(-0.00508173 0.000659484 0)
(-0.00523406 0.000640181 -1.87751e-18)
(-0.00548097 0.000627652 0)
(-0.0057824 0.000618317 0)
(-0.00616294 0.000611297 -1.82903e-18)
(-0.00660586 0.00060451 -1.81581e-18)
(-0.0071198 0.000596327 0)
(-0.0076965 0.000584985 1.7947e-18)
(-0.00833602 0.000568636 8.93525e-19)
(-0.00903042 0.000545493 -8.90743e-19)
(-0.00977286 0.000513725 0)
(-0.0105514 0.000471756 0)
(-0.011353 0.000418221 0)
(-0.0121617 0.000352156 4.45677e-19)
(-0.0129588 0.000272982 -4.47388e-19)
(-0.0137223 0.000180654 0)
(-0.0144265 7.57761e-05 0)
(-0.0150428 -4.02679e-05 5.71265e-20)
(-0.0155393 -0.000165284 0)
(-0.0158822 -0.000296416 4.6749e-19)
(-0.0160361 -0.000430223 -4.74018e-19)
(-0.0159644 -0.000551604 0)
(-0.015629 -0.000663233 0)
(-0.014995 -0.000755408 9.97483e-19)
(-0.0140259 -0.000818902 0)
(-0.0126918 -0.000843477 1.03843e-18)
(-0.0109574 -0.000818587 0)
(-0.00880565 -0.000732497 0)
(-0.00620505 -0.000574182 2.21595e-18)
(-0.00318792 -0.000333346 -4.527e-18)
(0.00027679 3.09316e-06 0)
(0.00373048 0.000397516 0)
(0.00739256 0.000861305 2.3993e-18)
(0.011092 0.0013964 0)
(0.0151598 0.00202282 0)
(0.0190955 0.0027222 -4.97369e-18)
(0.0236932 0.00354324 -5.00127e-18)
(0.0276372 0.00440189 -4.9805e-18)
(0.0330569 0.00546573 -1.7861e-21)
(0.0364904 0.00643954 4.8227e-18)
(0.0436145 0.00787835 0)
(0.0453434 0.00881654 -2.98802e-21)
(0.0565108 0.0110229 -4.28362e-18)
(0.0537454 0.0114344 3.43588e-18)
(0.074724 0.0155654 3.53699e-18)
(0.0620426 0.0144463 4.14708e-21)
(0.103944 0.0228524 0)
(0.360297 -0.0164517 -1.78415e-18)
(0.0030155 0.00650635 4.27847e-18)
(0.00549038 -0.000893406 -4.32838e-18)
(-0.0149565 0.00337601 -4.5925e-18)
(-0.0124301 0.00257923 0)
(-0.0157699 0.00305958 0)
(-0.0142795 0.00266466 -4.57293e-18)
(-0.0148744 0.00262447 9.05823e-18)
(-0.0140229 0.00238116 0)
(-0.0140826 0.00226737 0)
(-0.0136865 0.00211003 -4.33463e-18)
(-0.0137751 0.00201499 4.27056e-18)
(-0.0137977 0.00192391 2.10337e-18)
(-0.0141408 0.00186756 0)
(-0.0145759 0.00182455 2.04549e-18)
(-0.0152547 0.0017993 0)
(-0.0160808 0.00178259 0)
(-0.017111 0.00177155 0)
(-0.0183031 0.00176049 0)
(-0.019674 0.0017447 0)
(-0.0212003 0.00171914 -1.00404e-23)
(-0.0228771 0.00167851 0)
(-0.02468 0.00161771 -9.51422e-19)
(-0.0265864 0.00153154 0)
(-0.0285617 0.0014156 0)
(-0.0305683 0.0012662 4.73124e-19)
(-0.0325617 0.00108082 -4.73763e-19)
(-0.0344917 0.000857956 -3.73079e-24)
(-0.0362999 0.000597572 2.38752e-19)
(-0.0379202 0.000301457 0)
(-0.0392801 -2.64134e-05 -6.05944e-20)
(-0.0403011 -0.000379767 -2.44899e-19)
(-0.0409001 -0.000750066 1.05222e-23)
(-0.0409894 -0.00112616 5.02784e-19)
(-0.0404824 -0.00148123 -5.10755e-19)
(-0.0392892 -0.00180905 0)
(-0.0373236 -0.00208603 0)
(-0.0344972 -0.00228803 0)
(-0.0307341 -0.00238778 0)
(-0.0259465 -0.00235701 0)
(-0.0200858 -0.00216347 -2.30692e-18)
(-0.0130763 -0.00177539 0)
(-0.00500318 -0.00116136 2.40572e-18)
(0.00409998 -0.000269498 2.45207e-18)
(0.0130771 0.000802836 0)
(0.022571 0.00204858 0)
(0.0321749 0.00348005 0)
(0.0426073 0.00514252 0)
(0.0527666 0.00699831 5.42006e-18)
(0.0643865 0.00915426 0)
(0.0746231 0.0114276 0)
(0.0880756 0.0141889 -5.49175e-18)
(0.0973328 0.0167841 -5.38476e-18)
(0.114552 0.0204576 0)
(0.120387 0.0230466 -9.95379e-18)
(0.146465 0.0285365 0)
(0.143109 0.03008 -7.95647e-18)
(0.190677 0.0399772 -4.11307e-18)
(0.166815 0.0382658 1.68782e-18)
(0.261593 0.0573192 2.96614e-18)
(0.500824 -0.0113658 -1.73808e-19)
(0.0412772 0.00906181 -4.24177e-18)
(0.014121 -0.00129241 0)
(-0.0188729 0.00483456 4.59983e-18)
(-0.0175055 0.00374074 0)
(-0.0234475 0.00457155 0)
(-0.0218104 0.00403368 0)
(-0.022996 0.00400721 -4.53464e-18)
(-0.0219315 0.00367058 0)
(-0.0221304 0.00351234 -4.40593e-18)
(-0.021632 0.0032961 0)
(-0.0218229 0.00316524 0)
(-0.0219206 0.00304634 -2.10462e-18)
(-0.0224899 0.00297661 0)
(-0.0232083 0.0029292 0)
(-0.024294 0.00290732 0)
(-0.0256103 0.00289857 0)
(-0.0272352 0.00289708 0)
(-0.0291069 0.00289439 0)
(-0.0312446 0.00288243 1.93715e-18)
(-0.0336105 0.00285313 -1.92254e-18)
(-0.0361909 0.0027976 0)
(-0.038944 0.00270754 4.90396e-24)
(-0.0418293 0.00257443 -9.47156e-19)
(-0.0447885 0.00239122 0)
(-0.0477589 0.00215219 -9.4473e-19)
(-0.0506679 0.00185358 0)
(-0.0534345 0.00149326 4.74205e-19)
(-0.0559662 0.00107149 -2.38174e-19)
(-0.0581608 0.000591578 0)
(-0.0599077 6.03923e-05 0)
(-0.0610892 -0.000511417 2.44029e-19)
(-0.0615825 -0.0011091 -2.34582e-24)
(-0.0612606 -0.00171278 0)
(-0.0599995 -0.00229756 1.01574e-18)
(-0.0576742 -0.00283682 0)
(-0.0541664 -0.00329748 1.0507e-18)
(-0.0493586 -0.00364383 0)
(-0.0431537 -0.00383529 0)
(-0.035447 -0.0038307 0)
(-0.0261982 -0.00358226 2.26467e-18)
(-0.0153541 -0.00304229 0)
(-0.00311321 -0.00215967 0)
(0.0103334 -0.000845413 -2.363e-18)
(0.0237854 0.000781103 0)
(0.0381548 0.00267404 0)
(0.0528459 0.00486933 2.56786e-18)
(0.0687695 0.00741228 -2.62472e-18)
(0.0844452 0.0102773 -2.66759e-18)
(0.102155 0.0135649 0)
(0.11814 0.0171022 0)
(0.138474 0.0212707 0)
(0.153393 0.0253794 5.34511e-18)
(0.178955 0.0308141 5.29569e-18)
(0.189649 0.0351223 4.96219e-18)
(0.227354 0.0429762 0)
(0.226281 0.0462991 3.97745e-18)
(0.293452 0.0598417 8.23829e-18)
(0.265684 0.059448 0)
(0.399926 0.0842727 -2.98468e-18)
(0.605048 0.000253957 -1.44285e-19)
(0.0969917 0.0110054 4.11738e-18)
(0.0278983 -0.00122663 -4.31686e-18)
(-0.0183298 0.00584448 0)
(-0.0201016 0.00456453 0)
(-0.0290465 0.00577079 0)
(-0.0278658 0.00514141 0)
(-0.0298286 0.00516446 0)
(-0.0288033 0.00476745 0)
(-0.0292323 0.00459078 4.40873e-18)
(-0.028747 0.00433753 4.33953e-18)
(-0.0290799 0.00419065 0)
(-0.0292954 0.00406135 0)
(-0.0300931 0.00399447 0)
(-0.0310898 0.00395732 2.04566e-18)
(-0.0325515 0.00395222 0)
(-0.0343137 0.00396346 1.99441e-18)
(-0.0364674 0.00398236 -1.97211e-18)
(-0.0389344 0.00399765 0)
(-0.0417314 0.00399801 -1.93447e-18)
(-0.0448058 0.00397225 0)
(-0.0481316 0.00390796 -9.53258e-19)
(-0.0516487 0.00379364 1.89638e-18)
(-0.0552962 0.00361758 9.44454e-19)
(-0.0589919 0.00337033 0)
(-0.0626482 0.00304458 4.70566e-19)
(-0.0661651 0.00263574 0)
(-0.0694335 0.00214145 4.7184e-19)
(-0.0723313 0.00156263 0)
(-0.0747262 0.0009044 0)
(-0.0764779 0.000176693 0)
(-0.0774406 -0.000605606 2.42008e-19)
(-0.0774651 -0.00142221 -9.78263e-19)
(-0.0764014 -0.00224651 0)
(-0.074107 -0.00304771 -5.01432e-19)
(-0.0704429 -0.003789 0)
(-0.0652829 -0.00442851 -1.03274e-18)
(-0.0585087 -0.00492141 0)
(-0.050033 -0.00521718 0)
(-0.0397725 -0.00526521 0)
(-0.0277339 -0.00500647 2.18998e-18)
(-0.0139272 -0.00438001 0)
(0.00134102 -0.00331816 2.22481e-18)
(0.0178128 -0.00171183 -2.23995e-18)
(0.0347389 0.000313566 0)
(0.0530181 0.00269186 -2.3942e-18)
(0.0719386 0.00549007 -4.93393e-18)
(0.09247 0.00875208 2.53476e-18)
(0.11293 0.012466 5.17374e-18)
(0.135831 0.016711 -5.26462e-18)
(0.156982 0.0213496 -5.30266e-18)
(0.183123 0.0267075 0)
(0.203419 0.0321818 -5.25954e-18)
(0.235741 0.0390458 -5.22688e-18)
(0.251726 0.0450098 -4.89387e-18)
(0.298158 0.0546027 0)
(0.301538 0.0598822 0)
(0.382171 0.0757084 -4.09412e-18)
(0.356307 0.0774429 0)
(0.517623 0.104792 2.91851e-18)
(0.684215 0.0143676 -1.25455e-19)
(0.162875 0.0131489 -3.18918e-20)
(0.0478629 -0.000606635 4.29102e-18)
(-0.0132818 0.00653998 4.59327e-18)
(-0.0200995 0.00513331 0)
(-0.0325204 0.00670582 -4.63226e-18)
(-0.0323863 0.00602088 0)
(-0.0353429 0.00611931 0)
(-0.0346035 0.00568877 0)
(-0.035366 0.0055148 4.40971e-18)
(-0.0350055 0.00524386 -4.3405e-18)
(-0.0355242 0.00509779 0)
(-0.0358963 0.00497318 0)
(-0.0369232 0.00492281 0)
(-0.0381872 0.00490802 -2.04443e-18)
(-0.0399877 0.00493033 0)
(-0.0421425 0.00497061 -1.99194e-18)
(-0.0447477 0.00501749 1.96891e-18)
(-0.0477115 0.00505679 0)
(-0.0510434 0.00507405 0)
(-0.0546752 0.00505496 9.56635e-19)
(-0.0585659 0.00498371 9.4974e-19)
(-0.0626354 0.0048457 -1.88808e-18)
(-0.0668017 0.00462636 -9.39594e-19)
(-0.0709592 0.00431428 0)
(-0.0749965 0.00390112 4.67319e-19)
(-0.0787899 0.00338207 0)
(-0.0822071 0.00275509 -4.67587e-19)
(-0.0851036 0.00202229 2.34382e-19)
(-0.0873273 0.00119105 0)
(-0.0887209 0.00027464 0)
(-0.0891259 -0.000707874 -4.76718e-19)
(-0.0883841 -0.00173103 4.80707e-19)
(-0.0863448 -0.00276267 0)
(-0.0828672 -0.00376506 -4.90179e-19)
(-0.0778206 -0.00469528 0)
(-0.0710932 -0.00550466 1.00302e-18)
(-0.062587 -0.00614179 0)
(-0.0522422 -0.0065494 0)
(-0.0400096 -0.0066701 0)
(-0.0259397 -0.0064367 -2.09032e-18)
(-0.0100848 -0.00577627 -2.0996e-18)
(0.00721406 -0.0046076 -2.10139e-18)
(0.0257522 -0.00282062 1.07785e-21)
(0.0452694 -0.00053988 -2.17829e-18)
(0.0665084 0.00216614 2.25765e-18)
(0.0887277 0.00539449 4.6633e-18)
(0.112904 0.00919473 0)
(0.137301 0.0135704 -2.46492e-18)
(0.164471 0.0185831 5.0405e-18)
(0.190119 0.0241371 5.09876e-18)
(0.221111 0.0304799 0)
(0.246391 0.0371468 0)
(0.284217 0.0451756 0)
(0.305621 0.0526685 4.78356e-18)
(0.358612 0.0635497 0)
(0.367746 0.0708071 0)
(0.457292 0.0879527 4.01157e-18)
(0.437113 0.0921759 -1.62064e-18)
(0.615687 0.119863 -2.89099e-18)
(0.745566 0.0291107 -1.12207e-19)
(0.233416 0.0160031 -3.94409e-18)
(0.0745663 0.000580716 0)
(-0.00365181 0.00707848 -4.58327e-18)
(-0.0173876 0.00552817 -4.60745e-18)
(-0.0338195 0.00742431 5.12774e-22)
(-0.0353138 0.00670559 0)
(-0.0395108 0.00689578 0)
(-0.0393006 0.006452 0)
(-0.0405127 0.00629731 -4.41038e-18)
(-0.0403859 0.00602466 0)
(-0.041138 0.00589303 0)
(-0.0417018 0.00578565 2.1035e-18)
(-0.0429569 0.00576267 0)
(-0.0444714 0.00577962 0)
(-0.0465673 0.00583705 0)
(-0.0490517 0.00591232 0)
(-0.0520204 0.00599135 -1.96368e-18)
(-0.055369 0.00605705 0)
(-0.0590959 0.00609188 1.92164e-18)
(-0.0631171 0.00607848 -9.51941e-19)
(-0.0673742 0.00599789 -9.44124e-19)
(-0.0717674 0.00583272 1.87492e-18)
(-0.0761945 0.00556602 1.86387e-18)
(-0.0805295 0.0051851 0)
(-0.084642 0.00468133 -4.62218e-19)
(-0.0883914 0.0040504 0)
(-0.0916314 0.00329132 0)
(-0.0942072 0.00240799 -4.61157e-19)
(-0.0959604 0.00141047 0)
(-0.0967328 0.000315438 0)
(-0.0963698 -0.00085403 4.65695e-19)
(-0.0947226 -0.00206815 0)
(-0.0916545 -0.00329006 0)
(-0.0870391 -0.00447713 4.74463e-19)
(-0.0807633 -0.00558218 0)
(-0.0727352 -0.00655196 -9.6422e-19)
(-0.0628769 -0.00733064 0)
(-0.0511497 -0.00785639 0)
(-0.0375239 -0.00806638 0)
(-0.0220681 -0.00788667 0)
(-0.00484279 -0.00723274 1.98358e-18)
(0.0138327 -0.00601287 1.9789e-18)
(0.0338496 -0.00412954 1.11303e-21)
(0.0552686 -0.00170451 2.04513e-18)
(0.0786628 0.00120481 2.11365e-18)
(0.103313 0.00471505 -2.18497e-18)
(0.130181 0.00888509 0)
(0.157587 0.0137324 -2.31319e-18)
(0.188028 0.0193122 2.37139e-18)
(0.217333 0.0255683 -4.81276e-18)
(0.252194 0.0326804 0)
(0.28185 0.0403265 0)
(0.324126 0.0492849 -4.85874e-18)
(0.350744 0.0581192 -4.58825e-18)
(0.408771 0.0699663 4.56624e-18)
(0.424213 0.0790963 3.73808e-18)
(0.519663 0.0969352 -3.91857e-18)
(0.507192 0.103696 1.58902e-18)
(0.695952 0.130368 0)
(0.793857 0.0436848 -1.01237e-19)
(0.30474 0.0197929 0)
(0.107929 0.00233899 4.21862e-18)
(0.0106814 0.00762083 4.567e-18)
(-0.0118639 0.00582724 -6.13903e-23)
(-0.0328851 0.00797362 4.6316e-18)
(-0.0365886 0.00722909 0)
(-0.0423015 0.00751823 0)
(-0.0428632 0.00707476 0)
(-0.0446534 0.00695162 2.20485e-18)
(-0.0448681 0.00668944 2.16948e-18)
(-0.045905 0.00658273 0)
(-0.0466927 0.00650218 -2.10192e-18)
(-0.0481735 0.00651461 2.06968e-18)
(-0.0499161 0.00656984 0)
(-0.0522583 0.0066671 0)
(-0.0550011 0.00678018 0)
(-0.058236 0.0068922 4.99593e-23)
(-0.0618469 0.0069832 0)
(-0.0658195 0.00703271 -3.82036e-18)
(-0.0700538 0.00702059 9.45052e-19)
(-0.074475 0.00692508 9.36043e-19)
(-0.0789662 0.00672658 -2.8632e-23)
(-0.0834093 0.00640649 -9.20997e-19)
(-0.0876645 0.00595166 0)
(-0.091591 0.00535401 0)
(-0.0950416 0.00461049 0)
(-0.0978677 0.00372176 2.25867e-19)
(-0.0999165 0.00269383 4.50921e-19)
(-0.101036 0.00153948 0)
(-0.10108 0.000278516 0)
(-0.099905 -0.00106273 -4.51685e-19)
(-0.0973808 -0.00245117 -2.26315e-19)
(-0.0933846 -0.00384679 0)
(-0.0878042 -0.0052039 0)
(-0.0805406 -0.00647225 0)
(-0.0715144 -0.00759548 0)
(-0.0606586 -0.00851453 0)
(-0.0479432 -0.00916392 0)
(-0.0333442 -0.00947575 0)
(-0.0169308 -0.00936974 0)
(0.00124521 -0.00875042 0)
(0.0209098 -0.00751899 -9.01446e-22)
(0.0420447 -0.00559794 1.87654e-18)
(0.0648696 -0.00310803 0)
(0.0898207 -8.45886e-05 -3.96711e-18)
(0.116223 0.00359769 -2.04264e-18)
(0.145003 0.00800692 0)
(0.174589 0.0131687 2.16136e-18)
(0.207381 0.0191399 -2.21624e-18)
(0.239447 0.0258938 4.50327e-18)
(0.277185 0.0335648 -4.57303e-18)
(0.310392 0.0419508 0)
(0.356089 0.0516105 8.78747e-21)
(0.387341 0.061535 4.34874e-18)
(0.449218 0.0740934 -8.68737e-18)
(0.47086 0.084871 -1.29373e-20)
(0.570301 0.103017 -3.74073e-18)
(0.566243 0.112132 1.50727e-18)
(0.760404 0.13706 2.68848e-18)
(0.832278 0.0576549 3.09941e-18)
(0.374267 0.0245445 0)
(0.147309 0.00468599 2.61596e-21)
(0.0298542 0.00828949 -2.75682e-22)
(-0.00343166 0.00613354 4.59437e-18)
(-0.0296466 0.00840207 4.62794e-18)
(-0.0361463 0.00762626 0)
(-0.043678 0.00801204 4.54006e-18)
(-0.0452575 0.00757544 0)
(-0.047767 0.00749178 -2.20435e-18)
(-0.0484319 0.00724819 -9.40119e-23)
(-0.0498093 0.00717368 -2.13417e-18)
(-0.0508514 0.0071264 0)
(-0.0525543 0.00717933 -4.13236e-18)
(-0.0544985 0.00727645 0)
(-0.0570335 0.00741531 0)
(-0.0599582 0.00756604 0)
(-0.0633582 0.00770898 1.94552e-18)
(-0.0671071 0.00782141 0)
(-0.0711782 0.00788027 1.89467e-18)
(-0.0754586 0.00786303 -1.87177e-18)
(-0.0798605 0.00774582 0)
(-0.0842559 0.00750751 -3.1485e-23)
(-0.0885177 0.00712871 0)
(-0.0925011 0.00659656 0)
(-0.0960642 0.00590427 -4.46146e-19)
(-0.0990628 0.00505049 0)
(-0.101355 0.00403768 -4.40834e-19)
(-0.102797 0.00287387 -2.19483e-19)
(-0.103249 0.00157413 -5.46961e-20)
(-0.102578 0.000160695 5.45928e-20)
(-0.100656 -0.0013378 2.18166e-19)
(-0.0973639 -0.00288597 4.36135e-19)
(-0.0925894 -0.00444199 0)
(-0.0862295 -0.00595799 4.37258e-19)
(-0.0781929 -0.00738134 0)
(-0.0684062 -0.00865324 0)
(-0.0568067 -0.00971177 0)
(-0.043366 -0.0104881 8.86646e-19)
(-0.0280597 -0.0109094 0)
(-0.0109506 -0.0108894 0)
(0.00792415 -0.0103231 1.78272e-18)
(0.028342 -0.00910808 -1.77996e-18)
(0.0503555 -0.00718948 0)
(0.0742361 -0.00468872 0)
(0.100322 -0.0016126 1.87125e-18)
(0.127987 0.00216522 1.92074e-18)
(0.158115 0.0067212 -1.97027e-18)
(0.189249 0.0120826 0)
(0.223676 0.0183131 0)
(0.257738 0.0254007 0)
(0.297497 0.0334574 7.08337e-21)
(0.333401 0.042363 0)
(0.381563 0.0525207 4.27507e-18)
(0.416614 0.0632582 0)
(0.481294 0.0763143 4.07618e-18)
(0.508494 0.0884183 -3.36612e-18)
(0.610598 0.106637 7.07965e-18)
(0.614697 0.117743 -1.43763e-18)
(0.811109 0.140646 -2.56984e-18)
(0.863047 0.0707583 8.43614e-20)
(0.440359 0.0301573 -3.62695e-18)
(0.191671 0.00764441 -4.11376e-18)
(0.0538801 0.00919609 -1.83074e-22)
(0.00808369 0.00653781 -4.58207e-18)
(-0.0240213 0.00875993 -4.62297e-18)
(-0.0339168 0.00793337 0)
(-0.0435951 0.00840319 -4.53833e-18)
(-0.0464454 0.00797301 0)
(-0.0498285 0.00793225 -2.20321e-18)
(-0.0510553 0.00771124 -2.1671e-18)
(-0.052834 0.00767299 2.13201e-18)
(-0.0541609 0.00766224 -2.09607e-18)
(-0.056083 0.0077579 2.06143e-18)
(-0.0582009 0.00789771 -2.02714e-18)
(-0.060875 0.00807738 1.9942e-18)
(-0.0639061 0.00826325 0)
(-0.0673746 0.00843306 0)
(-0.0711472 0.00856158 0)
(-0.0751878 0.00862367 9.37629e-19)
(-0.0793753 0.00859499 9.24659e-19)
(-0.0836145 0.00845026 0)
(-0.0877731 0.00816754 -9.01144e-19)
(-0.0917225 0.00772733 0)
(-0.0953202 0.00711761 0)
(-0.0984293 0.00633314 4.36281e-19)
(-0.100914 0.00537429 -4.32454e-19)
(-0.102641 0.00424514 2.146e-19)
(-0.103479 0.00295528 0)
(-0.103299 0.00152149 1.06056e-19)
(-0.101979 -3.2251e-05 -1.05644e-19)
(-0.0994019 -0.00167578 0)
(-0.0954563 -0.00337233 -2.10131e-19)
(-0.0900348 -0.0050787 4.19805e-19)
(-0.0830404 -0.00674522 -4.20023e-19)
(-0.0743858 -0.00831725 0)
(-0.0640004 -0.00973378 0)
(-0.0518226 -0.0109301 0)
(-0.0378235 -0.0118345 -8.48318e-19)
(-0.0219755 -0.0123689 0)
(-0.00433362 -0.0124421 0)
(0.0150818 -0.0119414 -1.70507e-18)
(0.0360976 -0.0107633 0)
(0.0588174 -0.00887512 1.70751e-18)
(0.0835027 -0.00639902 -1.73706e-18)
(0.110426 -0.00331169 0)
(0.13901 0.000509656 1.81421e-18)
(0.17009 0.0051491 3.71285e-18)
(0.202323 0.0106305 -1.89211e-18)
(0.237875 0.0170276 0)
(0.273355 0.0243296 0)
(0.314492 0.0326445 1.98715e-18)
(0.352371 0.0418944 0)
(0.40222 0.052391 3.96051e-18)
(0.440214 0.0636894 0)
(0.506807 0.0770731 3.77541e-18)
(0.538639 0.0901523 3.1189e-18)
(0.642387 0.108301 -3.30902e-18)
(0.653756 0.120928 0)
(0.850361 0.141818 2.38638e-18)
(0.887776 0.0828603 -3.35095e-18)
(0.502042 0.0364635 2.00263e-20)
(0.239774 0.0112253 4.05959e-18)
(0.0826542 0.0104508 -1.62643e-22)
(0.022866 0.00710683 -6.62309e-22)
(-0.0159123 0.00909965 0)
(-0.0298243 0.0081881 0)
(-0.041999 0.00871814 0)
(-0.0463832 0.00828701 -2.23434e-18)
(-0.0508081 0.00828785 4.40351e-18)
(-0.052714 0.00808933 0)
(-0.0549616 0.00808814 2.12896e-18)
(-0.0566066 0.0081141 6.3085e-23)
(-0.058748 0.00825209 -2.05524e-18)
(-0.0610144 0.00843306 5.62251e-23)
(-0.0637793 0.00865086 -1.98352e-18)
(-0.0668499 0.00886797 0)
(-0.0703045 0.00905983 0)
(-0.0740075 0.00919908 0)
(-0.0779178 0.00925904 -9.2653e-19)
(-0.0819117 0.00921412 0)
(-0.0858921 0.00903826 8.98241e-19)
(-0.0897279 0.00870921 8.85363e-19)
(-0.0932941 0.00820772 -8.73384e-19)
(-0.096454 0.00752279 0)
(-0.0990789 0.00665069 0)
(-0.101042 0.0055933 4.21694e-19)
(-0.102219 0.00435591 0)
(-0.102488 0.00294925 2.07163e-19)
(-0.101731 0.00139131 -5.14468e-20)
(-0.0998319 -0.000292694 5.11682e-20)
(-0.0966817 -0.00207159 -2.0362e-19)
(-0.0921724 -0.0039077 0)
(-0.0862009 -0.00575654 -4.05037e-19)
(-0.0786738 -0.00756686 0)
(-0.0695064 -0.00928213 0)
(-0.0586292 -0.0108393 8.11062e-19)
(-0.0459809 -0.0121711 0)
(-0.0315312 -0.0132027 0)
(-0.0152494 -0.0138517 0)
(0.00281831 -0.0140224 0)
(0.0226686 -0.0135963 0)
(0.0441713 -0.012471 0)
(0.067465 -0.0106329 -3.28799e-18)
(0.09277 -0.00820429 1.66742e-18)
(0.120315 -0.00513348 1.69609e-18)
(0.149572 -0.00130377 -3.45535e-18)
(0.181327 0.0033761 -1.76106e-18)
(0.21434 0.00892294 1.78937e-18)
(0.250662 0.0154228 -1.81605e-18)
(0.287142 0.0228556 0)
(0.329203 0.031339 3.27696e-21)
(0.368507 0.0408047 -3.66927e-18)
(0.419469 0.0515247 -3.6906e-18)
(0.45968 0.0631822 -3.49158e-18)
(0.527499 0.0767691 -7.00692e-18)
(0.563016 0.0905037 -2.90057e-18)
(0.667638 0.108501 3.04719e-18)
(0.685111 0.122169 1.21502e-18)
(0.880596 0.141218 -2.22449e-18)
(0.907674 0.0939178 -7.31273e-20)
(0.558804 0.0432705 3.4878e-18)
(0.29032 0.015416 2.24655e-21)
(0.115912 0.0121362 -2.02831e-22)
(0.0410956 0.00790908 4.54141e-18)
(-0.00521108 0.00947435 4.60257e-18)
(-0.0237876 0.00842967 -4.5713e-18)
(-0.0388265 0.00898379 2.2654e-18)
(-0.0450214 0.0085377 4.43239e-23)
(-0.0506708 0.00857391 -2.19979e-18)
(-0.0533813 0.00839371 -2.16241e-18)
(-0.056174 0.00842725 -2.12531e-18)
(-0.058176 0.00848728 4.17289e-18)
(-0.060544 0.00866496 5.34198e-23)
(-0.0629413 0.00888379 2.00912e-18)
(-0.0657595 0.00913591 0)
(-0.0688176 0.00937988 1.93367e-18)
(-0.0721963 0.00958924 0)
(-0.0757625 0.00973476 -1.86261e-18)
(-0.079475 0.00978874 -9.14601e-19)
(-0.0832115 0.00972472 -8.98679e-19)
(-0.0868775 0.00951625 -3.18387e-23)
(-0.0903463 0.00914103 -8.6948e-19)
(-0.093499 0.00858021 8.5628e-19)
(-0.0962065 0.00782373 0)
(-0.0983479 0.00686922 -4.16466e-19)
(-0.0998045 0.00571974 0)
(-0.100461 0.00438149 0)
(-0.100203 0.00286599 -2.01646e-19)
(-0.098918 0.00119213 0)
(-0.0964977 -0.000613976 0)
(-0.0928365 -0.00252051 1.9751e-19)
(-0.087829 -0.00448901 0)
(-0.0813759 -0.00647379 0)
(-0.0733864 -0.00842206 3.91558e-19)
(-0.0637774 -0.0102756 0)
(-0.0524807 -0.0119694 -7.84252e-19)
(-0.0394345 -0.0134337 0)
(-0.0246076 -0.014591 7.87961e-19)
(-0.0079659 -0.0153547 0)
(0.010453 -0.0156255 0)
(0.0306621 -0.0152807 0)
(0.0525667 -0.0142204 0)
(0.0763281 -0.0124464 1.59077e-18)
(0.102112 -0.0100796 0)
(0.13012 -0.00704383 -3.26269e-18)
(0.159867 -0.0032296 1.65596e-18)
(0.192096 0.00146119 -1.67948e-18)
(0.22566 0.00703602 1.69997e-18)
(0.2625 0.0135944 1.72313e-18)
(0.299683 0.0210998 0)
(0.342348 0.0296892 1.74412e-18)
(0.382673 0.0392785 5.16566e-18)
(0.434345 0.0501412 -3.43872e-18)
(0.476204 0.0620063 3.25997e-18)
(0.544755 0.07571 3.2572e-18)
(0.58314 0.0898394 0)
(0.688086 0.107647 -2.82889e-18)
(0.710503 0.121929 -2.24003e-18)
(0.904081 0.139383 0)
(0.92368 0.103944 3.57852e-18)
(0.610446 0.0503875 0)
(0.342075 0.0201757 2.02972e-21)
(0.153223 0.014309 -2.83357e-22)
(0.0629171 0.0090057 -4.51495e-18)
(0.00820407 0.00994294 -9.1758e-18)
(-0.0157198 0.00869892 9.12953e-18)
(-0.0340046 0.00922761 -2.26278e-18)
(-0.0423038 0.00874617 2.23032e-18)
(-0.0493757 0.0088064 0)
(-0.0530273 0.00863643 4.36076e-23)
(-0.0564526 0.00869935 0)
(-0.05886 0.00878827 -4.16063e-18)
(-0.0614722 0.00900118 2.03955e-18)
(-0.0639945 0.00925333 0)
(-0.0668432 0.00953547 0)
(-0.0698545 0.00980206 -1.91747e-18)
(-0.0731168 0.010025 0)
(-0.076504 0.0101735 1.84114e-18)
(-0.0799782 0.010219 9.02627e-19)
(-0.0834221 0.0101345 2.83381e-23)
(-0.086746 0.00989333 -8.69374e-19)
(-0.0898297 0.00947323 -8.54154e-19)
(-0.0925612 0.00885575 0)
(-0.0948191 0.00803165 0)
(-0.09649 0.00699968 4.07566e-19)
(-0.0974623 0.00576389 0)
(-0.0976277 0.00433111 1.98737e-19)
(-0.0968775 0.00271347 -1.96698e-19)
(-0.0951051 0.000930542 4.87466e-20)
(-0.0922072 -0.000990934 -4.83654e-20)
(-0.0880799 -0.0030187 1.92154e-19)
(-0.0826212 -0.00511353 -1.91188e-19)
(-0.0757347 -0.0072285 3.81088e-19)
(-0.0673319 -0.0093095 -3.80483e-19)
(-0.0573312 -0.0112966 0)
(-0.0456654 -0.0131231 0)
(-0.0322727 -0.0147167 0)
(-0.0171209 -0.0159975 -2.02332e-22)
(-0.000172835 -0.0168752 7.67115e-19)
(0.0185425 -0.0172474 0)
(0.0390519 -0.0169891 0)
(0.0612902 -0.0160031 0)
(0.0854314 -0.0143028 0)
(0.111585 -0.0120068 0)
(0.139933 -0.00901831 1.02609e-21)
(0.170033 -0.00523589 0)
(0.202587 -0.000554647 3.2283e-18)
(0.23653 0.00502198 -3.25698e-18)
(0.273706 0.0116079 -1.64183e-18)
(0.311371 0.0191446 0)
(0.354414 0.0277961 0)
(0.395462 0.0374434 -3.24776e-18)
(0.44756 0.0483918 7.6494e-21)
(0.490641 0.0603534 -3.0421e-18)
(0.559579 0.0741156 3.02666e-18)
(0.60018 0.0884388 2.4793e-18)
(0.705075 0.106045 -2.60322e-18)
(0.731434 0.120593 2.04867e-18)
(0.92267 0.13672 1.86798e-18)
(0.936534 0.112984 6.54411e-20)
(0.656982 0.0576404 -3.34645e-18)
(0.393926 0.0254377 -7.7738e-18)
(0.194009 0.0170014 -3.94415e-22)
(0.0883975 0.0104505 4.48254e-18)
(0.0244719 0.0105631 4.568e-18)
(-0.00552922 0.00904026 -2.27702e-18)
(-0.02745 0.00947763 0)
(-0.0381667 0.00893456 0)
(-0.0468753 0.00900208 2.19447e-18)
(-0.0516184 0.00883045 2.15587e-18)
(-0.0557773 0.00891453 0)
(-0.0586508 0.00902489 2.07373e-18)
(-0.0615381 0.00926705 0)
(-0.0641935 0.00954712 0)
(-0.0670656 0.00985474 0)
(-0.0700134 0.0101399 0)
(-0.073138 0.0103733 1.85983e-18)
(-0.0763235 0.0105221 9.10045e-19)
(-0.0795388 0.0105576 -8.91056e-19)
(-0.0826737 0.010452 2.77288e-23)
(-0.0856448 0.0101787 0)
(-0.0883393 0.00971538 8.40022e-19)
(-0.0906527 0.00904396 0)
(-0.0924706 0.00815587 0)
(-0.0936867 0.00705086 3.9952e-19)
(-0.0941956 0.00573372 -3.93945e-19)
(-0.0938948 0.00421182 -1.94531e-19)
(-0.0926809 0.00249769 1.92409e-19)
(-0.090452 0.000611468 -9.53086e-20)
(-0.0871083 -0.00141971 9.44783e-20)
(-0.082548 -0.00356323 -1.87603e-19)
(-0.076672 -0.00577903 1.86583e-19)
(-0.0693867 -0.00801905 -6.53884e-23)
(-0.060606 -0.0102279 -3.70949e-19)
(-0.0502497 -0.0123441 0)
(-0.0382517 -0.0142993 0)
(-0.0245503 -0.0160188 0)
(-0.00911248 -0.0174206 -1.49175e-18)
(0.0081012 -0.0184109 -7.47842e-19)
(0.0270706 -0.0188853 0)
(0.0478334 -0.0187169 0)
(0.0703484 -0.0178122 -1.50245e-18)
(0.0947951 -0.0161921 0)
(0.121231 -0.0139721 0)
(0.149823 -0.011039 3.06375e-18)
(0.180168 -0.00729962 -1.54499e-18)
(0.212932 -0.00264234 -3.11873e-18)
(0.247123 0.00291749 1.60734e-21)
(0.284498 0.00950876 3.15454e-18)
(0.32248 0.0170472 1.57277e-18)
(0.365734 0.025729 0)
(0.407283 0.0353868 1.54385e-18)
(0.459604 0.0463803 3.06433e-18)
(0.503583 0.0583571 2.87385e-18)
(0.57267 0.0721379 -2.84859e-18)
(0.614983 0.0865041 -2.32447e-18)
(0.71958 0.103912 2.43196e-18)
(0.749067 0.11846 -9.46281e-19)
(0.937754 0.133512 -1.73403e-18)
(0.946832 0.121102 6.24622e-20)
(0.698567 0.0648791 3.30731e-18)
(0.444922 0.0311154 -1.56926e-21)
(0.237583 0.0202217 -5.31239e-22)
(0.117498 0.0122883 0)
(0.0437103 0.0113938 0)
(0.00690561 0.00949643 1.72215e-22)
(-0.0190677 0.00976293 0)
(-0.0325382 0.00912615 0)
(-0.0431142 0.00917857 -7.5402e-24)
(-0.0491153 0.00898972 0)
(-0.0541245 0.009084 0)
(-0.0575396 0.00920624 2.06704e-18)
(-0.0607476 0.00947031 0)
(-0.0635587 0.00977207 0)
(-0.0664621 0.0101003 0)
(-0.0693447 0.0104002 0)
(-0.072325 0.0106409 -3.49235e-23)
(-0.0753007 0.0107881 -9.00213e-19)
(-0.0782499 0.0108123 1.76069e-18)
(-0.081071 0.0106853 2.65512e-23)
(-0.0836882 0.0103805 8.43761e-19)
(-0.0859967 0.00987556 0)
(-0.0878993 0.00915267 8.11796e-19)
(-0.0892888 0.00820379 0)
(-0.090065 0.00702953 -3.92464e-19)
(-0.0901287 0.00563531 3.26132e-23)
(-0.0893821 0.00402888 0)
(-0.0877266 0.0022231 0)
(-0.0850644 0.000238548 5.59899e-24)
(-0.0812988 -0.00189743 -6.1065e-24)
(-0.0763297 -0.00415185 9.18246e-20)
(-0.0700615 -0.00648379 0)
(-0.0624032 -0.00884413 -3.638e-19)
(-0.0532709 -0.0111763 3.62987e-19)
(-0.0425861 -0.0134173 0)
(-0.0302837 -0.0154972 -7.25961e-19)
(-0.0163025 -0.0173391 0)
(-0.000609111 -0.0188591 1.64083e-22)
(0.0168383 -0.0199603 0)
(0.0360275 -0.0205368 7.32432e-19)
(0.0570046 -0.0204607 7.33882e-19)
(0.0797476 -0.0196421 4.99147e-22)
(0.104436 -0.0181065 -1.47473e-18)
(0.131082 -0.0159651 0)
(0.159841 -0.0130926 -8.57808e-22)
(0.190345 -0.00940377 1.5047e-18)
(0.223228 -0.00478071 1.24288e-21)
(0.257564 0.000748926 1.51954e-18)
(0.295031 0.00732915 -1.75614e-21)
(0.333201 0.0148478 -2.06768e-21)
(0.37654 0.0235364 0)
(0.418418 0.0331696 0)
(0.470813 0.0441783 0)
(0.515446 0.0561104 0)
(0.584511 0.0698818 0)
(0.628148 0.084178 2.17095e-18)
(0.732287 0.101399 0)
(0.764263 0.115746 0)
(0.950324 0.12995 -1.59599e-18)
(0.95506 0.12837 -1.9214e-18)
(0.735451 0.0719805 0)
(0.494285 0.0371091 -1.37648e-21)
(0.283189 0.0239548 -6.88133e-22)
(0.15006 0.0145527 0)
(0.0660062 0.0124925 2.25869e-18)
(0.0217219 0.0101092 -2.26229e-18)
(-0.00875176 0.0101138 0)
(-0.0253367 0.00934548 0)
(-0.038027 0.00935433 -2.1884e-18)
(-0.0454705 0.00912919 0)
(-0.0514638 0.00921992 0)
(-0.0555121 0.00934242 -2.06076e-18)
(-0.0591018 0.00961964 0)
(-0.0621055 0.00993595 -1.9654e-18)
(-0.0650615 0.0102795 0)
(-0.0678897 0.0105899 0)
(-0.0707309 0.0108351 -2.84089e-23)
(-0.0734989 0.0109784 0)
(-0.0761836 0.0109902 -8.70657e-19)
(-0.0786933 0.0108414 8.51179e-19)
(-0.080961 0.0105056 -1.66574e-18)
(-0.0828901 0.00996042 8.15787e-19)
(-0.084391 0.00918814 -8.00044e-19)
(-0.0853635 0.00818121 0)
(-0.0857135 0.00694094 -3.86235e-19)
(-0.0853471 0.0054733 7.60824e-19)
(-0.0841712 0.0037863 0)
(-0.0820915 0.00189308 -9.27133e-20)
(-0.0790142 -0.000185476 4.58809e-20)
(-0.0748446 -0.00242193 -4.54334e-20)
(-0.0694852 -0.00478288 -9.01544e-20)
(-0.0628439 -0.00722652 0)
(-0.0548323 -0.00970274 -3.56941e-19)
(-0.0453686 -0.0121539 3.561e-19)
(-0.0343761 -0.0145155 0)
(-0.0217912 -0.0167161 7.12401e-19)
(-0.00755329 -0.0186769 0)
(0.0083714 -0.020312 7.15472e-19)
(0.0260268 -0.0215221 0)
(0.0454071 -0.0221999 -7.18652e-19)
(0.066565 -0.0222174 -7.20349e-19)
(0.0894934 -0.0214883 4.62578e-22)
(0.114369 -0.0200395 1.44802e-18)
(0.141164 -0.0179777 0)
(0.170026 -0.0151687 -1.46306e-18)
(0.200619 -0.0115355 0)
(0.233546 -0.00695395 1.4768e-18)
(0.267944 -0.00146426 0)
(0.305418 0.00509269 -1.4787e-18)
(0.343673 0.0125753 -2.93226e-18)
(0.386997 0.0212528 0)
(0.429071 0.0308352 0)
(0.481425 0.0418365 0)
(0.526521 0.0536788 1.29608e-18)
(0.595441 0.0674205 0)
(0.640102 0.081562 -9.79169e-21)
(0.743673 0.0986084 0)
(0.777641 0.112609 7.95876e-19)
(0.961076 0.126161 1.49786e-18)
(0.961618 0.134866 0)
(0.767944 0.0788477 3.2189e-18)
(0.541403 0.0433136 3.73672e-18)
(0.330046 0.0281637 -8.56512e-22)
(0.1858 0.0172645 0)
(0.0914029 0.0139107 -2.24339e-18)
(0.039057 0.0109206 0)
(0.00361229 0.0105627 2.24565e-18)
(-0.0164724 0.00961852 2.21866e-18)
(-0.0315372 0.00954866 2.18541e-18)
(-0.0406267 0.00926475 2.14538e-18)
(-0.0477551 0.00933531 2.10236e-18)
(-0.0525451 0.00944435 0)
(-0.056593 0.00972437 0)
(-0.05984 0.0100469 1.95617e-18)
(-0.0628823 0.0103998 0)
(-0.0656774 0.010716 0)
(-0.0683935 0.0109623 -1.81132e-18)
(-0.0709638 0.0110995 0)
(-0.0733919 0.0110974 -8.62052e-19)
(-0.0755976 0.0109264 0)
(-0.0775236 0.0105599 8.23281e-19)
(-0.079082 0.0099754 -8.05823e-19)
(-0.0801912 0.00915544 0)
(-0.0807578 0.00809274 0)
(-0.0806937 0.00678926 2.62048e-23)
(-0.0799104 0.00525134 -3.74962e-19)
(-0.0783189 0.00348722 0)
(-0.075829 0.00151025 9.1335e-20)
(-0.0723507 -0.000658489 4.51602e-20)
(-0.0677912 -0.00299153 -4.47092e-20)
(-0.0620561 -0.00545499 0)