/*--------------------------------*- C++ -*----------------------------------*\
| =========                 |                                                 |
| \\      /  F ield         | OpenFOAM: The Open Source CFD Toolbox           |
|  \\    /   O peration     | Version:  2.4.0                                 |
|   \\  /    A nd           | Web:      www.OpenFOAM.org                      |
|    \\/     M anipulation  |                                                 |
\*---------------------------------------------------------------------------*/
FoamFile
{
    version     2.0;
    format      ascii;
    class       surfaceScalarField;
    location    "2.2";
    object      phi;
}
// * * * * * * * * * * * * * * * * * * * * * * * * * * * * * * * * * * * * * //

dimensions      [0 3 -1 0 0 0 0];

internalField   nonuniform List<scalar> 
11100
(
5.52964e-06
7.80369e-06
1.73489e-06
3.79475e-06
1.08495e-07
1.6264e-06
-6.55729e-07
7.64224e-07
-9.92524e-07
3.36795e-07
-1.23171e-06
2.39184e-07
-1.40915e-06
1.77442e-07
-1.57775e-06
1.686e-07
-1.7236e-06
1.45852e-07
-1.86328e-06
1.39676e-07
-1.9906e-06
1.27326e-07
-2.11999e-06
1.29384e-07
-2.25702e-06
1.37033e-07
-2.41992e-06
1.62894e-07
-2.62331e-06
2.03393e-07
-2.87909e-06
2.55785e-07
-3.19422e-06
3.15125e-07
-3.57386e-06
3.79641e-07
-4.019e-06
4.4514e-07
-4.53082e-06
5.11824e-07
-5.10919e-06
5.78366e-07
-5.75002e-06
6.40832e-07
-6.44284e-06
6.92816e-07
-7.17237e-06
7.29527e-07
-7.91637e-06
7.44008e-07
-8.65108e-06
7.3471e-07
-9.33624e-06
6.85159e-07
-9.94366e-06
6.07419e-07
-1.04737e-05
5.30078e-07
-1.0923e-05
4.49251e-07
-1.12881e-05
3.6514e-07
-1.15453e-05
2.57207e-07
-1.16832e-05
1.37861e-07
-1.16491e-05
-3.40512e-08
-1.1455e-05
-1.94135e-07
-1.10947e-05
-3.60344e-07
-1.05585e-05
-5.36131e-07
-9.83939e-06
-7.19152e-07
-8.93053e-06
-9.08857e-07
-7.82911e-06
-1.10142e-06
-6.54128e-06
-1.28783e-06
-5.08547e-06
-1.4558e-06
-3.50758e-06
-1.57789e-06
-1.85304e-06
-1.65455e-06
-1.95513e-07
-1.65752e-06
1.40795e-06
-1.60347e-06
2.88367e-06
-1.47572e-06
4.19531e-06
-1.31164e-06
5.31736e-06
-1.12205e-06
6.24504e-06
-9.2768e-07
6.99355e-06
-7.48506e-07
7.57581e-06
-5.82259e-07
8.03336e-06
-4.57555e-07
8.37611e-06
-3.42751e-07
8.65598e-06
-2.79871e-07
8.86275e-06
-2.06768e-07
9.05975e-06
-1.97001e-07
9.2016e-06
-1.41849e-07
9.3711e-06
-1.69493e-07
9.48024e-06
-1.09148e-07
9.65504e-06
-1.748e-07
9.73844e-06
-8.34003e-08
9.93039e-06
-1.91943e-07
9.97206e-06
-4.16695e-08
1.01807e-05
-2.08653e-07
1.01583e-05
2.24452e-08
1.03826e-05
-2.24337e-07
1.02721e-05
1.10459e-07
1.05258e-05
-2.53651e-07
1.03084e-05
2.17439e-07
1.06303e-05
-3.2199e-07
1.02711e-05
3.59264e-07
1.07976e-05
-5.26528e-07
1.0719e-05
7.86232e-08
-1.187e-06
7.22673e-06
1.39103e-05
3.63149e-06
7.38999e-06
1.29034e-06
3.96755e-06
-6.36012e-10
2.0552e-06
-6.03713e-07
9.39872e-07
-9.55724e-07
5.91194e-07
-1.20975e-06
4.31472e-07
-1.41575e-06
3.74596e-07
-1.59339e-06
3.23493e-07
-1.74914e-06
2.95426e-07
-1.88905e-06
2.67232e-07
-2.02242e-06
2.62754e-07
-2.16232e-06
2.76936e-07
-2.32561e-06
3.26188e-07
-2.53117e-06
4.08954e-07
-2.79543e-06
5.20046e-07
-3.13135e-06
6.51038e-07
-3.54747e-06
7.95764e-07
-4.04723e-06
9.44904e-07
-4.62761e-06
1.0922e-06
-5.27946e-06
1.23022e-06
-5.98902e-06
1.35039e-06
-6.73862e-06
1.44242e-06
-7.50833e-06
1.49924e-06
-8.27626e-06
1.51194e-06
-9.01723e-06
1.47568e-06
-9.7124e-06
1.38032e-06
-1.03459e-05
1.24095e-06
-1.09009e-05
1.08506e-06
-1.13603e-05
9.08622e-07
-1.17054e-05
7.10278e-07
-1.19206e-05
4.72424e-07
-1.1989e-05
2.06236e-07
-1.19149e-05
-1.08135e-07
-1.16756e-05
-4.33414e-07
-1.12687e-05
-7.6725e-07
-1.06854e-05
-1.11948e-06
-9.91746e-06
-1.48708e-06
-8.95802e-06
-1.86829e-06
-7.80634e-06
-2.2531e-06
-6.47073e-06
-2.62344e-06
-4.97104e-06
-2.9555e-06
-3.34995e-06
-3.19897e-06
-1.65545e-06
-3.34905e-06
4.73419e-08
-3.36031e-06
1.69625e-06
-3.25237e-06
3.22737e-06
-3.00685e-06
4.60137e-06
-2.68563e-06
5.78614e-06
-2.30682e-06
6.7816e-06
-1.92315e-06
7.58991e-06
-1.55681e-06
8.23951e-06
-1.23186e-06
8.74865e-06
-9.66698e-07
9.15299e-06
-7.47091e-07
9.4702e-06
-5.97075e-07
9.73143e-06
-4.68004e-07
9.95186e-06
-4.17429e-07
1.01461e-05
-3.36062e-07
1.03316e-05
-3.5499e-07
1.0497e-05
-2.74584e-07
1.06745e-05
-3.52254e-07
1.0829e-05
-2.37942e-07
1.10098e-05
-3.7271e-07
1.11439e-05
-1.75778e-07
1.13247e-05
-3.89443e-07
1.1419e-05
-7.19238e-08
1.15965e-05
-4.01793e-07
1.16306e-05
7.63888e-08
1.18078e-05
-4.30888e-07
1.17633e-05
2.61982e-07
1.19684e-05
-5.27172e-07
1.18048e-05
5.22884e-07
1.21725e-05
-8.94176e-07
1.20643e-05
1.8675e-07
-1.68051e-06
8.335e-06
1.89086e-05
4.87131e-06
1.08537e-05
2.28971e-06
6.54915e-06
6.8298e-07
3.66192e-06
-1.75146e-07
1.798e-06
-6.49886e-07
1.06594e-06
-9.71822e-07
7.53407e-07
-1.21568e-06
6.18455e-07
-1.41859e-06
5.264e-07
-1.59043e-06
4.67266e-07
-1.74088e-06
4.17688e-07
-1.87877e-06
4.0064e-07
-2.01843e-06
4.16594e-07
-2.17679e-06
4.84554e-07
-2.37381e-06
6.05973e-07
-2.62851e-06
7.74744e-07
-2.95706e-06
9.79591e-07
-3.3696e-06
1.2083e-06
-3.86838e-06
1.44368e-06
-4.44856e-06
1.67238e-06
-5.1001e-06
1.88175e-06
-5.80825e-06
2.05855e-06
-6.55488e-06
2.18904e-06
-7.31987e-06
2.26423e-06
-8.08217e-06
2.27424e-06
-8.81975e-06
2.21326e-06
-9.51566e-06
2.07624e-06
-1.0152e-05
1.87733e-06
-1.07085e-05
1.64154e-06
-1.11666e-05
1.3667e-06
-1.15079e-05
1.0516e-06
-1.17216e-05
6.86088e-07
-1.17925e-05
2.77161e-07
-1.17174e-05
-1.83199e-07
-1.14847e-05
-6.66166e-07
-1.10822e-05
-1.16974e-06
-1.05023e-05
-1.69936e-06
-9.73672e-06
-2.25269e-06
-8.77942e-06
-2.82559e-06
-7.62935e-06
-3.40317e-06
-6.29418e-06
-3.95861e-06
-4.79426e-06
-4.45542e-06
-3.17083e-06
-4.8224e-06
-1.47341e-06
-5.04648e-06
2.34539e-07
-5.06826e-06
1.88929e-06
-4.90712e-06
3.4279e-06
-4.54546e-06
4.81004e-06
-4.06777e-06
6.00495e-06
-3.50172e-06
7.01189e-06
-2.93009e-06
7.83298e-06
-2.3779e-06
8.49552e-06
-1.8944e-06
9.01707e-06
-1.48825e-06
9.4339e-06
-1.16392e-06
9.76175e-06
-9.24921e-07
1.00346e-05
-7.40859e-07
1.02623e-05
-6.4512e-07
1.04693e-05
-5.43082e-07
1.0656e-05
-5.41689e-07
1.08384e-05
-4.56956e-07
1.1014e-05
-5.27867e-07
1.11903e-05
-4.14243e-07
1.13649e-05
-5.47288e-07
1.15293e-05
-3.40198e-07
1.16966e-05
-5.56746e-07
1.18353e-05
-2.10664e-07
1.19865e-05
-5.5297e-07
1.20838e-05
-2.08542e-08
1.22196e-05
-5.66708e-07
1.22604e-05
2.21145e-07
1.23947e-05
-6.61427e-07
1.23645e-05
5.53061e-07
1.25761e-05
-1.10579e-06
1.2585e-05
1.77828e-07
-1.97462e-06
9.14178e-06
2.31002e-05
5.91735e-06
1.40781e-05
3.25568e-06
9.21083e-06
1.40873e-06
5.50888e-06
3.12385e-07
2.89434e-06
-3.06293e-07
1.68461e-06
-7.06427e-07
1.15354e-06
-9.95094e-07
9.07122e-07
-1.22607e-06
7.5737e-07
-1.41648e-06
6.57676e-07
-1.57908e-06
5.80293e-07
-1.72324e-06
5.44804e-07
-1.86356e-06
5.56912e-07
-2.01702e-06
6.38011e-07
-2.20392e-06
7.9288e-07
-2.44453e-06
1.01535e-06
-2.75659e-06
1.29165e-06
-3.15148e-06
1.60319e-06
-3.63232e-06
1.92452e-06
-4.19459e-06
2.23465e-06
-4.82833e-06
2.51549e-06
-5.51912e-06
2.74934e-06
-6.24954e-06
2.91946e-06
-7.00025e-06
3.01495e-06
-7.75105e-06
3.02503e-06
-8.48133e-06
2.94354e-06
-9.17387e-06
2.76878e-06
-9.8094e-06
2.51286e-06
-1.03668e-05
2.19897e-06
-1.08276e-05
1.82752e-06
-1.11746e-05
1.39858e-06
-1.13962e-05
9.07647e-07
-1.14794e-05
3.60355e-07
-1.1417e-05
-2.45532e-07
-1.11982e-05
-8.84982e-07
-1.08109e-05
-1.55712e-06
-1.0246e-05
-2.26418e-06
-9.49517e-06
-3.00356e-06
-8.55191e-06
-3.76885e-06
-7.41429e-06
-4.54079e-06
-6.08889e-06
-5.28401e-06
-4.59616e-06
-5.94815e-06
-2.97659e-06
-6.44197e-06
-1.28143e-06
-6.74164e-06
4.25816e-07
-6.77551e-06
2.07904e-06
-6.56035e-06
3.61597e-06
-6.08239e-06
4.99486e-06
-5.44666e-06
6.18702e-06
-4.69389e-06
7.19063e-06
-3.9337e-06
8.00962e-06
-3.19689e-06
8.66979e-06
-2.55457e-06
9.19042e-06
-2.00888e-06
9.60622e-06
-1.57972e-06
9.93438e-06
-1.25308e-06
1.02074e-05
-1.01393e-06
1.04356e-05
-8.73237e-07
1.0644e-05
-7.51546e-07
1.08303e-05
-7.27935e-07
1.10157e-05
-6.42383e-07
1.11902e-05
-7.02349e-07
1.13712e-05
-5.95276e-07
1.15422e-05
-7.18318e-07
1.17152e-05
-5.132e-07
1.18757e-05
-7.17177e-07
1.20272e-05
-3.62167e-07
1.21692e-05
-6.9498e-07
1.22839e-05
-1.35575e-07
1.24025e-05
-6.85275e-07
1.24741e-05
1.49475e-07
1.25721e-05
-7.59347e-07
1.26047e-05
5.20407e-07
1.27281e-05
-1.22913e-06
1.28321e-05
7.37824e-08
-2.22309e-06
9.80802e-06
2.66255e-05
6.84413e-06
1.7042e-05
4.20209e-06
1.18529e-05
2.18775e-06
7.52322e-06
8.69373e-07
4.21272e-06
9.1526e-08
2.46246e-06
-4.0161e-07
1.64668e-06
-7.44943e-07
1.25046e-06
-1.00989e-06
1.02232e-06
-1.22294e-06
8.70725e-07
-1.4006e-06
7.57957e-07
-1.55339e-06
6.97592e-07
-1.69594e-06
6.99462e-07
-1.84524e-06
7.87305e-07
-2.02171e-06
9.69355e-07
-2.24633e-06
1.23997e-06
-2.53815e-06
1.58347e-06
-2.91009e-06
1.97513e-06
-3.36675e-06
2.38119e-06
-3.90466e-06
2.77256e-06
-4.5146e-06
3.12543e-06
-5.18294e-06
3.41768e-06
-5.89296e-06
3.62949e-06
-6.62601e-06
3.74799e-06
-7.36232e-06
3.76135e-06
-8.08185e-06
3.66307e-06
-8.76699e-06
3.45391e-06
-9.39786e-06
3.14372e-06
-9.95342e-06
2.75453e-06
-1.04155e-05
2.28958e-06
-1.07677e-05
1.75078e-06
-1.09977e-05
1.1377e-06
-1.10934e-05
4.56049e-07
-1.10461e-05
-2.92888e-07
-1.08441e-05
-1.08695e-06
-1.04757e-05
-1.92552e-06
-9.93092e-06
-2.80897e-06
-9.20054e-06
-3.73393e-06
-8.2774e-06
-4.692e-06
-7.15826e-06
-5.65993e-06
-5.84816e-06
-6.5941e-06
-4.36714e-06
-7.42917e-06
-2.75526e-06
-8.05385e-06
-1.06555e-06
-8.43134e-06
6.37788e-07
-8.47885e-06
2.28612e-06
-8.20868e-06
3.81708e-06
-7.61335e-06
5.18759e-06
-6.81717e-06
6.37077e-06
-5.87707e-06
7.3641e-06
-4.92703e-06
8.17379e-06
-4.00659e-06
8.82461e-06
-3.20539e-06
9.33787e-06
-2.52214e-06
9.74675e-06
-1.9886e-06
1.00702e-05
-1.57657e-06
1.0339e-05
-1.2827e-06
1.05644e-05
-1.09865e-06
1.07705e-05
-9.57653e-07
1.09551e-05
-9.12558e-07
1.11397e-05
-8.26954e-07
1.13128e-05
-8.75455e-07
1.14941e-05
-7.76537e-07
1.16629e-05
-8.87184e-07
1.18382e-05
-6.88458e-07
1.19948e-05
-8.73736e-07
1.21511e-05
-5.185e-07
1.22856e-05
-8.2951e-07
1.24093e-05
-2.59258e-07
1.25178e-05
-7.93805e-07
1.26016e-05
6.57345e-08
1.26834e-05
-8.41165e-07
1.27426e-05
4.61239e-07
1.2826e-05
-1.31258e-06
1.29704e-05
-7.06183e-08
-2.43226e-06
1.03586e-05
2.96003e-05
7.67292e-06
1.97276e-05
5.11993e-06
1.44059e-05
3.00619e-06
9.63696e-06
1.49372e-06
5.72519e-06
5.50151e-07
3.40603e-06
-5.00877e-08
2.24692e-06
-4.59009e-07
1.65938e-06
-7.65224e-07
1.32853e-06
-1.00589e-06
1.11139e-06
-1.20226e-06
9.54319e-07
-1.36654e-06
8.6188e-07
-1.51345e-06
8.46371e-07
-1.65991e-06
9.3376e-07
-1.82637e-06
1.13582e-06
-2.03427e-06
1.44787e-06
-2.30377e-06
1.85297e-06
-2.64962e-06
2.32098e-06
-3.07828e-06
2.80985e-06
-3.58783e-06
3.28211e-06
-4.17024e-06
3.70784e-06
-4.81281e-06
4.06025e-06
-5.49949e-06
4.31616e-06
-6.21204e-06
4.46054e-06
-6.93094e-06
4.48025e-06
-7.63626e-06
4.36839e-06
-8.31013e-06
4.12778e-06
-8.93259e-06
3.76619e-06
-9.48291e-06
3.30486e-06
-9.94332e-06
2.74999e-06
-1.02981e-05
2.10554e-06
-1.05346e-05
1.37421e-06
-1.06409e-05
5.62416e-07
-1.06078e-05
-3.2603e-07
-1.04232e-05
-1.27152e-06
-1.00754e-05
-2.27332e-06
-9.55355e-06
-3.33084e-06
-8.84766e-06
-4.43983e-06
-7.94936e-06
-5.5903e-06
-6.85388e-06
-6.75542e-06
-5.56433e-06
-7.88365e-06
-4.09971e-06
-8.8938e-06
-2.49962e-06
-9.65394e-06
-8.18679e-07
-1.01123e-05
8.77828e-07
-1.01754e-05
2.51865e-06
-9.8495e-06
4.04047e-06
-9.13517e-06
5.39881e-06
-8.17551e-06
6.5683e-06
-7.04656e-06
7.54637e-06
-5.9051e-06
8.34152e-06
-4.80174e-06
8.97811e-06
-3.84198e-06
9.47944e-06
-3.02346e-06
9.87749e-06
-2.38665e-06
1.01928e-05
-1.8919e-06
1.04544e-05
-1.54429e-06
1.06749e-05
-1.31915e-06
1.08767e-05
-1.15945e-06
1.10587e-05
-1.09453e-06
1.12407e-05
-1.009e-06
1.1412e-05
-1.04675e-06
1.15918e-05
-9.56294e-07
1.17588e-05
-1.05424e-06
1.19339e-05
-8.63543e-07
1.20879e-05
-1.02776e-06
1.22457e-05
-6.76239e-07
1.23757e-05
-9.59555e-07
1.25033e-05
-3.86795e-07
1.26045e-05
-8.95043e-07
1.26945e-05
-2.42878e-08
1.27682e-05
-9.14812e-07
1.28398e-05
3.89606e-07
1.29025e-05
-1.37531e-06
1.30562e-05
-2.24305e-07
-2.60437e-06
1.08214e-05
3.21122e-05
8.41734e-06
2.21317e-05
6.00048e-06
1.68227e-05
3.84696e-06
1.17905e-05
2.17916e-06
7.39299e-06
1.07066e-06
4.51452e-06
3.52645e-07
2.96493e-06
-1.32721e-07
2.14474e-06
-4.88077e-07
1.68389e-06
-7.61938e-07
1.38526e-06
-9.81163e-07
1.17354e-06
-1.1603e-06
1.04101e-06
-1.31421e-06
1.00029e-06
-1.45972e-06
1.07926e-06
-1.61724e-06
1.29334e-06
-1.80853e-06
1.63916e-06
-2.05474e-06
2.09918e-06
-2.37258e-06
2.63882e-06
-2.77067e-06
3.20794e-06
-3.24898e-06
3.76042e-06
-3.8009e-06
4.25976e-06
-4.41475e-06
4.6741e-06
-5.0751e-06
4.97651e-06
-5.76409e-06
5.14954e-06
-6.46239e-06
5.17855e-06
-7.15002e-06
5.05601e-06
-7.80887e-06
4.78664e-06
-8.41918e-06
4.3765e-06
-8.96067e-06
3.84634e-06
-9.41592e-06
3.20524e-06
-9.76976e-06
2.45937e-06
-1.00095e-05
1.61397e-06
-1.01237e-05
6.76544e-07
-1.01025e-05
-3.472e-07
-9.93419e-06
-1.43981e-06
-9.607e-06
-2.60051e-06
-9.10949e-06
-3.82835e-06
-8.43081e-06
-5.11851e-06
-7.56121e-06
-6.4599e-06
-6.49417e-06
-7.82245e-06
-5.23058e-06
-9.14724e-06
-3.78758e-06
-1.03368e-05
-2.20404e-06
-1.12375e-05
-5.35518e-07
-1.17808e-05
1.15099e-06
-1.18619e-05
2.78177e-06
-1.14803e-05
4.29152e-06
-1.06449e-05
5.63419e-06
-9.51819e-06
6.78575e-06
-8.19812e-06
7.74408e-06
-6.86343e-06
8.52003e-06
-5.57768e-06
9.13811e-06
-4.46006e-06
9.62351e-06
-3.50886e-06
1.00074e-05
-2.77056e-06
1.03116e-05
-2.19612e-06
1.05637e-05
-1.79633e-06
1.07774e-05
-1.53283e-06
1.09734e-05
-1.35549e-06
1.11518e-05
-1.2729e-06
1.13303e-05
-1.18752e-06
1.14993e-05
-1.21572e-06
1.16766e-05
-1.13364e-06
1.18419e-05
-1.21947e-06
1.20156e-05
-1.0373e-06
1.21677e-05
-1.17983e-06
1.23252e-05
-8.3379e-07
1.24522e-05
-1.08657e-06
1.25813e-05
-5.15864e-07
1.26772e-05
-9.90912e-07
1.27708e-05
-1.1793e-07
1.28392e-05
-9.83153e-07
1.29174e-05
3.11413e-07
1.29673e-05
-1.42521e-06
1.31163e-05
-3.73312e-07
-2.74268e-06
1.12121e-05
3.42334e-05
9.08326e-06
2.42606e-05
6.83526e-06
1.90707e-05
4.69434e-06
1.39314e-05
2.91569e-06
9.17165e-06
1.6508e-06
5.77941e-06
8.08734e-07
3.807e-06
2.37427e-07
2.71605e-06
-1.75061e-07
2.09638e-06
-4.8807e-07
1.69826e-06
-7.34705e-07
1.42018e-06
-9.3241e-07
1.23872e-06
-1.09647e-06
1.16435e-06
-1.24346e-06
1.22625e-06
-1.39376e-06
1.44363e-06
-1.56934e-06
1.81475e-06
-1.7922e-06
2.32204e-06
-2.08103e-06
2.92765e-06
-2.4468e-06
3.57371e-06
-2.89163e-06
4.20524e-06
-3.4105e-06
4.77863e-06
-3.99287e-06
5.25648e-06
-4.62398e-06
5.60762e-06
-5.28632e-06
5.81188e-06
-5.96069e-06
5.85291e-06
-6.6271e-06
5.72242e-06
-7.26734e-06
5.42688e-06
-7.86183e-06
4.97099e-06
-8.39077e-06
4.37528e-06
-8.83715e-06
3.65163e-06
-9.18629e-06
2.80851e-06
-9.4257e-06
1.85339e-06
-9.54411e-06
7.94955e-07
-9.53189e-06
-3.59429e-07
-9.37763e-06
-1.59407e-06
-9.06983e-06
-2.90831e-06
-8.59673e-06
-4.30145e-06
-7.9467e-06
-5.76854e-06
-7.10868e-06
-7.29792e-06
-6.07426e-06
-8.85688e-06
-4.84177e-06
-1.03797e-05
-3.4259e-06
-1.17527e-05
-1.86418e-06
-1.27992e-05
-2.12282e-07
-1.34327e-05
1.46079e-06
-1.35349e-05
3.07895e-06
-1.30984e-05
4.57385e-06
-1.21398e-05
5.8976e-06
-1.08419e-05
7.02719e-06
-9.32771e-06
7.96141e-06
-7.79766e-06
8.7136e-06
-6.32987e-06
9.30899e-06
-5.05545e-06
9.77463e-06
-3.97451e-06
1.01412e-05
-3.13714e-06
1.04315e-05
-2.48641e-06
1.06718e-05
-2.03662e-06
1.08768e-05
-1.73786e-06
1.10658e-05
-1.54446e-06
1.12396e-05
-1.44669e-06
1.14138e-05
-1.36172e-06
1.15799e-05
-1.3818e-06
1.17542e-05
-1.30796e-06
1.19174e-05
-1.3827e-06
1.20892e-05
-1.20908e-06
1.22395e-05
-1.33015e-06
1.2396e-05
-9.903e-07
1.25207e-05
-1.21124e-06
1.265e-05
-6.45228e-07
1.27422e-05
-1.08304e-06
1.28377e-05
-2.13479e-07
1.29015e-05
-1.04691e-06
1.29836e-05
2.29334e-07
1.30243e-05
-1.46592e-06
1.31627e-05
-5.11771e-07
-2.85082e-06
1.15451e-05
3.60216e-05
9.67782e-06
2.61279e-05
7.62017e-06
2.11284e-05
5.53679e-06
1.60148e-05
3.69033e-06
1.10181e-05
2.28704e-06
7.1827e-06
1.31888e-06
4.77517e-06
6.53986e-07
3.38094e-06
1.76745e-07
2.57362e-06
-1.81514e-07
2.05652e-06
-4.6037e-07
1.69904e-06
-6.80681e-07
1.45903e-06
-8.58427e-07
1.34209e-06
-1.00989e-06
1.37772e-06
-1.15528e-06
1.58903e-06
-1.31675e-06
1.97622e-06
-1.51698e-06
2.52226e-06
-1.77655e-06
3.18723e-06
-2.10892e-06
3.90608e-06
-2.51849e-06
4.61482e-06
-3.00207e-06
5.26221e-06
-3.55039e-06
5.8048e-06
-4.14943e-06
6.20666e-06
-4.78208e-06
6.44453e-06
-5.42927e-06
6.5001e-06
-6.07107e-06
6.36422e-06
-6.68926e-06
6.04507e-06
-7.2645e-06
5.54622e-06
-7.77742e-06
4.8882e-06
-8.21135e-06
4.08555e-06
-8.55212e-06
3.14929e-06
-8.78757e-06
2.08884e-06
-8.90668e-06
9.14065e-07
-8.90006e-06
-3.66057e-07
-8.75696e-06
-1.73717e-06
-8.4664e-06
-3.19887e-06
-8.01663e-06
-4.75123e-06
-7.39552e-06
-6.38964e-06
-6.59081e-06
-8.10262e-06
-5.59216e-06
-9.85553e-06
-4.39521e-06
-1.15767e-05
-3.01171e-06
-1.31362e-05
-1.47731e-06
-1.43336e-05
1.52359e-07
-1.50624e-05
1.80918e-06
-1.51918e-05
3.41213e-06
-1.47014e-05
4.88974e-06
-1.36174e-05
6.19175e-06
-1.21439e-05
7.29568e-06
-1.04316e-05
8.20154e-06
-8.70352e-06
8.92542e-06
-7.05375e-06
9.49387e-06
-5.6239e-06
9.93584e-06
-4.41648e-06
1.02819e-05
-3.48316e-06
1.05554e-05
-2.75996e-06
1.07817e-05
-2.26291e-06
1.09762e-05
-1.93237e-06
1.11568e-05
-1.72506e-06
1.1325e-05
-1.61488e-06
1.14941e-05
-1.53085e-06
1.16567e-05
-1.54436e-06
1.18275e-05
-1.47873e-06
1.19884e-05
-1.54363e-06
1.21578e-05
-1.37844e-06
1.23063e-05
-1.47871e-06
1.24612e-05
-1.14524e-06
1.25839e-05
-1.33387e-06
1.27128e-05
-7.74146e-07
1.2802e-05
-1.17227e-06
1.28986e-05
-3.10038e-07
1.29582e-05
-1.10652e-06
1.30424e-05
1.45138e-07
1.30758e-05
-1.49931e-06
1.32015e-05
-6.37471e-07
-2.93213e-06
1.18328e-05
3.75222e-05
1.02086e-05
2.77521e-05
8.35308e-06
2.29838e-05
6.36115e-06
1.80067e-05
4.48872e-06
1.28905e-05
2.97482e-06
8.6966e-06
1.88209e-06
5.86789e-06
1.11852e-06
4.14451e-06
5.69759e-07
3.12238e-06
1.60265e-07
2.46602e-06
-1.55754e-07
2.01505e-06
-4.02915e-07
1.70619e-06
-5.98215e-07
1.53739e-06
-7.57623e-07
1.53713e-06
-9.01003e-07
1.73241e-06
-1.05058e-06
2.1258e-06
-1.2296e-06
2.70128e-06
-1.46036e-06
3.41799e-06
-1.7588e-06
4.20451e-06
-2.1318e-06
4.98782e-06
-2.57817e-06
5.70857e-06
-3.09006e-06
6.31669e-06
-3.65435e-06
6.77095e-06
-4.25441e-06
7.04459e-06
-4.87139e-06
7.11708e-06
-5.48544e-06
6.97828e-06
-6.07845e-06
6.63808e-06
-6.6313e-06
6.09907e-06
-7.12508e-06
5.38198e-06
-7.5434e-06
4.50387e-06
-7.87254e-06
3.47843e-06
-8.10074e-06
2.31704e-06
-8.21723e-06
1.03056e-06
-8.21296e-06
-3.70334e-07
-8.07796e-06
-1.87216e-06
-7.80199e-06
-3.47484e-06
-7.37365e-06
-5.17957e-06
-6.78071e-06
-6.98258e-06
-6.00995e-06
-8.87339e-06
-5.04908e-06
-1.08164e-05
-3.89101e-06
-1.27348e-05
-2.54439e-06
-1.44828e-05
-1.04261e-06
-1.58354e-05
5.60159e-07
-1.66651e-05
2.19637e-06
-1.6828e-05
3.78149e-06
-1.62865e-05
5.23986e-06
-1.50758e-05
6.51799e-06
-1.34221e-05
7.59315e-06
-1.15068e-05
8.46672e-06
-9.57709e-06
9.15784e-06
-7.74487e-06
9.69502e-06
-6.16108e-06
1.01093e-05
-4.8308e-06
1.04315e-05
-3.80528e-06
1.06854e-05
-3.01387e-06
1.08954e-05
-2.47291e-06
1.10775e-05
-2.11448e-06
1.12483e-05
-1.89591e-06
1.14098e-05
-1.77636e-06
1.15731e-05
-1.69415e-06
1.17315e-05
-1.70274e-06
1.18982e-05
-1.64547e-06
1.20565e-05
-1.70192e-06
1.22231e-05
-1.54503e-06
1.23698e-05
-1.62536e-06
1.25228e-05
-1.29822e-06
1.26435e-05
-1.45458e-06
1.27714e-05
-9.02113e-07
1.28582e-05
-1.25902e-06
1.29552e-05
-4.07037e-07
1.3011e-05
-1.16231e-06
1.3096e-05
6.00918e-08
1.31231e-05
-1.52635e-06
1.32354e-05
-7.49831e-07
-2.98951e-06
1.20833e-05
3.87723e-05
1.06813e-05
2.91541e-05
9.0326e-06
2.46325e-05
7.15857e-06
1.98807e-05
5.2984e-06
1.47507e-05
3.70622e-06
1.02888e-05
2.49614e-06
7.07798e-06
1.6316e-06
5.00904e-06
1.00583e-06
3.74815e-06
5.39511e-07
2.93233e-06
1.81425e-07
2.37314e-06
-9.69343e-08
1.98455e-06
-3.13873e-07
1.75433e-06
-4.85097e-07
1.70835e-06
-6.29883e-07
1.87719e-06
-7.70388e-07
2.26631e-06
-9.30279e-07
2.86117e-06
-1.1333e-06
3.62101e-06
-1.39786e-06
4.46906e-06
-1.73344e-06
5.3234e-06
-2.14101e-06
6.11614e-06
-2.61436e-06
6.79004e-06
-3.14144e-06
7.29803e-06
-3.70626e-06
7.60941e-06
-4.29024e-06
7.70106e-06
-4.87371e-06
7.56174e-06
-5.43878e-06
7.20315e-06
-5.96652e-06
6.62681e-06
-6.43845e-06
5.85391e-06
-6.8385e-06
4.90392e-06
-7.15329e-06
3.79322e-06
-7.37145e-06
2.5352e-06
-7.48249e-06
1.14159e-06
-7.47768e-06
-3.75148e-07
-7.34789e-06
-2.00195e-06
-7.08371e-06
-3.73902e-06
-6.67445e-06
-5.58882e-06
-6.1082e-06
-7.54884e-06
-5.37107e-06
-9.61051e-06
-4.44894e-06
-1.17385e-05
-3.33191e-06
-1.38518e-05
-2.02564e-06
-1.5789e-05
-5.61089e-07
-1.72999e-05
1.00957e-06
-1.82358e-05
2.62079e-06
-1.84392e-05
4.18535e-06
-1.78511e-05
5.6229e-06
-1.65133e-05
6.87578e-06
-1.4675e-05
7.92004e-06
-1.25511e-05
8.75819e-06
-1.04152e-05
9.41254e-06
-8.39921e-06
9.91424e-06
-6.66279e-06
1.02969e-05
-5.21346e-06
1.05917e-05
-4.10006e-06
1.0823e-05
-3.24518e-06
1.10143e-05
-2.66421e-06
1.1182e-05
-2.28222e-06
1.13417e-05
-2.05559e-06
1.14953e-05
-1.92997e-06
1.1652e-05
-1.8508e-06
1.18055e-05
-1.85624e-06
1.19677e-05
-1.80768e-06
1.21229e-05
-1.85716e-06
1.22864e-05
-1.70851e-06
1.24309e-05
-1.76991e-06
1.25817e-05
-1.44894e-06
1.27004e-05
-1.57336e-06
1.28271e-05
-1.02874e-06
1.29115e-05
-1.3435e-06
1.30086e-05
-5.04044e-07
1.30608e-05
-1.21451e-06
1.31457e-05
-2.48438e-08
1.3167e-05
-1.54763e-06
1.32661e-05
-8.48999e-07
-3.0254e-06
1.23029e-05
3.98027e-05
1.1101e-05
3.03559e-05
9.65841e-06
2.60751e-05
7.92627e-06
2.16129e-05
6.10877e-06
1.65682e-05
4.47055e-06
1.1927e-05
3.15838e-06
8.39015e-06
2.19275e-06
5.97467e-06
1.48616e-06
4.45474e-06
9.58118e-07
3.46038e-06
5.53282e-07
2.77798e-06
2.39399e-07
2.29843e-06
-3.37376e-09
1.99711e-06
-1.9058e-07
1.89556e-06
-3.40644e-07
2.02725e-06
-4.75441e-07
2.4011e-06
-6.18882e-07
3.00461e-06
-7.95869e-07
3.798e-06
-1.02716e-06
4.70035e-06
-1.32494e-06
5.62118e-06
-1.69253e-06
6.48373e-06
-2.12557e-06
7.22308e-06
-2.61326e-06
7.78572e-06
-3.14044e-06
8.13659e-06
-3.68894e-06
8.24957e-06
-4.23933e-06
8.11213e-06
-4.77407e-06
7.7379e-06
-5.27444e-06
7.12718e-06
-5.72224e-06
6.30171e-06
-6.10185e-06
5.28353e-06
-6.40015e-06
4.09151e-06
-6.60607e-06
2.74113e-06
-6.70938e-06
1.2449e-06
-6.70164e-06
-3.82887e-07
-6.57451e-06
-2.12909e-06
-6.31948e-06
-3.99404e-06
-5.92678e-06
-5.98152e-06
-5.38522e-06
-8.0904e-06
-4.68071e-06
-1.0315e-05
-3.79739e-06
-1.26219e-05
-2.7225e-06
-1.49267e-05
-1.45884e-06
-1.70527e-05
-3.47339e-08
-1.8724e-05
1.49825e-06
-1.97688e-05
3.07978e-06
-2.00207e-05
4.62056e-06
-1.93918e-05
6.0357e-06
-1.79285e-05
7.2628e-06
-1.59021e-05
8.27545e-06
-1.35637e-05
9.07633e-06
-1.12161e-05
9.69071e-06
-9.01359e-06
1.01531e-05
-7.12515e-06
1.05001e-05
-5.56049e-06
1.0764e-05
-4.36397e-06
1.09696e-05
-3.4508e-06
1.11397e-05
-2.83432e-06
1.1291e-05
-2.4335e-06
1.14379e-05
-2.20251e-06
1.15824e-05
-2.07442e-06
1.17315e-05
-1.99991e-06
1.18794e-05
-2.00411e-06
1.20365e-05
-1.96485e-06
1.21883e-05
-2.00891e-06
1.23484e-05
-1.86858e-06
1.24905e-05
-1.91209e-06
1.26387e-05
-1.59712e-06
1.27555e-05
-1.6901e-06
1.28804e-05
-1.1537e-06
1.29627e-05
-1.4258e-06
1.30594e-05
-6.00697e-07
1.31082e-05
-1.26332e-06
1.31922e-05
-1.08912e-07
1.32081e-05
-1.56349e-06
1.32945e-05
-9.35438e-07
-3.04189e-06
1.24968e-05
4.06393e-05
1.14739e-05
3.13787e-05
1.02305e-05
2.73186e-05
8.65904e-06
2.31844e-05
6.90916e-06
1.83181e-05
5.25621e-06
1.35799e-05
3.8648e-06
9.78156e-06
2.80063e-06
7.03884e-06
2.01127e-06
5.2441e-06
1.41755e-06
4.0541e-06
9.61698e-07
3.23383e-06
6.08135e-07
2.652e-06
3.35314e-07
2.26993e-06
1.2781e-07
2.10306e-06
-3.17664e-08
2.18683e-06
-1.64719e-07
2.53406e-06
-2.9495e-07
3.13484e-06
-4.48212e-07
3.95126e-06
-6.47447e-07
4.89959e-06
-9.07567e-07
5.8813e-06
-1.23443e-06
6.81059e-06
-1.62574e-06
7.6144e-06
-2.0722e-06
8.23217e-06
-2.55966e-06
8.62405e-06
-3.07051e-06
8.76042e-06
-3.58564e-06
8.62726e-06
-4.08803e-06
8.24029e-06
-4.55916e-06
7.5983e-06
-4.98105e-06
6.72361e-06
-5.33852e-06
5.641e-06
-5.61868e-06
4.37167e-06
-5.8107e-06
2.93315e-06
-5.90455e-06
1.33876e-06
-5.89201e-06
-3.95425e-07
-5.76542e-06
-2.25569e-06
-5.51715e-06
-4.24231e-06
-5.13849e-06
-6.36017e-06
-4.61933e-06
-8.60956e-06
-3.94589e-06
-1.09885e-05
-3.10075e-06
-1.3467e-05
-2.06816e-06
-1.59593e-05
-8.48214e-07
-1.82727e-05
5.3094e-07
-2.01032e-05
2.02352e-06
-2.12614e-05
3.57041e-06
-2.15676e-05
5.08346e-06
-2.09049e-05
6.47413e-06
-1.93192e-05
7.67527e-06
-1.71032e-05
8.65684e-06
-1.45453e-05
9.42019e-06
-1.19795e-05
9.99271e-06
-9.58611e-06
1.04125e-05
-7.54498e-06
1.07202e-05
-5.86818e-06
1.09497e-05
-4.59349e-06
1.11265e-05
-3.62759e-06
1.12728e-05
-2.98062e-06
1.14055e-05
-2.56616e-06
1.1538e-05
-2.33497e-06
1.16718e-05
-2.20829e-06
1.18124e-05
-2.14049e-06
1.19538e-05
-2.14554e-06
1.21054e-05
-2.11642e-06
1.22532e-05
-2.15672e-06
1.24095e-05
-2.02489e-06
1.2549e-05
-2.05161e-06
1.26944e-05
-1.74249e-06
1.2809e-05
-1.80464e-06
1.2932e-05
-1.2767e-06
1.30121e-05
-1.5059e-06
1.3108e-05
-6.96664e-07
1.31536e-05
-1.30888e-06
1.32362e-05
-1.91504e-07
1.32469e-05
-1.57418e-06
1.33212e-05
-1.00974e-06
-3.04075e-06
1.26691e-05
4.13035e-05
1.18064e-05
3.22415e-05
1.07503e-05
2.83747e-05
9.35153e-06
2.45831e-05
7.6933e-06
1.99763e-05
6.0527e-06
1.52205e-05
4.60792e-06
1.12263e-05
3.45366e-06
8.19311e-06
2.58097e-06
6.11679e-06
1.91878e-06
4.71629e-06
1.40826e-06
3.74435e-06
1.01117e-06
3.04908e-06
7.0425e-07
2.57685e-06
4.72061e-07
2.33525e-06
2.98477e-07
2.36041e-06
1.63097e-07
2.66944e-06
4.23064e-08
3.25563e-06
-9.01403e-08
4.08371e-06
-2.59128e-07
5.06858e-06
-4.82282e-07
6.10446e-06
-7.6816e-07
7.09647e-06
-1.11675e-06
7.96299e-06
-1.52048e-06
8.6359e-06
-1.96647e-06
9.07003e-06
-2.43781e-06
9.23176e-06
-2.91584e-06
9.10529e-06
-3.38416e-06
8.7086e-06
-3.82455e-06
8.03869e-06
-4.21915e-06
7.11821e-06
-4.55319e-06
5.97503e-06
-4.81402e-06
4.6325e-06
-4.99093e-06
3.11006e-06
-5.07407e-06
1.4219e-06
-5.05533e-06
-4.14166e-07
-4.92758e-06
-2.38344e-06
-4.684e-06
-4.4859e-06
-4.31696e-06
-6.72722e-06
-3.81773e-06
-9.10879e-06
-3.17334e-06
-1.16328e-05
-2.36521e-06
-1.42751e-05
-1.37436e-06
-1.69501e-05
-1.97608e-07
-1.94494e-05
1.13544e-06
-2.14362e-05
2.58303e-06
-2.2709e-05
4.09035e-06
-2.30749e-05
5.57095e-06
-2.23855e-05
6.934e-06
-2.06822e-05
8.10838e-06
-1.82776e-05
9.05992e-06
-1.54968e-05
9.78705e-06
-1.27066e-05
1.03176e-05
-1.01166e-05
1.06929e-05
-7.92035e-06
1.09582e-05
-6.13345e-06
1.115e-05
-4.78529e-06
1.12948e-05
-3.7724e-06
1.14146e-05
-3.10043e-06
1.15264e-05
-2.67792e-06
1.16425e-05
-2.45113e-06
1.17643e-05
-2.33003e-06
1.18952e-05
-2.27144e-06
1.20294e-05
-2.27968e-06
1.21748e-05
-2.26181e-06
1.23181e-05
-2.30005e-06
1.24703e-05
-2.17709e-06
1.26068e-05
-2.18815e-06
1.27491e-05
-1.88481e-06
1.28613e-05
-1.91678e-06
1.29821e-05
-1.39748e-06
1.30599e-05
-1.58373e-06
1.31549e-05
-7.91632e-07
1.31973e-05
-1.35129e-06
1.32779e-05
-2.72129e-07
1.32836e-05
-1.57985e-06
1.33463e-05
-1.07252e-06
-3.02352e-06
1.28232e-05
4.18136e-05
1.21032e-05
3.29615e-05
1.12198e-05
2.9258e-05
1.00003e-05
2.58027e-05
8.4569e-06
2.15197e-05
6.85064e-06
1.68268e-05
5.37808e-06
1.26989e-05
4.14939e-06
9.42181e-06
3.19433e-06
7.07186e-06
2.46223e-06
5.44838e-06
1.89417e-06
4.31241e-06
1.45019e-06
3.49306e-06
1.10539e-06
2.92165e-06
8.44222e-07
2.59642e-06
6.52009e-07
2.55263e-06
5.09598e-07
2.81185e-06
3.93996e-07
3.37123e-06
2.78873e-07
4.19883e-06
1.3771e-07
5.20974e-06
-4.9749e-08
6.29192e-06
-2.94902e-07
7.34163e-06
-6.00227e-07
8.26831e-06
-9.60134e-07
8.99581e-06
-1.36324e-06
9.47314e-06
-1.79354e-06
9.66207e-06
-2.23293e-06
9.54468e-06
-2.66576e-06
9.14143e-06
-3.07422e-06
8.44716e-06
-3.4405e-06
7.48449e-06
-3.75016e-06
6.28469e-06
-3.99079e-06
4.87314e-06
-4.15178e-06
3.27105e-06
-4.22333e-06
1.49345e-06
-4.19737e-06
-4.40126e-07
-4.06716e-06
-2.51365e-06
-3.82651e-06
-4.72655e-06
-3.46881e-06
-7.08492e-06
-2.98692e-06
-9.59068e-06
-2.36925e-06
-1.22505e-05
-1.59645e-06
-1.50479e-05
-6.4621e-07
-1.79004e-05
4.8689e-07
-2.05825e-05
1.77475e-06
-2.27241e-05
3.17483e-06
-2.4109e-05
4.63808e-06
-2.45382e-05
6.08106e-06
-2.38285e-05
7.41207e-06
-2.20132e-05
8.55742e-06
-1.94229e-05
9.47938e-06
-1.64188e-05
1.01725e-05
-1.33997e-05
1.06627e-05
-1.06069e-05
1.09934e-05
-8.25107e-06
1.12143e-05
-6.3543e-06
1.13656e-05
-4.93656e-06
1.14754e-05
-3.88226e-06
1.15661e-05
-3.19108e-06
1.16546e-05
-2.76648e-06
1.17525e-05
-2.54898e-06
1.18604e-05
-2.43793e-06
1.19805e-05
-2.39157e-06
1.21064e-05
-2.40559e-06
1.2245e-05
-2.40036e-06
1.23833e-05
-2.43835e-06
1.2531e-05
-2.32481e-06
1.26642e-05
-2.32134e-06
1.28032e-05
-2.02378e-06
1.29127e-05
-2.02625e-06
1.30309e-05
-1.51577e-06
1.31064e-05
-1.65919e-06
1.32001e-05
-8.85299e-07
1.32394e-05
-1.39062e-06
1.33177e-05
-3.50385e-07
1.33185e-05
-1.58065e-06
1.33703e-05
-1.12442e-06
-2.99153e-06
1.29616e-05
4.21853e-05
1.23689e-05
3.35542e-05
1.16416e-05
2.99854e-05
1.06019e-05
2.68423e-05
9.19478e-06
2.29269e-05
7.64326e-06
1.83783e-05
6.16581e-06
1.41763e-05
4.88271e-06
1.07049e-05
3.85012e-06
8.10444e-06
3.04774e-06
6.25076e-06
2.42024e-06
4.9399e-06
1.9266e-06
3.9867e-06
1.54055e-06
3.3077e-06
1.24635e-06
2.89062e-06
1.03087e-06
2.76811e-06
8.766e-07
2.96612e-06
7.61543e-07
3.48629e-06
6.59698e-07
4.30067e-06
5.43316e-07
5.32612e-06
3.89671e-07
6.44556e-06
1.84433e-07
7.54686e-06
-7.75754e-08
8.53032e-06
-3.92981e-07
9.31122e-06
-7.52164e-07
9.83232e-06
-1.14021e-06
1.00501e-05
-1.53967e-06
9.94414e-06
-1.93587e-06
9.53762e-06
-2.31146e-06
8.82275e-06
-2.64864e-06
7.82167e-06
-2.93324e-06
6.56929e-06
-3.1531e-06
5.09299e-06
-3.29761e-06
3.41557e-06
-3.357e-06
1.55285e-06
-3.32312e-06
-4.74007e-07
-3.18945e-06
-2.64732e-06
-2.95027e-06
-4.96573e-06
-2.59983e-06
-7.43536e-06
-2.13266e-06
-1.00578e-05
-1.53907e-06
-1.28441e-05
-7.99551e-07
-1.57874e-05
1.11663e-07
-1.88116e-05
1.20313e-06
-2.1674e-05
2.44594e-06
-2.39669e-05
3.79716e-06
-2.54603e-05
5.21271e-06
-2.59537e-05
6.61296e-06
-2.52287e-05
7.9066e-06
-2.33069e-05
9.01894e-06
-2.05353e-05
9.9101e-06
-1.73099e-05
1.05711e-05
-1.40607e-05
1.10241e-05
-1.10599e-05
1.1312e-05
-8.53897e-06
1.1488e-05
-6.53034e-06
1.15968e-05
-5.04532e-06
1.16691e-05
-3.95458e-06
1.17281e-05
-3.25005e-06
1.17911e-05
-2.8295e-06
1.18685e-05
-2.62643e-06
1.19607e-05