/*--------------------------------*- C++ -*----------------------------------*\
| =========                 |                                                 |
| \\      /  F ield         | OpenFOAM: The Open Source CFD Toolbox           |
|  \\    /   O peration     | Version:  2.4.0                                 |
|   \\  /    A nd           | Web:      www.OpenFOAM.org                      |
|    \\/     M anipulation  |                                                 |
\*---------------------------------------------------------------------------*/
FoamFile
{
    version     2.0;
    format      ascii;
    class       surfaceScalarField;
    location    "2.96";
    object      phi;
}
// * * * * * * * * * * * * * * * * * * * * * * * * * * * * * * * * * * * * * //

dimensions      [0 3 -1 0 0 0 0];

internalField   nonuniform List<scalar> 
11840
(
7.83202e-07
9.2168e-06
-9.33277e-07
1.71648e-06
6.53573e-07
-1.58685e-06
1.3615e-07
5.17423e-07
-2.05445e-07
3.41595e-07
-2.48786e-07
4.3341e-08
-2.39951e-07
-8.83513e-09
-2.54285e-07
1.43337e-08
-3.94631e-07
1.40347e-07
-7.37201e-07
3.4257e-07
-1.35052e-06
6.13318e-07
-2.00408e-06
6.53558e-07
-2.4309e-06
4.26818e-07
-2.19511e-06
-2.35782e-07
-8.96639e-07
-1.29847e-06
1.58915e-06
-2.48579e-06
4.94421e-06
-3.35506e-06
6.83416e-06
-1.88995e-06
5.54146e-06
1.2927e-06
3.24583e-06
2.29564e-06
2.78929e-06
4.56543e-07
1.6391e-06
1.15019e-06
-2.59755e-06
4.23665e-06
-7.74215e-06
5.14459e-06
-1.15397e-05
3.79755e-06
-1.38176e-05
2.27786e-06
-1.51209e-05
1.3033e-06
-1.57734e-05
6.52509e-07
-1.58889e-05
1.15535e-07
-1.55754e-05
-3.13512e-07
-1.49112e-05
-6.64209e-07
-1.39089e-05
-1.00233e-06
-1.25757e-05
-1.33317e-06
-1.09161e-05
-1.65963e-06
-8.93563e-06
-1.98042e-06
-6.65251e-06
-2.28312e-06
-4.11163e-06
-2.54088e-06
-1.39373e-06
-2.7179e-06
1.37109e-06
-2.76482e-06
4.01879e-06
-2.6477e-06
6.3849e-06
-2.36611e-06
8.32589e-06
-1.94099e-06
9.73664e-06
-1.41076e-06
1.05678e-05
-8.31177e-07
1.07314e-05
-1.63547e-07
1.02118e-05
5.19569e-07
9.2397e-06
9.721e-07
8.13573e-06
1.10397e-06
7.16935e-06
9.66382e-07
6.46453e-06
7.04819e-07
6.02489e-06
4.39645e-07
5.80531e-06
2.19577e-07
5.73366e-06
7.16538e-08
5.76474e-06
-3.10888e-08
5.84177e-06
-7.70281e-08
6.00064e-06
-1.58864e-07
6.09963e-06
-9.8996e-08
6.41323e-06
-3.13599e-07
6.362e-06
5.12283e-08
-8.51836e-07
2.45163e-06
1.67652e-05
-5.04203e-07
4.67231e-06
3.57345e-07
-2.4484e-06
-9.62317e-08
9.71e-07
-2.97539e-07
5.42902e-07
-3.85395e-07
1.31197e-07
-3.66365e-07
-2.78656e-08
-4.11287e-07
5.92566e-08
-6.15242e-07
3.44301e-07
-1.05207e-06
7.79396e-07
-1.70764e-06
1.26889e-06
-2.32756e-06
1.27348e-06
-2.65577e-06
7.55027e-07
-2.36336e-06
-5.28189e-07
-1.10161e-06
-2.56023e-06
1.34495e-06
-4.93236e-06
4.5511e-06
-6.5612e-06
6.9513e-06
-4.29015e-06
6.80626e-06
1.43774e-06
4.78389e-06
4.318e-06
3.2189e-06
2.02154e-06
4.72463e-08
4.32184e-06
-5.95205e-06
1.02359e-05
-1.11897e-05
1.03823e-05
-1.39818e-05
6.58966e-06
-1.53788e-05
3.67487e-06
-1.61092e-05
2.03366e-06
-1.63872e-05
9.30557e-07
-1.63159e-05
4.41758e-08
-1.59092e-05
-7.20167e-07
-1.51553e-05
-1.41817e-06
-1.40615e-05
-2.09608e-06
-1.26349e-05
-2.75979e-06
-1.08802e-05
-3.41436e-06
-8.80457e-06
-4.05601e-06
-6.42963e-06
-4.65806e-06
-3.80526e-06
-5.16525e-06
-1.01667e-06
-5.50648e-06
1.81096e-06
-5.59245e-06
4.52633e-06
-5.36308e-06
6.97052e-06
-4.8103e-06
9.00031e-06
-3.97078e-06
1.051e-05
-2.92049e-06
1.14437e-05
-1.76483e-06
1.18405e-05
-5.60376e-07
1.17611e-05
5.99034e-07
1.12304e-05
1.50272e-06
1.03674e-05
1.96703e-06
9.38116e-06
1.9526e-06
8.48062e-06
1.60536e-06
7.79106e-06
1.1292e-06
7.34665e-06
6.63988e-07
7.11992e-06
2.98388e-07
7.06602e-06
2.28026e-08
7.11356e-06
-1.24562e-07
7.25044e-06
-2.95741e-07
7.36425e-06
-2.12812e-07
7.64751e-06
-5.96859e-07
7.70698e-06
-8.24105e-09
-1.62111e-06
3.60721e-06
2.3158e-05
1.85195e-08
8.261e-06
4.8897e-08
-2.47878e-06
-3.1192e-07
1.33182e-06
-3.49824e-07
5.80806e-07
-4.53285e-07
2.34658e-07
-4.37864e-07
-4.32868e-08
-5.01938e-07
1.23331e-07
-7.19627e-07
5.6199e-07
-1.1687e-06
1.22846e-06
-1.79852e-06
1.89872e-06
-2.39863e-06
1.87359e-06
-2.72469e-06
1.08108e-06
-2.46075e-06
-7.92128e-07
-1.26616e-06
-3.75481e-06
1.0714e-06
-7.26992e-06
4.13575e-06
-9.62555e-06
6.52805e-06
-6.68245e-06
6.7555e-06
1.21029e-06
5.09874e-06
5.97476e-06
2.91201e-06
4.20827e-06
-1.46938e-06
8.70323e-06
-7.54528e-06
1.63118e-05
-1.17847e-05
1.46217e-05
-1.38956e-05
8.70055e-06
-1.51308e-05
4.91012e-06
-1.58486e-05
2.75143e-06
-1.61487e-05
1.23067e-06
-1.60818e-05
-2.27225e-08
-1.56631e-05
-1.13885e-06
-1.48948e-05
-2.18655e-06
-1.37885e-05
-3.20235e-06
-1.23506e-05
-4.19769e-06
-1.05854e-05
-5.17958e-06
-8.50003e-06
-6.14136e-06
-6.11643e-06
-7.04165e-06
-3.48518e-06
-7.7965e-06
-6.91703e-07
-8.29996e-06
2.14011e-06
-8.42427e-06
4.85915e-06
-8.08211e-06
7.30741e-06
-7.25857e-06
9.34339e-06
-6.00675e-06
1.08633e-05
-4.44042e-06
1.18149e-05
-2.71641e-06
1.22241e-05
-9.69585e-07
1.21671e-05
6.56073e-07
1.17253e-05
1.94447e-06
1.10053e-05
2.68706e-06
1.01509e-05
2.80697e-06
9.32268e-06
2.4336e-06
8.64548e-06
1.8064e-06
8.17774e-06
1.13173e-06
7.91386e-06
5.62272e-07
7.8215e-06
1.15159e-07
7.83607e-06
-1.39133e-07
7.94657e-06
-4.06243e-07
8.0502e-06
-3.16436e-07
8.31253e-06
-8.59192e-07
8.38542e-06
-8.11303e-08
-2.3234e-06
4.52855e-06
2.86294e-05
7.55725e-07
1.20338e-05
-2.43923e-07
-1.47913e-06
-4.63458e-07
1.55135e-06
-3.84553e-07
5.01901e-07
-4.98496e-07
3.48601e-07
-4.91545e-07
-5.02378e-08
-5.67906e-07
1.99692e-07
-7.86253e-07
7.80337e-07
-1.22779e-06
1.67e-06
-1.83296e-06
2.50388e-06
-2.42446e-06
2.46509e-06
-2.76541e-06
1.42204e-06
-2.54787e-06
-1.00967e-06
-1.43717e-06
-4.86552e-06
7.76775e-07
-9.48387e-06
3.72567e-06
-1.25744e-05
6.08736e-06
-9.04414e-06
6.47271e-06
8.24946e-07
5.02585e-06
7.42161e-06
2.38528e-06
6.84884e-06
-2.62743e-06
1.37159e-05
-8.29225e-06
2.19767e-05
-1.17244e-05
1.80539e-05
-1.35607e-05
1.05368e-05
-1.47743e-05
6.1238e-06
-1.55006e-05
3.47765e-06
-1.58105e-05
1.54063e-06
-1.57455e-05
-8.77809e-08
-1.53229e-05
-1.56141e-06
-1.45531e-05
-2.95633e-06
-1.3447e-05
-4.30848e-06
-1.20104e-05
-5.63424e-06
-1.02474e-05
-6.94263e-06
-8.16474e-06
-8.22401e-06
-5.78415e-06
-9.42224e-06
-3.15611e-06
-1.04245e-05
-3.66314e-07
-1.10898e-05
2.46027e-06
-1.12509e-05
5.17116e-06
-1.0793e-05
7.60896e-06
-9.69636e-06
9.63311e-06
-8.0309e-06
1.11414e-05
-5.9487e-06
1.20848e-05
-3.6598e-06
1.24847e-05
-1.36948e-06
1.24192e-05
7.21508e-07
1.1992e-05
2.37174e-06
1.13221e-05
3.3569e-06
1.05409e-05
3.58823e-06
9.77957e-06
3.1949e-06
9.14116e-06
2.44481e-06
8.67905e-06
1.59385e-06
8.39534e-06
8.45975e-07
8.26653e-06
2.43971e-07
8.24379e-06
-1.16389e-07
8.31633e-06
-4.78791e-07
8.39439e-06
-3.94493e-07
8.62142e-06
-1.08622e-06
8.6886e-06
-1.48308e-07
-2.92362e-06
5.30447e-06
3.33249e-05
1.48892e-06
1.58494e-05
-2.6421e-07
2.74003e-07
-5.51904e-07
1.83904e-06
-4.13085e-07
3.63082e-07
-5.33274e-07
4.6879e-07
-5.36033e-07
-4.74789e-08
-6.19735e-07
2.83394e-07
-8.32847e-07
9.93449e-07
-1.2595e-06
2.09665e-06
-1.84313e-06
3.08752e-06
-2.43102e-06
3.05297e-06
-2.7944e-06
1.78541e-06
-2.63321e-06
-1.17085e-06
-1.61829e-06
-5.88044e-06
4.61233e-07
-1.15634e-05
3.29906e-06
-1.54123e-05
5.63495e-06
-1.138e-05
6.11104e-06
3.48856e-07
4.7878e-06
8.74485e-06
1.79289e-06
9.84375e-06
-3.50111e-06
1.90099e-05
-8.61693e-06
2.70925e-05
-1.14811e-05
2.0918e-05
-1.31953e-05
1.22509e-05
-1.43932e-05
7.32171e-06
-1.51173e-05
4.20178e-06
-1.54279e-05
1.85121e-06
-1.53617e-05
-1.53976e-07
-1.49379e-05
-1.98517e-06
-1.41695e-05
-3.72474e-06
-1.30665e-05
-5.41151e-06
-1.16345e-05
-7.06627e-06
-9.87698e-06
-8.70012e-06
-7.80049e-06
-1.03005e-05
-5.42619e-06
-1.17965e-05
-2.80419e-06
-1.30465e-05
-2.0538e-08
-1.38734e-05
2.79673e-06
-1.40681e-05
5.49502e-06
-1.34913e-05
7.91677e-06
-1.21181e-05
9.92197e-06
-1.00361e-05
1.14097e-05
-7.4364e-06
1.23335e-05
-4.58358e-06
1.27137e-05
-1.7497e-06
1.26293e-05
8.05889e-07
1.21933e-05
2.80776e-06
1.15334e-05
4.01678e-06
1.07794e-05
4.34218e-06
1.00506e-05
3.92372e-06
9.4355e-06
3.05993e-06
8.979e-06
2.05034e-06
8.68368e-06
1.1413e-06
8.53044e-06
3.97208e-07
8.47962e-06
-6.55726e-08
8.51948e-06
-5.18641e-07
8.58013e-06
-4.55152e-07
8.76408e-06
-1.27017e-06
8.84772e-06
-2.31942e-07
-3.40362e-06
5.9752e-06
3.73497e-05
2.23798e-06
1.95866e-05
-6.30092e-08
2.57499e-06
-5.82134e-07
2.35817e-06
-4.38873e-07
2.1982e-07
-5.60873e-07
5.90791e-07
-5.73233e-07
-3.51189e-08
-6.60883e-07
3.71043e-07
-8.65155e-07
1.19772e-06
-1.27351e-06
2.50501e-06
-1.83755e-06
3.65156e-06
-2.42445e-06
3.63987e-06
-2.81461e-06
2.17557e-06
-2.71657e-06
-1.26889e-06
-1.80638e-06
-6.79063e-06
1.29657e-07
-1.34994e-05
2.85063e-06
-1.81333e-05
5.16383e-06
-1.36932e-05
5.70731e-06
-1.94632e-07
4.46119e-06
9.99097e-06
1.19607e-06
1.31089e-05
-4.15405e-06
2.43601e-05
-8.7086e-06
3.1647e-05
-1.11735e-05
2.33829e-05
-1.28157e-05
1.38932e-05
-1.39907e-05
8.49673e-06
-1.47053e-05
4.91639e-06
-1.50114e-05
2.15723e-06
-1.49422e-05
-2.23122e-07
-1.45177e-05
-2.40973e-06
-1.37511e-05
-4.49129e-06
-1.26519e-05
-6.51068e-06
-1.12255e-05
-8.49274e-06
-9.47487e-06
-1.04507e-05
-7.406e-06
-1.23694e-05
-5.03942e-06
-1.41631e-05
-2.42471e-06
-1.56613e-05
3.5036e-07
-1.66485e-05
3.15696e-06
-1.68747e-05
5.84021e-06
-1.61745e-05
8.24277e-06
-1.45207e-05
1.02249e-05
-1.20182e-05
1.16867e-05
-8.89819e-06
1.2584e-05
-5.48087e-06
1.29377e-05
-2.10343e-06
1.28277e-05
9.15857e-07
1.2372e-05
3.26347e-06
1.17036e-05
4.6852e-06
1.09528e-05
5.09294e-06
1.02334e-05
4.64319e-06
9.62575e-06
3.66753e-06
9.16878e-06
2.50731e-06
8.86378e-06
1.4463e-06
8.69263e-06
5.68349e-07
8.62237e-06
4.69312e-09
8.63804e-06
-5.34312e-07
8.6896e-06
-5.06718e-07
8.83515e-06
-1.41571e-06
8.9458e-06
-3.42592e-07
-3.77865e-06
6.56032e-06
4.07894e-05
2.97161e-06
2.31753e-05
2.31963e-07
5.31464e-06
-5.35726e-07
3.12586e-06
-4.61257e-07
1.45351e-07
-5.8212e-07
7.11654e-07
-6.03459e-07
-1.378e-08
-6.927e-07
4.60284e-07
-8.85619e-07
1.39064e-06
-1.27378e-06
2.89317e-06
-1.81911e-06
4.19689e-06
-2.40621e-06
4.22697e-06
-2.82564e-06
2.595e-06
-2.7955e-06
-1.29902e-06
-1.99706e-06
-7.58907e-06
-2.14008e-07
-1.52825e-05
2.38112e-06
-2.07284e-05
4.6711e-06
-1.59832e-05
5.27497e-06
-7.98504e-07
4.07948e-06
1.11865e-05
6.21284e-07
1.65671e-05
-4.63565e-06
2.9617e-05
-8.66032e-06
3.56717e-05
-1.08367e-05
2.55593e-05
-1.24217e-05
1.54782e-05
-1.35672e-05
9.64225e-06
-1.42671e-05
5.61619e-06
-1.4565e-05
2.45516e-06
-1.44914e-05
-2.96748e-07
-1.40655e-05
-2.83556e-06
-1.33006e-05
-5.25621e-06
-1.22053e-05
-7.60594e-06
-1.07848e-05
-9.91329e-06
-9.04167e-06
-1.21938e-05
-6.98118e-06
-1.44299e-05
-4.62308e-06
-1.65212e-05
-2.0164e-06
-1.82679e-05
7.49441e-07
-1.94143e-05
3.5434e-06
-1.96687e-05
6.20995e-06
-1.88411e-05
8.59117e-06
-1.69019e-05
1.05472e-05
-1.39742e-05
1.19792e-05
-1.03302e-05
1.2845e-05
-6.34672e-06
1.31671e-05
-2.42548e-06
1.30264e-05
1.0565e-06
1.25443e-05
3.74558e-06
1.18573e-05
5.37218e-06
1.10968e-05
5.85345e-06
1.03736e-05
5.36637e-06
9.76371e-06
4.27747e-06
9.30179e-06
2.96924e-06
8.98788e-06
1.76021e-06
8.80362e-06
7.52617e-07
8.72e-06
8.83057e-08
8.71885e-06
-5.33161e-07
8.76516e-06
-5.53024e-07
8.88302e-06
-1.53358e-06
9.01518e-06
-4.74744e-07
-4.07715e-06
7.07125e-06
4.37182e-05
3.68399e-06
2.65626e-05
6.55627e-07
8.343e-06
-4.06932e-07
4.18842e-06
-4.75293e-07
2.13712e-07
-5.96895e-07
8.33256e-07
-6.26567e-07
1.58914e-08
-7.15763e-07
5.4948e-07
-8.95432e-07
1.57031e-06
-1.2621e-06
3.25984e-06
-1.7888e-06
4.72358e-06
-2.37617e-06
4.81434e-06
-2.82584e-06
3.04467e-06
-2.86662e-06
-1.25824e-06
-2.1854e-06
-8.27029e-06
-5.64532e-07
-1.69033e-05
1.89396e-06
-2.31869e-05
4.15633e-06
-1.82456e-05
4.82104e-06
-1.46321e-06
3.65929e-06
1.23482e-05
8.54946e-08
2.01409e-05
-4.98143e-06
3.46839e-05
-8.52237e-06
3.92127e-05
-1.04821e-05
2.7519e-05
-1.20124e-05
1.70085e-05
-1.31232e-05
1.07531e-05
-1.38042e-05
6.29718e-06
-1.40913e-05
2.74228e-06
-1.40118e-05
-3.76249e-07
-1.3584e-05
-3.26342e-06
-1.28202e-05
-6.02002e-06
-1.17286e-05
-8.69753e-06
-1.03139e-05
-1.13279e-05
-8.5786e-06
-1.39292e-05
-6.52691e-06
-1.64816e-05
-4.17775e-06
-1.88704e-05
-1.57964e-06
-2.0866e-05
1.17609e-06
-2.21701e-05
3.95624e-06
-2.24488e-05
6.60483e-06
-2.14897e-05
8.96302e-06
-1.92601e-05
1.08907e-05
-1.59019e-05
1.22897e-05
-1.17292e-05
1.31201e-05
-7.17715e-06
1.34062e-05
-2.71155e-06
1.32307e-05
1.23203e-06
1.27173e-05
4.25893e-06
1.20054e-05
6.08404e-06
1.12275e-05
6.63139e-06
1.04929e-05
6.10096e-06
9.87478e-06
4.8956e-06
9.40521e-06
3.43881e-06
9.08294e-06
2.08247e-06
8.88871e-06
9.46847e-07
8.79557e-06
1.81451e-07
8.78266e-06
-5.20257e-07
8.82489e-06
-5.95252e-07
8.92418e-06
-1.63287e-06
9.06818e-06
-6.1875e-07
-4.32385e-06
7.51662e-06
4.62016e-05
4.36881e-06
2.97104e-05
1.18151e-06
1.15303e-05
-2.08762e-07
5.57869e-06
-4.71505e-07
4.76455e-07
-6.04403e-07
9.66154e-07
-6.42264e-07
5.37528e-08
-7.30326e-07
6.37542e-07
-8.9522e-07
1.7352e-06
-1.23929e-06
3.60391e-06
-1.74676e-06
5.23105e-06
-2.33352e-06
5.40111e-06
-2.81307e-06
3.52422e-06
-2.92613e-06
-1.14518e-06
-2.36623e-06
-8.83019e-06
-9.1165e-07
-1.83579e-05
1.39402e-06
-2.54925e-05
3.62097e-06
-2.04725e-05
4.35038e-06
-2.19262e-06
3.20909e-06
1.34895e-05
-4.28737e-07
2.37787e-05
-5.21544e-06
3.94706e-05
-8.32385e-06
4.23211e-05
-1.01136e-05
2.93088e-05
-1.15873e-05
1.84822e-05
-1.26595e-05
1.18252e-05
-1.33184e-05
6.95615e-06
-1.35926e-05
3.01641e-06
-1.35059e-05
-4.62898e-07
-1.30752e-05
-3.69412e-06
-1.23119e-05
-6.78329e-06
-1.12237e-05
-9.78579e-06
-9.8149e-06
-1.27367e-05
-8.08744e-06
-1.56566e-05
-6.0448e-06
-1.85242e-05
-3.70485e-06
-2.12103e-05
-1.11575e-06
-2.34551e-05
1.62905e-06
-2.49149e-05
4.39445e-06
-2.52142e-05
7.02405e-06
-2.41193e-05
9.35781e-06
-2.15938e-05
1.12551e-05
-1.77992e-05
1.26186e-05
-1.30927e-05
1.34103e-05
-7.96888e-06
1.36568e-05
-2.958e-06
1.34427e-05
1.44609e-06
1.28943e-05
4.80735e-06
1.21531e-05
6.82523e-06
1.13527e-05
7.43183e-06
1.06017e-05
6.85193e-06
9.97161e-06
5.5257e-06
9.49265e-06
3.91776e-06
9.16237e-06
2.41276e-06
8.96023e-06
1.14898e-06
8.85999e-06
2.81688e-07
8.83862e-06
-4.98885e-07
8.87722e-06
-6.33856e-07
8.96383e-06
-1.71948e-06
9.11264e-06
-7.67561e-07
-4.5344e-06
7.90409e-06
4.82975e-05
5.02017e-06
3.25943e-05
1.77324e-06
1.47772e-05
5.52782e-08
7.29665e-06
-4.40081e-07
9.71814e-07
-6.02998e-07
1.12907e-06
-6.50176e-07
1.00931e-07
-7.3651e-07
7.23876e-07
-8.85346e-07
1.88404e-06
-1.20572e-06
3.92429e-06
-1.69281e-06
5.71814e-06
-2.27725e-06
5.98555e-06
-2.78506e-06
4.03203e-06
-2.97015e-06
-9.60101e-07
-2.53407e-06
-9.26626e-06
-1.24951e-06
-1.96425e-05
8.8714e-07
-2.76292e-05
3.06838e-06
-2.26538e-05
3.86751e-06
-2.99174e-06
2.74114e-06
1.46159e-05
-8.91667e-07
2.74115e-05
-5.35789e-06
4.39368e-05
-8.08238e-06
4.50456e-05
-9.73261e-06
3.0959e-05
-1.11467e-05
1.98963e-05
-1.2177e-05
1.28556e-05
-1.28114e-05
7.59053e-06
-1.30708e-05
3.27575e-06
-1.29758e-05
-5.57808e-07
-1.25416e-05
-4.12841e-06
-1.17783e-05
-7.54658e-06
-1.0693e-05
-1.08711e-05
-9.2899e-06
-1.41398e-05
-7.57034e-06
-1.73762e-05
-5.53689e-06
-2.05576e-05
-3.2063e-06
-2.35409e-05
-6.26623e-07
-2.60348e-05
2.10643e-06
-2.76479e-05
4.85626e-06
-2.79641e-05
7.46599e-06
-2.6729e-05
9.77415e-06
-2.3902e-05
1.16394e-05
-1.96644e-05
1.29652e-05
-1.44184e-05
1.37154e-05
-8.71914e-06
1.39191e-05
-3.16172e-06
1.36634e-05
1.7018e-06
1.30768e-05
5.39399e-06
1.23029e-05
7.59916e-06
1.14763e-05
8.25839e-06
1.07055e-05
7.6227e-06
1.00608e-05
6.17038e-06
9.57124e-06
4.40737e-06
9.23307e-06
2.75093e-06
9.02436e-06
1.3577e-06
8.91868e-06
3.87367e-07
8.891e-06
-4.712e-07
8.92635e-06
-6.69209e-07
9.00369e-06
-1.79682e-06
9.15309e-06
-9.16958e-07
-4.71785e-06
8.24064e-06
5.00568e-05
5.63347e-06
3.52015e-05
2.40951e-06
1.80012e-05
4.31686e-07
9.27447e-06
-3.70531e-07
1.77403e-06
-5.89734e-07
1.34827e-06
-6.49762e-07
1.60959e-07
-7.34363e-07
8.08478e-07
-8.6606e-07
2.01574e-06
-1.16157e-06
4.2198e-06
-1.62664e-06
6.18321e-06
-2.20631e-06
6.56522e-06
-2.73962e-06
4.56534e-06
-2.99493e-06
-7.04791e-07
-2.68347e-06
-9.57773e-06
-1.57152e-06
-2.07544e-05
3.80097e-07
-2.95808e-05
2.50435e-06
-2.4778e-05
3.37725e-06
-3.86464e-06
2.26652e-06
1.57266e-05
-1.30781e-06
3.09858e-05
-5.42505e-06
4.80541e-05
-7.80897e-06
4.74295e-05
-9.33949e-06
3.24895e-05
-1.06908e-05
2.12476e-05
-1.16771e-05
1.38418e-05
-1.22848e-05
8.19827e-06
-1.25279e-05
3.51886e-06
-1.24238e-05
-6.61917e-07
-1.19853e-05
-4.56694e-06
-1.12215e-05
-8.31034e-06
-1.01389e-05
-1.19537e-05
-8.74135e-06
-1.55373e-05
-7.02967e-06
-1.90879e-05
-5.00547e-06
-2.25818e-05
-2.68433e-06
-2.58621e-05
-1.14298e-07
-2.86048e-05
2.60594e-06
-3.03681e-05
5.33951e-06
-3.06976e-05
7.92861e-06
-2.93181e-05
1.02101e-05
-2.61835e-05
1.2042e-05
-2.14963e-05
1.33281e-05
-1.57045e-05
1.40345e-05
-9.42557e-06
1.41928e-05
-3.32003e-06
1.38927e-05
2.00189e-06
1.32652e-05
6.02153e-06
1.24558e-05
8.4085e-06
1.16004e-05
9.11378e-06
1.08074e-05
8.4158e-06
1.01462e-05
6.83157e-06
9.64489e-06
4.90865e-06
9.29882e-06
3.09699e-06
9.08439e-06
1.57212e-06
8.97444e-06
4.97322e-07
8.94193e-06
-4.38694e-07
8.97443e-06
-7.01711e-07
9.04448e-06
-1.86687e-06
9.19206e-06
-1.06454e-06
-4.87937e-06
8.53248e-06
5.15243e-05
6.20542e-06
3.75285e-05
3.0682e-06
2.11384e-05
8.64083e-07
1.14786e-05
-2.37338e-07
2.87545e-06
-5.59463e-07
1.6704e-06
-6.40122e-07
2.41618e-07
-7.23877e-07
8.92233e-07
-8.3758e-07
2.12944e-06
-1.10692e-06
4.48913e-06
-1.54792e-06
6.62421e-06
-2.11975e-06
7.13705e-06
-2.67479e-06
5.12038e-06
-2.9971e-06
-3.82482e-07
-2.80936e-06
-9.76546e-06
-1.8716e-06
-2.16922e-05
-1.22149e-07
-3.13303e-05
1.93712e-06
-2.68373e-05
2.8846e-06
-4.81212e-06
1.7942e-06
1.6817e-05
-1.6765e-06
3.44565e-05
-5.42949e-06
5.18071e-05
-7.51065e-06
4.95106e-05
-8.93442e-06
3.39133e-05
-1.02204e-05
2.25336e-05
-1.11608e-05
1.47823e-05
-1.17403e-05
8.77774e-06
-1.1966e-05
3.7446e-06
-1.1852e-05
-7.75974e-07
-1.14087e-05
-5.0102e-06
-1.06441e-05
-9.07492e-06
-9.56393e-06
-1.30339e-05
-8.17174e-06
-1.69295e-05
-6.4679e-06
-2.07917e-05
-4.45298e-06
-2.45968e-05
-2.14132e-06
-2.81737e-05
4.18028e-07
-3.11642e-05
3.12507e-06
-3.30752e-05
5.84181e-06
-3.34144e-05
8.40958e-06
-3.18859e-05
1.06635e-05
-2.84375e-05
1.24607e-05
-2.32935e-05
1.37057e-05
-1.69495e-05
1.43663e-05
-1.00862e-05
1.4477e-05
-3.43068e-06
1.41301e-05
2.34872e-06
1.34594e-05
6.69226e-06
1.26125e-05
9.25543e-06
1.17262e-05
1.00001e-05
1.09088e-05
9.23311e-06
1.02296e-05
7.51077e-06
9.71584e-06
5.42245e-06
9.36173e-06
3.45109e-06
9.14213e-06
1.79173e-06
9.02875e-06
6.10706e-07
8.99252e-06
-4.02467e-07
9.02259e-06
-7.31777e-07
9.08652e-06
-1.9308e-06
9.23095e-06
-1.20897e-06
-5.02198e-06
8.78515e-06
5.27392e-05
6.73408e-06
3.95796e-05
3.73332e-06
2.41392e-05
1.35704e-06
1.38549e-05
-2.40398e-08
4.25653e-06
-5.03692e-07
2.15005e-06
-6.19693e-07
3.57619e-07
-7.0493e-07
9.7747e-07
-8.00141e-07
2.22465e-06
-1.04188e-06
4.73087e-06
-1.45643e-06
7.03877e-06
-2.01682e-06
7.69744e-06
-2.58895e-06
5.6925e-06
-2.97376e-06
2.32675e-09
-2.90735e-06
-9.83187e-06
-2.1446e-06
-2.24549e-05
-5.92363e-07
-3.28825e-05
1.37648e-06
-2.88061e-05
2.3941e-06
-5.82974e-06
1.3313e-06
1.78798e-05
-1.99784e-06
3.77857e-05
-5.38085e-06
5.51901e-05
-7.19195e-06
5.13217e-05
-8.51749e-06
3.52388e-05
-9.736e-06
2.37521e-05
-1.06295e-05
1.56757e-05
-1.11794e-05
9.32772e-06
-1.13869e-05
3.95208e-06
-1.12624e-05
-9.00545e-07
-1.0814e-05
-5.45857e-06
-1.00483e-05
-9.84057e-06
-8.97043e-06
-1.41118e-05
-7.58352e-06
-1.83164e-05
-5.8875e-06
-2.24877e-05
-3.88185e-06
-2.66024e-05
-1.57977e-06
-3.04758e-05
9.68488e-07
-3.37124e-05
3.66127e-06
-3.5768e-05
6.36062e-06
-3.61137e-05
8.90642e-06
-3.44317e-05
1.1132e-05
-3.06631e-05
1.28936e-05
-2.5055e-05
1.40961e-05
-1.81519e-05
1.47093e-05
-1.06995e-05
1.47704e-05
-3.49179e-06
1.43749e-05
2.74426e-06
1.3659e-05
7.4081e-06
1.27727e-05
1.01418e-05
1.18538e-05
1.0919e-05
1.10108e-05
1.00761e-05
1.03125e-05
8.20914e-06
9.78541e-06
5.94952e-06
9.42305e-06
3.81345e-06
9.19859e-06
2.01619e-06
9.08239e-06
7.26905e-07
9.04328e-06
-3.63362e-07
9.07132e-06
-7.59814e-07
9.12993e-06
-1.98941e-06
9.27044e-06
-1.34948e-06
-5.14752e-06
9.00365e-06
5.37355e-05
7.21868e-06
4.13646e-05
4.39274e-06
2.69651e-05
1.90066e-06
1.63469e-05
2.29805e-07
5.92738e-06
-4.10071e-07
2.78993e-06
-5.85809e-07
5.33357e-07
-6.77182e-07
1.06884e-06
-7.53994e-07
2.30146e-06
-9.66634e-07
4.94351e-06
-1.35208e-06
7.42422e-06
-1.89704e-06
8.24239e-06
-2.48095e-06
6.27642e-06
-2.92269e-06
4.44063e-07
-2.97388e-06
-9.78067e-06
-2.38645e-06
-2.30424e-05
-1.03966e-06
-3.42293e-05
8.31317e-07
-3.06771e-05
1.90883e-06
-6.90726e-06
8.83552e-07
1.89051e-05
-2.27246e-06
4.09417e-05
-5.28665e-06
5.82043e-05
-6.85585e-06
5.28909e-05
-8.08881e-06
3.64718e-05
-9.23844e-06
2.49017e-05
-1.00842e-05
1.65215e-05
-1.06038e-05
9.84731e-06
-1.07924e-05
4.14068e-06
-1.06569e-05
-1.03602e-06
-1.02032e-05
-5.91225e-06
-9.43641e-06
-1.06074e-05
-8.36071e-06
-1.51875e-05
-6.97906e-06
-1.96981e-05
-5.29084e-06
-2.4176e-05
-3.29448e-06
-2.85988e-05
-1.00216e-06
-3.27681e-05
1.53426e-06
-3.62489e-05
4.21202e-06
-3.84457e-05
6.8934e-06
-3.87951e-05
9.4166e-06
-3.69549e-05
1.16132e-05
-3.28597e-05
1.33383e-05
-2.67801e-05
1.44973e-05
-1.93109e-05
1.50619e-05
-1.12641e-05
1.5072e-05
-3.50185e-06
1.46261e-05
3.19018e-06
1.38635e-05
8.17068e-06
1.29363e-05
1.1069e-05
1.19835e-05
1.18717e-05
1.11138e-05
1.09458e-05
1.03953e-05
8.92759e-06
9.85439e-06
6.49047e-06
9.4835e-06
4.18433e-06
9.25432e-06
2.24537e-06
9.13573e-06
8.45493e-07
9.09441e-06
-3.22041e-07
9.1208e-06
-7.86198e-07
9.17468e-06
-2.0433e-06
9.31085e-06
-1.48564e-06
-5.2572e-06
9.19249e-06
5.4543e-05
7.65952e-06
4.28975e-05
5.03691e-06
2.95877e-05
2.48571e-06
1.88981e-05
5.70179e-07
7.84292e-06
-2.67234e-07
3.62734e-06
-5.34267e-07
8.00389e-07
-6.39899e-07
1.17448e-06
-6.99391e-07
2.36095e-06
-8.81461e-07
5.12558e-06
-1.23496e-06
7.77771e-06
-1.76021e-06
8.76764e-06
-2.35013e-06
6.86634e-06
-2.84239e-06
9.36326e-07
-3.00631e-06
-9.61675e-06
-2.5933e-06
-2.34554e-05
-1.45207e-06
-3.53705e-05
3.0425e-07
-3.24334e-05
1.42921e-06
-8.03222e-06
4.5638e-07
1.98779e-05
-2.50119e-06
4.38993e-05
-5.15272e-06
6.08558e-05
-6.50429e-06
5.42425e-05
-7.64853e-06
3.7616e-05
-8.72848e-06
2.59817e-05
-9.52616e-06
1.73191e-05
-1.00148e-05
1.03359e-05
-1.01841e-05
4.30997e-06
-1.00374e-05
-1.18265e-06
-9.57836e-06
-6.37133e-06
-8.81037e-06
-1.13754e-05
-7.73692e-06
-1.62609e-05
-6.36057e-06
-2.10744e-05
-4.6802e-06
-2.58563e-05
-2.69315e-06
-3.05858e-05
-4.1093e-07
-3.50503e-05
2.11279e-06
-3.87726e-05
4.77478e-06
-4.11077e-05
7.43759e-06
-4.14579e-05
9.93752e-06
-3.94548e-05
1.21044e-05
-3.50266e-05
1.37925e-05
-2.84682e-05
1.49073e-05
-2.04258e-05
1.54224e-05
-1.17793e-05
1.53803e-05
-3.45973e-06
1.48827e-05
3.68778e-06
1.40721e-05
8.98134e-06
1.31028e-05
1.20383e-05
1.21152e-05
1.28594e-05
1.12178e-05
1.18432e-05
1.04786e-05
9.66679e-06
9.92321e-06
7.04584e-06
9.54351e-06
4.56404e-06
9.30963e-06
2.47925e-06
9.18893e-06
9.66192e-07
9.14591e-06
-2.7902e-07
9.17096e-06
-8.11255e-07
9.22061e-06
-2.09294e-06
9.35219e-06
-1.61722e-06
-5.3519e-06
9.35573e-06
5.51873e-05
8.0577e-06
4.41956e-05
5.65821e-06
3.19872e-05
3.10184e-06
2.14545e-05
9.88871e-07
9.95588e-06
-7.14533e-08
4.68767e-06
-4.59157e-07
1.18809e-06
-5.91681e-07
1.307e-06
-6.36515e-07
2.40579e-06
-7.86745e-07
5.27581e-06
-1.10533e-06
8.09629e-06
-1.60646e-06
9.26878e-06
-2.19632e-06
7.4562e-06
-2.73215e-06
1.47215e-06
-3.00292e-06
-9.34598e-06
-2.76205e-06
-2.36963e-05
-1.82486e-06
-3.63077e-05
-2.0191e-07
-3.40564e-05
9.52667e-07
-9.1868e-06
6.41967e-08
2.07664e-05
-2.68465e-06
4.66481e-05
-4.98367e-06
6.31548e-05
-6.13857e-06
5.53974e-05
-7.19685e-06
3.86743e-05
-8.20687e-06
2.69917e-05
-8.95643e-06
1.80687e-05
-9.41372e-06
1.07932e-05
-9.56347e-06
4.45972e-06
-9.4056e-06
-1.34052e-06
-8.94115e-06
-6.83578e-06
-8.17211e-06
-1.21444e-05
-7.10105e-06
-1.7332e-05
-5.73012e-06
-2.24454e-05
-4.05769e-06
-2.75288e-05
-2.08e-06
-3.25635e-05
1.91563e-07
-3.73219e-05
2.70163e-06
-4.12827e-05
5.34716e-06
-4.37532e-05
7.99066e-06
-4.41014e-05
1.04666e-05
-4.19307e-05
1.26032e-05
-3.71632e-05
1.42537e-05
-3.01187e-05
1.5324e-05
-2.1496e-05
1.57891e-05
-1.22444e-05
1.56941e-05
-3.3647e-06
1.51438e-05
4.23802e-06
1.4284e-05
9.84113e-06
1.32717e-05
1.30506e-05
1.22484e-05
1.38826e-05
1.13228e-05
1.27688e-05
1.05624e-05
1.04273e-05
9.99214e-06
7.61607e-06
9.6033e-06
4.95288e-06
9.36465e-06
2.71791e-06
9.24198e-06
1.08885e-06
9.19765e-06
-2.34684e-07
9.22165e-06
-8.35257e-07
9.26748e-06
-2.13878e-06
9.39435e-06
-1.74409e-06
-5.43235e-06
9.49701e-06
5.56903e-05
8.415e-06
4.52776e-05
6.25063e-06
3.41516e-05
3.73832e-06
2.39668e-05
1.47671e-06
1.22175e-05
2.00231e-07
5.96414e-06
-3.53022e-07
1.74135e-06
-5.30082e-07
1.48406e-06
-5.65375e-07
2.44108e-06
-6.82968e-07
5.39341e-06
-9.63678e-07
8.377e-06
-1.43624e-06
9.74134e-06
-2.01989e-06
8.03985e-06
-2.59198e-06
2.04424e-06
-2.96288e-06
-8.97508e-06
-2.89059e-06
-2.37686e-05
-2.15653e-06
-3.70417e-05
-6.75687e-07
-3.55372e-05
4.76615e-07
-1.03391e-05
-3.42688e-07
2.15857e-05
-2.82331e-06
4.91287e-05
-4.78311e-06
6.51146e-05
-5.75952e-06
5.63738e-05
-6.73401e-06
3.96488e-05
-7.67435e-06
2.7932e-05
-8.37604e-06
1.87704e-05
-8.80189e-06
1.12191e-05
-8.93201e-06
4.58984e-06
-8.7629e-06
-1.50962e-06
-8.29322e-06
-7.30546e-06
-7.52333e-06
-1.29143e-05
-6.45488e-06
-1.84005e-05
-5.08957e-06
-2.38107e-05
-3.42522e-06
-2.91931e-05
-1.45704e-06
-3.45317e-05
8.03064e-07
-3.9582e-05
3.29849e-06
-4.37781e-05
5.92682e-06
-4.63816e-05
8.55016e-06
-4.67248e-05
1.10012e-05
-4.43818e-05
1.31068e-05
-3.92688e-05
1.47194e-05
-3.17313e-05
1.5745e-05
-2.25217e-05
1.616e-05
-1.26594e-05
1.60118e-05
-3.21642e-06
1.54083e-05
4.84152e-06
1.44986e-05
1.07508e-05
1.34425e-05
1.41067e-05
1.2383e-05
1.49421e-05
1.14288e-05
1.3723e-05
1.06467e-05
1.12094e-05
1.00613e-05
8.20147e-06
9.66302e-06
5.35115e-06
9.41944e-06
2.96149e-06
9.29485e-06
1.21344e-06
9.24947e-06
-1.89305e-07
9.27263e-06
-8.58409e-07
9.31503e-06
-2.18119e-06
9.4371e-06
-1.86615e-06
-5.49923e-06
9.61958e-06
5.60707e-05
8.73371e-06
4.61634e-05
6.80955e-06
3.60757e-05
4.38468e-06
2.63917e-05
2.02221e-06
1.458e-05
5.36584e-07
7.44977e-06
-2.04208e-07
2.48214e-06
-4.51125e-07
1.73098e-06
-4.85627e-07
2.47558e-06
-5.70669e-07
5.47845e-06
-8.10687e-07
8.61702e-06
-1.2503e-06
1.0181e-05
-1.82164e-06
8.61119e-06
-2.42253e-06
2.64513e-06
-2.88613e-06
-8.51147e-06
-2.97765e-06
-2.3677e-05
-2.44731e-06
-3.75721e-05
-1.13407e-06
-3.68505e-05
1.67723e-08
-1.14899e-05
-7.09648e-07
2.23121e-05
-2.91741e-06
5.13365e-05
-4.55392e-06
6.67511e-05
-5.36774e-06
5.71876e-05
-6.26028e-06
4.05413e-05
-7.13162e-06
2.88034e-05
-7.78591e-06
1.94247e-05
-8.18039e-06
1.16135e-05
-8.29093e-06
4.70039e-06
-8.11072e-06
-1.68984e-06
-7.63601e-06
-7.78017e-06
-6.86557e-06
-1.36847e-05
-5.80003e-06
-1.9466e-05
-4.44061e-06
-2.51701e-05
-2.78455e-06
-3.08492e-05
-8.26182e-07
-3.64901e-05
1.42158e-06
-4.18298e-05
3.9013e-06
-4.62578e-05
6.5116e-06
-4.89919e-05
9.11368e-06
-4.93268e-05
1.15388e-05
-4.68068e-05
1.36126e-05
-4.13426e-05
1.5187e-05
-3.33057e-05
1.61681e-05
-2.35028e-05
1.65334e-05
-1.30247e-05
1.6332e-05
-3.01501e-06
1.5675e-05
5.49847e-06
1.4715e-05
1.17108e-05
1.36146e-05
1.52071e-05
1.25185e-05
1.60382e-05
1.15354e-05
1.47061e-05
1.07315e-05
1.20133e-05
1.01307e-05
8.80231e-06
9.72272e-06
5.75914e-06
9.47402e-06
3.21019e-06
9.34745e-06
1.34001e-06
9.30119e-06
-1.43049e-07
9.32364e-06
-8.80852e-07
9.36296e-06
-2.22051e-06
9.48019e-06
-1.98338e-06
-5.55318e-06
9.72631e-06
5.63444e-05
9.01648e-06
4.68733e-05
7.33166e-06
3.77606e-05
5.0311e-06
2.86923e-05
2.61378e-06
1.69973e-05
9.35476e-07
9.12808e-06
4.82591e-09
3.41279e-06
-3.48875e-07
2.08468e-06
-3.96322e-07
2.52303e-06
-4.50375e-07
5.5325e-06
-6.4721e-07
8.81385e-06
-1.04965e-06
1.05834e-05
-1.60281e-06
9.16434e-06
-2.225e-06
3.26732e-06
-2.77327e-06
-7.9632e-06
-3.02267e-06
-2.34276e-05
-2.69643e-06
-3.78983e-05
-1.56721e-06
-3.79797e-05
-4.62618e-07
-1.25945e-05
-1.04502e-06
2.28945e-05
-2.96781e-06
5.32593e-05
-4.29837e-06
6.80817e-05
-4.96359e-06
5.78529e-05
-5.77598e-06
4.13537e-05
-6.57936e-06
2.96068e-05
-7.18691e-06
2.00322e-05
-7.55026e-06
1.19769e-05
-7.64139e-06
4.79152e-06
-7.45026e-06
-1.88098e-06
-6.97081e-06
-8.25962e-06
-6.20017e-06
-1.44554e-05
-5.13794e-06
-2.05282e-05
-3.78474e-06
-2.65233e-05
-2.13725e-06
-3.24967e-05
-1.89131e-07
-3.84382e-05
2.04517e-06
-4.40641e-05
4.50822e-06
-4.87209e-05
7.09946e-06
-5.15831e-05
9.67894e-06
-5.19063e-05
1.20767e-05
-4.92046e-05
1.41178e-05
-4.33837e-05
1.56538e-05
-3.48417e-05
1.65909e-05
-2.44399e-05
1.6907e-05
-1.33409e-05
1.66531e-05
-2.76108e-06
1.59429e-05
6.20867e-06
1.49324e-05
1.27213e-05
1.37875e-05
1.6352e-05
1.26546e-05
1.71711e-05
1.16425e-05
1.57181e-05
1.08168e-05
1.2839e-05
1.02003e-05
9.41873e-06
9.78241e-06
6.17707e-06
9.52837e-06
3.46423e-06
9.39969e-06
1.46869e-06
9.35262e-06
-9.59844e-08
9.37443e-06
-9.0266e-07
9.41096e-06
-2.25703e-06
9.52333e-06
-2.09575e-06
-5.59485e-06
9.81972e-06
5.65247e-05
9.26625e-06
4.74267e-05
7.8148e-06
3.9212e-05
5.66861e-06
3.08384e-05
3.24068e-06
1.94252e-05
1.39521e-06
1.09735e-05
2.51823e-07
4.55618e-06
-2.15387e-07
2.55189e-06
-2.95538e-07
2.60318e-06
-3.22477e-07
5.55944e-06
-4.7424e-07
8.96561e-06
-8.35531e-07
1.09447e-05
-1.36491e-06
9.69373e-06
-2.00101e-06
3.90341e-06
-2.62538e-06
-7.33883e-06
-3.02555e-06
-2.30275e-05
-2.90238e-06
-3.80215e-05
-1.96899e-06
-3.89131e-05
-9.11235e-07
-1.36523e-05
-1.34655e-06
2.33298e-05
-2.97556e-06
5.48883e-05
-4.01829e-06
6.91244e-05
-4.54737e-06
5.83819e-05
-5.28142e-06
4.20878e-05
-6.01819e-06
3.03435e-05
-6.57985e-06
2.05939e-05
-6.91243e-06
1.23095e-05
-6.98441e-06
4.8635e-06
-6.78262e-06
-2.08277e-06
-6.29877e-06
-8.74347e-06
-5.52835e-06
-1.52258e-05
-4.46985e-06
-2.15867e-05
-3.1233e-06
-2.78698e-05
-1.4847e-06
-3.41353e-05
4.52303e-07
-4.03752e-05
2.67214e-06
-4.62839e-05
5.11756e-06
-5.11663e-05
7.68851e-06
-5.41541e-05
1.02437e-05
-5.44615e-05
1.26125e-05
-5.15734e-05
1.46197e-05
-4.53908e-05
1.61169e-05
-3.63389e-05
1.70106e-05
-2.53336e-05
1.72789e-05
-1.36092e-05
1.69735e-05
-2.45575e-06
1.62108e-05
6.97143e-06
1.515e-05
1.37821e-05