/*--------------------------------*- C++ -*----------------------------------*\
| =========                 |                                                 |
| \\      /  F ield         | OpenFOAM: The Open Source CFD Toolbox           |
|  \\    /   O peration     | Version:  2.4.0                                 |
|   \\  /    A nd           | Web:      www.OpenFOAM.org                      |
|    \\/     M anipulation  |                                                 |
\*---------------------------------------------------------------------------*/
FoamFile
{
    version     2.0;
    format      ascii;
    class       surfaceScalarField;
    location    "3";
    object      phi;
}
// * * * * * * * * * * * * * * * * * * * * * * * * * * * * * * * * * * * * * //

dimensions      [0 3 -1 0 0 0 0];

internalField   nonuniform List<scalar> 
760
(
-2.75423e-08
2.75366e-08
-1.85465e-07
1.57922e-07
-5.55741e-07
3.70276e-07
-1.26862e-06
7.12875e-07
-2.30599e-06
1.03738e-06
-3.45738e-06
1.15139e-06
-4.50992e-06
1.05254e-06
-5.38277e-06
8.72854e-07
-6.03986e-06
6.57087e-07
-6.4871e-06
4.4724e-07
-6.75585e-06
2.68746e-07
-6.85095e-06
9.51004e-08
-6.78314e-06
-6.78078e-08
-6.53529e-06
-2.47846e-07
-6.08083e-06
-4.54466e-07
-5.34193e-06
-7.389e-07
-4.26153e-06
-1.0804e-06
-2.81908e-06
-1.44245e-06
-1.21035e-06
-1.60873e-06
-1.21035e-06
-2.61651e-07
2.89188e-07
-7.61804e-07
6.58075e-07
-1.54564e-06
1.15411e-06
-2.58726e-06
1.7545e-06
-3.7032e-06
2.15332e-06
-4.68889e-06
2.13707e-06
-5.49041e-06
1.85406e-06
-6.10841e-06
1.49085e-06
-6.56058e-06
1.10926e-06
-6.85765e-06
7.44308e-07
-6.99668e-06
4.07776e-07
-6.97659e-06
7.50123e-08
-6.83592e-06
-2.08478e-07
-6.56636e-06
-5.17405e-07
-6.12928e-06
-8.91551e-07
-5.48316e-06
-1.38502e-06
-4.53766e-06
-2.0259e-06
-3.22425e-06
-2.75586e-06
-1.57876e-06
-3.25422e-06
-2.78911e-06
-5.1874e-07
8.07928e-07
-1.26065e-06
1.39999e-06
-2.18793e-06
2.08139e-06
-3.19978e-06
2.76634e-06
-4.10536e-06
3.0589e-06
-4.81411e-06
2.84583e-06
-5.3345e-06
2.37445e-06
-5.68081e-06
1.83716e-06
-5.86268e-06
1.29113e-06
-5.91429e-06
7.95924e-07
-5.86852e-06
3.62002e-07
-5.76981e-06
-2.36951e-08
-5.60647e-06
-3.71825e-07
-5.37967e-06
-7.44204e-07
-5.07356e-06
-1.19766e-06
-4.64792e-06
-1.81065e-06
-4.01002e-06
-2.6638e-06
-3.02469e-06
-3.74118e-06
-1.64301e-06
-4.63591e-06
-4.43212e-06
-6.59226e-07
1.46715e-06
-1.45724e-06
2.198e-06
-2.33337e-06
2.95752e-06
-3.16425e-06
3.59722e-06
-3.81375e-06
3.7084e-06
-4.25513e-06
3.28721e-06
-4.52208e-06
2.6414e-06
-4.64789e-06
1.96297e-06
-4.67074e-06
1.31398e-06
-4.6207e-06
7.45882e-07
-4.51103e-06
2.52333e-07
-4.36067e-06
-1.74061e-07
-4.17464e-06
-5.57855e-07
-3.96846e-06
-9.5038e-07
-3.747e-06
-1.41912e-06
-3.49285e-06
-2.0648e-06
-3.14302e-06
-3.01363e-06
-2.52031e-06
-4.36389e-06
-1.45001e-06
-5.70621e-06
-5.88213e-06
-6.54417e-07
2.12157e-06
-1.38182e-06
2.92541e-06
-2.12074e-06
3.69643e-06
-2.73516e-06
4.21165e-06
-3.17291e-06
4.14614e-06
-3.44663e-06
3.56094e-06
-3.59655e-06
2.79132e-06
-3.65444e-06
2.02085e-06
-3.63644e-06
1.29598e-06
-3.54803e-06
6.57477e-07
-3.40206e-06
1.06357e-07
-3.21842e-06
-3.57693e-07
-3.01399e-06
-7.6229e-07
-2.80704e-06
-1.15733e-06
-2.61445e-06
-1.6117e-06
-2.44332e-06
-2.23594e-06
-2.25987e-06
-3.19708e-06
-1.92539e-06
-4.69837e-06
-1.17665e-06
-6.45495e-06
-7.05878e-06
-5.54175e-07
2.67575e-06
-1.14521e-06
3.51644e-06
-1.70335e-06
4.25457e-06
-2.12145e-06
4.62975e-06
-2.42564e-06
4.45033e-06
-2.61938e-06
3.75467e-06
-2.73261e-06
2.90455e-06
-2.77638e-06
2.06463e-06
-2.7526e-06
1.2722e-06
-2.65786e-06
5.62734e-07
-2.50397e-06
-4.75274e-08
-2.31824e-06
-5.43428e-07
-2.12168e-06
-9.58843e-07
-1.93204e-06
-1.34698e-06
-1.76619e-06
-1.77755e-06
-1.64231e-06
-2.35982e-06
-1.56051e-06
-3.27888e-06
-1.43464e-06
-4.82424e-06
-9.20551e-07
-6.96904e-06
-7.97933e-06
-3.99164e-07
3.07491e-06
-8.22079e-07
3.93936e-06
-1.18179e-06
4.61429e-06
-1.44134e-06
4.8893e-06
-1.64978e-06
4.65877e-06
-1.80628e-06
3.91117e-06
-1.91194e-06
3.01021e-06
-1.9614e-06
2.11409e-06
-1.94725e-06
1.25805e-06
-1.86124e-06
4.76726e-07
-1.71889e-06
-1.89875e-07
-1.5514e-06
-7.10919e-07
-1.38582e-06
-1.12443e-06
-1.23631e-06
-1.49649e-06
-1.11444e-06
-1.89941e-06
-1.037e-06
-2.43726e-06
-1.01722e-06
-3.29866e-06
-9.92488e-07
-4.84897e-06
-7.24234e-07
-7.23729e-06
-8.70356e-06
-2.22904e-07
3.29781e-06
-4.64025e-07
4.18048e-06
-6.34976e-07
4.78524e-06
-7.62528e-07
5.01685e-06
-8.79941e-07
4.77618e-06
-9.99996e-07
4.03123e-06
-1.09494e-06
3.10515e-06
-1.14905e-06
2.16821e-06
-1.14887e-06
1.25786e-06
-1.08489e-06
4.12742e-07
-9.72226e-07
-3.02538e-07
-8.469e-07
-8.36246e-07
-7.37086e-07
-1.23424e-06
-6.50587e-07
-1.58299e-06
-5.92545e-07
-1.95745e-06
-5.76027e-07
-2.45378e-06
-6.22122e-07
-3.25257e-06
-6.64195e-07
-4.8069e-06
-5.4951e-07
-7.35198e-06
-9.25307e-06
-4.74979e-08
3.34531e-06
-1.15674e-07
4.24865e-06
-1.25336e-07
4.7949e-06
-1.21332e-07
5.01285e-06
-1.34384e-07
4.78923e-06
-1.92059e-07
4.0889e-06
-2.54492e-07
3.16759e-06
-2.96997e-07
2.21072e-06
-3.03127e-07
1.26399e-06
-2.70944e-07
3.80559e-07
-2.17165e-07
-3.56317e-07
-1.7118e-07
-8.8223e-07
-1.4601e-07
-1.25941e-06
-1.41545e-07
-1.58745e-06
-1.59597e-07
-1.9394e-06
-2.10521e-07
-2.40286e-06
-3.19295e-07
-3.14379e-06
-4.34092e-07
-4.6921e-06
-4.36734e-07
-7.34934e-06
-9.68981e-06
9.59405e-08
3.24937e-06
1.81223e-07
4.16337e-06
3.35936e-07
4.64019e-06
4.97322e-07
4.85146e-06
6.19901e-07
4.66665e-06
6.42679e-07
4.06612e-06
6.25416e-07
3.18485e-06
6.01458e-07
2.23467e-06
5.81732e-07
1.28372e-06
5.61031e-07
4.01261e-07
5.23479e-07
-3.18765e-07
4.63778e-07
-8.2253e-07
3.87572e-07
-1.18321e-06
3.0135e-07
-1.50123e-06
2.03334e-07
-1.84139e-06
7.97631e-08
-2.27928e-06
-7.76303e-08
-2.9864e-06
-2.64313e-07
-4.50542e-06
-3.43042e-07
-7.27061e-06
-1.00328e-05
2.05525e-07
3.04385e-06
4.06631e-07
3.96226e-06
6.76235e-07
4.37059e-06
9.80561e-07
4.54713e-06
1.24387e-06
4.40335e-06
1.39736e-06
3.91263e-06
1.45719e-06
3.12502e-06
1.46213e-06
2.22973e-06
1.42481e-06
1.32104e-06
1.33977e-06
4.86296e-07
1.19549e-06
-1.7448e-07
1.02356e-06
-6.50601e-07
8.47635e-07
-1.00728e-06
6.7703e-07
-1.33063e-06
5.06949e-07
-1.67131e-06
3.24893e-07
-2.09723e-06
1.07405e-07
-2.76891e-06
-1.46645e-07
-4.25137e-06
-3.01185e-07
-7.11607e-06
-1.0334e-05
2.77143e-07
2.7667e-06
5.49439e-07
3.68997e-06
8.80398e-07
4.03963e-06
1.26936e-06
4.15817e-06
1.64084e-06
4.03187e-06
1.92209e-06
3.63138e-06
2.07597e-06
2.97114e-06
2.12352e-06
2.18218e-06
2.07502e-06
1.36955e-06
1.93053e-06
6.30781e-07
1.70966e-06
4.63929e-08
1.45921e-06
-4.0015e-07
1.21493e-06
-7.63006e-07
9.82418e-07
-1.09811e-06
7.54696e-07
-1.44358e-06
5.18335e-07
-1.86087e-06
2.48376e-07
-2.49895e-06
-6.11829e-08
-3.94181e-06
-2.63862e-07
-6.91339e-06
-1.05979e-05
3.01019e-07
2.46569e-06
6.07795e-07
3.38319e-06
9.59671e-07
3.68775e-06
1.37188e-06
3.74596e-06
1.79181e-06
3.61194e-06
2.14781e-06
3.27537e-06
2.37863e-06
2.74033e-06
2.47222e-06
2.08859e-06
2.43142e-06
1.41035e-06
2.26763e-06
7.94573e-07
2.02962e-06
2.84402e-07
1.76171e-06
-1.32243e-07
1.49135e-06
-4.92646e-07
1.22416e-06
-8.30918e-07
9.55619e-07
-1.17505e-06
6.76405e-07
-1.58165e-06
3.68585e-07
-2.19113e-06
7.14229e-09
-3.58037e-06
-2.2612e-07
-6.68012e-06
-1.0824e-05
2.89574e-07
2.17611e-06
6.09327e-07
3.06344e-06
9.63967e-07
3.33311e-06
1.36552e-06
3.34441e-06
1.78149e-06
3.19597e-06
2.15403e-06
2.90283e-06
2.42117e-06
2.47319e-06
2.55113e-06
1.95862e-06
2.54205e-06
1.41943e-06
2.41576e-06
9.20867e-07
2.21346e-06
4.86698e-07
1.96958e-06
1.11644e-07
1.70267e-06
-2.25734e-07
1.4218e-06
-5.50048e-07
1.12645e-06
-8.79698e-07
8.13152e-07
-1.26836e-06
4.79047e-07
-1.85703e-06
1.14499e-07
-3.21582e-06
-1.33825e-07
-6.4318e-06
-1.09578e-05
2.30867e-07
1.94524e-06
5.49378e-07
2.74493e-06
9.12835e-07
2.96965e-06
1.30971e-06
2.94753e-06
1.71281e-06
2.79288e-06
2.07775e-06
2.5379e-06
2.35562e-06
2.19531e-06
2.51751e-06
1.79673e-06
2.55376e-06
1.38318e-06
2.48514e-06
9.89482e-07
2.33677e-06
6.35072e-07
2.1312e-06
3.17213e-07
1.88258e-06
2.28865e-08
1.60048e-06
-2.67951e-07
1.2862e-06
-5.65412e-07
9.41877e-07
-9.24034e-07
5.88484e-07
-1.50363e-06
2.36247e-07
-2.86359e-06
1.99742e-09
-6.19755e-06
-1.09558e-05
1.72587e-07
1.77266e-06
4.89132e-07
2.42838e-06
8.57503e-07
2.60128e-06
1.25429e-06
2.55074e-06
1.6475e-06
2.39967e-06
2.00315e-06
2.18225e-06
2.28591e-06
1.91255e-06
2.47271e-06
1.60994e-06
2.55635e-06
1.29953e-06
2.54506e-06
1.00077e-06
2.45092e-06
7.2921e-07
2.28814e-06
4.79992e-07
2.06446e-06
2.46575e-07
1.78986e-06
6.64365e-09
1.46221e-06
-2.37756e-07
1.09206e-06
-5.53886e-07
7.31853e-07
-1.14343e-06
3.97254e-07
-2.52899e-06
1.20974e-07
-5.92127e-06
-1.08349e-05
-2.5864e-08
1.79852e-06
2.99735e-07
2.10279e-06
7.23349e-07
2.17767e-06
1.1523e-06
2.12179e-06
1.56124e-06
1.99073e-06
1.92952e-06
1.81397e-06
2.23285e-06
1.60922e-06
2.45557e-06
1.38722e-06
2.58993e-06
1.16517e-06
2.63503e-06
9.55673e-07
2.59655e-06
7.67693e-07
2.48316e-06
5.93379e-07
2.29762e-06
4.32112e-07
2.04295e-06
2.61312e-07
1.72007e-06
8.51262e-08
1.35718e-06
-1.90992e-07
9.97795e-07
-7.84047e-07
6.49474e-07
-2.18067e-06
2.6347e-07
-5.53527e-06
-1.05714e-05
-2.39787e-07
2.03831e-06
8.61471e-08
1.77685e-06
4.88157e-07
1.77566e-06
9.59037e-07
1.65091e-06
1.43553e-06
1.51423e-06
1.8762e-06
1.3733e-06
2.25314e-06
1.23228e-06
2.55102e-06
1.08934e-06
2.7587e-06
9.5749e-07
2.88309e-06
8.31287e-07
2.92876e-06
7.22017e-07
2.90326e-06
6.18877e-07
2.80534e-06
5.30041e-07
2.63268e-06
4.33965e-07
2.39651e-06
3.21298e-07
2.16132e-06
4.41986e-08
1.84562e-06
-4.68348e-07
1.47666e-06
-1.8117e-06
7.22479e-07
-4.78109e-06
-9.84892e-06
-4.37529e-07
2.47584e-06
-8.50765e-08
1.4244e-06
6.15768e-07
1.07481e-06
1.32725e-06
9.39426e-07
1.98205e-06
8.59433e-07
2.57203e-06
7.83331e-07
3.09128e-06
7.13021e-07
3.53939e-06
6.41229e-07
3.91388e-06
5.83e-07
4.22661e-06
5.18557e-07
4.47391e-06
4.74718e-07
4.67919e-06
4.136e-07
4.82784e-06
3.8139e-07
4.96139e-06
3.0041e-07
5.03732e-06
2.45375e-07
5.02958e-06
5.19407e-08
4.85204e-06
-2.90815e-07
4.26346e-06
-1.22312e-06
2.46029e-06
-2.97792e-06
-7.38863e-06
2.47584e-06
3.90024e-06
4.97505e-06
5.91448e-06
6.77391e-06
7.55724e-06
8.27026e-06
8.91149e-06
9.49449e-06
1.0013e-05
1.04878e-05
1.09014e-05
1.12828e-05
1.15832e-05
1.18285e-05
1.18805e-05
1.15897e-05
1.03665e-05
7.38863e-06
)
;

boundaryField
{
    movingWall
    {
        type            calculated;
        value           uniform 0;
    }
    fixedWalls
    {
        type            calculated;
        value           uniform 0;
    }
    frontAndBack
    {
        type            empty;
        value           nonuniform 0();
    }
}


// ************************************************************************* //
