/*--------------------------------*- C++ -*----------------------------------*\
| =========                 |                                                 |
| \\      /  F ield         | OpenFOAM: The Open Source CFD Toolbox           |
|  \\    /   O peration     | Version:  2.4.0                                 |
|   \\  /    A nd           | Web:      www.OpenFOAM.org                      |
|    \\/     M anipulation  |                                                 |
\*---------------------------------------------------------------------------*/
FoamFile
{
    version     2.0;
    format      ascii;
    class       volScalarField;
    location    "497";
    object      k;
}
// * * * * * * * * * * * * * * * * * * * * * * * * * * * * * * * * * * * * * //

dimensions      [0 2 -2 0 0 0 0];

internalField   nonuniform List<scalar> 
6000
(
0.0139122
0.00612147
0.00167803
0.00124512
0.00114116
0.00110905
0.00108861
0.00108383
0.00108743
0.00109705
0.00111031
0.00112601
0.00114321
0.00116199
0.00118278
0.00120653
0.00123432
0.00126727
0.00130638
0.0013525
0.00140636
0.00146865
0.00153998
0.00162092
0.001712
0.00181441
0.0019351
0.00206641
0.00220732
0.00235699
0.0025139
0.00267596
0.00284053
0.0030046
0.00316546
0.0033187
0.00345909
0.00358376
0.00369028
0.00377722
0.00384317
0.00388831
0.00391186
0.00391587
0.00390023
0.0038716
0.00382093
0.00391251
0.00399805
0.0041243
0.00424232
0.00444215
0.00461109
0.00495474
0.00519544
0.00583506
0.00621378
0.00749804
0.00801625
0.0112986
0.0108007
0.00614835
0.00349462
0.00187606
0.00150342
0.001477
0.00149458
0.00153031
0.00157505
0.00162397
0.001674
0.0017236
0.0017715
0.00181814
0.00186508
0.00191514
0.00197183
0.00203901
0.00212037
0.00221924
0.00233833
0.0024797
0.00264473
0.00283401
0.00304752
0.00328456
0.00354427
0.00382373
0.00412131
0.00443421
0.00475891
0.00509135
0.0054271
0.00576161
0.00609004
0.00640402
0.00669777
0.00696772
0.00721114
0.00742669
0.00761303
0.00777085
0.00789979
0.00800283
0.00808105
0.00814026
0.00813582
0.00812145
0.00809634
0.00808316
0.00806728
0.00808928
0.00810468
0.00820721
0.00828208
0.00854621
0.00871145
0.0093004
0.00954746
0.0108871
0.0105284
0.00643562
0.0041622
0.00286981
0.0021727
0.0019961
0.00196773
0.00198969
0.00203426
0.0020894
0.00214893
0.0022097
0.0022695
0.00232831
0.00238773
0.00245091
0.00252202
0.00260579
0.00270688
0.00282965
0.00297783
0.00315444
0.00336165
0.00360067
0.00387176
0.00417417
0.00450609
0.00486465
0.00524726
0.00564962
0.00606659
0.00649239
0.00692088
0.00734595
0.00776141
0.00815732
0.0085263
0.00886399
0.0091673
0.00943465
0.00966479
0.00985842
0.0100157
0.0101395
0.0102317
0.0102931
0.010277
0.0102336
0.0101792
0.0101282
0.0100814
0.0100619
0.0100533
0.0101109
0.0101811
0.0103921
0.0106022
0.0111024
0.0115497
0.0127321
0.0106764
0.00664305
0.00447293
0.00353574
0.00289781
0.00250858
0.00239908
0.00238828
0.00241984
0.0024715
0.00253274
0.0025982
0.00266443
0.00273067
0.00279816
0.00287001
0.00295055
0.00304494
0.00315844
0.00329615
0.00346265
0.00366185
0.0038968
0.00416945
0.00448057
0.00482958
0.00521418
0.00563136
0.00607749
0.00654696
0.00703315
0.00752872
0.00802605
0.00851774
0.00899656
0.00945132
0.00987342
0.0102579
0.0106013
0.010902
0.0111587
0.0113722
0.0115431
0.0116739
0.0117669
0.0118169
0.0117842
0.0117171
0.0116388
0.0115581
0.0114875
0.0114374
0.0114132
0.0114419
0.0115172
0.0117009
0.011964
0.0124273
0.0130757
0.0141513
0.010787
0.00678394
0.00463054
0.00386666
0.0036278
0.00305437
0.00283025
0.00276961
0.00277807
0.00281951
0.00287753
0.00294393
0.00301361
0.00308479
0.00315814
0.00323644
0.00332401
0.00342618
0.00354865
0.00369711
0.00387694
0.00409295
0.00434912
0.00464823
0.00499169
0.00537914
0.00580814
0.00627527
0.00677598
0.00730336
0.00784935
0.00840514
0.0089617
0.00951043
0.0100432
0.0105475
0.0110137
0.0114363
0.0118116
0.0121377
0.0124136
0.0126398
0.0128175
0.0129486
0.0130353
0.0130666
0.0130149
0.012924
0.0128213
0.0127115
0.0126165
0.0125372
0.0124959
0.0124979
0.0125748
0.0127359
0.0130428
0.0134793
0.0142842
0.0152586
0.0108513
0.00688296
0.00471499
0.00400064
0.00421124
0.00364757
0.00328459
0.00315663
0.00313187
0.00315669
0.00320715
0.00327135
0.00334214
0.00341644
0.0034941
0.00357742
0.00367048
0.00377867
0.00390796
0.00406459
0.00425465
0.00448388
0.00475723
0.00507846
0.0054497
0.00587092
0.00633968
0.0068521
0.0074027
0.00798333
0.00858445
0.00919577
0.00980688
0.010408
0.0109901
0.0115392
0.0120449
0.012501
0.0129036
0.0132506
0.0135409
0.0137753
0.0139549
0.0140814
0.0141559
0.0141634
0.0140906
0.0139749
0.0138463
0.0137068
0.0135855
0.0134764
0.0134151
0.0133906
0.0134641
0.0136042
0.0139451
0.0143595
0.0152834
0.0161631
0.0108871
0.00695334
0.00476236
0.00402509
0.00455492
0.00426741
0.00377375
0.00356196
0.00349364
0.00349535
0.0035339
0.00359291
0.00366266
0.00373849
0.0038192
0.00390642
0.00400385
0.00411679
0.00425139
0.00441433
0.00461238
0.0048522
0.0051398
0.00547999
0.00587581
0.00632756
0.00683301
0.00738776
0.00798543
0.00861662
0.00927028
0.00993461
0.0105978
0.0112489
0.0118777
0.0124689
0.0130113
0.013498
0.0139247
0.0142892
0.0145905
0.0148294
0.015007
0.0151246
0.0151816
0.0151615
0.0150657
0.0149239
0.0147676
0.0145974
0.0144477
0.0143078
0.0142236
0.0141718
0.0142373
0.0143565
0.0147229
0.0151179
0.016134
0.0169245
0.0109042
0.00700327
0.00479064
0.00399372
0.00467454
0.00484231
0.00429984
0.00399302
0.00387101
0.00384292
0.00386513
0.0039159
0.00398249
0.00405829
0.0041409
0.00423106
0.00433197
0.00444867
0.00458742
0.00475522
0.0049595
0.00520782
0.0055073
0.00586389
0.00628169
0.0067614
0.0073012
0.00789615
0.00853893
0.00921896
0.00992359
0.0106395
0.0113533
0.0120529
0.0127269
0.0133585
0.0139356
0.0144507
0.0148991
0.0152785
0.0155878
0.0158278
0.0159998
0.0161043
0.0161387
0.016089
0.0159681
0.0157989
0.0156134
0.0154113
0.0152312
0.0150593
0.0149495
0.0148692
0.0149226
0.0150204
0.0154049
0.0157821
0.0168696
0.0175765
0.0109089
0.00703891
0.00480922
0.00393796
0.00463663
0.0052808
0.00485204
0.00445331
0.00426885
0.00420435
0.00420567
0.00424506
0.00430628
0.00438051
0.00446387
0.00455609
0.00465968
0.00477936
0.00492131
0.00509281
0.00530186
0.0055569
0.00586619
0.00623694
0.00667441
0.00717987
0.00775198
0.00838538
0.00907169
0.00979928
0.0105538
0.0113202
0.0120839
0.0128311
0.0135492
0.0142199
0.0148302
0.0153718
0.0158398
0.0162315
0.016546
0.0167841
0.016947
0.0170343
0.0170419
0.0169613
0.0168135
0.0166153
0.0163992
0.0161642
0.0159521
0.015747
0.0156092
0.0154991
0.0155365
0.0156122
0.016008
0.0163685
0.0175105
0.0181398
0.0109057
0.00706479
0.0048231
0.00387535
0.00450046
0.00553403
0.005397
0.00494185
0.00468996
0.00458299
0.00455888
0.00458365
0.00463722
0.00470827
0.00479122
0.00488464
0.0049902
0.00511215
0.00525653
0.00543077
0.00564335
0.00590355
0.00622079
0.00660361
0.00705856
0.00758768
0.00819018
0.00886034
0.00958877
0.0103628
0.0111663
0.0119826
0.0127953
0.0135896
0.0143508
0.0150593
0.0157014
0.0162679
0.0167533
0.017155
0.0174721
0.0177052
0.0178558
0.0179217
0.0178995
0.0177871
0.0176105
0.0173823
0.0171343
0.0168655
0.01662
0.0163807
0.0162128
0.0160717
0.0160896
0.0161421
0.0165434
0.0168875
0.0180704
0.0186283
0.0108979
0.00708402
0.00483492
0.00381518
0.00431215
0.00560943
0.00587596
0.00545081
0.00513497
0.00498092
0.0049271
0.00493403
0.00497759
0.00504377
0.00512511
0.00521885
0.0053257
0.00544932
0.00559546
0.00577162
0.00598665
0.00625062
0.0065741
0.00696702
0.00743728
0.00798797
0.00861888
0.0093241
0.0100932
0.0109124
0.011764
0.0126294
0.0134905
0.0143312
0.0151345
0.0158799
0.0165522
0.0171418
0.0176428
0.0180522
0.0183692
0.0185944
0.0187291
0.0187699
0.0187161
0.0185711
0.0183643
0.0181051
0.0178242
0.017521
0.017241
0.0169666
0.0167668
0.0165936
0.0165891
0.0166171
0.0170185
0.0173465
0.0185586
0.0190517
0.0108874
0.00709872
0.00484609
0.00376198
0.00410429
0.00553525
0.00623671
0.00596107
0.0056016
0.00539892
0.00531183
0.00529782
0.00532901
0.00538857
0.00546706
0.00556021
0.00566767
0.0057924
0.00593973
0.00611712
0.00633367
0.00660016
0.00692827
0.00732937
0.00781281
0.00838289
0.00904015
0.00977856
0.0105868
0.0114499
0.0123484
0.0132621
0.0141709
0.0150571
0.0159015
0.0166824
0.0173835
0.0179945
0.0185088
0.0189235
0.0192379
0.0194523
0.0195677
0.0195805
0.0194941
0.0193158
0.0190776
0.0187865
0.0184721
0.0181341
0.017819
0.0175088
0.0172758
0.0170694
0.0170398
0.0170421
0.0174389
0.0177504
0.0189822
0.0194173
0.0108755
0.00711035
0.0048573
0.0037175
0.00389812
0.00534817
0.00645335
0.00643769
0.00608322
0.00583619
0.0057137
0.00567605
0.00569259
0.00574379
0.00581812
0.00590975
0.00601715
0.00614244
0.00629048
0.00646849
0.00668578
0.00695367
0.0072849
0.0076923
0.00818676
0.00877396
0.00945534
0.0102249
0.0110704
0.0119758
0.0129201
0.0138808
0.0148363
0.0157671
0.0166513
0.0174662
0.0181945
0.0188249
0.0193506
0.0197683
0.0200773
0.0202779
0.0203709
0.0203538
0.0202342
0.0200223
0.0197517
0.0194282
0.0190799
0.0187069
0.0183562
0.0180101
0.0177429
0.0175025
0.0174455
0.0174208
0.0178085
0.0181034
0.0193467
0.0197307
0.0108631
0.00711987
0.00486887
0.00368202
0.00370625
0.0050855
0.00652113
0.00684215
0.00656631
0.00628975
0.00613233
0.00606915
0.006069
0.00611013
0.00617899
0.00626814
0.00637479
0.00650014
0.00664842
0.00682657
0.0070439
0.00731219
0.00764516
0.00805703
0.00856033
0.00916227
0.00986535
0.0106637
0.0115445
0.0124904
0.0134787
0.0144852
0.0154861
0.01646
0.0173826
0.01823
0.0189837
0.0196315
0.0201662
0.0205845
0.0208856
0.0210696
0.0211375
0.0210896
0.0209364
0.0206907
0.0203871
0.0200308
0.0196486
0.0192407
0.0188544
0.0184723
0.0181702
0.0178952
0.017809
0.0177562
0.0181308
0.0184086
0.0196565
0.0199964
0.0108507
0.00712797
0.00488091
0.00365503
0.00353522
0.00478053
0.00644986
0.00714565
0.00702765
0.00675341
0.006566
0.00647681
0.00645842
0.00648795
0.00655007
0.00663578
0.00674096
0.00686586
0.00701398
0.00719186
0.00740865
0.00767648
0.00800988
0.00842448
0.00893441
0.00954863
0.0102708
0.0110955
0.0120093
0.0129934
0.0140238
0.0150743
0.0161191
0.0171344
0.0180936
0.0189716
0.0197486
0.0204117
0.0209533
0.0213697
0.0216603
0.021825
0.0218663
0.021787
0.0216002
0.0213206
0.0209837
0.0205946
0.0201785
0.0197362
0.0193145
0.0188967
0.0185594
0.0182496
0.0181325
0.0180505
0.0184084
0.0186685
0.0199153
0.0202178
0.0108385
0.00713509
0.00489341
0.00363564
0.00338749
0.00446038
0.00625957
0.00732936
0.00744092
0.00721616
0.00701119
0.00689783
0.00686051
0.00687723
0.00693145
0.00701277
0.0071158
0.00723975
0.00738734
0.00756458
0.00778037
0.00804699
0.00837967
0.00879532
0.0093097
0.00993363
0.0106722
0.0115203
0.0124644
0.0134843
0.0145545
0.0156469
0.0167336
0.0177882
0.018782
0.0196885
0.0204868
0.021163
0.0217091
0.0221212
0.0223988
0.022542
0.0225559
0.022445
0.0222246
0.0219113
0.0215411
0.0211194
0.02067
0.0201938
0.0197373
0.0192843
0.0189118
0.0185672
0.018418
0.0183059
0.0186438
0.0188857
0.0201264
0.0203983
0.0108269
0.00714156
0.00490632
0.00362287
0.00326303
0.00414535
0.00597615
0.00738459
0.00778301
0.00766106
0.00746175
0.00732982
0.00727426
0.00727752
0.00732292
0.00739901
0.00749921
0.00762173
0.00776843
0.00794474
0.00815916
0.00842395
0.00875488
0.00917001
0.00968671
0.0103177
0.0110697
0.0119383
0.0129097
0.0139626
0.0150699
0.0162016
0.0173281
0.0184195
0.0194455
0.0203782
0.0211954
0.0218823
0.0224306
0.0228361
0.0230982
0.0232188
0.0232048
0.0230624
0.0228087
0.0224623
0.0220591
0.021605
0.0211229
0.0206138
0.0201232
0.0196358
0.0192286
0.0188493
0.0186672
0.0185241
0.018839
0.019062
0.0202926
0.0205402
0.0108159
0.00714758
0.00491954
0.00361569
0.00316035
0.00384932
0.00562745
0.00731266
0.00803355
0.00806999
0.00790786
0.00776878
0.00769784
0.00768787
0.00772392
0.0077941
0.00789088
0.00801151
0.00815701
0.00833216
0.00854491
0.00880739
0.00913569
0.00954885
0.0100658
0.0107013
0.0114636
0.0123495
0.0133448
0.0144277
0.015569
0.0167372
0.0179005
0.0190259
0.0200816
0.021038
0.0218716
0.0225668
0.023115
0.0235111
0.0237564
0.0238538
0.0238116
0.0236379
0.0233516
0.0229726
0.022537
0.0220514
0.0215374
0.0209963
0.0204727
0.0199519
0.0195106
0.0190971
0.0188815
0.018707
0.0189963
0.0191996
0.0204165
0.020646
0.0108055
0.0071533
0.00493299
0.0036132
0.00307726
0.00358071
0.00524036
0.00712363
0.00817721
0.00842453
0.00833708
0.00820845
0.00812827
0.00810671
0.00813348
0.00819736
0.00829024
0.0084086
0.00855263
0.00872642
0.00893732
0.00919712
0.00952206
0.00993197
0.0104472
0.0110846
0.0118542
0.0127538
0.0137695
0.0148789
0.0160509
0.0172523
0.0184491
0.0196055
0.0206879
0.0216652
0.0225126
0.0232136
0.0237588
0.0241443
0.0243717
0.0244455
0.0243751
0.0241707
0.0238526
0.0234419
0.0229747
0.0224583
0.0219134
0.0213416
0.0207862
0.0202332
0.0197587
0.0193117
0.0190624
0.0188561
0.0191173
0.0193003
0.0205004
0.0207175
0.0107958
0.00715881
0.00494658
0.00361455
0.00301129
0.00334366
0.00483871
0.00683423
0.00820514
0.00870667
0.00873579
0.0086404
0.00856113
0.00853162
0.00855014
0.00860778
0.00869652
0.00881233
0.00895466
0.00912696
0.00933588
0.00959276
0.0099138
0.0103193
0.0108311
0.0114679
0.0122415
0.0131513
0.0141835
0.0153157
0.0165145
0.0177455
0.0189722
0.0201561
0.0212621
0.0222573
0.0231154
0.0238196
0.0243601
0.0247335
0.0249425
0.0249923
0.0248942
0.0246598
0.0243108
0.0238696
0.0233718
0.0228257
0.0222512
0.0216499
0.0210642
0.0204804
0.0199737
0.0194942
0.0192113
0.0189728
0.019204
0.0193659
0.0205465
0.0207565
0.0107868
0.00716418
0.00496021
0.00361901
0.00296001
0.00313916
0.00444204
0.00646558
0.00811552
0.00890047
0.00908901
0.00905484
0.00899043
0.00895916
0.00897176
0.00902392
0.00910859
0.00922175
0.00936226
0.00953301
0.00973991
0.00999376
0.0103105
0.0107106
0.0112174
0.0118511
0.0126258
0.013542
0.0145868
0.0157374
0.0169591
0.0182156
0.0194683
0.020676
0.0218018
0.0228114
0.0236776
0.0243827
0.024917
0.0252774
0.0254674
0.0254934
0.0253681
0.0251047
0.024726
0.0242555
0.0237284
0.0231537
0.0225509
0.0219217
0.0213071
0.020694
0.0201564
0.0196455
0.0193293
0.0190588
0.0192582
0.0193981
0.0205567
0.0207645
0.0107785
0.00716945
0.00497382
0.00362598
0.00292112
0.00296612
0.00406516
0.00604087
0.00791341
0.00899355
0.00938138
0.00944038
0.00940891
0.0093848
0.00939555
0.00944381
0.00952501
0.00963567
0.00977437
0.00994361
0.0101485
0.0103994
0.0107115
0.0111056
0.0116059
0.0122344
0.0130069
0.013926
0.0149791
0.0161439
0.0173839
0.0186613
0.0199353
0.0211628
0.0223047
0.0233257
0.0241974
0.0249015
0.0254281
0.0257746
0.0259453
0.0259479
0.0257961
0.0255048
0.0250979
0.0245995
0.0240444
0.0234425
0.0228129
0.0221573
0.0215154
0.0208747
0.0203076
0.0197667
0.0194177
0.0191153
0.0192814
0.0193986
0.020533
0.0207429
0.0107707
0.00717463
0.00498735
0.00363491
0.00289256
0.00282215
0.00371821
0.00558329
0.00760993
0.00897816
0.00959822
0.00978445
0.00980792
0.00980291
0.00981781
0.00986502
0.00994398
0.0100526
0.0101897
0.0103576
0.0105607
0.0108086
0.0111162
0.0115037
0.0119964
0.0126176
0.0133851
0.0143033
0.0153604
0.016534
0.0177875
0.0190812
0.020372
0.0216152
0.0227697
0.0237988
0.0246734
0.0253745
0.0258921
0.0262242
0.0263756
0.0263551
0.026178
0.0258601
0.0254264
0.0249016
0.0243202
0.0236926
0.0230377
0.0223573
0.0216897
0.0210231
0.0204282
0.0198585
0.0194776
0.0191438
0.0192754
0.0193689
0.0204771
0.020693
0.0107636
0.00717975
0.00500073
0.00364538
0.00287254
0.0027042
0.00340716
0.00511435
0.00722101
0.0088518
0.00972669
0.0100738
0.0101775
0.0102067
0.0102339
0.0102843
0.0103632
0.0104708
0.0106068
0.0107736
0.0109751
0.0112203
0.0115234
0.0119041
0.0123883
0.0130005
0.01376
0.0146731
0.0157297
0.0169073
0.0181695
0.0194745
0.0207776
0.0220322
0.0231955
0.0242296
0.0251046
0.0258008
0.0263083
0.0266254
0.0267576
0.0267149
0.0265135
0.0261706
0.0257117
0.0251623
0.0245561
0.0239044
0.0232258
0.0225223
0.0218308
0.02114
0.0205188
0.019922
0.0195102
0.0191455
0.0192416
0.0193108
0.0203907
0.0206158
0.0107571
0.0071848
0.00501393
0.003657
0.00285952
0.00260899
0.00313453
0.00465261
0.00676591
0.00861746
0.00975679
0.0102954
0.0105067
0.0105882
0.0106383
0.0106978
0.0107797
0.0108879
0.0110238
0.0111899
0.0113903
0.0116331
0.011932
0.0123058
0.0127807
0.013382
0.0141308
0.0150351
0.0160868
0.0172637
0.0185293
0.0198408
0.0211514
0.0224132
0.0235814
0.0246172
0.0254901
0.0261797
0.0266761
0.0269779
0.0270913
0.0270273
0.0268028
0.0264364
0.0259542
0.0253819
0.0247526
0.0240785
0.0233778
0.0226529
0.0219393
0.0212261
0.0205803
0.0199581
0.0195164
0.0191216
0.0191817
0.0192256
0.0202753
0.0205123
0.0107511
0.0071898
0.0050269
0.00366948
0.00285218
0.00253328
0.00290024
0.00421294
0.00626565
0.00828334
0.0096822
0.010437
0.0107839
0.0109384
0.0110245
0.0111007
0.01119
0.0113013
0.0114384
0.0116047
0.0118044
0.0120454
0.0123403
0.0127073
0.0131723
0.0137615
0.014497
0.0153891
0.0164315
0.0176029
0.018867
0.0201798
0.0214932
0.0227575
0.0239269
0.0249613
0.0258296
0.0265109
0.0269953
0.0272816
0.0273767
0.0272923
0.0270463
0.0266581
0.0261544
0.0255609
0.0249104
0.0242156
0.0234946
0.02275
0.0220159
0.0212821
0.0206135
0.0199675
0.0194974
0.0190734
0.019097
0.019115
0.0201323
0.0203836
0.0107456
0.00719473
0.00503961
0.00368257
0.00284942
0.00247407
0.00270236
0.00380621
0.00574142
0.00786222
0.00950085
0.0104883
0.0109974
0.0112474
0.011385
0.0114875
0.0115899
0.0117077
0.011848
0.0120157
0.0122155
0.0124552
0.0127466
0.0131071
0.013562
0.0141378
0.014858
0.0157347
0.0167637
0.0179248
0.0191822
0.0204914
0.0218026
0.0230652
0.0242317
0.0252616
0.0261229
0.0267944
0.027266
0.0275368
0.0276141
0.0275105
0.0272445
0.0268363
0.0263128
0.0257001
0.0250302
0.0243164
0.0235768
0.0228142
0.0220615
0.0213088
0.0206191
0.0199511
0.0194539
0.0190019
0.0189888
0.0189802
0.0199633
0.0202303
0.0107405
0.00719959
0.00505205
0.00369606
0.00285032
0.00242863
0.00253782
0.00343937
0.00521316
0.00737058
0.00921526
0.0104412
0.0111359
0.0115048
0.0117114
0.0118518
0.0119746
0.0121034
0.0122495
0.0124202
0.0126212
0.0128604
0.013149
0.0135033
0.0139481
0.0145099
0.0152129
0.0160713
0.0170831
0.0182293
0.0194752
0.0207756
0.0220798
0.0233361
0.0244961
0.0255183
0.0263702
0.0270304
0.0274886
0.0277438
0.0278041
0.0276824
0.027398
0.0269716
0.0264303
0.0258003
0.0251129
0.0243819
0.0236254
0.0228464
0.0220767
0.0213069
0.0205979
0.0199096
0.0193869
0.0189081
0.0188585
0.0188227
0.0197695
0.0200534
0.0107359
0.00720438
0.00506418
0.00370979
0.00285413
0.00239459
0.00240293
0.00311585
0.00469843
0.00682741
0.00883247
0.0102911
0.0111893
0.0117
0.0119946
0.0121864
0.0123385
0.0124839
0.0126393
0.0128153
0.013019
0.0132586
0.0135452
0.0138941
0.0143289
0.0148762
0.0155608
0.0163985
0.0173893
0.0185164
0.0197458
0.0210324
0.022325
0.0235706
0.0247202
0.0257317
0.0265721
0.0272195
0.0276636
0.0279035
0.0279475
0.027809
0.0275077
0.0270649
0.0265077
0.0258623
0.0251592
0.0244128
0.023641
0.0228474
0.0220624
0.0212772
0.0205506
0.0198438
0.0192972
0.018793
0.0187072
0.0186437
0.0195524
0.0198537
0.0107317
0.00720908
0.005076
0.00372361
0.00286021
0.0023699
0.00229387
0.00283622
0.00421158
0.00625297
0.00836376
0.010037
0.0111493
0.0118226
0.0122249
0.0124834
0.0126753
0.0128441
0.0130135
0.0131976
0.0134058
0.0136472
0.0139328
0.0142771
0.0147025
0.0152353
0.0159005
0.0167153
0.0176821
0.0187859
0.0199943
0.0212624
0.0225384
0.0237692
0.0249048
0.0259025
0.0267291
0.0273624
0.0277918
0.0280166
0.0280451
0.0278911
0.0275745
0.0271171
0.0265459
0.0258869
0.0251701
0.02441
0.0236247
0.022818
0.0220193
0.0212203
0.0204779
0.0197543
0.0191854
0.0186574
0.018536
0.0184445
0.019313
0.0196317
0.0107278
0.0072137
0.00508749
0.00373742
0.00286806
0.00235281
0.00220687
0.00259883
0.00376326
0.00566744
0.00782412
0.00968188
0.0110098
0.011863
0.0123928
0.0127342
0.012978
0.0131786
0.0133674
0.0135632
0.0137783
0.0140232
0.0143091
0.01465
0.0150666
0.0155851
0.0162304
0.0170209
0.0179609
0.0190378
0.0202207
0.0214656
0.0227208
0.0239324
0.0250504
0.0260315
0.0268423
0.0274602
0.0278745
0.0280843
0.0280981
0.0279298
0.0275996
0.0271293
0.026546
0.0258753
0.0251465
0.0243744
0.0235772
0.022759
0.0219482
0.021137
0.0203803
0.0196417
0.0190523
0.0185019
0.0183458
0.0182261
0.0190526
0.0193883
0.0107243
0.00721822
0.00509865
0.00375113
0.00287725
0.00234188
0.00213846
0.00240057
0.00336035
0.0050897
0.00723134
0.00923278
0.0107681
0.011813
0.0124884
0.0129299
0.0132389
0.013481
0.0136958
0.0139078
0.014133
0.0143834
0.0146712
0.01501
0.0154188
0.0159236
0.0165489
0.0173139
0.018225
0.0192716
0.0204251
0.0216426
0.0228725
0.0240611
0.025158
0.0261198
0.0269127
0.027514
0.0279126
0.0281077
0.0281076
0.0279263
0.027584
0.0271026
0.0265089
0.0258282
0.0250892
0.0243068
0.0234993
0.0226711
0.0218497
0.0210279
0.0202586
0.0195067
0.0188983
0.0183274
0.0181375
0.0179897
0.0187724
0.0191241
0.0107211
0.00722265
0.00510947
0.00376466
0.00288744
0.00233587
0.00208551
0.00223744
0.00300626
0.00453621
0.00660501
0.00870078
0.0104244
0.0116661
0.0125029
0.0130613
0.0134499
0.0137443
0.013993
0.0142267
0.0144655
0.0147242
0.0150157
0.015354
0.0157564
0.0162484
0.0168541
0.017593
0.0184735
0.0194871
0.0206077
0.0217936
0.0229943
0.0241562
0.0252287
0.0261684
0.0269415
0.027525
0.0279076
0.0280882
0.0280749
0.0278818
0.0275289
0.027038
0.0264356
0.0257467
0.0249991
0.0242081
0.0233917
0.022555
0.0217244
0.0208936
0.0201131
0.0193496
0.018724
0.0181343
0.0179119
0.0177362
0.0184734
0.0188399
0.0107182
0.00722697
0.00511994
0.00377797
0.00289835
0.00233379
0.00204529
0.00210505
0.00270132
0.00402024
0.00596534
0.0081005
0.00998305
0.0114186
0.0124282
0.0131196
0.0136026
0.0139613
0.0142527
0.0145145
0.0147715
0.0150415
0.015339
0.0156788
0.0160762
0.0165568
0.0171436
0.0178565
0.0187052
0.0196837
0.0207682
0.0219191
0.0230868
0.0242183
0.0252634
0.0261787
0.0269301
0.0274947
0.0278608
0.028027
0.0280013
0.0277976
0.0274355
0.0269367
0.0263272
0.0256316
0.0248771
0.0240789
0.0232552
0.0224114
0.021573
0.0207345
0.0199444
0.0191708
0.0185298
0.0179231
0.0176696
0.0174666
0.0181568
0.0185364
0.0107155
0.00723118
0.00513006
0.003791
0.00290976
0.00233482
0.00201546
0.00199903
0.00244357
0.00355134
0.00533192
0.00744946
0.00945198
0.0110694
0.0122582
0.0130963
0.0136884
0.0141241
0.0144682
0.0147654
0.0150459
0.015331
0.0156374
0.0159807
0.0163752
0.0168459
0.017415
0.0181023
0.0189186
0.0198604
0.0209063
0.0220191
0.0231505
0.0242486
0.0252634
0.0261518
0.0268799
0.0274245
0.0277736
0.0279258
0.0278883
0.0276749
0.0273049
0.0267997
0.0261846
0.0254839
0.0247239
0.02392
0.0230904
0.0222408
0.021396
0.0205511
0.0197529
0.0189709
0.0183161
0.0176941
0.0174112
0.0171814
0.0178235
0.0182142
0.0107131
0.00723528
0.00513984
0.00380373
0.00292147
0.00233828
0.00199406
0.00191525
0.00222936
0.00313528
0.00472254
0.0067672
0.008843
0.0106208
0.0119885
0.0129839
0.013699
0.0142246
0.0146322
0.0149731
0.0152832
0.0155879
0.0159064
0.0162558
0.0166496
0.0171123
0.0176653
0.018328
0.0191122
0.0200163
0.0210217
0.0220937
0.023186
0.0242477
0.0252296
0.0260891
0.0267922
0.0273158
0.0276477
0.0277858
0.0277372
0.0275151
0.0271384
0.026628
0.0260088
0.0253043
0.0245402
0.0237321
0.0228978
0.0220437
0.0211937
0.0203438
0.0195388
0.0187499
0.0180831
0.0174478
0.0171371
0.0168816
0.0174745
0.0178742
0.0107109
0.00723926
0.00514928
0.00381613
0.00293335
0.00234362
0.00197941
0.00184995
0.00205409
0.00277423
0.00415213
0.00607424
0.00817136
0.0100789
0.0116174
0.0127764
0.0136264
0.0142549
0.0147372
0.0151309
0.0154775
0.0158069
0.0161415
0.0164999
0.0168957
0.0173526
0.0178914
0.018531
0.0192838
0.0201499
0.0211136
0.0221428
0.0231935
0.0242163
0.0251631
0.0259917
0.0266684
0.0271701
0.0274843
0.0276085
0.0275493
0.0273194
0.0269369
0.0264226
0.0258005
0.0250936
0.0243268
0.0235156
0.022678
0.0218205
0.0209666
0.0201129
0.0193025
0.0185082
0.017831
0.0171843
0.0168476
0.0165677
0.0171107
0.017517
0.0107089
0.00724311
0.00515837
0.00382817
0.00294527
0.00235039
0.00197017
0.00179984
0.00191271
0.00246733
0.00363202
0.00539077
0.0074552
0.00945331
0.0111464
0.0124695
0.0134638
0.014207
0.0147755
0.0152317
0.0156226
0.0159826
0.0163376
0.0167084
0.0171092
0.017563
0.0180899
0.0187083
0.0194309
0.0202595
0.0211809
0.0221659
0.0231732
0.0241551
0.0250647
0.0258607
0.0265098
0.0269887
0.0272848
0.0273952
0.0273258
0.0270888
0.0267017
0.0261845
0.0255606
0.0248525
0.0240841
0.0232711
0.0224312
0.0215715
0.0207149
0.0198586
0.0190441
0.0182458
0.0175599
0.0169038
0.0165432
0.0162402
0.0167329
0.0171435
0.0107071
0.00724685
0.00516712
0.00383984
0.00295714
0.00235824
0.00196521
0.00176206
0.00180022
0.0022114
0.00316954
0.00473547
0.00671471
0.00875742
0.0105801
0.0120615
0.0132056
0.0140738
0.0147397
0.0152684
0.0157118
0.016109
0.0164895
0.0168766
0.0172857
0.0177392
0.0182569
0.0188566
0.0195509
0.0203431
0.0212223
0.0221624
0.0231248
0.0240642
0.0249352
0.0256972
0.0263175
0.0267729
0.0270506
0.0271472
0.027068
0.0268245
0.0264335
0.0259144
0.0252898
0.0245814
0.0238126
0.0229988
0.0221578
0.021297
0.0204388
0.0195812
0.0187638
0.017963
0.01727
0.0166064
0.0162239
0.0158996
0.0163421
0.0167543
0.0107054
0.00725046
0.00517554
0.00385114
0.00296888
0.00236687
0.00196361
0.00173424
0.00171187
0.00200166
0.00276802
0.00412426
0.00597111
0.00800799
0.00992694
0.0115532
0.0128477
0.0138488
0.0146223
0.0152337
0.0157384
0.0161799
0.0165914
0.0169992
0.0174206
0.017877
0.0183884
0.0189721
0.0196405
0.020398
0.0212359
0.0221311
0.0230481
0.0239439
0.024775
0.0255019
0.0260924
0.0265237
0.0267827
0.0268655
0.0267768
0.0265274
0.0261333
0.0256131
0.0249886
0.0242809
0.0235126
0.0226991
0.021858
0.0209972
0.0201384
0.0192806
0.0184616
0.0176598
0.0169613
0.0162921
0.0158899
0.0155462
0.0159387
0.0163503
0.0107039
0.00725394
0.00518362
0.00386206
0.00298044
0.00237605
0.00196464
0.00171437
0.00164342
0.0018325
0.00242721
0.00356937
0.00524533
0.00722459
0.00919906
0.010949
0.0123886
0.0135271
0.0144168
0.0151205
0.0156954
0.0161887
0.0166376
0.0170709
0.0175087
0.0179717
0.0184801
0.0190509
0.0196963
0.0204214
0.0212195
0.0220706
0.0229421
0.0237938
0.0245842
0.0252752
0.0258354
0.0262421
0.0264821
0.0265512
0.0264532
0.0261983
0.0258016
0.025281
0.0246574
0.0239513
0.0231844
0.0223722
0.021532
0.0206721
0.0198138
0.0189569
0.0181376
0.0173361
0.0166337
0.0159609
0.0155412
0.0151802
0.0155237
0.0159323
0.0107026
0.00725729
0.00519139
0.00387259
0.00299177
0.00238559
0.0019677
0.00170081
0.00159115
0.00169807
0.00214395
0.00307873
0.00455664
0.00642874
0.00841224
0.0102565
0.0118294
0.0131051
0.0141174
0.014922
0.015576
0.0161291
0.0166217
0.0170861
0.017545
0.0180183
0.0185273
0.0190886
0.0197144
0.02041
0.0211707
0.021979
0.0228056
0.0236133
0.0243628
0.0250174
0.0255468
0.0259286
0.0261495
0.0262048
0.0260979
0.0258378
0.0254391
0.0249186
0.0242966
0.0235927
0.0228281
0.022018
0.0211796
0.0203217
0.019465
0.0186101
0.0177917
0.0169919
0.0162872
0.0156128
0.0151779
0.014802
0.0150975
0.015501
0.0107014
0.00726052
0.00519883
0.00388273
0.00300282
0.00239534
0.00197231
0.00169224
0.00155188
0.00159269
0.00191303
0.00265587
0.00392133
0.00564271
0.00758558
0.00948724
0.0111742
0.0125819
0.0137198
0.0146324
0.0153736
0.0159943
0.0165377
0.0170388
0.0175237
0.0180117
0.0185253
0.0190809
0.0196906
0.0203601
0.0210862
0.0218539
0.022637
0.0234014
0.0241102
0.0247284
0.0252269
0.0255836
0.0257854
0.025827
0.0257112
0.0254464
0.025046
0.0245262
0.0239064
0.0232054
0.0224437
0.0216366
0.0208009
0.0199459
0.0190918
0.01824
0.0174238
0.0166271
0.0159218
0.0152476
0.0147999
0.0144115
0.0146606
0.0150572
0.0107003
0.00726362
0.00520595
0.00389249
0.00301359
0.00240517
0.00197808
0.00168755
0.00152299
0.00151118
0.00172807
0.00230019
0.0033516
0.00488819
0.00674077
0.0086567
0.0104308
0.0119589
0.0132214
0.0142466
0.0150822
0.0157781
0.0163792
0.0169231
0.0174394
0.0179467
0.0184688
0.0190227
0.0196204
0.0202677
0.0209626
0.0216925
0.0224341
0.0231565
0.0238254
0.0244077
0.0248754
0.0252072
0.0253899
0.025418
0.0252935
0.0250241
0.0246224
0.0241038
0.0234866
0.0227891
0.0220312
0.0212277
0.0203956
0.0195445
0.018694
0.0178466
0.0170338
0.0162416
0.0155373
0.0148653
0.0144071
0.0140089
0.0142136
0.0146018
0.0106992
0.00726659
0.00521277
0.00390187
0.00302403
0.002415
0.0019847
0.0016859
0.00150228
0.00144899
0.00158228
0.0020078
0.00285479
0.00418465
0.00590112
0.0077839
0.00961084
0.0112409
0.0126218
0.0137613
0.0146967
0.0154745
0.0161401
0.016733
0.0172862
0.0178176
0.0183528
0.0189093
0.0194991
0.0201285
0.0207961
0.0214915
0.0221944
0.0228768
0.023507
0.0240543
0.0244918
0.024799
0.0249628
0.0249776
0.0248447
0.0245711
0.0241684
0.0236513
0.0230372
0.0223438
0.0215901
0.0207912
0.0199635
0.0191172
0.0182715
0.0174296
0.0166215
0.0158353
0.0151336
0.0144658
0.0139994
0.0135943
0.0137568
0.0141354
0.0106983
0.00726943
0.00521929
0.00391086
0.00303414
0.00242474
0.00199193
0.00168658
0.001488
0.00140222
0.00146903
0.00177243
0.00243331
0.00354785
0.00509017
0.006891
0.00872993
0.0104362
0.0119236
0.0131749
0.014213
0.0150783
0.0158148
0.0164628
0.017058
0.0176189
0.0181719
0.0187354
0.0193218
0.0199376
0.0205824
0.0212473
0.0219147
0.0225596
0.0231532
0.0236667
0.0240749
0.0243582
0.0245037
0.0245055
0.0243646
0.0240869
0.0236836
0.0231683
0.0225577
0.0218689
0.0211202
0.0203265
0.0195043
0.0186638
0.0178239
0.0169887
0.0161868
0.0154079
0.0147106
0.0140489
0.0135768
0.0131675
0.0132906
0.0136588
0.0106975
0.00727215
0.00522552
0.00391949
0.00304391
0.00243435
0.00199957
0.00168903
0.00147872
0.00136763
0.00138227
0.00158655
0.002085
0.00298865
0.00432992
0.00600236
0.00780765
0.00955718
0.0111324
0.0124881
0.0136288
0.0145854
0.0153981
0.0161069
0.016749
0.0173451
0.0179209
0.018496
0.0190835
0.0196904
0.0203169
0.0209557
0.0215915
0.0222021
0.0227615
0.0232431
0.0236235
0.0238838
0.0240116
0.024001
0.0238523
0.023571
0.0231674
0.0226543
0.0220477
0.021364
0.0206209
0.0198333
0.0190173
0.0181837
0.0173509
0.0165237
0.0157293
0.0149595
0.0142681
0.0136146
0.0131392
0.0127286
0.0128151
0.0131726
0.0106968
0.00727474
0.00523146
0.00392774
0.00305333
0.00244376
0.00200746
0.00169282
0.00147332
0.00134258
0.00131669
0.00144223
0.00180416
0.00251221
0.00363911
0.00514321
0.0068671
0.00862032
0.0102578
0.0117047
0.0129438
0.0139928
0.0148857
0.0156604