/*--------------------------------*- C++ -*----------------------------------*\
| =========                 |                                                 |
| \\      /  F ield         | OpenFOAM: The Open Source CFD Toolbox           |
|  \\    /   O peration     | Version:  2.4.0                                 |
|   \\  /    A nd           | Web:      www.OpenFOAM.org                      |
|    \\/     M anipulation  |                                                 |
\*---------------------------------------------------------------------------*/
FoamFile
{
    version     2.0;
    format      ascii;
    class       volScalarField;
    location    "497";
    object      nut;
}
// * * * * * * * * * * * * * * * * * * * * * * * * * * * * * * * * * * * * * //

dimensions      [0 2 -1 0 0 0 0];

internalField   nonuniform List<scalar> 
6000
(
1.35204e-05
9.80839e-06
5.56177e-06
5.14664e-06
5.25635e-06
5.49521e-06
5.74348e-06
6.01801e-06
6.30412e-06
6.59776e-06
6.89325e-06
7.1875e-06
7.47778e-06
7.76415e-06
8.04795e-06
8.33227e-06
8.62074e-06
8.91717e-06
9.22477e-06
9.54608e-06
9.88284e-06
1.02361e-05
1.06064e-05
1.09933e-05
1.13961e-05
1.18159e-05
1.22727e-05
1.27331e-05
1.31939e-05
1.36492e-05
1.40921e-05
1.45147e-05
1.49085e-05
1.5265e-05
1.55781e-05
1.58348e-05
1.60261e-05
1.61472e-05
1.61951e-05
1.61691e-05
1.60687e-05
1.58969e-05
1.56547e-05
1.53487e-05
1.49813e-05
1.45669e-05
1.41079e-05
1.38657e-05
1.35791e-05
1.33225e-05
1.30111e-05
1.27768e-05
1.2445e-05
1.22816e-05
1.19171e-05
1.19044e-05
1.15085e-05
1.17636e-05
1.12288e-05
1.21879e-05
2.16984e-05
1.63838e-05
1.46848e-05
1.58076e-05
2.24487e-05
2.65786e-05
3.00073e-05
3.32598e-05
3.64685e-05
3.96199e-05
4.26773e-05
4.56199e-05
4.83982e-05
5.10081e-05
5.3473e-05
5.58642e-05
5.8283e-05
6.08529e-05
6.36931e-05
6.69058e-05
7.05587e-05
7.4681e-05
7.92583e-05
8.42342e-05
8.95177e-05
9.4954e-05
0.00010026
0.00010551
0.000110703
0.000115783
0.000120703
0.000125428
0.000129932
0.000134184
0.000138102
0.000141491
0.000144408
0.000146835
0.000148763
0.000150197
0.000151134
0.0001516
0.000151594
0.000151164
0.000150315
0.000149088
0.000146742
0.000139937
0.000132782
0.000125192
0.000117469
0.0001095
0.000101446
9.3447e-05
8.52232e-05
7.76586e-05
6.83817e-05
6.25483e-05
5.06444e-05
4.94648e-05
2.83902e-05
2.19857e-05
1.99276e-05
2.41182e-05
4.23439e-05
5.63025e-05
6.65073e-05
7.51352e-05
8.3118e-05
9.06828e-05
9.78807e-05
0.000104723
0.000111131
0.000117094
0.000122649
0.000127929
0.00013313
0.000138501
0.000144289
0.000150716
0.000157942
0.000166056
0.000175067
0.000184901
0.000195407
0.000206328
0.000217274
0.000228256
0.000239236
0.000250082
0.000260682
0.000270938
0.000280755
0.000290029
0.000298562
0.000305966
0.000312249
0.000317349
0.000321223
0.000323871
0.000325283
0.000325509
0.000324559
0.000322523
0.000319427
0.000315232
0.000309121
0.000296884
0.000283637
0.000269692
0.000255225
0.000240582
0.000225333
0.000210717
0.000194828
0.000181236
0.000163395
0.000152986
0.000129561
0.000131869
3.19829e-05
2.55932e-05
2.32297e-05
2.86586e-05
5.29136e-05
7.74821e-05
9.66357e-05
0.000112313
0.000126254
0.000139069
0.000151017
0.000162214
0.000172606
0.000182191
0.000191027
0.000199295
0.000207271
0.000215309
0.000223774
0.000233006
0.000243271
0.000254746
0.0002675
0.000281484
0.000296533
0.000312347
0.000328464
0.000344812
0.000361269
0.000377617
0.000393663
0.000409221
0.000424104
0.000438112
0.000450942
0.000462037
0.000471317
0.000478678
0.000484055
0.000487446
0.00048885
0.000488344
0.000485965
0.000481842
0.000476021
0.000468365
0.000458444
0.000442239
0.000424462
0.000405841
0.000386433
0.000366989
0.00034666
0.00032747
0.00030648
0.00028898
0.000266025
0.000252869
0.000224435
0.000229241
3.37102e-05
2.77458e-05
2.52889e-05
3.10471e-05
5.70013e-05
9.02926e-05
0.000118097
0.000141198
0.00016155
0.000179996
0.000196978
0.000212734
0.000227259
0.000240573
0.00025276
0.000264038
0.000274752
0.000285346
0.000296292
0.00030804
0.000320968
0.000335353
0.000351345
0.000368946
0.000388006
0.000408198
0.000429025
0.000450299
0.000471806
0.000493236
0.0005143
0.000534716
0.000554195
0.000572435
0.000589035
0.000603297
0.000615059
0.000624189
0.000630616
0.00063435
0.00063541
0.000633908
0.000629915
0.000623592
0.000614994
0.000603957
0.000590536
0.000571188
0.000549889
0.000527639
0.000504501
0.000481426
0.000457476
0.000434955
0.000410721
0.000390527
0.00036507
0.000350045
0.000320798
0.000326291
3.4566e-05
2.90181e-05
2.65356e-05
3.20544e-05
5.85661e-05
9.73649e-05
0.000132527
0.000162562
0.000189197
0.000213275
0.00023532
0.000255663
0.000274346
0.000291408
0.000306955
0.000321238
0.000334653
0.000347722
0.000361009
0.000375072
0.000390395
0.000407362
0.000426218
0.000447034
0.000469695
0.000493854
0.000518993
0.000544797
0.00057095
0.000597046
0.000622693
0.000647506
0.000671092
0.000693048
0.000712883
0.000729786
0.000743528
0.000753969
0.000761045
0.000764789
0.000765254
0.000762584
0.000756896
0.000748369
0.000737059
0.000722894
0.000706306
0.000684313
0.000660155
0.000634966
0.000608914
0.000582984
0.000556396
0.000531368
0.000505132
0.000483052
0.000456813
0.000440525
0.000412663
0.000417813
3.50092e-05
2.9774e-05
2.72598e-05
3.22068e-05
5.83525e-05
0.000100286
0.000141748
0.000177875
0.000210324
0.000239777
0.000266731
0.000291562
0.000314338
0.000335107
0.000353985
0.000371244
0.000387317
0.00040279
0.000418311
0.000434531
0.000452042
0.000471339
0.000492769
0.000516485
0.000542422
0.000570217
0.000599338
0.000629337
0.000659786
0.000690178
0.000720013
0.0007488
0.000776044
0.000801246
0.000823831
0.000842904
0.000858187
0.000869544
0.000876935
0.000880421
0.000880098
0.000876144
0.000868719
0.000858018
0.000844084
0.000827102
0.000807623
0.000783291
0.000756716
0.000729057
0.000700641
0.000672391
0.000643822
0.000616864
0.000589445
0.000566071
0.000540154
0.000523119
0.000497992
0.000502179
3.52416e-05
3.02249e-05
2.76565e-05
3.18629e-05
5.68492e-05
0.000100297
0.000147105
0.000188486
0.000226134
0.000260559
0.000292151
0.000321286
0.000348028
0.000372417
0.000394567
0.000414756
0.00043344
0.000451251
0.000468909
0.000487157
0.000506687
0.000528107
0.000551873
0.000578234
0.000607184
0.000638348
0.000671182
0.000705103
0.000739551
0.000773923
0.000807604
0.000839998
0.00087051
0.000898555
0.000923475
0.00094432
0.000960778
0.000972729
0.000980164
0.000983182
0.000981922
0.000976599
0.000967415
0.000954572
0.000938131
0.000918582
0.000896445
0.00086997
0.000841266
0.000811455
0.000781045
0.00075084
0.000720724
0.000692239
0.000664166
0.00063994
0.00061504
0.000597719
0.000576131
0.000579086
3.53592e-05
3.04933e-05
2.78535e-05
3.12589e-05
5.43788e-05
9.86062e-05
0.000149361
0.000195436
0.000237674
0.000276606
0.000312501
0.000345702
0.000376242
0.000404135
0.000429479
0.000452539
0.00047378
0.000493866
0.000513576
0.000533736
0.000555139
0.000578505
0.000604408
0.000633196
0.000664936
0.000699253
0.00073558
0.000773202
0.000811409
0.000849499
0.00088674
0.000922431
0.000955885
0.000986436
0.00101335
0.00103564
0.00105298
0.00106526
0.00107253
0.00107492
0.0010726
0.00106585
0.00105489
0.00103993
0.00102112
0.000999179
0.000974574
0.000946079
0.000915435
0.000883683
0.000851517
0.000819606
0.000788214
0.00075848
0.000730076
0.000705324
0.000681858
0.000664655
0.000647063
0.000648767
3.54117e-05
3.06512e-05
2.79321e-05
3.05453e-05
5.13273e-05
9.5726e-05
0.000148633
0.000199435
0.000245772
0.000288756
0.000328594
0.000365595
0.000399741
0.000431004
0.000459448
0.000485315
0.000509056
0.000531358
0.000553043
0.000575014
0.000598159
0.000623316
0.000651177
0.000682203
0.000716535
0.000753825
0.000793465
0.000834606
0.000876379
0.000917975
0.00095854
0.000997275
0.0010334
0.00106619
0.00109481
0.00111829
0.00113627
0.00114869
0.00115563
0.00115725
0.0011538
0.00114556
0.0011328
0.00111574
0.00109472
0.0010705
0.00104358
0.00101315
0.000980679
0.000947127
0.000913353
0.000879895
0.000847386
0.000816585
0.000788025
0.00076298
0.000741168
0.000724428
0.00071106
0.000711661
3.54266e-05
3.07411e-05
2.79429e-05
2.9814e-05
4.80282e-05
9.16269e-05
0.000146171
0.000200879
0.00025104
0.00029768
0.000341112
0.000381639
0.000419187
0.000453675
0.00048512
0.000513725
0.000539912
0.000564372
0.000587965
0.000611656
0.000636428
0.000663233
0.000692891
0.00072598
0.000762729
0.000802831
0.00084563
0.00089014
0.000935327
0.000980257
0.00102396
0.00106553
0.00110412
0.00113892
0.00116904
0.00119349
0.00121194
0.00122434
0.00123081
0.00123158
0.00122692
0.00121715
0.00120258
0.00118344
0.00116033
0.00113392
0.00110479
0.00107248
0.00103826
0.001003
0.000967701
0.000932794
0.000899246
0.000867484
0.000838842
0.000813654
0.000793583
0.000777588
0.000768524
0.000768269
3.54193e-05
3.07888e-05
2.7917e-05
2.91179e-05
4.47316e-05
8.64964e-05
0.000142558
0.000199838
0.000253882
0.000303896
0.000350609
0.000394395
0.000435141
0.000472703
0.000507045
0.000538318
0.000566899
0.00059347
0.000618911
0.000644245
0.000670539
0.000698862
0.000730165
0.000765154
0.000804152
0.000846917
0.000892737
0.000940492
0.00098897
0.0010371
0.00108378
0.00112803
0.0011689
0.00120555
0.00123698
0.00126226
0.00128103
0.00129329
0.0012992
0.00129903
0.00129311
0.00128178
0.00126537
0.00124425
0.00121911
0.00119056
0.00115933
0.00112517
0.00108925
0.00105233
0.00101556
0.000979254
0.000944691
0.00091202
0.000883292
0.000858046
0.000839705
0.000824675
0.000819898
0.000819096
3.53992e-05
3.08101e-05
2.78734e-05
2.84844e-05
4.16067e-05
8.06411e-05
0.000137767
0.000197004
0.000254512
0.000307773
0.000357516
0.000404321
0.000448065
0.000488552
0.000525686
0.000559557
0.000590484
0.000619125
0.000646365
0.000673277
0.000701002
0.000730724
0.000763527
0.000800256
0.000841341
0.000886621
0.000935336
0.000986223
0.00103789
0.00108911
0.00113866
0.00118545
0.00122848
0.00126683
0.00129945
0.00132542
0.0013444
0.00135643
0.00136171
0.00136055
0.00135331
0.00134039
0.00132215
0.00129912
0.00127198
0.00124137
0.0012081
0.00117213
0.00113453
0.001096
0.00105777
0.0010201
0.000984506
0.000950936
0.000922068
0.000896792
0.000880099
0.000866198
0.000865624
0.000864613
3.5372e-05
3.08152e-05
2.7823e-05
2.79249e-05
3.87544e-05
7.43959e-05
0.000131731
0.000193032
0.000252944
0.000309548
0.000362158
0.000411778
0.000458335
0.000501602
0.000541423
0.000577823
0.000611052
0.00064173
0.000670733
0.000699169
0.000728247
0.000759259
0.000793426
0.000831737
0.000874744
0.000922389
0.000973871
0.00102779
0.00108257
0.00113678
0.00118911
0.00123834
0.00128341
0.00132335
0.00135706
0.00138363
0.00140275
0.00141448
0.00141906
0.00141686
0.00140828
0.00139374
0.00137373
0.00134883
0.00131972
0.0012871
0.00125186
0.00121411
0.00117486
0.00113474
0.00109505
0.00105602
0.00101937
0.000984881
0.000955786
0.000930462
0.000915285
0.00090262
0.000906122
0.000905252
3.53409e-05
3.08104e-05
2.77724e-05
2.74411e-05
3.62234e-05
6.80713e-05
0.00012455
0.000187923
0.000249752
0.000309328
0.000364761
0.000417043
0.00046625
0.000512159
0.000554565
0.000593429
0.000628919
0.000661608
0.000692347
0.000722269
0.000752635
0.000784839
0.000820239
0.000859976
0.000904737
0.00095459
0.00100871
0.00106555
0.00112336
0.0011805
0.00123552
0.00128712
0.00133415
0.0013756
0.00141031
0.00143741
0.00145661
0.00146799
0.00147184
0.00146857
0.00145862
0.00144246
0.00142073
0.00139398
0.00136295
0.00132837
0.00129122
0.00125173
0.00121085
0.00116915
0.00112802
0.00108761
0.00104986
0.00101442
0.000984987
0.000959563
0.000945732
0.000934361
0.00094178
0.0009414
3.53083e-05
3.07998e-05
2.77252e-05
2.70295e-05
3.40256e-05
6.19252e-05
0.000116442
0.000181552
0.000245475
0.000307149
0.000365456
0.000420317
0.000472044
0.000520469
0.000565362
0.000606626
0.00064434
0.00067902
0.00071148
0.00074286
0.000774462
0.000807774
0.000844285
0.000885292
0.000931635
0.000983526
0.00104013
0.00109979
0.00116055
0.00122056
0.00127822
0.00133212
0.00138106
0.00142393
0.00145959
0.00148718
0.0015064
0.00151739
0.00152048
0.00151611
0.00150478
0.00148708
0.00146364
0.00143508
0.00140217
0.00136569
0.00132669
0.00128549
0.00124299
0.00119975
0.00115716
0.00111539
0.00107649
0.00104004
0.00101015
0.000984545
0.000971863
0.000961798
0.000972953
0.0009734
3.52754e-05
3.07861e-05
2.7683e-05
2.66836e-05
3.2149e-05
5.61514e-05
0.000107694
0.000173876
0.000240052
0.000303611
0.000364285
0.000421731
0.000475888
0.000526724
0.000574013
0.000617614
0.000657517
0.000694174
0.000728345
0.00076117
0.000793973
0.000828322
0.000865831
0.000907955
0.000955701
0.00100945
0.00106838
0.00113074
0.00119436
0.00125719
0.00131743
0.00137359
0.00142438
0.00146864
0.0015052
0.00153322
0.00155244
0.00156302
0.00156533
0.00155985
0.00154719
0.00152796
0.00150285
0.00147251
0.00143777
0.00139945
0.00135866
0.00131579
0.00127171
0.00122694
0.00118291
0.00113976
0.00109967
0.00106217
0.00103169
0.00100581
0.000994057
0.00098527
0.000999963
0.00100156
3.52432e-05
3.07711e-05
2.76466e-05
2.63961e-05
3.05679e-05
5.08791e-05
9.86201e-05
0.000164953
0.000233387
0.000298938
0.000361547
0.000421351
0.000477903
0.000531066
0.000580669
0.00062655
0.000668609
0.000707232
0.000743114
0.000777381
0.000811362
0.00084669
0.000885097
0.000928191
0.000977157
0.00103257
0.00109366
0.00115857
0.00122496
0.00129055
0.00135333
0.00141171
0.00146431
0.0015099
0.00154734
0.00157577
0.00159498
0.00160513
0.00160664
0.0016001
0.00158614
0.00156542
0.00153867
0.0015066
0.00147009
0.00142999
0.00138747
0.00134296
0.00129734
0.00125108
0.00120562
0.0011611
0.00111977
0.00108117
0.00104998
0.0010237
0.00101266
0.00100508
0.0010231
0.00102613
3.52122e-05
3.07558e-05
2.76161e-05
2.61592e-05
2.92495e-05
4.6179e-05
8.95277e-05
0.000154939
0.000225393
0.000293099
0.000357591
0.000419326
0.000478155
0.000533598
0.000585448
0.000633553
0.000677736
0.000718318
0.000755917
0.000791633
0.000826782
0.000863048
0.000902265
0.000946189
0.000996194
0.00105306
0.00111611
0.00118343
0.00125247
0.00132075
0.00138604
0.00144659
0.00150097
0.00154788
0.00158616
0.00161499
0.00163417
0.0016439
0.00164466
0.00163708
0.00162184
0.00159967
0.00157134
0.00153759
0.00149937
0.00145757
0.00141338
0.00136729
0.00132016
0.00127244
0.00122557
0.00117969
0.00113711
0.00109735
0.00106533
0.00103855
0.00102797
0.00102151
0.00104262
0.00104737
3.51827e-05
3.0741e-05
2.75914e-05
2.59659e-05
2.81596e-05
4.20734e-05
8.0691e-05
0.000144066
0.000216039
0.000286017
0.000352445
0.000416005
0.000476755
0.000534382
0.00058843
0.000638714
0.000684992
0.000727525
0.00076685
0.00080403
0.00084035
0.000877529
0.000917484
0.000962111
0.00101297
0.00107108
0.00113587
0.00120541
0.00127698
0.00134786
0.00141561
0.00147832
0.00153445
0.00158265
0.00162176
0.00165099
0.00167015
0.00167948
0.00167953
0.00167095
0.00165448
0.00163091
0.00160104
0.00156569
0.00152582
0.00148239
0.0014366
0.00138899
0.0013404
0.00129127
0.00124301
0.00119578
0.00115193
0.00111099
0.00107804
0.00105062
0.00104027
0.0010348
0.00105877
0.00106546
3.51549e-05
3.07272e-05
2.75719e-05
2.58096e-05
2.72649e-05
3.85485e-05
7.23353e-05
0.000132621
0.000205364
0.000277608
0.000346086
0.000411441
0.000473992
0.000533539
0.000589668
0.000642096
0.000690442
0.000734922
0.000775982
0.000814648
0.000852154
0.000890234
0.000930873
0.000976088
0.00102764
0.00108675
0.00115306
0.00122462
0.00129856
0.00137195
0.00144209
0.00150692
0.00156478
0.00161426
0.00165421
0.00168386
0.00170302
0.001712
0.00171137
0.00170183
0.00168419
0.00165927
0.00162794
0.00159105
0.00154962
0.00150463
0.00145731
0.00140825
0.00135825
0.00130775
0.00125815
0.0012096
0.00116448
0.00112232
0.00108834
0.00106017
0.00104982
0.00104517
0.00107175
0.0010806
3.51287e-05
3.07145e-05
2.75572e-05
2.56845e-05
2.65349e-05
3.5566e-05
6.46281e-05
0.000120912
0.000193489
0.000267806
0.000338458
0.000405643
0.000469926
0.000531275
0.000589324
0.000643736
0.000694129
0.000740552
0.000783361
0.000823539
0.000862254
0.000901238
0.000942524
0.000988233
0.0010403
0.00110021
0.00116778
0.00124112
0.00131725
0.00139304
0.00146551
0.00153242
0.00159199
0.00164276
0.00168356
0.00171364
0.00173286
0.00174152
0.00174026
0.00172982
0.00171107
0.00168486
0.00165214
0.0016138
0.00157088
0.00152442
0.00147565
0.0014252
0.00137385
0.00132204
0.00127115
0.00122132
0.00117493
0.00113155
0.00109646
0.00106743
0.00105684
0.00105285
0.00108175
0.00109294
3.51044e-05
3.07031e-05
2.75469e-05
2.55855e-05
2.59424e-05
3.30727e-05
5.76776e-05
0.000109249
0.000180605
0.000256589
0.000329485
0.000398588
0.000464582
0.000527645
0.000587504
0.000643803
0.000696132
0.000744442
0.000789014
0.000830733
0.00087069
0.000910595
0.000952507
0.000998633
0.00105107
0.00111155
0.00118012
0.00125499
0.0013331
0.00141111
0.00148584
0.0015548
0.00161608
0.00166815
0.00170983
0.00174039
0.00175969
0.00176809
0.00176625
0.00175498
0.00173519
0.00170778
0.00167375
0.00163403
0.00158972
0.00154187
0.00149174
0.00143996
0.00138735
0.00133429
0.00128215
0.00123108
0.00118345
0.00113884
0.00110259
0.00107259
0.00106153
0.00105802
0.00108897
0.00110262
3.50817e-05
3.06932e-05
2.75403e-05
2.55085e-05
2.5464e-05
3.10096e-05
5.15362e-05
9.79226e-05
0.000166964
0.000243995
0.000319097
0.000390225
0.000457957
0.000522681
0.000584256
0.000642351
0.000696537
0.000746689
0.000793005
0.000836254
0.00087748
0.000918334
0.000960872
0.00100736
0.00106004
0.00112087
0.00119016
0.00126627
0.00134613
0.00142621
0.00150309
0.00157407
0.00163705
0.00169044
0.00173303
0.0017641
0.00178354
0.00179174
0.00178939
0.00177736
0.0017566
0.00172808
0.00169282
0.00165183
0.00160622
0.00155708
0.00150566
0.00145265
0.00139882
0.00134459
0.00129127
0.00123902
0.00119017
0.00114436
0.00110689
0.00107583
0.0010641
0.00106086
0.00109355
0.00110977
3.50607e-05
3.06845e-05
2.7537e-05
2.54497e-05
2.50797e-05
2.93165e-05
4.62086e-05
8.7181e-05
0.000152859
0.000230126
0.000307245
0.000380486
0.000450023
0.000516391
0.000579614
0.000639419
0.000695386
0.000747326
0.000795361
0.000840146
0.000882663
0.000924491
0.000967656
0.00101446
0.00106726
0.00112824
0.00119797
0.00127502
0.00135637
0.00143833
0.00151727
0.00159021
0.00165489
0.00170961
0.00175314
0.00178477
0.00180441
0.00181248
0.0018097
0.00179699
0.00177535
0.00174581
0.00170943
0.00166725
0.00162044
0.0015701
0.0015175
0.00146333
0.00140837
0.00135304
0.00129861
0.00124523
0.00119522
0.00114821
0.0011095
0.00107731
0.00106472
0.00106153
0.00109565
0.00111449
3.50413e-05
3.06772e-05
2.75366e-05
2.5406e-05
2.47729e-05
2.7937e-05
4.16618e-05
7.72223e-05
0.00013861
0.000215151
0.000293923
0.000369302
0.000440729
0.000508761
0.000573589
0.000635033
0.000692707
0.000746379
0.0007961
0.000842418
0.000886245
0.000929071
0.000972877
0.00101997
0.00107279
0.00113373
0.00120362
0.00128131
0.00136387
0.00144751
0.00152836
0.0016032
0.00166956
0.00172563
0.00177014
0.00180238
0.00182229
0.0018303
0.00182718
0.00181388
0.00179146
0.001761
0.0017236
0.00168035
0.00163244
0.001581
0.00152731
0.00147206
0.00141606
0.0013597
0.00130423
0.00124981
0.00119868
0.00115052
0.00111056
0.00107719
0.00106355
0.00106019
0.00109541
0.00111689
3.50234e-05
3.06711e-05
2.75387e-05
2.53748e-05
2.45294e-05
2.68196e-05
3.78367e-05
6.81859e-05
0.000124534
0.000199301
0.000279173
0.000356618
0.000430015
0.00049976
0.000566178
0.000629207
0.00068852
0.000743863
0.000795233
0.000843076
0.000888224
0.000932074
0.000976539
0.00102391
0.00107667
0.0011374
0.00120721
0.00128522
0.00136869
0.00145376
0.00153636
0.00161301
0.00168103
0.00173847
0.001784
0.00181692
0.00183717
0.0018452
0.00184183
0.00182805
0.00180495
0.00177367
0.00173536
0.00169115
0.00164225
0.00158982
0.00153513
0.0014789
0.00142194
0.00136464
0.00130821
0.00125281
0.00120064
0.00115138
0.00111018
0.00107557
0.00106072
0.00105698
0.00109296
0.00111706
3.5007e-05
3.06662e-05
2.7543e-05
2.5354e-05
2.43377e-05
2.59193e-05
3.46582e-05
6.01517e-05
0.000110934
0.000182856
0.000263097
0.000342404
0.000417815
0.000489338
0.000557358
0.000621939
0.000682832
0.000739791
0.000792766
0.000842117
0.000888592
0.000933489
0.000978636
0.00102629
0.00107894
0.0011393
0.00120878
0.00128683
0.00137088
0.00145711
0.00154128
0.00161964
0.00168927
0.00174809
0.00179468
0.00182834
0.00184901
0.00185717
0.00185365
0.00183948
0.00181582
0.00178384
0.00174474
0.00169968
0.00164991
0.00159659
0.001541
0.00148389
0.00142606
0.00136791
0.0013106
0.00125431
0.00120116
0.00115085
0.00110844
0.00107257
0.00105639
0.00105205
0.00108844
0.00111509
3.49919e-05
3.06624e-05
2.75491e-05
2.53417e-05
2.41884e-05
2.51975e-05
3.2045e-05
5.31431e-05
9.80772e-05
0.000166133
0.00024586
0.000326668
0.000404073
0.000477438
0.000547096
0.000613215
0.000675644
0.000734164
0.0007887
0.000839536
0.000887337
0.000933299
0.000979154
0.0010271
0.0010796
0.00113949
0.00120843
0.00128619
0.00137051
0.0014576
0.00154311
0.00162304
0.00169425
0.00175444
0.00180214
0.00183661
0.00185779
0.00186617
0.0018626
0.00184817
0.00182407
0.00179151
0.00175174
0.00170595
0.00165542
0.00160133
0.00154495
0.00148706
0.00142845
0.00136953
0.00131144
0.00125434
0.00120029
0.00114901
0.00110543
0.0010683
0.00105066
0.00104552
0.00108197
0.00111106
3.4978e-05
3.06596e-05
2.75568e-05
2.53365e-05
2.40734e-05
2.46215e-05
2.99156e-05
4.7136e-05
8.61796e-05
0.000149467
0.000227683
0.000309469
0.000388749
0.000464
0.000535342
0.000603008
0.000666943
0.000726979
0.000783031
0.000835324
0.000884444
0.000931485
0.000978075
0.00102633
0.00107867
0.001138
0.0012062
0.0012834
0.00136765
0.00145528
0.00154188
0.00162323
0.00169593
0.00175749
0.00180634
0.00184169
0.00186347
0.00187217
0.00186868
0.00185411
0.0018297
0.00179669
0.00175637
0.00170998
0.00165881
0.00160406
0.001547
0.00148843
0.00142914
0.00136955
0.00131076
0.00125294
0.00119808
0.00114591
0.0011012
0.00106284
0.00104366
0.00103752
0.00107366
0.00110505
3.49653e-05
3.06576e-05
2.75658e-05
2.5337e-05
2.39864e-05
2.41642e-05
2.81934e-05
4.20691e-05
7.53983e-05
0.000133195
0.000208846
0.000290918
0.000371836
0.000448967
0.000522044
0.000591279
0.000656708
0.000718223
0.00077575
0.000829468
0.000879894
0.000928023
0.000975373
0.00102397
0.00107615
0.00113485
0.00120216
0.00127854
0.00136237
0.00145022
0.00153763
0.00162021
0.00169429
0.00175721
0.00180724
0.00184354
0.00186601
0.00187515
0.00187186
0.00185728
0.00183268
0.00179935
0.00175862
0.00171176
0.00166007
0.00160479
0.00154716
0.00148801
0.00142814
0.00136797
0.00130858
0.00125014
0.00119456
0.00114159
0.00109583
0.00105625
0.00103546
0.00102816
0.00106363
0.00109713
3.49537e-05
3.06566e-05
2.75758e-05
2.53422e-05
2.39222e-05
2.38029e-05
2.68097e-05
3.78557e-05
6.5826e-05
0.00011763
0.000189669
0.000271187
0.000353363
0.000432301
0.000507143
0.000577982
0.000644908
0.000707877
0.000766842
0.000821953
0.000873668
0.000922888
0.000971021
0.00101998
0.00107203
0.00113007
0.00119635
0.00127167
0.00135477
0.00144248
0.0015304
0.00161399
0.00168934
0.00175357
0.0018048
0.00184212
0.00186537
0.00187506
0.0018721
0.00185764
0.001833
0.00179949
0.00175849
0.00171129
0.00165922
0.00160352
0.00154543
0.00148581
0.00142546
0.00136482
0.00130493
0.00124596
0.00118976
0.00113608
0.00108934
0.0010486
0.00102618
0.00101755
0.00105201
0.00108739
3.4943e-05
3.06562e-05
2.75868e-05
2.53512e-05
2.38763e-05
2.35195e-05
2.5704e-05
3.43955e-05
5.74922e-05
0.000103052
0.000170502
0.000250508
0.00033341
0.000413984
0.00049059
0.000563066
0.000631503
0.000695913
0.000756287
0.000812761
0.000865745
0.000916055
0.000964989
0.00101435
0.00106628
0.00112365
0.00118882
0.00126287
0.00134494
0.00143217
0.00152027
0.00160461
0.00168107
0.00174655
0.001799
0.00183738
0.00186152
0.00187188
0.00186937
0.00185518
0.00183063
0.0017971
0.00175597
0.00170856
0.00165624
0.00160024
0.00154182
0.00148184
0.00142112
0.00136011
0.00129982
0.00124042
0.0011837
0.0011294
0.00108177
0.00103994
0.00101587
0.00100578
0.00103889
0.0010759
3.49333e-05
3.06565e-05
2.75986e-05
2.53633e-05
2.38455e-05
2.32987e-05
2.48249e-05
3.15843e-05
5.03704e-05
8.96807e-05
0.000151707
0.000229168
0.000312109
0.000394032
0.000472343
0.000546478
0.000616447
0.000682298
0.000744059
0.000801868
0.0008561
0.000907494
0.000957244
0.00100704
0.0010589
0.0011156
0.00117959
0.00125221
0.00133298
0.00141937
0.00150731
0.00159212
0.00166952
0.00173615
0.00178981
0.00182932
0.00185443
0.00186557
0.00186365
0.00184986
0.00182556
0.00179215
0.00175103
0.00170356
0.00165112
0.00159495
0.00153632
0.0014761
0.00141511
0.00135383
0.00129324
0.00123352
0.00117638
0.00112157
0.00107316
0.00103032
0.00100461
0.000992958
0.00102439
0.00106274
3.49245e-05
3.06574e-05
2.76109e-05
2.53779e-05
2.38266e-05
2.31284e-05
2.41294e-05
2.93209e-05
4.43883e-05
7.76739e-05
0.000133639
0.000207502
0.000289653
0.000372503
0.000452386
0.000528171
0.000599691
0.00066699
0.000730126
0.000789249
0.000844707
0.000897178
0.000947756
0.000998011
0.00104985
0.00110592
0.0011687
0.00123976
0.00131897
0.0014042
0.00149163
0.00157662
0.00165473
0.0017224
0.00177722
0.00181789
0.00184406
0.00185609
0.0018549
0.00184166
0.00181776
0.00178461
0.00174366
0.00169628
0.00164385
0.00158765
0.00152893
0.00146858
0.00140744
0.001346
0.00128521
0.00122527
0.00116782
0.00111261
0.00106352
0.00101975
0.00099245
0.00097916
0.00100861
0.001048
3.49164e-05
3.06588e-05
2.76237e-05
2.53944e-05
2.38176e-05
2.29988e-05
2.35818e-05
2.75126e-05
3.94418e-05
6.71157e-05
0.000116622
0.000185882
0.000266296
0.000349508
0.000430729
0.000508108
0.000581188
0.000649945
0.000714454
0.000774874
0.00083154
0.000885076
0.000936491
0.000987237
0.0010391
0.00109458
0.00115615
0.00122555
0.001303
0.00138677
0.00147334
0.00155817
0.00163675
0.00170532
0.00176126
0.00180311
0.00183039
0.00184343
0.00184309
0.00183055
0.0018072
0.00177448
0.00173383
0.00168668
0.00163441
0.00157831
0.00151963
0.00145927
0.00139809
0.0013366
0.00127572
0.00121567
0.00115801
0.00110252
0.00105286
0.00100828
0.000979442
0.000964466
0.000991672
0.00103177
3.49091e-05
3.06606e-05
2.76369e-05
2.54125e-05
2.38163e-05
2.29017e-05
2.31529e-05
2.60774e-05
3.54078e-05
5.80191e-05
0.000100933
0.0001647
0.000242349
0.00032521
0.000407419
0.000486274
0.000560895
0.000631119
0.000697
0.000758707
0.000816565
0.000871158
0.000923413
0.000974678
0.00102662
0.00108156
0.00114195
0.00120965
0.00128517
0.0013672
0.00145257
0.00153691
0.00161569
0.00168498
0.00174195
0.00178496
0.00181343
0.00182757
0.0018282
0.00181651
0.00179386
0.00176171
0.00172154
0.00167476
0.00162279
0.00156692
0.00150841
0.00144817
0.00138706
0.00132562
0.00126476
0.00120471
0.00114695
0.00109129
0.00104118
0.000995911
0.000965623
0.000948945
0.000973665
0.00101413
3.49024e-05
3.06628e-05
2.76502e-05
2.54318e-05
2.38213e-05
2.28308e-05
2.28188e-05
2.49447e-05
3.21574e-05
5.03337e-05
8.67797e-05
0.000144346
0.000218175
0.000299837
0.000382552
0.000462679
0.000538782
0.000610466
0.000677723
0.000740712
0.000799751
0.00085539
0.00090849
0.000960297
0.00101237
0.00106684
0.00112609
0.00119207
0.00126555
0.0013456
0.00142945
0.00151297
0.00159165
0.00166143
0.00171932
0.00176348
0.00179316
0.00180849
0.00181022
0.0017995
0.00177771
0.00174629
0.00170674
0.00166049
0.00160897
0.00155347
0.00149525
0.00143525
0.00137434
0.00131307
0.00125233
0.00119239
0.00113465
0.00107893
0.00102849
0.000982655
0.00095102
0.000932656
0.000954692
0.000995177
3.48963e-05
3.06654e-05
2.76638e-05
2.54519e-05
2.38312e-05
2.27808e-05
2.25606e-05
2.40552e-05
2.95649e-05
4.39582e-05
7.42907e-05
0.000125189
0.000194181
0.000273679
0.000356276
0.000437367
0.000514837
0.000587953
0.000656581
0.000720849
0.000781061
0.000837739
0.000891685
0.000944056
0.000996309
0.00105037
0.00110856
0.00117284
0.0012442
0.00132209
0.00140411
0.00148647
0.00156474
0.0016348
0.00169346
0.0017387
0.00176961
0.0017862
0.00178914
0.00177953
0.00175873
0.0017282
0.00168942
0.00164385
0.00159292
0.00153793
0.00148014
0.0014205
0.00135991
0.00129892
0.00123843
0.0011787
0.00112108
0.00106543
0.00101478
0.000968517
0.000935656
0.000915653
0.000934845
0.000975006
3.48908e-05
3.06682e-05
2.76774e-05
2.54727e-05
2.38452e-05
2.27475e-05
2.23626e-05
2.33602e-05
2.75148e-05
3.87565e-05
6.35112e-05
0.000107545
0.000170795
0.000247089
0.000328803
0.00041043
0.000489073
0.000563554
0.000633537
0.000699079
0.000760458
0.000818169
0.000872964
0.000925918
0.000978398
0.00103213
0.00108933
0.00115196
0.00122118
0.00129675
0.00137671
0.00145759
0.00153513
0.0016052
0.00166445
0.00171068
0.00174281
0.00176071
0.00176495
0.00175658
0.00173692
0.00170741
0.00166956
0.00162483
0.00157463
0.00152028
0.00146306
0.00140391
0.00134375
0.00128316
0.00122302
0.00116362
0.00110624
0.00105077
0.00100006
0.000953496
0.000919543
0.000897977
0.000914212
0.000953715
3.48858e-05
3.06712e-05
2.7691e-05
2.54938e-05
2.38622e-05
2.27276e-05
2.22126e-05
2.28198e-05
2.59053e-05
3.45744e-05
5.44059e-05
9.1663e-05
0.000148448
0.000220476
0.00030041
0.000382009
0.00046154
0.000537264
0.000608562
0.000675366
0.000737906
0.000796644
0.00085229
0.000905843
0.000958595
0.00101207
0.00106837
0.00112942
0.00119651
0.00126968
0.00134736
0.00142647
0.00150297
0.00157276
0.0016324
0.00167951
0.00171282
0.00173205
0.00173767
0.00173064
0.00171225
0.00168393
0.00164715
0.00160339
0.00155407
0.00150051
0.00144398
0.00138546
0.00132585
0.00126578
0.0012061
0.00114714
0.00109012
0.00103495
0.000984291
0.000937584
0.000902687
0.000879664
0.000892874
0.000931403
3.48813e-05
3.06744e-05
2.77046e-05
2.55152e-05
2.38815e-05
2.27183e-05
2.21007e-05
2.24017e-05
2.46493e-05
3.12542e-05
4.68711e-05
7.76987e-05
0.000127547
0.000194293
0.000271444
0.00035231
0.00043233
0.000509107
0.000581639
0.000649677
0.000713367
0.00077313
0.000829627
0.000883794
0.000936858
0.000990148
0.00104565
0.00110522
0.00117022
0.00124094
0.00131619
0.00139326
0.00146842
0.00153765
0.00159745
0.00164528
0.00167971
0.00170028
0.00170733
0.00170174
0.00168474
0.00165773
0.00162217
0.00157953
0.00153123
0.0014786
0.0014229
0.00136512
0.0013062
0.00124676
0.00118766
0.00112925
0.0010727
0.00101796
0.000967478
0.000920771
0.00088509
0.000860739
0.000870904
0.000908168
3.48772e-05
3.06778e-05
2.7718e-05
2.55367e-05
2.39027e-05
2.27173e-05
2.2019e-05
2.20803e-05
2.36744e-05
2.86462e-05
4.07533e-05
6.57106e-05
0.000108443
0.000169018
0.000242317
0.000321607
0.000401588
0.000479137
0.000552775
0.000621993
0.000686813