/*--------------------------------*- C++ -*----------------------------------*\
| =========                 |                                                 |
| \\      /  F ield         | OpenFOAM: The Open Source CFD Toolbox           |
|  \\    /   O peration     | Version:  2.4.0                                 |
|   \\  /    A nd           | Web:      www.OpenFOAM.org                      |
|    \\/     M anipulation  |                                                 |
\*---------------------------------------------------------------------------*/
FoamFile
{
    version     2.0;
    format      ascii;
    class       volVectorField;
    location    "0.15";
    object      U;
}
// * * * * * * * * * * * * * * * * * * * * * * * * * * * * * * * * * * * * * //

dimensions      [0 1 -1 0 0 0 0];

internalField   nonuniform List<vector> 
2320
(
(1.00002 -1.99624e-05 0)
(1.00017 -6.15617e-05 0)
(1.0005 -0.000108818 0)
(1.00104 -0.000166502 0)
(1.00184 -0.000239877 0)
(1.00297 -0.000335337 0)
(1.00453 -0.000461337 0)
(1.00667 -0.000629235 0)
(1.00958 -0.000854108 0)
(1.01352 -0.00115571 0)
(1.01885 -0.00155963 0)
(1.02603 -0.00209854 0)
(1.03568 -0.00281346 0)
(1.04859 -0.00375453 0)
(1.06578 -0.00498082 0)
(1.08851 -0.00655821 0)
(1.11832 -0.00855416 0)
(1.15702 -0.0110275 0)
(1.20659 -0.0140128 0)
(1.26911 -0.0174988 0)
(1.00002 -5.93808e-05 0)
(1.00017 -0.000183148 0)
(1.00048 -0.000323765 0)
(1.00101 -0.000495434 0)
(1.0018 -0.000713816 0)
(1.0029 -0.000997952 0)
(1.00442 -0.00137303 0)
(1.00651 -0.00187291 0)
(1.00935 -0.00254256 0)
(1.0132 -0.00344093 0)
(1.01841 -0.00464446 0)
(1.02543 -0.00625093 0)
(1.03487 -0.00838323 0)
(1.04753 -0.0111919 0)
(1.06439 -0.0148548 0)
(1.08673 -0.019571 0)
(1.11609 -0.0255456 0)
(1.15428 -0.0329587 0)
(1.20335 -0.0419194 0)
(1.2654 -0.0523986 0)
(1.00002 -9.73271e-05 0)
(1.00016 -0.000300225 0)
(1.00046 -0.000530778 0)
(1.00096 -0.000812276 0)
(1.00171 -0.00117042 0)
(1.00276 -0.00163648 0)
(1.00421 -0.00225185 0)
(1.00619 -0.00307223 0)
(1.0089 -0.00417168 0)
(1.01257 -0.00564743 0)
(1.01754 -0.00762582 0)
(1.02425 -0.0102689 0)
(1.03329 -0.0137808 0)
(1.04543 -0.018413 0)
(1.06166 -0.0244641 0)
(1.08323 -0.0322708 0)
(1.11169 -0.0421838 0)
(1.14888 -0.0545166 0)
(1.19692 -0.0694687 0)
(1.25804 -0.0870088 0)
(1.00002 -0.000132898 0)
(1.00015 -0.000409995 0)
(1.00043 -0.000724896 0)
(1.00089 -0.00110944 0)
(1.00158 -0.00159878 0)
(1.00255 -0.00223573 0)
(1.00389 -0.00307704 0)
(1.00573 -0.00419914 0)
(1.00824 -0.00570383 0)
(1.01164 -0.00772509 0)
(1.01626 -0.0104374 0)
(1.02251 -0.0140655 0)
(1.03096 -0.0188941 0)
(1.04233 -0.0252755 0)
(1.05761 -0.033632 0)
(1.07801 -0.0444448 0)
(1.10511 -0.0582233 0)
(1.14078 -0.0754343 0)
(1.18724 -0.0963967 0)
(1.24691 -0.121104 0)
(1.00001 -0.000165227 0)
(1.00013 -0.000509772 0)
(1.00038 -0.000901373 0)
(1.0008 -0.00137967 0)
(1.00141 -0.00198847 0)
(1.00228 -0.00278118 0)
(1.00348 -0.0038287 0)
(1.00512 -0.00522665 0)
(1.00737 -0.00710268 0)
(1.01044 -0.00962526 0)
(1.0146 -0.0130147 0)
(1.02024 -0.0175559 0)
(1.0279 -0.0236123 0)
(1.03827 -0.0316373 0)
(1.05228 -0.0421802 0)
(1.07113 -0.0558756 0)
(1.09639 -0.0734104 0)
(1.12999 -0.0954322 0)
(1.17428 -0.122424 0)
(1.23192 -0.154443 0)
(1.00001 -0.000193521 0)
(1.00011 -0.00059711 0)
(1.00033 -0.00105589 0)
(1.00068 -0.00161636 0)
(1.00121 -0.00232997 0)
(1.00195 -0.00325954 0)
(1.00298 -0.00448856 0)
(1.0044 -0.00612991 0)
(1.00633 -0.00833461 0)
(1.00897 -0.0113027 0)
(1.01258 -0.015297 0)
(1.01749 -0.0206593 0)
(1.02418 -0.0278291 0)
(1.03331 -0.0373599 0)
(1.04574 -0.0499316 0)
(1.06264 -0.0663425 0)
(1.08557 -0.0874804 0)
(1.11652 -0.114209 0)
(1.15799 -0.147239 0)
(1.21294 -0.186746 0)
(1.00001 -0.000217083 0)
(1.00009 -0.000669858 0)
(1.00026 -0.00118463 0)
(1.00055 -0.00181367 0)
(1.00097 -0.00261487 0)
(1.00157 -0.00365902 0)
(1.00241 -0.00504039 0)
(1.00356 -0.00688671 0)
(1.00513 -0.00936939 0)
(1.00729 -0.0127164 0)
(1.01024 -0.0172287 0)
(1.01429 -0.0233006 0)
(1.01986 -0.0314436 0)
(1.02752 -0.0423093 0)
(1.03807 -0.0567107 0)
(1.05264 -0.0756198 0)
(1.07273 -0.100154 0)
(1.10039 -0.131433 0)
(1.1383 -0.170489 0)
(1.1898 -0.217677 0)
(1.00001 -0.000235328 0)
(1.00007 -0.000726213 0)
(1.00019 -0.00128441 0)
(1.0004 -0.00196671 0)
(1.00072 -0.00283608 0)
(1.00116 -0.00396966 0)
(1.00178 -0.00547038 0)
(1.00263 -0.00747802 0)
(1.0038 -0.0101808 0)
(1.00542 -0.0138303 0)
(1.00765 -0.0187603 0)
(1.01073 -0.025412 0)
(1.01502 -0.0343628 0)
(1.02101 -0.0463582 0)
(1.0294 -0.0623453 0)
(1.04123 -0.083478 0)
(1.05797 -0.111136 0)
(1.08166 -0.146736 0)
(1.11519 -0.19177 0)
(1.16232 -0.246811 0)
(1 -0.000247802 0)
(1.00004 -0.000764767 0)
(1.00012 -0.00135273 0)
(1.00025 -0.00207163 0)
(1.00044 -0.00298802 0)
(1.00072 -0.00418356 0)
(1.0011 -0.00576748 0)
(1.00163 -0.00788848 0)
(1.00238 -0.0107476 0)
(1.00341 -0.0146145 0)
(1.00485 -0.0198501 0)
(1.00688 -0.0269343 0)
(1.00976 -0.0365032 0)
(1.01388 -0.0493887 0)
(1.01986 -0.0666698 0)
(1.02858 -0.0896861 0)
(1.04143 -0.120116 0)
(1.06041 -0.159704 0)
(1.08863 -0.210612 0)
(1.13023 -0.273579 0)
(1 -0.000254188 0)
(1.00001 -0.000784541 0)
(1.00004 -0.00138785 0)
(1.00009 -0.00212574 0)
(1.00016 -0.00306674 0)
(1.00025 -0.0042951 0)
(1.00039 -0.00592374 0)
(1.00059 -0.00810686 0)
(1.00088 -0.0110537 0)
(1.0013 -0.0150464 0)
(1.0019 -0.0204648 0)
(1.00281 -0.0278193 0)
(1.00418 -0.0377939 0)
(1.0063 -0.0512958 0)
(1.00961 -0.0695291 0)
(1.01486 -0.0940157 0)
(1.02331 -0.126767 0)
(1.03677 -0.16988 0)
(1.05867 -0.226447 0)
(1.09311 -0.297253 0)
(0.999999 -0.000254319 0)
(0.999987 -0.000785014 0)
(0.999963 -0.00138883 0)
(0.999923 -0.00212758 0)
(0.999864 -0.00307007 0)
(0.999784 -0.00430111 0)
(0.999676 -0.00593458 0)
(0.999536 -0.00812645 0)
(0.999357 -0.0110892 0)
(0.999138 -0.0151108 0)
(0.998885 -0.0205819 0)
(0.998623 -0.0280318 0)
(0.998416 -0.0381795 0)
(0.998399 -0.0519918 0)
(0.998865 -0.0707847 0)
(1.00031 -0.0962477 0)
(1.00385 -0.130754 0)
(1.01094 -0.176754 0)
(1.02535 -0.238573 0)
(1.05067 -0.317031 0)
(0.999996 -0.000248181 0)
(0.999961 -0.00076614 0)
(0.999885 -0.00135558 0)
(0.99976 -0.00207696 0)
(0.999576 -0.0029977 0)
(0.999318 -0.00420101 0)
(0.998964 -0.00579893 0)
(0.998484 -0.00794532 0)
(0.99784 -0.0108506 0)
(0.996986 -0.0148015 0)
(0.995866 -0.0201897 0)
(0.99442 -0.027551 0)
(0.992596 -0.037623 0)
(0.990372 -0.0514109 0)
(0.987848 -0.0703224 0)
(0.985231 -0.0961799 0)
(0.983376 -0.131754 0)
(0.983311 -0.179735 0)
(0.98865 -0.246231 0)
(1.00343 -0.331832 0)
(0.999993 -0.000235915 0)
(0.999935 -0.000728349 0)
(0.99981 -0.00128885 0)
(0.999603 -0.00197501 0)
(0.999297 -0.00285115 0)
(0.998867 -0.00399683 0)
(0.998274 -0.00551937 0)
(0.997464 -0.00756655 0)
(0.996369 -0.0103413 0)
(0.994894 -0.0141214 0)
(0.992923 -0.0192896 0)
(0.990304 -0.0263733 0)
(0.986869 -0.0361097 0)
(0.982416 -0.049515 0)
(0.976828 -0.0680626 0)
(0.969953 -0.0936395 0)
(0.962333 -0.129486 0)
(0.954344 -0.178105 0)
(0.948726 -0.24883 0)
(0.952514 -0.339133 0)
(0.99999 -0.000217818 0)
(0.999911 -0.000672546 0)
(0.99974 -0.00119021 0)
(0.999455 -0.00182412 0)
(0.999035 -0.00263385 0)
(0.998443 -0.00369325 0)
(0.997625 -0.00510211 0)
(0.996504 -0.00699825 0)
(0.99498 -0.00957152 0)
(0.992916 -0.0130833 0)
(0.990131 -0.0178958 0)
(0.986386 -0.024513 0)
(0.981387 -0.03365 0)
(0.974744 -0.0462999 0)
(0.966108 -0.06397 0)
(0.954872 -0.0885064 0)
(0.941323 -0.123736 0)
(0.924499 -0.171083 0)
(0.906846 -0.246018 0)
(0.897715 -0.333447 0)
(0.999988 -0.000194327 0)
(0.99989 -0.000600084 0)
(0.999675 -0.00106207 0)
(0.999321 -0.00162793 0)
(0.998797 -0.00235101 0)
(0.998057 -0.00329747 0)
(0.997033 -0.00455696 0)
(0.995628 -0.00625353 0)
(0.993711 -0.00855865 0)
(0.991104 -0.0117094 0)
(0.987568 -0.0160369 0)
(0.982774 -0.0220044 0)
(0.976307 -0.0302816 0)
(0.967576 -0.0418003 0)
(0.956016 -0.0580623 0)
(0.940414 -0.0807465 0)
(0.921146 -0.114376 0)
(0.894178 -0.158114 0)
(0.866342 -0.23741 0)
(0.835051 -0.307381 0)
(0.999986 -0.000166021 0)
(0.99987 -0.000512737 0)
(0.999619 -0.00090756 0)
(0.999203 -0.00139125 0)
(0.998588 -0.00200951 0)
(0.997719 -0.00281911 0)
(0.996514 -0.00389709 0)
(0.994858 -0.00535024 0)
(0.992595 -0.00732667 0)
(0.989508 -0.0100319 0)
(0.985304 -0.0137548 0)
(0.979573 -0.0189019 0)
(0.971784 -0.026072 0)
(0.961138 -0.036095 0)
(0.946892 -0.0504124 0)
(0.927029 -0.0704381 0)
(0.902714 -0.101374 0)
(0.863898 -0.139285 0)
(0.83223 -0.222583 0)
(0.757575 -0.255826 0)
(0.999984 -0.000133598 0)
(0.999854 -0.000412645 0)
(0.999572 -0.000730452 0)
(0.999105 -0.00111986 0)
(0.998414 -0.00161774 0)
(0.997437 -0.00226994 0)
(0.996081 -0.00313873 0)
(0.994216 -0.00431062 0)
(0.991663 -0.00590588 0)
(0.988173 -0.00809192 0)
(0.983406 -0.0111053 0)
(0.976879 -0.0152804 0)
(0.967962 -0.0211185 0)
(0.955648 -0.0293109 0)
(0.939067 -0.0411521 0)
(0.915191 -0.0577679 0)
(0.886822 -0.0847346 0)
(0.834477 -0.11556 0)
(0.80897 -0.201605 0)
(0.659896 -0.177826 0)
(0.999983 -9.78625e-05 0)
(0.999842 -0.000302314 0)
(0.999536 -0.000535157 0)
(0.999029 -0.000820493 0)
(0.998279 -0.00118539 0)
(0.997219 -0.00166354 0)
(0.995746 -0.0023007 0)
(0.993718 -0.00316059 0)
(0.99094 -0.00433189 0)
(0.987136 -0.00593841 0)
(0.981929 -0.00815578 0)
(0.974777 -0.0112333 0)
(0.964971 -0.0155487 0)
(0.951314 -0.0216252 0)
(0.932849 -0.030485 0)
(0.905433 -0.0430232 0)
(0.873878 -0.0643261 0)
(0.806954 -0.0883916 0)
(0.797978 -0.172935 0)
(0.542519 -0.0853325 0)
(0.999982 -5.96984e-05 0)
(0.999834 -0.00018454 0)
(0.999512 -0.000326679 0)
(0.998978 -0.000500837 0)
(0.998188 -0.000723571 0)
(0.99707 -0.00101547 0)
(0.995517 -0.00140454 0)
(0.993379 -0.00192978 0)
(0.990446 -0.00264555 0)
(0.986428 -0.00362788 0)
(0.980919 -0.00498478 0)
(0.973337 -0.00687064 0)
(0.962914 -0.00951806 0)
(0.948321 -0.0132624 0)
(0.928494 -0.0187208 0)
(0.898476 -0.026613 0)
(0.863746 -0.0401457 0)
(0.783899 -0.0575581 0)
(0.789358 -0.128074 0)
(0.409984 -0.0723615 0)
(0.999981 -2.00613e-05 0)
(0.999829 -6.20735e-05 0)
(0.999499 -0.00010989 0)
(0.998951 -0.00016846 0)
(0.998141 -0.000243355 0)
(0.996994 -0.000341505 0)
(0.9954 -0.000472335 0)
(0.993205 -0.000648973 0)
(0.990193 -0.000889735 0)
(0.986064 -0.00122027 0)
(0.9804 -0.001677 0)
(0.972597 -0.00231224 0)
(0.961851 -0.00320461 0)
(0.946795 -0.0044681 0)
(0.926161 -0.00632059 0)
(0.895161 -0.00894426 0)
(0.856428 -0.0140247 0)
(0.773877 -0.0178174 0)
(0.734917 -0.0674162 0)
(0.23632 0.107649 0)
(1.34648 -0.0214047 0)
(1.44011 -0.0255647 0)
(1.55061 -0.0297275 0)
(1.67746 -0.0335987 0)
(1.81894 -0.0369025 0)
(1.97227 -0.0393992 0)
(2.13374 -0.0408615 0)
(2.2988 -0.0410856 0)
(1.34242 -0.0641561 0)
(1.43592 -0.076693 0)
(1.54656 -0.0892429 0)
(1.67383 -0.100912 0)
(1.816 -0.110874 0)
(1.97025 -0.118411 0)
(2.13286 -0.122834 0)
(2.29924 -0.123526 0)
(1.33437 -0.106747 0)
(1.4276 -0.127845 0)
(1.53852 -0.148986 0)
(1.66666 -0.168646 0)
(1.81019 -0.185446 0)
(1.96628 -0.198197 0)
(2.13117 -0.205729 0)
(2.30021 -0.20699 0)
(1.32216 -0.149035 0)
(1.41496 -0.179012 0)
(1.52631 -0.209087 0)
(1.65573 -0.237054 0)
(1.80132 -0.260987 0)
(1.96022 -0.279256 0)
(2.12869 -0.290175 0)
(2.30186 -0.292216 0)
(1.30563 -0.190879 0)
(1.3978 -0.230199 0)
(1.5097 -0.269693 0)
(1.64085 -0.306411 0)
(1.78931 -0.33794 0)
(1.95215 -0.362241 0)
(2.12529 -0.376951 0)
(2.30331 -0.379955 0)
(1.28456 -0.232099 0)
(1.37582 -0.281393 0)
(1.48839 -0.330945 0)
(1.62194 -0.377068 0)
(1.77414 -0.416863 0)
(1.94128 -0.447691 0)
(2.11862 -0.466241 0)
(2.30104 -0.470005 0)
(1.25864 -0.27247 0)
(1.34861 -0.332578 0)
(1.46226 -0.393099 0)
(1.5989 -0.449456 0)
(1.75431 -0.49784 0)
(1.92396 -0.534977 0)
(2.10524 -0.557153 0)
(2.29621 -0.562359 0)
(1.22741 -0.3117 0)
(1.31587 -0.383852 0)
(1.43121 -0.456453 0)
(1.56983 -0.523214 0)
(1.72552 -0.579493 0)
(1.89877 -0.623422 0)
(2.09437 -0.652076 0)
(2.31196 -0.663351 0)
(1.19037 -0.349529 0)
(1.27755 -0.435427 0)
(1.39343 -0.520402 0)
(1.5301 -0.596484 0)
(1.68847 -0.661947 0)
(1.88301 -0.719316 0)
(2.11996 -0.763024 0)
(2.38606 -0.786124 0)
(1.14738 -0.385827 0)
(1.23249 -0.486822 0)
(1.34394 -0.582794 0)
(1.48091 -0.670043 0)
(1.66555 -0.755088 0)
(1.9161 -0.839397 0)
(2.21404 -0.903421 0)
(2.52071 -0.933686 0)
(1.09828 -0.420094 0)
(1.17591 -0.535877 0)
(1.28159 -0.643967 0)
(1.44565 -0.756022 0)
(1.69816 -0.878849 0)
(2.02155 -0.995116 0)
(2.35576 -1.0662 0)
(2.65444 -1.08542 0)
(1.04046 -0.450258 0)
(1.1023 -0.581286 0)
(1.22542 -0.71567 0)
(1.46687 -0.877144 0)
(1.80517 -1.04333 0)
(2.16469 -1.17152 0)
(2.47145 -1.22058 0)
(2.71056 -1.21306 0)
(0.966667 -0.473297 0)
(1.01944 -0.631014 0)
(1.21773 -0.822879 0)
(1.56631 -1.04577 0)
(1.94815 -1.22938 0)
(2.27071 -1.33283 0)
(2.49506 -1.33731 0)
(2.66592 -1.30964 0)
(0.87028 -0.491101 0)
(0.961424 -0.709287 0)
(1.29146 -0.985566 0)
(1.71108 -1.24364 0)
(2.05511 -1.39778 0)
(2.28263 -1.44955 0)
(2.41768 -1.41252 0)
(2.56464 -1.39991 0)
(0.75994 -0.519168 0)
(0.973804 -0.846274 0)
(1.43138 -1.19411 0)
(1.83332 -1.42954 0)
(2.07298 -1.51614 0)
(2.19579 -1.51733 0)
(2.28376 -1.46744 0)
(2.46902 -1.52057 0)
(0.67169 -0.586957 0)
(1.07227 -1.04956 0)
(1.58001 -1.40919 0)
(1.87591 -1.56535 0)
(1.99619 -1.57712 0)
(2.04873 -1.55612 0)
(2.15048 -1.52901 0)
(2.39911 -1.68556 0)
(0.654704 -0.722984 0)
(1.22459 -1.2921 0)
(1.67426 -1.5862 0)
(1.82077 -1.63686 0)
(1.85953 -1.59931 0)
(1.88947 -1.59621 0)
(2.05055 -1.61355 0)
(2.32201 -1.87811 0)
(0.728937 -0.94378 0)
(1.37177 -1.53263 0)
(1.67461 -1.69869 0)
(1.69113 -1.65815 0)
(1.70946 -1.61326 0)
(1.74469 -1.65894 0)
(1.98033 -1.72335 0)
(2.18975 -2.09222 0)
(0.868619 -1.25605 0)
(1.45443 -1.72975 0)
(1.57923 -1.74375 0)
(1.53575 -1.65821 0)
(1.57532 -1.63863 0)
(1.61289 -1.73673 0)
(1.89903 -1.8366 0)
(1.9553 -2.34414 0)
(1.02504 -1.63886 0)
(1.43425 -1.83427 0)
(1.42678 -1.73632 0)
(1.40085 -1.65744 0)
(1.46082 -1.66679 0)
(1.4833 -1.79041 0)
(1.7418 -1.89661 0)
(1.56374 -2.53969 0)
(2.46223 -0.0399332 0)
(2.61836 -0.0373577 0)
(2.76153 -0.0334219 0)
(2.8865 -0.0282989 0)
(2.98892 -0.0222368 0)
(3.06553 -0.0155341 0)
(3.11441 -0.00855729 0)
(3.13525 -0.00175451 0)
(3.12953 0.00438922 0)
(3.10075 0.00941648 0)
(3.0541 0.0130056 0)
(2.99587 0.0150384 0)
(2.93245 0.0156113 0)
(2.86948 0.0149853 0)
(2.81126 0.013497 0)
(2.76057 0.0114724 0)
(2.71893 0.00917277 0)
(2.68695 0.00677344 0)
(2.66473 0.00436292 0)
(2.6522 0.00194785 0)
(2.64945 -0.000548029 0)
(2.65705 -0.00328668 0)
(2.67654 -0.00661748 0)
(2.71128 -0.0108732 0)
(2.76789 -0.0182942 0)
(2.86203 -0.0262188 0)
(3.02462 -0.0708062 0)
(3.34595 -0.0711335 0)
(2.46407 -0.120069 0)
(2.62161 -0.112319 0)
(2.76607 -0.100468 0)
(2.89213 -0.0850416 0)
(2.99536 -0.0667857 0)
(3.07243 -0.0465909 0)
(3.12137 -0.0255581 0)
(3.14177 -0.00504332 0)
(3.13516 0.0134801 0)
(3.10509 0.0286279 0)
(3.05693 0.0394213 0)
(2.99718 0.045498 0)
(2.93242 0.0471552 0)
(2.86841 0.045195 0)
(2.80948 0.0406469 0)
(2.75838 0.034504 0)
(2.71655 0.0275573 0)
(2.68451 0.0203343 0)
(2.66228 0.0131002 0)
(2.64971 0.0058735 0)
(2.64678 -0.00156776 0)
(2.65399 -0.00972681 0)
(2.67259 -0.0194903 0)
(2.70587 -0.0324907 0)
(2.75808 -0.051936 0)
(2.84436 -0.0853207 0)
(2.96384 -0.157147 0)
(3.16239 -0.325205 0)
(2.46794 -0.201275 0)
(2.62836 -0.188317 0)
(2.77544 -0.168433 0)
(2.90365 -0.142529 0)
(3.00846 -0.11185 0)
(3.08643 -0.0778657 0)
(3.13545 -0.0424187 0)
(3.15499 -0.00781699 0)
(3.14655 0.0233977 0)
(3.11386 0.0488763 0)
(3.06263 0.0669485 0)
(2.99978 0.0769989 0)
(2.93229 0.0795607 0)
(2.86618 0.076034 0)
(2.80583 0.0681968 0)
(2.75392 0.0577473 0)
(2.71172 0.0460236 0)
(2.67959 0.0339095 0)
(2.65736 0.0218447 0)
(2.64473 0.00986136 0)
(2.64151 -0.00240504 0)
(2.64795 -0.0157449 0)
(2.66501 -0.0316087 0)
(2.69499 -0.0523346 0)
(2.74102 -0.0831998 0)
(2.81011 -0.132396 0)
(2.89888 -0.22879 0)
(3.01267 -0.397411 0)
(2.47388 -0.284332 0)
(2.63839 -0.266082 0)
(2.78903 -0.237939 0)
(2.92011 -0.201252 0)
(3.02704 -0.157775 0)
(3.1063 -0.109522 0)
(3.1555 -0.0590739 0)
(3.1739 -0.00973078 0)
(3.16289 0.0347368 0)
(3.1264 0.0709316 0)
(3.07066 0.096421 0)
(3.00324 0.110325 0)
(2.93174 0.113476 0)
(2.86255 0.107976 0)
(2.80015 0.0964505 0)
(2.74709 0.0813685 0)
(2.70441 0.0646434 0)
(2.67218 0.0475197 0)
(2.65 0.030608 0)
(2.63732 0.0139507 0)
(2.63372 -0.0029415 0)
(2.63914 -0.0211197 0)
(2.65407 -0.0424157 0)
(2.67981 -0.0698156 0)
(2.71792 -0.10894 0)
(2.77064 -0.168754 0)
(2.83298 -0.269437 0)
(2.8947 -0.427393 0)
(2.48004 -0.369835 0)
(2.64903 -0.345999 0)
(2.80382 -0.309204 0)
(2.93863 -0.261356 0)
(3.04867 -0.20468 0)
(3.13004 -0.141629 0)
(3.17984 -0.0755102 0)
(3.19691 -0.0106225 0)
(3.18253 0.0478669 0)
(3.14103 0.0953463 0)
(3.07933 0.12846 0)
(3.00595 0.146062 0)
(2.92932 0.149376 0)
(2.85633 0.141346 0)
(2.79154 0.12559 0)
(2.73727 0.105435 0)
(2.69422 0.0834091 0)
(2.66209 0.0611226 0)
(2.64016 0.0393479 0)
(2.62757 0.0181328 0)
(2.62361 -0.0031249 0)
(2.62788 -0.0256818 0)
(2.64034 -0.0516344 0)
(2.6614 -0.0842549 0)
(2.69125 -0.129024 0)
(2.72934 -0.194034 0)
(2.76932 -0.293417 0)
(2.79718 -0.439487 0)
(2.48334 -0.457458 0)
(2.65952 -0.427877 0)
(2.82248 -0.382295 0)
(2.96522 -0.323093 0)
(3.08185 -0.252772 0)
(3.16739 -0.174112 0)
(3.21808 -0.0912393 0)
(3.23229 -0.00976571 0)
(3.21187 0.0636424 0)
(3.16205 0.123007 0)
(3.09106 0.163884 0)
(3.00883 0.184847 0)
(2.92494 0.187659 0)
(2.84686 0.176322 0)
(2.77911 0.15562 0)
(2.7236 0.129847 0)
(2.68044 0.102172 0)
(2.64882 0.0745654 0)
(2.62755 0.04794 0)
(2.6154 0.0223344 0)
(2.61132 -0.00295875 0)
(2.61454 -0.0293555 0)
(2.62454 -0.0591012 0)
(2.64095 -0.0955291 0)
(2.66297 -0.143676 0)
(2.68842 -0.210431 0)
(2.71062 -0.305691 0)
(2.71608 -0.436951 0)
(2.49311 -0.548804 0)
(2.68786 -0.514679 0)
(2.86938 -0.460731 0)
(3.02759 -0.389694 0)
(3.15503 -0.304333 0)
(3.24592 -0.207912 0)
(3.29599 -0.105776 0)
(3.30347 -0.00579355 0)
(3.27138 0.0844897 0)
(3.20647 0.156667 0)
(3.11906 0.205206 0)
(3.02146 0.228661 0)
(2.92509 0.229661 0)
(2.83824 0.21364 0)
(2.76528 0.186823 0)
(2.70734 0.154583 0)
(2.66364 0.120747 0)
(2.63252 0.0875956 0)
(2.61213 0.0561309 0)
(2.60074 0.0263413 0)
(2.59686 -0.00259701 0)
(2.5993 -0.0322322 0)
(2.6071 -0.0648861 0)
(2.61927 -0.103819 0)
(2.63429 -0.153533 0)
(2.64916 -0.219704 0)
(2.65736 -0.309083 0)
(2.64704 -0.425738 0)
(2.54253 -0.652502 0)
(2.76937 -0.614734 0)
(2.97512 -0.550922 0)
(3.14848 -0.465296 0)
(3.28362 -0.361571 0)
(3.3763 -0.243749 0)
(3.42246 -0.118585 0)
(3.4206 0.00401036 0)
(3.37305 0.11383 0)
(3.2872 0.2003 0)
(3.17625 0.25662 0)
(3.0558 0.281356 0)
(2.94008 0.278492 0)
(2.83884 0.255538 0)
(2.7565 0.220641 0)
(2.69327 0.180474 0)
(2.64717 0.139534 0)
(2.61542 0.100347 0)
(2.59527 0.0639005 0)
(2.5843 0.0300555 0)
(2.58049 -0.00217122 0)
(2.58217 -0.0344631 0)
(2.5879 -0.0691843 0)
(2.59618 -0.109464 0)
(2.60492 -0.159279 0)
(2.61069 -0.223195 0)
(2.60726 -0.305717 0)
(2.58446 -0.408476 0)
(2.65743 -0.777589 0)
(2.90879 -0.73091 0)
(3.12319 -0.650969 0)
(3.29582 -0.545912 0)
(3.4275 -0.420623 0)
(3.51686 -0.279077 0)
(3.55933 -0.128593 0)
(3.55108 0.0197238 0)
(3.49149 0.151974 0)
(3.38742 0.255239 0)
(3.25352 0.320488 0)
(3.10872 0.345859 0)
(2.97083 0.337112 0)
(2.85199 0.304629 0)
(2.75718 0.259166 0)
(2.68598 0.209078 0)
(2.63522 0.159646 0)
(2.601 0.113584 0)
(2.57961 0.0717629 0)
(2.56787 0.0338099 0)
(2.56318 -0.001481 0)
(2.5634 -0.0359547 0)
(2.56662 -0.0720129 0)
(2.57082 -0.112638 0)
(2.57346 -0.161321 0)
(2.57075 -0.221684 0)
(2.55682 -0.296634 0)
(2.52323 -0.38625 0)
(2.80482 -0.91625 0)
(3.04712 -0.84929 0)
(3.24286 -0.746548 0)
(3.39945 -0.620475 0)
(3.52406 -0.474775 0)
(3.61427 -0.310987 0)
(3.66039 -0.135724 0)
(3.65352 0.0387203 0)
(3.59014 0.195947 0)
(3.47559 0.318871 0)
(3.32524 0.394928 0)
(3.16099 0.421217 0)
(3.00434 0.405418 0)
(2.86998 0.361416 0)
(2.76371 0.303247 0)
(2.68466 0.241385 0)
(2.62874 0.182084 0)
(2.59111 0.128256 0)
(2.56727 0.0805758 0)
(2.55346 0.0383506 0)
(2.5466 8.03888e-05 0)
(2.54418 -0.0362274 0)
(2.5439 -0.0730442 0)
(2.54337 -0.113192 0)
(2.53966 -0.159722 0)
(2.52884 -0.215517 0)
(2.50563 -0.282484 0)
(2.46355 -0.360024 0)
(2.90607 -1.0445 0)
(3.11244 -0.950945 0)
(3.28332 -0.827575 0)
(3.43373 -0.68713 0)
(3.56879 -0.527241 0)
(3.67656 -0.344154 0)
(3.73735 -0.143833 0)
(3.73717 0.058689 0)
(3.67233 0.243506 0)
(3.54817 0.388624 0)
(3.38231 0.477113 0)
(3.20064 0.504543 0)
(3.02847 0.480763 0)
(2.88244 0.42378 0)
(2.76833 0.351426 0)
(2.68425 0.276583 0)
(2.62501 0.206574 0)
(2.58487 0.14449 0)
(2.55875 0.0907366 0)
(2.54248 0.0442354 0)
(2.53277 0.00315875 0)
(2.52692 -0.0346801 0)
(2.52246 -0.0717927 0)
(2.51684 -0.110844 0)
(2.50704 -0.154523 0)
(2.48936 -0.205232 0)
(2.45954 -0.264452 0)
(2.41316 -0.331582 0)
(2.91294 -1.14644 0)
(3.09727 -1.03478 0)
(3.27341 -0.904708 0)
(3.44945 -0.762198 0)
(3.61703 -0.594163 0)
(3.75143 -0.391138 0)
(3.82797 -0.160659 0)
(3.8332 0.0764686 0)
(3.76413 0.294784 0)
(3.62583 0.466207 0)
(3.4388 0.568631 0)
(3.23495 0.59627 0)
(3.04516 0.562309 0)
(2.88815 0.490085 0)
(2.76861 0.40187 0)
(2.68246 0.313075 0)
(2.62256 0.231956 0)
(2.58198 0.16158 0)
(2.55496 0.101918 0)
(2.53706 0.0514097 0)
(2.52492 0.00785928 0)
(2.51588 -0.0311742 0)
(2.50754 -0.0682136 0)
(2.49752 -0.105802 0)
(2.48312 -0.146403 0)
(2.46137 -0.192217 0)
(2.42916 -0.244686 0)
(2.38348 -0.303397 0)
(2.85341 -1.23324 0)
(3.06386 -1.12242 0)
(3.28055 -1.00096 0)
(3.48876 -0.862494 0)
(3.66649 -0.683964 0)
(3.79315 -0.456002 0)
(3.86119 -0.190809 0)
(3.86868 0.0867142 0)
(3.80776 0.345789 0)
(3.67315 0.550695 0)
(3.47905 0.670963 0)
(3.26068 0.698485 0)
(3.05675 0.651372 0)
(2.89093 0.560455 0)
(2.76823 0.45379 0)
(2.68251 0.349654 0)
(2.62446 0.257002 0)
(2.58565 0.178487 0)
(2.55958 0.11333 0)
(2.54156 0.0592992 0)
(2.52827 0.0137314 0)
(2.51722 -0.0261003 0)
(2.50632 -0.0628133 0)
(2.49363 -0.0988984 0)
(2.47711 -0.136736 0)
(2.45463 -0.178477 0)
(2.42377 -0.225508 0)
(2.38149 -0.277249 0)
(2.79818 -1.33766 0)
(3.06763 -1.23843 0)
(3.30238 -1.12021 0)
(3.46674 -0.969634 0)
(3.55559 -0.764919 0)
(3.59253 -0.508646 0)
(3.60876 -0.219621 0)
(3.61936 0.0844597 0)
(3.6056 0.378603 0)
(3.53568 0.621881 0)
(3.39663 0.76873 0)
(3.21322 0.80224 0)
(3.02874 0.743713 0)
(2.87494 0.633023 0)
(2.76164 0.506135 0)
(2.68409 0.385432 0)
(2.6329 0.28084 0)
(2.59929 0.194361 0)
(2.57667 0.124159 0)
(2.56054 0.0671394 0)
(2.5478 0.020039 0)
(2.53634 -0.0202554 0)
(2.52457 -0.0565521 0)
(2.51107 -0.0913593 0)
(2.49442 -0.12701 0)
(2.47282 -0.165487 0)
(2.44349 -0.207748 0)
(2.40198 -0.252527 0)
(2.78614 -1.4846 0)
(3.07841 -1.37623 0)
(3.20973 -1.21497 0)
(3.17219 -1.01008 0)
(3.04891 -0.761248 0)
(2.93732 -0.488149 0)
(2.88348 -0.207149 0)
(2.90296 0.0808415 0)
(2.97527 0.375942 0)
(3.03941 0.643903 0)
(3.03972 0.822107 0)
(2.97308 0.874325 0)
(2.87557 0.816247 0)
(2.78318 0.693555 0)
(2.71257 0.550721 0)
(2.66457 0.415819 0)
(2.63364 0.300856 0)
(2.61363 0.207618 0)
(2.59987 0.133348 0)
(2.58927 0.0741257 0)
(2.57973 0.0260994 0)
(2.56981 -0.0142413 0)
(2.55855 -0.0499525 0)
(2.54499 -0.0835835 0)
(2.52781 -0.117281 0)
(2.50469 -0.152496 0)
(2.47159 -0.189312 0)
(2.42255 -0.225607 0)
(2.78608 -1.64484 0)
(2.9713 -1.46386 0)
(2.80783 -1.18249 0)
(2.42734 -0.893691 0)
(2.09208 -0.628148 0)
(1.90562 -0.389515 0)
(1.83571 -0.159459 0)
(1.86106 0.0772217 0)
(1.99968 0.337642 0)
(2.19544 0.600561 0)
(2.36299 0.799164 0)
(2.46524 0.876884 0)
(2.51585 0.834414 0)
(2.54157 0.715218 0)
(2.55903 0.568769 0)
(2.57365 0.428495 0)
(2.5857 0.309228 0)
(2.59437 0.213303 0)
(2.59934 0.137671 0)
(2.6007 0.0780714 0)
(2.59848 0.0303206 0)
(2.59244 -0.00932622 0)
(2.58233 -0.0438618 0)
(2.56744 -0.0756863 0)
(2.54604 -0.106464 0)
(2.51483 -0.136827 0)
(2.46884 -0.165987 0)
(2.4024 -0.191546 0)
(2.72542 -1.71216 0)
(2.56785 -1.37577 0)
(1.98082 -0.930492 0)
(1.30641 -0.635185 0)
(0.994705 -0.472053 0)
(0.88119 -0.332502 0)
(0.846339 -0.162398 0)
(0.848621 0.0235294 0)
(0.957955 0.252844 0)
(1.18744 0.494617 0)
(1.46291 0.69529 0)
(1.71869 0.79279 0)
(1.9338 0.773806 0)
(2.10931 0.673168 0)
(2.24896 0.539158 0)
(2.35594 0.407425 0)
(2.43405 0.294643 0)
(2.48804 0.20382 0)
(2.52319 0.1323 0)
(2.54398 0.0761783 0)
(2.5533 0.0315638 0)
(2.55279 -0.00503602 0)
(2.54302 -0.0363359 0)
(2.52338 -0.0643591 0)
(2.49175 -0.0900153 0)
(2.44481 -0.113129 0)
(2.37895 -0.132617 0)
(2.29194 -0.146808 0)
(2.54269 -1.59009 0)
(1.68389 -1.04185 0)
(0.874483 -0.510083 0)
(0.212303 -0.431218 0)
(0.101509 -0.42137 0)
(-0.0578003 -0.313225 0)
(-0.134736 -0.138139 0)
(-0.194366 0.0237333 0)
(-0.114768 0.189803 0)
(0.120096 0.377227 0)
(0.456503 0.544594 0)
(0.824523 0.636081 0)
(1.18285 0.633076 0)
(1.50493 0.557387 0)
(1.77384 0.448712 0)
(1.98427 0.339849 0)
(2.13947 0.246198 0)
(2.24782 0.170325 0)
(2.31973 0.110251 0)
(2.36399 0.0630442 0)
(2.38657 0.0255904 0)
(2.39091 -0.00496358 0)
(2.3782 -0.0300445 0)
(2.34851 -0.0510143 0)
(2.30148 -0.0682318 0)
(2.23684 -0.0815167 0)
(2.15539 -0.0905741 0)
(2.05971 -0.0952524 0)
(2.23025 -1.35001 0)
(0.252162 -0.554742 0)
(0.0201737 -0.17679 0)
(-0.540875 -0.343579 0)
(-0.804359 -0.29443 0)
(-1.10139 -0.205247 0)
(-1.2304 -0.0959816 0)
(-1.26393 0.00992901 0)
(-1.18374 0.124056 0)
(-0.944533 0.248534 0)
(-0.575731 0.358203 0)
(-0.123054 0.424329 0)
(0.350361 0.424743 0)
(0.795039 0.376101 0)
(1.1743 0.301708 0)
(1.47598 0.227931 0)
(1.7003 0.165571 0)
(1.85732 0.11509 0)
(1.96147 0.0749295 0)
(2.02492 0.0434338 0)
(2.05582 0.0189006 0)
(2.05993 0.000145595 0)
(2.04073 -0.0145918 0)
(2.00174 -0.0258296 0)
(1.9471 -0.0342368 0)
(1.88063 -0.0403843 0)
(1.8059 -0.0445208 0)
(1.72627 -0.0467218 0)
(1.90803 -1.01602 0)
(-1.16168 -0.118083 0)
(-0.271583 -0.0815929 0)
(-1.1208 -0.116216 0)
(-1.51714 -0.105237 0)
(-1.92627 -0.071448 0)
(-2.14917 -0.0282869 0)
(-2.21751 0.0125995 0)
(-2.12831 0.055663 0)
(-1.88326 0.0981026 0)
(-1.4863 0.135413 0)
(-0.980915 0.155665 0)
(-0.434954 0.150672 0)
(0.0901958 0.130427 0)
(0.540073 0.0979458 0)
(0.903006 0.0697625 0)
(1.17202 0.0481336 0)
(1.35848 0.0314816 0)
(1.48157 0.0188722 0)
(1.55721 0.00972636 0)
(1.59659 0.00340874 0)
(1.60773 -0.000512821 0)
(1.59855 -0.00418672 0)
(1.5739 -0.00736674 0)
(1.53671 -0.0100533 0)
(1.48955 -0.0121837 0)
(1.4351 -0.0135767 0)
(1.37621 -0.0141665 0)
(3.67452 -0.728532 0)
(3.42639 -1.32572 0)
(2.88197 -1.71958 0)
(2.29016 -1.89559 0)
(1.76206 -1.90721 0)
(1.26377 -1.83358 0)
(0.81858 -1.65681 0)
(-0.0969166 -1.56258 0)
(3.22087 -0.870337 0)
(3.00026 -1.26298 0)
(2.63734 -1.50486 0)
(2.22573 -1.649 0)
(1.78999 -1.67398 0)
(1.33536 -1.59593 0)
(0.904612 -1.40574 0)
(0.303719 -1.24528 0)
(3.04716 -0.738928 0)
(2.88894 -1.06682 0)
(2.58089 -1.30983 0)
(2.20735 -1.4482 0)
(1.80982 -1.46549 0)
(1.39969 -1.37993 0)
(1.0045 -1.19049 0)
(0.50542 -0.946566 0)
(2.89286 -0.695075 0)
(2.75279 -0.976357 0)
(2.49169 -1.1739 0)
(2.17074 -1.27323 0)
(1.82496 -1.27619 0)
(1.46467 -1.18764 0)
(1.11347 -0.99934 0)
(0.721727 -0.742164 0)
(2.77322 -0.650527 0)
(2.64941 -0.872554 0)
(2.42801 -1.03457 0)
(2.14931 -1.11581 0)
(1.84463 -1.11098 0)
(1.52689 -1.01941 0)
(1.21917 -0.836098 0)
(0.904685 -0.581994 0)
(2.67769 -0.608524 0)
(2.56382 -0.787708 0)
(2.37188 -0.921148 0)
(2.12842 -0.982725 0)
(1.86017 -0.966092 0)
(1.58185 -0.87165 0)
(1.31553 -0.696193 0)
(1.06052 -0.458705 0)
(2.59868 -0.567834 0)
(2.49107 -0.711832 0)
(2.32091 -0.818396 0)
(2.10652 -0.862996 0)
(1.8706 -0.838053 0)
(1.62841 -0.743478 0)
(1.39976 -0.578095 0)
(1.19197 -0.36146 0)
(2.52787 -0.526913 0)
(2.42354 -0.642849 0)
(2.26984 -0.727213 0)
(2.08068 -0.75821 0)
(1.87467 -0.727006 0)
(1.66572 -0.63338 0)
(1.47075 -0.478638 0)
(1.30066 -0.282975 0)
(2.45974 -0.485185 0)
(2.35817 -0.579004 0)
(2.21906 -0.645624 0)
(2.05312 -0.666026 0)
(1.87452 -0.630668 0)
(1.69507 -0.539192 0)
(1.52908 -0.395137 0)
(1.38931 -0.219086 0)
(2.39615 -0.443104 0)
(2.29943 -0.520077 0)
(2.17486 -0.573291 0)
(2.0298 -0.585748 0)
(1.87439 -0.547626 0)
(1.71894 -0.458777 0)
(1.57625 -0.324869 0)
(1.46024 -0.16647 0)
(2.3465 -0.402272 0)
(2.25734 -0.466624 0)
(2.14619 -0.509446 0)
(2.01719 -0.51525 0)
(1.87814 -0.474798 0)
(1.73938 -0.388789 0)
(1.61356 -0.264706 0)
(1.51537 -0.122439 0)
(2.32136 -0.364362 0)
(2.23993 -0.418431 0)
(2.13769 -0.451878 0)
(2.01704 -0.451012 0)
(1.88583 -0.408259 0)
(1.7561 -0.325607 0)
(1.64112 -0.211693 0)
(1.55582 -0.084831 0)
(2.3236 -0.329485 0)
(2.24537 -0.373371 0)
(2.14417 -0.396785 0)
(2.02303 -0.388689 0)
(1.89201 -0.34401 0)
(1.76549 -0.265984 0)
(1.65738 -0.163424 0)
(1.58191 -0.0521051 0)
(2.34225 -0.295141 0)
(2.25864 -0.327441 0)
(2.14968 -0.339772 0)
(2.02129 -0.324546 0)
(1.8865 -0.27937 0)
(1.76141 -0.20815 0)
(1.65958 -0.118787 0)
(1.59344 -0.0237848 0)
(2.35106 -0.256704 0)
(2.25316 -0.276149 0)
(2.13097 -0.277593 0)
(1.99415 -0.25702 0)
(1.85771 -0.2141 0)
(1.73752 -0.152514 0)
(1.64521 -0.0783245 0)
(1.59056 -0.00059786 0)
(2.31148 -0.209879 0)
(2.1965 -0.217123 0)
(2.06403 -0.210301 0)
(1.92608 -0.188112 0)
(1.79701 -0.151098 0)
(1.69002 -0.101857 0)
(1.61325 -0.0441548 0)
(1.57419 0.0158056 0)
(2.18468 -0.153979 0)
(2.06227 -0.152872 0)
(1.93362 -0.142869 0)
(1.80974 -0.123862 0)
(1.7013 -0.0960999 0)
(1.61729 -0.0606841 0)
(1.56169 -0.0193324 0)
(1.54174 0.0237388 0)
(1.95436 -0.0956336 0)
(1.84551 -0.0919103 0)
(1.7401 -0.0841026 0)
(1.64501 -0.0718773 0)
(1.5662 -0.0546872 0)
(1.5091 -0.0323769 0)
(1.47484 -0.00539774 0)
(1.47253 0.0237758 0)
(1.64489 -0.0470419 0)
(1.56492 -0.0455236 0)
(1.48962 -0.0420562 0)
(1.42262 -0.0362208 0)
(1.36764 -0.0273999 0)
(1.32938 -0.0150415 0)
(1.30905 0.000536656 0)
(1.31697 0.0196165 0)
(1.31564 -0.0140671 0)
(1.25587 -0.0134295 0)
(1.19912 -0.0122224 0)
(1.14801 -0.0101239 0)
(1.10605 -0.00672982 0)
(1.07837 -0.00175748 0)
(1.06912 0.00426022 0)
(1.08796 0.0122756 0)
(-0.677333 -0.514817 0)
(0.25796 -0.0526531 0)
(0.694582 0.28526 0)
(1.01237 0.51068 6.853e-17)
(1.30832 0.616914 6.14357e-18)
(1.67147 0.595577 0)
(1.88585 0.488759 4.95865e-17)
(1.94839 0.406964 2.55446e-18)
(1.9658 0.36677 3.39876e-17)
(2.00955 0.339743 3.2004e-17)
(2.07203 0.322203 0)
(2.14034 0.312166 2.61571e-17)
(2.21305 0.307931 -1.09231e-18)
(2.29154 0.308355 2.08421e-17)
(2.3752 0.312716 2.51682e-19)