/*--------------------------------*- C++ -*----------------------------------*\
| =========                 |                                                 |
| \\      /  F ield         | OpenFOAM: The Open Source CFD Toolbox           |
|  \\    /   O peration     | Version:  2.4.0                                 |
|   \\  /    A nd           | Web:      www.OpenFOAM.org                      |
|    \\/     M anipulation  |                                                 |
\*---------------------------------------------------------------------------*/
FoamFile
{
    version     2.0;
    format      ascii;
    class       volScalarField;
    location    "5.5";
    object      epsilon;
}
// * * * * * * * * * * * * * * * * * * * * * * * * * * * * * * * * * * * * * //

dimensions      [0 2 -3 0 0 0 0];

internalField   nonuniform List<scalar> 
6000
(
54.173
1.09753
0.0202954
0.134472
0.0725421
0.08633
0.061613
0.0575734
0.0461242
0.0419569
0.0365373
0.034288
0.0323025
0.0320325
0.0324032
0.0339248
0.0361976
0.0394402
0.0435262
0.0485759
0.0545672
0.0615596
0.0695341
0.0784767
0.0883109
0.0989406
0.110224
0.121967
0.133906
0.145702
0.156939
0.167124
0.1757
0.182039
0.1855
0.185478
0.181474
0.173123
0.160404
0.143602
0.123743
0.102204
0.0811616
0.0763911
0.117011
0.176733
0.259363
0.37946
0.534788
0.764039
1.0319
1.46633
1.8904
2.76845
3.34995
5.38736
5.84696
11.5654
10.5264
29.1709
17.723
0.975446
0.0253723
0.0742143
0.0418197
0.0473871
0.0343767
0.0316288
0.0255
0.0230212
0.0200635
0.0187094
0.017557
0.017269
0.0173255
0.0179436
0.0189252
0.020352
0.0221538
0.0243683
0.0269727
0.0299787
0.033367
0.0371221
0.0412066
0.0455792
0.0501852
0.0549547
0.0597957
0.0645944
0.0692114
0.0734838
0.0772259
0.0802191
0.0822467
0.0830814
0.0825175
0.0803708
0.0765478
0.0710319
0.0640594
0.0560058
0.047704
0.0467433
0.0664917
0.0938432
0.129759
0.179321
0.241365
0.329221
0.431098
0.58939
0.748609
1.05625
1.28398
1.97149
2.21277
4.06978
3.99543
9.81298
7.13599
0.711145
0.0303094
0.0435394
0.0252874
0.0273081
0.0200768
0.0182061
0.0147655
0.0132484
0.0115716
0.0107514
0.010083
0.00987969
0.00987997
0.0101801
0.0106797
0.0114114
0.0123383
0.0134737
0.0148042
0.0163318
0.0180456
0.0199368
0.0219882
0.0241821
0.0264965
0.0289039
0.031369
0.0338479
0.0362876
0.0386251
0.0407857
0.0426841
0.0442284
0.0453125
0.0458326
0.0456821
0.0447773
0.0430538
0.0405494
0.0373705
0.03391
0.0343868
0.0457748
0.0608322
0.0796682
0.104251
0.133883
0.173703
0.219221
0.286167
0.355256
0.478544
0.579876
0.842501
0.97147
1.64866
1.73517
3.7591
3.42005
0.518231
0.0345376
0.0274531
0.0160617
0.016482
0.0122308
0.010935
0.00891643
0.00796367
0.00698402
0.00648773
0.00610658
0.00599282
0.00601014
0.00620297
0.00651933
0.00697362
0.00754715
0.00824573
0.00906275
0.00999887
0.0110486
0.0122074
0.0134667
0.0148184
0.016252
0.0177549
0.0193107
0.0208992
0.0224958
0.0240711
0.0255879
0.0270142
0.0282972
0.0293827
0.0302152
0.0307337
0.0308838
0.0306157
0.0299255
0.0288392
0.027568
0.0286632
0.0360862
0.0455952
0.0570897
0.0714411
0.0882736
0.109803
0.134133
0.167738
0.203193
0.260835
0.312826
0.427568
0.50071
0.778499
0.866828
1.64876
1.89782
0.395524
0.0386519
0.0190393
0.0107889
0.0104258
0.00776384
0.00683873
0.00560201
0.00498906
0.00440389
0.00410779
0.00390081
0.00385826
0.00390653
0.00406699
0.00431237
0.00464994
0.00507064
0.00557789
0.00616888
0.00684415
0.00760089
0.00843637
0.00934592
0.0103248
0.0113673
0.0124666
0.013614
0.014799
0.0160092
0.0172295
0.0184426
0.0196355
0.0207772
0.0218391
0.0227905
0.0235962
0.0242212
0.0246293
0.0248053
0.0247435
0.0245709
0.0259383
0.0312601
0.0379041
0.0457244
0.0551491
0.0660188
0.0793941
0.0944972
0.114222
0.135615
0.167244
0.198372
0.256544
0.3025
0.432178
0.500327
0.838846
1.19136
0.318419
0.0429776
0.0149622
0.00776926
0.00694157
0.00514288
0.00445315
0.00366
0.00325597
0.00290139
0.00273099
0.00263128
0.00263966
0.00271489
0.00286787
0.00308425
0.00336856
0.00371685
0.00413177
0.00461253
0.00515972
0.00577191
0.0064474
0.00718343
0.0079773
0.00882598
0.00972592
0.0106728
0.0116617
0.0126867
0.0137401
0.014817
0.0159082
0.0169958
0.0180628
0.0190903
0.0200552
0.0209323
0.0216941
0.0223235
0.0228039
0.0232202
0.024706
0.0288147
0.0338282
0.0395964
0.0463353
0.0540014
0.0631394
0.0734957
0.0864376
0.10092
0.120679
0.141801
0.175686
0.207835
0.276915
0.328604
0.493498
0.829185
0.268834
0.0475682
0.0135345
0.00612371
0.00490803
0.00357138
0.00302604
0.00248993
0.00221604
0.00199964
0.0019089
0.00187583
0.0019186
0.0020133
0.00216608
0.00236969
0.00262765
0.00293886
0.00330581
0.00372884
0.00420881
0.00474522
0.0053373
0.00598376
0.00668351
0.00743546
0.0082384
0.00909079
0.00999077
0.0109358
0.0119221
0.0129495
0.0140093
0.0150902
0.0161805
0.0172667
0.0183319
0.0193568
0.02032
0.0212068
0.0219963
0.0227509
0.0242851
0.0276373
0.0316433
0.036162
0.0412978
0.0470607
0.0537392
0.0613178
0.0704582
0.0809582
0.0944337
0.109881
0.131831
0.156017
0.197315
0.237816
0.326708
0.62842
0.235882
0.0523317
0.013841
0.00540457
0.0037374
0.00262149
0.00215633
0.00176966
0.00157674
0.00144436
0.00140423
0.00141273
0.00147813
0.00158617
0.00174088
0.00193911
0.00218408
0.0024764
0.00281861
0.00321191
0.00365754
0.00415585
0.00470699
0.00531085
0.00596758
0.00667744
0.00744061
0.00825702
0.00912629
0.0100474
0.0110187
0.0120393
0.0131022
0.014199
0.0153207
0.0164564
0.0175928
0.0187147
0.0198052
0.0208531
0.0218313
0.0227947
0.0243441
0.0271921
0.0305289
0.0342284
0.0383331
0.0428763
0.0480099
0.0538209
0.0606232
0.0685736
0.0783161
0.0900755
0.105368
0.124216
0.151206
0.183624
0.23542
0.510221
0.213249
0.0571123
0.0153582
0.00536422
0.00311908
0.00205861
0.00162398
0.00132098
0.00117702
0.00109572
0.00108757
0.00112226
0.00120275
0.00132036
0.00147821
0.00167557
0.00191566
0.00220017
0.00253189
0.00291267
0.00334424
0.00382771
0.00436398
0.0049538
0.00559813
0.00629799
0.00705428
0.00786757
0.0087381
0.0096654
0.0106483
0.0116846
0.0127687
0.0138935
0.0150513
0.0162327
0.0174269
0.0186209
0.0198014
0.0209594
0.0220602
0.0231604
0.0247076
0.0272004
0.0300651
0.0331924
0.0365899
0.0403002
0.0443995
0.0490155
0.0542829
0.0604986
0.0678477
0.0770323
0.088241
0.103177
0.122012
0.148134
0.180194
0.437372
0.197245
0.0617395
0.0177435
0.00586911
0.00289364
0.00175387
0.00130629
0.00104325
0.000926116
0.00087502
0.000886855
0.000938383
0.00102956
0.00115495
0.00131725
0.00151719
0.00175814
0.00204252
0.00237342
0.00275326
0.00318425
0.00366808
0.00420623
0.00480001
0.00545081
0.00616007
0.00692896
0.00775831
0.00864853
0.00959928
0.0106086
0.0116737
0.0127897
0.0139502
0.0151479
0.0163743
0.0176199
0.0188736
0.0201243
0.0213611
0.022547
0.0237403
0.0252756
0.0275062
0.0300206
0.0327264
0.0356112
0.0387209
0.0420887
0.045855
0.0500601
0.0550443
0.0607737
0.0680985
0.0766348
0.0886201
0.102432
0.123543
0.14444
0.390904
0.185658
0.0660587
0.0207423
0.00683984
0.00298518
0.00163888
0.001135
0.000879261
0.000772282
0.000737425
0.000761316
0.00082405
0.000923541
0.00105617
0.00122438
0.00142981
0.001676
0.00196591
0.00230297
0.00269005
0.00312979
0.00362432
0.00417551
0.004785
0.0054544
0.00618533
0.00697908
0.00783647
0.00875791
0.00974271
0.0107877
0.0118901
0.0130452
0.0142467
0.0154874
0.0167593
0.0180535
0.0193599
0.0206693
0.0219624
0.0232114
0.0244692
0.0259864
0.0280156
0.0302589
0.0326397
0.0351351
0.037791
0.0406159
0.0437508
0.0471856
0.0512634
0.0558465
0.0617964
0.0684981
0.0782453
0.0887773
0.105946
0.120226
0.360498
0.177122
0.0699524
0.0241417
0.00822673
0.00335382
0.0016815
0.00107352
0.000796922
0.000686071
0.00065726
0.000687672
0.00075811
0.000864717
0.00100472
0.00118033
0.00139374
0.00164866
0.00194847
0.00229691
0.00269723
0.00315242
0.00366495
0.00423694
0.00487022
0.00556648
0.00632741
0.00715427
0.00804779
0.0090083
0.010034
0.0111211
0.0122667
0.0134659
0.0147122
0.0159983
0.0173161
0.0186573
0.0200121
0.0213702
0.0227055
0.0240023
0.0253047
0.0267993
0.0286681
0.0306939
0.0328147
0.035002
0.0373009
0.0397055
0.0423526
0.0452052
0.0485931
0.0523319
0.0572425
0.062633
0.0706741
0.0789642
0.0930743
0.103268
0.340228
0.170763
0.0733487
0.0277513
0.00998383
0.00397958
0.00187334
0.00110453
0.000779218
0.000651141
0.000619979
0.000652602
0.00072837
0.000841487
0.000989304
0.00117373
0.00139726
0.00166378
0.00197697
0.00234084
0.00275899
0.00323468
0.00377062
0.0043691
0.00503204
0.00576112
0.00655802
0.00742394
0.0083594
0.00936468
0.010436
0.0115697
0.0127626
0.0140093
0.0153031
0.0166362
0.0180002
0.019387
0.0207871
0.0221832
0.0235523
0.0248855
0.0262173
0.0276859
0.0294225
0.0312683
0.0331739
0.0351089
0.037117
0.0391843
0.0414413
0.0438374
0.0466836
0.0497778
0.0538843
0.0583034
0.0650313
0.0717266
0.0834787
0.0910416
0.326536
0.166004
0.0762224
0.0313993
0.0120575
0.00485483
0.00221473
0.00122338
0.000818641
0.00065916
0.000617711
0.000648657
0.000727863
0.000847117
0.00100327
0.00119782
0.00143334
0.00171387
0.0020433
0.0024259
0.00286554
0.0033657
0.00392925
0.00455861
0.00525571
0.00602213
0.00685953
0.00776897
0.00875072
0.00980467
0.0109251
0.0121087
0.0133518
0.0146484
0.0159913
0.0173721
0.018782
0.0202131
0.0216534
0.0230792
0.024476
0.025836
0.0271855
0.028625
0.0302492
0.0319417
0.0336641
0.0353861
0.0371501
0.0389379
0.0408733
0.0428996
0.0453084
0.0478942
0.0513639
0.0550397
0.0607424
0.0662621
0.0761917
0.0819881
0.317206
0.162446
0.0785878
0.0349358
0.0143805
0.00597437
0.00270905
0.00143489
0.000914235
0.000707024
0.000646815
0.000672043
0.000752854
0.000877882
0.00104287
0.00124871
0.00149789
0.00179452
0.00214263
0.00254673
0.0030109
0.00353877
0.00413336
0.00479712
0.00553194
0.00633925
0.00722066
0.00817708
0.00920846
0.0103137
0.0114859
0.0127217
0.0140168
0.0153646
0.0167574
0.018186
0.0196409
0.0211144
0.022587
0.0240379
0.0254567
0.0268353
0.0281924
0.0295998
0.0311255
0.032684
0.0342464
0.035784
0.0373376
0.0388873
0.0405506
0.0422688
0.0443151
0.0464883
0.0494423
0.0525322
0.0574212
0.0620462
0.070554
0.0751139
0.310816
0.159806
0.0804887
0.0382394
0.016872
0.00732659
0.00336287
0.00174806
0.00107018
0.000795425
0.000706596
0.000721434
0.000801766
0.00093206
0.00110628
0.00132445
0.00158875
0.00190335
0.0022723
0.0027003
0.00319159
0.00374992
0.00437839
0.00507943
0.00585488
0.00670594
0.00763415
0.00864025
0.00972386
0.0108822
0.0121078
0.0133972
0.0147453
0.0161449
0.0175875
0.0190632
0.0205617
0.0220729
0.0235715
0.0250434
0.0264786
0.0278683
0.0292246
0.0305966
0.0320335
0.033472
0.0348917
0.0362658
0.0376339
0.0389759
0.0404035
0.0418585
0.0435979
0.0454273
0.0479548
0.0505706
0.0548024
0.0587265
0.06611
0.0697695
0.306431
0.157877
0.0819869
0.0412223
0.0194406
0.00888867
0.00418421
0.00217091
0.00129531
0.0009282
0.000798659
0.000797357
0.000874607
0.00100938
0.00119305
0.00142445
0.0017052
0.00203945
0.00243116
0.00288517
0.00340585
0.00399702
0.00466177
0.00540253
0.006221
0.00711811
0.00809531
0.0091532
0.010291
0.0115033
0.0127834
0.0141271
0.0155284
0.0169796
0.0184712
0.0199925
0.0215323
0.0230731
0.0245943
0.026083
0.027529
0.0289227
0.0302703
0.0316038
0.0329583
0.0342871
0.0355767
0.0368028
0.0380043
0.0391615
0.040381
0.0416064
0.0430803
0.0446171
0.0467849
0.0490082
0.0526996
0.0560607
0.0625408
0.0655208
0.303426
0.156498
0.0831522
0.0438318
0.0219917
0.0106239
0.00517617
0.00271278
0.00160022
0.00111214
0.000926653
0.000901898
0.000972667
0.00111073
0.00130383
0.00154919
0.00184757
0.00220298
0.00261918
0.00310111
0.00365318
0.00427924
0.00498236
0.00576486
0.00662832
0.00757331
0.00860122
0.00971246
0.0109056
0.0121724
0.0135074
0.0149053
0.0163594
0.0178612
0.0194003
0.0209651
0.0225395
0.0241052
0.0256451
0.0271458
0.0285969
0.0299875
0.0313193
0.0326108
0.033887
0.0351134
0.0362824
0.0373723
0.0384216
0.0394113
0.0404439
0.0414655
0.0427061
0.043989
0.0458481
0.0477396
0.0509791
0.0538777
0.0596199
0.0620707
0.301375
0.155549
0.0840543
0.0460482
0.0244357
0.0124816
0.0063335
0.00338376
0.00199381
0.00135708
0.00109625
0.0010386
0.00109838
0.00123796
0.00144016
0.00170003
0.00201704
0.002395
0.00283726
0.00334879
0.00393403
0.00459677
0.00534
0.00616593
0.00707597
0.00807027
0.00915014
0.0103159
0.0115644
0.012886
0.0142757
0.0157271
0.0172329
0.0187836
0.020368
0.0219712
0.0235739
0.0251607
0.0267149
0.0282224
0.0296724
0.0310533
0.0323623
0.0336081
0.0348082
0.0359374
0.0369927
0.0379554
0.0388634
0.0396994
0.0405619
0.0413997
0.0424321
0.0434912
0.0450814
0.0466876
0.0495431
0.0520543
0.0571837
0.0592112
0.299986
0.154931
0.0847574
0.0478798
0.026696
0.0143998
0.0076399
0.00419023
0.0024863
0.0016728
0.00131523
0.00121249
0.00125529
0.00139385
0.0016044
0.00187908
0.00221555
0.00261727
0.00308697
0.00362963
0.00424958
0.00495054
0.00573536
0.00660608
0.00756393
0.00860855
0.00974124
0.0109621
0.0122655
0.0136416
0.0150852
0.0165889
0.0181445
0.0197418
0.0213673
0.0230016
0.0246286
0.0262321
0.0277955
0.0293042
0.0307468
0.0321109
0.0333906
0.0345866
0.0357115
0.0367467
0.0376935
0.0385358
0.0393113
0.0400043
0.0407101
0.0413803
0.0422248
0.043084
0.0444368
0.0457941
0.0483185
0.0505
0.0551122
0.0567939
0.299055
0.154568
0.0853167
0.0493562
0.0287152
0.0163101
0.0090666
0.00513223
0.00308747
0.00206808
0.00159343
0.00143015
0.00144805
0.00158206
0.00179967
0.00208916
0.0024457
0.00287222
0.00337058
0.00394567
0.00460166
0.00534212
0.00616971
0.00708625
0.00809281
0.0091884
0.0103743
0.0116507
0.0130079
0.0144375
0.0159336
0.0174875
0.0190905
0.0207306
0.0223895
0.0240506
0.0256973
0.0273125
0.0288794
0.0303831
0.0318117
0.0331521
0.0343957
0.0355378
0.036587
0.0375303
0.0383721
0.0390993
0.0397493
0.0403081
0.0408682
0.0413841
0.0420573
0.0427362
0.0438769
0.0450145
0.0472497
0.0491466
0.053316
0.0547103
0.298442
0.154397
0.0857773
0.0505209
0.0304575
0.0181441
0.0105728
0.00620107
0.00380383
0.00255297
0.00193951
0.00169989
0.00168253
0.00180714
0.00202981
0.00233373
0.00271069
0.00316286
0.00369089
0.00429952
0.00499265
0.00577363
0.00664487
0.00760792
0.0086637
0.00981051
0.0110497
0.0123812
0.0137905
0.0152723
0.0168187
0.0184203
0.0200668
0.0217421
0.0234299
0.025113
0.026774
0.0283951
0.0299594
0.0314514
0.0328591
0.0341687
0.0353695
0.0364531
0.0374256
0.0382777
0.0390171
0.0396331
0.0401632
0.0405952
0.0410188
0.0413916
0.0419075
0.0424224
0.0433722
0.0443139
0.0462937
0.0479423
0.0517274
0.0528801
0.298046
0.154368
0.0861738
0.0514241
0.03191
0.0198399
0.0121079
0.0073776
0.00463642
0.00313585
0.00236259
0.00203039
0.00196584
0.00207453
0.00229939
0.00261689
0.0030143
0.00349274
0.00405123
0.00469425
0.00542536
0.00624759
0.00716305
0.00817294
0.00927811
0.010476
0.011768
0.013153
0.014613
0.0161447
0.0177389
0.0193835
0.0210665
0.0227724
0.0244841
0.0261836
0.0278528
0.0294735
0.0310283
0.0325017
0.0338812
0.0351526
0.0363041
0.0373244
0.0382181
0.0389791
0.0396177
0.0401255
0.0405404
0.0408517
0.0411469
0.0413864
0.041757
0.042122
0.0428987
0.0436646
0.0454167
0.0468468
0.0502944
0.0512425
0.2978
0.154442
0.0865316
0.0521175
0.0330794
0.0213482
0.013616
0.00863171
0.00557876
0.00382179
0.00287126
0.00243008
0.00230616
0.00239059
0.00261362
0.00294327
0.00336079
0.00386586
0.00445534
0.00513338
0.00590302
0.00676694
0.00772682
0.00878351
0.00993781
0.0111862
0.0125301
0.0139664
0.0154749
0.0170539
0.01869
0.020372
0.0220867
0.0238178
0.0255476
0.0272573
0.0289281
0.0305412
0.0320794
0.0335266
0.0348703
0.0360961
0.0371915
0.0381434
0.0389558
0.0396251
0.0401637
0.0405659
0.0408694
0.0410655
0.0412394
0.0413543
0.0415903
0.0418177
0.0424367
0.0430441
0.0445917
0.0458283
0.0489768
0.0497509
0.297654
0.154587
0.0868678
0.0526497
0.0339883
0.0226358
0.0150408
0.00992341
0.00661513
0.00461062
0.00347196
0.00290693
0.0027114
0.00276281
0.00297834
0.00331795
0.00375484
0.0042866
0.00490734
0.00562073
0.00642915
0.00733484
0.00833899
0.00944201
0.0106448
0.0119426
0.0133373
0.0148217
0.0163752
0.0179953
0.0196688
0.0213831
0.023124
0.0248744
0.0266158
0.0283287
0.0299938
0.0315919
0.0331055
0.0345186
0.0358185
0.0369912
0.0380236
0.038902
0.03963
0.0402064
0.0406455
0.0409439
0.0411395
0.0412253
0.0412844
0.0412827
0.0413939
0.0414949
0.0419698
0.0424341
0.0437969
0.0448615
0.0477427
0.048369
0.297576
0.154779
0.0871932
0.0530639
0.03467
0.0236875
0.0163319
0.0112056
0.00771991
0.00549506
0.00416734
0.00346733
0.00318855
0.00319824
0.00340086
0.00374632
0.00420137
0.00475955
0.00541154
0.00616033
0.00700746
0.00795463
0.0090025
0.0101509
0.011401
0.0127468
0.0141897
0.0157164
0.0173107
0.0189674
0.0206732
0.0224142
0.0241751
0.025938
0.0276838
0.0293923
0.0310437
0.0326186
0.0340993
0.03547
0.0367181
0.0378298
0.0387923
0.0395919
0.0402322
0.0407141
0.0410538
0.04125
0.0413408
0.041321
0.0412714
0.0411605
0.0411561
0.0411412
0.0414844
0.0418192
0.0430147
0.043926
0.0465668
0.0470683
0.297541
0.155
0.0875136
0.0533957
0.0351634
0.0245049
0.0174493
0.0124281
0.00885809
0.00645927
0.00495453
0.00411479
0.00374328
0.00370266
0.00388672
0.00423493
0.00470643
0.00528932
0.00597228
0.00675621
0.00764167
0.00862967
0.00972027
0.0109127
0.0122069
0.0135979
0.0150846
0.0166498
0.0182803
0.0199685
0.0217007
0.0234619
0.0252359
0.027004
0.0287463
0.0304422
0.0320715
0.0336144
0.0350535
0.036373
0.0375608
0.0386036
0.0394893
0.0402046
0.0407538
0.0411395
0.0413796
0.0414751
0.041464
0.041343
0.0411906
0.040978
0.0408665
0.0407456
0.0409687
0.0411867
0.0422302
0.0430053
0.0454288
0.0458259
0.297533
0.155235
0.0878311
0.0536738
0.035509
0.0251044
0.0183673
0.013543
0.00998739
0.0074782
0.00582346
0.00484829
0.00437871
0.00428045
0.00444036
0.00478798
0.00527418
0.00588086
0.00659401
0.00741225
0.00833491
0.00936227
0.0104937
0.0117278
0.0130634
0.0144965
0.016022
0.0176212
0.0192824
0.0209963
0.0227483
0.0245228
0.0263022
0.0280673
0.0297976
0.031472
0.03307
0.0345718
0.03596
0.0372194
0.0383383
0.0393043
0.0401062
0.0407319
0.0411862
0.041474
0.0416143
0.0416103
0.0415003
0.0412826
0.0410334
0.0407261
0.0405161
0.0402989
0.0404127
0.0405259
0.0414315
0.0420857
0.0443124
0.0446238
0.297542
0.155474
0.0881457
0.0539194
0.0357449
0.0255127
0.0190757
0.0145094
0.0110617
0.00851812
0.00675578
0.00566076
0.00509404
0.00493353
0.00506456
0.0054084
0.00590756
0.00653707
0.00727956
0.00813108
0.00908955
0.0101544
0.0113243
0.0125972
0.013971
0.0154428
0.0170012
0.0186291
0.020315
0.0220478
0.0238125
0.0255923
0.0273688
0.0291222
0.0308313
0.0324748
0.0340318
0.0354828
0.0368107
0.0380007
0.039042
0.0399232
0.0406344
0.0411651
0.041521
0.0417089
0.0417493
0.0416474
0.0414416
0.0411316
0.0407915
0.0403969
0.0400968
0.0397927
0.0398078
0.0398277
0.0406085
0.0411562
0.0432043
0.0434471
0.29756
0.155711
0.0884561
0.0541474
0.0359052
0.025763
0.0195793
0.0152977
0.0120357
0.00953854
0.00772441
0.00653766
0.00588309
0.00566012
0.00575941
0.00609706
0.00660781
0.0072594
0.00803048
0.0089142
0.00990694
0.0110072
0.0122129
0.0135212
0.0149294
0.0164353
0.0180204
0.019671
0.0213748
0.0231193
0.0248887
0.0266653
0.02843
0.0301621
0.0318403
0.0334428
0.0349488
0.0363389
0.0375966
0.0387079
0.0396627
0.0404513
0.0410651
0.0414955
0.0417497
0.0418361
0.0417765
0.0415785
0.04128
0.0408826
0.0404577
0.0399833
0.0396016
0.03922
0.0391468
0.0390845
0.0397527
0.0402075
0.0420937
0.0422839
0.297582
0.15594
0.0887603
0.0543678
0.0360179
0.0258908
0.0198957
0.0158923
0.0128696
0.0104955
0.00869443
0.00745633
0.00673295
0.00645341
0.00652124
0.00685178
0.00737362
0.00804711
0.0088464
0.00976146
0.0107869
0.0119203
0.0131588
0.0144987
0.0159373
0.0174708
0.0190768
0.0207436
0.0224578
0.024206
0.0259713
0.0277355
0.0294787
0.0311796
0.0328165
0.0343675
0.035812
0.0371309
0.0383084
0.0393314
0.0401911
0.0408792
0.0413892
0.0417145
0.0418638
0.0418472
0.0416882
0.0413958
0.0410084
0.0405287
0.0400254
0.0394787
0.039024
0.0385747
0.0384233
0.0382899
0.0388574
0.0392321
0.0409718
0.0411244
0.297606
0.156158
0.0890563
0.0545862
0.0361051
0.0259305
0.0200517
0.016292
0.0135334
0.0113458
0.0096252
0.00838602
0.00762311
0.00730035
0.00734143
0.00766635
0.00820018
0.0088964
0.00972429
0.0106703
0.0117273
0.0128916
0.0141596
0.0155273
0.0169917
0.018546
0.0201664
0.0218418
0.0235585
0.0253015
0.0270536
0.0287955
0.0305069
0.032166
0.0337508
0.0352395
0.0366117
0.0378489
0.038936
0.0398614
0.0406174
0.0411976
0.0415976
0.0418132
0.0418548
0.0417344
0.0414766
0.0410925
0.0406201
0.0400635
0.0394887
0.0388777
0.0383589
0.0378515
0.0376322
0.0374387
0.0379168
0.0382241
0.0398316
0.0399609
0.297629
0.156365
0.0893421
0.0548054
0.0361832
0.0259133
0.0200794
0.0165094
0.0140103
0.0120518
0.0104738
0.00928935
0.00852532
0.00818081
0.00820535
0.00852945
0.00907824
0.00979949
0.0106575
0.0116351
0.0127228
0.0139161
0.0152108
0.0166021
0.0180877
0.0196552
0.0212829
0.0229592
0.0246695
0.0263981
0.028127
0.0298364
0.0315052
0.0331114
0.034633
0.0360482
0.0373371
0.0384819
0.0394688
0.0402872
0.0409312
0.0413965
0.0416809
0.0417829
0.0417147
0.04149
0.0411348
0.0406619
0.040109
0.0394815
0.0388424
0.0381755
0.0376017
0.0370461
0.0367693
0.0365265
0.0369266
0.0371786
0.0386676
0.0387871
0.29765
0.156558
0.0896164
0.0550259
0.0362631
0.025865
0.0200124
0.0165674
0.0142976
0.0125856
0.0111991
0.0101249
0.00940443
0.00906731
0.00909164
0.0094238
0.00999316
0.0107437
0.0116351
0.0126459
0.0137648
0.0149859
0.0163046
0.0177155
0.0192172
0.0207906
0.0224182
0.0240869
0.0257818
0.0274863
0.0291816
0.0308475
0.0324626
0.0340046
0.0354515
0.0367819
0.0379765
0.0390185
0.0398952
0.0405978
0.0411221
0.0414659
0.0416298
0.0416149
0.0414353
0.0411067
0.0406561
0.0400981
0.0394699
0.038778
0.0380822
0.0373681
0.0367488
0.0361552
0.0358313
0.0355502
0.0358832
0.0360918
0.0374754
0.0375979
0.297669
0.156739
0.0898783
0.0552472
0.0363515
0.0258062
0.0198828
0.0164959
0.0144061
0.012932
0.0117668
0.0108507
0.0102205
0.00992569
0.00997207
0.0103256
0.0109242
0.0117107
0.0126404
0.0136882
0.0148399
0.0160888
0.0174295
0.0188566
0.0203682
0.0219414
0.0235611
0.0252138
0.0268838
0.028554
0.0302051
0.0318165
0.0333664
0.0348327
0.0361934
0.0374278
0.0385172
0.0394461
0.0402032
0.0407815
0.0411789
0.0413956
0.0414348
0.0413007
0.041009
0.0405777
0.0400345
0.0393958
0.0386981
0.037949
0.0372047
0.0364525
0.0357975
0.0351762
0.0348158
0.0345073
0.0347844
0.0349611
0.0362519
0.0363896
0.297685
0.156907
0.0901271
0.055468
0.0364518
0.0257519
0.019719
0.0163281
0.0143579
0.0130903
0.0121531
0.0114293
0.0109319
0.0107169
0.0108122
0.0112047
0.0118444
0.0126758
0.0136513
0.0147414
0.0159296
0.0172076
0.0185697
0.0200102
0.0215262
0.0230931
0.0246976
0.0263256
0.0279613
0.029587
0.0311831
0.0327288
0.0342022
0.0355812
0.0368443
0.0379715
0.0389452
0.0397513
0.04038
0.0408265
0.0410907
0.0411755
0.0410869
0.040832
0.0404288
0.0398968
0.0392649
0.0385508
0.0377902
0.0369916
0.0362075
0.0354268
0.0347462
0.0341078
0.0337215
0.0333966
0.0336285
0.0337848
0.0349949
0.0351593
0.297699
0.157063
0.0903628
0.0556867
0.0365648
0.025712
0.0195443
0.0160969
0.014183
0.0130732
0.0123477
0.0118312
0.0114996
0.0113999
0.0115731
0.0120251
0.0127205
0.0136081
0.0146388
0.0157791
0.0170094
0.0183197
0.0197041
0.0211567
0.0226725
0.0242277
0.0258098
0.027405
0.0289971
0.0305682
0.0320987
0.0335676
0.0349531
0.0362337
0.0373883
0.0383977
0.0392458
0.0399199
0.0404124
0.0407202
0.040846
0.0407953
0.040577
0.0402013
0.0396881
0.0390588
0.0383429
0.0375596
0.0367435
0.035904
0.0350894
0.03429
0.0335941
0.0329494
0.032548
0.0322176
0.0324152
0.0325622
0.0337032
0.0339052
0.297711
0.157208
0.0905857
0.0559018
0.0366897
0.0256923
0.0193764
0.0158321
0.0139149
0.0129046
0.0123545
0.0120397
0.0118917
0.0119356
0.0122141
0.0127473
0.0135144
0.0144712
0.0155682
0.0167683
0.0180484
0.0193964
0.0208059
0.0222709
0.0237835
0.0253225
0.0268761
0.0284308
0.0299705
0.0314775
0.0329321
0.0343136
0.0356007
0.036772
0.0378077
0.0386896
0.039403
0.0399372
0.0402864
0.0404503
0.0404338
0.0402454
0.0398969
0.0394016
0.0387814
0.0380593
0.0372655
0.0364203
0.035557
0.0346856
0.0338503
0.0330426
0.032342
0.0317018
0.0312961
0.030971
0.0311449
0.0312932
0.0323767
0.0326264
0.29772
0.157344
0.0907961
0.056112
0.0368248
0.0256952
0.0192276
0.0155587
0.0135876
0.0126163
0.0121912
0.0120519
0.0120872
0.0122908
0.0126964
0.0133307
0.0141853
0.0152243
0.0163994
0.0176703
0.0190097
0.020403
0.0218425
0.0233222
0.0248305
0.0263502
0.0278704
0.029378
0.0308576
0.0322917
0.033661
0.0349454
0.0361239
0.0371764
0.0380837
0.0388293
0.0394002
0.0397876
0.0399883
0.0400042
0.0398432
0.0395166
0.0390391
0.0384272
0.0377044
0.0368955
0.0360311
0.0351323
0.034231
0.0333375
0.0324917
0.0316863
0.0309918
0.0303668
0.0299676
0.0296583
0.029819
0.0299791
0.0310159
0.0313227
0.297728
0.15747
0.0909948
0.0563164
0.0369679
0.0257206
0.0191055
0.0152963
0.0132319
0.0122436
0.011886
0.01188
0.0120791
0.0124432
0.0129874
0.013737
0.0146923
0.0158249
0.0170892
0.0184419
0.0198512
0.0212989
0.0227753
0.0242742
0.0257793
0.0272786
0.0287621
0.0302176
0.0316306
0.0329843
0.0342602
0.0354387
0.0365001
0.037425
0.038196
0.038798
0.03922
0.0394556
0.039504
0.03937
0.0390641
0.0386006
0.0379973
0.0372734
0.0364543
0.0355662
0.0346398
0.0336968
0.0327676
0.0318624
0.0310168
0.0302245
0.0295469
0.0289478
0.0285655
0.0282824
0.0284401
0.0286217
0.0296223
0.0299948
0.297734
0.157588
0.0911826
0.0565143
0.0371165
0.025767
0.0190138
0.0150585
0.0128738
0.0118216
0.0114742
0.0115488
0.0118757
0.0123838
0.0130649
0.0139353
0.0149983
0.0162319
0.0175935
0.0190375
0.0205271
0.0220391
0.0235609
0.0250847
0.0265907
0.0280708
0.0295164
0.0309167
0.0322584
0.0335258
0.0347017
0.0357674
0.0367045
0.0374951
0.0381233
0.0385762
0.038845
0.0389257
0.0388203
0.0385364
0.0380875
0.0374907
0.0367669
0.0359377
0.0350304
0.0340722
0.0330938
0.0321173
0.0311709
0.0302651
0.0294307
0.0286623
0.0280121
0.0274494
0.0270943
0.0268472
0.0270116
0.0272241
0.0281985
0.0286441
0.297738
0.157698
0.0913601
0.0567052
0.0372685
0.0258317
0.0189532
0.0148539
0.0125337
0.0113819
0.0109934
0.0110926
0.0114995
0.0121194
0.0129206
0.0139052
0.0150744
0.0164098
0.0178716
0.0194125
0.0209903
0.0225759
0.0241523
0.0257086
0.0272215
0.0286858
0.0300945
0.0314388
0.0327067
0.0338842
0.0349554
0.0359034
0.0367111
0.0373626
0.037844
0.0381445
0.038258
0.0381831
0.0379248
0.0374937
0.036906
0.0361821
0.0353452
0.0344197
0.0334342
0.0324169
0.0313979
0.0303994
0.0294476
0.0285526
0.0277405
0.0270067
0.0263945
0.025878
0.0255598
0.0253579
0.0255382
0.02579
0.0267477
0.0272729
0.297742
0.157802
0.0915283
0.0568889
0.037422
0.0259117
0.018922
0.0146867
0.0122254
0.0109507
0.0104797
0.0105509
0.0109844
0.011672
0.0125621
0.0136411
0.0149038
0.0163326
0.0178899
0.019527
0.0211965
0.0228623
0.0245013
0.0260984
0.0276258
0.0290797
0.0304551
0.0317448
0.0329389
0.0340252
0.0349897
0.0358174
0.0364932
0.0370034
0.0373363
0.0374839
0.0374427
0.0372144
0.036807
0.036234
0.0355148
0.0346724
0.0337327
0.0327222
0.0316706
0.0306067
0.0295599
0.0285521
0.0276071
0.0267345
0.0259559
0.0252671
0.0247026
0.0242417
0.0239694
0.023821
0.0240259
0.0243244
0.0252741
0.0258843
0.297744
0.157901
0.091688
0.0570656
0.0375754
0.0260038
0.0189177
0.0145578
0.0119577
0.0105477
0.00996465
0.00996322
0.0103713
0.0110759
0.0120127
0.0131537
0.0144853
0.0159884
0.0176268
0.0193508
0.0211083
0.0228557
0.0245625
0.0262076
0.0277573
0.0292078
0.0305553
0.0317944
0.0329173
0.0339139
0.0347724
0.0354801
0.0360243
0.0363938
0.0365797
0.0365769
0.0363848
0.0360084
0.0354588
0.0347526
0.0339121
0.0329628
0.0319331
0.0308513
0.0297478
0.0286516
0.0275911
0.0265874
0.025662
0.0248235
0.0240891
0.023455
0.0229475
0.0225503
0.0223321
0.0222444
0.0224816
0.0228334
0.0237829
0.0244821
0.297746
0.157994
0.09184
0.0572353
0.0377274
0.0261053
0.0189365
0.0144655
0.0117345
0.0101863
0.00947345
0.00936599
0.00970305
0.0103742
0.0113092
0.0124701
0.0138351
0.0153824
0.0170765
0.0188678
0.0207002
0.022523
0.0242968
0.025994
0.0275725
0.029027
0.0303536
0.0315482
0.032605
0.0335161
0.0342722
0.0348633
0.0352795
0.0355124
0.0355561
0.0354087
0.035073
0.0345573
0.0338759
0.0330485
0.0321001
0.0310589
0.0299548
0.0288178
0.0276786
0.0265659
0.0255068
0.0245213
0.0236282
0.0228353
0.0221553
0.0215848
0.0211423
0.020816
0.0206587
0.0206377
0.0209137
0.0213239
0.0222802
0.0230711
0.297747
0.158082
0.0919851
0.0573985
0.0378772
0.0262134
0.0189746
0.0144065
0.0115559
0.00987377
0.00902401
0.00878919
0.00902011
0.00961308
0.0104979
0.0116313
0.0129863
0.0145381
0.0162523
0.0180801
0.0199634
0.0218452
0.0236775
0.0254243
0.0270354
0.0285
0.0298129
0.0309703
0.031968
0.0328005
0.0334609
0.0339421
0.0342372
0.0343409
0.0342509
0.0339687
0.0335005
0.0328581
0.032059
0.0311261
0.0300867
0.0289713
0.0278112
0.0266375
0.0254807
0.0243687
0.0233269
0.022374
0.0215259
0.0207893
0.0201729
0.0196736
0.0193028
0.0190528
0.0189619
0.0190119
0.0193321
0.0198043
0.0207733
0.0216566
0.297748
0.158167
0.092124
0.0575554
0.038024
0.0263259
0.0190285
0.0143769
0.0114198
0.00961288
0.00862741
0.00825515
0.00835686
0.00883675
0.00962843
0.0106881
0.0119862
0.0134968
0.015187
0.0170107
0.0189098
0.0208231
0.0226948
0.02448
0.0261219
0.0275993
0.0289042
0.0300321
0.0309792
0.031742
0.032316
0.0326969
0.0328812
0.0328671
0.0326557
0.0322522
0.0316665
0.0309139
0.0300152
0.028996
0.027886
0.0267173
0.0255224
0.0243325
0.0231777
0.0220846
0.0210765
0.0201703
0.0193792
0.0187086
0.0181636
0.0177415
0.0174472
0.017277
0.0172561
0.0173797
0.0177477
0.018284
0.0192701
0.0202451
0.297749
0.158249
0.0922575
0.0577066
0.0381675
0.0264411
0.0190948
0.0143722
0.0113223
0.00940262
0.00828876
0.00777838
0.00773951
0.00808341
0.00874894
0.00969463
0.0108912
0.0123137
0.0139319
0.0157038
0.0175741
0.0194804
0.0213614
0.0231636
0.0248256
0.0263128
0.0276121
0.0287164
0.0296215
0.0303246
0.0308236
0.0311168
0.0312038
0.0310866
0.0307698
0.0302626
0.0295784
0.0287362
0.0277596
0.026677
0.02552
0.0243218
0.0231153
0.0219317
0.0207995
0.019744
0.0187858
0.0179398
0.0172165
0.0166202
0.0161524
0.0158113
0.0155962
0.0155071
0.0155577
0.0157552
0.0161731
0.0167733
0.0177799
0.0188438
0.297749
0.158328
0.0923862
0.0578524
0.0383075
0.0265576
0.0191703
0.0143881
0.0112586
0.00923956
0.00800852
0.00736632
0.00718552
0.00738248
0.00790088
0.00870262
0.00976067
0.0110524
0.0125516
0.0142218
0.0160131
0.0178653