/*--------------------------------*- C++ -*----------------------------------*\
| =========                 |                                                 |
| \\      /  F ield         | OpenFOAM: The Open Source CFD Toolbox           |
|  \\    /   O peration     | Version:  2.4.0                                 |
|   \\  /    A nd           | Web:      www.OpenFOAM.org                      |
|    \\/     M anipulation  |                                                 |
\*---------------------------------------------------------------------------*/
FoamFile
{
    version     2.0;
    format      ascii;
    class       volVectorField;
    location    "5.5";
    object      U;
}
// * * * * * * * * * * * * * * * * * * * * * * * * * * * * * * * * * * * * * //

dimensions      [0 1 -1 0 0 0 0];

internalField   nonuniform List<vector> 
6000
(
(0.165118 -0.00671287 1.30086e-18)
(-0.00974572 0.00185842 0)
(0.000828912 -0.000234281 7.23873e-18)
(-0.00663352 0.00128754 0)
(-0.00500561 0.000987379 0)
(-0.00607636 0.00113992 0)
(-0.00534369 0.000984061 4.01605e-18)
(-0.00550791 0.000961975 3.33596e-22)
(-0.00512497 0.000866406 0)
(-0.00512663 0.000821799 0)
(-0.00495323 0.000759817 3.91697e-18)
(-0.00498203 0.000722889 -7.75939e-18)
(-0.00498586 0.00068696 0)
(-0.00512215 0.000664906 0)
(-0.00529578 0.000648 -1.88244e-18)
(-0.00556936 0.000638104 0)
(-0.00590216 0.000631481 0)
(-0.00631797 0.00062702 -1.83435e-18)
(-0.00679885 0.000622459 -1.82138e-18)
(-0.0073523 0.000615996 0)
(-0.00796859 0.000605731 1.80098e-18)
(-0.0086461 0.000589688 8.96901e-19)
(-0.00937485 0.000566022 -8.94389e-19)
(-0.010146 0.000532874 0)
(-0.0109455 0.000488727 0)
(-0.0117593 0.000432373 0)
(-0.0125705 0.000363051 4.48193e-19)
(-0.0133604 0.000280392 -4.50105e-19)
(-0.0141068 0.0001846 0)
(-0.0147846 7.65052e-05 0)
(-0.0153658 -4.23108e-05 5.75445e-20)
(-0.0158194 -0.000169502 0)
(-0.0161128 -0.000302239 4.7125e-19)
(-0.016211 -0.000434225 -4.77977e-19)
(-0.0160777 -0.000555877 0)
(-0.0156751 -0.000665675 0)
(-0.0149678 -0.000754488 1.00654e-18)
(-0.0139182 -0.000813014 0)
(-0.0124947 -0.00083075 1.04816e-18)
(-0.0106601 -0.000796856 0)
(-0.00839656 -0.000699221 0)
(-0.00567386 -0.000526731 2.23699e-18)
(-0.00251767 -0.000267706 -4.56978e-18)
(0.00103093 8.35061e-05 0)
(0.00456854 0.000494005 0)
(0.00831333 0.000974004 2.42188e-18)
(0.0120958 0.00152721 0)
(0.0162425 0.00217189 0)
(0.020246 0.00289026 -5.01796e-18)
(0.0249054 0.00372908 -5.04448e-18)
(0.0288855 0.00460488 -5.02137e-18)
(0.0343384 0.00568259 -1.82614e-21)
(0.0377578 0.0066683 4.85708e-18)
(0.0448804 0.00811259 0)
(0.0465322 0.00905149 -3.02346e-21)
(0.0576598 0.0112529 -4.30756e-18)
(0.0547676 0.0116538 3.44745e-18)
(0.0756371 0.0157613 3.55255e-18)
(0.0628681 0.0146391 4.16055e-21)
(0.104456 0.0229718 0)
(0.360298 -0.0164519 -1.80707e-18)
(0.0030176 0.00650584 4.29121e-18)
(0.00549242 -0.000893823 -4.34126e-18)
(-0.0149549 0.0033757 -4.60513e-18)
(-0.0124292 0.00257909 0)
(-0.0157698 0.00305963 0)
(-0.0142805 0.00266492 -4.58488e-18)
(-0.0148768 0.00262501 9.08166e-18)
(-0.0140277 0.00238219 0)
(-0.014092 0.00226938 0)
(-0.0137054 0.00211377 -4.34568e-18)
(-0.0138107 0.00202161 4.28141e-18)
(-0.0138607 0.00193502 2.10872e-18)
(-0.0142442 0.00188449 0)
(-0.0147338 0.00184858 2.05075e-18)
(-0.0154806 0.00183098 0)
(-0.016386 0.00182196 0)
(-0.0175043 0.00181799 0)
(-0.01879 0.00181287 0)
(-0.0202569 0.00180142 0)
(-0.0218776 0.00177822 -1.23891e-23)
(-0.0236426 0.00173759 0)
(-0.0255226 0.00167428 -9.55041e-19)
(-0.0274897 0.00158308 0)
(-0.0295046 0.00145984 0)
(-0.0315269 0.00130147 4.75419e-19)
(-0.033511 0.00110608 -4.76248e-19)
(-0.0354064 0.000872806 -2.54656e-24)
(-0.0371549 0.000602358 2.40196e-19)
(-0.0386926 0.000297178 0)
(-0.0399486 -3.82175e-05 -6.10072e-20)
(-0.0408468 -0.000397085 -2.46651e-19)
(-0.0413062 -0.000770743 9.37823e-24)
(-0.0412414 -0.0011442 5.06661e-19)
(-0.0405658 -0.00149777 -5.14805e-19)
(-0.0391894 -0.00181967 0)
(-0.0370247 -0.00208693 0)
(-0.0339804 -0.00227524 0)
(-0.029977 -0.00235667 0)
(-0.024922 -0.00230224 0)
(-0.0187664 -0.00207855 -2.32507e-18)
(-0.0114405 -0.00165366 0)
(-0.0030333 -0.000989281 2.42245e-18)
(0.00623698 -5.55151e-05 2.47251e-18)
(0.0154157 0.00105739 0)
(0.0251041 0.0023452 0)
(0.0349036 0.00382385 0)
(0.0455169 0.00553366 0)
(0.0558338 0.00743922 5.46401e-18)
(0.0675867 0.00964069 0)
(0.0779059 0.0119596 0)
(0.0914139 0.0147553 -5.53168e-18)
(0.10064 0.0173837 -5.42045e-18)
(0.117816 0.0210685 0)
(0.123482 0.0236677 -1.00057e-17)
(0.149406 0.0291354 0)
(0.145779 0.0306687 -7.98055e-18)
(0.193008 0.0404871 -4.13016e-18)
(0.16897 0.0387877 1.68455e-18)
(0.262925 0.0576395 2.97301e-18)
(0.500824 -0.0113661 -1.73808e-19)
(0.0412806 0.00906094 -4.2544e-18)
(0.0141245 -0.00129312 0)
(-0.0188698 0.00483402 4.61248e-18)
(-0.0175035 0.00374048 0)
(-0.0234468 0.00457159 0)
(-0.0218114 0.00403407 0)
(-0.0229991 0.00400808 -4.54637e-18)
(-0.0219382 0.00367234 0)
(-0.022144 0.00351579 -4.41719e-18)
(-0.0216597 0.00330275 0)
(-0.0218754 0.00317701 0)
(-0.0220141 0.00306578 -2.10993e-18)
(-0.0226438 0.00300597 0)
(-0.0234438 0.00297039 0)
(-0.0246309 0.002961 0)
(-0.0260646 0.00296453 0)
(-0.0278188 0.00297402 0)
(-0.0298262 0.00298021 0)
(-0.032101 0.00297427 1.94274e-18)
(-0.0345989 0.00294753 -1.9284e-18)
(-0.0372993 0.0028905 0)
(-0.0401525 0.00279465 6.97404e-24)
(-0.04311 0.00265153 -9.50687e-19)
(-0.0461069 0.00245469 0)
(-0.0490768 0.00219956 -9.48818e-19)
(-0.0519455 0.00188354 0)
(-0.0546322 0.00150561 4.76565e-19)
(-0.0570458 0.00106732 -2.39436e-19)
(-0.0590875 0.000573031 0)
(-0.0606498 3.04937e-05 0)
(-0.0616191 -0.000548863 2.45519e-19)
(-0.0618763 -0.00114996 -4.60426e-24)
(-0.0612978 -0.00175165 0)
(-0.0597607 -0.00233044 1.02227e-18)
(-0.0571402 -0.00285858 0)
(-0.0533172 -0.00330284 1.05731e-18)
(-0.0481719 -0.00362738 0)
(-0.0416044 -0.0037909 0)
(-0.0335082 -0.0037513 0)
(-0.0238493 -0.00345906 2.27485e-18)
(-0.0125912 -0.00286596 0)
(4.04634e-05 -0.00190827 0)
(0.0136863 -0.000531039 -2.37782e-18)
(0.0274469 0.00115533 0)
(0.0421159 0.00311394 0)
(0.0571114 0.0053839 2.58519e-18)
(0.0733172 0.00800262 -2.6428e-18)
(0.0892458 0.0109489 -2.68611e-18)
(0.107164 0.0143104 0)
(0.123292 0.0179245 0)
(0.143709 0.0221489 0)
(0.158603 0.0263171 5.37792e-18)
(0.184087 0.0317694 5.32721e-18)
(0.194554 0.0361093 4.98681e-18)
(0.231991 0.0439196 0)
(0.230542 0.0472531 3.98893e-18)
(0.297154 0.060653 8.2719e-18)
(0.26913 0.0603015 0)
(0.402105 0.0848071 -2.99153e-18)
(0.605049 0.000253544 -1.44286e-19)
(0.0969962 0.0110042 4.12983e-18)
(0.0279034 -0.00122766 -4.32969e-18)
(-0.0183251 0.00584366 0)
(-0.0200983 0.0045641 0)
(-0.0290449 0.00577077 0)
(-0.0278663 0.00514188 0)
(-0.0298318 0.00516559 0)
(-0.028811 0.00476988 0)
(-0.0292485 0.00459567 4.41997e-18)
(-0.0287806 0.00434707 4.35053e-18)
(-0.0291444 0.00420762 0)
(-0.0294113 0.00408932 0)
(-0.0302847 0.00403651 0)
(-0.0313838 0.00401588 2.05069e-18)
(-0.0329717 0.00402782 0)
(-0.0348791 0.00405542 1.99928e-18)
(-0.0371903 0.00408839 -1.97695e-18)
(-0.0398199 0.00411445 0)
(-0.042777 0.00412125 -1.93936e-18)
(-0.0460006 0.00409681 0)
(-0.0494553 0.00402793 -9.55819e-19)
(-0.0530705 0.00390288 1.9017e-18)
(-0.0567755 0.00371025 9.47231e-19)
(-0.0604803 0.00344168 0)
(-0.0640929 0.00309172 4.721e-19)
(-0.0675131 0.00265754 0)
(-0.0706328 0.0021384 4.73533e-19)
(-0.0733331 0.00153709 0)
(-0.0754874 0.000860147 0)
(-0.0769612 0.00011861 0)
(-0.077615 -0.000671695 2.42962e-19)
(-0.0773056 -0.00149009 -9.82004e-19)
(-0.0758892 -0.00230967 0)
(-0.0732264 -0.00309983 -5.03182e-19)
(-0.0691802 -0.0038239 0)
(-0.0636262 -0.00443998 -1.03561e-18)
(-0.0564459 -0.00490339 0)
(-0.0475533 -0.0051631 0)
(-0.0368673 -0.00516753 0)
(-0.0244057 -0.0048555 2.18904e-18)
(-0.0101985 -0.00416487 0)
(0.00541648 -0.00301264 2.21912e-18)
(0.0221293 -0.00133204 -2.24659e-18)
(0.0394403 0.000763496 0)
(0.0580989 0.00322472 -2.40312e-18)
(0.0774126 0.00611884 -4.95402e-18)
(0.0983168 0.0094806 2.54603e-18)
(0.119124 0.0133046 5.19832e-18)
(0.142317 0.0176517 -5.29108e-18)
(0.163689 0.0224004 -5.32995e-18)
(0.189962 0.0278392 0)
(0.210271 0.0334055 -5.28621e-18)
(0.2425 0.0402984 -5.25357e-18)
(0.258245 0.0463234 -4.91484e-18)
(0.304317 0.0558573 0)
(0.30726 0.0611759 0)
(0.387144 0.0768037 -4.10987e-18)
(0.360961 0.0786165 0)
(0.520647 0.105548 2.92526e-18)
(0.684215 0.014367 -1.25456e-19)
(0.162881 0.0131474 -3.18916e-20)
(0.0478697 -0.000608022 4.30378e-18)
(-0.0132752 0.00653884 4.6059e-18)
(-0.0200944 0.00513267 0)
(-0.0325174 0.00670569 -4.64448e-18)
(-0.0323857 0.00602137 0)
(-0.0353454 0.00612065 0)
(-0.0346111 0.00569179 0)
(-0.0353832 0.00552103 4.42093e-18)
(-0.0350421 0.00525619 -4.35144e-18)
(-0.0355957 0.00511984 0)
(-0.0360261 0.00500954 0)
(-0.0371391 0.00497729 0)
(-0.0385194 0.00498341 -2.04921e-18)
(-0.0404621 0.00502675 0)
(-0.0427781 0.00508658 -1.99631e-18)
(-0.0455549 0.00514944 1.97306e-18)
(-0.0486907 0.00519991 0)
(-0.0521851 0.0052223 0)
(-0.0559595 0.00520135 9.58363e-19)
(-0.059961 0.00512039 9.51364e-19)
(-0.0640974 0.00496474 -1.89112e-18)
(-0.0682762 0.00472049 -9.41024e-19)
(-0.0723837 0.00437804 0)
(-0.0763058 0.00393176 4.67948e-19)
(-0.0799207 0.00337929 0)
(-0.0830998 0.00272076 -4.68121e-19)
(-0.0857057 0.00196069 2.34617e-19)
(-0.0875953 0.00110818 0)
(-0.0886209 0.00017765 0)
(-0.0886339 -0.000810898 -4.7689e-19)
(-0.0874856 -0.00183177 4.80661e-19)
(-0.0850338 -0.00285326 0)
(-0.0811427 -0.00383811 -4.89728e-19)
(-0.0756848 -0.00474405 0)
(-0.0685507 -0.00552285 1.00096e-18)
(-0.0596427 -0.00612373 0)
(-0.048902 -0.00648911 0)
(-0.0362805 -0.00656054 0)
(-0.0218365 -0.00626807 -2.07884e-18)
(-0.00563563 -0.00553649 -2.08548e-18)
(0.0119597 -0.00427042 -2.08644e-18)
(0.0307959 -0.00240463 1.18882e-21)
(0.0507377 -5.01118e-05 -2.17791e-18)
(0.0724 0.00274925 2.25826e-18)
(0.0950644 0.00608673 4.66646e-18)
(0.119671 0.0100028 0)
(0.144487 0.0145096 -2.46913e-18)
(0.172018 0.0196477 5.05178e-18)
(0.197968 0.0253413 5.11231e-18)
(0.229153 0.0317913 0)
(0.254514 0.0385849 0)
(0.292272 0.0466611 0)
(0.313466 0.0542504 4.79841e-18)
(0.366051 0.0650682 0)
(0.374736 0.0724 0)
(0.463395 0.0893054 4.02513e-18)
(0.442854 0.0936476 -1.61612e-18)
(0.619532 0.12084 -2.89721e-18)
(0.745566 0.0291099 -1.12209e-19)
(0.233422 0.0160012 -3.95611e-18)
(0.0745749 0.000578927 0)
(-0.00364304 0.00707698 -4.59588e-18)
(-0.0173806 0.00552728 -4.6199e-18)
(-0.0338146 0.00742402 5.1291e-22)
(-0.0353117 0.00670603 0)
(-0.039512 0.00689726 0)
(-0.0393072 0.0064555 0)
(-0.0405292 0.00630474 -4.42156e-18)
(-0.0404226 0.00603954 0)
(-0.0412112 0.00591981 0)
(-0.0418367 0.00582987 2.10851e-18)
(-0.0431831 0.00582874 0)
(-0.0448205 0.00587045 0)
(-0.0470648 0.00595202 0)
(-0.049714 0.00604877 0)
(-0.0528524 0.00614405 -1.9667e-18)
(-0.0563631 0.00621935 0)
(-0.0602325 0.00625579 1.92338e-18)
(-0.0643638 0.00623502 -9.5245e-19)
(-0.0686859 0.00613732 -9.44253e-19)
(-0.0730867 0.00594556 1.8744e-18)
(-0.0774543 0.0056441 1.86256e-18)
(-0.0816571 0.00522293 0)
(-0.0855657 0.00467713 -4.61497e-19)
(-0.0890458 0.00400558 0)
(-0.0919594 0.00320994 0)
(-0.0941632 0.00229689 -4.59832e-19)
(-0.0955123 0.00127825 0)
(-0.095861 0.000171679 0)
(-0.095067 -0.000999176 4.63675e-19)
(-0.0929927 -0.00220477 0)
(-0.0895082 -0.00340947 0)
(-0.0844907 -0.00457187 4.71656e-19)
(-0.0778287 -0.00564583 0)
(-0.0694301 -0.00657894 -9.57449e-19)
(-0.0592144 -0.00731631 0)
(-0.047141 -0.00779579 0)
(-0.0331782 -0.00795316 0)
(-0.017398 -0.0077109 0)
(0.000132296 -0.00698109 1.9626e-18)
(0.0190827 -0.00566201 1.95801e-18)
(0.0394488 -0.00369913 1.22673e-21)
(0.0613084 -0.00119934 2.03756e-18)
(0.085144 0.00180919 2.10674e-18)
(0.110261 0.0054361 -2.17903e-18)
(0.137585 0.00973167 0)
(0.165444 0.0147235 -2.30937e-18)
(0.196287 0.0204446 2.369e-18)
(0.225947 0.0268621 -4.81084e-18)
(0.261053 0.0341034 0)
(0.290857 0.0419067 0)
(0.333107 0.0509339 -4.86542e-18)
(0.359577 0.0599014 -4.59412e-18)
(0.4172 0.0716914 4.57605e-18)
(0.432222 0.0809369 3.74135e-18)
(0.526717 0.0985099 -3.92875e-18)
(0.513868 0.105435 1.58424e-18)
(0.700568 0.131558 0)
(0.793858 0.0436839 -1.01239e-19)
(0.304747 0.0197906 0)
(0.107939 0.00233675 4.23114e-18)
(0.0106925 0.00761892 4.57957e-18)
(-0.0118545 0.00582606 -6.12712e-23)
(-0.0328779 0.00797311 4.64382e-18)
(-0.0365844 0.00722942 0)
(-0.0423008 0.00751974 0)
(-0.0428679 0.0070786 0)
(-0.0446676 0.00696001 2.21041e-18)
(-0.0449019 0.00670649 2.17484e-18)
(-0.0459747 0.00661363 0)
(-0.0468236 0.00655331 -2.10673e-18)
(-0.0483953 0.00659079 2.07407e-18)
(-0.0502596 0.00667379 0)
(-0.0527459 0.00679709 0)
(-0.0556436 0.00693194 0)
(-0.05903 0.00705849 5.46709e-23)
(-0.0627741 0.00715524 0)
(-0.0668476 0.00720045 -3.81818e-18)
(-0.0711375 0.00717316 9.43821e-19)
(-0.0755567 0.00705123 9.34097e-19)
(-0.0799786 0.00681593 -3.02414e-23)
(-0.0842787 0.0064508 -9.17592e-19)
(-0.0883166 0.00594638 0)
(-0.0919577 0.00529929 0)
(-0.095066 0.00451023 0)
(-0.0975057 0.00358271 2.2435e-19)
(-0.0991386 0.00252559 4.47599e-19)
(-0.0998277 0.00135312 0)
(-0.0994385 8.5561e-05 0)
(-0.0978408 -0.00125076 -4.47499e-19)
(-0.0949113 -0.00262364 -2.2411e-19)
(-0.0905305 -0.00399507 0)
(-0.0845872 -0.00532105 0)
(-0.076981 -0.00655269 0)
(-0.0676296 -0.00763466 0)
(-0.0564612 -0.00850886 0)
(-0.0434418 -0.00910936 0)
(-0.0285436 -0.00936636 0)
(-0.0118368 -0.0091953 0)
(0.00662445 -0.00849656 0)
(0.0265642 -0.00716689 -9.81681e-22)
(0.0480845 -0.00516808 1.86153e-18)
(0.0713541 -0.00260289 0)
(0.0967531 0.000523209 -3.94183e-18)
(0.123629 0.00432665 -2.03069e-18)
(0.152873 0.0088675 0)
(0.182925 0.0141824 2.15142e-18)
(0.216135 0.0203059 -2.20754e-18)
(0.248582 0.0272363 4.48869e-18)
(0.286592 0.0350531 -4.56152e-18)
(0.31999 0.0436198 0)
(0.3657 0.0533676 9.03231e-21)
(0.39686 0.0634575 4.34554e-18)
(0.45836 0.0759711 -8.69069e-18)
(0.479634 0.0869047 -1.31857e-20)
(0.578108 0.104774 -3.74641e-18)
(0.573684 0.114102 1.50144e-18)
(0.765713 0.138448 2.69298e-18)
(0.832278 0.0576538 3.11988e-18)
(0.374274 0.0245418 0)
(0.147321 0.00468327 2.61611e-21)
(0.0298679 0.00828712 -2.75843e-22)
(-0.00341963 0.00613203 4.60677e-18)
(-0.0296367 0.00840129 4.64014e-18)
(-0.0361395 0.00762642 0)
(-0.0436746 0.0080135 4.55177e-18)
(-0.0452592 0.00757944 0)
(-0.0477772 0.00750082 -2.20988e-18)
(-0.0484597 0.00726685 -9.44713e-23)
(-0.0498698 0.00720783 -2.13913e-18)
(-0.0509687 0.00718305 0)
(-0.0527564 0.00726349 -4.14012e-18)
(-0.0548129 0.00739029 0)
(-0.0574772 0.00755562 0)
(-0.0605342 0.00772657 0)
(-0.0640527 0.00788021 1.94456e-18)
(-0.0678902 0.00799238 0)
(-0.0720058 0.00803905 1.88994e-18)
(-0.0762752 0.00799737 -1.86496e-18)
(-0.0806012 0.00784367 0)
(-0.0848503 0.00755853 -3.24241e-23)
(-0.0888946 0.00712556 0)
(-0.0925938 0.00653653 0)
(-0.0958166 0.00579005 -4.41991e-19)
(-0.0984332 0.00488871 0)
(-0.100316 0.00383769 -4.35957e-19)
(-0.101336 0.0026476 -2.16898e-19)
(-0.101366 0.00133447 -5.40183e-20)
(-0.100284 -7.96318e-05 5.38879e-20)
(-0.0979699 -0.00156664 2.15203e-19)
(-0.0943094 -0.00309277 4.30091e-19)
(-0.0891896 -0.00461858 0)
(-0.0825066 -0.00609816 4.31017e-19)
(-0.0741659 -0.00748039 0)
(-0.0640896 -0.0087076 0)
(-0.0522091 -0.0097187 0)
(-0.0384917 -0.0104443 8.73469e-19)
(-0.022908 -0.010809 0)
(-0.00552104 -0.010722 0)
(0.0136338 -0.0100738 1.75483e-18)
(0.0343377 -0.00876306 -1.75341e-18)
(0.0567588 -0.00676999 0)
(0.0810836 -0.00419325 0)
(0.10762 -0.00101223 1.8543e-18)
(0.13576 0.0028898 1.90456e-18)
(0.166354 0.00758182 -1.95476e-18)
(0.197957 0.0131027 0)
(0.232806 0.0194938 0)
(0.267258 0.0267693 0)
(0.307302 0.0349849 7.33366e-21)
(0.343419 0.0440887 0)
(0.391615 0.054351 4.26144e-18)
(0.426613 0.0652794 0)
(0.490945 0.0783045 4.07047e-18)
(0.517826 0.0905999 -3.35957e-18)
(0.61898 0.10854 7.08198e-18)
(0.622739 0.119905 -1.43103e-18)
(0.81702 0.142211 -2.57293e-18)
(0.863048 0.0707569 8.43637e-20)
(0.440366 0.0301542 -3.63832e-18)
(0.191685 0.00764116 -4.12596e-18)
(0.0538967 0.00919321 -1.83196e-22)
(0.00809871 0.00653591 -4.59444e-18)
(-0.0240082 0.00875882 -4.63517e-18)
(-0.0339069 0.00793327 0)
(-0.0435885 0.00840448 -4.55002e-18)
(-0.0464432 0.00797697 0)
(-0.0498331 0.00794156 -2.20869e-18)
(-0.0510742 0.00773084 -2.17228e-18)
(-0.0528801 0.00770923 2.13675e-18)
(-0.0542555 0.00772259 -2.10017e-18)
(-0.0562503 0.00784729 2.06462e-18)
(-0.0584634 0.00801745 -2.0291e-18)
(-0.0612428 0.00822249 1.99459e-18)
(-0.0643732 0.00842528 0)
(-0.067917 0.00860019 0)
(-0.0717251 0.00872091 0)
(-0.0757489 0.00876195 9.33176e-19)
(-0.0798592 0.00869931 9.18855e-19)
(-0.0839559 0.00850867 0)
(-0.0879059 0.0081706 -8.9274e-19)
(-0.0915846 0.0076693 0)
(-0.0948574 0.00699799 0)
(-0.0976005 0.0061572 4.30525e-19)
(-0.0996923 0.00515112 -4.26322e-19)
(-0.101014 0.00398615 2.11381e-19)
(-0.101445 0.00267407 0)
(-0.100869 0.00123209 1.04341e-19)
(-0.099169 -0.000316531 -1.03886e-19)
(-0.0962347 -0.00194268 0)
(-0.0919549 -0.00361165 -2.06523e-19)
(-0.0862215 -0.00528283 4.12579e-19)
(-0.0789351 -0.00690866 -4.12802e-19)
(-0.070004 -0.0084361 0)
(-0.0593528 -0.00980527 0)
(-0.0469135 -0.0109522 0)
(-0.0326531 -0.0118043 -8.33879e-19)
(-0.0165387 -0.012281 0)
(0.00137555 -0.0122857 0)
(0.0210744 -0.0117016 -1.67549e-18)
(0.0423913 -0.0104313 0)
(0.0655308 -0.00847248 1.68456e-18)
(0.0906586 -0.00591945 -1.71575e-18)
(0.118032 -0.00272559 0)
(0.147092 0.00122238 1.79469e-18)
(0.178638 0.00600156 3.67559e-18)
(0.21134 0.0116477 -1.87436e-18)
(0.247315 0.0182126 0)
(0.283186 0.0257118 0)
(0.324612 0.0341967 1.97348e-18)
(0.362712 0.0436592 0)
(0.412607 0.0542746 3.94013e-18)
(0.450571 0.0657843 0)
(0.516838 0.0791502 3.7639e-18)
(0.548384 0.0924501 3.10822e-18)
(0.651212 0.110323 -3.30641e-18)
(0.662268 0.123252 0)
(0.856784 0.14354 2.38879e-18)
(0.887776 0.0828588 -3.37088e-18)
(0.50205 0.03646 2.00248e-20)
(0.239789 0.0112215 4.07162e-18)
(0.0826736 0.0104474 -1.62712e-22)
(0.0228844 0.00710449 -6.62175e-22)
(-0.0158955 0.00909812 0)
(-0.0298107 0.00818768 0)
(-0.0419884 0.00871913 0)
(-0.0463763 0.00829071 -2.24e-18)
(-0.0508058 0.00829701 4.41435e-18)
(-0.0527214 0.00810907 0)
(-0.0549883 0.00812514 2.13342e-18)
(-0.0566698 0.00817603 6.46305e-23)
(-0.0588668 0.00834359 -2.05757e-18)
(-0.0612049 0.00855433 5.93348e-23)
(-0.0640441 0.00879499 -1.98205e-18)
(-0.0671746 0.00902435 0)
(-0.0706573 0.00921465 0)
(-0.0743422 0.00933797 0)
(-0.078179 0.00936811 -9.19928e-19)
(-0.0820395 0.00928056 0)
(-0.0858259 0.00905091 8.88545e-19)
(-0.0894104 0.00865999 8.74285e-19)
(-0.0926745 0.00809276 -8.61086e-19)
(-0.0954914 0.00734372 0)
(-0.0977451 0.00641503 0)
(-0.0993219 0.00531207 4.14277e-19)
(-0.10011 0.00404202 0)
(-0.0999964 0.00261739 2.03249e-19)
(-0.0988702 0.0010562 -5.04551e-20)
(-0.0966219 -0.000617506 5.0156e-20)
(-0.093144 -0.00237399 -1.9957e-19)
(-0.0883281 -0.0041779 0)
(-0.0820697 -0.00598746 -3.97056e-19)
(-0.0742724 -0.00775361 0)
(-0.0648466 -0.00942152 0)
(-0.0537182 -0.0109293 7.95503e-19)
(-0.0408193 -0.0122102 0)
(-0.0261158 -0.0131885 0)
(-0.00957136 -0.0137789 0)
(0.00876948 -0.0138803 0)
(0.0289109 -0.0133702 0)
(0.0507309 -0.0121564 0)
(0.0744505 -0.0102515 -3.23701e-18)
(0.100196 -0.00774495 1.64357e-18)
(0.128193 -0.00456631 1.67321e-18)
(0.157925 -0.00060783 -3.41153e-18)
(0.190146 0.00421518 -1.74011e-18)
(0.223627 0.00993167 1.76942e-18)
(0.26037 0.0166058 -1.79712e-18)
(0.29724 0.0242442 0)
(0.339591 0.0329078 3.37584e-21)
(0.379118 0.0425984 -3.64019e-18)
(0.430133 0.0534501 -3.66599e-18)
(0.470323 0.0653361 -3.47021e-18)
(0.537832 0.0789171 -6.9762e-18)
(0.573084 0.0928972 -2.88734e-18)
(0.676816 0.110623 3.04189e-18)
(0.693994 0.12463 1.20692e-18)
(0.887454 0.143079 -2.22597e-18)
(0.907675 0.0939161 -7.31301e-20)
(0.558812 0.0432665 3.4988e-18)
(0.290337 0.0154115 2.24728e-21)
(0.115934 0.0121322 -2.02816e-22)
(0.0411176 0.00790621 4.55366e-18)
(-0.00519028 0.00947235 4.6147e-18)
(-0.0237698 0.00842884 -4.58323e-18)
(-0.0388114 0.00898437 2.27122e-18)
(-0.045009 0.00854091 4.44134e-23)
(-0.0506604 0.00858246 -2.20514e-18)
(-0.053375 0.00841272 -2.16729e-18)
(-0.0561772 0.00846353 -2.12944e-18)
(-0.0582007 0.0085485 4.17883e-18)
(-0.0606032 0.00875529 5.54816e-23)
(-0.0630444 0.00900221 2.00829e-18)
(-0.0659022 0.0092737 0)
(-0.0689793 0.00952448 1.92704e-18)
(-0.0723403 0.00972526 0)
(-0.0758406 0.00984696 -1.84895e-18)
(-0.0794324 0.00986317 -9.05967e-19)
(-0.0829928 0.00974919 -8.88317e-19)
(-0.0864293 0.00948076 -3.2044e-23)
(-0.0896211 0.00903901 -8.56115e-19)
(-0.0924569 0.00840954 8.41716e-19)
(-0.0948176 0.00758789 0)
(-0.0965942 0.00657754 -4.08326e-19)
(-0.0976793 0.00538472 0)
(-0.0979669 0.00401707 0)
(-0.0973497 0.00248761 -1.97302e-19)
(-0.0957214 0.000814928 0)
(-0.0929772 -0.000976433 0)
(-0.0890112 -0.00285636 1.9313e-19)
(-0.0837177 -0.00478882 0)
(-0.0769953 -0.00673092 0)
(-0.0687499 -0.00863222 3.83142e-19)
(-0.0588938 -0.0104362 0)
(-0.0473538 -0.012079 -7.67873e-19)
(-0.034062 -0.0134913 0)
(-0.0189833 -0.0145946 7.71918e-19)
(-0.00207803 -0.0152993 0)
(0.016619 -0.0155005 0)
(0.0371292 -0.0150719 0)
(0.059367 -0.0139269 0)
(0.0835573 -0.0120894 1.56331e-18)
(0.109782 -0.00964369 0)
(0.138243 -0.00649897 -3.21301e-18)
(0.168465 -0.00255397 1.63218e-18)
(0.201161 0.00228329 -1.65661e-18)
(0.23519 0.00803243 1.67817e-18)
(0.272451 0.0147714 1.70261e-18)
(0.310019 0.0224903 0)
(0.352973 0.0312694 1.72649e-18)
(0.393518 0.041095 5.11761e-18)
(0.445247 0.0521011 -3.41095e-18)
(0.487087 0.0642097 3.23605e-18)
(0.555342 0.0779186 3.23925e-18)
(0.593471 0.0923147 0)
(0.697553 0.109855 -2.82169e-18)
(0.719686 0.124509 -2.22353e-18)
(0.911306 0.141367 0)
(0.92368 0.103942 3.59809e-18)
(0.610454 0.0503831 0)
(0.342092 0.0201706 2.03074e-21)
(0.153248 0.0143043 -2.83221e-22)
(0.062943 0.00900223 -4.52712e-18)
(0.00822935 0.00994039 -9.19998e-18)
(-0.0156973 0.00869761 9.15335e-18)
(-0.0339844 0.00922767 -2.26859e-18)
(-0.0422853 0.00874867 2.23592e-18)
(-0.0493564 0.00881387 0)
(-0.053006 0.00865385 4.3859e-23)
(-0.0564297 0.00873342 0)
(-0.0588415 0.0088465 -4.16524e-18)
(-0.0614646 0.0090872 2.03982e-18)
(-0.0640011 0.00936498 0)
(-0.0668543 0.00966241 0)
(-0.0698457 0.00993014 -1.9083e-18)
(-0.0730497 0.0101378 0)
(-0.0763313 0.0102552 1.82415e-18)
(-0.0796487 0.0102561 8.92205e-19)
(-0.0828863 0.0101157 2.88021e-23)
(-0.0859583 0.00980984 -8.55535e-19)
(-0.0887515 0.00931995 -8.38926e-19)
(-0.0911619 0.00863207 0)
(-0.0930772 0.0077426 0)
(-0.0943945 0.00665603 3.98616e-19)
(-0.0950118 0.00537923 0)
(-0.0948281 0.00392015 1.94095e-19)
(-0.0937402 0.00229214 -1.92032e-19)
(-0.0916459 0.000514226 4.75818e-20)
(-0.0884438 -0.00138876 -4.71914e-20)
(-0.0840292 -0.00338643 1.87528e-19)
(-0.0782993 -0.00544202 -1.86637e-19)
(-0.0711554 -0.00751156 3.7214e-19)
(-0.0625056 -0.00954332 -3.71689e-19)
(-0.0522639 -0.0114792 0)
(-0.040358 -0.0132534 0)
(-0.0267204 -0.0147943 0)
(-0.0113149 -0.0160208 -2.16695e-22)
(0.00590089 -0.0168393 7.50516e-19)
(0.024902 -0.0171422 0)
(0.0457238 -0.0168009 0)
(0.0683107 -0.0157337 0)
(0.0928826 -0.0139726 0)
(0.119477 -0.0115968 0)
(0.148281 -0.00849843 1.0988e-21)
(0.178857 -0.00458324 0)
(0.211878 0.000247788 3.17973e-18)
(0.246284 0.00600333 -3.21069e-18)
(0.283879 0.0127761 -1.6199e-18)
(0.321926 0.020534 0)
(0.365255 0.0293843 0)
(0.406518 0.0392785 -3.21344e-18)
(0.458673 0.0503814 7.78494e-21)
(0.501733 0.0626002 -3.01609e-18)
(0.570383 0.0763777 3.00679e-18)
(0.610732 0.0909866 2.46274e-18)
(0.714787 0.10833 -2.59478e-18)
(0.740862 0.123279 2.03194e-18)
(0.930203 0.138811 1.86913e-18)
(0.936534 0.112982 6.54442e-20)
(0.656989 0.0576356 -3.35716e-18)
(0.393944 0.025432 -7.79682e-18)
(0.194037 0.016996 -3.94113e-22)
(0.0884274 0.0104464 4.49463e-18)
(0.024502 0.0105599 4.58002e-18)
(-0.00550159 0.00903838 -2.28296e-18)
(-0.0274242 0.00947703 0)
(-0.0381417 0.00893615 0)
(-0.0468467 0.00900807 2.19967e-18)
(-0.0515816 0.00884546 2.1604e-18)
(-0.0557274 0.00894502 0)
(-0.0585874 0.00907805 2.07537e-18)
(-0.0614612 0.00934603 0)
(-0.0641011 0.00964874 0)
(-0.0669443 0.00996738 0)
(-0.0698374 0.0102482 0)
(-0.0728696 0.01046 1.84418e-18)
(-0.0759184 0.0105716 9.00123e-19)
(-0.0789506 0.0105567 -8.79138e-19)
(-0.0818589 0.0103903 2.78898e-23)
(-0.0845652 0.0100487 0)
(-0.0869637 0.00951327 8.23328e-19)
(-0.0889576 0.00877044 0)
(-0.0904409 0.00781723 0)
(-0.0913163 0.00665902 3.89958e-19)
(-0.0914865 0.00530313 -3.84214e-19)
(-0.0908545 0.00375771 -1.89627e-19)
(-0.089321 0.00203634 1.87503e-19)
(-0.0867874 0.000158395 -9.28536e-20)
(-0.0831548 -0.00185118 9.20299e-20)
(-0.0783198 -0.00396171 -1.82792e-19)
(-0.0721829 -0.00613566 1.81861e-19)
(-0.0646477 -0.00832801 -6.69075e-23)
(-0.0556249 -0.0104859 -3.61855e-19)
(-0.0450297 -0.0125495 0)
(-0.0327914 -0.0144517 0)
(-0.0188427 -0.0161181 0)
(-0.00314668 -0.0174655 -1.45728e-18)
(0.0143416 -0.0183969 -7.30666e-19)
(0.0336063 -0.0188025 0)
(0.0546936 -0.0185523 0)
(0.0775719 -0.0175696 -1.47019e-18)
(0.102451 -0.0158909 0)
(0.129329 -0.0135902 0)
(0.15838 -0.0105463 3.00824e-18)
(0.189203 -0.00667212 -1.51831e-18)
(0.222435 -0.0018617 -3.06774e-18)
(0.257088 0.00388168 1.68497e-21)
(0.294879 0.010666 3.10862e-18)
(0.333237 0.0184331 1.55121e-18)
(0.376775 0.0273227 0)
(0.418531 0.0372376 1.52585e-18)
(0.470908 0.048396 3.0329e-18)
(0.514861 0.0606429 2.84653e-18)
(0.583666 0.0744482 -2.8274e-18)
(0.625723 0.0891174 -2.30708e-18)
(0.7295 0.106266 2.42246e-18)
(0.7587 0.121242 -9.37921e-19)
(0.945546 0.135699 -1.73452e-18)
(0.946832 0.1211 6.24655e-20)
(0.698574 0.0648739 3.31789e-18)
(0.444941 0.031109 -1.57095e-21)
(0.237613 0.0202155 -5.30724e-22)
(0.117532 0.0122834 0)
(0.0437456 0.0113899 0)
(0.00693893 0.00949391 1.72185e-22)
(-0.0190357 0.00976157 0)
(-0.0325061 0.00912665 0)
(-0.0430762 0.00918272 -7.26692e-24)
(-0.0490633 0.00900162 0)
(-0.0540483 0.0091097 0)
(-0.0574324 0.00925254 2.06809e-18)
(-0.0606032 0.00953997 0)
(-0.0633707 0.00986113 0)
(-0.0662149 0.0101962 0)
(-0.0690128 0.0104866 0)
(-0.071873 0.0107003 -3.64041e-23)
(-0.0746883 0.0108047 -8.89132e-19)
(-0.0774357 0.0107737 1.73446e-18)
(-0.0800174 0.010582 2.63493e-23)
(-0.082363 0.0102061 8.27245e-19)
(-0.0843748 0.00962733 0)
(-0.0859629 0.00883245 7.9297e-19)
(-0.0870272 0.00781893 0)
(-0.0874758 0.00659287 -3.82442e-19)
(-0.0872155 0.00516196 3.11065e-23)
(-0.0861532 0.00353445 0)
(-0.0841933 0.00172411 0)
(-0.0812402 -0.000249443 5.45201e-24)
(-0.0771968 -0.00236126 -6.00878e-24)
(-0.0719623 -0.00458033 8.9348e-20)
(-0.0654398 -0.00686831 0)
(-0.0575358 -0.00917921 -3.54286e-19)
(-0.0481631 -0.011459 3.53662e-19)
(-0.0372387 -0.0136465 0)
(-0.0246931 -0.0156729 -7.07998e-19)
(-0.0104599 -0.0174617 0)
(0.00549853 -0.0189275 1.76724e-22)
(0.0232294 -0.0199702 0)
(0.0427246 -0.0204788 7.15228e-19)
(0.0640389 -0.0203224 7.16999e-19)
(0.0871593 -0.0194287 5.45856e-22)
(0.112283 -0.0178359 -1.44341e-18)
(0.139373 -0.0156131 0)
(0.168595 -0.0126289 -9.20587e-22)
(0.199579 -0.00880328 1.47702e-18)
(0.232931 -0.00402362 1.31239e-21)
(0.267727 0.00169426 1.4943e-18)
(0.305609 0.00847378 -1.82884e-21)
(0.344149 0.0162285 -2.14289e-21)
(0.387767 0.0251337 0)
(0.429846 0.0350339 0)
(0.482293 0.0462176 0)
(0.526892 0.0584318 0)
(0.595677 0.0722365 0)
(0.639052 0.0868516 2.15263e-18)
(0.742385 0.103816 0)
(0.774067 0.118616 0)
(0.958332 0.132223 -1.59642e-18)
(0.95506 0.128368 -1.93103e-18)
(0.735457 0.0719748 0)
(0.494304 0.0371019 -1.37854e-21)
(0.28322 0.0239477 -6.87357e-22)
(0.150098 0.0145469 0)
(0.066047 0.0124879 2.26463e-18)
(0.0217615 0.010106 -2.26818e-18)
(-0.00871289 0.0101115 0)
(-0.0252973 0.00934475 0)
(-0.0379797 0.00935636 -2.19351e-18)
(-0.0454046 0.00913742 0)
(-0.0513636 0.00923986 0)
(-0.0553646 0.00938044 -2.06132e-18)
(-0.0588951 0.0096782 0)
(-0.0618295 0.0100106 -1.9592e-18)
(-0.0646995 0.010357 0)
(-0.0674178 0.0106533 0)
(-0.0701165 0.0108666 -2.89201e-23)
(-0.0727063 0.0109624 0)
(-0.0751764 0.0109148 -8.56629e-19)
(-0.077439 0.0106982 8.35334e-19)
(-0.0794326 0.010289 -1.63096e-18)
(-0.0810673 0.00966873 7.97141e-19)
(-0.0822602 0.00882415 -7.80435e-19)
(-0.0829174 0.00775313 0)
(-0.082952 0.0064624 -3.75879e-19)
(-0.0822748 0.00495988 7.39894e-19)
(-0.0807965 0.00325389 0)
(-0.0784247 0.00135836 -9.01035e-20)
(-0.0750671 -0.000706979 4.45668e-20)
(-0.070628 -0.0029172 -4.41428e-20)
(-0.0650096 -0.00524089 -8.76242e-20)
(-0.0581181 -0.00763891 0)
(-0.0498623 -0.0100644 -3.47234e-19)
(-0.0401574 -0.0124621 3.4659e-19)
(-0.0289224 -0.0147697 0)
(-0.0160894 -0.0169166 6.9411e-19)
(-0.00159274 -0.0188244 0)
(0.0146056 -0.0204058 6.97393e-19)
(0.0325546 -0.0215581 0)
(0.0522525 -0.0221691 -7.01217e-19)
(0.0737606 -0.0221081 -7.03234e-19)
(0.0970802 -0.0213062 5.06802e-22)
(0.122395 -0.0198013 1.41592e-18)
(0.149638 -0.0176573 0)
(0.178968 -0.0147358 -1.43331e-18)
(0.210042 -0.0109636 0)
(0.243441 -0.00622193 1.44942e-18)
(0.278297 -0.000539182 0)
(0.316183 0.00622339 -1.45405e-18)
(0.354802 0.0139495 -2.88597e-18)
(0.398401 0.0228523 0)
(0.440666 0.0327113 0)
(0.493068 0.0438975 0)
(0.538119 0.0560334 1.28123e-18)
(0.60676 0.0698166 0)
(0.651149 0.0842918 -9.91368e-21)
(0.753926 0.101084 0)
(0.787588 0.115559 7.87181e-19)
(0.969265 0.128511 1.49753e-18)
(0.961618 0.134863 0)
(0.767949 0.0788415 3.22929e-18)
(0.541421 0.0433057 3.74778e-18)
(0.330079 0.0281557 -8.55424e-22)
(0.185842 0.0172578 0)
(0.0914493 0.0139052 -2.24929e-18)
(0.0391032 0.0109165 0)
(0.00365859 0.0105595 2.25141e-18)
(-0.0164251 0.00961644 2.22421e-18)
(-0.0314809 0.00954837 2.1905e-18)
(-0.0405483 0.00926892 2.14958e-18)
(-0.0476342 0.00934875 2.10499e-18)
(-0.0523629 0.00947299 0)
(-0.0563319 0.00977049 0)
(-0.0594867 0.0101058 1.94918e-18)
(-0.0624195 0.0104578 0)
(-0.0650835 0.0107559 0)
(-0.0676394 0.010966 -1.79052e-18)
(-0.0700181 0.0110516 0)
(-0.072223 0.0109866 -8.47359e-19)
(-0.0741775 0.010745 0)
(-0.0758296 0.0103032 8.05263e-19)
(-0.0770977 0.00964273 -7.86584e-19)
(-0.0779061 0.00875031 0)
(-0.078167 0.00762409 0)
(-0.0777987 0.00627133 2.43137e-23)
(-0.0767162 0.0047001 -3.64276e-19)
(-0.0748334 0.00291876 0)
(-0.0720615 0.000941335 8.86769e-20)
(-0.0683111 -0.00121244 4.38246e-20)
(-0.0634882 -0.00351762 -4.3398e-20)