/*--------------------------------*- C++ -*----------------------------------*\
| =========                 |                                                 |
| \\      /  F ield         | OpenFOAM: The Open Source CFD Toolbox           |
|  \\    /   O peration     | Version:  2.4.0                                 |
|   \\  /    A nd           | Web:      www.OpenFOAM.org                      |
|    \\/     M anipulation  |                                                 |
\*---------------------------------------------------------------------------*/
FoamFile
{
    version     2.0;
    format      ascii;
    class       surfaceScalarField;
    location    "5.2";
    object      phi;
}
// * * * * * * * * * * * * * * * * * * * * * * * * * * * * * * * * * * * * * //

dimensions      [0 3 -1 0 0 0 0];

internalField   nonuniform List<scalar> 
11840
(
8.79924e-07
9.12008e-06
3.03395e-08
8.49585e-07
-5.18386e-08
8.21781e-08
-7.21517e-08
2.03131e-08
-8.6868e-08
1.47163e-08
-8.57092e-08
-1.15884e-09
-9.20084e-08
6.29917e-09
-9.0426e-08
-1.58239e-09
-9.47133e-08
4.28726e-09
-9.542e-08
7.06643e-10
-1.00174e-07
4.75427e-09
-1.03911e-07
3.73686e-09
-1.11215e-07
7.30365e-09
-1.1863e-07
7.41563e-09
-1.29003e-07
1.03725e-08
-1.39875e-07
1.08726e-08
-1.53013e-07
1.31378e-08
-1.66979e-07
1.39654e-08
-1.82756e-07
1.57769e-08
-1.99432e-07
1.66761e-08
-2.17503e-07
1.80713e-08
-2.36348e-07
1.88449e-08
-2.5613e-07
1.97823e-08
-2.76326e-07
2.01955e-08
-2.96867e-07
2.05411e-08
-3.17187e-07
2.03201e-08
-3.36836e-07
1.96485e-08
-3.54919e-07
1.80831e-08
-3.70983e-07
1.60646e-08
-3.84448e-07
1.34644e-08
-3.94514e-07
1.00661e-08
-4.00292e-07
5.77868e-09
-4.00756e-07
4.63483e-10
-3.94757e-07
-5.99899e-09
-3.81519e-07
-1.32377e-08
-3.60106e-07
-2.14136e-08
-3.30297e-07
-2.9809e-08
-2.90971e-07
-3.93255e-08
-2.4287e-07
-4.81012e-08
-1.84097e-07
-5.87726e-08
-1.17733e-07
-6.63639e-08
-4.09931e-08
-7.67403e-08
3.58159e-08
-7.68089e-08
1.15853e-07
-8.00367e-08
1.88101e-07
-7.22486e-08
2.69199e-07
-8.10981e-08
3.35663e-07
-6.64641e-08
4.17059e-07
-8.13957e-08
4.72477e-07
-5.54175e-08
5.51987e-07
-7.95098e-08
5.91568e-07
-3.95818e-08
6.66334e-07
-7.47651e-08
6.89888e-07
-2.35539e-08
7.55208e-07
-6.53201e-08
7.56592e-07
-1.38427e-09
8.30164e-07
-7.35725e-08
7.84762e-07
4.54024e-08
8.99763e-07
-1.15001e-07
8.15603e-07
8.41601e-08
-4.26724e-07
2.08295e-06
1.70371e-05
2.45119e-07
2.68742e-06
-6.88408e-08
3.96138e-07
-1.7225e-07
1.23722e-07
-2.13956e-07
5.64224e-08
-2.28464e-07
1.33493e-08
-2.43095e-07
2.09302e-08
-2.4745e-07
2.77246e-09
-2.57266e-07
1.41031e-08
-2.63667e-07
7.10804e-09
-2.75587e-07
1.66735e-08
-2.88181e-07
1.63308e-08
-3.07274e-07
2.63973e-08
-3.28817e-07
2.8958e-08
-3.56268e-07
3.78238e-08
-3.86372e-07
4.09766e-08
-4.21181e-07
4.79464e-08
-4.58822e-07
5.16071e-08
-5.00304e-07
5.72587e-08
-5.4431e-07
6.0682e-08
-5.91187e-07
6.49481e-08
-6.39886e-07
6.75445e-08
-6.90245e-07
7.01415e-08
-7.41204e-07
7.11544e-08
-7.92186e-07
7.15228e-08
-8.41916e-07
7.00498e-08
-8.89007e-07
6.67395e-08
-9.31234e-07
6.03105e-08
-9.67185e-07
5.20159e-08
-9.95554e-07
4.18325e-08
-1.01454e-06
2.90492e-08
-1.02189e-06
1.31297e-08
-1.0148e-06
-6.62635e-09
-9.90884e-07
-2.99132e-08
-9.481e-07
-5.6021e-08
-8.84594e-07
-8.49196e-08
-7.99337e-07
-1.15066e-07
-6.90588e-07
-1.48075e-07
-5.58601e-07
-1.80088e-07
-4.01407e-07
-2.15967e-07
-2.22842e-07
-2.44929e-07
-2.30667e-08
-2.76515e-07
1.78405e-07
-2.78281e-07
3.79459e-07
-2.81091e-07
5.70904e-07
-2.63693e-07
7.6925e-07
-2.79445e-07
9.48837e-07
-2.4605e-07
1.13968e-06
-2.72241e-07
1.29586e-06
-2.11593e-07
1.47317e-06
-2.56827e-07
1.5952e-06
-1.61607e-07
1.75391e-06
-2.33473e-07
1.84105e-06
-1.10698e-07
1.96967e-06
-1.93937e-07
2.01696e-06
-4.86728e-08
2.13801e-06
-1.94627e-07
2.1147e-06
6.87097e-08
2.26991e-06
-2.70206e-07
2.24329e-06
1.10776e-07
-1.1076e-06
3.11144e-06
2.39257e-05
5.81478e-07
5.21738e-06
-4.6602e-09
9.82276e-07
-2.24786e-07
3.43848e-07
-3.04082e-07
1.35719e-07
-3.44586e-07
5.38533e-08
-3.70069e-07
4.64123e-08
-3.8503e-07
1.77341e-08
-4.01149e-07
3.02223e-08
-4.15257e-07
2.12156e-08
-4.34342e-07
3.57581e-08
-4.56282e-07
3.82716e-08
-4.86331e-07
5.64454e-08
-5.21408e-07
6.40352e-08
-5.64298e-07
8.07141e-08
-6.12085e-07
8.87631e-08
-6.66201e-07
1.02063e-07
-7.25015e-07
1.1042e-07
-7.88989e-07
1.21233e-07
-8.5678e-07
1.28473e-07
-9.28235e-07
1.36403e-07
-1.00208e-06
1.41387e-07
-1.0776e-06
1.45662e-07
-1.15331e-06
1.46864e-07
-1.22797e-06
1.46185e-07
-1.29972e-06
1.41803e-07
-1.36635e-06
1.33364e-07
-1.42441e-06
1.18375e-07
-1.47135e-06
9.89598e-08
-1.50535e-06
7.583e-08
-1.52404e-06
4.77369e-08
-1.52387e-06
1.29572e-08
-1.50075e-06
-2.97467e-08
-1.45146e-06
-7.91956e-08
-1.37329e-06
-1.34197e-07
-1.26405e-06
-1.94159e-07
-1.12234e-06
-2.56773e-07
-9.46759e-07
-3.23658e-07
-7.37444e-07
-3.89403e-07
-4.94652e-07
-4.58758e-07
-2.23056e-07
-5.16525e-07
7.15307e-08
-5.71102e-07
3.69256e-07
-5.76006e-07
6.65339e-07
-5.77174e-07
9.57928e-07
-5.56283e-07
1.25252e-06
-5.74032e-07
1.53339e-06
-5.26921e-07
1.81405e-06
-5.52905e-07
2.06464e-06
-4.62178e-07
2.3203e-06
-5.12485e-07
2.52385e-06
-3.65161e-07
2.74807e-06
-4.57693e-07
2.9015e-06
-2.64125e-07
3.07881e-06
-3.71253e-07
3.17974e-06
-1.49603e-07
3.32772e-06
-3.42605e-07
3.34894e-06
4.74951e-08
3.51021e-06
-4.31479e-07
3.57375e-06
4.72349e-08
-1.8614e-06
4.00192e-06
2.99238e-05
1.01498e-06
8.20432e-06
1.22035e-07
1.87522e-06
-2.24943e-07
6.90826e-07
-3.57521e-07
2.68297e-07
-4.31329e-07
1.27661e-07
-4.73015e-07
8.80986e-08
-5.01443e-07
4.61616e-08
-5.26135e-07
5.49141e-08
-5.48975e-07
4.40558e-08
-5.75981e-07
6.27644e-08
-6.07191e-07
6.94811e-08
-6.47665e-07
9.69201e-08
-6.95192e-07
1.11562e-07
-7.51928e-07
1.3745e-07
-8.15324e-07
1.52158e-07
-8.8621e-07
1.72949e-07
-9.63104e-07
1.87314e-07
-1.04593e-06
2.04062e-07
-1.13325e-06
2.1579e-07
-1.22439e-06
2.27539e-07
-1.31778e-06
2.34777e-07
-1.41215e-06
2.40037e-07
-1.50556e-06
2.40273e-07
-1.5961e-06
2.36727e-07
-1.68122e-06
2.2692e-07
-1.75818e-06
2.10329e-07
-1.82265e-06
1.82836e-07
-1.87104e-06
1.47349e-07
-1.90119e-06
1.05979e-07
-1.91017e-06
5.67258e-08
-1.8936e-06
-3.61304e-09
-1.84682e-06
-7.6527e-08
-1.76654e-06
-1.59479e-07
-1.64982e-06
-2.50914e-07
-1.49479e-06
-3.49191e-07
-1.30039e-06
-4.51172e-07
-1.06641e-06
-5.57639e-07
-7.94032e-07
-6.61783e-07
-4.85871e-07
-7.6692e-07
-1.47332e-07
-8.55064e-07
2.11576e-07
-9.30011e-07
5.77047e-07
-9.41476e-07
9.45012e-07
-9.45139e-07
1.31785e-06
-9.29119e-07
1.69033e-06
-9.46512e-07
2.05639e-06
-8.92985e-07
2.41282e-06
-9.09332e-07
2.7463e-06
-7.95662e-07
3.06941e-06
-8.35592e-07
3.34677e-06
-6.4252e-07
3.62861e-06
-7.39532e-07
3.84183e-06
-4.77348e-07
4.06454e-06
-5.93966e-07
4.21244e-06
-2.97495e-07
4.39007e-06
-5.20241e-07
4.44749e-06
-9.9216e-09
4.62557e-06
-6.09562e-07
4.74429e-06
-7.14871e-08
-2.6211e-06
4.78992e-06
3.51338e-05
1.5179e-06
1.14763e-05
3.26052e-07
3.06707e-06
-1.71572e-07
1.18845e-06
-3.72964e-07
4.69688e-07
-4.87805e-07
2.42502e-07
-5.51181e-07
1.51475e-07
-5.96102e-07
9.10821e-08
-6.31654e-07
9.04668e-08
-6.64297e-07
7.66986e-08
-6.99951e-07
9.84186e-08
-7.40381e-07
1.0991e-07
-7.90573e-07
1.47113e-07
-8.49283e-07
1.70272e-07
-9.18086e-07
2.06253e-07
-9.94743e-07
2.28815e-07
-1.07951e-06
2.57717e-07
-1.17097e-06
2.78775e-07
-1.26851e-06
3.016e-07
-1.37051e-06
3.17789e-07
-1.47577e-06
3.32802e-07
-1.58241e-06
3.41414e-07
-1.68859e-06
3.46224e-07
-1.79193e-06
3.43612e-07
-1.88993e-06
3.34719e-07
-1.97944e-06
3.1643e-07
-2.05723e-06
2.88126e-07
-2.11854e-06
2.44148e-07
-2.15944e-06
1.88248e-07
-2.17758e-06
1.24118e-07
-2.16925e-06
4.839e-08
-2.13e-06
-4.28623e-08
-2.05568e-06
-1.50846e-07
-1.94314e-06
-2.72013e-07
-1.78988e-06
-4.04179e-07
-1.59482e-06
-5.44252e-07
-1.3578e-06
-6.88191e-07
-1.07977e-06
-8.35664e-07
-7.62311e-07
-9.79244e-07
-4.09651e-07
-1.11958e-06
-2.74728e-08
-1.23724e-06
3.72743e-07
-1.33023e-06
7.84384e-07
-1.35312e-06
1.20405e-06
-1.36481e-06
1.63598e-06
-1.36104e-06
2.06701e-06
-1.37755e-06
2.49934e-06
-1.32531e-06
2.91602e-06
-1.32602e-06
3.31877e-06
-1.19842e-06
3.6986e-06
-1.21542e-06
4.04221e-06
-9.86123e-07
4.37478e-06
-1.07211e-06
4.64396e-06
-7.46529e-07
4.90908e-06
-8.5908e-07
5.10212e-06
-4.90536e-07
5.30851e-06
-7.26634e-07
5.40374e-06
-1.0515e-07
5.60325e-06
-8.09076e-07
5.75134e-06
-2.19577e-07
-3.34353e-06
5.49688e-06
3.9637e-05
2.0695e-06
1.49037e-05
5.9948e-07
4.53709e-06
-6.44302e-08
1.85236e-06
-3.49083e-07
7.54341e-07
-5.13118e-07
4.06537e-07
-6.03859e-07
2.42217e-07
-6.68472e-07
1.55695e-07
-7.17211e-07
1.39206e-07
-7.60824e-07
1.20311e-07
-8.05795e-07
1.4339e-07
-8.55358e-07
1.59473e-07
-9.14451e-07
2.06206e-07
-9.8293e-07
2.38751e-07
-1.06182e-06
2.8514e-07
-1.14913e-06
3.16129e-07
-1.24457e-06
3.53158e-07
-1.34672e-06
3.80926e-07
-1.45443e-06
4.09303e-07
-1.56586e-06
4.29227e-07
-1.67932e-06
4.46263e-07
-1.79262e-06
4.5471e-07
-1.90345e-06
4.5705e-07
-2.00907e-06
4.49234e-07
-2.10656e-06
4.32206e-07
-2.19244e-06
4.02311e-07
-2.26316e-06
3.58849e-07
-2.31405e-06
2.95043e-07
-2.34149e-06
2.15684e-07
-2.34258e-06
1.25206e-07
-2.31343e-06
1.92435e-08
-2.25034e-06
-1.05959e-07
-2.14965e-06
-2.51536e-07
-2.00876e-06
-4.12898e-07
-1.82577e-06
-5.87169e-07
-1.60019e-06
-7.6983e-07
-1.3322e-06
-9.56188e-07
-1.02341e-06
-1.14445e-06
-6.75804e-07
-1.32685e-06
-2.94261e-07
-1.50112e-06
1.16002e-07
-1.64751e-06
5.43736e-07
-1.75796e-06
9.87332e-07
-1.79671e-06
1.44331e-06
-1.82078e-06
1.91638e-06
-1.83412e-06
2.3886e-06
-1.84976e-06
2.86788e-06
-1.80459e-06
3.32836e-06
-1.7865e-06
3.78329e-06
-1.65334e-06
4.20696e-06
-1.63909e-06
4.60542e-06
-1.38459e-06
4.97966e-06
-1.44635e-06
5.30011e-06
-1.06698e-06
5.60382e-06
-1.16278e-06
5.84163e-06
-7.28351e-07
6.07655e-06
-9.61551e-07
6.2134e-06
-2.41996e-07
6.4353e-06
-1.03098e-06
6.60099e-06
-3.85259e-07
-4.00455e-06
6.13639e-06
4.35006e-05
2.65475e-06
1.83854e-05
9.36883e-07
6.25496e-06
9.97618e-08
2.68948e-06
-2.84384e-07
1.13849e-06
-5.063e-07
6.28453e-07
-6.30213e-07
3.6613e-07
-7.17987e-07
2.43468e-07
-7.82338e-07
2.03557e-07
-8.38195e-07
1.76167e-07
-8.93118e-07
1.98313e-07
-9.51662e-07
2.18017e-07
-1.01877e-06
2.73311e-07
-1.09547e-06
3.15458e-07
-1.1823e-06
3.71961e-07
-1.27748e-06
4.11312e-07
-1.38019e-06
4.55871e-07
-1.48899e-06
4.89728e-07
-1.60223e-06
5.22536e-07
-1.71791e-06
5.44913e-07
-1.83392e-06
5.6227e-07
-1.94786e-06
5.68656e-07
-2.05714e-06
5.66321e-07
-2.15885e-06
5.50946e-07
-2.24988e-06
5.23235e-07
-2.32669e-06
4.79123e-07
-2.38568e-06
4.17835e-07
-2.42266e-06
3.32024e-07
-2.43422e-06
2.27247e-07
-2.41725e-06
1.08233e-07
-2.36809e-06
-2.9915e-08
-2.28369e-06
-1.90359e-07
-2.16094e-06
-3.74282e-07
-1.99754e-06
-5.76297e-07
-1.7919e-06
-7.92815e-07
-1.54393e-06
-1.0178e-06
-1.25405e-06
-1.24607e-06
-9.24176e-07
-1.47432e-06
-5.56304e-07
-1.69473e-06
-1.55474e-07
-1.90195e-06
2.73755e-07
-2.07673e-06
7.2084e-07
-2.20504e-06
1.18718e-06
-2.26305e-06
1.66863e-06
-2.30223e-06
2.16971e-06
-2.3352e-06
2.66992e-06
-2.34997e-06
3.18049e-06
-2.31516e-06
3.67071e-06
-2.27672e-06
4.16123e-06
-2.14386e-06
4.61564e-06
-2.09351e-06
5.05455e-06
-1.82349e-06
5.4591e-06
-1.8509e-06
5.82189e-06
-1.42977e-06
6.15737e-06
-1.49826e-06
6.43658e-06
-1.00757e-06
6.69746e-06
-1.22242e-06
6.87719e-06
-4.21734e-07
7.12251e-06
-1.2763e-06
7.30155e-06
-5.64301e-07
-4.59687e-06
6.71727e-06
4.67833e-05
3.26269e-06
2.18399e-05
1.33238e-06
8.18526e-06
3.18917e-07
3.70295e-06
-1.77541e-07
1.63494e-06
-4.6597e-07
9.16882e-07
-6.29323e-07
5.29482e-07
-7.44036e-07
3.58181e-07
-8.26497e-07
2.86019e-07
-8.96094e-07
2.45764e-07
-9.61505e-07
2.63724e-07
-1.02887e-06
2.85383e-07
-1.10307e-06
3.47511e-07
-1.18641e-06
3.98796e-07
-1.27895e-06
4.64506e-07
-1.3792e-06
5.11559e-07
-1.48585e-06
5.6252e-07
-1.59748e-06
6.01361e-07
-1.71205e-06
6.37101e-07
-1.82752e-06
6.60381e-07
-1.94149e-06
6.76247e-07
-2.05156e-06
6.78722e-07
-2.15497e-06
6.69737e-07
-2.24888e-06
6.44856e-07
-2.33016e-06
6.04507e-07
-2.39537e-06
5.44336e-07
-2.44104e-06
4.63508e-07
-2.46345e-06
3.54431e-07
-2.45942e-06
2.2322e-07
-2.42576e-06
7.45743e-08
-2.3591e-06
-9.65751e-08
-2.25686e-06
-2.92608e-07
-2.11625e-06
-5.1489e-07
-1.93521e-06
-7.57337e-07
-1.71236e-06
-1.01566e-06
-1.44781e-06
-1.28234e-06
-1.14208e-06
-1.5518e-06
-7.97197e-07
-1.8192e-06
-4.15088e-07
-2.07684e-06
-7.75427e-10
-2.31627e-06
4.41935e-07
-2.51944e-06
9.03236e-07
-2.66635e-06
1.38611e-06
-2.74592e-06
1.88549e-06
-2.80161e-06
2.40542e-06
-2.85513e-06
2.92434e-06
-2.86889e-06
3.45501e-06
-2.84584e-06
3.96458e-06
-2.78629e-06
4.47773e-06
-2.65701e-06
4.95215e-06
-2.56793e-06
5.41809e-06
-2.28943e-06
5.84212e-06
-2.27493e-06
6.23604e-06
-1.82369e-06
6.5945e-06
-1.85672e-06
6.90736e-06
-1.32043e-06
7.18878e-06
-1.50384e-06
7.40946e-06
-6.42418e-07
7.6678e-06
-1.53463e-06
7.87148e-06
-7.67989e-07
-5.11632e-06
7.24551e-06
4.95378e-05
3.88683e-06
2.51986e-05
1.77964e-06
1.02925e-05
5.90531e-07
4.89206e-06
-2.6389e-08
2.25186e-06
-3.90736e-07
1.28123e-06
-6.0013e-07
7.38877e-07
-7.45838e-07
5.03889e-07
-8.49066e-07
3.89247e-07
-9.3404e-07
3.30738e-07
-1.01055e-06
3.40234e-07
-1.08662e-06
3.61449e-07
-1.16705e-06
4.27946e-07
-1.25548e-06
4.87225e-07
-1.35166e-06
5.60684e-07
-1.4544e-06
6.14301e-07
-1.56206e-06
6.70185e-07
-1.67335e-06
7.12649e-07
-1.78598e-06
7.49722e-07
-1.89797e-06
7.72379e-07
-2.00685e-06
7.8512e-07
-2.11025e-06
7.82129e-07
-2.20546e-06
7.64943e-07
-2.28972e-06
7.29119e-07
-2.35999e-06
6.74771e-07
-2.413e-06
5.97353e-07
-2.44547e-06
4.95974e-07
-2.45403e-06
3.62996e-07
-2.43569e-06
2.04872e-07
-2.3872e-06
2.60872e-08
-2.30547e-06
-1.78302e-07
-2.18826e-06
-4.09821e-07
-2.03301e-06
-6.70138e-07
-1.83782e-06
-9.5253e-07
-1.60144e-06
-1.25204e-06
-1.32411e-06
-1.55968e-06
-1.00636e-06
-1.86955e-06
-6.50272e-07
-2.17529e-06
-2.57697e-07
-2.46941e-06
1.66548e-07
-2.74051e-06
6.19058e-07
-2.97195e-06
1.09103e-06
-3.13832e-06
1.586e-06
-3.24089e-06
2.09795e-06
-3.31357e-06
2.63033e-06
-3.3875e-06
3.16145e-06
-3.40002e-06
3.70448e-06
-3.38887e-06
4.22608e-06
-3.30788e-06
4.75268e-06
-3.1836e-06
5.23924e-06
-3.0545e-06
5.72179e-06
-2.77198e-06
6.15686e-06
-2.71e-06
6.5716e-06
-2.23843e-06
6.94465e-06
-2.22977e-06
7.28171e-06
-1.65749e-06
7.57711e-06
-1.79924e-06
7.8315e-06
-8.96811e-07
8.09635e-06
-1.79948e-06
8.32634e-06
-9.97978e-07
-5.56444e-06
7.72409e-06
5.18137e-05
4.52732e-06
2.83954e-05
2.27193e-06
1.25478e-05
9.13272e-07
6.25072e-06
1.66343e-07
2.99879e-06
-2.79226e-07
1.7268e-06
-5.41442e-07
1.00109e-06
-7.22513e-07
6.8496e-07
-8.49375e-07
5.16109e-07
-9.51509e-07
4.32872e-07
-1.03986e-06
4.2859e-07
-1.12463e-06
4.46216e-07
-1.21061e-06
5.13924e-07
-1.3028e-06
5.79415e-07
-1.40085e-06
6.58731e-07
-1.504e-06
7.17457e-07
-1.61045e-06
7.76628e-07
-1.7191e-06
8.21304e-07
-1.82758e-06
8.58205e-07
-1.9341e-06
8.78892e-07
-2.03614e-06
8.87159e-07
-2.13148e-06
8.77474e-07
-2.21746e-06
8.50927e-07
-2.29149e-06
8.0314e-07
-2.35062e-06
7.33904e-07
-2.39175e-06
6.38482e-07
-2.41168e-06
5.15909e-07
-2.40733e-06
3.58644e-07
-2.37588e-06
1.7342e-07
-2.31417e-06
-3.56174e-08
-2.21929e-06
-2.73188e-07
-2.08921e-06
-5.39899e-07
-1.92157e-06
-8.37775e-07
-1.71459e-06
-1.15951e-06
-1.46713e-06
-1.4995e-06
-1.17948e-06
-1.84733e-06
-8.52236e-07
-2.19679e-06
-4.8745e-07
-2.54008e-06
-8.69116e-08
-2.86995e-06
3.44752e-07
-3.17217e-06
8.04586e-07
-3.43179e-06
1.2846e-06
-3.61833e-06
1.78832e-06
-3.74461e-06
2.30886e-06
-3.83411e-06
2.84909e-06
-3.92773e-06
3.38774e-06
-3.93867e-06
3.93771e-06
-3.93883e-06
4.46615e-06
-3.83633e-06
4.9998e-06
-3.71726e-06
5.49291e-06
-3.5476e-06
5.98457e-06
-3.26364e-06
6.42466e-06
-3.15009e-06
6.85207e-06
-2.66584e-06
7.23289e-06
-2.61058e-06
7.58562e-06
-2.01022e-06
7.88903e-06
-2.10266e-06
8.16832e-06
-1.1761e-06
8.434e-06
-2.06516e-06
8.68717e-06
-1.25114e-06
-5.94578e-06
8.15226e-06
5.36615e-05
5.16605e-06
3.13816e-05
2.80134e-06
1.49126e-05
1.28462e-06
7.76743e-06
4.04573e-07
3.87884e-06
-1.30453e-07
2.26182e-06
-4.51964e-07
1.3226e-06
-6.72932e-07
9.05928e-07
-8.26681e-07
6.69858e-07
-9.47972e-07
5.54163e-07
-1.04909e-06
5.29707e-07
-1.14277e-06
5.39897e-07
-1.23389e-06
6.05046e-07
-1.32887e-06
6.74398e-07
-1.4275e-06
7.57361e-07
-1.52961e-06
8.1956e-07
-1.63334e-06
8.80356e-07
-1.73792e-06
9.25887e-07
-1.84098e-06
9.61266e-07
-1.94092e-06
9.78834e-07
-2.03531e-06
9.8155e-07
-2.12209e-06
9.6425e-07
-2.19863e-06
9.27462e-07
-2.26237e-06
8.66889e-07
-2.31048e-06
7.82009e-07
-2.34003e-06
6.68031e-07
-2.34807e-06
5.23956e-07
-2.33173e-06
3.42304e-07
-2.28827e-06
1.29961e-07
-2.21458e-06
-1.09307e-07
-2.10791e-06
-3.79862e-07
-1.96644e-06
-6.81368e-07
-1.78797e-06
-1.01625e-06
-1.57081e-06
-1.37667e-06
-1.31393e-06
-1.75638e-06
-1.01768e-06
-2.14358e-06
-6.82659e-07
-2.53181e-06
-3.10923e-07
-2.91181e-06
9.58046e-08
-3.27668e-06
5.33093e-07
-3.60946e-06
9.98355e-07
-3.89705e-06
1.48431e-06
-4.10429e-06
1.99416e-06
-4.25446e-06
2.52024e-06
-4.36019e-06
3.0649e-06
-4.47239e-06
3.60759e-06
-4.48136e-06
4.16058e-06
-4.49182e-06
4.69208e-06
-4.36783e-06
5.22828e-06
-4.25345e-06
5.72386e-06
-4.04319e-06
6.21927e-06
-3.75904e-06
6.66029e-06
-3.59111e-06
7.09425e-06
-3.0998e-06
7.47761e-06
-2.99394e-06
7.83938e-06
-2.37199e-06
8.1461e-06
-2.40938e-06
8.4421e-06
-1.4721e-06
8.70437e-06
-2.32743e-06
8.97493e-06
-1.5217e-06
-6.26685e-06
8.53128e-06
5.51302e-05
5.78784e-06
3.4125e-05
3.35915e-06
1.73412e-05
1.70119e-06
9.4254e-06
6.87498e-07
4.89253e-06
5.65686e-08
2.89275e-06
-3.3046e-07
1.70963e-06
-5.95968e-07
1.17144e-06
-7.80026e-07
8.53916e-07
-9.22847e-07
6.96984e-07
-1.03801e-06
6.44867e-07
-1.14104e-06
6.42931e-07
-1.23725e-06
7.01251e-07
-1.33449e-06
7.71644e-07
-1.43293e-06
8.55802e-07
-1.53311e-06
9.19734e-07
-1.63327e-06
9.80515e-07
-1.73303e-06
1.02566e-06
-1.83012e-06
1.05835e-06
-1.92306e-06
1.07178e-06
-2.00944e-06
1.06794e-06
-2.08732e-06
1.04213e-06
-2.15421e-06
9.94353e-07
-2.20774e-06
9.20417e-07
-2.24517e-06
8.19436e-07
-2.26368e-06
6.86542e-07
-2.26047e-06
5.20746e-07
-2.23282e-06
3.14661e-07
-2.17813e-06
7.5263e-08
-2.09333e-06
-1.94101e-07
-1.97585e-06
-4.97347e-07
-1.82403e-06
-8.3318e-07
-1.63582e-06
-1.20446e-06
-1.40963e-06
-1.60286e-06
-1.14452e-06
-2.0215e-06
-8.40879e-07
-2.44722e-06
-4.99348e-07
-2.87334e-06
-1.21953e-07
-3.28921e-06
2.8963e-07
-3.68826e-06
7.31157e-07
-4.05099e-06
1.20034e-06
-4.36623e-06
1.69051e-06
-4.59446e-06
2.20436e-06
-4.76831e-06
2.73355e-06
-4.88938e-06
3.28001e-06
-5.01884e-06
3.82404e-06
-5.02539e-06
4.37713e-06
-5.04492e-06
4.90881e-06
-4.89951e-06
5.44425e-06
-4.78888e-06
5.9393e-06
-4.53824e-06
6.43456e-06
-4.25431e-06
6.87375e-06
-4.0303e-06
7.30961e-06
-3.53566e-06
7.69153e-06
-3.37586e-06
8.05751e-06
-2.73796e-06
8.36405e-06
-2.71592e-06
8.6701e-06
-1.77816e-06
8.92608e-06
-2.58342e-06
9.2077e-06
-1.80331e-06
-6.53475e-06
8.86402e-06
5.62662e-05
6.38246e-06
3.66066e-05
3.93647e-06
1.97872e-05
2.15872e-06
1.12032e-05
1.01449e-06
6.03676e-06
2.84045e-07
3.6232e-06
-1.75573e-07
2.16925e-06
-4.90448e-07
1.48631e-06
-7.08445e-07
1.07191e-06
-8.75246e-07
8.63785e-07
-1.00619e-06
7.75812e-07
-1.11961e-06
7.56346e-07
-1.22132e-06
8.02962e-07
-1.32072e-06
8.71047e-07
-1.4187e-06
9.53781e-07
-1.51658e-06
1.01761e-06
-1.61278e-06
1.07672e-06
-1.70728e-06
1.12015e-06
-1.79795e-06
1.14902e-06
-1.88353e-06
1.15736e-06
-1.96175e-06
1.14616e-06
-2.03079e-06
1.11116e-06
-2.08821e-06
1.05178e-06
-2.13175e-06
9.63956e-07
-2.15878e-06
8.46464e-07
-2.16661e-06
6.94375e-07
-2.15259e-06
5.06725e-07
-2.11415e-06
2.76222e-07
-2.04878e-06
9.89244e-09
-1.95353e-06
-2.89356e-07
-1.82594e-06
-6.24932e-07
-1.66455e-06
-9.94575e-07
-1.4674e-06
-1.4016e-06
-1.23303e-06
-1.83724e-06
-9.60557e-07
-2.29397e-06
-6.50448e-07
-2.75733e-06
-3.03365e-07
-3.22042e-06
7.86869e-08
-3.67126e-06
4.94071e-07
-4.10364e-06
9.38713e-07
-4.49563e-06
1.41056e-06
-4.83808e-06
1.90347e-06
-5.08737e-06
2.41954e-06
-5.28438e-06
2.94988e-06
-5.41972e-06
3.49604e-06
-5.565e-06
4.03925e-06
-5.56861e-06
4.59018e-06
-5.59585e-06
5.11978e-06
-5.42911e-06
5.65196e-06
-5.32106e-06
6.14411e-06
-5.03039e-06
6.63634e-06
-4.74654e-06
7.07158e-06
-4.46554e-06
7.50595e-06
-3.97003e-06
7.88358e-06
-3.75349e-06
8.25013e-06
-3.10451e-06
8.5539e-06
-3.0197e-06
8.86491e-06
-2.08916e-06
9.11273e-06
-2.83124e-06
9.39969e-06
-2.09027e-06
-6.75623e-06
9.15404e-06
5.71121e-05
6.94315e-06
3.88175e-05
4.52466e-06
2.22057e-05
2.65227e-06
1.30755e-05
1.38439e-06
7.30465e-06
5.50922e-07
4.45667e-06
1.47524e-08
2.70542e-06
-3.55067e-07
1.85613e-06
-6.10923e-07
1.32777e-06
-8.04442e-07
1.0573e-06
-9.53119e-07
9.2449e-07
-1.07811e-06
8.81339e-07
-1.18613e-06
9.10978e-07
-1.28804e-06
9.72958e-07
-1.38564e-06
1.05138e-06
-1.48111e-06
1.11309e-06
-1.57327e-06
1.16888e-06
-1.66245e-06
1.20932e-06
-1.74671e-06
1.23328e-06
-1.82497e-06
1.23562e-06
-1.89509e-06
1.21628e-06
-1.95534e-06
1.17141e-06
-2.00341e-06
1.09985e-06
-2.03713e-06
9.97673e-07
-2.05398e-06
8.63317e-07
-2.05142e-06
6.91815e-07
-2.02693e-06
4.82233e-07
-1.97807e-06
2.27366e-07
-1.90245e-06
-6.5727e-08
-1.79722e-06
-3.94589e-07
-1.66007e-06
-7.62083e-07
-1.48967e-06
-1.16498e-06
-1.28419e-06
-1.60708e-06
-1.04227e-06
-2.07916e-06
-7.63126e-07
-2.57311e-06
-4.47273e-07
-3.07318e-06
-9.54037e-08
-3.57229e-06
2.90491e-07
-4.05715e-06
7.08808e-07
-4.52196e-06
1.15562e-06
-4.94245e-06
1.62907e-06
-5.31153e-06
2.12343e-06
-5.58173e-06
2.6402e-06
-5.80115e-06
3.17004e-06
-5.94956e-06
3.7142e-06
-6.10916e-06
4.25481e-06
-6.10922e-06
4.80176e-06
-6.14279e-06
5.32743e-06
-5.95478e-06
5.85439e-06
-5.84802e-06
6.34175e-06
-5.51775e-06
6.82871e-06
-5.23349e-06
7.2583e-06
-4.89513e-06
7.68864e-06
-4.40036e-06
8.05989e-06
-4.12475e-06
8.42424e-06
-3.46885e-06
8.72333e-06
-3.31879e-06
9.03544e-06
-2.40127e-06
9.2739e-06
-3.06969e-06
9.56151e-06
-2.37788e-06
-6.93717e-06
9.4052e-06
5.77069e-05
7.46576e-06
4.07569e-05
5.11562e-06
2.45559e-05
3.1763e-06
1.50149e-05
1.79531e-06
8.68563e-06
8.58071e-07
5.39391e-06
2.39284e-07
3.32421e-06
-1.88489e-07
2.2839e-06
-4.86249e-07
1.62553e-06
-7.09472e-07
1.28053e-06
-8.78301e-07
1.09332e-06
-1.01652e-06
1.01956e-06
-1.13197e-06
1.02643e-06
-1.23705e-06
1.07804e-06
-1.33468e-06
1.14901e-06
-1.42802e-06
1.20642e-06
-1.5163e-06
1.25716e-06
-1.60025e-06
1.29327e-06
-1.67817e-06
1.3112e-06
-1.74917e-06
1.30662e-06
-1.81125e-06
1.27837e-06
-1.86281e-06
1.22297e-06
-1.90165e-06
1.13868e-06
-1.92569e-06
1.02172e-06
-1.93256e-06
8.70185e-07
-1.91983e-06
6.7909e-07
-1.88514e-06
4.47533e-07
-1.82616e-06
1.68387e-07
-1.74062e-06
-1.51266e-07
-1.62578e-06
-5.09426e-07
-1.47948e-06
-9.08384e-07
-1.30052e-06
-1.34394e-06
-1.08719e-06
-1.8204e-06
-8.38237e-07
-2.32812e-06
-5.52971e-07
-2.85837e-06
-2.31964e-07
-3.39419e-06
1.24057e-07
-3.92831e-06
5.13113e-07
-4.44621e-06
9.33623e-07
-4.94247e-06
1.38179e-06
-5.39062e-06
1.8559e-06
-5.78564e-06
2.35057e-06
-6.07639e-06
2.86671e-06
-6.31729e-06
3.39467e-06
-6.47752e-06
3.93539e-06
-6.64989e-06
4.47191e-06
-6.64574e-06
5.01336e-06
-6.68425e-06
5.53355e-06
-6.47497e-06
6.0537e-06
-6.36817e-06
6.53468e-06
-5.99873e-06
7.01459e-06
-5.71341e-06
7.43714e-06
-5.31768e-06
7.86146e-06
-4.82468e-06
8.22478e-06
-4.48807e-06
8.58476e-06
-3.82884e-06
8.87769e-06
-3.61172e-06
9.188e-06
-2.71159e-06
9.4163e-06
-3.29798e-06
9.7009e-06
-2.66249e-06
-7.08248e-06
9.62137e-06
5.80855e-05
7.94801e-06
4.24303e-05
5.70199e-06
2.68019e-05
3.72484e-06
1.6992e-05
2.24469e-06
1.01658e-05
1.20551e-06
6.43308e-06
5.01721e-07
4.02799e-06
9.87825e-09
2.77575e-06
-3.33057e-07
1.96846e-06
-5.89215e-07
1.53669e-06
-7.8093e-07
1.28503e-06
-9.34381e-07
1.17301e-06
-1.05878e-06
1.15082e-06
-1.16804e-06
1.1873e-06
-1.26638e-06
1.24735e-06
-1.35803e-06
1.29808e-06
-1.44275e-06
1.34188e-06
-1.52168e-06
1.3722e-06
-1.59343e-06
1.38295e-06
-1.6573e-06
1.37049e-06
-1.71146e-06
1.33253e-06
-1.75444e-06
1.26595e-06
-1.78417e-06
1.16841e-06
-1.79869e-06
1.03624e-06
-1.79574e-06
8.67236e-07
-1.77304e-06
6.56391e-07
-1.72835e-06
4.02845e-07
-1.65949e-06
9.95247e-08
-1.5643e-06
-2.46457e-07
-1.44016e-06
-6.33562e-07
-1.28505e-06
-1.0635e-06
-1.09789e-06
-1.5311e-06
-8.77115e-07
-2.04118e-06
-6.21546e-07
-2.58369e-06
-3.30615e-07
-3.1493e-06
-4.95374e-09
-3.71985e-06
3.54676e-07
-4.28794e-06
7.46302e-07
-4.83783e-06
1.16836e-06
-5.36453e-06
1.61716e-06
-5.83942e-06
2.09109e-06
-6.25957e-06
2.58504e-06
-6.57033e-06
3.0994e-06
-6.83166e-06
3.62426e-06
-7.00237e-06
4.16032e-06
-7.18595e-06
4.69145e-06
-7.17687e-06
5.22613e-06
-7.21892e-06
5.73949e-06
-6.98832e-06
6.25149e-06
-6.88017e-06
6.72472e-06
-6.47196e-06
7.19613e-06
-6.18482e-06
7.61044e-06
-5.73199e-06
8.02714e-06
-5.24137e-06
8.38131e-06
-4.84224e-06
8.7352e-06
-4.18274e-06
9.02077e-06
-3.89728e-06
9.32706e-06
-3.01788e-06
9.54465e-06
-3.51557e-06
9.82343e-06
-2.94128e-06
-7.19617e-06
9.80633e-06
5.82792e-05
8.38901e-06
4.38476e-05
6.27725e-06
2.89136e-05
4.29171e-06
1.89775e-05
2.72922e-06
1.17283e-05
1.59266e-06
7.56965e-06
8.02166e-07
4.81848e-06
2.44149e-07
3.33376e-06
-1.49846e-07
2.36246e-06
-4.42386e-07
1.82923e-06
-6.59962e-07
1.50261e-06
-8.30975e-07
1.34402e-06
-9.6615e-07
1.286e-06
-1.08089e-06
1.30204e-06
-1.18085e-06
1.34732e-06
-1.27146e-06
1.38868e-06
-1.35308e-06
1.42351e-06
-1.42733e-06
1.44645e-06
-1.49316e-06
1.44878e-06
-1.55009e-06
1.42742e-06
-1.5965e-06
1.37894e-06
-1.63105e-06
1.3005e-06
-1.65181e-06
1.18917e-06
-1.65695e-06
1.04138e-06
-1.64434e-06
8.54629e-07
-1.61184e-06
6.23895e-07
-1.55736e-06
3.48361e-07
-1.47882e-06
2.09881e-08
-1.37421e-06
-3.51069e-07
-1.24103e-06
-7.66739e-07
-1.07739e-06
-1.22714e-06
-8.82356e-07
-1.72613e-06
-6.54457e-07
-2.26908e-06
-3.92641e-07
-2.8455e-06
-9.64406e-08
-3.4455e-06
2.33439e-07
-4.04973e-06
5.96202e-07
-4.65071e-06
9.89874e-07
-5.23151e-06
1.4129e-06
-5.78756e-06
1.86169e-06
-6.28821e-06
2.33467e-06
-6.73256e-06
2.82697e-06
-7.06263e-06
3.33851e-06
-7.3432e-06
3.85919e-06
-7.52305e-06
4.38954e-06
-7.7163e-06
4.91414e-06
-7.70148e-06
5.44094e-06
-7.74572e-06
5.94629e-06
-7.49367e-06
6.44896e-06
-7.38285e-06
6.91325e-06
-6.93624e-06
7.37493e-06
-6.6465e-06
7.77995e-06
-6.13701e-06
8.18768e-06
-5.6491e-06
8.53173e-06
-5.18629e-06
8.8781e-06
-4.52911e-06
9.15532e-06
-4.1745e-06
9.45584e-06
-3.3184e-06
9.66232e-06
-3.72205e-06
9.93316e-06
-3.21211e-06
-7.28148e-06
9.96363e-06
5.83156e-05
8.78892e-06
4.50223e-05
6.8357e-06
3.08669e-05
4.87062e-06
2.09426e-05
3.24499e-06
1.33539e-05
2.0183e-06
8.79634e-06
1.14112e-06
5.69567e-06
5.12893e-07
3.96198e-06
6.49134e-08
2.81044e-06
-2.6755e-07
2.16169e-06
-5.14139e-07
1.7492e-06
-7.05315e-07
1.5352e-06
-8.53401e-07
1.43408e-06
-9.75201e-07
1.42384e-06
-1.07794e-06
1.45006e-06
-1.16831e-06
1.47905e-06
-1.24746e-06
1.50265e-06
-1.31746e-06
1.51646e-06
-1.3777e-06
1.50901e-06
-1.42795e-06
1.47767e-06
-1.46682e-06
1.41781e-06
-1.49312e-06
1.32679e-06
-1.50507e-06
1.20113e-06
-1.501e-06
1.0373e-06
-1.4789e-06
8.32531e-07
-1.43678e-06
5.81775e-07
-1.37268e-06
2.84264e-07
-1.28466e-06
-6.70295e-08
-1.17084e-06
-4.64892e-07
-1.02886e-06
-9.08723e-07
-8.56946e-07
-1.39905e-06
-6.54306e-07
-1.92877e-06
-4.19582e-07
-2.5038e-06
-1.5184e-07
-3.11325e-06
1.49275e-07
-3.74662e-06
4.82982e-07
-4.38344e-06
8.48446e-07
-5.01617e-06
1.24369e-06
-5.62675e-06
1.66716e-06
-6.21103e-06
2.11532e-06
-6.73637e-06
2.58667e-06
-7.20391e-06
3.07647e-06
-7.55243e-06
3.58426e-06
-7.85099e-06
4.0998e-06
-8.03859e-06
4.62347e-06
-8.23997e-06
5.14054e-06
-8.21855e-06
5.65846e-06
-8.26364e-06
6.15473e-06
-7.98994e-06
6.64706e-06
-7.87518e-06
7.10131e-06
-7.3905e-06
7.55221e-06
-7.0974e-06
7.94698e-06
-6.53178e-06
8.34458e-06
-6.04671e-06
8.67771e-06
-5.51941e-06
9.01533e-06
-4.86674e-06
9.28338e-06
-4.44255e-06
9.57671e-06
-3.61173e-06
9.77177e-06
-3.91711e-06
1.0033e-05
-3.47338e-06
-7.34103e-06
1.00966e-05
5.8219e-05
9.1487e-06
4.59702e-05
7.37251e-06
3.26431e-05
5.45532e-06
2.28598e-05
3.78747e-06
1.50217e-05
2.48058e-06
1.01032e-05
1.51865e-06
6.65761e-06
8.18076e-07
4.66255e-06
3.1254e-07
3.31597e-06
-6.32251e-08
2.53745e-06
-3.42026e-07
2.028e-06
-5.5618e-07
1.74935e-06
-7.19569e-07
1.59747e-06
-8.50286e-07
1.55456e-06
-9.57172e-07
1.55694e-06
-1.04833e-06
1.5702e-06
-1.12573e-06
1.58006e-06
-1.19206e-06
1.58278e-06
-1.24713e-06
1.56408e-06
-1.29103e-06
1.52158e-06
-1.32262e-06
1.4494e-06
-1.3409e-06
1.34507e-06
-1.34426e-06
1.20449e-06
-1.33115e-06
1.02419e-06
-1.29974e-06
8.01124e-07
-1.24818e-06
5.30213e-07
-1.17466e-06
2.1074e-07
-1.07735e-06
-1.64336e-07
-9.54523e-07
-5.8772e-07
-8.03953e-07
-1.05929e-06
-6.24009e-07
-1.579e-06
-4.14021e-07
-2.13876e-06
-1.72747e-07
-2.74508e-06
1.00626e-07
-3.38662e-06
4.0633e-07
-4.05232e-06
7.43502e-07
-4.72061e-06
1.11127e-06
-5.38394e-06
1.50764e-06
-6.02312e-06
1.93107e-06
-6.63445e-06
2.37805e-06
-7.18335e-06
2.84711e-06
-7.67296e-06
3.33362e-06
-8.03894e-06
3.8368e-06
-8.35417e-06
4.34633e-06
-8.54813e-06
4.86247e-06
-8.75611e-06
5.37109e-06
-8.72716e-06
5.87925e-06
-8.7718e-06
6.36545e-06
-8.47614e-06
6.84651e-06
-8.35624e-06
7.28974e-06
-7.83372e-06
7.7289e-06
-7.53655e-06
8.11254e-06
-6.91543e-06
8.49901e-06
-6.43318e-06
8.82051e-06
-5.84091e-06
9.14832e-06
-5.19454e-06
9.40645e-06
-4.70068e-06
9.69143e-06
-3.89671e-06
9.8748e-06
-4.10049e-06
1.01252e-05
-3.72382e-06
-7.37695e-06
1.02084e-05
5.80106e-05
9.46998e-06
4.67087e-05
7.88371e-06
3.42293e-05
6.03977e-06
2.47038e-05
4.35172e-06
1.67098e-05
2.97693e-06
1.1478e-05
1.9343e-06
7.70024e-06
1.16052e-06
5.43633e-06
5.94664e-07
3.88183e-06
1.72335e-07
2.95978e-06
-1.42055e-07
2.34239e-06
-3.82154e-07
1.98945e-06
-5.63463e-07
1.77878e-06
-7.05207e-07
1.6963e-06
-8.17843e-07
1.66958e-06
-9.10974e-07
1.66334e-06
-9.87551e-07
1.65663e-06
-1.05088e-06
1.64611e-06
-1.10131e-06
1.61451e-06
-1.13928e-06
1.55955e-06
-1.16392e-06
1.47404e-06
-1.17445e-06
1.35559e-06
-1.16946e-06
1.19949e-06
-1.14754e-06
1.00228e-06
-1.10703e-06
7.60617e-07
-1.04623e-06
4.69412e-07
-9.6348e-07
1.27987e-07
-8.57083e-07
-2.70733e-07
-7.25457e-07
-7.19346e-07
-5.66519e-07
-1.21823e-06
-3.78776e-07
-1.76674e-06
-1.61689e-07
-2.35585e-06
8.58741e-08
-2.99264e-06
3.64596e-07
-3.66534e-06
6.74582e-07
-4.36231e-06
1.01488e-06
-5.0609e-06
1.38457e-06
-5.75363e-06
1.78166e-06
-6.42021e-06
2.20457e-06
-7.05737e-06
2.64985e-06
-7.62863e-06
3.11601e-06
-8.13913e-06
3.59851e-06
-8.52144e-06