/*--------------------------------*- C++ -*----------------------------------*\
| =========                 |                                                 |
| \\      /  F ield         | OpenFOAM: The Open Source CFD Toolbox           |
|  \\    /   O peration     | Version:  2.4.0                                 |
|   \\  /    A nd           | Web:      www.OpenFOAM.org                      |
|    \\/     M anipulation  |                                                 |
\*---------------------------------------------------------------------------*/
FoamFile
{
    version     2.0;
    format      ascii;
    class       volScalarField;
    location    "0.1";
    object      p;
}
// * * * * * * * * * * * * * * * * * * * * * * * * * * * * * * * * * * * * * //

dimensions      [0 2 -2 0 0 0 0];

internalField   nonuniform List<scalar> 
2320
(
5.16404
5.16394
5.16367
5.16322
5.16256
5.16163
5.16033
5.15855
5.15612
5.15282
5.14833
5.14226
5.13406
5.12302
5.10822
5.08847
5.06224
5.02768
4.98253
4.92419
5.16408
5.16397
5.16371
5.16327
5.16263
5.16172
5.16046
5.15872
5.15634
5.15311
5.14872
5.14278
5.13474
5.12391
5.10937
5.08991
5.06403
5.02984
4.98505
4.92701
5.16415
5.16404
5.1638
5.16338
5.16277
5.1619
5.1607
5.15904
5.15678
5.15369
5.1495
5.14381
5.1361
5.12568
5.11164
5.0928
5.06761
5.03416
4.9901
4.93267
5.16424
5.16415
5.16392
5.16354
5.16297
5.16217
5.16105
5.15952
5.15742
5.15455
5.15065
5.14533
5.13811
5.12831
5.11503
5.09709
5.07295
5.04063
4.99768
4.9412
5.16437
5.16429
5.16408
5.16374
5.16323
5.16251
5.16152
5.16014
5.15825
5.15567
5.15214
5.14732
5.14074
5.13175
5.11949
5.10277
5.08004
5.04925
5.00783
4.95266
5.16452
5.16445
5.16428
5.16398
5.16355
5.16293
5.16207
5.16089
5.15926
5.15702
5.15396
5.14974
5.14395
5.13597
5.12496
5.10978
5.08883
5.06001
5.02057
4.96711
5.1647
5.16464
5.1645
5.16426
5.16391
5.16341
5.16271
5.16175
5.16042
5.15858
5.15605
5.15254
5.14768
5.14089
5.13139
5.11805
5.09928
5.07288
5.03591
4.98464
5.16489
5.16485
5.16474
5.16457
5.16431
5.16394
5.16342
5.1627
5.1617
5.16032
5.15838
5.15567
5.15186
5.14644
5.13868
5.1275
5.11131
5.08783
5.0539
5.00534
5.1651
5.16507
5.16501
5.1649
5.16474
5.1645
5.16418
5.16372
5.16308
5.16218
5.1609
5.15907
5.15641
5.15251
5.14672
5.13801
5.12483
5.10481
5.07455
5.02934
5.16531
5.1653
5.16528
5.16524
5.16518
5.16509
5.16497
5.16479
5.16452
5.16414
5.16355
5.16265
5.16124
5.159
5.15538
5.14945
5.13971
5.12374
5.09787
5.05675
5.16553
5.16554
5.16556
5.16559
5.16563
5.16569
5.16577
5.16587
5.166
5.16614
5.16627
5.16634
5.16625
5.16578
5.16451
5.16164
5.15577
5.14448
5.12385
5.0877
5.16574
5.16577
5.16583
5.16593
5.16608
5.16629
5.16657
5.16695
5.16746
5.16813
5.16899
5.17006
5.17132
5.1727
5.17391
5.17436
5.17281
5.16685
5.15242
5.12233
5.16595
5.16599
5.16609
5.16626
5.16651
5.16686
5.16734
5.168
5.16888
5.17007
5.17165
5.1737
5.17633
5.17958
5.18338
5.18735
5.19051
5.1906
5.18347
5.16076
5.16614
5.1662
5.16634
5.16657
5.16692
5.1674
5.16806
5.16898
5.17022
5.17191
5.17417
5.17717
5.18113
5.18624
5.19265
5.20028
5.2085
5.21533
5.21678
5.20309
5.16632
5.16639
5.16656
5.16686
5.16728
5.16789
5.16873
5.16988
5.17145
5.17359
5.17648
5.18038
5.18559
5.19249
5.20146
5.21277
5.22629
5.24051
5.2519
5.24934
5.16647
5.16656
5.16676
5.1671
5.16761
5.16832
5.1693
5.17067
5.17253
5.17507
5.17853
5.18323
5.18958
5.19812
5.2095
5.22439
5.24328
5.26538
5.28811
5.29935
5.1666
5.16669
5.16692
5.16731
5.16787
5.16867
5.16979
5.17132
5.17343
5.17631
5.18025
5.18563
5.19295
5.20292
5.21645
5.23462
5.25869
5.2889
5.3244
5.35215
5.1667
5.1668
5.16705
5.16747
5.16808
5.16895
5.17016
5.17183
5.17413
5.17728
5.18159
5.1875
5.1956
5.20671
5.22199
5.24292
5.27163
5.30958
5.35916
5.40477
5.16677
5.16687
5.16714
5.16758
5.16822
5.16914
5.17042
5.17218
5.17461
5.17794
5.18251
5.18878
5.19742
5.20934
5.22585
5.24879
5.28103
5.32551
5.38898
5.45516
5.1668
5.16691
5.16718
5.16763
5.16829
5.16923
5.17054
5.17236
5.17485
5.17827
5.18297
5.18944
5.19835
5.21068
5.22783
5.25183
5.28591
5.33447
5.40706
5.50645
4.84978
4.75639
4.64138
4.50279
4.33979
4.15314
3.94557
3.72225
4.85278
4.75938
4.64412
4.50499
4.34118
4.1534
3.9444
3.71938
4.85881
4.76541
4.64963
4.50943
4.34396
4.15393
3.94204
3.71359
4.86793
4.77452
4.65796
4.51613
4.34816
4.15471
3.93843
3.70472
4.8802
4.78679
4.66917
4.52513
4.35378
4.15574
3.93347
3.69254
4.89573
4.80234
4.68335
4.53649
4.36087
4.15699
3.92702
3.67674
4.91465
4.82131
4.7006
4.55025
4.36944
4.15845
3.91892
3.65692
4.93713
4.84387
4.72099
4.56646
4.37951
4.1601
3.90891
3.63257
4.96337
4.87018
4.74459
4.58512
4.39107
4.16188
3.89659
3.60299
4.99362
4.90047
4.77144
4.60621
4.40411
4.16374
3.88153
3.56753
5.0282
4.93494
4.80148
4.62965
4.41861
4.16578
3.86355
3.52622
5.06746
4.97368
4.83448
4.6553
4.4347
4.16819
3.84275
3.48009
5.11195
5.01664
4.86994
4.68292
4.45237
4.17067
3.81836
3.42916
5.16261
5.06387
4.90729
4.71206
4.47125
4.17252
3.78881
3.36914
5.22056
5.11517
4.94597
4.74224
4.49139
4.17489
3.75641
3.29582
5.28578
5.1683
4.98512
4.77382
4.51452
4.18082
3.73105
3.22271
5.35818
5.2187
5.02276
4.80697
4.54203
4.18846
3.71743
3.17067
5.44666
5.26375
5.05425
4.83737
4.57
4.18925
3.70066
3.06633
5.56642
5.30458
5.07683
4.86055
4.59568
4.1925
3.69148
2.72561
5.68232
5.34485
5.10836
4.89275
4.64009
4.24906
3.79621
2.37865
3.49097
3.26166
3.04521
2.8515
2.68743
2.55565
2.45463
2.37975
2.32478
2.28333
2.24987
2.22027
2.19171
2.16225
2.13056
2.09566
2.05685
2.0135
1.96492
1.91014
1.84765
1.77513
1.68853
1.58105
1.43991
1.23831
0.912383
0.289383
3.48627
3.25523
3.03742
2.84302
2.67902
2.548
2.44823
2.37486
2.32137
2.28119
2.2487
2.21979
2.19171
2.16259
2.13115
2.09647
2.05785
2.01473
1.96645
1.91209
1.85024
1.7787
1.69371
1.58916
1.45354
1.2677
0.988765
0.601131
3.47676
3.24218
3.02162
2.82582
2.66199
2.53254
2.43536
2.36505
2.3146
2.27699
2.24643
2.21889
2.19175
2.1633
2.13236
2.09808
2.05985
2.01717
1.96946
1.91591
1.8553
1.78565
1.70379
1.60469
1.47988
1.31753
1.09919
0.832335
3.46216
3.22211
2.99732
2.79942
2.63593
2.50898
2.41584
2.35032
2.30453
2.27083
2.24317
2.21764
2.19188
2.16442
2.1342
2.1005
2.06282
2.02077
1.97387
1.92149
1.86261
1.79565
1.71815
1.62643
1.51509
1.37834
1.21025
1.02637
3.44208
3.1944
2.96377
2.76307
2.6002
2.47685
2.38944
2.33064
2.29132
2.26291
2.2391
2.21619
2.19222
2.16599
2.13667
2.10371
2.06673
2.02547
1.9796
1.92866
1.87193
1.80826
1.73596
1.65272
1.55571
1.44328
1.31681
1.1944
3.41592
3.15816
2.91988
2.71572
2.5539
2.4355
2.35584
2.30602
2.27518
2.25353
2.23447
2.21474
2.19287
2.16809
2.13983
2.10771
2.07154
2.03119
1.9865
1.93722
1.88294
1.82296
1.75634
1.68195
1.599
1.50854
1.41579
1.33795
3.3829
3.11212
2.86417
2.65594
2.49582
2.38405
2.31464
2.2765
2.25643
2.24306
2.22963
2.21353
2.19401
2.17081
2.14368
2.11249
2.07721
2.03784
1.99442
1.94694
1.89527
1.83918
1.77838
1.71275
1.64291
1.57161
1.50565
1.46024
3.34193
3.05444
2.79446
2.58161
2.42412
2.3212
2.26524
2.24215
2.2355
2.23201
2.22501
2.21286
2.19581
2.17423
2.14827
2.11804
2.08366
2.04532
2.00321
1.95756
1.90856
1.85638
1.8013
1.74396
1.68596
1.63094
1.58604
1.56419
3.29149
2.98277
2.70818
2.4903
2.33666
2.2454
2.20704
2.20317
2.213
2.22104
2.22111
2.21308
2.19846
2.17843
2.1536
2.12432
2.09085
2.05351
2.01269
1.96885
1.92245
1.87405
1.8244
1.77467
1.72708
1.68564
1.65718
1.65234
3.22976
2.89433
2.60285
2.37999
2.23175
2.1556
2.13989
2.16037
2.19002
2.21113
2.21869
2.21464
2.20216
2.18347
2.15967
2.1313
2.0987
2.0623
2.02269
1.98055
1.93663
1.89176
1.84709
1.80417
1.76556
1.7353
1.71955
1.72691
3.1547
2.78565
2.4754
2.24821
2.10747
2.05075
2.06463
2.11524
2.16823
2.20379
2.21893
2.21832
2.2073
2.18947
2.16648
2.13892
2.10712
2.07158
2.03305
1.99245
1.95076
1.90914
1.86889
1.83194
1.80093
1.77974
1.77375
1.78979
3.06417
2.65206
2.32034
2.08878
1.95824
1.92697
1.97981
2.06857
2.14912
2.20054
2.22321
2.2252
2.21457
2.19674
2.1741
2.14717
2.11605
2.08124
2.04362
2.00433
1.96459
1.92578
1.88943
1.85759
1.83291
1.81899
1.82042
1.84253
2.95352
2.48722
2.12968
1.89049
1.77239
1.78014
1.8821
2.02007
2.13354
2.20244
2.23251
2.23613
2.22463
2.20572
2.18272
2.15604
2.12541
2.09115
2.05423
2.01598
1.97786
1.94142
1.90837
1.8808
1.86131
1.85315
1.86017
1.88646
2.80581
2.27497
1.88923
1.63734
1.53291
1.58978
1.76706
1.96968
2.12282
2.211
2.2478
2.25162
2.23791
2.21679
2.19258
2.16563
2.13518
2.10122
2.06474
2.02723
1.99036
1.95583
1.92548
1.9014
1.88607
1.8824
1.89359
1.9227
2.58351
1.97761
1.56788
1.30413
1.22425
1.35082
1.63106
1.91685
2.11809
2.22747
2.26961
2.27158
2.25417
2.22987
2.20369
2.17587
2.14519
2.11125
2.07492
2.03783
2.00184
1.96878
1.94055
1.91924
1.90721
1.90702
1.9213
1.95229
2.26555
1.57672
1.14934
0.882501
0.849633
1.07518
1.48387
1.86644
2.12205
2.25314
2.2981
2.29566
2.27303
2.24476
2.21602
2.18679
2.15544
2.12116
2.0847
2.04775
2.01229
1.9803
1.95372
1.93459
1.92511
1.92754
1.94402
1.97612
1.92355
1.1833
0.738353
0.482187
0.473468
0.817397
1.35185
1.82626
2.13559
2.28643
2.33122
2.32211
2.29314
2.26042
2.22882
2.19784
2.16548
2.13061
2.09382
2.05681
2.02164
1.99036
1.96497
1.94744
1.93984
1.94411
1.96201
1.99464
1.6031
0.997633
0.542815
0.315838
0.314825
0.69357
1.28649
1.81186
2.15811
2.32202
2.36443
2.34834
2.31323
2.27615
2.24158
2.20864
2.17505
2.13943
2.10218
2.06497
2.02988
1.99902
1.97436
1.95788
1.95144
1.95683
1.97548
2.0081
0.914005
1.01853
0.558054
0.327464
0.32586
0.705828
1.30433
1.82977
2.18497
2.35142
2.39041
2.36915
2.3297
2.28933
2.25229
2.2176
2.18285
2.1465
2.1088
2.07133
2.03615
2.00538
1.98101
1.96495
1.95899
1.96481
1.98367
2.01609
-0.445079
1.09454
0.57055
0.397904
0.412881
0.772793
1.33646
1.85162
2.20066
2.36414
2.40171
2.37908
2.33851
2.29698
2.25876
2.22303
2.18746
2.15051
2.11241
2.07469
2.03938
2.00859
1.98428
1.96834
1.96253
1.96842
1.98718
2.01942
-0.82157
-0.339894
0.185389
0.709158
1.27887
1.75157
2.20581
2.26907
0.043046
0.177445
0.59324
1.0544
1.54396
1.98638
2.4105
2.65072
0.510623
0.563958
0.924365
1.33702
1.75775
2.16043
2.55177
2.84351
0.855849
0.907603
1.19493
1.55152
1.92075
2.28367
2.63628
2.92621
1.10954
1.17007
1.40596
1.71772
2.04449
2.36708
2.6787
2.93943
1.30482
1.37693
1.57755
1.84776
2.1353
2.4194
2.69033
2.91385
1.45944
1.53903
1.71374
1.94812
2.20049
2.44886
2.68133
2.86808
1.58383
1.66703
1.82199
2.02585
2.24628
2.46187
2.65943
2.81325
1.68491
1.76873
1.90759
2.08547
2.27739
2.46355
2.63035
2.75593
1.76749
1.84989
1.97509
2.13091
2.29772
2.45784
2.59803
2.6999
1.83508
1.91482
2.02818
2.16522
2.3102
2.44763
2.56514
2.64737
1.89036
1.96678
2.06979
2.19089
2.31711
2.43505
2.53345
2.59956
1.93542
2.00825
2.10226
2.20988
2.32017
2.42158
2.50407
2.55708
1.97189
2.04119
2.12743
2.22374
2.32069
2.40829
2.47771
2.52017
2.00117
2.06715
2.14675
2.23366
2.31961
2.3959
2.45475
2.48886
2.02431
2.08724
2.16126
2.24051
2.31761
2.38486
2.4354
2.46304
2.04192
2.10215
2.17165
2.2449
2.31517
2.37552
2.41977
2.44256
2.05435
2.11234
2.1784
2.24727
2.31266
2.36812
2.40793
2.42731
2.06156
2.11806
2.18195
2.2481
2.31048
2.3629
2.39993
2.41717
2.06446
2.12026
2.18318
2.24812
2.30914
2.36017
2.39589
2.41212
3.15072
3.24386
3.12989
2.93311
2.67265
2.26289
1.94552
1.88486
1.84351
1.74007
1.5999
1.44957
1.29018
1.11684
0.931192
0.738232
0.541431
0.337063
0.112945
-0.224535
3.32833
3.20415
3.03924
2.83219
2.58458
2.24261
1.97094
1.90965
1.85167
1.73603
1.59196
1.4414
1.28287
1.11098
0.927151
0.735769
0.539936
0.336547
0.13221
-0.118038
3.30361
3.13674
2.95855
2.77086
2.54874
2.25032
1.99389
1.91172
1.84345
1.72791
1.58669
1.43766
1.28025
1.1095
0.926829
0.736401
0.541676
0.341322
0.152862
-0.0683358
3.25731
3.07452
2.87881
2.70274
2.5016
2.23863
2.00229
1.91046
1.83921
1.72404
1.58201
1.43285
1.27561
1.10573
0.924383
0.735457
0.542513
0.346596
0.167096
-0.0314639
3.17453
3.00074
2.80155
2.63971
2.46125
2.22983
2.0124
1.91464
1.83641
1.71849
1.57663
1.42788
1.27147
1.10305
0.92341
0.736195
0.545265
0.353345
0.179869
-0.0015962
3.08471
2.92666
2.73245
2.58312
2.42436
2.21918
2.01787
1.91264
1.82881
1.71109
1.57093
1.42297
1.26743
1.10033
0.922262
0.736743
0.547826
0.359682
0.190247
0.0207473
2.99335
2.85232
2.67002
2.5323
2.39063
2.20772
2.02067
1.91082
1.82298
1.70524
1.56597
1.41852
1.26369
1.09788
0.921479
0.737823
0.55103
0.366292
0.199449
0.0377808
2.90559
2.78149
2.61484
2.48771
2.36007
2.19573
2.02124
1.90812
1.81636
1.69838
1.56029
1.41369
1.25977
1.0954
0.920783
0.739075
0.554359
0.372538
0.207107
0.0507514
2.82368
2.71563
2.56607
2.44855
2.33228
2.18337
2.02
1.90472
1.80957
1.69154
1.55479
1.40914
1.25616
1.09323
0.920417
0.740655
0.557925
0.378556
0.213745
0.0607782
2.74899
2.65578
2.52316
2.41434
2.30716
2.17094
2.01736
1.90079
1.80272
1.68467
1.54922
1.40457
1.25257
1.09112
0.920154
0.74236
0.561529
0.384194
0.219391
0.0684904
2.68215
2.6023
2.48552
2.38448
2.28448
2.1586
2.01362
1.89644
1.79584
1.67778
1.54358
1.40002
1.2491
1.08917
0.92009
0.744256
0.565215
0.389526
0.224276
0.0744574
2.62335
2.55518
2.45264
2.35847
2.26408
2.14651
2.00906
1.8918
1.78899
1.67089
1.5379
1.3955
1.24573
1.08737
0.920176
0.746272
0.568903
0.394523
0.228458
0.0790346
2.57243
2.51424
2.42408
2.33589
2.24579
2.13481
2.00389
1.88692
1.78219
1.66403
1.53219
1.39101
1.24247
1.0857
0.920404
0.748399
0.572589
0.399236
0.232194
0.0825625
2.52909
2.47917
2.39949
2.31639
2.22947
2.12359
1.99829
1.88189
1.77545
1.65723
1.52647
1.38653
1.23927
1.08413
0.920733
0.750581
0.576209
0.403612
0.235254
0.0851921
2.49292
2.44966
2.37858
2.29967
2.21498
2.11294
1.99243
1.87676
1.7688
1.65054
1.52084
1.38218
1.23628
1.0828
0.921294
0.752954
0.579924
0.407905
0.238188
0.0873178
2.46349
2.4254
2.36111
2.28549
2.20215
2.10285
1.98642
1.87144
1.76207
1.64363
1.51489
1.37752
1.23305
1.08126
0.921634
0.755039
0.583204
0.411479
0.240282
0.0886932
2.44042
2.40614
2.34694
2.27368
2.19088
2.0933
1.98014
1.867
1.75641
1.63782
1.50985
1.37371
1.23069
1.08061
0.922848
0.757935
0.587225
0.415683
0.242624
0.0898452
2.42336
2.39163
2.33594
2.26417
2.18127
2.08466
1.97398
1.85895
1.74771
1.62992
1.50301
1.36824
1.22679
1.07854
0.922745
0.759601
0.590019
0.41884
0.244337
0.0906098
2.41206
2.38162
2.32778
2.25655
2.1731
2.07723
1.96961
1.8591
1.7454
1.62606
1.4996
1.36594
1.22583
1.07904
0.924714
0.762813
0.593677
0.421535
0.245381
0.090783
2.40642
2.37609
2.32222
2.24959
2.16345
2.06604
1.95927
1.84698
1.73401
1.61569
1.49061
1.3587
1.22083
1.07668
0.925024
0.765497
0.598461
0.426547
0.247665
0.0910941
0.0246435
0.0192267
0.0120797
0.00608602
0.00318493
0.000881117
-0.000639482
-0.00123717
0.0594845
0.0507572
0.0366054
0.0232335
0.0143374
0.00656618
0.00122761
-0.00103274
0.101155
0.0856399
0.0611489
0.0378538
0.022053
0.00911082
0.00066413
-0.00323208
0.140971
0.119601
0.0854372
0.0524349
0.0292867
0.0109762
-0.000590665
-0.00625163
0.180829
0.153244
0.108938
0.0657288
0.0347862
0.0109826
-0.00354542
-0.0109617
0.219799
0.185794
0.130987
0.0771623
0.0380573
0.00867293
-0.00863592
-0.0178519
0.257144
0.216299
0.150497
0.0856579
0.0381629
0.00321352
-0.0165691
-0.0275908
0.291329
0.24316
0.165904
0.0898354
0.0339828
-0.00632596
-0.0281103
-0.0409198
0.320095
0.264054
0.174987
0.0878128
0.0240661
-0.0210889
-0.044178
-0.0586981
0.340258
0.275768
0.174736
0.0771053
0.0065797
-0.0424451
-0.0658477
-0.0819122
0.347588
0.274096
0.161227
0.0545089
-0.0207634
-0.0720271
-0.094365
-0.111673
0.336796
0.253796
0.129557
0.0160241
-0.0607467
-0.11174
-0.131133
-0.149196
0.301691
0.208653
0.0738734
-0.0431424
-0.116641
-0.163739
-0.177675
-0.195754
0.235301
0.131728
-0.0123736
-0.128427
-0.192108
-0.230344
-0.235562
-0.252611
0.130471
0.01602
-0.13585
-0.24556
-0.290987
-0.31389
-0.306294
-0.320903
-0.0170594
-0.14479
-0.302656
-0.400011
-0.416929
-0.416475
-0.391118
-0.401481
-0.211795
-0.355591
-0.517505
-0.596164
-0.572855
-0.539598
-0.490789
-0.494696
-0.455236
-0.618149
-0.782374
-0.836285
-0.760257
-0.683705
-0.605268
-0.600143
-0.7458
-0.93003
-1.09526
-1.11947
-0.97847
-0.8477
-0.733399
-0.716393
-1.07689
-1.28566
-1.44971
-1.44073
-1.224
-1.0285
-0.872606
-0.84074
-1.43736
-1.67071
-1.83385
-1.79048
-1.49011
-1.22067
-1.01864
-0.969037
-1.81257
-2.07111
-2.23113
-2.15471
-1.76674
-1.41627
-1.16542
-1.0957
-2.18349
-2.46726
-2.62136
-2.51571
-2.04112
-1.60514
-1.30516
-1.21387
-2.52827
-2.83648
-2.98193
-2.85262
-2.29873
-1.77588
-1.42884
-1.3157
-2.82489
-3.15476
-3.28895
-3.1421
-2.52439
-1.91725
-1.52679
-1.39276
-3.0544
-3.39933
-3.5206
-3.36126
-2.70315
-2.01873
-1.589
-1.43685
-3.20477
-3.5522
-3.66288
-3.49586
-2.82158
-2.06983
-1.60523
-1.44153
-3.27375
-3.60771
-3.71221
-3.54543
-2.86977
-2.06217
-1.56769
-1.40236
-3.26608
-3.56843
-3.67963
-3.5074
-2.84278
-1.9975
-1.47703
-1.3137
-3.17414
-3.45129
-3.57029
-3.40012
-2.74065
-1.87352
-1.33251
-1.17545
-3.01232
-3.27194
-3.40058
-3.23303
-2.56803
-1.6901
-1.13557
-0.989045
-2.80134
-3.04577
-3.18506
-3.01764
-2.33106
-1.45037
-0.89037
-0.759977
-2.5596
-2.79048
-2.93606
-2.76555
-2.03509
-1.1594
-0.603213
-0.497265
-2.30533
-2.52597
-2.65831
-2.48102
-1.68407
-0.824241
-0.280725
-0.207672
-2.05672
-2.27038
-2.35552
-2.15963
-1.2833
-0.455596
0.0703637
0.110386
-1.84165
-2.03769
-2.06097
-1.79925
-0.842342
-0.0683455
0.438928
0.455374
-1.66559
-1.82209
-1.83421
-1.39813
-0.374106
0.322874
0.806595
0.789123
-1.60784
-1.62979
-1.60638
-0.919322
0.103887
0.710155
1.16094
1.03729
-1.36707
-1.42733
-1.17126
-0.343665
0.561031
1.09044
1.51572
1.20913
-1.67844
-1.03602
-0.469265
0.243766
0.957869
1.44827
1.88385
1.5475
5.6665
5.39772
5.17968
4.96523
4.73966
4.40112
4.07462
3.07064
5.60588
5.43209
5.24514
5.04137
4.84189
4.55287
4.30138
3.60951
5.56474
5.44343
5.29437
5.10921
4.93388
4.68904
4.49172
4.00202
5.53676
5.44726
5.33224
5.16864
5.01618
4.8081
4.64868
4.28775
5.52278
5.45039
5.36229
5.22016
5.08915
4.91159
4.78137
4.50508
5.51929
5.45626
5.38832
5.2655
5.15408
5.00179
4.89462
4.67583
5.52406
5.46589
5.41272
5.30627
5.21223
5.08098
4.99252
4.8143
5.53496
5.47923
5.43691
5.34384
5.26485
5.15113
5.07803
4.92942
5.55031
5.49563
5.46157
5.37916
5.313
5.21392
5.15354
5.02722
5.56865
5.51425
5.48689
5.4128
5.35752
5.27068
5.22087
5.11183
5.58885
5.53416
5.51276
5.44505
5.39904
5.32248
5.28148
5.18619
5.61003
5.55457
5.53891
5.47596
5.43799
5.37008
5.33646
5.25242
5.63172
5.57498
5.5651
5.50548
5.47468
5.41404
5.38667
5.31208
5.6538
5.59527
5.59117
5.53358
5.50933
5.45475
5.43271
5.36629
5.67648
5.61572
5.61714
5.56036
5.54221
5.49249
5.47508
5.41587
5.70014
5.63688
5.64324
5.58612
5.57362
5.52752
5.51415
5.46139
5.72515
5.65934
5.66983
5.61137
5.60393
5.56015
5.55027
5.50325
5.7518
5.68359
5.69724
5.63669
5.63355
5.59078
5.58381
5.54177
5.78022
5.70983
5.72573
5.66257
5.66283
5.61989
5.61519
5.57728
5.81044
5.73803
5.75536
5.68927
5.69205
5.64798
5.64488
5.61013
5.8425
5.76801
5.78609
5.71686
5.72137
5.67549
5.67331
5.64074
5.87648
5.79956
5.81796
5.74526
5.75088
5.70273
5.70086
5.66955
5.91261
5.83257
5.85113
5.77434
5.78057
5.72984
5.72776
5.69699
5.95112
5.86715
5.88578
5.80405
5.81051
5.75689
5.75413
5.72341
5.99226
5.90373
5.92192
5.83453
5.84087
5.78385
5.77998
5.74907
6.03678
5.94263
5.95995
5.86606
5.87162
5.81069
5.80524
5.77412
6.08628
5.98331
6.00205
5.89829
5.90247
5.83746
5.82987
5.79857
6.14234
6.02511
6.05089
5.93029
5.93397
5.86438
5.85369
5.82228
6.20557
6.06933
6.10415
5.96373
5.96798
5.89119
5.87638
5.84501
6.27699
6.11776
6.15915
6.00201
6.00365
5.91767
5.89783
5.86658
6.35608
6.17433
6.21447
6.04812
6.03632
5.94578
5.91814
5.88686
6.44499
6.23898
6.27248
6.10081
6.06914
5.9762
5.93666
5.90545
6.54841
6.3143
6.33613
6.16005
6.10509
6.0083
5.95462
5.92144
6.67111
6.40287
6.40765
6.22583
6.1463
6.04231
5.97309
5.93295
6.81057
6.5014
6.48476
6.2961
6.19194
6.07746
5.99193
5.93968
6.95667
6.60021
6.56153
6.36763
6.23907
6.11064
6.00979
5.9449
7.11833
6.70361
6.64005
6.44327
6.28951
6.14265
6.02751
5.94829
7.36028
6.85616
6.74069
6.53623
6.35656
6.18865
6.05261
5.92632
7.75083
7.10376
6.87692
6.65166
6.45066
6.26751
6.0939
5.83474
8.15677
7.35735
6.99659
6.7482
6.53754
6.35168
6.13657
5.69456
)
;

boundaryField
{
    wall
    {
        type            zeroGradient;
    }
    inlet1
    {
        type            zeroGradient;
    }
    inlet2
    {
        type            zeroGradient;
    }
    outlet1
    {
        type            fixedValue;
        value           uniform 0;
    }
    outlet2
    {
        type            outletInlet;
        outletValue     uniform 0;
        value           uniform 0;
    }
    defaultFaces
    {
        type            empty;
    }
}


// ************************************************************************* //
