/*--------------------------------*- C++ -*----------------------------------*\
| =========                 |                                                 |
| \\      /  F ield         | OpenFOAM: The Open Source CFD Toolbox           |
|  \\    /   O peration     | Version:  2.4.0                                 |
|   \\  /    A nd           | Web:      www.OpenFOAM.org                      |
|    \\/     M anipulation  |                                                 |
\*---------------------------------------------------------------------------*/
FoamFile
{
    version     2.0;
    format      ascii;
    class       volScalarField;
    location    "6.26";
    object      p;
}
// * * * * * * * * * * * * * * * * * * * * * * * * * * * * * * * * * * * * * //

dimensions      [0 2 -2 0 0 0 0];

internalField   nonuniform List<scalar> 
6000
(
0.0496011
0.278768
0.275719
0.299048
0.304487
0.312166
0.315203
0.318817
0.320752
0.322831
0.32422
0.325618
0.326723
0.327815
0.32879
0.329769
0.330721
0.331704
0.332719
0.333798
0.334956
0.336219
0.337607
0.339146
0.340859
0.342771
0.344907
0.34729
0.349944
0.352888
0.35614
0.359713
0.363609
0.367829
0.372359
0.377173
0.382231
0.387478
0.392837
0.398223
0.403508
0.408584
0.413277
0.417493
0.420836
0.42331
0.424434
0.424486
0.422295
0.419073
0.411793
0.404611
0.388902
0.378105
0.346245
0.336283
0.267537
0.277353
0.110292
0.202897
0.0646203
0.276983
0.275762
0.298899
0.304404
0.31208
0.315146
0.318764
0.320714
0.322796
0.324194
0.325596
0.326706
0.3278
0.328779
0.32976
0.330714
0.331699
0.332715
0.333795
0.334954
0.336218
0.337607
0.339146
0.34086
0.342773
0.34491
0.347294
0.349948
0.352894
0.356147
0.359721
0.363621
0.367843
0.372373
0.377187
0.382245
0.38749
0.392846
0.398226
0.403501
0.408565
0.413242
0.417445
0.420783
0.423245
0.424355
0.424381
0.422164
0.418896
0.411582
0.404318
0.388576
0.377628
0.345777
0.335491
0.266973
0.275949
0.109653
0.20024
0.0784647
0.274907
0.275859
0.298782
0.304332
0.312013
0.315096
0.318722
0.320681
0.322768
0.32417
0.325576
0.32669
0.327787
0.328768
0.329751
0.330707
0.331693
0.33271
0.333792
0.334952
0.336216
0.337606
0.339146
0.34086
0.342773
0.34491
0.347294
0.349949
0.352895
0.356149
0.359724
0.363623
0.367846
0.372376
0.37719
0.382245
0.387487
0.392836
0.398206
0.403468
0.408514
0.413168
0.417348
0.42068
0.423133
0.42423
0.424237
0.421997
0.418693
0.411344
0.404018
0.388235
0.377172
0.345301
0.334767
0.266323
0.27469
0.108801
0.197894
0.0899329
0.27273
0.275998
0.298691
0.304278
0.311958
0.315055
0.318686
0.320651
0.322743
0.32415
0.325559
0.326675
0.327774
0.328758
0.329742
0.3307
0.331687
0.332705
0.333787
0.334948
0.336212
0.337602
0.339142
0.340856
0.342769
0.344905
0.347289
0.349944
0.352889
0.356143
0.359717
0.363616
0.367836
0.372364
0.377175
0.382225
0.38746
0.392799
0.398155
0.403398
0.408421
0.413048
0.417195
0.420512
0.422957
0.424043
0.424038
0.421778
0.41845
0.411069
0.403698
0.387872
0.376722
0.34481
0.334088
0.265662
0.273557
0.107916
0.195958
0.0999196
0.270557
0.27616
0.298623
0.304241
0.311912
0.315019
0.318653
0.320625
0.32272
0.32413
0.325542
0.326661
0.327762
0.328748
0.329733
0.330692
0.33168
0.332699
0.333781
0.334942
0.336206
0.337596
0.339135
0.340849
0.342761
0.344896
0.347279
0.349932
0.352876
0.356128
0.359699
0.363595
0.367811
0.372334
0.377138
0.382179
0.387402
0.392726
0.398064
0.403286
0.408285
0.412884
0.41699
0.420276
0.422704
0.423774
0.423754
0.421476
0.418128
0.410718
0.403312
0.387443
0.376225
0.344265
0.333393
0.264955
0.27246
0.107006
0.194276
0.108989
0.268457
0.276329
0.29858
0.304219
0.311873
0.31499
0.318625
0.320601
0.322699
0.324112
0.325526
0.326647
0.327751
0.328737
0.329724
0.330683
0.331672
0.332691
0.333774
0.334934
0.336199
0.337587
0.339126
0.340838
0.342749
0.344883
0.347263
0.349914
0.352855
0.356103
0.35967
0.36356
0.36777
0.372284
0.377078
0.382106
0.387315
0.392622
0.39794
0.403141
0.408118
0.412689
0.416752
0.419993
0.422391
0.423432
0.423388
0.421082
0.417709
0.410266
0.402828
0.386915
0.375642
0.343625
0.332634
0.264162
0.271346
0.106039
0.192742
0.117312
0.26647
0.276502
0.298555
0.304211
0.311843
0.314967
0.3186
0.320581
0.322679
0.324096
0.325512
0.326634
0.327739
0.328727
0.329714
0.330674
0.331663
0.332683
0.333765
0.334925
0.336189
0.337577
0.339114
0.340825
0.342734
0.344865
0.347243
0.349891
0.352827
0.35607
0.359631
0.363513
0.367714
0.372218
0.376999
0.382014
0.387207
0.392496
0.397797
0.402979
0.407936
0.412482
0.416503
0.419689
0.422044
0.423044
0.422962
0.420615
0.417207
0.40972
0.402245
0.386277
0.374956
0.34287
0.331786
0.263252
0.270182
0.104972
0.191299
0.124975
0.264619
0.276675
0.298533
0.304227
0.31182
0.31495
0.318579
0.320563
0.322662
0.324081
0.325498
0.326622
0.327728
0.328716
0.329704
0.330665
0.331654
0.332673
0.333756
0.334915
0.336178
0.337565
0.339101
0.34081
0.342717
0.344845
0.34722
0.349862
0.352794
0.35603
0.359583
0.363457
0.367648
0.372141
0.376909
0.38191
0.387088
0.392363
0.397647
0.402812
0.407753
0.412276
0.416255
0.419385
0.42169
0.422639
0.422507
0.420108
0.416651
0.409107
0.401584
0.385549
0.374175
0.342005
0.330841
0.262215
0.268949
0.103786
0.189905
0.132078
0.262916
0.276848
0.298519
0.304255
0.311806
0.314939
0.318562
0.320549
0.322647
0.324068
0.325485
0.326611
0.327717
0.328706
0.329695
0.330655
0.331645
0.332664
0.333746
0.334905
0.336167
0.337552
0.339087
0.340793
0.342697
0.344822
0.347192
0.34983
0.352755
0.355985
0.35953
0.363395
0.367576
0.372058
0.376815
0.381804
0.386969
0.39223
0.3975
0.402651
0.407576
0.412076
0.416015
0.419091
0.421344
0.422238
0.42205
0.419589
0.416073
0.408461
0.400877
0.384761
0.373326
0.341052
0.329812
0.261064
0.267642
0.102479
0.188532
0.138719
0.261367
0.277018
0.298509
0.304294
0.3118
0.314935
0.31855
0.320537
0.322635
0.324056
0.325474
0.3266
0.327707
0.328696
0.329685
0.330646
0.331635
0.332654
0.333736
0.334894
0.336155
0.337539
0.339071
0.340775
0.342676
0.344797
0.347163
0.349795
0.352714
0.355937
0.359474
0.363331
0.367503
0.371975
0.376722
0.3817
0.386854
0.392102
0.397361
0.402499
0.407408
0.411886
0.415787
0.418812
0.421013
0.42185
0.421602
0.419076
0.415494
0.407805
0.400152
0.383944
0.372436
0.340044
0.328724
0.259826
0.266274
0.101067
0.187171
0.144975
0.259975
0.277179
0.298497
0.304343
0.311802
0.314937
0.318541
0.320529
0.322624
0.324047
0.325464
0.326591
0.327698
0.328687
0.329676
0.330637
0.331626
0.332644
0.333725
0.334883
0.336142
0.337525
0.339054
0.340756
0.342653
0.34477
0.347131
0.349757
0.352671
0.355887
0.359417
0.363266
0.36743
0.371894
0.376632
0.381601
0.386745
0.391983
0.39723
0.402356
0.40725
0.411705
0.415572
0.41855
0.420701
0.421481
0.421173
0.418579
0.414927
0.407158
0.399428
0.383121
0.371532
0.339011
0.327602
0.258535
0.264868
0.0995819
0.185828
0.150909
0.258744
0.277328
0.298481
0.304402
0.31181
0.314946
0.318537
0.320525
0.322617
0.324039
0.325456
0.326582
0.327689
0.328679
0.329668
0.330628
0.331617
0.332635
0.333715
0.334871
0.33613
0.33751
0.339037
0.340735
0.342628
0.344741
0.347097
0.349719
0.352627
0.355837
0.359361
0.363203
0.36736
0.371817
0.376547
0.381508
0.386643
0.391872
0.397109
0.402224
0.407103
0.411535
0.415369
0.418304
0.420407
0.421133
0.420764
0.418103
0.414379
0.406529
0.398717
0.382309
0.37063
0.337973
0.326469
0.25722
0.263444
0.0980571
0.184515
0.156567
0.257673
0.277464
0.298459
0.304467
0.311824
0.314961
0.318536
0.320523
0.322611
0.324033
0.325449
0.326576
0.327683
0.328672
0.32966
0.330621
0.331609
0.332626
0.333706
0.33486
0.336117
0.337494
0.339019
0.340713
0.342603
0.344712
0.347063
0.34968
0.352583
0.355787
0.359305
0.363142
0.367293
0.371743
0.376467
0.381421
0.386549
0.39177
0.396997
0.4021
0.406964
0.411375
0.415178
0.418073
0.420131
0.420804
0.420376
0.417649
0.413853
0.405922
0.398026
0.381515
0.369742
0.336949
0.325342
0.255906
0.262024
0.0965259
0.183245
0.161987
0.256762
0.277584
0.298427
0.304538
0.311843
0.314982
0.31854
0.320526
0.322609
0.32403
0.325445
0.326571
0.327677
0.328666
0.329654
0.330614
0.331602
0.332618
0.333696
0.334849
0.336103
0.337478
0.339
0.340691
0.342578
0.344682
0.34703
0.349642
0.35254
0.355739
0.359252
0.363083
0.367229
0.371674
0.376393
0.38134
0.386462
0.391675
0.396894
0.401986
0.406835
0.411224
0.414998
0.417857
0.419871
0.420494
0.420008
0.417218
0.41335
0.405339
0.397358
0.380747
0.368876
0.335948
0.324232
0.25461
0.26062
0.095016
0.182027
0.167198
0.25601
0.277691
0.298385
0.304611
0.311866
0.315009
0.318548
0.320532
0.322609
0.32403
0.325443
0.326569
0.327674
0.328663
0.32965
0.330609
0.331596
0.332611
0.333687
0.334839
0.336091
0.337463
0.338982
0.34067
0.342553
0.344653
0.346997
0.349605
0.352498
0.355693
0.359201
0.363028
0.367169
0.37161
0.376323
0.381266
0.386381
0.391588
0.396798
0.401879
0.406714
0.411082
0.414828
0.417654
0.419627
0.420201
0.41966
0.416807
0.412869
0.404781
0.396714
0.380006
0.368034
0.334976
0.323145
0.253346
0.259244
0.0935489
0.180865
0.172221
0.255414
0.277786
0.29833
0.304686
0.311892
0.315041
0.31856
0.320541
0.322612
0.324032
0.325443
0.326568
0.327673
0.328661
0.329647
0.330605
0.331591
0.332605
0.33368
0.334829
0.336079
0.337448
0.338964
0.340649
0.342528
0.344625
0.346965
0.349569
0.352458
0.355649
0.359154
0.362976
0.367114
0.37155
0.376259
0.381197
0.386307
0.391507
0.39671
0.40178
0.4066
0.410947
0.414667
0.417462
0.419395
0.419924
0.419328
0.416416
0.412409
0.404246
0.396094
0.379293
0.367219
0.334038
0.322087
0.252122
0.257902
0.09214
0.179761
0.177075
0.25497
0.277875
0.298263
0.304759
0.31192
0.315078
0.318576
0.320554
0.322618
0.324036
0.325445
0.32657
0.327673
0.328661
0.329646
0.330603
0.331587
0.3326
0.333673
0.33482
0.336068
0.337435
0.338947
0.340629
0.342505
0.344599
0.346935
0.349535
0.352421
0.355608
0.359109
0.362928
0.367062
0.371495
0.376201
0.381134
0.386239
0.391433
0.396628
0.401688
0.406492
0.41082
0.414515
0.41728
0.419176
0.419661
0.419012
0.416042
0.411968
0.403733
0.395497
0.378608
0.36643
0.333135
0.321058
0.250944
0.256598
0.0908
0.178712
0.181771
0.254672
0.277961
0.298183
0.304829
0.311949
0.31512
0.318595
0.320571
0.322627
0.324044
0.32545
0.326574
0.327676
0.328663
0.329647
0.330603
0.331586
0.332597
0.333668
0.334813
0.336058
0.337423
0.338932
0.340611
0.342484
0.344575
0.346907
0.349504
0.352387
0.355571
0.359068
0.362885
0.367016
0.371446
0.376148
0.381077
0.386178
0.391366
0.396552
0.401602
0.406391
0.410699
0.414369
0.417107
0.418966
0.419409
0.41871
0.415685
0.411543
0.403241
0.394922
0.377949
0.365667
0.332267
0.32006
0.249814
0.255333
0.0895355
0.177714
0.186321
0.254515
0.278052
0.298091
0.304894
0.311978
0.315166
0.318618
0.320592
0.322639
0.324054
0.325457
0.326581
0.327682
0.328668
0.329651
0.330605
0.331587
0.332596
0.333665
0.334808
0.336051
0.337413
0.33892
0.340596
0.342466
0.344553
0.346882
0.349477
0.352356
0.355537
0.359032
0.362845
0.366974
0.371401
0.3761
0.381026
0.386122
0.391304
0.396483
0.401522
0.406296
0.410584
0.414231
0.416941
0.418766
0.419168
0.418419
0.415341
0.411135
0.402768
0.394366
0.377316
0.364928
0.331435
0.319092
0.248736
0.254108
0.0883503
0.176764
0.190734
0.25449
0.278152
0.297989
0.304951
0.312005
0.315216
0.318644
0.320616
0.322653
0.324066
0.325467
0.32659
0.32769
0.328675
0.329657
0.33061
0.33159
0.332597
0.333665
0.334806
0.336046
0.337405
0.33891
0.340583
0.34245
0.344534
0.346861
0.349452
0.352329
0.355507
0.359
0.362811
0.366937
0.371362
0.376058
0.380981
0.386072
0.391249
0.396419
0.401447
0.406206
0.410474
0.414098
0.416783
0.418573
0.418936
0.418138
0.415009
0.410739
0.402311
0.393828
0.376707
0.364214
0.330637
0.318154
0.247708
0.252922
0.087246
0.175856
0.195016
0.25459
0.278266
0.29788
0.305001
0.31203
0.315269
0.318673
0.320644
0.322671
0.324082
0.32548
0.326602
0.327701
0.328685
0.329666
0.330618
0.331596
0.332602
0.333667
0.334806
0.336044
0.337401
0.338902
0.340573
0.342438
0.344519
0.346843
0.349432
0.352306
0.355482
0.358973
0.362782
0.366906
0.371328
0.376022
0.380941
0.386028
0.391199
0.396361
0.401378
0.406122
0.41037
0.41397
0.41663
0.418387
0.418711
0.417866
0.414688
0.410356
0.401869
0.393306
0.37612
0.36352
0.329872
0.317245
0.246732
0.251774
0.0862227
0.174985
0.199173
0.254808
0.2784
0.297767
0.305041
0.312051
0.315324
0.318705
0.320676
0.322691
0.324101
0.325495
0.326617
0.327715
0.328698
0.329677
0.330628
0.331605
0.332609
0.333673
0.334809
0.336045
0.3374
0.338899
0.340567
0.342429
0.344509
0.34683
0.349416
0.352288
0.355462
0.358951
0.362758
0.36688
0.3713
0.375991
0.380907
0.38599
0.391154
0.396308
0.401314
0.406042
0.41027
0.413848
0.416482
0.418206
0.418493
0.417601
0.414376
0.409983
0.401441
0.392799
0.375554
0.362848
0.329139
0.316363
0.245805
0.250663
0.0852797
0.174146
0.203213
0.255135
0.278558
0.297655
0.305072
0.312068
0.315381
0.318739
0.320712
0.322715
0.324123
0.325513
0.326635
0.327732
0.328714
0.329692
0.330642
0.331617
0.332619
0.333682
0.334816
0.33605
0.337402
0.338899
0.340565
0.342425
0.344502
0.346822
0.349406
0.352275
0.355448
0.358934
0.36274
0.36686
0.371279
0.375967
0.38088
0.385958
0.391116
0.396261
0.401255
0.405966
0.410175
0.413729
0.416339
0.41803
0.418281
0.417342
0.414072
0.409618
0.401026
0.392305
0.375006
0.362194
0.328436
0.315507
0.244928
0.249587
0.0844153
0.173333
0.207139
0.255564
0.278742
0.297547
0.305095
0.31208
0.315439
0.318777
0.320752
0.322742
0.324148
0.325534
0.326655
0.327751
0.328734
0.329711
0.330659
0.331633
0.332634
0.333694
0.334827
0.336059
0.337409
0.338904
0.340568
0.342426
0.344501
0.346818
0.349401
0.352268
0.355439
0.358924
0.362729
0.366847
0.371264
0.37595
0.380859
0.385932
0.391084
0.396219
0.401201
0.405896
0.410084
0.413615
0.4162
0.417858
0.418073
0.417089
0.413774
0.409262
0.40062
0.391823
0.374476
0.361557
0.327762
0.314675
0.244099
0.248545
0.0836274
0.172542
0.210956
0.256086
0.278954
0.297446
0.30511
0.312086
0.315497
0.318816
0.320796
0.322773
0.324177
0.325558
0.326679
0.327774
0.328757
0.329733
0.33068
0.331653
0.332653
0.333711
0.334843
0.336073
0.337421
0.338914
0.340576
0.342432
0.344505
0.346821
0.349401
0.352268
0.355437
0.358921
0.362724
0.366841
0.371256
0.375939
0.380845
0.385913
0.391057
0.396183
0.401151
0.405829
0.409997
0.413504
0.416064
0.41769
0.417869
0.41684
0.413482
0.408912
0.400225
0.391351
0.373963
0.360936
0.327116
0.313867
0.243316
0.247533
0.0829139
0.17177
0.214671
0.256694
0.279197
0.297357
0.30512
0.312088
0.315554
0.318859
0.320844
0.322808
0.32421
0.325586
0.326707
0.327801
0.328783
0.329759
0.330706
0.331677
0.332676
0.333733
0.334863
0.336091
0.337438
0.338929
0.340589
0.342443
0.344515
0.346829
0.349409
0.352274
0.355442
0.358925
0.362726
0.366842
0.371255
0.375936
0.380837
0.3859
0.391037
0.396152
0.401107
0.405767
0.409913
0.413397
0.415932
0.417524
0.417668
0.416595
0.413195
0.408568
0.399837
0.390889
0.373464
0.360331
0.326496
0.31308
0.242579
0.246552
0.0822724
0.171011
0.218286
0.25738
0.27947
0.297282
0.305126
0.312085
0.31561
0.318903
0.320897
0.322848
0.324248
0.325617
0.326738
0.327831
0.328814
0.329789
0.330736
0.331707
0.332704
0.33376
0.334889
0.336116
0.337461
0.33895
0.340609
0.342462
0.344532
0.346845
0.349423
0.352287
0.355454
0.358936
0.362737
0.366851
0.371262
0.375939
0.380837
0.385894
0.391023
0.396127
0.401068
0.405709
0.409834
0.413293
0.415801
0.417361
0.41747
0.416352
0.412912
0.408228
0.399458
0.390435
0.37298
0.359739
0.325902
0.312315
0.241885
0.245598
0.0817003
0.170263
0.221807
0.258138
0.279775
0.297224
0.30513
0.312078
0.315665
0.318949
0.320954
0.322892
0.32429
0.325653
0.326773
0.327865
0.328849
0.329824
0.330771
0.331741
0.332737
0.333792
0.33492
0.336146
0.33749
0.338978
0.340635
0.342487
0.344556
0.346868
0.349445
0.352308
0.355474
0.358955
0.362755
0.366868
0.371277
0.375951
0.380844
0.385895
0.391015
0.396108
0.401033
0.405655
0.409758
0.413191
0.415674
0.4172
0.417274
0.416112
0.412633
0.407892
0.399085
0.389989
0.372509
0.359161
0.325332
0.311569
0.241235
0.244671
0.0811953
0.169522
0.225238
0.258961
0.28011
0.297185
0.305135
0.312069
0.315718
0.318998
0.321016
0.322942
0.324338
0.325694
0.326813
0.327904
0.328888
0.329864
0.330811
0.33178
0.332776
0.333831
0.334957
0.336182
0.337525
0.339013
0.340669
0.342519
0.344587
0.346898
0.349475
0.352337
0.355503
0.358983
0.362782
0.366893
0.3713
0.375971
0.38086
0.385903
0.391014
0.396095
0.401004
0.405606
0.409685
0.413092
0.415548
0.41704
0.417079
0.415873
0.412356
0.40756
0.398718
0.389549
0.37205
0.358594
0.324785
0.310842
0.240626
0.243769
0.080755
0.168786
0.228585
0.259843
0.280474
0.297167
0.305143
0.312058
0.315771
0.319048
0.321082
0.322997
0.324392
0.325741
0.326859
0.327948
0.328933
0.329909
0.330856
0.331826
0.332821
0.333875
0.335001
0.336226
0.337568
0.339055
0.34071
0.342559
0.344627
0.346937
0.349513
0.352376
0.355541
0.359021
0.362818
0.366928
0.371332
0.376
0.380883
0.385919
0.39102
0.396087
0.40098
0.405561
0.409616
0.412996
0.415424
0.416881
0.416886
0.415636
0.412081
0.407231
0.398356
0.389116
0.371603
0.35804
0.324261
0.310133
0.240057
0.242891
0.080377
0.168053
0.231851
0.260778
0.280868
0.297171
0.305156
0.312048
0.315823
0.319101
0.321153
0.323058
0.324453
0.325794
0.326911
0.327997
0.328984
0.32996
0.330908
0.331878
0.332873
0.333927
0.335053
0.336277
0.337618
0.339105
0.340759
0.342608
0.344675
0.346985
0.349561
0.352423
0.355588
0.359068
0.362865
0.366973
0.371374
0.376038
0.380915
0.385943
0.391033
0.396086
0.400961
0.405519
0.409549
0.412902
0.415301
0.416723
0.416693
0.415399
0.411807
0.406904
0.397999
0.388689
0.371167
0.357496
0.323759
0.309441
0.239528
0.242035
0.0800592
0.16732
0.235041
0.261761
0.281288
0.297198
0.305175
0.31204
0.315876
0.319157
0.32123
0.323126
0.324521
0.325854
0.326969
0.328053
0.32904
0.330017
0.330966
0.331937
0.332932
0.333986
0.335112
0.336336
0.337677
0.339163
0.340818
0.342666
0.344733
0.347043
0.349619
0.352481
0.355646
0.359125
0.362921
0.367027
0.371426
0.376085
0.380956
0.385975
0.391054
0.396091
0.400947
0.405482
0.409486
0.41281
0.415179
0.416566
0.416501
0.415162
0.411535
0.406578
0.397646
0.388267
0.370742
0.356963
0.323277
0.308767
0.239037
0.2412
0.0797995
0.166586
0.23816
0.262787
0.281734
0.297247
0.305202
0.312036
0.315929
0.319216
0.321312
0.323202
0.324598
0.325922
0.327035
0.328116
0.329104
0.330081
0.331032
0.332003
0.332999
0.334053
0.335179
0.336403
0.337745
0.339231
0.340885
0.342734
0.344801
0.347111
0.349688
0.35255
0.355715
0.359193
0.362988
0.367093
0.371488
0.376142
0.381006
0.386016
0.391082
0.396103
0.400939
0.405449
0.409426
0.412719
0.415059
0.416409
0.416308
0.414926
0.411264
0.406254
0.397298
0.387849
0.370326
0.35644
0.322817
0.308109
0.238583
0.240387
0.0795958
0.165849
0.241212
0.263852
0.282203
0.297319
0.305239
0.312037
0.315985
0.319279
0.3214
0.323286
0.324683
0.325999
0.32711
0.328187
0.329175
0.330153
0.331105
0.332077
0.333075
0.334129
0.335256
0.33648
0.337822
0.339309
0.340963
0.342812
0.34488
0.347191
0.349767
0.35263
0.355795
0.359273
0.363067
0.367169
0.371561
0.37621
0.381066
0.386065
0.391117
0.396121
0.400935
0.405421
0.409369
0.412631
0.414939
0.416252
0.416116
0.414689
0.410993
0.405931
0.396952
0.387437
0.36992
0.355926
0.322376
0.307467
0.238167
0.239593
0.0794462
0.165108
0.244201
0.264951
0.282695
0.297413
0.305286
0.312044
0.316044
0.319347
0.321495
0.323378
0.324778
0.326087
0.327195
0.328267
0.329255
0.330233
0.331187
0.33216
0.333159
0.334214
0.335342
0.336567
0.33791
0.339397
0.341052
0.342901
0.34497
0.347281
0.349859
0.352722
0.355887
0.359365
0.363158
0.367258
0.371646
0.376289
0.381136
0.386124
0.391161
0.396146
0.400938
0.405396
0.409315
0.412544
0.41482
0.416094
0.415922
0.414451
0.410722
0.405609
0.39661
0.387028
0.369524
0.355423
0.321955
0.30684
0.237786
0.238819
0.0793489
0.164362
0.247133
0.266079
0.283207
0.297528
0.305344
0.312059
0.316107
0.31942
0.321596
0.32348
0.324884
0.326185
0.32729
0.328358
0.329345
0.330323
0.331278
0.332252
0.333253
0.33431
0.335438
0.336664
0.338008
0.339496
0.341152
0.343002
0.345072
0.347385
0.349963
0.352827
0.355993
0.35947
0.363262
0.367359
0.371742
0.376378
0.381217
0.386192
0.391213
0.396178
0.400946
0.405376
0.409263
0.412459
0.414701
0.415936
0.415728
0.414212
0.410451
0.405288
0.396271
0.386624
0.369136
0.354928
0.321554
0.306229
0.23744
0.238063
0.0793021
0.163612
0.25001
0.267235
0.283737
0.297665
0.305414
0.312082
0.316176
0.3195
0.321706
0.323591
0.325001
0.326295
0.327397
0.32846
0.329446
0.330423
0.33138
0.332355
0.333358
0.334416
0.335546
0.336773
0.338119
0.339608
0.341265
0.343116
0.345187
0.347501
0.350081
0.352946
0.356112
0.359589
0.363379
0.367473
0.371851
0.37648
0.381308
0.38627
0.391274
0.396217
0.400959
0.405359
0.409214
0.412375
0.414582
0.415777
0.415532
0.413972
0.410179
0.404966
0.395934
0.386223
0.368757
0.354444
0.321171
0.305634
0.237129
0.237325
0.0793042
0.162855
0.252838
0.268412
0.284284
0.297821
0.305495
0.312114
0.316251
0.319588
0.321824
0.323714
0.32513
0.326419
0.327518
0.328575
0.32956
0.330535
0.331493
0.33247
0.333474
0.334534
0.335666
0.336895
0.338242
0.339732
0.341391
0.343244
0.345316
0.347632
0.350212
0.353078
0.356245
0.359722
0.36351
0.3676
0.371973
0.376594
0.381411
0.386358
0.391344
0.396264
0.400979
0.405347
0.409168
0.412292
0.414463
0.415618
0.415335
0.413731
0.409906
0.404645
0.395599
0.385827
0.368387
0.353968
0.320807
0.305054
0.236851
0.236606
0.0793536
0.162092
0.25562
0.26961
0.284847
0.297997
0.305587
0.312156
0.316333
0.319683
0.321951
0.323848
0.325273
0.326556
0.327653
0.328705
0.329686
0.33066
0.331618
0.332596
0.333603
0.334664
0.335798
0.337029
0.338378
0.339871
0.341531
0.343386
0.34546
0.347777
0.350359
0.353227
0.356393
0.359869
0.363655
0.367742
0.372109
0.376721
0.381526
0.386457
0.391422
0.396318
0.401003
0.405338
0.409124
0.41221
0.414343
0.415456
0.415136
0.413487
0.409632
0.404323
0.395267
0.385434
0.368026
0.353502
0.320462
0.30449
0.236607
0.235904
0.0794488
0.161323
0.258361
0.270824
0.285422
0.29819
0.30569
0.312209
0.316422
0.319787
0.322089
0.323995
0.325429
0.32671
0.327804
0.328849
0.329828
0.330799
0.331758
0.332737
0.333745
0.334809
0.335945
0.337178
0.338529
0.340024
0.341686
0.343543
0.345619
0.347938
0.350522
0.353391
0.356558
0.360033
0.363817
0.367899
0.372259
0.376861
0.381652
0.386566
0.39151
0.396379
0.401034
0.405334
0.409082
0.412128
0.414223
0.415293
0.414935
0.413241
0.409357
0.404001
0.394937
0.385045
0.367672
0.353045
0.320135
0.303941
0.236396
0.23522
0.0795882
0.160548
0.261064
0.272052
0.28601
0.298399
0.305805
0.312271
0.316519
0.3199
0.322236
0.324154
0.325601
0.326879
0.327972
0.329011
0.329986
0.330954
0.331912
0.332892
0.333902
0.334968
0.336107
0.337342
0.338696
0.340193
0.341857
0.343717
0.345795
0.348116
0.350702
0.353572
0.356739
0.360213
0.363994
0.368072
0.372424
0.377015
0.381792
0.386686
0.391607
0.396448
0.40107
0.405333
0.409042
0.412047
0.414101
0.415128
0.414731
0.412993
0.40908
0.403679
0.394608
0.384659
0.367327
0.352598
0.319826
0.303409
0.236217
0.234554
0.0797705
0.159767
0.263733
0.27329
0.286607
0.298625
0.30593
0.312343
0.316624
0.320023
0.322394
0.324327
0.325787
0.327066
0.328157
0.329191
0.330163
0.331127
0.332084
0.333064
0.334076
0.335144
0.336285
0.337523
0.33888
0.340379
0.342046
0.343908
0.345989
0.348312
0.3509
0.353771
0.356938
0.360411
0.364189
0.368261
0.372604
0.377183
0.381944
0.386818
0.391713
0.396524
0.401112
0.405336
0.409005
0.411966
0.413979
0.41496
0.414525
0.412742
0.408801
0.403355
0.394281
0.384277
0.36699
0.35216
0.319535
0.302892
0.23607
0.233906
0.0799941
0.158982
0.266371
0.274537
0.287214
0.298864
0.306065
0.312426
0.316738
0.320155
0.322562
0.324513
0.32599
0.327271
0.328362
0.329391
0.330358
0.331318
0.332274
0.333253
0.334267
0.335337
0.33648
0.337722
0.339081
0.340584
0.342253
0.344118
0.346201
0.348527
0.351117
0.353989
0.357156
0.360628
0.364401
0.368467
0.372801
0.377366
0.38211
0.386961
0.39183
0.396608
0.40116
0.405343
0.408968
0.411885
0.413854
0.41479
0.414315
0.412488
0.40852
0.403031
0.393955
0.383898
0.366661
0.351732
0.319263
0.302391
0.235954
0.233275
0.0802577
0.158191
0.268983
0.275789
0.287827
0.299117
0.30621
0.312518
0.31686
0.320296
0.322742
0.324713
0.326208
0.327494
0.328588
0.329612
0.330575
0.331531
0.332484
0.333463
0.334477
0.335548
0.336695
0.337939
0.339302
0.340807
0.34248
0.344348
0.346434
0.348763
0.351354
0.354227
0.357394
0.360863
0.364633
0.368691
0.373014
0.377565
0.382289
0.387117
0.391956
0.396701
0.401213
0.405353
0.408933
0.411803
0.413728
0.414617
0.414102
0.412231
0.408236
0.402705
0.393631
0.383523
0.366339
0.351315
0.319007
0.301906
0.235869
0.232663
0.0805598
0.157397
0.271571
0.277044
0.288446
0.299383
0.306364
0.31262
0.31699
0.320448
0.322932
0.324927
0.326443
0.327736
0.328834
0.329855
0.330814
0.331765
0.332716
0.333693
0.334707
0.335781
0.33693
0.338177
0.339544
0.341052
0.342728
0.344599
0.346688
0.349019
0.351613
0.354486
0.357653
0.361119
0.364884
0.368934
0.373245
0.37778
0.382483
0.387285
0.392093
0.396801
0.401272
0.405367
0.4089
0.411721
0.413599
0.41444
0.413885
0.411969
0.407949
0.402378
0.393307
0.383151
0.366026
0.350907
0.31877
0.301439
0.235814
0.232069
0.0808989
0.1566
0.27414
0.278301
0.28907
0.29966
0.306527
0.312732
0.317129
0.320608
0.323132
0.325153
0.326694
0.327998
0.329101
0.330121
0.331078
0.332024
0.332971
0.333946
0.334961
0.336035
0.337187
0.338437
0.339807
0.341319
0.342999
0.344873
0.346965
0.349298
0.351894
0.354768
0.357933
0.361397
0.365155
0.369196
0.373494
0.378011
0.382692
0.387465
0.39224
0.396909
0.401337
0.405383
0.408867
0.411637
0.413468
0.41426
0.413663
0.411704
0.407659
0.402049
0.392985
0.382783
0.36572
0.350509
0.318549
0.300989
0.235788
0.231495
0.0812736
0.155801
0.276693
0.279555
0.289697
0.299946
0.306698
0.312852
0.317276
0.320778
0.323343
0.325393
0.326961
0.328279
0.329391
0.330411
0.331365
0.332308
0.333252
0.334224
0.335238
0.336314
0.337467
0.338721
0.340094
0.34161
0.343293
0.345171
0.347266
0.349602
0.352199
0.355073
0.358237
0.361697
0.365448
0.369478
0.373762
0.37826
0.382916
0.387659
0.392398
0.397025
0.401407
0.405403
0.408835
0.411552
0.413333
0.414075
0.413437
0.411434
0.407366
0.401719
0.392663
0.382418
0.365422
0.350123
0.318346
0.300556
0.235792
0.230939
0.0816824
0.155002
0.279233
0.280806
0.290325
0.300243
0.306876
0.312981
0.31743
0.320957
0.323564
0.325646
0.327243
0.328578
0.329701
0.330724
0.331679
0.332618
0.333559
0.334529
0.335541
0.336617
0.337773
0.339029
0.340406
0.341926
0.343613
0.345494
0.347592
0.349931
0.352529
0.355403
0.358565
0.36202
0.365764
0.369782
0.374049
0.378526
0.383155
0.387866
0.392566
0.397149
0.401482
0.405425
0.408803
0.411465
0.413195
0.413886
0.413206
0.411159
0.407069
0.401387
0.392341
0.382057
0.365131
0.349746
0.31816
0.300141
0.235824
0.230404
0.0821235
0.154205
0.281764
0.28205
0.290953
0.300547
0.307061
0.313118
0.317592
0.321145
0.323795
0.32591
0.32754
0.328895
0.330033
0.331062
0.332018
0.332955
0.333893
0.334861
0.335872
0.336948
0.338106
0.339364
0.340745
0.342269
0.34396
0.345844
0.347946
0.350286
0.352886
0.355759
0.358919
0.362368
0.366102
0.370108
0.374357
0.378811
0.383411
0.388086
0.392745
0.397281
0.401562
0.40545
0.408771
0.411376
0.413053
0.413691
0.412969
0.410879
0.406767
0.401052
0.39202
0.381699
0.364847
0.349381
0.31799
0.299744
0.235883
0.22989
0.0825953
0.15341
0.284288
0.283286
0.291581
0.300858
0.307252
0.313263
0.317762
0.321341
0.324034
0.326186
0.32785
0.329229
0.330385
0.331423
0.332384
0.33332
0.334257
0.335222
0.336232
0.337308
0.338467
0.339728
0.341112
0.34264
0.344335
0.346223
0.348328
0.35067
0.35327
0.356143
0.359299
0.362741
0.366466
0.370457
0.374686
0.379114
0.383683
0.388321
0.392935
0.397421
0.401648
0.405477
0.408739
0.411285
0.412907
0.413491
0.412726
0.410594
0.406461
0.400715
0.391698
0.381345
0.36457
0.349026
0.317836
0.299366
0.235968
0.229397
0.0830958
0.152619
0.28681
0.284511
0.292206
0.301176
0.30745
0.313416
0.31794
0.321545
0.324283
0.326472
0.328174
0.32958
0.330757
0.331807
0.332775
0.333714
0.33465
0.335614
0.336623
0.337699
0.338858
0.340122
0.341509
0.343041
0.34474
0.346632
0.348739
0.351084
0.353684
0.356555
0.359707
0.363142
0.366855
0.370829
0.375037
0.379437
0.383972
0.388569
0.393137
0.39757
0.401738
0.405507
0.408706
0.411191
0.412756
0.413286
0.412477
0.410303
0.406151
0.400375
0.391376
0.380993
0.3643
0.348683
0.317697
0.299007
0.236079
0.228926
0.0836231
0.151835
0.289332
0.285723
0.292827
0.3015
0.307652
0.313576
0.318124
0.321758
0.32454
0.326769
0.328509
0.329945
0.331147
0.332213
0.33319
0.334134
0.335073
0.336036
0.337045
0.338121
0.339282
0.340547
0.341937
0.343473
0.345176
0.347071
0.349182
0.351528
0.354128
0.356997
0.360143
0.36357
0.367269
0.371226
0.37541
0.37978
0.384278
0.388832
0.393349
0.397726
0.401834
0.405538
0.408673
0.411094
0.4126
0.413075
0.412222
0.410006
0.405835
0.400032
0.391054
0.380645
0.364036
0.348351
0.317573
0.298667
0.236213
0.228477
0.0841749
0.151059
0.291858
0.286919
0.293443
0.301827
0.307859
0.313743
0.318315
0.321978
0.324805
0.327075
0.328856
0.330325
0.331554
0.332639
0.33363
0.334581
0.335524
0.33649
0.337499
0.338576
0.339738
0.341005
0.342398
0.343937
0.345645
0.347543
0.349656
0.352004
0.354604
0.35747
0.36061
0.364026
0.367711
0.371648
0.375806
0.380143
0.384602
0.389109
0.393573
0.397891
0.401934
0.405571
0.408639
0.410994
0.41244
0.412858
0.411961
0.409704
0.405514
0.399687
0.390731
0.3803
0.363778
0.34803
0.317463
0.298347
0.23637
0.228053
0.0847489
0.150295
0.294392
0.288098
0.294053
0.302158
0.308071
0.313917
0.318514
0.322206
0.325079
0.327391
0.329214
0.330718
0.331976
0.333084
0.334092
0.335054
0.336004
0.336973
0.337986
0.339064
0.340227
0.341497
0.342893
0.344436
0.346147
0.348049
0.350165
0.352513
0.355112
0.357974
0.361107
0.364512
0.368181
0.372095
0.376225
0.380527
0.384943
0.389401
0.393809
0.398063
0.40204
0.405606
0.408604
0.410891
0.412275
0.412635
0.411693
0.409395
0.405189
0.399339
0.390407
0.379959
0.363525
0.34772
0.317367
0.298047
0.236549
0.227653
0.0853424
0.149543
0.296936
0.289256
0.294655
0.302492
0.308286
0.314097
0.318719
0.322441
0.32536
0.327715
0.329582
0.331123
0.332414
0.333547
0.334574
0.335551
0.33651
0.337486
0.338503
0.339584
0.340751
0.342024
0.343423
0.344969
0.346684
0.348589
0.350707
0.353056
0.355654
0.358511
0.361636
0.365028