/*--------------------------------*- C++ -*----------------------------------*\
| =========                 |                                                 |
| \\      /  F ield         | OpenFOAM: The Open Source CFD Toolbox           |
|  \\    /   O peration     | Version:  2.4.0                                 |
|   \\  /    A nd           | Web:      www.OpenFOAM.org                      |
|    \\/     M anipulation  |                                                 |
\*---------------------------------------------------------------------------*/
FoamFile
{
    version     2.0;
    format      ascii;
    class       volVectorField;
    location    "5.38";
    object      U;
}
// * * * * * * * * * * * * * * * * * * * * * * * * * * * * * * * * * * * * * //

dimensions      [0 1 -1 0 0 0 0];

internalField   nonuniform List<vector> 
6000
(
(0.513517 -0.0430714 -6.09593e-18)
(-0.317785 0.0668539 0)
(0.111635 -0.0273483 1.01254e-17)
(0.00929209 -0.00184993 0)
(0.0057741 7.6052e-05 0)
(-0.0293275 0.00570394 0)
(-0.0149444 0.00320279 4.32961e-18)
(-0.0320167 0.00585685 3.23379e-24)
(-0.0314909 0.00594189 0)
(-0.044449 0.00760232 0)
(-0.0507869 0.00853186 3.63796e-18)
(-0.0615203 0.00946435 -7.02422e-18)
(-0.0678012 0.00989599 0)
(-0.073942 0.00992983 0)
(-0.0777907 0.0098431 -1.60365e-18)
(-0.0829234 0.00986428 0)
(-0.0900595 0.010172 0)
(-0.0999996 0.010564 -1.49888e-18)
(-0.110746 0.0107692 -1.47033e-18)
(-0.120669 0.0106009 0)
(-0.12888 0.0101219 1.42509e-18)
(-0.135674 0.00945506 7.04416e-19)
(-0.141511 0.00865764 -6.9842e-19)
(-0.146503 0.00773321 0)
(-0.150696 0.0067017 0)
(-0.154107 0.00557973 0)
(-0.156721 0.00438553 3.47218e-19)
(-0.158512 0.00313765 -3.49168e-19)
(-0.159413 0.00185463 0)
(-0.159307 0.00052578 0)
(-0.15816 -0.000822558 4.51266e-20)
(-0.155997 -0.00212439 0)
(-0.152737 -0.0033692 3.74207e-19)
(-0.148301 -0.00453053 -3.82527e-19)
(-0.142605 -0.00557786 0)
(-0.135561 -0.00647913 0)
(-0.127084 -0.00719651 8.30195e-19)
(-0.11708 -0.00769438 0)
(-0.105476 -0.0079253 8.87021e-19)
(-0.0921631 -0.00785527 0)
(-0.0771222 -0.00742066 0)
(-0.0601733 -0.00660019 1.98739e-18)
(-0.0414936 -0.00530637 -4.13798e-18)
(-0.0205818 -0.00352955 0)
(0.00168538 -0.0011784 0)
(0.0266574 0.0017612 2.33667e-18)
(0.0523315 0.00536856 0)
(0.0817431 0.00962657 0)
(0.110674 0.0147141 -5.19862e-18)
(0.14528 0.0205089 -5.38774e-18)
(0.1768 0.0273194 -5.52223e-18)
(0.218397 0.0349292 -6.36879e-21)
(0.251 0.043743 5.73323e-18)
(0.303846 0.0536967 0)
(0.333984 0.0648115 -9.91126e-21)
(0.408121 0.0785122 -6.07391e-18)
(0.424655 0.0903961 4.97295e-18)
(0.545607 0.112634 6.09622e-18)
(0.524956 0.121541 1.70718e-20)
(0.77037 0.167746 0)
(0.72677 -0.108554 4.60736e-18)
(-0.209411 0.0626896 5.88433e-18)
(0.0917634 -0.0316416 -4.91196e-18)
(-0.0218141 0.00860527 -5.22407e-18)
(0.00475659 0.00147769 0)
(-0.0421871 0.00899866 0)
(-0.023948 0.00514099 -4.25762e-18)
(-0.0428073 0.00829215 8.15957e-18)
(-0.0421935 0.00845245 0)
(-0.0553793 0.0100533 0)
(-0.0618475 0.0110634 -3.53252e-18)
(-0.0717923 0.0116365 3.40001e-18)
(-0.0776878 0.0118859 1.6388e-18)
(-0.0832541 0.0116475 0)
(-0.0873774 0.0115787 1.54283e-18)
(-0.0930116 0.0117437 0)
(-0.100691 0.0122702 0)
(-0.110397 0.0126963 0)
(-0.120167 0.0127327 0)
(-0.128813 0.0122972 0)
(-0.13606 0.011586 1.57689e-22)
(-0.142215 0.0107306 0)
(-0.14747 0.00976539 -6.59623e-19)
(-0.151887 0.00868064 0)
(-0.155498 0.00749315 0)
(-0.158305 0.00621614 3.24587e-19)
(-0.160293 0.0048661 -3.24782e-19)
(-0.161432 0.00345778 5.06832e-23)
(-0.161684 0.00200807 1.63905e-19)
(-0.161034 0.000540836 0)
(-0.159428 -0.000931806 -4.1819e-20)
(-0.156761 -0.00237427 -1.69587e-19)
(-0.152957 -0.00376406 -1.37526e-22)
(-0.147936 -0.00507244 3.51708e-19)
(-0.141611 -0.00626647 -3.59257e-19)
(-0.133893 -0.00731198 0)
(-0.124697 -0.00816735 0)
(-0.113927 -0.00879475 0)
(-0.10151 -0.0091406 0)
(-0.0873371 -0.0091696 0)
(-0.0713911 -0.00880866 -1.71266e-18)
(-0.0534911 -0.00803683 0)
(-0.033812 -0.0067553 1.84017e-18)
(-0.0118819 -0.00495416 1.90648e-18)
(0.0115324 -0.00252811 0)
(0.0376703 0.000514259 0)
(0.0648128 0.00431788 0)
(0.0955905 0.00878343 0)
(0.126319 0.0142369 4.51108e-18)
(0.162518 0.0203455 0)
(0.1963 0.0277642 0)
(0.239756 0.035757 -4.88608e-18)
(0.275333 0.0455568 -4.89575e-18)
(0.330337 0.0558617 0)
(0.36464 0.0685711 -9.60726e-18)
(0.440915 0.0823201 0)
(0.467181 0.0981109 -8.29348e-18)
(0.587173 0.118823 -4.96056e-18)
(0.587398 0.135307 1.85239e-18)
(0.825464 0.175886 4.86059e-18)
(0.79866 -0.091349 -3.3605e-19)
(-0.0780383 0.0481045 -5.49947e-18)
(0.0670241 -0.0277208 0)
(-0.0537188 0.016819 5.18145e-18)
(0.00158622 0.00279558 0)
(-0.0466325 0.0104181 0)
(-0.0276837 0.00622526 0)
(-0.0461319 0.0092962 -3.96973e-18)
(-0.0453577 0.00970155 0)
(-0.0579056 0.0111258 -3.56683e-18)
(-0.0639636 0.012177 0)
(-0.0733893 0.0125045 0)
(-0.0791158 0.0126373 -1.5632e-18)
(-0.0847144 0.012282 0)
(-0.0890205 0.0122732 0)
(-0.0946738 0.0125822 0)
(-0.10201 0.0132647 0)
(-0.111011 0.0137087 0)
(-0.120007 0.0136315 0)
(-0.128064 0.0130374 1.29484e-18)
(-0.134937 0.0121944 -1.26708e-18)
(-0.140824 0.0112315 0)
(-0.145829 0.0101717 -6.43323e-23)
(-0.150011 0.00899877 -6.05978e-19)
(-0.153394 0.00772673 0)
(-0.15598 0.00636595 -5.97626e-19)
(-0.157751 0.00493159 0)
(-0.158679 0.00343748 2.9824e-19)
(-0.158729 0.00189864 -1.49612e-19)
(-0.15787 0.000343436 0)
(-0.156037 -0.00121022 0)
(-0.153139 -0.0027428 1.53435e-19)
(-0.149102 -0.00422809 -1.38283e-22)
(-0.143843 -0.00563677 0)
(-0.137276 -0.00693514 6.43683e-19)
(-0.129312 -0.00808845 0)
(-0.119865 -0.00905383 6.71903e-19)
(-0.108839 -0.00979262 0)
(-0.096163 -0.0102491 0)
(-0.081725 -0.0103871 0)
(-0.0655088 -0.0101302 1.49899e-18)
(-0.0473364 -0.00945653 0)
(-0.0273717 -0.00826343 0)
(-0.00517479 -0.00653975 -1.64354e-18)
(0.0185862 -0.00417049 0)
(0.045039 -0.0011865 0)
(0.0726587 0.00260297 1.7942e-18)
(0.103773 0.00702892 -1.84718e-18)
(0.135101 0.012529 -1.89311e-18)
(0.17164 0.0185967 0)
(0.206218 0.026159 0)
(0.249984 0.0340454 0)
(0.286709 0.0441722 4.01359e-18)
(0.341901 0.0541459 4.10127e-18)
(0.377999 0.0675623 3.90076e-18)
(0.454107 0.0803705 0)
(0.483053 0.097895 3.31087e-18)
(0.602265 0.116046 7.79762e-18)
(0.60719 0.135979 0)
(0.839762 0.16904 -3.68673e-18)
(0.83649 -0.0599343 -2.63414e-19)
(0.0437234 0.0395669 5.06036e-18)
(0.0473173 -0.0205466 -4.77155e-18)
(-0.0748903 0.0221076 0)
(-0.00107518 0.00323375 0)
(-0.0483351 0.0113451 0)
(-0.0295919 0.00686778 0)
(-0.0473738 0.00995232 0)
(-0.0464848 0.0105129 0)
(-0.0584102 0.01187 3.43846e-18)
(-0.0641266 0.0129288 3.26088e-18)
(-0.0731935 0.013118 0)
(-0.078868 0.0131575 0)
(-0.0845609 0.0127339 0)
(-0.0890218 0.0127757 1.39223e-18)
(-0.0946275 0.0132171 0)
(-0.101593 0.0140375 1.32211e-18)
(-0.109976 0.0145179 -1.2884e-18)
(-0.11837 0.0143697 0)
(-0.12599 0.0136605 -1.21949e-18)
(-0.132572 0.0127109 0)
(-0.138231 0.0116572 -5.82144e-19)
(-0.143026 0.0105165 1.14337e-18)
(-0.147014 0.00926833 5.63372e-19)
(-0.150214 0.00792365 0)
(-0.152623 0.00649041 2.76289e-19)
(-0.154224 0.00498256 0)
(-0.154989 0.00341333 2.74315e-19)
(-0.154883 0.00179857 0)
(-0.153865 0.000158621 0)
(-0.15187 -0.00148448 0)
(-0.148813 -0.00311122 1.39652e-19)
(-0.144619 -0.00469649 -5.64808e-19)
(-0.139205 -0.00621112 0)
(-0.132487 -0.00762101 -2.90726e-19)
(-0.124374 -0.00889093 0)
(-0.11478 -0.00997712 -6.03626e-19)
(-0.103609 -0.01084 0)
(-0.0907889 -0.0114222 0)
(-0.0762098 -0.0116861 0)
(-0.0598535 -0.0115537 1.32609e-18)
(-0.0415455 -0.0109993 0)
(-0.0214383 -0.00992102 1.39872e-18)
(0.000880466 -0.00830087 -1.43647e-18)
(0.0248225 -0.00602423 0)
(0.0514071 -0.00312495 -1.51316e-18)
(0.0792705 0.000602869 -3.1054e-18)
(0.110502 0.00496674 1.59328e-18)
(0.142139 0.0104429 3.24755e-18)
(0.178756 0.0164602 -3.31209e-18)
(0.213766 0.0240491 -3.34504e-18)
(0.257527 0.0318606 0)
(0.294919 0.0421004 -3.37333e-18)
(0.349924 0.0518826 -3.42352e-18)
(0.387145 0.065603 -3.20208e-18)
(0.462673 0.0778754 0)
(0.493483 0.096122 0)
(0.611269 0.112883 -3.12298e-18)
(0.619905 0.134105 0)
(0.846331 0.162336 2.79029e-18)
(0.86151 -0.0344723 -2.46472e-19)
(0.153198 0.0356392 -8.98725e-20)
(0.0542721 -0.0147669 4.72914e-18)
(-0.0861966 0.024994 5.12605e-18)
(-0.0034077 0.00314439 0)
(-0.0490173 0.0120724 -4.34958e-18)
(-0.0306412 0.00730395 0)
(-0.0477712 0.0104753 0)
(-0.0467469 0.0111275 0)
(-0.0581005 0.0124836 3.32762e-18)
(-0.0635106 0.0135341 -3.14391e-18)
(-0.0722863 0.0136383 0)
(-0.0779421 0.0135964 0)
(-0.0837337 0.0131255 0)
(-0.0883222 0.0132072 -1.33009e-18)
(-0.0938528 0.0137637 0)
(-0.100453 0.0147036 -1.26134e-18)
(-0.108273 0.0152238 1.22767e-18)
(-0.116135 0.0150243 0)
(-0.123369 0.0142217 0)
(-0.129681 0.013179 5.62732e-19)
(-0.135123 0.0120418 5.49132e-19)
(-0.139724 0.0108251 -1.07578e-18)
(-0.143532 0.00950583 -5.28762e-19)
(-0.146562 0.00809198 0)
(-0.148811 0.00658933 2.58108e-19)
(-0.150259 0.00501059 0)
(-0.150879 0.00336814 -2.55241e-19)
(-0.150634 0.00167736 1.27446e-19)
(-0.149479 -4.42243e-05 0)
(-0.147346 -0.00177578 0)
(-0.144158 -0.00349735 -2.57752e-19)
(-0.139838 -0.00518385 2.60066e-19)
(-0.134303 -0.00680621 0)
(-0.127469 -0.00833012 -2.66341e-19)
(-0.119245 -0.0097199 0)
(-0.109544 -0.0109311 5.50344e-19)
(-0.0982711 -0.0119229 0)
(-0.0853538 -0.012637 0)
(-0.0706817 -0.0130334 0)
(-0.0542358 -0.0130336 -1.19894e-18)
(-0.0358452 -0.0126068 -1.22636e-18)
(-0.0156511 -0.0116537 -1.2577e-18)
(0.00673484 -0.0101478 1.79319e-21)
(0.0307898 -0.00797855 -1.31448e-18)
(0.0574352 -0.0051761 1.3479e-18)
(0.0854442 -0.00153162 2.75173e-18)
(0.11671 0.00275927 0)
(0.148535 0.00817876 -1.42933e-18)
(0.185138 0.0141404 2.90703e-18)
(0.220424 0.0217001 2.92313e-18)
(0.264078 0.0294514 0)
(0.301932 0.0396977 0)
(0.356647 0.0493604 0)
(0.394701 0.063166 2.73659e-18)
(0.469564 0.0751193 0)
(0.501863 0.0936161 0)
(0.618151 0.109542 2.56942e-18)
(0.629947 0.131075 -8.53178e-19)
(0.850611 0.155899 -2.26472e-18)
(0.880293 -0.0137348 -2.28014e-19)
(0.250956 0.0348611 -4.66245e-18)
(0.0816289 -0.00990869 0)
(-0.0884445 0.0268299 -5.10317e-18)
(-0.00568836 0.00283783 -4.59609e-18)
(-0.0492071 0.0126782 2.82417e-22)
(-0.0311649 0.00760853 0)
(-0.0477056 0.0109193 0)
(-0.0465126 0.0116166 0)
(-0.0573383 0.013012 -3.23337e-18)
(-0.0624557 0.0140483 0)
(-0.0709744 0.0141021 0)
(-0.0766177 0.0139908 1.37721e-18)
(-0.0825002 0.0134851 0)
(-0.0871937 0.0135954 0)
(-0.0926351 0.0142466 0)
(-0.0988808 0.0152859 0)
(-0.106172 0.015845 -1.177e-18)
(-0.11354 0.0156086 0)
(-0.120409 0.0147297 1.10514e-18)
(-0.126458 0.0136049 -5.36164e-19)
(-0.131686 0.0123904 -5.221e-19)
(-0.136098 0.0111017 1.02047e-18)
(-0.139732 0.00971467 1.00106e-18)
(-0.142599 0.00823444 0)
(-0.144695 0.0066649 -2.43423e-19)
(-0.145997 0.00501756 0)
(-0.14648 0.00330385 0)
(-0.146104 0.00153818 -2.39188e-19)
(-0.144821 -0.000263406 0)
(-0.142566 -0.00208182 0)
(-0.139261 -0.00389703 2.40626e-19)
(-0.13483 -0.00568391 0)
(-0.129192 -0.0074135 0)
(-0.12226 -0.00905131 2.475e-19)
(-0.113945 -0.0105612 0)
(-0.104159 -0.011898 -5.0963e-19)
(-0.0928071 -0.0130199 0)
(-0.0798166 -0.0138676 0)
(-0.0650774 -0.0143985 0)
(-0.0485694 -0.0145339 0)
(-0.0301247 -0.0142378 1.12463e-18)
(-0.00987392 -0.0134138 1.148e-18)
(0.0125497 -0.0120266 1.50054e-21)
(0.036678 -0.00997135 1.1971e-18)
(0.0633464 -0.0072714 1.22041e-18)
(0.0914448 -0.00372077 -1.24508e-18)
(0.122703 0.000491723 0)
(0.154646 0.00583788 -1.2814e-18)
(0.19119 0.0117411 1.29835e-18)
(0.226663 0.0192423 -2.59975e-18)
(0.270168 0.0269411 0)
(0.308362 0.0371364 0)
(0.362753 0.0467184 -2.57263e-18)
(0.401468 0.0604871 -2.37863e-18)
(0.475659 0.0722442 2.43308e-18)
(0.509216 0.0907331 1.89762e-18)
(0.624045 0.10613 -2.21139e-18)
(0.63861 0.127462 7.24522e-19)
(0.853941 0.149753 0)
(0.895361 0.00500881 -2.04975e-19)
(0.337854 0.036527 0)
(0.120475 -0.00465059 4.51269e-18)
(-0.0789034 0.0276382 5.03807e-18)
(-0.00787531 0.00259886 -5.05036e-22)
(-0.0490976 0.0131753 4.24526e-18)
(-0.0313025 0.0078163 0)
(-0.0473295 0.011303 0)
(-0.0459353 0.0120125 0)
(-0.0562706 0.0134733 1.57742e-18)
(-0.061099 0.0144954 1.48137e-18)
(-0.0693791 0.0145241 0)
(-0.0750051 0.0143552 -1.33386e-18)
(-0.0809665 0.0138232 1.2793e-18)
(-0.0857459 0.0139513 0)
(-0.0910904 0.0146767 0)
(-0.0969936 0.0157963 0)
(-0.103785 0.0163921 -1.1116e-22)
(-0.110681 0.0161302 0)
(-0.117195 0.0151894 -2.12292e-18)
(-0.122981 0.0139918 5.14082e-19)
(-0.127995 0.0127055 4.99565e-19)
(-0.132217 0.0113485 1.29023e-23)
(-0.13568 0.00989651 -4.77251e-19)
(-0.138386 0.00835233 0)
(-0.140331 0.00671814 0)
(-0.141492 0.00500429 0)
(-0.14184 0.00322122 1.13671e-19)
(-0.141338 0.00138225 2.264e-19)
(-0.139934 -0.00049789 0)
(-0.137561 -0.00240148 0)
(-0.134148 -0.00430871 -2.26828e-19)
(-0.129617 -0.00619454 -1.14035e-19)
(-0.123885 -0.00803009 0)
(-0.116867 -0.00978077 0)
(-0.108473 -0.01141 0)
(-0.0986159 -0.012872 0)
(-0.087199 -0.0141237 0)
(-0.0741509 -0.0151049 0)
(-0.0593612 -0.0157706 0)
(-0.0428086 -0.0160421 0)
(-0.0243283 -0.0158777 0)
(-0.00404059 -0.0151844 -1.15893e-21)
(0.0184013 -0.0139184 1.08557e-18)
(0.0425755 -0.0119804 0)
(0.0692428 -0.00938605 -2.24967e-18)
(0.0973925 -0.005935 -1.14204e-18)
(0.128617 -0.00180433 0)
(0.16063 0.00345904 1.17322e-18)
(0.19709 0.0093013 -1.18548e-18)
(0.232688 0.016727 2.36641e-18)
(0.276022 0.024376 -2.37017e-18)
(0.314472 0.0344872 0)
(0.368532 0.0440081 7.59728e-21)
(0.407785 0.0576692 2.13182e-18)
(0.481324 0.0692974 -4.33384e-18)
(0.515969 0.0876304 -1.35088e-20)
(0.629408 0.102668 -1.92651e-18)
(0.646427 0.123527 5.94381e-19)
(0.856811 0.143842 1.61301e-18)
(0.907668 0.0222991 -6.87476e-19)
(0.414794 0.0400877 0)
(0.166672 0.00130009 9.94484e-21)
(-0.0573506 0.0278125 -3.28886e-21)
(-0.00940749 0.00265065 4.62532e-18)
(-0.0487568 0.0135714 4.21984e-18)
(-0.0311164 0.00794541 0)
(-0.0467134 0.0116354 3.56334e-18)
(-0.0450899 0.0123328 0)
(-0.0549688 0.0138775 -1.5444e-18)
(-0.0595067 0.0148881 7.93073e-23)
(-0.0675581 0.0149122 -1.36698e-18)
(-0.0731562 0.0146968 0)
(-0.0791827 0.0141447 -2.48583e-18)
(-0.084031 0.0142805 0)
(-0.0892753 0.0150609 0)
(-0.0948498 0.0162433 0)
(-0.101165 0.0168729 1.09715e-18)
(-0.107607 0.0165953 0)
(-0.113768 0.0156048 1.02445e-18)
(-0.119288 0.0143429 -9.90778e-19)
(-0.124085 0.0129897 0)
(-0.128118 0.0115677 6.35277e-24)
(-0.131407 0.0100533 0)
(-0.133953 0.00844732 0)
(-0.135748 0.00675046 -2.21352e-19)
(-0.136767 0.00497197 0)
(-0.136983 0.00312129 -2.17023e-19)
(-0.136356 0.0012106 -1.07939e-19)
(-0.134832 -0.000746675 -2.68935e-20)
(-0.132348 -0.00273388 2.68813e-20)
(-0.128831 -0.00473156 1.07787e-19)
(-0.124205 -0.00671486 2.16522e-19)
(-0.118386 -0.00865502 0)
(-0.111289 -0.0105173 2.19928e-19)
(-0.102824 -0.0122648 0)
(-0.092905 -0.0138511 0)
(-0.0814336 -0.0152319 0)
(-0.0683389 -0.0163463 4.64285e-19)
(-0.0535104 -0.0171467 0)
(-0.0369261 -0.0175543 0)
(-0.0184235 -0.0175221 9.79378e-19)
(0.0018865 -0.01696 -9.98143e-19)
(0.0243323 -0.0158168 0)
(0.0485311 -0.0139981 0)
(0.0751799 -0.011511 1.04949e-18)
(0.103352 -0.00816295 1.06424e-18)
(0.134524 -0.00411633 -1.07681e-18)
(0.166572 0.00105837 0)
(0.20293 0.0068378 0)
(0.238607 0.0141773 0)
(0.281759 0.0217775 5.34005e-21)
(0.320401 0.0317833 0)
(0.374129 0.0412546 2.11369e-18)
(0.413828 0.0547632 0)
(0.486738 0.0663035 1.96391e-18)
(0.522338 0.0843865 -1.50604e-18)
(0.634457 0.0991721 3.45636e-18)
(0.653666 0.119394 -5.29996e-19)
(0.85944 0.138133 -1.43631e-18)
(0.917703 0.0379312 1.70984e-19)
(0.482652 0.0450066 -4.07504e-18)
(0.217455 0.00791033 -4.26193e-18)
(-0.0267942 0.0281313 -3.28022e-21)
(-0.00910654 0.00314746 -4.64067e-18)
(-0.0481653 0.0138944 -4.21463e-18)
(-0.0306293 0.00800689 0)
(-0.0458896 0.0119218 -3.52296e-18)
(-0.0440154 0.0125878 0)
(-0.0534701 0.0142311 -1.5172e-18)
(-0.0577138 0.0152337 -1.41746e-18)
(-0.0655414 0.0152706 1.33692e-18)
(-0.0710979 0.0150193 -1.26726e-18)
(-0.0771745 0.0144523 1.21232e-18)
(-0.0820767 0.0145867 -1.1679e-18)
(-0.0872199 0.0154042 1.13219e-18)
(-0.0924807 0.016633 0)
(-0.0983418 0.017293 0)
(-0.104342 0.0170078 0)
(-0.110152 0.0159783 4.96446e-19)
(-0.115402 0.0146598 4.79472e-19)
(-0.119978 0.0132445 0)
(-0.123817 0.0117607 -4.51953e-19)
(-0.126932 0.0101862 0)
(-0.129316 0.00852046 0)
(-0.130959 0.00676273 2.12966e-19)
(-0.131837 0.00492128 -2.10296e-19)
(-0.13192 0.00300459 1.04198e-19)
(-0.131167 0.00102367 0)
(-0.129526 -0.00100932 5.15517e-20)
(-0.126932 -0.00307865 -5.14817e-20)
(-0.123314 -0.00516524 0)
(-0.118596 -0.00724454 -1.03484e-19)
(-0.112694 -0.00928792 2.0812e-19)
(-0.105524 -0.0112606 -2.09901e-19)
(-0.0969945 -0.0131252 0)
(-0.0870193 -0.0148348 0)
(-0.0755009 -0.0163439 0)
(-0.0623678 -0.0175908 -4.41508e-19)
(-0.0475097 -0.0185252 0)
(-0.0309036 -0.0190687 0)
(-0.0123894 -0.0191689 -9.28491e-19)
(0.00793122 -0.0187383 0)
(0.030369 -0.0177188 9.5829e-19)
(0.0545752 -0.0160203 -9.72517e-19)
(0.0811913 -0.0136416 0)
(0.109364 -0.0103987 9.99076e-19)
(0.140469 -0.00643769 2.02245e-18)
(0.172523 -0.00135556 -1.01569e-18)
(0.208766 0.0043595 0)
(0.244484 0.0116055 0)
(0.287444 0.019157 1.01701e-18)
(0.326227 0.029043 0)
(0.379627 0.0384714 1.94731e-18)
(0.419696 0.0517967 0)
(0.492004 0.0632762 1.79382e-18)
(0.528446 0.081044 1.35866e-18)
(0.639314 0.0956492 -1.57443e-18)
(0.660483 0.115132 0)
(0.861941 0.1326 1.27967e-18)
(0.925875 0.0519112 -9.79823e-21)
(0.542274 0.0508336 7.39863e-20)
(0.270656 0.0150668 4.16632e-18)
(0.0107862 0.029081 -3.44756e-21)
(-0.00582499 0.00417802 -5.94004e-22)
(-0.0471968 0.0141962 0)
(-0.0298362 0.00800962 0)
(-0.0448681 0.0121658 0)
(-0.0427301 0.0127841 -1.60405e-18)
(-0.0517937 0.014538 2.98964e-18)
(-0.0557389 0.0155366 0)
(-0.0633448 0.0156016 1.31193e-18)
(-0.068844 0.0153241 -4.53295e-23)
(-0.0749553 0.014747 -1.1866e-18)
(-0.0798972 0.0148718 -3.15344e-23)
(-0.0849405 0.01571 -1.1056e-18)
(-0.0899034 0.0169699 0)
(-0.0953313 0.0176564 0)
(-0.100901 0.0173702 0)
(-0.10636 0.0163113 -4.82809e-19)
(-0.111336 0.0149436 0)
(-0.115685 0.0134709 4.50886e-19)
(-0.119327 0.0119283 4.38112e-19)
(-0.122263 0.010296 -4.27435e-19)
(-0.124483 0.00857226 0)
(-0.125972 0.00675534 0)
(-0.126707 0.00485253 2.03113e-19)
(-0.126656 0.00287134 0)
(-0.125778 0.000821612 9.98076e-20)
(-0.124019 -0.00128567 -2.48351e-20)
(-0.121316 -0.0034356 2.47828e-20)
(-0.117599 -0.00560958 -9.91482e-20)
(-0.11279 -0.00778339 0)
(-0.106809 -0.00992855 -1.99978e-19)
(-0.0995685 -0.0120103 0)
(-0.0909783 -0.0139907 0)
(-0.0809524 -0.0158225 4.11028e-19)
(-0.0693927 -0.0174588 0)
(-0.056228 -0.0188374 0)
(-0.0413478 -0.0199053 0)
(-0.024728 -0.020584 0)
(-0.00621105 -0.0208166 0)
(0.0141099 -0.0205173 0)
(0.0365294 -0.019622 -1.82527e-18)
(0.060728 -0.0180444 9.2566e-19)
(0.0872996 -0.0157746 9.37304e-19)
(0.115453 -0.0126382 -1.89564e-18)
(0.146479 -0.00876389 -9.57829e-19)
(0.178514 -0.00377705 9.61205e-19)
(0.214631 0.00187233 -9.63352e-19)
(0.250359 0.00901949 0)
(0.293121 0.016522 2.11485e-21)
(0.332002 0.0262774 -1.83223e-18)
(0.385077 0.0356672 -1.8241e-18)
(0.425452 0.0487865 -1.64639e-18)
(0.497182 0.0602237 -3.33542e-18)
(0.53437 0.0776293 -1.25996e-18)
(0.644049 0.0921051 1.43974e-18)
(0.666976 0.110782 4.04207e-19)
(0.864377 0.127226 -1.17673e-18)
(0.932555 0.0644416 -1.49136e-19)
(0.594464 0.0572251 3.89359e-18)
(0.324585 0.0226442 2.39637e-21)
(0.0545342 0.0307309 -3.82739e-21)
(0.00148614 0.00607965 4.57268e-18)
(-0.0455603 0.014547 4.2608e-18)
(-0.0287041 0.00796498 -3.79916e-18)
(-0.0436425 0.01237 1.73797e-18)
(-0.0412391 0.0129264 -6.10188e-23)
(-0.0499477 0.0148011 -1.47691e-18)
(-0.0535907 0.0157993 -1.37351e-18)
(-0.0609753 0.0159062 -1.29101e-18)
(-0.0664011 0.0156118 2.44057e-18)
(-0.072531 0.015029 -3.8117e-23)
(-0.0774998 0.0151372 1.11961e-18)
(-0.0824453 0.0159811 0)
(-0.0871267 0.0172578 1.04909e-18)
(-0.0921421 0.0179663 0)
(-0.0972918 0.0176843 -9.7848e-19)
(-0.1024 0.0166048 -4.7105e-19)
(-0.107095 0.0151946 -4.54064e-19)
(-0.111212 0.013669 4.96768e-24)
(-0.114652 0.0120707 -4.2623e-19)
(-0.117407 0.0103828 4.1548e-19)
(-0.119459 0.00860293 0)
(-0.120793 0.00672845 -1.99736e-19)
(-0.121381 0.00476579 0)
(-0.121194 0.00272156 0)
(-0.120189 0.000604439 -9.66702e-20)
(-0.118311 -0.00157568 0)
(-0.1155 -0.00380472 0)
(-0.111683 -0.00606455 9.58558e-20)
(-0.106786 -0.00833134 0)
(-0.100726 -0.0105768 0)
(-0.0934184 -0.0127661 1.94266e-19)
(-0.084771 -0.014861 0)
(-0.0746984 -0.0168137 -3.96234e-19)
(-0.0631024 -0.0185762 0)
(-0.0499116 -0.0200854 4.06211e-19)
(-0.0350156 -0.0212859 0)
(-0.0183895 -0.0220993 0)
(0.000122485 -0.0224638 0)
(0.0204347 -0.0222956 0)
(0.0428264 -0.0215246 8.74749e-19)
(0.0670041 -0.0200681 0)
(0.0935204 -0.0179076 -1.79315e-18)
(0.121638 -0.0148784 9.05453e-19)
(0.152573 -0.0110916 -9.11977e-19)
(0.184569 -0.00620197 9.13535e-19)
(0.22055 -0.000619471 9.17043e-19)
(0.25626 0.00642498 0)
(0.298819 0.0138776 9.01739e-19)
(0.337759 0.0234945 2.5994e-18)
(0.390513 0.0328479 -1.71366e-18)
(0.43114 0.0457441 1.55121e-18)
(0.502313 0.0571514 1.56495e-18)
(0.540161 0.0741598 0)
(0.648707 0.0885434 -1.34585e-18)
(0.673213 0.10637 -7.41123e-19)
(0.86679 0.121994 0)
(0.938053 0.075725 6.0115e-19)
(0.639977 0.063915 0)
(0.377914 0.0305192 1.25616e-22)
(0.102625 0.0332464 -4.32393e-21)
(0.0156145 0.00844162 -4.49303e-18)
(-0.0426857 0.0150499 -8.59945e-18)
(-0.0271604 0.0078934 7.63311e-18)
(-0.0421901 0.0125373 -1.73422e-18)
(-0.0395362 0.013018 1.57984e-18)
(-0.0479313 0.0150223 0)
(-0.0512709 0.0160232 -5.35119e-23)
(-0.0584348 0.0161846 0)
(-0.0637703 0.0158821 -2.40495e-18)
(-0.069903 0.0152982 1.14658e-18)
(-0.0748863 0.0153836 0)
(-0.0797372 0.0162198 0)
(-0.0841541 0.0174996 -1.02895e-18)
(-0.0887774 0.0182252 0)
(-0.0935185 0.0179516 9.5793e-19)
(-0.0982753 0.016859 4.60816e-19)
(-0.102685 0.0154131 -8.93787e-24)
(-0.106564 0.0138391 -4.28852e-19)
(-0.109798 0.012188 -4.15973e-19)
(-0.112366 0.0104467 0)
(-0.114247 0.00861249 0)
(-0.115421 0.00668202 1.94526e-19)
(-0.115861 0.00466101 0)
(-0.115535 0.00255518 9.47615e-20)
(-0.1144 0.00037208 -9.39513e-20)
(-0.112403 -0.00187944 2.33438e-20)
(-0.109482 -0.00418604 -2.32659e-20)
(-0.105566 -0.00653017 9.29971e-20)
(-0.100581 -0.00888837 -9.31598e-20)
(-0.0944438 -0.0112326 1.87077e-19)
(-0.0870701 -0.013528 -1.88314e-19)
(-0.078368 -0.0157359 0)
(-0.0682521 -0.0178082 0)
(-0.0566238 -0.0196956 0)
(-0.0434119 -0.0213344 -2.13426e-22)
(-0.0285058 -0.0226665 3.9826e-19)
(-0.0118797 -0.0236137 0)
(0.00662003 -0.0241097 0)
(0.0269147 -0.024072 0)
(0.0492701 -0.0234254 0)
(0.0734146 -0.0220899 0)
(0.0998656 -0.0200385 8.41964e-22)
(0.127932 -0.017117 0)
(0.158766 -0.0134184 1.75074e-18)
(0.190703 -0.0086273 -1.75138e-18)
(0.226539 -0.00311279 -8.75729e-19)
(0.262207 0.00382601 0)
(0.304557 0.0112276 0)
(0.343524 0.0206998 -1.64695e-18)
(0.395959 0.0300176 4.38365e-21)
(0.436787 0.0426777 -1.46106e-18)
(0.507423 0.0540633 1.47173e-18)
(0.545855 0.070648 1.09053e-18)
(0.653318 0.0849669 -1.25473e-18)
(0.67924 0.101916 6.76324e-19)
(0.869205 0.116893 1.00496e-18)
(0.942621 0.0859111 1.31897e-19)
(0.67952 0.0706944 -3.6206e-18)
(0.429626 0.0385768 -7.83578e-18)
(0.153606 0.0366821 -4.95124e-21)
(0.0366588 0.0112307 4.39878e-18)
(-0.03754 0.015842 4.33042e-18)
(-0.0250669 0.00783439 -1.92258e-18)
(-0.0404689 0.0126715 0)
(-0.0376041 0.0130617 0)
(-0.0457364 0.0152032 1.45332e-18)
(-0.0487753 0.0162093 1.34507e-18)
(-0.0557199 0.0164367 0)
(-0.0609494 0.0161344 1.18781e-18)
(-0.0670692 0.015554 0)
(-0.0720553 0.0156116 0)
(-0.0768152 0.0164279 0)
(-0.0809848 0.0176981 0)
(-0.0852368 0.0184356 9.76579e-19)
(-0.0895804 0.0181734 4.70057e-19)
(-0.0939866 0.0170744 -4.51948e-19)
(-0.0981062 0.0155988 -6.76143e-24)
(-0.101742 0.0139809 0)
(-0.104763 0.0122802 4.07111e-19)
(-0.107141 0.0104877 0)
(-0.108846 0.00860086 0)
(-0.109857 0.00661597 1.9e-19)
(-0.110146 0.00453807 -1.87126e-19)
(-0.109679 0.00237206 -9.24836e-20)
(-0.108412 0.000124396 9.16437e-20)
(-0.106294 -0.00219705 -4.55154e-20)
(-0.103261 -0.0045797 4.53433e-20)
(-0.0992454 -0.00700653 -9.05951e-20)
(-0.0941719 -0.00945456 9.07177e-20)
(-0.0879581 -0.0118959 -6.08911e-23)
(-0.0805197 -0.0142959 -1.83098e-19)
(-0.0717649 -0.0166154 0)
(-0.0616084 -0.0188058 0)
(-0.0499514 -0.0208168 0)
(-0.0367228 -0.0225839 -7.62975e-19)
(-0.0218119 -0.0240466 -3.86733e-19)
(-0.00519181 -0.0251266 0)
(0.0132889 -0.0257535 0)
(0.0335579 -0.0258457 -8.04748e-19)
(0.0558684 -0.025323 0)
(0.0799684 -0.0241083 0)
(0.106344 -0.022166 1.66602e-18)
(0.134345 -0.0193524 -8.38499e-19)
(0.165069 -0.0157424 -1.68812e-18)
(0.19693 -0.0110508 1.11318e-21)
(0.232611 -0.00560525 1.68576e-18)
(0.268214 0.0012256 8.29249e-19)
(0.310349 0.00857491 0)
(0.349313 0.0178976 7.88682e-19)
(0.401431 0.0271794 1.55736e-18)
(0.442418 0.0395931 1.3959e-18)
(0.512532 0.0509623 -1.40378e-18)
(0.551478 0.067103 -1.03701e-18)
(0.657903 0.0813778 1.19134e-18)
(0.685094 0.0974342 -3.15402e-19)
(0.87164 0.111911 -9.51021e-19)
(0.946466 0.0951216 1.24658e-19)
(0.713756 0.0774035 3.5895e-18)
(0.478964 0.0467065 3.65453e-21)
(0.206302 0.0409898 -5.65658e-21)
(0.0637113 0.0147247 0)
(-0.0285089 0.016858 0)
(-0.0221766 0.00785592 2.59762e-22)
(-0.0384095 0.0127804 0)
(-0.0354135 0.0130609 0)
(-0.043347 0.0153452 6.40473e-23)
(-0.0460942 0.016358 0)
(-0.0528238 0.0166618 0)
(-0.0579324 0.0163676 1.17601e-18)
(-0.0640244 0.0157955 0)
(-0.0690023 0.0158216 0)
(-0.0736753 0.0166072 0)
(-0.077615 0.017856 0)
(-0.0815166 0.0185995 6.33411e-24)
(-0.085475 0.0183506 -4.62316e-19)
(-0.089532 0.0172513 8.88477e-19)
(-0.0933572 0.0157518 -5.5246e-24)
(-0.0967442 0.0140944 4.12343e-19)
(-0.0995484 0.0123471 0)
(-0.101731 0.0105056 3.88541e-19)
(-0.103256 0.00856788 0)
(-0.104101 0.00653012 -1.86118e-19)
(-0.104234 0.00439678 2.03003e-23)
(-0.103622 0.00217202 0)
(-0.102222 -0.000138801 0)
(-0.0999794 -0.00252871 4.32332e-24)
(-0.0968343 -0.00498585 -4.96388e-24)
(-0.0927177 -0.00749379 4.42413e-20)
(-0.0875553 -0.01003 0)
(-0.0812651 -0.0125669 -1.77774e-19)
(-0.073763 -0.0150698 1.7875e-19)
(-0.0649572 -0.0174993 0)
(-0.0547625 -0.0198064 -3.63349e-19)
(-0.0430801 -0.0219395 0)
(-0.0298389 -0.0238336 1.75851e-22)
(-0.014928 -0.0254258 0)
(0.00168033 -0.0266376 3.81505e-19)
(0.0201354 -0.0273946 3.86468e-19)
(0.0403706 -0.027616 4.9661e-22)
(0.0626282 -0.0272168 -7.91948e-19)
(0.0866727 -0.0261224 0)
(0.112964 -0.0242889 -6.84265e-22)
(0.140886 -0.0215831 8.13734e-19)
(0.171489 -0.0180621 8.74974e-22)
(0.203259 -0.0134705 8.16339e-19)
(0.238775 -0.00809501 -1.13179e-21)
(0.274294 -0.00137388 -1.33783e-21)
(0.316206 0.00592162 0)
(0.35514 0.0150909 0)
(0.406941 0.0243358 0)
(0.448047 0.0364951 0)
(0.517653 0.0478507 0)
(0.557051 0.0635316 9.79005e-19)
(0.662476 0.0777782 0)
(0.690802 0.0929344 0)
(0.874106 0.107039 -8.94182e-19)
(0.949759 0.103469 -6.18024e-19)
(0.743305 0.0839269 0)
(0.525387 0.0548015 5.14547e-21)
(0.259721 0.046064 -6.38307e-21)
(0.0961704 0.0189762 0)
(-0.0142488 0.0181452 2.14676e-18)
(-0.0180796 0.00804524 -1.9622e-18)
(-0.0359023 0.0128786 0)
(-0.0329199 0.0130196 0)
(-0.0407386 0.0154501 -1.44452e-18)
(-0.0432122 0.0164698 0)
(-0.049735 0.0168595 0)
(-0.0547106 0.0165807 -1.16674e-18)
(-0.0607608 0.016022 0)
(-0.0657201 0.0160136 -1.06056e-18)
(-0.0703107 0.0167594 0)
(-0.0740382 0.0179755 0)
(-0.0776107 0.0187191 4.13838e-24)
(-0.081197 0.0184844 0)
(-0.0849075 0.0173897 -4.37569e-19)
(-0.0884352 0.0158719 4.207e-19)
(-0.0915684 0.0141793 -8.11423e-19)
(-0.0941505 0.0123884 3.92781e-19)
(-0.0961328 0.0105001 -3.81887e-19)
(-0.0974744 0.00851334 0)
(-0.0981488 0.00642426 -1.82732e-19)
(-0.0981233 0.00423692 3.59636e-19)
(-0.0973637 0.00195481 0)
(-0.0958263 -0.000417732 -4.39442e-20)
(-0.0934579 -0.00287462 2.18134e-20)
(-0.0901984 -0.00540468 -2.17151e-20)
(-0.0859796 -0.00799211 -4.33507e-20)
(-0.0807277 -0.0106149 0)
(-0.074361 -0.0132456 -1.73994e-19)
(-0.0667957 -0.0158498 1.74893e-19)
(-0.0579403 -0.0183876 0)
(-0.0477097 -0.0208099 3.55568e-19)
(-0.0360049 -0.0230636 0)
(-0.0227549 -0.0250834 3.63516e-19)
(-0.00784879 -0.0268039 0)
(0.0087423 -0.0281463 -3.72802e-19)
(0.0271651 -0.0290326 -3.7744e-19)
(0.0473588 -0.0293822 4.49477e-22)
(0.0695553 -0.029106 7.7283e-19)
(0.0935339 -0.0281312 0)
(0.119732 -0.0264062 -7.87617e-19)
(0.147563 -0.023808 0)
(0.178034 -0.0203762 7.95309e-19)
(0.209697 -0.0158852 0)
(0.245039 -0.0105806 -7.90798e-19)
(0.280455 -0.00397057 -1.55192e-18)
(0.322137 0.00326951 0)
(0.361016 0.0122823 0)
(0.412498 0.0214888 0)
(0.453687 0.033387 6.40256e-19)
(0.522795 0.0447303 0)
(0.562587 0.0599394 -5.83809e-21)
(0.667048 0.0741698 0)
(0.696387 0.0884245 2.66234e-19)
(0.876613 0.102269 8.56608e-19)
(0.952637 0.11106 0)
(0.768746 0.090186 3.38806e-18)
(0.568534 0.0627622 3.74141e-18)
(0.312996 0.0517697 -7.07846e-21)
(0.133287 0.023933 0)
(0.00560888 0.0198301 -2.11608e-18)
(-0.0121955 0.00849591 0)
(-0.0327736 0.0129915 1.7701e-18)
(-0.0300585 0.0129446 1.58462e-18)
(-0.0378756 0.01552 1.4456e-18)
(-0.0401073 0.0165452 1.32724e-18)
(-0.0464377 0.0170292 1.23604e-18)
(-0.0512715 0.0167725 0)
(-0.0572679 0.0162325 0)
(-0.0621993 0.0161878 1.05157e-18)
(-0.0667123 0.0168857 0)
(-0.0702454 0.0180591 0)
(-0.0735107 0.0187963 -9.36755e-19)
(-0.076739 0.0185759 0)
(-0.0801072 0.0174901 -4.31843e-19)
(-0.0833352 0.0159589 0)
(-0.0862105 0.0142352 3.99995e-19)
(-0.0885659 0.0124039 -3.87057e-19)
(-0.0903437 0.0104711 0)
(-0.0914975 0.008437 0)
(-0.0919975 0.00629813 1.3329e-23)
(-0.0918098 0.00405825 -1.76895e-19)
(-0.0908994 0.00172021 0)
(-0.0892222 -0.000712637 4.32007e-20)
(-0.0867254 -0.00323501 2.14303e-20)
(-0.0833495 -0.00583643 -2.13266e-20)
(-0.079027 -0.00850169 0)
(-0.0736847 -0.0112093 0)
(-0.0672412 -0.0139322 4.7932e-23)
(-0.0596133 -0.0166359 -5.28e-23)
(-0.0507095 -0.0192805 0)
(-0.0404449 -0.0218162 0)
(-0.0287207 -0.0241891 3.5219e-19)
(-0.0154656 -0.0263331 0)
(-0.000569035 -0.0281805 0)
(0.0159993 -0.0296523 0)
(0.0343835 -0.0306669 0)
(0.0545278 -0.0311438 7.47598e-19)
(0.0766551 -0.0309899 7.55543e-19)
(0.100558 -0.0301342 0)
(0.126652 -0.0285172 0)
(0.15438 -0.0260262 7.72567e-19)
(0.18471 -0.0226838 0)
(0.216251 -0.0182935 0)
(0.251409 -0.0130607 -7.69082e-19)
(0.286704 -0.00656294 7.55248e-19)