/*--------------------------------*- C++ -*----------------------------------*\
| =========                 |                                                 |
| \\      /  F ield         | OpenFOAM: The Open Source CFD Toolbox           |
|  \\    /   O peration     | Version:  2.4.0                                 |
|   \\  /    A nd           | Web:      www.OpenFOAM.org                      |
|    \\/     M anipulation  |                                                 |
\*---------------------------------------------------------------------------*/
FoamFile
{
    version     2.0;
    format      ascii;
    class       surfaceScalarField;
    location    "6.17";
    object      phi;
}
// * * * * * * * * * * * * * * * * * * * * * * * * * * * * * * * * * * * * * //

dimensions      [0 3 -1 0 0 0 0];

internalField   nonuniform List<scalar> 
11840
(
7.83455e-07
9.21655e-06
-9.36131e-07
1.71959e-06
6.58861e-07
-1.59499e-06
1.47124e-07
5.11736e-07
-2.03455e-07
3.5058e-07
-3.03703e-07
1.00248e-07
-4.09154e-07
1.05451e-07
-5.00816e-07
9.16621e-08
-6.71405e-07
1.70589e-07
-7.99086e-07
1.27681e-07
-9.90979e-07
1.91893e-07
-1.14078e-06
1.49805e-07
-1.33556e-06
1.94776e-07
-1.52463e-06
1.89067e-07
-1.75055e-06
2.25926e-07
-1.98146e-06
2.30904e-07
-2.22276e-06
2.41308e-07
-2.45666e-06
2.33898e-07
-2.68296e-06
2.26301e-07
-2.89402e-06
2.11057e-07
-3.08762e-06
1.93599e-07
-3.26413e-06
1.76515e-07
-3.42675e-06
1.62617e-07
-3.57366e-06
1.46904e-07
-3.7031e-06
1.29446e-07
-3.81304e-06
1.09937e-07
-3.90156e-06
8.85166e-08
-3.96655e-06
6.49908e-08
-4.00557e-06
3.90206e-08
-4.01504e-06
9.47299e-09
-3.99357e-06
-2.14697e-08
-3.94132e-06
-5.22486e-08
-3.85727e-06
-8.4055e-08
-3.74005e-06
-1.17216e-07
-3.58867e-06
-1.51376e-07
-3.40222e-06
-1.86451e-07
-3.1804e-06
-2.2182e-07
-2.92265e-06
-2.57748e-07
-2.62986e-06
-2.92797e-07
-2.30132e-06
-3.2854e-07
-1.94024e-06
-3.61074e-07
-1.54421e-06
-3.96036e-07
-1.12139e-06
-4.2282e-07
-6.64762e-07
-4.56626e-07
-1.90401e-07
-4.7436e-07
3.1417e-07
-5.04571e-07
8.17811e-07
-5.03641e-07
1.36265e-06
-5.44841e-07
1.87455e-06
-5.11899e-07
2.45556e-06
-5.81006e-07
2.93948e-06
-4.83921e-07
3.56352e-06
-6.24046e-07
3.96019e-06
-3.96665e-07
4.66231e-06
-7.02125e-07
4.87466e-06
-2.12348e-07
5.73622e-06
-8.61561e-07
5.61276e-06
1.23462e-07
6.80486e-06
-1.1921e-06
6.23655e-06
5.68306e-07
-2.30134e-06
2.45135e-06
1.67652e-05
-5.06757e-07
4.67769e-06
3.68503e-07
-2.47025e-06
-8.58279e-08
9.66067e-07
-3.10798e-07
5.75549e-07
-4.69341e-07
2.58792e-07
-5.73204e-07
2.09313e-07
-6.86444e-07
2.04902e-07
-8.58101e-07
3.42246e-07
-1.00554e-06
2.7512e-07
-1.19119e-06
3.77542e-07
-1.35811e-06
3.16728e-07
-1.55146e-06
3.88121e-07
-1.7531e-06
3.90707e-07
-1.97683e-06
4.4966e-07
-2.20582e-06
4.59889e-07
-2.43589e-06
4.71376e-07
-2.65759e-06
4.55603e-07
-2.86906e-06
4.37766e-07
-3.06702e-06
4.09021e-07
-3.25106e-06
3.77635e-07
-3.42072e-06
3.46177e-07
-3.57518e-06
3.1708e-07
-3.71238e-06
2.84105e-07
-3.83049e-06
2.47558e-07
-3.92756e-06
2.07e-07
-4.00169e-06
1.6265e-07
-4.05101e-06
1.14305e-07
-4.07366e-06
6.16748e-08
-4.06892e-06
4.73638e-09
-4.03508e-06
-5.53112e-08
-3.97011e-06
-1.17219e-07
-3.87232e-06
-1.81849e-07
-3.74044e-06
-2.49098e-07
-3.57348e-06
-3.18336e-07
-3.37067e-06
-3.89253e-07
-3.13166e-06
-4.60831e-07
-2.85626e-06
-5.33152e-07
-2.54492e-06
-6.04141e-07
-2.19803e-06
-6.75429e-07
-1.81714e-06
-7.4196e-07
-1.40313e-06
-8.10043e-07
-9.5896e-07
-8.66994e-07
-4.86263e-07
-9.29322e-07
1.10555e-08
-9.71679e-07
5.30017e-07
-1.02353e-06
1.06396e-06
-1.03758e-06
1.61772e-06
-1.0986e-06
2.17331e-06
-1.06749e-06
2.74837e-06
-1.15607e-06
3.3017e-06
-1.03726e-06
3.88739e-06
-1.20973e-06
4.40419e-06
-9.13468e-07
5.00248e-06
-1.30042e-06
5.4283e-06
-6.38162e-07
6.07729e-06
-1.51055e-06
6.32436e-06
-1.23615e-07
7.13761e-06
-2.00535e-06
7.19246e-06
5.1346e-07
-3.78174e-06
3.60687e-06
2.31583e-05
1.73025e-08
8.26726e-06
5.85364e-08
-2.51149e-06
-3.04206e-07
1.32881e-06
-3.6788e-07
6.39223e-07
-5.35381e-07
4.26293e-07
-6.26781e-07
3.00714e-07
-7.48059e-07
3.2618e-07
-9.04889e-07
4.99077e-07
-1.05901e-06
4.29238e-07
-1.23263e-06
5.51162e-07
-1.403e-06
4.87097e-07
-1.58925e-06
5.74375e-07
-1.78811e-06
5.89564e-07
-2.00263e-06
6.6418e-07
-2.22287e-06
6.80137e-07
-2.4424e-06
6.90905e-07
-2.65473e-06
6.67929e-07
-2.85728e-06
6.40322e-07
-3.04795e-06
5.99686e-07
-3.22595e-06
5.5564e-07
-3.3902e-06
5.10419e-07
-3.53906e-06
4.65941e-07
-3.67061e-06
4.15659e-07
-3.78301e-06
3.59961e-07
-3.87435e-06
2.98334e-07
-3.94276e-06
2.31066e-07
-3.98645e-06
1.57996e-07
-4.00381e-06
7.90291e-08
-3.99345e-06
-5.61902e-09
-3.9539e-06
-9.48644e-08
-3.88306e-06
-1.8806e-07
-3.77943e-06
-2.85473e-07
-3.64181e-06
-3.8672e-07
-3.46922e-06
-4.90929e-07
-3.26094e-06
-5.9753e-07
-3.0166e-06
-7.05166e-07
-2.73612e-06
-8.13632e-07
-2.41985e-06
-9.20412e-07
-2.06844e-06
-1.02684e-06
-1.68307e-06
-1.12734e-06
-1.26531e-06
-1.2278e-06
-8.17033e-07
-1.31527e-06
-3.41492e-07
-1.40486e-06
1.59289e-07
-1.47246e-06
6.8117e-07
-1.54541e-06
1.22132e-06
-1.57774e-06
1.77622e-06
-1.65349e-06
2.34082e-06
-1.63209e-06
2.91267e-06
-1.72792e-06
3.48201e-06
-1.6066e-06
4.05387e-06
-1.78159e-06
4.60381e-06
-1.46341e-06
5.16269e-06
-1.8593e-06
5.66182e-06
-1.13728e-06
6.21094e-06
-2.05967e-06
6.61965e-06
-5.32328e-07
7.20455e-06
-2.59025e-06
7.57762e-06
1.4039e-07
-4.7803e-06
4.52839e-06
2.86299e-05
7.56479e-07
1.20392e-05
-2.33873e-07
-1.52113e-06
-4.6016e-07
1.5551e-06
-3.98822e-07
5.77885e-07
-5.66781e-07
5.94252e-07
-6.47721e-07
3.81654e-07
-7.73187e-07
4.51646e-07
-9.17941e-07
6.43831e-07
-1.07364e-06
5.8494e-07
-1.23961e-06
7.17126e-07
-1.40956e-06
6.57048e-07
-1.59049e-06
7.55311e-07
-1.7847e-06
7.83764e-07
-1.99131e-06
8.70789e-07
-2.20358e-06
8.92416e-07
-2.41472e-06
9.02036e-07
-2.61948e-06
8.7269e-07
-2.81503e-06
8.35874e-07
-2.99958e-06
7.84239e-07
-3.17207e-06
7.28132e-07
-3.33107e-06
6.69413e-07
-3.4747e-06
6.09576e-07
-3.60112e-06
5.42079e-07
-3.70849e-06
4.67324e-07
-3.7949e-06
3.84753e-07
-3.85855e-06
2.94716e-07
-3.89768e-06
1.97126e-07
-3.91068e-06
9.20256e-08
-3.89608e-06
-2.02241e-08
-3.85221e-06
-1.38726e-07
-3.77725e-06
-2.63027e-07
-3.66972e-06
-3.93e-07
-3.52844e-06
-5.27999e-07
-3.35246e-06
-6.66912e-07
-3.14108e-06
-8.08905e-07
-2.89395e-06
-9.52303e-07
-2.61101e-06
-1.09657e-06
-2.29258e-06
-1.23884e-06
-1.93941e-06
-1.38001e-06
-1.55256e-06
-1.51419e-06
-1.13382e-06
-1.64654e-06
-6.84731e-07
-1.76436e-06
-2.08895e-07
-1.8807e-06
2.92259e-07
-1.97361e-06
8.1411e-07
-2.06726e-06
1.3552e-06
-2.11883e-06
1.90935e-06
-2.20764e-06
2.47539e-06
-2.19813e-06
3.04468e-06
-2.29721e-06
3.61746e-06
-2.17938e-06
4.18275e-06
-2.34688e-06
4.742e-06
-2.02266e-06
5.28458e-06
-2.40188e-06
5.80821e-06
-1.66091e-06
6.31659e-06
-2.56805e-06
6.78651e-06
-1.00224e-06
7.274e-06
-3.07774e-06
7.77461e-06
-3.60218e-07
-5.54232e-06
5.3045e-06
3.33254e-05
1.49042e-06
1.58532e-05
-2.60199e-07
2.2949e-07
-5.51613e-07
1.84651e-06
-4.1947e-07
4.45742e-07
-5.83043e-07
7.57825e-07
-6.55738e-07
4.54349e-07
-7.82246e-07
5.78154e-07
-9.17839e-07
7.79424e-07
-1.07231e-06
7.39408e-07
-1.23269e-06
8.77512e-07
-1.40067e-06
8.25023e-07
-1.57689e-06
9.31531e-07
-1.76586e-06
9.72736e-07
-1.96512e-06
1.07005e-06
-2.16982e-06
1.09712e-06
-2.37334e-06
1.10555e-06
-2.57115e-06
1.0705e-06
-2.76028e-06
1.025e-06
-2.93903e-06
9.62983e-07
-3.1061e-06
8.95203e-07
-3.25986e-06
8.23181e-07
-3.39837e-06
7.48085e-07
-3.51981e-06
6.63519e-07
-3.62235e-06
5.69858e-07
-3.70411e-06
4.66517e-07
-3.76331e-06
3.53914e-07
-3.79822e-06
2.32038e-07
-3.80723e-06
1.01033e-07
-3.78879e-06
-3.86603e-08
-3.74122e-06
-1.86298e-07
-3.66279e-06
-3.41454e-07
-3.5521e-06
-5.03695e-07
-3.40796e-06
-6.72136e-07
-3.22944e-06
-8.45428e-07
-3.01588e-06
-1.02247e-06
-2.76692e-06
-1.20127e-06
-2.48252e-06
-1.38097e-06
-2.16301e-06
-1.55835e-06
-1.80916e-06
-1.73385e-06
-1.42199e-06
-1.90137e-06
-1.00337e-06
-2.06517e-06
-5.54716e-07
-2.213e-06
-7.96524e-08
-2.35576e-06
4.2053e-07
-2.4738e-06
9.41194e-07
-2.58793e-06
1.48125e-06
-2.65889e-06
2.03357e-06
-2.75996e-06
2.59841e-06
-2.76297e-06
3.16479e-06
-2.86358e-06
3.73693e-06
-2.75152e-06
4.29732e-06
-2.90727e-06
4.85828e-06
-2.58362e-06
5.39146e-06
-2.93506e-06
5.92362e-06
-2.19308e-06
6.41124e-06
-3.05566e-06
6.90658e-06
-1.49758e-06
7.34684e-06
-3.518e-06
7.89919e-06
-9.12575e-07
-6.17274e-06
5.9754e-06
3.735e-05
2.23991e-06
1.95887e-05
-6.37228e-08
2.53313e-06
-5.83326e-07
2.36611e-06
-4.36562e-07
2.98978e-07
-5.90694e-07
9.11957e-07
-6.56703e-07
5.20358e-07
-7.82229e-07
7.03679e-07
-9.10309e-07
9.07504e-07
-1.06215e-06
8.9125e-07
-1.21778e-06
1.03314e-06
-1.38303e-06
9.90274e-07
-1.55468e-06
1.10318e-06
-1.73817e-06
1.15622e-06
-1.93032e-06
1.2622e-06
-2.12762e-06
1.29442e-06
-2.32385e-06
1.30178e-06
-2.51494e-06
1.26159e-06
-2.69783e-06
1.2079e-06
-2.87083e-06
1.13597e-06
-3.03244e-06
1.05682e-06
-3.18094e-06
9.71676e-07
-3.31431e-06
8.81463e-07
-3.43079e-06
7.79998e-07
-3.52855e-06
6.67612e-07
-3.60574e-06
5.43708e-07
-3.66059e-06
4.08766e-07
-3.69141e-06
2.62855e-07
-3.69657e-06
1.06194e-07
-3.67449e-06
-6.07398e-08
-3.62349e-06
-2.37301e-07
-3.54192e-06
-4.23018e-07
-3.42842e-06
-6.17198e-07
-3.28182e-06
-8.18731e-07
-3.10121e-06
-1.02604e-06
-2.88594e-06
-1.23774e-06
-2.63565e-06
-1.45156e-06
-2.35034e-06
-1.66628e-06
-2.03031e-06
-1.87837e-06
-1.67639e-06
-2.08778e-06
-1.28953e-06
-2.28823e-06
-8.7165e-07
-2.48304e-06
-4.24129e-07
-2.66053e-06
4.95217e-08
-2.82941e-06
5.47978e-07
-2.97225e-06
1.06671e-06
-3.10666e-06
1.60467e-06
-3.19685e-06
2.15439e-06
-3.30968e-06
2.71672e-06
-3.32529e-06
3.27968e-06
-3.42655e-06
3.84931e-06
-3.32115e-06
4.40509e-06
-3.46305e-06
4.96458e-06
-3.14312e-06
5.49071e-06
-3.46118e-06
6.02493e-06
-2.72731e-06
6.49947e-06
-3.5302e-06
7.00574e-06
-2.00386e-06
7.4191e-06
-3.93136e-06
7.99206e-06
-1.48553e-06
-6.71698e-06
6.56066e-06
4.07894e-05
2.97381e-06
2.31756e-05
2.2966e-07
5.27728e-06
-5.36714e-07
3.13249e-06
-4.51451e-07
2.13716e-07
-5.92431e-07
1.05294e-06
-6.52792e-07
5.80719e-07
-7.76146e-07
8.27034e-07
-8.976e-07
1.02896e-06
-1.04607e-06
1.03972e-06
-1.19726e-06
1.18433e-06
-1.35934e-06
1.15235e-06
-1.52642e-06
1.27026e-06
-1.70427e-06
1.33407e-06
-1.88941e-06
1.44734e-06
-2.0794e-06
1.48442e-06
-2.26846e-06
1.49084e-06
-2.45289e-06
1.44602e-06
-2.62958e-06
1.38459e-06
-2.79677e-06
1.30316e-06
-2.95285e-06
1.21289e-06
-3.09598e-06
1.11481e-06
-3.22416e-06
1.00964e-06
-3.33563e-06
8.91468e-07
-3.42857e-06
7.60561e-07
-3.50118e-06
6.16318e-07
-3.5517e-06
4.59284e-07
-3.57845e-06
2.89602e-07
-3.57981e-06
1.07552e-07
-3.55417e-06
-8.63807e-08
-3.49987e-06
-2.91599e-07
-3.41534e-06
-5.07549e-07
-3.29923e-06
-7.3331e-07
-3.1504e-06
-9.6756e-07
-2.96795e-06
-1.20849e-06
-2.75125e-06
-1.45444e-06
-2.49995e-06
-1.70286e-06
-2.21406e-06
-1.95217e-06
-1.8939e-06
-2.19853e-06
-1.54028e-06
-2.4414e-06
-1.15417e-06
-2.67434e-06
-7.37471e-07
-2.89974e-06
-2.91545e-07
-3.10645e-06
1.80225e-07
-3.30118e-06
6.76427e-07
-3.46845e-06
1.19265e-06
-3.62289e-06
1.72781e-06
-3.73201e-06
2.27434e-06
-3.85621e-06
2.8333e-06
-3.88426e-06
3.39238e-06
-3.98562e-06
3.9584e-06
-3.88717e-06
4.50946e-06
-4.01411e-06
5.06579e-06
-3.69945e-06
5.58576e-06
-3.98115e-06
6.1188e-06
-3.26035e-06
6.58372e-06
-3.99511e-06
7.09392e-06
-2.51406e-06
7.48981e-06
-4.32725e-06
8.0687e-06
-2.06441e-06
-7.19785e-06
7.07171e-06
4.37177e-05
3.68638e-06
2.65609e-05
6.53168e-07
8.31049e-06
-4.06968e-07
4.19262e-06
-4.60283e-07
2.6703e-07
-5.89379e-07
1.18203e-06
-6.44911e-07
6.36251e-07
-7.65449e-07
9.47571e-07
-8.80778e-07
1.14429e-06
-1.02543e-06
1.18437e-06
-1.17227e-06
1.33117e-06
-1.33087e-06
1.31095e-06
-1.49331e-06
1.43271e-06
-1.66543e-06
1.50619e-06
-1.84361e-06
1.62552e-06
-2.02632e-06
1.66712e-06
-2.20824e-06
1.67276e-06
-2.38599e-06
1.62377e-06
-2.55643e-06
1.55502e-06
-2.71772e-06
1.46446e-06
-2.86813e-06
1.36331e-06
-3.00578e-06
1.25246e-06
-3.12866e-06
1.13253e-06
-3.23504e-06
9.97844e-07
-3.32311e-06
8.48632e-07
-3.39109e-06
6.84291e-07
-3.43723e-06
5.05425e-07
-3.45988e-06
3.12253e-07
-3.45742e-06
1.05095e-07
-3.42824e-06
-1.15561e-07
-3.37071e-06
-3.49132e-07
-3.28329e-06
-5.94962e-07
-3.16468e-06
-8.51921e-07
-3.01376e-06
-1.11848e-06
-2.82964e-06
-1.39261e-06
-2.61169e-06
-1.67238e-06
-2.35961e-06
-1.95495e-06
-2.07339e-06
-2.23838e-06
-1.75336e-06
-2.51856e-06
-1.40034e-06
-2.79442e-06
-1.01529e-06
-3.0594e-06
-6.00105e-07
-3.31492e-06
-1.56134e-07
-3.55042e-06
3.13371e-07
-3.77069e-06
8.06894e-07
-3.96198e-06
1.32015e-06
-4.13615e-06
1.85195e-06
-4.2638e-06
2.39479e-06
-4.39906e-06
2.94976e-06
-4.43923e-06
3.50451e-06
-4.54037e-06
4.06617e-06
-4.44882e-06
4.61227e-06
-4.56021e-06
5.16435e-06
-4.25153e-06
5.67846e-06
-4.49526e-06
6.20844e-06
-3.79033e-06
6.66544e-06
-4.45211e-06
7.17565e-06
-3.02427e-06
7.55891e-06
-4.71051e-06
8.13598e-06
-2.64148e-06
-7.62838e-06
7.51715e-06
4.62005e-05
4.37133e-06
2.97067e-05
1.17986e-06
1.1502e-05
-2.08064e-07
5.58055e-06
-4.53582e-07
5.12548e-07
-5.81628e-07
1.31008e-06
-6.33394e-07
6.88017e-07
-7.50853e-07
1.06503e-06
-8.6038e-07
1.25381e-06
-1.00094e-06
1.32493e-06
-1.14342e-06
1.47365e-06
-1.29829e-06
1.46582e-06
-1.45603e-06
1.59045e-06
-1.62234e-06
1.67249e-06
-1.79358e-06
1.79676e-06
-1.969e-06
1.84254e-06
-2.14376e-06
1.84753e-06
-2.31477e-06
1.79478e-06
-2.47885e-06
1.7191e-06
-2.63412e-06
1.61972e-06
-2.77873e-06
1.50792e-06
-2.91077e-06
1.3845e-06
-3.02823e-06
1.24999e-06
-3.12941e-06
1.09902e-06
-3.2125e-06
9.31729e-07
-3.27575e-06
7.47542e-07
-3.31745e-06
5.47118e-07
-3.33594e-06
3.30745e-07
-3.32962e-06
9.87789e-08
-3.29689e-06
-1.48297e-07
-3.23613e-06
-4.09888e-07
-3.14587e-06
-6.85219e-07
-3.02482e-06
-9.7297e-07
-2.87189e-06
-1.27142e-06
-2.68619e-06
-1.5783e-06
-2.46715e-06
-1.89143e-06
-2.21443e-06
-2.20767e-06
-1.92807e-06
-2.52474e-06
-1.60838e-06
-2.83825e-06
-1.2562e-06
-3.1466e-06
-8.72465e-07
-3.44313e-06
-4.59073e-07
-3.72831e-06
-1.73606e-08
-3.99214e-06
4.49542e-07
-4.23759e-06
9.40015e-07
-4.45245e-06
1.44989e-06
-4.64602e-06
1.97787e-06
-4.79177e-06
2.51658e-06
-4.93777e-06
3.06705e-06
-4.98971e-06
3.61704e-06
-5.09036e-06
4.17374e-06
-5.00552e-06
4.71458e-06
-5.10105e-06
5.26165e-06
-4.7986e-06
5.76992e-06
-5.00353e-06
6.2956e-06
-4.31602e-06
6.74555e-06
-4.90206e-06
7.25337e-06
-3.53209e-06
7.62662e-06
-5.08376e-06
8.19739e-06
-3.21226e-06
-8.0168e-06
7.90468e-06
4.82958e-05
5.0228e-06
3.25886e-05
1.77272e-06
1.4752e-05
5.69833e-08
7.29628e-06
-4.21273e-07
9.90804e-07
-5.68234e-07
1.45704e-06
-6.1821e-07
7.37994e-07
-7.32661e-07
1.17948e-06
-8.36648e-07
1.3578e-06
-9.72964e-07
1.46125e-06
-1.11102e-06
1.61171e-06
-1.26197e-06
1.61677e-06
-1.41491e-06
1.74339e-06
-1.57535e-06
1.83294e-06
-1.73967e-06
1.96108e-06
-1.90778e-06
2.01065e-06
-2.07534e-06
2.01509e-06
-2.23951e-06
1.95895e-06
-2.39711e-06
1.87671e-06
-2.54621e-06
1.76882e-06
-2.68488e-06
1.64658e-06
-2.81116e-06
1.51078e-06
-2.92307e-06
1.36191e-06
-3.01891e-06
1.19486e-06
-3.09692e-06
1.00974e-06
-3.15534e-06
8.05966e-07
-3.19249e-06
5.84267e-07
-3.20674e-06
3.44997e-07
-3.1965e-06
8.85384e-08
-3.16017e-06
-1.8463e-07
-3.09618e-06
-4.73881e-07
-3.00308e-06
-7.78315e-07
-2.87962e-06
-1.09643e-06
-2.72472e-06
-1.42632e-06
-2.53753e-06
-1.76549e-06
-2.31748e-06
-2.11148e-06
-2.06425e-06
-2.4609e-06
-1.77789e-06
-2.8111e-06
-1.45872e-06
-3.15742e-06
-1.10758e-06
-3.49774e-06
-7.25394e-07
-3.82532e-06
-3.14038e-07
-4.13967e-06
1.25142e-07
-4.43132e-06
5.89134e-07
-4.70158e-06
1.07622e-06
-4.93954e-06
1.58235e-06
-5.15215e-06
2.10609e-06
-5.31551e-06
2.64026e-06
-5.47193e-06
3.18577e-06
-5.53523e-06
3.73061e-06
-5.6352e-06
4.28185e-06
-5.55677e-06
4.8171e-06
-5.63629e-06
5.35855e-06
-5.34005e-06
5.86086e-06
-5.50584e-06
6.38136e-06
-4.83652e-06
6.82466e-06
-5.34535e-06
7.32848e-06
-4.03591e-06
7.69316e-06
-5.44844e-06
8.25489e-06
-3.77399e-06
-8.36874e-06
8.24126e-06
5.00546e-05
5.63617e-06
3.51937e-05
2.4101e-06
1.79781e-05
4.33963e-07
9.27242e-06
-3.52815e-07
1.77758e-06
-5.46857e-07
1.65108e-06
-5.98988e-07
7.90126e-07
-7.10887e-07
1.29138e-06
-8.09627e-07
1.45654e-06
-9.41634e-07
1.59326e-06
-1.0752e-06
1.74528e-06
-1.22206e-06
1.76363e-06
-1.37013e-06
1.89146e-06
-1.52467e-06
1.98748e-06
-1.68207e-06
2.11847e-06
-1.84285e-06
2.17143e-06
-2.00313e-06
2.17537e-06
-2.16036e-06
2.11618e-06
-2.31136e-06
2.02771e-06
-2.45414e-06
1.9116e-06
-2.58669e-06
1.77914e-06
-2.70706e-06
1.63115e-06
-2.81328e-06
1.46812e-06
-2.90365e-06
1.28523e-06
-2.97644e-06
1.08252e-06
-3.02992e-06
8.59444e-07
-3.06242e-06
6.16767e-07
-3.07234e-06
3.54914e-07
-3.05809e-06
7.42941e-08
-3.01811e-06
-2.24618e-07
-2.95084e-06
-5.41148e-07
-2.85489e-06
-8.74265e-07
-2.72902e-06
-1.2223e-06
-2.57218e-06
-1.58315e-06
-2.38356e-06
-1.95412e-06
-2.16257e-06
-2.33247e-06
-1.90893e-06
-2.71454e-06
-1.6227e-06
-3.09733e-06
-1.3042e-06
-3.47592e-06
-9.54272e-07
-3.84767e-06
-5.73842e-07
-4.20575e-06
-1.64747e-07
-4.54876e-06
2.7165e-07
-4.86771e-06
7.32437e-07
-5.16237e-06
1.21582e-06
-5.42292e-06
1.71784e-06
-5.65417e-06
2.23697e-06
-5.83465e-06
2.76621e-06
-6.00118e-06
3.30636e-06
-6.07538e-06
3.84566e-06
-6.17449e-06
4.391e-06
-6.10211e-06
4.9203e-06
-6.16559e-06
5.45563e-06
-5.87538e-06
5.95177e-06
-6.00198e-06
6.46641e-06
-5.35115e-06
6.9032e-06
-5.78215e-06
7.40186e-06
-4.53458e-06
7.75877e-06
-5.80534e-06
8.30968e-06
-4.3249e-06
-8.68827e-06
8.5331e-06
5.15215e-05
6.20814e-06
3.75187e-05
3.06978e-06
2.11165e-05
8.67292e-07
1.14749e-05
-2.22056e-07
2.86693e-06
-5.12797e-07
1.94182e-06
-5.74915e-07
8.52244e-07
-6.85297e-07
1.40176e-06
-7.79205e-07
1.55045e-06
-9.06942e-07
1.72099e-06
-1.03596e-06
1.87429e-06
-1.17861e-06
1.90628e-06
-1.32174e-06
2.03458e-06
-1.47036e-06
2.1361e-06
-1.62083e-06
2.26895e-06
-1.77426e-06
2.32486e-06
-1.92721e-06
2.32832e-06
-2.07737e-06
2.26634e-06
-2.22163e-06
2.17196e-06
-2.35793e-06
2.04791e-06
-2.48422e-06
1.90542e-06
-2.59853e-06
1.74546e-06
-2.6989e-06
1.56849e-06
-2.78366e-06
1.36999e-06
-2.85109e-06
1.14996e-06
-2.8995e-06
9.0785e-07
-2.92723e-06
6.445e-07
-2.93271e-06
3.60392e-07
-2.91438e-06
5.59575e-08
-2.87066e-06
-2.68329e-07
-2.80008e-06
-6.11737e-07
-2.70124e-06
-9.73098e-07
-2.57296e-06
-1.35059e-06
-2.4142e-06
-1.74191e-06
-2.22416e-06
-2.14416e-06
-2.00231e-06
-2.55433e-06
-1.74835e-06
-2.9685e-06
-1.46236e-06
-3.38332e-06
-1.14466e-06
-3.79361e-06
-7.9611e-07
-4.19622e-06
-4.17623e-07
-4.58423e-06
-1.10018e-08
-4.95538e-06
4.2237e-07
-5.30109e-06
8.79671e-07
-5.61967e-06
1.35905e-06
-5.90229e-06
1.85662e-06
-6.15174e-06
2.37079e-06
-6.34882e-06
2.89473e-06
-6.52512e-06
3.42913e-06
-6.60978e-06
3.96249e-06
-6.70786e-06
4.50152e-06
-6.64113e-06
5.02452e-06
-6.6886e-06
5.55327e-06
-6.40413e-06
6.04299e-06
-6.4917e-06
6.5512e-06
-5.85936e-06
6.98148e-06
-6.21243e-06
7.47411e-06
-5.02721e-06
7.82363e-06
-6.15486e-06
8.36253e-06
-4.8638e-06
-8.97847e-06
8.78576e-06
5.27357e-05
6.73677e-06
3.95676e-05
3.73574e-06
2.41175e-05
1.36132e-06
1.38493e-05
-8.95309e-09
4.2372e-06
-4.57402e-07
2.39027e-06
-5.44472e-07
9.39314e-07
-6.55388e-07
1.51268e-06
-7.45113e-07
1.64017e-06
-8.6875e-07
1.84463e-06
-9.93199e-07
1.99874e-06
-1.13156e-06
2.04464e-06
-1.26969e-06
2.17271e-06
-1.41238e-06
2.2788e-06
-1.55596e-06
2.41252e-06
-1.70202e-06
2.47092e-06
-1.84756e-06
2.47386e-06
-1.99055e-06
2.40933e-06
-2.12791e-06
2.30932e-06
-2.25758e-06
2.17758e-06
-2.37745e-06
2.02529e-06
-2.48553e-06
1.85355e-06
-2.5799e-06
1.66286e-06
-2.65891e-06
1.449e-06
-2.72085e-06
1.2119e-06
-2.76405e-06
9.51055e-07
-2.7869e-06
6.67348e-07
-2.78783e-06
3.61324e-07
-2.76531e-06
3.34346e-08
-2.7178e-06
-3.1584e-07
-2.64383e-06
-6.85704e-07
-2.54208e-06
-1.07485e-06
-2.41136e-06
-1.48131e-06
-2.25068e-06
-1.90259e-06
-2.05927e-06
-2.33557e-06
-1.83659e-06
-2.777e-06
-1.58238e-06
-3.22271e-06
-1.29673e-06
-3.66897e-06
-9.79972e-07
-4.11037e-06
-6.3295e-07
-4.54324e-06
-2.56585e-07
-4.9606e-06
1.47357e-07
-5.35932e-06
5.77469e-07
-5.7312e-06
1.03101e-06
-6.07321e-06
1.50608e-06
-6.37736e-06
1.99888e-06
-6.64454e-06
2.50775e-06
-6.85768e-06
3.02603e-06
-7.0434e-06
3.5543e-06
-7.13805e-06
4.08137e-06
-7.23492e-06
4.61368e-06
-7.17345e-06
5.13003e-06
-7.20495e-06
5.65178e-06
-6.92588e-06
6.13479e-06
-6.97471e-06
6.63608e-06
-6.36065e-06
7.05974e-06
-6.63609e-06
7.54563e-06
-5.5131e-06
7.8879e-06
-6.49713e-06
8.41398e-06
-5.38988e-06
-9.24177e-06
9.00423e-06
5.37315e-05
7.22132e-06
4.13506e-05
4.39584e-06
2.6943e-05
1.90569e-06
1.63395e-05
2.36406e-07
5.90648e-06
-3.66915e-07
2.99359e-06
-5.05e-07
1.0774e-06
-6.20316e-07
1.62799e-06
-7.06914e-07
1.72677e-06
-8.26789e-07
1.9645e-06
-9.46722e-07
2.11868e-06
-1.08074e-06
2.17866e-06
-1.21386e-06
2.30582e-06
-1.35064e-06
2.41558e-06
-1.48735e-06
2.54923e-06
-1.62604e-06
2.60961e-06
-1.76411e-06
2.61193e-06
-1.89982e-06
2.54504e-06
-2.03016e-06
2.43966e-06
-2.15304e-06
2.30046e-06
-2.26632e-06
2.13857e-06
-2.36803e-06
1.95526e-06
-2.45625e-06
1.75109e-06
-2.52935e-06
1.5221e-06
-2.58566e-06
1.2682e-06
-2.62353e-06
9.88924e-07
-2.64137e-06
6.85187e-07
-2.63764e-06
3.57598e-07
-2.61083e-06
6.62846e-09
-2.55944e-06
-3.67231e-07
-2.48204e-06
-7.63111e-07
-2.37732e-06
-1.17957e-06
-2.24414e-06
-1.61448e-06
-2.08155e-06
-2.06519e-06
-1.88877e-06
-2.52835e-06
-1.66531e-06
-3.00046e-06
-1.41093e-06
-3.47709e-06
-1.12571e-06
-3.95419e-06
-8.10012e-07
-4.42607e-06
-4.64667e-07
-4.88859e-06
-9.05988e-08
-5.33467e-06
3.10462e-07
-5.76039e-06
7.37083e-07
-6.15782e-06
1.1866e-06
-6.52273e-06
1.65708e-06
-6.84784e-06
2.14479e-06
-7.13225e-06
2.64801e-06
-7.3609e-06
3.16028e-06
-7.55568e-06
3.68206e-06
-7.65983e-06
4.20246e-06
-7.75532e-06
4.72768e-06
-7.69867e-06
5.23701e-06
-7.71428e-06
5.75137e-06
-7.44024e-06
6.22736e-06
-7.4507e-06
6.72129e-06
-6.85458e-06
7.13815e-06
-7.05294e-06
7.61672e-06
-5.99168e-06
7.95173e-06
-6.83214e-06
8.46443e-06
-5.90258e-06
-9.48015e-06
9.19304e-06
5.45385e-05
7.66206e-06
4.28815e-05
5.04053e-06
2.95645e-05
2.49145e-06
1.88886e-05
5.74325e-07
7.82361e-06
-2.2862e-07
3.79654e-06
-4.5215e-07
1.30093e-06
-5.78748e-07
1.75459e-06
-6.63957e-07
1.81198e-06
-7.80657e-07
2.0812e-06
-8.96231e-07
2.23425e-06
-1.02594e-06
2.30837e-06
-1.15405e-06
2.43393e-06
-1.28498e-06
2.54651e-06
-1.41486e-06
2.67912e-06
-1.54619e-06
2.74093e-06
-1.67675e-06
2.74248e-06
-1.80508e-06
2.67338e-06
-1.92826e-06
2.56284e-06
-2.04421e-06
2.41642e-06
-2.15076e-06
2.24512e-06
-2.24594e-06
2.05044e-06
-2.32786e-06
1.833e-06
-2.39491e-06
1.58915e-06
-2.44544e-06
1.31874e-06
-2.47784e-06
1.02133e-06
-2.49055e-06
6.97895e-07
-2.48206e-06
3.49104e-07
-2.45087e-06
-2.45579e-08
-2.39552e-06
-4.22583e-07
-2.31461e-06
-8.44022e-07
-2.20688e-06
-1.2873e-06
-2.07122e-06
-1.75014e-06
-1.9067e-06
-2.22971e-06
-1.71258e-06
-2.72247e-06
-1.48839e-06
-3.22465e-06
-1.23389e-06
-3.73159e-06
-9.49205e-07
-4.23887e-06
-6.34678e-07
-4.7406e-06
-2.91154e-07
-5.23211e-06
8.04472e-08
-5.70627e-06
4.78426e-07
-6.15836e-06
9.01327e-07
-6.58072e-06
1.34655e-06
-6.96795e-06
1.81215e-06
-7.31344e-06
2.29446e-06
-7.61456e-06
2.79171e-06
-7.85815e-06
3.29763e-06
-8.06159e-06
3.81256e-06
-8.17476e-06
4.32591e-06
-8.26867e-06
4.84368e-06
-8.21643e-06
5.34563e-06
-8.21623e-06
5.85222e-06
-7.94683e-06
6.32086e-06
-7.91935e-06
6.80703e-06
-7.34075e-06
7.21685e-06
-7.46276e-06
7.6876e-06
-6.46242e-06
8.01523e-06
-7.15976e-06
8.51414e-06
-6.40149e-06
-9.69523e-06
9.35623e-06
5.51822e-05
8.06012e-06
4.41776e-05
5.6622e-06
3.19624e-05
3.10825e-06
2.14425e-05
9.92233e-07
9.93963e-06
-3.97819e-08
4.82855e-06
-3.79543e-07
1.64069e-06
-5.28631e-07
1.90368e-06
-6.1532e-07
1.89867e-06
-7.29781e-07
2.19567e-06
-8.41316e-07
2.34579e-06
-9.66835e-07
2.43389e-06
-1.09e-06
2.55709e-06
-1.21514e-06
2.67166e-06
-1.33829e-06
2.80226e-06
-1.46228e-06
2.86493e-06
-1.5853e-06
2.8655e-06
-1.70617e-06
2.79425e-06
-1.82207e-06
2.67874e-06
-1.93096e-06
2.5253e-06
-2.03063e-06
2.34478e-06
-2.11913e-06
2.13894e-06
-2.19461e-06
1.90848e-06
-2.25546e-06
1.65e-06
-2.30009e-06
1.36336e-06
-2.32689e-06
1.04814e-06
-2.33435e-06
7.05353e-07
-2.32098e-06
3.35733e-07
-2.28532e-06
-6.02196e-08
-2.22593e-06
-4.81975e-07
-2.14145e-06
-9.28498e-07
-2.03067e-06
-1.39808e-06
-1.8925e-06
-1.88831e-06
-1.72605e-06
-2.39616e-06
-1.53061e-06
-2.91791e-06
-1.30572e-06
-3.44954e-06
-1.05118e-06
-3.98613e-06
-7.67109e-07
-4.52294e-06
-4.53873e-07
-5.05384e-06
-1.12312e-07
-5.57367e-06
2.56651e-07
-6.07523e-06
6.51346e-07
-6.55306e-06
1.0703e-06
-6.99967e-06
1.51098e-06
-7.40863e-06
1.97141e-06
-7.77388e-06
2.44801e-06
-8.09116e-06
2.93896e-06
-8.3491e-06
3.43818e-06
-8.56081e-06
3.94591e-06
-8.68249e-06
4.45186e-06
-8.77463e-06
4.96179e-06
-8.72636e-06
5.456e-06
-8.71044e-06
5.95444e-06
-8.44527e-06
6.41541e-06
-8.38032e-06
6.89343e-06
-7.81877e-06
7.29596e-06
-7.86529e-06
7.75843e-06
-6.92489e-06
8.07849e-06
-7.47983e-06
8.56334e-06
-6.88634e-06
-9.8884e-06
9.49747e-06
5.56848e-05
8.41727e-06
4.52578e-05
6.25486e-06
3.41248e-05
3.74533e-06
2.39521e-05
1.48097e-06
1.2204e-05
2.30655e-07
6.07887e-06
-2.78869e-07
2.15021e-06
-4.66829e-07
2.09164e-06
-5.59701e-07
1.99154e-06
-6.73385e-07
2.30935e-06
-7.81433e-07
2.45383e-06
-9.02993e-07
2.55545e-06
-1.02134e-06
2.67544e-06
-1.14084e-06
2.79116e-06
-1.25735e-06
2.91877e-06
-1.37408e-06
2.98166e-06
-1.48954e-06
2.98096e-06
-1.6029e-06
2.90761e-06
-1.71142e-06
2.78727e-06
-1.81312e-06
2.627e-06
-1.90577e-06
2.43744e-06
-1.98747e-06
2.22064e-06
-2.05636e-06
1.97737e-06
-2.11089e-06
1.70453e-06
-2.14947e-06
1.40194e-06
-2.17056e-06
1.06923e-06
-2.17266e-06
7.07447e-07
-2.15431e-06
3.17384e-07
-2.11408e-06
-1.00448e-07
-2.05057e-06
-5.45484e-07
-1.96247e-06
-1.0166e-06
-1.84859e-06
-1.51196e-06
-1.70789e-06
-2.029e-06
-1.5395e-06
-2.56455e-06
-1.34275e-06
-3.11466e-06
-1.11721e-06
-3.67508e-06
-8.62692e-07
-4.24065e-06
-5.79336e-07
-4.80629e-06
-2.67509e-07
-5.36566e-06
7.1946e-08
-5.91313e-06
4.381e-07
-6.44139e-06
8.2931e-07
-6.94427e-06
1.24409e-06
-7.41445e-06
1.67996e-06
-7.8445e-06
2.13495e-06
-8.22887e-06
2.60553e-06
-8.56174e-06
3.08986e-06
-8.83344e-06
3.58204e-06
-9.05298e-06
4.08222e-06
-9.18266e-06
4.58041e-06
-9.27282e-06
5.08214e-06
-9.22809e-06
5.56824e-06
-9.19655e-06
6.05817e-06
-8.93519e-06
6.51112e-06
-8.83326e-06
6.98062e-06
-8.28827e-06
7.37556e-06
-8.26024e-06
7.82934e-06
-7.37867e-06
8.14161e-06
-7.79209e-06
8.61219e-06
-7.35693e-06
-1.00608e-05
9.61999e-06
5.60648e-05
8.73581e-06
4.6142e-05
6.81391e-06
3.60467e-05
4.3922e-06
2.63738e-05
2.02788e-06
1.45683e-05
5.62271e-07
7.54448e-06
-1.35856e-07
2.84834e-06
-3.88626e-07
2.34441e-06
-4.95277e-07
2.09819e-06
-6.10423e-07
2.42449e-06
-7.15876e-07
2.55929e-06
-8.33877e-07
2.67345e-06
-9.4764e-07
2.7892e-06
-1.06168e-06
2.90519e-06
-1.17171e-06
3.0288e-06
-1.28127e-06
3.09123e-06
-1.38922e-06
3.0889e-06
-1.49501e-06
3.0134e-06
-1.59608e-06
2.88834e-06
-1.69048e-06
2.72139e-06
-1.776e-06
2.52296e-06
-1.85077e-06
2.2954e-06
-1.91295e-06
2.03955e-06
-1.96103e-06
1.75261e-06
-1.99345e-06
1.43437e-06
-2.00871e-06
1.08448e-06
-2.00533e-06
7.04069e-07
-1.9819e-06
2.93957e-07
-1.93702e-06
-1.45327e-07
-1.86933e-06
-6.13181e-07
-1.77754e-06
-1.10838e-06
-1.66053e-06
-1.62897e-06
-1.51728e-06
-2.17225e-06
-1.34696e-06
-2.73487e-06
-1.14893e-06
-3.3127e-06
-9.22781e-07
-3.90123e-06
-6.68349e-07
-4.49508e-06
-3.85798e-07
-5.08884e-06
-7.54996e-08
-5.67596e-06
2.61704e-07
-6.25033e-06
6.24874e-07
-6.80456e-06
1.0124e-06
-7.33179e-06
1.42277e-06
-7.82483e-06
1.85358e-06
-8.27531e-06
2.30284e-06
-8.67813e-06
2.76709e-06
-9.02599e-06
3.24449e-06
-9.31083e-06
3.72928e-06
-9.53777e-06
4.22156e-06
-9.67494e-06
4.71162e-06
-9.76288e-06
5.2048e-06
-9.72127e-06
5.68243e-06
-9.67418e-06
6.16348e-06
-9.41624e-06
6.60806e-06
-9.27784e-06
7.06868e-06
-8.74889e-06
7.45575e-06
-8.64731e-06
7.90045e-06
-7.82337e-06
8.20466e-06
-8.0963e-06
8.66084e-06
-7.81311e-06
-1.02136e-05
9.72667e-06
5.63381e-05
9.0184e-06
4.68503e-05
7.33603e-06
3.77291e-05
5.03903e-06
2.86708e-05
2.62101e-06
1.69863e-05
9.57648e-07
9.20783e-06
5.9344e-08
3.74664e-06
-2.87321e-07
2.69107e-06
-4.19498e-07
2.23037e-06
-5.39494e-07
2.54449e-06
-6.43735e-07
2.66353e-06
-7.58806e-07
2.78853e-06
-8.68345e-07
2.89874e-06
-9.77191e-07
3.01404e-06
-1.08096e-06
3.13257e-06
-1.18351e-06
3.19377e-06
-1.28399e-06
3.18939e-06
-1.38223e-06
3.11163e-06
-1.47579e-06
2.9819e-06
-1.5628e-06
2.8084e-06
-1.6411e-06
2.60126e-06
-1.70882e-06
2.36312e-06
-1.76418e-06
2.09491e-06
-1.80569e-06
1.79412e-06
-1.83184e-06
1.46052e-06
-1.84116e-06
1.0938e-06
-1.83222e-06
6.95122e-07
-1.80362e-06
2.65365e-07
-1.75401e-06
-1.94936e-07
-1.68207e-06
-6.85129e-07
-1.58656e-06
-1.20389e-06
-1.46638e-06
-1.74915e-06
-1.32056e-06
-2.31807e-06
-1.14832e-06
-2.90711e-06
-9.4903e-07
-3.51199e-06
-7.22326e-07
-4.12793e-06
-4.68059e-07
-4.74935e-06
-1.86409e-07
-5.37049e-06
1.22236e-07
-5.98461e-06
4.57038e-07
-6.58513e-06
8.17048e-07
-7.16457e-06
1.20068e-06
-7.71542e-06
1.60641e-06
-8.23057e-06
2.0319e-06
-8.7008e-06
2.47515e-06
-9.12139e-06
2.93278e-06
-9.48361e-06
3.40292e-06
-9.78097e-06
3.87999e-06
-1.00148e-05
4.36402e-06
-1.0159e-05
4.84559e-06
-1.02445e-05
5.32985e-06
-1.02055e-05
5.79863e-06
-1.0143e-05
6.27045e-06
-9.88806e-06
6.70631e-06
-9.7137e-06
7.15769e-06
-9.20027e-06
7.53657e-06
-9.02619e-06
7.97184e-06
-8.25864e-06
8.26772e-06
-8.39218e-06
8.70939e-06
-8.25479e-06
-1.03475e-05
9.82005e-06
5.6518e-05
9.26798e-06
4.74024e-05
7.8191e-06
3.9178e-05
5.67683e-06
3.0813e-05
3.24941e-06
1.94138e-05
1.41531e-06
1.10419e-05
3.05908e-07
4.85604e-06
-1.54422e-07
3.1514e-06
-3.28826e-07
2.40477e-06
-4.58727e-07
2.67439e-06
-5.63844e-07
2.76865e-06
-6.76926e-07
2.90161e-06
-7.82778e-07
3.00459e-06
-8.86815e-07
3.11807e-06
-9.84612e-07
3.23037e-06
-1.08035e-06
3.28951e-06
-1.17349e-06
3.28254e-06
-1.2642e-06
3.20234e-06
-1.35023e-06
3.06793e-06
-1.42981e-06
2.88798e-06
-1.5008e-06
2.67225e-06
-1.56139e-06
2.42371e-06
-1.60983e-06
2.14336e-06
-1.64468e-06
1.82897e-06
-1.66446e-06
1.4803e-06
-1.66774e-06
1.09709e-06
-1.65314e-06
6.80519e-07
-1.61931e-06
2.3153e-07
-1.5649e-06
-2.4934e-07
-1.48865e-06
-7.61381e-07
-1.38937e-06
-1.30317e-06
-1.266e-06
-1.87252e-06
-1.11762e-06
-2.46645e-06
-9.43466e-07
-3.08127e-06
-7.42957e-07
-3.7125e-06
-5.15753e-07
-4.35514e-06
-2.6173e-07
-5.00338e-06
1.89135e-08
-5.65114e-06