/*--------------------------------*- C++ -*----------------------------------*\
| =========                 |                                                 |
| \\      /  F ield         | OpenFOAM: The Open Source CFD Toolbox           |
|  \\    /   O peration     | Version:  2.4.0                                 |
|   \\  /    A nd           | Web:      www.OpenFOAM.org                      |
|    \\/     M anipulation  |                                                 |
\*---------------------------------------------------------------------------*/
FoamFile
{
    version     2.0;
    format      ascii;
    class       volScalarField;
    location    "3.07";
    object      k;
}
// * * * * * * * * * * * * * * * * * * * * * * * * * * * * * * * * * * * * * //

dimensions      [0 2 -2 0 0 0 0];

internalField   nonuniform List<scalar> 
6000
(
0.0117118
0.0065663
0.00175858
0.000437298
0.000128164
0.00031828
0.000200229
0.000317755
0.000379252
0.000630675
0.000994184
0.00149632
0.00206199
0.00270061
0.00350662
0.00439723
0.00552518
0.00533049
0.00431558
0.0030645
0.0019221
0.00213597
0.0034111
0.00506272
0.00686925
0.00835378
0.00939691
0.0101188
0.0106094
0.0109279
0.0111217
0.0112071
0.011205
0.0111284
0.0109843
0.010771
0.0104754
0.0100733
0.00953058
0.00914845
0.00935681
0.00941232
0.00932413
0.00911311
0.00880005
0.0083834
0.00784361
0.00716415
0.00638121
0.00557983
0.00484365
0.0042509
0.0039343
0.00389076
0.00405755
0.00445252
0.00501255
0.00596379
0.00687292
0.0090595
0.012037
0.011721
0.0020873
0.000682089
0.000152434
0.000279968
0.000363044
0.000495239
0.000728425
0.00114415
0.00174063
0.0025358
0.00354067
0.00485325
0.00656228
0.00868637
0.0107653
0.0093627
0.00666407
0.00453863
0.00356719
0.00448091
0.00937607
0.0105457
0.0109819
0.0121057
0.0131953
0.0141057
0.0148872
0.0155849
0.0161995
0.016762
0.0172924
0.0178008
0.0182867
0.0187317
0.0190906
0.0192866
0.0192019
0.0187544
0.0180966
0.0170851
0.015791
0.0143187
0.0127739
0.0112313
0.00980607
0.00867256
0.00784356
0.00716993
0.00642866
0.00554104
0.00463716
0.00385359
0.0032661
0.00287752
0.00267919
0.00259767
0.00273381
0.00293512
0.0115678
0.0151712
0.00287866
0.000653191
0.000209566
0.000335275
0.000470803
0.00063748
0.000950309
0.00147482
0.00222284
0.00321268
0.0044511
0.00603712
0.00808603
0.0106581
0.0131257
0.0114125
0.00818319
0.00561463
0.00441767
0.0066022
0.0122378
0.0123366
0.0135658
0.0154434
0.0168748
0.0179623
0.0188534
0.0196332
0.0203302
0.0209692
0.021575
0.0221618
0.0227318
0.0232653
0.023708
0.0239646
0.0238833
0.0233396
0.0224325
0.0210905
0.0194009
0.0174943
0.0155061
0.0135452
0.0116613
0.00997113
0.00854693
0.00737739
0.00635496
0.00537868
0.00445216
0.00363984
0.00298318
0.00247351
0.00210869
0.00182618
0.00168065
0.00152323
0.0114636
0.0160735
0.00400163
0.000543181
0.00026344
0.000388358
0.000552111
0.00075055
0.00111963
0.00172777
0.00259036
0.00371452
0.00509036
0.00682117
0.00904802
0.011842
0.0144734
0.0126225
0.0090691
0.00639866
0.00522186
0.00863967
0.0138547
0.0139661
0.016028
0.0182571
0.0198351
0.0210042
0.0219436
0.0227513
0.0234634
0.0241062
0.0247086
0.0252895
0.0258552
0.0263873
0.0268284
0.0270731
0.0269493
0.0263309
0.0252754
0.023744
0.0218304
0.0196779
0.0174384
0.015236
0.0131255
0.0111809
0.00945573
0.00796613
0.00667297
0.00551924
0.00448721
0.00360172
0.00288138
0.00231622
0.00189597
0.00157685
0.00137466
0.00121373
0.0113762
0.0157672
0.00531454
0.000502968
0.000312089
0.00043561
0.000620117
0.000847614
0.00126099
0.00193736
0.00289104
0.00411401
0.0055795
0.00739369
0.00971318
0.0126024
0.0152593
0.0133557
0.00956624
0.00692728
0.00596132
0.0104492
0.0149862
0.0155409
0.0182022
0.0206641
0.0223614
0.0236019
0.0245783
0.0253952
0.0260945
0.0267076
0.0272672
0.027797
0.0283079
0.0287855
0.0291717
0.0293571
0.0291598
0.0284713
0.0273142
0.0256657
0.0236194
0.0213213
0.0189292
0.0165741
0.0143189
0.0122182
0.01031
0.00861248
0.00711417
0.00579137
0.00463647
0.0036653
0.00288536
0.00228476
0.00184182
0.00152302
0.00131778
0.00120178
0.0113033
0.0149416
0.0067151
0.000636987
0.000358118
0.000478951
0.000680057
0.000934131
0.0013841
0.0021178
0.00314616
0.00444486
0.00597029
0.0078277
0.0101801
0.0130751
0.0156588
0.0137595
0.00978236
0.00725632
0.0066241
0.0120053
0.0159015
0.01702
0.0201354
0.0228027
0.0246224
0.0259368
0.0269453
0.0277589
0.0284255
0.0289828
0.0294676
0.0299082
0.0303213
0.0306975
0.0309817
0.0310644
0.0307641
0.0300035
0.0287728
0.0270574
0.0249457
0.0225775
0.0201078
0.0176668
0.0153214
0.0131168
0.0110828
0.00923667
0.00758139
0.00611552
0.00484636
0.00379269
0.00295758
0.00232636
0.00186774
0.00155088
0.00135379
0.00126736
0.0112435
0.013942
0.00775052
0.0011691
0.000409931
0.000520362
0.000734914
0.00101308
0.00149417
0.00227687
0.00336776
0.00472599
0.00629065
0.00816167
0.0105018
0.0133367
0.0157779
0.0139254
0.00978351
0.00742857
0.0072118
0.0133253
0.0166987
0.0183854
0.0218813
0.0247513
0.0267024
0.0280949
0.029132
0.0299313
0.030548
0.0310263
0.0314072
0.031724
0.0319997
0.032232
0.0323705
0.0323094
0.031879
0.0310403
0.0297537
0.0280092
0.0258858
0.0235108
0.0210278
0.0185592
0.0161709
0.0139023
0.0117801
0.00982262
0.00804325
0.00645768
0.00508756
0.0039583
0.00307189
0.00241104
0.00193719
0.00161755
0.00142946
0.00135707
0.0111888
0.0129398
0.00845261
0.00209575
0.000488273
0.000562151
0.000786996
0.00108655
0.00159457
0.00241958
0.00356373
0.00496971
0.00655858
0.00842089
0.0107146
0.0134425
0.0156963
0.0139233
0.00962139
0.00747885
0.0077336
0.0144364
0.0174136
0.0196381
0.0234777
0.0265545
0.0286463
0.0301205
0.0311825
0.0319574
0.032508
0.0328858
0.0331361
0.0332972
0.0333995
0.0334487
0.0334015
0.0331582
0.0325739
0.0316484
0.030316
0.0285705
0.0264793
0.0241519
0.0217132
0.019271
0.0168843
0.014588
0.0124087
0.0103678
0.00848889
0.00680255
0.00534392
0.00414604
0.0032116
0.00252129
0.002031
0.00170441
0.00152192
0.00145418
0.011136
0.0120148
0.00887043
0.00321082
0.000636922
0.000607716
0.000838501
0.00115626
0.0016877
0.00254952
0.00373975
0.00518489
0.00678723
0.00862468
0.0108477
0.0134384
0.0154806
0.013813
0.00934425
0.00743815
0.00820411
0.0153633
0.0180606
0.0207869
0.0249499
0.0282388
0.0304792
0.0320372
0.0331201
0.0338607
0.0343303
0.0345877
0.0346828
0.0346595
0.0345558
0.0343868
0.0341176
0.0336567
0.0328992
0.0318756
0.0305014
0.0287749
0.026751
0.0245178
0.0221751
0.0198098
0.0174681
0.0151791
0.0129716
0.0108718
0.00891374
0.00714251
0.00560632
0.00434617
0.00336664
0.00264696
0.00213922
0.00180286
0.00162258
0.00155388
0.0110859
0.0111987
0.00905177
0.00434004
0.000940905
0.0006629
0.000891879
0.00122385
0.00177541
0.00266941
0.00390019
0.00537836
0.00698703
0.00878916
0.0109265
0.0133656
0.0151936
0.0136419
0.00900227
0.00733539
0.00864288
0.0161239
0.0186471
0.0218423
0.0263154
0.0298208
0.0322155
0.0338582
0.0349574
0.0356541
0.0360287
0.0361475
0.0360655
0.0358321
0.0354937
0.0350756
0.0345524
0.0338424
0.0328985
0.0317629
0.0303458
0.0286508
0.0267211
0.0246207
0.0224198
0.0201784
0.0179235
0.0156769
0.0134696
0.0113338
0.00931503
0.00747306
0.00586912
0.00455255
0.00353073
0.00278211
0.00225628
0.00190838
0.00172747
0.00165438
0.0110394
0.0104978
0.00904633
0.00533894
0.00150715
0.000738621
0.000950242
0.00129104
0.00185919
0.00278134
0.00404843
0.00555552
0.00716654
0.00892827
0.010974
0.0132609
0.0148923
0.0134483
0.0086505
0.00719773
0.00907605
0.0167271
0.0191789
0.0228136
0.0275861
0.0313111
0.0338635
0.0355905
0.0367011
0.0373449
0.0376114
0.0375754
0.0372968
0.0368311
0.0362333
0.0355399
0.0347356
0.0337506
0.0326121
0.0313494
0.0298842
0.0282265
0.0264093
0.0244721
0.0224522
0.0203775
0.0182496
0.0160802
0.0139014
0.0117522
0.00969044
0.00779095
0.0061284
0.00476096
0.00369964
0.00292284
0.0023787
0.00201821
0.00183452
0.00175479
0.0109971
0.00990641
0.0089026
0.00615158
0.00224677
0.000855019
0.00101798
0.00135982
0.00194034
0.00288693
0.00418712
0.00572067
0.0073328
0.00905395
0.0110102
0.0131568
0.0146223
0.0132667
0.00834911
0.00704986
0.0095408
0.0171701
0.0196611
0.0237087
0.0287709
0.0327163
0.0354281
0.0372378
0.0383547
0.0389369
0.0390837
0.0388785
0.0383868
0.0376701
0.0367925
0.0358023
0.0346947
0.0334183
0.0320778
0.0306743
0.0291529
0.0275322
0.0258377
0.0240854
0.0222784
0.0204081
0.0184449
0.0163868
0.0142649
0.012125
0.0100377
0.00809349
0.00638113
0.00496819
0.00387023
0.00306631
0.00250397
0.00213034
0.00194232
0.00185443
0.010959
0.0094131
0.00866432
0.0067578
0.00306845
0.0010499
0.00110178
0.00143277
0.0020201
0.00298745
0.00431825
0.00587713
0.0074914
0.00917602
0.0110521
0.0130801
0.0144181
0.0131258
0.00815993
0.00691304
0.010016
0.0174846
0.0200991
0.0245343
0.0298762
0.0340413
0.036912
0.0388018
0.0399199
0.0404324
0.0404493
0.0400626
0.0393438
0.0383609
0.0371874
0.0358839
0.0344563
0.0328827
0.0313336
0.0297775
0.0281903
0.0266013
0.0250316
0.0234771
0.0219067
0.0202727
0.0185086
0.0165946
0.0145579
0.01245
0.0103545
0.00837825
0.00662475
0.00517168
0.00404003
0.00321027
0.00263016
0.00224316
0.00204976
0.00195267
0.0109251
0.00900497
0.00836828
0.00716222
0.0038769
0.00139554
0.00121233
0.00151347
0.00209983
0.00308387
0.00444323
0.00602726
0.00764646
0.00930196
0.0111129
0.0130507
0.0143037
0.0130489
0.00813672
0.0068052
0.0104828
0.017701
0.0204979
0.0252956
0.0309071
0.0352892
0.0383168
0.0402832
0.0413974
0.0418331
0.041711
0.0411327
0.0401757
0.0389149
0.0374336
0.0358051
0.0340457
0.0321809
0.0304176
0.0286997
0.0270366
0.0254701
0.0240205
0.0226674
0.0213485
0.0199758
0.0184409
0.016702
0.0147782
0.0127249
0.0106386
0.00864301
0.00685702
0.00536924
0.00420699
0.00335288
0.00275565
0.0023553
0.00215586
0.00204886
0.010895
0.00866932
0.00804367
0.00738397
0.00462489
0.00191772
0.00136632
0.00160713
0.00218127
0.00317706
0.00456291
0.00617255
0.00780063
0.00943672
0.0112013
0.013082
0.0142936
0.0130764
0.00827298
0.00674227
0.0109284
0.0178434
0.020862
0.0259973
0.0318676
0.036462
0.039643
0.0416823
0.0427875
0.0431401
0.0428715
0.0420934
0.0408898
0.0393426
0.0375456
0.0355852
0.0334877
0.0313501
0.0293666
0.0274812
0.0257334
0.0241778
0.0228372
0.0216806
0.0206189
0.0195245
0.018244
0.0167085
0.014924
0.0129476
0.010888
0.00888576
0.00707596
0.00555899
0.00436937
0.00349259
0.00287905
0.00246561
0.00225971
0.00214237
0.0108686
0.00839451
0.00771245
0.00744988
0.00527741
0.00258264
0.00158938
0.00172151
0.00226686
0.00326788
0.00467774
0.00631364
0.00795511
0.00958262
0.0113218
0.0131798
0.0143935
0.0132308
0.00855772
0.00674499
0.0113412
0.0179316
0.0211958
0.0266433
0.0327607
0.0375613
0.0408912
0.0429988
0.0440905
0.0443543
0.0439333
0.0429491
0.0414928
0.039654
0.0375372
0.0352422
0.0328094
0.0304219
0.0282156
0.0261611
0.0243222
0.0227654
0.0215181
0.0205446
0.0197362
0.0189287
0.0179217
0.0166145
0.0149943
0.0131166
0.0111008
0.00910466
0.00727983
0.0057393
0.00452568
0.0036281
0.0029992
0.00257309
0.00236053
0.00223262
0.0108453
0.00817032
0.0073902
0.00739
0.00580924
0.00331988
0.00192171
0.00186828
0.00236024
0.00335749
0.00478783
0.00645042
0.00810971
0.00973953
0.0114747
0.0133437
0.0146015
0.0135201
0.00897449
0.00685023
0.0117062
0.0179819
0.0215031
0.0272369
0.033589
0.0385883
0.0420612
0.0442326
0.0453065
0.0454769
0.0448987
0.043704
0.0419914
0.0398584
0.0374211
0.034793
0.0320413
0.0294217
0.0269966
0.0247762
0.0228434
0.0212743
0.0201017
0.019291
0.0187224
0.0182013
0.0174804
0.016422
0.0149889
0.0132306
0.0112756
0.00929816
0.0074671
0.00590874
0.00467465
0.00375829
0.00311512
0.00267689
0.00245761
0.00231907
0.010825
0.00798797
0.00708723
0.00723456
0.00620647
0.00406173
0.00238728
0.00206449
0.00246689
0.00344759
0.00489317
0.00658215
0.00826306
0.00990505
0.0116561
0.0135679
0.01491
0.013942
0.00951758
0.00707781
0.0120087
0.0180081
0.0217876
0.0277812
0.0343547
0.0395438
0.0431532
0.0453834
0.0464356
0.0465089
0.0457702
0.0443622
0.0423917
0.0399646
0.0372091
0.0342527
0.031212
0.0283724
0.0257381
0.0233596
0.0213347
0.0197451
0.0186276
0.0179538
0.0176029
0.0173583
0.0169283
0.0161346
0.0149084
0.013289
0.0114112
0.00946494
0.00763646
0.00606612
0.0048152
0.00388222
0.00322598
0.00277629
0.00255035
0.00240128
0.0108073
0.00784008
0.00680972
0.00701177
0.00646612
0.00475692
0.0029706
0.00233368
0.00259516
0.00354085
0.00499387
0.00670768
0.00841282
0.010075
0.0118594
0.0138424
0.015307
0.0144876
0.0101788
0.00740062
0.0122607
0.0180221
0.0220522
0.0282788
0.0350594
0.0404283
0.0441669
0.0464511
0.0474781
0.0474513
0.0465499
0.0449275
0.0426993
0.0399804
0.0369117
0.0336347
0.0303475
0.0272941
0.0244642
0.0219402
0.01983
0.0182155
0.0171348
0.0165686
0.0164054
0.0164179
0.0162761
0.0157572
0.0147547
0.0132919
0.0115068
0.00960397
0.00778684
0.00621041
0.00494643
0.00399911
0.0033311
0.00287072
0.00263824
0.00247886
0.0107919
0.00772046
0.00656071
0.00674649
0.00659441
0.00536681
0.00362534
0.0027057
0.00275756
0.00364148
0.00509053
0.00682568
0.008556
0.0102441
0.0120756
0.014154
0.0157779
0.0151452
0.0109506
0.00779789
0.0124765
0.0180339
0.0222998
0.0287322
0.0357047
0.0412422
0.0451022
0.0474353
0.0484341
0.0483052
0.04724
0.0454033
0.0429193
0.0399128
0.0365383
0.0329597
0.0294621
0.0262035
0.0231949
0.0205419
0.018358
0.0167193
0.0156603
0.0151714
0.0151599
0.0154014
0.0155365
0.0152964
0.0145304
0.01324
0.0115622
0.00971452
0.00791737
0.00634077
0.00506757
0.0041083
0.00342992
0.00295969
0.00272087
0.00255151
0.0107785
0.00762397
0.00634099
0.00645952
0.0066047
0.00586458
0.00430523
0.00319527
0.00297239
0.00375588
0.00518468
0.00693487
0.00868928
0.0104062
0.0122943
0.0144881
0.0163062
0.0159013
0.0118279
0.00825882
0.0126713
0.0180525
0.0225331
0.0291436
0.0362917
0.0419858
0.0459589
0.0483358
0.0493038
0.0490714
0.0478425
0.0457928
0.0430563
0.0397681
0.0360968
0.0322502
0.0285639
0.0251139
0.0219458
0.0191836
0.0169415
0.0152845
0.0142369
0.0137966
0.0138971
0.0143316
0.0147243
0.0147603
0.0142394
0.0131345
0.0115775
0.00979613
0.0080274
0.00645653
0.00517802
0.00420927
0.00352196
0.0030428
0.00279793
0.00261899
0.0107669
0.0075464
0.00614985
0.00616738
0.00651513
0.00623435
0.00496678
0.00378915
0.00326524
0.00389368
0.00527931
0.00703443
0.00880934
0.0105551
0.012505
0.0148289
0.0168745
0.0167421
0.0128084
0.00878504
0.012861
0.0180854
0.0227544
0.0295151
0.0368214
0.0426593
0.0467367
0.0491524
0.0500874
0.0497509
0.0483589
0.0460988
0.0431141
0.0395516
0.035594
0.0315259
0.0276603
0.024035
0.0207285
0.017879
0.0155977
0.0139327
0.0128919
0.0124758
0.0126476
0.0132328
0.0138559
0.0141585
0.0138865
0.0129776
0.0115532
0.00984868
0.00811652
0.0065572
0.00527729
0.00430159
0.00360688
0.00311976
0.00286915
0.00268114
0.0107568
0.00748427
0.00598558
0.00588248
0.0063464
0.00647024
0.00557162
0.00445114
0.00366202
0.00406896
0.00537972
0.00712433
0.00891322
0.010685
0.0126959
0.0151604
0.0174646
0.017653
0.0138918
0.00939054
0.0130613
0.0181395
0.0229662
0.0298486
0.0372944
0.0432624
0.0474351
0.0498847
0.0507848
0.050344
0.0487907
0.0463234
0.0430962
0.0392678
0.0350446
0.0307945
0.0267568
0.0229741
0.0195509
0.0166372
0.0143375
0.0126787
0.0116458
0.0112354
0.0114399
0.0121299
0.012949
0.0135018
0.0134774
0.0127718
0.0114903
0.00987231
0.0081845
0.00664242
0.00536503
0.00438495
0.00368439
0.00319035
0.00293438
0.00273784
0.0107481
0.00743472
0.00584591
0.00561352
0.00611974
0.00657529
0.00608812
0.00513782
0.00417193
0.00429946
0.00549237
0.00720942
0.00899866
0.0107911
0.0128563
0.0154671
0.0180575
0.0186185
0.0150773
0.0100994
0.0132877
0.0182211
0.0231711
0.0301463
0.0377114
0.0437951
0.0480536
0.0505321
0.0513958
0.0508513
0.0491389
0.0464686
0.0430053
0.0389206
0.0344678
0.0300562
0.0258578
0.0219359
0.0184181
0.0154636
0.0131671
0.0115306
0.0105119
0.0100959
0.0102996
0.0110473
0.0120224
0.0128022
0.0130187
0.0125205
0.0113901
0.00986747
0.00823132
0.00671201
0.005441
0.00445911
0.0037543
0.00325439
0.00299349
0.00278906
0.0107405
0.00739542
0.00572834
0.00536608
0.00585534
0.00655991
0.00649254
0.00580631
0.00478156
0.00460402
0.00562543
0.0072934
0.00907051
0.0108698
0.0129783
0.0157343
0.0186339
0.0196215
0.0163624
0.0109415
0.0135557
0.0183362
0.0233722
0.0304102
0.0380727
0.0442568
0.0485915
0.0510941
0.0519201
0.0512728
0.0494043
0.0465357
0.0428436
0.0385144
0.0338785
0.0293117
0.0249658
0.0209236
0.0173329
0.0143606
0.0120886
0.0104912
0.00949613
0.00907036
0.00924719
0.0100077
0.011095
0.0120723
0.012518
0.0122275
0.0112546
0.00983486
0.00825718
0.00676591
0.00550506
0.00452394
0.00381648
0.0033118
0.00304643
0.00283477
0.010734
0.00736446
0.00563027
0.00514323
0.00557114
0.0064402
0.00676981
0.00641783
0.00545947
0.00499991
0.00579013
0.00737996
0.00913289
0.0109238
0.0130566
0.0159488
0.0191742
0.0206433
0.0177404
0.0119465
0.0138812
0.018491
0.0235731
0.0306425
0.0383784
0.044647
0.0490479
0.0515697
0.0523569
0.0516083
0.0495872
0.0465258
0.042613
0.0380677
0.0332743
0.0285618
0.0240828
0.0199386
0.0162966
0.0133283
0.0111008
0.00955886
0.00859876
0.00816505
0.0082976
0.0090314
0.0101853
0.0113256
0.0119833
0.0118973
0.0110859
0.00977547
0.00826244
0.0068042
0.00555718
0.00457937
0.00387087
0.00336254
0.00309321
0.00287501
0.0107283
0.00734028
0.0055492
0.00494606
0.00528215
0.0062359
0.00691386
0.00693944
0.00616377
0.00549598
0.00600073
0.00747484
0.00918767
0.0109628
0.0130881
0.0160992
0.0196587
0.0216631
0.0192003
0.0131402
0.0142805
0.0186926
0.023779
0.0308461
0.0386283
0.0449645
0.0494216
0.0519578
0.0527054
0.0518573
0.0496877
0.0464395
0.0423163
0.0375947
0.032654
0.0278068
0.0232097
0.0189819
0.015309
0.0123656
0.0102008
0.00872912
0.00781541
0.00737978
0.0074593
0.00813452
0.00931034
0.0105752
0.0114231
0.0115347
0.0108866
0.00969054
0.00824765
0.0068271
0.00559742
0.0046254
0.00391747
0.00340662
0.00313384
0.00290986
0.0107234
0.0073216
0.00548281
0.0047743
0.00500016
0.00596843
0.0069273
0.00734517
0.00684981
0.00608612
0.00627338
0.00758608
0.00923827
0.010988
0.0130851
0.016177
0.0200683
0.0226578
0.0207255
0.0145362
0.0147719
0.0189499
0.0239972
0.0310243
0.038822
0.0452082
0.0497109
0.0522569
0.0529642
0.0520191
0.0497056
0.0462771
0.0419704
0.0370936
0.0320168
0.0270472
0.0223471
0.0180534
0.0143696
0.0114704
0.00938455
0.00799582
0.00713894
0.00670955
0.00673473
0.00732877
0.00848538
0.00983422
0.0108463
0.011145
0.0106595
0.00958154
0.00821352
0.00683495
0.00562594
0.00466212
0.00395632
0.00344408
0.00316844
0.00293942
0.0107191
0.00730737
0.00542896
0.00462669
0.00473377
0.00565911
0.00682048
0.007617
0.00747537
0.00674663
0.00662342
0.00772409
0.00928982
0.0110015
0.0130643
0.0161769
0.0203847
0.0236028
0.0222943
0.0161221
0.0153753
0.0192748
0.024239
0.0311816
0.0389585
0.0453762
0.0499141
0.0524653
0.0531318
0.0520925
0.0496401
0.0460469
0.0415814
0.0365632
0.0313621
0.0262831
0.021495
0.0171532
0.0134773
0.01064
0.00864737
0.00735215
0.00656085
0.00614629
0.0061212
0.00662085
0.00772273
0.00911471
0.0102618
0.0107336
0.0104077
0.00945014
0.00816094
0.00682818
0.00564298
0.00468966
0.00398755
0.00347504
0.0031971
0.00296383
0.0107154
0.00729674
0.00538575
0.00450138
0.0044887
0.00532764
0.00660994
0.00774554
0.00800367
0.00743933
0.0070606
0.00790141
0.00934932
0.0110074
0.0130276
0.0161147
0.0205918
0.0244719
0.0238809
0.0178773
0.0161126
0.0196837
0.0245104
0.0313259
0.0390419
0.0454661
0.0500285
0.0525807
0.0532062
0.052076
0.049496
0.0457572
0.0411489
0.0360027
0.0306898
0.0255146
0.0206537
0.0162808
0.0126311
0.00987191
0.00798456
0.00679128
0.00607242
0.00568051
0.00561234
0.00601289
0.00703144
0.0084275
0.00967821
0.0103063
0.0101346
0.00929823
0.00809091
0.00680736
0.00564884
0.00470824
0.00401131
0.00349963
0.00322
0.00298323
0.0107121
0.007289
0.0053515
0.00439622
0.00426818
0.00499104
0.00631655
0.00773033
0.00840515
0.00811812
0.00758354
0.00813156
0.00942561
0.0110109
0.0129784
0.0160123
0.0206761
0.0252376
0.0254563
0.0197709
0.0170057
0.0201922
0.0248041
0.0314591
0.0390793
0.0454855
0.0500558
0.0526012
0.0531859
0.0519728
0.049278
0.045409
0.0406729
0.0354119
0.0299997
0.0247418
0.0198231
0.0154361
0.0118298
0.00916329
0.00739153
0.00630669
0.00566538
0.00530259
0.00519965
0.00550269
0.0064171
0.00778172
0.0091038
0.00986878
0.00984366
0.00912782
0.00800461
0.00677316
0.00564394
0.00471811
0.00402779
0.00351803
0.00323731
0.00299783
0.0107093
0.00728357
0.00532475
0.00430893
0.00407348
0.00466303
0.00596335
0.00757949
0.00865876
0.00873587
0.00817553
0.00842693
0.00952912
0.0110191
0.0129211
0.0158895
0.0206355
0.0258724
0.0269889
0.0217647
0.0180737
0.0208007
0.025124
0.0315837
0.0390736
0.0454373
0.049999
0.0525301
0.0530741
0.0517858
0.0489883
0.0450032
0.0401534
0.0347905
0.0292921
0.023965
0.0190032
0.0146187
0.0110722
0.00851154
0.0068639
0.00589242
0.00533225
0.00500357
0.0048739
0.00508583
0.00588202
0.00718463
0.00854617
0.00942676
0.00953861
0.00894111
0.00790328
0.00672631
0.00562874
0.00471959
0.00403725
0.00353046
0.00324925
0.00300781
0.0107068
0.00727999
0.00530425
0.00423727
0.0039044
0.00435382
0.00557352
0.00730879
0.00875276
0.00924969
0.00880425
0.0087952
0.00967125
0.0110401
0.0128617
0.0157486
0.0204915
0.0263489
0.0284452
0.0238162
0.0193284
0.0215067
0.0254743
0.0317019
0.0390282
0.0453248
0.0498615
0.0523707
0.0528739
0.0515174
0.0486287
0.0445409
0.0395907
0.034139
0.0285673
0.0231846
0.0181944
0.0138285
0.0103572
0.00791413
0.0063976
0.00554305
0.00506644
0.00477558
0.00462621
0.00475424
0.0054257
0.00664149
0.00801207
0.00898571
0.0092231
0.00874036
0.00778831
0.00666766
0.00560376
0.00471305
0.00403998
0.00353714
0.00325606
0.00301341
0.0107046
0.00727785
0.00528889
0.00417908
0.00375969
0.00407024
0.00516859
0.00693995
0.00868526
0.00962441
0.00942558
0.00923499
0.00986308
0.0110834
0.012807
0.0155939
0.0202732
0.0266413
0.0297901
0.0258805
0.0207686
0.0223066
0.0258595
0.0318165
0.0389464
0.0451513
0.0496467
0.0521263
0.0525884
0.0511702
0.0482009
0.0440231
0.0389856
0.0334578
0.0278257
0.0224008
0.017397
0.0130654
0.0096839
0.00736863
0.00598887
0.00525376
0.00486229
0.00461193
0.00444858
0.00450032
0.00504569
0.00615568
0.0075073
0.00855087
0.00890082
0.00852795
0.00766116
0.00659811
0.0055696
0.0046989
0.00403628
0.00353836
0.003258
0.00301486
0.0107027
0.00727685
0.00527776
0.00413243
0.00363748
0.00381619
0.00476704
0.00649855
0.00846409
0.00983469
0.0099901
0.00973199
0.0101133
0.0111588
0.0127648
0.0154312
0.0200159
0.0267301
0.0309864
0.0279122
0.02237
0.0232011
0.0262836
0.0319302
0.0388318
0.0449205
0.0493581
0.0518001
0.0522205
0.0507466
0.0477068
0.043451
0.0383388
0.0327477
0.0270682
0.0216144
0.0166113
0.0123295
0.00905123
0.00687274
0.00563421
0.00502029
0.00471497
0.00450701
0.0043342
0.00431681
0.00473818
0.0057288
0.00703657
0.00812705
0.00857541
0.00830628
0.00752336
0.00651864
0.0055269
0.00467759
0.00402653
0.00353441
0.00325535
0.00301242
0.010701
0.00727672
0.00527007
0.00409553
0.00353553
0.00359311
0.00438356
0.00601165
0.0081061
0.00986621
0.0104497
0.0102576
0.0104248
0.0112755
0.0127435
0.0152681
0.019723
0.0266329
0.0319951
0.0298667
0.0240975
0.0241884
0.0267501
0.0320459
0.0386879
0.0446358
0.0489993
0.0513957
0.0517734
0.0502492
0.0471482
0.0428261
0.0376514
0.0320096
0.0262955
0.020826
0.0158379
0.0116209
0.00845824
0.00642424
0.00533048
0.00483893
0.00462038
0.00445623
0.00427741
0.00419713
0.0044986
0.00536098
0.00660354
0.0077186
0.00825038
0.00807778
0.00737649
0.00643027
0.00547635
0.00464963
0.0040111
0.00352562
0.00324841
0.00300635
0.0106995
0.00727727
0.00526514
0.00406683
0.00345147
0.00340064
0.00402866
0.00550543
0.00763557
0.00971629
0.0107633
0.0107709
0.0107918
0.0114404
0.012751
0.0151135
0.019401
0.0263776
0.0327754
0.0317005
0.0259094
0.0252625
0.0272615
0.0321665
0.0385181
0.044301
0.048574
0.0509165
0.0512501
0.0496806
0.0465272
0.0421498
0.0369247
0.0312446
0.0255088
0.0200366
0.0150776
0.0109398
0.00790399
0.00602103
0.00507481
0.00470646
0.00457508
0.00445577
0.00427357
0.00413557
0.0043221
0.00505121
0.00621081
0.00732937
0.00792908
0.00784486
0.00722218
0.0063341
0.0054187
0.00461554
0.00399042
0.00351234
0.0032375
0.00299693
0.0106983
0.00727831
0.00526243
0.00404495
0.00338298
0.0032371
0.0037089
0.00500321
0.00708203
0.00939376
0.0109001
0.0112237
0.0111964
0.0116558
0.0127939
0.014975
0.0190577
0.026006
0.0332842
0.0333696
0.0277626
0.0264128
0.0278187
0.0322944
0.0383258
0.0439199
0.0480862
0.0503662
0.050654
0.0490433
0.045846
0.041424
0.0361602
0.0304541
0.0247091
0.019247
0.014331
0.0102861
0.00738753
0.00566113
0.00486462
0.00462009
0.00457616
0.00450237
0.00431881
0.00412723
0.00420393
0.00479757
0.00585999
0.0069626
0.00761463
0.0076099
0.00706207
0.00623122
0.00535471
0.00457588
0.00396493
0.00349491
0.00322296
0.00298445
0.0106971
0.00727972
0.00526146
0.0040287
0.00332786
0.00310005
0.00342738
0.00452397
0.00647752
0.00891817
0.0108423
0.0115671
0.0116082
0.0119168
0.0128763
0.0148586
0.0187015
0.0255313
0.033517
0.0348293
0.0296155
0.027624
0.0284208
0.0324319
0.0381145
0.0434961
0.0475395
0.0497485
0.0499883
0.0483404
0.0451069
0.0406506
0.0353595
0.0296397
0.0238978
0.0184584
0.013599
0.00966022
0.0069079
0.0053427
0.00469767
0.0045775
0.00462112
0.00459318
0.00440972
0.00416788
0.00413958
0.00459761
0.00555183
0.00662097
0.0073099
0.00737518
0.0068978
0.00612279
0.00528518
0.00453125
0.00393509
0.00347374
0.00320513
0.0029692
0.0106961
0.00728139
0.00526184
0.00401706
0.00328407
0.00298664
0.00318443
0.00408164
0.00585367
0.00831811
0.0105861
0.0117578
0.0119862
0.0122089
0.0129971
0.0147685
0.0183398
0.024965
0.0334847
0.03605
0.0314099
0.0288753
0.029064
0.0325805
0.0378871
0.0430336
0.0469381
0.049067
0.0492564
0.0475747
0.0443124
0.0398317
0.0345247
0.028803
0.0230763
0.0176718
0.0128825
0.00906213
0.00646416
0.00506402
0.00457199
0.00457666
0.00470775
0.00472547
0.00454309
0.0042537
0.00412481
0.00444848
0.00528637
0.00630658
0.0070175
0.00714292
0.006731
0.00600996
0.00521095
0.00448225
0.00390138
0.00344922
0.00318436
0.00295149
0.0106952
0.00728323
0.00526324
0.00400916
0.00324982
0.00289389
0.00297839
0.00368497
0.00523906
0.00762863
0.0101414
0.0117629
0.0122836
0.0125064
0.0131488
0.014705
0.0179784
0.0243192
0.0332018
0.0370045
0.0330921
0.0301414
0.029742
0.0327407
0.0376465
0.0425359
0.0462859
0.0483259
0.0484622
0.0467495
0.0434653
0.0389696
0.0336577
0.0279458
0.0222461
0.0168885
0.0121824
0.00849194
0.00605535
0.00482354
0.00448589
0.00461589
0.00483397
0.00489651
0.00471561
0.00438099
0.00415562
0.00434715
0.00506299
0.00602096
0.0067397
0.0069152
0.00656328
0.00589389
0.00513287
0.00442953
0.00386431
0.00342175
0.00316101
0.00293163
0.0106945
0.00728518
0.00526542
0.00400425
0.00322351
0.00281893
0.00280629
0.00333806
0.0046571
0.00688801
0.00953145
0.0115634
0.0124536
0.0127737
0.0133152
0.0146632
0.0176204
0.0236056
0.032683
0.0376715
0.0346148
0.031393
0.0304456
0.032912
0.0373951
0.0420065
0.0455868
0.0475289
0.0476096
0.0458681
0.0425685
0.0380671
0.0327608
0.0270702
0.0214087
0.0161098
0.0114996
0.00794967
0.00568053
0.00461986
0.00443796
0.00469369
0.00499773
0.00510333
0.00492366
0.00454594
0.0042281
0.00429043
0.0048806
0.00576513
0.00647847
0.00669395
0.00639619
0.00577575
0.00505178
0.00437372
0.00382438
0.00339176
0.00313546
0.00290993
0.0106938
0.00728718
0.00526815
0.00400172
0.00320375
0.00275905
0.00266446
0.0030412
0.00412485
0.00613417
0.0087901
0.0111563
0.0124558
0.0129684
0.0134712
0.014632
0.0172652
0.0228348
0.0319441
0.0380344
0.035937
0.0325984
0.0311622
0.0330926
0.0371347
0.041449
0.0448449
0.0466802
0.0467023
0.044934
0.041625
0.0371267
0.0318364
0.026178
0.0205657
0.0153369
0.0108349
0.00743528
0.00533882
0.00445178
0.00442703
0.0048087
0.00519685
0.00534263
0.0051632
0.0047444
0.00433827
0.00427503
0.0047377
0.00553965
0.00623546
0.00648097
0.00623125
0.00565669
0.00496854
0.00431549
0.00378213
0.00335966
0.00310808
0.0028867
0.0106932
0.0072892
0.00527126
0.00400103
0.00318934
0.00271185
0.00254902
0.00279192
0.00365267
0.00540122
0.00795911
0.0105546
0.012261
0.0130461
0.0135834
0.0145928
0.0169069
0.0220151
0.031002
0.0380813
0.0370244
0.0337242
0.0318764
0.0332791
0.0368668
0.0408664
0.044064
0.0457838
0.0457443
0.0439509
0.0406382
0.0361513
0.030887
0.0252714
0.0197187
0.0145712
0.0101892
0.00694867
0.00502936
0.00431827
0.00445216
0.00495961
0.0054289
0.00561069
0.00542967
0.00497179
0.004482
0.00429757
0.00463248
0.00534461
0.00601199
0.00627788
0.00606987
0.00553783
0.00488403
0.0042555
0.00373808
0.00332588
0.00307924
0.00286226
0.0106927
0.00729121
0.00527463
0.00400177
0.00317926
0.00267516
0.00245613
0.00258596
0.00324484
0.00471671
0.00708383
0.00978647
0.0118554
0.0129658
0.0136132
0.01452
0.0165338
0.0211514
0.0298744
0.0378047
0.0378484
0.0347369
0.0325699
0.0334663
0.0365919
0.0402619
0.043248
0.044844
0.0447396
0.0429225
0.0396114
0.0351439
0.0299151
0.0243526
0.0188694
0.0138139
0.0095633
0.00648971
0.00475139
0.0042185
0.00451255
0.00514501
0.00569114
0.00590338
0.00571807
0.00522311
0.0046549
0.00435451
0.00456285
0.00517975
0.00580908
0.00608611
0.00591341
0.00542027
0.0047991
0.00419441
0.00369277
0.00329086
0.00304932
0.00283692
0.0106922
0.00729318
0.00527815
0.00400359
0.00317264
0.00264714
0.00238224
0.0024182
0.00290067
0.00409996
0.00620875
0.00889258
0.0112423
0.0126962
0.0135205
0.0143823
0.0161274
0.0202448
0.0285789
0.0372017
0.0383851
0.0356042
0.0332219
0.033647
0.0363099
0.0396378
0.0424008
0.0438649
0.0436925
0.0418527
0.0385482
0.0341077
0.0289235
0.0234235
0.0180193
0.0130664
0.008958
0.00605821
0.00450422
0.00415183
0.00460754
0.00536335
0.00598045
0.00621625
0.00602317
0.00549309
0.00485238
0.00444221
0.0045265
0.00504448
0.00562744
0.00590692
0.00576313
0.00530509
0.00471459
0.00413288
0.00364672
0.00325506
0.0030187
0.002811
0.0106918
0.0072951
0.00528173
0.00400619
0.00316877
0.00262617
0.00232414
0.00228326
0.00261599
0.00356172
0.00537307
0.00792208
0.0104427
0.0122193
0.0132689
0.0141455
0.0156627
0.0192919
0.027133
0.0362743
0.0386141
0.0362956
0.0338097
0.0338122
0.0360193
0.0389966
0.0415259
0.0428507
0.042607
0.0407456
0.0374523
0.0330459
0.0279148
0.0224863
0.0171699
0.0123301
0.00837396
0.00565396
0.00428728
0.0041178
0.00473652
0.00561282
0.0062933
0.00654462
0.00633971
0.00577639
0.00506972
0.00455694
0.00452097