/*--------------------------------*- C++ -*----------------------------------*\
| =========                 |                                                 |
| \\      /  F ield         | OpenFOAM: The Open Source CFD Toolbox           |
|  \\    /   O peration     | Version:  2.4.0                                 |
|   \\  /    A nd           | Web:      www.OpenFOAM.org                      |
|    \\/     M anipulation  |                                                 |
\*---------------------------------------------------------------------------*/
FoamFile
{
    version     2.0;
    format      ascii;
    class       volVectorField;
    location    "50";
    object      U;
}
// * * * * * * * * * * * * * * * * * * * * * * * * * * * * * * * * * * * * * //

dimensions      [0 1 -1 0 0 0 0];

internalField   nonuniform List<vector> 
48900
(
(9.69287 0.0496068 0)
(9.20243 0.0842962 0)
(8.68947 0.0898678 0)
(8.17453 0.0859838 0)
(7.68702 0.0786988 0)
(7.23451 0.0703425 0)
(6.80853 0.0623393 0)
(6.41231 0.0549238 0)
(6.04725 0.0482747 0)
(5.71139 0.0422959 0)
(5.40631 0.0370017 0)
(5.12895 0.031933 0)
(4.87913 0.0271817 0)
(4.65272 0.0233969 0)
(4.44906 0.0206291 0)
(4.26687 0.0183431 0)
(4.10595 0.0161748 0)
(3.95887 0.0138277 0)
(3.82533 0.0113648 0)
(3.70395 0.00936439 0)
(3.59831 0.00829009 0)
(3.50915 0.00843757 0)
(3.43152 0.0095721 0)
(3.35897 0.010987 0)
(3.27998 0.011578 0)
(3.18959 0.0100349 0)
(3.0872 0.00609919 0)
(2.97766 0.00173796 0)
(2.86725 0.000989395 0)
(2.75936 0.00889472 0)
(2.64159 0.0274922 0)
(2.49385 0.0541899 0)
(2.29234 0.0804279 0)
(2.00922 0.0947874 0)
(1.65872 0.0847409 0)
(1.45486 0.0337637 0)
(10.0234 0.10734 0)
(10.0409 0.123451 0)
(10.0036 0.123424 0)
(9.91663 0.124153 0)
(9.80137 0.124932 0)
(9.66533 0.124029 0)
(9.51241 0.122095 0)
(9.34774 0.119047 0)
(9.17575 0.115121 0)
(8.99986 0.110385 0)
(8.82324 0.104975 0)
(8.64813 0.0989722 0)
(8.47623 0.09265 0)
(8.31036 0.0866271 0)
(8.15085 0.081084 0)
(8.00158 0.0758071 0)
(7.85916 0.070217 0)
(7.72442 0.0640611 0)
(7.59594 0.0578079 0)
(7.4735 0.0525345 0)
(7.36002 0.0491312 0)
(7.25501 0.0479334 0)
(7.15735 0.0482924 0)
(7.06253 0.0490973 0)
(6.96417 0.0487701 0)
(6.85866 0.0457493 0)
(6.74481 0.0402913 0)
(6.62421 0.0358701 0)
(6.49938 0.0388523 0)
(6.37007 0.0566947 0)
(6.22999 0.0923881 0)
(6.06299 0.142293 0)
(5.85494 0.195863 0)
(5.5871 0.238266 0)
(5.26312 0.251448 0)
(4.96743 0.203128 0)
(10.0331 0.0844686 0)
(10.0836 0.111971 0)
(10.1149 0.119413 0)
(10.1177 0.125436 0)
(10.1143 0.131783 0)
(10.1023 0.13498 0)
(10.0803 0.135997 0)
(10.0489 0.135449 0)
(10.0093 0.13373 0)
(9.96211 0.130994 0)
(9.90823 0.127372 0)
(9.8486 0.12288 0)
(9.784 0.117771 0)
(9.71566 0.11279 0)
(9.64495 0.108118 0)
(9.57295 0.103414 0)
(9.49974 0.0979644 0)
(9.4251 0.0914248 0)
(9.3492 0.0848313 0)
(9.27334 0.0798598 0)
(9.19877 0.0774916 0)
(9.12729 0.0776651 0)
(9.05795 0.0789556 0)
(8.98697 0.0794863 0)
(8.91127 0.0773946 0)
(8.82861 0.0719939 0)
(8.73935 0.0655892 0)
(8.64628 0.0643513 0)
(8.55234 0.0771616 0)
(8.45679 0.112029 0)
(8.35231 0.169876 0)
(8.22465 0.242501 0)
(8.0615 0.314362 0)
(7.85177 0.367115 0)
(7.59413 0.383687 0)
(7.30552 0.340224 0)
(10.0287 0.0714952 0)
(10.0727 0.102986 0)
(10.1077 0.114554 0)
(10.124 0.122879 0)
(10.138 0.129698 0)
(10.1493 0.133499 0)
(10.1564 0.135489 0)
(10.1595 0.136301 0)
(10.159 0.136095 0)
(10.1555 0.134969 0)
(10.1486 0.132895 0)
(10.1382 0.129935 0)
(10.1245 0.126418 0)
(10.1079 0.122906 0)
(10.0887 0.119527 0)
(10.0672 0.115731 0)
(10.043 0.110819 0)
(10.0159 0.104882 0)
(9.98608 0.0994229 0)
(9.9547 0.0962986 0)
(9.92293 0.0961503 0)
(9.89133 0.0978749 0)
(9.85852 0.098992 0)
(9.82214 0.0970842 0)
(9.78009 0.0912117 0)
(9.73191 0.0832245 0)
(9.67988 0.0787018 0)
(9.62805 0.0865223 0)
(9.57995 0.115889 0)
(9.53399 0.171468 0)
(9.48133 0.248599 0)
(9.40665 0.333211 0)
(9.29844 0.406278 0)
(9.14885 0.45197 0)
(8.96007 0.462544 0)
(8.73265 0.42668 0)
(10.0226 0.0605714 0)
(10.0605 0.094892 0)
(10.0934 0.109034 0)
(10.1123 0.118175 0)
(10.1291 0.125506 0)
(10.1443 0.130136 0)
(10.1567 0.132889 0)
(10.167 0.134385 0)
(10.1755 0.134734 0)
(10.1823 0.133994 0)
(10.1872 0.13235 0)
(10.1903 0.130051 0)
(10.1918 0.12729 0)
(10.1917 0.124494 0)
(10.19 0.121487 0)
(10.1866 0.117717 0)
(10.1812 0.113013 0)
(10.1738 0.108049 0)
(10.1648 0.104455 0)
(10.1548 0.103392 0)
(10.1445 0.104318 0)
(10.1335 0.105112 0)
(10.1203 0.103071 0)
(10.1032 0.0967634 0)
(10.0816 0.0876984 0)
(10.0568 0.0811639 0)
(10.0324 0.0854023 0)
(10.0146 0.109824 0)
(10.0044 0.159989 0)
(9.9978 0.233842 0)
(9.98175 0.319039 0)
(9.9409 0.397132 0)
(9.86658 0.450242 0)
(9.75637 0.471153 0)
(9.62073 0.467552 0)
(9.46275 0.4405 0)
(10.017 0.0511777 0)
(10.0501 0.0869347 0)
(10.0808 0.103153 0)
(10.1004 0.113331 0)
(10.1178 0.121172 0)
(10.1337 0.126345 0)
(10.1474 0.12954 0)
(10.1595 0.131378 0)
(10.1703 0.132059 0)
(10.1797 0.131665 0)
(10.1879 0.130425 0)
(10.1949 0.128541 0)
(10.2009 0.126229 0)
(10.2058 0.123599 0)
(10.2094 0.120556 0)
(10.2116 0.116931 0)
(10.2125 0.112945 0)
(10.2123 0.109381 0)
(10.2108 0.107408 0)
(10.2092 0.106957 0)
(10.2068 0.106454 0)
(10.2029 0.10392 0)
(10.1965 0.0978972 0)
(10.1871 0.0893432 0)
(10.1756 0.0825534 0)
(10.1644 0.0846808 0)
(10.1602 0.104392 0)
(10.1649 0.146588 0)
(10.1784 0.210968 0)
(10.1912 0.288224 0)
(10.1889 0.362766 0)
(10.1556 0.417256 0)
(10.0898 0.435653 0)
(9.9942 0.429864 0)
(9.89092 0.417935 0)
(9.79277 0.411178 0)
(10.0124 0.0432395 0)
(10.0412 0.079141 0)
(10.0699 0.0970267 0)
(10.0898 0.108258 0)
(10.1073 0.116604 0)
(10.1233 0.122235 0)
(10.1375 0.125816 0)
(10.1501 0.127946 0)
(10.1616 0.12889 0)
(10.1721 0.128778 0)
(10.1815 0.127835 0)
(10.1901 0.126272 0)
(10.1977 0.124171 0)
(10.2044 0.121623 0)
(10.2101 0.118622 0)
(10.2146 0.115421 0)
(10.2182 0.11235 0)
(10.2211 0.109896 0)
(10.2229 0.108216 0)
(10.2241 0.106438 0)
(10.2243 0.103459 0)
(10.2228 0.0983082 0)
(10.2195 0.0914642 0)
(10.2149 0.0859028 0)
(10.2108 0.0866906 0)
(10.2122 0.101206 0)
(10.2217 0.132846 0)
(10.2408 0.182651 0)
(10.2649 0.244847 0)
(10.2831 0.309215 0)
(10.2792 0.362609 0)
(10.2391 0.387304 0)
(10.1694 0.38164 0)
(10.0815 0.364039 0)
(10.0031 0.363081 0)
(9.96165 0.392707 0)
(10.009 0.0366893 0)
(10.0336 0.0717182 0)
(10.0602 0.0907643 0)
(10.0801 0.102939 0)
(10.0976 0.111782 0)
(10.1137 0.117848 0)
(10.128 0.121804 0)
(10.141 0.124226 0)
(10.1529 0.125418 0)
(10.1638 0.125552 0)
(10.1739 0.124839 0)
(10.1832 0.123456 0)
(10.1918 0.121488 0)
(10.1994 0.119077 0)
(10.2061 0.11639 0)
(10.2119 0.113741 0)
(10.217 0.111265 0)
(10.2213 0.108999 0)
(10.2247 0.106615 0)
(10.2272 0.103483 0)
(10.2285 0.0991876 0)
(10.2287 0.0940498 0)
(10.2282 0.0898215 0)
(10.2283 0.0896454 0)
(10.2322 0.0987726 0)
(10.242 0.119636 0)
(10.2607 0.153763 0)
(10.2871 0.198465 0)
(10.3141 0.248678 0)
(10.3299 0.297004 0)
(10.3176 0.331623 0)
(10.2688 0.340633 0)
(10.1943 0.332435 0)
(10.1158 0.324558 0)
(10.0653 0.347705 0)
(10.0802 0.411497 0)
(10.0065 0.0313235 0)
(10.0272 0.0647958 0)
(10.0515 0.0844827 0)
(10.0711 0.0974152 0)
(10.0885 0.10673 0)
(10.1045 0.113211 0)
(10.119 0.117525 0)
(10.1322 0.120232 0)
(10.1443 0.12166 0)
(10.1556 0.122009 0)
(10.1662 0.121479 0)
(10.176 0.120248 0)
(10.185 0.118439 0)
(10.1933 0.116257 0)
(10.2008 0.113917 0)
(10.2074 0.11162 0)
(10.2134 0.109319 0)
(10.2186 0.106847 0)
(10.2228 0.103921 0)
(10.2262 0.100274 0)
(10.2287 0.0962203 0)
(10.2308 0.0927419 0)
(10.2334 0.0917809 0)
(10.2382 0.0965694 0)
(10.2475 0.108621 0)
(10.2634 0.129708 0)
(10.2869 0.159139 0)
(10.3156 0.194111 0)
(10.3413 0.23213 0)
(10.3522 0.269393 0)
(10.3318 0.296395 0)
(10.2761 0.308161 0)
(10.2006 0.310367 0)
(10.1333 0.321792 0)
(10.1147 0.366298 0)
(10.1743 0.446794 0)
(10.0048 0.0269295 0)
(10.0219 0.05844 0)
(10.0438 0.0782987 0)
(10.0627 0.091758 0)
(10.0798 0.101481 0)
(10.0957 0.10834 0)
(10.1102 0.112992 0)
(10.1236 0.115973 0)
(10.136 0.117626 0)
(10.1476 0.118168 0)
(10.1584 0.117801 0)
(10.1686 0.116722 0)
(10.1781 0.115101 0)
(10.1868 0.113161 0)
(10.1948 0.11109 0)
(10.2021 0.108973 0)
(10.2087 0.106693 0)
(10.2145 0.104099 0)
(10.2194 0.101093 0)
(10.2237 0.0977409 0)
(10.2276 0.094719 0)
(10.2318 0.093061 0)
(10.2371 0.0946161 0)
(10.2455 0.100644 0)
(10.2586 0.112297 0)
(10.2776 0.129826 0)
(10.3032 0.152407 0)
(10.3323 0.178883 0)
(10.3563 0.20914 0)
(10.3633 0.241939 0)
(10.3375 0.270546 0)
(10.2771 0.293279 0)
(10.2019 0.310526 0)
(10.1446 0.338695 0)
(10.1534 0.389732 0)
(10.2476 0.473811 0)
(10.0035 0.0233235 0)
(10.0176 0.0526714 0)
(10.0371 0.0723162 0)
(10.055 0.0860544 0)
(10.0716 0.0960837 0)
(10.0872 0.103263 0)
(10.1017 0.108218 0)
(10.1151 0.111456 0)
(10.1277 0.11332 0)
(10.1395 0.11404 0)
(10.1506 0.113831 0)
(10.1611 0.112911 0)
(10.1709 0.111479 0)
(10.18 0.10975 0)
(10.1885 0.107868 0)
(10.1963 0.105868 0)
(10.2033 0.103659 0)
(10.2097 0.101184 0)
(10.2154 0.0984897 0)
(10.2208 0.0957801 0)
(10.2261 0.0937978 0)
(10.2321 0.0933016 0)
(10.2395 0.0953584 0)
(10.2502 0.100881 0)
(10.2653 0.110004 0)
(10.2857 0.122966 0)
(10.3122 0.139566 0)
(10.3417 0.160607 0)
(10.3657 0.187385 0)
(10.3712 0.220254 0)
(10.3429 0.255094 0)
(10.2796 0.289366 0)
(10.2042 0.320638 0)
(10.1526 0.3594 0)
(10.1777 0.407068 0)
(10.3008 0.478616 0)
(10.0026 0.0203509 0)
(10.0142 0.047475 0)
(10.0313 0.0666134 0)
(10.048 0.0803937 0)
(10.0639 0.0906001 0)
(10.0791 0.0980215 0)
(10.0934 0.103229 0)
(10.1068 0.106694 0)
(10.1195 0.10875 0)
(10.1314 0.109637 0)
(10.1427 0.109582 0)
(10.1534 0.108817 0)
(10.1635 0.107556 0)
(10.173 0.105999 0)
(10.1818 0.104272 0)
(10.1901 0.10241 0)
(10.1977 0.100384 0)
(10.2046 0.0982081 0)
(10.2111 0.0959751 0)
(10.2175 0.0938804 0)
(10.224 0.0925164 0)
(10.2314 0.0923098 0)
(10.2403 0.0938818 0)
(10.2522 0.0976682 0)
(10.2681 0.103713 0)
(10.2892 0.112569 0)
(10.3161 0.124785 0)
(10.3464 0.142729 0)
(10.3723 0.168401 0)
(10.3792 0.203155 0)
(10.3512 0.244621 0)
(10.2866 0.289714 0)
(10.2092 0.332806 0)
(10.1584 0.377757 0)
(10.1896 0.416231 0)
(10.3322 0.465622 0)
(10.002 0.0178849 0)
(10.0115 0.0428119 0)
(10.0265 0.0612376 0)
(10.0418 0.0748548 0)
(10.0568 0.0850998 0)
(10.0714 0.0926685 0)
(10.0855 0.0980645 0)
(10.0987 0.101715 0)
(10.1114 0.103939 0)
(10.1234 0.104977 0)
(10.1348 0.105065 0)
(10.1456 0.10444 0)
(10.156 0.103325 0)
(10.1658 0.101915 0)
(10.175 0.100339 0)
(10.1837 0.0986588 0)
(10.1918 0.0968872 0)
(10.1994 0.0950623 0)
(10.2068 0.0932457 0)
(10.2141 0.0915714 0)
(10.2216 0.0904145 0)
(10.2299 0.090027 0)
(10.2396 0.090651 0)
(10.2518 0.0924498 0)
(10.2678 0.0956533 0)
(10.2888 0.101057 0)
(10.3158 0.110036 0)
(10.3473 0.12561 0)
(10.3766 0.150182 0)
(10.388 0.186648 0)
(10.3635 0.234221 0)
(10.2992 0.289639 0)
(10.218 0.343524 0)
(10.1612 0.392864 0)
(10.1901 0.420721 0)
(10.3415 0.445605 0)
(10.0015 0.0158225 0)
(10.0094 0.0386396 0)
(10.0224 0.0562118 0)
(10.0364 0.0695023 0)
(10.0504 0.0796554 0)
(10.0644 0.0872718 0)
(10.0779 0.0927837 0)
(10.091 0.096572 0)
(10.1035 0.098932 0)
(10.1154 0.100101 0)
(10.1269 0.100312 0)
(10.1379 0.0998058 0)
(10.1484 0.0988122 0)
(10.1585 0.0975335 0)
(10.1681 0.0961137 0)
(10.1772 0.0946386 0)
(10.1859 0.0931357 0)
(10.1943 0.0916263 0)
(10.2024 0.0901133 0)
(10.2105 0.0886686 0)
(10.2187 0.0875076 0)
(10.2275 0.0868124 0)
(10.2373 0.0865394 0)
(10.2491 0.0866346 0)
(10.2642 0.0874438 0)
(10.2842 0.0898496 0)
(10.3103 0.0958271 0)
(10.3437 0.10796 0)
(10.3785 0.129485 0)
(10.3987 0.165998 0)
(10.3818 0.219046 0)
(10.3207 0.285661 0)
(10.234 0.352558 0)
(10.1628 0.408436 0)
(10.1813 0.42858 0)
(10.3285 0.427871 0)
(10.0012 0.0142669 0)
(10.008 0.035388 0)
(10.0195 0.0521285 0)
(10.0323 0.0650352 0)
(10.0454 0.0750137 0)
(10.0587 0.0825838 0)
(10.0718 0.0881241 0)
(10.0845 0.0919747 0)
(10.0969 0.094408 0)
(10.1087 0.0956525 0)
(10.1202 0.0959374 0)
(10.1312 0.0955048 0)
(10.1419 0.0945902 0)
(10.1521 0.0934043 0)
(10.162 0.0921027 0)
(10.1715 0.0907788 0)
(10.1807 0.0894559 0)
(10.1896 0.0881266 0)
(10.1983 0.0867585 0)
(10.2069 0.0854103 0)
(10.2154 0.0842514 0)
(10.2241 0.0834555 0)
(10.2334 0.0828674 0)
(10.244 0.0824349 0)
(10.2572 0.0822891 0)
(10.2752 0.0828449 0)
(10.3004 0.0851165 0)
(10.3369 0.0903711 0)
(10.3808 0.103921 0)
(10.4152 0.135045 0)
(10.412 0.189574 0)
(10.3588 0.267047 0)
(10.2666 0.350939 0)
(10.1738 0.422644 0)
(10.1674 0.445621 0)
(10.2856 0.44109 0)
(10.0011 0.0130376 0)
(10.0069 0.0327337 0)
(10.0173 0.0486815 0)
(10.0291 0.0611945 0)
(10.0415 0.0709658 0)
(10.0541 0.0784442 0)
(10.0668 0.0839691 0)
(10.0792 0.0878451 0)
(10.0912 0.0903232 0)
(10.1029 0.0916216 0)
(10.1143 0.0919625 0)
(10.1252 0.0915839 0)
(10.1359 0.0907236 0)
(10.1462 0.0895974 0)
(10.1562 0.0883701 0)
(10.166 0.0871395 0)
(10.1755 0.0859283 0)
(10.1848 0.0847112 0)
(10.1939 0.0834434 0)
(10.2029 0.0821775 0)
(10.2117 0.0810636 0)
(10.2204 0.0802934 0)
(10.2293 0.0797781 0)
(10.2389 0.0796646 0)
(10.2504 0.079849 0)
(10.2662 0.0797654 0)
(10.2898 0.0785315 0)
(10.3282 0.0752982 0)
(10.3795 0.0774377 0)
(10.4269 0.0975676 0)
(10.4403 0.147468 0)
(10.3974 0.228987 0)
(10.3043 0.330948 0)
(10.1931 0.427145 0)
(10.1549 0.470592 0)
(10.2412 0.47365 0)
(10.0009 0.0119206 0)
(10.0061 0.030203 0)
(10.0154 0.0453034 0)
(10.0262 0.0573505 0)
(10.0378 0.0668513 0)
(10.0498 0.0741835 0)
(10.0619 0.0796469 0)
(10.0739 0.0835119 0)
(10.0856 0.0860082 0)
(10.097 0.0873421 0)
(10.1082 0.0877261 0)
(10.119 0.0873902 0)
(10.1295 0.0865676 0)
(10.1397 0.0854746 0)
(10.1498 0.0842789 0)
(10.1597 0.08308 0)
(10.1694 0.0819054 0)
(10.1789 0.0807296 0)
(10.1883 0.079516 0)
(10.1976 0.0783189 0)
(10.2067 0.0772702 0)
(10.2155 0.0765985 0)
(10.2243 0.0763956 0)
(10.2332 0.0771231 0)
(10.2431 0.0787561 0)
(10.2564 0.079704 0)
(10.2779 0.0770295 0)
(10.3153 0.0664994 0)
(10.3725 0.0541967 0)
(10.4343 0.0561962 0)
(10.4704 0.0903895 0)
(10.446 0.164586 0)
(10.3604 0.277662 0)
(10.2354 0.401634 0)
(10.1549 0.482716 0)
(10.1917 0.510692 0)
(10.0008 0.0108925 0)
(10.0053 0.027785 0)
(10.0136 0.0420056 0)
(10.0236 0.0535255 0)
(10.0344 0.0626996 0)
(10.0457 0.0698365 0)
(10.0573 0.0751953 0)
(10.0687 0.0790144 0)
(10.08 0.0815026 0)
(10.0911 0.0828532 0)
(10.102 0.0832673 0)
(10.1125 0.0829619 0)
(10.1228 0.0821601 0)
(10.1329 0.0810727 0)
(10.1429 0.0798673 0)
(10.1527 0.078646 0)
(10.1625 0.0774467 0)
(10.1722 0.076256 0)
(10.1818 0.0750594 0)
(10.1912 0.0739226 0)
(10.2006 0.0729525 0)
(10.2096 0.0723769 0)
(10.2185 0.0724645 0)
(10.2272 0.0738768 0)
(10.2361 0.0771597 0)
(10.247 0.0807169 0)
(10.2648 0.0796536 0)
(10.2981 0.0676533 0)
(10.3559 0.0443369 0)
(10.4294 0.0247918 0)
(10.4901 0.0331021 0)
(10.4981 0.0878845 0)
(10.4326 0.191697 0)
(10.3052 0.332767 0)
(10.1906 0.450633 0)
(10.158 0.532991 0)
(10.0007 0.00993521 0)
(10.0046 0.0254718 0)
(10.0121 0.0387883 0)
(10.0213 0.0497302 0)
(10.0313 0.058528 0)
(10.0419 0.065425 0)
(10.0528 0.0706392 0)
(10.0638 0.0743792 0)
(10.0747 0.0768341 0)
(10.0854 0.0781834 0)
(10.0958 0.0786143 0)
(10.1061 0.0783268 0)
(10.1161 0.0775289 0)
(10.126 0.0764204 0)
(10.1358 0.0751673 0)
(10.1455 0.0738764 0)
(10.1553 0.0725983 0)
(10.165 0.0713408 0)
(10.1747 0.070111 0)
(10.1843 0.0689957 0)
(10.1938 0.0680891 0)
(10.2031 0.0675673 0)
(10.2123 0.0677749 0)
(10.2215 0.0693056 0)
(10.2305 0.0732483 0)
(10.2396 0.0789295 0)
(10.2534 0.0819555 0)
(10.2803 0.0755869 0)
(10.3316 0.0519166 0)
(10.41 0.017169 0)
(10.4919 -0.00425336 0)
(10.541 0.0163649 0)
(10.5106 0.091896 0)
(10.401 0.225447 0)
(10.2677 0.367141 0)
(10.1639 0.505868 0)
(10.0006 0.00903779 0)
(10.0041 0.0232583 0)
(10.0108 0.0356518 0)
(10.0192 0.0459725 0)
(10.0285 0.0543482 0)
(10.0384 0.0609624 0)
(10.0487 0.0659928 0)
(10.0591 0.0696203 0)
(10.0695 0.0720153 0)
(10.0798 0.0733432 0)
(10.0899 0.0737748 0)
(10.0998 0.0734904 0)
(10.1095 0.0726793 0)
(10.1191 0.0715267 0)
(10.1287 0.0701929 0)
(10.1382 0.0687908 0)
(10.1479 0.0673837 0)
(10.1575 0.0660047 0)
(10.1672 0.0646777 0)
(10.177 0.0634911 0)
(10.1868 0.0625498 0)
(10.1964 0.0619712 0)
(10.206 0.0621103 0)
(10.2159 0.0633253 0)
(10.226 0.0666186 0)
(10.2353 0.0723933 0)
(10.246 0.0788744 0)
(10.2663 0.0802949 0)
(10.3081 0.0662524 0)
(10.3813 0.0334607 0)
(10.4751 -0.00605496 0)
(10.5586 -0.0227684 0)
(10.583 0.0158826 0)
(10.5082 0.108321 0)
(10.3893 0.244405 0)
(10.2287 0.421326 0)
(10.0005 0.00819176 0)
(10.0036 0.0211392 0)
(10.0096 0.0325972 0)
(10.0172 0.0422591 0)
(10.0258 0.0501701 0)
(10.0351 0.0564597 0)
(10.0448 0.0612675 0)
(10.0547 0.0647484 0)
(10.0646 0.0670554 0)
(10.0744 0.0683381 0)
(10.0842 0.0687499 0)
(10.0938 0.0684511 0)
(10.1032 0.0676099 0)
(10.1125 0.0663943 0)
(10.1218 0.0649541 0)
(10.1311 0.0634056 0)
(10.1406 0.0618241 0)
(10.1501 0.0602618 0)
(10.1598 0.0587661 0)
(10.1696 0.0573965 0)
(10.1796 0.0562604 0)
(10.1896 0.0554217 0)
(10.1996 0.0552418 0)
(10.21 0.0559819 0)
(10.2215 0.0579761 0)
(10.2325 0.0620867 0)
(10.2428 0.0683602 0)
(10.2584 0.074687 0)
(10.2911 0.0728032 0)
(10.3522 0.0532047 0)
(10.4451 0.015073 0)
(10.5466 -0.0234184 0)
(10.62 -0.0296084 0)
(10.601 0.0235907 0)
(10.5174 0.117995 0)
(10.3492 0.287778 0)
(10.0005 0.0073899 0)
(10.0032 0.0191087 0)
(10.0086 0.0296248 0)
(10.0155 0.0385958 0)
(10.0235 0.0460021 0)
(10.0321 0.0519262 0)
(10.0412 0.0564733 0)
(10.0505 0.0597739 0)
(10.06 0.0619619 0)
(10.0694 0.0631712 0)
(10.0788 0.0635381 0)
(10.088 0.0632035 0)
(10.0971 0.0623138 0)
(10.1062 0.0610178 0)
(10.1153 0.0594524 0)
(10.1244 0.0577289 0)
(10.1336 0.0559337 0)
(10.143 0.0541252 0)
(10.1525 0.0523764 0)
(10.1623 0.0507236 0)
(10.1724 0.0492459 0)
(10.1828 0.0479767 0)
(10.1933 0.0471859 0)
(10.2041 0.0472231 0)
(10.2162 0.0479758 0)
(10.2295 0.0500433 0)
(10.2413 0.0534936 0)
(10.2553 0.0590034 0)
(10.2809 0.0635512 0)
(10.33 0.0569539 0)
(10.4107 0.0319817 0)
(10.5149 -0.00792979 0)
(10.612 -0.0398541 0)
(10.6481 -0.0322438 0)
(10.6249 0.0157056 0)
(10.4686 0.15152 0)
(10.0004 0.00662579 0)
(10.0028 0.0171608 0)
(10.0076 0.0267332 0)
(10.014 0.0349862 0)
(10.0213 0.0418503 0)
(10.0293 0.0473704 0)
(10.0379 0.05162 0)
(10.0467 0.0547041 0)
(10.0556 0.0567395 0)
(10.0646 0.0578436 0)
(10.0736 0.058136 0)
(10.0826 0.057739 0)
(10.0914 0.056779 0)
(10.1003 0.0553836 0)
(10.1091 0.0536754 0)
(10.118 0.0517561 0)
(10.127 0.0497132 0)
(10.1362 0.0476093 0)
(10.1457 0.0455189 0)
(10.1554 0.0434851 0)
(10.1655 0.0415412 0)
(10.176 0.0397409 0)
(10.1868 0.0381905 0)
(10.1981 0.0372333 0)
(10.2106 0.0368467 0)
(10.2247 0.0369354 0)
(10.2395 0.0380314 0)
(10.254 0.0398071 0)
(10.2757 0.0434017 0)
(10.3148 0.0432105 0)
(10.3806 0.0307707 0)
(10.474 0.00191727 0)
(10.5761 -0.0342439 0)
(10.6517 -0.0597288 0)
(10.6837 -0.0481001 0)
(10.5649 0.0329864 0)
(10.0004 0.00589404 0)
(10.0025 0.0152923 0)
(10.0069 0.023917 0)
(10.0126 0.0314305 0)
(10.0194 0.037721 0)
(10.0268 0.0428015 0)
(10.0348 0.0467137 0)
(10.0431 0.0495445 0)
(10.0516 0.0513917 0)
(10.0602 0.0523557 0)
(10.0688 0.0525397 0)
(10.0775 0.0520491 0)
(10.0861 0.0509913 0)
(10.0946 0.049474 0)
(10.1033 0.0476024 0)
(10.112 0.0454681 0)
(10.1208 0.0431487 0)
(10.1299 0.0407099 0)
(10.1392 0.0382119 0)
(10.1488 0.0357088 0)
(10.1589 0.033216 0)
(10.1693 0.0307826 0)
(10.1803 0.0284467 0)
(10.192 0.026391 0)
(10.2047 0.0247645 0)
(10.2189 0.0233633 0)
(10.2352 0.0221466 0)
(10.2517 0.0213074 0)
(10.2729 0.0208941 0)
(10.3054 0.0203721 0)
(10.3579 0.0144572 0)
(10.4359 -0.00338348 0)
(10.5316 -0.0336837 0)
(10.6166 -0.0676058 0)
(10.692 -0.0877755 0)
(10.6024 -0.0419357 0)
(10.0003 0.00518984 0)
(10.0023 0.0134947 0)
(10.0062 0.0211739 0)
(10.0114 0.0279289 0)
(10.0176 0.033621 0)
(10.0245 0.038223 0)
(10.032 0.041761 0)
(10.0398 0.0443006 0)
(10.0478 0.0459217 0)
(10.0561 0.0467081 0)
(10.0643 0.0467469 0)
(10.0727 0.0461273 0)
(10.081 0.0449392 0)
(10.0894 0.0432722 0)
(10.0978 0.0412134 0)
(10.1063 0.0388416 0)
(10.115 0.036223 0)
(10.1239 0.0334159 0)
(10.1331 0.0304702 0)
(10.1426 0.0274367 0)
(10.1525 0.0243393 0)
(10.1629 0.0211941 0)
(10.1739 0.0180349 0)
(10.1857 0.0149135 0)
(10.1985 0.0119554 0)
(10.2128 0.00908374 0)
(10.2289 0.0061425 0)
(10.2476 0.00253827 0)
(10.2685 -0.000880401 0)
(10.2974 -0.0046253 0)
(10.3412 -0.0107127 0)
(10.4058 -0.0236929 0)
(10.489 -0.046699 0)
(10.5741 -0.0786556 0)
(10.6545 -0.10972 0)
(10.6077 -0.100072 0)
(10.0003 0.00450876 0)
(10.0021 0.0117584 0)
(10.0055 0.0185043 0)
(10.0103 0.0244838 0)
(10.016 0.0295477 0)
(10.0224 0.0336402 0)
(10.0294 0.036768 0)
(10.0367 0.0389782 0)
(10.0444 0.0403339 0)
(10.0522 0.0409035 0)
(10.0601 0.0407581 0)
(10.0681 0.0399713 0)
(10.0762 0.0386169 0)
(10.0844 0.0367678 0)
(10.0926 0.0344941 0)
(10.101 0.0318602 0)
(10.1095 0.0289199 0)
(10.1183 0.0257197 0)
(10.1273 0.0223006 0)
(10.1367 0.0187036 0)
(10.1464 0.0149544 0)
(10.1567 0.0110591 0)
(10.1676 0.00702877 0)
(10.1792 0.00285398 0)
(10.192 -0.00143286 0)
(10.2061 -0.00586014 0)
(10.222 -0.0106099 0)
(10.2402 -0.016141 0)
(10.2613 -0.0221806 0)
(10.2886 -0.0294978 0)
(10.3269 -0.0386727 0)
(10.3814 -0.0516694 0)
(10.4519 -0.0711201 0)
(10.5298 -0.0989088 0)
(10.6066 -0.130559 0)
(10.5845 -0.145238 0)
(10.0003 0.00384691 0)
(10.0019 0.0100759 0)
(10.005 0.0159002 0)
(10.0094 0.0210944 0)
(10.0146 0.0255054 0)
(10.0205 0.0290582 0)
(10.027 0.031741 0)
(10.0339 0.0335838 0)
(10.0411 0.0346348 0)
(10.0486 0.0349475 0)
(10.0562 0.0345781 0)
(10.0639 0.0335848 0)
(10.0717 0.0320265 0)
(10.0797 0.0299606 0)
(10.0877 0.0274413 0)
(10.0959 0.0245183 0)
(10.1042 0.0212333 0)
(10.1128 0.017621 0)
(10.1217 0.013711 0)
(10.1309 0.00953192 0)
(10.1405 0.00510563 0)
(10.1506 0.000433962 0)
(10.1612 -0.0044973 0)
(10.1726 -0.00972805 0)
(10.185 -0.0152964 0)
(10.1988 -0.0212609 0)
(10.2141 -0.0277749 0)
(10.2313 -0.0351758 0)
(10.2514 -0.0434478 0)
(10.2767 -0.0533865 0)
(10.3109 -0.0654132 0)
(10.3582 -0.080546 0)
(10.4191 -0.100251 0)
(10.4889 -0.126304 0)
(10.559 -0.156778 0)
(10.5485 -0.181534 0)
(10.0003 0.00320165 0)
(10.0017 0.00844065 0)
(10.0045 0.0133559 0)
(10.0085 0.0177591 0)
(10.0133 0.0214969 0)
(10.0188 0.0244817 0)
(10.0249 0.0266864 0)
(10.0314 0.0281257 0)
(10.0382 0.0288335 0)
(10.0452 0.0288497 0)
(10.0525 0.0282165 0)
(10.0599 0.0269778 0)
(10.0675 0.0251782 0)
(10.0752 0.0228602 0)
(10.083 0.0200635 0)
(10.091 0.0168239 0)
(10.0991 0.0131717 0)
(10.1075 0.00913026 0)
(10.1162 0.00471679 0)
(10.1252 -5.37707e-05 0)
(10.1346 -0.00516837 0)
(10.1444 -0.010631 0)
(10.1547 -0.0164696 0)
(10.1657 -0.0227428 0)
(10.1775 -0.02953 0)
(10.1906 -0.0369217 0)
(10.205 -0.0450671 0)
(10.221 -0.0542297 0)
(10.2394 -0.0644781 0)
(10.2619 -0.0763875 0)
(10.2917 -0.0905518 0)
(10.3328 -0.107911 0)
(10.3858 -0.129338 0)
(10.4483 -0.155855 0)
(10.5114 -0.186157 0)
(10.5073 -0.214785 0)
(10.0002 0.00257027 0)
(10.0015 0.00684789 0)
(10.0041 0.0108675 0)
(10.0078 0.0144755 0)
(10.0122 0.0175232 0)
(10.0173 0.0199151 0)
(10.0229 0.0216116 0)
(10.029 0.0226136 0)
(10.0354 0.0229417 0)
(10.0421 0.0226233 0)
(10.049 0.0216878 0)
(10.0561 0.020166 0)
(10.0634 0.0180888 0)
(10.0708 0.0154848 0)
(10.0784 0.0123801 0)
(10.0861 0.00879771 0)
(10.0941 0.00475722 0)
(10.1022 0.00027188 0)
(10.1106 -0.00465219 0)
(10.1194 -0.0100134 0)
(10.1284 -0.0158105 0)
(10.1379 -0.0220531 0)
(10.1478 -0.0287755 0)
(10.1582 -0.0360419 0)
(10.1693 -0.0439511 0)
(10.1815 -0.0526212 0)
(10.1948 -0.0622089 0)
(10.2094 -0.0729244 0)
(10.2257 -0.084867 0)
(10.2449 -0.098399 0)
(10.2698 -0.114275 0)
(10.3041 -0.133165 0)
(10.3494 -0.155937 0)
(10.4051 -0.183157 0)
(10.4623 -0.213369 0)
(10.4644 -0.244034 0)
(10.0002 0.00195169 0)
(10.0014 0.00529302 0)
(10.0038 0.00842955 0)
(10.0071 0.0112409 0)
(10.0112 0.0135853 0)
(10.0159 0.0153631 0)
(10.0212 0.0165244 0)
(10.0268 0.017058 0)
(10.0329 0.0169724 0)
(10.0392 0.0162836 0)
(10.0458 0.0150097 0)
(10.0526 0.0131696 0)
(10.0595 0.0107811 0)
(10.0667 0.00786034 0)
(10.0739 0.00442074 0)
(10.0814 0.000474086 0)
(10.089 -0.0039696 0)
(10.0969 -0.00890573 0)
(10.1049 -0.0143368 0)
(10.1133 -0.0202722 0)
(10.122 -0.0267233 0)
(10.131 -0.0337055 0)
(10.1403 -0.041257 0)
(10.15 -0.0494386 0)
(10.1603 -0.0583492 0)
(10.1713 -0.0681207 0)
(10.1833 -0.0789133 0)
(10.1963 -0.0908935 0)
(10.2104 -0.104207 0)
(10.2265 -0.119093 0)
(10.2463 -0.13592 0)
(10.2735 -0.155228 0)
(10.3105 -0.178456 0)
(10.359 -0.20587 0)
(10.4106 -0.235471 0)
(10.4194 -0.267266 0)
(10.0002 0.00134635 0)
(10.0013 0.00377278 0)
(10.0035 0.00603589 0)
(10.0065 0.00804989 0)
(10.0103 0.00968148 0)
(10.0147 0.0108277 0)
(10.0195 0.0114304 0)
(10.0249 0.0114678 0)
(10.0306 0.0109379 0)
(10.0365 0.00984657 0)
(10.0428 0.00820213 0)
(10.0492 0.00601245 0)
(10.0558 0.00328405 0)
(10.0626 2.17217e-05 0)
(10.0696 -0.00377149 0)
(10.0767 -0.00809326 0)
(10.084 -0.0129423 0)
(10.0914 -0.0183215 0)
(10.0991 -0.0242403 0)
(10.107 -0.0307152 0)
(10.1151 -0.0377669 0)
(10.1235 -0.0454175 0)
(10.1322 -0.0537067 0)
(10.1411 -0.0626917 0)
(10.1504 -0.0724576 0)
(10.1601 -0.0831265 0)
(10.1705 -0.0948373 0)
(10.1817 -0.107738 0)
(10.1937 -0.121933 0)
(10.2067 -0.137561 0)
(10.2222 -0.154773 0)
(10.2428 -0.173979 0)
(10.2715 -0.196448 0)
(10.3119 -0.22274 0)
(10.358 -0.251269 0)
(10.3722 -0.282795 0)
(10.0002 0.000784895 0)
(10.0012 0.00227245 0)
(10.0032 0.00366949 0)
(10.006 0.00488981 0)
(10.0095 0.00580289 0)
(10.0135 0.00630427 0)
(10.0181 0.00632926 0)
(10.0231 0.00584751 0)
(10.0284 0.00484807 0)
(10.034 0.00332835 0)
(10.0399 0.00128783 0)
(10.046 -0.00127481 0)
(10.0522 -0.00436256 0)
(10.0587 -0.00797973 0)
(10.0652 -0.0121316 0)
(10.072 -0.016824 0)
(10.0788 -0.0220634 0)
(10.0858 -0.027859 0)
(10.093 -0.0342252 0)
(10.1003 -0.0411816 0)
(10.1078 -0.0487531 0)
(10.1155 -0.0569662 0)
(10.1234 -0.0658575 0)
(10.1314 -0.0754772 0)
(10.1395 -0.085892 0)
(10.1479 -0.097196 0)
(10.1567 -0.109493 0)
(10.166 -0.122904 0)
(10.1759 -0.13749 0)
(10.1863 -0.153343 0)
(10.198 -0.170643 0)
(10.213 -0.189258 0)
(10.2338 -0.210101 0)
(10.2663 -0.234204 0)
(10.3069 -0.260811 0)
(10.3253 -0.29041 0)
(10.0002 0.000243259 0)
(10.0011 0.000795252 0)
(10.0029 0.00132348 0)
(10.0055 0.00174978 0)
(10.0087 0.00193711 0)
(10.0125 0.00178092 0)
(10.0168 0.00121245 0)
(10.0215 0.000194368 0)
(10.0265 -0.00129195 0)
(10.0317 -0.00325672 0)
(10.0372 -0.0057079 0)
(10.0429 -0.00865437 0)
(10.0488 -0.0121066 0)
(10.0548 -0.016076 0)
(10.061 -0.0205747 0)
(10.0672 -0.0256151 0)
(10.0736 -0.0312101 0)
(10.0801 -0.0373736 0)
(10.0866 -0.0441223 0)
(10.0933 -0.0514763 0)
(10.1001 -0.05946 0)
(10.107 -0.0680997 0)
(10.1139 -0.0774246 0)
(10.1209 -0.0874735 0)
(10.1278 -0.0982922 0)
(10.1348 -0.109943 0)
(10.142 -0.122498 0)
(10.1495 -0.136037 0)
(10.1574 -0.150622 0)
(10.1655 -0.166321 0)
(10.1739 -0.183141 0)
(10.1843 -0.200933 0)
(10.1991 -0.219965 0)
(10.2248 -0.240955 0)
(10.2603 -0.264455 0)
(10.2809 -0.290781 0)
(10.0001 -0.00029223 0)
(10.001 -0.000665233 0)
(10.0027 -0.00100843 0)
(10.0051 -0.00138642 0)
(10.0081 -0.00193545 0)
(10.0117 -0.00276008 0)
(10.0156 -0.00393215 0)
(10.02 -0.00549493 0)
(10.0247 -0.00747404 0)
(10.0296 -0.00988653 0)
(10.0348 -0.0127469 0)
(10.0401 -0.0160703 0)
(10.0456 -0.0198729 0)
(10.0511 -0.0241718 0)
(10.0568 -0.0289843 0)
(10.0625 -0.0343278 0)
(10.0684 -0.0402197 0)
(10.0742 -0.0466768 0)
(10.0801 -0.0537162 0)
(10.0861 -0.0613565 0)
(10.0921 -0.0696185 0)
(10.0981 -0.0785237 0)
(10.104 -0.0880931 0)
(10.1098 -0.0983504 0)
(10.1155 -0.109321 0)
(10.1212 -0.121039 0)
(10.1269 -0.133553 0)
(10.1327 -0.146908 0)
(10.1386 -0.161139 0)
(10.1445 -0.176291 0)
(10.1502 -0.192238 0)
(10.1569 -0.208816 0)
(10.1675 -0.225859 0)
(10.1886 -0.243471 0)
(10.2197 -0.262551 0)
(10.2401 -0.283744 0)
(10.0001 -0.000834474 0)
(10.0009 -0.00208219 0)
(10.0025 -0.00326423 0)
(10.0048 -0.00443534 0)
(10.0076 -0.00571052 0)
(10.0109 -0.00719194 0)
(10.0147 -0.00895359 0)
(10.0188 -0.0110439 0)
(10.0232 -0.0134945 0)
(10.0278 -0.0163289 0)
(10.0326 -0.0195675 0)
(10.0376 -0.0232305 0)
(10.0426 -0.0273387 0)
(10.0478 -0.0319135 0)
(10.0529 -0.0369759 0)
(10.0581 -0.0425465 0)
(10.0634 -0.0486452 0)
(10.0686 -0.0552906 0)
(10.0738 -0.0624992 0)
(10.079 -0.070287 0)
(10.0841 -0.0786686 0)
(10.0892 -0.0876592 0)
(10.0941 -0.0972726 0)
(10.0988 -0.107519 0)
(10.1034 -0.118403 0)
(10.1077 -0.129929 0)
(10.112 -0.142113 0)
(10.1163 -0.154963 0)
(10.1205 -0.168482 0)
(10.1246 -0.182685 0)
(10.1284 -0.197361 0)
(10.1326 -0.212257 0)
(10.1406 -0.227343 0)
(10.1594 -0.24178 0)
(10.188 -0.256621 0)
(10.2074 -0.272653 0)
(10.0001 -0.00135936 0)
(10.0009 -0.00339837 0)
(10.0024 -0.00536388 0)
(10.0046 -0.00727316 0)
(10.0073 -0.00922193 0)
(10.0105 -0.0113077 0)
(10.0141 -0.0136061 0)
(10.018 -0.0161695 0)
(10.0221 -0.0190349 0)
(10.0265 -0.0222311 0)
(10.031 -0.0257836 0)
(10.0356 -0.0297169 0)
(10.0403 -0.0340556 0)
(10.045 -0.0388239 0)
(10.0497 -0.0440456 0)
(10.0544 -0.0497431 0)
(10.0591 -0.0559376 0)
(10.0636 -0.0626484 0)
(10.0682 -0.0698914 0)
(10.0726 -0.0776796 0)
(10.0769 -0.0860231 0)
(10.0811 -0.0949321 0)
(10.0851 -0.104414 0)
(10.0888 -0.114469 0)
(10.0923 -0.125083 0)
(10.0956 -0.136236 0)
(10.0987 -0.147904 0)
(10.1018 -0.16006 0)
(10.1049 -0.172673 0)
(10.1077 -0.185735 0)
(10.11 -0.199063 0)
(10.1128 -0.212331 0)
(10.1196 -0.225464 0)
(10.1379 -0.237009 0)
(10.166 -0.248139 0)
(10.1842 -0.259509 0)
(10.0001 -0.00183781 0)
(10.0009 -0.00462523 0)
(10.0024 -0.00731337 0)
(10.0045 -0.00989517 0)
(10.0072 -0.0124525 0)
(10.0103 -0.0150784 0)
(10.0138 -0.0178493 0)
(10.0175 -0.0208209 0)
(10.0215 -0.0240346 0)
(10.0257 -0.0275239 0)
(10.03 -0.0313186 0)
(10.0343 -0.0354469 0)
(10.0387 -0.0399362 0)
(10.043 -0.0448135 0)
(10.0473 -0.0501042 0)
(10.0515 -0.0558321 0)
(10.0557 -0.0620188 0)
(10.0597 -0.0686833 0)
(10.0636 -0.0758412 0)
(10.0673 -0.0835037 0)
(10.0709 -0.0916798 0)
(10.0743 -0.100377 0)
(10.0774 -0.1096 0)
(10.0803 -0.119339 0)
(10.0828 -0.129572 0)
(10.0853 -0.140261 0)
(10.0876 -0.151355 0)
(10.0898 -0.162794 0)
(10.0921 -0.174516 0)
(10.0941 -0.186456 0)
(10.0954 -0.198448 0)
(10.0977 -0.210159 0)
(10.1048 -0.221249 0)
(10.1239 -0.230231 0)
(10.1526 -0.238409 0)
(10.169 -0.246498 0)
(10.0001 -0.00229066 0)
(10.0009 -0.00579319 0)
(10.0024 -0.00916047 0)
(10.0045 -0.0123663 0)