/*--------------------------------*- C++ -*----------------------------------*\
| =========                 |                                                 |
| \\      /  F ield         | OpenFOAM: The Open Source CFD Toolbox           |
|  \\    /   O peration     | Version:  2.4.0                                 |
|   \\  /    A nd           | Web:      www.OpenFOAM.org                      |
|    \\/     M anipulation  |                                                 |
\*---------------------------------------------------------------------------*/
FoamFile
{
    version     2.0;
    format      ascii;
    class       volVectorField;
    location    "250";
    object      U;
}
// * * * * * * * * * * * * * * * * * * * * * * * * * * * * * * * * * * * * * //

dimensions      [0 1 -1 0 0 0 0];

internalField   nonuniform List<vector> 
48900
(
(9.69287 0.0496194 0)
(9.20177 0.0843601 0)
(8.68817 0.090001 0)
(8.17131 0.0860733 0)
(7.68372 0.0787955 0)
(7.2291 0.0704776 0)
(6.80195 0.0624607 0)
(6.40425 0.0551096 0)
(6.03694 0.0484643 0)
(5.69983 0.0425011 0)
(5.3916 0.0371901 0)
(5.11185 0.0322228 0)
(4.85886 0.0276675 0)
(4.62983 0.0239717 0)
(4.42257 0.0209707 0)
(4.2357 0.0183794 0)
(4.06808 0.0160599 0)
(3.91808 0.0139751 0)
(3.78449 0.0121079 0)
(3.66562 0.0104664 0)
(3.56002 0.00904652 0)
(3.46612 0.00779903 0)
(3.38265 0.00671768 0)
(3.30803 0.00581911 0)
(3.24089 0.00511079 0)
(3.17988 0.00458646 0)
(3.12383 0.00423664 0)
(3.07166 0.00404762 0)
(3.02233 0.0040129 0)
(2.97498 0.00412464 0)
(2.92867 0.00438693 0)
(2.88247 0.00476761 0)
(2.83634 0.0054851 0)
(2.78611 0.00568368 0)
(2.74207 0.010112 0)
(2.65696 -0.00664296 0)
(10.0233 0.107464 0)
(10.0403 0.123635 0)
(10.0023 0.123732 0)
(9.9144 0.124429 0)
(9.7981 0.125201 0)
(9.66092 0.124379 0)
(9.50682 0.122442 0)
(9.34087 0.119521 0)
(9.16748 0.115662 0)
(8.99002 0.110965 0)
(8.81144 0.105594 0)
(8.6342 0.0998494 0)
(8.46023 0.0940066 0)
(8.2915 0.0881492 0)
(8.12992 0.0823391 0)
(7.97553 0.0765656 0)
(7.82923 0.0708919 0)
(7.6906 0.0653854 0)
(7.56024 0.0601383 0)
(7.43735 0.0552041 0)
(7.32225 0.0506731 0)
(7.21385 0.046593 0)
(7.11159 0.0429804 0)
(7.01481 0.0398293 0)
(6.92309 0.0371355 0)
(6.83579 0.0348943 0)
(6.75238 0.0330955 0)
(6.6723 0.0317342 0)
(6.5949 0.030802 0)
(6.51974 0.030304 0)
(6.44602 0.0302562 0)
(6.37323 0.0306468 0)
(6.3008 0.0316257 0)
(6.22785 0.0329282 0)
(6.15461 0.0355449 0)
(6.07751 0.0385964 0)
(10.033 0.0846788 0)
(10.0832 0.112333 0)
(10.1138 0.11992 0)
(10.1159 0.125915 0)
(10.1116 0.132259 0)
(10.0986 0.13554 0)
(10.0756 0.136563 0)
(10.0432 0.136124 0)
(10.0025 0.134527 0)
(9.9541 0.131879 0)
(9.89891 0.128365 0)
(9.83786 0.124242 0)
(9.7718 0.119728 0)
(9.70183 0.114926 0)
(9.62903 0.109906 0)
(9.55421 0.104708 0)
(9.47808 0.0994196 0)
(9.40118 0.0941517 0)
(9.32403 0.0890029 0)
(9.24704 0.0840798 0)
(9.17048 0.079434 0)
(9.0947 0.0751552 0)
(9.01994 0.0713374 0)
(8.94627 0.0680152 0)
(8.87366 0.0651888 0)
(8.80208 0.0628652 0)
(8.73143 0.0610429 0)
(8.66157 0.0597311 0)
(8.59236 0.0589353 0)
(8.52359 0.0586798 0)
(8.45506 0.0590009 0)
(8.38645 0.0599199 0)
(8.31763 0.0615763 0)
(8.24766 0.0638896 0)
(8.1776 0.0676455 0)
(8.102 0.070746 0)
(10.0287 0.0717667 0)
(10.0723 0.103475 0)
(10.1068 0.115196 0)
(10.1224 0.12353 0)
(10.1358 0.130382 0)
(10.1459 0.134189 0)
(10.1525 0.136296 0)
(10.1542 0.137152 0)
(10.153 0.137033 0)
(10.1484 0.136043 0)
(10.1404 0.134194 0)
(10.1289 0.131655 0)
(10.1141 0.128638 0)
(10.0962 0.125223 0)
(10.0754 0.121495 0)
(10.052 0.117511 0)
(10.026 0.113355 0)
(9.99782 0.109131 0)
(9.96748 0.104943 0)
(9.93521 0.100895 0)
(9.90117 0.0970816 0)
(9.8656 0.0935982 0)
(9.82873 0.0904971 0)
(9.7907 0.0878116 0)
(9.7516 0.0855739 0)
(9.71152 0.0838153 0)
(9.67049 0.0825582 0)
(9.62853 0.0818277 0)
(9.58561 0.0816487 0)
(9.54169 0.0820588 0)
(9.49671 0.0831096 0)
(9.45055 0.0848533 0)
(9.4032 0.0874059 0)
(9.35413 0.0907683 0)
(9.30454 0.0955001 0)
(9.24965 0.100824 0)
(10.0226 0.0608911 0)
(10.0601 0.0954759 0)
(10.0926 0.109784 0)
(10.1109 0.118957 0)
(10.1272 0.126337 0)
(10.1414 0.131007 0)
(10.1531 0.133834 0)
(10.1623 0.135437 0)
(10.1698 0.135891 0)
(10.1754 0.135355 0)
(10.1792 0.13399 0)
(10.181 0.13213 0)
(10.1811 0.129696 0)
(10.1795 0.12687 0)
(10.1761 0.123761 0)
(10.171 0.120431 0)
(10.1643 0.116955 0)
(10.156 0.113427 0)
(10.146 0.109944 0)
(10.1345 0.106606 0)
(10.1216 0.103492 0)
(10.1073 0.10067 0)
(10.0916 0.0982073 0)
(10.0748 0.0961631 0)
(10.0567 0.0945812 0)
(10.0376 0.0934959 0)
(10.0174 0.0929346 0)
(9.99603 0.0929268 0)
(9.97363 0.0935053 0)
(9.95012 0.0947131 0)
(9.92548 0.0966102 0)
(9.89964 0.0992545 0)
(9.87262 0.102794 0)
(9.84414 0.107236 0)
(9.815 0.113137 0)
(9.78264 0.120193 0)
(10.0169 0.0515392 0)
(10.0498 0.0875952 0)
(10.0801 0.103993 0)
(10.0992 0.114237 0)
(10.1159 0.122154 0)
(10.131 0.12739 0)
(10.1439 0.130687 0)
(10.155 0.132671 0)
(10.1646 0.133496 0)
(10.1728 0.133366 0)
(10.1795 0.132459 0)
(10.1849 0.130925 0)
(10.189 0.128883 0)
(10.1919 0.12649 0)
(10.1935 0.12385 0)
(10.194 0.12097 0)
(10.1933 0.117943 0)
(10.1914 0.114884 0)
(10.1883 0.111887 0)
(10.184 0.109041 0)
(10.1786 0.106415 0)
(10.1722 0.104082 0)
(10.1647 0.102111 0)
(10.1563 0.100561 0)
(10.1469 0.0994736 0)
(10.1367 0.0988831 0)
(10.1256 0.0988228 0)
(10.1136 0.099328 0)
(10.1009 0.100439 0)
(10.0873 0.102203 0)
(10.0729 0.104684 0)
(10.0576 0.10795 0)
(10.0416 0.112127 0)
(10.0245 0.117245 0)
(10.007 0.123764 0)
(9.9882 0.131424 0)
(10.0124 0.0436396 0)
(10.0409 0.0798709 0)
(10.0692 0.0979573 0)
(10.0886 0.109292 0)
(10.1055 0.117743 0)
(10.1207 0.123476 0)
(10.1339 0.127198 0)
(10.1455 0.129523 0)
(10.1558 0.13069 0)
(10.1648 0.130901 0)
(10.1725 0.130329 0)
(10.1791 0.129145 0)
(10.1846 0.127463 0)
(10.1889 0.125405 0)
(10.1922 0.123069 0)
(10.1945 0.12053 0)
(10.1958 0.117882 0)
(10.1961 0.115206 0)
(10.1954 0.112575 0)
(10.1937 0.110107 0)
(10.1911 0.107873 0)
(10.1877 0.105931 0)
(10.1833 0.104346 0)
(10.1781 0.103175 0)
(10.1722 0.102461 0)
(10.1656 0.102246 0)
(10.1582 0.102566 0)
(10.1502 0.10346 0)
(10.1415 0.104971 0)
(10.1321 0.107148 0)
(10.1221 0.110055 0)
(10.1115 0.113758 0)
(10.1004 0.118368 0)
(10.0886 0.123946 0)
(10.0765 0.130778 0)
(10.0639 0.138777 0)
(10.0089 0.0371271 0)
(10.0333 0.0725173 0)
(10.0595 0.0917901 0)
(10.0789 0.104109 0)
(10.0958 0.113097 0)
(10.111 0.119318 0)
(10.1243 0.123469 0)
(10.1361 0.126152 0)
(10.1466 0.127651 0)
(10.1559 0.128181 0)
(10.1641 0.127923 0)
(10.1711 0.12705 0)
(10.1771 0.125677 0)
(10.1821 0.123933 0)
(10.1861 0.121919 0)
(10.1892 0.119706 0)
(10.1914 0.117378 0)
(10.1926 0.115031 0)
(10.1929 0.112762 0)
(10.1924 0.110635 0)
(10.191 0.108742 0)
(10.1888 0.107149 0)
(10.1859 0.10591 0)
(10.1822 0.105082 0)
(10.1779 0.104708 0)
(10.1729 0.104829 0)
(10.1673 0.105486 0)
(10.1611 0.106717 0)
(10.1544 0.108568 0)
(10.1471 0.111089 0)
(10.1393 0.11434 0)
(10.131 0.118387 0)
(10.1223 0.123323 0)
(10.1132 0.129212 0)
(10.1039 0.136231 0)
(10.0943 0.144365 0)
(10.0065 0.0318001 0)
(10.0269 0.0656681 0)
(10.0508 0.0856134 0)
(10.0698 0.0987359 0)
(10.0865 0.108246 0)
(10.1017 0.114943 0)
(10.1151 0.119523 0)
(10.127 0.122571 0)
(10.1376 0.124404 0)
(10.1471 0.125253 0)
(10.1554 0.125308 0)
(10.1627 0.12474 0)
(10.169 0.123675 0)
(10.1743 0.122239 0)
(10.1787 0.120533 0)
(10.1822 0.118633 0)
(10.1848 0.116626 0)
(10.1866 0.114605 0)
(10.1875 0.112652 0)
(10.1875 0.110871 0)
(10.1869 0.109305 0)
(10.1854 0.108041 0)
(10.1833 0.107126 0)
(10.1805 0.106606 0)
(10.177 0.106539 0)
(10.173 0.106968 0)
(10.1684 0.10793 0)
(10.1633 0.109469 0)
(10.1577 0.111627 0)
(10.1516 0.114452 0)
(10.1451 0.118 0)
(10.1382 0.122333 0)
(10.1309 0.127529 0)
(10.1234 0.133645 0)
(10.1158 0.140791 0)
(10.1081 0.148974 0)
(10.0047 0.0274472 0)
(10.0216 0.0593924 0)
(10.043 0.0795476 0)
(10.0614 0.0932485 0)
(10.0777 0.103225 0)
(10.0927 0.110371 0)
(10.1061 0.115371 0)
(10.1181 0.118788 0)
(10.1288 0.120961 0)
(10.1384 0.122135 0)
(10.1468 0.122507 0)
(10.1543 0.122249 0)
(10.1608 0.121493 0)
(10.1663 0.120364 0)
(10.171 0.118965 0)
(10.1747 0.117379 0)
(10.1776 0.115691 0)
(10.1797 0.113992 0)
(10.181 0.112359 0)
(10.1814 0.110886 0)
(10.1812 0.109651 0)
(10.1803 0.108699 0)
(10.1787 0.108099 0)
(10.1765 0.107894 0)
(10.1736 0.108131 0)
(10.1703 0.108854 0)
(10.1664 0.110107 0)
(10.162 0.111928 0)
(10.1572 0.114362 0)
(10.152 0.117456 0)
(10.1464 0.121265 0)
(10.1404 0.125842 0)
(10.1342 0.13125 0)
(10.1278 0.137539 0)
(10.1214 0.144773 0)
(10.1149 0.152966 0)
(10.0034 0.0238859 0)
(10.0173 0.0537135 0)
(10.0363 0.0737 0)
(10.0536 0.0877375 0)
(10.0694 0.0980868 0)
(10.0841 0.105633 0)
(10.0973 0.11103 0)
(10.1093 0.114812 0)
(10.12 0.117327 0)
(10.1297 0.118831 0)
(10.1383 0.119526 0)
(10.1458 0.119584 0)
(10.1525 0.119141 0)
(10.1582 0.118323 0)
(10.163 0.117235 0)
(10.167 0.115964 0)
(10.1701 0.114596 0)
(10.1725 0.11322 0)
(10.174 0.111909 0)
(10.1748 0.11075 0)
(10.175 0.109826 0)
(10.1744 0.109186 0)
(10.1732 0.108893 0)
(10.1715 0.108988 0)
(10.1691 0.109515 0)
(10.1663 0.110521 0)
(10.1629 0.112051 0)
(10.1592 0.114143 0)
(10.155 0.116841 0)
(10.1505 0.120188 0)
(10.1456 0.12423 0)
(10.1404 0.129016 0)
(10.1351 0.1346 0)
(10.1296 0.141019 0)
(10.1241 0.148316 0)
(10.1186 0.156498 0)
(10.0025 0.0209632 0)
(10.0139 0.0486189 0)
(10.0305 0.068152 0)
(10.0465 0.0822964 0)
(10.0615 0.0928981 0)
(10.0757 0.100775 0)
(10.0887 0.106528 0)
(10.1006 0.110658 0)
(10.1113 0.113511 0)
(10.121 0.115346 0)
(10.1297 0.116365 0)
(10.1373 0.116743 0)
(10.1441 0.116619 0)
(10.15 0.116118 0)
(10.155 0.115345 0)
(10.1591 0.114392 0)
(10.1625 0.113347 0)
(10.1651 0.112294 0)
(10.1669 0.111307 0)
(10.168 0.110469 0)
(10.1684 0.109835 0)
(10.1682 0.109527 0)
(10.1674 0.109531 0)
(10.166 0.109917 0)
(10.1641 0.110727 0)
(10.1617 0.112009 0)
(10.1589 0.113805 0)
(10.1556 0.116154 0)
(10.152 0.119095 0)
(10.148 0.122671 0)
(10.1438 0.126923 0)
(10.1394 0.131893 0)
(10.1347 0.137623 0)
(10.13 0.144144 0)
(10.1253 0.151482 0)
(10.1207 0.15964 0)
(10.0019 0.0185551 0)
(10.0112 0.0440735 0)
(10.0256 0.0629543 0)
(10.0402 0.077008 0)
(10.0543 0.0877327 0)
(10.0679 0.095854 0)
(10.0805 0.101909 0)
(10.0921 0.106356 0)
(10.1027 0.109531 0)
(10.1124 0.111688 0)
(10.121 0.113031 0)
(10.1288 0.113729 0)
(10.1356 0.113926 0)
(10.1416 0.113744 0)
(10.1468 0.113291 0)
(10.1511 0.11266 0)
(10.1547 0.111939 0)
(10.1575 0.11121 0)
(10.1596 0.110549 0)
(10.1609 0.110035 0)
(10.1617 0.109716 0)
(10.1617 0.109706 0)
(10.1613 0.110005 0)
(10.1602 0.110679 0)
(10.1587 0.111768 0)
(10.1568 0.113318 0)
(10.1544 0.115371 0)
(10.1516 0.117965 0)
(10.1485 0.121135 0)
(10.1451 0.124921 0)
(10.1415 0.129361 0)
(10.1377 0.134489 0)
(10.1337 0.140338 0)
(10.1297 0.146934 0)
(10.1257 0.154293 0)
(10.1218 0.162412 0)
(10.0015 0.0165632 0)
(10.0091 0.0400367 0)
(10.0215 0.0581293 0)
(10.0348 0.0719348 0)
(10.0478 0.0826599 0)
(10.0606 0.0909338 0)
(10.0727 0.0972243 0)
(10.0839 0.101946 0)
(10.0943 0.105416 0)
(10.1038 0.107879 0)
(10.1125 0.109534 0)
(10.1202 0.11055 0)
(10.1271 0.111065 0)
(10.1332 0.111204 0)
(10.1385 0.111073 0)
(10.143 0.110765 0)
(10.1467 0.110368 0)
(10.1498 0.109965 0)
(10.1521 0.109629 0)
(10.1537 0.109435 0)
(10.1547 0.109455 0)
(10.1551 0.109721 0)
(10.155 0.110312 0)
(10.1543 0.111269 0)
(10.1532 0.112633 0)
(10.1517 0.114446 0)
(10.1497 0.116748 0)
(10.1474 0.119574 0)
(10.1448 0.12296 0)
(10.142 0.12694 0)
(10.1389 0.131547 0)
(10.1357 0.13681 0)
(10.1324 0.142757 0)
(10.129 0.149406 0)
(10.1257 0.156767 0)
(10.1225 0.164831 0)
(10.0012 0.0150694 0)
(10.0076 0.0368946 0)
(10.0186 0.0542155 0)
(10.0306 0.0677138 0)
(10.0428 0.0783565 0)
(10.0548 0.086689 0)
(10.0663 0.0931266 0)
(10.0772 0.0980453 0)
(10.0873 0.101741 0)
(10.0966 0.104449 0)
(10.1052 0.106361 0)
(10.1129 0.107642 0)
(10.1198 0.108429 0)
(10.1259 0.108843 0)
(10.1313 0.108989 0)
(10.1359 0.108961 0)
(10.1398 0.108846 0)
(10.1429 0.108723 0)
(10.1455 0.108669 0)
(10.1473 0.108752 0)
(10.1486 0.109048 0)
(10.1492 0.109574 0)
(10.1494 0.110412 0)
(10.1491 0.111608 0)
(10.1483 0.113203 0)
(10.1471 0.115237 0)
(10.1455 0.117744 0)
(10.1437 0.120761 0)
(10.1415 0.124319 0)
(10.1391 0.12845 0)
(10.1365 0.133182 0)
(10.1338 0.138543 0)
(10.131 0.144552 0)
(10.1282 0.151223 0)
(10.1255 0.158566 0)
(10.1228 0.166563 0)
(10.001 0.0138934 0)
(10.0066 0.034354 0)
(10.0164 0.05095 0)
(10.0274 0.0641327 0)
(10.0387 0.0746582 0)
(10.0501 0.0829987 0)
(10.0611 0.0895297 0)
(10.0715 0.0945931 0)
(10.0813 0.0984662 0)
(10.0905 0.101373 0)
(10.0988 0.1035 0)
(10.1065 0.105006 0)
(10.1133 0.106025 0)
(10.1195 0.106677 0)
(10.1249 0.107065 0)
(10.1296 0.107282 0)
(10.1335 0.107414 0)
(10.1369 0.107538 0)
(10.1395 0.10773 0)
(10.1416 0.108057 0)
(10.143 0.10859 0)
(10.1439 0.109346 0)
(10.1444 0.110399 0)
(10.1443 0.111805 0)
(10.1438 0.113602 0)
(10.1429 0.115825 0)
(10.1417 0.118509 0)
(10.1402 0.121687 0)
(10.1384 0.12539 0)
(10.1364 0.129646 0)
(10.1342 0.134481 0)
(10.1319 0.139917 0)
(10.1296 0.14597 0)
(10.1273 0.152652 0)
(10.125 0.159968 0)
(10.1229 0.167896 0)
(10.0008 0.0128246 0)
(10.0057 0.0319458 0)
(10.0144 0.047776 0)
(10.0244 0.0605826 0)
(10.0349 0.0709392 0)
(10.0456 0.0792448 0)
(10.056 0.0858343 0)
(10.066 0.0910161 0)
(10.0755 0.0950473 0)
(10.0843 0.0981402 0)
(10.0925 0.100474 0)
(10.1 0.1022 0)
(10.1068 0.10345 0)
(10.1129 0.104341 0)
(10.1183 0.104974 0)
(10.123 0.105439 0)
(10.1271 0.105822 0)
(10.1305 0.106198 0)
(10.1333 0.106642 0)
(10.1356 0.107217 0)
(10.1372 0.107989 0)
(10.1384 0.108977 0)
(10.139 0.110253 0)
(10.1392 0.111873 0)
(10.139 0.113873 0)
(10.1385 0.116285 0)
(10.1376 0.119144 0)
(10.1364 0.122481 0)
(10.135 0.126323 0)
(10.1334 0.130697 0)
(10.1316 0.135624 0)
(10.1298 0.141124 0)
(10.1279 0.14721 0)
(10.1261 0.153888 0)
(10.1243 0.161163 0)
(10.1227 0.169007 0)
(10.0007 0.0118449 0)
(10.0049 0.0296602 0)
(10.0126 0.0447023 0)
(10.0218 0.0570805 0)
(10.0314 0.0672197 0)
(10.0414 0.0754498 0)
(10.0512 0.0820632 0)
(10.0607 0.0873355 0)
(10.0697 0.0915036 0)
(10.0783 0.0947667 0)
(10.0862 0.0972947 0)
(10.0935 0.0992338 0)
(10.1002 0.100711 0)
(10.1062 0.101839 0)
(10.1116 0.102715 0)
(10.1164 0.103431 0)
(10.1205 0.104067 0)
(10.124 0.104698 0)
(10.127 0.105395 0)
(10.1293 0.106221 0)
(10.1312 0.107232 0)
(10.1326 0.108455 0)
(10.1335 0.109959 0)
(10.1339 0.111794 0)
(10.134 0.113996 0)
(10.1338 0.116597 0)
(10.1332 0.119628 0)
(10.1324 0.123118 0)
(10.1314 0.127094 0)
(10.1302 0.131576 0)
(10.1289 0.136586 0)
(10.1275 0.142138 0)
(10.1261 0.148242 0)
(10.1247 0.154903 0)
(10.1234 0.16212 0)
(10.1223 0.169863 0)
(10.0006 0.0109414 0)
(10.0042 0.0274948 0)
(10.0111 0.0417338 0)
(10.0193 0.05364 0)
(10.0282 0.0635179 0)
(10.0374 0.0716336 0)
(10.0466 0.0782371 0)
(10.0556 0.0835722 0)
(10.0642 0.0878547 0)
(10.0724 0.0912702 0)
(10.08 0.0939791 0)
(10.0871 0.0961207 0)
(10.0937 0.0978172 0)
(10.0996 0.0991764 0)
(10.1049 0.100294 0)
(10.1097 0.101258 0)
(10.1138 0.102147 0)
(10.1174 0.103033 0)
(10.1205 0.103983 0)
(10.123 0.105057 0)
(10.125 0.106309 0)
(10.1266 0.107767 0)
(10.1278 0.109499 0)
(10.1285 0.111548 0)
(10.1289 0.11395 0)
(10.129 0.116736 0)
(10.1288 0.119934 0)
(10.1283 0.123571 0)
(10.1277 0.127671 0)
(10.1269 0.132253 0)
(10.126 0.137333 0)
(10.1251 0.142923 0)
(10.1241 0.14903 0)
(10.1232 0.155657 0)
(10.1224 0.1628 0)
(10.1218 0.170424 0)
(10.0005 0.0101052 0)
(10.0037 0.0254473 0)
(10.0097 0.0388742 0)
(10.0172 0.0502724 0)
(10.0253 0.0598489 0)
(10.0338 0.0678132 0)
(10.0424 0.074374 0)
(10.0508 0.0797439 0)
(10.059 0.0841177 0)
(10.0668 0.0876667 0)
(10.0741 0.090541 0)
(10.081 0.0928728 0)
(10.0873 0.0947785 0)
(10.0931 0.0963617 0)
(10.0983 0.0977149 0)
(10.103 0.0989219 0)
(10.1072 0.100059 0)
(10.1109 0.101196 0)
(10.114 0.102396 0)
(10.1167 0.103715 0)
(10.1189 0.105204 0)
(10.1207 0.106896 0)
(10.122 0.108852 0)
(10.123 0.111111 0)
(10.1237 0.113708 0)
(10.1241 0.116673 0)
(10.1243 0.12003 0)
(10.1242 0.123805 0)
(10.1239 0.128019 0)
(10.1236 0.132687 0)
(10.1231 0.137823 0)
(10.1226 0.143436 0)
(10.1221 0.14953 0)
(10.1217 0.156104 0)
(10.1214 0.163154 0)
(10.1213 0.170641 0)
(10.0005 0.00932832 0)
(10.0032 0.0235143 0)
(10.0085 0.036126 0)
(10.0152 0.0469867 0)
(10.0226 0.0562254 0)
(10.0305 0.0640025 0)
(10.0385 0.0704884 0)
(10.0464 0.0758654 0)
(10.0541 0.080307 0)
(10.0615 0.0839696 0)
(10.0685 0.0869928 0)
(10.075 0.0895007 0)
(10.0812 0.0916039 0)
(10.0868 0.093401 0)
(10.0919 0.0949807 0)
(10.0966 0.0964234 0)
(10.1007 0.0978019 0)
(10.1044 0.0991827 0)
(10.1076 0.100626 0)
(10.1104 0.102184 0)
(10.1128 0.103906 0)
(10.1148 0.105824 0)
(10.1164 0.107998 0)
(10.1176 0.11046 0)
(10.1186 0.113244 0)
(10.1193 0.116377 0)
(10.1198 0.119883 0)
(10.1201 0.123784 0)
(10.1202 0.128097 0)
(10.1203 0.132836 0)
(10.1203 0.138011 0)
(10.1202 0.143629 0)
(10.1202 0.149691 0)
(10.1203 0.156194 0)
(10.1205 0.16313 0)
(10.1208 0.17046 0)
(10.0004 0.00860336 0)
(10.0028 0.0216904 0)
(10.0074 0.0334899 0)
(10.0135 0.0437897 0)
(10.0202 0.0526579 0)
(10.0274 0.0602136 0)
(10.0348 0.0665927 0)
(10.0422 0.0719485 0)
(10.0495 0.0764336 0)
(10.0565 0.0801892 0)
(10.0631 0.0833434 0)
(10.0694 0.0860122 0)
(10.0753 0.0882993 0)
(10.0808 0.0902984 0)
(10.0858 0.0920938 0)
(10.0904 0.093762 0)
(10.0945 0.0953722 0)
(10.0982 0.0969875 0)
(10.1015 0.0986642 0)
(10.1044 0.100452 0)
(10.1069 0.102397 0)
(10.1091 0.104533 0)
(10.1109 0.106913 0)
(10.1124 0.109567 0)
(10.1137 0.112526 0)
(10.1147 0.115815 0)
(10.1155 0.119456 0)
(10.1162 0.123466 0)
(10.1167 0.127862 0)
(10.1172 0.132654 0)
(10.1176 0.13785 0)
(10.118 0.143453 0)
(10.1184 0.149462 0)
(10.119 0.155872 0)
(10.1197 0.162673 0)
(10.1205 0.169825 0)
(10.0004 0.00792369 0)
(10.0024 0.0199694 0)
(10.0065 0.0309649 0)
(10.0119 0.040686 0)
(10.0181 0.0491547 0)
(10.0247 0.0564563 0)
(10.0315 0.0626967 0)
(10.0384 0.0680025 0)
(10.0452 0.0725056 0)
(10.0518 0.0763319 0)
(10.0582 0.079598 0)
(10.0642 0.0824105 0)
(10.0699 0.0848664 0)
(10.0752 0.0870537 0)
(10.0801 0.0890518 0)
(10.0846 0.0909331 0)
(10.0887 0.0927628 0)
(10.0924 0.0946003 0)
(10.0957 0.0964985 0)
(10.0987 0.098504 0)
(10.1014 0.100659 0)
(10.1037 0.103002 0)
(10.1057 0.105574 0)
(10.1075 0.108405 0)
(10.109 0.111524 0)
(10.1103 0.114953 0)
(10.1115 0.11871 0)
(10.1125 0.122812 0)
(10.1135 0.127271 0)
(10.1143 0.132095 0)
(10.1152 0.13729 0)
(10.116 0.142855 0)
(10.1169 0.148789 0)
(10.118 0.155084 0)
(10.1191 0.161728 0)
(10.1204 0.16868 0)
(10.0003 0.00728352 0)
(10.0021 0.0183439 0)
(10.0057 0.0285481 0)
(10.0106 0.0376776 0)
(10.0161 0.0457216 0)
(10.0222 0.0527382 0)
(10.0285 0.0588081 0)
(10.0349 0.0640339 0)
(10.0413 0.068528 0)
(10.0475 0.072401 0)
(10.0536 0.0757574 0)
(10.0593 0.0786946 0)
(10.0648 0.081302 0)
(10.0699 0.0836614 0)
(10.0747 0.085847 0)
(10.0791 0.0879266 0)
(10.0832 0.0899612 0)
(10.087 0.0920063 0)
(10.0904 0.0941111 0)
(10.0934 0.0963196 0)
(10.0962 0.0986706 0)
(10.0987 0.101204 0)
(10.101 0.103951 0)
(10.103 0.106942 0)
(10.1048 0.110202 0)
(10.1064 0.11375 0)
(10.1079 0.117604 0)
(10.1093 0.121775 0)
(10.1106 0.126275 0)
(10.1119 0.131108 0)
(10.1131 0.136277 0)
(10.1144 0.141781 0)
(10.1158 0.147615 0)
(10.1173 0.15377 0)
(10.1189 0.160234 0)
(10.1206 0.166964 0)
(10.0003 0.00667782 0)
(10.0019 0.0168059 0)
(10.0051 0.0262347 0)
(10.0094 0.0347641 0)
(10.0144 0.0423616 0)
(10.0199 0.0490642 0)
(10.0258 0.0549321 0)
(10.0317 0.0600469 0)
(10.0377 0.064503 0)
(10.0436 0.0683961 0)
(10.0494 0.0718189 0)
(10.0549 0.074859 0)
(10.0601 0.0775978 0)
(10.0651 0.0801105 0)
(10.0698 0.0824657 0)
(10.0742 0.0847261 0)
(10.0782 0.0869484 0)
(10.082 0.0891838 0)
(10.0855 0.091478 0)
(10.0886 0.0938719 0)
(10.0916 0.0964018 0)
(10.0942 0.0991042 0)
(10.0967 0.102007 0)
(10.099 0.105138 0)
(10.101 0.108517 0)
(10.103 0.112163 0)
(10.1048 0.116089 0)
(10.1065 0.120306 0)
(10.1082 0.124821 0)
(10.1099 0.129637 0)
(10.1116 0.134756 0)
(10.1133 0.140173 0)
(10.1151 0.145882 0)
(10.117 0.151874 0)
(10.119 0.158133 0)
(10.1213 0.16462 0)
(10.0003 0.00610203 0)
(10.0017 0.0153465 0)
(10.0045 0.0240178 0)
(10.0083 0.031942 0)
(10.0129 0.0390743 0)
(10.0179 0.0454359 0)
(10.0233 0.0510706 0)
(10.0289 0.0560426 0)
(10.0345 0.0604298 0)
(10.0401 0.0643139 0)
(10.0455 0.0677761 0)
(10.0508 0.0708939 0)
(10.0559 0.0737407 0)
(10.0607 0.0763846 0)
(10.0653 0.0788883 0)
(10.0697 0.0813089 0)
(10.0737 0.0836986 0)
(10.0775 0.0861041 0)
(10.0811 0.0885675 0)
(10.0844 0.091126 0)
(10.0874 0.093815 0)
(10.0903 0.0966639 0)
(10.093 0.0997001 0)
(10.0955 0.102947 0)
(10.0979 0.106422 0)
(10.1001 0.11014 0)
(10.1023 0.114113 0)
(10.1044 0.118349 0)
(10.1064 0.122853 0)
(10.1085 0.127626 0)
(10.1106 0.132667 0)
(10.1127 0.13797 0)
(10.1149 0.143529 0)
(10.1172 0.149331 0)
(10.1197 0.155363 0)
(10.1223 0.161587 0)
(10.0002 0.00555189 0)
(10.0015 0.0139554 0)
(10.004 0.0218885 0)
(10.0075 0.0292046 0)
(10.0116 0.0358553 0)
(10.0162 0.0418504 0)
(10.0212 0.0472213 0)
(10.0264 0.0520178 0)
(10.0316 0.0563035 0)
(10.0369 0.060147 0)
(10.0421 0.0636183 0)
(10.0472 0.0667854 0)
(10.0521 0.0697131 0)
(10.0568 0.0724624 0)
(10.0613 0.0750895 0)
(10.0657 0.0776462 0)
(10.0697 0.0801794 0)
(10.0736 0.0827314 0)
(10.0772 0.0853405 0)
(10.0807 0.0880406 0)
(10.0839 0.0908631 0)
(10.087 0.0938343 0)
(10.0899 0.0969782 0)
(10.0926 0.100314 0)
(10.0953 0.103858 0)
(10.0978 0.107622 0)
(10.1003 0.111614 0)
(10.1028 0.115842 0)
(10.1052 0.120307 0)
(10.1076 0.125008 0)
(10.1101 0.129944 0)
(10.1127 0.135108 0)
(10.1153 0.14049 0)
(10.118 0.14608 0)
(10.1209 0.151862 0)
(10.1239 0.157804 0)
(10.0002 0.00502238 0)
(10.0013 0.0126246 0)
(10.0036 0.019833 0)
(10.0067 0.0265408 0)
(10.0105 0.0326957 0)
(10.0147 0.0383003 0)
(10.0193 0.0433772 0)
(10.0241 0.0479649 0)
(10.0291 0.0521146 0)
(10.0341 0.0558832 0)
(10.0391 0.0593303 0)
(10.044 0.0625144 0)
(10.0488 0.0654922 0)
(10.0534 0.068317 0)
(10.0579 0.0710387 0)
(10.0622 0.0737032 0)
(10.0663 0.0763522 0)
(10.0702 0.0790236 0)
(10.074 0.0817509 0)
(10.0775 0.0845658 0)
(10.0809 0.0874938 0)
(10.0842 0.0905595 0)
(10.0874 0.0937829 0)
(10.0904 0.0971799 0)
(10.0933 0.100764 0)
(10.0962 0.104543 0)
(10.099 0.108526 0)
(10.1018 0.112716 0)
(10.1046 0.117113 0)
(10.1074 0.121716 0)
(10.1103 0.126519 0)
(10.1132 0.131517 0)
(10.1162 0.136698 0)
(10.1194 0.142052 0)
(10.1226 0.147563 0)
(10.126 0.153204 0)
(10.0002 0.00450954 0)
(10.0012 0.0113388 0)
(10.0032 0.0178429 0)
(10.0061 0.0239353 0)
(10.0095 0.0295802 0)
(10.0134 0.0347714 0)
(10.0177 0.0395236 0)
(10.0222 0.043868 0)
(10.0269 0.0478464 0)
(10.0317 0.051504 0)
(10.0365 0.0548908 0)
(10.0412 0.0580564 0)
(10.0459 0.0610495 0)
(10.0505 0.0639161 0)
(10.0549 0.0666993 0)
(10.0592 0.0694393 0)
(10.0634 0.0721722 0)
(10.0674 0.0749316 0)
(10.0713 0.0777471 0)
(10.075 0.0806446 0)
(10.0786 0.083648 0)
(10.0821 0.0867773 0)
(10.0855 0.0900488 0)
(10.0888 0.0934757 0)
(10.092 0.0970682 0)
(10.0952 0.100834 0)
(10.0984 0.104777 0)
(10.1015 0.108899 0)
(10.1047 0.113199 0)
(10.1078 0.117674 0)
(10.1111 0.122319 0)
(10.1144 0.127125 0)
(10.1178 0.132082 0)
(10.1212 0.137179 0)
(10.1248 0.142401 0)
(10.1286 0.147723 0)
(10.0002 0.00400862 0)
(10.0011 0.0100847 0)
(10.0029 0.0158938 0)
(10.0055 0.0213719 0)
(10.0087 0.0264904 0)
(10.0124 0.0312434 0)
(10.0164 0.0356413 0)
(10.0206 0.0397075 0)
(10.0251 0.0434751 0)
(10.0297 0.0469822 0)
(10.0343 0.0502692 0)
(10.0389 0.0533776 0)
(10.0435 0.0563477 0)
(10.048 0.0592187 0)
(10.0525 0.0620269 0)
(10.0568 0.0648065 0)
(10.0611 0.0675885 0)
(10.0652 0.0704009 0)
(10.0692 0.0732692 0)
(10.0731 0.076216 0)
(10.0769 0.0792607 0)
(10.0806 0.0824194 0)
(10.0843 0.0857052 0)
(10.0878 0.0891288 0)
(10.0914 0.0926975 0)
(10.0949 0.0964165 0)
(10.0983 0.100288 0)
(10.1018 0.104312 0)
(10.1053 0.108487 0)
(10.1089 0.112807 0)
(10.1124 0.117267 0)
(10.1161 0.121858 0)
(10.1198 0.126569 0)
(10.1237 0.13139 0)
(10.1276 0.136306 0)
(10.1317 0.141295 0)
(10.0002 0.00351399 0)
(10.001 0.00884782 0)
(10.0027 0.013965 0)
(10.0051 0.018821 0)
(10.0081 0.023396 0)
(10.0115 0.0276855 0)
(10.0153 0.0316974 0)
(10.0194 0.0354498 0)
(10.0236 0.0389688 0)
(10.0281 0.0422847 0)
(10.0326 0.0454302 0)
(10.0371 0.0484388 0)
(10.0417 0.0513438 0)
(10.0462 0.0541774 0)
(10.0506 0.0569697 0)
(10.055 0.0597488 0)
(10.0594 0.0625405 0)
(10.0636 0.065368 0)
(10.0678 0.0682522 0)
(10.0718 0.0712111 0)
(10.0759 0.07426 0)
(10.0798 0.0774118 0)
(10.0837 0.0806766 0)
(10.0876 0.0840621 0)
(10.0914 0.0875732 0)
(10.0952 0.0912129 0)
(10.099 0.0949818 0)
(10.1028 0.0988782 0)
(10.1066 0.102899 0)
(10.1105 0.107038 0)
(10.1144 0.111289 0)
(10.1184 0.115642 0)
(10.1225 0.120089 0)
(10.1266 0.124616 0)
(10.1309 0.129213 0)
(10.1352 0.133857 0)
(10.0002 0.00301855 0)
(10.0009 0.00761088 0)
(10.0025 0.0120305 0)
(10.0048 0.0162512 0)
(10.0076 0.020261 0)
(10.0109 0.0240583 0)
(10.0145 0.0276497 0)
(10.0184 0.0310498 0)
(10.0226 0.0342788 0)
(10.0269 0.0373605 0)
(10.0313 0.0403205 0)
(10.0358 0.0431853 0)
(10.0403 0.0459813 0)
(10.0448 0.0487339 0)
(10.0494 0.0514672 0)
(10.0538 0.0542034 0)
(10.0583 0.056963 0)
(10.0627 0.0597643 0)
(10.067 0.0626235 0)
(10.0713 0.0655544 0)
(10.0755 0.0685687 0)
(10.0797 0.0716757 0)
(10.0838 0.0748826 0)
(10.088 0.0781943 0)
(10.0921 0.0816136 0)
(10.0962 0.0851413 0)
(10.1003 0.0887764 0)
(10.1044 0.0925158 0)
(10.1085 0.0963552 0)
(10.1127 0.100288 0)
(10.117 0.104308 0)
(10.1213 0.108405 0)
(10.1256 0.11257 0)
(10.1301 0.116791 0)
(10.1346 0.121058 0)
(10.1392 0.125349 0)
(10.0001 0.0025135 0)
(10.0009 0.00635296 0)
(10.0024 0.0100588 0)
(10.0046 0.0136216 0)
(10.0073 0.017038 0)
(10.0104 0.0203094 0)
(10.0139 0.0234423 0)
(10.0178 0.0264486 0)
(10.0219 0.0293438 0)
(10.0261 0.032146 0)
(10.0305 0.0348745 0)
(10.035 0.0375492 0)
(10.0395 0.0401899 0)
(10.0441 0.0428156 0)
(10.0487 0.0454445 0)
(10.0533 0.0480931 0)
(10.0579 0.0507767 0)
(10.0624 0.0535087 0)
(10.0669 0.0563008 0)
(10.0714 0.0591627 0)
(10.0759 0.0621026 0)
(10.0803 0.0651263 0)
(10.0847 0.0682383 0)
(10.0891 0.0714407 0)
(10.0935 0.0747344 0)
(10.0979 0.0781182 0)
(10.1023 0.0815897 0)
(10.1067 0.0851448 0)
(10.1111 0.088778 0)
(10.1156 0.0924829 0)
(10.1202 0.0962516 0)
(10.1247 0.100076 0)
(10.1294 0.103945 0)
(10.1341 0.10785 0)
(10.1389 0.11178 0)
(10.1437 0.115714 0)
(10.0001 0.00198848 0)
(10.0009 0.00504925 0)
(10.0024 0.00801133 0)
(10.0045 0.0108828 0)
(10.0071 0.0136684 0)
(10.0102 0.0163732 0)
(10.0137 0.0190041 0)
(10.0175 0.021571 0)
(10.0215 0.0240853 0)
(10.0258 0.0265601 0)
(10.0302 0.0290087 0)
(10.0347 0.031445 0)
(10.0394 0.0338825 0)
(10.044 0.0363341 0)
(10.0487 0.038812 0)
(10.0535 0.0413275 0)
(10.0582 0.0438904 0)
(10.0629 0.0465094 0)
(10.0676 0.049192 0)
(10.0723 0.0519439 0)
(10.077 0.0547697 0)
(10.0817 0.0576722 0)
(10.0863 0.0606529 0)
(10.091 0.0637119 0)
(10.0957 0.0668478 0)
(10.1003 0.0700579 0)
(10.105 0.0733384 0)
(10.1097 0.0766843 0)
(10.1144 0.0800894 0)
(10.1192 0.0835469 0)
(10.124 0.087049 0)
(10.1288 0.0905871 0)
(10.1337 0.0941521 0)
(10.1386 0.0977346 0)
(10.1436 0.101324 0)
(10.1487 0.104902 0)
(10.0001 0.00144894 0)
(10.0009 0.00371209 0)
(10.0024 0.00590647 0)
(10.0045 0.00806098 0)
(10.0071 0.0101882 0)
(10.0102 0.012296 0)
(10.0137 0.0143922 0)
(10.0176 0.0164847 0)
(10.0217 0.0185816 0)
(10.026 0.0206909 0)
(10.0305 0.0228206 0)
(10.0351 0.0249788 0)
(10.0398 0.0271729 0)
(10.0446 0.0294102 0)
(10.0495 0.0316973 0)
(10.0544 0.03404 0)
(10.0593 0.0364435 0)
(10.0642 0.038912 0)
(10.0691 0.0414487 0)
(10.074 0.0440559 0)
(10.0789 0.0467346 0)
(10.0838 0.049485 0)
(10.0888 0.0523059 0)
(10.0937 0.0551954 0)
(10.0986 0.0581502 0)
(10.1035 0.0611663 0)
(10.1084 0.0642387 0)
(10.1134 0.0673616 0)
(10.1184 0.0705285 0)
(10.1234 0.073732 0)
(10.1284 0.0769645 0)
(10.1334 0.0802178 0)
(10.1385 0.0834831 0)
(10.1437 0.0867516 0)
(10.1488 0.0900139 0)
(10.1541 0.0932509 0)
(10.0001 0.000912295 0)
(10.0009 0.00239164 0)
(10.0024 0.00382472 0)
(10.0046 0.00526664 0)
(10.0073 0.00673779 0)
(10.0105 0.00824867 0)
(10.014 0.00980731 0)
(10.018 0.0114198 0)
(10.0222 0.0130907 0)
(10.0266 0.0148232 0)
(10.0312 0.0166204 0)
(10.036 0.0184845 0)
(10.0409 0.0204177 0)
(10.0458 0.0224218 0)
(10.0509 0.0244982 0)
(10.0559 0.0266481 0)
(10.061 0.0288721 0)
(10.0661 0.0311705 0)
(10.0713 0.0335428 0)
(10.0764 0.035988 0)
(10.0815 0.0385042 0)
(10.0866 0.0410892 0)
(10.0918 0.0437397 0)
(10.0969 0.0464518 0)
(10.1021 0.0492208 0)
(10.1072 0.0520417 0)
(10.1124 0.0549084 0)
(10.1175 0.0578145 0)
(10.1227 0.060753 0)
(10.1279 0.0637168 0)
(10.1331 0.0666979 0)
(10.1383 0.0696885 0)
(10.1436 0.0726805 0)
(10.1489 0.0756654 0)
(10.1542 0.0786346 0)
(10.1595 0.0815696 0)
(10.0001 0.000411337 0)
(10.0009 0.00109643 0)
(10.0025 0.00178313 0)
(10.0048 0.0025309 0)
(10.0076 0.00336369 0)
(10.0109 0.00429402 0)
(10.0146 0.0053297 0)
(10.0187 0.00647452 0)
(10.023 0.00772907 0)
(10.0276 0.00909207 0)
(10.0324 0.0105612 0)
(10.0374 0.0121335 0)
(10.0424 0.0138058 0)
(10.0475 0.015575 0)
(10.0528 0.0174379 0)
(10.058 0.0193912 0)
(10.0633 0.0214316 0)
(10.0686 0.0235558 0)
(10.0739 0.0257602 0)
(10.0792 0.0280407 0)
(10.0846 0.0303934 0)
(10.0899 0.0328136 0)
(10.0952 0.0352962 0)
(10.1006 0.037836 0)
(10.1059 0.040427 0)
(10.1113 0.0430631 0)
(10.1166 0.0457377 0)
(10.1219 0.0484439 0)
(10.1273 0.0511744 0)
(10.1326 0.0539218 0)
(10.138 0.0566786 0)
(10.1434 0.059437 0)
(10.1488 0.0621892 0)
(10.1542 0.0649274 0)
(10.1596 0.0676436 0)
(10.165 0.0703198 0)
(10.0001 -7.02565e-05 0)
(10.001 -0.000196284 0)
(10.0026 -0.000249706 0)
(10.005 -0.000185959 0)
(10.008 2.04029e-05 0)
(10.0115 0.000383647 0)
(10.0154 0.000910551 0)
(10.0197 0.00160165 0)
(10.0242 0.00245305 0)
(10.029 0.00345825 0)
(10.034 0.00460949 0)
(10.0391 0.00589848 0)
(10.0444 0.00731692 0)
(10.0497 0.00885679 0)
(10.0551 0.0105105 0)
(10.0605 0.0122707 0)
(10.066 0.0141306 0)
(10.0715 0.0160835 0)
(10.077 0.0181231 0)
(10.0825 0.0202429 0)
(10.0881 0.0224367 0)
(10.0936 0.024698 0)
(10.0991 0.0270203 0)
(10.1046 0.029397 0)
(10.1101 0.0318212 0)
(10.1156 0.0342859 0)
(10.1211 0.036784 0)
(10.1266 0.0393082 0)
(10.1321 0.0418511 0)
(10.1376 0.0444052 0)
(10.1431 0.0469631 0)
(10.1486 0.0495172 0)
(10.1541 0.0520602 0)