/*--------------------------------*- C++ -*----------------------------------*\
| =========                 |                                                 |
| \\      /  F ield         | OpenFOAM: The Open Source CFD Toolbox           |
|  \\    /   O peration     | Version:  2.4.0                                 |
|   \\  /    A nd           | Web:      www.OpenFOAM.org                      |
|    \\/     M anipulation  |                                                 |
\*---------------------------------------------------------------------------*/
FoamFile
{
    version     2.0;
    format      ascii;
    class       volScalarField;
    location    "1.17";
    object      nut;
}
// * * * * * * * * * * * * * * * * * * * * * * * * * * * * * * * * * * * * * //

dimensions      [0 2 -1 0 0 0 0];

internalField   nonuniform List<scalar> 
6000
(
4.70205e-05
1.43946e-05
4.34274e-06
8.75106e-06
7.85036e-06
9.22444e-06
9.25345e-06
9.206e-06
6.65608e-06
3.7992e-06
6.135e-06
6.94648e-06
1.1521e-05
2.01761e-05
2.89286e-05
3.62507e-05
4.09391e-05
4.23334e-05
4.03935e-05
3.57767e-05
2.93839e-05
2.208e-05
1.47227e-05
8.86518e-06
7.10741e-06
1.04319e-05
1.29069e-05
1.48177e-05
1.64611e-05
1.80037e-05
1.9521e-05
2.10251e-05
2.24865e-05
2.38555e-05
2.50821e-05
2.6133e-05
2.70004e-05
2.77002e-05
2.82633e-05
2.87246e-05
2.91153e-05
2.94593e-05
2.97725e-05
3.00653e-05
3.03431e-05
3.06112e-05
3.08683e-05
3.11235e-05
3.13626e-05
3.1618e-05
3.18266e-05
3.21167e-05
3.22374e-05
3.26763e-05
3.25103e-05
3.34616e-05
3.24203e-05
3.48837e-05
3.17371e-05
3.70881e-05
2.9492e-05
9.4651e-06
3.26684e-06
7.00611e-06
6.38428e-06
7.25023e-06
7.23348e-06
7.04426e-06
5.2457e-06
3.99899e-06
5.72833e-06
7.04961e-06
1.09333e-05
1.6181e-05
2.08307e-05
2.41457e-05
2.57346e-05
2.55348e-05
2.37847e-05
2.09222e-05
1.7312e-05
1.33011e-05
9.50672e-06
7.26045e-06
7.41074e-06
9.1713e-06
1.05544e-05
1.16803e-05
1.26745e-05
1.36052e-05
1.44993e-05
1.53561e-05
1.61595e-05
1.68881e-05
1.75244e-05
1.80605e-05
1.84997e-05
1.88545e-05
1.91423e-05
1.93804e-05
1.95837e-05
1.97633e-05
1.99267e-05
2.00789e-05
2.02226e-05
2.03605e-05
2.04925e-05
2.06227e-05
2.07452e-05
2.08745e-05
2.09825e-05
2.11271e-05
2.11948e-05
2.14077e-05
2.13422e-05
2.17949e-05
2.13159e-05
2.24848e-05
2.09929e-05
2.34121e-05
2.14313e-05
8.13306e-06
2.89201e-06
5.89672e-06
5.39458e-06
5.87956e-06
5.82046e-06
5.57744e-06
4.44543e-06
4.36262e-06
5.6881e-06
7.29361e-06
1.02773e-05
1.34161e-05
1.5705e-05
1.6838e-05
1.6841e-05
1.59332e-05
1.44731e-05
1.26902e-05
1.07001e-05
8.67074e-06
7.17795e-06
7.09695e-06
7.52994e-06
8.30185e-06
9.01496e-06
9.64924e-06
1.02298e-05
1.07724e-05
1.12813e-05
1.17533e-05
1.21817e-05
1.256e-05
1.28842e-05
1.31547e-05
1.33756e-05
1.35544e-05
1.36995e-05
1.38192e-05
1.39205e-05
1.40088e-05
1.40876e-05
1.41596e-05
1.42266e-05
1.429e-05
1.435e-05
1.44088e-05
1.44642e-05
1.45221e-05
1.45717e-05
1.46358e-05
1.46696e-05
1.47621e-05
1.4741e-05
1.4935e-05
1.4736e-05
1.52369e-05
1.45949e-05
1.54924e-05
1.78739e-05
7.95209e-06
3.04986e-06
5.28339e-06
4.78425e-06
4.95174e-06
4.85426e-06
4.62722e-06
4.12365e-06
4.81968e-06
5.89412e-06
7.48241e-06
9.61075e-06
1.13607e-05
1.22205e-05
1.21713e-05
1.14669e-05
1.04313e-05
9.3682e-06
8.34391e-06
7.38517e-06
6.66444e-06
6.80264e-06
7.75238e-06
7.75683e-06
7.87253e-06
8.13212e-06
8.42677e-06
8.72067e-06
8.99943e-06
9.25599e-06
9.48658e-06
9.68945e-06
9.86428e-06
1.00118e-05
1.01334e-05
1.02315e-05
1.0309e-05
1.03694e-05
1.04161e-05
1.04523e-05
1.04806e-05
1.0503e-05
1.05211e-05
1.0536e-05
1.05489e-05
1.05601e-05
1.05707e-05
1.05805e-05
1.05911e-05
1.06002e-05
1.06138e-05
1.06199e-05
1.06438e-05
1.06341e-05
1.06923e-05
1.06222e-05
1.07821e-05
1.05559e-05
1.06863e-05
1.67533e-05
8.43457e-06
3.58857e-06
5.07777e-06
4.50515e-06
4.37634e-06
4.24462e-06
4.09463e-06
4.21207e-06
5.34229e-06
6.22677e-06
7.58491e-06
8.98458e-06
9.79767e-06
9.81677e-06
9.22484e-06
8.37749e-06
7.59015e-06
7.00147e-06
6.58002e-06
6.3674e-06
6.65771e-06
8.01266e-06
8.9455e-06
8.31172e-06
7.93008e-06
7.83759e-06
7.86758e-06
7.94281e-06
8.02798e-06
8.1074e-06
8.17525e-06
8.23059e-06
8.27447e-06
8.30812e-06
8.33225e-06
8.34715e-06
8.35309e-06
8.35067e-06
8.34086e-06
8.32491e-06
8.30409e-06
8.27963e-06
8.25258e-06
8.22386e-06
8.19422e-06
8.16437e-06
8.13477e-06
8.10612e-06
8.07846e-06
8.05283e-06
8.02835e-06
8.00691e-06
7.98634e-06
7.96845e-06
7.95316e-06
7.93069e-06
7.92124e-06
7.87658e-06
7.64974e-06
1.71072e-05
9.3925e-06
4.44142e-06
5.20093e-06
4.53507e-06
4.10947e-06
3.94732e-06
3.93297e-06
4.66703e-06
5.9238e-06
6.61073e-06
7.64405e-06
8.46683e-06
8.68048e-06
8.2977e-06
7.63652e-06
7.07656e-06
6.85228e-06
6.86898e-06
7.04059e-06
7.4858e-06
8.65242e-06
1.05668e-05
1.06346e-05
9.34867e-06
8.52752e-06
8.11924e-06
7.9158e-06
7.8065e-06
7.7368e-06
7.68092e-06
7.62791e-06
7.57426e-06
7.51963e-06
7.46437e-06
7.40847e-06
7.35129e-06
7.29199e-06
7.22991e-06
7.16478e-06
7.09676e-06
7.02632e-06
6.95413e-06
6.88089e-06
6.80737e-06
6.7342e-06
6.66218e-06
6.59166e-06
6.52369e-06
6.45782e-06
6.39634e-06
6.33608e-06
6.28382e-06
6.22765e-06
6.18883e-06
6.12915e-06
6.11068e-06
6.0196e-06
6.03561e-06
5.66773e-06
1.83884e-05
1.07081e-05
5.56579e-06
5.57205e-06
4.84917e-06
4.13747e-06
3.95043e-06
4.1331e-06
5.44014e-06
6.57076e-06
7.03006e-06
7.7301e-06
8.13908e-06
8.04613e-06
7.64238e-06
7.3517e-06
7.56727e-06
8.36253e-06
9.29e-06
1.01559e-05
1.11507e-05
1.27379e-05
1.40404e-05
1.28626e-05
1.09604e-05
9.71108e-06
8.99027e-06
8.56082e-06
8.28176e-06
8.07754e-06
7.90883e-06
7.75605e-06
7.61023e-06
7.46801e-06
7.32867e-06
7.19229e-06
7.05885e-06
6.92791e-06
6.79868e-06
6.6704e-06
6.54249e-06
6.41472e-06
6.28721e-06
6.16032e-06
6.03465e-06
5.91077e-06
5.78952e-06
5.67136e-06
5.55748e-06
5.44753e-06
5.3441e-06
5.24378e-06
5.15435e-06
5.06212e-06
4.99248e-06
4.89857e-06
4.86022e-06
4.72816e-06
4.74361e-06
4.34334e-06
2.02058e-05
1.22779e-05
6.91728e-06
6.14046e-06
5.38895e-06
4.45781e-06
4.26068e-06
4.70419e-06
6.46317e-06
7.30123e-06
7.51241e-06
7.92259e-06
8.09146e-06
7.97836e-06
7.95138e-06
8.58606e-06
1.03365e-05
1.28176e-05
1.49628e-05
1.63739e-05
1.73385e-05
1.82588e-05
1.79472e-05
1.56168e-05
1.31626e-05
1.14926e-05
1.04552e-05
9.79913e-06
9.35685e-06
9.02954e-06
8.76076e-06
8.51887e-06
8.28715e-06
8.05812e-06
7.83008e-06
7.60436e-06
7.38306e-06
7.16756e-06
6.95802e-06
6.75367e-06
6.55336e-06
6.35611e-06
6.16136e-06
5.96902e-06
5.77944e-06
5.59317e-06
5.41112e-06
5.23393e-06
5.06298e-06
4.89825e-06
4.7424e-06
4.59266e-06
4.45634e-06
4.32114e-06
4.21066e-06
4.08128e-06
4.00832e-06
3.84934e-06
3.83448e-06
3.44923e-06
2.22481e-05
1.40014e-05
8.44291e-06
6.89984e-06
6.06929e-06
5.05031e-06
4.87996e-06
5.63903e-06
7.65895e-06
8.14332e-06
8.10811e-06
8.30393e-06
8.42148e-06
8.6015e-06
9.44497e-06
1.17836e-05
1.59882e-05
2.04166e-05
2.33829e-05
2.45757e-05
2.45935e-05
2.39353e-05
2.19272e-05
1.8771e-05
1.58723e-05
1.3818e-05
1.24749e-05
1.15983e-05
1.10011e-05
1.05612e-05
1.02026e-05
9.87918e-06
9.56486e-06
9.24743e-06
8.9245e-06
8.59952e-06
8.27797e-06
7.9643e-06
7.66053e-06
7.36636e-06
7.08017e-06
6.80008e-06
6.52466e-06
6.25321e-06
5.98573e-06
5.72272e-06
5.4652e-06
5.21412e-06
4.97118e-06
4.73688e-06
4.51408e-06
4.30094e-06
4.10423e-06
3.9139e-06
3.75035e-06
3.57671e-06
3.45711e-06
3.27002e-06
3.20975e-06
2.8532e-06
2.42805e-05
1.57845e-05
1.00828e-05
7.85257e-06
6.83221e-06
5.85128e-06
5.77133e-06
6.87377e-06
8.96354e-06
9.13121e-06
8.87666e-06
8.95706e-06
9.23506e-06
1.00783e-05
1.24138e-05
1.72706e-05
2.4156e-05
2.95983e-05
3.22617e-05
3.2447e-05
3.11002e-05
2.88587e-05
2.57112e-05
2.20933e-05
1.89047e-05
1.65492e-05
1.49433e-05
1.38707e-05
1.31371e-05
1.26007e-05
1.21656e-05
1.17701e-05
1.13785e-05
1.09739e-05
1.05539e-05
1.01246e-05
9.69566e-06
9.27537e-06
8.86824e-06
8.47481e-06
8.09306e-06
7.72003e-06
7.35318e-06
6.99091e-06
6.63276e-06
6.27907e-06
5.93102e-06
5.58996e-06
5.25807e-06
4.93663e-06
4.62902e-06
4.33458e-06
4.05998e-06
3.79755e-06
3.56509e-06
3.3325e-06
3.15291e-06
2.92728e-06
2.81124e-06
2.47931e-06
2.61514e-05
1.75467e-05
1.17753e-05
8.98372e-06
7.67343e-06
6.76551e-06
6.84104e-06
8.28055e-06
1.0336e-05
1.0299e-05
9.87854e-06
9.96328e-06
1.06429e-05
1.25791e-05
1.70326e-05
2.46663e-05
3.3133e-05
3.81282e-05
3.96562e-05
3.86221e-05
3.60903e-05
3.27799e-05
2.90827e-05
2.53064e-05
2.20057e-05
1.94745e-05
1.76851e-05
1.64665e-05
1.56313e-05
1.5025e-05
1.45339e-05
1.40816e-05
1.3623e-05
1.31383e-05
1.26258e-05
1.20953e-05
1.15608e-05
1.10347e-05
1.05241e-05
1.00308e-05
9.55202e-06
9.08373e-06
8.62187e-06
8.16366e-06
7.70781e-06
7.25434e-06
6.80445e-06
6.35991e-06
5.9235e-06
5.49748e-06
5.0861e-06
4.69022e-06
4.31709e-06
3.96156e-06
3.64013e-06
3.32867e-06
3.07204e-06
2.79085e-06
2.60767e-06
2.28739e-06
2.77847e-05
1.92257e-05
1.34628e-05
1.02588e-05
8.61558e-06
7.72301e-06
7.96995e-06
9.71577e-06
1.17523e-05
1.16732e-05
1.11684e-05
1.13969e-05
1.27441e-05
1.62053e-05
2.3117e-05
3.28464e-05
4.12425e-05
4.49428e-05
4.51449e-05
4.30483e-05
3.96644e-05
3.57893e-05
3.19053e-05
2.81676e-05
2.49128e-05
2.23472e-05
2.04801e-05
1.91883e-05
1.83036e-05
1.76671e-05
1.71512e-05
1.66662e-05
1.61592e-05
1.56087e-05
1.50161e-05
1.43959e-05
1.3767e-05
1.31458e-05
1.25421e-05
1.19584e-05
1.13915e-05
1.08358e-05
1.02855e-05
9.73606e-06
9.18504e-06
8.63169e-06
8.07695e-06
7.52271e-06
6.97227e-06
6.42882e-06
5.89773e-06
5.38157e-06
4.88893e-06
4.41737e-06
3.98368e-06
3.5691e-06
3.21368e-06
2.85439e-06
2.58854e-06
2.26243e-06
2.91601e-05
2.07789e-05
1.5096e-05
1.16314e-05
9.67289e-06
8.70974e-06
9.07341e-06
1.10748e-05
1.31955e-05
1.32637e-05
1.27875e-05
1.33151e-05
1.55974e-05
2.09029e-05
3.01005e-05
4.06943e-05
4.79125e-05
5.01192e-05
4.91106e-05
4.61575e-05
4.21794e-05
3.80583e-05
3.41394e-05
3.05275e-05
2.74193e-05
2.49398e-05
2.31035e-05
2.18225e-05
2.09521e-05
2.03363e-05
1.98383e-05
1.93563e-05
1.88299e-05
1.82374e-05
1.75852e-05
1.68944e-05
1.61898e-05
1.54923e-05
1.4814e-05
1.41582e-05
1.35211e-05
1.28953e-05
1.22729e-05
1.16472e-05
1.10143e-05
1.0372e-05
9.7204e-06
9.06109e-06
8.3974e-06
7.73304e-06
7.07433e-06
6.4254e-06
5.79658e-06
5.18825e-06
4.61899e-06
4.0751e-06
3.59541e-06
3.13095e-06
2.76157e-06
2.40965e-06
3.02912e-05
2.21823e-05
1.66369e-05
1.30503e-05
1.08401e-05
9.74543e-06
1.01388e-05
1.23246e-05
1.46495e-05
1.50551e-05
1.47558e-05
1.5745e-05
1.91917e-05
2.64428e-05
3.73159e-05
4.7666e-05
5.33031e-05
5.40998e-05
5.20327e-05
4.83679e-05
4.39739e-05
3.97392e-05
3.58253e-05
3.2345e-05
2.94152e-05
2.70929e-05
2.53717e-05
2.41779e-05
2.33854e-05
2.28454e-05
2.24152e-05
2.1982e-05
2.14768e-05
2.08769e-05
2.01943e-05
1.94588e-05
1.87031e-05
1.7953e-05
1.72239e-05
1.65198e-05
1.58362e-05
1.51639e-05
1.44928e-05
1.3814e-05
1.31212e-05
1.24107e-05
1.16812e-05
1.09332e-05
1.01692e-05
9.39277e-06
8.61054e-06
7.82752e-06
7.05554e-06
6.29742e-06
5.57441e-06
4.87765e-06
4.24785e-06
3.64911e-06
3.15094e-06
2.75203e-06
3.12074e-05
2.34269e-05
1.80593e-05
1.44664e-05
1.20947e-05
1.08508e-05
1.11984e-05
1.34794e-05
1.60983e-05
1.70174e-05
1.70659e-05
1.86744e-05
2.34387e-05
3.25012e-05
4.42914e-05
5.37246e-05
5.77694e-05
5.72865e-05
5.42648e-05
4.99699e-05
4.52838e-05
4.09663e-05
3.70479e-05
3.36625e-05
3.08891e-05
2.87389e-05
2.71752e-05
2.61195e-05
2.54548e-05
2.50385e-05
2.47248e-05
2.43903e-05
2.3955e-05
2.33916e-05
2.27164e-05
2.19686e-05
2.11906e-05
2.04152e-05
1.96615e-05
1.89349e-05
1.82307e-05
1.75382e-05
1.68451e-05
1.61402e-05
1.54151e-05
1.46639e-05
1.38834e-05
1.30725e-05
1.22322e-05
1.1365e-05
1.04767e-05
9.57213e-06
8.66371e-06
7.75562e-06
6.87172e-06
6.00715e-06
5.20676e-06
4.44714e-06
3.79419e-06
3.32761e-06
3.19431e-05
2.45145e-05
1.9348e-05
1.58365e-05
1.34027e-05
1.20325e-05
1.22856e-05
1.45905e-05
1.75282e-05
1.91002e-05
1.9682e-05
2.20502e-05
2.81936e-05
3.87734e-05
5.0826e-05
5.90537e-05
6.16223e-05
5.99522e-05
5.60287e-05
5.11435e-05
4.6264e-05
4.18448e-05
3.79015e-05
3.45654e-05
3.18999e-05
2.98941e-05
2.84873e-05
2.7587e-05
2.70756e-05
2.68139e-05
2.66543e-05
2.64629e-05
2.61463e-05
2.56677e-05
2.50435e-05
2.43211e-05
2.35531e-05
2.27811e-05
2.20294e-05
2.13061e-05
2.06068e-05
1.99198e-05
1.92312e-05
1.85279e-05
1.77992e-05
1.70373e-05
1.62368e-05
1.53945e-05
1.45097e-05
1.35825e-05
1.26173e-05
1.16172e-05
1.05939e-05
9.55132e-06
8.51487e-06
7.48192e-06
6.50247e-06
5.56425e-06
4.7359e-06
4.18435e-06
3.25311e-05
2.54546e-05
2.04977e-05
1.7126e-05
1.47246e-05
1.32806e-05
1.34231e-05
1.57074e-05
1.89295e-05
2.12405e-05
2.25422e-05
2.57877e-05
3.32923e-05
4.50419e-05
5.69046e-05
6.3865e-05
6.50738e-05
6.22601e-05
5.7453e-05
5.20297e-05
4.69828e-05
4.245e-05
3.84683e-05
3.51462e-05
3.25388e-05
3.06302e-05
2.93488e-05
2.85903e-05
2.82314e-05
2.81334e-05
2.81469e-05
2.81292e-05
2.79713e-05
2.76224e-05
2.70932e-05
2.64353e-05
2.5711e-05
2.49714e-05
2.42477e-05
2.35517e-05
2.28804e-05
2.22221e-05
2.15618e-05
2.08851e-05
2.01797e-05
1.94359e-05
1.86464e-05
1.78059e-05
1.69114e-05
1.59606e-05
1.49552e-05
1.38959e-05
1.27923e-05
1.1646e-05
1.04823e-05
9.29828e-06
8.14871e-06
7.02953e-06
6.0179e-06
5.37136e-06
3.30004e-05
2.62606e-05
2.151e-05
1.83102e-05
1.60203e-05
1.45721e-05
1.46176e-05
1.68533e-05
2.03098e-05
2.33716e-05
2.55654e-05
2.97834e-05
3.85799e-05
5.11799e-05
6.25906e-05
6.83225e-05
6.82469e-05
6.42962e-05
5.86076e-05
5.27184e-05
4.74786e-05
4.28325e-05
3.88105e-05
3.54841e-05
3.28981e-05
3.10401e-05
2.98399e-05
2.91894e-05
2.89611e-05
2.90152e-05
2.92014e-05
2.93696e-05
2.93953e-05
2.92102e-05
2.88135e-05
2.82562e-05
2.76076e-05
2.69279e-05
2.62558e-05
2.56081e-05
2.49844e-05
2.43739e-05
2.37617e-05
2.31324e-05
2.24729e-05
2.17722e-05
2.10215e-05
2.02137e-05
1.93434e-05
1.8406e-05
1.74003e-05
1.63237e-05
1.51827e-05
1.39751e-05
1.27246e-05
1.14247e-05
1.01337e-05
8.85104e-06
7.6675e-06
6.92717e-06
3.3375e-05
2.69478e-05
2.23925e-05
1.93743e-05
1.72532e-05
1.5875e-05
1.58613e-05
1.80375e-05
2.16883e-05
2.54408e-05
2.86588e-05
3.39259e-05
4.39227e-05
5.71189e-05
6.7954e-05
7.25249e-05
7.11974e-05
6.6096e-05
5.95378e-05
5.32545e-05
4.77765e-05
4.30244e-05
3.89706e-05
3.56376e-05
3.30542e-05
3.12123e-05
3.00515e-05
2.94686e-05
2.93369e-05
2.95173e-05
2.98596e-05
3.02085e-05
3.04255e-05
3.04232e-05
3.01855e-05
2.97571e-05
2.92108e-05
2.86143e-05
2.80139e-05
2.74317e-05
2.6871e-05
2.63228e-05
2.57731e-05
2.52068e-05
2.46103e-05
2.39722e-05
2.32827e-05
2.25333e-05
2.17169e-05
2.08268e-05
1.98588e-05
1.88072e-05
1.76748e-05
1.64549e-05
1.5168e-05
1.38015e-05
1.2416e-05
1.10079e-05
9.68631e-06
8.86717e-06
3.36744e-05
2.75315e-05
2.31556e-05
2.0312e-05
1.83933e-05
1.7153e-05
1.71337e-05
1.92562e-05
2.30679e-05
2.74341e-05
3.17257e-05
3.81042e-05
4.92044e-05
6.28119e-05
7.30352e-05
7.65086e-05
7.39322e-05
6.76626e-05
6.03183e-05
5.36186e-05
4.78908e-05
4.30458e-05
3.89763e-05
3.56464e-05
3.30625e-05
3.12184e-05
3.0066e-05
2.95138e-05
2.94422e-05
2.97161e-05
3.01879e-05
3.06995e-05
3.11009e-05
3.12857e-05
3.12199e-05
3.09383e-05
3.0513e-05
3.00171e-05
2.95032e-05
2.8999e-05
2.85119e-05
2.80357e-05
2.75578e-05
2.70643e-05
2.65421e-05
2.59797e-05
2.53672e-05
2.46954e-05
2.39561e-05
2.31408e-05
2.22432e-05
2.12547e-05
2.01747e-05
1.89916e-05
1.77224e-05
1.63467e-05
1.49265e-05
1.3448e-05
1.20433e-05
1.11741e-05
3.39142e-05
2.80264e-05
2.3812e-05
2.11247e-05
1.94185e-05
1.83696e-05
1.84056e-05
2.04949e-05
2.44435e-05
2.93379e-05
3.47056e-05
4.22119e-05
5.43168e-05
6.8204e-05
7.78294e-05
8.0255e-05
7.64224e-05
6.90067e-05
6.09695e-05
5.38014e-05
4.78291e-05
4.29096e-05
3.88452e-05
3.55359e-05
3.29599e-05
3.11094e-05
2.99479e-05
2.9399e-05
2.93553e-05
2.96899e-05
3.02606e-05
3.09094e-05
3.1478e-05
3.18426e-05
3.19499e-05
3.18222e-05
3.1528e-05
3.11428e-05
3.07245e-05
3.03058e-05
2.98982e-05
2.94987e-05
2.90971e-05
2.8681e-05
2.82384e-05
2.77586e-05
2.72322e-05
2.66499e-05
2.60031e-05
2.52823e-05
2.448e-05
2.3585e-05
2.25945e-05
2.14923e-05
2.02925e-05
1.89657e-05
1.75758e-05
1.60922e-05
1.46744e-05
1.37947e-05
3.41067e-05
2.84456e-05
2.43748e-05
2.18189e-05
2.03158e-05
1.94918e-05
1.96419e-05
2.17295e-05
2.58011e-05
3.1142e-05
3.75289e-05
4.62064e-05
5.91516e-05
7.32132e-05
8.22796e-05
8.36955e-05
7.86094e-05
7.01994e-05
6.1439e-05
5.37952e-05
4.75958e-05
4.26248e-05
3.85894e-05
3.53221e-05
3.27695e-05
3.09186e-05
2.97427e-05
2.91809e-05
2.91408e-05
2.95076e-05
3.01473e-05
3.09057e-05
3.1619e-05
3.21483e-05
3.24214e-05
3.24461e-05
3.22848e-05
3.20138e-05
3.16945e-05
3.13639e-05
3.10374e-05
3.07153e-05
3.039e-05
3.00512e-05
2.96886e-05
2.92929e-05
2.88554e-05
2.83676e-05
2.78211e-05
2.72062e-05
2.65149e-05
2.57349e-05
2.48615e-05
2.38754e-05
2.27886e-05
2.15632e-05
2.0266e-05
1.88443e-05
1.74897e-05
1.66449e-05
3.42616e-05
2.88008e-05
2.48568e-05
2.24052e-05
2.10806e-05
2.04932e-05
2.08063e-05
2.29295e-05
2.71186e-05
3.28383e-05
4.01267e-05
4.99801e-05
6.3678e-05
7.77803e-05
8.62721e-05
8.67409e-05
8.05318e-05
7.11736e-05
6.16917e-05
5.35932e-05
4.71943e-05
4.21985e-05
3.82182e-05
3.50162e-05
3.25058e-05
3.06668e-05
2.948e-05
2.8899e-05
2.88472e-05
2.92241e-05
2.9907e-05
3.07482e-05
3.15821e-05
3.22574e-05
3.26837e-05
3.28534e-05
3.28212e-05
3.26624e-05
3.24408e-05
3.21968e-05
3.19494e-05
3.17019e-05
3.14496e-05
3.11846e-05
3.08986e-05
3.05838e-05
3.02331e-05
2.98388e-05
2.93937e-05
2.88885e-05
2.83154e-05
2.76619e-05
2.69229e-05
2.60771e-05
2.5136e-05
2.40539e-05
2.29026e-05
2.16038e-05
2.03855e-05
1.96213e-05
3.43866e-05
2.91018e-05
2.52698e-05
2.28961e-05
2.17157e-05
2.13554e-05
2.18642e-05
2.40602e-05
2.83667e-05
3.44153e-05
4.24519e-05
5.34174e-05
6.77867e-05
8.18449e-05
8.97709e-05
8.93647e-05
8.21341e-05
7.1871e-05
6.17011e-05
5.31895e-05
4.66279e-05
4.1638e-05
3.77396e-05
3.46267e-05
3.21783e-05
3.03663e-05
2.91776e-05
2.85785e-05
2.85077e-05
2.88797e-05
2.95853e-05
3.04859e-05
3.14174e-05
3.22191e-05
3.27838e-05
3.30878e-05
3.31771e-05
3.31249e-05
3.29964e-05
3.28348e-05
3.26617e-05
3.24838e-05
3.22991e-05
3.21019e-05
3.18863e-05
3.16462e-05
3.13762e-05
3.10703e-05
3.07222e-05
3.03241e-05
2.98689e-05
2.93449e-05
2.87478e-05
2.80552e-05
2.72799e-05
2.63702e-05
2.5405e-05
2.42785e-05
2.32588e-05
2.26164e-05
3.44875e-05
2.93573e-05
2.56244e-05
2.33051e-05
2.22296e-05
2.20694e-05
2.27868e-05
2.50858e-05
2.95113e-05
3.58549e-05
4.44793e-05
5.64221e-05
7.13801e-05
8.53432e-05
9.27297e-05
9.15205e-05
8.33533e-05
7.2244e-05
6.14466e-05
5.25804e-05
4.59016e-05
4.09512e-05
3.71618e-05
3.41611e-05
3.17941e-05
3.00249e-05
2.88459e-05
2.82346e-05
2.81437e-05
2.85025e-05
2.92156e-05
3.01563e-05
3.11647e-05
3.20742e-05
3.2762e-05
3.31888e-05
3.33905e-05
3.34373e-05
3.33954e-05
3.33099e-05
3.32052e-05
3.30905e-05
3.29665e-05
3.28299e-05
3.26769e-05
3.25035e-05
3.2306e-05
3.20801e-05
3.18212e-05
3.15229e-05
3.11798e-05
3.07814e-05
3.03249e-05
2.97886e-05
2.91877e-05
2.84664e-05
2.77127e-05
2.67933e-05
2.60191e-05
2.55318e-05
3.45693e-05
2.95744e-05
2.593e-05
2.36454e-05
2.26351e-05
2.26347e-05
2.3553e-05
2.59733e-05
3.05167e-05
3.71311e-05
4.62007e-05
5.89257e-05
7.43766e-05
8.82139e-05
9.5095e-05
9.31518e-05
8.41302e-05
7.22549e-05
6.09133e-05
5.17652e-05
4.50222e-05
4.01474e-05
3.64938e-05
3.3627e-05
3.13597e-05
2.96484e-05
2.84911e-05
2.78761e-05
2.77682e-05
2.81102e-05
2.88211e-05
2.97867e-05
3.08545e-05
3.18546e-05
3.26514e-05
3.31894e-05
3.34942e-05
3.36321e-05
3.36694e-05
3.36533e-05
3.36102e-05
3.35518e-05
3.34812e-05
3.33976e-05
3.3299e-05
3.31835e-05
3.30493e-05
3.28937e-05
3.2714e-05
3.25055e-05
3.22646e-05
3.19828e-05
3.16595e-05
3.12745e-05
3.08469e-05
3.03181e-05
2.97875e-05
2.90952e-05
2.85964e-05
2.82882e-05
3.46356e-05
2.9759e-05
2.61942e-05
2.39294e-05
2.29473e-05
2.30585e-05
2.41511e-05
2.66954e-05
3.13485e-05
3.82114e-05
4.76158e-05
6.08916e-05
7.67147e-05
9.04025e-05
9.68131e-05
9.42019e-05
8.44152e-05
7.1876e-05
6.00926e-05
5.07473e-05
4.3999e-05
3.92375e-05
3.57454e-05
3.30325e-05
3.08812e-05
2.92413e-05
2.81173e-05
2.75075e-05
2.73881e-05
2.77137e-05
2.84166e-05
2.9396e-05
3.05088e-05
3.15848e-05
3.24775e-05
3.31164e-05
3.35155e-05
3.37367e-05
3.38462e-05
3.38926e-05
3.39045e-05
3.38958e-05
3.38716e-05
3.38334e-05
3.37812e-05
3.37149e-05
3.36345e-05
3.35391e-05
3.34277e-05
3.32976e-05
3.31471e-05
3.297e-05
3.27684e-05
3.25242e-05
3.22612e-05
3.19199e-05
3.16119e-05
3.11533e-05
3.09436e-05
3.08295e-05
3.46894e-05
2.99161e-05
2.64238e-05
2.4168e-05
2.31822e-05
2.33543e-05
2.45794e-05
2.72331e-05
3.19774e-05
3.90603e-05
4.87237e-05
6.23143e-05
7.83581e-05
9.1867e-05
9.78378e-05
9.46226e-05
8.41722e-05
7.10906e-05
5.89831e-05
4.95344e-05
4.2844e-05
3.82342e-05
3.49275e-05
3.23862e-05
3.03651e-05
2.88084e-05
2.77276e-05
2.71317e-05
2.70071e-05
2.73189e-05
2.80115e-05
2.8997e-05
3.01432e-05
3.12824e-05
3.22596e-05
3.299e-05
3.34757e-05
3.37734e-05
3.39487e-05
3.40515e-05
3.41123e-05
3.41469e-05
3.41627e-05
3.4163e-05
3.41498e-05
3.41247e-05
3.40892e-05
3.40443e-05
3.39906e-05
3.39272e-05
3.38547e-05
3.3769e-05
3.36751e-05
3.35579e-05
3.34459e-05
3.32802e-05
3.31854e-05
3.29565e-05
3.3036e-05
3.31221e-05
3.47331e-05
3.00501e-05
2.6624e-05
2.43706e-05
2.33557e-05
2.35393e-05
2.48455e-05
2.75774e-05
3.23817e-05
3.96437e-05
4.95167e-05
6.32132e-05
7.92985e-05
9.25835e-05
9.81374e-05
9.43808e-05
8.33811e-05
6.98941e-05
5.75912e-05
4.8139e-05
4.1572e-05
3.71516e-05
3.40521e-05
3.16973e-05
2.98182e-05
2.83544e-05
2.73251e-05
2.67506e-05
2.6627e-05
2.6929e-05
2.7611e-05
2.85978e-05
2.97684e-05
3.09601e-05
3.20118e-05
3.28255e-05
3.33913e-05
3.37596e-05
3.39951e-05
3.4149e-05
3.42532e-05
3.43258e-05
3.4376e-05
3.44088e-05
3.44281e-05
3.4437e-05
3.44385e-05
3.44352e-05
3.44293e-05
3.44217e-05
3.44149e-05
3.44072e-05
3.44066e-05
3.44007e-05
3.44235e-05
3.44175e-05
3.45201e-05
3.45087e-05
3.48669e-05
3.51525e-05
3.47687e-05
3.01643e-05
2.67993e-05
2.45449e-05
2.34822e-05
2.36335e-05
2.49643e-05
2.773e-05
3.25504e-05
3.99341e-05
4.99786e-05
6.36213e-05
7.95557e-05
9.25504e-05
9.76995e-05
9.34631e-05
8.20392e-05
6.82942e-05
5.59315e-05
4.65788e-05
4.02005e-05
3.60054e-05
3.3132e-05
3.09753e-05
2.92476e-05
2.78844e-05
2.69131e-05
2.63658e-05
2.62489e-05
2.65451e-05
2.72179e-05
2.8203e-05
2.93913e-05
3.06266e-05
3.17443e-05
3.26342e-05
3.32744e-05
3.37086e-05
3.39998e-05
3.42001e-05
3.43434e-05
3.44494e-05
3.45291e-05
3.45894e-05
3.46355e-05
3.46723e-05
3.4704e-05
3.47345e-05
3.47677e-05
3.48059e-05
3.48536e-05
3.49112e-05
3.49896e-05
3.50794e-05
3.52199e-05
3.53553e-05
3.56362e-05
3.5825e-05
3.64438e-05
3.69224e-05
3.47975e-05
3.02618e-05
2.69534e-05
2.46971e-05
2.35746e-05
2.3657e-05
2.49568e-05
2.77027e-05
3.24839e-05
3.99149e-05
5.00879e-05
6.35734e-05
7.91733e-05
9.17905e-05
9.65348e-05
9.18777e-05
8.01613e-05
6.63107e-05
5.40266e-05
4.48757e-05
3.87495e-05
3.48126e-05
3.21806e-05
3.02304e-05
2.86604e-05
2.74034e-05
2.6495e-05
2.59793e-05
2.58734e-05
2.61677e-05
2.68333e-05
2.78156e-05
2.90166e-05
3.02882e-05
3.14642e-05
3.24242e-05
3.31341e-05
3.36302e-05
3.39734e-05
3.42167e-05
3.43954e-05
3.45309e-05
3.46362e-05
3.47198e-05
3.47882e-05
3.48476e-05
3.49037e-05
3.49616e-05
3.50262e-05
3.51016e-05
3.51939e-05
3.53054e-05
3.54497e-05
3.56203e-05
3.58613e-05
3.61196e-05
3.65578e-05
3.69268e-05
3.77833e-05
3.84443e-05
3.4821e-05
3.0345e-05
2.7089e-05
2.48318e-05
2.36436e-05
2.36292e-05
2.48472e-05
2.75159e-05
3.21947e-05
3.95835e-05
4.98238e-05
6.30955e-05
7.82102e-05
9.03496e-05
9.4677e-05
8.96539e-05
7.77793e-05
6.39752e-05
5.19063e-05
4.3056e-05
3.72408e-05
3.35907e-05
3.12115e-05
2.94725e-05
2.80639e-05
2.69167e-05
2.60742e-05
2.55932e-05
2.55014e-05
2.57971e-05
2.64575e-05
2.74367e-05
2.8647e-05
2.99488e-05
3.11766e-05
3.22012e-05
3.29767e-05
3.35316e-05
3.39241e-05
3.42074e-05
3.44186e-05
3.45808e-05
3.47085e-05
3.48118e-05
3.48989e-05
3.49768e-05
3.50525e-05
3.51322e-05
3.52221e-05
3.53273e-05
3.54556e-05
3.5611e-05
3.58095e-05
3.60472e-05
3.63729e-05
3.67362e-05
3.73107e-05
3.78385e-05
3.89077e-05
3.97375e-05
3.48401e-05
3.04162e-05
2.72087e-05
2.49528e-05
2.36976e-05
2.35677e-05
2.4661e-05
2.71963e-05
3.17058e-05
3.89532e-05
4.91736e-05
6.22014e-05
7.67289e-05
8.82914e-05
9.21802e-05
8.68395e-05
7.49393e-05
6.13294e-05
4.96067e-05
4.11493e-05
3.56974e-05
3.23575e-05
3.02382e-05
2.87117e-05
2.74652e-05
2.64292e-05
2.56545e-05
2.52097e-05
2.51339e-05
2.54332e-05
2.60906e-05
2.70669e-05
2.82841e-05
2.96112e-05
3.0885e-05
3.19693e-05
3.2807e-05
3.34181e-05
3.38577e-05
3.4179e-05
3.44205e-05
3.46069e-05
3.47546e-05
3.4875e-05
3.49776e-05
3.50707e-05
3.51622e-05
3.52594e-05
3.53693e-05
3.54983e-05
3.56553e-05
3.5846e-05
3.60885e-05
3.63815e-05
3.67775e-05
3.72292e-05
3.792e-05
3.85856e-05
3.98416e-05
4.08251e-05
3.48556e-05
3.0477e-05
2.73145e-05
2.50625e-05
2.37432e-05
2.34872e-05
2.44229e-05
2.67744e-05
3.10494e-05
3.80522e-05
4.81402e-05
6.08952e-05
7.47845e-05
8.56884e-05
8.9113e-05
8.3505e-05
7.16991e-05
5.84227e-05
4.71692e-05
3.91875e-05
3.41431e-05
3.11307e-05
2.92739e-05
2.79574e-05
2.6871e-05
2.59459e-05
2.52392e-05
2.48311e-05
2.47722e-05
2.50763e-05
2.57322e-05
2.67062e-05
2.79286e-05
2.92772e-05
3.05919e-05
3.17314e-05
3.26282e-05
3.32935e-05
3.37786e-05
3.41363e-05
3.44064e-05
3.46154e-05
3.4781e-05
3.49165e-05
3.50323e-05
3.51379e-05
3.52422e-05
3.53532e-05
3.54789e-05
3.56267e-05
3.58065e-05
3.60255e-05
3.63035e-05
3.66413e-05
3.7095e-05
3.76203e-05
3.84089e-05
3.91925e-05
4.06102e-05
4.17315e-05
3.48681e-05
3.05291e-05
2.74081e-05
2.51629e-05
2.37849e-05
2.33997e-05
2.41555e-05
2.62821e-05
3.02635e-05
3.69222e-05
4.67457e-05
5.91795e-05
7.2418e-05
8.26117e-05
8.55501e-05
7.97381e-05
6.81231e-05
5.5311e-05
4.46386e-05
3.72038e-05
3.26015e-05
2.99269e-05
2.83308e-05
2.72188e-05
2.62879e-05
2.54712e-05
2.48317e-05
2.44599e-05
2.44176e-05
2.4727e-05
2.53822e-05
2.63544e-05
2.7581e-05
2.89478e-05
3.02991e-05
3.14898e-05
3.24428e-05
3.31606e-05
3.36899e-05
3.4083e-05
3.43805e-05
3.46107e-05
3.47929e-05
3.49417e-05
3.50689e-05
3.5185e-05
3.52996e-05
3.54216e-05
3.55599e-05
3.57224e-05
3.59203e-05
3.61617e-05
3.64679e-05
3.68418e-05
3.73426e-05
3.79283e-05
3.87984e-05
3.96815e-05
4.12374e-05
4.24805e-05
3.48783e-05
3.05737e-05
2.7491e-05
2.52552e-05
2.38258e-05
2.33144e-05
2.38781e-05
2.57497e-05
2.93889e-05
3.56142e-05
4.50327e-05
5.70661e-05
6.96567e-05
7.91221e-05
8.15636e-05
7.56032e-05
6.4279e-05
5.20538e-05
4.20616e-05
3.52316e-05
3.10951e-05
2.87619e-05
2.74202e-05
2.65039e-05
2.57215e-05
2.50094e-05
2.4435e-05
2.40982e-05
2.40715e-05
2.43859e-05
2.50405e-05
2.60113e-05
2.72412e-05
2.86236e-05
3.00077e-05
3.12459e-05
3.22526e-05
3.30213e-05
3.35939e-05
3.40216e-05
3.43458e-05
3.45962e-05
3.47939e-05
3.49548e-05
3.5092e-05
3.5217e-05
3.53401e-05
3.5471e-05
3.56191e-05
3.57933e-05
3.60052e-05
3.62642e-05
3.6593e-05
3.69957e-05
3.75344e-05
3.81693e-05
3.91065e-05
4.00729e-05
4.17455e-05
4.3095e-05
3.48865e-05
3.0612e-05
2.75644e-05
2.53405e-05
2.38677e-05
2.32375e-05
2.36065e-05
2.52048e-05
2.84661e-05
3.4185e-05
4.30622e-05
5.45853e-05
6.65222e-05
7.52672e-05
7.72177e-05
7.11683e-05
6.02369e-05
4.87136e-05
3.94858e-05
3.33028e-05
2.96448e-05
2.76494e-05
2.65518e-05
2.58199e-05
2.51772e-05
2.45642e-05
2.40519e-05
2.3748e-05
2.37354e-05
2.40536e-05
2.47073e-05
2.56765e-05
2.69091e-05
2.83051e-05
2.97187e-05
3.10009e-05
3.20587e-05
3.2877e-05
3.34922e-05
3.3954e-05
3.43044e-05
3.45744e-05
3.47868e-05
3.4959e-05
3.51052e-05
3.52378e-05
3.5368e-05
3.5506e-05
3.56619e-05
3.58452e-05
3.60682e-05
3.6341e-05
3.66874e-05
3.71131e-05
3.76821e-05
3.83569e-05
3.93489e-05
4.03842e-05
4.2154e-05
4.35955e-05
3.48931e-05
3.06449e-05
2.76295e-05
2.54193e-05
2.39114e-05
2.31732e-05
2.33522e-05
2.46706e-05
2.75327e-05
3.26922e-05
4.09083e-05
5.17905e-05
6.30427e-05
7.10857e-05
7.25685e-05
6.65013e-05
5.60696e-05
4.53542e-05
3.69575e-05
3.14477e-05
2.82692e-05
2.66012e-05
2.57336e-05
2.51727e-05
2.46593e-05
2.41387e-05
2.36846e-05
2.34113e-05
2.34108e-05
2.3731e-05
2.43829e-05
2.53499e-05
2.65846e-05
2.79925e-05
2.94326e-05
3.07557e-05
3.18622e-05
3.27288e-05
3.33861e-05
3.38817e-05
3.4258e-05
3.45473e-05
3.47739e-05
3.49566e-05
3.5111e-05
3.52503e-05
3.53864e-05
3.55303e-05
3.56924e-05
3.58828e-05
3.61145e-05
3.63981e-05
3.67584e-05
3.72021e-05
3.77952e-05
3.8502e-05
3.95383e-05
4.06301e-05
4.24805e-05
4.40005e-05
3.48984e-05
3.06732e-05
2.76872e-05
2.54921e-05
2.39571e-05
2.31235e-05
2.31234e-05
2.41655e-05
2.66215e-05
3.11904e-05
3.8652e-05
4.87587e-05
5.92644e-05
6.66185e-05
6.76705e-05
6.16727e-05
5.18533e-05
4.20396e-05
3.45208e-05
2.96929e-05
2.69836e-05
2.56268e-05
2.49721e-05
2.4567e-05
2.41714e-05
2.37355e-05
2.33352e-05
2.30895e-05
2.30987e-05
2.3419e-05
2.40674e-05
2.50315e-05
2.62674e-05
2.76856e-05
2.91497e-05
3.05108e-05
3.16639e-05
3.25776e-05
3.32765e-05
3.38058e-05
3.42078e-05
3.45161e-05
3.47565e-05
3.49494e-05
3.51114e-05
3.52567e-05
3.5398e-05
3.55467e-05
3.57138e-05
3.59098e-05
3.61482e-05
3.64403e-05
3.68113e-05
3.72693e-05
3.78814e-05
3.86136e-05
3.96856e-05
4.08234e-05
4.27397e-05
4.43262e-05
3.49026e-05
3.06976e-05
2.77384e-05
2.55594e-05
2.40045e-05
2.30888e-05
2.29247e-05
2.37025e-05
2.57586e-05
2.97274e-05
3.63737e-05
4.55847e-05
5.52593e-05
6.19218e-05
6.25876e-05
5.6762e-05
4.76688e-05
3.88327e-05
3.22156e-05
2.80607e-05
2.58003e-05
2.47328e-05
2.42718e-05
2.40064e-05
2.37163e-05
2.33569e-05
2.30052e-05
2.27839e-05
2.28003e-05
2.31184e-05
2.37614e-05
2.47212e-05
2.59573e-05
2.73846e-05
2.88705e-05
3.02669e-05
3.14644e-05
3.24239e-05
3.31641e-05
3.37269e-05
3.41547e-05
3.44819e-05
3.4736e-05
3.49387e-05
3.51079e-05
3.52587e-05
3.54045e-05
3.55572e-05
3.57284e-05
3.59289e-05
3.61726e-05
3.64711e-05
3.68506e-05
3.73196e-05
3.79467e-05
3.86991e-05
3.97995e-05
4.09744e-05
4.29443e-05
4.45866e-05
3.4906e-05
3.07188e-05
2.77839e-05
2.56215e-05
2.40532e-05
2.30686e-05
2.27581e-05
2.32902e-05
2.49636e-05
2.83425e-05
3.41469e-05
4.23723e-05
5.11254e-05
5.70771e-05
5.74036e-05
5.18624e-05
4.36004e-05
3.57926e-05
3.00759e-05
2.65684e-05
2.47274e-05
2.39238e-05
2.36354e-05
2.34931e-05
2.32958e-05
2.30042e-05
2.26958e-05
2.24956e-05
2.25164e-05
2.28298e-05
2.34653e-05
2.44191e-05
2.56543e-05
2.70892e-05
2.8595e-05
3.00244e-05
3.12642e-05
3.22684e-05
3.30493e-05
3.36457e-05
3.40993e-05
3.44454e-05
3.47131e-05
3.49254e-05
3.51015e-05
3.52574e-05
3.54073e-05
3.55635e-05
3.5738e-05