/*--------------------------------*- C++ -*----------------------------------*\
| =========                 |                                                 |
| \\      /  F ield         | OpenFOAM: The Open Source CFD Toolbox           |
|  \\    /   O peration     | Version:  2.4.0                                 |
|   \\  /    A nd           | Web:      www.OpenFOAM.org                      |
|    \\/     M anipulation  |                                                 |
\*---------------------------------------------------------------------------*/
FoamFile
{
    version     2.0;
    format      ascii;
    class       volScalarField;
    location    "6";
    object      nut;
}
// * * * * * * * * * * * * * * * * * * * * * * * * * * * * * * * * * * * * * //

dimensions      [0 2 -1 0 0 0 0];

internalField   nonuniform List<scalar> 
400
(
6.56043e-06
9.77034e-06
1.4464e-05
1.84856e-05
2.11126e-05
2.26242e-05
2.34619e-05
2.38385e-05
2.39624e-05
2.39339e-05
2.35862e-05
2.316e-05
2.25376e-05
2.19084e-05
2.12144e-05
2.05621e-05
1.99685e-05
1.93637e-05
1.78709e-05
1.64744e-05
8.7546e-06
1.6275e-05
2.01211e-05
2.05586e-05
2.10256e-05
1.8955e-05
1.83531e-05
1.79364e-05
1.86008e-05
1.99237e-05
2.10864e-05
2.23137e-05
2.4035e-05
2.49343e-05
2.69392e-05
2.82028e-05
2.89632e-05
2.84596e-05
2.57392e-05
2.20955e-05
1.17046e-05
2.12428e-05
2.124e-05
2.11241e-05
1.67968e-05
1.66047e-05
1.71916e-05
1.82647e-05
1.91407e-05
1.9585e-05
1.96824e-05
1.93396e-05
1.89917e-05
1.8898e-05
1.93835e-05
2.06925e-05
2.27491e-05
2.54649e-05
2.73326e-05
2.58004e-05
1.35224e-05
2.23057e-05
2.19198e-05
1.76618e-05
1.66496e-05
1.73914e-05
1.91921e-05
2.04213e-05
2.10711e-05
2.09883e-05
2.07258e-05
2.02733e-05
1.8827e-05
1.78606e-05
1.70138e-05
1.73267e-05
1.90665e-05
2.2285e-05
2.7044e-05
2.78753e-05
1.46195e-05
2.34301e-05
2.04305e-05
1.66841e-05
1.76031e-05
1.93174e-05
2.18391e-05
2.35101e-05
2.53908e-05
2.6354e-05
2.66975e-05
2.65965e-05
2.4364e-05
2.19319e-05
1.88546e-05
1.67957e-05
1.73086e-05
2.01995e-05
2.58114e-05
2.93139e-05
1.55602e-05
2.40089e-05
1.89795e-05
1.70651e-05
1.879e-05
2.12616e-05
2.47751e-05
2.80831e-05
3.19854e-05
3.45355e-05
3.60121e-05
3.68127e-05
3.41322e-05
2.99336e-05
2.42802e-05
1.89952e-05
1.69172e-05
1.90548e-05
2.55755e-05
3.03646e-05
1.64581e-05
2.36156e-05
1.80984e-05
1.74422e-05
1.98751e-05
2.31371e-05
2.78974e-05
3.32577e-05
3.87964e-05
4.24204e-05
4.52929e-05
4.66266e-05
4.42829e-05
3.95644e-05
3.21086e-05
2.32276e-05
1.74508e-05
1.78892e-05
2.5335e-05
3.12152e-05
1.73913e-05
2.18374e-05
1.77566e-05
1.78637e-05
2.0815e-05
2.46646e-05
3.0609e-05
3.72885e-05
4.34579e-05
4.7633e-05
5.09017e-05
5.22197e-05
5.04371e-05
4.6119e-05
3.85477e-05
2.77377e-05
1.85015e-05
1.70749e-05
2.53969e-05
3.19291e-05
1.81767e-05
2.1208e-05
1.75009e-05
1.79898e-05
2.12457e-05
2.56798e-05
3.23603e-05
3.9463e-05
4.54054e-05
4.94339e-05
5.24196e-05
5.33663e-05
5.2164e-05
4.90013e-05
4.28958e-05
3.21273e-05
1.9842e-05
1.61095e-05
2.54637e-05
3.25857e-05
1.90422e-05
1.93126e-05
1.7543e-05
1.81735e-05
2.17691e-05
2.63011e-05
3.27749e-05
3.94521e-05
4.48482e-05
4.8515e-05
5.09665e-05
5.14576e-05
5.05687e-05
4.8207e-05
4.35526e-05
3.43871e-05
2.0647e-05
1.53253e-05
2.55287e-05
3.32126e-05
1.96091e-05
1.84863e-05
1.72082e-05
1.79821e-05
2.11716e-05
2.50231e-05
3.05625e-05
3.65071e-05
4.16119e-05
4.53795e-05
4.76715e-05
4.82263e-05
4.7423e-05
4.58672e-05
4.1878e-05
3.48253e-05
2.05602e-05
1.42949e-05
2.57515e-05
3.38606e-05
2.01192e-05
1.70819e-05
1.69545e-05
1.74193e-05
2.02792e-05
2.39086e-05
2.87307e-05
3.38003e-05
3.84055e-05
4.17774e-05
4.32523e-05
4.42219e-05
4.41416e-05
4.39013e-05
4.0233e-05
3.43116e-05
2.02209e-05
1.33863e-05
2.57985e-05
3.45602e-05
2.01421e-05
1.59923e-05
1.63361e-05
1.70096e-05
1.94962e-05
2.25939e-05
2.65034e-05
3.06254e-05
3.46236e-05
3.75213e-05
3.83361e-05
3.93129e-05
3.95208e-05
4.01149e-05
3.7743e-05
3.31257e-05
1.89261e-05
1.27213e-05
2.58536e-05
3.53655e-05
1.99737e-05
1.5967e-05
1.54927e-05
1.62891e-05
1.84295e-05
2.07542e-05
2.33275e-05
2.62243e-05
2.94948e-05
3.2031e-05
3.29314e-05
3.44067e-05
3.49196e-05
3.62759e-05
3.36311e-05
2.94651e-05
1.72358e-05
1.1823e-05
2.59287e-05
3.63241e-05
1.94143e-05
1.63421e-05
1.47895e-05
1.53735e-05
1.70777e-05
1.90287e-05
2.0897e-05
2.25387e-05
2.49074e-05
2.68951e-05
2.80357e-05
3.01388e-05
3.0859e-05
3.22322e-05
2.92018e-05
2.45014e-05
1.44257e-05
1.07055e-05
2.64881e-05
3.75524e-05
1.84184e-05
1.74755e-05
1.52125e-05
1.43752e-05
1.5382e-05
1.70525e-05
1.859e-05
1.97296e-05
2.1724e-05
2.33979e-05
2.43938e-05
2.62607e-05
2.6242e-05
2.63826e-05
2.28641e-05
1.77644e-05
1.07079e-05
1.03313e-05
2.78183e-05
3.91537e-05
1.62551e-05
1.76578e-05
1.64844e-05
1.56441e-05
1.52054e-05
1.56492e-05
1.64132e-05
1.69176e-05
1.75722e-05
1.85007e-05
1.86319e-05
1.88213e-05
1.81928e-05
1.68722e-05
1.38401e-05
1.01367e-05
7.63742e-06
1.08632e-05
3.00401e-05
4.13161e-05
1.49528e-05
1.78348e-05
1.7213e-05
1.59157e-05
1.46913e-05
1.34458e-05
1.23596e-05
1.13e-05
1.01117e-05
9.11503e-06
8.6104e-06
7.81905e-06
7.38554e-06
6.80623e-06
6.55565e-06
6.74612e-06
8.26955e-06
1.47254e-05
3.44336e-05
4.44576e-05
1.62487e-05
1.42478e-05
1.36798e-05
1.27464e-05
1.19535e-05
1.11556e-05
1.09336e-05
1.07948e-05
1.08764e-05
1.12725e-05
1.17143e-05
1.27214e-05
1.35245e-05
1.52549e-05
1.66088e-05
1.91653e-05
2.21564e-05
2.91048e-05
4.48768e-05
4.97372e-05
3.67073e-05
4.62336e-05
5.14235e-05
5.32291e-05
5.37377e-05
5.38208e-05
5.38253e-05
5.3854e-05
5.39049e-05
5.40267e-05
5.4132e-05
5.43472e-05
5.4552e-05
5.48498e-05
5.52431e-05
5.5648e-05
5.60755e-05
5.66086e-05
5.83311e-05
5.54413e-05
)
;

boundaryField
{
    movingWall
    {
        type            nutkWallFunction;
        Cmu             0.09;
        kappa           0.41;
        E               9.8;
        value           nonuniform List<scalar> 
20
(
0
0
6.8809e-07
9.85065e-07
1.06858e-06
1.08234e-06
1.08317e-06
1.08797e-06
1.09634e-06
1.11632e-06
1.13352e-06
1.16865e-06
1.2019e-06
1.25036e-06
1.31405e-06
1.37993e-06
1.44932e-06
1.53576e-06
1.81434e-06
1.34569e-06
)
;
    }
    fixedWalls
    {
        type            nutkWallFunction;
        Cmu             0.09;
        kappa           0.41;
        E               9.8;
        value           nonuniform List<scalar> 
60
(
0
0
0
0
0
0
0
0
0
0
0
0
0
0
0
0
0
0
0
0
0
0
0
0
0
0
0
0
0
0
0
0
0
0
0
0
0
0
4.09557e-07
1.34569e-06
0
0
0
0
0
0
0
0
0
0
0
0
0
0
0
0
0
0
0
0
)
;
    }
    frontAndBack
    {
        type            empty;
    }
}


// ************************************************************************* //
