/*--------------------------------*- C++ -*----------------------------------*\
| =========                 |                                                 |
| \\      /  F ield         | OpenFOAM: The Open Source CFD Toolbox           |
|  \\    /   O peration     | Version:  2.4.0                                 |
|   \\  /    A nd           | Web:      www.OpenFOAM.org                      |
|    \\/     M anipulation  |                                                 |
\*---------------------------------------------------------------------------*/
FoamFile
{
    version     2.0;
    format      ascii;
    class       volScalarField;
    location    "2.31";
    object      epsilon;
}
// * * * * * * * * * * * * * * * * * * * * * * * * * * * * * * * * * * * * * //

dimensions      [0 2 -3 0 0 0 0];

internalField   nonuniform List<scalar> 
6000
(
0.995051
0.382789
0.0492474
0.00540898
0.00123689
0.00296891
0.00187538
0.00336558
0.00541703
0.00987785
0.0179101
0.0442252
0.0725818
0.0823887
0.0739994
0.0479416
0.0319257
0.0332764
0.0394156
0.0558342
0.104897
0.147404
0.165956
0.162073
0.143862
0.119378
0.096076
0.0751214
0.0569757
0.0415764
0.0287349
0.0184898
0.0100119
0.00527241
0.0064542
0.0088152
0.0118388
0.0148739
0.0174011
0.0191335
0.0202832
0.0213215
0.0225597
0.0241968
0.0263742
0.0292171
0.0329537
0.0378371
0.0441631
0.0523242
0.0628623
0.0765579
0.0945183
0.118484
0.150783
0.196167
0.258519
0.358032
0.481363
0.761678
0.558254
0.356212
0.0228655
0.0052984
0.000604932
0.00106618
0.00122285
0.00201889
0.00335225
0.00562574
0.0104048
0.0213508
0.0295098
0.0276193
0.0244579
0.0219003
0.016719
0.0240581
0.0940412
0.122057
0.0751561
0.049607
0.0373876
0.0291666
0.0235182
0.020593
0.0182848
0.0160936
0.0139581
0.0117978
0.00953631
0.00715457
0.00476096
0.00304869
0.00242773
0.00215068
0.00213104
0.00231386
0.00262812
0.00304767
0.0034628
0.003795
0.0040754
0.00436125
0.0047079
0.005173
0.00577881
0.00655788
0.00755673
0.00883604
0.0104781
0.0125974
0.0153601
0.0190037
0.0239067
0.0305797
0.0400682
0.0533425
0.0744955
0.106924
0.416716
0.412109
0.030562
0.00370247
0.000548233
0.000797987
0.00120279
0.00191066
0.00320947
0.00529137
0.00951729
0.0186342
0.0257015
0.0227129
0.0184282
0.0154459
0.0147903
0.0416866
0.114273
0.0713514
0.0316194
0.0193052
0.0146039
0.0124919
0.0117163
0.0117339
0.0117231
0.0115677
0.0111783
0.0104477
0.00926142
0.00756063
0.00546782
0.0035282
0.00240078
0.00164534
0.00116969
0.000916756
0.000821888
0.000831986
0.000907462
0.000989138
0.00106145
0.00112793
0.00120017
0.0012972
0.00142528
0.00158827
0.00179475
0.00205603
0.00238713
0.00280824
0.00334881
0.00404738
0.0049734
0.00618753
0.00792404
0.0100897
0.0138811
0.0174053
0.367355
0.406548
0.0516945
0.00235471
0.00057914
0.000758899
0.00124751
0.00196417
0.00329854
0.00537342
0.00931578
0.0175669
0.0251587
0.0225844
0.0178176
0.0150246
0.0184756
0.0618072
0.0942783
0.0399707
0.017348
0.0118285
0.0103093
0.0101199
0.0105393
0.0112135
0.0117774
0.0121307
0.0121672
0.0117561
0.0107485
0.00904645
0.00673924
0.00439562
0.00293344
0.00191087
0.00122207
0.000797896
0.000564768
0.000454729
0.000420561
0.000419054
0.000428124
0.000440422
0.000456686
0.000482283
0.000518142
0.000564122
0.000621736
0.000693333
0.00078215
0.000892493
0.00103066
0.00120435
0.00142832
0.00171125
0.00210719
0.00256004
0.00337467
0.00387524
0.343011
0.376427
0.0741172
0.00199259
0.000634304
0.000771327
0.00129046
0.00203592
0.00339565
0.00545949
0.00914994
0.0163865
0.0243151
0.0229932
0.018226
0.0160592
0.0243766
0.0732593
0.0683362
0.0247173
0.0122352
0.0099271
0.00981643
0.0104391
0.0113787
0.0123785
0.0132062
0.0137599
0.013931
0.0135826
0.0125483
0.010703
0.00810459
0.00537952
0.00362012
0.002361
0.00149178
0.000926759
0.000588995
0.000405833
0.000317749
0.000279407
0.000264355
0.000260321
0.000263007
0.000271984
0.000286371
0.000305471
0.000329386
0.000358632
0.000394123
0.000437192
0.000489881
0.000554629
0.000636301
0.000737206
0.000875689
0.00103048
0.00131072
0.00149898
0.329441
0.340294
0.0973447
0.00317827
0.000718654
0.000797961
0.00131715
0.00208618
0.00343925
0.00544483
0.00883673
0.0149376
0.0225659
0.0231701
0.0187773
0.0176211
0.0313267
0.0747246
0.0485418
0.0173217
0.0104321
0.00986529
0.0105448
0.0116686
0.0129414
0.0141507
0.0151106
0.0157268
0.0159029
0.0155107
0.0143785
0.01236
0.00947868
0.00641687
0.00436734
0.00287219
0.00183462
0.00114145
0.000702963
0.000448445
0.000314313
0.0002482
0.000217107
0.000203771
0.000200185
0.000203101
0.00021058
0.000221478
0.000235373
0.000252243
0.000272394
0.000296428
0.000325389
0.000360537
0.000404528
0.000458612
0.00053309
0.000617703
0.000777383
0.000918394
0.321264
0.305812
0.114502
0.00855739
0.000884333
0.000831509
0.00132828
0.00210452
0.00341601
0.00531425
0.00837313
0.0134064
0.0201084
0.0230544
0.0192505
0.0194707
0.0385308
0.0694103
0.0352803
0.0136411
0.0100889
0.0105962
0.0118499
0.0133616
0.0148855
0.0162309
0.0172367
0.0178253
0.0179241
0.0174257
0.0161619
0.0139692
0.010831
0.00748637
0.00515256
0.00341125
0.00220361
0.0013936
0.000861846
0.000534678
0.000351658
0.000256279
0.00020888
0.000186671
0.000177972
0.00017717
0.000181285
0.000188704
0.000198661
0.000210868
0.000225394
0.000242598
0.000263229
0.000288215
0.000319664
0.000358517
0.000413528
0.000476405
0.000606858
0.000733557
0.315833
0.275731
0.126345
0.0183423
0.0012524
0.000877336
0.00133244
0.00209569
0.00333796
0.00509874
0.00783528
0.0120203
0.0174375
0.0227065
0.0196293
0.0215406
0.0450749
0.0606246
0.026673
0.0118451
0.0104797
0.011764
0.0135103
0.0153568
0.0170808
0.0185037
0.0194861
0.0199743
0.0199298
0.0192765
0.0178582
0.0154976
0.012134
0.00857016
0.0059658
0.00397124
0.00258237
0.00165908
0.00104493
0.000648597
0.00041396
0.000285545
0.000219188
0.000186611
0.000172168
0.000167855
0.00016945
0.000174731
0.000182591
0.000192538
0.000204494
0.000218693
0.000235756
0.000256482
0.000282817
0.000315579
0.000363296
0.0004179
0.00053958
0.00065956
0.311902
0.25063
0.133619
0.030829
0.00211831
0.000951315
0.00134239
0.00207393
0.00323213
0.00485218
0.00731992
0.0109201
0.015046
0.0220648
0.0199373
0.023795
0.0497117
0.0510877
0.0210936
0.0111013
0.0112895
0.0132226
0.0154276
0.0175772
0.0194608
0.0209093
0.0218064
0.0221291
0.0218819
0.0210298
0.0194364
0.0169152
0.0133595
0.00964817
0.00679518
0.00455026
0.00296831
0.00192609
0.00123782
0.000780534
0.000494876
0.000330242
0.000241733
0.000196608
0.000175165
0.000166763
0.000165734
0.000169105
0.000175388
0.000183876
0.00019436
0.000206977
0.000222264
0.000240947
0.000264909
0.000294906
0.000339577
0.000390591
0.000510106
0.000625918
0.308906
0.230197
0.137052
0.0443297
0.0042088
0.00108556
0.0013724
0.00205811
0.00313159
0.00463168
0.00690518
0.0101084
0.0132369
0.020926
0.0201891
0.0261779
0.0516522
0.0425078
0.0174657
0.0109959
0.0123702
0.0148993
0.017546
0.0199738
0.0219801
0.0234056
0.0241605
0.0242577
0.0237525
0.0226607
0.0208726
0.0181967
0.0144813
0.0106992
0.00762443
0.00514369
0.0033629
0.00219121
0.00143071
0.000921931
0.000589573
0.00038762
0.000274259
0.000214281
0.000184281
0.000170857
0.000166691
0.000167922
0.000172609
0.00017981
0.000189178
0.000200754
0.000214999
0.000232576
0.000255327
0.000283966
0.000327273
0.000376645
0.000495929
0.000608722
0.306558
0.213808
0.137439
0.0570251
0.00886984
0.00134583
0.00143723
0.00206702
0.00306756
0.0044835
0.00663963
0.00958615
0.0120309
0.019128
0.0204175
0.0286035
0.0511248
0.0353741
0.0151191
0.0113032
0.0136449
0.0167496
0.0198254
0.0225073
0.0246003
0.0259568
0.0265173
0.0263341
0.0255205
0.0241513
0.0221497
0.0193232
0.0154911
0.0116899
0.00843425
0.00574279
0.00376636
0.00245542
0.00161837
0.00106502
0.000692732
0.00045514
0.000315513
0.000238711
0.000198577
0.000179045
0.000171031
0.000169663
0.000172476
0.000178261
0.000186518
0.00019719
0.00021066
0.000227525
0.000249577
0.000277499
0.00032015
0.000368759
0.0004881
0.000598457
0.304682
0.200778
0.135583
0.0679496
0.0153701
0.00186042
0.00155367
0.00211566
0.00306368
0.00443687
0.00654397
0.0093371
0.0113225
0.0167904
0.0207117
0.0309511
0.0486694
0.0296589
0.0136376
0.0118917
0.0150692
0.0187409
0.0222323
0.0251426
0.0272863
0.0285308
0.0288498
0.0283372
0.0271703
0.0254902
0.023258
0.0202825
0.0163814
0.0125966
0.00920537
0.00633579
0.00417594
0.00272064
0.00179941
0.00120369
0.000798708
0.000529692
0.00036411
0.000269249
0.000217625
0.000190913
0.000178281
0.000173758
0.000174295
0.00017838
0.000185351
0.000195044
0.00020776
0.00022403
0.000245581
0.000273064
0.000315333
0.000363574
0.000482668
0.000590869
0.30316
0.190477
0.132218
0.0765814
0.0231118
0.00290816
0.0017462
0.00221386
0.00313377
0.00450475
0.0066198
0.00933503
0.0109515
0.0144117
0.0211667
0.0330085
0.044847
0.025166
0.0127578
0.0126805
0.0166133
0.020846
0.0247364
0.0278477
0.0300066
0.0310995
0.0311351
0.0302503
0.0286912
0.0266713
0.0241936
0.0210694
0.0171474
0.0134034
0.00992065
0.00690966
0.00458619
0.00298773
0.00197471
0.00133423
0.0009024
0.000607613
0.000418138
0.000304992
0.000240968
0.000206169
0.000188195
0.000179962
0.000177793
0.000179842
0.000185267
0.000193795
0.000205646
0.00022128
0.000242353
0.000269477
0.000311429
0.000359443
0.000477811
0.000583961
0.30191
0.182363
0.127958
0.0827737
0.0312639
0.00514991
0.00205956
0.00236736
0.0032822
0.00468802
0.00685939
0.00955722
0.0108195
0.0125404
0.021706
0.034381
0.0402354
0.021675
0.0123085
0.0136184
0.0182554
0.0230411
0.0273109
0.0305943
0.0327339
0.0336391
0.0333545
0.0320606
0.0300765
0.0276934
0.024958
0.0216844
0.0177887
0.0140993
0.0105661
0.00745176
0.00498991
0.00325577
0.00214595
0.00145571
0.0009999
0.000685055
0.000475142
0.000344607
0.000267881
0.000224382
0.000200485
0.000188068
0.000182806
0.000182497
0.000186105
0.000193244
0.000204053
0.000218926
0.000239442
0.000266177
0.000307761
0.000355554
0.000472703
0.000576809
0.300877
0.175987
0.12329
0.0866345
0.0392723
0.00893324
0.00257959
0.0025817
0.00350605
0.00498022
0.00725249
0.00999307
0.0109349
0.0113904
0.0218922
0.0345161
0.0354955
0.0189898
0.012176
0.0146709
0.019977
0.0253048
0.0299321
0.0333585
0.0354458
0.0361307
0.0354934
0.0337591
0.0313232
0.0285588
0.0255568
0.0221329
0.0183092
0.014678
0.0111314
0.00795099
0.00537924
0.00352226
0.00231445
0.00156885
0.00108883
0.000758518
0.000532366
0.000386365
0.00029733
0.000244905
0.000214721
0.000197778
0.000189131
0.000186208
0.000187767
0.000193306
0.000202885
0.000216839
0.000236668
0.000262916
0.000304022
0.000351524
0.000467009
0.000569028
0.300017
0.17099
0.118567
0.088431
0.046682
0.0141663
0.00347775
0.00286888
0.00379781
0.00537079
0.00778893
0.0106397
0.0113174
0.0107916
0.0213415
0.0332142
0.0310373
0.0169503
0.0122822
0.0158141
0.0217624
0.0276179
0.0325795
0.0361205
0.0381249
0.0385595
0.0375412
0.0353398
0.0324309
0.0292721
0.0259979
0.0224239
0.0187154
0.0151368
0.0116093
0.00839841
0.0057465
0.00378356
0.00248072
0.00167514
0.00116844
0.000825381
0.000587134
0.000428318
0.000328034
0.000266893
0.000230316
0.000208676
0.000196477
0.000190782
0.000190134
0.000193912
0.000202099
0.000214977
0.000233975
0.000259609
0.000300098
0.000347192
0.00046064
0.000560504
0.299299
0.16708
0.114034
0.0885176
0.0530975
0.0204091
0.0051187
0.00325838
0.00414856
0.0058469
0.00845856
0.0114965
0.0119749
0.0104839
0.0198666
0.0307427
0.0270692
0.0154299
0.0125729
0.01703
0.0235972
0.0299637
0.0352362
0.0388652
0.040758
0.0409149
0.0394902
0.0367991
0.033401
0.0298398
0.0262913
0.0225881
0.0189969
0.0154757
0.011996
0.00878744
0.00608484
0.00403547
0.00264433
0.00177628
0.00123928
0.000884148
0.000637186
0.000468512
0.000358579
0.000289374
0.000246573
0.000220256
0.000204475
0.00019596
0.000193038
0.000194964
0.000201647
0.000213321
0.000231352
0.000256239
0.000295964
0.000342518
0.000453624
0.00055126
0.298697
0.16403
0.109845
0.0872805
0.0582386
0.0271207
0.00783527
0.0038145
0.00455208
0.00639434
0.00925011
0.0125617
0.0129169
0.0103818
0.0176825
0.0276448
0.0236732
0.0143301
0.0130092
0.0183043
0.0254682
0.0323269
0.0378881
0.0415806
0.0433352
0.0431891
0.0413346
0.0381348
0.0342359
0.0302693
0.0264473
0.0226517
0.0191519
0.015698
0.0122901
0.00911371
0.00638863
0.00427372
0.00280401
0.00187356
0.0013027
0.000934439
0.000680925
0.000505201
0.000387555
0.000311308
0.000262742
0.000231958
0.00021271
0.000201437
0.000196267
0.000196328
0.000201455
0.000211843
0.000228801
0.00025282
0.00029164
0.000337513
0.000446038
0.000541374
0.29819
0.161657
0.106083
0.0850973
0.06196
0.0338233
0.011684
0.00466783
0.0050113
0.00699845
0.0101501
0.0138313
0.0141576
0.0105176
0.0153386
0.0244089
0.0208574
0.0135739
0.0135625
0.0196251
0.0273633
0.0346943
0.0405232
0.0442571
0.0458492
0.0453758
0.04307
0.0393454
0.0349387
0.0305684
0.0264766
0.0226307
0.0191892
0.0158095
0.0124928
0.00937493
0.00665366
0.00449437
0.00295795
0.00196771
0.0013603
0.000976801
0.000717548
0.000537044
0.000413698
0.000331697
0.000278077
0.000243222
0.000220752
0.00020689
0.000199582
0.00019784
0.000201425
0.000210494
0.000226311
0.000249364
0.000287157
0.000332216
0.000437973
0.000530949
0.297764
0.159817
0.102783
0.0823085
0.0642447
0.0400811
0.0164724
0.00604464
0.0055493
0.00764585
0.0111425
0.0152969
0.0157129
0.0109611
0.0133012
0.0213868
0.0185891
0.0131011
0.0142118
0.020982
0.0292708
0.0370535
0.0431308
0.0468868
0.0482934
0.0474696
0.0446923
0.0404296
0.0355127
0.0307447
0.0263912
0.0225384
0.0191195
0.0158177
0.0126072
0.00957062
0.00687712
0.00469402
0.00310409
0.00205883
0.00141362
0.00101241
0.000747043
0.000563242
0.000436021
0.000349672
0.0002919
0.000253529
0.000228202
0.000212006
0.000202746
0.000199325
0.000201438
0.000209208
0.000223856
0.000245878
0.000282546
0.00032667
0.00042952
0.000520086
0.297403
0.158399
0.0999424
0.0792018
0.0651845
0.0455355
0.0219349
0.0081487
0.0062284
0.00832788
0.0122109
0.016945
0.0175953
0.0117717
0.0118037
0.0187841
0.0168174
0.0128638
0.0149405
0.0223652
0.0311794
0.0393929
0.045701
0.0494619
0.0506615
0.0494647
0.0461966
0.0413858
0.0359607
0.0308056
0.0262212
0.0223694
0.0189526
0.0157309
0.0126382
0.00970188
0.00705758
0.00487006
0.00324035
0.00214651
0.00146382
0.00104272
0.000770063
0.000583588
0.000453922
0.00036458
0.000303659
0.000262441
0.000234712
0.00021651
0.000205538
0.000200614
0.000201373
0.000207908
0.000221399
0.000242358
0.000277829
0.000320919
0.000420761
0.000508881
0.297097
0.157312
0.0975389
0.0760053
0.0649512
0.0499246
0.0277291
0.0111204
0.0071632
0.00904668
0.0133366
0.0187547
0.0198122
0.0129859
0.0108939
0.0166888
0.0154859
0.0128236
0.0157358
0.0237653
0.0330782
0.0417011
0.0482237
0.051974
0.0529459
0.051354
0.0475772
0.0422114
0.0362855
0.030758
0.0259969
0.0221179
0.0186984
0.0155584
0.0125918
0.00977118
0.00719479
0.00502068
0.00336486
0.00222997
0.00151163
0.00106922
0.000787712
0.00059843
0.000467227
0.000376046
0.000312972
0.00026963
0.000240014
0.000220181
0.000207778
0.000201562
0.000201118
0.000206514
0.000218895
0.00023879
0.000273022
0.000314999
0.000411768
0.000497421
0.296838
0.156487
0.0955355
0.0728883
0.0637667
0.053093
0.033479
0.0149883
0.00849376
0.00983468
0.0144705
0.0206961
0.0223645
0.0146242
0.010538
0.0151127
0.0145403
0.0129494
0.0165867
0.0251731
0.0349561
0.0439664
0.0506882
0.0544139
0.0551377
0.0531291
0.0488271
0.0429034
0.0364894
0.0306092
0.0257341
0.0217902
0.0183669
0.0153096
0.0124748
0.00978209
0.00728959
0.00514488
0.00347605
0.0023083
0.00155737
0.00109314
0.000801294
0.000608545
0.000476176
0.000384001
0.00031966
0.000274907
0.000243935
0.000222865
0.00020933
0.00020205
0.000200576
0.000204955
0.000216299
0.000235155
0.000268132
0.000308943
0.000402605
0.000485784
0.296617
0.155868
0.0938893
0.0699675
0.0618727
0.0549916
0.0388166
0.0196422
0.0103569
0.0107756
0.0155811
0.0227287
0.0252461
0.0167001
0.0106905
0.0140281
0.013932
0.0132159
0.0174836
0.0265793
0.0368019
0.0461768
0.0530825
0.0567703
0.057226
0.0547795
0.0499378
0.0434577
0.0365743
0.0303822
0.0254295
0.0213937
0.0179676
0.0149941
0.0122948
0.00973913
0.00734373
0.00524246
0.00357282
0.00238052
0.00160097
0.0011154
0.000812098
0.000614964
0.000481348
0.000388672
0.000323756
0.000278226
0.000246402
0.000224482
0.000210113
0.000202002
0.000199678
0.000203172
0.000213571
0.000231434
0.000263165
0.000302776
0.000393326
0.000474041
0.296428
0.155413
0.0925556
0.0673149
0.0595065
0.0556686
0.0434189
0.0248462
0.0128731
0.0119689
0.0166728
0.0247999
0.0284418
0.0192278
0.0113191
0.0133925
0.013619
0.0136022
0.0184178
0.0279744
0.0386044
0.0483196
0.0553936
0.0590302
0.0591976
0.0562928
0.0508995
0.0438699
0.0365417
0.0301163
0.0250635
0.0209354
0.0175098
0.0146215
0.0120598
0.00964749
0.00735972
0.00531391
0.00365449
0.00244578
0.00164214
0.00113656
0.000821224
0.000618795
0.000483539
0.00039052
0.000325481
0.000279678
0.000247441
0.000225022
0.000210099
0.000201378
0.000198379
0.000201127
0.000210678
0.00022761
0.000258121
0.00029652
0.00038398
0.000462254
0.296267
0.155086
0.0914908
0.0649672
0.0568821
0.0552514
0.0470367
0.0302756
0.0161088
0.0134993
0.0178169
0.0268445
0.0319235
0.0222248
0.0124048
0.0131637
0.0135658
0.0140906
0.0193808
0.029349
0.0403517
0.0503812
0.0576067
0.0611782
0.061037
0.0576549
0.0517019
0.0441353
0.0363938
0.0298311
0.0246354
0.020422
0.0170023
0.014201
0.0117779
0.00951287
0.00734072
0.00536032
0.00372085
0.00250339
0.00168045
0.00115684
0.000829499
0.000621059
0.000483629
0.000390162
0.00032521
0.000279475
0.000247166
0.000224544
0.000209307
0.000200176
0.000196666
0.000198798
0.000207603
0.000223673
0.000253003
0.000290196
0.000374608
0.000450479
0.296129
0.15486
0.0906546
0.0629347
0.054179
0.0539246
0.0495133
0.0355643
0.0200434
0.0154567
0.0191354
0.0287845
0.0356448
0.025713
0.0139345
0.0133052
0.013743
0.0146667
0.0203645
0.0306933
0.0420318
0.0523472
0.0597055
0.0631969
0.0627264
0.0588497
0.0523342
0.0442497
0.0361806
0.029494
0.0241476
0.0198602
0.0164537
0.0137416
0.0114572
0.00934132
0.00729034
0.00538331
0.00377209
0.0025529
0.00171545
0.00117624
0.000837448
0.000622593
0.000482457
0.000388268
0.000323406
0.000277914
0.00024576
0.000223155
0.000207802
0.000198427
0.000194548
0.000196185
0.00020434
0.000219618
0.000247817
0.000283822
0.000365248
0.000438765
0.29601
0.154714
0.0900102
0.0612092
0.0515367
0.0519037
0.0507915
0.0403514
0.0245513
0.0179178
0.0206931
0.0306199
0.0395343
0.0297163
0.0158937
0.0137878
0.0141261
0.015318
0.0213611
0.0319978
0.0436322
0.054202
0.0616719
0.0650662
0.0642461
0.0598603
0.0527856
0.0442096
0.0359381
0.0290885
0.0236039
0.0192566
0.0158718
0.013252
0.0111056
0.00913903
0.00721256
0.00538489
0.00380882
0.00259411
0.00174673
0.00119458
0.000845323
0.00062399
0.000480732
0.00038548
0.000320556
0.000275336
0.000243451
0.000221006
0.000205676
0.000196188
0.000192058
0.000193302
0.000200895
0.000215452
0.000242571
0.000277417
0.000355933
0.000427156
0.295906
0.154631
0.0895256
0.0597704
0.0490554
0.0494117
0.0509097
0.0443215
0.0294056
0.0209242
0.0225398
0.0323926
0.0434879
0.0342563
0.0182638
0.0145886
0.0146953
0.0160346
0.0223636
0.0332532
0.04514
0.0559289
0.0634859
0.0667636
0.065574
0.0606686
0.0530463
0.044067
0.035635
0.0286115
0.0230086
0.0186175
0.0152644
0.0127402
0.010731
0.00891226
0.00711161
0.00536742
0.00383194
0.00262706
0.00177397
0.00121159
0.000853163
0.000625606
0.000478981
0.000382338
0.000317119
0.000272087
0.000240486
0.000218265
0.000203046
0.000193537
0.000189245
0.000190179
0.000197286
0.000211185
0.000237279
0.000270999
0.000346692
0.000415689
0.295817
0.154596
0.0891728
0.0585914
0.0467995
0.0466585
0.049988
0.0472368
0.034303
0.0244583
0.0247215
0.0341968
0.0473616
0.0393431
0.0210236
0.0156901
0.0154348
0.0168088
0.0233679
0.0344513
0.0465418
0.0575094
0.0651247
0.0682631
0.066686
0.0612561
0.0531108
0.0438682
0.0352446
0.028064
0.0223665
0.0179492
0.0146387
0.0122141
0.0103407
0.00866715
0.00699184
0.00533348
0.00384265
0.002652
0.00179699
0.001227
0.000860861
0.000627588
0.000477541
0.000379252
0.000313488
0.000268484
0.000237105
0.000215109
0.000200036
0.00019056
0.000186168
0.000186858
0.000193541
0.000206838
0.000231959
0.000264591
0.000337556
0.0004044
0.295739
0.1546
0.088928
0.0576419
0.0448032
0.043826
0.0482069
0.0489573
0.0389017
0.0284261
0.0272669
0.0361267
0.0510242
0.0449635
0.0241551
0.0170805
0.0163341
0.0176377
0.0243764
0.0355862
0.0478231
0.0589219
0.0665622
0.0695351
0.0675561
0.0616045
0.0530527
0.0435677
0.0347587
0.0274493
0.0216829
0.0172579
0.0140016
0.0116809
0.00994168
0.00840967
0.00685761
0.00528581
0.00384232
0.00266942
0.00181574
0.00124058
0.00086823
0.000629927
0.000476579
0.000376491
0.000309956
0.000264794
0.000233522
0.000211702
0.000196769
0.000187348
0.000182894
0.000183384
0.000189692
0.000202435
0.000226632
0.000258214
0.00032855
0.000393319
0.295671
0.154632
0.088771
0.0568915
0.0430777
0.0410596
0.0457828
0.0494482
0.0428649
0.0326515
0.0301717
0.0382011
0.0544046
0.0510626
0.0276544
0.0187552
0.0173881
0.018528
0.02541
0.0366585
0.0489673
0.06014
0.0677668
0.0705447
0.0681556
0.0617595
0.0528629
0.0431459
0.0341767
0.0267717
0.0209631
0.0165496
0.0133596
0.0111475
0.00954064
0.00814554
0.00671324
0.00522722
0.00383249
0.00267994
0.00183029
0.00125214
0.000875058
0.000632516
0.000476128
0.000374195
0.000306721
0.000261216
0.000229916
0.000208191
0.000193362
0.00018399
0.000179489
0.000179808
0.000185776
0.000198004
0.00022132
0.000251891
0.000319699
0.000382473
0.295612
0.154686
0.0886848
0.0563107
0.0416169
0.0384656
0.0429418
0.0487756
0.0459033
0.0368873
0.0333833
0.0404491
0.0574431
0.0575196
0.031547
0.0207185
0.0185993
0.0195159
0.0264673
0.0376675
0.0499782
0.0611496
0.068704
0.0712632
0.0685045
0.0617233
0.0525209
0.0425961
0.0335018
0.0260368
0.0202132
0.0158303
0.0127189
0.0106201
0.00914363
0.00788016
0.00656293
0.00516058
0.00381479
0.00268432
0.00184084
0.00126158
0.000881147
0.000635192
0.000476127
0.000372404
0.000303889
0.000257887
0.000226424
0.000204696
0.000189915
0.000180567
0.000176017
0.000176179
0.000181832
0.000193575
0.000216051
0.000245646
0.000311029
0.000371886
0.29556
0.154756
0.0886551
0.0558728
0.0404038
0.0361131
0.0398978
0.0470903
0.0478094
0.0408389
0.0367907
0.0428501
0.0601301
0.0641164
0.035904
0.0229808
0.0199733
0.0205993
0.0275336
0.0386079
0.0508507
0.0619494
0.0693789
0.0717027
0.0686098
0.06149
0.0520177
0.0419182
0.0327393
0.025251
0.019439
0.0151058
0.0120853
0.0101045
0.00875626
0.00761853
0.00641069
0.0050887
0.00379086
0.00268345
0.00184773
0.00126891
0.000886335
0.00063778
0.000476463
0.000371085
0.000301495
0.000254883
0.000223136
0.000201311
0.000186511
0.000177151
0.000172537
0.000172544
0.000177898
0.000189179
0.000210848
0.000239502
0.000302561
0.000361578
0.295514
0.154837
0.08867
0.0555538
0.0394148
0.0340387
0.0368356
0.0446039
0.0484799
0.0442003
0.0402229
0.0453155
0.0625038
0.070547
0.0408476
0.025549
0.021508
0.0217748
0.0286014
0.0394762
0.0515816
0.0625406
0.0697977
0.0718739
0.0684762
0.0610573
0.0513511
0.0411164
0.0318967
0.0244213
0.0186465
0.0143815
0.0114641
0.00960595
0.00838364
0.00736528
0.0062603
0.0050143
0.00376237
0.00267831
0.00185135
0.00127418
0.000890513
0.000640117
0.000476997
0.000370158
0.000299519
0.000252234
0.000220109
0.000198098
0.000183215
0.000173798
0.000169099
0.000168946
0.000174008
0.000184845
0.000205738
0.000233482
0.000294315
0.000351569
0.295474
0.154926
0.0887196
0.0553327
0.0386231
0.0322536
0.0339008
0.0415602
0.0479233
0.0466933
0.0434582
0.0477647
0.0645759
0.0764877
0.0465353
0.0284073
0.0232076
0.0230443
0.0296654
0.0402703
0.05217
0.0629261
0.0699682
0.0717864
0.0681084
0.0604258
0.0505239
0.0401981
0.0309825
0.0235551
0.017842
0.0136629
0.0108604
0.00912933
0.00803037
0.00712464
0.00611528
0.00494001
0.00373158
0.00267
0.0018522
0.00127752
0.000893622
0.000642066
0.00047759
0.000369522
0.00029791
0.000249931
0.000217365
0.000195098
0.000180071
0.000170557
0.000165746
0.000165422
0.000170195
0.0001806
0.000200743
0.000227607
0.00028631
0.000341875
0.295439
0.155019
0.0887956
0.0551913
0.0380016
0.0307501
0.0311962
0.0382063
0.0462533
0.0481047
0.0462443
0.0500721
0.0663254
0.0816004
0.0530997
0.0315604
0.0250901
0.0244094
0.0307222
0.0409893
0.0526162
0.0631108
0.0698985
0.0714497
0.0675119
0.0595994
0.0495424
0.0391727
0.0300064
0.0226601
0.0170312
0.012955
0.0102786
0.00867889
0.00770056
0.00690041
0.00597889
0.0048683
0.00370005
0.00265951
0.00185079
0.00127912
0.00089566
0.000643527
0.000478117
0.00036907
0.000296597
0.000247943
0.000214903
0.00019233
0.00017711
0.000167459
0.000162512
0.000162003
0.000166486
0.000176467
0.000195884
0.000221895
0.000278563
0.000332507
0.295408
0.155114
0.0888912
0.0551142
0.0375245
0.0295082
0.0287843
0.0347678
0.0436681
0.0483161
0.0483275
0.0520737
0.0677006
0.0858007
0.0601746
0.0351712
0.0271605
0.0258707
0.0317708
0.0416337
0.0529225
0.0631005
0.0695979
0.0708732
0.0666937
0.0585847
0.0484159
0.0380515
0.0289787
0.0217441
0.0162201
0.0122625
0.00972299
0.00825848
0.00739788
0.006696
0.00585406
0.00480149
0.00366936
0.00264785
0.00184766
0.00127922
0.000896668
0.000644441
0.000478479
0.000368704
0.000295505
0.000246223
0.000212705
0.000189797
0.000174348
0.000164527
0.00015942
0.000158713
0.000162904
0.000172468
0.000191181
0.000216365
0.000271086
0.000323478
0.29538
0.155209
0.0890006
0.0550884
0.037168
0.0285008
0.0266929
0.0314312
0.040421
0.0473196
0.0494862
0.0535798
0.0686179
0.0890639
0.0674674
0.0392464
0.0294264
0.0274277
0.0328117
0.0422048
0.0530925
0.0629024
0.0690762
0.0700672
0.0656624
0.0573908
0.0471558
0.0368472
0.0279101
0.0208146
0.015414
0.0115898
0.00919725
0.00787155
0.00712556
0.00651442
0.00574348
0.0047417
0.00364107
0.00263603
0.00184339
0.0012781
0.000896733
0.000644783
0.000478599
0.000368336
0.000294557
0.000244721
0.000210744
0.000187489
0.00017179
0.000161776
0.000156488
0.000155572
0.000159467
0.00016862
0.000186649
0.00021103
0.000263892
0.000314794
0.295356
0.155303
0.0891193
0.0551028
0.0369111
0.0276979
0.0249229
0.028334
0.0367856
0.0452187
0.049564
0.0543953
0.0689611
0.0913217
0.0746864
0.0437607
0.0318955
0.0290788
0.0338469
0.0427052
0.0531312
0.0625247
0.068344
0.0690425
0.0644285
0.0560292
0.0457756
0.0355735
0.0268115
0.0198791
0.014618
0.0109409
0.00870477
0.00752114
0.00688648
0.00635837
0.00564951
0.0046909
0.00361662
0.00262502
0.00183856
0.00127604
0.000895974
0.000644563
0.000478431
0.0003679
0.00029369
0.000243385
0.000208985
0.000185391
0.000169431
0.000159209
0.000153728
0.000152592
0.000156189
0.000164935
0.0001823
0.000205901
0.000256988
0.000306463
0.295335
0.155396
0.0892436
0.0551484
0.0367355
0.0270696
0.0234566
0.025564
0.0330235
0.0422115
0.0484965
0.0543461
0.0685763
0.0924861
0.0815066
0.0486794
0.0345759
0.0308216
0.0348789
0.0431383
0.0530446
0.0619762
0.0674124
0.0678112
0.0630043
0.0545134
0.0442905
0.0342448
0.0256938
0.0189443
0.0138368
0.0103192
0.00824856
0.00721005
0.00668322
0.00623017
0.00557428
0.00465087
0.00359742
0.0026158
0.00183376
0.00127339
0.000894539
0.000643821
0.000477951
0.000367345
0.000292848
0.000242168
0.000207396
0.000183483
0.000167264
0.000156827
0.000151143
0.000149782
0.000153079
0.000161424
0.000178144
0.000200988
0.000250381
0.000298487
0.295316
0.155485
0.0893704
0.0552174
0.0366255
0.0265875
0.0222649
0.0231637
0.0293577
0.0385622
0.0463255
0.053308
0.0673484
0.0924629
0.0875427
0.0539385
0.0374752
0.0326537
0.0359104
0.0435083
0.0528397
0.0612669
0.0662937
0.0663862
0.0614039
0.0528588
0.042717
0.0328759
0.0245672
0.0180165
0.0130745
0.00972811
0.00783135
0.0069408
0.0065181
0.00613189
0.00551961
0.00462329
0.00358484
0.00260932
0.00182958
0.00127046
0.000892595
0.000642619
0.000477162
0.000366639
0.000291988
0.000241027
0.000205944
0.000181743
0.000165277
0.000154626
0.000148736
0.000147145
0.000150144
0.000158094
0.000174187
0.000196297
0.000244073
0.000290866
0.295299
0.155571
0.0894975
0.0553035
0.0365678
0.0262262
0.0213134
0.0211395
0.0259565
0.0345629
0.0431984
0.0512328
0.0652041
0.0911593
0.0924815
0.0594296
0.0405973
0.0345737
0.0369441
0.0438198
0.0525243
0.0604073
0.0650005
0.0647819
0.0596428
0.051083
0.041073
0.0314817
0.0234416
0.0171013
0.0123349
0.00917035
0.00745561
0.00671583
0.00639327
0.00606532
0.00548709
0.00460996
0.00358025
0.00260649
0.00182661
0.0012676
0.000890322
0.000641039
0.000476082
0.000365769
0.000291081
0.000239932
0.000204601
0.00018015
0.000163456
0.000152598
0.000146502
0.000144682
0.000147385
0.000154947
0.000170433
0.000191832
0.000238066
0.000283601
0.295285
0.155654
0.0896231
0.0554015
0.0365512
0.0259633
0.0205664
0.0194721
0.022928
0.0304951
0.0393497
0.0481658
0.0621058
0.0884762
0.0960313
0.0649894
0.043937
0.0365815
0.0379828
0.044078
0.0521069
0.0594091
0.0635466
0.0630136
0.0577387
0.0492047
0.0393771
0.0300771
0.0223256
0.0162033
0.011621
0.00864842
0.00712366
0.00653748
0.00631078
0.00603204
0.00547802
0.0046127
0.00358478
0.0026081
0.00182535
0.00126513
0.000887907
0.000639177
0.00047475
0.000364736
0.000290109
0.000238858
0.000203343
0.000178684
0.000161787
0.000150734
0.000144439
0.000142391
0.000144804
0.000151986
0.000166883
0.000187593
0.000232359
0.000276688
0.295272
0.155732
0.0897459
0.0555074
0.0365664
0.0257799
0.0199898
0.0181267
0.0203242
0.0265977
0.0350682
0.0442506
0.0580783
0.0844207
0.097946
0.0703975
0.0474728
0.0386778
0.0390302
0.0442887
0.0515966
0.0582843
0.061947
0.0610985
0.055711
0.0472448
0.0376485
0.0286761
0.0212271
0.0153267
0.0109356
0.0081645
0.00683775
0.00640821
0.00627264
0.0060334
0.00549349
0.00463193
0.00359914
0.0026148
0.00182628
0.00126336
0.000885545
0.000637143
0.000473217
0.000363556
0.000289068
0.00023779
0.000202151
0.000177329
0.000160257
0.000149026
0.000142539
0.00014027
0.000142397
0.000149208
0.000163537
0.000183581
0.000226948
0.000270122
0.29526
0.155807
0.0898649
0.0556177
0.0366058
0.0256597
0.019553
0.0170606
0.0181518
0.0230458
0.030656
0.0397164
0.0532252
0.0791723
0.0980565
0.0753839
0.0511587
0.0408628
0.0400909
0.0444584
0.0510035
0.0570464
0.0602176
0.0590551
0.0535806
0.0452251
0.0359069
0.0272919
0.0201525
0.0144743
0.0102809
0.00772054
0.00660019
0.0063306
0.00628094
0.00607062
0.00553432
0.00466823
0.00362402
0.00262721
0.00182987
0.00126261
0.000883434
0.000635054