/*--------------------------------*- C++ -*----------------------------------*\
| =========                 |                                                 |
| \\      /  F ield         | OpenFOAM: The Open Source CFD Toolbox           |
|  \\    /   O peration     | Version:  2.4.0                                 |
|   \\  /    A nd           | Web:      www.OpenFOAM.org                      |
|    \\/     M anipulation  |                                                 |
\*---------------------------------------------------------------------------*/
FoamFile
{
    version     2.0;
    format      ascii;
    class       surfaceScalarField;
    location    "120";
    object      phi;
}
// * * * * * * * * * * * * * * * * * * * * * * * * * * * * * * * * * * * * * //

dimensions      [0 3 -1 0 0 0 0];

internalField   nonuniform List<scalar> 
19800
(
0.000192348
1.93397e-08
0.000192314
3.36265e-08
0.000192269
4.52244e-08
0.000192215
5.53728e-08
0.000192151
6.37336e-08
0.00019208
7.15922e-08
0.000192001
7.91748e-08
0.000191914
8.6741e-08
0.000191819
9.45868e-08
0.000191716
1.03033e-07
0.000191604
1.12512e-07
0.00019148
1.23595e-07
0.000191343
1.37142e-07
0.000191189
1.54567e-07
0.00019101
1.78351e-07
0.000190797
2.1323e-07
0.000190528
2.68854e-07
0.000190162
3.66655e-07
0.000189612
5.49426e-07
1.2847e-06
0.000188328
0.000197682
3.90996e-08
0.000197648
6.82962e-08
0.000197601
9.17027e-08
0.000197545
1.12297e-07
0.00019748
1.29237e-07
0.000197407
1.4517e-07
0.000197326
1.60488e-07
0.000197237
1.75745e-07
0.00019714
1.91514e-07
0.000197034
2.08474e-07
0.00019692
2.27453e-07
0.000196794
2.49528e-07
0.000196654
2.7629e-07
0.000196499
3.10238e-07
0.000196322
3.55494e-07
0.000196116
4.1914e-07
0.000195871
5.13538e-07
0.000195577
6.60593e-07
0.000195234
8.92382e-07
1.2996e-06
0.000195219
0.000203164
5.93632e-08
0.000203129
1.03831e-07
0.000203081
1.3941e-07
0.000203024
1.70406e-07
0.000202957
1.96282e-07
0.000202882
2.20435e-07
0.000202799
2.43629e-07
0.000202708
2.66683e-07
0.000202609
2.90443e-07
0.000202502
3.15887e-07
0.000202385
3.44154e-07
0.000202258
3.76719e-07
0.000202118
4.15647e-07
0.000201965
4.63967e-07
0.000201794
5.26173e-07
0.000201604
6.08847e-07
0.000201397
7.20942e-07
0.000201185
8.72755e-07
0.000201008
1.06908e-06
1.30622e-06
0.000201001
0.000208798
8.01798e-08
0.000208762
1.40329e-07
0.000208713
1.88373e-07
0.000208654
2.30083e-07
0.000208586
2.65038e-07
0.000208509
2.97561e-07
0.000208424
3.28687e-07
0.000208332
3.59496e-07
0.000208231
3.91114e-07
0.000208122
4.24781e-07
0.000208004
4.61852e-07
0.000207877
5.04003e-07
0.000207739
5.53434e-07
0.00020759
6.13063e-07
0.00020743
6.86627e-07
0.00020726
7.78431e-07
0.000207089
8.92182e-07
0.000206934
1.02818e-06
0.000206825
1.17781e-06
1.3198e-06
0.000206811
0.000214589
1.01475e-07
0.000214552
1.77641e-07
0.000214502
2.38469e-07
0.000214441
2.90822e-07
0.000214371
3.35168e-07
0.000214293
3.76137e-07
0.000214206
4.15232e-07
0.000214112
4.53777e-07
0.00021401
4.9311e-07
0.0002139
5.34622e-07
0.000213782
5.79768e-07
0.000213656
6.30235e-07
0.000213522
6.88016e-07
0.000213379
7.5538e-07
0.000213231
8.34573e-07
0.000213083
9.27008e-07
0.000212943
1.03169e-06
0.000212829
1.14294e-06
0.000212758
1.24817e-06
1.32859e-06
0.000212749
0.00022054
1.23336e-07
0.000220502
2.15924e-07
0.00022045
2.89807e-07
0.000220389
3.53124e-07
0.000220317
4.0691e-07
0.000220237
4.56397e-07
0.00022015
5.03384e-07
0.000220054
5.49429e-07
0.000219951
5.96094e-07
0.000219841
6.44846e-07
0.000219724
6.97095e-07
0.0002196
7.54316e-07
0.00021947
8.17996e-07
0.000219336
8.8939e-07
0.000219201
9.68978e-07
0.000219073
1.05553e-06
0.000218959
1.1449e-06
0.000218873
1.22905e-06
0.000218825
1.29635e-06
1.33419e-06
0.00021882
0.000226656
1.45605e-07
0.000226617
2.54969e-07
0.000226565
3.42157e-07
0.000226502
4.16375e-07
0.000226429
4.79796e-07
0.000226348
5.37796e-07
0.000226258
5.9261e-07
0.000226162
6.45988e-07
0.000226058
6.99593e-07
0.000225948
7.54861e-07
0.000225832
8.13047e-07
0.000225712
8.75246e-07
0.000225587
9.42239e-07
0.000225463
1.01412e-06
0.000225342
1.0897e-06
0.000225232
1.16581e-06
0.00022514
1.23677e-06
0.000225074
1.29458e-06
0.00022504
1.33037e-06
1.33712e-06
0.000225037
0.000232941
1.68474e-07
0.000232902
2.94958e-07
0.000232848
3.95705e-07
0.000232784
4.81106e-07
0.00023271
5.54153e-07
0.000232628
6.20619e-07
0.000232537
6.83012e-07
0.00023244
7.43295e-07
0.000232337
8.03219e-07
0.000232227
8.64094e-07
0.000232114
9.26883e-07
0.000231997
9.92165e-07
0.000231879
1.05991e-06
0.000231764
1.12909e-06
0.000231657
1.1972e-06
0.000231563
1.25998e-06
0.000231488
1.31148e-06
0.000231437
1.34503e-06
0.000231413
1.35488e-06
1.33808e-06
0.000231412
0.000239401
1.91691e-07
0.000239361
3.3561e-07
0.000239307
4.50088e-07
0.000239241
5.4661e-07
0.000239166
6.29371e-07
0.000239083
7.04205e-07
0.000238992
7.74001e-07
0.000238894
8.40854e-07
0.000238791
9.06462e-07
0.000238683
9.71942e-07
0.000238572
1.0379e-06
0.00023846
1.10433e-06
0.000238349
1.17042e-06
0.000238244
1.23418e-06
0.000238149
1.29228e-06
0.000238069
1.34011e-06
0.000238008
1.37237e-06
0.000237969
1.38421e-06
0.000237951
1.37262e-06
1.33748e-06
0.000237952
0.000246041
2.15508e-07
0.000245999
3.77176e-07
0.000245944
5.0561e-07
0.000245878
6.13469e-07
0.000245802
7.05855e-07
0.000245717
7.88869e-07
0.000245626
8.65652e-07
0.000245528
9.38462e-07
0.000245426
1.00893e-06
0.00024532
1.07788e-06
0.000245212
1.14549e-06
0.000245105
1.21119e-06
0.000245003
1.27343e-06
0.000244907
1.32958e-06
0.000244824
1.37594e-06
0.000244755
1.40816e-06
0.000244706
1.42207e-06
0.000244675
1.41474e-06
0.000244663
1.38535e-06
1.33561e-06
0.000244664
0.000252864
2.3956e-07
0.000252822
4.193e-07
0.000252766
5.61779e-07
0.000252699
6.80892e-07
0.000252622
7.82855e-07
0.000252537
8.73874e-07
0.000252445
9.57351e-07
0.000252348
1.0356e-06
0.000252247
1.11008e-06
0.000252143
1.18133e-06
0.00025204
1.2491e-06
0.000251938
1.31228e-06
0.000251843
1.36879e-06
0.000251757
1.41564e-06
0.000251684
1.44919e-06
0.000251626
1.4658e-06
0.000251586
1.46264e-06
0.000251562
1.4385e-06
0.000251553
1.39423e-06
1.33266e-06
0.000251556
0.000259877
2.64235e-07
0.000259834
4.62268e-07
0.000259777
6.18985e-07
0.000259709
7.4947e-07
0.000259631
8.6085e-07
0.000259546
9.59508e-07
0.000259454
1.04911e-06
0.000259358
1.13205e-06
0.000259258
1.20957e-06
0.000259158
1.28188e-06
0.000259059
1.34832e-06
0.000258964
1.40734e-06
0.000258876
1.45653e-06
0.000258799
1.49284e-06
0.000258735
1.51307e-06
0.000258686
1.51451e-06
0.000258653
1.49567e-06
0.000258635
1.45683e-06
0.000258629
1.40003e-06
1.32876e-06
0.000258633
0.000267084
2.89046e-07
0.00026704
5.05632e-07
0.000266983
6.76592e-07
0.000266914
8.18331e-07
0.000266836
9.38959e-07
0.00026675
1.045e-06
0.000266659
1.14033e-06
0.000266564
1.22727e-06
0.000266467
1.30686e-06
0.000266369
1.37901e-06
0.000266275
1.44272e-06
0.000266186
1.49614e-06
0.000266106
1.53675e-06
0.000266037
1.56173e-06
0.000265982
1.56853e-06
0.000265941
1.55549e-06
0.000265914
1.52242e-06
0.0002659
1.47074e-06
0.000265897
1.40332e-06
1.32399e-06
0.000265902
0.000274491
3.14461e-07
0.000274447
5.49768e-07
0.000274389
7.35104e-07
0.000274319
8.88103e-07
0.000274241
1.01771e-06
0.000274155
1.13062e-06
0.000274065
1.23097e-06
0.000273971
1.32105e-06
0.000273876
1.40166e-06
0.000273783
1.47242e-06
0.000273694
1.53208e-06
0.000273611
1.57865e-06
0.000273538
1.60971e-06
0.000273477
1.62289e-06
0.000273429
1.61644e-06
0.000273395
1.5898e-06
0.000273374
1.54386e-06
0.000273364
1.48096e-06
0.000273362
1.4045e-06
1.31841e-06
0.000273368
0.000282103
3.39855e-07
0.000282059
5.94117e-07
0.000282
7.93754e-07
0.00028193
9.57828e-07
0.000281852
1.09615e-06
0.000281767
1.21561e-06
0.000281677
1.32045e-06
0.000281586
1.41286e-06
0.000281494
1.49346e-06
0.000281405
1.56169e-06
0.00028132
1.61614e-06
0.000281244
1.65484e-06
0.000281178
1.67567e-06
0.000281124
1.67687e-06
0.000281083
1.65759e-06
0.000281055
1.61829e-06
0.000281038
1.56078e-06
0.000281031
1.48807e-06
0.000281031
1.40386e-06
1.31209e-06
0.000281038
0.000289927
3.65853e-07
0.000289882
6.39129e-07
0.000289823
8.53128e-07
0.000289753
1.02816e-06
0.000289675
1.17479e-06
0.00028959
1.30016e-06
0.000289502
1.4087e-06
0.000289413
1.50253e-06
0.000289324
1.58207e-06
0.000289239
1.64665e-06
0.000289161
1.69483e-06
0.000289091
1.72482e-06
0.000289031
1.73496e-06
0.000288984
1.72423e-06
0.000288949
1.69268e-06
0.000288926
1.64168e-06
0.000288913
1.57379e-06
0.000288908
1.49249e-06
0.00028891
1.40164e-06
1.30506e-06
0.000288917
0.000297967
3.91684e-07
0.000297922
6.84111e-07
0.000297863
9.12319e-07
0.000297793
1.09807e-06
0.000297715
1.25267e-06
0.000297632
1.38354e-06
0.000297545
1.49514e-06
0.000297458
1.58952e-06
0.000297373
1.66703e-06
0.000297293
1.72696e-06
0.00029722
1.76799e-06
0.000297156
1.78867e-06
0.000297103
1.78791e-06
0.000297062
1.76549e-06
0.000297032
1.72232e-06
0.000297013
1.66057e-06
0.000297004
1.5834e-06
0.000297002
1.49458e-06
0.000297005
1.39801e-06
1.29736e-06
0.000297013
0.000306231
4.18073e-07
0.000306186
7.29633e-07
0.000306127
9.7201e-07
0.000306057
1.16822e-06
0.000305979
1.33027e-06
0.000305897
1.46589e-06
0.000305813
1.57971e-06
0.000305729
1.67372e-06
0.000305647
1.74821e-06
0.000305572
1.80257e-06
0.000305504
1.8357e-06
0.000305446
1.84662e-06
0.000305399
1.8349e-06
0.000305364
1.80113e-06
0.000305339
1.74704e-06
0.000305324
1.67548e-06
0.000305318
1.59002e-06
0.000305318
1.49461e-06
0.000305322
1.39312e-06
1.28902e-06
0.000305331
0.000314724
4.44092e-07
0.000314679
7.7486e-07
0.00031462
1.03117e-06
0.00031455
1.23752e-06
0.000314474
1.40665e-06
0.000314393
1.54654e-06
0.000314311
1.66186e-06
0.00031423
1.75463e-06
0.000314153
1.82524e-06
0.000314082
1.87324e-06
0.00031402
1.8979e-06
0.000313968
1.89879e-06
0.000313926
1.87623e-06
0.000313896
1.83159e-06
0.000313876
1.76732e-06
0.000313864
1.68681e-06
0.00031386
1.59397e-06
0.000313862
1.4928e-06
0.000313868
1.38707e-06
1.28006e-06
0.000313877
0.000323452
4.70631e-07
0.000323407
8.20462e-07
0.000323348
1.09057e-06
0.000323279
1.30667e-06
0.000323204
1.48222e-06
0.000323125
1.62557e-06
0.000323045
1.74156e-06
0.000322968
1.83221e-06
0.000322895
1.89808e-06
0.000322829
1.93901e-06
0.000322773
1.95474e-06
0.000322726
1.94547e-06
0.00032269
1.91228e-06
0.000322664
1.85728e-06
0.000322648
1.78357e-06
0.00032264
1.69495e-06
0.000322638
1.59553e-06
0.000322642
1.48932e-06
0.000322649
1.37997e-06
1.27051e-06
0.000322659
0.000332423
4.96611e-07
0.000332378
8.65457e-07
0.000332319
1.14905e-06
0.000332251
1.37457e-06
0.000332177
1.5561e-06
0.0003321
1.70236e-06
0.000332024
1.81825e-06
0.00033195
1.906e-06
0.000331882
1.96641e-06
0.000331821
1.99972e-06
0.000331769
2.00623e-06
0.000331728
1.98683e-06
0.000331697
1.94334e-06
0.000331676
1.87856e-06
0.000331663
1.79614e-06
0.000331658
1.70019e-06
0.000331659
1.59493e-06
0.000331664
1.48434e-06
0.000331672
1.37188e-06
1.26039e-06
0.000331682
0.000341643
5.23013e-07
0.000341598
9.10643e-07
0.00034154
1.20746e-06
0.000341473
1.44183e-06
0.0003414
1.62863e-06
0.000341326
1.77698e-06
0.000341252
1.89195e-06
0.000341182
1.976e-06
0.000341118
2.03028e-06
0.000341063
2.05549e-06
0.000341016
2.05257e-06
0.00034098
2.02314e-06
0.000340954
1.96974e-06
0.000340937
1.89578e-06
0.000340927
1.80534e-06
0.000340925
1.70279e-06
0.000340927
1.59238e-06
0.000340934
1.47798e-06
0.000340943
1.36288e-06
1.24971e-06
0.000340953
0.000351118
5.48626e-07
0.000351073
9.54883e-07
0.000351016
1.26454e-06
0.00035095
1.50738e-06
0.00035088
1.69899e-06
0.000350808
1.84881e-06
0.000350738
1.96215e-06
0.000350672
2.04183e-06
0.000350613
2.08942e-06
0.000350562
2.10622e-06
0.000350521
2.09383e-06
0.000350489
2.0546e-06
0.000350467
1.99174e-06
0.000350454
1.90922e-06
0.000350448
1.81146e-06
0.000350447
1.70298e-06
0.000350452
1.58802e-06
0.000350459
1.47034e-06
0.000350469
1.35302e-06
1.23849e-06
0.000350481
0.000360856
5.74574e-07
0.000360812
9.99101e-07
0.000360756
1.32118e-06
0.000360691
1.57184e-06
0.000360623
1.76748e-06
0.000360554
1.91797e-06
0.000360487
2.02892e-06
0.000360426
2.10355e-06
0.000360371
2.14396e-06
0.000360325
2.15208e-06
0.000360289
2.13023e-06
0.000360262
2.08147e-06
0.000360244
2.00964e-06
0.000360234
1.91916e-06
0.000360231
1.81473e-06
0.000360233
1.70096e-06
0.000360239
1.58202e-06
0.000360248
1.46151e-06
0.000360259
1.34235e-06
1.22676e-06
0.00036027
0.000370864
5.99522e-07
0.000370821
1.04202e-06
0.000370766
1.37612e-06
0.000370703
1.63418e-06
0.000370637
1.83333e-06
0.000370571
1.98385e-06
0.000370508
2.09177e-06
0.000370451
2.16082e-06
0.000370401
2.19371e-06
0.00037036
2.19304e-06
0.000370329
2.16187e-06
0.000370306
2.10394e-06
0.000370292
2.02366e-06
0.000370285
1.92584e-06
0.000370285
1.81538e-06
0.000370289
1.69689e-06
0.000370296
1.57448e-06
0.000370306
1.45158e-06
0.000370318
1.33092e-06
1.21452e-06
0.00037033
0.00038115
6.24674e-07
0.000381107
1.08467e-06
0.000381054
1.43019e-06
0.000380993
1.69492e-06
0.00038093
1.8968e-06
0.000380867
2.04659e-06
0.000380808
2.15081e-06
0.000380755
2.21376e-06
0.00038071
2.2388e-06
0.000380674
2.22928e-06
0.000380647
2.18897e-06
0.000380629
2.12226e-06
0.000380618
2.03407e-06
0.000380615
1.9295e-06
0.000380616
1.81359e-06
0.000380622
1.69094e-06
0.000380631
1.56553e-06
0.000380642
1.44063e-06
0.000380654
1.31877e-06
1.20181e-06
0.000380667
0.000391721
6.48591e-07
0.00039168
1.12566e-06
0.000391627
1.48216e-06
0.000391569
1.75311e-06
0.000391508
1.95717e-06
0.000391449
2.10564e-06
0.000391394
2.20563e-06
0.000391346
2.26209e-06
0.000391306
2.27913e-06
0.000391274
2.26081e-06
0.000391251
2.21164e-06
0.000391237
2.13661e-06
0.00039123
2.04105e-06
0.000391229
1.93032e-06
0.000391233
1.80954e-06
0.000391241
1.68323e-06
0.000391251
1.55526e-06
0.000391263
1.42871e-06
0.000391276
1.30593e-06
1.18862e-06
0.000391289
0.000402585
6.72588e-07
0.000402545
1.16608e-06
0.000402495
1.53285e-06
0.000402438
1.80922e-06
0.000402381
2.0147e-06
0.000402326
2.16117e-06
0.000402275
2.25637e-06
0.000402231
2.30598e-06
0.000402195
2.31486e-06
0.000402168
2.28785e-06
0.00040215
2.23012e-06
0.000402139
2.14722e-06
0.000402136
2.04483e-06
0.000402137
1.9285e-06
0.000402144
1.80337e-06
0.000402153
1.67388e-06
0.000402165
1.54375e-06
0.000402177
1.41588e-06
0.000402191
1.29244e-06
1.17498e-06
0.000402204
0.000413751
6.95129e-07
0.000413712
1.20455e-06
0.000413663
1.58112e-06
0.00041361
1.8624e-06
0.000413556
2.06873e-06
0.000413504
2.21265e-06
0.000413458
2.30266e-06
0.000413419
2.3452e-06
0.000413388
2.34593e-06
0.000413365
2.31043e-06
0.000413351
2.24452e-06
0.000413344
2.15424e-06
0.000413343
2.04557e-06
0.000413347
1.9242e-06
0.000413355
1.79522e-06
0.000413366
1.663e-06
0.000413379
1.53108e-06
0.000413393
1.40219e-06
0.000413407
1.27834e-06
1.16091e-06
0.000413421
0.000425226
7.17581e-07
0.000425189
1.24209e-06
0.000425142
1.62765e-06
0.000425092
1.91306e-06
0.000425041
2.11952e-06
0.000424994
2.26031e-06
0.000424952
2.34469e-06
0.000424917
2.37995e-06
0.00042489
2.37253e-06
0.000424872
2.32876e-06
0.000424862
2.25506e-06
0.000424858
2.15789e-06
0.00042486
2.04348e-06
0.000424867
1.91757e-06
0.000424877
1.78523e-06
0.000424889
1.65069e-06
0.000424903
1.51732e-06
0.000424917
1.38769e-06
0.000424932
1.26364e-06
1.14642e-06
0.000424946
0.00043702
7.38379e-07
0.000436984
1.27739e-06
0.00043694
1.67142e-06
0.000436892
1.96042e-06
0.000436845
2.16647e-06
0.000436802
2.30366e-06
0.000436764
2.38215e-06
0.000436734
2.41005e-06
0.000436712
2.39463e-06
0.000436698
2.3429e-06
0.000436691
2.26186e-06
0.000436691
2.15832e-06
0.000436696
2.03869e-06
0.000436704
1.90876e-06
0.000436716
1.77351e-06
0.00043673
1.63703e-06
0.000436745
1.50254e-06
0.00043676
1.37243e-06
0.000436775
1.24838e-06
1.13153e-06
0.00043679
0.000449141
7.58908e-07
0.000449107
1.31144e-06
0.000449065
1.71307e-06
0.000449021
2.00488e-06
0.000448977
2.20985e-06
0.000448938
2.34297e-06
0.000448905
2.41527e-06
0.000448879
2.43574e-06
0.000448862
2.41244e-06
0.000448852
2.35308e-06
0.000448848
2.26512e-06
0.000448851
2.1557e-06
0.000448858
2.03137e-06
0.000448869
1.89789e-06
0.000448882
1.76017e-06
0.000448897
1.62212e-06
0.000448913
1.4868e-06
0.000448929
1.35644e-06
0.000448945
1.2326e-06
1.11625e-06
0.00044896
0.000461598
7.77622e-07
0.000461566
1.34303e-06
0.000461527
1.75168e-06
0.000461486
2.04572e-06
0.000461446
2.24911e-06
0.000461411
2.37782e-06
0.000461383
2.44378e-06
0.000461362
2.45688e-06
0.000461348
2.42596e-06
0.000461342
2.35935e-06
0.000461342
2.26497e-06
0.000461347
2.15019e-06
0.000461357
2.02165e-06
0.00046137
1.8851e-06
0.000461385
1.74529e-06
0.000461401
1.60601e-06
0.000461418
1.47015e-06
0.000461434
1.33978e-06
0.00046145
1.2163e-06
1.10061e-06
0.000461466
0.0004744
7.95901e-07
0.00047437
1.3731e-06
0.000474334
1.78782e-06
0.000474297
2.08333e-06
0.000474261
2.28457e-06
0.000474231
2.40847e-06
0.000474206
2.46794e-06
0.00047419
2.47372e-06
0.00047418
2.43541e-06
0.000474178
2.36194e-06
0.000474181
2.26159e-06
0.000474189
2.14194e-06
0.000474201
2.00968e-06
0.000474216
1.87048e-06
0.000474232
1.72898e-06
0.000474249
1.58879e-06
0.000474267
1.45265e-06
0.000474284
1.32247e-06
0.000474301
1.19953e-06
1.08461e-06
0.000474317
0.000487558
8.12236e-07
0.00048753
1.40049e-06
0.000487497
1.82067e-06
0.000487463
2.11708e-06
0.000487432
2.31573e-06
0.000487405
2.43459e-06
0.000487386
2.48754e-06
0.000487373
2.48617e-06
0.000487368
2.44082e-06
0.000487369
2.36092e-06
0.000487375
2.2551e-06
0.000487386
2.13109e-06
0.0004874
1.99558e-06
0.000487417
1.85415e-06
0.000487434
1.71131e-06
0.000487452
1.57052e-06
0.000487471
1.43434e-06
0.000487489
1.30455e-06
0.000487506
1.1823e-06
1.06827e-06
0.000487522
0.00050108
8.27997e-07
0.000501055
1.4261e-06
0.000501025
1.85077e-06
0.000500995
2.14735e-06
0.000500967
2.34292e-06
0.000500946
2.45647e-06
0.00050093
2.50284e-06
0.000500922
2.4945e-06
0.00050092
2.44241e-06
0.000500925
2.3565e-06
0.000500934
2.24568e-06
0.000500948
2.11778e-06
0.000500964
1.97946e-06
0.000500982
1.83622e-06
0.000501001
1.69238e-06
0.00050102
1.55127e-06
0.000501039
1.41527e-06
0.000501057
1.28605e-06
0.000501075
1.16464e-06
1.05162e-06
0.000501092
0.000514978
8.41691e-07
0.000514955
1.44884e-06
0.000514928
1.87734e-06
0.000514902
2.17356e-06
0.000514879
2.3657e-06
0.000514861
2.47382e-06
0.00051485
2.51371e-06
0.000514846
2.49864e-06
0.000514848
2.44022e-06
0.000514856
2.34878e-06
0.000514868
2.23346e-06
0.000514884
2.10214e-06
0.000514902
1.96146e-06
0.000514921
1.81676e-06
0.000514941
1.67226e-06
0.000514961
1.53109e-06
0.000514981
1.3955e-06
0.000515
1.26702e-06
0.000515018
1.14658e-06
1.03466e-06
0.000515035
0.000529261
8.54678e-07
0.00052924
1.46959e-06
0.000529217
1.90095e-06
0.000529194
2.19613e-06
0.000529176
2.38443e-06
0.000529162
2.48695e-06
0.000529156
2.52042e-06
0.000529156
2.49887e-06
0.000529161
2.43448e-06
0.000529172
2.33794e-06
0.000529187
2.21858e-06
0.000529205
2.0843e-06
0.000529225
1.94166e-06
0.000529245
1.79589e-06
0.000529267
1.65101e-06
0.000529288
1.51003e-06
0.000529308
1.37505e-06
0.000529328
1.24747e-06
0.000529346
1.12813e-06
1.01742e-06
0.000529363
0.00054394
8.65508e-07
0.000543922
1.48728e-06
0.000543902
1.92084e-06
0.000543883
2.21451e-06
0.000543869
2.39873e-06
0.00054386
2.49563e-06
0.000543857
2.52286e-06
0.000543861
2.49517e-06
0.00054387
2.42524e-06
0.000543884
2.3241e-06
0.000543902
2.20117e-06
0.000543921
2.06439e-06
0.000543943
1.92019e-06
0.000543965
1.77368e-06
0.000543987
1.62872e-06
0.000544009
1.48817e-06
0.00054403
1.35398e-06
0.00054405
1.22745e-06
0.000544069
1.10932e-06
9.99918e-07
0.000544087
0.000559026
8.75504e-07
0.000559011
1.5028e-06
0.000558994
1.93761e-06
0.000558979
2.22916e-06
0.000558969
2.40897e-06
0.000558965
2.50019e-06
0.000558966
2.52132e-06
0.000558974
2.48778e-06
0.000558986
2.41273e-06
0.000559003
2.30742e-06
0.000559023
2.18139e-06
0.000559044
2.04252e-06
0.000559068
1.89715e-06
0.000559091
1.75021e-06
0.000559114
1.60545e-06
0.000559137
1.46554e-06
0.000559158
1.33233e-06
0.000559179
1.20699e-06
0.000559198
1.09018e-06
9.82164e-07
0.000559216
0.000574531
8.83243e-07
0.000574518
1.51515e-06
0.000574505
1.95056e-06
0.000574494
2.23959e-06
0.000574488
2.41484e-06
0.000574488
2.50046e-06
0.000574493
2.51575e-06
0.000574504
2.47675e-06
0.00057452
2.39702e-06
0.000574539
2.28802e-06
0.000574561
2.15934e-06
0.000574585
2.0188e-06
0.00057461
1.87261e-06
0.000574634
1.72558e-06
0.000574658
1.58126e-06
0.000574682
1.4422e-06
0.000574704
1.31013e-06
0.000574725
1.18612e-06
0.000574744
1.07073e-06
9.6418e-07
0.000574762
0.000590465
8.90036e-07
0.000590455
1.52519e-06
0.000590446
1.96029e-06
0.000590439
2.24627e-06
0.000590437
2.41673e-06
0.000590441
2.49676e-06
0.00059045
2.50642e-06
0.000590465
2.46231e-06
0.000590483
2.37832e-06
0.000590505
2.26607e-06
0.000590529
2.13517e-06
0.000590555
1.99335e-06
0.000590581
1.8467e-06
0.000590606
1.69984e-06
0.000590631
1.55621e-06
0.000590655
1.41821e-06
0.000590678
1.28743e-06
0.000590699
1.16487e-06
0.000590719
1.051e-06
9.45985e-07
0.000590737
0.000606841
8.94589e-07
0.000606834
1.53199e-06
0.000606828
1.96618e-06
0.000606825
2.24879e-06
0.000606828
2.4144e-06
0.000606835
2.48899e-06
0.000606848
2.49334e-06
0.000606866
2.44452e-06
0.000606888
2.35672e-06
0.000606912
2.24169e-06
0.000606938
2.109e-06
0.000606965
1.96628e-06
0.000606992
1.81948e-06
0.000607019
1.6731e-06
0.000607045
1.53038e-06
0.00060707
1.3936e-06
0.000607093
1.26427e-06
0.000607114
1.14326e-06
0.000607134
1.031e-06
9.27597e-07
0.000607153
0.000623672
8.98039e-07
0.000623667
1.53641e-06
0.000623665
1.96884e-06
0.000623666
2.24761e-06
0.000623672
2.40822e-06
0.000623684
2.47746e-06
0.0006237
2.47675e-06
0.000623721
2.4236e-06
0.000623746
2.33243e-06
0.000623772
2.21503e-06
0.0006238
2.08094e-06
0.000623829
1.9377e-06
0.000623857
1.79107e-06
0.000623885
1.6454e-06
0.000623911
1.50381e-06
0.000623937
1.36843e-06
0.00062396
1.24067e-06
0.000623982
1.12133e-06
0.000624002
1.01077e-06
9.09033e-07
0.000624021
0.000640969
8.99286e-07
0.000640967
1.53764e-06
0.000640968
1.96774e-06
0.000640973
2.24242e-06
0.000640983
2.39803e-06
0.000640999
2.46214e-06
0.000641019
2.45672e-06
0.000641042
2.39966e-06
0.000641069
2.30554e-06
0.000641098
2.18622e-06
0.000641128
2.05114e-06
0.000641158
1.9077e-06
0.000641187
1.76154e-06
0.000641216
1.61683e-06
0.000641243
1.47656e-06
0.000641269
1.34275e-06
0.000641293
1.21669e-06
0.000641315
1.09911e-06
0.000641335
9.9032e-07
8.90315e-07
0.000641354
0.000658746
8.99392e-07
0.000658747
1.53647e-06
0.000658751
1.96347e-06
0.00065876
2.23368e-06
0.000658774
2.38421e-06
0.000658793
2.44332e-06
0.000658816
2.43349e-06
0.000658843
2.37289e-06
0.000658872
2.27625e-06
0.000658903
2.1554e-06
0.000658934
2.01969e-06
0.000658965
1.87639e-06
0.000658996
1.73097e-06
0.000659025
1.58746e-06
0.000659053
1.4487e-06
0.000659079
1.3166e-06
0.000659103
1.19236e-06
0.000659126
1.07663e-06
0.000659147
9.69681e-07
8.7146e-07
0.000659165
0.000677015
8.97427e-07
0.000677019
1.53225e-06
0.000677027
1.9556e-06
0.000677039
2.22113e-06
0.000677057
2.36665e-06
0.000677079
2.42102e-06
0.000677105
2.40714e-06
0.000677135
2.34343e-06
0.000677166
2.24468e-06
0.000677199
2.1227e-06
0.000677232
1.98673e-06
0.000677264
1.84388e-06
0.000677296
1.69946e-06
0.000677326
1.55736e-06
0.000677354
1.42027e-06
0.000677381
1.29002e-06
0.000677406
1.16771e-06
0.000677428
1.05392e-06
0.000677449
9.48874e-07
8.52488e-07
0.000677468
0.000695792
8.94327e-07
0.000695798
1.52571e-06
0.000695809
1.9447e-06
0.000695825
2.20524e-06
0.000695846
2.34572e-06
0.000695871
2.39553e-06
0.000695901
2.37791e-06
0.000695933
2.31146e-06
0.000695966
2.211e-06
0.000696001
2.08827e-06
0.000696035
1.95237e-06
0.000696069
1.81025e-06
0.000696101
1.66708e-06
0.000696132
1.52658e-06
0.000696161
1.39134e-06
0.000696188
1.26307e-06
0.000696212
1.14278e-06
0.000696235
1.03101e-06
0.000696256
9.27925e-07
8.33417e-07
0.000696275
0.000715089
8.89288e-07
0.000715098
1.51629e-06
0.000715112
1.93043e-06
0.000715131
2.18583e-06
0.000715155
2.32138e-06
0.000715184
2.36689e-06
0.000715216
2.3459e-06
0.00071525
2.27711e-06
0.000715286
2.17534e-06
0.000715322
2.05222e-06
0.000715357
1.91672e-06
0.000715392
1.77562e-06
0.000715425
1.63392e-06
0.000715457
1.49521e-06
0.000715486
1.36196e-06
0.000715513
1.23578e-06
0.000715538
1.11761e-06
0.000715561
1.00793e-06
0.000715582
9.06857e-07
8.14268e-07
0.000715602
0.00073492
8.83187e-07
0.000734932
1.50468e-06
0.000734949
1.91333e-06
0.000734972
2.16334e-06
0.000734999
2.29398e-06
0.000735031
2.33541e-06
0.000735065
2.31135e-06
0.000735102
2.24058e-06
0.000735139
2.13786e-06
0.000735177
2.01469e-06
0.000735213
1.87989e-06
0.000735249
1.74006e-06
0.000735283
1.60005e-06
0.000735315
1.46331e-06
0.000735344
1.33218e-06
0.000735372
1.2082e-06
0.000735397
1.09223e-06
0.000735421
9.84698e-07
0.000735442
8.85692e-07
7.95059e-07
0.000735461
0.000755302
8.75269e-07
0.000755316
1.4904e-06
0.000755336
1.89313e-06
0.000755362
2.13765e-06
0.000755392
2.26351e-06
0.000755426
2.30114e-06
0.000755463
2.27438e-06
0.000755502
2.202e-06
0.000755541
2.0987e-06
0.00075558
1.97581e-06
0.000755618
1.84198e-06
0.000755654
1.70367e-06
0.000755689
1.56554e-06
0.000755721
1.43093e-06
0.000755751
1.30206e-06
0.000755779
1.18037e-06
0.000755805
1.06667e-06
0.000755828
9.61353e-07
0.000755849
8.64456e-07
7.75811e-07
0.000755868
0.000776249
8.66401e-07
0.000776265
1.47411e-06
0.000776288
1.87037e-06
0.000776317
2.10919e-06
0.00077635
2.23033e-06
0.000776387
2.26437e-06
0.000776426
2.23521e-06
0.000776466
2.16156e-06
0.000776507
2.058e-06
0.000776547
1.9357e-06
0.000776586
1.80312e-06
0.000776623
1.66654e-06
0.000776658
1.53048e-06
0.000776691
1.39814e-06
0.000776721
1.27164e-06
0.000776749
1.15233e-06
0.000776775
1.04098e-06
0.000776798
9.37923e-07
0.00077682
8.4317e-07
7.56541e-07
0.000776839
0.000797777
8.55828e-07
0.000797795
1.45539e-06
0.000797821
1.84481e-06
0.000797852
2.07788e-06
0.000797888
2.19446e-06
0.000797927
2.22519e-06
0.000797968
2.19396e-06
0.00079801
2.1194e-06
0.000798052
2.01591e-06
0.000798094
1.89448e-06
0.000798133
1.7634e-06
0.000798171
1.62876e-06
0.000798207
1.49494e-06
0.00079824
1.365e-06
0.00079827
1.24097e-06
0.000798299
1.12413e-06
0.000798324
1.01519e-06
0.000798348
9.14432e-07
0.000798369
8.2186e-07
7.3727e-07
0.000798388
0.000819901
8.44429e-07
0.000819922
1.43487e-06
0.00081995
1.81697e-06
0.000819984
2.04415e-06
0.000820022
2.15625e-06
0.000820063
2.18388e-06
0.000820106
2.15088e-06
0.00082015
2.0757e-06
0.000820193
1.97257e-06
0.000820235
1.85228e-06
0.000820276
1.72292e-06
0.000820314
1.59041e-06
0.00082035
1.45898e-06
0.000820384
1.33156e-06
0.000820414
1.2101e-06
0.000820443
1.0958e-06
0.000820469
9.89319e-07
0.000820492
8.90907e-07
0.000820513
8.00544e-07
7.18014e-07
0.000820533
0.000842639
8.31462e-07
0.000842662
1.41217e-06
0.000842692
1.78667e-06
0.000842728
2.00795e-06
0.000842769
2.11574e-06
0.000842812
2.14055e-06
0.000842857
2.10607e-06
0.000842902
2.03059e-06
0.000842946
1.9281e-06
0.000842989
1.80921e-06
0.00084303
1.68179e-06
0.000843069
1.55159e-06
0.000843106
1.42268e-06
0.000843139
1.2979e-06
0.00084317
1.17909e-06
0.000843199
1.06739e-06
0.000843225
9.63413e-07
0.000843248
8.6738e-07
0.000843269
7.7925e-07
6.98795e-07
0.000843289
0.000866008
8.17801e-07
0.000866032
1.38793e-06
0.000866065
1.75441e-06
0.000866103
1.96969e-06
0.000866145
2.07325e-06
0.00086619
2.09545e-06
0.000866237
2.05976e-06
0.000866283
1.98424e-06
0.000866328
1.88267e-06
0.000866372
1.76539e-06
0.000866414
1.6401e-06
0.000866453
1.51236e-06
0.00086649
1.38611e-06
0.000866524
1.26406e-06
0.000866555
1.14797e-06
0.000866583
1.03893e-06
0.000866609
9.375e-07
0.000866632
8.43873e-07
0.000866654
7.57996e-07
6.79628e-07
0.000866673
0.000890024
8.02739e-07
0.00089005
1.36178e-06
0.000890085
1.72005e-06
0.000890125
1.92935e-06
0.000890169
2.02887e-06
0.000890216
2.0487e-06
0.000890263
2.01208e-06
0.000890311
1.93681e-06
0.000890357
1.83638e-06
0.000890402
1.72094e-06
0.000890444
1.59795e-06
0.000890483
1.47281e-06
0.00089052
1.34933e-06
0.000890554
1.23009e-06
0.000890585
1.1168e-06
0.000890614
1.01046e-06
0.000890639
9.11611e-07
0.000890663
8.20416e-07
0.000890684
7.36805e-07
6.60535e-07
0.000890703
0.000914707
7.87145e-07
0.000914734
1.33437e-06
0.00091477
1.68408e-06
0.000914812
1.88733e-06
0.000914858
1.98289e-06
0.000914906
2.00056e-06
0.000914955
1.96324e-06
0.000915003
1.88843e-06
0.00091505
1.78938e-06
0.000915095
1.67596e-06
0.000915138
1.55543e-06
0.000915178
1.43303e-06
0.000915215
1.3124e-06
0.000915249
1.19606e-06
0.00091528
1.08561e-06
0.000915308
9.82021e-07
0.000915334
8.85776e-07
0.000915357
7.97029e-07
0.000915378
7.15696e-07
6.41529e-07
0.000915397
0.000940073
7.70338e-07
0.000940102
1.30537e-06
0.00094014
1.64637e-06
0.000940183
1.84362e-06
0.000940231
1.93541e-06
0.00094028
1.95113e-06
0.00094033
1.91336e-06
0.000940379
1.83925e-06
0.000940427
1.74178e-06
0.000940472
1.63056e-06
0.000940515
1.51264e-06
0.000940555
1.39307e-06
0.000940592
1.2754e-06
0.000940626
1.16202e-06
0.000940657
1.05446e-06
0.000940685
9.53645e-07
0.000940711
8.60029e-07
0.000940734
7.73744e-07
0.000940755
6.94695e-07
6.22633e-07
0.000940774
0.000966143
7.53176e-07
0.000966173
1.27537e-06
0.000966212
1.6074e-06
0.000966257
1.7986e-06
0.000966306
1.88671e-06
0.000966356
1.90066e-06
0.000966407
1.86262e-06
0.000966457
1.78943e-06
0.000966505
1.69371e-06
0.000966551
1.58484e-06
0.000966594
1.46965e-06
0.000966634
1.35303e-06
0.000966671
1.23838e-06
0.000966705
1.12801e-06
0.000966736
1.02338e-06
0.000966764
9.25373e-07
0.00096679
8.34397e-07
0.000966813
7.50583e-07
0.000966834
6.73819e-07
6.03862e-07
0.000966852
0.000992936
7.34986e-07
0.000992967
1.2441e-06
0.000993007
1.56707e-06
0.000993054
1.7523e-06
0.000993103
1.83688e-06
0.000993155
1.84927e-06
0.000993206
1.81118e-06
0.000993257
1.73907e-06
0.000993305
1.64528e-06
0.000993351
1.5389e-06
0.000993394
1.42656e-06
0.000993434
1.31297e-06
0.000993471
1.20141e-06
0.000993505
1.09409e-06
0.000993536
9.92428e-07
0.000993564
8.97236e-07
0.000993589
8.08918e-07
0.000993612
7.27576e-07
0.000993633
6.53098e-07
5.85239e-07
0.000993652
0.00102047
7.1659e-07
0.0010205
1.21211e-06
0.00102055
1.5258e-06
0.00102059
1.70503e-06
0.00102064
1.78619e-06
0.0010207