/*--------------------------------*- C++ -*----------------------------------*\
| =========                 |                                                 |
| \\      /  F ield         | OpenFOAM: The Open Source CFD Toolbox           |
|  \\    /   O peration     | Version:  2.4.0                                 |
|   \\  /    A nd           | Web:      www.OpenFOAM.org                      |
|    \\/     M anipulation  |                                                 |
\*---------------------------------------------------------------------------*/
FoamFile
{
    version     2.0;
    format      ascii;
    class       surfaceScalarField;
    location    "5.36";
    object      phi;
}
// * * * * * * * * * * * * * * * * * * * * * * * * * * * * * * * * * * * * * //

dimensions      [0 3 -1 0 0 0 0];

internalField   nonuniform List<scalar> 
11840
(
7.83521e-07
9.21648e-06
-9.36215e-07
1.71974e-06
6.58455e-07
-1.59467e-06
1.46116e-07
5.12339e-07
-2.05685e-07
3.51802e-07
-3.05526e-07
9.98402e-08
-4.11722e-07
1.06197e-07
-5.07978e-07
9.62561e-08
-6.94774e-07
1.86796e-07
-8.51604e-07
1.5683e-07
-1.08261e-06
2.31001e-07
-1.25795e-06
1.75347e-07
-1.44158e-06
1.83626e-07
-1.57101e-06
1.29429e-07
-1.70991e-06
1.38904e-07
-1.87209e-06
1.62181e-07
-2.09921e-06
2.27114e-07
-2.37029e-06
2.71085e-07
-2.65208e-06
2.81787e-07
-2.90733e-06
2.55255e-07
-3.12745e-06
2.20112e-07
-3.31759e-06
1.9014e-07
-3.4842e-06
1.6661e-07
-3.628e-06
1.43804e-07
-3.74907e-06
1.21066e-07
-3.84656e-06
9.74974e-08
-3.91941e-06
7.28466e-08
-3.96592e-06
4.65108e-08
-3.98343e-06
1.75124e-08
-3.96985e-06
-1.35795e-08
-3.92522e-06
-4.46389e-08
-3.84887e-06
-7.63432e-08
-3.73931e-06
-1.09563e-07
-3.59512e-06
-1.44192e-07
-3.41524e-06
-1.79881e-07
-3.1986e-06
-2.16634e-07
-2.94499e-06
-2.53613e-07
-2.65368e-06
-2.91307e-07
-2.32607e-06
-3.27612e-07
-1.96125e-06
-3.64821e-07
-1.56384e-06
-3.97406e-07
-1.13112e-06
-4.32724e-07
-6.73518e-07
-4.57602e-07
-1.8476e-07
-4.88758e-07
3.14571e-07
-4.99332e-07
8.42037e-07
-5.27466e-07
1.35775e-06
-5.15711e-07
1.91304e-06
-5.55288e-07
2.41624e-06
-5.032e-07
2.99184e-06
-5.756e-07
3.4397e-06
-4.47863e-07
4.04657e-06
-6.06869e-07
4.37634e-06
-3.29777e-07
5.06126e-06
-6.8492e-07
5.17656e-06
-1.15291e-07
6.02965e-06
-8.53095e-07
5.78135e-06
2.48297e-07
7.00378e-06
-1.22243e-06
6.31212e-06
6.9166e-07
-2.40751e-06
2.4514e-06
1.67651e-05
-5.06841e-07
4.67798e-06
3.68233e-07
-2.46974e-06
-8.6769e-08
9.67341e-07
-3.12383e-07
5.77416e-07
-4.69007e-07
2.56464e-07
-5.72282e-07
2.09472e-07
-6.91435e-07
2.1541e-07
-8.80687e-07
3.76048e-07
-1.05933e-06
3.35477e-07
-1.27855e-06
4.50217e-07
-1.46096e-06
3.57757e-07
-1.63029e-06
3.52958e-07
-1.76797e-06
2.67108e-07
-1.91527e-06
2.86201e-07
-2.09722e-06
3.44131e-07
-2.3324e-06
4.62292e-07
-2.59676e-06
5.35449e-07
-2.85604e-06
5.41071e-07
-3.08774e-06
4.86949e-07
-3.29027e-06
4.22644e-07
-3.46737e-06
3.67246e-07
-3.62128e-06
3.20512e-07
-3.75206e-06
2.74585e-07
-3.85936e-06
2.28367e-07
-3.94224e-06
1.80384e-07
-3.99958e-06
1.30186e-07
-4.03005e-06
7.69798e-08
-4.03279e-06
2.02512e-08
-4.00673e-06
-3.96386e-08
-3.94989e-06
-1.0148e-07
-3.86033e-06
-1.65903e-07
-3.73656e-06
-2.33332e-07
-3.57723e-06
-3.03523e-07
-3.38125e-06
-3.75865e-07
-3.14774e-06
-4.50145e-07
-2.87631e-06
-5.25042e-07
-2.56679e-06
-6.00822e-07
-2.21988e-06
-6.74524e-07
-1.83628e-06
-7.48421e-07
-1.4182e-06
-8.15489e-07
-9.67406e-07
-8.83514e-07
-4.87825e-07
-9.37182e-07
1.71677e-08
-9.93751e-07
5.41138e-07
-1.0233e-06
1.08323e-06
-1.06955e-06
1.63247e-06
-1.06495e-06
2.19389e-06
-1.11671e-06
2.74507e-06
-1.05439e-06
3.30825e-06
-1.13877e-06
3.83329e-06
-9.72909e-07
4.38876e-06
-1.16234e-06
4.85275e-06
-7.93762e-07
5.41098e-06
-1.24316e-06
5.76185e-06
-4.66155e-07
6.37847e-06
-1.46972e-06
6.53485e-06
9.19246e-08
7.33168e-06
-2.01926e-06
7.29987e-06
7.23473e-07
-3.92004e-06
3.60692e-06
2.31582e-05
1.72573e-08
8.26764e-06
5.85157e-08
-2.511e-06
-3.04816e-07
1.33067e-06
-3.68517e-07
6.41117e-07
-5.34166e-07
4.22113e-07
-6.24821e-07
3.00127e-07
-7.51988e-07
3.42576e-07
-9.24778e-07
5.48838e-07
-1.10711e-06
5.17812e-07
-1.30984e-06
6.52946e-07
-1.4928e-06
5.4072e-07
-1.65735e-06
5.17506e-07
-1.80061e-06
4.10368e-07
-1.94988e-06
4.35469e-07
-2.13064e-06
5.24893e-07
-2.35484e-06
6.86487e-07
-2.60315e-06
7.83763e-07
-2.8462e-06
7.84123e-07
-3.06613e-06
7.06878e-07
-3.26047e-06
6.1698e-07
-3.43092e-06
5.37698e-07
-3.57851e-06
4.68099e-07
-3.70324e-06
3.99316e-07
-3.80463e-06
3.29755e-07
-3.88174e-06
2.57493e-07
-3.93345e-06
1.81899e-07
-3.95857e-06
1.02098e-07
-3.95597e-06
1.76549e-08
-3.92438e-06
-7.12307e-08
-3.86188e-06
-1.63981e-07
-3.76668e-06
-2.61102e-07
-3.63733e-06
-3.62684e-07
-3.4725e-06
-4.68352e-07
-3.27111e-06
-5.77259e-07
-3.03232e-06
-6.88926e-07
-2.75573e-06
-8.01635e-07
-2.44129e-06
-9.15265e-07
-2.08953e-06
-1.02628e-06
-1.70153e-06
-1.13643e-06
-1.27897e-06
-1.23804e-06
-8.24528e-07
-1.33796e-06
-3.40894e-07
-1.42082e-06
1.67053e-07
-1.5017e-06
6.95847e-07
-1.5521e-06
1.24065e-06
-1.61436e-06
1.79649e-06
-1.62079e-06
2.35836e-06
-1.67858e-06
2.91932e-06
-1.61534e-06
3.47753e-06
-1.69698e-06
4.02051e-06
-1.51589e-06
4.55827e-06
-1.7001e-06
5.05996e-06
-1.29545e-06
5.57088e-06
-1.75408e-06
6.00439e-06
-8.99662e-07
6.50593e-06
-1.97127e-06
6.83975e-06
-2.41892e-07
7.38862e-06
-2.56813e-06
7.6939e-06
4.18195e-07
-4.92562e-06
4.52843e-06
2.86297e-05
7.56519e-07
1.20396e-05
-2.33604e-07
-1.52088e-06
-4.60406e-07
1.55747e-06
-3.99029e-07
5.7974e-07
-5.65544e-07
5.88628e-07
-6.45867e-07
3.80449e-07
-7.76571e-07
4.7328e-07
-9.35404e-07
7.07671e-07
-1.11589e-06
6.98302e-07
-1.30765e-06
8.44698e-07
-1.48918e-06
7.22254e-07
-1.65231e-06
6.80641e-07
-1.79921e-06
5.57266e-07
-1.94949e-06
5.8575e-07
-2.12654e-06
7.01935e-07
-2.33968e-06
8.99631e-07
-2.57379e-06
1.01787e-06
-2.80389e-06
1.01423e-06
-3.0144e-06
9.17379e-07
-3.20169e-06
8.04276e-07
-3.36615e-06
7.02154e-07
-3.50815e-06
6.10104e-07
-3.62762e-06
5.18781e-07
-3.72398e-06
4.26117e-07
-3.7963e-06
3.29813e-07
-3.84347e-06
2.29069e-07
-3.8643e-06
1.22931e-07
-3.85759e-06
1.09449e-08
-3.82191e-06
-1.06917e-07
-3.75544e-06
-2.30446e-07
-3.65651e-06
-3.60037e-07
-3.52365e-06
-4.95539e-07
-3.35556e-06
-6.36438e-07
-3.15116e-06
-7.81659e-07
-2.90965e-06
-9.30441e-07
-2.63059e-06
-1.0807e-06
-2.31399e-06
-1.23187e-06
-1.96034e-06
-1.37993e-06
-1.57081e-06
-1.52595e-06
-1.14696e-06
-1.66189e-06
-6.91695e-07
-1.79323e-06
-2.07394e-07
-1.90512e-06
3.00872e-07
-2.00996e-06
8.30399e-07
-2.08162e-06
1.37522e-06
-2.15918e-06
1.93198e-06
-2.17755e-06
2.49273e-06
-2.23933e-06
3.05521e-06
-2.17782e-06
3.61012e-06
-2.25189e-06
4.15706e-06
-2.06283e-06
4.68678e-06
-2.22982e-06
5.19932e-06
-1.80799e-06
5.69098e-06
-2.24574e-06
6.15262e-06
-1.3613e-06
6.60741e-06
-2.42605e-06
7.00898e-06
-6.4346e-07
7.45285e-06
-3.012e-06
7.89273e-06
-2.16907e-08
-5.6856e-06
5.30455e-06
3.33252e-05
1.49054e-06
1.58536e-05
-2.59665e-07
2.29321e-07
-5.51576e-07
1.84939e-06
-4.19541e-07
4.47704e-07
-5.82074e-07
7.51162e-07
-6.54295e-07
4.5267e-07
-7.85142e-07
6.04128e-07
-9.32815e-07
8.55344e-07
-1.10877e-06
8.74263e-07
-1.29214e-06
1.02806e-06
-1.47142e-06
9.01535e-07
-1.63402e-06
8.43237e-07
-1.78347e-06
7.06719e-07
-1.93409e-06
7.36369e-07
-2.10658e-06
8.74423e-07
-2.30901e-06
1.10207e-06
-2.52994e-06
1.2388e-06
-2.74833e-06
1.23262e-06
-2.95008e-06
1.11913e-06
-3.1306e-06
9.84799e-07
-3.28922e-06
8.60777e-07
-3.42587e-06
7.46747e-07
-3.54032e-06
6.33237e-07
-3.63196e-06
5.17757e-07
-3.69984e-06
3.97688e-07
-3.74285e-06
2.72077e-07
-3.7598e-06
1.39881e-07
-3.74942e-06
5.72266e-10
-3.71023e-06
-1.46108e-07
-3.6405e-06
-3.00183e-07
-3.53859e-06
-4.61949e-07
-3.40305e-06
-6.3107e-07
-3.2326e-06
-8.06889e-07
-3.02615e-06
-9.8811e-07
-2.78291e-06
-1.17368e-06
-2.50244e-06
-1.36116e-06
-2.18478e-06
-1.54953e-06
-1.83038e-06
-1.73432e-06
-1.44048e-06
-1.91585e-06
-1.01658e-06
-2.0858e-06
-5.61626e-07
-2.24818e-06
-7.79303e-08
-2.38881e-06
4.29533e-07
-2.51743e-06
9.58215e-07
-2.6103e-06
1.50177e-06
-2.70273e-06
2.05738e-06
-2.73316e-06
2.61603e-06
-2.79798e-06
3.17723e-06
-2.73903e-06
3.7288e-06
-2.80346e-06
4.27523e-06
-2.60927e-06
4.79932e-06
-2.7539e-06
5.31427e-06
-2.32294e-06
5.79515e-06
-2.72663e-06
6.26711e-06
-1.83327e-06
6.69831e-06
-2.85725e-06
7.12859e-06
-1.07374e-06
7.52172e-06
-3.40514e-06
8.01694e-06
-5.16908e-07
-6.30934e-06
5.97544e-06
3.73497e-05
2.24007e-06
1.95889e-05
-6.29077e-08
2.5323e-06
-5.83084e-07
2.36956e-06
-4.36569e-07
3.01189e-07
-5.90066e-07
9.04659e-07
-6.55694e-07
5.18298e-07
-7.84582e-07
7.33015e-07
-9.2268e-07
9.93442e-07
-1.09289e-06
1.04447e-06
-1.26898e-06
1.20415e-06
-1.44558e-06
1.07814e-06
-1.60776e-06
1.00541e-06
-1.75903e-06
8.57991e-07
-1.90946e-06
8.86804e-07
-2.07703e-06
1.04199e-06
-2.26907e-06
1.29411e-06
-2.47746e-06
1.44719e-06
-2.68469e-06
1.43985e-06
-2.8779e-06
1.31233e-06
-3.05167e-06
1.15857e-06
-3.20447e-06
1.01357e-06
-3.33581e-06
8.78081e-07
-3.44534e-06
7.42766e-07
-3.53237e-06
6.04788e-07
-3.59594e-06
4.6126e-07
-3.63495e-06
3.11087e-07
-3.64819e-06
1.53128e-07
-3.63438e-06
-1.32444e-08
-3.59198e-06
-1.88506e-07
-3.51933e-06
-3.72836e-07
-3.41483e-06
-5.66441e-07
-3.27706e-06
-7.68842e-07
-3.10472e-06
-9.79232e-07
-2.89673e-06
-1.1961e-06
-2.65231e-06
-1.4181e-06
-2.37102e-06
-1.64246e-06
-2.05289e-06
-1.86766e-06
-1.69839e-06
-2.08882e-06
-1.30876e-06
-2.30548e-06
-8.85477e-07
-2.50908e-06
-4.31496e-07
-2.70216e-06
5.08929e-08
-2.8712e-06
5.56866e-07
-3.0234e-06
1.08383e-06
-3.13727e-06
1.62532e-06
-3.24422e-06
2.17868e-06
-3.28653e-06
2.73452e-06
-3.35382e-06
3.2931e-06
-3.2976e-06
3.84097e-06
-3.35133e-06
4.38492e-06
-3.15322e-06
4.90399e-06
-3.27296e-06
5.41785e-06
-2.8368e-06
5.89099e-06
-3.19976e-06
6.3661e-06
-2.30838e-06
6.78274e-06
-3.27389e-06
7.22595e-06
-1.51695e-06
7.59037e-06
-3.76956e-06
8.10845e-06
-1.03498e-06
-6.84394e-06
6.56071e-06
4.0789e-05
2.97397e-06
2.31757e-05
2.30178e-07
5.27609e-06
-5.36364e-07
3.13611e-06
-4.51346e-07
2.16171e-07
-5.92125e-07
1.04544e-06
-6.52146e-07
5.78319e-07
-7.77874e-07
8.58743e-07
-9.07276e-07
1.12284e-06
-1.07113e-06
1.20833e-06
-1.24044e-06
1.37346e-06
-1.41405e-06
1.25175e-06
-1.57564e-06
1.167e-06
-1.72814e-06
1.0105e-06
-1.87798e-06
1.03664e-06
-2.04045e-06
1.20446e-06
-2.22241e-06
1.47607e-06
-2.41871e-06
1.64349e-06
-2.61509e-06
1.63623e-06
-2.79978e-06
1.49703e-06
-2.96673e-06
1.32552e-06
-3.11363e-06
1.16048e-06
-3.23963e-06
1.00408e-06
-3.34422e-06
8.47362e-07
-3.42666e-06
6.87229e-07
-3.48597e-06
5.20567e-07
-3.52104e-06
3.46156e-07
-3.53066e-06
1.62752e-07
-3.51351e-06
-3.0396e-08
-3.46807e-06
-2.3395e-07
-3.3927e-06
-4.48202e-07
-3.28586e-06
-6.73281e-07
-3.14612e-06
-9.08589e-07
-2.97218e-06
-1.15317e-06
-2.76297e-06
-1.40531e-06
-2.51772e-06
-1.66336e-06
-2.23597e-06
-1.9242e-06
-1.91779e-06
-2.18584e-06
-1.56361e-06
-2.443e-06
-1.17468e-06
-2.69441e-06
-7.52473e-07
-2.93129e-06
-2.99914e-07
-3.15472e-06
1.80688e-07
-3.3518e-06
6.84668e-07
-3.52738e-06
1.20931e-06
-3.66191e-06
1.74815e-06
-3.78305e-06
2.29856e-06
-3.83693e-06
2.85104e-06
-3.90631e-06
3.40615e-06
-3.85271e-06
3.94995e-06
-3.89512e-06
4.4903e-06
-3.69358e-06
5.00443e-06
-3.78709e-06
5.5154e-06
-3.34777e-06
5.98203e-06
-3.6664e-06
6.45676e-06
-2.7831e-06
6.86302e-06
-3.68015e-06
7.31155e-06
-1.96548e-06
7.6576e-06
-4.11561e-06
8.18313e-06
-1.56051e-06
-7.31312e-06
7.07175e-06
4.37173e-05
3.68654e-06
2.65609e-05
6.53591e-07
8.30904e-06
-4.06548e-07
4.19624e-06
-4.5999e-07
2.69612e-07
-5.89325e-07
1.17477e-06
-6.44527e-07
6.33521e-07
-7.6647e-07
9.80686e-07
-8.87707e-07
1.24408e-06
-1.0449e-06
1.36552e-06
-1.20763e-06
1.5362e-06
-1.37793e-06
1.42205e-06
-1.53865e-06
1.32772e-06
-1.69187e-06
1.16371e-06
-1.84077e-06
1.18554e-06
-1.99809e-06
1.36178e-06
-2.17028e-06
1.64826e-06
-2.35485e-06
1.82806e-06
-2.54054e-06
1.82192e-06
-2.71667e-06
1.67316e-06
-2.87666e-06
1.48551e-06
-3.01755e-06
1.30137e-06
-3.13813e-06
1.12465e-06
-3.23774e-06
9.46971e-07
-3.31555e-06
7.65047e-07
-3.37058e-06
5.75598e-07
-3.40171e-06
3.77287e-07
-3.40773e-06
1.68772e-07
-3.3873e-06
-5.0833e-08
-3.3389e-06
-2.82352e-07
-3.26094e-06
-5.26161e-07
-3.15189e-06
-7.82325e-07
-3.01034e-06
-1.05014e-06
-2.835e-06
-1.32851e-06
-2.6248e-06
-1.61551e-06
-2.37896e-06
-1.90919e-06
-2.09704e-06
-2.20612e-06
-1.77909e-06
-2.5038e-06
-1.42554e-06
-2.79655e-06
-1.03765e-06
-3.0823e-06
-6.16865e-07
-3.35207e-06
-1.66082e-07
-3.6055e-06
3.1236e-07
-3.83025e-06
8.13936e-07
-4.02896e-06
1.3358e-06
-4.18378e-06
1.87152e-06
-4.31877e-06
2.41844e-06
-4.38385e-06
2.96711e-06
-4.45499e-06
3.51815e-06
-4.40375e-06
4.05751e-06
-4.43448e-06
4.59352e-06
-4.22959e-06
5.10259e-06
-4.29617e-06
5.60956e-06
-3.85474e-06
6.07022e-06
-4.12706e-06
6.54255e-06
-3.25543e-06
6.94054e-06
-4.07815e-06
7.39021e-06
-2.41515e-06
7.72324e-06
-4.44864e-06
8.24808e-06
-2.08535e-06
-7.73047e-06
7.5172e-06
4.62001e-05
4.3715e-06
2.97066e-05
1.18019e-06
1.15003e-05
-2.07623e-07
5.58406e-06
-4.53116e-07
5.15105e-07
-5.81718e-07
1.30338e-06
-6.33157e-07
6.84959e-07
-7.51102e-07
1.09863e-06
-8.6455e-07
1.35753e-06
-1.01491e-06
1.51587e-06
-1.17112e-06
1.69241e-06
-1.33782e-06
1.58875e-06
-1.49732e-06
1.48722e-06
-1.65077e-06
1.31717e-06
-1.79844e-06
1.3332e-06
-1.95062e-06
1.51396e-06
-2.11334e-06
1.81098e-06
-2.28652e-06
2.00124e-06
-2.46164e-06
1.99704e-06
-2.62911e-06
1.84063e-06
-2.78197e-06
1.63837e-06
-2.91671e-06
1.43611e-06
-3.03175e-06
1.23969e-06
-3.12628e-06
1.0415e-06
-3.19941e-06
8.38174e-07
-3.25011e-06
6.26299e-07
-3.27727e-06
4.04445e-07
-3.27967e-06
1.71172e-07
-3.25596e-06
-7.45449e-08
-3.20464e-06
-3.33671e-07
-3.12416e-06
-6.06645e-07
-3.013e-06
-8.93481e-07
-2.86976e-06
-1.19338e-06
-2.69316e-06
-1.50511e-06
-2.48213e-06
-1.82653e-06
-2.2359e-06
-2.15543e-06
-1.95401e-06
-2.488e-06
-1.63652e-06
-2.82129e-06
-1.28385e-06
-3.14922e-06
-8.97263e-07
-3.46889e-06
-4.78199e-07
-3.77113e-06
-2.94911e-08
-4.05421e-06
4.46473e-07
-4.30621e-06
9.45288e-07
-4.52777e-06
1.46398e-06
-4.70247e-06
1.99618e-06
-4.85097e-06
2.53917e-06
-4.92684e-06
3.08363e-06
-4.99944e-06
3.63012e-06
-4.95024e-06
4.16468e-06
-4.96904e-06
4.69579e-06
-4.7607e-06
5.19962e-06
-4.8e-06
5.70184e-06
-4.35696e-06
6.15671e-06
-4.58193e-06
6.62535e-06
-3.72407e-06
7.01622e-06
-4.46902e-06
7.46448e-06
-2.86342e-06
7.78742e-06
-4.77158e-06
8.3069e-06
-2.60483e-06
-8.10456e-06
7.90472e-06
4.82954e-05
5.02297e-06
3.25883e-05
1.77301e-06
1.47503e-05
5.75055e-08
7.29956e-06
-4.2068e-07
9.9329e-07
-5.68334e-07
1.45103e-06
-6.18e-07
7.34625e-07
-7.32086e-07
1.21272e-06
-8.38086e-07
1.46353e-06
-9.81557e-07
1.65934e-06
-1.13123e-06
1.84208e-06
-1.29401e-06
1.75153e-06
-1.4519e-06
1.64511e-06
-1.60514e-06
1.47041e-06
-1.7513e-06
1.47937e-06
-1.89839e-06
1.66105e-06
-2.05197e-06
1.96456e-06
-2.21406e-06
2.16333e-06
-2.3787e-06
2.16168e-06
-2.53739e-06
1.99933e-06
-2.68295e-06
1.78394e-06
-2.81137e-06
1.56452e-06
-2.92075e-06
1.34906e-06
-3.01009e-06
1.13085e-06
-3.07844e-06
9.0652e-07
-3.12474e-06
6.72599e-07
-3.14787e-06
4.27573e-07
-3.14661e-06
1.69912e-07
-3.1196e-06
-1.01548e-07
-3.06538e-06
-3.87896e-07
-2.9824e-06
-6.8962e-07
-2.86919e-06
-1.00669e-06
-2.72434e-06
-1.33824e-06
-2.54658e-06
-1.68287e-06
-2.33485e-06
-2.03826e-06
-2.08838e-06
-2.4019e-06
-1.8067e-06
-2.76968e-06
-1.48986e-06
-3.13813e-06
-1.1383e-06
-3.50078e-06
-7.53249e-07
-3.85394e-06
-3.36153e-07
-4.18823e-06
1.10211e-07
-4.50057e-06
5.83409e-07
-4.77941e-06
1.07914e-06
-5.0235e-06
1.59431e-06
-5.21765e-06
2.12263e-06
-5.37928e-06
2.66131e-06
-5.46552e-06
3.20118e-06
-5.53932e-06
3.74272e-06
-5.49178e-06
4.27214e-06
-5.49847e-06
4.7979e-06
-5.28646e-06
5.29623e-06
-5.29833e-06
5.79314e-06
-4.85386e-06
6.24222e-06
-5.03102e-06
6.70629e-06
-4.18813e-06
7.09066e-06
-4.85338e-06
7.53583e-06
-3.30859e-06
7.85037e-06
-5.08612e-06
8.36162e-06
-3.11608e-06
-8.44127e-06
8.24129e-06
5.00541e-05
5.63634e-06
3.51933e-05
2.41037e-06
1.79763e-05
4.34444e-07
9.27549e-06
-3.52005e-07
1.77974e-06
-5.4681e-07
1.64584e-06
-5.98685e-07
7.865e-07
-7.09455e-07
1.32349e-06
-8.08397e-07
1.56247e-06
-9.45015e-07
1.79596e-06
-1.08808e-06
1.98515e-06
-1.24665e-06
1.9101e-06
-1.40251e-06
1.80097e-06
-1.55509e-06
1.62298e-06
-1.69952e-06
1.6238e-06
-1.8416e-06
1.80313e-06
-1.98637e-06
2.10933e-06
-2.13767e-06
2.31463e-06
-2.2919e-06
2.3159e-06
-2.4417e-06
2.14913e-06
-2.57978e-06
1.92202e-06
-2.7017e-06
1.68645e-06
-2.80526e-06
1.45262e-06
-2.88929e-06
1.21489e-06
-2.95275e-06
9.69977e-07
-2.99456e-06
7.14405e-07
-3.01358e-06
4.46595e-07
-3.0086e-06
1.64933e-07
-2.97827e-06
-1.31879e-07
-2.92113e-06
-4.45039e-07
-2.83567e-06
-7.75075e-07
-2.72044e-06
-1.12193e-06
-2.57403e-06
-1.48464e-06
-2.3952e-06
-1.8617e-06
-2.18287e-06
-2.25059e-06
-1.93627e-06
-2.6485e-06
-1.65495e-06
-3.051e-06
-1.33895e-06
-3.45413e-06
-9.88683e-07
-3.85105e-06
-6.0538e-07
-4.23725e-06
-1.90485e-07
-4.60313e-06
2.53285e-07
-4.94434e-06
7.23447e-07
-5.24957e-06
1.21579e-06
-5.51584e-06
1.72712e-06
-5.72898e-06
2.25122e-06
-5.90338e-06
2.78524e-06
-5.99953e-06
3.32018e-06
-6.07426e-06
3.85639e-06
-6.02799e-06
4.38035e-06
-6.02243e-06
4.90037e-06
-5.80648e-06
5.39294e-06
-5.7909e-06
5.88407e-06
-5.34498e-06
6.32728e-06
-5.47423e-06
6.78611e-06
-4.64696e-06
7.16429e-06
-5.23156e-06
7.6052e-06
-3.7495e-06
7.91229e-06
-5.39322e-06
8.41347e-06
-3.61726e-06
-8.74485e-06
8.53313e-06
5.15209e-05
6.20831e-06
3.75181e-05
3.07005e-06
2.11145e-05
8.67781e-07
1.14778e-05
-2.2098e-07
2.8685e-06
-5.12452e-07
1.93731e-06
-5.74397e-07
8.48445e-07
-6.8299e-07
1.43208e-06
-7.75402e-07
1.65488e-06
-9.05307e-07
1.92587e-06
-1.04172e-06
2.12156e-06
-1.19577e-06
2.06415e-06
-1.34918e-06
1.95439e-06
-1.50068e-06
1.77448e-06
-1.64315e-06
1.76627e-06
-1.78031e-06
1.94029e-06
-1.91661e-06
2.24563e-06
-2.05743e-06
2.45544e-06
-2.20132e-06
2.45979e-06
-2.34211e-06
2.28992e-06
-2.47253e-06
2.05244e-06
-2.58778e-06
1.80171e-06
-2.68537e-06
1.5502e-06
-2.76395e-06
1.29347e-06
-2.8224e-06
1.02843e-06
-2.85961e-06
7.51614e-07
-2.87444e-06
4.61423e-07
-2.86567e-06
1.56166e-07
-2.83196e-06
-1.65585e-07
-2.77187e-06
-5.05126e-07
-2.68393e-06
-8.63016e-07
-2.56669e-06
-1.23917e-06
-2.41877e-06
-1.63257e-06
-2.23892e-06
-2.04156e-06
-2.02607e-06
-2.46343e-06
-1.77947e-06
-2.89511e-06
-1.49864e-06
-3.33183e-06
-1.18362e-06
-3.76915e-06
-8.34832e-07
-4.19984e-06
-4.53478e-07
-4.6186e-06
-4.09997e-08
-5.0156e-06
3.99935e-07
-5.38528e-06
8.66801e-07
-5.71644e-06
1.35546e-06
-6.0045e-06
1.86265e-06
-6.23617e-06
2.38221e-06
-6.42295e-06
2.91124e-06
-6.52856e-06
3.44092e-06
-6.60394e-06
3.97146e-06
-6.55854e-06
4.48964e-06
-6.54061e-06
5.00356e-06
-6.3204e-06
5.4901e-06
-6.27744e-06
5.97505e-06
-5.82993e-06
6.41224e-06
-5.91142e-06
6.86531e-06
-5.10003e-06
7.23741e-06
-5.60366e-06
7.67319e-06
-4.18527e-06
7.97336e-06
-5.69339e-06
8.46325e-06
-4.10714e-06
-9.01855e-06
8.78579e-06
5.27351e-05
6.73694e-06
3.9567e-05
3.73601e-06
2.41155e-05
1.36184e-06
1.38519e-05
-6.84617e-09
4.23719e-06
-4.56691e-07
2.38715e-06
-5.43627e-07
9.3538e-07
-6.52206e-07
1.54066e-06
-7.38868e-07
1.74155e-06
-8.62329e-07
2.04933e-06
-9.92056e-07
2.25129e-06
-1.14131e-06
2.21341e-06
-1.29187e-06
2.10494e-06
-1.44185e-06
1.92446e-06
-1.58216e-06
1.90658e-06
-1.71451e-06
2.07265e-06
-1.84268e-06
2.3738e-06
-1.97331e-06
2.58608e-06
-2.10697e-06
2.59345e-06
-2.23866e-06
2.42161e-06
-2.36123e-06
2.17501e-06
-2.46964e-06
1.91011e-06
-2.56108e-06
1.64164e-06
-2.63407e-06
1.36646e-06
-2.68738e-06
1.08174e-06
-2.71988e-06
7.84116e-07
-2.73042e-06
4.71961e-07
-2.71779e-06
1.4353e-07
-2.68064e-06
-2.02729e-07
-2.61757e-06
-5.68196e-07
-2.52713e-06
-9.53461e-07
-2.40788e-06
-1.35841e-06
-2.25847e-06
-1.78198e-06
-2.07765e-06
-2.22238e-06
-1.86436e-06
-2.67672e-06
-1.61785e-06
-3.14162e-06
-1.33763e-06
-3.61204e-06
-1.02375e-06
-4.08303e-06
-6.76602e-07
-4.54699e-06
-2.97386e-07
-4.99782e-06
1.12464e-07
-5.42545e-06
5.50327e-07
-5.82314e-06
1.01364e-06
-6.17975e-06
1.49834e-06
-6.48919e-06
2.00108e-06
-6.73891e-06
2.5158e-06
-6.93767e-06
3.03952e-06
-7.05228e-06
3.56362e-06
-7.12803e-06
4.08817e-06
-7.08309e-06
4.60024e-06
-7.05268e-06
5.10773e-06
-6.82788e-06
5.58795e-06
-6.75766e-06
6.06638e-06
-6.30836e-06
6.49735e-06
-6.34239e-06
6.94422e-06
-5.5469e-06
7.31026e-06
-5.9697e-06
7.74022e-06
-4.61524e-06
8.03373e-06
-5.9869e-06
8.51151e-06
-4.58492e-06
-9.2649e-06
9.00426e-06
5.37309e-05
7.22148e-06
4.13497e-05
4.39611e-06
2.69408e-05
1.90623e-06
1.63418e-05
2.37696e-07
5.90573e-06
-3.65974e-07
2.99082e-06
-5.03741e-07
1.07315e-06
-6.16274e-07
1.65319e-06
-6.9839e-07
1.82366e-06
-8.15853e-07
2.16679e-06
-9.38938e-07
2.37437e-06
-1.08317e-06
2.35764e-06
-1.23045e-06
2.25222e-06
-1.37852e-06
2.07254e-06
-1.51645e-06
2.0445e-06
-1.64411e-06
2.20031e-06
-1.76449e-06
2.49417e-06
-1.88527e-06
2.70686e-06
-2.0088e-06
2.71699e-06
-2.1313e-06
2.54411e-06
-2.24587e-06
2.28958e-06
-2.34724e-06
2.01148e-06
-2.43239e-06
1.72678e-06
-2.49963e-06
1.4337e-06
-2.54768e-06
1.12979e-06
-2.57535e-06
8.11792e-07
-2.5815e-06
4.78107e-07
-2.56491e-06
1.2694e-07
-2.52426e-06
-2.43375e-07
-2.45816e-06
-6.34296e-07
-2.36519e-06
-1.04644e-06
-2.24393e-06
-1.47967e-06
-2.09304e-06
-1.93287e-06
-1.91129e-06
-2.40412e-06
-1.69763e-06
-2.89038e-06
-1.4513e-06
-3.38796e-06
-1.17181e-06
-3.89153e-06
-8.59199e-07
-4.39564e-06
-5.1386e-07
-4.89233e-06
-1.36967e-07
-5.37471e-06
2.70047e-07
-5.83247e-06
7.04606e-07
-6.2577e-06
1.16412e-06
-6.63927e-06
1.64458e-06
-6.96965e-06
2.14259e-06
-7.23692e-06
2.65216e-06
-7.44724e-06
3.17027e-06
-7.57039e-06
3.68846e-06
-7.64622e-06
4.2067e-06
-7.60133e-06
4.71236e-06
-7.55834e-06
5.21309e-06
-7.32861e-06
5.68671e-06
-7.23129e-06
6.15828e-06
-6.77993e-06
6.58281e-06
-6.76691e-06
7.0231e-06
-5.9872e-06
7.38302e-06
-6.32962e-06
7.80662e-06
-5.03884e-06
8.09354e-06
-6.27383e-06
8.55865e-06
-5.05004e-06
-9.48598e-06
9.19306e-06
5.45378e-05
7.66221e-06
4.28806e-05
5.0408e-06
2.95622e-05
2.49203e-06
1.88906e-05
5.7552e-07
7.82224e-06
-2.2762e-07
3.79396e-06
-4.50455e-07
1.29598e-06
-5.73884e-07
1.77662e-06
-6.53351e-07
1.90313e-06
-7.65516e-07
2.27896e-06
-8.82111e-07
2.49097e-06
-1.02114e-06
2.49666e-06
-1.16476e-06
2.39584e-06
-1.31053e-06
2.2183e-06
-1.44588e-06
2.17985e-06
-1.56897e-06
2.3234e-06
-1.6819e-06
2.6071e-06
-1.79315e-06
2.81811e-06
-1.9067e-06
2.83053e-06
-2.01996e-06
2.65737e-06
-2.12638e-06
2.39599e-06
-2.22055e-06
2.10565e-06
-2.29922e-06
1.80546e-06
-2.36058e-06
1.49506e-06
-2.40322e-06
1.17243e-06
-2.42595e-06
8.34523e-07
-2.4276e-06
4.79757e-07
-2.40697e-06
1.06308e-07
-2.36275e-06
-2.87597e-07
-2.29356e-06
-7.0348e-07
-2.19802e-06
-1.14198e-06
-2.07474e-06
-1.60295e-06
-1.92239e-06
-2.08522e-06
-1.73975e-06
-2.58676e-06
-1.52578e-06
-3.10435e-06
-1.2797e-06
-3.63404e-06
-1.00105e-06
-4.17018e-06
-6.89852e-07
-4.70684e-06
-3.46481e-07
-5.2357e-06
2.79057e-08
-5.7491e-06
4.31877e-07
-6.23644e-06
8.62899e-07
-6.68872e-06
1.31836e-06
-7.09473e-06
1.7943e-06
-7.44559e-06
2.28729e-06
-7.72991e-06
2.79142e-06
-7.95136e-06
3.3036e-06
-8.08258e-06
3.81558e-06
-8.1582e-06
4.32719e-06
-8.11295e-06
4.82612e-06
-8.05727e-06
5.31979e-06
-7.82228e-06
5.78652e-06
-7.69802e-06
6.25093e-06
-7.24433e-06
6.66878e-06
-7.18476e-06
7.10215e-06
-6.42058e-06
7.4558e-06
-6.68327e-06
7.87258e-06
-5.45561e-06
8.15289e-06
-6.55414e-06
8.60496e-06
-5.50211e-06
-9.68352e-06
9.35625e-06
5.51816e-05
8.06026e-06
4.41766e-05
5.66248e-06
3.196e-05
3.10885e-06
2.14442e-05
9.93289e-07
9.9378e-06
-3.88618e-08
4.82611e-06
-3.77479e-07
1.6346e-06
-5.23013e-07
1.92216e-06
-6.02866e-07
1.98298e-06
-7.10795e-07
2.38689e-06
-8.21214e-07
2.60138e-06
-9.54943e-07
2.63039e-06
-1.09458e-06
2.53548e-06
-1.23768e-06
2.3614e-06
-1.37026e-06
2.31244e-06
-1.48889e-06
2.44202e-06
-1.59472e-06
2.71293e-06
-1.69679e-06
2.92018e-06
-1.80052e-06
2.93426e-06
-1.90451e-06
2.76137e-06
-2.00264e-06
2.49412e-06
-2.08945e-06
2.19247e-06
-2.1615e-06
1.87751e-06
-2.21682e-06
1.55037e-06
-2.25393e-06
1.20954e-06
-2.2716e-06
8.52189e-07
-2.26864e-06
4.76803e-07
-2.24388e-06
8.15406e-08
-2.196e-06
-3.35468e-07
-2.12368e-06
-7.75803e-07
-2.02554e-06
-1.24012e-06
-1.90022e-06
-1.72827e-06
-1.74641e-06
-2.23903e-06
-1.56291e-06
-2.77027e-06
-1.34868e-06
-3.31858e-06
-1.10295e-06
-3.87977e-06
-8.25247e-07
-4.44788e-06
-5.15589e-07
-5.0165e-06
-1.74346e-07
-5.57694e-06
1.97352e-07
-6.12079e-06
5.98074e-07
-6.63716e-06
1.02533e-06
-7.11597e-06
1.47648e-06
-7.54589e-06
1.94763e-06
-7.91674e-06
2.43532e-06
-8.21759e-06
2.93369e-06
-8.44974e-06
3.43965e-06
-8.58854e-06
3.9451e-06
-8.66364e-06
4.44978e-06
-8.61762e-06
4.94167e-06
-8.54915e-06
5.42796e-06
-8.30857e-06
5.88751e-06
-8.15757e-06
6.34445e-06
-7.70127e-06
6.75537e-06
-7.59569e-06
7.18151e-06
-6.84672e-06
7.52874e-06
-7.03049e-06
7.93829e-06
-5.86517e-06
8.21188e-06
-6.82773e-06
8.65065e-06
-5.94087e-06
-9.85896e-06
9.49748e-06
5.56841e-05
8.4174e-06
4.52566e-05
6.25514e-06
3.41223e-05
3.74596e-06
2.39534e-05
1.48193e-06
1.22018e-05
2.31596e-07
6.07645e-06
-2.76551e-07
2.14275e-06
-4.60574e-07
2.10618e-06
-5.45679e-07
2.06809e-06
-6.50963e-07
2.49217e-06
-7.55763e-07
2.70618e-06
-8.84226e-07
2.75886e-06
-1.0196e-06
2.67086e-06
-1.15969e-06
2.50149e-06
-1.28933e-06
2.44208e-06
-1.40362e-06
2.5563e-06
-1.5027e-06
2.81201e-06
-1.59596e-06
3.01344e-06
-1.69005e-06
3.02835e-06
-1.78478e-06
2.8561e-06
-1.87452e-06
2.58386e-06
-1.95383e-06
2.27178e-06
-2.01911e-06
1.94279e-06
-2.06825e-06
1.59951e-06
-2.09969e-06
1.24099e-06
-2.11217e-06
8.64672e-07
-2.10451e-06
4.69143e-07
-2.07552e-06
5.25482e-08
-2.02393e-06
-3.87064e-07
-1.94841e-06
-8.51322e-07
-1.84763e-06
-1.3409e-06
-1.72025e-06
-1.85564e-06
-1.56499e-06
-2.39429e-06
-1.38066e-06
-2.9546e-06
-1.16622e-06
-3.53302e-06
-9.20915e-07
-4.12507e-06
-6.44272e-07
-4.72452e-06
-3.36291e-07
-5.32448e-06
2.66456e-09
-5.9159e-06
3.71488e-07
-6.48962e-06
7.68751e-07
-7.03442e-06
1.192e-06
-7.53922e-06
1.63859e-06
-7.99249e-06
2.10468e-06
-8.38282e-06
2.58676e-06
-8.69967e-06
3.07909e-06
-8.94206e-06
3.57852e-06
-9.08797e-06
4.07712e-06
-9.16225e-06
4.57455e-06
-9.11505e-06
5.05908e-06
-9.03369e-06
5.5377e-06
-8.78718e-06
5.98977e-06
-8.60964e-06
6.43894e-06
-8.15045e-06
6.84269e-06
-7.99944e-06
7.26129e-06
-7.26532e-06
7.6019e-06
-7.37109e-06
8.00388e-06
-6.26715e-06
8.27059e-06
-7.09444e-06
8.69589e-06
-6.36618e-06
-1.00136e-05
9.62e-06
5.60641e-05
8.73592e-06
4.61407e-05
6.81418e-06
3.6044e-05
4.39286e-06
2.63747e-05
2.0288e-06
1.45659e-05
5.63087e-07
7.54216e-06
-1.33459e-07
2.83929e-06
-3.81929e-07
2.35465e-06
-4.80019e-07
2.16618e-06
-5.85034e-07
2.59718e-06
-6.8512e-07
2.80627e-06
-8.08517e-07
2.88225e-06
-9.39459e-07
2.8018e-06
-1.07626e-06
2.63829e-06
-1.20279e-06
2.56862e-06
-1.31286e-06
2.66637e-06
-1.40554e-06
2.9047e-06
-1.49037e-06
3.09827e-06
-1.57506e-06
3.11304e-06
-1.66057e-06
2.94161e-06
-1.74184e-06
2.66513e-06
-1.81352e-06
2.34346e-06
-1.87189e-06
2.00116e-06
-1.91471e-06
1.64233e-06
-1.94037e-06
1.26664e-06
-1.94756e-06
8.71859e-07
-1.93509e-06
4.56673e-07
-1.90178e-06
1.92423e-08
-1.84639e-06
-4.42459e-07
-1.76762e-06
-9.30093e-07
-1.66416e-06
-1.44435e-06
-1.53471e-06
-1.98509e-06
-1.37801e-06
-2.551e-06
-1.19287e-06
-3.13974e-06
-9.78279e-07
-3.74761e-06
-7.33484e-07
-4.36986e-06
-4.58006e-07
-5e-06
-1.51838e-07
-5.63065e-06
1.84667e-07
-6.2524e-06
5.50428e-07
-6.85538e-06
9.44017e-07
-7.42801e-06
1.36302e-06
-7.95822e-06
1.8048e-06
-8.43427e-06
2.26553e-06
-8.84356e-06
2.74173e-06
-9.17587e-06
3.2277e-06
-9.42803e-06
3.72029e-06
-9.58057e-06
4.21173e-06
-9.65369e-06
4.7016e-06
-9.60492e-06
5.17846e-06
-9.51055e-06
5.64909e-06
-9.25781e-06
6.09338e-06
-9.05393e-06
6.53451e-06
-8.59157e-06
6.9308e-06
-8.39573e-06
7.34159e-06
-7.67611e-06
7.67535e-06
-7.70486e-06
8.06944e-06
-6.66124e-06
8.32909e-06
-7.35409e-06
8.74083e-06
-6.77791e-06
-1.01485e-05
9.72668e-06
5.63374e-05
9.0185e-06
4.68489e-05
7.33629e-06
3.77263e-05
5.0397e-06
2.86713e-05
2.62191e-06
1.69837e-05
9.58411e-07
9.20566e-06
6.14863e-08
3.73622e-06
-2.80475e-07
2.69661e-06
-4.03398e-07
2.2891e-06
-5.11676e-07
2.70546e-06
-6.08453e-07
2.90305e-06
-7.27218e-07
3.00102e-06
-8.5368e-07
2.92826e-06
-9.86966e-07
2.77157e-06
-1.11027e-06
2.69193e-06
-1.21625e-06
2.77234e-06
-1.3029e-06
2.99135e-06
-1.37969e-06
3.17506e-06
-1.45524e-06
3.18859e-06
-1.5316e-06
3.01798e-06
-1.60436e-06
2.73789e-06
-1.66832e-06
2.40741e-06
-1.71966e-06
2.0525e-06
-1.75605e-06
1.67872e-06
-1.7758e-06
1.28639e-06
-1.77759e-06
8.73644e-07
-1.76022e-06
4.39299e-07
-1.72251e-06
-1.84609e-08
-1.66325e-06
-5.01721e-07
-1.58117e-06
-1.01217e-06
-1.475e-06
-1.55052e-06
-1.34347e-06
-2.11663e-06
-1.18532e-06
-2.70915e-06
-9.99411e-07
-3.32565e-06
-7.8473e-07
-3.96229e-06
-5.40528e-07
-4.61407e-06
-2.66325e-07
-5.2742e-06
3.78925e-08
-5.93487e-06
3.71782e-07
-6.58629e-06
7.34286e-07
-7.21788e-06
1.12398e-06
-7.81771e-06
1.53849e-06
-8.37273e-06
1.97519e-06
-8.87097e-06
2.43029e-06
-9.29866e-06
2.9003e-06
-9.64588e-06
3.37961e-06
-9.90734e-06
3.86505e-06
-1.0066e-05
4.34902e-06
-1.01377e-05
4.831e-06
-1.00869e-05
5.29988e-06
-9.97943e-06
5.76221e-06
-9.72015e-06
6.19842e-06
-9.49014e-06
6.6312e-06
-9.02435e-06
7.01978e-06
-8.78431e-06
7.42246e-06
-8.07879e-06
7.74917e-06
-8.03157e-06
8.13506e-06
-7.04713e-06
8.38744e-06
-7.60647e-06
8.78555e-06
-7.17602e-06
-1.02646e-05
9.82005e-06
5.65174e-05
9.26807e-06
4.74009e-05
7.81934e-06
3.9175e-05
5.6775e-06
3.08131e-05
3.25032e-06
1.94109e-05
1.4161e-06
1.10399e-05
3.08019e-07
4.8443e-06
-1.47819e-07
3.15245e-06
-3.12351e-07
2.45363e-06
-4.29094e-07
2.82221e-06
-5.24683e-07
2.99863e-06
-6.39573e-07
3.11591e-06
-7.61692e-07
3.05038e-06
-8.91346e-07
2.90123e-06
-1.01134e-06
2.81193e-06
-1.11337e-06
2.87436e-06
-1.19436e-06
3.07235e-06
-1.26354e-06
3.24424e-06
-1.33025e-06
3.25529e-06
-1.3976e-06
3.08532e-06
-1.46184e-06
2.80213e-06
-1.51799e-06
2.46357e-06
-1.56221e-06
2.09672e-06
-1.59206e-06
1.70858e-06
-1.60581e-06
1.30014e-06
-1.60209e-06
8.69931e-07
-1.57973e-06
4.16934e-07
-1.53755e-06
-6.06387e-08
-1.47436e-06
-5.64915e-07
-1.38892e-06
-1.0976e-06
-1.28001e-06
-1.65943e-06
-1.14638e-06
-2.25026e-06
-9.86799e-07
-2.86872e-06
-8.0015e-07
-3.5123e-06
-5.85435e-07
-4.17701e-06
-3.41912e-07
-4.85759e-06
-6.91004e-08
-5.54701e-06
2.33025e-07
-6.23699e-06
5.64128e-07