/*--------------------------------*- C++ -*----------------------------------*\
| =========                 |                                                 |
| \\      /  F ield         | OpenFOAM: The Open Source CFD Toolbox           |
|  \\    /   O peration     | Version:  2.4.0                                 |
|   \\  /    A nd           | Web:      www.OpenFOAM.org                      |
|    \\/     M anipulation  |                                                 |
\*---------------------------------------------------------------------------*/
FoamFile
{
    version     2.0;
    format      ascii;
    class       volVectorField;
    location    "3.4";
    object      U;
}
// * * * * * * * * * * * * * * * * * * * * * * * * * * * * * * * * * * * * * //

dimensions      [0 1 -1 0 0 0 0];

internalField   nonuniform List<vector> 
6000
(
(0.165119 -0.00671328 1.27284e-18)
(-0.00973971 0.00185701 0)
(0.000833652 -0.000235315 7.20815e-18)
(-0.00663129 0.00128703 0)
(-0.00500692 0.000987595 0)
(-0.00608167 0.00114094 0)
(-0.00535385 0.000985875 4.00168e-18)
(-0.00552399 0.000964871 3.33654e-22)
(-0.00514876 0.000870359 0)
(-0.00515633 0.000826624 0)
(-0.00498515 0.000764695 3.90379e-18)
(-0.00501874 0.0007283 -7.73336e-18)
(-0.00504553 0.000695777 0)
(-0.00523304 0.000680492 0)
(-0.00547504 0.000671227 -1.87578e-18)
(-0.00579409 0.00066407 0)
(-0.00609437 0.000649893 0)
(-0.00635956 0.000626214 -1.8295e-18)
(-0.0065781 0.000595163 -1.81773e-18)
(-0.00681955 0.000563846 0)
(-0.00717554 0.000540306 1.79887e-18)
(-0.00775963 0.000530011 8.95595e-19)
(-0.00866726 0.000532059 -8.9219e-19)
(-0.00996144 0.000540783 0)
(-0.011649 0.000546184 0)
(-0.0136837 0.000536013 0)
(-0.0159803 0.000499003 4.42863e-19)
(-0.0184381 0.000426797 -4.4377e-19)
(-0.0209546 0.000314648 0)
(-0.0234311 0.000161138 0)
(-0.0257689 -3.21966e-05 5.6755e-20)
(-0.0278615 -0.000260935 0)
(-0.0295876 -0.000517564 4.6931e-19)
(-0.030804 -0.000791567 -4.80071e-19)
(-0.0313425 -0.00107088 0)
(-0.0310042 -0.00129904 0)
(-0.0295662 -0.00147756 1.05263e-18)
(-0.0268051 -0.00156208 0)
(-0.0225365 -0.00150789 1.13609e-18)
(-0.0166671 -0.0012722 0)
(-0.00921332 -0.000818391 0)
(-0.000634912 -0.000134311 2.54022e-18)
(0.00809239 0.000697622 -5.23473e-18)
(0.017073 0.00168284 0)
(0.0259473 0.0028073 0)
(0.0342427 0.00401701 2.73677e-18)
(0.04148 0.00523851 0)
(0.0474382 0.00640848 0)
(0.0519287 0.0074765 -5.35629e-18)
(0.0552542 0.00843847 -5.25349e-18)
(0.0572678 0.00923059 -5.11308e-18)
(0.058993 0.00996712 -2.67789e-21)
(0.0594282 0.0105397 4.73047e-18)
(0.0613691 0.0113205 0)
(0.0606683 0.0117604 -3.34144e-21)
(0.0655581 0.0130442 -3.88599e-18)
(0.062501 0.0131996 3.17924e-18)
(0.0752826 0.0159708 2.99754e-18)
(0.0660604 0.0151937 4.67187e-21)
(0.0942956 0.021057 0)
(0.360301 -0.0164531 -1.77475e-18)
(0.00303449 0.00650173 4.27314e-18)
(0.00550745 -0.000896845 -4.3229e-18)
(-0.0149455 0.00337409 -4.58732e-18)
(-0.0124292 0.00257959 0)
(-0.0157808 0.00306241 0)
(-0.0143051 0.00267021 -4.56844e-18)
(-0.0149179 0.00263345 9.04968e-18)
(-0.0140902 0.00239382 0)
(-0.0141717 0.00228309 0)
(-0.0137947 0.00212814 -4.33097e-18)
(-0.0139206 0.00203993 4.26695e-18)
(-0.0140432 0.00196685 2.10147e-18)
(-0.014572 0.00193834 0)
(-0.0152398 0.00192145 2.04333e-18)
(-0.0160809 0.00190064 0)
(-0.016849 0.00185189 0)
(-0.0175044 0.00177417 0)
(-0.0180453 0.00168368 0)
(-0.0186829 0.00160902 0)
(-0.0196885 0.00157619 -1.66578e-23)
(-0.0213734 0.00159788 0)
(-0.0239752 0.00166612 -9.52389e-19)
(-0.0276132 0.00175454 0)
(-0.0322391 0.00182419 0)
(-0.0376639 0.00183376 4.70352e-19)
(-0.043613 0.00175033 -4.69679e-19)
(-0.0497922 0.00155353 -4.58543e-23)
(-0.0559232 0.00123505 2.35908e-19)
(-0.0617505 0.000795619 0)
(-0.0670272 0.000242679 -5.99853e-20)
(-0.0714948 -0.000410133 -2.43395e-19)
(-0.074865 -0.00114237 2.49236e-23)
(-0.0768036 -0.00192604 5.07265e-19)
(-0.0769179 -0.00272323 -5.21218e-19)
(-0.0747636 -0.00343797 0)
(-0.0698497 -0.0040322 0)
(-0.0616806 -0.00439989 0)
(-0.0498555 -0.00442178 0)
(-0.0341657 -0.00397439 0)
(-0.0147452 -0.00291939 -2.59041e-18)
(0.00700083 -0.00117717 0)
(0.028766 0.00105115 2.77959e-18)
(0.050924 0.00365526 2.85695e-18)
(0.072564 0.00663322 0)
(0.0926586 0.00985893 0)
(0.110212 0.0131461 0)
(0.124762 0.0163229 0)
(0.135925 0.0192451 5.82739e-18)
(0.144317 0.0218722 0)
(0.149684 0.0240926 0)
(0.154161 0.0261308 -5.47418e-18)
(0.155827 0.0277706 -5.26973e-18)
(0.160484 0.0297994 0)
(0.15977 0.0311014 -9.39581e-18)
(0.170823 0.0342468 0)
(0.165597 0.0349784 -7.35654e-18)
(0.19418 0.0415671 -3.48828e-18)
(0.176626 0.0404221 1.64484e-18)
(0.240301 0.0537408 2.13725e-18)
(0.500829 -0.0113683 -1.73812e-19)
(0.0413078 0.00905399 -4.23648e-18)
(0.0141512 -0.00129832 0)
(-0.0188504 0.00483104 4.59464e-18)
(-0.0174987 0.00374094 0)
(-0.0234591 0.00457575 0)
(-0.0218454 0.00404266 0)
(-0.0230596 0.00402187 -4.53035e-18)
(-0.0220329 0.0036916 0)
(-0.022267 0.00353796 -4.40204e-18)
(-0.0218026 0.00332721 0)
(-0.0220603 0.00321213 0)
(-0.0223256 0.00312892 -2.10266e-18)
(-0.0231911 0.00310829 0)
(-0.0242622 0.00309744 0)
(-0.0255634 0.00306326 0)
(-0.0267255 0.00297239 0)
(-0.0276954 0.00283347 0)
(-0.0285056 0.00268999 0)
(-0.029516 0.00260108 1.93961e-18)
(-0.0311788 0.00261277 -1.92524e-18)
(-0.0339828 0.00273881 0)
(-0.0382706 0.00295414 -4.85091e-23)
(-0.0441655 0.0031974 -9.44785e-19)
(-0.0515134 0.00338838 0)
(-0.0599475 0.0034511 -9.37012e-19)
(-0.0689907 0.00333249 0)
(-0.0781601 0.00300625 4.67907e-19)
(-0.0870159 0.00246769 -2.34714e-19)
(-0.0951644 0.00172581 0)
(-0.102232 0.000798118 0)
(-0.107836 -0.00029029 2.41962e-19)
(-0.111553 -0.00150549 -1.01132e-23)
(-0.112908 -0.0028022 0)
(-0.111353 -0.00411505 1.03455e-18)
(-0.106292 -0.00535802 0)
(-0.097098 -0.00642191 1.10157e-18)
(-0.083176 -0.00716154 0)
(-0.0641155 -0.00739957 0)
(-0.039853 -0.00693895 0)
(-0.0110333 -0.00553104 2.50723e-18)
(0.0201222 -0.00303199 0)
(0.0521173 0.000304907 0)
(0.0849822 0.00429936 -2.80156e-18)
(0.117191 0.00893578 0)
(0.14725 0.0140181 0)
(0.17376 0.0192628 2.92878e-18)
(0.196005 0.0243873 -2.9245e-18)
(0.213397 0.0291478 -2.90055e-18)
(0.226663 0.0334256 0)
(0.235479 0.0371161 0)
(0.242648 0.0404317 0)
(0.245837 0.0431793 5.26039e-18)
(0.252699 0.0462379 5.05873e-18)
(0.252578 0.0484686 4.70347e-18)
(0.268023 0.0528681 0)
(0.262424 0.0545258 3.68705e-18)
(0.302163 0.063427 7.00544e-18)
(0.281095 0.0631517 0)
(0.370859 0.080506 -2.15523e-18)
(0.605055 0.00025019 -1.44292e-19)
(0.0970329 0.0109944 4.11217e-18)
(0.0279429 -0.00123529 -4.3114e-18)
(-0.0182929 0.0058389 0)
(-0.0200849 0.00456417 0)
(-0.0290538 0.00577596 0)
(-0.0279044 0.00515339 0)
(-0.0299054 0.00518446 0)
(-0.0289305 0.00479633 0)
(-0.0294073 0.00462596 4.40478e-18)
(-0.0289717 0.00438222 4.33574e-18)
(-0.0294031 0.0042627 0)
(-0.0298523 0.00419025 0)
(-0.031046 0.00419445 0)
(-0.0324923 0.00419835 2.04325e-18)
(-0.0341924 0.00414991 0)
(-0.0356823 0.00401029 1.99287e-18)
(-0.0369046 0.00380694 -1.97158e-18)
(-0.0379449 0.00362073 0)
(-0.0393079 0.00354809 -1.93532e-18)
(-0.0416128 0.00365558 0)
(-0.045492 0.00395149 -9.52245e-19)
(-0.0513448 0.0043803 1.89067e-18)
(-0.0592421 0.00483199 9.39057e-19)
(-0.0688793 0.00517611 0)
(-0.0796906 0.00530044 4.64786e-19)
(-0.0910018 0.00513673 0)
(-0.102166 0.00466058 4.63406e-19)
(-0.112615 0.00387854 0)
(-0.121855 0.00281322 0)
(-0.129427 0.00149511 0)
(-0.134868 -3.87914e-05 2.38732e-19)
(-0.137682 -0.00174289 -9.71351e-19)
(-0.137323 -0.00355895 0)
(-0.133189 -0.00540644 -5.08009e-19)
(-0.124655 -0.0071849 0)
(-0.111097 -0.00875325 -1.0757e-18)
(-0.0919944 -0.0099302 0)
(-0.0670972 -0.0104852 0)
(-0.0366318 -0.0101437 0)
(-0.00173296 -0.00856138 2.38229e-18)
(0.0355443 -0.00560598 0)
(0.0752685 -0.00154372 2.58129e-18)
(0.116535 0.00352497 -2.7015e-18)
(0.157277 0.00958482 0)
(0.195604 0.0163544 -2.84879e-18)
(0.2298 0.0234468 -5.76063e-18)
(0.258911 0.0304668 2.88774e-18)
(0.282145 0.0370692 5.74191e-18)
(0.300184 0.0430474 -5.67359e-18)
(0.312647 0.0482503 -5.56519e-18)
(0.322629 0.052856 0)
(0.327747 0.0567086 -5.23793e-18)
(0.336543 0.060715 -5.04204e-18)
(0.337597 0.0638211 -4.67668e-18)
(0.356012 0.0691449 0)
(0.351469 0.0717374 0)
(0.398356 0.0820407 -3.50049e-18)
(0.377608 0.0830525 0)
(0.485022 0.102196 2.11104e-18)
(0.684221 0.0143623 -1.25465e-19)
(0.162926 0.0131347 -3.18904e-20)
(0.0479234 -0.0006184 4.2856e-18)
(-0.0132276 0.00653189 4.58805e-18)
(-0.0200687 0.00513197 0)
(-0.0325183 0.00671151 -4.6275e-18)
(-0.0324223 0.00603538 0)
(-0.0354256 0.00614425 0)
(-0.0347476 0.00572494 0)
(-0.0355695 0.00555913 4.40568e-18)
(-0.0352747 0.00530271 -4.33658e-18)
(-0.0359235 0.00519785 0)
(-0.0365912 0.00515368 0)
(-0.0381006 0.00519588 0)
(-0.0398897 0.00522019 -2.04174e-18)
(-0.0419301 0.00515544 0)
(-0.0436888 0.00496163 -1.98986e-18)
(-0.0451132 0.00469329 1.96744e-18)
(-0.0463498 0.00447668 0)
(-0.0480334 0.00444978 0)
(-0.0509233 0.00469742 9.54529e-19)
(-0.0557508 0.0052138 9.4575e-19)
(-0.0629184 0.00589966 -1.87497e-18)
(-0.0723934 0.00658481 -9.29894e-19)
(-0.0836907 0.00708366 0)
(-0.0960469 0.00725095 4.58775e-19)
(-0.108621 0.0070116 0)
(-0.12065 0.00635257 -4.55787e-19)
(-0.131492 0.00529891 2.28039e-19)
(-0.14061 0.00389121 0)
(-0.147519 0.00217444 0)
(-0.151741 0.000196917 -4.66187e-19)
(-0.15278 -0.00198636 4.73215e-19)
(-0.150101 -0.00430785 0)
(-0.143151 -0.00667847 -4.91743e-19)
(-0.131358 -0.00898262 0)
(-0.114193 -0.0110612 1.03329e-18)
(-0.0912628 -0.0127021 0)
(-0.0624809 -0.0136274 0)
(-0.0282368 -0.0134889 0)
(0.0102139 -0.0118827 -2.24982e-18)
(0.0515915 -0.00873948 -2.3068e-18)
(0.0967531 -0.00428033 -2.44668e-18)
(0.144086 0.00152898 3.09618e-21)
(0.191276 0.00870785 -2.67433e-18)
(0.236185 0.0169204 2.75245e-18)
(0.27685 0.0256887 5.59581e-18)
(0.312072 0.0345046 0)
(0.340839 0.0429144 -2.81795e-18)
(0.363657 0.0506057 5.59144e-18)
(0.38006 0.0573612 5.50026e-18)
(0.393149 0.0632926 0)
(0.400677 0.0682822 0)
(0.411428 0.0731966 0)
(0.414163 0.0771549 4.6476e-18)
(0.434652 0.083161 0)
(0.432086 0.0866645 0)
(0.483209 0.0976936 3.46615e-18)
(0.465214 0.100156 -1.60204e-18)
(0.58369 0.119554 -2.10903e-18)
(0.745572 0.0291038 -1.12221e-19)
(0.233474 0.0159856 -3.93906e-18)
(0.0746436 0.000565381 0)
(-0.00357765 0.00706748 -4.57805e-18)
(-0.0173389 0.00552539 -4.60244e-18)
(-0.0338028 0.00743002 5.1371e-22)
(-0.035341 0.00672209 0)
(-0.0395918 0.00692512 0)
(-0.039452 0.00649481 0)
(-0.0407338 0.0063503 -4.40622e-18)
(-0.0406882 0.00609806 0)
(-0.0416002 0.00602328 0)
(-0.0425141 0.00602137 2.10109e-18)
(-0.0443236 0.00611108 0)
(-0.0464191 0.00615895 0)
(-0.048744 0.00607515 0)
(-0.0507186 0.005823 0)
(-0.0523015 0.00549085 -1.96037e-18)
(-0.0536979 0.00525607 0)
(-0.0556485 0.00529994 1.91511e-18)
(-0.0590165 0.00572135 -9.46733e-19)
(-0.0645842 0.00649044 -9.36258e-19)
(-0.0727087 0.00745214 1.85237e-18)
(-0.0832173 0.00836797 1.8334e-18)
(-0.0954399 0.00899716 0)
(-0.108446 0.00916902 -4.50136e-19)
(-0.121287 0.00881255 0)
(-0.13315 0.00793554 0)
(-0.143393 0.00658746 -4.44039e-19)
(-0.151497 0.00482905 0)
(-0.157009 0.00271927 0)
(-0.159492 0.000315647 4.50144e-19)
(-0.158499 -0.00232056 0)
(-0.153562 -0.00511749 0)
(-0.144189 -0.00798194 4.70404e-19)
(-0.129877 -0.0107903 0)
(-0.110179 -0.0133702 -9.82431e-19)
(-0.084782 -0.0154848 0)
(-0.0536591 -0.0168148 0)
(-0.0172065 -0.0169453 0)
(0.0234466 -0.0154449 0)
(0.0677543 -0.0123074 2.19009e-18)
(0.116547 -0.00767861 2.31015e-18)
(0.167885 -0.00138621 3.44702e-21)
(0.219475 0.00661916 2.54178e-18)
(0.269149 0.0159828 2.62311e-18)
(0.314859 0.0261747 -2.6877e-18)
(0.355234 0.0366013 0)
(0.389056 0.0467098 -2.73376e-18)
(0.416571 0.0560741 2.72565e-18)
(0.437166 0.0643979 -5.3855e-18)
(0.453733 0.0716932 0)
(0.464183 0.0778677 0)
(0.47715 0.083691 -4.92466e-18)
(0.482031 0.0885052 -4.58508e-18)
(0.504186 0.0950414 4.3481e-18)
(0.504129 0.0994169 3.60597e-18)
(0.557627 0.1107 -3.45018e-18)
(0.543638 0.11461 1.59572e-18)
(0.668478 0.133272 0)
(0.793863 0.0436763 -1.01254e-19)
(0.304804 0.0197719 0)
(0.108023 0.00231963 4.2133e-18)
(0.0107782 0.00760645 4.56179e-18)
(-0.0117936 0.00582258 -6.01942e-23)
(-0.0328486 0.00797879 4.62681e-18)
(-0.0366005 0.00724699 0)
(-0.0423728 0.00755128 0)
(-0.0430121 0.00712341 0)
(-0.0448807 0.00701261 2.20268e-18)
(-0.0451906 0.00677744 2.1673e-18)
(-0.0464132 0.00674444 0)
(-0.0475957 0.00679494 -2.09921e-18)
(-0.0496865 0.00693826 2.06646e-18)
(-0.0520491 0.00701071 0)
(-0.054605 0.00690484 0)
(-0.0567475 0.00659136 0)
(-0.0584485 0.00619739 1.23583e-22)
(-0.0599629 0.00595489 0)
(-0.0621074 0.00608815 -3.7957e-18)
(-0.0658106 0.00670457 9.3621e-19)
(-0.0718619 0.00774049 9.23794e-19)
(-0.0805372 0.00897531 8.6826e-23)
(-0.0915124 0.0100984 -9.0013e-19)
(-0.103958 0.0108186 0)
(-0.116835 0.0109507 0)
(-0.129161 0.0104388 0)
(-0.140147 0.00931912 2.1584e-19)
(-0.149203 0.00766807 4.29385e-19)
(-0.15587 0.00556561 0)
(-0.159755 0.00308182 0)
(-0.160477 0.000279746 -4.31404e-19)
(-0.157641 -0.00277711 -2.17644e-19)
(-0.150836 -0.00601704 0)
(-0.139606 -0.00934724 0)
(-0.123492 -0.0126401 0)
(-0.10209 -0.0157125 0)
(-0.0751132 -0.0183059 0)
(-0.0425345 -0.0200633 0)
(-0.00468857 -0.0205101 0)
(0.0375102 -0.0192078 0)
(0.0839805 -0.0161968 0)
(0.135148 -0.0115415 -3.03823e-21)
(0.188984 -0.00493966 2.30656e-18)
(0.24333 0.00367224 0)
(0.296114 0.0139308 -4.98282e-18)
(0.345352 0.0252785 -2.55705e-18)
(0.389641 0.0370705 0)
(0.427664 0.0486842 2.63535e-18)
(0.459436 0.059598 -2.64143e-18)
(0.484177 0.0694385 5.24628e-18)
(0.504442 0.0780976 -5.15074e-18)
(0.518219 0.0854876 0)
(0.533754 0.0922398 7.83328e-21)
(0.541202 0.0979257 4.51804e-18)
(0.564979 0.104915 -8.57854e-18)
(0.567731 0.110118 -1.00663e-20)
(0.622579 0.121353 -3.39424e-18)
(0.613052 0.126613 1.55975e-18)
(0.741129 0.14394 2.03666e-18)
(0.832283 0.0576446 3.09116e-18)
(0.374336 0.02452 0)
(0.14742 0.00466219 2.61653e-21)
(0.029976 0.00827117 -2.77768e-22)
(-0.00333614 0.00612654 4.58932e-18)
(-0.0295851 0.00840608 4.62312e-18)
(-0.0361364 0.0076449 0)
(-0.0437314 0.00804801 4.53552e-18)
(-0.0453936 0.00762901 0)
(-0.0479884 0.00755994 -2.20208e-18)
(-0.0487599 0.00735039 -9.11647e-23)
(-0.050343 0.00736703 -2.13157e-18)
(-0.0518123 0.00747612 0)
(-0.0541635 0.00767601 -4.12473e-18)
(-0.0567527 0.00777232 0)
(-0.0594894 0.00764149 0)
(-0.0617572 0.00726486 0)
(-0.0635414 0.0068116 1.93585e-18)
(-0.0651325 0.00656951 0)
(-0.0673925 0.00680399 1.87607e-18)
(-0.0712776 0.00762507 -1.84697e-18)
(-0.0775497 0.008927 0)
(-0.0863859 0.0104173 9.53364e-23)
(-0.0973253 0.0117137 0)
(-0.109428 0.0124832 0)
(-0.121619 0.0125375 -4.27739e-19)
(-0.132944 0.0118451 0)
(-0.142686 0.0104736 -4.17308e-19)
(-0.15033 0.00852552 -2.06906e-19)
(-0.155484 0.00609631 -5.14642e-20)
(-0.157804 0.00326315 5.14056e-20)
(-0.156953 9.09203e-05 2.06328e-19)
(-0.152575 -0.00335812 4.15366e-19)
(-0.144279 -0.00701544 0)
(-0.13163 -0.0107905 4.25104e-19)
(-0.114194 -0.0145524 0)
(-0.091586 -0.0181088 0)
(-0.0635208 -0.0211806 0)
(-0.0299466 -0.0233759 9.27822e-19)
(0.00887884 -0.024169 0)
(0.0522666 -0.0231257 0)
(0.100341 -0.0203127 2.00363e-18)
(0.153043 -0.0157114 -2.09966e-18)
(0.208379 -0.00891028 0)
(0.264339 0.000158847 0)
(0.318986 0.0111239 2.36921e-18)
(0.370459 0.0234061 2.43686e-18)
(0.417419 0.0363272 -2.48496e-18)
(0.458569 0.0492199 0)
(0.493801 0.0614962 0)
(0.522228 0.0727209 0)
(0.546061 0.0826791 8.14294e-21)
(0.563291 0.0912638 0)
(0.581638 0.0989501 4.72754e-18)
(0.591954 0.105512 0)
(0.617484 0.112925 4.21228e-18)
(0.623209 0.118908 -3.50667e-18)
(0.678949 0.129927 6.69385e-18)
(0.67389 0.136388 -1.54463e-18)
(0.803252 0.152066 -2.01989e-18)
(0.863052 0.0707461 8.43825e-20)
(0.44043 0.030129 -3.62224e-18)
(0.191799 0.00761576 -4.10858e-18)
(0.0540286 0.00917333 -1.85041e-22)
(0.0082082 0.00652786 -4.57702e-18)
(-0.0239297 0.00876212 -4.61815e-18)
(-0.0338786 0.007952 0)
(-0.0436224 0.00844118 -4.53369e-18)
(-0.0465583 0.00803044 0)
(-0.0500315 0.00800655 -2.20079e-18)
(-0.0513729 0.00782675 -2.16451e-18)
(-0.05337 0.00789697 2.12905e-18)
(-0.0551426 0.008067 -2.09246e-18)
(-0.0577334 0.00832359 2.05683e-18)
(-0.0605098 0.00844185 -2.02123e-18)
(-0.0633837 0.00828388 1.98651e-18)
(-0.0657439 0.00784396 0)
(-0.0675878 0.00733474 0)
(-0.0692248 0.00709908 0)
(-0.0715301 0.00744041 9.25554e-19)
(-0.0754536 0.00846602 9.09477e-19)
(-0.0817057 0.0100221 0)
(-0.0903667 0.0117414 -8.77884e-19)
(-0.100873 0.013175 0)
(-0.112233 0.0139576 0)
(-0.123393 0.0139081 4.15714e-19)
(-0.133473 0.013024 -4.08958e-19)
(-0.14184 0.0114044 2.01594e-19)
(-0.14805 0.00917368 0)
(-0.151761 0.00643867 9.89706e-20)
(-0.152665 0.00328004 -9.86822e-20)
(-0.150448 -0.000238006 0)
(-0.144772 -0.00405664 -1.98739e-19)
(-0.135253 -0.00811188 4.00789e-19)
(-0.121468 -0.012315 -4.06568e-19)
(-0.102999 -0.0165322 0)
(-0.0794669 -0.0205622 0)
(-0.0505795 -0.024107 0)
(-0.0162551 -0.026743 -8.91404e-19)
(0.0233245 -0.0279028 0)
(0.0676681 -0.0271594 0)
(0.116922 -0.0245837 -1.93788e-18)
(0.170599 -0.0200741 0)
(0.226784 -0.0131384 2.10394e-18)
(0.283608 -0.00370823 -2.18519e-18)
(0.339261 0.00783425 0)
(0.392012 0.0208887 2.32172e-18)
(0.440622 0.0347485 4.75097e-18)
(0.483882 0.0487139 -2.41078e-18)
(0.52166 0.0621529 0)
(0.553045 0.0745865 0)
(0.57999 0.0857209 2.42403e-18)
(0.600465 0.0954209 0)
(0.621635 0.104009 4.58807e-18)
(0.634913 0.111421 0)
(0.662329 0.119242 4.10496e-18)
(0.671064 0.125947 3.42148e-18)
(0.727559 0.136667 -3.2867e-18)
(0.726742 0.144167 0)
(0.856244 0.158075 1.97024e-18)
(0.887779 0.0828464 -3.34301e-18)
(0.502115 0.0364313 2.00134e-20)
(0.239915 0.0111914 4.0545e-18)
(0.08283 0.0104231 -1.64384e-22)
(0.0230231 0.00709329 -6.60483e-22)
(-0.0157856 0.00909923 0)
(-0.0297515 0.00820594 0)
(-0.041992 0.00875715 0)
(-0.0464627 0.00834716 -2.23189e-18)
(-0.05098 0.00836708 4.39831e-18)
(-0.0530046 0.0082167 0)
(-0.0554747 0.0083406 2.12557e-18)
(-0.0575686 0.0085703 5.09455e-23)
(-0.060382 0.00888143 -2.04967e-18)
(-0.0633122 0.00901928 7.46588e-23)
(-0.0662906 0.00883352 -1.97359e-18)
(-0.0687249 0.00833244 0)
(-0.0706214 0.00777164 0)
(-0.0722881 0.00754631 0)
(-0.0745814 0.00799426 -9.12478e-19)
(-0.078416 0.00921588 0)
(-0.0844403 0.0110061 8.78045e-19)
(-0.0926542 0.0129243 8.60702e-19)
(-0.102435 0.0144611 -8.43055e-19)
(-0.112793 0.0152292 0)
(-0.122736 0.0150611 0)
(-0.131474 0.013985 3.96612e-19)
(-0.138453 0.012128 0)
(-0.143284 0.0096322 1.92526e-19)
(-0.145658 0.00661194 -4.77157e-20)
(-0.145286 0.00314898 4.75241e-20)
(-0.141864 -0.00069452 -1.90233e-19)
(-0.135065 -0.00486444 0)
(-0.124498 -0.00930138 -3.85408e-19)
(-0.109754 -0.0139175 0)
(-0.0904232 -0.0185764 0)
(-0.0661283 -0.0230688 8.14323e-19)
(-0.0365684 -0.0270788 0)
(-0.001632 -0.0301549 0)
(0.0385675 -0.0316962 0)
(0.0836914 -0.0312792 0)
(0.133801 -0.0289586 0)
(0.188072 -0.0245528 0)
(0.244679 -0.0175161 -4.06749e-18)
(0.301873 -0.00778361 2.10852e-18)
(0.357955 0.00425101 2.17122e-18)
(0.411312 0.0179638 -4.46108e-18)
(0.460813 0.0326206 -2.28067e-18)
(0.505357 0.0474926 2.31722e-18)
(0.544845 0.0619164 -2.33762e-18)
(0.578412 0.0753832 0)
(0.607845 0.0875436 4.37727e-21)
(0.63112 0.0982402 -4.56057e-18)
(0.654894 0.107659 -4.4568e-18)
(0.671014 0.115862 -4.18029e-18)
(0.700349 0.124069 -8.00172e-18)
(0.712001 0.131424 -3.34637e-18)
(0.76924 0.14181 3.1966e-18)
(0.77232 0.150183 1.46055e-18)
(0.90133 0.162322 -1.94054e-18)
(0.907677 0.0939021 -7.31525e-20)
(0.558877 0.0432343 3.48328e-18)
(0.290474 0.0153764 2.25201e-21)
(0.116115 0.012103 -2.04089e-22)
(0.0412885 0.0078912 4.53633e-18)
(-0.00504445 0.00947061 4.59768e-18)
(-0.0236739 0.00844587 -4.56654e-18)
(-0.0387773 0.00902276 2.26298e-18)
(-0.0450574 0.00859931 4.46259e-23)
(-0.0507991 0.00865666 -2.19697e-18)
(-0.0536281 0.00853101 -2.15918e-18)
(-0.0566383 0.00870498 -2.12139e-18)
(-0.0590773 0.0089899 4.16282e-18)
(-0.062104 0.00935176 4.84811e-23)
(-0.0651651 0.00950716 2.00005e-18)
(-0.0682304 0.00929507 0)
(-0.0707373 0.00873738 1.91717e-18)
(-0.0726947 0.00813002 0)
(-0.0743862 0.00791625 -1.83675e-18)
(-0.0766203 0.00846472 -8.99482e-19)
(-0.0802557 0.00986662 -8.81188e-19)
(-0.0858781 0.0118657 6.9817e-23)
(-0.0934337 0.0139514 -8.44067e-19)
(-0.102284 0.0155622 8.24848e-19)
(-0.111481 0.0162963 0)
(-0.120119 0.0160039 -3.93724e-19)
(-0.127495 0.0147419 0)
(-0.133121 0.0126616 0)
(-0.136647 0.00991852 -1.86513e-19)
(-0.137782 0.00663192 0)
(-0.136245 0.00288313 0)
(-0.131738 -0.00126856 1.8394e-19)
(-0.123929 -0.00577431 0)
(-0.11243 -0.0105786 0)
(-0.0968382 -0.0155941 3.7748e-19)
(-0.0767505 -0.0206818 0)
(-0.0517887 -0.0256252 -7.89419e-19)
(-0.0216426 -0.0300922 0)
(0.0138242 -0.0336061 8.35353e-19)
(0.0545555 -0.035539 0)
(0.100318 -0.0354639 0)
(0.151035 -0.0334014 0)
(0.205637 -0.0290966 0)
(0.262379 -0.0219727 1.97831e-18)
(0.31961 -0.0119714 0)
(0.375726 0.000500545 -4.20641e-18)
(0.429221 0.0147935 2.15676e-18)
(0.479061 0.0301445 -2.19574e-18)
(0.524259 0.045796 2.22883e-18)
(0.564777 0.0610596 2.25693e-18)
(0.599827 0.0754038 0)
(0.63111 0.0884424 2.2558e-18)
(0.656641 0.100003 6.62395e-18)
(0.682656 0.110161 -4.30853e-18)
(0.70134 0.11907 4.06409e-18)
(0.732509 0.127628 3.89158e-18)
(0.746877 0.135549 0)
(0.804865 0.145588 -3.12398e-18)
(0.811428 0.154673 -2.84923e-18)
(0.939616 0.165114 0)
(0.923681 0.103926 3.57083e-18)
(0.610517 0.0503472 0)
(0.342238 0.0201302 2.03764e-21)
(0.153452 0.0142697 -2.83789e-22)
(0.0631484 0.00898266 -4.50988e-18)
(0.00841526 0.00993514 -9.16601e-18)
(-0.0155594 0.00871259 9.11997e-18)
(-0.0339055 0.00926544 -2.26032e-18)
(-0.0422867 0.00880796 2.22764e-18)
(-0.0494484 0.00889113 0)
(-0.0532142 0.00878129 3.89396e-23)
(-0.0568432 0.00899826 0)
(-0.059661 0.0093312 -4.14888e-18)
(-0.0629038 0.0097389 2.03165e-18)
(-0.0660866 0.0099106 0)
(-0.0692365 0.00967584 0)
(-0.0718281 0.00906795 -1.89863e-18)
(-0.0738639 0.00841877 0)
(-0.0755814 0.00821452 1.81384e-18)
(-0.0777164 0.00885176 8.87186e-19)
(-0.0810581 0.0104123 -2.7615e-23)
(-0.0861377 0.0125913 -8.48629e-19)
(-0.0928764 0.0148144 -8.28737e-19)
(-0.100657 0.0164749 0)
(-0.108604 0.0171626 0)
(-0.115903 0.0167462 3.84165e-19)
(-0.121933 0.0153084 0)
(-0.126257 0.01302 1.8408e-19)
(-0.128548 0.0100468 -1.81252e-19)
(-0.128525 0.00651097 4.48379e-20)
(-0.125908 0.00249254 -4.46106e-20)
(-0.1204 -0.00195255 1.7842e-19)
(-0.111662 -0.00678077 -1.78967e-19)
(-0.0993064 -0.0119398 3.61215e-19)
(-0.0829388 -0.0173421 -3.66911e-19)
(-0.0621582 -0.0228467 0)
(-0.0365859 -0.0282304 0)
(-0.00590407 -0.0331461 0)
(0.0300444 -0.0370943 -7.89146e-22)
(0.0712452 -0.0394245 8.40298e-19)
(0.11753 -0.0396976 0)
(0.168668 -0.0378869 0)
(0.223416 -0.033672 0)
(0.280095 -0.0264624 0)
(0.337132 -0.016209 0)
(0.393005 -0.00333354 3.46941e-21)
(0.446301 0.0114864 0)
(0.496079 0.0274575 4.26565e-18)
(0.541458 0.0437929 -4.32351e-18)
(0.582473 0.0597821 -2.18011e-18)
(0.618429 0.074874 0)
(0.650986 0.0886591 0)
(0.678233 0.100954 -4.27463e-18)
(0.706071 0.111752 8.33381e-21)
(0.726956 0.121272 -3.93353e-18)
(0.759787 0.130135 3.76924e-18)
(0.776598 0.138533 3.15191e-18)
(0.835317 0.14822 -3.02472e-18)
(0.844925 0.157865 2.76013e-18)
(0.972128 0.166717 1.83631e-18)
(0.936534 0.112965 6.54696e-20)
(0.65705 0.0575958 -3.34213e-18)
(0.394096 0.0253859 -7.76419e-18)
(0.194264 0.0169554 -3.93623e-22)
(0.0886689 0.0104215 4.4775e-18)
(0.024732 0.0105504 4.56303e-18)
(-0.00531645 0.0090505 -2.27459e-18)
(-0.0272936 0.00951313 0)
(-0.0380876 0.00899521 0)
(-0.0468813 0.00908714 2.1912e-18)
(-0.0517305 0.00898019 2.15186e-18)
(-0.0560714 0.00922989 0)
(-0.0593156 0.0096013 2.067e-18)
(-0.062792 0.0100491 0)
(-0.0661016 0.0102367 0)
(-0.0693463 0.00998458 0)
(-0.0720427 0.00933382 0)
(-0.0741779 0.00864642 1.83528e-18)
(-0.0759241 0.0084461 8.9618e-19)
(-0.0779265 0.00915538 -8.7579e-19)
(-0.0808971 0.0108485 -2.9978e-23)
(-0.085324 0.0131769 0)
(-0.0911308 0.0155089 8.14466e-19)
(-0.0977526 0.0171999 0)
(-0.104404 0.0178345 0)
(-0.110363 0.0172986 3.75709e-19)
(-0.115078 0.0156968 -3.66719e-19)
(-0.11815 0.0132157 -1.79616e-19)
(-0.119268 0.0100284 1.76752e-19)
(-0.118152 0.00625866 -8.74143e-20)
(-0.11452 0.00198483 8.69682e-20)
(-0.108072 -0.00274094 -1.73848e-19)
(-0.0984603 -0.00788007 1.74446e-19)
(-0.0853005 -0.0133825 -2.18966e-22)
(-0.0682032 -0.0191605 -3.57619e-19)
(-0.0467689 -0.0250714 0)
(-0.0206188 -0.0308854 0)
(0.0105711 -0.0362417 0)
(0.0469714 -0.0406193 -1.59638e-18)
(0.0885963 -0.0433483 -8.2529e-19)
(0.135309 -0.0439687 0)
(0.186727 -0.0423973 0)
(0.24149 -0.0382567 -1.83348e-18)
(0.297968 -0.030955 0)
(0.354647 -0.0204548 0)
(0.410075 -0.00719548 4.01233e-18)
(0.462924 0.00811568 -2.04619e-18)
(0.512338 0.0246534 -4.16322e-18)
(0.557541 0.0416005 4.28635e-21)
(0.598641 0.058226 4.24564e-18)
(0.635038 0.0739607 2.12521e-18)
(0.668386 0.0883803 0)
(0.696859 0.101294 2.07666e-18)
(0.726103 0.112634 4.06043e-18)
(0.748807 0.12267 3.82698e-18)
(0.783081 0.131787 -3.66911e-18)
(0.80203 0.140573 -3.07041e-18)
(0.861432 0.149908 2.94815e-18)
(0.873654 0.159976 -1.34068e-18)
(0.999805 0.16736 -1.79409e-18)
(0.946831 0.121081 6.24922e-20)
(0.698632 0.0648303 3.30305e-18)
(0.445097 0.0310569 -1.58312e-21)
(0.23786 0.0201684 -5.28783e-22)
(0.117811 0.0122524 0)
(0.0440228 0.0113753 0)
(0.0071766 0.00950227 1.71585e-22)
(-0.0188468 0.00979493 0)
(-0.0323885 0.00918432 0)
(-0.0430431 0.00926227 -6.37188e-24)
(-0.0491394 0.00914147 0)
(-0.0543023 0.0094106 0)
(-0.0580368 0.00980876 2.05953e-18)
(-0.06178 0.0102902 0)
(-0.0652346 0.0104935 0)
(-0.0685928 0.0102302 0)
(-0.0714166 0.0095439 0)
(-0.0736713 0.00882027 -1.30283e-22)
(-0.0754498 0.00861508 -8.86554e-19)
(-0.0772936 0.0093758 1.73094e-18)
(-0.0798338 0.0111724 -3.23251e-23)
(-0.083527 0.0136191 8.23617e-19)
(-0.0883235 0.0160342 0)
(-0.0937338 0.0177406 7.79241e-19)
(-0.099072 0.0183192 0)
(-0.103706 0.0176709 -3.68183e-19)
(-0.107143 0.015918 -5.4329e-24)
(-0.109012 0.013259 0)
(-0.109009 0.00987246 0)
(-0.106852 0.00588248 9.20858e-24)
(-0.102255 0.00136573 -1.31779e-23)
(-0.0949112 -0.00362975 8.49138e-20)
(-0.0844657 -0.00906971 0)
(-0.0705376 -0.0149055 -3.44586e-19)
(-0.0527403 -0.0210495 3.50316e-19)
(-0.0306757 -0.0273569 0)
(-0.00396473 -0.0335922 -7.35884e-19)
(0.0277195 -0.0393808 0)
(0.064554 -0.0441824 7.67371e-22)
(0.10657 -0.0473077 0)
(0.153634 -0.0482692 8.41206e-19)
(0.205229 -0.0469206 8.72663e-19)
(0.259913 -0.042836 2.25749e-21)
(0.31609 -0.0354302 -1.8702e-18)
(0.372291 -0.024681 0)
(0.427123 -0.0110475 -3.3784e-21)
(0.479336 0.00473135 2.01464e-18)
(0.528157 0.0217968 4.04176e-21)
(0.572906 0.0393009 2.06473e-18)
(0.613768 0.0564922 -4.3277e-21)
(0.650238 0.072785 -4.3246e-21)
(0.683978 0.0877456 0)
(0.713256 0.101178 0)
(0.743527 0.11297 0)
(0.767679 0.123432 0)
(0.803157 0.132752 0)
(0.823939 0.141841 2.97465e-18)
(0.883957 0.150825 0)
(0.898397 0.161197 0)
(1.02348 0.167236 -1.73903e-18)
(0.955058 0.128348 -1.9177e-18)
(0.735511 0.0719274 0)
(0.494461 0.0370436 -1.39371e-21)
(0.283484 0.0238935 -6.83542e-22)
(0.150413 0.014509 0)
(0.0663738 0.0124674 2.25621e-18)
(0.0220567 0.0101096 -2.25981e-18)
(-0.00845924 0.010141 0)
(-0.0251085 0.00939983 0)
(-0.0378693 0.00943494 -2.18479e-18)
(-0.0453951 0.00927994 0)
(-0.0515086 0.00955226 0)
(-0.0558156 0.00996333 -2.05254e-18)
(-0.0598748 0.0104708 0)
(-0.0635038 0.0106894 -1.95079e-18)
(-0.0669989 0.0104209 0)
(-0.0699722 0.00970576 0)
(-0.0723642 0.00894628 -1.23316e-22)
(-0.07418 0.00872495 0)
(-0.0758486 0.0095137 -8.56211e-19)
(-0.0779178 0.0113828 8.347e-19)
(-0.0808232 0.0139169 -1.6255e-18)
(-0.0845611 0.0163916 7.90063e-19)
(-0.088734 0.0181017 -7.66831e-19)
(-0.0927608 0.0186244 0)
(-0.0960937 0.0178723 -3.61608e-19)
(-0.0982907 0.0159813 7.04684e-19)
(-0.099 0.0131587 0)
(-0.097921 0.00958633 -8.47364e-20)
(-0.094766 0.00538838 4.19071e-20)
(-0.0892421 0.000639601 -4.17053e-20)
(-0.0810366 -0.00461611 -8.32642e-20)
(-0.0697865 -0.0103481 0)
(-0.0551149 -0.0165086 -3.37873e-19)
(-0.0366362 -0.0230099 3.43728e-19)
(-0.0139535 -0.0297054 0)
(0.0133119 -0.0363535 7.24181e-19)
(0.0454852 -0.0425665 0)
(0.0827451 -0.0477852 7.73081e-19)
(0.125128 -0.0513014 0)
(0.172486 -0.0525935 -8.32548e-19)
(0.224181 -0.051449 -8.64526e-19)
(0.278718 -0.0473999 2.27617e-21)
(0.334522 -0.0398747 1.85345e-18)
(0.390152 -0.0288687 0)
(0.444271 -0.0148635 -1.95311e-18)
(0.4957 0.00136825 0)
(0.543746 0.0189333 2.01521e-18)
(0.587823 0.0369517 0)
(0.628192 0.054653 -2.04038e-18)
(0.664441 0.0714349 -4.07065e-18)
(0.698249 0.0868587 0)
(0.727979 0.100724 0)
(0.758942 0.11289 0)
(0.784203 0.123694 1.80994e-18)
(0.820651 0.133166 0)
(0.842974 0.142482 -8.58e-21)
(0.903529 0.151116 0)
(0.919834 0.16169 1.24311e-18)
(1.04387 0.166503 1.69783e-18)
(0.961616 0.134842 0)
(0.767999 0.0787904 3.21483e-18)
(0.541577 0.043241 3.7322e-18)
(0.330356 0.0280938 -8.49302e-22)
(0.186192 0.0172121 0)
(0.0918273 0.0138779 -2.24092e-18)
(0.0394606 0.0109143 0)
(0.00398321 0.010584 2.24309e-18)
(-0.0161578 0.00966768 2.21575e-18)
(-0.0312837 0.00962444 2.18171e-18)
(-0.0404413 0.00941148 2.14049e-18)
(-0.0476535 0.00966773 2.09583e-18)
(-0.0526341 0.0100756 0)
(-0.0570743 0.0105998 0)
(-0.0609169 0.0108324 1.94079e-18)
(-0.0645755 0.0105639 0)
(-0.0677184 0.00982562 0)
(-0.0702635 0.00902936 -1.78712e-18)
(-0.0721243 0.00877893 0)
(-0.0736118 0.00957066 -8.47969e-19)
(-0.0751887 0.0114805 0)
(-0.0772772 0.0140716 8.02984e-19)
(-0.0799334 0.0165843 -7.79553e-19)
(-0.0828634 0.0182888 0)
(-0.0855931 0.0187577 0)
(-0.0876543 0.0179113 -2.8871e-23)
(-0.0886482 0.015895 -3.46503e-19)
(-0.0882372 0.0129219 0)
(-0.0861203 0.00917611 8.33016e-20)
(-0.0820025 0.00478114 4.11861e-20)
(-0.0755835 -0.000190163 -4.09853e-20)
(-0.0665416 -0.00569792 0)
(-0.0545087 -0.0117144 0)
(-0.0391102 -0.018192 2.02738e-22)
(-0.019961 -0.0250431 -2.4014e-22)
(0.00333516 -0.0321193 0)
(0.0311552 -0.0391722 0)
(0.063818 -0.0458018 7.36064e-19)
(0.101501 -0.0514301 0)
(0.144236 -0.0553291 0)
(0.191843 -0.0569383 0)
(0.243583 -0.0559774 0)
(0.297923 -0.0519426 1.77956e-18)
(0.353298 -0.0442798 1.8374e-18)
(0.408286 -0.0330051 0)
(0.461597 -0.0186254 0)
(0.512122 -0.00194912 1.96744e-18)
(0.559247 0.0160949 0)