/*--------------------------------*- C++ -*----------------------------------*\
| =========                 |                                                 |
| \\      /  F ield         | OpenFOAM: The Open Source CFD Toolbox           |
|  \\    /   O peration     | Version:  2.4.0                                 |
|   \\  /    A nd           | Web:      www.OpenFOAM.org                      |
|    \\/     M anipulation  |                                                 |
\*---------------------------------------------------------------------------*/
FoamFile
{
    version     2.0;
    format      ascii;
    class       volScalarField;
    location    "3.1";
    object      k;
}
// * * * * * * * * * * * * * * * * * * * * * * * * * * * * * * * * * * * * * //

dimensions      [0 2 -2 0 0 0 0];

internalField   nonuniform List<scalar> 
5625
(
0.0107771
0.00650394
0.00358828
0.00258947
0.00238471
0.00215905
0.00205624
0.00196362
0.00192228
0.00189214
0.00188948
0.00189865
0.00192236
0.00196244
0.00201552
0.00208478
0.00217051
0.00227264
0.0023941
0.0025374
0.0027038
0.00289253
0.00310159
0.00332787
0.00356761
0.0038168
0.00407241
0.00433156
0.00458785
0.00483692
0.00507686
0.00530615
0.00552248
0.00572405
0.00591395
0.00609134
0.00625392
0.0064021
0.00653564
0.0066545
0.00675995
0.00685576
0.00693963
0.00701468
0.00708182
0.00714205
0.00719629
0.00724526
0.00728954
0.00732932
0.00736484
0.00739571
0.00742097
0.0074383
0.00744316
0.00743808
0.0074137
0.00766057
0.00793351
0.00817971
0.00843201
0.00861297
0.0088446
0.00898809
0.00926579
0.00931548
0.00955793
0.00947981
0.00976234
0.00970535
0.010006
0.0101237
0.0105767
0.0111268
0.0106012
0.0102419
0.0126485
0.00962997
0.00679207
0.00548339
0.00466628
0.00426017
0.00397677
0.00382732
0.00373093
0.00369853
0.00370492
0.00374535
0.00381301
0.00391112
0.00404162
0.00420588
0.00440522
0.00464434
0.00492638
0.00525325
0.00562334
0.0060324
0.00647412
0.00694079
0.00742414
0.00791767
0.00841581
0.00890771
0.00938461
0.00984248
0.010278
0.0106873
0.0110684
0.0114255
0.0117609
0.0120676
0.0123489
0.0126058
0.0128397
0.0130521
0.0132439
0.013419
0.0135853
0.0137454
0.0139026
0.0140601
0.0142208
0.0143873
0.0145614
0.0147449
0.0149388
0.0151426
0.0153525
0.015558
0.0157656
0.0159504
0.0162016
0.0163912
0.0165328
0.0165495
0.0164856
0.0162952
0.0160846
0.0157647
0.0153405
0.0147334
0.0139551
0.0132427
0.0123195
0.0115441
0.0107471
0.0100248
0.00926897
0.00930865
0.00987552
0.0140328
0.0126104
0.00978062
0.00778541
0.00649875
0.00581744
0.00536545
0.00511086
0.00494765
0.00487332
0.00485822
0.00489287
0.00496504
0.00507861
0.00523699
0.00544142
0.00569368
0.00599906
0.00636105
0.0067813
0.00725733
0.00778347
0.00835144
0.0089513
0.00957239
0.0102052
0.0108416
0.0114692
0.0120775
0.0126608
0.0132145
0.0137345
0.0142188
0.0146696
0.0150874
0.0154696
0.0158176
0.0161329
0.0164173
0.0166741
0.0169065
0.0171167
0.017312
0.0174967
0.0176756
0.0178528
0.0180323
0.0182175
0.0184112
0.0186157
0.0188332
0.019063
0.0193029
0.0195404
0.0197827
0.0200024
0.0202617
0.0204468
0.0205736
0.0205476
0.0204257
0.0201263
0.0198151
0.0193174
0.0187611
0.0178965
0.0169412
0.0158908
0.0147623
0.0136063
0.0126232
0.0114632
0.0107177
0.00938636
0.009555
0.0140167
0.0141547
0.0121818
0.00986171
0.00817074
0.00720206
0.00656749
0.00619547
0.00595547
0.00582998
0.0057824
0.0058003
0.00586681
0.00598376
0.00615512
0.00638281
0.00666857
0.00701781
0.00743416
0.00791894
0.0084691
0.00907791
0.00973572
0.010431
0.0111514
0.0118852
0.0126223
0.0133495
0.014055
0.0147318
0.0153742
0.0159779
0.0165402
0.0170618
0.0175429
0.017982
0.01838
0.0187385
0.0190597
0.019347
0.0196049
0.019836
0.0200465
0.0202417
0.0204272
0.0206079
0.0207886
0.0209732
0.0211653
0.0213679
0.021584
0.0218134
0.0220557
0.0222964
0.0225434
0.0227685
0.0230184
0.0231923
0.0233018
0.023249
0.0230846
0.0226956
0.0223283
0.0217134
0.0210789
0.02006
0.0190054
0.0177412
0.0165187
0.0151288
0.0140903
0.01268
0.0119216
0.00990747
0.00927129
0.0136067
0.0150601
0.0139882
0.0118248
0.00983855
0.00858094
0.00774677
0.00723999
0.00690952
0.00672194
0.00663133
0.00662366
0.00667579
0.00678803
0.00696284
0.00720331
0.00751098
0.00789122
0.00834764
0.00888131
0.00948875
0.0101624
0.0108917
0.0116637
0.0124647
0.0132814
0.0141019
0.0149124
0.0157001
0.0164566
0.0171754
0.0178514
0.0184814
0.0190648
0.0196015
0.0200905
0.0205324
0.0209285
0.0212814
0.0215943
0.0218726
0.0221188
0.0223389
0.0225385
0.0227239
0.0229007
0.0230741
0.023249
0.0234295
0.0236189
0.0238211
0.0240367
0.0242667
0.0244962
0.0247313
0.0249447
0.0251719
0.0253258
0.0254117
0.0253339
0.0251228
0.0246581
0.0242396
0.0235384
0.0228413
0.0217106
0.0205823
0.0191606
0.0178752
0.0163178
0.0152444
0.0136711
0.0128894
0.0105274
0.00901648
0.0128222
0.0154026
0.0152352
0.013624
0.011514
0.0100009
0.00895918
0.00830194
0.00786708
0.00760586
0.00746254
0.00742052
0.00745038
0.00755043
0.0077212
0.00796606
0.00828672
0.0086883
0.00917437
0.00974581
0.0103988
0.0111253
0.0119138
0.0127505
0.0136204
0.0145087
0.0154022
0.0162865
0.0171478
0.0179765
0.0187651
0.0195076
0.0202001
0.020841
0.0214298
0.0219655
0.0224484
0.0228797
0.023262
0.0235984
0.0238944
0.024153
0.0243794
0.0245798
0.024761
0.0249289
0.0250896
0.0252484
0.0254099
0.025578
0.0257572
0.025949
0.0261557
0.0263626
0.0265729
0.0267609
0.0269541
0.0270792
0.0271347
0.0270286
0.0267652
0.026234
0.0257619
0.0249963
0.0242433
0.0230271
0.0218398
0.0202975
0.0189642
0.0172828
0.0161806
0.0144936
0.0136846
0.0111212
0.00878532
0.0119577
0.0152888
0.0160867
0.0151121
0.0131559
0.0114612
0.0102226
0.00940608
0.00885518
0.00850936
0.00830486
0.00821844
0.00821926
0.00829959
0.00845964
0.00870148
0.00902727
0.00944189
0.00994884
0.0105488
0.011238
0.0120077
0.0128458
0.0137379
0.0146679
0.0156197
0.0165788
0.0175303
0.0184594
0.0193552
0.0202092
0.0210146
0.0217666
0.0224626
0.0231015
0.0236823
0.0242049
0.0246703
0.0250809
0.0254396
0.0257518
0.0260209
0.0262517
0.0264504
0.0266241
0.0267794
0.0269228
0.0270603
0.0271969
0.027337
0.0274855
0.027645
0.027819
0.0279935
0.0281681
0.0283192
0.0284681
0.0285553
0.0285739
0.0284329
0.0281125
0.0275215
0.0269934
0.0261757
0.0253728
0.0240906
0.0228554
0.0212211
0.0198509
0.0180787
0.016952
0.0151851
0.01435
0.0116523
0.0085733
0.011097
0.0148766
0.0165349
0.0162408
0.0147027
0.0129366
0.0115352
0.0105612
0.00988682
0.00944721
0.00917326
0.00903387
0.0089988
0.00905232
0.00919501
0.00942713
0.00975073
0.0101707
0.0106905
0.0113109
0.0120277
0.0128323
0.0137119
0.0146515
0.015634
0.0166425
0.0176612
0.0186744
0.0196667
0.0206258
0.0215419
0.0224076
0.0232169
0.0239663
0.0246542
0.0252792
0.0258408
0.0263396
0.0267777
0.0271579
0.0274855
0.0277639
0.0279974
0.0281923
0.0283561
0.0284955
0.0286178
0.0287294
0.028836
0.0289421
0.0290531
0.0291727
0.0293057
0.029439
0.0295684
0.0296721
0.0297675
0.0298078
0.0297835
0.0295987
0.0292168
0.0285718
0.0279853
0.0271225
0.0262753
0.0249429
0.0236698
0.0219673
0.0205706
0.0187345
0.0175892
0.0157677
0.01491
0.0121147
0.00837724
0.0102993
0.0141526
0.0165464
0.0170554
0.0160422
0.0143859
0.0128813
0.0117655
0.0109667
0.0104271
0.0100764
0.00987743
0.00979877
0.00981943
0.00993805
0.0101542
0.0104687
0.0108867
0.0114118
0.0120448
0.0127816
0.0136132
0.0145268
0.0155066
0.016535
0.0175939
0.0186667
0.0197369
0.0207881
0.021807
0.0227825
0.0237061
0.0245709
0.0253724
0.0261082
0.0267767
0.0273767
0.0279084
0.0283736
0.0287748
0.029117
0.0294036
0.0296386
0.0298282
0.0299798
0.0301006
0.0301983
0.0302801
0.030352
0.0304188
0.0304862
0.030559
0.0306434
0.0307275
0.0308031
0.03085
0.0308833
0.0308685
0.0307948
0.0305554
0.0301106
0.0294133
0.0287668
0.0278634
0.026977
0.0256078
0.0243063
0.0225564
0.0211439
0.019267
0.0181105
0.0162552
0.0153799
0.0125118
0.00819423
0.00966382
0.013207
0.0162855
0.0175672
0.0171039
0.0157606
0.0142341
0.0130084
0.0120929
0.0114514
0.011019
0.0107553
0.0106257
0.0106081
0.0106964
0.0108904
0.0111892
0.0115982
0.0121214
0.0127595
0.0135088
0.01436
0.0153002
0.0163133
0.0173811
0.0184846
0.0196062
0.0207286
0.0218348
0.02291
0.0239421
0.0249213
0.0258398
0.0266921
0.0274749
0.0281861
0.0288239
0.0293881
0.0298799
0.0303016
0.0306577
0.0309516
0.0311871
0.03137
0.0315075
0.0316073
0.0316775
0.0317259
0.031759
0.0317818
0.0318
0.0318197
0.0318487
0.0318762
0.0318903
0.0318721
0.0318353
0.0317578
0.0316251
0.0313229
0.0308154
0.0300636
0.0293562
0.0284151
0.0274941
0.0260995
0.0247791
0.0230001
0.021583
0.0196858
0.018527
0.0166562
0.0157693
0.0128488
0.0080217
0.00914694
0.012194
0.0156832
0.0177195
0.0178866
0.0169859
0.0155577
0.0142713
0.0132576
0.0125183
0.0120022
0.01167
0.0114842
0.011423
0.0114754
0.0116413
0.0119184
0.0123116
0.0128257
0.0134617
0.014216
0.0150796
0.0160394
0.0170789
0.0181796
0.0193218
0.0204869
0.0216568
0.0228137
0.0239418
0.0250276
0.02606
0.0270302
0.0279317
0.0287604
0.0295134
0.0301885
0.0307846
0.0313025
0.0317441
0.0321136
0.032414
0.0326489
0.0328238
0.0329456
0.0330223
0.0330626
0.0330745
0.0330651
0.0330396
0.0330037
0.0329647
0.0329321
0.0328964
0.0328424
0.0327516
0.0326372
0.0324873
0.0322883
0.0319171
0.0313444
0.0305354
0.0297663
0.0287888
0.0278374
0.0264273
0.0250971
0.0233059
0.0218955
0.0199971
0.0188457
0.0169761
0.0160844
0.0131306
0.00785779
0.00872041
0.0112113
0.0148295
0.0175557
0.0184203
0.0179776
0.0168105
0.0155283
0.0144471
0.0136214
0.0130238
0.0126215
0.0123766
0.0122667
0.0122787
0.0124112
0.0126607
0.0130317
0.0135298
0.0141566
0.0149088
0.0157775
0.0167497
0.0178088
0.0189359
0.0201107
0.0213138
0.0225263
0.0237297
0.0249068
0.026043
0.027126
0.0281458
0.0290948
0.0299681
0.0307619
0.0314733
0.0321006
0.0326441
0.0331051
0.0334872
0.0337934
0.0340269
0.0341925
0.0342974
0.0343496
0.0343575
0.0343299
0.0342747
0.0341972
0.0341031
0.0340003
0.0339006
0.0337959
0.0336675
0.0334971
0.0332982
0.033068
0.0327942
0.0323502
0.0317076
0.0308365
0.0300021
0.0289876
0.0280087
0.0265925
0.0252629
0.0234765
0.0220857
0.0202045
0.0190708
0.0172186
0.0163292
0.0133609
0.00770105
0.00836356
0.0103077
0.0138314
0.0170881
0.0186532
0.0187235
0.0179336
0.0167472
0.0156419
0.0147499
0.0140785
0.0136074
0.0133024
0.0131406
0.0131085
0.0132028
0.0134195
0.0137624
0.0142378
0.0148484
0.0155914
0.016458
0.0174355
0.0185073
0.0196542
0.0208555
0.0220909
0.0233409
0.024586
0.0258081
0.0269913
0.0281218
0.0291887
0.0301832
0.0310995
0.0319329
0.0326796
0.0333374
0.0339056
0.0343853
0.0347794
0.0350906
0.0353218
0.0354772
0.0355645
0.0355907
0.0355639
0.0354943
0.0353905
0.0352579
0.0351017
0.0349307
0.034759
0.0345802
0.0343723
0.0341163
0.0338266
0.0335085
0.0331517
0.032629
0.0319079
0.0309719
0.0300771
0.0290283
0.0280257
0.0266095
0.0252872
0.0235181
0.0221571
0.0203094
0.019205
0.0173861
0.0165067
0.0135426
0.00755037
0.00806049
0.00954218
0.012739
0.0163157
0.0185613
0.0192495
0.0188514
0.0178914
0.0168172
0.0158883
0.015157
0.0146229
0.0142589
0.0140442
0.0139653
0.0140179
0.0141972
0.0145067
0.0149532
0.015541
0.0162676
0.017125
0.0181007
0.0191782
0.0203381
0.0215595
0.0228213
0.0241033
0.0253851
0.0266479
0.0278741
0.0290489
0.0301601
0.0311979
0.0321553
0.0330267
0.0338076
0.0344948
0.035087
0.0355846
0.03599
0.0363055
0.0365335
0.0366781
0.0367471
0.0367459
0.0366827
0.036569
0.0364143
0.0362238
0.0360024
0.0357594
0.0355114
0.0352539
0.0349619
0.0346154
0.0342291
0.0338164
0.0333656
0.0327569
0.031961
0.0309615
0.0300013
0.0289148
0.0278885
0.0264782
0.0251711
0.0234331
0.0221132
0.0203151
0.0192499
0.01748
0.0166185
0.0136778
0.00740489
0.0077988
0.00892253
0.011627
0.0153339
0.0181913
0.0195049
0.0195458
0.0189128
0.0179432
0.0170167
0.0162466
0.0156597
0.0152411
0.0149747
0.014848
0.0148566
0.0149951
0.0152665
0.0156786
0.0162371
0.0169406
0.0177818
0.0187485
0.0198246
0.0209907
0.0222256
0.0235077
0.0248159
0.0261293
0.0274279
0.0286931
0.0299085
0.0310608
0.0321393
0.0331356
0.0340433
0.0348569
0.0355723
0.0361876
0.0367023
0.0371182
0.0374373
0.0376614
0.0377947
0.0378449
0.0378152
0.0377142
0.0375547
0.037347
0.0370965
0.0368073
0.036489
0.036161
0.0358211
0.0354411
0.0349997
0.034512
0.0339949
0.0334459
0.0327538
0.031874
0.0308045
0.0297772
0.0286509
0.0276011
0.0262015
0.0249166
0.0232224
0.0219546
0.020222
0.0192067
0.0175014
0.0166659
0.0137679
0.0072639
0.00756896
0.0084172
0.0105802
0.0142128
0.0174943
0.0194506
0.0200343
0.0197446
0.0189866
0.0181108
0.0173306
0.0167068
0.0162418
0.0159274
0.0157539
0.0157178
0.0158134
0.0160429
0.0164157
0.0169393
0.0176133
0.0184313
0.0193819
0.0204495
0.0216149
0.0228566
0.0241526
0.025481
0.0268204
0.0281498
0.0294493
0.0307013
0.0318914
0.0330076
0.0340405
0.0349824
0.0358271
0.0365695
0.0372067
0.0377376
0.0381633
0.0384852
0.0387048
0.0388265
0.0388572
0.0387986
0.0386585
0.0384519
0.0381898
0.0378775
0.0375183
0.037122
0.036711
0.0362855
0.0358144
0.0352745
0.0346781
0.034055
0.0334052
0.0326187
0.0316503
0.0305077
0.0294114
0.0282426
0.0271685
0.0257829
0.0245267
0.022888
0.021683
0.0200309
0.0190762
0.0174513
0.0166501
0.013814
0.00712674
0.00736377
0.00800145
0.00965219
0.0130154
0.0165563
0.0191317
0.0202693
0.0203723
0.0199022
0.0191424
0.0183887
0.0177497
0.0172508
0.0168952
0.0166783
0.0165981
0.0166511
0.016836
0.0171656
0.0176492
0.0182879
0.019076
0.0200036
0.0210556
0.0222132
0.0234548
0.0247581
0.0261006
0.0274601
0.0288149
0.030144
0.0314284
0.0326525
0.0338032
0.0348698
0.0358438
0.0367177
0.0374856
0.0381435
0.0386897
0.0391243
0.0394484
0.039663
0.0397727
0.0397838
0.039696
0.0395158
0.0392613
0.0389434
0.038568
0.0381374
0.037661
0.0371644
0.0366508
0.036086
0.0354425
0.0347364
0.0340058
0.0332454
0.0323586
0.031297
0.0300782
0.0289108
0.0276962
0.0265958
0.0252265
0.0240044
0.0224322
0.0212999
0.019743
0.0188586
0.0173298
0.0165721
0.0138169
0.00699279
0.00717767
0.00765545
0.00890126
0.0117816
0.0154315
0.0184833
0.020216
0.020798
0.020636
0.0200804
0.0193967
0.0187708
0.0182551
0.0178689
0.0176147
0.0174931
0.0175052
0.0176447
0.0179283
0.0183678
0.0189659
0.019718
0.0206159
0.0216454
0.0227881
0.0240228
0.0253267
0.0266768
0.0280504
0.029425
0.0307784
0.0320906
0.0333447
0.0345263
0.0356238
0.0366273
0.0375284
0.0383202
0.0389976
0.0395579
0.0400007
0.0403264
0.0405355
0.0406327
0.0406246
0.0405074
0.0402865
0.0399833
0.039609
0.0391696
0.0386665
0.0381085
0.0375243
0.0369206
0.036259
0.0355096
0.0346955
0.03385
0.0329736
0.0319805
0.030821
0.029523
0.0282824
0.0270182
0.0258884
0.0245366
0.0233531
0.0218576
0.0208073
0.0193596
0.0185549
0.0171377
0.0164313
0.0137785
0.00686175
0.00700632
0.00736328
0.00829287
0.010611
0.0141815
0.0175748
0.0199022
0.020976
0.021181
0.0208789
0.0203275
0.0197489
0.0192388
0.0188362
0.0185539
0.0183964
0.0183702
0.0184666
0.0187024
0.0190951
0.0196483
0.0203589
0.0212207
0.0222209
0.0233419
0.0245627
0.0258604
0.0272115
0.028593
0.0299815
0.0313539
0.0326891
0.0339688
0.0351777
0.0363028
0.0373331
0.0382592
0.039073
0.0397686
0.040342
0.0407921
0.0411186
0.0413219
0.0414064
0.0413798
0.0412326
0.0409712
0.0406191
0.0401877
0.0396839
0.0391077
0.038467
0.0377938
0.037098
0.0363362
0.0354853
0.0345572
0.0335937
0.0325966
0.0314917
0.0302297
0.0288495
0.0275337
0.0262157
0.0250523
0.023718
0.0225769
0.0211674
0.0202075
0.0188824
0.0181659
0.0168759
0.0162291
0.0136972
0.00673336
0.00684646
0.00711249
0.00779854
0.0095632
0.0128735
0.0164541
0.0192645
0.0208868
0.0215212
0.0214977
0.0211519
0.0206602
0.020183
0.0197827
0.0194846
0.0192994
0.0192392
0.0192976
0.0194852
0.0198297
0.0203351
0.0209996
0.0218195
0.0227841
0.0238765
0.0250765
0.0263612
0.0277069
0.0290898
0.0304862
0.0318721
0.0332251
0.0345259
0.0357581
0.0369073
0.0379616
0.0389103
0.0397442
0.0404564
0.0410418
0.0414984
0.0418251
0.0420221
0.0420938
0.0420494
0.0418721
0.0415705
0.0411694
0.040681
0.0401126
0.0394632
0.0387394
0.0379762
0.037184
0.0363283
0.0353703
0.0343268
0.0332431
0.0321214
0.0308994
0.0295304
0.0280653
0.0266722
0.0252961
0.0240941
0.0227765
0.0216803
0.0203659
0.0195037
0.0183136
0.0176928
0.0165453
0.0159665
0.0135737
0.00660738
0.00669569
0.0068934
0.00739437
0.00870177
0.0115498
0.0151709
0.0183603
0.0205323
0.0216103
0.0219394
0.0218212
0.0214778
0.0210661
0.0206909
0.020393
0.0201914
0.0201039
0.0201307
0.0202728
0.0205691
0.021025
0.0216402
0.0224133
0.0233362
0.0243937
0.0255662
0.0268312
0.0281647
0.0295427
0.0309409
0.0323345
0.0337001
0.0350173
0.0362684
0.0374382
0.0385133
0.039482
0.0403341
0.0410613
0.0416575
0.0421196
0.042446
0.0426363
0.0426952
0.042634
0.0424267
0.0420855
0.0416357
0.0410904
0.0404578
0.0397354
0.0389283
0.0380717
0.0371896
0.0362352
0.0351693
0.0340097
0.0328042
0.0315547
0.030211
0.0287307
0.0271782
0.0257058
0.0242673
0.0230209
0.0217184
0.020669
0.0194578
0.0186996
0.0176559
0.0171373
0.0161475
0.0156445
0.0134092
0.00648361
0.00655234
0.00669868
0.00706058
0.00801623
0.0102952
0.0137858
0.0172274
0.0198641
0.0214531
0.0221648
0.022321
0.0221669
0.0218638
0.0215409
0.021263
0.0210589
0.0209542
0.0209567
0.0210593
0.0213091
0.0217158
0.0222793
0.0230019
0.023878
0.0248946
0.0260333
0.0272721
0.0285868
0.0299534
0.0313473
0.0327428
0.0341155
0.0354442
0.03671
0.0378965
0.0389891
0.0399752
0.0408432
0.0415838
0.0421896
0.0426564
0.0429817
0.0431649
0.0432113
0.043134
0.0428973
0.0425171
0.0420192
0.0414175
0.0407212
0.0399265
0.0390343
0.0380892
0.0371144
0.036061
0.0348867
0.0336108
0.0322827
0.0309031
0.0294337
0.0278385
0.026196
0.0246426
0.0231375
0.0218406
0.0205509
0.0195497
0.0184493
0.0178002
0.016913
0.016502
0.0156844
0.0152648
0.0132043
0.00636189
0.006415
0.0065226
0.00678113
0.00746957
0.00918136
0.0123682
0.0159107
0.0189304
0.0210163
0.0221423
0.0226308
0.0226963
0.0225492
0.0223106
0.0220757
0.0218865
0.0217776
0.0217646
0.0218365
0.0220439
0.0224032
0.0229148
0.0235844
0.0244096
0.02538
0.026479
0.0276852
0.0289749
0.0303238
0.031707
0.0330986
0.034473
0.0358082
0.0370842
0.0382834
0.0393902
0.0403907
0.0412724
0.0420246
0.0426387
0.0431093
0.0434329
0.0436086
0.0436429
0.0435503
0.0432847
0.0428666
0.0423215
0.0416642
0.0409051
0.0400374
0.0390638
0.03803
0.0369619
0.0358095
0.0345269
0.0331352
0.0316843
0.030173
0.0285747
0.0268613
0.0251269
0.0234908
0.0219154
0.020562
0.0192823
0.0183303
0.0173479
0.0168116
0.0160892
0.0157903
0.0151583
0.0148294
0.0129603
0.00624203
0.00628237
0.00636083
0.00654327
0.0070314
0.00827427
0.0109665
0.0144644
0.0177601
0.020281
0.0218843
0.0227127
0.0230541
0.0230871
0.0229757
0.0228105
0.0226564
0.0225593
0.0225413
0.0225937
0.022766
0.0230817
0.0235426
0.0241585
0.02493
0.0258498
0.0269037
0.0280717
0.0293302
0.0306552
0.0320218
0.0334035
0.0347743
0.0361108
0.0373924
0.0386003
0.0397177
0.0407298
0.0416227
0.0423847
0.0430058
0.0434792
0.0438005
0.0439682
0.043991
0.0438837
0.0435902
0.0431355
0.0425442
0.0418322
0.0410099
0.0400726
0.0390194
0.0378963
0.0367355
0.0354847
0.0340941
0.0325874
0.0310143
0.0293706
0.027641
0.0258073
0.0239792
0.0222589
0.0206103
0.0191946
0.0179223
0.0170205
0.0161628
0.0157413
0.0151903
0.0150082
0.0145707
0.0143417
0.0126794
0.00612391
0.00615357
0.00620991
0.00633692
0.00667707
0.00756378
0.00966658
0.0129545
0.016393
0.0192826
0.0213284
0.0225642
0.0232029
0.0234653
0.0235043
0.0234446
0.0233487
0.0232821
0.0232724
0.0233182
0.0234656
0.0237433
0.0241573
0.0247203
0.025437
0.0263032
0.0273075
0.0284319
0.0296537
0.0309489
0.032293
0.0336592
0.0350208
0.0363537
0.0376363
0.0388486
0.0399731
0.0409936
0.0418953
0.0426651
0.0432919
0.0437672
0.0440856
0.0442449
0.0442567
0.0441354
0.0438151
0.043325
0.0426885
0.0419216
0.04104
0.0400353
0.0389024
0.0376913
0.0364387
0.0350902
0.0335922
0.0319719
0.0302776
0.0285016
0.0266393
0.0246842
0.0227612
0.0209554
0.0192315
0.0177493
0.0164823
0.0156321
0.0149053
0.0145991
0.0142238
0.0141644
0.0139221
0.0138067
0.0123639
0.00600739
0.00602806
0.0060672
0.0061541
0.00638669
0.00700704
0.00853853
0.011457
0.0148828
0.0180457
0.0204929
0.022152
0.0231263
0.0236493
0.02388
0.0239505
0.0239418
0.0239271
0.0239411
0.0239954
0.0241303
0.0243783
0.0247511
0.0252645
0.0259268
0.0267379
0.0276892
0.0287657
0.0299456
0.0312057
0.0325217
0.0338668
0.0352139
0.0365382
0.0378171
0.0390299
0.0401577
0.0411835
0.0420915
0.0428672
0.0434983
0.0439746
0.0442892
0.0444397
0.0444414
0.0443064
0.0439602
0.0434355
0.042755
0.0419376
0.0409978
0.0399262
0.0387154
0.0374177
0.0360746
0.0346294
0.0330249
0.0312927
0.0294789
0.0275714
0.0255762
0.0234998
0.0214813
0.0195889
0.0177894
0.0162382
0.0149754
0.0141798
0.0135896
0.0133967
0.0131993
0.0132699
0.0132126
0.0132345
0.0120104
0.00589236
0.00590547
0.00593075
0.00598871
0.00614442
0.00656901
0.00764843
0.0100205
0.0132924
0.0166079
0.0193974
0.0214527
0.0228115
0.0236166
0.0240727
0.0243071
0.024413
0.024472
0.0245308
0.0246086
0.0247451
0.0249745
0.0253145
0.0257837
0.0263943
0.0271503
0.0280469
0.0290718
0.0302058
0.0314258
0.0327085
0.0340273
0.0353549
0.0366656
0.0379364
0.0391454
0.0402729
0.0413009
0.0422124
0.0429921
0.043626
0.0441022
0.0444124
0.0445532
0.0445456
0.0443967
0.0440262
0.0434699
0.0427485
0.0418808
0.040884
0.0397474
0.0384606
0.0370783
0.0356462
0.0341055
0.0323956
0.0305538
0.0286224
0.0265852
0.0244579
0.0222619
0.0201481
0.0181685
0.0162946
0.0146755
0.0134182
0.012682
0.0122331
0.0121494
0.0121223
0.0123352
0.0124504
0.0126425
0.0115991
0.00577873
0.00578555
0.0057993
0.00583602
0.00593764
0.00622119
0.00696561
0.00873957
0.0116965
0.0150216
0.0180656
0.0204856
0.0222141
0.0233614
0.0240586
0.0244887
0.0247382
0.0248962
0.0250208
0.0251398
0.0252935
0.0255178
0.0258356
0.0262684
0.0268322
0.0275353
0.028377
0.0293482
0.0304329
0.0316089
0.0328536
0.0341413
0.0354445
0.0367371
0.0379953
0.0391965
0.04032
0.0413471
0.0422596
0.043041
0.0436762
0.0441515
0.0444565
0.0445874
0.0445715
0.0444097
0.0440167
0.0434301
0.0426687
0.0417525
0.0407004
0.0395009
0.0381403
0.0366755
0.0351562
0.0335214
0.0317077
0.0297586
0.0277123
0.0255478
0.0232904
0.0209779
0.0187703
0.0167033
0.0147591
0.0130777
0.0118307
0.0111622
0.0108579
0.0108768
0.0109914
0.01138
0.011652
0.0120316
0.011149
0.00566634
0.00566795
0.00567212
0.0056927
0.00575662
0.00594069
0.00644144
0.00767462
0.0101743
0.0133532
0.0165362
0.0192635
0.0213484
0.022835
0.0238317
0.0244721
0.0248932
0.0251765
0.0253896
0.0255693
0.0257575
0.0259922
0.0263006
0.0267071
0.0272313
0.0278859
0.0286743
0.0295915
0.0306245
0.0317535
0.0329564
0.0342087
0.0354831
0.0367532
0.0379946
0.0391842
0.0403002
0.0413232
0.042234
0.0430153
0.0436506
0.0441241
0.0444234
0.044544
0.0445201
0.0443459
0.0439316
0.0433163
0.0425169
0.041554
0.0404487
0.0391884
0.0377564
0.0362116
0.034607
0.0328796
0.0309638
0.0289105
0.026752
0.0244636
0.0220795
0.0196554
0.0173564
0.0152034
0.0131961
0.0114651
0.0102388
0.0096509
0.00948925
0.00959109
0.00984198
0.010418
0.0108289
0.0114071
0.0106724
0.00555592
0.00555171
0.0055471
0.0055569
0.00559477
0.00570991
0.00603687
0.00687318
0.00877932
0.0116766
0.0148629
0.0178127
0.0202202
0.0220424
0.0233452
0.0242482
0.0248572
0.02529
0.0256152
0.0258762
0.0261177
0.0263798
0.0266936
0.0270861
0.0275804
0.028193
0.0289321
0.0297966
0.0307769
0.0318572
0.0330154
0.0342286
0.0354705
0.0367143
0.0379352
0.0391093
0.0402143
0.0412302
0.0421369
0.0429159
0.0435498
0.0440208
0.0443137
0.0444235
0.0443921
0.0442062
0.0437719
0.0431298
0.0422943
0.0412868
0.0401304
0.0388114
0.0373105
0.0356885
0.0340009
0.0321826
0.0301668
0.0280124
0.025745
0.0233367
0.0208306
0.0183016
0.0159153
0.0136795
0.0116213
0.00986292
0.00867643
0.00818763
0.00815083
0.00833173
0.00871143
0.00946298
0.00999545
0.0107762
0.0101789
0.00544657
0.00543877
0.00542317
0.00542599
0.00544642
0.00551497
0.00572094
0.00627202
0.00760126
0.0100779
0.0131151
0.016175
0.018846
0.0209856
0.0225972
0.0237732
0.0246158
0.025218
0.0256751
0.0260389
0.0263535
0.0266613
0.0269969
0.0273899
0.0278659
0.0284458
0.0291416
0.0299569
0.0308857
0.0319161
0.0330283
0.0341998
0.0354059
0.0366196
0.0378164
0.0389717
0.0400628
0.0410687
0.0419688
0.0427436
0.0433748
0.0438425
0.0441283
0.0442271
0.0441884
0.0439914
0.0435386
0.0428716
0.042002
0.040952
0.0397467
0.0383713
0.0368043
0.035108
0.0333398
0.0314323
0.029319
0.0270669
0.0246944
0.0221711
0.0195491
0.0169235
0.0144559
0.0121442
0.010054
0.0083037
0.00718887
0.00682405
0.00687264
0.00715258
0.00764507
0.0085348
0.00916973
0.0101491
0.00967783
0.00533823
0.00532829
0.00530257
0.00529685
0.00530691
0.00534543
0.00546954
0.00582032
0.00670116
0.00861787
0.0113713
0.0144084
0.0172571
0.019674
0.0215866
0.0230436
0.0241296
0.0249397
0.0255538
0.0260359
0.026444
0.0268166
0.0271917
0.0276009
0.0280726
0.0286309
0.0292919
0.0300636
0.0309441
0.0319251
0.0329912
0.0341193
0.0352871
0.0364682
0.0376378
0.0387715
0.0398456
0.0408391
0.0417301
0.0424989
0.0431262
0.0435898
0.043868
0.0439555
0.0439098
0.0437023
0.0432323
0.0425423
0.0416408
0.0405507
0.0392986
0.0378691
0.0362388
0.0344715
0.0326251
0.0306306
0.0284225
0.0260767
0.0236031
0.0209705
0.0182403
0.0155282
0.0129872
0.0106126
0.00851918
0.00683068
0.00583812
0.00561185
0.00572261
0.00611543
0.00668483
0.00767022
0.00837583
0.00953821
0.00917873
0.00523081
0.00521931
0.00518693
0.00516921
0.00517274
0.00519258
0.00526342
0.00547767
0.00604286
0.00737921
0.00971962
0.0125871
0.0155012
0.0181307
0.0203184
0.0220546
0.0233961
0.0244243
0.0252233
0.025854
0.0263708
0.0268248
0.0272578
0.0277005
0.0281833
0.0287334
0.0293702
0.0301063
0.0309437
0.0318784
0.0328983
0.0339833
0.0351113
0.0362578
0.0373981
0.0385075
0.0395624
0.040541
0.0414211
0.042182
0.0428041
0.0432631
0.0435333
0.0436093
0.0435569
0.0433395
0.0428537
0.0421426
0.0412115
0.0400835
0.0387871
0.0373057
0.035615
0.0337802
0.0318584
0.0297788
0.0274793
0.025044
0.0224738
0.0197385
0.0169093
0.0141226
0.0115192
0.00910402
0.00705132
0.00550218
0.00470542
0.00461452
0.00478989
0.00529625
0.00588921
0.00691366
0.00764586
0.00895873
0.00869241
0.00512426
0.00511166
0.00507583
0.00504489
0.00504118
0.00505005
0.00508785
0.00521238
0.00556133
0.00642333
0.00823486
0.0107961
0.0136433
0.0163945
0.0188091
0.0208077
0.0224067
0.0236662
0.0246624
0.0254592
0.0261124
0.0266705
0.0271773
0.0276697
0.0281796
0.0287365
0.0293619
0.0300727
0.0308746
0.0317674
0.0327434
0.0337864
0.0348747
0.0359855
0.0370949
0.0381783
0.0392119
0.0401737
0.041041
0.0417926
0.0424085
0.0428626
0.0431244
0.0431888
0.0431299
0.0429031
0.042403
0.0416728
0.0407143
0.0395509
0.0382126
0.0366817
0.0349337
0.0330351
0.0310406
0.0288783
0.0264911
0.0239708
0.0213092
0.0184786
0.0155615
0.012714
0.010063
0.00764407
0.00569985
0.00439324
0.00389054
0.00393822
0.00423835
0.00479102
0.00532762
0.00631463
0.00702187
0.00842725
0.00823078
0.00501851
0.00500518
0.00496828
0.00492603
0.00491111
0.00491364
0.00493182
0.00499983
0.00520557
0.00574133
0.00698411
0.00912558
0.0117643
0.0145218
0.0170906
0.0193157
0.0211611
0.022656
0.0238619
0.0248391
0.0256435
0.0263248
0.026928
0.02749
0.0280446
0.0286238
0.0292516
0.0299483
0.0307236
0.0315818
0.0325184
0.0335217
0.0345718
0.035647
0.0367249
0.0377813
0.0387921
0.0397358
0.0405889
0.0413299
0.0419388
0.0423877
0.042641
0.042694
0.0426288
0.0423934
0.0418803
0.0411329
0.0401494
0.0389532
0.0375756
0.0359975
0.0341953
0.0322369
0.0301726
0.02793
0.0254595
0.0228593
0.020112
0.0171946
0.0142025
0.0113101
0.00863326
0.00626913
0.00453484
0.00361965
0.00347134
0.00366382
0.00412096
0.00463307
0.00506528
0.00592136
0.00655764
0.00795934
0.00780675
0.0049135
0.00489973
0.00486322
0.00481291
0.00478498
0.00477996
0.00478739
0.00482169
0.00493638
0.00525514
0.0060319
0.00765459
0.00995582
0.012587
0.0152119
0.017605
0.0196691
0.0213922
0.0228128
0.0239818
0.0249521
0.0257721
0.0264876
0.0271365
0.0277541
0.0283732
0.0290193
0.0297162
0.0304768
0.0313096
0.0322136
0.0331812
0.0341958
0.0352369
0.0362837
0.0373128
0.0383004
0.0392251
0.040063
0.0407924
0.0413938
0.0418375
0.0420825
0.0421244
0.0420533
0.0418097
0.0412853
0.0405227
0.0395165
0.0382904
0.036876
0.035253
0.0334
0.031386
0.0292548
0.0269348
0.024386
0.0217114
0.0188848
0.0158902
0.012838
0.00991924
0.00725055
0.00503202
0.00365462
0.00323935
0.00332516
0.00378193
0.00437546
0.00481569
0.00512918
0.00577041
0.00629388
0.00758239
0.00743647
0.00480918
0.0047952
0.00475977
0.0047048
0.00466509
0.00464839
0.00464968
0.00466472
0.00472413
0.00490409
0.00536888
0.00644369
0.00831106
0.0106801
0.013241
0.015719
0.0179538
0.019883
0.0215132
0.0228788
0.0240252
0.0249977
0.025841
0.0265935
0.0272907
0.0279665
0.0286475
0.0293598
0.0301189
0.0309372
0.0318171
0.0327553
0.0337384
0.0347483
0.0357658
0.0367684
0.0377329
0.0386384
0.0394608
0.0401782
0.0407717
0.0412107
0.0414477
0.0414792
0.0414024
0.0411515
0.0406174
0.0398417
0.0388153
0.0375621
0.0361137
0.0344483
0.0325479
0.0304826
0.0282878
0.0258934
0.0232723
0.0205291
0.0176306
0.0145696
0.0114746
0.00855222
0.00594746
0.00401048
0.00316224
0.00311526
0.00342077
0.00423475
0.00488327
0.00525235
0.00546332
0.00586668
0.00625343
0.00732704
0.00714004
0.00470548
0.00469147
0.0046573
0.00460057
0.00455174
0.00452219
0.00451468
0.00451988
0.00454771
0.00464287
0.00490715
0.00555099
0.00690603
0.00889849
0.0112639
0.0137204
0.0160546
0.0181495
0.0199708
0.0215286
0.0228554
0.0239896
0.0249737
0.0258439
0.0266366
0.0273856
0.0281177
0.0288611
0.029633
0.0304495
0.0313157
0.0322324
0.03319
0.0341728
0.0351642
0.0361423
0.0370848
0.0379718
0.038779
0.0394845
0.0400702
0.0405052
0.040735
0.040757
0.0406751
0.0404177
0.0398757
0.039089
0.038045
0.0367678
0.0352882
0.0335829
0.0316389
0.0295271
0.0272717
0.0248065
0.0221197
0.0193148
0.0163524
0.0132375
0.0101194
0.00722457
0.00477686
0.00329752
0.00295243
0.00310674
0.0038537
0.00484793
0.0055135
0.00583198
0.00599166
0.00618394
0.00641802
0.00721976
0.00693951
0.00460237
0.00458846
0.00455546
0.00449902
0.00444414
0.00440326
0.00438311
0.00438186
0.00439239
0.00443822
0.00457948
0.00494614
0.00579374
0.00733643
0.0093804
0.0116911
0.0140299
0.0162284
0.0182056
0.019939
0.021442
0.0227413
0.0238747
0.0248744
0.025776
0.026613
0.0274122
0.0282023
0.0290021
0.0298303
0.0306948
0.0315998
0.0325395
0.0335011
0.0344706
0.0354275
0.0363503
0.0372204
0.0380135
0.0387077
0.0392862
0.0397182