/*--------------------------------*- C++ -*----------------------------------*\
| =========                 |                                                 |
| \\      /  F ield         | OpenFOAM: The Open Source CFD Toolbox           |
|  \\    /   O peration     | Version:  2.4.0                                 |
|   \\  /    A nd           | Web:      www.OpenFOAM.org                      |
|    \\/     M anipulation  |                                                 |
\*---------------------------------------------------------------------------*/
FoamFile
{
    version     2.0;
    format      ascii;
    class       volVectorField;
    location    "0.1";
    object      U;
}
// * * * * * * * * * * * * * * * * * * * * * * * * * * * * * * * * * * * * * //

dimensions      [0 1 -1 0 0 0 0];

internalField   nonuniform List<vector> 
5625
(
(0.273441 -0.0163433 6.66006e-18)
(0.0768839 -0.0145507 -7.46301e-18)
(0.0406562 -0.0104562 0)
(0.0394716 -0.0104181 0)
(0.0453327 -0.0113066 0)
(0.0524147 -0.0121238 0)
(0.0579073 -0.0125566 1.3034e-17)
(0.0617386 -0.0126902 6.7567e-18)
(0.0645242 -0.0126615 6.93518e-18)
(0.0666808 -0.012524 0)
(0.0684387 -0.0123129 7.164e-18)
(0.0699254 -0.0120485 -7.23105e-18)
(0.0712126 -0.0117433 -7.27464e-18)
(0.0723451 -0.0114057 0)
(0.0733536 -0.0110418 0)
(0.0742604 -0.010656 0)
(0.0750824 -0.0102516 0)
(0.0758325 -0.00983132 0)
(0.0765211 -0.00939708 7.26931e-18)
(0.0771562 -0.00895043 7.24382e-18)
(0.0777444 -0.00849261 -3.60771e-18)
(0.0782913 -0.00802487 0)
(0.0788015 -0.00754904 -3.57636e-18)
(0.0792788 -0.00706813 -3.55989e-18)
(0.079726 -0.00658366 0)
(0.0801457 -0.00609546 -3.52667e-18)
(0.0805403 -0.00560345 0)
(0.0809117 -0.00510769 0)
(0.0812616 -0.00460827 0)
(0.0815915 -0.00410535 1.73171e-18)
(0.0819028 -0.00359912 0)
(0.0821968 -0.00308979 0)
(0.0824746 -0.00257755 0)
(0.0827374 -0.00206259 1.7048e-18)
(0.0829861 -0.00154511 -1.69898e-18)
(0.0832218 -0.00102539 0)
(0.0834452 -0.00050383 2.11057e-19)
(0.0836576 1.90403e-05 0)
(0.0838609 0.000543274 -2.09922e-19)
(0.0840582 0.00106816 -4.18823e-19)
(0.0842481 0.00159897 1.6716e-18)
(0.0844302 0.00213007 -1.66817e-18)
(0.0846081 0.00266251 0)
(0.0847832 0.00319644 0)
(0.084957 0.00373193 0)
(0.0851314 0.00426908 -1.65658e-18)
(0.0853082 0.00480804 3.30829e-18)
(0.0854897 0.00534899 0)
(0.0856782 0.00589219 -6.59542e-18)
(0.0858764 0.00643796 3.29228e-18)
(0.0860871 0.00698671 3.28566e-18)
(0.0863136 0.00753894 3.27863e-18)
(0.0865598 0.00809528 3.27051e-18)
(0.0868296 0.00865646 0)
(0.0871283 0.00922331 3.24952e-18)
(0.0874612 0.00979248 -6.47155e-18)
(0.0878342 0.0103669 -6.44e-18)
(0.0882533 0.0109487 0)
(0.0887312 0.0115395 1.9992e-21)
(0.0892651 0.0121419 6.29228e-18)
(0.0899006 0.0127565 0)
(0.0905621 0.0133894 -6.13118e-18)
(0.091482 0.0140383 0)
(0.0921898 0.0147144 0)
(0.0937379 0.0154212 5.75697e-18)
(0.0941574 0.016139 0)
(0.0970667 0.0169816 -5.35994e-18)
(0.0965826 0.0176682 5.05563e-18)
(0.101924 0.0188821 0)
(0.0997691 0.0192957 4.33297e-18)
(0.109239 0.0213865 -3.95469e-18)
(0.104303 0.0211346 0)
(0.119456 0.0245846 0)
(0.114619 0.0241418 0)
(0.137357 0.0289654 1.71943e-18)
(0.560053 -0.0363722 0)
(0.24691 -0.0390338 0)
(0.150566 -0.0321449 0)
(0.144472 -0.03326 6.37764e-18)
(0.157913 -0.0360641 -7.04517e-18)
(0.174155 -0.0379636 -7.5249e-18)
(0.186658 -0.0386731 -8.20423e-21)
(0.195147 -0.038603 -6.23268e-21)
(0.201029 -0.0381207 -8.21389e-18)
(0.205326 -0.0373834 8.30019e-18)
(0.208612 -0.0364773 0)
(0.211213 -0.0354518 8.37638e-18)
(0.213318 -0.0343379 1.67577e-17)
(0.215046 -0.0331567 0)
(0.216479 -0.0319238 0)
(0.217675 -0.0306505 8.29674e-18)
(0.218681 -0.0293456 0)
(0.219531 -0.0280155 0)
(0.220252 -0.0266655 0)
(0.220868 -0.0252995 -1.21441e-17)
(0.221397 -0.0239204 8.04031e-18)
(0.221855 -0.0225311 -3.99214e-18)
(0.222253 -0.0211344 2.58885e-22)
(0.222603 -0.0197345 3.93769e-18)
(0.222916 -0.0183336 0)
(0.223198 -0.0169321 0)
(0.223457 -0.01553 0)
(0.223699 -0.0141277 0)
(0.223929 -0.0127252 0)
(0.224154 -0.0113226 -1.89748e-18)
(0.224376 -0.00991978 1.88753e-18)
(0.2246 -0.00851653 0)
(0.22483 -0.00711267 -1.86983e-18)
(0.225069 -0.00570794 -1.86204e-18)
(0.22532 -0.004302 9.27464e-19)
(0.225585 -0.00289418 -4.62054e-19)
(0.225867 -0.00148351 -2.30289e-19)
(0.226168 -6.98626e-05 0)
(0.226493 0.0013482 2.29048e-19)
(0.226849 0.00277185 9.14222e-19)
(0.227232 0.00419534 -9.12541e-19)
(0.227641 0.00562283 1.82203e-18)
(0.228082 0.00705655 1.81948e-18)
(0.228559 0.00849693 0)
(0.229073 0.00994469 -1.81606e-18)
(0.229628 0.0114007 1.81533e-18)
(0.230227 0.0128658 0)
(0.230873 0.0143413 -3.62753e-18)
(0.23157 0.0158281 7.25494e-18)
(0.232323 0.0173277 0)
(0.233136 0.0188415 -3.62758e-18)
(0.234016 0.0203711 -3.62724e-18)
(0.234969 0.0219185 -1.26591e-21)
(0.236004 0.0234858 0)
(0.237128 0.0250753 -3.62197e-18)
(0.238355 0.0266858 1.08507e-17)
(0.239696 0.0283224 0)
(0.241166 0.0299899 -7.19793e-18)
(0.242789 0.0316922 4.34891e-21)
(0.244566 0.0334365 7.13357e-18)
(0.246589 0.0352251 0)
(0.24871 0.0370739 5.90313e-21)
(0.25142 0.0389798 0)
(0.253713 0.0409662 0)
(0.257937 0.0430658 0)
(0.259548 0.0451707 6.51944e-18)
(0.26727 0.0477286 6.35112e-18)
(0.266267 0.0496865 0)
(0.280946 0.0533231 5.7668e-18)
(0.274334 0.0544578 0)
(0.301421 0.0606902 9.73338e-18)
(0.285575 0.0598869 0)
(0.329092 0.0697828 -3.41631e-18)
(0.312624 0.0685353 0)
(0.372432 0.0816508 -2.20326e-18)
(0.732969 -0.0368666 0)
(0.409183 -0.0540044 0)
(0.274534 -0.0530815 0)
(0.259622 -0.0577111 -1.36146e-20)
(0.274933 -0.0620432 7.04722e-18)
(0.295014 -0.0639336 1.50439e-17)
(0.3104 -0.0638942 -7.20888e-21)
(0.320281 -0.0628249 -8.06686e-18)
(0.326414 -0.0612657 -8.20549e-18)
(0.330229 -0.0594382 -8.30102e-18)
(0.332583 -0.057444 0)
(0.333971 -0.0553403 -8.37689e-18)
(0.334688 -0.053164 -8.37819e-18)
(0.334919 -0.0509411 0)
(0.334789 -0.0486909 -8.33251e-18)
(0.334392 -0.0464273 -1.81019e-21)
(0.333797 -0.0441607 0)
(0.333057 -0.0418987 -8.20133e-18)
(0.332215 -0.0396469 0)
(0.331306 -0.0374095 8.09483e-18)
(0.330359 -0.0351891 -6.54337e-22)
(0.329396 -0.0329878 6.28246e-22)
(0.328437 -0.0308068 3.96446e-18)
(0.327498 -0.0286467 0)
(0.326594 -0.0265077 0)
(0.325736 -0.0243896 0)
(0.324933 -0.0222919 0)
(0.324195 -0.0202138 0)
(0.323528 -0.0181542 1.90748e-18)
(0.322939 -0.0161119 0)
(0.322434 -0.0140851 -1.88749e-18)
(0.322017 -0.0120721 1.87801e-18)
(0.321693 -0.0100709 3.17984e-22)
(0.321466 -0.00807971 9.30972e-19)
(0.32134 -0.0060964 0)
(0.321317 -0.00411807 4.62051e-19)
(0.321401 -0.00214068 2.30288e-19)
(0.321593 -0.00016116 0)
(0.321898 0.00182552 -4.77037e-23)
(0.322323 0.00382094 -4.57087e-19)
(0.322865 0.00580055 0)
(0.323525 0.00779106 -9.10966e-19)
(0.324308 0.00979421 -4.47386e-22)
(0.325217 0.0118114 -1.81714e-18)
(0.326255 0.0138448 1.81613e-18)
(0.327425 0.0158969 0)
(0.328732 0.0179703 -1.81379e-18)
(0.330178 0.0200677 1.1272e-21)
(0.331768 0.022192 -7.25334e-18)
(0.333507 0.0243462 0)
(0.335402 0.0265333 0)
(0.337457 0.0287568 0)
(0.339682 0.0310202 -3.62557e-18)
(0.342084 0.0333272 0)
(0.344676 0.0356821 0)
(0.347468 0.0380896 -7.23092e-18)
(0.350477 0.0405554 7.21509e-18)
(0.353718 0.0430855 4.21791e-21)
(0.357223 0.0456855 7.17217e-18)
(0.360989 0.0483659 -4.97679e-21)
(0.365136 0.0511298 -7.08144e-18)
(0.369468 0.0540006 7.02236e-18)
(0.374637 0.056971 0)
(0.379278 0.0600814 0)
(0.386625 0.0633616 0)
(0.390292 0.0666847 -6.5223e-18)
(0.402806 0.0706619 0)
(0.402256 0.0737562 0)
(0.42571 0.079526 -1.32298e-20)
(0.415396 0.0810688 0)
(0.458916 0.0911302 -4.86142e-18)
(0.432899 0.0894435 0)
(0.501493 0.104643 3.41936e-18)
(0.474556 0.102801 0)
(0.562524 0.120985 0)
(0.843616 -0.0307707 0)
(0.551775 -0.0627357 4.88746e-18)
(0.400016 -0.0715335 0)
(0.374065 -0.0808973 -6.36838e-18)
(0.385649 -0.0860019 -7.0263e-18)
(0.404444 -0.0870093 -7.5191e-18)
(0.418747 -0.0854894 -7.84461e-18)
(0.426886 -0.082856 0)
(0.430582 -0.0798091 1.64083e-17)
(0.431507 -0.076591 0)
(0.430739 -0.0732958 0)
(0.428924 -0.0699725 0)
(0.426445 -0.0666524 0)
(0.423544 -0.0633582 0)
(0.420379 -0.0601058 2.63234e-21)
(0.417065 -0.0569064 -2.4501e-21)
(0.413683 -0.053767 -8.24864e-18)
(0.410297 -0.0506919 2.17275e-21)
(0.406954 -0.0476833 4.07343e-18)
(0.403689 -0.0447417 -8.0933e-18)
(0.400533 -0.0418664 -4.01935e-18)
(0.397507 -0.0390558 7.98204e-18)
(0.394628 -0.0363077 0)
(0.391909 -0.0336191 0)
(0.389363 -0.030987 0)
(0.386995 -0.0284081 -3.88409e-18)
(0.384813 -0.0258788 0)
(0.382822 -0.0233956 0)
(0.381024 -0.0209546 -1.90747e-18)
(0.379423 -0.0185517 0)
(0.378021 -0.0161828 1.88675e-18)
(0.37682 -0.0138437 -4.33168e-22)
(0.375821 -0.0115303 1.86947e-18)
(0.375027 -0.0092385 0)
(0.374438 -0.00696411 0)
(0.374056 -0.00470279 0)
(0.373882 -0.00244895 0)
(0.373917 -0.000197107 0)
(0.374165 0.00206193 -2.29001e-19)
(0.374629 0.00432659 0)
(0.37531 0.00658011 0)
(0.37621 0.00884901 0)
(0.377333 0.0111357 -1.8191e-18)
(0.378684 0.0134436 5.86589e-22)
(0.380266 0.0157769 0)
(0.382084 0.01814 0)
(0.384145 0.0205376 3.62703e-18)
(0.386454 0.0229745 3.62677e-18)
(0.389019 0.0254555 1.44666e-21)
(0.391847 0.027986 3.62446e-18)
(0.394947 0.0305713 0)
(0.398329 0.033217 0)
(0.402005 0.0359293 0)
(0.405986 0.0387143 -3.62076e-18)
(0.410289 0.0415788 0)
(0.414928 0.0445304 7.22787e-18)
(0.419925 0.0475766 -1.08219e-17)
(0.425299 0.0507265 7.19624e-18)
(0.431088 0.0539882 0)
(0.437287 0.0573755 -5.59381e-21)
(0.444039 0.060893 7.083e-18)
(0.451111 0.0645706 0)
(0.459268 0.0683954 0)
(0.466893 0.0724283 0)
(0.47784 0.07667 -6.69479e-18)
(0.484382 0.081037 0)
(0.501898 0.0861401 -6.3256e-18)
(0.502926 0.0902468 6.00745e-18)
(0.534843 0.0978492 -5.76001e-18)
(0.522201 0.0995845 0)
(0.580943 0.11303 4.82991e-18)
(0.546951 0.110448 0)
(0.636785 0.129836 0)
(0.60273 0.127761 0)
(0.711272 0.148574 -9.7928e-19)
(0.914738 -0.0246798 4.59964e-18)
(0.670267 -0.0674293 -4.88978e-18)
(0.517044 -0.0864171 0)
(0.479889 -0.100594 0)
(0.483325 -0.106131 7.02842e-18)
(0.496613 -0.105785 0)
(0.506618 -0.102377 0)
(0.510618 -0.0978743 0)
(0.510002 -0.093142 -8.20302e-18)
(0.506516 -0.0884327 0)
(0.501385 -0.083816 0)
(0.495364 -0.0793162 -8.36842e-18)
(0.488899 -0.0749456 -8.3705e-18)
(0.48226 -0.0707126 0)
(0.475617 -0.0666215 8.331e-18)
(0.469081 -0.0626733 -8.29355e-18)
(0.462728 -0.0588661 8.24915e-18)
(0.456609 -0.055196 8.19984e-18)
(0.450761 -0.0516576 -4.07362e-18)
(0.445205 -0.0482444 8.09147e-18)
(0.439958 -0.0449495 0)
(0.435028 -0.0417658 -1.09179e-21)
(0.43042 -0.0386856 -3.96201e-18)
(0.426134 -0.0357017 3.93495e-18)
(0.422171 -0.0328067 3.9086e-18)
(0.418528 -0.0299935 3.88414e-18)
(0.415201 -0.0272551 3.85868e-18)
(0.412185 -0.0245847 -3.83532e-18)
(0.409478 -0.0219754 0)
(0.407073 -0.0194206 0)
(0.404968 -0.0169137 -1.88675e-18)
(0.403159 -0.0144485 -4.91798e-22)
(0.401641 -0.012019 -1.86854e-18)
(0.400413 -0.00961916 0)
(0.399473 -0.00724337 0)
(0.398818 -0.00488626 0)
(0.398448 -0.00254177 0)
(0.398363 -0.000204943 0)
(0.398563 0.00213648 0)
(0.399052 0.00448203 0)
(0.399832 0.00682852 0)
(0.400905 0.0091903 0)
(0.402275 0.0115728 1.81794e-18)
(0.40395 0.0139814 6.36438e-22)
(0.405934 0.0164217 0)
(0.408236 0.0188998 0)
(0.410865 0.0214218 -1.81323e-18)
(0.41383 0.0239942 0)
(0.417144 0.0266238 3.62493e-18)
(0.420819 0.0293178 -3.62461e-18)
(0.424869 0.0320836 0)
(0.429312 0.0349292 0)
(0.434164 0.037863 3.62095e-18)
(0.439448 0.0408941 2.00705e-21)
(0.445184 0.0440321 -3.61586e-18)
(0.451398 0.0472875 -7.22419e-18)
(0.458121 0.0506711 3.60618e-18)
(0.46538 0.0541956 -7.18716e-18)
(0.473225 0.057873 0)
(0.481659 0.0617211 -5.91013e-21)
(0.490845 0.0657488 0)
(0.500535 0.0699896 7.00611e-18)
(0.511573 0.0744364 0)
(0.522185 0.07915 0)
(0.536642 0.0841513 1.33846e-17)
(0.546299 0.0893044 0)
(0.568575 0.0954027 6.32795e-18)
(0.57185 0.10021 -6.00996e-18)
(0.611574 0.109457 0)
(0.597918 0.111187 0)
(0.670177 0.127501 -4.83277e-18)
(0.63102 0.1244 0)
(0.73788 0.14662 0)
(0.700682 0.144951 -2.16471e-18)
(0.823951 0.166789 9.73496e-19)
(0.959271 -0.0199293 -4.60251e-18)
(0.764561 -0.0691605 0)
(0.619351 -0.0973134 0)
(0.572171 -0.115895 0)
(0.564885 -0.121711 -7.01371e-18)
(0.569874 -0.119876 0)
(0.573511 -0.11448 0)
(0.572027 -0.108062 -8.04649e-18)
(0.566283 -0.101669 0)
(0.557937 -0.0955647 0)
(0.548262 -0.0897809 0)
(0.538062 -0.0843002 1.6735e-17)
(0.5278 -0.0791014 3.87694e-21)
(0.517739 -0.0741676 0)
(0.508027 -0.0694833 0)
(0.498747 -0.0650334 8.28829e-18)
(0.489948 -0.0608027 0)
(0.481652 -0.0567758 0)
(0.473867 -0.0529375 4.07133e-18)
(0.46659 -0.0492733 -8.08947e-18)
(0.459815 -0.0457688 0)
(0.453529 -0.0424109 -1.15958e-21)
(0.447718 -0.0391867 3.96214e-18)
(0.442367 -0.0360845 -1.09304e-21)
(0.437462 -0.0330931 -1.06851e-21)
(0.432986 -0.0302021 0)
(0.428925 -0.0274017 -3.85874e-18)
(0.425264 -0.0246826 5.75254e-18)
(0.421992 -0.0220358 -1.90608e-18)
(0.419096 -0.0194529 1.8956e-18)
(0.416566 -0.0169257 0)
(0.414392 -0.0144469 -1.87708e-18)
(0.412568 -0.012009 1.86854e-18)
(0.411085 -0.00960535 9.30074e-19)
(0.409939 -0.00722906 0)
(0.409126 -0.00487402 0)
(0.408643 -0.00253346 0)
(0.408488 -0.000203621 0)
(0.408661 0.00212793 0)
(0.409164 0.00446384 0)
(0.41 0.00680623 0)
(0.411172 0.00916375 -9.09897e-19)
(0.412686 0.0115435 -1.81795e-18)
(0.414548 0.0139516 1.81598e-18)
(0.416767 0.0163948 0)
(0.419353 0.0188797 -1.81264e-18)
(0.422318 0.0214136 0)
(0.425676 0.0240038 1.81129e-18)
(0.429443 0.0266583 0)
(0.433637 0.0293854 0)
(0.438277 0.0321941 0)
(0.443388 0.0350941 0)
(0.448994 0.0380956 -3.62114e-18)
(0.455125 0.0412096 3.61924e-18)
(0.461812 0.0444483 2.14949e-21)
(0.469091 0.0478248 7.22024e-18)
(0.477004 0.0513531 -3.60168e-18)
(0.485592 0.0550492 7.18793e-18)
(0.49492 0.0589293 0)
(0.505005 0.0630147 -5.9749e-21)
(0.51603 0.0673204 7.06656e-18)
(0.52775 0.0718822 -7.00735e-18)
(0.54107 0.0767052 0)
(0.554131 0.0818393 0)
(0.571481 0.0873538 -8.94852e-21)
(0.583884 0.0930094 0)
(0.61017 0.0998837 0)
(0.615746 0.105071 0)
(0.662075 0.115779 0)
(0.648387 0.117243 0)
(0.731752 0.135994 0)
(0.690223 0.132649 4.01022e-18)
(0.809773 0.156387 -3.33551e-18)
(0.772828 0.155898 2.16637e-18)
(0.906618 0.177664 0)
(0.985671 -0.0163045 0)
(0.836782 -0.0687261 0)
(0.704208 -0.104324 -5.66076e-18)
(0.648831 -0.126648 0)
(0.630086 -0.132728 7.01603e-18)
(0.625528 -0.129548 -7.49119e-18)
(0.621925 -0.122328 0)
(0.614614 -0.114166 6.8972e-21)
(0.603834 -0.106311 0)
(0.591012 -0.0990442 0)
(0.577366 -0.0923506 0)
(0.563675 -0.0861574 -8.36669e-18)
(0.550371 -0.0803988 3.96785e-21)
(0.537674 -0.0750243 0)
(0.525685 -0.0699938 0)
(0.514443 -0.0652735 -8.28911e-18)
(0.503952 -0.0608333 -4.12095e-18)
(0.494198 -0.0566463 -4.09645e-18)
(0.485155 -0.0526879 -4.07161e-18)
(0.476793 -0.0489359 8.08742e-18)
(0.469079 -0.04537 0)
(0.461982 -0.0419719 -3.98876e-18)
(0.455469 -0.0387249 3.96004e-18)
(0.44951 -0.0356138 -3.9341e-18)
(0.444078 -0.032625 -3.90773e-18)
(0.439145 -0.0297458 0)
(0.434688 -0.0269647 -3.85674e-18)
(0.430685 -0.0242708 -3.83389e-18)
(0.427117 -0.0216541 1.9061e-18)
(0.423968 -0.0191052 -3.79074e-18)
(0.421221 -0.0166152 1.88527e-18)
(0.418864 -0.014176 0)
(0.416885 -0.01178 0)
(0.415277 -0.00941959 -9.30076e-19)
(0.41403 -0.00708785 9.26204e-19)
(0.413139 -0.00477828 0)
(0.412601 -0.00248374 0)
(0.412413 -0.000200044 0)
(0.412573 0.00208329 0)
(0.413084 0.00437085 0)
(0.413947 0.00666694 -9.111e-19)
(0.415168 0.00897808 9.099e-19)
(0.416752 0.0113117 0)
(0.418707 0.0136745 0)
(0.421042 0.0160733 -1.81315e-18)
(0.42377 0.0185151 1.81266e-18)
(0.426905 0.0210074 0)
(0.430463 0.0235582 -7.42292e-22)
(0.434463 0.0261758 0)
(0.438926 0.0288692 0)
(0.443878 0.0316481 0)
(0.449345 0.034523 0)
(0.455359 0.0375052 -3.61749e-18)
(0.461957 0.0406069 0)
(0.469178 0.0438418 7.22625e-18)
(0.477067 0.0472248 -7.21622e-18)
(0.485676 0.0507721 3.60198e-18)
(0.495059 0.054502 3.58914e-18)
(0.505294 0.0584339 3.57488e-18)
(0.516413 0.0625921 -7.11723e-18)
(0.528619 0.0669969 -7.06755e-18)
(0.541682 0.0716853 0)
(0.556549 0.0766764 0)
(0.571327 0.0820043 0)
(0.590743 0.0877992 -6.68222e-18)
(0.605212 0.0936937 -6.48235e-18)
(0.634489 0.1011 6.2998e-18)
(0.642014 0.10637 0)
(0.69338 0.118272 0)
(0.6803 0.11927 0)
(0.77189 0.139884 -4.78811e-18)
(0.730334 0.136585 -4.01245e-18)
(0.858438 0.160696 2.16567e-20)
(0.824048 0.161884 0)
(0.965388 0.182897 -8.93962e-19)
(0.999875 -0.0135337 0)
(0.890115 -0.0668327 0)
(0.771583 -0.1079 5.6632e-18)
(0.710025 -0.133192 0)
(0.680501 -0.139633 7.00961e-18)
(0.666454 -0.135443 7.49351e-18)
(0.655704 -0.12674 0)
(0.642945 -0.117141 8.04358e-18)
(0.627774 -0.108114 0)
(0.611294 -0.0999701 0)
(0.594571 -0.0926445 0)
(0.5783 -0.0860027 0)
(0.562842 -0.0799282 8.36612e-18)
(0.548352 -0.0743341 0)
(0.534872 -0.069155 8.32055e-18)
(0.52239 -0.0643388 0)
(0.510866 -0.0598426 4.12132e-18)
(0.500249 -0.0556295 4.09677e-18)
(0.490484 -0.0516678 -4.06924e-18)
(0.481516 -0.0479297 -8.08539e-18)
(0.473292 -0.0443907 4.01439e-18)
(0.465763 -0.0410292 -3.98662e-18)
(0.458885 -0.037826 -3.9602e-18)
(0.452616 -0.0347643 -3.93205e-18)
(0.446919 -0.0318288 -3.90572e-18)
(0.441762 -0.0290058 0)
(0.437113 -0.026283 3.85682e-18)
(0.432947 -0.0236488 1.91672e-18)
(0.429239 -0.0210927 -1.90513e-18)
(0.425971 -0.0186051 1.89514e-18)
(0.423124 -0.0161768 -1.88529e-18)
(0.420683 -0.0137995 1.87559e-18)
(0.418635 -0.0114655 -9.33521e-19)
(0.416969 -0.00916719 0)
(0.415677 -0.00689757 -9.26205e-19)
(0.414752 -0.00465013 0)
(0.41419 -0.00241777 2.2992e-19)
(0.413987 -0.0001958 0)
(0.414143 0.0020249 -2.28664e-19)
(0.414657 0.00424951 0)
(0.415533 0.00648324 9.11101e-19)
(0.416777 0.00873189 0)
(0.418393 0.0110028 0)
(0.42039 0.0133025 0)
(0.42278 0.015638 3.62569e-18)
(0.425573 0.0180163 0)
(0.428787 0.0204449 1.81047e-18)
(0.432437 0.0229319 -3.6205e-18)
(0.436547 0.0254856 3.61899e-18)
(0.441137 0.0281153 0)
(0.446237 0.0308308 0)
(0.451877 0.0336428 0)
(0.458092 0.0365632 3.61765e-18)
(0.464921 0.0396047 3.61363e-18)
(0.472411 0.0427814 -3.61227e-18)
(0.480613 0.0461093 7.21224e-18)
(0.489586 0.0496055 3.5975e-18)
(0.499392 0.0532898 -3.58945e-18)
(0.51012 0.0571833 -3.57524e-18)
(0.521815 0.0613122 0)
(0.534698 0.0657006 0)
(0.548548 0.0703852 0)
(0.564346 0.0753985 0)
(0.580191 0.0807551 0)
(0.600921 0.0866511 0)
(0.616771 0.0925781 9.5872e-21)
(0.64804 0.100304 -6.30154e-18)
(0.657044 0.105419 0)
(0.711816 0.11822 0)
(0.699769 0.118631 0)
(0.796632 0.140481 4.79029e-18)
(0.756804 0.137482 0)
(0.889836 0.161062 2.08893e-20)
(0.85917 0.164089 0)
(1.0059 0.183973 8.92493e-19)
(1.0062 -0.0114537 0)
(0.928093 -0.0640484 -5.11558e-18)
(0.823149 -0.108667 0)
(0.757361 -0.136164 0)
(0.718601 -0.14312 -1.41341e-21)
(0.695994 -0.138337 7.48329e-18)
(0.678804 -0.128569 0)
(0.661348 -0.11789 0)
(0.642638 -0.107997 -8.18083e-18)
(0.6234 -0.099249 0)
(0.604489 -0.091535 0)
(0.586471 -0.0846592 -8.35657e-18)
(0.569617 -0.0784549 0)
(0.554011 -0.0728005 0)
(0.539636 -0.0676075 -8.32151e-18)
(0.526435 -0.062809 0)
(0.51433 -0.0583517 0)
(0.503242 -0.054192 4.09435e-18)
(0.493092 -0.0502933 4.06952e-18)
(0.483808 -0.0466244 8.08341e-18)
(0.475324 -0.0431585 -4.0146e-18)
(0.46758 -0.0398724 3.9868e-18)
(0.460522 -0.0367458 -3.95816e-18)
(0.454102 -0.0337609 1.0515e-21)
(0.448279 -0.0309019 1.02457e-21)
(0.443014 -0.0281548 0)
(0.438275 -0.025507 0)
(0.434032 -0.022947 1.91576e-18)
(0.43026 -0.020464 1.90515e-18)
(0.426937 -0.0180485 0)
(0.424044 -0.0156914 1.88433e-18)
(0.421564 -0.0133845 -1.8756e-18)
(0.419484 -0.0111201 9.33524e-19)
(0.417793 -0.00889078 9.29334e-19)
(0.41648 -0.00668963 0)
(0.41554 -0.00451025 4.61205e-19)
(0.414967 -0.00234571 -4.59777e-19)
(0.414758 -0.000191159 0)
(0.414911 0.00196178 4.57263e-19)
(0.415428 0.00411835 -4.56164e-19)
(0.416312 0.00628408 0)
(0.417566 0.00846447 -9.09032e-19)
(0.419198 0.0106665 0)
(0.421216 0.0128968 0)
(0.423631 0.015162 -3.62445e-18)
(0.426456 0.0174692 0)
(0.429706 0.0198257 -1.8105e-18)
(0.433401 0.0222393 7.03276e-22)
(0.437562 0.0247184 -5.42787e-18)
(0.442214 0.0272722 0)
(0.447385 0.0299103 0)
(0.453107 0.0326435 0)
(0.459418 0.0354835 3.61415e-18)
(0.466359 0.0384431 -3.6138e-18)
(0.473981 0.0415366 -3.60839e-18)
(0.482336 0.04478 -7.20835e-18)
(0.49149 0.0481909 -3.59776e-18)
(0.501509 0.0517894 0)
(0.512491 0.0555975 0)
(0.524486 0.0596417 -3.55075e-18)
(0.537727 0.0639488 0)
(0.552005 0.0685536 -6.98331e-18)
(0.56832 0.0735003 0)
(0.584777 0.0787821 0)
(0.60627 0.0846597 -6.65898e-18)
(0.622974 0.0904809 9.32957e-21)
(0.655434 0.0983631 0)
(0.665517 0.103166 -5.95815e-18)
(0.722259 0.116594 0)
(0.71157 0.116374 0)
(0.811054 0.138884 4.76085e-18)
(0.774149 0.136366 0)
(0.909212 0.158746 3.29881e-18)
(0.88255 0.16355 0)
(1.03302 0.182116 0)
(1.00777 -0.00992939 0)
(0.954149 -0.0607864 1.02847e-17)
(0.861414 -0.107288 0)
(0.793146 -0.136308 0)
(0.747059 -0.143936 -7.01309e-18)
(0.717252 -0.138971 -7.48566e-18)
(0.6946 -0.12855 0)
(0.673293 -0.117134 -8.02859e-18)
(0.65186 -0.106654 1.636e-17)
(0.630641 -0.097528 0)
(0.610254 -0.0896127 0)
(0.591118 -0.082657 1.67118e-17)
(0.57341 -0.0764488 0)
(0.557145 -0.0708359 0)
(0.54226 -0.0657111 0)
(0.528659 -0.0609959 0)
(0.516239 -0.0566303 0)
(0.5049 -0.0525662 -8.18801e-18)
(0.494549 -0.0487644 0)
(0.485103 -0.0451921 -4.04133e-18)
(0.476485 -0.0418215 -4.0125e-18)
(0.468631 -0.0386287 -3.98476e-18)
(0.461481 -0.0355931 3.95831e-18)
(0.454985 -0.0326969 7.86149e-18)
(0.449097 -0.0299243 7.80883e-18)
(0.443778 -0.0272613 -3.87847e-18)
(0.438992 -0.0246954 0)
(0.43471 -0.0222151 -1.91579e-18)
(0.430904 -0.0198101 0)
(0.427552 -0.0174709 0)
(0.424635 -0.0151886 -3.76823e-18)
(0.422135 -0.0129553 0)
(0.420038 -0.0107633 0)
(0.418333 -0.00860553 -2.34399e-22)
(0.41701 -0.00647519 0)
(0.416062 -0.00436602 -4.61205e-19)
(0.415483 -0.00227134 2.29857e-19)
(0.415271 -0.000186239 0)
(0.415424 0.00189708 -2.28599e-19)
(0.415943 0.00398378 4.56164e-19)
(0.416831 0.0060795 0)
(0.418092 0.00818955 2.74043e-22)
(0.419733 0.0103206 0)
(0.421763 0.0124791 0)
(0.424193 0.0146715 3.62325e-18)
(0.427036 0.0169047 0)
(0.430307 0.0191858 0)
(0.434027 0.0215226 1.80924e-18)
(0.438217 0.023923 7.1236e-22)
(0.442902 0.0263961 3.61557e-18)
(0.448111 0.0289514 0)
(0.453877 0.0315993 -3.61399e-18)
(0.460239 0.0343514 -3.61429e-18)
(0.46724 0.0372202 3.61023e-18)
(0.47493 0.0402198 7.2152e-18)
(0.483366 0.0433661 3.60332e-18)
(0.492614 0.0466763 0)
(0.502744 0.0501706 0)
(0.513858 0.053871 0)
(0.52601 0.0578036 3.55112e-18)
(0.53944 0.0619968 -3.52282e-18)
(0.553946 0.0664823 6.36479e-21)
(0.570539 0.0713142 0)
(0.587335 0.0764636 0)
(0.609245 0.0822511 6.66027e-18)
(0.626464 0.0878863 6.46791e-18)
(0.659558 0.095812 0)
(0.670456 0.100218 5.95982e-18)
(0.728061 0.114045 0)
(0.718995 0.113214 -5.15917e-18)
(0.818993 0.135909 -4.76278e-18)
(0.785731 0.133977 0)
(0.920719 0.154729 -3.26124e-18)
(0.897803 0.161112 0)
(1.05072 0.178278 -8.37174e-19)
(1.00678 -0.0088318 0)
(0.971337 -0.0573307 -5.16909e-18)
(0.889099 -0.104377 0)
(0.81983 -0.134342 6.41538e-18)
(0.768322 -0.142765 0)
(0.73276 -0.137967 0)
(0.705648 -0.127251 0)
(0.681264 -0.115393 1.60557e-17)
(0.65777 -0.104553 -8.17909e-18)
(0.635154 -0.0952226 -8.26939e-18)
(0.61379 -0.0872384 0)
(0.593953 -0.0803045 -8.35518e-18)
(0.575731 -0.0741703 -8.35457e-18)
(0.559082 -0.0686588 0)
(0.543906 -0.063648 4.15688e-18)
(0.530081 -0.0590515 0)
(0.517486 -0.0548046 0)
(0.506008 -0.050857 4.09365e-18)
(0.495545 -0.0471684 0)
(0.486007 -0.0437053 4.03922e-18)
(0.477314 -0.0404398 4.0127e-18)
(0.469396 -0.0373481 3.98494e-18)
(0.462193 -0.03441 3.95638e-18)
(0.455652 -0.0316075 -7.85973e-18)
(0.449725 -0.0289254 -3.90402e-18)
(0.444371 -0.0263498 3.87855e-18)
(0.439556 -0.0238686 0)
(0.435249 -0.0214705 1.91489e-18)
(0.431421 -0.0191455 0)
(0.428051 -0.0168842 1.89331e-18)
(0.425117 -0.0146783 1.88389e-18)
(0.422604 -0.0125199 -1.87423e-18)
(0.420496 -0.0104015 0)
(0.418781 -0.00831639 -2.26674e-22)
(0.417451 -0.00625784 -9.25247e-19)
(0.416497 -0.00421982 0)
(0.415915 -0.00219588 -2.29737e-19)
(0.415701 -0.000181117 0)
(0.415855 0.00183176 2.28474e-19)
(0.416375 0.0038478 0)
(0.417266 0.00587265 9.10022e-19)
(0.418533 0.00791146 2.6505e-22)
(0.420181 0.00997062 0)
(0.42222 0.0120563 1.81238e-18)
(0.42466 0.0141748 -1.81133e-18)
(0.427516 0.0163329 -1.8095e-18)
(0.430803 0.0185374 1.80858e-18)
(0.43454 0.0207957 0)
(0.43875 0.0231159 3.61562e-18)
(0.443458 0.0255064 -3.61565e-18)
(0.448693 0.0279767 0)
(0.454489 0.0305367 3.61411e-18)
(0.460884 0.0331977 -3.611e-18)
(0.467923 0.0359721 -7.21899e-18)
(0.475657 0.0388735 -3.60681e-18)
(0.484142 0.0419172 -3.59945e-18)
(0.493447 0.0451203 0)
(0.503644 0.0485024 -3.58071e-18)
(0.514835 0.0520852 0)
(0.527078 0.055894 0)
(0.540615 0.059958 3.52322e-18)
(0.55525 0.0643053 6.97878e-18)
(0.571998 0.0689982 0)
(0.588989 0.0739863 0)
(0.611124 0.0796438 6.6453e-18)
(0.628666 0.0850531 0)
(0.662049 0.092946 6.26601e-18)
(0.673618 0.0969282 0)
(0.73132 0.11097 0)
(0.724079 0.10959 5.16094e-18)
(0.8231 0.132111 4.73501e-18)
(0.793839 0.130807 0)
(0.927371 0.149724 6.50715e-18)
(0.907706 0.157416 -2.06387e-18)
(1.06204 0.17316 8.37152e-19)
(1.00468 -0.00804803 0)
(0.982201 -0.053867 0)
(0.908751 -0.100452 -5.82322e-18)
(0.839653 -0.130873 1.52326e-20)
(0.784409 -0.140171 0)
(0.744412 -0.135801 0)
(0.713728 -0.125074 0)
(0.686894 -0.113011 -5.05582e-21)
(0.661826 -0.101987 -8.17095e-18)
(0.638205 -0.092579 1.65376e-17)
(0.616182 -0.0846156 0)
(0.595895 -0.0777672 -8.34877e-18)
(0.577354 -0.0717531 8.35571e-18)
(0.560472 -0.0663763 0)
(0.54512 -0.061504 -1.49767e-21)
(0.531159 -0.057044 0)
(0.518456 -0.0529292 0)
(0.506891 -0.0491082 -4.09144e-18)
(0.496356 -0.0455402 -4.06541e-18)
(0.486758 -0.0421922 -8.07778e-18)
(0.478014 -0.0390364 0)
(0.470053 -0.0360495 0)
(0.462811 -0.0332115 -7.91206e-18)
(0.456236 -0.0305051 3.92949e-18)
(0.45028 -0.0279153 0)
(0.444901 -0.0254288 0)
(0.440063 -0.0230335 0)
(0.435736 -0.0207188 -1.91492e-18)
(0.431891 -0.0184747 1.90338e-18)
(0.428505 -0.0162924 -4.33551e-22)
(0.425558 -0.0141637 -1.88303e-18)
(0.423033 -0.0120808 1.87424e-18)
(0.420916 -0.0100368 0)
(0.419193 -0.00802486 -1.85754e-18)
(0.417857 -0.00603869 9.25248e-19)
(0.416899 -0.00407237 0)
(0.416314 -0.00211971 2.29737e-19)
(0.416099 -0.00017583 0)
(0.416253 0.00176609 -2.28474e-19)
(0.416775 0.00371099 0)
(0.417669 0.00566445 -9.10024e-19)
(0.41894 0.00763148 1.81674e-18)
(0.420595 0.00961814 0)
(0.422642 0.0116305 -1.81239e-18)
(0.425091 0.0136745 1.8102e-18)
(0.427958 0.0157567 5.86737e-22)
(0.431258 0.0178839 -1.8086e-18)
(0.435011 0.0200631 -1.80732e-18)
(0.439237 0.0223021 -6.65736e-22)
(0.443964 0.0246091 0)
(0.44922 0.0269932 0)
(0.45504 0.0294641 0)
(0.461463 0.0320327 7.22063e-18)
(0.468532 0.034711 3.60876e-18)
(0.476299 0.037512 -3.60327e-18)
(0.484822 0.0404509 7.19737e-18)
(0.494169 0.043544 3.58978e-18)
(0.504414 0.0468103 3.58098e-18)
(0.515659 0.0502712 0)
(0.527964 0.0539508 0)
(0.541574 0.0578785 0)
(0.556294 0.0620791 0)
(0.573139 0.0666213 0)
(0.590255 0.0714348 0)
(0.612516 0.0769405 -1.32853e-17)
(0.630285 0.082108 6.44431e-18)
(0.663758 0.0899162 -6.26744e-18)
(0.67593 0.0934813 5.93069e-18)
(0.733253 0.107593 -5.66428e-18)
(0.727966 0.10575 0)
(0.825075 0.127842 -4.73677e-18)
(0.799915 0.12716 3.92011e-18)
(0.931188 0.144194 -6.47371e-18)
(0.914248 0.15292 2.06498e-18)
(1.0692 0.167256 0)
(1.00233 -0.00748696 0)
(0.988743 -0.0505072 -5.31193e-18)
(0.922539 -0.0959179 5.82572e-18)
(0.854484 -0.126351 -1.28861e-17)
(0.796865 -0.136588 -7.02884e-18)
(0.753533 -0.132818 0)
(0.719998 -0.122289 0)
(0.691187 -0.110203 -8.02393e-18)
(0.664877 -0.0991298 4.45933e-21)
(0.640498 -0.0897343 -8.26813e-18)
(0.618004 -0.0818517 0)
(0.597408 -0.0751286 8.35002e-18)
(0.578652 -0.0692613 0)
(0.561613 -0.0640377 0)
(0.546141 -0.0593167 -4.15625e-18)
(0.532085 -0.0550025 -4.1366e-18)
(0.519306 -0.0510264 0)
(0.507677 -0.0473369 4.09172e-18)
(0.497088 -0.0438934 4.06566e-18)
(0.487442 -0.0406633 1.07178e-21)
(0.478657 -0.0376194 -4.0099e-18)
(0.470659 -0.0347391 0)
(0.463386 -0.0320028 3.95567e-18)
(0.456783 -0.0293938 0)
(0.450801 -0.0268975 -1.95072e-18)
(0.445399 -0.0245008 0)
(0.440542 -0.0221924 1.92577e-18)
(0.436196 -0.0199618 0)
(0.432335 -0.0177994 -1.9034e-18)
(0.428936 -0.0156966 -3.78539e-18)
(0.425977 -0.0136456 1.88304e-18)
(0.423442 -0.0116389 9.36699e-19)
(0.421315 -0.0096696 -9.32412e-19)
(0.419586 -0.00773139 2.10974e-22)
(0.418244 -0.00581807 0)
(0.417282 -0.0039239 -4.6075e-19)
(0.416694 -0.00204294 0)
(0.416478 -0.000170391 0)
(0.416632 0.00170015 0)
(0.417156 0.00357351 4.55671e-19)
(0.418053 0.00545516 0)
(0.419329 0.00734996 -2.46778e-22)
(0.420989 0.00926368 9.06714e-19)
(0.423043 0.0112022 -9.05665e-19)
(0.425502 0.0131713 -1.81021e-18)
(0.428379 0.0151772 3.61733e-18)
(0.431691 0.0172265 -1.80742e-18)
(0.435457 0.019326 3.61407e-18)
(0.4397 0.0214832 -1.80686e-18)
(0.444444 0.023706 0)
(0.44972 0.0260033 0)
(0.455562 0.0283843 -3.6097e-18)
(0.462008 0.0308596 -3.60963e-18)
(0.469104 0.0334407 3.60552e-18)
(0.476901 0.0361404 7.20511e-18)
(0.485457 0.0389731 -1.87291e-21)
(0.494841 0.0419546 -3.59001e-18)
(0.505126 0.0451035 0)
(0.516416 0.0484402 0)
(0.528772 0.0519879 0)
(0.542438 0.0557761 0)
(0.557224 0.0598259 0)
(0.57414 0.0642116 0)
(0.591351 0.0688449 0)
(0.613689 0.0741862 6.63991e-18)
(0.631641 0.0791088 -6.44556e-18)
(0.665099 0.0867945 0)
(0.677845 0.0899685 -5.93215e-18)
(0.734524 0.104036 1.10321e-20)
(0.731241 0.101819 0)
(0.82594 0.123313 0)
(0.804806 0.12321 -7.82892e-18)
(0.933441 0.138397 3.22935e-18)
(0.918763 0.147929 0)
(1.07375 0.160899 0)
(1.00019 -0.00707744 0)
(0.992458 -0.047309 1.06713e-17)
(0.932196 -0.0910713 -5.89059e-18)
(0.86577 -0.121157 -1.39707e-20)
(0.806806 -0.132331 -4.4996e-21)
(0.761003 -0.129256 0)
(0.725173 -0.119071 0)
(0.694727 -0.107098 0)
(0.667393 -0.0960768 8.16991e-18)
(0.642405 -0.0867609 8.26151e-18)
(0.619542 -0.0790008 0)
(0.59871 -0.0724287 -4.17209e-18)
(0.579792 -0.0667244 0)
(0.562634 -0.0616644 4.16714e-18)
(0.547069 -0.057102 0)
(0.532938 -0.0529386 4.13696e-18)
(0.520095 -0.049105 4.11393e-18)
(0.508412 -0.0455497 0)
(0.497775 -0.0422329 0)
(0.488089 -0.0391224 4.03768e-18)
(0.479267 -0.0361919 4.01007e-18)
(0.471236 -0.0334193 0)