/*--------------------------------*- C++ -*----------------------------------*\
| =========                 |                                                 |
| \\      /  F ield         | OpenFOAM: The Open Source CFD Toolbox           |
|  \\    /   O peration     | Version:  2.4.0                                 |
|   \\  /    A nd           | Web:      www.OpenFOAM.org                      |
|    \\/     M anipulation  |                                                 |
\*---------------------------------------------------------------------------*/
FoamFile
{
    version     2.0;
    format      ascii;
    class       volScalarField;
    location    "0.81";
    object      p;
}
// * * * * * * * * * * * * * * * * * * * * * * * * * * * * * * * * * * * * * //

dimensions      [0 2 -2 0 0 0 0];

internalField   nonuniform List<scalar> 
6000
(
0.271773
0.266359
0.263865
0.262997
0.262114
0.261025
0.259941
0.258938
0.257995
0.257089
0.256214
0.255371
0.25456
0.253776
0.253016
0.252276
0.251553
0.250844
0.250148
0.249462
0.248786
0.248117
0.247455
0.2468
0.24615
0.245507
0.244869
0.244238
0.243615
0.243
0.242396
0.241803
0.241226
0.240668
0.240133
0.239628
0.23916
0.238738
0.238375
0.238084
0.237886
0.237803
0.237865
0.238111
0.238588
0.239357
0.240494
0.242095
0.244281
0.247202
0.251044
0.256036
0.262455
0.270621
0.28091
0.293615
0.309188
0.326919
0.348371
0.363765
0.267833
0.265574
0.263818
0.262993
0.262179
0.261164
0.260111
0.259113
0.258163
0.257245
0.256355
0.255498
0.254672
0.253876
0.253105
0.252355
0.251624
0.250908
0.250206
0.249515
0.248833
0.24816
0.247494
0.246835
0.246182
0.245535
0.244895
0.244262
0.243636
0.243019
0.242413
0.241819
0.24124
0.240681
0.240145
0.239639
0.23917
0.238747
0.238381
0.238089
0.237888
0.237802
0.237861
0.238102
0.238573
0.239334
0.240462
0.242051
0.244222
0.247123
0.25094
0.255899
0.262277
0.27039
0.280614
0.293247
0.30877
0.326478
0.348238
0.363565
0.267681
0.266068
0.264131
0.263021
0.262145
0.261127
0.260063
0.259058
0.258111
0.2572
0.256319
0.25547
0.254652
0.253862
0.253096
0.252351
0.251624
0.250912
0.250213
0.249525
0.248845
0.248174
0.247511
0.246853
0.246202
0.245556
0.244917
0.244284
0.243659
0.243042
0.242435
0.24184
0.241261
0.2407
0.240162
0.239654
0.239182
0.238757
0.238388
0.238092
0.237886
0.237794
0.237845
0.238077
0.238537
0.239285
0.240394
0.24196
0.244101
0.246964
0.25073
0.255622
0.261908
0.269895
0.279945
0.29234
0.307538
0.324829
0.346164
0.360906
0.267028
0.265632
0.26389
0.262817
0.262
0.26105
0.26003
0.259052
0.258127
0.257231
0.256358
0.255513
0.254695
0.253903
0.253134
0.252385
0.251653
0.250936
0.250233
0.24954
0.248857
0.248183
0.247516
0.246856
0.246203
0.245556
0.244916
0.244282
0.243657
0.24304
0.242433
0.241839
0.241259
0.240699
0.240161
0.239652
0.239179
0.238751
0.23838
0.238079
0.237867
0.237767
0.237808
0.238027
0.238469
0.239194
0.240274
0.241803
0.243895
0.246695
0.250379
0.255162
0.261305
0.269099
0.278886
0.290923
0.305623
0.32227
0.342651
0.35654
0.266471
0.265387
0.263888
0.262814
0.261977
0.261045
0.26004
0.259067
0.258144
0.257249
0.256377
0.255531
0.254713
0.25392
0.25315
0.2524
0.251667
0.250949
0.250244
0.249551
0.248867
0.248192
0.247525
0.246864
0.24621
0.245562
0.244921
0.244287
0.24366
0.243042
0.242435
0.241839
0.241258
0.240696
0.240156
0.239644
0.239168
0.238736
0.238359
0.238051
0.237831
0.23772
0.237747
0.237948
0.238367
0.239063
0.240105
0.241585
0.243614
0.246331
0.249906
0.254548
0.260502
0.268045
0.277493
0.289077
0.303158
0.319031
0.33823
0.351276
0.266002
0.265148
0.263821
0.262746
0.261895
0.260992
0.260015
0.259057
0.258143
0.257256
0.25639
0.255548
0.254732
0.25394
0.25317
0.252418
0.251684
0.250965
0.250259
0.249564
0.248878
0.248202
0.247533
0.246871
0.246216
0.245567
0.244925
0.24429
0.243663
0.243044
0.242435
0.241838
0.241256
0.240692
0.24015
0.239635
0.239155
0.238718
0.238336
0.23802
0.23779
0.237666
0.237676
0.237856
0.238247
0.238907
0.239904
0.241325
0.243277
0.245895
0.249341
0.253813
0.259541
0.266784
0.275828
0.286875
0.300229
0.315204
0.333066
0.34534
0.265599
0.264906
0.26373
0.262681
0.261831
0.260953
0.260003
0.259058
0.25815
0.25727
0.256408
0.255568
0.254752
0.25396
0.253188
0.252436
0.2517
0.250979
0.250271
0.249575
0.248888
0.24821
0.24754
0.246877
0.246221
0.245572
0.244929
0.244293
0.243664
0.243044
0.242434
0.241836
0.241253
0.240686
0.240142
0.239624
0.23914
0.238698
0.238308
0.237984
0.237742
0.237604
0.237596
0.237751
0.238112
0.238732
0.239678
0.241033
0.242901
0.245408
0.24871
0.252992
0.258471
0.265381
0.27398
0.284433
0.296983
0.310964
0.327364
0.338877
0.265246
0.264673
0.26363
0.26262
0.261772
0.260913
0.259987
0.259054
0.258154
0.257278
0.256421
0.255584
0.254769
0.253977
0.253205
0.252452
0.251715
0.250993
0.250283
0.249585
0.248898
0.248219
0.247547
0.246883
0.246226
0.245576
0.244932
0.244295
0.243666
0.243045
0.242434
0.241834
0.241248
0.24068
0.240132
0.239611
0.239122
0.238674
0.238277
0.237943
0.237689
0.237534
0.237505
0.237634
0.237961
0.238538
0.239428
0.240711
0.242485
0.244872
0.248018
0.252096
0.257307
0.263865
0.271996
0.28183
0.293545
0.306496
0.321385
0.332064
0.264936
0.264452
0.263524
0.262559
0.261716
0.260873
0.259968
0.25905
0.258156
0.257287
0.256434
0.255599
0.254785
0.253993
0.253221
0.252467
0.251729
0.251005
0.250295
0.249596
0.248907
0.248226
0.247554
0.246889
0.246231
0.24558
0.244935
0.244297
0.243667
0.243044
0.242432
0.241831
0.241243
0.240672
0.240122
0.239596
0.239103
0.238648
0.238242
0.237897
0.237629
0.237457
0.237406
0.237505
0.237796
0.238325
0.239154
0.240359
0.242033
0.24429
0.247269
0.25113
0.256058
0.262246
0.269892
0.279095
0.28997
0.301896
0.3153
0.325039
0.264662
0.264247
0.263416
0.262498
0.261663
0.260834
0.259949
0.259044
0.258158
0.257294
0.256445
0.255612
0.2548
0.254009
0.253236
0.252481
0.251742
0.251017
0.250305
0.249605
0.248915
0.248234
0.24756
0.246894
0.246235
0.245583
0.244937
0.244298
0.243667
0.243044
0.24243
0.241827
0.241237
0.240663
0.240109
0.23958
0.23908
0.238619
0.238204
0.237847
0.237564
0.237373
0.237297
0.237366
0.237616
0.238094
0.238858
0.239979
0.241546
0.243665
0.246465
0.250097
0.254728
0.260532
0.267679
0.276242
0.28628
0.2972
0.309184
0.317897
0.264419
0.264057
0.263308
0.262436
0.261614
0.260796
0.25993
0.259038
0.25816
0.2573
0.256455
0.255625
0.254814
0.254023
0.25325
0.252494
0.251754
0.251028
0.250316
0.249614
0.248923
0.24824
0.247566
0.246899
0.246239
0.245586
0.244939
0.244299
0.243667
0.243042
0.242427
0.241822
0.24123
0.240653
0.240096
0.239561
0.239056
0.238587
0.238162
0.237793
0.237494
0.237282
0.23718
0.237216
0.237423
0.237847
0.238541
0.239573
0.241026
0.242999
0.245612
0.249002
0.253324
0.258731
0.265367
0.273282
0.282488
0.292423
0.303065
0.310717
0.264203
0.263883
0.263203
0.262375
0.261567
0.260761
0.25991
0.259032
0.25816
0.257305
0.256464
0.255636
0.254826
0.254035
0.253262
0.252506
0.251765
0.251039
0.250325
0.249622
0.24893
0.248246
0.247571
0.246903
0.246243
0.245588
0.244941
0.2443
0.243666
0.24304
0.242423
0.241816
0.241222
0.240642
0.240081
0.239541
0.23903
0.238552
0.238117
0.237735
0.237419
0.237185
0.237056
0.237056
0.237218
0.237584
0.238205
0.239143
0.240475
0.242294
0.24471
0.24785
0.25185
0.256848
0.262964
0.270226
0.278609
0.287578
0.296959
0.303557
0.264011
0.263724
0.263101
0.262315
0.261523
0.260727
0.259891
0.259025
0.25816
0.257309
0.256471
0.255647
0.254838
0.254047
0.253274
0.252517
0.251776
0.251048
0.250333
0.24963
0.248936
0.248252
0.247576
0.246907
0.246246
0.24559
0.244942
0.2443
0.243665
0.243037
0.242419
0.24181
0.241213
0.24063
0.240064
0.23952
0.239001
0.238515
0.238069
0.237673
0.237339
0.237082
0.236923
0.236886
0.237001
0.237307
0.23785
0.238689
0.239895
0.241554
0.243765
0.246644
0.250313
0.254892
0.260479
0.267085
0.274653
0.282676
0.290875
0.296457
0.26384
0.26358
0.263005
0.262258
0.261482
0.260696
0.259872
0.259018
0.25816
0.257313
0.256478
0.255656
0.254848
0.254058
0.253285
0.252528
0.251785
0.251057
0.250341
0.249637
0.248942
0.248257
0.24758
0.246911
0.246248
0.245592
0.244942
0.244299
0.243663
0.243034
0.242414
0.241803
0.241203
0.240616
0.240046
0.239496
0.238971
0.238475
0.238018
0.237607
0.237254
0.236974
0.236784
0.236708
0.236773
0.237015
0.237477
0.238213
0.239288
0.24078
0.242779
0.245388
0.248717
0.252867
0.257919
0.263867
0.270631
0.27773
0.284817
0.289434
0.263688
0.26345
0.262916
0.262203
0.261443
0.260667
0.259854
0.25901
0.258159
0.257316
0.256484
0.255664
0.254858
0.254068
0.253294
0.252537
0.251794
0.251065
0.250348
0.249643
0.248948
0.248262
0.247584
0.246914
0.24625
0.245593
0.244943
0.244299
0.243661
0.243031
0.242408
0.241795
0.241192
0.240602
0.240028
0.239472
0.238939
0.238434
0.237964
0.237538
0.237165
0.23686
0.236638
0.236521
0.236534
0.23671
0.237088
0.237717
0.238656
0.239975
0.241755
0.244087
0.247067
0.250781
0.255291
0.26058
0.266549
0.272747
0.278787
0.282496
0.263555
0.263334
0.262834
0.262151
0.261408
0.260641
0.259838
0.259003
0.258158
0.257319
0.25649
0.255671
0.254866
0.254077
0.253303
0.252545
0.251802
0.251072
0.250355
0.249649
0.248953
0.248266
0.247587
0.246916
0.246252
0.245594
0.244943
0.244297
0.243658
0.243026
0.242402
0.241786
0.241181
0.240587
0.240008
0.239445
0.238905
0.23839
0.237908
0.237465
0.237072
0.236741
0.236486
0.236327
0.236286
0.236394
0.236685
0.237203
0.238001
0.239142
0.240697
0.242745
0.245368
0.248639
0.252603
0.257232
0.262417
0.267735
0.272786
0.275643
0.263437
0.263231
0.262759
0.262103
0.261375
0.260617
0.259822
0.258996
0.258157
0.257321
0.256494
0.255677
0.254873
0.254084
0.253311
0.252553
0.251809
0.251078
0.25036
0.249654
0.248957
0.248269
0.24759
0.246918
0.246253
0.245594
0.244942
0.244296
0.243655
0.243022
0.242395
0.241777
0.241169
0.240571
0.239986
0.239418
0.238869
0.238344
0.237849
0.23739
0.236976
0.236618
0.236329
0.236126
0.23603
0.236067
0.236268
0.236672
0.237326
0.238284
0.239608
0.241365
0.243626
0.246447
0.249862
0.253831
0.258241
0.262698
0.266812
0.268869
0.263335
0.26314
0.262692
0.26206
0.261346
0.260595
0.259808
0.258989
0.258156
0.257323
0.256498
0.255683
0.25488
0.254091
0.253318
0.252559
0.251815
0.251084
0.250365
0.249658
0.248961
0.248272
0.247592
0.24692
0.246254
0.245594
0.244941
0.244293
0.243652
0.243017
0.242388
0.241768
0.241156
0.240554
0.239964
0.23939
0.238833
0.238297
0.237788
0.237312
0.236876
0.23649
0.236166
0.235918
0.235765
0.23573
0.235839
0.236126
0.236632
0.237403
0.238491
0.239953
0.241845
0.244212
0.247072
0.250382
0.254025
0.25764
0.260861
0.262164
0.263248
0.263062
0.262633
0.262021
0.261319
0.260576
0.259796
0.258983
0.258154
0.257325
0.256502
0.255688
0.254885
0.254097
0.253324
0.252565
0.25182
0.251089
0.25037
0.249662
0.248964
0.248275
0.247594
0.246921
0.246254
0.245594
0.24494
0.244291
0.243648
0.243011
0.242381
0.241757
0.241142
0.240536
0.239942
0.23936
0.238794
0.238248
0.237726
0.237232
0.236774
0.236359
0.235999
0.235705
0.235494
0.235384
0.235399
0.235567
0.235922
0.236502
0.23735
0.238512
0.24003
0.241937
0.244241
0.246892
0.249775
0.252565
0.254927
0.255518
0.263174
0.262996
0.262583
0.261987
0.261297
0.26056
0.259785
0.258978
0.258153
0.257326
0.256504
0.255692
0.25489
0.254102
0.253329
0.25257
0.251825
0.251093
0.250373
0.249665
0.248966
0.248277
0.247596
0.246922
0.246254
0.245593
0.244938
0.244288
0.243644
0.243005
0.242373
0.241747
0.241128
0.240518
0.239918
0.23933
0.238755
0.238198
0.237661
0.23715
0.236669
0.236225
0.235828
0.235487
0.235216
0.235031
0.23495
0.234997
0.235198
0.235584
0.236188
0.237046
0.238187
0.239631
0.241375
0.243366
0.245495
0.247471
0.249007
0.248917
0.263113
0.262941
0.262541
0.261959
0.261278
0.260546
0.259776
0.258973
0.258152
0.257327
0.256507
0.255695
0.254894
0.254106
0.253333
0.252574
0.251829
0.251096
0.250376
0.249667
0.248968
0.248278
0.247596
0.246922
0.246254
0.245592
0.244936
0.244285
0.243639
0.242999
0.242364
0.241735
0.241114
0.240499
0.239894
0.239298
0.238715
0.238146
0.237595
0.237066
0.236561
0.236088
0.235654
0.235265
0.234934
0.234672
0.234494
0.234417
0.234462
0.234652
0.23501
0.235559
0.236319
0.237296
0.238479
0.23981
0.241188
0.242361
0.243091
0.242347
0.263065
0.262897
0.262507
0.261936
0.261262
0.260535
0.259769
0.258969
0.258151
0.257327
0.256508
0.255697
0.254897
0.25411
0.253336
0.252577
0.251831
0.251099
0.250379
0.249669
0.24897
0.248279
0.247597
0.246922
0.246253
0.24559
0.244933
0.244281
0.243634
0.242992
0.242355
0.241724
0.241098
0.24048
0.239868
0.239266
0.238674
0.238094
0.237528
0.23698
0.236452
0.235949
0.235477
0.23504
0.234647
0.234307
0.234031
0.233829
0.233717
0.233708
0.233817
0.234056
0.234432
0.23494
0.235558
0.236228
0.236857
0.237232
0.237174
0.235793
0.263029
0.262865
0.262482
0.261918
0.26125
0.260527
0.259763
0.258966
0.25815
0.257328
0.25651
0.255699
0.254899
0.254112
0.253338
0.252579
0.251834
0.251101
0.25038
0.24967
0.248971
0.24828
0.247597
0.246921
0.246252
0.245588
0.24493
0.244277
0.243629
0.242985
0.242346
0.241712
0.241083
0.24046
0.239843
0.239233
0.238632
0.23804
0.23746
0.236893
0.236342
0.235809
0.235297
0.234812
0.234357
0.233939
0.233563
0.233236
0.232965
0.232756
0.232615
0.232542
0.232531
0.232567
0.232618
0.232625
0.232505
0.232084
0.231246
0.229239
0.263005
0.262843
0.262465
0.261907
0.261243
0.260521
0.259759
0.258964
0.258149
0.257328
0.25651
0.2557
0.254901
0.254113
0.25334
0.252581
0.251835
0.251102
0.250381
0.249671
0.248971
0.24828
0.247596
0.24692
0.24625
0.245586
0.244927
0.244273
0.243623
0.242978
0.242336
0.241699
0.241067
0.240439
0.239817
0.2392
0.23859
0.237986
0.237391
0.236805
0.23623
0.235666
0.235117
0.234582
0.234065
0.233568
0.233092
0.232639
0.232208
0.231799
0.231406
0.231019
0.23062
0.230182
0.229665
0.229005
0.228134
0.226915
0.225298
0.222668
0.262993
0.262833
0.262456
0.261901
0.261239
0.260518
0.259757
0.258963
0.258149
0.257328
0.256511
0.255701
0.254901
0.254114
0.253341
0.252581
0.251835
0.251102
0.250381
0.249671
0.248971
0.248279
0.247595
0.246919
0.246248
0.245583
0.244923
0.244268
0.243617
0.24297
0.242326
0.241687
0.241051
0.240419
0.23979
0.239166
0.238547
0.237932
0.237322
0.236717
0.236117
0.235523
0.234935
0.234351
0.233772
0.233196
0.232619
0.232039
0.231449
0.230839
0.230194
0.229492
0.228705
0.227792
0.226703
0.225374
0.223746
0.221722
0.219322
0.216064
0.262993
0.262833
0.262456
0.261901
0.261239
0.260518
0.259757
0.258963
0.258149
0.257328
0.256511
0.255701
0.254901
0.254114
0.25334
0.252581
0.251835
0.251102
0.250381
0.24967
0.24897
0.248278
0.247594
0.246917
0.246246
0.24558
0.24492
0.244263
0.243611
0.242962
0.242316
0.241674
0.241034
0.240398
0.239764
0.239132
0.238503
0.237877
0.237252
0.236628
0.236004
0.23538
0.234753
0.23412
0.233478
0.232823
0.232146
0.23144
0.23069
0.229879
0.228982
0.227966
0.22679
0.225401
0.223738
0.221735
0.219343
0.216504
0.213307
0.209408
0.263005
0.262843
0.262465
0.261907
0.261243
0.260521
0.259759
0.258964
0.258149
0.257328
0.25651
0.2557
0.2549
0.254113
0.253339
0.25258
0.251834
0.251101
0.250379
0.249669
0.248968
0.248276
0.247592
0.246915
0.246243
0.245577
0.244916
0.244258
0.243604
0.242954
0.242306
0.241661
0.241018
0.240376
0.239737
0.239098
0.23846
0.237822
0.237182
0.236539
0.235891
0.235236
0.234571
0.233889
0.233185
0.232451
0.231675
0.230842
0.229934
0.228922
0.227774
0.226445
0.224881
0.223015
0.220776
0.218093
0.214927
0.211256
0.207243
0.20268
0.263029
0.262865
0.262482
0.261918
0.26125
0.260527
0.259763
0.258966
0.25815
0.257328
0.256509
0.255699
0.254899
0.254111
0.253337
0.252578
0.251832
0.251099
0.250377
0.249667
0.248966
0.248274
0.24759
0.246912
0.24624
0.245573
0.244911
0.244253
0.243598
0.242945
0.242295
0.241647
0.241001
0.240355
0.23971
0.239064
0.238417
0.237766
0.237112
0.23645
0.235779
0.235094
0.234389
0.233659
0.232894
0.232081
0.231206
0.230249
0.229182
0.227972
0.226574
0.224934
0.222981
0.220639
0.217822
0.214453
0.2105
0.205978
0.201119
0.195863
0.263064
0.262897
0.262507
0.261936
0.261262
0.260535
0.259768
0.258969
0.25815
0.257327
0.256508
0.255697
0.254896
0.254108
0.253335
0.252575
0.251829
0.251096
0.250375
0.249664
0.248964
0.248271
0.247587
0.246909
0.246237
0.245569
0.244906
0.244247
0.243591
0.242937
0.242285
0.241634
0.240984
0.240334
0.239683
0.23903
0.238373
0.237712
0.237042
0.236362
0.235667
0.234952
0.23421
0.233431
0.232604
0.231715
0.230742
0.22966
0.228437
0.22703
0.225385
0.223435
0.221097
0.218279
0.214881
0.21082
0.206066
0.200667
0.194924
0.188934
0.263113
0.262941
0.262541
0.261959
0.261277
0.260546
0.259776
0.258973
0.258151
0.257326
0.256506
0.255694
0.254893
0.254105
0.253331
0.252572
0.251826
0.251093
0.250372
0.249661
0.248961
0.248268
0.247584
0.246906
0.246233
0.245565
0.244901
0.244241
0.243584
0.242928
0.242274
0.24162
0.240967
0.240312
0.239656
0.238996
0.23833
0.237657
0.236973
0.236275
0.235556
0.234812
0.234032
0.233206
0.232319
0.231353
0.230283
0.229079
0.227702
0.226101
0.224211
0.221954
0.219234
0.215941
0.211962
0.2072
0.201626
0.19532
0.188646
0.181871
0.263173
0.262996
0.262583
0.261987
0.261297
0.26056
0.259785
0.258977
0.258152
0.257325
0.256504
0.255691
0.254889
0.2541
0.253327
0.252567
0.251821
0.251089
0.250368
0.249657
0.248957
0.248265
0.24758
0.246902
0.246229
0.245561
0.244896
0.244235
0.243576
0.242919
0.242263
0.241607
0.24095
0.240291
0.239629
0.238962
0.238288
0.237603
0.236905
0.236188
0.235447
0.234673
0.233857
0.232984
0.232038
0.230996
0.229832
0.228508
0.226979
0.225186
0.223055
0.220495
0.217396
0.21363
0.209068
0.203599
0.197186
0.189936
0.182275
0.174651
0.263247
0.263062
0.262633
0.262021
0.261319
0.260576
0.259796
0.258983
0.258154
0.257324
0.256501
0.255686
0.254884
0.254095
0.253321
0.252562
0.251816
0.251084
0.250363
0.249653
0.248953
0.248261
0.247576
0.246898
0.246224
0.245556
0.244891
0.244229
0.243569
0.24291
0.242252
0.241593
0.240933
0.24027
0.239603
0.238929
0.238245
0.23755
0.236838
0.236104
0.23534
0.234537
0.233685
0.232766
0.231762
0.230647
0.229389
0.227947
0.22627
0.224289
0.221921
0.219063
0.215589
0.211354
0.206209
0.200023
0.19275
0.184516
0.175797
0.167249
0.263335
0.26314
0.262692
0.26206
0.261345
0.260595
0.259808
0.258989
0.258155
0.257322
0.256497
0.255682
0.254878
0.254089
0.253315
0.252556
0.25181
0.251078
0.250358
0.249648
0.248948
0.248256
0.247572
0.246893
0.24622
0.245551
0.244885
0.244222
0.243561
0.242901
0.242241
0.24158
0.240916
0.240249
0.239576
0.238896
0.238204
0.237498
0.236772
0.23602
0.235235
0.234404
0.233516
0.232553
0.231492
0.230305
0.228956
0.2274
0.225577
0.223412
0.220813
0.217662
0.213818
0.209119
0.20339
0.196481
0.188323
0.179058
0.169202
0.15964
0.263437
0.26323
0.262759
0.262103
0.261375
0.260616
0.259822
0.258995
0.258156
0.25732
0.256493
0.255676
0.254871
0.254082
0.253308
0.252549
0.251804
0.251072
0.250352
0.249642
0.248943
0.248251
0.247567
0.246888
0.246215
0.245545
0.244879
0.244216
0.243554
0.242892
0.24223
0.241566
0.2409
0.240228
0.23955
0.238863
0.238163
0.237447
0.236707
0.235939
0.235132
0.234274
0.233352
0.232345
0.231229
0.229972
0.228535
0.226867
0.224902
0.222559
0.219733
0.216295
0.212089
0.20693
0.20062
0.192979
0.183912
0.173565
0.162477
0.151794
0.263555
0.263333
0.262834
0.262151
0.261407
0.26064
0.259837
0.259002
0.258157
0.257318
0.256488
0.255669
0.254864
0.254074
0.2533
0.252541
0.251796
0.251065
0.250345
0.249636
0.248937
0.248246
0.247561
0.246883
0.246209
0.24554
0.244873
0.244209
0.243546
0.242883
0.242219
0.241553
0.240883
0.240208
0.239525
0.238832
0.238124
0.237397
0.236645
0.23586
0.235032
0.234148
0.233193
0.232144
0.230974
0.22965
0.228127
0.22635
0.224248
0.221731
0.218685
0.214968
0.210407
0.204796
0.197907
0.189529
0.179526
0.168042
0.15561
0.143683
0.263688
0.26345
0.262916
0.262202
0.261443
0.260667
0.259854
0.259009
0.258158
0.257315
0.256483
0.255662
0.254855
0.254065
0.253291
0.252532
0.251788
0.251057
0.250338
0.24963
0.248931
0.24824
0.247556
0.246877
0.246204
0.245534
0.244867
0.244202
0.243538
0.242874
0.242208
0.24154
0.240867
0.240188
0.2395
0.238801
0.238085
0.237348
0.236584
0.235783
0.234935
0.234026
0.233038
0.231949
0.230728
0.229338
0.227733
0.225851
0.223617
0.220932
0.217673
0.213686
0.208778
0.202722
0.19526
0.18614
0.175175
0.162493
0.148592
0.135276
0.26384
0.26358
0.263005
0.262257
0.261481
0.260695
0.259872
0.259017
0.258159
0.257312
0.256477
0.255654
0.254846
0.254055
0.253281
0.252522
0.251778
0.251048
0.25033
0.249622
0.248924
0.248233
0.24755
0.246872
0.246198
0.245528
0.244861
0.244195
0.24353
0.242865
0.242197
0.241527
0.240851
0.240169
0.239476
0.238771
0.238047
0.237301
0.236524
0.235709
0.234842
0.233908
0.23289
0.231761
0.230491
0.229039
0.227354
0.225372
0.22301
0.220164
0.2167
0.212451
0.207207
0.200718
0.192688
0.182824
0.170871
0.156928
0.141412
0.126539
0.264011
0.263724
0.263101
0.262315
0.261522
0.260727
0.25989
0.259024
0.258159
0.257308
0.25647
0.255644
0.254835
0.254044
0.25327
0.252512
0.251768
0.251039
0.250321
0.249614
0.248916
0.248226
0.247543
0.246865
0.246192
0.245522
0.244854
0.244188
0.243522
0.242855
0.242187
0.241514
0.240836
0.24015
0.239453
0.238742
0.238011
0.237256
0.236468
0.235637
0.234752
0.233796
0.232748
0.231582
0.230265
0.228753
0.226992
0.224914
0.222431
0.21943
0.215769
0.211269
0.205701
0.19879
0.190202
0.179595
0.166629
0.151358
0.134062
0.117439
0.264203
0.263883
0.263202
0.262375
0.261566
0.26076
0.259909
0.259031
0.258159
0.257304
0.256462
0.255634
0.254824
0.254032
0.253258
0.2525
0.251757
0.251029
0.250312
0.249606
0.248908
0.248219
0.247536
0.246859
0.246186
0.245516
0.244848
0.244181
0.243514
0.242847
0.242176
0.241502
0.240821
0.240131
0.23943
0.238714
0.237976
0.237212
0.236413
0.235569
0.234666
0.233688
0.232612
0.231411
0.230049
0.22848
0.226648
0.224478
0.221879
0.218732
0.214884
0.210143
0.204265
0.196945
0.187812
0.176466
0.162467
0.145802
0.126538
0.107942
0.264419
0.264057
0.263308
0.262436
0.261613
0.260796
0.259929
0.259038
0.258158
0.257298
0.256453
0.255623
0.254811
0.254019
0.253245
0.252488
0.251746
0.251018
0.250302
0.249596
0.2489
0.248211
0.247529
0.246852
0.246179
0.245509
0.244841
0.244174
0.243506
0.242838
0.242166
0.241489
0.240806
0.240114
0.239408
0.238687
0.237943
0.237171
0.236361
0.235504
0.234585
0.233586
0.232484
0.231249
0.229845
0.228223
0.226322
0.224067
0.221359
0.218072
0.214047
0.209079
0.202904
0.195193
0.18553
0.173453
0.158405
0.140279
0.11884
0.0980111
0.264662
0.264247
0.263416
0.262497
0.261663
0.260833
0.259948
0.259043
0.258157
0.257292
0.256443
0.25561
0.254797
0.254004
0.253231
0.252474
0.251733
0.251006
0.250291
0.249587
0.248891
0.248203
0.247522
0.246845
0.246172
0.245502
0.244834
0.244167
0.243499
0.242829
0.242156
0.241478
0.240792
0.240096
0.239388
0.238661
0.237911
0.237131
0.236312
0.235443
0.234508
0.233489
0.232363
0.231097
0.229654
0.227981
0.226017
0.22368
0.22087
0.217453
0.213262
0.208079
0.201624
0.193541
0.183368
0.170576
0.154467
0.134819
0.110973
0.0876103
0.264936
0.264452
0.263524
0.262559
0.261716
0.260872
0.259967
0.259049
0.258155
0.257285
0.256432
0.255596
0.254782
0.253989
0.253216
0.25246
0.25172
0.250994
0.25028
0.249576
0.248882
0.248195
0.247514
0.246837
0.246165
0.245495
0.244827
0.244159
0.243491
0.24282
0.242146
0.241466
0.240778
0.24008
0.239368
0.238637
0.237881
0.237094
0.236266
0.235385
0.234436
0.233399
0.23225
0.230955
0.229475
0.227756
0.225732
0.223321
0.220415
0.216877
0.212531
0.207147
0.20043
0.191996
0.181338
0.167852
0.150682
0.129457
0.102954
0.076703
0.265246
0.264672
0.263629
0.26262
0.261772
0.260913
0.259986
0.259053
0.258152
0.257277
0.256419
0.255581
0.254765
0.253972
0.253199
0.252444
0.251705
0.25098
0.250268
0.249565
0.248872
0.248186
0.247505
0.24683
0.246158
0.245488
0.24482
0.244152
0.243483
0.242812
0.242136
0.241455
0.240765
0.240065
0.239349
0.238613
0.237853
0.237059
0.236222
0.235331
0.234369
0.233315
0.232145
0.230824
0.22931
0.227548
0.225469
0.222989
0.219995
0.216346
0.211857
0.206289
0.199328
0.190568
0.179452
0.165302
0.147084
0.12424
0.0948128
0.065249
0.265598
0.264906
0.26373
0.26268
0.26183
0.260952
0.260002
0.259057
0.258149
0.257268
0.256406
0.255565
0.254748
0.253955
0.253182
0.252428
0.25169
0.250966
0.250255
0.249554
0.248862
0.248176
0.247497
0.246822
0.24615
0.245481
0.244813
0.244145
0.243476
0.242804
0.242127
0.241444
0.240753
0.24005
0.239331
0.238592
0.237826
0.237026
0.236182
0.235281
0.234307
0.233238
0.232049
0.230704
0.229159
0.227358
0.22523
0.222686
0.219613
0.215862
0.211243
0.205507
0.198326
0.189266
0.177727
0.162953
0.143715
0.119227
0.0866077
0.0532048
0.266002
0.265147
0.263821
0.262745
0.261895
0.260991
0.260015
0.259056
0.258141
0.257255
0.256388
0.255545
0.254728
0.253935
0.253163
0.252411
0.251674
0.250952
0.250242
0.249542
0.248851
0.248167
0.247488
0.246814
0.246143
0.245474
0.244806
0.244138
0.243468
0.242796
0.242118
0.241435
0.240741
0.240036
0.239315
0.238572
0.237802
0.236997
0.236146
0.235236
0.23425
0.233168
0.231962
0.230595
0.229023
0.227187
0.225014
0.222415
0.21927
0.215429
0.210694
0.204808
0.197428
0.1881
0.176179
0.16083
0.140625
0.114496
0.0784386
0.0405505
0.266471
0.265387
0.263887
0.262814
0.261977
0.261045
0.26004
0.259066
0.258142
0.257247
0.256375
0.255528
0.254709
0.253915
0.253144
0.252391
0.251656
0.250936
0.250227
0.249529
0.248839
0.248156
0.247479
0.246806
0.246135
0.245467
0.244799
0.244131
0.243461
0.242788
0.24211
0.241425
0.240731
0.240023
0.239299
0.238554
0.23778
0.236969
0.236112
0.235194
0.2342
0.233105
0.231884
0.230499
0.228903
0.227036
0.224824
0.222175
0.218969
0.215048
0.210212
0.204194
0.196641
0.187078
0.174819
0.158957
0.137862
0.110131
0.0704369
0.0272825
0.267028
0.265632
0.26389
0.262817
0.261999
0.261049
0.260029
0.259051
0.258125
0.257229
0.256356
0.25551
0.254691
0.253898
0.253128
0.252377
0.251643
0.250923
0.250215
0.249518
0.248829
0.248147
0.24747
0.246797
0.246127
0.245458
0.244791
0.244123
0.243453
0.24278
0.242102
0.241416
0.24072
0.240012
0.239286
0.238538
0.237761
0.236946
0.236084
0.23516
0.234157
0.233052
0.231818
0.230417
0.228801
0.226909
0.224663
0.221973
0.218714
0.214727
0.209806
0.203679
0.195982
0.186222
0.17368
0.15738
0.13551
0.106273
0.062843
0.0132794
0.267681
0.266068
0.264131
0.263021
0.262144
0.261126
0.260062
0.259057
0.25811
0.257198
0.256317
0.255467
0.254648
0.253857
0.25309
0.252343
0.251613
0.250898
0.250195
0.249502
0.248817
0.248137
0.247463
0.246792
0.246124
0.245457
0.24479
0.244122
0.243452
0.242777
0.242098
0.24141
0.240713
0.240001
0.239272
0.238521
0.23774
0.236921
0.236054
0.235124
0.234114
0.233001
0.231757
0.230344
0.228713
0.226801
0.224534
0.221815
0.218518
0.214484
0.209502
0.203296
0.195493
0.185587
0.172835
0.156202
0.133733
0.103215
0.056231
-0.00171188
0.267833
0.265574
0.263817
0.262992
0.262179
0.261163
0.26011
0.259111
0.258162
0.257243
0.256353
0.255495
0.254668
0.253871
0.253098
0.252347
0.251613
0.250894
0.250188
0.249492
0.248804
0.248123
0.247446
0.246774
0.246104
0.245435
0.244767
0.244098
0.243427
0.242752
0.242072
0.241384
0.240686
0.239975
0.239246
0.238494
0.237713
0.236893
0.236024
0.235092
0.234079
0.232964
0.231716
0.230298
0.228658
0.226736
0.224457
0.22172
0.218402
0.214341
0.209324
0.203073
0.195208
0.185216
0.172336
0.155497
0.132656
0.10123
0.0515001
-0.0173684
0.271772
0.266358
0.263864
0.262997
0.262113
0.261024
0.25994
0.258937
0.257994
0.257087
0.256211
0.255368
0.254556
0.253771
0.253009
0.252267
0.251542
0.25083
0.25013
0.249439
0.248756
0.248079
0.247407
0.246738
0.246071
0.245406
0.24474
0.244074
0.243405
0.242732
0.242053
0.241366
0.240669
0.239958
0.239229
0.238477
0.237694
0.236874
0.236004
0.235071
0.234057
0.232939
0.231691
0.230276
0.228639
0.226716
0.224433
0.221692
0.218369
0.214301
0.209275
0.20301
0.195128
0.18511
0.172189
0.155277
0.132296
0.100497
0.0492916
-0.0280514
0.422552
0.34105
0.280042
0.249855
0.229228
0.209834
0.19351
0.181844
0.173985
0.168531
0.164743
0.162325
0.161197
0.161379
0.163045
0.166798
0.17338
0.186102
0.186113
0.159103
0.140949
0.132209
0.125172
0.116665
0.106511
0.0943553
0.0786854
0.0568249
0.0245867
-0.0265483
-0.115358
-0.301818
-0.738509
-0.781891
-0.358875
-0.389048
-0.329315
-0.29016
-0.236864
-0.186389
-0.138792
-0.098234
-0.0657804
-0.0415796
-0.0246825
-0.0135145
-0.0063949
-0.00187163
0.00111992
0.0032369
0.0048019
0.00592067
0.00660074
0.00683705
0.0066517
0.00609928
0.00525671
0.00421208
0.00316872
0.00149607
0.418046
0.334898
0.274742
0.246601
0.226833
0.207832
0.191943
0.18071
0.173163
0.167952
0.164375
0.162091
0.16108
0.161354
0.163108
0.166946
0.173532
0.184162
0.182196
0.156873
0.13949
0.131182
0.124274
0.115707
0.105431
0.0930651
0.0770077
0.0544781
0.0210784
-0.0320761
-0.124007
-0.302429
-0.629843
-0.704838
-0.378567
-0.390647
-0.334979
-0.296064
-0.243464
-0.193028
-0.145088
-0.10381
-0.070465
-0.0453285
-0.0275788
-0.0157135
-0.00807109
-0.00317998
6.46683e-05
0.00236413
0.0040769
0.0053304
0.00614003
0.00649929
0.00642534
0.00596696
0.0051986
0.00420216
0.00314191
0.0015341
0.410074
0.33021
0.27184
0.244898
0.225533
0.206788
0.191215
0.180245
0.172881
0.167784
0.164213
0.16195
0.160992
0.16131
0.163086
0.166868
0.172968
0.181573
0.178855
0.156025
0.139163
0.130854
0.123923
0.115314
0.104991
0.0925423
0.0763181
0.053497
0.0196015
-0.0341271
-0.12537
-0.286258
-0.543438
-0.627975
-0.392125
-0.388471
-0.336545
-0.298902
-0.247254
-0.197183
-0.149275
-0.107678
-0.0738244
-0.0480989
-0.0297836
-0.0174399
-0.00942842
-0.00427029
-0.000836871
0.00160142
0.00342701
0.00478238
0.00568891
0.00614013
0.00615076
0.00576733
0.00506007
0.00410328
0.00300263
0.00159901
0.400003
0.325334
0.268446
0.242244
0.223428
0.205137
0.18997
0.179324
0.172185
0.167227
0.163774
0.161713
0.16082
0.161172
0.162937
0.166559
0.172059
0.178897
0.175477
0.154687
0.138395
0.130139
0.123302
0.114767
0.104471
0.0920006
0.0756832
0.0526788
0.0185257
-0.0352171
-0.123679
-0.269583
-0.472361
-0.565185
-0.399454
-0.384356
-0.337441
-0.300515
-0.250256
-0.20047
-0.152656
-0.110825
-0.0765795
-0.0503883
-0.0316203
-0.0188924
-0.0105839
-0.00521028
-0.00162377
0.000927777
0.00284609
0.00428605
0.00527431
0.00580462
0.00588954
0.00557301
0.00492069
0.00400498
0.0028726
0.00163069
0.388516
0.319882
0.264791
0.239271
0.221146
0.203437
0.188735
0.178445
0.171562
0.166797
0.163516
0.161474