/*--------------------------------*- C++ -*----------------------------------*\
| =========                 |                                                 |
| \\      /  F ield         | OpenFOAM: The Open Source CFD Toolbox           |
|  \\    /   O peration     | Version:  2.4.0                                 |
|   \\  /    A nd           | Web:      www.OpenFOAM.org                      |
|    \\/     M anipulation  |                                                 |
\*---------------------------------------------------------------------------*/
FoamFile
{
    version     2.0;
    format      ascii;
    class       volScalarField;
    location    "400";
    object      p;
}
// * * * * * * * * * * * * * * * * * * * * * * * * * * * * * * * * * * * * * //

dimensions      [0 2 -2 0 0 0 0];

internalField   nonuniform List<scalar> 
23567
(
-4.57573
-5.39444
-5.75194
-5.8694
-5.98945
-6.1103
-6.20715
-6.28766
-6.35969
-6.42414
-6.48161
-6.53214
-6.57618
-6.61356
-6.64432
-6.66766
-6.68323
-6.69027
-6.69273
-6.68831
-6.67692
-6.65547
-6.62971
-6.58163
-6.54714
-4.77861
-5.41906
-5.74675
-5.86485
-5.98444
-6.10442
-6.20238
-6.28394
-6.35657
-6.42125
-6.47873
-6.52902
-6.5726
-6.60946
-6.63971
-6.66272
-6.6786
-6.68692
-6.6897
-6.68561
-6.67441
-6.65413
-6.62804
-6.58462
-6.55572
-4.95647
-5.43281
-5.74639
-5.87646
-5.99642
-6.11347
-6.20935
-6.28933
-6.36037
-6.42342
-6.47953
-6.52853
-6.57094
-6.60681
-6.63638
-6.65911
-6.67543
-6.68493
-6.6882
-6.68481
-6.67461
-6.65631
-6.63189
-6.59477
-6.55924
-5.12674
-5.47547
-5.76032
-5.89458
-6.00882
-6.12039
-6.21312
-6.29175
-6.36167
-6.4242
-6.47976
-6.52835
-6.57051
-6.60629
-6.63606
-6.65924
-6.67613
-6.6864
-6.69043
-6.68823
-6.67971
-6.66406
-6.64263
-6.6118
-6.5804
-5.27325
-5.53145
-5.78167
-5.9149
-6.02482
-6.13076
-6.22102
-6.29849
-6.3671
-6.42886
-6.48321
-6.53089
-6.57224
-6.60761
-6.63703
-6.66003
-6.67707
-6.68795
-6.6929
-6.69206
-6.68542
-6.67263
-6.65473
-6.63048
-6.60564
-5.3974
-5.59077
-5.80802
-5.9379
-6.04365
-6.14417
-6.23151
-6.30717
-6.3743
-6.43452
-6.48773
-6.53459
-6.5753
-6.6104
-6.63948
-6.66264
-6.68009
-6.69178
-6.69785
-6.69853
-6.69398
-6.68425
-6.67025
-6.65219
-6.6339
-5.50727
-5.65137
-5.83803
-5.96265
-6.06389
-6.15928
-6.24351
-6.31719
-6.38278
-6.44155
-6.49375
-6.53983
-6.57999
-6.6146
-6.64352
-6.667
-6.68494
-6.69747
-6.70476
-6.70711
-6.70484
-6.69822
-6.68819
-6.67565
-6.66328
-5.60734
-5.71382
-5.87195
-5.98923
-6.08543
-6.17576
-6.25672
-6.32827
-6.39227
-6.44971
-6.50093
-6.54627
-6.58595
-6.62025
-6.64918
-6.67297
-6.69163
-6.7052
-6.71388
-6.7181
-6.71826
-6.71479
-6.70862
-6.70091
-6.69353
-5.69954
-5.77778
-5.91002
-6.01812
-6.10872
-6.1939
-6.27136
-6.34059
-6.40288
-6.45901
-6.50926
-6.55394
-6.59325
-6.62742
-6.65652
-6.68077
-6.70029
-6.71506
-6.72532
-6.73158
-6.73429
-6.73399
-6.73151
-6.72799
-6.72464
-5.77097
-5.83152
-5.94486
-6.04423
-6.12969
-6.21049
-6.28481
-6.35193
-6.41268
-6.46766
-6.51711
-6.56128
-6.60033
-6.6345
-6.66386
-6.68861
-6.70895
-6.72482
-6.7365
-6.74453
-6.74937
-6.75156
-6.75185
-6.75129
-6.75061
-5.82765
-5.87664
-5.97551
-6.06753
-6.14853
-6.22552
-6.2971
-6.36232
-6.4217
-6.47567
-6.52443
-6.56818
-6.60705
-6.64125
-6.67089
-6.69613
-6.7172
-6.73405
-6.74698
-6.75652
-6.76313
-6.76734
-6.76981
-6.77146
-6.77275
-5.88464
-5.92407
-6.00924
-6.0936
-6.16977
-6.24269
-6.31129
-6.37441
-6.43228
-6.48516
-6.53319
-6.57652
-6.61525
-6.64956
-6.67956
-6.7054
-6.72733
-6.74531
-6.75964
-6.77085
-6.77936
-6.78567
-6.79035
-6.79416
-6.79736
-5.94178
-5.97343
-6.04604
-6.12253
-6.19358
-6.26223
-6.32763
-6.38848
-6.4447
-6.49643
-6.5437
-6.58661
-6.62524
-6.65974
-6.69021
-6.7168
-6.73973
-6.75898
-6.77489
-6.78792
-6.79846
-6.80696
-6.81389
-6.81986
-6.82497
-5.99885
-6.0243
-6.08572
-6.15435
-6.22009
-6.28435
-6.34638
-6.4048
-6.45927
-6.50977
-6.55626
-6.59879
-6.63738
-6.67216
-6.70322
-6.73069
-6.75476
-6.77545
-6.79309
-6.80809
-6.8208
-6.83159
-6.84084
-6.84902
-6.85613
-6.05569
-6.0763
-6.12797
-6.18896
-6.24935
-6.30918
-6.36773
-6.42361
-6.47625
-6.52549
-6.57122
-6.6134
-6.65204
-6.68721
-6.71897
-6.74748
-6.77285
-6.79515
-6.81471
-6.83184
-6.84685
-6.86006
-6.87174
-6.88225
-6.89153
-6.11212
-6.12902
-6.17239
-6.22619
-6.2813
-6.33677
-6.39183
-6.44513
-6.49592
-6.5439
-6.5889
-6.63081
-6.66959
-6.70527
-6.73791
-6.76762
-6.79445
-6.81856
-6.84021
-6.85966
-6.87715
-6.89293
-6.90722
-6.92026
-6.93199
-6.16795
-6.18201
-6.2185
-6.26574
-6.3158
-6.36709
-6.41875
-6.4695
-6.51848
-6.56527
-6.60961
-6.65136
-6.69041
-6.72677
-6.76046
-6.79153
-6.82005
-6.84619
-6.87014
-6.8921
-6.91227
-6.93084
-6.94797
-6.96383
-6.97837
-6.22288
-6.23479
-6.2657
-6.30718
-6.35256
-6.39998
-6.44846
-6.49679
-6.54408
-6.5898
-6.63363
-6.67537
-6.71487
-6.7521
-6.78702
-6.81967
-6.85013
-6.87853
-6.90501
-6.92973
-6.95282
-6.97444
-6.99472
-7.01376
-7.03156
-6.27651
-6.2868
-6.31332
-6.34991
-6.39116
-6.43511
-6.48074
-6.52693
-6.57274
-6.6176
-6.66113
-6.70308
-6.74325
-6.78155
-6.81795
-6.85247
-6.88515
-6.91607
-6.94535
-6.97309
-6.9994
-7.02441
-7.04819
-7.07084
-7.09237
-6.32822
-6.33732
-6.3605
-6.39317
-6.43095
-6.47198
-6.51524
-6.55967
-6.60435
-6.64866
-6.69218
-6.7346
-6.77571
-6.8154
-6.85359
-6.89028
-6.92547
-6.95921
-6.99159
-7.02267
-7.05255
-7.0813
-7.109
-7.13571
-7.16148
-6.37715
-6.38536
-6.40615
-6.43592
-6.47104
-6.50984
-6.55135
-6.59455
-6.63855
-6.68273
-6.72662
-6.76989
-6.81232
-6.85375
-6.89408
-6.93327
-6.9713
-7.00821
-7.04402
-7.0788
-7.11261
-7.1455
-7.17753
-7.20876
-7.23926
-6.42203
-6.42968
-6.44892
-6.47679
-6.51018
-6.5476
-6.5881
-6.63075
-6.67469
-6.71928
-6.76405
-6.80865
-6.85284
-6.89642
-6.93928
-6.98135
-7.0226
-7.06303
-7.10265
-7.1415
-7.17961
-7.21702
-7.2538
-7.28997
-7.32564
-6.46103
-6.46841
-6.48692
-6.51396
-6.54669
-6.5837
-6.62413
-6.66708
-6.71172
-6.75741
-6.80369
-6.85019
-6.89665
-6.94287
-6.98871
-7.0341
-7.07897
-7.1233
-7.1671
-7.21037
-7.25314
-7.29544
-7.33731
-7.37878
-7.41994
-6.49023
-6.49753
-6.51615
-6.54357
-6.57685
-6.61462
-6.65605
-6.70028
-6.74649
-6.79404
-6.84247
-6.89144
-6.94065
-6.98992
-7.03908
-7.08806
-7.13678
-7.18521
-7.23333
-7.28114
-7.32866
-7.37589
-7.42288
-7.46963
-7.51625
-6.50614
-6.51361
-6.53325
-6.56218
-6.59713
-6.6367
-6.68009
-6.72642
-6.77488
-6.82485
-6.87586
-6.92758
-6.97973
-7.03212
-7.0846
-7.13707
-7.18946
-7.24174
-7.29388
-7.34586
-7.39769
-7.44939
-7.50096
-7.55241
-7.60385
-6.50944
-6.51755
-6.53898
-6.57031
-6.60782
-6.64998
-6.696
-6.74499
-6.79611
-6.84877
-6.90252
-6.95703
-7.01207
-7.06743
-7.12298
-7.17863
-7.23432
-7.29
-7.34564
-7.40123
-7.45677
-7.51226
-7.5677
-7.62309
-7.67854
-6.50196
-6.51118
-6.5352
-6.56981
-6.61066
-6.65607
-6.70525
-6.75729
-6.81135
-6.86685
-6.92338
-6.98066
-7.03845
-7.09659
-7.15496
-7.21348
-7.27208
-7.33074
-7.38942
-7.44811
-7.50681
-7.5655
-7.6242
-7.68288
-7.74166
-6.48501
-6.49589
-6.52346
-6.56231
-6.60724
-6.65645
-6.7092
-6.76457
-6.82172
-6.88011
-6.9394
-6.99933
-7.05971
-7.12041
-7.18133
-7.2424
-7.30358
-7.36482
-7.42612
-7.48746
-7.54882
-7.61022
-7.67164
-7.73306
-7.7946
-6.4597
-6.47273
-6.50508
-6.54928
-6.59899
-6.65246
-6.7091
-6.76798
-6.82827
-6.88952
-6.95146
-7.0139
-7.07668
-7.1397
-7.2029
-7.26622
-7.32963
-7.39311
-7.45665
-7.52023
-7.58385
-7.64751
-7.71119
-7.77488
-7.83869
-6.42674
-6.44259
-6.48132
-6.5321
-6.5872
-6.64529
-6.70605
-6.76852
-6.83192
-6.89593
-6.96038
-7.02513
-7.09009
-7.15519
-7.2204
-7.28568
-7.35103
-7.41643
-7.48187
-7.54734
-7.61285
-7.67838
-7.74394
-7.80948
-7.87515
-6.38644
-6.40623
-6.45346
-6.51208
-6.57307
-6.63604
-6.70103
-6.76705
-6.83344
-6.90005
-6.96682
-7.03367
-7.10057
-7.1675
-7.23446
-7.30144
-7.36844
-7.43546
-7.5025
-7.56956
-7.63662
-7.7037
-7.77079
-7.83784
-7.90501
-6.33888
-6.3644
-6.42283
-6.49043
-6.55756
-6.62562
-6.69485
-6.76427
-6.83346
-6.90246
-6.9713
-7.04002
-7.10861
-7.17713
-7.24558
-7.314
-7.38239
-7.45076
-7.51912
-7.58747
-7.65581
-7.72413
-7.79243
-7.86069
-7.92902
-6.28385
-6.31799
-6.3908
-6.46823
-6.54147
-6.61471
-6.6881
-6.76069
-6.83241
-6.90353
-6.97419
-7.0445
-7.11453
-7.18437
-7.25407
-7.32366
-7.39318
-7.46265
-7.53207
-7.60145
-7.67079
-7.74009
-7.80934
-7.87851
-7.94772
-6.22078
-6.26799
-6.35887
-6.44642
-6.52548
-6.60377
-6.68108
-6.75653
-6.83049
-6.90341
-6.97558
-7.0472
-7.11841
-7.18931
-7.25999
-7.33052
-7.40093
-7.47126
-7.54151
-7.61169
-7.6818
-7.75184
-7.8218
-7.89164
-7.96149
-6.14884
-6.21555
-6.32849
-6.42559
-6.50992
-6.59301
-6.67388
-6.75174
-6.82757
-6.90199
-6.97537
-7.04804
-7.12017
-7.19191
-7.26336
-7.33461
-7.40572
-7.47671
-7.54761
-7.61841
-7.68912
-7.75973
-7.83023
-7.90057
-7.97086
-6.06681
-6.16197
-6.30072
-6.40584
-6.49461
-6.58218
-6.66621
-6.74608
-6.82341
-6.89905
-6.97341
-7.04692
-7.1198
-7.19221
-7.26429
-7.33615
-7.40784
-7.4794
-7.55084
-7.62217
-7.69338
-7.76446
-7.83541
-7.90618
-7.9768
-5.97237
-6.10767
-6.27577
-6.38681
-6.47919
-6.57098
-6.65791
-6.73955
-6.81823
-6.89501
-6.97031
-7.04464
-7.11824
-7.1913
-7.26398
-7.33642
-7.40865
-7.48072
-7.55265
-7.62444
-7.6961
-7.76759
-7.83891
-7.91003
-7.98089
-5.85937
-6.05255
-6.25373
-6.36884
-6.46457
-6.56067
-6.65013
-6.73303
-6.81269
-6.89034
-6.96639
-7.04142
-7.11562
-7.18926
-7.26252
-7.33554
-7.40835
-7.48099
-7.55348
-7.62583
-7.69801
-7.77003
-7.84181
-7.91343
-7.98464
-5.71981
-6.00363
-6.23564
-6.35126
-6.45109
-6.55328
-6.64607
-6.73062
-6.81155
-6.89019
-6.96704
-7.04274
-7.11734
-7.1913
-7.26483
-7.33813
-7.41117
-7.48406
-7.55675
-7.62933
-7.7017
-7.77392
-7.84583
-7.91767
-7.98885
-5.55756
-5.98751
-6.23546
-6.34185
-6.43963
-6.54455
-6.63841
-6.7235
-6.80522
-6.88496
-6.96287
-7.03955
-7.11506
-7.18996
-7.26434
-7.33849
-7.41227
-7.48593
-7.5593
-7.63258
-7.70555
-7.77841
-7.85078
-7.92324
-7.99468
-5.36217
-5.96061
-6.24065
-6.34658
-6.44621
-6.55377
-6.6474
-6.73164
-6.81257
-6.89162
-6.96885
-7.04498
-7.12008
-7.19475
-7.26895
-7.34305
-7.41681
-7.49057
-7.56403
-7.63751
-7.71065
-7.78377
-7.85642
-7.92902
-8.00081
-8.2254
-8.23029
-8.23962
-8.25289
-8.26729
-8.27993
-8.28708
-8.28469
-8.27027
-8.2435
-8.20675
-8.1641
-8.12041
-8.0804
-8.04769
-8.02284
-8.00599
-7.99786
-7.99701
-8.00118
-8.00804
-8.01544
-8.0216
-8.0254
-8.02608
-8.02342
-8.01769
-8.00988
-8.00107
-7.99226
-7.98431
-7.97793
-7.97332
-7.97016
-7.96777
-7.96542
-7.96277
-7.9599
-7.9574
-7.95686
-7.95977
-7.96711
-7.97852
-7.99161
-8.00262
-8.00933
-8.01078
-8.00788
-8.00728
-8.02016
-8.09024
-8.27758
-8.60089
-9.048
-9.60023
-10.2365
-10.9372
-11.6847
-12.4641
-13.2628
-14.0706
-14.8791
-15.6819
-16.4738
-17.2511
-18.0107
-18.7506
-19.4692
-20.1655
-20.8388
-21.489
-22.1159
-22.7197
-23.3005
-23.8586
-24.3944
-24.9084
-25.401
-25.8726
-26.3236
-26.7544
-27.1654
-27.5569
-27.929
-28.2822
-28.6166
-28.9324
-29.2297
-29.5084
-29.7686
-30.0107
-30.2346
-30.4403
-30.6278
-30.797
-30.9478
-31.08
-31.1934
-31.2881
-31.364
-31.4213
-31.4596
-31.4788
-31.4785
-31.4589
-31.4202
-31.3626
-31.2861
-31.1897
-31.0731
-30.9367
-30.7817
-30.6091
-30.418
-30.2061
-29.9726
-29.7197
-29.4499
-29.1622
-28.8552
-28.5291
-28.1837
-27.819
-27.4349
-27.0315
-26.6086
-26.1661
-25.7035
-25.2207
-24.717
-24.192
-23.645
-23.0754
-22.4823
-21.8647
-21.2218
-20.5522
-19.8549
-19.1285
-18.3716
-17.5827
-16.7601
-15.9022
-15.0074
-14.0743
-13.1012
-12.0867
-11.0293
-9.92771
-8.78097
-7.58831
-6.34958
-5.06543
-3.73713
-2.36648
-0.956436
0.488025
1.95995
3.45161
4.95428
6.45746
7.94929
9.41745
10.849
12.2294
13.5444
14.7821
15.9318
16.9826
17.9264
18.7579
19.4748
20.0743
20.5539
20.9189
21.191
21.3779
21.4738
21.4824
21.4127
21.2749
21.0785
20.833
20.5475
20.2288
19.882
19.514
19.1314
18.7395
18.3431
17.9461
17.5522
17.1643
16.785
16.4167
16.0614
15.721
15.3971
15.0911
14.804
14.5368
14.2901
14.0645
13.8603
13.6776
13.5165
13.3767
13.2583
13.1605
13.083
13.0256
12.9864
12.9655
12.9623
12.9759
13.0052
13.049
13.1065
13.1767
13.2582
13.3494
13.4492
13.5567
13.6706
13.7901
13.9141
14.0415
14.1715
14.3033
14.4359
14.5687
14.701
14.8323
14.9621
15.09
15.2156
15.3387
15.4592
15.577
15.6921
15.8048
15.9151
16.0236
16.1308
16.2374
16.3443
16.4529
16.5646
16.6822
16.8071
16.9496
17.0979
17.3087
17.4773
-8.24632
-8.25331
-8.26817
-8.28736
-8.30761
-8.32463
-8.33335
-8.32981
-8.31312
-8.28512
-8.24834
-8.20648
-8.16372
-8.12414
-8.09104
-8.06697
-8.0522
-8.04471
-8.04275
-8.04447
-8.04814
-8.05184
-8.0541
-8.05391
-8.05065
-8.04386
-8.03431
-8.02302
-8.011
-7.99918
-7.98838
-7.97918
-7.9717
-7.9656
-7.96044
-7.95572
-7.95149
-7.94837
-7.94726
-7.94938
-7.95545
-7.96486
-7.976
-7.98507
-7.98273
-7.96597
-7.95472
-7.97256
-8.00313
-8.06081
-8.18732
-8.41558
-8.75929
-9.2159
-9.77005
-10.4034
-11.0977
-11.8365
-12.6054
-13.3926
-14.1882
-14.9845
-15.7756
-16.5568
-17.3242
-18.0748
-18.8062
-19.517
-20.2062
-20.8731
-21.5175
-22.1393
-22.7387
-23.3156
-23.8703
-24.4032
-24.9146
-25.405
-25.8746
-26.3241
-26.7535
-27.1634
-27.5539
-27.9255
-28.2781
-28.6122
-28.9278
-29.2252
-29.5045
-29.7657
-30.0086
-30.2333
-30.4397
-30.6279
-30.7979
-30.9494
-31.0824
-31.1968
-31.2925
-31.3694
-31.4276
-31.4669
-31.4871
-31.4881
-31.4698
-31.4323
-31.3757
-31.3
-31.2048
-31.0899
-30.9553
-30.8018
-30.6297
-30.4387
-30.2282
-29.9974
-29.7467
-29.4779
-29.1912
-28.8856
-28.5611
-28.2175
-27.8547
-27.4726
-27.0712
-26.6504
-26.2102
-25.7502
-25.27
-24.7693
-24.2474
-23.7038
-23.1378
-22.5487
-21.9355
-21.2972
-20.6327
-19.9407
-19.2201
-18.4696
-17.6876
-16.8724
-16.0223
-15.1358
-14.2116
-13.2481
-12.2439
-11.1974
-10.1074
-8.97285
-7.79292
-6.56732
-5.29669
-3.98246
-2.62631
-1.23046
0.200668
1.65955
3.13822
4.62874
6.12132
7.6045
9.06634
10.4951
11.878
13.1994
14.443
15.5974
16.6548
17.6074
18.4492
19.1768
19.7886
20.2868
20.6761
20.9568
21.1388
21.2346
21.248
21.1865
21.0587
20.8733
20.6388
20.3625
20.0518
19.7143
19.3566
18.9847
18.6036
18.2176
17.8305
17.446
17.0669
16.6958
16.3352
15.987
15.6533
15.3356
15.0354
14.7537
14.4915
14.2495
14.0282
13.8279
13.649
13.4912
13.3547
13.2392
13.144
13.0691
13.0135
12.976
12.9571
12.9558
12.9709
13.0016
13.0466
13.1052
13.1762
13.2583
13.3503
13.4508
13.5589
13.6734
13.7934
13.9178
14.0456
14.1759
14.3079
14.4407
14.5736
14.706
14.8374
14.9672
15.095
15.2206
15.3436
15.464
15.5817
15.6966
15.8091
15.9192
16.0274
16.1342
16.2405
16.347
16.455
16.5659
16.6822
16.8057
16.9444
17.0907
17.284
17.435
-8.28168
-8.28806
-8.29791
-8.30981
-8.32206
-8.33197
-8.33644
-8.33269
-8.31918
-8.29667
-8.26792
-8.23607
-8.20424
-8.17572
-8.15266
-8.13625
-8.12654
-8.12247
-8.1225
-8.12484
-8.12726
-8.12794
-8.1259
-8.12048
-8.11118
-8.09792
-8.08137
-8.06239
-8.04189
-8.02082
-8.00009
-7.98053
-7.96276
-7.94711
-7.93388
-7.92336
-7.91602
-7.91253
-7.91321
-7.91842
-7.92939
-7.94296
-7.94865
-7.94323
-7.94037
-7.95575
-8.00551
-8.10099
-8.23216
-8.41023
-8.66103
-8.9931
-9.40531
-9.89385
-10.4508
-11.0661
-11.7288
-12.4281
-13.1541
-13.8977
-14.651
-15.4069
-16.1598
-16.9048
-17.6379
-18.3565
-19.0586
-19.7426
-20.4076
-21.0527
-21.6776
-22.2818
-22.8654
-23.4286
-23.9714
-24.4939
-24.9963
-25.4786
-25.9413
-26.3845
-26.8085
-27.2137
-27.6001
-27.9682
-28.3179
-28.6495
-28.9631
-29.2589
-29.5369
-29.7973
-30.0395
-30.2636
-30.4695
-30.6573
-30.8271
-30.9786
-31.1117
-31.2264
-31.3225
-31.3999
-31.4586
-31.4984
-31.5193
-31.5211
-31.5038
-31.4673
-31.4115
-31.3364
-31.242
-31.1281
-30.9949
-30.8424
-30.6706
-30.4796
-30.2698
-30.0407
-29.7925
-29.5254
-29.2396
-28.9353
-28.6122
-28.2701
-27.9089
-27.5284
-27.1288
-26.7101
-26.2721
-25.8147
-25.3373
-24.8397
-24.3212
-23.7812
-23.2192
-22.6344
-22.0259
-21.3928
-20.7338
-20.0479
-19.3337
-18.5903
-17.8161
-17.0092
-16.1677
-15.2902
-14.3757
-13.4229
-12.4301
-11.3957
-10.3183
-9.19709
-8.03102
-6.81973
-5.56378
-4.26452
-2.92324
-1.54115
-0.121676
1.32723
2.79673
4.27942
5.7662
7.24567
8.70548
10.1332
11.5158
12.8384
14.0863
15.2474
16.3122
17.272
18.1197
18.8509
19.465
19.9653
20.357
20.645
20.8378
20.944
20.9688
20.9193
20.8036
20.6302
20.4075
20.1444
19.8481
19.5243
19.1794
18.8202
18.451
18.0759
17.6992
17.3243
16.9543
16.5917
16.2389
15.8982
15.5714
15.2602
14.9661
14.6902
14.4334
14.1965
13.98
13.7841
13.6093
13.4555
13.3226
13.2104
13.1183
13.0462
12.9924
12.9572
12.9409
12.9419
12.959
12.9914
13.0381
13.0981
13.1704
13.2536
13.3466
13.4482
13.5572
13.6726
13.7933
13.9184
14.0468
14.1777
14.3102
14.4434
14.5767
14.7094
14.841
14.971
15.099
15.2247
15.3478
15.4681
15.5857
15.7005
15.8127
15.9225
16.0303
16.1366
16.242
16.3476
16.4541
16.5631
16.6767
16.7962
16.9273
17.0641
17.229
17.3479
-8.28916
-8.29124
-8.29561
-8.30151
-8.30792
-8.31408
-8.31796
-8.31738
-8.31255
-8.30372
-8.29078
-8.27684
-8.26508
-8.25689
-8.25256
-8.25188
-8.25372
-8.257
-8.26059
-8.26278
-8.26166
-8.25629
-8.24618
-8.23096
-8.21092
-8.18666
-8.15879
-8.12803
-8.09518
-8.06109
-8.02666
-7.99307
-7.96148
-7.93281
-7.90814
-7.88861
-7.87516
-7.86875
-7.87044
-7.87854
-7.88549
-7.88668
-7.89405
-7.93294
-8.01218
-8.11453
-8.24123
-8.41296
-8.63723
-8.91277
-9.24377
-9.63338
-10.0823
-10.5886
-11.1476
-11.7526
-12.3961
-13.07
-13.7661
-14.4765
-15.1941
-15.9131
-16.6283
-17.3358
-18.0327
-18.7172
-19.3876
-20.0426
-20.681
-21.302
-21.9049
-22.4893
-23.0549
-23.6015
-24.1292
-24.638
-25.1282
-25.5997
-26.0527
-26.4874
-26.9039
-27.3024
-27.6831
-28.046
-28.3913
-28.7191
-29.0294
-29.3221
-29.5973
-29.8551
-30.0955
-30.3185
-30.5238
-30.7114
-30.881
-31.0327
-31.166
-31.281
-31.3775
-31.4554
-31.5146
-31.555
-31.5764
-31.5788
-31.5621
-31.5263
-31.4713
-31.3969
-31.303
-31.1897
-31.0572
-30.9052
-30.734
-30.5436
-30.3342
-30.106
-29.8587
-29.5926
-29.3079
-29.0047
-28.683
-28.3424
-27.9824
-27.6032
-27.205
-26.7882
-26.3525
-25.8977
-25.4233
-24.9289
-24.414
-23.8781
-23.3205
-22.7405
-22.1372
-21.5098
-20.8571
-20.1779
-19.4712
-18.7356
-17.9698
-17.1716
-16.339
-15.4705
-14.5658
-13.6236
-12.6419
-11.619
-10.5534
-9.44401
-8.28988
-7.09049
-5.84612
-4.55766
-3.2261
-1.85298
-0.442288
1.00017
2.46781
3.95284
5.44513
6.93279
8.40286
9.84163
11.2345
12.5664
13.8241
14.9955
16.0697
17.0364
17.8884
18.6235
19.2434
19.751
20.1498
20.4446
20.6417
20.7496
20.7759
20.7279
20.6137
20.4417
20.2211
19.9599
19.6655
19.3451
19.006
18.655
18.2953
17.9297
17.5625
17.1967
16.8352
16.4803
16.1346
15.8006
15.4802
15.1752
14.8869
14.6165
14.365
14.1331
13.9213
13.7299
13.5594
13.4095
13.2804
13.1718
13.083
13.0139
12.9629
12.9305
12.9171
12.9208
12.9403
12.975
13.0238
13.0858
13.1598
13.2447
13.3392
13.4422
13.5526
13.6693
13.7913
13.9174
14.0469
14.1786
14.3119
14.4459
14.5797
14.713
14.845
14.9754
15.1036
15.2295
15.3526
15.473
15.5904
15.705
15.8169
15.9262
16.0334
16.1388
16.2431
16.3472
16.4518
16.5581
16.6678
16.7817
16.9036
17.0274
17.1657
17.2562
-8.28565
-8.28372
-8.28044
-8.27822
-8.27917
-8.28394
-8.29248
-8.30401
-8.31493
-8.32662
-8.34087
-8.35741
-8.37711
-8.39636
-8.41266
-8.42684
-8.43966
-8.44978
-8.45524
-8.455
-8.44848
-8.43515
-8.41494
-8.38841
-8.35605
-8.31823
-8.27556
-8.22895
-8.17948
-8.12819
-8.07644
-8.02579
-7.97764
-7.93353
-7.89575
-7.86642
-7.8468
-7.8362
-7.83079
-7.82732
-7.83346
-7.87183
-7.95209
-8.06134
-8.20137
-8.38345
-8.60825
-8.87517
-9.18297
-9.53201
-9.92414
-10.3608
-10.8417
-11.3649
-11.9264
-12.5209
-13.1424
-13.7846
-14.4413
-15.1075
-15.7791
-16.4527
-17.125
-17.7929
-18.4539
-19.1053
-19.7452
-20.3722
-20.9849
-21.5824
-22.1639
-22.7289
-23.277
-23.8079
-24.3214
-24.8174
-25.2959
-25.7569
-26.2004
-26.6266
-27.0356
-27.4274
-27.8021
-28.1598
-28.5005
-28.8243
-29.1313
-29.4212
-29.6941
-29.9499
-30.1884
-30.4097
-30.6136
-30.8
-30.9687
-31.1196
-31.2524
-31.3669
-31.4628
-31.5403
-31.5992
-31.6393
-31.6605
-31.6627
-31.6459
-31.61
-31.555
-31.4807
-31.3868
-31.2731
-31.1399
-30.9875
-30.816
-30.6256
-30.4163
-30.1882
-29.9412
-29.6754
-29.3911
-29.0884
-28.7671
-28.4268
-28.067
-27.6878
-27.29
-26.8744
-26.4405
-25.9877
-25.5157
-25.024
-24.5121
-23.9796
-23.4258
-22.85
-22.2514
-21.6292
-20.9821
-20.3092
-19.6091
-18.8808
-18.1225
-17.3327
-16.5097
-15.6519
-14.7578
-13.8257
-12.8539
-11.8408
-10.785
-9.68534
-8.54074
-7.35061
-6.1149
-4.83411
-3.50932
-2.14321
-0.740514
0.695073
2.15937
3.6441
5.13863
6.63105
8.1082
9.55595
10.9591
12.3019
13.5699
14.75
15.8308
16.8028
17.6616
18.4059
19.0355
19.5516
19.958
20.2597
20.4632
20.576
20.6066
20.5627
20.4529
20.2853
20.0686
19.8097
19.5157
19.1959
18.8584
18.508
18.1491
17.7872
17.4268
17.0692
16.7154
16.3675
16.0282
15.7002
15.3855
15.086
14.803
14.5377
14.291
14.0637
13.8563
13.6692
13.5027
13.3566
13.2312
13.126
13.0404
12.9743
12.9263
12.8973
12.8869
12.8932
12.9154
12.9526
13.0038
13.068
13.1442
13.2311
13.3275
13.4324
13.5446
13.663
13.7865
13.9141
14.0449
14.1779
14.3122
14.4471
14.5819
14.7159
14.8486
14.9795
15.1082
15.2343
15.3577
15.4781
15.5955
15.7098
15.8213
15.9301
16.0365
16.1409
16.2438
16.346
16.4483
16.5513
16.6564
16.7639
16.8758
16.986
17.1008
17.1683
-8.2856
-8.28273
-8.27691
-8.2707
-8.26911
-8.27889
-8.29867
-8.32822
-8.36778
-8.41288
-8.46052
-8.50836
-8.55369
-8.59303
-8.62542
-8.6495
-8.66525
-8.67388
-8.67608
-8.67124
-8.65865
-8.63805
-8.60942
-8.57285
-8.52865
-8.47746
-8.42018
-8.35812
-8.29268
-8.22452
-8.15497
-8.08663
-8.02211
-7.9644
-7.91701
-7.88126
-7.85461
-7.83325
-7.81981
-7.83162
-7.88929
-7.98987
-8.12863
-8.30952
-8.53338
-8.79919
-9.10197
-9.43962
-9.81084
-10.2156
-10.654
-11.1253
-11.6279
-12.1592
-12.7156
-13.2938
-13.8901
-14.5013
-15.1244
-15.756
-16.3929
-17.0316
-17.6692
-18.3032
-18.9313
-19.5514
-20.1618
-20.7611
-21.3479
-21.9214
-22.4807
-23.0251
-23.5542
-24.0677
-24.5651
-25.0465
-25.5116
-25.9604
-26.3929
-26.8091
-27.209
-27.5926
-27.9599
-28.3111
-28.6459
-28.9646
-29.2669
-29.5529
-29.8223
-30.0751
-30.311
-30.53
-30.732
-30.9167
-31.084
-31.2338
-31.3656
-31.4791
-31.574
-31.6503
-31.7082
-31.7475
-31.7681
-31.7696
-31.7521
-31.7156
-31.6599
-31.5847
-31.4895
-31.3741
-31.2391
-31.0853
-30.9131
-30.722
-30.5121
-30.2834
-30.0359
-29.7697
-29.485
-29.1818
-28.8602
-28.5201
-28.1616
-27.7845
-27.389
-26.975
-26.5424
-26.0908
-25.6202
-25.1302
-24.6203
-24.0902
-23.5392
-22.9667
-22.3718
-21.7537
-21.1113
-20.4437
-19.7495
-19.0273
-18.2759
-17.4937
-16.6799
-15.8328
-14.9496
-14.0283
-13.0673
-12.0654
-11.0213
-9.93353
-8.80107
-7.62319
-6.39963
-5.13052
-3.81663
-2.46002
-1.06471
0.364556
1.82276
3.30258
4.79431
6.2864
7.76564
9.21766
10.6269
11.9769
13.2524
14.439
15.5264
16.5074
17.3762
18.1297
18.7676
19.2915
19.7054
20.0146
20.2259
20.3468
20.3857
20.3506
20.2499
20.0919
19.8847
19.6357
19.3517
19.0404
18.7092
18.3623
18.0053
17.6455
17.2868
16.9335
16.5867
16.2456
15.9127
15.5907
15.2818
14.9878
14.7102
14.45
14.2083
13.9857
13.7828
13.6
13.4375
13.2954
13.1736
13.0719
12.9898
12.9269
12.8824
12.857
12.8497
12.859
12.884
12.924
12.9779
13.0447
13.1234
13.2127
13.3114
13.4185
13.5328
13.6532
13.7786
13.9081
14.0405
14.175
14.3108
14.447
14.5829
14.7179
14.8515
14.9831
15.1124
15.2389
15.3626
15.4831
15.6005
15.7147
15.8258
15.9339
16.0394
16.1426
16.244
16.3441
16.4436
16.543
16.643
16.7436
16.8455
16.9423
17.037
17.0862
-8.29499
-8.29246
-8.28664
-8.28121
-8.28741
-8.31384
-8.36303
-8.42659
-8.49953
-8.57625
-8.65054
-8.71499
-8.76655
-8.80867
-8.84329
-8.87032
-8.88894
-8.89871
-8.89948
-8.89101
-8.8732
-8.84616
-8.80991
-8.76455
-8.71058
-8.64881
-8.58028
-8.50647
-8.42816
-8.34548
-8.26097
-8.17895
-8.1034
-8.03881
-7.98768
-7.94702
-7.91272
-7.89064
-7.90151
-7.96214
-8.07112
-8.2298
-8.43778
-8.69147
-8.98498
-9.31411
-9.67526
-10.0663
-10.4856
-10.931
-11.4002
-11.8909
-12.4015
-12.9309
-13.4777
-14.0406
-14.6174
-15.2058
-15.8031
-16.4067
-17.0139
-17.6222
-18.2293
-18.8331
-19.4317
-20.0232
-20.6063
-21.1795
-21.7417
-22.292
-22.8295
-23.3537
-23.8639
-24.3598
-24.841
-25.3074
-25.7587
-26.1948
-26.6157
-27.0212
-27.4114
-27.7863
-28.1458
-28.4898
-28.8183
-29.1314
-29.4289
-29.7106
-29.9763
-30.2255
-30.4582
-30.6744
-30.874
-31.0566
-31.2221
-31.3702
-31.5003
-31.6119
-31.7045
-31.7789
-31.8353
-31.8735
-31.8929
-31.8934
-31.8749
-31.8372
-31.7803
-31.7041
-31.6085
-31.4936
-31.3591
-31.2054
-31.0325
-30.8403
-30.6292
-30.399
-30.1502
-29.8827
-29.5967
-29.2922
-28.9693
-28.6285
-28.2703
-27.8948
-27.5009
-27.0881
-26.6563
-26.2057
-25.7363
-25.2479
-24.74
-24.2124
-23.6644
-23.0953
-22.5044
-21.8909
-21.2537
-20.5918
-19.9041
-19.189
-18.4451
-17.671
-16.8655
-16.027
-15.1538
-14.2435
-13.2946
-12.3055
-11.2747
-10.2008
-9.0826
-7.91929
-6.7104
-5.45597
-4.15662
-2.8139
-1.43075
-0.0113744
1.43895
2.91299
4.40138
5.89278
7.37376
8.82924
10.2429
11.5976
12.8782
14.0723
15.1687
16.1582
17.0349
17.7962
18.4417
18.9734
19.3953
19.7128
19.9328
20.0627
20.111
20.0857
19.9954
19.8481
19.6519
19.4145
19.1427
18.8436
18.524
18.1888
17.8427
17.4906
17.1365
16.7868
16.4448
16.1099
15.7833
15.4677
15.1651
14.8772
14.6054
14.3509
14.1144
13.8969
13.6988
13.5206
13.3624
13.2245
13.1067
13.0087
12.9305
12.8713
12.8309
12.8092
12.8052
12.8177
12.846
12.8891
12.9461
13.0159
13.0974
13.1894
13.2909
13.4006
13.5174
13.6402
13.7679
13.8994
14.0339
14.1702
14.3077
14.4454
14.5827
14.719
14.8536
14.9862
15.1162
15.2433
15.3673
15.4881
15.6055
15.7195
15.8302
15.9377
16.0422
16.1441
16.2438
16.3416
16.438
16.5335
16.6282
16.7218
16.8139
16.8984
16.976
17.0106
-8.31557
-8.30938
-8.3051
-8.31493
-8.35052
-8.4155
-8.49856
-8.5926
-8.6873
-8.77149
-8.84486
-8.9096
-8.96646
-9.01439
-9.05249
-9.08043
-9.0981
-9.10559
-9.10304
-9.09066
-9.06863
-9.03703
-8.99582
-8.94524
-8.88574
-8.818
-8.74302
-8.66216
-8.57576
-8.48417
-8.39132
-8.30327
-8.22562
-8.16202
-8.11027
-8.06659
-8.03713
-8.04243
-8.09673
-8.20458
-8.36898
-8.58791
-8.85564
-9.16462
-9.50985
-9.88696
-10.2922
-10.7221
-11.1723
-11.6396
-12.1226
-12.6211
-13.1348
-13.6627
-14.2035
-14.7557
-15.3176
-15.8874
-16.4632
-17.0432
-17.6252
-18.2075
-18.7882
-19.3656
-19.938
-20.504
-21.0623
-21.6116
-22.1509
-22.6795
-23.1964
-23.7011
-24.1931
-24.6719
-25.1372
-25.5887
-26.0262
-26.4496
-26.8587
-27.2535
-27.6339
-27.9998
-28.3514
-28.6882
-29.0101
-29.3171
-29.6094
-29.8865
-30.1478
-30.3926
-30.6214
-30.8347
-31.032
-31.2127
-31.3764
-31.5229
-31.6519
-31.763
-31.856
-31.9307
-31.9868
-32.0241
-32.0426
-32.042
-32.0223
-31.9832
-31.9248
-31.8471
-31.7506
-31.6356
-31.5015
-31.3473
-31.1732
-30.9796
-30.7668
-30.5349
-30.2843
-30.0152
-29.7275
-29.4215
-29.097
-28.7545
-28.3944
-28.0169
-27.6218
-27.2086
-26.7772
-26.3276
-25.8597
-25.3731
-24.8677
-24.343
-23.7984
-23.2334
-22.6472
-22.039
-21.4078
-20.7526
-20.0721
-19.3651
-18.6301
-17.8656
-17.0702
-16.2422
-15.38
-14.4816
-13.5454
-12.5697
-11.5528
-10.4933
-9.38988
-8.24161
-7.04776
-5.80818
-4.52331
-3.19444
-1.82407
-0.415917
1.02515
2.49213
3.97582
5.46479
6.9453
8.40154
9.81714
11.176
12.4626
13.6628
14.7652
15.7608
16.6439
17.4117
18.0641
18.603
19.0326
19.3585
19.5875
19.7272
19.7858
19.7716
19.693
19.558
19.3746
19.1503
18.892
18.6064
18.2998
17.9775
17.6444
17.3048
16.9626
16.622
16.2859
15.9567
15.6368
15.3283
15.0328
14.7517
14.4865
14.2381
14.0076
13.7956
13.6028
13.4296
13.2763
13.1429
13.0295
12.9359
12.862
12.8071
12.771
12.7533
12.753
12.7692
12.8011
12.8478
12.9082
12.9814
13.0662
13.1614
13.266
13.3787
13.4984
13.624
13.7543
13.8884
14.0251
14.1636
14.303
14.4426
14.5816
14.7193
14.8552
14.9888
15.1197
15.2475
15.3721
15.4931
15.6106
15.7244
15.8347
15.9415
16.045
16.1455
16.2433
16.3386
16.4319
16.5232
16.6126
16.6992
16.7821
16.8553
16.9186
16.9414
-8.34694
-8.3389
-8.34721
-8.39427
-8.47215
-8.56944
-8.67553
-8.7776
-8.86943
-8.95378
-9.03077
-9.09847
-9.15568
-9.20206
-9.23777
-9.26307
-9.27817
-9.28319
-9.27826
-9.26348
-9.23906
-9.20503
-9.1615
-9.10874
-9.04716
-8.97738
-8.90035
-8.81732
-8.72875
-8.6356
-8.54292
-8.45777
-8.38562
-8.32655
-8.27693
-8.24251
-8.24116
-8.28427
-8.38256
-8.54199
-8.75914
-9.02672
-9.33895
-9.68954
-10.0732
-10.4848
-10.9185
-11.3693
-11.8346
-12.3139
-12.8063
-13.3109
-13.8268
-14.3527
-14.8875
-15.43
-15.979
-16.5333
-17.0913
-17.6515
-18.2126
-18.7729
-19.3311
-19.8856
-20.4352
-20.9786
-21.5148
-22.0426
-22.5612
-23.0697
-23.5676
-24.0542
-24.5291
-24.9917
-25.4418
-25.8792
-26.3035
-26.7146
-27.1124
-27.4968
-27.8676
-28.2246
-28.5678
-28.897
-29.2117
-29.5127
-29.8005
-30.0742
-30.3331
-30.5768
-30.8047
-31.0168
-31.2125
-31.3917
-31.554
-31.6989
-31.8267
-31.9372
-32.0304
-32.1051
-32.1606
-32.1968
-32.2139
-32.2117
-32.1904
-32.1495
-32.089
-32.0089
-31.9096
-31.7913
-31.6538
-31.4969
-31.3205
-31.1248
-30.9099
-30.6761
-30.4236
-30.1527
-29.8634
-29.556
-29.2305
-28.8871
-28.5261
-28.1477
-27.7518
-27.3385
-26.9075
-26.4589
-25.9924
-25.5078
-25.0049
-24.4832
-23.9422
-23.3814
-22.8
-22.1972
-21.5721
-20.9236
-20.2506
-19.5517
-18.8255
-18.0707
-17.2856
-16.4686
-15.6179
-14.7318
-13.8084
-12.8461
-11.8432
-10.7982
-9.70971
-8.57659
-7.39799
-6.17356
-4.90361
-3.58903
-2.23184
-0.835423
0.595457
2.05392
3.53096
5.01501
6.4924
7.94773
9.36425
10.7251
12.0142
13.2173
14.3228
15.3219
16.2091
16.9815
17.6391
18.1842
18.6209
18.955
19.1932
19.3432
19.4131
19.4112
19.3457
19.2246
19.0557
18.8462
18.603
18.3324
18.0405
17.7326
17.4136
17.0874
16.7589
16.4313
16.1047
15.7831
15.4712
15.1708
14.8833
14.61
14.352
14.1106
13.8866
13.6808
13.4939
13.3262
13.1782
13.05
12.9416
12.8529
12.7838
12.7337
12.7023
12.6889
12.6928
12.7132
12.7492
12.7998
12.8642
12.9412
13.0297
13.1287
13.2368
13.3529
13.4759
13.6047
13.738
13.8749
14.0143
14.1553
14.297
14.4386
14.5795
14.7189
14.8563
14.9912
15.1231
15.2517
15.3769
15.4983
15.6158
15.7295
15.8394
15.9454
16.0479
16.1469
16.2428
16.3356
16.4256
16.5126
16.5967
16.6765
16.7509
16.8139
16.8651
16.8785
-8.38242
-8.38625
-8.43547
-8.52254
-8.6291
-8.74234
-8.84968
-8.94888
-9.04139
-9.12549
-9.19973
-9.2638
-9.31772
-9.36147
-9.39506
-9.41851
-9.43186
-9.43519
-9.42865
-9.41243
-9.38671
-9.35161
-9.3074
-9.25443
-9.19321
-9.12441
-9.04899
-8.96814
-8.88301
-8.7953
-8.70945
-8.63226
-8.56971
-8.52169
-8.4883
-8.47895
-8.50836
-8.59342
-8.73955
-8.94366
-9.20062
-9.50515
-9.85113
-10.2323
-10.6422
-11.0736
-11.5213
-11.9839
-12.4599
-12.9477
-13.4459
-13.9533
-14.4688
-14.9915
-15.5202
-16.0541
-16.5922
-17.1335
-17.6767
-18.2206
-18.7642
-19.3061
-19.8452
-20.3802
-20.9102
-21.4341