/*--------------------------------*- C++ -*----------------------------------*\
| =========                 |                                                 |
| \\      /  F ield         | OpenFOAM: The Open Source CFD Toolbox           |
|  \\    /   O peration     | Version:  2.4.0                                 |
|   \\  /    A nd           | Web:      www.OpenFOAM.org                      |
|    \\/     M anipulation  |                                                 |
\*---------------------------------------------------------------------------*/
FoamFile
{
    version     2.0;
    format      ascii;
    class       volScalarField;
    location    "550";
    object      nut;
}
// * * * * * * * * * * * * * * * * * * * * * * * * * * * * * * * * * * * * * //

dimensions      [0 2 -1 0 0 0 0];

internalField   nonuniform List<scalar> 
12225
(
3.37637e-09
1.09794e-08
2.88911e-08
6.30833e-08
1.16257e-07
1.84252e-07
2.56936e-07
3.23392e-07
3.76681e-07
4.14976e-07
4.39973e-07
4.54777e-07
4.62495e-07
4.65644e-07
4.66118e-07
4.6502e-07
4.64723e-07
4.59001e-07
1.81403e-09
2.18116e-09
2.9328e-09
4.32288e-09
6.73377e-09
1.06792e-08
1.67506e-08
2.55094e-08
3.73698e-08
5.2524e-08
7.09314e-08
9.23561e-08
1.16428e-07
1.42695e-07
1.70671e-07
1.99783e-07
2.2958e-07
2.58716e-07
1.74e-09
1.71933e-09
1.71619e-09
1.74009e-09
1.80314e-09
1.91889e-09
2.10227e-09
2.37005e-09
2.74106e-09
3.23625e-09
3.87834e-09
4.69086e-09
5.69668e-09
6.91604e-09
8.36229e-09
1.00421e-08
1.19155e-08
1.40059e-08
1.74755e-09
1.74579e-09
1.73961e-09
1.72846e-09
1.7135e-09
1.68911e-09
1.66689e-09
1.65145e-09
1.64283e-09
1.64187e-09
1.64965e-09
1.6671e-09
1.69494e-09
1.73359e-09
1.78305e-09
1.84338e-09
1.91209e-09
1.99337e-09
1.74764e-09
1.74998e-09
1.75166e-09
1.75263e-09
1.75269e-09
1.75125e-09
1.74809e-09
1.74329e-09
1.73697e-09
1.72932e-09
1.72059e-09
1.71108e-09
1.70111e-09
1.69102e-09
1.68116e-09
1.67178e-09
1.66339e-09
1.65496e-09
1.74733e-09
1.74953e-09
1.7514e-09
1.75318e-09
1.75491e-09
1.75661e-09
1.75823e-09
1.7597e-09
1.76094e-09
1.76191e-09
1.76255e-09
1.76283e-09
1.76276e-09
1.76233e-09
1.76158e-09
1.76054e-09
1.75942e-09
1.75788e-09
1.74704e-09
1.74891e-09
1.75052e-09
1.75203e-09
1.75348e-09
1.7549e-09
1.75629e-09
1.75765e-09
1.75899e-09
1.7603e-09
1.76158e-09
1.76283e-09
1.76403e-09
1.76519e-09
1.76629e-09
1.76733e-09
1.76829e-09
1.76923e-09
1.74681e-09
1.74841e-09
1.74979e-09
1.75109e-09
1.75234e-09
1.75354e-09
1.75471e-09
1.75584e-09
1.75693e-09
1.75799e-09
1.75902e-09
1.76002e-09
1.76098e-09
1.76192e-09
1.76284e-09
1.76372e-09
1.76457e-09
1.76542e-09
1.74664e-09
1.74803e-09
1.74923e-09
1.75035e-09
1.75144e-09
1.75249e-09
1.7535e-09
1.75448e-09
1.75543e-09
1.75635e-09
1.75723e-09
1.75809e-09
1.75891e-09
1.75971e-09
1.76047e-09
1.76121e-09
1.76192e-09
1.76263e-09
1.74649e-09
1.74766e-09
1.74868e-09
1.74964e-09
1.75056e-09
1.75145e-09
1.7523e-09
1.75313e-09
1.75393e-09
1.7547e-09
1.75544e-09
1.75615e-09
1.75684e-09
1.7575e-09
1.75814e-09
1.75876e-09
1.75934e-09
1.75993e-09
1.74635e-09
1.74733e-09
1.74818e-09
1.74899e-09
1.74976e-09
1.7505e-09
1.75121e-09
1.7519e-09
1.75257e-09
1.75321e-09
1.75382e-09
1.75442e-09
1.75499e-09
1.75554e-09
1.75607e-09
1.75658e-09
1.75706e-09
1.75755e-09
1.74622e-09
1.74703e-09
1.74773e-09
1.74839e-09
1.74902e-09
1.74963e-09
1.75022e-09
1.75078e-09
1.75133e-09
1.75185e-09
1.75236e-09
1.75284e-09
1.75331e-09
1.75376e-09
1.75419e-09
1.75461e-09
1.755e-09
1.7554e-09
1.7461e-09
1.74675e-09
1.74731e-09
1.74784e-09
1.74835e-09
1.74884e-09
1.74931e-09
1.74976e-09
1.75019e-09
1.75061e-09
1.75102e-09
1.75141e-09
1.75178e-09
1.75214e-09
1.75248e-09
1.75282e-09
1.75313e-09
1.75345e-09
1.746e-09
1.7465e-09
1.74693e-09
1.74734e-09
1.74773e-09
1.74811e-09
1.74847e-09
1.74882e-09
1.74916e-09
1.74948e-09
1.74979e-09
1.75009e-09
1.75038e-09
1.75066e-09
1.75093e-09
1.75118e-09
1.75143e-09
1.75167e-09
1.7459e-09
1.74626e-09
1.74658e-09
1.74688e-09
1.74716e-09
1.74743e-09
1.7477e-09
1.74795e-09
1.7482e-09
1.74843e-09
1.74866e-09
1.74887e-09
1.74908e-09
1.74928e-09
1.74948e-09
1.74966e-09
1.74984e-09
1.75001e-09
1.7458e-09
1.74604e-09
1.74624e-09
1.74643e-09
1.74661e-09
1.74679e-09
1.74695e-09
1.74712e-09
1.74727e-09
1.74742e-09
1.74757e-09
1.74771e-09
1.74784e-09
1.74797e-09
1.74809e-09
1.74821e-09
1.74832e-09
1.74843e-09
1.74571e-09
1.74581e-09
1.74589e-09
1.74597e-09
1.74605e-09
1.74612e-09
1.74619e-09
1.74626e-09
1.74632e-09
1.74638e-09
1.74644e-09
1.7465e-09
1.74655e-09
1.74661e-09
1.74666e-09
1.74671e-09
1.74675e-09
1.7468e-09
1.74564e-09
1.74563e-09
1.74562e-09
1.74561e-09
1.74559e-09
1.74558e-09
1.74557e-09
1.74556e-09
1.74555e-09
1.74554e-09
1.74554e-09
1.74553e-09
1.74552e-09
1.74552e-09
1.74551e-09
1.74551e-09
1.7455e-09
1.7455e-09
1.74575e-09
1.7459e-09
1.74603e-09
1.74615e-09
1.74626e-09
1.74637e-09
1.74648e-09
1.74658e-09
1.74668e-09
1.74677e-09
1.74687e-09
1.74695e-09
1.74704e-09
1.74712e-09
1.7472e-09
1.74728e-09
1.74735e-09
1.74742e-09
1.74584e-09
1.74612e-09
1.74636e-09
1.74659e-09
1.74681e-09
1.74702e-09
1.74722e-09
1.74741e-09
1.7476e-09
1.74778e-09
1.74795e-09
1.74812e-09
1.74828e-09
1.74843e-09
1.74858e-09
1.74873e-09
1.74886e-09
1.74899e-09
1.74594e-09
1.74636e-09
1.74672e-09
1.74706e-09
1.74738e-09
1.7477e-09
1.748e-09
1.74829e-09
1.74857e-09
1.74884e-09
1.7491e-09
1.74935e-09
1.74959e-09
1.74982e-09
1.75004e-09
1.75025e-09
1.75046e-09
1.75065e-09
1.74605e-09
1.74663e-09
1.74713e-09
1.74759e-09
1.74804e-09
1.74847e-09
1.74888e-09
1.74928e-09
1.74967e-09
1.75004e-09
1.7504e-09
1.75074e-09
1.75107e-09
1.75139e-09
1.75169e-09
1.75199e-09
1.75227e-09
1.75254e-09
1.74619e-09
1.74695e-09
1.74761e-09
1.74822e-09
1.74882e-09
1.74938e-09
1.74993e-09
1.75046e-09
1.75097e-09
1.75146e-09
1.75193e-09
1.75239e-09
1.75283e-09
1.75325e-09
1.75365e-09
1.75405e-09
1.75442e-09
1.75478e-09
1.74636e-09
1.74735e-09
1.7482e-09
1.74899e-09
1.74976e-09
1.75049e-09
1.7512e-09
1.75189e-09
1.75255e-09
1.7532e-09
1.75382e-09
1.75442e-09
1.75501e-09
1.75557e-09
1.75613e-09
1.75666e-09
1.75718e-09
1.75768e-09
1.74658e-09
1.74784e-09
1.74891e-09
1.74993e-09
1.75091e-09
1.75187e-09
1.75281e-09
1.75374e-09
1.75465e-09
1.75554e-09
1.75641e-09
1.75726e-09
1.75808e-09
1.75888e-09
1.75964e-09
1.76037e-09
1.76105e-09
1.76168e-09
1.74685e-09
1.7484e-09
1.74975e-09
1.75101e-09
1.75219e-09
1.75323e-09
1.75408e-09
1.7547e-09
1.75504e-09
1.75506e-09
1.75473e-09
1.75405e-09
1.75299e-09
1.75152e-09
1.74968e-09
1.74752e-09
1.74498e-09
1.74253e-09
1.74713e-09
1.74838e-09
1.74803e-09
1.74605e-09
1.74231e-09
1.73677e-09
1.7295e-09
1.72061e-09
1.71031e-09
1.69883e-09
1.68637e-09
1.67312e-09
1.65885e-09
1.64272e-09
1.62896e-09
1.61736e-09
1.60724e-09
1.59958e-09
1.74492e-09
1.73602e-09
1.70792e-09
1.68898e-09
1.67751e-09
1.67384e-09
1.67947e-09
1.69613e-09
1.72551e-09
1.76917e-09
1.82853e-09
1.90488e-09
1.99943e-09
2.11323e-09
2.24738e-09
2.40245e-09
2.58028e-09
2.77633e-09
1.74932e-09
1.85511e-09
2.08254e-09
2.46669e-09
3.05682e-09
3.92014e-09
5.14519e-09
6.84174e-09
9.13713e-09
1.21696e-08
1.60795e-08
2.09984e-08
2.70404e-08
3.4292e-08
4.28104e-08
5.26042e-08
6.37003e-08
7.57806e-08
2.93857e-09
7.55777e-09
1.69996e-08
3.426e-08
6.2775e-08
1.05708e-07
1.6504e-07
2.40813e-07
3.30885e-07
4.31285e-07
5.37033e-07
6.43074e-07
7.45044e-07
8.3969e-07
9.2499e-07
1e-06
1.06474e-06
1.1196e-06
1.04813e-10
1.18361e-10
1.99714e-10
8.3885e-10
3.28687e-09
9.36337e-09
2.12179e-08
4.13565e-08
7.2431e-08
1.16907e-07
1.7709e-07
2.54943e-07
3.52076e-07
4.69774e-07
6.09052e-07
7.70749e-07
9.55636e-07
1.16464e-06
1.39908e-06
1.66073e-06
1.95199e-06
2.27608e-06
2.63733e-06
3.04157e-06
3.49671e-06
4.01353e-06
4.60669e-06
5.29601e-06
6.10773e-06
7.07524e-06
8.23848e-06
9.64075e-06
1.13219e-05
1.33091e-05
1.5607e-05
1.81943e-05
2.10274e-05
2.40495e-05
2.72022e-05
3.04325e-05
3.36964e-05
3.696e-05
4.01979e-05
4.33921e-05
4.65302e-05
4.96037e-05
5.26075e-05
5.55386e-05
5.83954e-05
6.11774e-05
6.38849e-05
6.65186e-05
6.90795e-05
7.15687e-05
7.39873e-05
7.63366e-05
7.86175e-05
8.08311e-05
8.29781e-05
8.50594e-05
8.70754e-05
8.90267e-05
9.09133e-05
9.27355e-05
9.44931e-05
9.61859e-05
9.78134e-05
9.93753e-05
0.000100871
0.000102298
0.000103658
0.000104948
0.000106168
0.000107315
0.000108389
0.000109389
0.000110313
0.00011116
0.000111928
0.000112617
0.000113224
0.000113747
0.00011418
0.000114515
0.000114752
0.000114906
0.000114977
0.000114963
0.000114863
0.000114679
0.000114408
0.00011405
0.000113605
0.000113071
0.000112447
0.000111732
0.000110926
0.000110026
0.000109031
0.00010794
0.000106751
0.000105461
0.000104069
0.000102571
0.000100966
9.92499e-05
9.74189e-05
9.54691e-05
9.3396e-05
9.11943e-05
8.88581e-05
8.63805e-05
8.37539e-05
8.09691e-05
7.80156e-05
7.48815e-05
7.1553e-05
6.80147e-05
6.42507e-05
6.02463e-05
5.5994e-05
5.15071e-05
4.68441e-05
4.21425e-05
3.76417e-05
3.36539e-05
3.04564e-05
2.81501e-05
2.66029e-05
2.55468e-05
2.47369e-05
2.40237e-05
2.33371e-05
2.26496e-05
2.19523e-05
2.12441e-05
2.05273e-05
1.98039e-05
1.90748e-05
1.83422e-05
1.76116e-05
1.68845e-05
1.61607e-05
1.5444e-05
1.47401e-05
1.40459e-05
1.33577e-05
1.26898e-05
1.20424e-05
1.14001e-05
1.07703e-05
1.01736e-05
9.64698e-06
9.20138e-06
8.73398e-06
8.24813e-06
7.77976e-06
7.33599e-06
6.91716e-06
6.52288e-06
6.15285e-06
5.80709e-06
5.48575e-06
5.18929e-06
4.91828e-06
4.67344e-06
4.45536e-06
4.26475e-06
4.10114e-06
3.96291e-06
3.84925e-06
3.76196e-06
3.70324e-06
3.67495e-06
3.67876e-06
3.71487e-06
3.78572e-06
3.88186e-06
4.03025e-06
3.9402e-06
3.34196e-10
8.29023e-09
2.90739e-08
8.30808e-08
2.05073e-07
4.42261e-07
8.72815e-07
1.66685e-06
3.09105e-06
5.29999e-06
8.45891e-06
1.2641e-05
1.78057e-05
2.38089e-05
3.04382e-05
3.74598e-05
4.46455e-05
5.18004e-05
5.88126e-05
6.5613e-05
7.21656e-05
7.84568e-05
8.44874e-05
9.02672e-05
9.5811e-05
0.000101136
0.000106261
0.000111203
0.000115979
0.000120605
0.000125094
0.00012946
0.000133711
0.000137859
0.000141911
0.000145875
0.000149759
0.000153569
0.000157314
0.000160998
0.000164627
0.000168208
0.000171743
0.000175238
0.000178696
0.000182118
0.000185509
0.000188869
0.000192201
0.000195505
0.000198782
0.000202034
0.00020526
0.000208461
0.000211637
0.000214787
0.000217911
0.000221009
0.000224079
0.000227121
0.000230134
0.000233116
0.000236067
0.000238984
0.000241866
0.000244712
0.000247519
0.000250286
0.000253009
0.000255688
0.00025832
0.000260901
0.00026343
0.000265904
0.00026832
0.000270675
0.000272968
0.000275196
0.000277357
0.000279453
0.000281485
0.000283458
0.000285379
0.00028725
0.000289057
0.000290783
0.000292429
0.000293996
0.000295481
0.000296885
0.000298208
0.000299448
0.000300605
0.000301679
0.000302669
0.000303574
0.000304395
0.00030513
0.00030578
0.000306345
0.000306824
0.000307217
0.000307525
0.000307746
0.000307882
0.000307932
0.000307896
0.000307774
0.000307568
0.000307276
0.0003069
0.000306441
0.000305899
0.000305275
0.00030457
0.000303785
0.000302919
0.000301976
0.000300955
0.000299858
0.000298686
0.000297437
0.000296106
0.000294682
0.00029315
0.000291497
0.000289712
0.000287795
0.000285753
0.000283594
0.000281327
0.000278958
0.000276487
0.000273911
0.000271224
0.000268427
0.000265527
0.00026253
0.000259436
0.000256245
0.000252974
0.000249635
0.000246222
0.000242743
0.000239223
0.000235654
0.00023202
0.000228357
0.000224677
0.000220963
0.000217183
0.000213385
0.00020963
0.00020596
0.000202153
0.000198305
0.000194488
0.000190747
0.000187097
0.000183551
0.000180117
0.000176811
0.000173648
0.000170647
0.000167832
0.00016523
0.000162867
0.000160767
0.000158952
0.000157434
0.000156232
0.000155383
0.000154923
0.00015488
0.000155274
0.000156104
0.000157368
0.000158986
0.000160973
0.000161123
1.8014e-09
4.87866e-08
2.37929e-07
7.81417e-07
2.12276e-06
5.04627e-06
1.07621e-05
2.03529e-05
3.37062e-05
4.96503e-05
6.67174e-05
8.39457e-05
0.000100844
0.000117228
0.00013301
0.000148056
0.000162266
0.000175648
0.000188268
0.000200202
0.000211524
0.0002223
0.000232586
0.000242434
0.00025189
0.000260996
0.000269787
0.000278296
0.000286554
0.000294586
0.000302417
0.000310068
0.000317561
0.000324912
0.00033214
0.000339258
0.000346281
0.000353221
0.000360088
0.000366892
0.00037364
0.000380339
0.000386994
0.00039361
0.00040019
0.000406737
0.000413253
0.000419739
0.000426197
0.000432626
0.000439027
0.000445399
0.000451741
0.000458051
0.000464329
0.000470571
0.000476776
0.000482942
0.000489065
0.000495143
0.000501172
0.000507148
0.000513068
0.000518928
0.000524723
0.000530448
0.0005361
0.000541672
0.000547159
0.000552556
0.000557857
0.000563055
0.000568143
0.000573116
0.000577967
0.000582689
0.000587275
0.000591717
0.000596011
0.000600148
0.000604123
0.00060793
0.000611566
0.000615031
0.000618336
0.00062148
0.000624463
0.000627283
0.000629938
0.000632429
0.000634753
0.00063691
0.000638897
0.000640715
0.000642361
0.000643834
0.000645134
0.00064626
0.000647211
0.000647987
0.000648588
0.000649012
0.000649261
0.000649334
0.000649231
0.000648951
0.000648496
0.000647865
0.000647059
0.000646077
0.00064492
0.00064359
0.000642087
0.000640414
0.00063857
0.000636555
0.00063437
0.000632015
0.000629488
0.000626792
0.000623929
0.000620898
0.000617698
0.000614325
0.000610774
0.000607043
0.000603135
0.000599047
0.000594776
0.000590312
0.000585652
0.000580799
0.000575758
0.00057052
0.000565068
0.000559401
0.000553532
0.000547479
0.000541243
0.000534827
0.000528255
0.000521559
0.000514745
0.000507822
0.000500819
0.000493752
0.000486622
0.000479419
0.000472203
0.000465008
0.000457774
0.000450566
0.000443469
0.000436506
0.000429576
0.000422694
0.000415948
0.000409389
0.00040305
0.000396958
0.000391138
0.000385616
0.000380424
0.000375597
0.000371174
0.000367195
0.000363701
0.00036072
0.000358277
0.000356404
0.000355139
0.000354522
0.000354585
0.000355347
0.000356812
0.000358961
0.000361764
0.000365124
0.00036888
0.000370619
4.77283e-09
1.20813e-07
8.62205e-07
3.85757e-06
1.22043e-05
2.87744e-05
5.27901e-05
8.04779e-05
0.000108678
0.000135738
0.000161101
0.000185293
0.000208523
0.000230865
0.000252331
0.000272919
0.000292642
0.000311533
0.000329643
0.000347023
0.000363723
0.000379793
0.000395282
0.000410234
0.000424695
0.000438705
0.000452306
0.000465533
0.000478423
0.000491008
0.000503319
0.000515384
0.00052723
0.000538881
0.000550357
0.000561679
0.000572864
0.000583927
0.000594882
0.00060574
0.000616511
0.000627204
0.000637825
0.000648381
0.000658875
0.00066931
0.000679689
0.000690014
0.000700284
0.000710499
0.00072066
0.000730763
0.000740807
0.00075079
0.000760709
0.000770559
0.000780337
0.000790039
0.00079966
0.000809195
0.000818638
0.000827984
0.000837225
0.000846356
0.000855369
0.000864257
0.000873011
0.000881624
0.000890085
0.000898386
0.000906518
0.00091447
0.000922233
0.000929795
0.000937147
0.000944278
0.000951178
0.000957837
0.000964245
0.000970393
0.00097627
0.000981865
0.000987177
0.000992235
0.00099704
0.00100159
0.00100589
0.00100993
0.00101372
0.00101724
0.00102051
0.00102351
0.00102625
0.00102872
0.00103093
0.00103286
0.00103453
0.00103592
0.00103704
0.00103788
0.00103846
0.00103875
0.00103878
0.00103853
0.00103801
0.00103722
0.00103616
0.00103482
0.00103321
0.00103134
0.00102919
0.00102678
0.00102411
0.00102117
0.00101798
0.00101453
0.00101082
0.00100685
0.00100262
0.000998128
0.000993386
0.000988393
0.000983147
0.000977642
0.00097187
0.000965826
0.000959515
0.000952942
0.000946099
0.000938964
0.000931524
0.000923787
0.000915765
0.00090745
0.000898795
0.000889803
0.00088049
0.000870884
0.000860999
0.000850837
0.000840418
0.000829806
0.000819035
0.000808116
0.000797056
0.000785925
0.000774758
0.000763534
0.000752342
0.000741231
0.000730187
0.00071925
0.000708498
0.000697971
0.000687639
0.000677519
0.000667689
0.00065821
0.000649131
0.000640497
0.000632349
0.000624731
0.00061769
0.000611276
0.000605544
0.00060055
0.000596339
0.000592946
0.000590404
0.000588752
0.000588023
0.000588244
0.000589428
0.000591574
0.000594659
0.000598635
0.000603438
0.000608953
0.000614893
0.00061877
9.46396e-09
2.48546e-07
2.70196e-06
1.34995e-05
3.81734e-05
7.28347e-05
0.000110652
0.000148532
0.000183891
0.0002164
0.000247004
0.000276386
0.000304718
0.000332062
0.000358448
0.000383903
0.000408461
0.00043216
0.000455044
0.000477159
0.000498552
0.00051927
0.000539361
0.00055887
0.000577844
0.000596328
0.000614365
0.000631998
0.000649265
0.000666203
0.00068285
0.000699236
0.000715393
0.000731348
0.000747127
0.000762753
0.000778247
0.000793626
0.000808907
0.000824104
0.000839229
0.000854291
0.0008693
0.000884261
0.000899179
0.000914059
0.000928903
0.000943711
0.000958484
0.00097322
0.000987919
0.00100258
0.00101719
0.00103176
0.00104627
0.00106072
0.00107511
0.00108942
0.00110366
0.00111781
0.00113186
0.00114581
0.00115964
0.00117334
0.0011869
0.00120032
0.00121356
0.00122663
0.0012395
0.00125216
0.00126459
0.00127677
0.00128869
0.00130032
0.00131164
0.00132264
0.00133329
0.00134358
0.00135349
0.00136299
0.00137208
0.00138073
0.00138891
0.00139668
0.00140402
0.00141095
0.00141746
0.00142355
0.00142922
0.00143447
0.0014393
0.00144371
0.0014477
0.00145127
0.00145442
0.00145715
0.00145946
0.00146136
0.00146284
0.00146391
0.00146456
0.00146482
0.00146466
0.00146411
0.00146316
0.00146182
0.00146009
0.00145797
0.00145547
0.00145258
0.00144932
0.00144568
0.00144168
0.00143731
0.00143258
0.00142751
0.00142207
0.00141629
0.00141015
0.00140366
0.00139682
0.00138964
0.00138213
0.00137427
0.00136605
0.00135746
0.00134851
0.00133921
0.00132957
0.00131953
0.00130906
0.00129818
0.00128692
0.00127528
0.00126316
0.00125056
0.00123751
0.00122405
0.0012102
0.00119597
0.00118137
0.00116649
0.00115143
0.00113619
0.00112081
0.00110537
0.00108994
0.00107451
0.00105917
0.00104398
0.00102896
0.00101418
0.000999699
0.000985587
0.000971858
0.000958553
0.000945743
0.0009335
0.000921887
0.000910965
0.000900794
0.000891432
0.000882939
0.000875378
0.000868814
0.000863311
0.000858917
0.000855668
0.000853597
0.000852726
0.000853066
0.000854615
0.000857356
0.000861256
0.00086626
0.000872289
0.000879252
0.000887021
0.000895233
0.000901515
1.72027e-08
5.1357e-07
6.8364e-06
3.08858e-05
7.09685e-05
0.00011563
0.000160546
0.000205419
0.000246896
0.000285075
0.000321069
0.000355366
0.000388182
0.000419824
0.000450403
0.000479989
0.000508637
0.000536395
0.000563311
0.000589431
0.000614804
0.000639476
0.000663498
0.000686917
0.000709781
0.000732139
0.000754035
0.000775516
0.000796623
0.000817398
0.00083788
0.000858104
0.000878106
0.000897915
0.000917561
0.00093707
0.000956464
0.000975766
0.000994992
0.00101416
0.00103328
0.00105237
0.00107143
0.00109048
0.00110952
0.00112855
0.00114757
0.00116659
0.0011856
0.00120461
0.00122361
0.0012426
0.00126157
0.00128053
0.00129945
0.00131834
0.00133718
0.00135598
0.00137472
0.00139338
0.00141197
0.00143046
0.00144885
0.00146711
0.00148525
0.00150323
0.00152104
0.00153867
0.0015561
0.00157329
0.00159024
0.0016069
0.00162327
0.00163931
0.001655
0.0016703
0.00168519
0.00169964
0.00171362
0.00172711
0.00174009
0.00175252
0.0017644
0.00177574
0.00178653
0.00179679
0.00180651
0.00181569
0.00182432
0.00183241
0.00183996
0.00184696
0.00185341
0.00185931
0.00186466
0.00186947
0.00187372
0.00187742
0.00188058
0.00188318
0.00188524
0.00188676
0.00188774
0.00188819
0.00188809
0.00188747
0.00188632
0.00188465
0.00188245
0.00187973
0.00187649
0.00187274
0.00186848
0.00186371
0.00185845
0.0018527
0.00184646
0.00183972
0.00183249
0.00182477
0.00181655
0.00180786
0.0017987
0.00178907
0.00177894
0.00176829
0.00175714
0.00174551
0.00173341
0.00172079
0.00170758
0.0016938
0.00167949
0.00166471
0.00164925
0.00163316
0.00161644
0.0015991
0.0015813
0.00156302
0.0015442
0.00152504
0.00150568
0.0014861
0.00146635
0.00144655
0.00142676
0.00140703
0.00138746
0.00136812
0.00134909
0.00133043
0.00131223
0.00129459
0.00127755
0.00126118
0.00124555
0.00123076
0.00121686
0.00120395
0.00119209
0.00118135
0.00117181
0.00116353
0.00115658
0.00115103
0.00114693
0.0011443
0.00114316
0.0011435
0.0011453
0.00114852
0.00115309
0.00115895
0.00116601
0.00117417
0.00118332
0.00119332
0.00120378
0.00121272
2.88795e-08
9.74431e-07
1.32337e-05
5.03178e-05
9.94007e-05
0.000149456
0.000199623
0.000250409
0.000297904
0.000341572
0.000382578
0.00042157
0.000458871
0.000494647
0.00052903
0.000562263
0.000594461
0.000625708
0.00065607
0.000685605
0.000714367
0.000742409
0.000769784
0.000796541
0.000822733
0.000848409
0.000873619
0.00089841
0.000922828
0.000946917
0.000970718
0.000994272
0.00101761
0.00104078
0.0010638
0.0010867
0.00110951
0.00113225
0.00115494
0.0011776
0.00120025
0.00122289
0.00124553
0.00126819
0.00129087
0.00131357
0.0013363
0.00135905
0.00138183
0.00140464
0.00142746
0.0014503
0.00147315
0.00149601
0.00151886
0.0015417
0.00156452
0.00158731
0.00161005
0.00163275
0.00165538
0.00167793
0.00170038
0.00172273
0.00174495
0.00176703
0.00178894
0.00181066
0.00183217
0.00185344
0.00187445
0.00189517
0.00191556
0.00193559
0.00195523
0.00197445
0.0019932
0.00201146
0.00202918
0.00204634
0.00206291
0.00207885
0.00209416
0.00210884
0.00212289
0.00213631
0.00214911
0.00216127
0.0021728
0.00218369
0.00219396
0.00220358
0.00221257
0.00222092
0.00222862
0.0022357
0.00224213
0.00224792
0.00225308
0.0022576
0.00226149
0.00226476
0.0022674
0.00226942
0.00227082
0.00227162
0.0022718
0.00227139
0.00227037
0.00226876
0.00226654
0.00226374
0.00226035
0.00225639
0.00225185
0.00224674
0.00224108
0.00223484
0.00222804
0.00222065
0.00221269
0.00220416
0.00219508
0.00218543
0.0021752
0.00216433
0.00215285
0.00214075
0.00212806
0.00211473
0.00210066
0.00208586
0.00207033
0.00205404
0.002037
0.00201918
0.00200051
0.00198096
0.00196083
0.00194004
0.00191853
0.00189643
0.00187388
0.00185089
0.00182754
0.00180396
0.00178027
0.00175657
0.001733
0.00170968
0.00168673
0.00166429
0.00164246
0.00162138
0.00160115
0.00158185
0.00156358
0.00154642
0.00153048
0.00151584
0.00150259
0.00149081
0.00148057
0.00147193
0.00146496
0.00145973
0.00145627
0.00145462
0.00145474
0.0014566
0.00146012
0.00146522
0.00147179
0.00147972
0.00148887
0.00149915
0.00151043
0.00152261
0.00153523
0.00154721
4.31011e-08
1.58163e-06
2.02372e-05
6.6547e-05
0.000120551
0.000174365
0.000228811
0.000284587
0.000337694
0.000386527
0.000432173
0.000475438
0.000516775
0.000556434
0.000594572
0.00063129
0.000666716
0.000701052
0.000734414
0.000766891
0.000798556
0.000829475
0.000859707
0.00088931
0.00091834
0.000946849
0.000974891
0.00100252
0.00102977
0.00105671
0.00108337
0.00110979
0.00113602
0.00116209
0.00118803
0.00121388
0.00123965
0.00126539
0.0012911
0.0013168
0.00134252
0.00136826
0.00139404
0.00141986
0.00144572
0.00147164
0.00149761
0.00152363
0.00154971
0.00157583
0.001602
0.0016282
0.00165444
0.00168071
0.00170698
0.00173327
0.00175955
0.00178581
0.00181205
0.00183824
0.00186438
0.00189045
0.00191644
0.00194232
0.00196808
0.00199369
0.00201914
0.00204439
0.00206943
0.00209422
0.00211874
0.00214294
0.00216679
0.00219026
0.00221331
0.00223589
0.00225796
0.00227948
0.00230041
0.00232072
0.00234036
0.0023593
0.00237753
0.00239506
0.00241189
0.00242802
0.00244344
0.00245815
0.00247216
0.00248546
0.00249806
0.00250994
0.00252112
0.00253159
0.00254136
0.00255042
0.00255877
0.00256642
0.00257337
0.00257963
0.00258519
0.00259007
0.00259427
0.0025978
0.00260067
0.00260288
0.00260443
0.00260534
0.00260561
0.00260525
0.00260426
0.00260265
0.00260042
0.00259759
0.00259416
0.00259015
0.00258555
0.00258038
0.00257461
0.00256825
0.0025613
0.00255377
0.00254566
0.00253697
0.00252767
0.00251773
0.00250715
0.00249592
0.00248402
0.00247143
0.00245811
0.00244405
0.0024292
0.00241351
0.00239708
0.00237986
0.00236177
0.00234281
0.00232309
0.00230259
0.00228128
0.00225921
0.00223643
0.00221298
0.0021889
0.00216427
0.00213919
0.00211375
0.00208808
0.00206235
0.00203673
0.00201141
0.00198663
0.0019626
0.00193952
0.00191756
0.00189687
0.00187758
0.0018598
0.00184366
0.00182926
0.00181668
0.001806
0.00179729
0.00179057
0.0017859
0.00178335
0.0017829
0.00178448
0.00178803
0.00179344
0.00180055
0.00180921
0.00181922
0.00183045
0.00184277
0.00185604
0.00187019
0.00188456
0.00189921
5.64398e-08
2.17464e-06
2.60183e-05
7.79472e-05
0.000134868
0.000191522
0.000249391
0.000309249
0.000367234
0.000420721
0.000470571
0.000517668
0.000562575
0.000605634
0.000647057
0.000686988
0.000725535
0.000762776
0.00079885
0.000833924
0.000868114
0.00090151
0.000934189
0.000966221
0.000997669
0.00102859
0.00105905
0.0010891
0.00111878
0.00114816
0.00117727
0.00120616
0.00123487
0.00126345
0.00129192
0.00132031
0.00134866
0.001377
0.00140533
0.00143369
0.00146208
0.00149052
0.00151903
0.0015476
0.00157624
0.00160496
0.00163376
0.00166263
0.00169158
0.00172059
0.00174967
0.0017788
0.00180798
0.0018372
0.00186645
0.00189571
0.00192499
0.00195425
0.0019835
0.00201271
0.00204188
0.00207097
0.00209998
0.00212889
0.00215768
0.00218632
0.00221479
0.00224306
0.00227111
0.0022989
0.0023264
0.00235356
0.00238036
0.00240675
0.00243268
0.00245811
0.00248299
0.00250727
0.00253091
0.00255385
0.00257607
0.00259752
0.0026182
0.00263811
0.00265725
0.00267562
0.00269322
0.00271005
0.00272611
0.0027414
0.00275593
0.00276968
0.00278267
0.00279489
0.00280635
0.00281705
0.00282698
0.00283617
0.00284461
0.0028523
0.00285926
0.00286549
0.00287101
0.00287582
0.00287993
0.00288335
0.0028861
0.00288818
0.0028896
0.00289038
0.00289052
0.00289002
0.00288892
0.0028872
0.0028849
0.00288202
0.00287857
0.00287456
0.00286997
0.00286482
0.0028591
0.00285283
0.002846
0.00283861
0.00283063
0.00282207
0.00281291
0.00280314
0.00279273
0.00278166
0.00276994
0.00275754
0.00274443
0.00273056
0.00271596
0.00270062
0.00268449
0.00266756
0.00264985
0.00263137
0.0026121
0.00259205
0.00257125
0.00254972
0.0025275
0.00250462
0.00248115
0.00245717
0.00243276
0.00240804
0.00238315
0.00235826
0.00233354
0.0023092
0.00228548
0.00226259
0.00224078
0.00222029
0.00220137
0.00218422
0.00216904
0.00215598
0.00214513
0.00213656
0.0021303
0.00212637
0.00212485
0.00212571
0.00212884
0.00213413
0.00214141
0.00215046
0.00216097
0.00217261
0.00218499
0.00219782
0.0022108
0.0022238
0.00223619
0.00224771
6.56906e-08
2.58055e-06
2.95916e-05
8.4589e-05
0.000143333
0.000202058
0.000262524
0.000325575
0.000387496
0.000444934
0.000498435
0.000548871
0.000596873
0.000642851
0.000687075
0.00072973
0.000770948
0.000810836
0.000849485
0.000886963
0.000923417
0.00095899
0.000993792
0.00102791
0.00106143
0.00109442
0.00112694
0.00115905
0.00119081
0.00122227
0.00125348
0.00128449
0.00131535
0.00134608
0.00137673
0.00140733
0.00143791
0.00146849
0.0014991
0.00152976
0.00156048
0.00159127
0.00162214
0.00165311
0.00168417
0.00171533
0.00174658
0.00177792
0.00180935
0.00184087
0.00187247
0.00190413
0.00193585
0.00196762
0.00199943
0.00203126
0.0020631
0.00209494
0.00212677
0.00215856
0.0021903
0.00222198
0.00225357
0.00228505
0.00231641
0.00234761
0.00237864
0.00240946
0.00244005
0.00247037
0.00250038
0.00253005
0.00255932
0.00258816
0.00261652
0.00264434
0.00267157
0.00269816
0.00272405
0.0027492
0.00277355
0.00279707
0.00281978
0.00284165
0.0028627
0.00288291
0.0029023
0.00292087
0.00293861
0.00295553
0.00297162
0.0029869
0.00300136
0.003015
0.00302784
0.00303987
0.00305109
0.00306152
0.00307116
0.00308003
0.00308812
0.00309545
0.00310204
0.0031079
0.00311305
0.00311748
0.00312123
0.0031243
0.00312671
0.00312847
0.0031296
0.0031301
0.00313001
0.00312933
0.00312808
0.00312628
0.00312394
0.00312106
0.00311766
0.00311373
0.0031093
0.00310437
0.00309893
0.00309299
0.00308653
0.00307957
0.00307208
0.00306407
0.0030555
0.00304637
0.00303667
0.00302638
0.00301546
0.0030039
0.0029917
0.00297883
0.00296526
0.002951
0.00293603
0.00292035
0.00290396
0.00288685
0.00286904
0.00285054
0.00283139
0.0028116
0.00279123
0.00277034
0.00274901
0.00272732
0.00270539
0.00268335
0.00266137
0.00263961
0.00261828
0.00259758
0.00257773
0.00255898
0.00254157
0.00252573
0.0025117
0.00249966
0.00248977
0.00248214
0.00247681
0.00247379
0.00247315
0.00247477
0.00247845
0.00248394
0.00249096
0.0024992
0.00250834
0.00251804
0.00252796
0.00253783
0.00254741
0.00255654
0.00256467
0.00257101
6.84944e-08
2.71928e-06
3.07554e-05
8.70025e-05
0.000146795
0.000206868
0.000269124
0.000334508
0.000399346
0.000459892
0.000516378
0.000569592
0.00062018
0.000668595
0.000715147
0.000760055
0.000803482
0.000845552
0.00088637
0.000926022
0.000964597
0.00100215
0.00103884
0.00107479
0.00111011
0.00114487
0.00117915
0.00121303
0.00124656
0.00127981
0.00131282
0.00134565
0.00137834
0.00141093
0.00144346
0.00147596
0.00150847
0.001541
0.00157358
0.00160623
0.00163896
0.00167179
0.00170471
0.00173775
0.0017709
0.00180416
0.00183753
0.00187101
0.00190459
0.00193826
0.00197201
0.00200585
0.00203974
0.00207369
0.00210768
0.00214169
0.00217572
0.00220974
0.00224374
0.00227771
0.00231163
0.00234547
0.00237922
0.00241286
0.00244637
0.00247971
0.00251287
0.00254582
0.00257852
0.00261094
0.00264303
0.00267477
0.0027061
0.00273697
0.00276733
0.00279712
0.00282629
0.00285477
0.00288251
0.00290945
0.00293554
0.00296076
0.0029851
0.00300857
0.00303116
0.00305288
0.00307372
0.00309369
0.00311279
0.00313102
0.00314839
0.00316489
0.00318053
0.00319532
0.00320926
0.00322235
0.00323461
0.00324604
0.00325665
0.00326645
0.00327545
0.00328368
0.00329114
0.00329786
0.00330385
0.00330913
0.00331371
0.00331762
0.00332088
0.00332349
0.00332548
0.00332687
0.00332769
0.00332796
0.0033277
0.00332692
0.00332565
0.0033239
0.00332168
0.00331901
0.00331591
0.00331238
0.00330843
0.00330405
0.00329925
0.00329403
0.00328839
0.00328231
0.00327579
0.00326881
0.00326136
0.00325341
0.00324496
0.00323598
0.00322646
0.00321637
0.00320569
0.00319442
0.00318254
0.00317004
0.00315691
0.00314316
0.00312878
0.00311379
0.00309821
0.00308206
0.00306538
0.00304822
0.00303065
0.00301275
0.00299461
0.00297634
0.00295809
0.00293999
0.00292223
0.00290497
0.00288842
0.00287278
0.00285827
0.00284509
0.00283344
0.00282348
0.00281535
0.00280913
0.00280485
0.00280251
0.00280211
0.00280348
0.00280641
0.00281064
0.00281591
0.00282194
0.00282841
0.00283506
0.00284159
0.00284778
0.0028534
0.00285827
0.00286189
0.00286323
6.49796e-08
2.59394e-06
2.96685e-05
8.56842e-05
0.000145873
0.000206603
0.000269869
0.000336736
0.000403475
0.000466225
0.00052495
0.00058032
0.000632949
0.000683302
0.000731712
0.000778421
0.000823612
0.000867429
0.00090999