/*--------------------------------*- C++ -*----------------------------------*\
| =========                 |                                                 |
| \\      /  F ield         | OpenFOAM: The Open Source CFD Toolbox           |
|  \\    /   O peration     | Version:  2.4.0                                 |
|   \\  /    A nd           | Web:      www.OpenFOAM.org                      |
|    \\/     M anipulation  |                                                 |
\*---------------------------------------------------------------------------*/
FoamFile
{
    version     2.0;
    format      ascii;
    class       volScalarField;
    location    "6.83";
    object      k;
}
// * * * * * * * * * * * * * * * * * * * * * * * * * * * * * * * * * * * * * //

dimensions      [0 2 -2 0 0 0 0];

internalField   nonuniform List<scalar> 
6000
(
0.0117121
0.00656335
0.0017558
0.000445787
0.000122076
0.000310374
0.000236927
0.000374152
0.000408134
0.000517284
0.000591136
0.00069813
0.000798096
0.000919161
0.00104441
0.00118197
0.00132378
0.00147157
0.00162204
0.00177558
0.00193216
0.00210092
0.00227731
0.00245481
0.00263304
0.00281155
0.00298983
0.00316748
0.00334404
0.00351907
0.00369294
0.00386441
0.00403246
0.00419664
0.00435623
0.00451052
0.0046587
0.00480014
0.00493388
0.00505956
0.00517574
0.00528305
0.00537863
0.00546508
0.00553841
0.00559915
0.00581173
0.00607961
0.00633327
0.00665024
0.00692293
0.0073285
0.00761832
0.00819491
0.00848796
0.00941145
0.00966446
0.0113477
0.0115046
0.0155434
0.0120372
0.0117127
0.00208974
0.000676077
0.000130258
0.000260898
0.000339463
0.000462572
0.000580812
0.000732678
0.000881785
0.00106015
0.00124615
0.00146258
0.00169628
0.00195441
0.00222717
0.00251489
0.00281246
0.00311933
0.00343333
0.00375489
0.00408197
0.00441369
0.00474978
0.00508991
0.00543369
0.00578089
0.00613134
0.00648487
0.00684144
0.00719722
0.00755383
0.00791088
0.00826763
0.00862337
0.00897723
0.00932846
0.00967597
0.0100193
0.0103568
0.0106889
0.0110125
0.0113301
0.0116387
0.0119366
0.0122481
0.0125633
0.0128614
0.013177
0.0134598
0.0137974
0.0140665
0.014472
0.0147307
0.0152961
0.0155466
0.0164612
0.0169039
0.0190871
0.011568
0.0151666
0.00288281
0.000646451
0.00017716
0.000306865
0.000427263
0.000573734
0.000730051
0.000919717
0.00111267
0.00133848
0.00157805
0.00185385
0.00215352
0.00248281
0.00283134
0.00319808
0.00357737
0.00396785
0.0043669
0.00477384
0.00518696
0.00560566
0.00602945
0.00645782
0.00689026
0.00732642
0.00776604
0.00820886
0.00865462
0.00910022
0.00954655
0.00999306
0.0104389
0.0108831
0.0113247
0.0117628
0.0121961
0.012624
0.0130447
0.0134583
0.0138624
0.0142581
0.0146452
0.0150165
0.015388
0.015753
0.0161042
0.0164581
0.0167913
0.0171524
0.0174768
0.0178845
0.0182201
0.0187541
0.0191461
0.0199653
0.0206732
0.0227019
0.0114637
0.0160718
0.00401099
0.00052869
0.000223315
0.000352985
0.000494934
0.000663699
0.000846789
0.00106561
0.00129138
0.00155242
0.00183198
0.00215118
0.00249888
0.00287926
0.00328201
0.00370501
0.00414239
0.00459222
0.00505169
0.00551963
0.00599434
0.00647508
0.00696119
0.00745199
0.00794687
0.00844538
0.00894719
0.00945203
0.00995937
0.0104666
0.010974
0.011481
0.0119865
0.0124894
0.0129888
0.0134834
0.013972
0.0144537
0.0149268
0.0153911
0.0158445
0.0162876
0.0167224
0.0171352
0.0175445
0.0179409
0.0183265
0.0187047
0.0190721
0.0194486
0.0198142
0.020225
0.0206235
0.0211409
0.0216536
0.0224194
0.0234046
0.0252961
0.0113763
0.0157671
0.00532401
0.000477548
0.000265547
0.000393224
0.000551081
0.000739388
0.000944488
0.00118773
0.00144085
0.00173118
0.00204384
0.00239873
0.00278574
0.00320783
0.00365485
0.00412379
0.00460866
0.00510707
0.00561606
0.0061341
0.0066594
0.00719104
0.0077282
0.00827007
0.00881591
0.0093652
0.00991754
0.0104727
0.0110297
0.0115863
0.0121425
0.0126974
0.01325
0.013799
0.0143433
0.0148816
0.0154125
0.015935
0.0164474
0.0169493
0.0174391
0.0179167
0.0183854
0.0188263
0.0192616
0.0196792
0.0200879
0.0204816
0.0208721
0.0212574
0.0216519
0.0220624
0.0225086
0.0230112
0.0236201
0.0243436
0.025547
0.0273073
0.0113034
0.014942
0.00672683
0.000601618
0.000306139
0.000428834
0.000600112
0.000805765
0.00103019
0.00129497
0.0015722
0.00188831
0.00222994
0.00261595
0.00303714
0.00349552
0.00398106
0.0044901
0.00501649
0.00555746
0.00610988
0.00667194
0.00724169
0.00781805
0.00840003
0.00898669
0.00957719
0.0101709
0.0107674
0.0113664
0.0119664
0.0125656
0.0131637
0.0137597
0.0143523
0.0149403
0.0155223
0.016097
0.0166629
0.0172188
0.017763
0.018295
0.0188135
0.0193181
0.0198119
0.0202732
0.0207271
0.0211594
0.0215837
0.0219871
0.0223927
0.0227823
0.0231967
0.0236047
0.0240866
0.0245757
0.0252613
0.0259497
0.0273227
0.0289558
0.0112435
0.0139425
0.00776252
0.00113376
0.000353318
0.000461556
0.00064455
0.00086576
0.00110774
0.0013921
0.0016913
0.00203087
0.0023987
0.00281278
0.00326471
0.0037558
0.00427614
0.0048215
0.00538558
0.00596525
0.00655725
0.00715946
0.00776978
0.00838697
0.00900987
0.0096374
0.0102686
0.0109027
0.0115393
0.0121781
0.0128169
0.0134545
0.0140902
0.0147228
0.0153509
0.0159733
0.0165883
0.0171946
0.0177905
0.0183748
0.0189458
0.0195027
0.0200447
0.0205712
0.0210831
0.0215597
0.0220268
0.022469
0.0229034
0.0233122
0.023727
0.0241176
0.024545
0.0249487
0.025457
0.0259337
0.0266804
0.0273391
0.028845
0.0303539
0.0111888
0.0129402
0.00846351
0.00206999
0.000428196
0.000493387
0.000686151
0.000921301
0.00117952
0.00148202
0.00180167
0.00216302
0.00255504
0.00299497
0.00347519
0.00399643
0.00454893
0.00512794
0.00572703
0.00634276
0.00697166
0.00761137
0.00825963
0.00891499
0.00957614
0.0102419
0.0109111
0.011583
0.0122569
0.0129326
0.0136074
0.0142804
0.0149505
0.0156166
0.0162771
0.0169304
0.0175751
0.0182095
0.0188319
0.0194408
0.0200348
0.0206127
0.0211741
0.0217183
0.0222431
0.0227311
0.023207
0.0236554
0.0240954
0.0245062
0.0249255
0.0253142
0.025749
0.0261468
0.0266741
0.0271389
0.0279346
0.0285676
0.0301771
0.031565
0.011136
0.012015
0.00887975
0.00319698
0.000576977
0.000527174
0.000726438
0.000973852
0.00124721
0.0015667
0.00190563
0.00228748
0.00270217
0.00316627
0.0036729
0.00422235
0.00480501
0.0054157
0.00604784
0.00669766
0.00736152
0.0080368
0.00872107
0.00941268
0.0101102
0.0108122
0.0115175
0.0122251
0.0129343
0.0136449
0.0143536
0.0150597
0.015762
0.0164592
0.0171495
0.0178314
0.018503
0.0191628
0.0198087
0.0204394
0.0210532
0.021649
0.0222266
0.0227846
0.0233181
0.0238141
0.0242954
0.0247466
0.0251886
0.0255983
0.0260181
0.0264025
0.0268401
0.0272306
0.0277707
0.0282239
0.0290583
0.0296686
0.0313579
0.0326281
0.0110858
0.0111986
0.00905938
0.00433647
0.000889137
0.000567877
0.000767074
0.00102472
0.00131213
0.00164762
0.00200491
0.00240624
0.00284239
0.00332931
0.00386086
0.00443698
0.00504825
0.00568906
0.00635271
0.00703512
0.00773245
0.00844184
0.00916066
0.00988708
0.0106194
0.0113563
0.0120961
0.012838
0.013581
0.0143248
0.0150658
0.0158033
0.016536
0.0172623
0.0179805
0.0186888
0.0193852
0.020068
0.0207351
0.021385
0.0220161
0.022627
0.023218
0.0237858
0.0243249
0.024826
0.0253096
0.0257607
0.0262015
0.0266074
0.0270243
0.0274021
0.0278385
0.0282202
0.0287678
0.0292094
0.0300738
0.0306636
0.0324128
0.0335692
0.0110393
0.0104975
0.00905226
0.00534242
0.0014712
0.000625267
0.000810247
0.00107524
0.00137548
0.00172604
0.00210087
0.00252084
0.00297745
0.00348608
0.00404132
0.00464285
0.00528144
0.00595113
0.00664506
0.00735885
0.00808846
0.00883079
0.00958301
0.0103431
0.0111092
0.0118797
0.012653
0.0134279
0.0142034
0.014979
0.0157509
0.0165184
0.0172799
0.0180338
0.0187782
0.0195111
0.0202304
0.0209342
0.0216204
0.0222873
0.0229333
0.023557
0.0241587
0.0247325
0.0252748
0.0257783
0.0262614
0.0267098
0.0271464
0.0275461
0.027957
0.028326
0.0287578
0.0291292
0.0296798
0.0301095
0.0309966
0.0315673
0.0333595
0.0344064
0.010997
0.00990595
0.008907
0.00615931
0.00222524
0.000718942
0.000859291
0.00112703
0.00143847
0.00180313
0.00219474
0.0026326
0.00310882
0.00363821
0.00421608
0.00484195
0.00550678
0.00620429
0.00692747
0.00767163
0.00843255
0.00920686
0.00999153
0.0107843
0.0115832
0.0123864
0.0131921
0.0139991
0.0148061
0.0156124
0.016414
0.0172102
0.0179992
0.0187793
0.0195484
0.0203043
0.0210448
0.0217678
0.0224712
0.023153
0.0238117
0.0244459
0.0250556
0.0256322
0.0261756
0.0266788
0.0271589
0.0276022
0.028032
0.0284231
0.0288252
0.0291834
0.0296075
0.0299672
0.0305168
0.0309342
0.0318373
0.03239
0.034211
0.0351528
0.010959
0.00941252
0.00866736
0.00676758
0.00305858
0.000890001
0.000919789
0.0011822
0.00150246
0.0018801
0.00228767
0.00274274
0.00323779
0.00378709
0.00438668
0.00503594
0.00572606
0.00645047
0.00720201
0.00797568
0.00876707
0.00957253
0.0103888
0.0112136
0.0120444
0.0128795
0.0137168
0.0145549
0.0153925
0.0162285
0.0170588
0.0178824
0.0186978
0.0195028
0.0202951
0.0210725
0.0218326
0.0225732
0.0232919
0.0239867
0.0246562
0.0252988
0.0259133
0.0264905
0.0270327
0.0275333
0.028008
0.0284439
0.0288644
0.0292448
0.0296356
0.029981
0.0303946
0.030741
0.0312861
0.0316905
0.032604
0.0331391
0.0349767
0.0358183
0.010925
0.00900432
0.00837017
0.00717251
0.00387346
0.00122401
0.00100167
0.00124374
0.0015691
0.00195826
0.00238087
0.00285244
0.00336559
0.00393403
0.00455449
0.00522627
0.00594083
0.00669131
0.0074704
0.00827282
0.00909391
0.0099298
0.010777
0.0116329
0.0124951
0.0133613
0.0142294
0.0150979
0.0159652
0.0168299
0.0176878
0.018538
0.0193785
0.0202071
0.0210214
0.0218189
0.0225971
0.0233535
0.0240859
0.0247919
0.0254703
0.0261192
0.0267352
0.0273111
0.02785
0.0283458
0.0288128
0.0292391
0.0296482
0.0300156
0.0303928
0.0307235
0.0311241
0.0314558
0.0319932
0.0323839
0.0333025
0.0338204
0.035664
0.0364106
0.010895
0.00866864
0.00804462
0.00739374
0.00462586
0.00175178
0.00112225
0.00131616
0.00164055
0.0020392
0.00247563
0.00296294
0.00349343
0.00408026
0.00472079
0.00541429
0.00615248
0.00692826
0.00773415
0.0085646
0.00941471
0.0102803
0.0111578
0.0120442
0.012937
0.0138336
0.0147318
0.0156299
0.0165261
0.0174186
0.0183033
0.0191789
0.0200434
0.0208945
0.0217294
0.0225456
0.0233404
0.0241112
0.0248555
0.025571
0.0262563
0.0269088
0.027524
0.0280967
0.0286304
0.0291192
0.0295764
0.029991
0.0303864
0.0307389
0.0311004
0.0314145
0.0317998
0.0321153
0.0326422
0.0330183
0.0339375
0.0344383
0.036279
0.0369359
0.0108685
0.00839382
0.00771266
0.00745851
0.00528119
0.002434
0.00131132
0.00140651
0.0017197
0.00212485
0.00257348
0.0030756
0.0036226
0.00422706
0.00488686
0.00560128
0.00636232
0.00716266
0.00799463
0.00885242
0.00973087
0.0106256
0.0115327
0.012449
0.0133716
0.014298
0.0152256
0.0161525
0.0170768
0.0179963
0.0189066
0.0198066
0.0206941
0.0215665
0.0224208
0.0232543
0.0240642
0.0248477
0.0256023
0.0263255
0.027016
0.0276691
0.0282817
0.0288494
0.0293758
0.0298555
0.0303009
0.0307018
0.0310816
0.0314173
0.0317609
0.0320568
0.0324247
0.0327225
0.0332363
0.0335969
0.0345126
0.034996
0.0368262
0.0373989
0.0108453
0.00816964
0.00738984
0.00739716
0.00581452
0.0031911
0.00162046
0.00152596
0.00181063
0.00221772
0.00267622
0.00319197
0.0037545
0.00437576
0.00505401
0.00578854
0.00657165
0.00739578
0.00825312
0.00913755
0.0100437
0.0109668
0.0119029
0.0128484
0.0138003
0.0147558
0.015712
0.0166669
0.0176186
0.018564
0.0194992
0.0204225
0.0213318
0.0222242
0.0230966
0.0239461
0.0247696
0.0255643
0.0263276
0.0270567
0.02775
0.0284013
0.0290095
0.0295704
0.0300877
0.0305563
0.0309879
0.0313732
0.0317354
0.0320525
0.0323765
0.0326524
0.0330009
0.0332796
0.0337779
0.0341221
0.0350305
0.0354965
0.0373096
0.0378038
0.010825
0.00798734
0.00708647
0.00724012
0.00621222
0.00395302
0.00207831
0.00169206
0.00191923
0.0023211
0.00278607
0.00331386
0.00389071
0.00452781
0.0052236
0.00597739
0.00678174
0.00762889
0.00851085
0.00942122
0.0103543
0.0113053
0.0122696
0.0132437
0.0142242
0.015208
0.0161921
0.0171743
0.0181525
0.0191228
0.0200818
0.0210275
0.0219574
0.0228686
0.0237577
0.0246217
0.0254574
0.0262617
0.0270319
0.0277653
0.0284584
0.0291062
0.0297083
0.0302606
0.030767
0.0312225
0.0316385
0.0320063
0.0323491
0.0326458
0.0329484
0.0332029
0.0335301
0.0337884
0.034269
0.0345959
0.0354937
0.035942
0.0377324
0.0381539
0.0108072
0.00783949
0.00680868
0.00701575
0.00647157
0.00466663
0.00266675
0.00193134
0.00205404
0.0024394
0.00290582
0.00344345
0.00403302
0.00468485
0.00539713
0.00616924
0.00699395
0.00786328
0.00876907
0.00970462
0.010664
0.011642
0.0126339
0.0136359
0.0146442
0.0156556
0.0166668
0.0176755
0.0186793
0.0196736
0.0206552
0.0216221
0.0225714
0.0235001
0.0244047
0.0252817
0.0261281
0.0269403
0.0277158
0.028451
0.0291418
0.0297844
0.0303786
0.0309206
0.0314142
0.0318548
0.0322533
0.032602
0.0329237
0.0331983
0.0334778
0.0337093
0.0340136
0.0342502
0.0347112
0.0350198
0.0359039
0.0363343
0.0380974
0.038452
0.0107918
0.00771991
0.0065595
0.00674903
0.00659904
0.00529247
0.00333575
0.00227783
0.00222756
0.00257859
0.00303905
0.00358337
0.00418356
0.0048487
0.00557626
0.00636562
0.00720968
0.00810029
0.00902904
0.00998896
0.0109738
0.0119781
0.0129968
0.0140259
0.0150613
0.0160994
0.0171369
0.0181711
0.0191995
0.0202167
0.02122
0.0222068
0.0231744
0.0241193
0.0250377
0.0259264
0.0267817
0.0276003
0.0283792
0.0291135
0.0298003
0.0304361
0.0310207
0.0315507
0.0320296
0.0324535
0.0328329
0.0331606
0.0334596
0.0337106
0.0339654
0.0341725
0.0344525
0.0346662
0.0351057
0.0353951
0.0362628
0.036675
0.0384071
0.0387006
0.0107784
0.00762348
0.0063397
0.00646081
0.00660818
0.00580355
0.00403593
0.00275
0.00245768
0.00274679
0.00319031
0.00373689
0.00434485
0.00502148
0.00576283
0.00656818
0.00743047
0.00834131
0.00929206
0.0102754
0.0112849
0.0123146
0.0133594
0.0144146
0.0154762
0.0165403
0.0176031
0.0186619
0.0197138
0.0207529
0.0217766
0.0227821
0.0237665
0.0247262
0.0256571
0.0265558
0.0274185
0.0282417
0.0290214
0.0297529
0.030434
0.0310613
0.0316347
0.0321507
0.0326133
0.0330188
0.0333773
0.0336825
0.0339572
0.0341832
0.0344119
0.0345933
0.0348473
0.035037
0.0354536
0.0357228
0.0365717
0.0369654
0.0386633
0.0389017
0.0107668
0.00754597
0.00614853
0.00616764
0.0065173
0.00618412
0.0047212
0.00333547
0.00276919
0.00295486
0.00336554
0.00390801
0.00451987
0.00520566
0.00595894
0.00677877
0.00765797
0.00858787
0.0095595
0.0105653
0.0115984
0.0126526
0.0137224
0.014803
0.0158899
0.0169789
0.0180661
0.0191483
0.0202226
0.0212823
0.0223252
0.0233481
0.024348
0.0253209
0.0262627
0.0271698
0.0280382
0.0288637
0.0296419
0.030369
0.0310428
0.0316598
0.0322202
0.0327207
0.0331652
0.0335505
0.0338865
0.0341677
0.0344166
0.0346162
0.0348174
0.0349719
0.0351989
0.0353635
0.0357555
0.0360039
0.0368317
0.0372069
0.0388681
0.0390571
0.0107568
0.00748388
0.00598429
0.00588193
0.00634722
0.00642861
0.00535117
0.00399936
0.00318323
0.00321689
0.00357231
0.00410168
0.00471221
0.00540409
0.00616696
0.00699947
0.00789399
0.00884157
0.00983284
0.0108599
0.0119156
0.0129932
0.014087
0.0151919
0.016303
0.0174158
0.0185262
0.0196309
0.0207262
0.0218054
0.0228661
0.023905
0.0249187
0.0259034
0.0268545
0.0277682
0.0286402
0.0294655
0.0302406
0.0309616
0.0316262
0.0322313
0.0327769
0.0332602
0.033685
0.0340485
0.0343605
0.0346161
0.0348379
0.0350097
0.0351823
0.0353087
0.0355074
0.035646
0.0360122
0.036239
0.0370439
0.0374003
0.0390229
0.0391683
0.0107481
0.00743438
0.00584469
0.00561237
0.0061193
0.00654036
0.00589269
0.00469781
0.00370489
0.00355025
0.00382027
0.00432395
0.00492616
0.0056201
0.00638963
0.00723256
0.00814054
0.00910418
0.0101136
0.0111607
0.0122376
0.0133375
0.0144541
0.0155821
0.0167163
0.0178518
0.0189842
0.0201101
0.021225
0.0223222
0.0233994
0.0244526
0.0254788
0.0264735
0.0274322
0.0283504
0.0292234
0.0300469
0.030817
0.0315302
0.0321839
0.0327753
0.0333045
0.0337689
0.0341723
0.0345123
0.0347989
0.0350276
0.0352209
0.0353638
0.0355066
0.0356039
0.0357733
0.0358851
0.0362243
0.0364288
0.037209
0.0375468
0.0391292
0.0392368
0.0107405
0.00739513
0.0057272
0.00536453
0.00585377
0.00653017
0.00632095
0.00538638
0.00431938
0.00397061
0.00412145
0.00458209
0.00516679
0.00585756
0.00663003
0.00748065
0.00839983
0.00937762
0.0104035
0.011469
0.0125657
0.0136865
0.0148247
0.0159745
0.0171305
0.0182873
0.0194404
0.0205861
0.0217192
0.0228329
0.0239249
0.024991
0.0260278
0.0270309
0.0279948
0.0289152
0.0297875
0.0306073
0.0313707
0.0320742
0.0327153
0.0332913
0.0338023
0.034246
0.0346265
0.0349416
0.0352013
0.0354017
0.0355654
0.0356782
0.0357902
0.0358576
0.0359968
0.0360809
0.0363921
0.0365738
0.0373278
0.037647
0.0391883
0.0392638
0.010734
0.00736421
0.00562922
0.00514142
0.00556864
0.00641444
0.00662023
0.00602421
0.00499699
0.00448315
0.0044906
0.00488459
0.00544006
0.00612089
0.00689169
0.0077466
0.00867427
0.00966393
0.0107043
0.0117864
0.0129013
0.0140414
0.0151997
0.0163699
0.0175462
0.018723
0.0198952
0.0210594
0.0222089
0.0233375
0.0244428
0.0255199
0.0265656
0.0275745
0.0285415
0.0294623
0.030332
0.0311461
0.0319011
0.032593
0.0332197
0.0337785
0.0342697
0.0346911
0.0350471
0.0353358
0.0355672
0.0357381
0.035871
0.0359527
0.0360331
0.0360697
0.0361779
0.0362338
0.0365161
0.0366746
0.0374011
0.0377019
0.0392014
0.0392503
0.0107283
0.00734007
0.00554826
0.00494413
0.00527894
0.0062132
0.00678411
0.00657618
0.00569955
0.00508121
0.00493731
0.00524263
0.00575306
0.00641509
0.00717854
0.0080336
0.00896651
0.00996537
0.0110179
0.0121145
0.0132457
0.0144034
0.0155801
0.016769
0.017964
0.0191592
0.020349
0.02153
0.0226942
0.023836
0.0249527
0.0260388
0.0270908
0.0281036
0.0290718
0.0299909
0.0308561
0.0316628
0.0324073
0.0330858
0.0336963
0.0342361
0.0347058
0.0351034
0.0354333
0.0356941
0.035896
0.0360362
0.0361374
0.0361871
0.036235
0.0362402
0.0363166
0.0363438
0.0365966
0.0367314
0.0374294
0.0377121
0.0391696
0.0391973
0.0107234
0.00732142
0.00548197
0.00477234
0.00499646
0.00594814
0.00681509
0.00701433
0.00638618
0.0057456
0.00546543
0.00566437
0.00611433
0.00674666
0.00749491
0.00834511
0.00927943
0.0102843
0.0113462
0.012455
0.0136004
0.0147737
0.0159668
0.0171727
0.0183847
0.0195964
0.020802
0.0219982
0.0231751
0.024328
0.0254536
0.0265466
0.0276031
0.0286177
0.0295851
0.0305006
0.0313592
0.0321564
0.0328885
0.0335518
0.0341443
0.0346634
0.0351098
0.035482
0.0357844
0.036016
0.0361871
0.0362956
0.036364
0.036381
0.0363956
0.0363688
0.0364131
0.0364112
0.0366337
0.0367447
0.0374133
0.0376783
0.0390937
0.0391057
0.0107191
0.00730722
0.00542822
0.00462477
0.00472979
0.00564076
0.00672355
0.00731891
0.00701716
0.00644701
0.00607012
0.00615541
0.0065305
0.00712144
0.00784639
0.00868569
0.00961619
0.0106233
0.0116914
0.0128097
0.0139668
0.0151535
0.0163609
0.0175817
0.0188087
0.020035
0.0212544
0.0224632
0.0236508
0.0248127
0.0259453
0.0270431
0.0281018
0.0291162
0.0300807
0.0309904
0.0318404
0.0326262
0.0333439
0.03399
0.0345626
0.0350593
0.0354808
0.035826
0.0360994
0.0363006
0.0364398
0.0365155
0.0365504
0.0365339
0.0365148
0.0364556
0.0364672
0.0364359
0.0366278
0.0367149
0.0373533
0.0376012
0.0389748
0.0389762
0.0107153
0.00729662
0.00538511
0.00449957
0.00448461
0.00531094
0.00652623
0.00747927
0.00755669
0.00714982
0.00673661
0.00671663
0.00700676
0.0075446
0.00823739
0.00905896
0.00998034
0.0109852
0.012056
0.0131805
0.0143464
0.0155438
0.0167631
0.0179964
0.0192361
0.0204748
0.0217059
0.022925
0.0241211
0.0252898
0.0264271
0.0275275
0.0285864
0.0295983
0.0305577
0.0314596
0.0322989
0.0330711
0.0337725
0.0343995
0.0349503
0.0354227
0.0358178
0.0361345
0.0363776
0.036547
0.0366533
0.0366954
0.036696
0.0366454
0.0365921
0.0365001
0.0364789
0.036418
0.0365791
0.0366422
0.03725
0.0374813
0.0388137
0.0388097
0.0107121
0.0072889
0.00535095
0.00439454
0.00426412
0.0049758
0.0062442
0.00749406
0.00797495
0.00781589
0.00744087
0.0073422
0.00754534
0.00802021
0.00867194
0.00946836
0.0103748
0.0113726
0.0124418
0.013569
0.0147405
0.0159456
0.0171741
0.0184174
0.0196673
0.020916
0.0221563
0.0233834
0.0245857
0.0257589
0.0268986
0.0279993
0.029056
0.0300632
0.0310153
0.031907
0.0327335
0.03349
0.034173
0.034779
0.0353062
0.0357527
0.0361197
0.0364065
0.0366179
0.0367545
0.0368268
0.0368345
0.0368001
0.0367151
0.0366271
0.0365022
0.0364479
0.0363576
0.0364876
0.0365269
0.0371038
0.0373193
0.0386111
0.0386066
0.0107092
0.00728349
0.00532428
0.00430741
0.00406957
0.00464913
0.00590076
0.00737092
0.00824982
0.0084076
0.00815179
0.00801849
0.00814405
0.00855037
0.0091531
0.00991692
0.0108022
0.0117876
0.0128508
0.0139766
0.0151502
0.0163598
0.0175945
0.0188449
0.0201024
0.0213584
0.0226056
0.0238379
0.025044
0.0262193
0.027359
0.0284576
0.0295098
0.0305099
0.0314523
0.0323317
0.033143
0.0338818
0.0345444
0.0351273
0.0356292
0.0360481
0.0363853
0.0366408
0.0368194
0.036922
0.0369595
0.036932
0.0368622
0.0367422
0.0366195
0.0364616
0.0363743
0.0362546
0.0363536
0.0363694
0.0369151
0.0371157
0.0383679
0.0383678
0.0107068
0.00727992
0.00530384
0.0042359
0.00390072
0.00434119
0.00551934
0.00712538
0.00836823
0.00889053
0.00883397
0.00872421
0.00879491
0.009134
0.00968234
0.0104068
0.0112646
0.0122321
0.0132844
0.0144046
0.0155765
0.0167871
0.0180248
0.0192793
0.0205414
0.0218021
0.0230534
0.0242883
0.0254955
0.0266703
0.0278075
0.0289015
0.0299466
0.0309373
0.0318676
0.0327323
0.0335263
0.0342452
0.0348852
0.0354433
0.0359179
0.0363075
0.0366136
0.0368363
0.0369808
0.0370485
0.0370504
0.0369871
0.0368814
0.0367264
0.0365688
0.036378
0.0362578
0.036109
0.0361771
0.0361698
0.0366845
0.0368711
0.0380846
0.0380936
0.0107046
0.00727779
0.00528855
0.00417787
0.0037563
0.00405885
0.00512168
0.0067792
0.00832699
0.00923567
0.00945047
0.00943152
0.00948349
0.00976581
0.0102587
0.0109386
0.0117633
0.0127074
0.0137438
0.0148539
0.01602
0.017228
0.0184651
0.0197206
0.0209842
0.0222466
0.0234992
0.0247337
0.0259394
0.027111
0.0282431
0.0293298
0.0303654
0.031344
0.0322599
0.0331075
0.0338819
0.0345787
0.0351942
0.0357253
0.0361709
0.0365296
0.0368031
0.0369918
0.0371012
0.037133
0.0370986
0.0369991
0.0368572
0.036667
0.0364746
0.036251
0.0360982
0.0359207
0.0359583
0.0359284
0.0364122
0.036586
0.0377621
0.0377847
0.0107027
0.0072768
0.00527748
0.00413137
0.0036344
0.00380598
0.00472649
0.00635809
0.00813292
0.00942153
0.00996539
0.0101079
0.010189
0.0104354
0.0108778
0.0115111
0.0122983
0.0132139
0.0142295
0.015325
0.016481
0.0176824
0.0189154
0.0201683
0.0214303
0.0226912
0.0239423
0.0251734
0.0263746
0.0275402
0.0286644
0.0297412
0.0307646
0.0317287
0.0326276
0.0334558
0.0342083
0.0348808
0.0354697
0.0359721
0.0363869
0.0367131
0.0369525
0.037106
0.0371793
0.0371745
0.0371032
0.036967
0.0367888
0.0365633
0.0363364
0.0360804
0.0358954
0.0356898
0.0356973
0.0356455
0.0360988
0.0362609
0.0374008
0.0374416
0.010701
0.00727669
0.00526983
0.00409462
0.00353278
0.00358405
0.00434856
0.00588934
0.00780213
0.00943575
0.0103463
0.0107183
0.0108848
0.011127
0.0115313
0.0121201
0.0128676
0.0137507
0.0147411
0.0158175
0.0169593
0.0181501
0.0193752
0.020622
0.021879
0.0231351
0.0243814
0.025606
0.0267998
0.0279565
0.0290701
0.0301342
0.0311428
0.0320897
0.0329691
0.0337755
0.0345039
0.0351498
0.0357101
0.0361819
0.0365643
0.0368565
0.0370605
0.0371777
0.0372139
0.0371718
0.0370631
0.0368901
0.0366754
0.0364149
0.0361536
0.0358658
0.0356491
0.0354162
0.0353942
0.0353214
0.0357446
0.0358964
0.0370015
0.0370646
0.0106995
0.00727724
0.00526495
0.00406605
0.00344904
0.00339266
0.00399855
0.00539935
0.0073585
0.00927642
0.0105665
0.0112275
0.0115402
0.0118193
0.0122063
0.0127583
0.0134669
0.0143153
0.015277
0.0163302
0.0174536
0.01863
0.0198434
0.0210804
0.0223289
0.023577
0.024815
0.0260301
0.0272135
0.0283584
0.0294584
0.030507
0.031498
0.0324252
0.0332827
0.0340648
0.0347667
0.0353841
0.0359137
0.0363531
0.0367014
0.0369581
0.0371256
0.0372054
0.0372038
0.0371238
0.0369773
0.0367673
0.0365163
0.0362211
0.0359259
0.0356069
0.0353593
0.0350999
0.0350491
0.0349562
0.0353501
0.0354929
0.0365648
0.0366544
0.0106983
0.00727829
0.00526227
0.00404429
0.00338086
0.00323013
0.00368311
0.00491165
0.00683133
0.00895244
0.0106074
0.011602
0.0121218
0.0124862
0.0128852
0.0134145
0.0140893
0.0149031
0.0158338
0.0168607
0.0179622
0.0191203
0.0203183
0.021542
0.0227784
0.0240151
0.0252415
0.0264439
0.0276137
0.0287438
0.0298273
0.0308576
0.0318284
0.0327332
0.0335661
0.0343216
0.0349948
0.0355815
0.0360786
0.0364838
0.0367964
0.0370164
0.0371461
0.0371877
0.0371475
0.0370292
0.0368448
0.0365977
0.0363107
0.0359811
0.0356527
0.0353033
0.0350256
0.0347407
0.0346621
0.0345503
0.0349156
0.0350509
0.0360912
0.0362112
0.0106971
0.0072797
0.00526133
0.00402814
0.00332602
0.00309402
0.0034054
0.00444541
0.00625256
0.00848315
0.0104602
0.0118131
0.0125954
0.0130979
0.0135456
0.0140732
0.0147242
0.015507
0.0164066
0.0174051
0.0184818
0.0196183
0.0207975
0.0220044
0.0232253
0.0244472
0.0256585
0.0268451
0.0279983
0.0291104
0.0301746
0.0311838
0.0321315
0.0330113
0.0338173
0.0345438
0.0351861
0.03574
0.0362028
0.0365721
0.0368477
0.0370295
0.0371206
0.0371231
0.0370439
0.0368869
0.0366644
0.0363805
0.0360577
0.0356945
0.0353336
0.0349547
0.0346479
0.0343387
0.0342334
0.0341039
0.0344417
0.0345711
0.0355813
0.0357355
0.0106961
0.00728137
0.00526173
0.0040166
0.0032825
0.00298145
0.00316579
0.00401466
0.00565373
0.00789672
0.0101272
0.0118384
0.0129281
0.0136224
0.0141614
0.0147151
0.0153578
0.0161169
0.016988
0.0179579
0.0190079
0.0201202
0.0212775
0.0224644
0.0236666
0.0248704
0.0260633
0.0272309
0.0283643
0.0294557
0.0304975
0.0314828
0.0324049
0.0332571
0.0340336
0.0347289
0.0353382
0.0358575
0.0362841
0.036616
0.0368531
0.0369958
0.0370473
0.0370101
0.0368913
0.0366955
0.0364351
0.0361147
0.0357567
0.0353604
0.034968
0.0345607
0.0342261
0.0338939
0.0337631
0.0336172
0.0339286
0.0340539
0.0350357
0.0352279
0.0106952
0.00728322
0.00526316
0.00400877
0.00324849
0.00288947
0.00296267
0.00362828
0.00506326
0.00722767
0.00962285
0.0116649
0.0130906
0.0140267
0.0147035
0.0153169
0.0159726
0.0167198
0.0175681
0.0185113
0.0195343
0.0206208
0.0217538
0.0229179
0.0240984
0.0252812
0.0264525
0.0275981
0.0287088
0.0297764
0.0307931
0.0317518
0.0326455
0.0334678
0.0342125
0.0348743
0.0354485
0.0359313
0.0363201
0.0366132
0.0368107
0.0369133
0.0369244
0.036847
0.0366886
0.0364539
0.0361557
0.0357993
0.0354067
0.0349785
0.0345555
0.0341211
0.03376
0.0334062
0.0332513
0.0330907
0.0333769
0.0334998
0.0344549
0.0346886
0.0106945
0.00728517
0.00526535
0.00400393
0.00322239
0.00281518
0.0027931
0.00329044
0.00450436
0.00651352
0.00897267
0.0112905
0.0130596
0.0142794
0.0151407
0.0158521
0.0165474
0.0172995
0.0181343
0.0190553
0.0200529
0.0211133
0.0222206
0.0233599
0.0245162
0.0256753
0.026822
0.0279427
0.0290279
0.0300689
0.0310579
0.0319873
0.0328502
0.0336401
0.0343509
0.0349771
0.0355144
0.035959
0.0363086
0.0365616
0.0367184
0.03678
0.0367502
0.0366323
0.036434
0.0361607
0.0358252
0.0354333
0.0350071
0.0345479
0.0340956
0.0336356
0.0332494
0.0328758
0.0326983
0.0325246
0.032787
0.0329093
0.0338397
0.034118
0.0106938
0.00728717
0.00526809
0.00400145
0.00320281
0.0027559
0.00265346
0.0030015
0.0039938
0.00579114
0.00821177
0.0107256
0.0128202
0.0143518
0.0154416
0.0162921
0.0170582
0.0178364
0.0186711
0.0195776
0.0205536
0.0215892
0.0226707
0.0237838
0.0249142
0.0260473
0.0271669
0.0282603
0.0293174
0.0303293
0.0312879
0.0321857
0.0330155
0.0337707
0.0344455
0.0350343
0.0355329
0.0359378
0.0362467
0.0364585
0.0365738
0.0365939
0.0365227
0.0363642
0.0361262
0.0358146
0.0354423
0.0350159
0.0345571
0.0340681
0.033588
0.0331039
0.0326943
0.0323026
0.0321042
0.0319193
0.0321593
0.0322832
0.0331904
0.0335167
0.0106932
0.0072892
0.00527122
0.00400082
0.00318856
0.00270921
0.00253989
0.00275905
0.00354167
0.0050933
0.00738169
0.00999331
0.0123681
0.0142213
0.0155764
0.0166068
0.0174784
0.0183084
0.0191603
0.0200634
0.0210242
0.0220383
0.0230952
0.0241821
0.0252854
0.0263908
0.0274816
0.0285454
0.0295722
0.0305527
0.0314788
0.0323427
0.0331372
0.0338559
0.0344927
0.0350424
0.0355008
0.0358646
0.0361319
0.0363016
0.0363746
0.0363527
0.0362401
0.036041
0.0357636
0.0354142
0.035006
0.034546
0.0340558
0.0335385
0.0330322
0.0325257
0.0320946
0.0316867
0.0314693
0.0312751
0.0314945
0.0316218
0.0325078
0.0328851
0.0106927
0.00729121
0.00527459
0.0040016
0.00317861
0.00267297
0.00244859
0.00255894
0.00315199
0.00444591
0.00652633
0.00912869
0.0117118
0.0138731
0.0155184
0.0167667
0.01778
0.0186908
0.0195811
0.0204951
0.0214501
0.0224484
0.0234836
0.0245455
0.0256219
0.0266987
0.0277594
0.0287921
0.0297867
0.030734
0.0316256
0.0324537
0.0332112
0.0338914
0.0344887
0.0349978
0.0354148
0.0357364
0.035961
0.036088
0.0361184
0.0360543
0.0359002
0.0356609
0.0353446
0.0349583
0.0345152
0.0340228
0.0335026
0.0329586
0.0324278
0.0319009
0.0314502
0.0310283
0.0307938
0.0305924
0.0307931
0.0309259
0.0317924
0.0322236
0.0106922
0.00729318
0.00527811
0.00400344
0.00317211
0.00264533
0.00237604
0.00239613
0.00282394
0.00386662
0.00568741
0.00817613
0.0108736
0.0133033
0.0152467
0.016744
0.0179345
0.0189573
0.0199105
0.0208533
0.0218147
0.0228051
0.0238237
0.0248634
0.0259141
0.0269625
0.0279927
0.0289934
0.0299546
0.0308672
0.0317227
0.0325135
0.0332324
0.0338729
0.0344293
0.0348967
0.0352711
0.0355498
0.0357312
0.035815
0.0358026
0.0356964
0.0355012
0.0352221
0.0348678
0.0344454
0.0339686
0.0334453
0.0328968
0.0323279
0.0317746
0.0312294
0.0307613
0.0303276
0.0300782
0.0298718
0.0300555
0.0301961
0.031045
0.0315327
0.0106918
0.0072951
0.0052817
0.00400607
0.00316833
0.00262469
0.00231908
0.00226533
0.00255327
0.00336457
0.00490033
0.00718531
0.00988923
0.0125208
0.0147489
0.0165149
0.0179143
0.0190811
0.020124
0.0211163
0.0220992
0.0230924
0.0241014
0.0251236
0.0261513
0.0271727
0.0281729
0.0291414
0.0300686
0.0309456
0.0317642
0.0325165
0.0331957
0.0337954
0.03431
0.0347348
0.035066
0.0353012
0.0354391
0.0354796
0.0354245
0.0352765
0.0350408
0.0347228
0.0343314
0.0338744
0.0333653
0.0328127
0.0322377
0.031646
0.0310723
0.030511
0.0300278
0.0295847
0.0293227
0.0291137
0.0292825
0.029433
0.0302662
0.0308128
0.0106915
0.00729696
0.00528528
0.00400925
0.00316668
0.0026097
0.00227493
0.00216148
0.00233374
0.00294148
0.00419103
0.0062059
0.00880604
0.0115489
0.0140232
0.0160616
0.0176947
0.0190355
0.0201961
0.0212609
0.0222832
0.0232924
0.0243013
0.0253123
0.0263214
0.0273185
0.0282903
0.0292274
0.0301209
0.0309622
0.0317432
0.0324566