/*--------------------------------*- C++ -*----------------------------------*\
| =========                 |                                                 |
| \\      /  F ield         | OpenFOAM: The Open Source CFD Toolbox           |
|  \\    /   O peration     | Version:  2.4.0                                 |
|   \\  /    A nd           | Web:      www.OpenFOAM.org                      |
|    \\/     M anipulation  |                                                 |
\*---------------------------------------------------------------------------*/
FoamFile
{
    version     2.0;
    format      ascii;
    class       volVectorField;
    location    "5.4";
    object      U;
}
// * * * * * * * * * * * * * * * * * * * * * * * * * * * * * * * * * * * * * //

dimensions      [0 1 -1 0 0 0 0];

internalField   nonuniform List<vector> 
6000
(
(0.732453 -0.119305 -8.41099e-19)
(0.0307673 -0.00388927 0)
(-0.0303352 0.00652167 1.16243e-18)
(-0.0507069 0.0105242 0)
(-0.0399673 0.00820514 0)
(-0.0468667 0.00921444 0)
(-0.04548 0.00863695 4.69063e-19)
(-0.049592 0.00900924 1.7017e-23)
(-0.0517256 0.00905908 0)
(-0.0568768 0.00949296 0)
(-0.0611466 0.00973699 3.99163e-19)
(-0.0658135 0.0098701 -7.72939e-19)
(-0.0689839 0.0097802 0)
(-0.0718622 0.00958414 0)
(-0.0749397 0.00948815 -1.78287e-19)
(-0.0807412 0.00962421 0)
(-0.0875875 0.00973638 0)
(-0.0939109 0.0096346 -1.6773e-19)
(-0.0994705 0.00937251 -1.65083e-19)
(-0.104566 0.00896411 0)
(-0.109038 0.00843124 1.61021e-19)
(-0.112878 0.0077819 7.97828e-20)
(-0.116221 0.00705738 -7.9236e-20)
(-0.119189 0.00626383 0)
(-0.12173 0.00540409 0)
(-0.123809 0.00448687 0)
(-0.12537 0.00352086 3.94177e-20)
(-0.126366 0.00252071 -3.95921e-20)
(-0.126774 0.00151957 0)
(-0.126436 0.000430288 0)
(-0.125242 -0.000624476 5.09085e-21)
(-0.123243 -0.00164428 0)
(-0.120333 -0.00262065 4.1946e-20)
(-0.116474 -0.00352034 -4.27124e-20)
(-0.111575 -0.00433177 0)
(-0.105592 -0.00501224 0)
(-0.098437 -0.00554918 9.13882e-20)
(-0.0900238 -0.00589147 0)
(-0.0803363 -0.00602566 9.6551e-20)
(-0.069111 -0.00588815 0)
(-0.0566376 -0.00547132 0)
(-0.042124 -0.00467927 2.12461e-19)
(-0.02674 -0.0035592 -4.39816e-19)
(-0.00825927 -0.00186764 0)
(0.00993041 8.30739e-05 0)
(0.0332143 0.00295648 2.45793e-19)
(0.0536638 0.00585547 0)
(0.08388 0.0103682 0)
(0.105262 0.0142017 -5.49083e-19)
(0.145265 0.0210473 -5.72391e-19)
(0.166036 0.0257642 -5.88733e-19)
(0.218386 0.0356774 -7.01714e-22)
(0.238663 0.0414584 6.20968e-19)
(0.305886 0.0553396 0)
(0.323843 0.0621037 -1.07216e-21)
(0.414871 0.082065 -6.68123e-19)
(0.421714 0.0887747 5.80638e-19)
(0.55062 0.118137 6.92274e-19)
(0.5352 0.122076 1.33303e-21)
(0.765712 0.173768 0)
(0.796067 -0.163301 7.21671e-19)
(0.154646 -0.00324692 6.13925e-19)
(-0.00864023 0.00721998 -5.80745e-19)
(-0.0625441 0.0139119 -5.55294e-19)
(-0.0493087 0.010094 0)
(-0.0566454 0.0113635 0)
(-0.054604 0.0106015 -4.67845e-19)
(-0.0591058 0.0109795 8.95774e-19)
(-0.0602163 0.0109348 0)
(-0.0656 0.0113421 0)
(-0.0688162 0.0114219 -3.98086e-19)
(-0.0736375 0.0114248 3.85395e-19)
(-0.0763777 0.0111858 1.86977e-19)
(-0.0794645 0.010904 0)
(-0.08212 0.0108724 1.77653e-19)
(-0.0870326 0.0110421 0)
(-0.0931054 0.0111122 0)
(-0.0989567 0.0108431 0)
(-0.103768 0.0104135 0)
(-0.108255 0.00987397 0)
(-0.112232 0.00922842 3.38446e-24)
(-0.115785 0.00848615 0)
(-0.118934 0.00768436 -7.88673e-20)
(-0.121696 0.00681007 0)
(-0.124009 0.00586385 0)
(-0.125835 0.00485406 3.91265e-20)
(-0.127112 0.00378756 -3.92041e-20)
(-0.127788 0.00267894 4.09867e-24)
(-0.127791 0.00152245 1.98105e-20)
(-0.127033 0.000375421 0)
(-0.125454 -0.000783483 -5.05252e-21)
(-0.123016 -0.0019124 -2.04769e-20)
(-0.119635 -0.00300433 -1.15556e-23)
(-0.115269 -0.00401597 4.23571e-20)
(-0.109826 -0.0049392 -4.31984e-20)
(-0.103261 -0.00572449 0)
(-0.0954829 -0.00636491 0)
(-0.0864119 -0.00679802 0)
(-0.0760126 -0.00702066 0)
(-0.0640594 -0.00695121 0)
(-0.050764 -0.00659683 -2.03055e-19)
(-0.0354722 -0.00583895 0)
(-0.0191088 -0.0047409 2.17292e-19)
(0.00014526 -0.00304171 2.24952e-19)
(0.0195924 -0.00104975 0)
(0.0437142 0.00188344 0)
(0.0659739 0.00492441 0)
(0.0968826 0.00954824 0)
(0.120925 0.0137103 5.41051e-19)
(0.161332 0.0206782 0)
(0.185863 0.026065 0)
(0.238409 0.0359968 -6.02505e-19)
(0.264329 0.0431203 -6.10167e-19)
(0.330285 0.0566987 0)
(0.357253 0.065692 -1.23907e-18)
(0.445142 0.0849853 0)
(0.465592 0.0953126 -1.13391e-18)
(0.592073 0.123382 -6.70358e-19)
(0.594736 0.132899 3.14458e-19)
(0.816873 0.181637 7.85927e-19)
(0.830262 -0.117927 -3.77198e-20)
(0.236092 -0.0025729 -6.12681e-19)
(0.0388402 0.0057543 0)
(-0.0585939 0.0147211 5.54567e-19)
(-0.0491784 0.00995922 0)
(-0.0573304 0.0115213 0)
(-0.0555658 0.0109034 0)
(-0.060455 0.0113413 -4.45996e-19)
(-0.0614202 0.0113996 0)
(-0.066737 0.0118243 -4.10979e-19)
(-0.0696633 0.0118928 0)
(-0.0744769 0.0118477 0)
(-0.0771992 0.0115634 -1.85981e-19)
(-0.0804034 0.0112785 0)
(-0.0830149 0.0113188 0)
(-0.0874504 0.0115774 0)
(-0.0929398 0.0116521 0)
(-0.0984377 0.0112992 0)
(-0.102937 0.0107849 0)
(-0.107128 0.0101895 1.61131e-19)
(-0.11086 0.00949523 -1.59199e-19)
(-0.114229 0.00871251 0)
(-0.11721 0.00787327 -3.48635e-24)
(-0.1198 0.00695848 -7.78491e-20)
(-0.121938 0.00596782 0)
(-0.123583 0.00490942 -7.75664e-20)
(-0.124671 0.00378923 0)
(-0.125149 0.00262373 3.89953e-20)
(-0.124938 0.00142049 -1.96181e-20)
(-0.123973 0.000181758 0)
(-0.122195 -0.00104748 0)
(-0.11955 -0.0022491 2.02573e-20)
(-0.11596 -0.00341759 -1.25655e-23)
(-0.111379 -0.00450762 0)
(-0.105717 -0.00551354 8.53546e-20)
(-0.0989289 -0.00638155 0)
(-0.0909218 -0.00710969 8.92863e-20)
(-0.0816204 -0.00762819 0)
(-0.0709776 -0.00794304 0)
(-0.0587936 -0.00795973 0)
(-0.0452276 -0.00769921 2.00061e-19)
(-0.0297193 -0.00702425 0)
(-0.0130259 -0.00601757 0)
(0.00639658 -0.00439652 -2.21197e-19)
(0.0263181 -0.00248362 0)
(0.0505712 0.000373947 0)
(0.0735944 0.00335615 2.45934e-19)
(0.104394 0.00789319 -2.55595e-19)
(0.1297 0.0120617 -2.64042e-19)
(0.16957 0.0188751 0)
(0.195958 0.0244179 0)
(0.247758 0.0340137 0)
(0.275754 0.0415411 5.91778e-19)
(0.341152 0.0546047 6.13879e-19)
(0.370837 0.0643275 6.01587e-19)
(0.457564 0.0826183 0)
(0.482102 0.0946839 5.48213e-19)
(0.6073 0.120533 1.29152e-18)
(0.615971 0.133324 0)
(0.833308 0.174995 -7.54556e-19)
(0.850185 -0.102814 -4.23101e-20)
(0.310907 -5.54814e-05 5.99067e-19)
(0.0926944 0.00505934 -5.7935e-19)
(-0.0448931 0.0154182 0)
(-0.0460011 0.00960017 0)
(-0.0556051 0.0113993 0)
(-0.0544229 0.0108962 0)
(-0.0597484 0.0114303 0)
(-0.0608071 0.0115881 0)
(-0.0660622 0.0120485 4.0899e-19)
(-0.0689058 0.0121373 3.94163e-19)
(-0.0737039 0.0120749 0)
(-0.0765056 0.0117653 0)
(-0.0798134 0.0114843 0)
(-0.0824402 0.0115979 1.75677e-19)
(-0.0865449 0.0119552 0)
(-0.0915544 0.0120636 1.68364e-19)
(-0.0967336 0.0116548 -1.65196e-19)
(-0.10102 0.0110786 0)
(-0.105 0.0104453 -1.60027e-19)
(-0.108552 0.00971762 0)
(-0.111769 0.00890574 -7.82444e-20)
(-0.114603 0.00803686 1.55272e-19)
(-0.117046 0.00708891 7.72082e-20)
(-0.119035 0.00606046 0)
(-0.120531 0.00495944 3.84386e-20)
(-0.121469 0.00379095 0)
(-0.121792 0.00257121 3.86172e-20)
(-0.121425 0.00130382 0)
(-0.120309 4.54555e-07 0)
(-0.118383 -0.00130269 0)
(-0.115591 -0.00258028 2.00268e-20)
(-0.111855 -0.0038282 -8.13105e-20)
(-0.107129 -0.00500162 0)
(-0.101324 -0.00609603 -4.21566e-20)
(-0.0943926 -0.00705495 0)
(-0.0862435 -0.00787946 -8.8141e-20)
(-0.0768036 -0.00849464 0)
(-0.0660174 -0.00891344 0)
(-0.0537045 -0.00903039 0)
(-0.0399847 -0.00887939 1.96755e-19)
(-0.0243686 -0.00830335 0)
(-0.00748667 -0.00740928 2.09755e-19)
(0.0119992 -0.00588358 -2.16996e-19)
(0.0322053 -0.00408284 0)
(0.0564601 -0.00131423 -2.3281e-19)
(0.0799616 0.00155774 -4.82158e-19)
(0.110542 0.00601218 2.50525e-19)
(0.136692 0.0100965 5.16582e-19)
(0.175952 0.0168022 -5.36034e-19)
(0.203658 0.02234 -5.49006e-19)
(0.254549 0.0317196 0)
(0.283849 0.0393554 -5.76527e-19)
(0.348718 0.0521535 -5.97021e-19)
(0.379848 0.0620895 -5.78983e-19)
(0.46563 0.0799564 0)
(0.492396 0.092634 0)
(0.616318 0.117346 -6.19308e-19)
(0.628384 0.131436 0)
(0.841335 0.169168 7.01687e-19)
(0.864741 -0.0859759 -3.89544e-20)
(0.376027 0.00442706 -6.6748e-21)
(0.146175 0.00617708 5.78507e-19)
(-0.0209664 0.0159086 5.53778e-19)
(-0.0405035 0.0092832 0)
(-0.0526021 0.0111303 -4.88397e-19)
(-0.0522629 0.0107501 0)
(-0.058128 0.0113962 0)
(-0.0593911 0.0116515 0)
(-0.0646154 0.0121618 4.07249e-19)
(-0.0674512 0.0122825 -3.92364e-19)
(-0.072239 0.01222 0)
(-0.0751535 0.0118941 0)
(-0.0785621 0.0116218 0)
(-0.08122 0.0117941 -1.7476e-19)
(-0.0850519 0.0122429 0)
(-0.0896384 0.0123898 -1.67463e-19)
(-0.0945174 0.0119432 1.64268e-19)
(-0.0986284 0.0113166 0)
(-0.102432 0.0106527 0)
(-0.105828 0.00989804 7.85084e-20)
(-0.108904 0.00906158 7.76957e-20)
(-0.1116 0.00816596 -1.54138e-19)
(-0.113906 0.00718746 -7.66198e-20)
(-0.115758 0.00612351 0)
(-0.117117 0.00498181 3.81194e-20)
(-0.117918 0.00376648 0)
(-0.118104 0.00249337 -3.82769e-20)
(-0.117601 0.0011651 1.92401e-20)
(-0.116354 -0.000201597 0)
(-0.114303 -0.0015749 0)
(-0.111386 -0.00292775 -3.9646e-20)
(-0.107529 -0.0042559 4.02269e-20)
(-0.102685 -0.00551382 0)
(-0.0967654 -0.00669788 -4.16551e-20)
(-0.0897229 -0.00774972 0)
(-0.0814653 -0.0086728 8.70044e-20)
(-0.0719222 -0.00938808 0)
(-0.0610317 -0.00991439 0)
(-0.0486287 -0.0101367 0)
(-0.0348017 -0.0101006 -1.9407e-19)
(-0.0191178 -0.00963046 -1.99999e-19)
(-0.00210597 -0.00885692 -2.06663e-19)
(0.0174077 -0.0074358 2.32309e-22)
(0.0378138 -0.00576135 -2.20661e-19)
(0.0620302 -0.00309235 2.28911e-19)
(0.0858762 -0.000353025 4.72955e-19)
(0.116225 0.00401151 0)
(0.143008 0.00797088 -2.53031e-19)
(0.181693 0.0145778 5.25058e-19)
(0.210433 0.0200325 5.37134e-19)
(0.26044 0.0292458 0)
(0.290741 0.0368495 0)
(0.355065 0.0494613 0)
(0.38719 0.0594013 5.62708e-19)
(0.472136 0.0770193 0)
(0.500462 0.0898812 0)
(0.623188 0.113864 5.8715e-19)
(0.637657 0.128438 -2.63512e-19)
(0.846725 0.163268 -6.69416e-19)
(0.876695 -0.0688814 -3.55649e-20)
(0.432742 0.0101215 -5.91008e-19)
(0.198577 0.00879881 0)
(0.00994226 0.0165779 -5.53348e-19)
(-0.0318113 0.00925038 -5.14588e-19)
(-0.0484663 0.0108391 -3.16497e-23)
(-0.0493387 0.010534 0)
(-0.0558704 0.0113013 0)
(-0.0574374 0.0116426 0)
(-0.062684 0.0122111 -4.05699e-19)
(-0.0655602 0.0123687 0)
(-0.0703468 0.0123191 0)
(-0.0733872 0.0119837 1.83193e-19)
(-0.0768952 0.0117207 0)
(-0.0795935 0.0119365 0)
(-0.0831953 0.012463 0)
(-0.0873985 0.0126521 0)
(-0.0919842 0.0121837 -1.63446e-19)
(-0.0959311 0.0115162 0)
(-0.099575 0.010826 1.58118e-19)
(-0.102824 0.0100481 -7.80322e-20)
(-0.105765 0.00918977 -7.7205e-20)
(-0.108328 0.00826912 1.53114e-19)
(-0.110501 0.0072617 1.52176e-19)
(-0.112221 0.00616377 0)
(-0.11345 0.00498277 -3.78344e-20)
(-0.114121 0.00372192 0)
(-0.114179 0.00239687 0)
(-0.113549 0.00101012 -3.81585e-20)
(-0.112183 -0.000419298 0)
(-0.110015 -0.00186148 0)
(-0.106985 -0.00328871 3.92735e-20)
(-0.10302 -0.00469647 0)
(-0.0980716 -0.0060386 0)
(-0.0920524 -0.00731209 4.12354e-20)
(-0.0849143 -0.00845708 0)
(-0.0765655 -0.00947902 -8.60681e-20)
(-0.0669376 -0.0102954 0)
(-0.0559632 -0.01093 0)
(-0.0434904 -0.0112597 0)
(-0.0295815 -0.0113401 0)
(-0.0138504 -0.010979 1.97428e-19)
(0.00325793 -0.0103289 2.03517e-19)
(0.0227824 -0.00901721 2.11697e-22)
(0.0433375 -0.0074751 2.17456e-19)
(0.0674996 -0.00491197 2.24844e-19)
(0.0916067 -0.00231492 -2.32527e-19)
(0.121732 0.00195436 0)
(0.149012 0.00576959 -2.47632e-19)
(0.187172 0.0122818 2.5656e-19)
(0.216753 0.0176108 -5.2397e-19)
(0.265936 0.0266925 0)
(0.297082 0.0341843 0)
(0.36082 0.0466487 -5.61179e-19)
(0.393721 0.0564849 -5.43259e-19)
(0.477903 0.0739493 5.64211e-19)
(0.507456 0.0867642 4.83681e-19)
(0.629052 0.110268 -5.66973e-19)
(0.645424 0.12486 2.53255e-19)
(0.850935 0.157501 0)
(0.886938 -0.0526243 -3.2863e-20)
(0.482432 0.0163897 0)
(0.249453 0.0125465 5.76439e-19)
(0.0454789 0.0178725 5.52824e-19)
(-0.0192269 0.00949261 -1.10326e-22)
(-0.0430236 0.0105992 4.872e-19)
(-0.0456568 0.0102843 0)
(-0.0530456 0.0111704 0)
(-0.0550254 0.0115852 0)
(-0.0603627 0.0122169 2.02208e-19)
(-0.0633203 0.0124145 1.94707e-19)
(-0.0681197 0.0123875 0)
(-0.0712936 0.012048 -1.82468e-19)
(-0.0749023 0.0117936 1.77539e-19)
(-0.077649 0.0120393 0)
(-0.0810551 0.012629 0)
(-0.0849093 0.012861 0)
(-0.0892085 0.0123838 -7.76399e-24)
(-0.0929941 0.011684 0)
(-0.0964863 0.0109705 -3.14597e-19)
(-0.0995954 0.010172 7.76085e-20)
(-0.102403 0.00929366 7.67607e-20)
(-0.104835 0.00834928 -1.08821e-25)
(-0.106878 0.0073142 -7.56099e-20)
(-0.10847 0.00618349 0)
(-0.109571 0.00496436 0)
(-0.110116 0.00365916 0)
(-0.11005 0.00228342 1.88408e-20)
(-0.1093 0.000839835 3.78663e-20)
(-0.107818 -0.000651311 0)
(-0.10554 -0.00216123 0)
(-0.102404 -0.00366178 -3.89387e-20)
(-0.0983377 -0.00514814 -1.9736e-20)
(-0.0932919 -0.00657364 0)
(-0.0871813 -0.00793576 0)
(-0.0799569 -0.0091734 0)
(-0.0715272 -0.0102937 0)
(-0.0618256 -0.011211 0)
(-0.0507801 -0.0119538 0)
(-0.03825 -0.0123913 0)
(-0.0242752 -0.0125884 0)
(-0.00850967 -0.012338 0)
(0.00867279 -0.0118124 -1.67898e-22)
(0.0281979 -0.010613 2.07616e-19)
(0.0488665 -0.00920594 0)
(0.0729668 -0.00675294 -4.43248e-19)
(0.0972754 -0.00430239 -2.28545e-19)
(0.127191 -0.000132887 0)
(0.154867 0.00352842 2.43662e-19)
(0.192551 0.00994705 -2.52196e-19)
(0.222827 0.0151247 5.14526e-19)
(0.271248 0.024099 -5.30241e-19)
(0.30315 0.0314306 0)
(0.366241 0.0437674 1.83531e-21)
(0.399801 0.0534362 5.3025e-19)
(0.48327 0.0708026 -1.09617e-18)
(0.513846 0.0834336 -2.96034e-21)
(0.634365 0.106613 -5.40496e-19)
(0.652327 0.120944 2.35718e-19)
(0.854527 0.15188 5.94057e-19)
(0.895869 -0.0375979 -2.51214e-19)
(0.526285 0.0229015 0)
(0.29852 0.0171431 -6.84281e-22)
(0.08396 0.0199157 -8.74399e-23)
(-0.00224781 0.0100963 5.14575e-19)
(-0.035974 0.0104952 4.87093e-19)
(-0.041134 0.0100253 0)
(-0.0496459 0.0110195 4.39106e-19)
(-0.0521674 0.0114934 0)
(-0.0576803 0.0121903 -2.01669e-19)
(-0.060763 0.0124291 6.13262e-24)
(-0.0655943 0.0124324 -1.87654e-19)
(-0.0689077 0.0120937 0)
(-0.0726206 0.0118469 -3.53814e-19)
(-0.0754245 0.0121103 0)
(-0.0786663 0.0127491 0)
(-0.0822044 0.0130227 0)
(-0.0862252 0.0125477 1.62015e-19)
(-0.0898489 0.0118236 0)
(-0.0931942 0.0110896 1.56563e-19)
(-0.0961668 0.0102725 -1.5445e-19)
(-0.0988435 0.00937562 0)
(-0.101146 0.00840854 -4.86984e-25)
(-0.10306 0.00734679 0)
(-0.104524 0.00618427 0)
(-0.105499 0.00492799 -3.73406e-20)
(-0.10592 0.00357946 0)
(-0.105732 0.00215411 -3.74314e-20)
(-0.104865 0.000654919 -1.88029e-20)
(-0.103271 -0.000896812 -4.73212e-21)
(-0.100885 -0.00247342 4.77514e-21)
(-0.0976457 -0.00404623 1.9321e-20)
(-0.0934819 -0.00561013 3.91615e-20)
(-0.0883438 -0.00711804 0)
(-0.082147 -0.00856786 4.04797e-20)
(-0.0748422 -0.00989738 0)
(-0.0663381 -0.0111152 0)
(-0.0565702 -0.012133 0)
(-0.0454621 -0.0129833 8.85613e-20)
(-0.0328831 -0.0135287 0)
(-0.0188541 -0.0138421 0)
(-0.00306278 -0.0137031 1.9266e-19)
(0.0141772 -0.0133022 -1.98711e-19)
(0.033696 -0.0122171 0)
(0.0544508 -0.0109462 0)
(0.0784854 -0.00860631 2.1875e-19)
(0.102949 -0.00630407 2.25571e-19)
(0.132668 -0.00223803 -2.32998e-19)
(0.160661 0.00126407 0)
(0.197914 0.00758925 0)
(0.228767 0.012599 0)
(0.276486 0.0214829 1.21551e-21)
(0.309073 0.0286224 0)
(0.371471 0.0408473 5.35832e-19)
(0.405609 0.0503031 0)
(0.488406 0.0676093 5.33666e-19)
(0.519863 0.0799663 -4.54637e-19)
(0.639349 0.102926 1.04565e-18)
(0.658678 0.116821 -2.27853e-19)
(0.857763 0.146403 -5.72532e-19)
(0.903774 -0.0237208 2.8766e-20)
(0.565181 0.0294905 -5.64577e-19)
(0.345599 0.0223717 -5.75051e-19)
(0.12438 0.0227155 -1.51674e-22)
(0.0190258 0.0111366 -5.14793e-19)
(-0.0269252 0.0106007 -4.87014e-19)
(-0.03564 0.00978858 0)
(-0.0456253 0.0108626 -4.38498e-19)
(-0.0488468 0.0113779 0)
(-0.0546353 0.0121392 -2.01248e-19)
(-0.0578944 0.0124188 -1.93644e-19)
(-0.0627823 0.0124581 1.87136e-19)
(-0.0662423 0.0121248 -1.81316e-19)
(-0.0700648 0.0118843 1.76361e-19)
(-0.0729359 0.0121547 -1.7201e-19)
(-0.0760441 0.012829 1.68207e-19)
(-0.0792987 0.0131419 0)
(-0.0830513 0.0126783 0)
(-0.086512 0.0119375 0)
(-0.0897131 0.0111854 7.79543e-20)
(-0.0925513 0.0103514 7.68803e-20)
(-0.0950976 0.00943706 0)
(-0.0972706 0.0084481 -7.53082e-20)
(-0.0990564 0.00736051 0)
(-0.100394 0.00616699 0)
(-0.101243 0.00487438 3.71329e-20)
(-0.10154 0.00348341 -3.71245e-20)
(-0.101232 0.00200943 1.8603e-20)
(-0.100249 0.000455726 0)
(-0.0985441 -0.00115551 9.40319e-21)
(-0.0960515 -0.00279775 -9.48659e-21)
(-0.0927114 -0.00444177 0)
(-0.0884523 -0.00608217 -1.94412e-20)
(-0.0832245 -0.0076715 3.94725e-20)
(-0.0769445 -0.009208 -4.01781e-20)
(-0.0695632 -0.0106285 0)
(-0.060989 -0.0119428 0)
(-0.0511598 -0.0130605 0)
(-0.0399953 -0.0140174 -8.78109e-20)
(-0.0273735 -0.0146704 0)
(-0.0132991 -0.0150995 0)
(0.0025115 -0.0150722 -1.90846e-19)
(0.0197961 -0.0147958 0)
(0.0393027 -0.0138262 2.02652e-19)
(0.060122 -0.0126916 -2.08972e-19)
(0.0840879 -0.0104671 0)
(0.10867 -0.00831379 2.22401e-19)
(0.138203 -0.00435431 4.59938e-19)
(0.166449 -0.00101435 -2.35877e-19)
(0.203308 0.00521677 0)
(0.234641 0.0100472 0)
(0.281713 0.018853 2.56345e-19)
(0.314912 0.025776 0)
(0.376607 0.0379068 5.22732e-19)
(0.411251 0.0471118 0)
(0.493405 0.0643844 5.17168e-19)
(0.525633 0.0764046 4.38487e-19)
(0.644123 0.0992193 -5.07058e-19)
(0.664646 0.112563 0)
(0.860783 0.141056 5.42389e-19)
(0.910873 -0.010839 1.35963e-19)
(0.599719 0.0360357 5.88736e-21)
(0.390553 0.0280559 5.72878e-19)
(0.166031 0.0262219 -2.32321e-22)
(0.0439949 0.0127034 -1.73717e-22)
(-0.0154106 0.0109679 0)
(-0.0290042 0.00961524 0)
(-0.0409096 0.0107159 0)
(-0.0450309 0.0112493 -2.09278e-19)
(-0.0512099 0.0120702 4.0181e-19)
(-0.0547068 0.0123884 0)
(-0.0596824 0.0124677 1.86713e-19)
(-0.0632985 0.0121437 -3.9681e-24)
(-0.0672382 0.0119082 -1.75896e-19)
(-0.0701883 0.0121764 -1.71867e-24)
(-0.073193 0.0128735 -1.67699e-19)
(-0.0761971 0.0132222 0)
(-0.0796942 0.0127775 0)
(-0.0829911 0.0120269 0)
(-0.0860501 0.0112593 -7.76569e-20)
(-0.0887555 0.0104097 0)
(-0.0911719 0.00947889 7.5681e-20)
(-0.0932162 0.00846877 7.49712e-20)
(-0.0948738 0.00735601 -7.44382e-20)
(-0.0960843 0.00613218 0)
(-0.096808 0.00480397 0)
(-0.0969821 0.00337135 3.69308e-20)
(-0.0965536 0.00184965 0)
(-0.0954545 0.000242448 1.85751e-20)
(-0.0936389 -0.00142729 -4.67411e-21)
(-0.0910403 -0.00313415 4.71463e-21)
(-0.0875999 -0.00484834 -1.90597e-20)
(-0.0832465 -0.00656418 0)
(-0.0779307 -0.00823386 -3.92149e-20)
(-0.0715693 -0.00985599 0)
(-0.0641139 -0.0113665 0)
(-0.0554728 -0.0127763 8.30385e-20)
(-0.0455859 -0.0139929 0)
(-0.0343695 -0.0150555 0)
(-0.0217098 -0.0158154 0)
(-0.00759658 -0.0163593 0)
(0.00822784 -0.0164438 0)
(0.0255464 -0.0162912 0)
(0.045036 -0.0154381 -4.01447e-19)
(0.0659015 -0.0144396 2.06975e-19)
(0.0897964 -0.0123321 2.13489e-19)
(0.114466 -0.0103276 -4.39886e-19)
(0.143822 -0.00647722 -2.27267e-19)
(0.172267 -0.00330091 2.33108e-19)
(0.208764 0.00283507 -2.40137e-19)
(0.240492 0.00747812 0)
(0.286967 0.0162145 5.3547e-22)
(0.320707 0.0229023 -5.01036e-19)
(0.381706 0.0349562 -5.14085e-19)
(0.416792 0.0438786 -4.91545e-19)
(0.498327 0.0611367 -1.0117e-18)
(0.531235 0.0727739 -4.28975e-19)
(0.648762 0.0954996 4.87763e-19)
(0.670338 0.108214 2.04647e-19)
(0.863671 0.135826 -5.26183e-19)
(0.91732 0.00116442 -2.55053e-20)
(0.630398 0.0424623 5.58776e-19)
(0.433237 0.0340372 -1.27083e-21)
(0.20836 0.0303586 -3.24702e-22)
(0.0721178 0.0148634 5.14724e-19)
(-0.00115566 0.0116468 4.87322e-19)
(-0.0210272 0.00955403 -4.5953e-19)
(-0.0354021 0.0105989 2.18956e-19)
(-0.0406732 0.0111192 -1.52302e-23)
(-0.0473747 0.01199 -2.00639e-19)
(-0.051183 0.0123423 -1.92945e-19)
(-0.0562851 0.0124639 -1.86351e-19)
(-0.0600706 0.0121522 3.60965e-19)
(-0.0641374 0.011921 -2.99051e-24)
(-0.0671799 0.0121786 1.71102e-19)
(-0.0701116 0.0128867 0)
(-0.0728989 0.0132668 1.63689e-19)
(-0.0761557 0.0128469 0)
(-0.0792892 0.0120928 -1.57385e-19)
(-0.0822077 0.0113122 -7.73942e-20)
(-0.0847817 0.0104484 -7.62952e-20)
(-0.0870688 0.0095018 1.1195e-25)
(-0.0889846 0.0084711 -7.46697e-20)
(-0.0905141 0.00733375 7.41253e-20)
(-0.0915973 0.0060802 0)
(-0.0921952 0.00471702 -3.67706e-20)
(-0.0922456 0.00324349 0)
(-0.0916966 0.0016749 0)
(-0.0904814 1.51669e-05 -1.84813e-20)
(-0.0885548 -0.00171213 0)
(-0.08585 -0.00348262 0)
(-0.0823094 -0.00526594 1.8954e-20)
(-0.0778619 -0.00705616 0)
(-0.0724587 -0.00880514 0)
(-0.066017 -0.0105118 3.96309e-20)
(-0.0584892 -0.0121112 0)
(-0.0497832 -0.0136154 -8.25024e-20)
(-0.0398414 -0.0149299 0)
(-0.0285767 -0.0160969 8.64281e-20)
(-0.0158828 -0.016963 0)
(-0.00173644 -0.0176207 0)
(0.0140973 -0.0178167 0)
(0.0314407 -0.0177873 0)
(0.0509087 -0.017051 1.98999e-19)
(0.071805 -0.0161881 0)
(0.0956263 -0.0141988 -4.22947e-19)
(0.120357 -0.0123425 2.17748e-19)
(0.149544 -0.00860353 -2.24462e-19)
(0.178141 -0.0055915 2.30032e-19)
(0.214303 0.000448065 2.37446e-19)
(0.246353 0.00489812 0)
(0.292273 0.0135708 2.47817e-19)
(0.326486 0.0200087 7.40615e-19)
(0.386806 0.0320019 -5.03511e-19)
(0.422275 0.0406146 4.83582e-19)
(0.503209 0.0578722 4.95725e-19)
(0.536722 0.0690913 0)
(0.653311 0.091771 -4.77084e-19)
(0.675822 0.103802 -3.96092e-19)
(0.86648 0.130701 0)
(0.92323 0.0123734 -3.38002e-20)
(0.657645 0.0487143 0)
(0.473574 0.0401905 -1.42611e-21)
(0.250924 0.0350375 -4.23869e-22)
(0.102928 0.0176393 -5.14985e-19)
(0.0159383 0.0126988 -9.74812e-19)
(-0.0115013 0.00965787 9.19134e-19)
(-0.0289864 0.0105356 -2.1888e-19)
(-0.0357123 0.0110004 2.08915e-19)
(-0.0430919 0.0119062 0)
(-0.0472982 0.0122852 -1.1272e-23)
(-0.0525746 0.0124491 0)
(-0.0565476 0.0121521 -3.60332e-19)
(-0.0607542 0.0119242 1.75153e-19)
(-0.0639045 0.0121645 0)
(-0.0667942 0.0128726 0)
(-0.0693992 0.0132788 -1.63272e-19)
(-0.0724332 0.0128878 0)
(-0.0754055 0.012136 1.56929e-19)
(-0.0781855 0.0113449 7.71562e-20)
(-0.0806298 0.010468 -1.09423e-24)
(-0.0827883 0.00950629 -7.51314e-20)
(-0.0845759 0.00845552 -7.43975e-20)
(-0.0859773 0.00729407 0)
(-0.0869329 0.00601131 0)
(-0.0874044 0.00461374 3.66195e-20)
(-0.0873305 0.00309994 0)
(-0.0866603 0.00148526 1.8323e-20)
(-0.0853284 -0.000226111 -1.83923e-20)
(-0.0832899 -0.00201007 4.62576e-21)
(-0.0804783 -0.00384323 -4.66407e-21)
(-0.076837 -0.00569466 1.88519e-20)
(-0.0722952 -0.00755818 -1.90913e-20)
(-0.0668048 -0.00938537 3.8748e-20)
(-0.0602833 -0.0111754 -3.94139e-20)
(-0.052684 -0.0128625 0)
(-0.0439146 -0.0144599 0)
(-0.0339198 -0.0158712 0)
(-0.0226097 -0.0171416 -3.17155e-23)
(-0.00988475 -0.0181129 8.80773e-20)
(0.0042899 -0.0188832 0)
(0.0201288 -0.0191902 0)
(0.0374893 -0.0192831 0)
(0.0569312 -0.0186638 0)
(0.0778447 -0.0179356 0)
(0.10159 -0.0160652 1.75286e-22)
(0.126359 -0.0143565 0)
(0.155381 -0.0107307 4.44667e-19)
(0.18409 -0.00788309 -4.55438e-19)
(0.219938 -0.00194138 -2.34358e-19)
(0.252246 0.00231177 0)
(0.29765 0.0109248 0)
(0.332269 0.017101 -4.8628e-19)
(0.391932 0.029048 1.33841e-21)
(0.427732 0.0373278 -4.73237e-19)
(0.508077 0.0545951 4.83601e-19)
(0.542128 0.0653689 4.06362e-19)
(0.657802 0.0880363 -4.61311e-19)
(0.681146 0.0993462 3.81559e-19)
(0.869245 0.125673 4.85558e-19)
(0.928694 0.0228597 2.28354e-20)
(0.681813 0.0547439 -5.43131e-19)
(0.511519 0.0464125 -1.13862e-18)
(0.29337 0.0401705 -5.25763e-22)
(0.135987 0.0210245 5.14927e-19)
(0.0358491 0.0141773 4.87492e-19)
(-0.00022823 0.00998634 -2.29766e-19)
(-0.0215299 0.0105559 0)
(-0.030073 0.0109083 0)
(-0.0383163 0.011827 2.00326e-19)
(-0.0430207 0.0122222 1.92507e-19)
(-0.04853 0.0124263 0)
(-0.0527146 0.0121452 1.79904e-19)
(-0.0570772 0.0119199 0)
(-0.0603525 0.0121368 0)
(-0.0632318 0.0128347 0)
(-0.06569 0.0132613 0)
(-0.0685215 0.012902 1.59573e-19)
(-0.0713368 0.0121572 7.82678e-20)
(-0.073981 0.0113581 -7.69485e-20)
(-0.0762974 0.0104691 -1.26708e-24)
(-0.0783284 0.00949283 0)
(-0.0799883 0.00842241 7.41555e-20)
(-0.0812617 0.00723725 0)
(-0.0820894 0.00592571 0)
(-0.082434 0.00449425 3.64793e-20)
(-0.082235 0.0029408 -3.64469e-20)
(-0.0814427 0.00128075 -1.82501e-20)
(-0.0799931 -0.000481424 1.83167e-20)
(-0.0778419 -0.0023212 -9.21159e-21)
(-0.0749225 -0.00421608 9.28656e-21)
(-0.0711797 -0.0061346 -1.87668e-20)
(-0.0665431 -0.00807038 1.90025e-20)
(-0.0609651 -0.00997466 -8.30628e-24)
(-0.0543638 -0.0118469 -3.92004e-20)
(-0.0466936 -0.0136206 0)
(-0.0378617 -0.0153099 0)
(-0.0278157 -0.0168169 0)
(-0.0164624 -0.0181892 -1.7074e-19)
(-0.00370908 -0.0192648 -8.75721e-20)
(0.0104897 -0.0201464 0)
(0.0263301 -0.0205638 0)
(0.0437005 -0.020778 -1.90172e-19)
(0.063112 -0.0202755 0)
(0.0840306 -0.019681 0)
(0.107696 -0.0179301 4.15809e-19)
(0.132483 -0.0163679 -2.13672e-19)
(0.161344 -0.0128568 -4.4064e-19)
(0.19013 -0.0101733 2.5697e-22)
(0.225682 -0.00433095 4.64179e-19)
(0.258192 -0.00027751 2.35094e-19)
(0.303111 0.00827837 0)
(0.338075 0.0141837 2.40163e-19)
(0.397103 0.0260975 4.89433e-19)
(0.433185 0.0340243 4.67014e-19)
(0.51295 0.0513087 -4.76589e-19)
(0.54748 0.0616155 -3.9982e-19)
(0.662259 0.0842978 4.53029e-19)
(0.686345 0.0948618 -1.85547e-19)
(0.871991 0.120734 -4.74761e-19)
(0.933782 0.0326903 2.16767e-20)
(0.703222 0.0605226 5.4323e-19)
(0.546992 0.0525976 1.65451e-21)
(0.335332 0.0456528 -6.27022e-22)
(0.170874 0.0249906 0)
(0.0584646 0.0161238 0)
(0.0129556 0.0105969 6.49866e-23)
(-0.0128895 0.0106947 0)
(-0.0236674 0.010861 0)
(-0.0329933 0.0117625 1.95683e-23)
(-0.0383134 0.0121592 0)
(-0.0441252 0.0123988 0)
(-0.0485532 0.0121335 1.79704e-19)
(-0.0530918 0.0119098 0)
(-0.0565116 0.0120983 0)
(-0.0594128 0.0127767 0)
(-0.0617606 0.0132174 0)
(-0.0644123 0.0128908 6.39089e-24)
(-0.0670775 0.0121573 -7.80894e-20)
(-0.0695894 0.0113523 1.53525e-19)
(-0.0717806 0.0104523 -1.52815e-24)
(-0.0736856 0.00946183 7.4694e-20)
(-0.0752187 0.0083721 0)
(-0.0763643 0.00716356 7.33602e-20)
(-0.0770641 0.00582358 0)
(-0.0772811 0.00435866 -3.6358e-20)
(-0.0769563 0.00276609 2.71335e-24)
(-0.0760411 0.00106136 0)
(-0.0744728 -0.000750843 0)
(-0.0722075 -0.00264562 5.90989e-25)
(-0.0691792 -0.00460132 -6.75586e-25)
(-0.065334 -0.00658594 9.34211e-21)
(-0.0606016 -0.00859292 0)
(-0.0549356 -0.0105732 -3.83883e-20)
(-0.0482543 -0.0125264 3.90268e-20)
(-0.0405134 -0.0143855 0)
(-0.0316197 -0.0161655 -8.11153e-20)
(-0.0215236 -0.0177668 0)
(-0.010129 -0.0192397 2.65713e-23)
(0.00265023 -0.0204184 0)
(0.0168696 -0.0214101 8.9385e-20)
(0.0327079 -0.021937 9.18748e-20)
(0.0500818 -0.0222714 9.03829e-23)
(0.0694584 -0.0218854 -1.94581e-19)
(0.0903713 -0.0214235 0)
(0.113953 -0.0197923 -1.51655e-22)
(0.13874 -0.0183756 2.12226e-19)
(0.167441 -0.0149803 2.14175e-22)
(0.196273 -0.0124604 2.23697e-19)
(0.231542 -0.00671877 -3.03838e-22)
(0.264203 -0.00286697 -3.41592e-22)
(0.308665 0.0056332 0)
(0.343915 0.0112601 0)
(0.402332 0.0231521 0)
(0.438652 0.0307088 0)
(0.517843 0.0480154 0)
(0.552798 0.0578381 3.9019e-19)
(0.666697 0.0805574 0)
(0.691444 0.0903587 0)
(0.874735 0.115877 -4.57293e-19)
(0.938555 0.0419278 -3.96663e-20)
(0.722167 0.0660353 0)
(0.579957 0.0586704 1.73056e-21)
(0.376536 0.0513951 -7.21564e-22)
(0.207205 0.0294951 0)
(0.0836359 0.0185732 2.44007e-19)
(0.028158 0.0115418 -2.30005e-19)
(-0.0029195 0.0109848 0)
(-0.0163968 0.010879 0)
(-0.0270581 0.0117242 -2.00189e-19)
(-0.0331335 0.0121031 0)
(-0.0393296 0.0123704 0)
(-0.0440411 0.0121193 -1.79535e-19)
(-0.0487806 0.011896 0)
(-0.0523669 0.0120518 -1.69952e-19)
(-0.0553232 0.0127022 0)
(-0.0575979 0.0131502 0)
(-0.0600954 0.0128562 7.22383e-24)
(-0.0626196 0.012137 0)
(-0.0650044 0.0113281 -7.65992e-20)
(-0.0670738 0.0104179 7.54578e-20)
(-0.0688551 0.00941372 -1.49024e-19)
(-0.0702627 0.00830491 7.37473e-20)
(-0.0712812 0.00707322 -7.31605e-20)
(-0.0718529 0.00570508 0)
(-0.0719421 0.00420706 -3.62459e-20)
(-0.0714908 0.00257587 7.24095e-20)
(-0.0704517 0.000827049 0)
(-0.0687635 -0.00103445 -9.09115e-21)
(-0.066383 -0.00298345 4.57158e-21)
(-0.0632445 -0.00499909 -4.60761e-21)
(-0.0592958 -0.00704883 -9.30811e-21)
(-0.0544667 -0.00912597 0)
(-0.048712 -0.0111811 -3.82254e-20)
(-0.0419503 -0.0132141 3.88556e-20)
(-0.0341387 -0.0151574 0)
(-0.0251837 -0.0170267 8.07746e-20)
(-0.0150385 -0.0187211 0)
(-0.00360433 -0.0202933 8.45256e-20)
(0.00919878 -0.0215737 0)
(0.0234353 -0.0226742 -8.89617e-20)
(0.0392682 -0.0233097 -9.14252e-20)
(0.0566397 -0.023763 8.2974e-23)
(0.075977 -0.023493 1.93558e-19)
(0.096874 -0.0231624 0)
(0.120368 -0.0216508 -2.0515e-19)
(0.145138 -0.0203785 0)
(0.17368 -0.0170999 2.17035e-19)
(0.20253 -0.014743 0)
(0.237525 -0.00910336 -2.28122e-19)
(0.270293 -0.00545441 -4.61607e-19)
(0.31432 0.00299069 0)
(0.349803 0.00833334 0)
(0.407629 0.0202132 0)
(0.444145 0.0273851 2.26201e-19)
(0.522766 0.0447175 0)
(0.558096 0.0540419 -1.74788e-21)
(0.671128 0.0768167 0)
(0.696464 0.0858447 1.72463e-19)
(0.87749 0.111097 4.48969e-19)
(0.943057 0.0506295 0)
(0.738929 0.0712769 5.30425e-19)
(0.610389 0.0645697 5.65422e-19)
(0.4168 0.0573275 -8.05003e-22)
(0.244652 0.0344786 0)
(0.111195 0.0215461 -2.44073e-19)
(0.0454698 0.0128657 0)
(0.00851036 0.011463 2.19075e-19)
(-0.00815386 0.0109853 2.08877e-19)
(-0.0204368 0.0117259 2.00216e-19)
(-0.0274315 0.0120622 1.92277e-19)
(-0.0341079 0.0123461 1.85472e-19)
(-0.0391527 0.0121055 0)
(-0.0441235 0.011881 0)
(-0.0479013 0.0120003 1.69766e-19)
(-0.0509467 0.0126149 0)
(-0.053187 0.0130629 0)
(-0.0555581 0.0128 -1.58697e-19)
(-0.0579535 0.0120973 0)
(-0.0602179 0.0112864 -7.64623e-20)
(-0.0621699 0.0103667 0)
(-0.0638305 0.00934893 7.43524e-20)
(-0.0651144 0.0082212 -7.35791e-20)
(-0.0660069 0.0069665 0)
(-0.066451 0.00557037 0)
(-0.0664122 0.00403955 1.67599e-24)
(-0.0658339 0.00237015 -3.61038e-20)
(-0.0646702 0.000577805 0)
(-0.062861 -0.00133233 9.06425e-21)
(-0.0603641 -0.00333483 4.55654e-21)
(-0.0571143 -0.00540956 -4.59187e-21)
(-0.0530608 -0.00752347 0)
(-0.048134 -0.00966973 0)
(-0.0422899 -0.0117986 6.52896e-24)
(-0.0354472 -0.0139103 -7.17727e-24)
(-0.0275649 -0.0159365 0)
(-0.0185488 -0.0178937 0)
(-0.00835537 -0.0196798 8.22e-20)
(0.00311692 -0.0213498 0)
(0.0159418 -0.0227308 0)
(0.0301924 -0.0239385 0)
(0.0460166 -0.0246816 0)
(0.0633802 -0.0252525 1.87115e-19)
(0.0826735 -0.0250978 1.92462e-19)
(0.103545 -0.0248973 0)