/*--------------------------------*- C++ -*----------------------------------*\
| =========                 |                                                 |
| \\      /  F ield         | OpenFOAM: The Open Source CFD Toolbox           |
|  \\    /   O peration     | Version:  2.4.0                                 |
|   \\  /    A nd           | Web:      www.OpenFOAM.org                      |
|    \\/     M anipulation  |                                                 |
\*---------------------------------------------------------------------------*/
FoamFile
{
    version     2.0;
    format      ascii;
    class       volScalarField;
    location    "0.85";
    object      p;
}
// * * * * * * * * * * * * * * * * * * * * * * * * * * * * * * * * * * * * * //

dimensions      [0 2 -2 0 0 0 0];

internalField   nonuniform List<scalar> 
2320
(
1.1289
1.11198
1.09406
1.11658
1.11821
1.11508
1.12865
1.10886
1.11208
1.1187
1.1127
1.13423
1.1041
1.11381
1.11686
1.09897
1.10073
1.10062
1.08034
1.0596
1.11856
1.07337
1.08191
1.11567
1.09704
1.08919
1.09305
1.10295
1.10903
1.11084
1.09575
1.10503
1.09673
1.09711
1.1046
1.10311
1.09047
1.08343
1.07281
1.05747
1.12454
1.1042
1.10056
1.11307
1.12002
1.10629
1.1098
1.11454
1.12859
1.11791
1.10188
1.12383
1.11705
1.12183
1.10866
1.10177
1.10152
1.09777
1.08141
1.069
1.12619
1.11732
1.10731
1.11653
1.11813
1.10878
1.11013
1.10429
1.10408
1.11245
1.10897
1.11403
1.10556
1.10701
1.1021
1.10285
1.095
1.0944
1.07928
1.07139
1.12433
1.11658
1.11127
1.1143
1.11619
1.11287
1.12144
1.1177
1.12371
1.11914
1.11505
1.11972
1.11082
1.11346
1.10638
1.10623
1.10942
1.09904
1.09234
1.07876
1.12305
1.11652
1.11449
1.11576
1.11571
1.11421
1.12093
1.11337
1.11135
1.11804
1.11413
1.11698
1.10993
1.11118
1.10389
1.10343
1.10244
1.09477
1.08805
1.08048
1.12194
1.11546
1.1146
1.11487
1.11546
1.11497
1.12088
1.11581
1.11901
1.12017
1.11765
1.12018
1.11299
1.1121
1.10755
1.10597
1.10755
1.10124
1.0995
1.08835
1.12166
1.11519
1.11489
1.11585
1.11622
1.1163
1.12103
1.11543
1.11612
1.11781
1.11412
1.11838
1.11266
1.11224
1.10673
1.10759
1.10851
1.10135
1.09997
1.09182
1.12158
1.11553
1.11551
1.11566
1.11692
1.11706
1.11973
1.1154
1.11719
1.11689
1.1143
1.1179
1.11329
1.11635
1.11323
1.11155
1.11332
1.1061
1.10755
1.09966
1.12152
1.11546
1.11553
1.1152
1.11656
1.11704
1.11954
1.11519
1.11763
1.11749
1.11455
1.11693
1.1102
1.11863
1.11439
1.1133
1.11612
1.10923
1.11271
1.10545
1.12144
1.11568
1.11633
1.11639
1.11693
1.11756
1.11932
1.11505
1.11691
1.11813
1.1149
1.11745
1.11043
1.11994
1.11708
1.1161
1.11973
1.11358
1.11848
1.115
1.12156
1.11625
1.11686
1.11838
1.11854
1.11798
1.11919
1.11614
1.11639
1.11779
1.11615
1.11864
1.11343
1.12157
1.11907
1.11906
1.12272
1.11767
1.12301
1.11974
1.12148
1.11654
1.11688
1.11922
1.11941
1.1187
1.11908
1.11718
1.11728
1.11687
1.11711
1.11984
1.11416
1.12264
1.11988
1.1211
1.12584
1.11804
1.13171
1.12732
1.12096
1.11689
1.11705
1.11907
1.11924
1.11908
1.11915
1.11762
1.119
1.11694
1.11777
1.12062
1.11539
1.1237
1.12034
1.12339
1.12854
1.12385
1.13617
1.13368
1.12089
1.11688
1.11717
1.11869
1.11856
1.11899
1.11925
1.11778
1.12081
1.11769
1.11806
1.1215
1.1168
1.12569
1.12152
1.12451
1.13047
1.12698
1.14507
1.14045
1.12134
1.11679
1.11612
1.1183
1.11817
1.11902
1.11961
1.11831
1.12133
1.11942
1.11803
1.12227
1.11795
1.12718
1.123
1.12607
1.13173
1.13115
1.15127
1.1472
1.12167
1.11745
1.11553
1.11811
1.11758
1.11925
1.12027
1.11865
1.12093
1.11976
1.11803
1.12242
1.11955
1.12767
1.12435
1.12825
1.13488
1.13566
1.15697
1.15449
1.12167
1.11871
1.11637
1.11861
1.11752
1.11969
1.12072
1.11936
1.11953
1.11986
1.11771
1.12393
1.12076
1.12942
1.12508
1.13214
1.13885
1.14129
1.16165
1.16177
1.12161
1.11956
1.11805
1.11958
1.11799
1.11999
1.12124
1.12024
1.12016
1.12047
1.11961
1.12492
1.12151
1.12918
1.12582
1.13287
1.14219
1.14466
1.16591
1.16764
1.12165
1.11976
1.11854
1.12023
1.11824
1.12004
1.12117
1.12097
1.12156
1.12214
1.12091
1.12597
1.12088
1.1295
1.12629
1.13431
1.14128
1.14776
1.16901
1.18079
1.05908
1.04688
0.992046
0.966756
0.916101
0.897617
0.77842
0.679715
1.02915
1.01859
0.989388
0.956343
0.906896
0.883989
0.772844
0.661305
1.05589
1.03802
0.993501
0.974332
0.937398
0.882461
0.781366
0.694864
1.06641
1.03416
1.00306
0.979788
0.945493
0.88159
0.790317
0.702475
1.06939
1.04661
1.01578
0.990417
0.952118
0.896057
0.803312
0.717836
1.07101
1.04972
1.02423
1.00332
0.959969
0.907894
0.823105
0.736243
1.07645
1.06421
1.03417
1.01249
0.979619
0.925156
0.846225
0.758253
1.08069
1.0675
1.04433
1.025
0.992952
0.942135
0.871123
0.784187
1.08821
1.08119
1.05708
1.03902
1.0097
0.964781
0.897794
0.811382
1.09653
1.08891
1.06983
1.05288
1.02932
0.985888
0.926603
0.845005
1.10466
1.10169
1.08158
1.07274
1.04817
1.0158
0.959848
0.878616
1.11391
1.11197
1.09344
1.09058
1.0687
1.04472
0.995676
0.921959
1.12474
1.12276
1.10948
1.1074
1.0913
1.07417
1.03352
0.968559
1.13643
1.13454
1.1221
1.12382
1.11331
1.10345
1.07027
1.01518
1.14842
1.14607
1.13629
1.13868
1.1333
1.1334
1.11163
1.06676
1.16207
1.15778
1.14803
1.15622
1.1536
1.16417
1.14787
1.12215
1.1753
1.16981
1.15871
1.16794
1.17397
1.19702
1.18223
1.17152
1.19231
1.18159
1.16941
1.17846
1.19018
1.22888
1.22589
1.20826
1.21032
1.19391
1.17502
1.18738
1.2039
1.22834
1.20418
1.22771
1.2289
1.20995
1.17393
1.18651
1.21726
1.27824
1.23624
1.21545
0.522841
0.388906
0.127145
-0.131343
-0.489248
-0.953019
-1.49886
-2.19678
-2.97418
-3.82295
-4.70226
-5.57299
-6.38811
-7.04336
-7.57727
-7.92372
-8.05859
-7.97765
-7.68573
-7.1512
-6.46958
-5.62087
-4.73071
-3.81577
-2.96215
-2.13127
-1.4964
-0.722711
0.527921
0.389683
0.124222
-0.138748
-0.497936
-0.966629
-1.52271
-2.21572
-2.98657
-3.8549
-4.73186
-5.61085
-6.42821
-7.09114
-7.63097
-7.98378
-8.11419
-8.03914
-7.73696
-7.20377
-6.50377
-5.65793
-4.75749
-3.84624
-2.98474
-2.17667
-1.49802
-0.922536
0.548957
0.402098
0.168104
-0.14166
-0.496826
-0.969263
-1.55773
-2.24752
-3.01813
-3.91687
-4.79882
-5.69691
-6.51974
-7.18917
-7.7412
-8.08476
-8.22889
-8.14956
-7.84674
-7.3022
-6.59442
-5.73404
-4.82972
-3.90273
-3.0322
-2.2199
-1.53228
-0.932603
0.572549
0.403295
0.189375
-0.129058
-0.498725
-0.971647
-1.58544
-2.28913
-3.07935
-4.0066
-4.90143
-5.83161
-6.66114
-7.3457
-7.90527
-8.25144
-8.39231
-8.33058
-8.00753
-7.45763
-6.73099
-5.85607
-4.93672
-3.99914
-3.10148
-2.27254
-1.55456
-0.951188
0.597886
0.412611
0.20926
-0.108734
-0.503016
-0.980414
-1.61219
-2.3459
-3.17577
-4.12544
-5.04674
-6.00594
-6.85355
-7.55118
-8.12837
-8.47056
-8.62736
-8.56455
-8.22626
-7.66254
-6.91643
-6.02171
-5.08367
-4.11395
-3.19317
-2.32828
-1.57312
-0.960285
0.616996
0.435212
0.223677
-0.0832309
-0.500264
-0.994363
-1.64013
-2.41646
-3.29868
-4.27628
-5.23372
-6.22531
-7.08814
-7.80882
-8.39521
-8.73961
-8.91717
-8.84382
-8.48613
-7.91527
-7.13775
-6.227
-5.26751
-4.25233
-3.2984
-2.40512
-1.61467
-0.959562
0.642869
0.462959
0.242291
-0.0604105
-0.491994
-1.01089
-1.6832
-2.50274
-3.43551
-4.44587
-5.44553
-6.45831
-7.33182
-8.08112
-8.67507
-9.03074
-9.23516
-9.13998
-8.77149
-8.19431
-7.38655
-6.45065
-5.46574
-4.4202
-3.42342
-2.50024
-1.65271
-0.956099
0.670544
0.496395
0.270961
-0.0380488
-0.479415
-1.0257
-1.73496
-2.59544
-3.5637
-4.60816
-5.64807
-6.67448
-7.55995
-8.33795
-8.93312
-9.31848
-9.52591
-9.41823
-9.05001
-8.4438
-7.62976
-6.681
-5.65577
-4.57202
-3.56583
-2.60724
-1.69399
-0.959917
0.702195
0.531404
0.304603
-0.0139095
-0.459599
-1.02996
-1.77653
-2.67248
-3.66833
-4.74286
-5.81571
-6.85685
-7.75652
-8.56124
-9.16767
-9.58879
-9.79298
-9.67679
-9.31193
-8.6634
-7.83594
-6.88055
-5.83346
-4.70683
-3.66995
-2.69435
-1.7426
-0.966208
0.736313
0.569384
0.341246
0.0149411
-0.432139
-1.0195
-1.79228
-2.71837
-3.74605
-4.84534
-5.93955
-6.99429
-7.91693
-8.74486
-9.36108
-9.8055
-9.99929
-9.8819
-9.49898
-8.84643
-8.02034
-7.02408
-5.97043
-4.8283
-3.75255
-2.75525
-1.76555
-0.970558
0.780376
0.615893
0.385923
0.0552268
-0.387036
-0.987026
-1.78474
-2.72662
-3.782
-4.90958
-6.01802
-7.0725
-8.01585
-8.86809
-9.50177
-9.95878
-10.1556
-10.0411
-9.60727
-8.95317
-8.14866
-7.13068
-6.05469
-4.85836
-3.82054
-2.81716
-1.76045
-0.94984
0.826683
0.666004
0.439274
0.109227
-0.331212
-0.935374
-1.75119
-2.70628
-3.76983
-4.91725
-6.04542
-7.10352
-8.06262
-8.92169
-9.57776
-10.0451
-10.2204
-10.1225
-9.69636
-9.0109
-8.16831
-7.1957
-6.12429
-4.84328
-3.80998
-2.82308
-1.73796
-0.923813
0.877499
0.723944
0.497696
0.169907
-0.260988
-0.864421
-1.68853
-2.65771
-3.72286
-4.87376
-6.0076
-7.07032
-8.05731
-8.92693
-9.57929
-10.0612
-10.2467
-10.1088
-9.66989
-9.00766
-8.16242
-7.17923
-6.08043
-4.80942
-3.79885
-2.77588
-1.66229
-0.879571
0.931206
0.781779
0.558185
0.234851
-0.183161
-0.783613
-1.597
-2.5722
-3.65188
-4.79333
-5.92543
-6.99762
-7.97273
-8.86827
-9.54065
-9.99416
-10.1777
-10.052
-9.59936
-8.92701
-8.10007
-7.11664
-5.98729
-4.73823
-3.71836
-2.69657
-1.59728
-0.804468
0.985859
0.844227
0.616303
0.288869
-0.105705
-0.691653
-1.51437
-2.46305
-3.53864
-4.69131
-5.8063
-6.89044
-7.87443
-8.74501
-9.43446
-9.88762
-10.0509
-9.9135
-9.47655
-8.81338
-7.99189
-7.00176
-5.86171
-4.64985
-3.61304
-2.57489
-1.51208
-0.71239
1.04678
0.898979
0.67092
0.339071
-0.045654
-0.60515
-1.41333
-2.37242
-3.41623
-4.55248
-5.67733
-6.75154
-7.75042
-8.61763
-9.28837
-9.74084
-9.89925
-9.75309
-9.3157
-8.66978
-7.85686
-6.85533
-5.70855
-4.53286
-3.4893
-2.44835
-1.426
-0.605984
1.10684
0.950269
0.711378
0.37646
-0.000281741
-0.5602
-1.32214
-2.25799
-3.30617
-4.40862
-5.53193
-6.61282
-7.60427
-8.47578
-9.14353
-9.58222
-9.72609
-9.575
-9.15141
-8.52837
-7.70648
-6.6887
-5.56078
-4.41359
-3.36188
-2.32085
-1.33028
-0.512284
1.15214
0.999737
0.748841
0.403723
0.0209125
-0.524501
-1.26451
-2.1641
-3.19607
-4.29049
-5.39954
-6.48378
-7.47708
-8.34272
-9.01199
-9.43886
-9.56715
-9.41381
-9.0078
-8.39177
-7.55422
-6.53186
-5.43064
-4.30442
-3.23904
-2.20154
-1.24917
-0.432563
1.16445
1.00562
0.76705
0.42669
0.0387152
-0.501761
-1.22085
-2.10256
-3.10683
-4.19407
-5.29696
-6.37806
-7.37258
-8.23948
-8.90686
-9.3207
-9.436
-9.28966
-8.89682
-8.27425
-7.42055
-6.40825
-5.33351
-4.22344
-3.14223
-2.0999
-1.18018
-0.379193
1.14188
1.00691
0.778717
0.445786
0.0460928
-0.488109
-1.19858
-2.07062
-3.06632
-4.13717
-5.24168
-6.31858
-7.31508
-8.18097
-8.85031
-9.25149
-9.35556
-9.2169
-8.83362
-8.20326
-7.34121
-6.33958
-5.28335
-4.18099
-3.08933
-2.04777
-1.14664
-0.356402
-0.655503
-0.725133
0.022897
0.0573365
-0.186849
0.395232
0.919796
1.34618
-0.583703
-0.528869
0.175627
0.206796
0.188501
0.61334
0.915141
1.07409
-0.502898
-0.297116
0.0679861
0.320055
0.395955
0.735281
0.980133
1.09613
-0.471085
-0.244218
0.117805
0.42228
0.589149
1.05926
1.10714
0.902291
-0.427342
-0.141494
0.189456
0.492021
0.672537
0.946442
1.00542
0.989415
-0.400609
-0.0582214
0.2444
0.546211
0.746019
0.975646
1.09198
0.947374
-0.365376
0.00506467
0.316142
0.593749
0.785789
0.94607
1.03741
1.01676
-0.338498
0.0665375
0.368515
0.626224
0.801167
0.93219
1.03452
1.02111
-0.323144
0.114411
0.417519
0.660476
0.820217
0.932697
1.02951
1.02368
-0.318991
0.154948
0.466528
0.698508
0.846358
0.941048
1.02908
1.03848
-0.290576
0.200371
0.51134
0.745627
0.880471
0.964148
1.0394
1.04767
-0.24074
0.249403
0.573499
0.809529
0.922413
0.994164
1.05453
1.05898
-0.174257
0.304447
0.64182
0.873081
0.962009
1.02877
1.0766
1.07401
-0.0774235
0.358932
0.713139
0.940777
1.00027
1.06855
1.10112
1.09132
0.0159296
0.410612
0.798759
1.0087
1.03974
1.11689
1.12741
1.1097
0.105887
0.460497
0.883091
1.05512
1.07436
1.15554
1.14425
1.1249
0.17954
0.510947
0.956338
1.07817
1.10959
1.18529
1.1569
1.14077
0.253209
0.549435
1.01109
1.08602
1.14512
1.20317
1.16544
1.15514
0.2994
0.569928
1.04775
1.08266
1.1665
1.2069
1.17073
1.16295
0.328118
0.582576
1.06064
1.08014
1.1743
1.20555
1.17433
1.16586
1.43515
1.29136
1.25536
1.10175
0.9183
0.707957
0.652566
0.653526
0.653421
0.643075
0.608291
0.565558
0.503326
0.451449
0.377224
0.310993
0.201891
0.117381
-0.0527496
-0.165018
1.35823
1.23819
1.18517
1.04181
0.893863
0.754859
0.709373
0.699752
0.686462
0.655402
0.613921
0.567683
0.503127
0.450483
0.37733
0.308514
0.205209
0.113694
-0.000898506
-0.0917628
1.17229
1.21445
1.16976
1.03268
0.90981
0.780383
0.708555
0.68976
0.670181
0.649223
0.609723
0.564886
0.500859
0.448697
0.37642
0.307522
0.207151
0.116859
0.0184986
-0.0753956
1.37203
1.20698
1.13408
0.999107
0.892612
0.791381
0.733701
0.719767
0.698368
0.661793
0.616655
0.567999
0.502539
0.44734
0.378293
0.303545
0.21283
0.120546
0.0354348
-0.0439616
1.20926
1.07993
1.04089
0.973942
0.895781
0.806929
0.741421
0.71737
0.681242
0.658158
0.614251
0.563987
0.50059
0.444921
0.377803
0.302
0.216857
0.125368
0.0501429
-0.0255944
1.15734
1.09953
1.06971
0.982257
0.897251
0.814468
0.752562
0.729255
0.703887
0.665422
0.618478
0.56726
0.505901
0.445412
0.380723
0.301995
0.220184
0.131393
0.0594829
-0.0105111
1.16559
1.07703
1.02464
0.95342
0.889658
0.820442
0.759434
0.731098
0.701585
0.66901
0.620724
0.56482
0.505394
0.443768
0.381126
0.301618
0.222922
0.137542
0.0685263
0.00131521
1.11033
1.0581
1.01773
0.957886
0.901833
0.837305
0.772037
0.740849
0.706385
0.66946
0.623183
0.56796
0.509344
0.446082
0.38223
0.302365
0.225357
0.143192
0.0761122
0.0101716
1.10021
1.06555
1.02191
0.961556
0.902348
0.842218
0.781599
0.744451
0.713564
0.676049
0.62757
0.568697
0.510387
0.445765
0.382507
0.30343
0.227005
0.148328
0.0817773
0.0160661
1.0812
1.04951
1.0061
0.954012
0.903925
0.8464
0.783538
0.744967
0.713433
0.674177
0.626073
0.568145
0.512444
0.447763
0.384104
0.304972
0.228573
0.153399
0.0865756
0.0207291
1.06745
1.05201
1.01603
0.965787
0.914935
0.861011
0.800363
0.756718
0.721649
0.682375
0.632902
0.57229
0.514768
0.449044
0.384228
0.306512
0.230118
0.157271
0.0892903
0.0239007
1.06779
1.05376
1.01527
0.963995
0.912651
0.855007
0.795962
0.752511
0.719508
0.679675
0.628765
0.568762
0.514558
0.450422
0.385203
0.308346
0.232318
0.161102
0.0929123
0.0264281
1.06956
1.0558
1.01844
0.970669
0.921766
0.870298
0.812108
0.76324
0.727626
0.687403
0.635865
0.574436
0.517296
0.452296
0.385758
0.309917
0.234316
0.164067
0.0949609
0.0281616
1.07938
1.06213
1.02355
0.973195
0.92124
0.864059
0.80709
0.760565
0.725739
0.684188
0.630285
0.569166
0.514863
0.451872
0.386418
0.311599
0.236666
0.166949
0.0970216
0.0295253
1.09056
1.06677
1.02562
0.976993
0.927275
0.873194
0.819848
0.768923
0.731963
0.689749
0.636238
0.574726
0.51802
0.454145
0.387747
0.313308
0.238509
0.169118
0.0983732
0.0305338
1.1007
1.07112
1.02708
0.97788
0.926844
0.869647
0.810861
0.766618
0.730065
0.686477
0.629985
0.568625
0.514355
0.453687
0.387963
0.314975
0.240788
0.171198
0.100066
0.0316317
1.11097
1.07475
1.02934
0.982995
0.931125
0.872486
0.821346
0.773248
0.734616
0.689984
0.63445
0.573368
0.517406
0.456097
0.389278
0.316602
0.242411
0.172591
0.10128
0.0325805
1.11783
1.07637
1.02971
0.980774
0.927187
0.870268
0.816564
0.770982
0.731944
0.685402
0.62787
0.568172
0.514327
0.454932
0.389566
0.318189
0.244733
0.174415
0.102966
0.0334753
1.11926
1.07851
1.03295
0.983281
0.929766
0.871928
0.821351
0.774534
0.733898
0.686364
0.630581
0.571215
0.516487
0.456321
0.390394
0.319128
0.24567
0.175217
0.103495
0.0339756
1.1198
1.07753
1.03048
0.978629
0.923196
0.866155
0.816995
0.771249
0.729718
0.681235
0.62486
0.567196
0.514093
0.455424
0.390622
0.321063
0.248285
0.177298
0.104849
0.0342846
-0.0264496
-0.286573
-0.145428
-0.0878695
0.015104
0.0548912
0.0012056
0.0172159
-0.1331
-0.314197
-0.15861
-0.0966197
0.0986236
0.0815533
-0.0264584
0.0184761
-0.32789
-0.318453
-0.170548
-0.0878809
0.0453854
0.0400178
-0.0941392
-0.00330511
-0.408208
-0.409255
-0.207222
-0.162511
0.00162994
-0.0029831
-0.165719
-0.0462113
-0.413888
-0.453084
-0.31601
-0.262042
-0.181475
-0.0857775
-0.235033
-0.0972243
-0.3605
-0.484519
-0.397774
-0.411257
-0.455754
-0.274544
-0.344395
-0.167777
-0.396827
-0.538572
-0.532681
-0.628461
-0.889453
-0.605796
-0.554927
-0.294003
-0.467082
-0.588534
-0.651299
-0.82137
-1.10657
-0.917037
-0.759933
-0.494105
-0.529981
-0.653177
-0.790839
-1.00886
-1.24211
-1.07092
-0.871424
-0.676226
-0.653932
-0.759026
-0.943097
-1.18857
-1.36869
-1.22383
-1.01195
-0.86121
-0.7148
-0.841962
-1.06186
-1.30971
-1.6002
-1.45619
-1.24806
-1.08784
-0.808368
-0.929081
-1.17272
-1.42159
-1.72012
-1.58856
-1.38375
-1.21925
-0.855026
-0.963815
-1.24269
-1.46525
-1.74219
-1.59884
-1.38766
-1.28486
-0.914347
-0.987379
-1.2862
-1.46695
-1.69383
-1.58988
-1.4453
-1.34004
-0.950383
-1.03017
-1.27162
-1.43672
-1.59952
-1.5608
-1.46381
-1.33874
-0.97283
-1.05076
-1.25017
-1.37166
-1.49576
-1.52468
-1.40429
-1.37969
-0.999958
-1.06296
-1.20538
-1.32095
-1.35973
-1.47567
-1.40721
-1.41672
-1.01112
-1.08701
-1.16017
-1.297
-1.28574
-1.39395
-1.34239
-1.31759
-1.00371
-1.06206
-1.13647
-1.30251
-1.24156
-1.3751
-1.23553
-1.263
-0.995793
-1.07404
-1.10116
-1.34573
-1.23755
-1.39661
-1.21213
-1.26481
-0.955894
-1.05985
-1.11594
-1.36653
-1.24636
-1.37092
-1.18302
-1.17886
-0.90937
-1.01385
-1.13713
-1.43119
-1.26989
-1.33733
-1.12537
-1.11722
-0.850532
-0.959639
-1.13242
-1.43839
-1.27644
-1.26788
-1.06486
-1.05913
-0.768205
-0.879041
-1.09056
-1.39078
-1.22618
-1.16938
-0.98282
-0.96135
-0.672254
-0.801012
-1.00332
-1.2869
-1.14328
-1.10683
-0.936484
-0.920252
-0.562442
-0.725474
-0.902885
-1.14934
-1.01665
-0.967325
-0.851306
-0.80361
-0.482122
-0.681883
-0.777247
-0.993101
-0.856034
-0.761837
-0.699273
-0.603784
-0.476455
-0.70244
-0.659123
-0.816247
-0.687321
-0.597052
-0.566442
-0.490109
-0.543983
-0.745213
-0.549639
-0.68251
-0.528935
-0.470996
-0.439572
-0.379652
-0.552667
-0.667569
-0.440416
-0.534099
-0.422647
-0.312062
-0.314898
-0.225337
-0.511196
-0.482778
-0.371559
-0.449099
-0.266916
-0.136594
-0.286959
-0.139673
-0.470411
-0.395822
-0.32863
-0.419051
-0.375236
-0.0633247
-0.288498
-0.0543545
-0.447574
-0.388362
-0.345908
-0.378319
-0.302766
0.108381
-0.207666
0.0601632
-0.437126
-0.436279
-0.24909
-0.451029
-0.302294
0.296397
-0.0842019
0.172373
-0.405404
-0.402211
-0.347944
-0.45619
-0.308495
0.401956
0.105316
0.283222
-0.489956
-0.503332
-0.346741
-0.621209
-0.300023
0.346793
0.309212
0.38906
-0.542026
-0.433075
-0.383609
-0.439296
-0.242615
0.393864
0.466111
0.487403
-0.615775
-0.70779
-0.484124
-0.561981
-0.397417
-0.336678
0.586905
0.59035
-0.624857
-0.460165
-0.346084
-0.940366
-0.329173
-0.175116
0.643835
0.742198
-0.648907
-0.848761
0.399978
-0.308467
-0.406128
0.104556
0.774517
0.978926
1.2522
1.21598
1.18029
1.18378
1.19906
1.21449
1.18876
1.17527
1.22655
1.22321
1.19691
1.18478
1.21722
1.26556
1.19428
1.19104
1.23657
1.21863
1.19279
1.19915
1.15067
1.21688
1.24052
1.21981
1.21811
1.22692
1.20283
1.21209
1.20572
1.2059
1.19895
1.22086
1.21758
1.21015
1.2067
1.19764
1.20016
1.19331
1.20262
1.2146
1.21023
1.20804
1.20471
1.18375
1.19801
1.20328
1.20373
1.20556
1.20815
1.19994
1.20445
1.17767
1.19644
1.19438
1.20419
1.20431
1.20535
1.19909
1.20542
1.18434
1.19664
1.20084
1.20461
1.20767
1.20418
1.19705
1.20383
1.19097
1.19606
1.1931
1.2022
1.20834
1.20353
1.19765
1.20191
1.19551
1.19472
1.19194
1.19177
1.2018
1.20375
1.19658
1.19969
1.19142
1.18961
1.18899
1.172
1.18764
1.20389
1.1981
1.19751
1.19213
1.18788
1.19066
1.16906
1.18478
1.20388
1.19588
1.19607
1.1901
1.18547
1.19212
1.18093
1.19256
1.20235
1.19515
1.1944
1.18856
1.17987
1.18731
1.18069
1.1923
1.19712
1.1891
1.19299
1.18704
1.17627
1.18053
1.17557
1.18683
1.18845
1.17897
1.19024
1.1872
1.17417
1.17904
1.17072
1.18185
1.18169
1.17523
1.18622
1.18606
1.17589
1.17904
1.16851
1.18156
1.17673
1.17895
1.18253
1.18426
1.17749
1.16902
1.16442
1.17646
1.17432
1.18279
1.17822
1.18388
1.17994
1.16557
1.16558
1.1716
1.16673
1.18087
1.17394
1.18163
1.17838
1.17582
1.1738
1.17654
1.14684
1.1646
1.161
1.17786
1.17341
1.18092
1.17588
1.17978
1.1212
1.14664
1.13623
1.17118
1.16583
1.17882
1.17432
1.17926
1.10517
1.12928
1.11364
1.16201
1.15667
1.17363
1.17087
1.17613
1.1062
1.11469
1.10234
1.15025
1.14842
1.16582
1.16617
1.17263
1.10099
1.09916
1.10232
1.13996
1.14134
1.15781
1.16062
1.16868
1.09743
1.07628
1.08428
1.1304
1.13625
1.15169
1.15576
1.16328
1.11049
1.0712
1.07136
1.12122
1.13201
1.14466
1.15124
1.15852
1.1299
1.08093
1.08519
1.11628
1.1318
1.14071
1.14848
1.15441
1.1484
1.09011
1.0934
1.11713
1.1338
1.1383
1.14815
1.15104
1.17365
1.10503
1.10108
1.12235
1.1373
1.13818
1.14842
1.14916
1.2016
1.1389
1.12552
1.13263
1.14298
1.14051
1.15042
1.14849
1.21704
1.17907
1.16105
1.15064
1.15078
1.14765
1.15421
1.15072
1.2249
1.19847
1.17963
1.16928
1.15852
1.15636
1.16045
1.15705
1.23525
1.21076
1.18636
1.17974
1.16631
1.16571
1.16721
1.165
1.24089
1.22346
1.19734
1.18946
1.17301
1.17517
1.17335
1.174
1.24416
1.23137
1.20521
1.19949
1.17981
1.18708
1.17964
1.1864
1.24539
1.23573
1.20987
1.20904
1.18243
1.19449
1.18636
1.20026
1.24562
1.2425
1.21219
1.21769
1.18683
1.20048
1.19318
1.21362
1.24363
1.2334
1.21484
1.22938
1.19035
1.21176
1.19825
1.2274
1.24316
1.23529
1.23236
1.24243
1.20019
1.21493
1.20252
1.22932
)
;

boundaryField
{
    wall
    {
        type            zeroGradient;
    }
    inlet1
    {
        type            zeroGradient;
    }
    inlet2
    {
        type            zeroGradient;
    }
    outlet1
    {
        type            fixedValue;
        value           uniform 0;
    }
    outlet2
    {
        type            outletInlet;
        outletValue     uniform 0;
        value           nonuniform List<scalar> 8(0 0 -0.145428 -0.0878695 0 0 0 0);
    }
    defaultFaces
    {
        type            empty;
    }
}


// ************************************************************************* //
