/*--------------------------------*- C++ -*----------------------------------*\
| =========                 |                                                 |
| \\      /  F ield         | OpenFOAM: The Open Source CFD Toolbox           |
|  \\    /   O peration     | Version:  2.4.0                                 |
|   \\  /    A nd           | Web:      www.OpenFOAM.org                      |
|    \\/     M anipulation  |                                                 |
\*---------------------------------------------------------------------------*/
FoamFile
{
    version     2.0;
    format      ascii;
    class       surfaceScalarField;
    location    "6.64";
    object      phi;
}
// * * * * * * * * * * * * * * * * * * * * * * * * * * * * * * * * * * * * * //

dimensions      [0 3 -1 0 0 0 0];

internalField   nonuniform List<scalar> 
11840
(
7.85114e-07
9.21489e-06
-2.03259e-08
8.0544e-07
-4.80729e-08
2.7747e-08
-7.30507e-08
2.49778e-08
-8.37762e-08
1.07255e-08
-8.51754e-08
1.39921e-09
-8.91344e-08
3.95895e-09
-8.86446e-08
-4.89776e-10
-9.10423e-08
2.39768e-09
-9.16064e-08
5.64145e-10
-9.43886e-08
2.78223e-09
-9.70101e-08
2.6215e-09
-1.01573e-07
4.56291e-09
-1.06977e-07
5.40428e-09
-1.14219e-07
7.24152e-09
-1.22803e-07
8.58366e-09
-1.33176e-07
1.03731e-08
-1.45121e-07
1.19451e-08
-1.58813e-07
1.3692e-08
-1.74126e-07
1.53131e-08
-1.9106e-07
1.69345e-08
-2.09448e-07
1.83874e-08
-2.29117e-07
1.96698e-08
-2.49772e-07
2.06545e-08
-2.71061e-07
2.12887e-08
-2.92548e-07
2.14877e-08
-3.13738e-07
2.11894e-08
-3.34039e-07
2.03014e-08
-3.52778e-07
1.8739e-08
-3.692e-07
1.6422e-08
-3.82492e-07
1.32916e-08
-3.91795e-07
9.30289e-09
-3.96232e-07
4.43701e-09
-3.94961e-07
-1.27019e-09
-3.87115e-07
-7.84615e-09
-3.71952e-07
-1.51628e-08
-3.48842e-07
-2.31106e-08
-3.17217e-07
-3.16247e-08
-2.76794e-07
-4.04228e-08
-2.27258e-07
-4.95365e-08
-1.68927e-07
-5.83312e-08
-1.02036e-07
-6.68901e-08
-2.8534e-08
-7.35024e-08
4.78613e-08
-7.63953e-08
1.2182e-07
-7.39588e-08
1.9622e-07
-7.43999e-08
2.67769e-07
-7.15486e-08
3.41092e-07
-7.33234e-08
4.07198e-07
-6.61056e-08
4.77881e-07
-7.0683e-08
5.32611e-07
-5.47305e-08
6.01147e-07
-6.85361e-08
6.36241e-07
-3.50936e-08
7.09047e-07
-7.28058e-08
7.12002e-07
-2.95493e-09
8.06553e-07
-9.45512e-08
7.58071e-07
4.84816e-08
9.14149e-07
-1.56078e-07
7.90057e-07
1.24092e-07
-4.06377e-07
1.91811e-06
1.72968e-05
1.02191e-07
2.62136e-06
-7.43293e-08
2.04268e-07
-1.77884e-07
1.28532e-07
-2.09731e-07
4.25724e-08
-2.27255e-07
1.89232e-08
-2.37713e-07
1.44171e-08
-2.42593e-07
4.39065e-09
-2.48824e-07
8.62806e-09
-2.53475e-07
5.21597e-09
-2.61019e-07
1.03261e-08
-2.69792e-07
1.13938e-08
-2.82353e-07
1.71244e-08
-2.97955e-07
2.10062e-08
-3.17841e-07
2.71278e-08
-3.41639e-07
3.23817e-08
-3.6988e-07
3.86138e-08
-4.02343e-07
4.44084e-08
-4.39159e-07
5.0508e-08
-4.80077e-07
5.62307e-08
-5.24891e-07
6.1749e-08
-5.73118e-07
6.66144e-08
-6.24156e-07
7.07073e-08
-6.77144e-07
7.3642e-08
-7.31057e-07
7.52017e-08
-7.84691e-07
7.51216e-08
-8.36684e-07
7.31829e-08
-8.85476e-07
6.90932e-08
-9.29318e-07
6.25809e-08
-9.66301e-07
5.34049e-08
-9.94404e-07
4.13948e-08
-1.01154e-06
2.64349e-08
-1.01559e-06
8.48925e-09
-1.00448e-06
-1.23795e-08
-9.76324e-07
-3.60008e-08
-9.29315e-07
-6.21722e-08
-8.61965e-07
-9.04603e-08
-7.73004e-07
-1.20585e-07
-6.61648e-07
-1.51779e-07
-5.27328e-07
-1.83857e-07
-3.7056e-07
-2.15099e-07
-1.92693e-07
-2.44757e-07
1.47979e-09
-2.67675e-07
1.98231e-07
-2.73147e-07
3.89394e-07
-2.65122e-07
5.7933e-07
-2.64336e-07
7.63997e-07
-2.56216e-07
9.47236e-07
-2.56562e-07
1.11846e-06
-2.37328e-07
1.28903e-06
-2.41253e-07
1.43612e-06
-2.01827e-07
1.59079e-06
-2.23205e-07
1.70177e-06
-1.46073e-07
1.84571e-06
-2.16739e-07
1.90622e-06
-6.34643e-08
2.05998e-06
-2.48312e-07
2.05273e-06
5.57256e-08
2.27268e-06
-3.76026e-07
2.18536e-06
2.11415e-07
-1.06259e-06
2.91717e-06
2.43796e-05
3.96479e-07
5.14205e-06
-4.05241e-08
6.41271e-07
-2.39359e-07
3.27367e-07
-3.0247e-07
1.05683e-07
-3.44196e-07
6.06499e-08
-3.64208e-07
3.44291e-08
-3.7818e-07
1.83626e-08
-3.89509e-07
1.99568e-08
-3.99976e-07
1.56828e-08
-4.1275e-07
2.31002e-08
-4.28255e-07
2.68992e-08
-4.48666e-07
3.75353e-08
-4.74215e-07
4.65547e-08
-5.05993e-07
5.89059e-08
-5.44015e-07
7.04041e-08
-5.88695e-07
8.32939e-08
-6.39892e-07
9.56047e-08
-6.9757e-07
1.08187e-07
-7.61349e-07
1.20009e-07
-8.30732e-07
1.31132e-07
-9.04884e-07
1.40766e-07
-9.8271e-07
1.48534e-07
-1.06276e-06
1.53696e-07
-1.14333e-06
1.55767e-07
-1.22244e-06
1.54234e-07
-1.2979e-06
1.48644e-07
-1.36724e-06
1.38435e-07
-1.42775e-06
1.23087e-07
-1.47651e-06
1.02165e-07
-1.5105e-06
7.53832e-08
-1.52664e-06
4.25757e-08
-1.52189e-06
3.73802e-09
-1.49334e-06
-4.09305e-08
-1.43838e-06
-9.09641e-08
-1.35465e-06
-1.45895e-07
-1.2403e-06
-2.04813e-07
-1.09391e-06
-2.66973e-07
-9.14819e-07
-3.30873e-07
-7.03069e-07
-3.95606e-07
-4.60314e-07
-4.57854e-07
-1.90449e-07
-5.14623e-07
9.76539e-08
-5.55778e-07
3.88442e-07
-5.63935e-07
6.75042e-07
-5.51721e-07
9.61286e-07
-5.5058e-07
1.2429e-06
-5.37827e-07
1.51994e-06
-5.33604e-07
1.7837e-06
-5.01089e-07
2.03952e-06
-4.97074e-07
2.27062e-06
-4.32928e-07
2.49683e-06
-4.49413e-07
2.68164e-06
-3.30881e-07
2.87895e-06
-4.14051e-07
3.00521e-06
-1.89722e-07
3.19047e-06
-4.33576e-07
3.24969e-06
-3.49045e-09
3.48122e-06
-6.07561e-07
3.48956e-06
2.0308e-07
-1.80487e-06
3.8089e-06
3.05707e-05
8.13228e-07
8.13772e-06
5.24571e-08
1.40204e-06
-2.53297e-07
6.33121e-07
-3.61936e-07
2.14323e-07
-4.3379e-07
1.32504e-07
-4.68334e-07
6.89733e-08
-4.94085e-07
4.41133e-08
-5.127e-07
3.85716e-08
-5.30192e-07
3.31747e-08
-5.49081e-07
4.19899e-08
-5.71614e-07
4.9432e-08
-5.99858e-07
6.5779e-08
-6.34882e-07
8.15789e-08
-6.77741e-07
1.01765e-07
-7.28749e-07
1.21411e-07
-7.88219e-07
1.42765e-07
-8.56015e-07
1.634e-07
-9.31904e-07
1.84076e-07
-1.0153e-06
2.03405e-07
-1.10536e-06
2.21195e-07
-1.20084e-06
2.36243e-07
-1.30011e-06
2.478e-07
-1.4011e-06
2.54691e-07
-1.50142e-06
2.56087e-07
-1.59837e-06
2.51181e-07
-1.68897e-06
2.3925e-07
-1.76997e-06
2.19432e-07
-1.83784e-06
1.90954e-07
-1.88888e-06
1.53211e-07
-1.91936e-06
1.05856e-07
-1.92554e-06
4.8756e-08
-1.90384e-06
-1.79529e-08
-1.85102e-06
-9.37553e-08
-1.76423e-06
-1.77756e-07
-1.64114e-06
-2.68987e-07
-1.48009e-06
-3.65857e-07
-1.28021e-06
-4.66852e-07
-1.04165e-06
-5.69435e-07
-7.65805e-07
-6.71453e-07
-4.56085e-07
-7.67574e-07
-1.18946e-07
-8.51762e-07
2.34931e-07
-9.09655e-07
5.93521e-07
-9.22525e-07
9.54285e-07
-9.12486e-07
1.31802e-06
-9.14317e-07
1.67972e-06
-8.99528e-07
2.03582e-06
-8.89698e-07
2.37869e-06
-8.43959e-07
2.70834e-06
-8.26723e-07
3.01246e-06
-7.3705e-07
3.3019e-06
-7.38858e-07
3.55098e-06
-5.79958e-07
3.79691e-06
-6.59986e-07
3.97908e-06
-3.71886e-07
4.19555e-06
-6.50042e-07
4.30765e-06
-1.15592e-07
4.55374e-06
-8.53658e-07
4.63872e-06
1.18104e-07
-2.57593e-06
4.61531e-06
3.59554e-05
1.32417e-06
1.14289e-05
2.12469e-07
2.51374e-06
-2.18513e-07
1.0641e-06
-3.86933e-07
3.82742e-07
-4.95207e-07
2.40777e-07
-5.49371e-07
1.23138e-07
-5.89762e-07
8.45035e-08
-6.17892e-07
6.6702e-08
-6.43683e-07
5.89653e-08
-6.69559e-07
6.78665e-08
-6.99399e-07
7.92723e-08
-7.35388e-07
1.01767e-07
-7.79325e-07
1.25516e-07
-8.32308e-07
1.54748e-07
-8.94872e-07
1.83975e-07
-9.67233e-07
2.15126e-07
-1.04918e-06
2.45347e-07
-1.14024e-06
2.75137e-07
-1.23955e-06
3.02711e-07
-1.34586e-06
3.27505e-07
-1.45745e-06
3.47836e-07
-1.57214e-06
3.62491e-07
-1.68725e-06
3.69804e-07
-1.79973e-06
3.68566e-07
-1.90623e-06
3.57675e-07
-2.00312e-06
3.36144e-07
-2.08654e-06
3.02848e-07
-2.1524e-06
2.56817e-07
-2.19656e-06
1.97373e-07
-2.21494e-06
1.24229e-07
-2.2036e-06
3.7422e-08
-2.15897e-06
-6.25818e-08
-2.07795e-06
-1.74782e-07
-1.958e-06
-2.97699e-07
-1.79732e-06
-4.29675e-07
-1.59491e-06
-5.68263e-07
-1.35077e-06
-7.10995e-07
-1.06605e-06
-8.54155e-07
-7.43381e-07
-9.94117e-07
-3.87379e-07
-1.12358e-06
-5.65432e-09
-1.23349e-06
3.91675e-07
-1.30698e-06
7.97798e-07
-1.32865e-06
1.21312e-06
-1.32781e-06
1.63526e-06
-1.33646e-06
2.05888e-06
-1.32315e-06
2.47781e-06
-1.30863e-06
2.88536e-06
-1.25151e-06
3.27698e-06
-1.21835e-06
3.64394e-06
-1.10401e-06
3.98903e-06
-1.08395e-06
4.29541e-06
-8.86334e-07
4.58597e-06
-9.50545e-07
4.81817e-06
-6.04086e-07
5.06513e-06
-8.97005e-07
5.22162e-06
-2.72083e-07
5.48376e-06
-1.1158e-06
5.62811e-06
-2.62404e-08
-3.33524e-06
5.34677e-06
4.06086e-05
1.90187e-06
1.48738e-05
4.47672e-07
3.96794e-06
-1.33858e-07
1.64563e-06
-3.76291e-07
6.25175e-07
-5.27614e-07
3.921e-07
-6.06626e-07
2.02151e-07
-6.64707e-07
1.42584e-07
-7.04642e-07
1.06637e-07
-7.40077e-07
9.44001e-08
-7.7381e-07
1.016e-07
-8.11227e-07
1.16689e-07
-8.54805e-07
1.45346e-07
-9.06999e-07
1.77709e-07
-9.69004e-07
2.16753e-07
-1.04151e-06
2.5648e-07
-1.12461e-06
2.9823e-07
-1.21796e-06
3.38696e-07
-1.32079e-06
3.77969e-07
-1.4319e-06
4.13812e-07
-1.54959e-06
4.45194e-07
-1.67165e-06
4.69899e-07
-1.79535e-06
4.86195e-07
-1.91747e-06
4.91918e-07
-2.0344e-06
4.85497e-07
-2.1423e-06
4.65584e-07
-2.23716e-06
4.31e-07
-2.31477e-06
3.80454e-07
-2.37085e-06
3.12902e-07
-2.40121e-06
2.27733e-07
-2.40185e-06
1.24871e-07
-2.36911e-06
4.67691e-09
-2.29979e-06
-1.31903e-07
-2.19126e-06
-2.83308e-07
-2.04155e-06
-4.47408e-07
-1.84945e-06
-6.21777e-07
-1.61462e-06
-8.0309e-07
-1.33772e-06
-9.87897e-07
-1.02052e-06
-1.17135e-06
-6.66272e-07
-1.34837e-06
-2.79949e-07
-1.5099e-06
1.30828e-07
-1.64426e-06
5.57503e-07
-1.73366e-06
9.97127e-07
-1.76827e-06
1.45114e-06
-1.78183e-06
1.91482e-06
-1.80013e-06
2.38285e-06
-1.79117e-06
2.84771e-06
-1.77349e-06
3.30377e-06
-1.70757e-06
3.74339e-06
-1.65797e-06
4.16095e-06
-1.52157e-06
4.55243e-06
-1.47543e-06
4.9088e-06
-1.2427e-06
5.23936e-06
-1.28111e-06
5.51824e-06
-8.82961e-07
5.79433e-06
-1.1731e-06
5.99249e-06
-4.70244e-07
6.27004e-06
-1.39334e-06
6.46296e-06
-2.19166e-07
-4.05508e-06
6.00882e-06
4.45998e-05
2.52342e-06
1.83592e-05
7.56441e-07
5.73491e-06
-2.55895e-09
2.40463e-06
-3.28832e-07
9.51449e-07
-5.30099e-07
5.93367e-07
-6.39364e-07
3.11416e-07
-7.18392e-07
2.21612e-07
-7.72507e-07
1.60752e-07
-8.19018e-07
1.40911e-07
-8.61491e-07
1.44073e-07
-9.0675e-07
1.61948e-07
-9.57709e-07
1.96305e-07
-1.01742e-06
2.37419e-07
-1.08721e-06
2.86543e-07
-1.16787e-06
3.3714e-07
-1.25936e-06
3.8972e-07
-1.36113e-06
4.40465e-07
-1.47209e-06
4.8893e-07
-1.59066e-06
5.32381e-07
-1.71472e-06
5.69255e-07
-1.8416e-06
5.96786e-07
-1.96814e-06
6.12727e-07
-2.09068e-06
6.14459e-07
-2.2053e-06
6.00121e-07
-2.30794e-06
5.68222e-07
-2.39445e-06
5.17506e-07
-2.46063e-06
4.46639e-07
-2.50236e-06
3.54631e-07
-2.51569e-06
2.41058e-07
-2.49698e-06
1.06161e-07
-2.44302e-06
-4.92759e-08
-2.3511e-06
-2.23826e-07
-2.21903e-06
-4.1538e-07
-2.04528e-06
-6.2116e-07
-1.82907e-06
-8.37988e-07
-1.57044e-06
-1.06171e-06
-1.2704e-06
-1.28794e-06
-9.30947e-07
-1.5108e-06
-5.55515e-07
-1.7238e-06
-1.49018e-07
-1.9164e-06
2.81443e-07
-2.07472e-06
7.28903e-07
-2.18112e-06
1.19257e-06
-2.23194e-06
1.67369e-06
-2.26295e-06
2.16605e-06
-2.29249e-06
2.66444e-06
-2.28956e-06
3.16078e-06
-2.26983e-06
3.65036e-06
-2.19715e-06
4.12391e-06
-2.13152e-06
4.57833e-06
-1.976e-06
5.00484e-06
-1.90194e-06
5.40106e-06
-1.63892e-06
5.76454e-06
-1.6446e-06
6.08501e-06
-1.20343e-06
6.38696e-06
-1.47505e-06
6.62604e-06
-7.09318e-07
6.91644e-06
-1.68374e-06
7.15282e-06
-4.55548e-07
-4.7174e-06
6.60528e-06
4.79945e-05
3.16982e-06
2.17946e-05
1.13513e-06
7.7696e-06
1.93149e-07
3.34662e-06
-2.4329e-07
1.38789e-06
-5.01629e-07
8.51706e-07
-6.46764e-07
4.56551e-07
-7.50219e-07
3.25067e-07
-8.21002e-07
2.31535e-07
-8.80126e-07
2.00036e-07
-9.32257e-07
1.96203e-07
-9.85638e-07
2.1533e-07
-1.04373e-06
2.54395e-07
-1.11015e-06
3.03839e-07
-1.18639e-06
3.62784e-07
-1.27331e-06
4.24058e-07
-1.37072e-06
4.87131e-07
-1.47786e-06
5.47602e-07
-1.59332e-06
6.04391e-07
-1.71518e-06
6.54245e-07
-1.84097e-06
6.95048e-07
-1.9677e-06
7.23514e-07
-2.09191e-06
7.36931e-07
-2.20975e-06
7.32308e-07
-2.31723e-06
7.076e-07
-2.41029e-06
6.61282e-07
-2.48491e-06
5.92125e-07
-2.53712e-06
4.98849e-07
-2.56309e-06
3.80601e-07
-2.55924e-06
2.37206e-07
-2.52234e-06
6.92559e-08
-2.44957e-06
-1.22045e-07
-2.33855e-06
-3.34842e-07
-2.18741e-06
-5.66517e-07
-1.99491e-06
-8.13665e-07
-1.7605e-06
-1.0724e-06
-1.48442e-06
-1.33779e-06
-1.16779e-06
-1.60457e-06
-8.12705e-07
-1.86589e-06
-4.22563e-07
-2.11394e-06
-2.0415e-09
-2.33692e-06
4.42373e-07
-2.51914e-06
9.05122e-07
-2.64387e-06
1.38627e-06
-2.71309e-06
1.88631e-06
-2.76299e-06
2.3982e-06
-2.80438e-06
2.9168e-06
-2.80816e-06
3.43385e-06
-2.78688e-06
3.94532e-06
-2.70862e-06
4.44118e-06
-2.62738e-06
4.92023e-06
-2.45504e-06
5.37071e-06
-2.35241e-06
5.79543e-06
-2.06364e-06
6.18307e-06
-2.03224e-06
6.53681e-06
-1.55717e-06
6.85909e-06
-1.79733e-06
7.13573e-06
-9.85953e-07
7.43481e-06
-1.98283e-06
7.71105e-06
-7.31789e-07
-5.31185e-06
7.13974e-06
5.08548e-05
3.82524e-06
2.51091e-05
1.57696e-06
1.00179e-05
4.38051e-07
4.48553e-06
-1.17743e-07
1.94368e-06
-4.4102e-07
1.17498e-06
-6.27893e-07
6.43425e-07
-7.59482e-07
4.56656e-07
-8.49569e-07
3.21622e-07
-9.22973e-07
2.7344e-07
-9.85741e-07
2.5897e-07
-1.04757e-06
2.77154e-07
-1.11254e-06
3.19365e-07
-1.18485e-06
3.76151e-07
-1.26618e-06
4.44119e-07
-1.35747e-06
5.15347e-07
-1.45841e-06
5.88068e-07
-1.56804e-06
6.57237e-07
-1.68473e-06
7.21075e-07
-1.80629e-06
7.75812e-07
-1.93004e-06
8.18795e-07
-2.05281e-06
8.46281e-07
-2.17104e-06
8.55163e-07
-2.28091e-06
8.42175e-07
-2.37848e-06
8.05173e-07
-2.45988e-06
7.42684e-07
-2.52133e-06
6.53572e-07
-2.55914e-06
5.3666e-07
-2.5698e-06
3.91264e-07
-2.55006e-06
2.17467e-07
-2.49702e-06
1.62088e-08
-2.40812e-06
-2.10942e-07
-2.28122e-06
-4.61748e-07
-2.11463e-06
-7.33105e-07
-1.90728e-06
-1.02101e-06
-1.65879e-06
-1.32089e-06
-1.36947e-06
-1.62711e-06
-1.0405e-06
-1.93354e-06
-6.73964e-07
-2.23242e-06
-2.73184e-07
-2.51472e-06
1.57414e-07
-2.76752e-06
6.1211e-07
-2.97384e-06
1.08631e-06
-3.11807e-06
1.5802e-06
-3.20698e-06
2.09333e-06
-3.27612e-06
2.61826e-06
-3.32931e-06
3.14992e-06
-3.33982e-06
3.68007e-06
-3.31703e-06
4.20509e-06
-3.23364e-06
4.71472e-06
-3.13701e-06
5.20899e-06
-2.94931e-06
5.6745e-06
-2.81793e-06
6.11772e-06
-2.50686e-06
6.52123e-06
-2.43576e-06
6.89876e-06
-1.93469e-06
7.23493e-06
-2.1335e-06
7.54232e-06
-1.29335e-06
7.84515e-06
-2.28566e-06
8.15582e-06
-1.04245e-06
-5.83475e-06
7.616e-06
5.32388e-05
4.47652e-06
2.82486e-05
2.07312e-06
1.24213e-05
7.37752e-07
5.8209e-06
4.98978e-08
2.63153e-06
-3.46946e-07
1.57183e-06
-5.81701e-07
8.7818e-07
-7.45358e-07
6.20313e-07
-8.57562e-07
4.33826e-07
-9.47065e-07
3.62944e-07
-1.02155e-06
3.33455e-07
-1.09222e-06
3.47823e-07
-1.16387e-06
3.91017e-07
-1.24131e-06
4.53593e-07
-1.32647e-06
5.29281e-07
-1.42041e-06
6.09278e-07
-1.52274e-06
6.90407e-07
-1.63244e-06
7.66932e-07
-1.74769e-06
8.36329e-07
-1.86621e-06
8.94334e-07
-1.98521e-06
9.37791e-07
-2.10149e-06
9.62565e-07
-2.21156e-06
9.65224e-07
-2.31168e-06
9.42301e-07
-2.39812e-06
8.91613e-07
-2.46722e-06
8.11785e-07
-2.51545e-06
7.01801e-07
-2.5394e-06
5.60607e-07
-2.53582e-06
3.87687e-07
-2.50173e-06
1.8338e-07
-2.43446e-06
-5.10615e-08
-2.33165e-06
-3.13758e-07
-2.19128e-06
-6.02119e-07
-2.01183e-06
-9.12552e-07
-1.79235e-06
-1.24048e-06
-1.53254e-06
-1.58071e-06
-1.23277e-06
-1.92689e-06
-8.94244e-07
-2.27206e-06
-5.19018e-07
-2.60765e-06
-1.10305e-07
-2.92343e-06
3.27758e-07
-3.20558e-06
7.90088e-07
-3.43616e-06
1.27284e-06
-3.60082e-06
1.7759e-06
-3.71004e-06
2.29783e-06
-3.79805e-06
2.83111e-06
-3.86259e-06
3.37073e-06
-3.87944e-06
3.90856e-06
-3.85486e-06
4.44125e-06
-3.76632e-06
4.95856e-06
-3.65433e-06
5.46129e-06
-3.45203e-06
5.93521e-06
-3.29185e-06
6.38921e-06
-2.96086e-06
6.80193e-06
-2.84847e-06
7.19476e-06
-2.32752e-06
7.53898e-06
-2.47772e-06
7.86894e-06
-1.6233e-06
8.17104e-06
-2.58776e-06
8.50842e-06
-1.37982e-06
-6.28796e-06
8.03814e-06
5.52006e-05
5.11293e-06
3.11738e-05
2.61351e-06
1.49207e-05
1.09183e-06
7.34258e-06
2.60941e-07
3.46242e-06
-2.1797e-07
2.05074e-06
-5.07019e-07
1.16723e-06
-7.06892e-07
8.20186e-07
-8.44235e-07
5.71168e-07
-9.51838e-07
4.70546e-07
-1.03926e-06
4.2088e-07
-1.11931e-06
4.27867e-07
-1.19757e-06
4.69276e-07
-1.27953e-06
5.35559e-07
-1.36746e-06
6.17209e-07
-1.46261e-06
7.04424e-07
-1.56465e-06
7.92446e-07
-1.67253e-06
8.74812e-07
-1.78441e-06
9.48211e-07
-1.89799e-06
1.00791e-06
-2.01049e-06
1.05029e-06
-2.1188e-06
1.07087e-06
-2.21952e-06
1.06595e-06
-2.30913e-06
1.03191e-06
-2.38406e-06
9.66548e-07
-2.4409e-06
8.68621e-07
-2.47634e-06
7.37237e-07
-2.48719e-06
5.71463e-07
-2.47045e-06
3.70947e-07
-2.42334e-06
1.36265e-07
-2.34334e-06
-1.31054e-07
-2.22824e-06
-4.28863e-07
-2.07614e-06
-7.54216e-07
-1.88565e-06
-1.10304e-06
-1.65591e-06
-1.47023e-06
-1.38667e-06
-1.84994e-06
-1.07837e-06
-2.23519e-06
-7.32207e-07
-2.61822e-06
-3.5021e-07
-2.98965e-06
6.45278e-08
-3.33817e-06
5.08148e-07
-3.6492e-06
9.76119e-07
-3.90414e-06
1.46514e-06
-4.08984e-06
1.97454e-06
-4.21944e-06
2.50203e-06
-4.32553e-06
3.04016e-06
-4.40072e-06
3.58398e-06
-4.42326e-06
4.12555e-06
-4.39644e-06
4.66167e-06
-4.30244e-06
5.18229e-06
-4.17495e-06
5.68864e-06
-3.95838e-06
6.16618e-06
-3.76939e-06
6.62532e-06
-3.42e-06
7.04224e-06
-3.26539e-06
7.44368e-06
-2.72897e-06
7.79135e-06
-2.82539e-06
8.13619e-06
-1.96815e-06
8.43422e-06
-2.88579e-06
8.78982e-06
-1.73542e-06
-6.67692e-06
8.41039e-06
5.67903e-05
5.72595e-06
3.38582e-05
3.18734e-06
1.74593e-05
1.49834e-06
9.03158e-06
5.18358e-07
4.4424e-06
-5.27201e-08
2.62182e-06
-4.02554e-07
1.51706e-06
-6.42992e-07
1.06062e-06
-8.08731e-07
7.36907e-07
-9.36644e-07
5.9846e-07
-1.03842e-06
5.22658e-07
-1.12857e-06
5.18011e-07
-1.21356e-06
5.54267e-07
-1.29967e-06
6.21677e-07
-1.3896e-06
7.07136e-07
-1.48491e-06
7.99733e-07
-1.58542e-06
8.92953e-07
-1.69017e-06
9.79563e-07
-1.79738e-06
1.05542e-06
-1.90481e-06
1.11535e-06
-2.00978e-06
1.15526e-06
-2.1093e-06
1.17039e-06
-2.20014e-06
1.15679e-06
-2.27896e-06
1.11072e-06
-2.3424e-06
1.02999e-06
-2.38725e-06
9.13471e-07
-2.41041e-06
7.60394e-07
-2.40889e-06
5.69947e-07
-2.37987e-06
3.41929e-07
-2.32075e-06
7.71406e-08
-2.22914e-06
-2.22659e-07
-2.10293e-06
-5.55077e-07
-1.94035e-06
-9.16798e-07
-1.7401e-06
-1.30329e-06
-1.50142e-06
-1.70891e-06
-1.22411e-06
-2.12725e-06
-9.08643e-07
-2.55066e-06
-5.5624e-07
-2.97062e-06
-1.68884e-07
-3.377e-06
2.50449e-07
-3.7575e-06
6.98158e-07
-4.09691e-06
1.17017e-06
-4.37615e-06
1.66355e-06
-4.58322e-06
2.17702e-06
-4.73292e-06
2.70753e-06
-4.85604e-06
3.2478e-06
-4.94099e-06
3.79297e-06
-4.96843e-06
4.33531e-06
-4.93877e-06
4.87171e-06
-4.83885e-06
5.3924e-06
-4.69564e-06
5.89884e-06
-4.46482e-06
6.37648e-06
-4.24703e-06
6.83666e-06
-3.88018e-06
7.2541e-06
-3.68283e-06
7.65916e-06
-3.13403e-06
8.00681e-06
-3.17304e-06
8.36026e-06
-2.32159e-06
8.65192e-06
-3.17745e-06
9.01797e-06
-2.10147e-06
-7.00846e-06
8.73702e-06
5.80532e-05
6.3091e-06
3.62862e-05
3.78373e-06
1.99847e-05
1.95374e-06
1.08616e-05
8.23324e-07
5.57282e-06
1.51427e-07
3.29371e-06
-2.66881e-07
1.93537e-06
-5.52412e-07
1.34615e-06
-7.50071e-07
9.34566e-07
-9.00744e-07
7.49134e-07
-1.01853e-06
6.40439e-07
-1.11973e-06
6.1922e-07
-1.21184e-06
6.4637e-07
-1.30203e-06
7.11864e-07
-1.39352e-06
7.98631e-07
-1.48833e-06
8.94539e-07
-1.5865e-06
9.91126e-07
-1.68727e-06
1.08034e-06
-1.789e-06
1.15714e-06
-1.88956e-06
1.21591e-06
-1.98641e-06
1.25211e-06
-2.07672e-06
1.26071e-06
-2.15745e-06
1.23753e-06
-2.22545e-06
1.17871e-06
-2.27755e-06
1.08209e-06
-2.31072e-06
9.46649e-07
-2.32207e-06
7.71736e-07
-2.30876e-06
5.56644e-07
-2.26815e-06
3.01319e-07
-2.19778e-06
6.7664e-09
-2.09537e-06
-3.25065e-07
-1.95891e-06
-6.91536e-07
-1.78675e-06
-1.08896e-06
-1.5777e-06
-1.51234e-06
-1.33104e-06
-1.95557e-06
-1.04667e-06
-2.41163e-06
-7.25068e-07
-2.87226e-06
-3.6748e-07
-3.32821e-06
2.41444e-08
-3.76863e-06
4.46948e-07
-4.18031e-06
8.9756e-07
-4.54752e-06
1.37228e-06
-4.85087e-06
1.8684e-06
-5.07934e-06
2.38405e-06
-5.24857e-06
2.91552e-06
-5.38751e-06
3.45577e-06
-5.48124e-06
4.00004e-06
-5.5127e-06
4.54082e-06
-5.47956e-06
5.07509e-06
-5.37312e-06
5.59336e-06
-5.21391e-06
6.09725e-06
-4.9687e-06
6.57234e-06
-4.72213e-06
7.03053e-06
-4.33836e-06
7.44574e-06
-4.09804e-06
7.85071e-06
-3.53901e-06
8.19579e-06
-3.51812e-06
8.55298e-06
-2.67878e-06
8.8368e-06
-3.46126e-06
9.20686e-06
-2.47154e-06
-7.28945e-06
9.02227e-06
5.9031e-05
6.85768e-06
3.84508e-05
4.39213e-06
2.24503e-05
2.45302e-06
1.28007e-05
1.17638e-06
6.84946e-06
3.9556e-07
4.07453e-06
-9.82228e-08
2.42915e-06
-4.3374e-07
1.68167e-06
-6.6713e-07
1.16796e-06
-8.4327e-07
9.25273e-07
-9.78979e-07
7.76149e-07
-1.0925e-06
7.32742e-07
-1.19239e-06
7.46263e-07
-1.28688e-06
8.06347e-07
-1.37983e-06
8.91586e-07
-1.47381e-06
9.88517e-07
-1.56921e-06
1.08652e-06
-1.66552e-06
1.17665e-06
-1.76128e-06
1.2529e-06
-1.85457e-06
1.30919e-06
-1.94299e-06
1.34053e-06
-2.0239e-06
1.34162e-06
-2.09445e-06
1.30808e-06
-2.15168e-06
1.23594e-06
-2.19262e-06
1.12303e-06
-2.21441e-06
9.68444e-07
-2.21432e-06
7.71642e-07
-2.18969e-06
5.32013e-07
-2.13801e-06
2.49639e-07
-2.05695e-06
-7.42919e-08
-1.94435e-06
-4.37667e-07
-1.79828e-06
-8.37599e-07
-1.61723e-06
-1.27001e-06
-1.40007e-06
-1.7295e-06
-1.14619e-06
-2.20945e-06
-8.55518e-07
-2.7023e-06
-5.28592e-07
-3.19919e-06
-1.6666e-07
-3.69014e-06
2.28354e-07
-4.16364e-06
6.53709e-07
-4.60566e-06
1.10622e-06
-5.00003e-06
1.58249e-06
-5.32713e-06
2.07994e-06
-5.57679e-06
2.59616e-06
-5.76479e-06
3.12691e-06
-5.91826e-06
3.66538e-06
-6.01971e-06
4.20692e-06
-6.05423e-06
4.74426e-06
-6.0169e-06
5.27446e-06
-5.90333e-06
5.78835e-06
-5.72779e-06
6.28759e-06
-5.46795e-06
6.75808e-06
-5.19262e-06
7.21196e-06
-4.79224e-06
7.62284e-06
-4.50892e-06
8.02496e-06
-3.94113e-06
8.36555e-06
-3.85871e-06
8.72278e-06
-3.03601e-06
8.9978e-06
-3.73628e-06
9.36687e-06
-2.84061e-06
-7.52599e-06
9.27025e-06
5.97607e-05
7.36857e-06
4.03524e-05
5.00269e-06
2.48161e-05
2.98986e-06
1.48135e-05
1.57695e-06
8.26237e-06
6.81493e-07
4.96999e-06
1.053e-07
3.00535e-06
-2.85391e-07
2.07236e-06
-5.58614e-07
1.44118e-06
-7.63189e-07
1.12985e-06
-9.1905e-07
9.3201e-07
-1.04644e-06
8.60127e-07
-1.1551e-06
8.54931e-07
-1.25442e-06
9.05663e-07
-1.34903e-06
9.86201e-07
-1.44216e-06
1.08164e-06
-1.53461e-06
1.17898e-06
-1.62624e-06
1.26828e-06
-1.71581e-06
1.34247e-06
-1.80162e-06
1.395e-06
-1.88146e-06
1.42037e-06
-1.95291e-06
1.41307e-06
-2.01329e-06
1.36847e-06
-2.05985e-06
1.2825e-06
-2.08979e-06
1.15297e-06
-2.10045e-06
9.79099e-07
-2.08922e-06
7.60419e-07
-2.05362e-06
4.96412e-07
-1.99127e-06
1.87289e-07
-1.89996e-06
-1.65605e-07
-1.77762e-06
-5.60007e-07
-1.62245e-06
-9.9277e-07
-1.43302e-06
-1.45944e-06
-1.20832e-06
-1.9542e-06
-9.47802e-07
-2.46997e-06
-6.51457e-07
-2.99864e-06
-3.1986e-07
-3.53078e-06
4.57245e-08
-4.05573e-06
4.434e-07
-4.56132e-06
8.70526e-07
-5.03279e-06
1.32407e-06
-5.45358e-06
1.80086e-06
-5.80392e-06
2.29841e-06
-6.07434e-06
2.81381e-06
-6.28019e-06
3.3424e-06
-6.44685e-06
3.8776e-06
-6.55492e-06
4.41488e-06
-6.59151e-06
4.94723e-06
-6.54925e-06
5.47176e-06
-6.42786e-06
5.97964e-06
-6.23567e-06
6.47257e-06
-5.96088e-06
6.93678e-06
-5.65683e-06
7.38453e-06
-5.23998e-06
7.7894e-06
-4.91379e-06
8.18654e-06
-4.33827e-06
8.52116e-06
-4.19333e-06
8.87564e-06
-3.3905e-06
9.14119e-06
-4.00182e-06
9.50547e-06
-3.2049e-06
-7.72325e-06
9.4849e-06
6.02758e-05
7.84e-06
4.19973e-05
5.60652e-06
2.70496e-05
3.55693e-06
1.68631e-05
2.02328e-06
9.79603e-06
1.01067e-06
5.9826e-06
3.45739e-07
3.67028e-06
-1.05664e-07
2.52377e-06
-4.23054e-07
1.75857e-06
-6.59275e-07
1.36607e-06
-8.37813e-07
1.11055e-06
-9.80923e-07
1.00324e-06
-1.09967e-06
9.73673e-07
-1.20465e-06
1.01065e-06
-1.3014e-06
1.08295e-06
-1.3939e-06
1.17414e-06
-1.48348e-06
1.26856e-06
-1.5704e-06
1.3552e-06
-1.65372e-06
1.4258e-06
-1.73199e-06
1.47326e-06
-1.80322e-06
1.49161e-06
-1.86521e-06
1.47505e-06
-1.91548e-06
1.41874e-06
-1.95148e-06
1.31849e-06
-1.97059e-06
1.17208e-06
-1.97031e-06
9.78823e-07
-1.94821e-06
7.38316e-07
-1.90192e-06
4.50125e-07
-1.82922e-06
1.14584e-07
-1.72799e-06
-2.66834e-07
-1.59627e-06
-6.91722e-07
-1.43239e-06
-1.15666e-06
-1.23501e-06
-1.65682e-06
-1.00322e-06
-2.18599e-06
-7.36546e-07
-2.73665e-06
-4.35039e-07
-3.30015e-06
-9.93202e-08
-3.8665e-06
2.69333e-07
-4.42438e-06
6.69046e-07
-4.96103e-06
1.09726e-06
-5.461e-06
1.55106e-06
-5.90738e-06
2.02746e-06
-6.28032e-06
2.524e-06
-6.57088e-06
3.03735e-06
-6.79354e-06
3.56254e-06
-6.97204e-06
4.09321e-06
-7.08558e-06
4.62492e-06
-7.12322e-06
5.15093e-06
-7.07527e-06
5.66844e-06
-6.94537e-06
6.16894e-06
-6.73616e-06
6.65414e-06
-6.44608e-06
7.11069e-06
-6.11338e-06
7.55081e-06
-5.68011e-06
7.94832e-06
-5.3113e-06
8.33879e-06
-4.72874e-06
8.66624e-06
-4.52077e-06
9.01581e-06
-3.74007e-06
9.2714e-06
-4.25741e-06
9.62805e-06
-3.56154e-06
-7.88549e-06
9.66996e-06
6.06058e-05
8.27135e-06
4.33959e-05
6.19581e-06
2.91252e-05
4.14624e-06
1.89127e-05
2.51227e-06
1.143e-05
1.38388e-06
7.11098e-06
6.25155e-07
4.429e-06
1.07368e-07
3.04155e-06
-2.5882e-07
2.12476e-06
-5.30094e-07
1.63734e-06
-7.34124e-07
1.31458e-06
-8.9512e-07
1.16423e-06
-1.02555e-06
1.1041e-06
-1.13732e-06
1.12242e-06
-1.23695e-06
1.18258e-06
-1.32928e-06
1.26647e-06
-1.41625e-06
1.35553e-06
-1.4986e-06
1.43755e-06
-1.57576e-06
1.50295e-06
-1.64653e-06
1.54404e-06
-1.70921e-06
1.55429e-06
-1.7618e-06
1.52764e-06
-1.80206e-06
1.459e-06
-1.82761e-06
1.34405e-06
-1.83605e-06
1.18052e-06
-1.82503e-06
9.67801e-07
-1.79226e-06
7.05547e-07
-1.73552e-06
3.9339e-07
-1.65272e-06
3.17795e-08
-1.54185e-06
-3.77706e-07
-1.40106e-06
-8.32511e-07
-1.22879e-06
-1.32893e-06
-1.02382e-06
-1.86179e-06
-7.85314e-07
-2.42449e-06
-5.12886e-07
-3.00908e-06
-2.06658e-07
-3.60637e-06
1.32709e-07
-4.20587e-06
5.03924e-07
-4.7956e-06
9.05123e-07
-5.36223e-06
1.3338e-06
-5.88968e-06
1.78716e-06
-6.36074e-06
2.26234e-06
-6.7555e-06
2.75687e-06
-7.06541e-06
3.26709e-06
-7.30376e-06
3.78779e-06
-7.49274e-06
4.31279e-06
-7.61058e-06
4.83779e-06
-7.64822e-06
5.35631e-06
-7.59379e-06
5.8656e-06
-7.45467e-06
6.35752e-06
-7.22808e-06
6.83379e-06
-6.92234e-06
7.28146e-06
-6.56105e-06
7.71271e-06
-6.11135e-06
8.10169e-06
-5.70028e-06
8.48413e-06
-5.11118e-06
8.80342e-06
-4.84006e-06
9.14638e-06
-4.08303e-06
9.3916e-06
-4.50264e-06
9.73847e-06
-3.90841e-06
-8.01621e-06
9.82893e-06
6.07769e-05
8.66293e-06
4.45619e-05
6.76398e-06
3.10241e-05
4.74944e-06
2.09272e-05
3.03958e-06
1.31399e-05
1.80108e-06
8.34948e-06
9.45228e-07
5.28485e-06
3.55618e-07
3.63116e-06
-6.40741e-08
2.54445e-06
-3.74022e-07
1.94729e-06
-6.06616e-07
1.54717e-06
-7.87935e-07
1.34555e-06
-9.31954e-07
1.24812e-06
-1.05193e-06
1.2424e-06
-1.15542e-06
1.28607e-06
-1.24825e-06
1.3593e-06
-1.33306e-06
1.44034e-06
-1.41114e-06
1.51564e-06
-1.48233e-06
1.57413e-06
-1.54577e-06
1.60748e-06
-1.60002e-06
1.60854e-06
-1.64333e-06
1.57095e-06
-1.67369e-06
1.48936e-06
-1.68895e-06
1.3593e-06
-1.68687e-06
1.17844e-06
-1.66528e-06
9.4621e-07
-1.62204e-06
6.62306e-07
-1.55507e-06
3.26418e-07
-1.46239e-06
-6.09015e-08
-1.34211e-06
-4.97982e-07
-1.1925e-06
-9.82116e-07
-1.01212e-06
-1.50931e-06
-7.99861e-07
-2.07405e-06
-5.54978e-07
-2.66937e-06
-2.77158e-07
-3.2869e-06
3.34046e-08
-3.91694e-06
3.76004e-07
-4.54847e-06
7.49329e-07
-5.16892e-06
1.15151e-06
-5.76441e-06
1.5801e-06
-6.31827e-06
2.03237e-06
-6.81301e-06
2.50556e-06
-7.22869e-06
2.99717e-06
-7.55702e-06
3.50328e-06
-7.80987e-06
4.0185e-06
-8.00796e-06
4.53684e-06
-8.12892e-06
5.05411e-06
-8.16549e-06
5.56408e-06
-8.10376e-06
6.06411e-06
-7.9547e-06
6.54639e-06
-7.71036e-06
7.01264e-06
-7.38859e-06
7.45039e-06
-6.9988e-06
7.87166e-06
-6.53263e-06
8.2511e-06
-6.07973e-06
8.62436e-06
-5.48444e-06
8.93462e-06
-5.15032e-06
9.26959e-06
-4.418e-06
9.5041e-06
-4.73715e-06
9.83957e-06
-4.24389e-06
-8.11826e-06
9.96507e-06
6.08118e-05
9.0158e-06
4.55112e-05
7.30568e-06
3.27342e-05
5.35822e-06
2.28747e-05
3.59971e-06
1.48984e-05
2.26119e-06
9.68801e-06
1.30719e-06
6.23885e-06
6.40903e-07
4.29745e-06
1.63111e-07
3.02224e-06
-1.89281e-07
2.29968e-06
-4.53715e-07
1.81161e-06
-6.58034e-07
1.54987e-06
-8.17838e-07
1.40792e-06
-9.47697e-07
1.37226e-06
-1.05629e-06
1.39466e-06
-1.15051e-06
1.45352e-06
-1.23378e-06
1.52361e-06
-1.30804e-06
1.5899e-06
-1.37358e-06
1.63967e-06
-1.42993e-06
1.66383e-06
-1.47594e-06
1.65455e-06
-1.51016e-06
1.60516e-06
-1.5308e-06
1.51e-06
-1.53592e-06
1.36443e-06
-1.52349e-06
1.16601e-06
-1.49151e-06
9.14228e-07
-1.43798e-06
6.0878e-07
-1.36097e-06
2.49404e-07
-1.25862e-06
-1.63256e-07
-1.12915e-06
-6.27449e-07
-9.70963e-07
-1.1403e-06
-7.82731e-07
-1.69754e-06
-5.63451e-07
-2.29333e-06
-3.12482e-07
-2.92034e-06
-2.95931e-08
-3.56979e-06
2.84955e-07
-4.23149e-06
6.3041e-07
-4.89392e-06
1.00543e-06
-5.54394e-06
1.40814e-06
-6.16712e-06
1.83611e-06
-6.74624e-06
2.28669e-06
-7.26359e-06
2.75718e-06
-7.69918e-06
3.24504e-06
-8.04488e-06
3.74614e-06
-8.31097e-06
4.25498e-06
-8.5168e-06
4.76575e-06
-8.63969e-06
5.27436e-06
-8.67409e-06
5.77484e-06
-8.60424e-06
6.26465e-06
-8.4445e-06
6.73632e-06
-8.18204e-06
7.19158e-06
-7.84385e-06
7.61843e-06
-7.42565e-06
8.02877e-06
-6.94296e-06
8.39776e-06
-6.44872e-06
8.76083e-06
-5.8475e-06
9.0613e-06
-5.45079e-06
9.38714e-06
-4.74383e-06
9.61059e-06
-4.9606e-06
9.93344e-06
-4.56674e-06
-8.19398e-06
1.00814e-05
6.07305e-05
9.33164e-06
4.62609e-05
7.8168e-06
3.42491e-05
5.96457e-06
2.47269e-05
4.18621e-06
1.66767e-05
2.76198e-06
1.11122e-05
1.71168e-06
7.28915e-06
9.6499e-07
5.04413e-06
4.24799e-07
3.56243e-06
2.59804e-08
2.6985e-06
-2.73678e-07
2.11126e-06
-5.03857e-07
1.78005e-06
-6.81895e-07
1.58596e-06
-8.23588e-07
1.51395e-06
-9.38781e-07
1.50985e-06
-1.03549e-06
1.55023e-06
-1.11803e-06
1.60615e-06
-1.18906e-06
1.66092e-06
-1.24939e-06
1.7e-06
-1.299e-06
1.71344e-06
-1.33706e-06
1.69262e-06
-1.36242e-06
1.63051e-06
-1.37354e-06
1.52113e-06
-1.36873e-06
1.35961e-06
-1.34615e-06
1.14343e-06
-1.30397e-06
8.72047e-07
-1.24035e-06
5.45162e-07
-1.15349e-06
1.62545e-07
-1.04166e-06
-2.75086e-07
-9.0321e-07
-7.65898e-07
-7.36665e-07
-1.30685e-06
-5.40819e-07
-1.89339e-06
-3.1478e-07
-2.51937e-06
-5.80041e-08
-3.17712e-06
2.29654e-07
-3.85745e-06
5.47868e-07
-4.5497e-06
8.95827e-07
-5.24188e-06
1.27215e-06
-5.92026e-06
1.67495e-06
-6.56992e-06
2.10181e-06
-7.17311e-06
2.55012e-06
-7.7119e-06
3.01724e-06
-8.1663e-06