/*--------------------------------*- C++ -*----------------------------------*\
| =========                 |                                                 |
| \\      /  F ield         | OpenFOAM: The Open Source CFD Toolbox           |
|  \\    /   O peration     | Version:  2.4.0                                 |
|   \\  /    A nd           | Web:      www.OpenFOAM.org                      |
|    \\/     M anipulation  |                                                 |
\*---------------------------------------------------------------------------*/
FoamFile
{
    version     2.0;
    format      ascii;
    class       volScalarField;
    location    "4.43";
    object      k;
}
// * * * * * * * * * * * * * * * * * * * * * * * * * * * * * * * * * * * * * //

dimensions      [0 2 -2 0 0 0 0];

internalField   nonuniform List<scalar> 
6000
(
0.0117122
0.00656281
0.00175515
0.000444775
0.000122516
0.000318677
0.000249781
0.000400243
0.00046969
0.000642582
0.000804736
0.00100411
0.00118247
0.00135238
0.00148496
0.00158085
0.0016127
0.00155264
0.00140257
0.00135148
0.00167721
0.00234254
0.00310884
0.00381668
0.00442583
0.00495258
0.00541489
0.00582557
0.00619187
0.00651877
0.00680964
0.00706811
0.00729583
0.00749053
0.00765563
0.00779382
0.00790716
0.00799778
0.0080677
0.00811935
0.00815455
0.00817618
0.00818484
0.00818451
0.00817216
0.00815442
0.00812242
0.00808019
0.0082284
0.00855316
0.00885167
0.00925056
0.00954483
0.0100424
0.0102858
0.0110123
0.0111747
0.0125211
0.0125603
0.0159338
0.0120372
0.011712
0.00208937
0.000676019
0.00013716
0.000280723
0.000380524
0.000542939
0.000730629
0.00099164
0.00127822
0.00160789
0.00192891
0.0022512
0.00254344
0.00279269
0.00294515
0.0029328
0.00274754
0.0026958
0.00327121
0.00443296
0.00580786
0.00713579
0.00831346
0.00935054
0.0102721
0.0110981
0.0118406
0.0125079
0.0131061
0.0136415
0.014112
0.0145209
0.0148745
0.0151787
0.0154388
0.0156606
0.01585
0.0160138
0.0161583
0.0162912
0.0164177
0.0165467
0.0166792
0.0168255
0.0169803
0.0171481
0.0173533
0.0175864
0.0177688
0.0179373
0.0179733
0.0180124
0.0178184
0.0177585
0.0173396
0.0173608
0.0169029
0.017779
0.0115679
0.0151658
0.00288264
0.000648043
0.000187613
0.00033407
0.000483408
0.000682064
0.000929207
0.00125952
0.001629
0.00204656
0.00245319
0.00285129
0.00320768
0.00350729
0.00369535
0.00369418
0.00350606
0.00349862
0.00425491
0.00572986
0.00744946
0.00909979
0.0105703
0.0118715
0.0130313
0.0140722
0.0150085
0.0158499
0.0166037
0.0172764
0.0178676
0.0183814
0.0188246
0.0192041
0.0195264
0.0197988
0.0200287
0.0202247
0.0203948
0.0205486
0.0206937
0.0208404
0.0209925
0.0211604
0.0213439
0.0215432
0.0217715
0.0220048
0.0221902
0.0223237
0.022331
0.0222677
0.0220044
0.0217476
0.021241
0.020959
0.0204395
0.0208566
0.0114636
0.0160712
0.00401155
0.0005325
0.000236341
0.00038552
0.000562093
0.000792446
0.00108297
0.00146715
0.00189932
0.00238056
0.00284692
0.00329419
0.00369028
0.00402038
0.00423191
0.00424493
0.00407325
0.00412018
0.00501154
0.00669813
0.00864551
0.0105131
0.0121863
0.0136729
0.0150013
0.0161948
0.0172688
0.018234
0.0190982
0.0198681
0.0205443
0.0211316
0.0216368
0.0220673
0.0224306
0.0227346
0.0229879
0.0232
0.0233803
0.0235396
0.0236871
0.0238342
0.0239871
0.024156
0.0243455
0.0245517
0.0247864
0.0250139
0.0251988
0.025307
0.0252992
0.0251705
0.0248749
0.0244954
0.023962
0.0234939
0.0230582
0.0231782
0.0113762
0.0157664
0.00532548
0.000483533
0.000280851
0.000430413
0.000627575
0.000885372
0.0012115
0.00164037
0.00212415
0.00265721
0.00317173
0.00365808
0.00408542
0.00443987
0.00467209
0.00470343
0.00455793
0.00465759
0.00565043
0.00749231
0.00961236
0.0116509
0.0134874
0.0151254
0.0165922
0.0179117
0.0190997
0.0201676
0.0211238
0.0219742
0.0227208
0.0233687
0.0239248
0.0243968
0.0247925
0.0251208
0.0253906
0.0256125
0.0257969
0.0259555
0.0260987
0.0262391
0.0263848
0.0265461
0.0267321
0.0269339
0.0271648
0.0273803
0.0275576
0.0276406
0.0276162
0.0274331
0.0271106
0.0266342
0.0260839
0.0254704
0.0251056
0.024994
0.0113033
0.0149415
0.00672838
0.000609224
0.000323597
0.000470457
0.000684986
0.000966964
0.00132375
0.00179111
0.00231953
0.00289754
0.0034541
0.00397486
0.00443001
0.00480671
0.00505945
0.00511289
0.00499918
0.00514747
0.00621592
0.00817519
0.0104344
0.012617
0.0145947
0.0163653
0.0179542
0.0193852
0.0206747
0.0218342
0.0228726
0.0237951
0.0246047
0.0253068
0.0259082
0.0264168
0.0268408
0.0271895
0.0274725
0.0277008
0.0278857
0.0280399
0.0281749
0.028304
0.0284373
0.0285855
0.028761
0.0289513
0.0291708
0.0293689
0.0295326
0.0295887
0.0295444
0.029312
0.0289626
0.0284036
0.0278365
0.0271014
0.0267874
0.0264767
0.0112435
0.0139419
0.00776342
0.00114127
0.00037285
0.000507579
0.000737157
0.00104061
0.00142442
0.00192562
0.00249376
0.00311223
0.00370725
0.0042602
0.00474192
0.00514067
0.00541495
0.00549396
0.00541582
0.00560812
0.00673126
0.00877896
0.0111532
0.0134617
0.0155658
0.0174569
0.0191577
0.0206915
0.0220747
0.0233192
0.0244341
0.0254238
0.0262923
0.0270449
0.0276885
0.0282311
0.0286811
0.029048
0.029342
0.0295747
0.0297579
0.0299051
0.0300288
0.0301432
0.0302602
0.0303909
0.0305502
0.030723
0.0309247
0.031101
0.0312454
0.0312726
0.0312049
0.0309262
0.0305481
0.0299162
0.0293301
0.0284901
0.0282093
0.0277207
0.0111887
0.0129396
0.00846414
0.00207555
0.000449492
0.000543912
0.000786028
0.00110849
0.00151634
0.00204766
0.00265176
0.00330747
0.00393873
0.0045229
0.00503118
0.00545289
0.00575044
0.00585833
0.00581847
0.00605034
0.00721069
0.00932289
0.0117928
0.014213
0.0164328
0.0184357
0.0202413
0.0218719
0.0233439
0.0246692
0.0258568
0.0269109
0.0278357
0.0286367
0.0293207
0.0298956
0.0303702
0.0307541
0.0310578
0.0312933
0.0314732
0.0316113
0.0317214
0.0318183
0.0319154
0.0320248
0.0321628
0.0323131
0.0324916
0.0326415
0.0327619
0.0327578
0.0326631
0.0323396
0.0319309
0.0312331
0.0306255
0.0296935
0.0294308
0.0287809
0.011136
0.0120145
0.00888021
0.00320053
0.000598794
0.000582457
0.000833278
0.00117224
0.0016015
0.00215974
0.00279671
0.0034872
0.00415325
0.0047684
0.00530396
0.00575031
0.00607333
0.00621329
0.00621384
0.00648121
0.00766391
0.00981986
0.0123688
0.0148888
0.0172154
0.0193233
0.0212284
0.0229515
0.0245088
0.0259119
0.0271698
0.0282863
0.0292659
0.030114
0.0308373
0.0314437
0.0319421
0.0323421
0.0326546
0.032892
0.0330671
0.0331946
0.0332889
0.0333657
0.03344
0.0335246
0.0336365
0.0337598
0.0339099
0.0340295
0.034121
0.0340832
0.0339579
0.0335904
0.0331492
0.0323909
0.0317595
0.0307456
0.0304889
0.0296915
0.0110858
0.0111981
0.00905968
0.00433842
0.000909124
0.000628392
0.000880715
0.00123334
0.00168146
0.00226374
0.00293088
0.00365414
0.00435395
0.00500028
0.00556435
0.00603755
0.00638857
0.00656372
0.00660643
0.00690566
0.00809796
0.0102792
0.0128918
0.0155009
0.0179268
0.020134
0.0221342
0.0239465
0.0255863
0.0270652
0.0283917
0.0295693
0.0306026
0.031497
0.032259
0.0328965
0.0334181
0.0338337
0.0341545
0.0343928
0.0345621
0.0346775
0.0347543
0.0348087
0.0348575
0.0349138
0.0349955
0.0350874
0.0352044
0.0352896
0.0353479
0.0352736
0.0351146
0.0347033
0.0342277
0.0334131
0.0327557
0.0316686
0.0314078
0.0304755
0.0110393
0.0104971
0.00905241
0.00534349
0.00148661
0.000691702
0.000930686
0.00129329
0.00175761
0.00236122
0.00305606
0.00381031
0.00454311
0.00522104
0.0058151
0.00631779
0.00669959
0.00691301
0.00699934
0.00732728
0.00851829
0.0107082
0.0133702
0.0160583
0.0185761
0.0208777
0.0229693
0.0248678
0.0265881
0.0281411
0.0295349
0.0307726
0.031859
0.0327993
0.0335996
0.0342677
0.0348124
0.0352434
0.0355718
0.0358105
0.0359731
0.0360752
0.0361327
0.0361627
0.0361833
0.0362081
0.0362558
0.0363122
0.0363917
0.0364386
0.0364595
0.036346
0.03615
0.0356947
0.0351829
0.0343155
0.0336305
0.0324775
0.0322043
0.0311488
0.010997
0.00990553
0.00890699
0.00615991
0.00223668
0.000791821
0.000986669
0.00135387
0.00183133
0.00245357
0.00317371
0.00395732
0.00472243
0.00543248
0.00605815
0.00659299
0.00700878
0.00726352
0.00739481
0.00774874
0.00892921
0.0111127
0.0138103
0.0165675
0.0191705
0.0215615
0.023741
0.0257234
0.0275222
0.029148
0.030608
0.0319052
0.0330442
0.0340299
0.0348684
0.0355671
0.0361346
0.0365807
0.0369166
0.0371551
0.0373102
0.0373979
0.0374347
0.0374383
0.0374282
0.0374186
0.0374286
0.0374455
0.0374835
0.0374882
0.0374678
0.0373121
0.0370762
0.0365763
0.0360268
0.0351095
0.0343954
0.033183
0.0328907
0.0317233
0.010959
0.00941214
0.00866721
0.0067679
0.0030669
0.000968135
0.00105431
0.00141738
0.00190414
0.00254219
0.00328522
0.00409655
0.00489328
0.00563597
0.00629492
0.00686451
0.00731783
0.00761694
0.00779441
0.00817208
0.00933426
0.0114976
0.0142176
0.017034
0.0197154
0.0221911
0.0244552
0.0265189
0.0283946
0.030092
0.0316171
0.0329732
0.0341645
0.0351955
0.036072
0.0368012
0.0373916
0.0378527
0.0381957
0.0384336
0.0385806
0.0386528
0.0386675
0.038643
0.0386
0.038553
0.038522
0.0384957
0.0384881
0.038447
0.0383814
0.0381806
0.0379018
0.0373566
0.036768
0.0358033
0.035059
0.033793
0.0334762
0.0322078
0.010925
0.00900398
0.0083699
0.00717262
0.00387957
0.00130117
0.00114334
0.00148697
0.00197785
0.00262859
0.0033919
0.00422927
0.00505684
0.00583261
0.00652643
0.00713344
0.00762789
0.00797439
0.00819928
0.00859887
0.00973637
0.0118673
0.0145967
0.0174625
0.0202152
0.0227708
0.025116
0.0272588
0.0292095
0.0309772
0.0325667
0.0339812
0.0352243
0.0363005
0.037215
0.0379747
0.0385879
0.039064
0.039414
0.0396509
0.0397891
0.039845
0.0398364
0.039782
0.039704
0.0396169
0.0395417
0.0394687
0.0394119
0.0393213
0.0392067
0.038958
0.0386335
0.0380422
0.037413
0.0364031
0.0356278
0.0343135
0.0339681
0.0326094
0.010895
0.00866832
0.00804427
0.00739369
0.00463076
0.00182124
0.00127023
0.00156729
0.00205473
0.00271445
0.00349518
0.00435675
0.00521421
0.00602333
0.00675345
0.0074005
0.00793969
0.00833659
0.00861019
0.00903035
0.0101381
0.0122256
0.0149519
0.017857
0.0206737
0.0233041
0.0257271
0.0279463
0.0299704
0.0318072
0.0334601
0.0349324
0.0362271
0.0373482
0.0383007
0.0390909
0.0397269
0.0402179
0.0405748
0.0408105
0.0409394
0.0409781
0.0409449
0.0408593
0.0407442
0.0406147
0.0404922
0.0403691
0.0402595
0.0401159
0.0399489
0.0396493
0.0392765
0.038638
0.0379671
0.0369137
0.036107
0.0347492
0.0343722
0.0329336
0.0108685
0.00839354
0.00771224
0.00745831
0.00528531
0.00249335
0.00146269
0.00166531
0.00213777
0.00280183
0.0035966
0.00448032
0.00536648
0.00620898
0.00697662
0.00766615
0.00825367
0.00870394
0.00902764
0.00946749
0.0105414
0.012576
0.0152871
0.0182212
0.0210944
0.0237944
0.0262912
0.0285844
0.0306799
0.0325843
0.0342998
0.0358293
0.0371752
0.0383411
0.0393314
0.0401522
0.040811
0.0413169
0.0416806
0.0419147
0.0420338
0.0420546
0.0419959
0.0418778
0.0417237
0.0415492
0.0413768
0.0412004
0.0410347
0.0408347
0.0406118
0.0402585
0.0398346
0.0391479
0.0384342
0.0373392
0.0365006
0.0351039
0.0346933
0.033185
0.0108452
0.0081694
0.00738938
0.00739682
0.005818
0.00324141
0.00176809
0.00179182
0.0022311
0.00289327
0.00369796
0.00460144
0.00551479
0.00639041
0.00719647
0.00793069
0.00857002
0.00907657
0.00945194
0.00991111
0.0109484
0.0129216
0.0156058
0.0185586
0.0214804
0.0242443
0.0268111
0.0291752
0.0313403
0.0333107
0.0350877
0.0366737
0.0380704
0.0392808
0.0403088
0.0411601
0.0418417
0.0423625
0.0427329
0.0429653
0.0430742
0.0430765
0.0429914
0.0428394
0.0426446
0.0424231
0.042198
0.0419654
0.0417403
0.0414806
0.0411986
0.0407889
0.0403114
0.0395754
0.0388178
0.0376826
0.0368121
0.0353809
0.0349354
0.0333674
0.0108249
0.00798712
0.00708599
0.00723965
0.0062151
0.00399585
0.00221529
0.00196326
0.00234051
0.00299203
0.00380142
0.00472178
0.0056604
0.00656854
0.00741354
0.00819429
0.00888876
0.00945441
0.00988323
0.0103619
0.0113606
0.0132653
0.0159116
0.0188725
0.0218348
0.0246565
0.0272889
0.029721
0.0319532
0.0339881
0.0358254
0.0374672
0.0389141
0.0401687
0.0412342
0.0421159
0.0428203
0.043356
0.0437329
0.0439633
0.0440617
0.0440449
0.0439327
0.0437457
0.0435086
0.043238
0.0429579
0.0426662
0.0423787
0.0420563
0.041712
0.041243
0.0407096
0.039923
0.0391206
0.0379467
0.0370445
0.0355829
0.0351019
0.0334841
0.0108072
0.0078393
0.0068082
0.00701517
0.00647385
0.00470316
0.00279087
0.00220382
0.00247431
0.00310242
0.00390965
0.0048433
0.00580475
0.00674438
0.00762839
0.00845706
0.00920951
0.00983722
0.0103215
0.0108203
0.0117795
0.01361
0.0162078
0.0191662
0.0221602
0.0250335
0.0277269
0.0302235
0.0325205
0.0346178
0.0365141
0.0382107
0.0397072
0.0410055
0.0421083
0.0430203
0.0437474
0.0442979
0.0446813
0.0449096
0.0449972
0.0449609
0.0448208
0.0445978
0.0443169
0.0439954
0.043658
0.0433046
0.0429519
0.0425638
0.0421541
0.0416232
0.0410314
0.0401932
0.0393452
0.0381339
0.0372002
0.0357123
0.0351959
0.033538
0.0107918
0.00771975
0.00655903
0.00674837
0.00660072
0.00532357
0.0034486
0.00254444
0.00264445
0.00323021
0.00402599
0.00496838
0.00594955
0.00691912
0.00784171
0.00871915
0.00953158
0.0102246
0.0107665
0.0112868
0.0122065
0.013958
0.0164977
0.0194429
0.0224597
0.0253776
0.028127
0.0306844
0.0330435
0.0352011
0.037155
0.0389053
0.0404505
0.0417921
0.0429317
0.0438738
0.0446236
0.0451888
0.0455786
0.0458046
0.0458811
0.045825
0.0456566
0.0453966
0.0450706
0.0446964
0.0442996
0.0438821
0.0434615
0.0430048
0.0425269
0.0419315
0.0412791
0.0403881
0.0394936
0.0382462
0.0372815
0.0357712
0.0352201
0.0335316
0.0107784
0.00762334
0.00633926
0.00646009
0.00660927
0.00582986
0.00413878
0.00300402
0.00286786
0.00338319
0.00415474
0.0050999
0.00609683
0.00709418
0.00805432
0.00898077
0.0098547
0.0106162
0.0112182
0.0117619
0.0126428
0.0143119
0.0167844
0.0197058
0.0227361
0.0256915
0.0284914
0.0311055
0.0335236
0.0357393
0.0377489
0.0395516
0.0411446
0.0425288
0.043705
0.0446769
0.0454491
0.0460289
0.0464248
0.0466485
0.0467139
0.0466378
0.0464404
0.0461427
0.0457703
0.0453419
0.0448838
0.0443998
0.0439089
0.0433809
0.042832
0.0421696
0.0414545
0.0405095
0.039568
0.0382855
0.0372905
0.0357616
0.0351771
0.033467
0.0107668
0.00754584
0.00614812
0.00616688
0.00651785
0.00620612
0.00481473
0.003574
0.00316761
0.00357178
0.0043015
0.00524144
0.00624903
0.00727127
0.00826726
0.00924229
0.0101786
0.0110115
0.011676
0.0122457
0.0130894
0.0146738
0.017071
0.0199582
0.0229923
0.0259774
0.028822
0.0314884
0.0339621
0.0362333
0.0382967
0.0401504
0.0417901
0.0432162
0.0444282
0.0454296
0.0462239
0.046818
0.0472202
0.0474415
0.0474959
0.0473995
0.0471727
0.0468364
0.0464166
0.0459326
0.0454115
0.044859
0.0442954
0.0436935
0.0430711
0.0423392
0.0415593
0.0405592
0.0395699
0.0382537
0.0372291
0.0356853
0.0350689
0.0333464
0.0107568
0.00748378
0.00598391
0.00588116
0.00634729
0.00644673
0.00543563
0.00422176
0.00356551
0.00380967
0.00447358
0.00539743
0.00640915
0.00745245
0.00848185
0.00950424
0.010503
0.0114094
0.0121394
0.0127384
0.0135474
0.0150459
0.0173605
0.0202032
0.0232312
0.026238
0.029121
0.0318348
0.0343603
0.0366842
0.0387992
0.0407024
0.0423874
0.0438545
0.0451016
0.0461317
0.0469479
0.0475563
0.0479648
0.0481839
0.0482271
0.0481103
0.0478537
0.0474782
0.04701
0.0464692
0.0458834
0.0452605
0.044622
0.0439439
0.0432453
0.0424418
0.041595
0.0405388
0.0395012
0.0381523
0.0370991
0.0355442
0.0348978
0.0331715
0.0107481
0.00743429
0.00584435
0.0056116
0.00611895
0.00655499
0.00596815
0.00490438
0.00406821
0.00411485
0.00468052
0.00557343
0.00658083
0.00764023
0.00869972
0.00976742
0.010828
0.011809
0.0126079
0.01324
0.0140178
0.0154303
0.017656
0.0204441
0.0234559
0.0264757
0.0293904
0.0321464
0.0347197
0.0370932
0.0392573
0.0412081
0.042937
0.0444434
0.045725
0.0467834
0.0476212
0.048244
0.0486588
0.0488757
0.0489076
0.0487702
0.0484835
0.0480683
0.0475509
0.046952
0.0463003
0.0456051
0.0448897
0.0441332
0.0433562
0.0424787
0.0415632
0.0404498
0.0393635
0.037983
0.0369022
0.0353398
0.0346658
0.0329441
0.0107405
0.00739505
0.00572689
0.00536378
0.0058531
0.0065417
0.00638747
0.00557741
0.00466313
0.00450306
0.00493602
0.00577634
0.00676856
0.00783761
0.00892291
0.0100329
0.0111537
0.0122099
0.0130808
0.0137504
0.0145012
0.0158287
0.0179602
0.0206841
0.0236693
0.0266933
0.0296325
0.0324251
0.0350415
0.0374612
0.0396718
0.0416671
0.0434385
0.0449832
0.0462985
0.0473848
0.0482441
0.048881
0.0493021
0.0495168
0.0495374
0.0493794
0.0490623
0.0486069
0.0480396
0.0473817
0.0466626
0.0458936
0.0450995
0.0442624
0.0434048
0.0424513
0.0414654
0.0402937
0.0391583
0.0377474
0.0366401
0.0350738
0.0343747
0.0326659
0.010734
0.00736415
0.00562895
0.00514071
0.00556773
0.00642324
0.00667795
0.00619974
0.0053219
0.00498197
0.00525311
0.00601613
0.00697884
0.00804821
0.00915387
0.0103022
0.0114804
0.0126114
0.013557
0.0142693
0.0149983
0.0162431
0.0182762
0.0209265
0.0238746
0.0268934
0.0298496
0.0326726
0.0353269
0.0377885
0.0400425
0.0420805
0.0438926
0.0454745
0.0468225
0.0479361
0.0488165
0.0494674
0.0498947
0.0501071
0.0501166
0.0499378
0.0495901
0.0490941
0.0484763
0.0477586
0.0469711
0.0461268
0.0452522
0.0443326
0.0433924
0.0423609
0.0413028
0.040072
0.0388871
0.037447
0.0363145
0.0347479
0.0340265
0.0323383
0.0107283
0.00734001
0.00554802
0.00494346
0.00527786
0.00621966
0.00683333
0.00673602
0.00600646
0.00554789
0.00564357
0.00630229
0.00721869
0.0082783
0.00939585
0.010577
0.0118087
0.0130132
0.0140358
0.014796
0.0155094
0.0166751
0.0186066
0.0211746
0.024075
0.0270784
0.0300427
0.0328897
0.0355767
0.0380763
0.0403707
0.0424489
0.0442998
0.0459175
0.0472974
0.0484376
0.0493386
0.0500032
0.0504366
0.0506468
0.050645
0.0504454
0.050067
0.0495301
0.0488613
0.048083
0.047226
0.0463053
0.0453487
0.0443448
0.04332
0.0422088
0.0410769
0.0397862
0.0385515
0.0370833
0.0359269
0.0343635
0.0336228
0.031963
0.0107234
0.00732137
0.00548176
0.00477173
0.00499528
0.00595263
0.00685624
0.00715824
0.0066753
0.00618375
0.00611487
0.00664478
0.00749542
0.00853287
0.00965445
0.0108604
0.0121398
0.0134149
0.014516
0.0153298
0.0160346
0.0171261
0.0189541
0.0214297
0.0242718
0.0272501
0.0302143
0.0330783
0.0357927
0.038326
0.0406574
0.0427731
0.0446608
0.0463128
0.0477232
0.0488893
0.0498104
0.0504884
0.0509278
0.0511356
0.0511225
0.0509021
0.0504929
0.0499149
0.0491947
0.0483553
0.047428
0.0464296
0.0453897
0.0442999
0.0431887
0.041996
0.0407889
0.0394375
0.038153
0.0366579
0.0354791
0.0339224
0.0331655
0.0315412
0.0107191
0.00730718
0.00542804
0.00462422
0.00472857
0.00564364
0.00675724
0.00744677
0.00728798
0.00686072
0.00666631
0.00705246
0.00781689
0.00881755
0.0099336
0.0111572
0.0124758
0.0138165
0.0149965
0.0158693
0.0165737
0.0175969
0.0193181
0.0216939
0.024468
0.0274113
0.0303668
0.0332406
0.0359766
0.038539
0.0409037
0.0430541
0.0449763
0.0466607
0.0481005
0.0492914
0.050232
0.050923
0.0513681
0.0515736
0.0515492
0.051308
0.0508679
0.0502487
0.0494768
0.0485757
0.0475774
0.0465005
0.045376
0.0441989
0.0429997
0.041724
0.0404404
0.0390276
0.0376932
0.0361723
0.0349726
0.0334261
0.0326562
0.0310745
0.0107153
0.00729658
0.00538495
0.00449907
0.0044834
0.00531254
0.00655316
0.00759117
0.0078082
0.00754231
0.0072864
0.00753071
0.00819077
0.00913835
0.0102376
0.0114703
0.0128208
0.014219
0.015476
0.0164131
0.0171259
0.0180857
0.0196998
0.0219694
0.0246661
0.0275646
0.0305026
0.0333786
0.0361302
0.0387167
0.0411106
0.0432926
0.0452468
0.0469618
0.0484294
0.0496442
0.0506034
0.0513071
0.0517576
0.0519606
0.0519249
0.0516629
0.0511919
0.0505314
0.0497076
0.0487445
0.0476747
0.0465184
0.0453082
0.0440425
0.042754
0.0413937
0.0400324
0.0385578
0.0371735
0.0356282
0.0344091
0.0328763
0.0320967
0.0305642
0.0107121
0.00728887
0.00535081
0.0043941
0.00426296
0.00497642
0.00626517
0.00759039
0.00820597
0.00818876
0.00795254
0.00807863
0.00862319
0.00950127
0.010571
0.0118029
0.0131769
0.0146251
0.0159547
0.0169588
0.0176884
0.0185921
0.0201
0.0222584
0.0248686
0.0277126
0.030624
0.0334945
0.036255
0.0388604
0.0412794
0.0434895
0.0454729
0.0472165
0.0487103
0.0499477
0.0509248
0.0516405
0.0520962
0.0522965
0.0522496
0.0519669
0.051465
0.0507632
0.0498874
0.0488621
0.0477203
0.0464838
0.0451872
0.0438316
0.0424525
0.0410065
0.0395665
0.0380295
0.0365955
0.0350271
0.0337904
0.0322746
0.0314887
0.0300117
0.0107092
0.00728346
0.00532417
0.00430702
0.00406849
0.00464904
0.00591661
0.00745236
0.00845929
0.00876094
0.00863308
0.00868677
0.00911692
0.00991149
0.0109383
0.0121583
0.0135461
0.0150358
0.0164322
0.017505
0.0182596
0.0191152
0.0205196
0.0225624
0.0250779
0.0278578
0.0307334
0.0335902
0.036353
0.0389716
0.041411
0.0436457
0.0456554
0.0474252
0.0489434
0.0502022
0.0511962
0.0519233
0.0523839
0.0525814
0.0525231
0.0522197
0.0516871
0.0509441
0.0500163
0.0489285
0.0477144
0.0463974
0.0450134
0.0435672
0.0420963
0.0405636
0.039044
0.0374443
0.0359609
0.0343707
0.0331182
0.0316227
0.030834
0.0294184
0.0107068
0.0072799
0.00530375
0.00423556
0.00389973
0.00434061
0.0055309
0.00719292
0.00855541
0.00922323
0.00929067
0.00933614
0.00966929
0.0103722
0.0113432
0.0125395
0.0139306
0.0154519
0.0169085
0.01805
0.0188372
0.0196539
0.0209585
0.022883
0.0252962
0.0280025
0.0308331
0.0336678
0.0364257
0.0390517
0.0415067
0.043762
0.0457949
0.0475883
0.0491291
0.0504077
0.0514177
0.0521555
0.0526205
0.052815
0.0527454
0.0524214
0.0518582
0.0510741
0.0500943
0.0489441
0.0476575
0.0462595
0.0447877
0.0432499
0.0416863
0.040066
0.0384661
0.0368037
0.0352712
0.0336607
0.0323943
0.0309224
0.0301342
0.0287858
0.0107046
0.00727778
0.00528847
0.00417758
0.0037554
0.00405795
0.00512976
0.00683404
0.0084916
0.00954601
0.00988591
0.00999903
0.0102704
0.0108833
0.0117883
0.012949
0.0143322
0.0158744
0.017383
0.0185919
0.0194188
0.0202062
0.0214165
0.0232211
0.0255251
0.0281488
0.0309251
0.0337291
0.0364749
0.0391021
0.0415675
0.0438391
0.0458919
0.0477063
0.0492676
0.0505646
0.0515894
0.0523371
0.052806
0.0529974
0.0529164
0.0525719
0.0519783
0.0511532
0.0501216
0.048909
0.0475498
0.0460706
0.0445106
0.0428807
0.0412237
0.0395149
0.0378343
0.0361092
0.0345283
0.032899
0.0316205
0.0301755
0.0293913
0.0281153
0.0107027
0.00727679
0.00527741
0.00413112
0.00363361
0.00380491
0.00473181
0.00640163
0.00827518
0.00970757
0.0103806
0.0106412
0.0109022
0.0114394
0.0122737
0.0133883
0.014752
0.0163039
0.0178553
0.0191288
0.0200013
0.0207698
0.0218926
0.0235773
0.0257663
0.0282988
0.0310113
0.0337761
0.036502
0.0391239
0.0415944
0.043878
0.045947
0.0477797
0.0493592
0.0506728
0.0517112
0.052468
0.0529404
0.0531283
0.0530359
0.052671
0.0520472
0.0511813
0.0500983
0.0488234
0.0473917
0.0458312
0.0441827
0.0424602
0.0407092
0.0389117
0.03715
0.0353624
0.0337338
0.0320873
0.0307988
0.0293838
0.0286071
0.0274083
0.010701
0.00727668
0.00526978
0.0040944
0.00353208
0.00358291
0.0043518
0.00592307
0.0079228
0.00969576
0.0107406
0.0112249
0.0115389
0.0120291
0.0127958
0.0138569
0.0151905
0.0167406
0.0183246
0.0196584
0.0205814
0.0213413
0.0223849
0.0239513
0.0260208
0.0284539
0.0310935
0.0338103
0.0365085
0.0391184
0.0415883
0.0438793
0.0459608
0.0478086
0.0494041
0.0507325
0.0517831
0.0525482
0.0530235
0.0532077
0.0531038
0.0527187
0.0520648
0.0511586
0.0500242
0.0486874
0.0471834
0.0455417
0.0438045
0.0419893
0.040144
0.0382573
0.0364146
0.0345649
0.0328896
0.0312277
0.0299312
0.0285493
0.0277834
0.0266664
0.0106995
0.00727723
0.0052649
0.00406586
0.00344844
0.00339152
0.00400026
0.00542481
0.00745885
0.00950911
0.0109379
0.0117116
0.0121486
0.0126341
0.0133467
0.0143517
0.0156465
0.0171835
0.0187896
0.0201779
0.021155
0.0219167
0.0228908
0.0243422
0.0262888
0.0286154
0.0311732
0.0338331
0.0364957
0.0390866
0.0415501
0.0438436
0.0459336
0.0477935
0.0494023
0.0507437
0.0518052
0.0525776
0.0530551
0.0532353
0.05312
0.0527147
0.0520311
0.0510848
0.0498996
0.0485011
0.0469252
0.0452024
0.0433767
0.0414686
0.039529
0.0375532
0.0356295
0.0337186
0.0319976
0.0303221
0.0290197
0.0276741
0.0269223
0.0258913
0.0106983
0.00727828
0.00526224
0.00404413
0.00338034
0.00322905
0.00368374
0.00493033
0.00691304
0.00915717
0.0109535
0.0120654
0.0126951
0.0132292
0.0139127
0.0148663
0.0161166
0.0176307
0.0192481
0.0206842
0.0217173
0.022491
0.0234064
0.0247481
0.0265702
0.0287839
0.0312513
0.0338457
0.0364645
0.0390294
0.0414805
0.0437715
0.0458658
0.0477344
0.0493541
0.0507065
0.0517773
0.0525559
0.0530351
0.053211
0.0530841
0.0526588
0.0519458
0.0509599
0.0497242
0.0482646
0.0466171
0.0448137
0.0428997
0.040899
0.0388651
0.0368004
0.0347964
0.032825
0.0310598
0.0293726
0.0280667
0.0267602
0.0260258
0.0250844
0.0106971
0.0072797
0.0052613
0.00402801
0.00332558
0.00309302
0.00340531
0.00445868
0.00631763
0.00865997
0.0107785
0.0122551
0.013141
0.0137839
0.0144743
0.0153897
0.0165949
0.0180784
0.0196968
0.0211732
0.0222632
0.0230582
0.0239266
0.0251658
0.0268636
0.0289591
0.0313285
0.0338488
0.0364158
0.0389475
0.0413799
0.0436632
0.0457577
0.0476316
0.0492593
0.0506206
0.0516992
0.052483
0.0529632
0.0531344
0.0529959
0.0525509
0.0518087
0.0507837
0.0494982
0.0479779
0.0462594
0.0443758
0.042374
0.040281
0.0381533
0.0360002
0.0339167
0.0318861
0.0300784
0.0283816
0.0270745
0.0258098
0.0250961
0.0242476
0.0106961
0.00728137
0.00526171
0.00401649
0.00328213
0.00298056
0.00316526
0.00402376
0.00570436
0.00804644
0.0104155
0.0122571
0.0134503
0.0142638
0.0150064
0.0159062
0.017072
0.0185206
0.0201313
0.0216401
0.0227863
0.0236113
0.0244453
0.0255908
0.0271665
0.0291401
0.0314045
0.0338427
0.03635
0.0388411
0.0412486
0.043519
0.0456092
0.0474848
0.0491179
0.0504858
0.0515708
0.0523586
0.052839
0.0530053
0.0528551
0.0523905
0.0516197
0.050556
0.0492212
0.0476411
0.0458522
0.0438892
0.0418001
0.0396155
0.0373945
0.0351539
0.032992
0.0309039
0.0290555
0.0273514
0.0260455
0.0248255
0.0241355
0.0233828
0.0106952
0.00728321
0.00526314
0.00400868
0.00324817
0.00288868
0.00296189
0.00363425
0.00510172
0.00735178
0.00987951
0.0120574
0.0135908
0.014633
0.0154792
0.0163951
0.0175344
0.0189485
0.0205451
0.0220788
0.0232795
0.0241422
0.0249547
0.0260174
0.0274754
0.029325
0.0314786
0.0338272
0.0362669
0.0387104
0.0410867
0.0433387
0.0454203
0.047294
0.0489295
0.050302
0.0513915
0.0521823
0.0526623
0.0528232
0.0526614
0.0521774
0.0513784
0.0502766
0.0488933
0.047254
0.0453957
0.0433539
0.0411785
0.038903
0.0365898
0.0342628
0.032024
0.0298803
0.0279935
0.0262846
0.0249825
0.0238097
0.0231463
0.0224919
0.0106945
0.00728516
0.00526533
0.00400386
0.00322212
0.00281449
0.00279221
0.00329414
0.00453286
0.00661415
0.0091969
0.0116536
0.0135369
0.0148565
0.0158601
0.0168311
0.0179648
0.0193505
0.0209295
0.0224816
0.0237346
0.0246417
0.0254457
0.026438
0.0277851
0.0295106
0.031549
0.0338012
0.0361661
0.038555
0.0408938
0.0431221
0.0451905
0.0470587
0.0486937
0.0500685
0.051161
0.0519535
0.0524324
0.0525877
0.0524142
0.0519111
0.0510843
0.0499452
0.0485141
0.0468166
0.0448897
0.0427703
0.0405095
0.0381443
0.0357401
0.0333283
0.0310146
0.0288176
0.0268949
0.0251839
0.0238881
0.022765
0.0221313
0.021577
0.0106938
0.00728717
0.00526808
0.00400139
0.00320259
0.00275531
0.00265255
0.0030036
0.00401439
0.00587088
0.00840369
0.0110563
0.0132723
0.014903
0.0161148
0.0171853
0.0183414
0.0197111
0.0212735
0.0228394
0.0241421
0.0250994
0.0259078
0.0268434
0.0280882
0.0296922
0.0316126
0.0337629
0.0360464
0.0383739
0.0406691
0.0428684
0.0449192
0.0467783
0.0484099
0.0497847
0.0508785
0.0516717
0.0521487
0.0522981
0.052113
0.0515912
0.0507372
0.0495614
0.0480835
0.0463287
0.0443344
0.0421384
0.0397935
0.03734
0.0348463
0.0323517
0.0299655
0.0277181
0.0257626
0.0240522
0.0227656
0.0216945
0.0210931
0.0206403
0.0106932
0.00728919
0.0052712
0.00400076
0.00318838
0.00270871
0.00253902
0.00276007
0.00355616
0.005155
0.00754235
0.0102892
0.0127916
0.014747
0.0162106
0.0174266
0.0186392
0.0200116
0.0215632
0.0231408
0.0244912
0.0255035
0.026329
0.0272227
0.0283763
0.0298636
0.0316654
0.0337095
0.0359056
0.0381656
0.0404114
0.0425765
0.0446054
0.0464518
0.0480772
0.0494498
0.0505433
0.0513361
0.0518107
0.0519538
0.0517571
0.0512169
0.0503364
0.0491248
0.047601
0.0457902
0.0437296
0.0414586
0.039031
0.0364908
0.0339097
0.0313346
0.0288788
0.0265841
0.0245993
0.0228927
0.0216181
0.0206013
0.0200347
0.0196844
0.0106927
0.0072912
0.00527458
0.00400155
0.00317846
0.00267255
0.00244779
0.00255926
0.00316191
0.00449255
0.00665768
0.0093881
0.0121031
0.0143719
0.0161179
0.0175231
0.0188303
0.0202302
0.021782
0.0233726
0.0247694
0.0258411
0.0266959
0.0275634
0.0286387
0.0300169
0.0317017
0.0336371
0.035741
0.037928
0.0401189
0.0422451
0.0442478
0.046078
0.0476944
0.0490628
0.0501545
0.0509457
0.0514172
0.051554
0.0513459
0.0507877
0.0498813
0.0486348
0.0470664
0.0452007
0.0430753
0.0407307
0.0382223
0.0355973
0.0329311
0.0302784
0.0277565
0.0254186
0.0234082
0.0217089
0.0204493
0.0194886
0.0189595
0.0187118
0.0106922
0.00729318
0.0052781
0.0040034
0.00317199
0.00264498
0.00237533
0.00239602
0.00283052
0.00390105
0.00579221
0.00839856
0.011229
0.0137722
0.0158132
0.0174447
0.0188854
0.0203422
0.0219105
0.023519
0.0249628
0.0260982
0.0269939
0.0278514
0.0288632
0.0301423
0.0317141
0.0335401
0.0355486
0.037658
0.0397893
0.0418719
0.0438446
0.0456553
0.0472602
0.0486223
0.0497107
0.0504995
0.0509674
0.0510977
0.0508784
0.0503029
0.0493714
0.048091
0.0464791
0.04456
0.0423715
0.0399551
0.0373677
0.0346603
0.0319118
0.0291849
0.026601
0.0242242
0.0221929
0.0205045
0.0192631
0.0183603
0.0178708
0.0177255
0.0106918
0.0072951
0.00528169
0.00400603
0.00316823
0.00262439
0.00231845
0.00226498
0.00255748
0.00338942
0.00498186
0.0073714
0.0102057
0.012956
0.0152819
0.0171651
0.0187758
0.0203216
0.021927
0.0235626
0.025056
0.0262594
0.0272071
0.0280708
0.0290358
0.0302281
0.0316936
0.033412
0.0353233
0.0373515
0.0394192
0.0414543
0.0433934
0.0451818
0.0467727
0.0481267
0.0492105
0.0499961
0.0504601
0.0505838
0.0503537
0.0497614
0.0488057
0.0474927
0.0458387
0.0438677
0.0416178
0.0391317
0.0364677
0.0336805
0.0308529
0.0280559
0.0254147
0.0230043
0.020957
0.0192835
0.0180636
0.0172203
0.0167727
0.0167288
0.0106915
0.00729696
0.00528528
0.00400922
0.00316659
0.00260945
0.00227439
0.002161
0.00233631
0.00295902
0.00425289
0.00635755
0.00908145
0.0119462
0.0145207
0.0166643
0.0184749
0.0201417
0.0218083
0.023484
0.0250318
0.0263081
0.0273185
0.0282048
0.0291407
0.030261
0.0316295
0.0332443
0.0350586
0.0370037
0.0390046
0.0409891
0.0428916
0.044655
0.0462299
0.0475742
0.0486524
0.049434
0.0498938
0.0500111
0.0497706
0.0491623
0.0481836
0.0468391
0.0451445