/*--------------------------------*- C++ -*----------------------------------*\
| =========                 |                                                 |
| \\      /  F ield         | OpenFOAM: The Open Source CFD Toolbox           |
|  \\    /   O peration     | Version:  2.4.0                                 |
|   \\  /    A nd           | Web:      www.OpenFOAM.org                      |
|    \\/     M anipulation  |                                                 |
\*---------------------------------------------------------------------------*/
FoamFile
{
    version     2.0;
    format      ascii;
    class       volVectorField;
    location    "5.44";
    object      U;
}
// * * * * * * * * * * * * * * * * * * * * * * * * * * * * * * * * * * * * * //

dimensions      [0 1 -1 0 0 0 0];

internalField   nonuniform List<vector> 
6000
(
(0.165118 -0.00671287 1.30036e-18)
(-0.00974569 0.00185841 0)
(0.000828941 -0.000234287 7.23818e-18)
(-0.0066335 0.00128754 0)
(-0.00500561 0.000987379 0)
(-0.00607638 0.00113993 0)
(-0.00534374 0.00098407 4.01579e-18)
(-0.00550799 0.000961988 3.33614e-22)
(-0.00512508 0.000866425 0)
(-0.0051268 0.000821828 0)
(-0.00495349 0.000759857 3.91672e-18)
(-0.0049824 0.000722944 -7.75889e-18)
(-0.00498642 0.000687039 0)
(-0.005123 0.000665022 0)
(-0.0052971 0.00064817 -1.88233e-18)
(-0.00557131 0.000638339 0)
(-0.00590488 0.000631786 0)
(-0.0063216 0.000627396 -1.83424e-18)
(-0.00680356 0.000622909 -1.82127e-18)
(-0.00735832 0.000616522 0)
(-0.00797622 0.000606339 1.80089e-18)
(-0.00865567 0.000590374 8.96858e-19)
(-0.00938671 0.000566776 -8.9435e-19)
(-0.0101604 0.000533675 0)
(-0.0109628 0.000489544 0)
(-0.0117796 0.000433166 0)
(-0.012594 0.000363776 4.48187e-19)
(-0.0133871 0.000280999 -4.50104e-19)
(-0.0141366 0.000185039 0)
(-0.0148176 7.67247e-05 0)
(-0.0154018 -4.236e-05 5.7547e-20)
(-0.0158583 -0.000169866 0)
(-0.0161542 -0.00030295 4.71291e-19)
(-0.0162543 -0.000435383 -4.78032e-19)
(-0.0161223 -0.000557384 0)
(-0.0157201 -0.00066754 0)
(-0.015012 -0.000756665 1.00676e-18)
(-0.0139601 -0.000815406 0)
(-0.0125325 -0.000833207 1.04849e-18)
(-0.0106918 -0.00079916 0)
(-0.00841954 -0.000701087 0)
(-0.00568583 -0.000527806 2.23801e-18)
(-0.00251584 -0.000267553 -4.5721e-18)
(0.00104704 8.52162e-05 0)
(0.00459886 0.000497452 0)
(0.00835732 0.000979353 2.42339e-18)
(0.0121544 0.00153471 0)
(0.0163141 0.00218167 0)
(0.0203317 0.00290253 -5.02122e-18)
(0.0250007 0.00374366 -5.0476e-18)
(0.0289926 0.00462194 -5.02437e-18)
(0.034448 0.00570129 -1.82978e-21)
(0.0378761 0.00668908 4.85947e-18)
(0.0449904 0.00813344 0)
(0.0466495 0.00907387 -3.02997e-21)
(0.0577542 0.0112728 -4.30786e-18)
(0.054873 0.0116754 3.44825e-18)
(0.0756998 0.0157763 3.55108e-18)
(0.0629547 0.0146577 4.1683e-21)
(0.104457 0.0229746 0)
(0.360298 -0.0164519 -1.80649e-18)
(0.0030177 0.00650582 4.29089e-18)
(0.00549251 -0.000893842 -4.34093e-18)
(-0.0149548 0.00337569 -4.60481e-18)
(-0.0124291 0.00257909 0)
(-0.0157699 0.00305964 0)
(-0.0142806 0.00266494 -4.58458e-18)
(-0.014877 0.00262505 9.08107e-18)
(-0.014028 0.00238225 0)
(-0.0140925 0.00226947 0)
(-0.0137061 0.00211389 -4.3454e-18)
(-0.0138117 0.00202178 4.28114e-18)
(-0.0138622 0.00193527 2.10858e-18)
(-0.0142465 0.00188486 0)
(-0.0147374 0.00184912 2.05062e-18)
(-0.0154858 0.00183172 0)
(-0.0163933 0.0018229 0)
(-0.0175139 0.00181915 0)
(-0.0188025 0.00181425 0)
(-0.0202727 0.00180304 0)
(-0.0218975 0.0017801 -1.23097e-23)
(-0.0236676 0.00173973 0)
(-0.0255533 0.00167664 -9.54987e-19)
(-0.027527 0.0015856 0)
(-0.029549 0.00146243 0)
(-0.0315789 0.00130402 4.75398e-19)
(-0.0335707 0.00110845 -4.76231e-19)
(-0.0354737 0.000874868 -2.59451e-24)
(-0.0372298 0.000603973 2.40192e-19)
(-0.0387747 0.00029821 0)
(-0.0400373 -3.78964e-05 -6.10078e-20)
(-0.0409414 -0.000397596 -2.46658e-19)
(-0.0414058 -0.000772182 9.41262e-24)
(-0.0413444 -0.00114673 5.067e-19)
(-0.0406703 -0.0015013 -5.14859e-19)
(-0.039293 -0.00182419 0)
(-0.0371244 -0.00209235 0)
(-0.0340724 -0.00228133 0)
(-0.0300566 -0.00236308 0)
(-0.0249842 -0.00230843 0)
(-0.0188052 -0.00208381 -2.32584e-18)
(-0.0114501 -0.00165708 0)
(-0.00300757 -0.000989642 2.42341e-18)
(0.00629781 -5.18082e-05 2.47363e-18)
(0.0155116 0.00106571 0)
(0.0252338 0.00235855 0)
(0.035069 0.00384286 0)
(0.0457138 0.00555866 0)
(0.0560643 0.00747074 5.46734e-18)
(0.0678399 0.00967828 0)
(0.0781863 0.0120037 0)
(0.0916998 0.0148038 -5.53441e-18)
(0.100945 0.0174375 -5.42297e-18)
(0.118101 0.0211229 0)
(0.123782 0.0237259 -1.0009e-17)
(0.149651 0.029188 0)
(0.146047 0.0307251 -7.98221e-18)
(0.193176 0.0405278 -4.1284e-18)
(0.169187 0.0388369 1.68542e-18)
(0.262944 0.0576524 2.96847e-18)
(0.500824 -0.0113661 -1.73808e-19)
(0.0412807 0.0090609 -4.25408e-18)
(0.0141247 -0.00129315 0)
(-0.0188697 0.004834 4.61216e-18)
(-0.0175035 0.00374047 0)
(-0.0234469 0.00457161 0)
(-0.0218116 0.00403411 0)
(-0.0229994 0.00400814 -4.54607e-18)
(-0.0219386 0.00367244 0)
(-0.0221447 0.00351594 -4.4169e-18)
(-0.0216608 0.00330296 0)
(-0.021877 0.00317731 0)
(-0.0220164 0.00306623 -2.1098e-18)
(-0.0226474 0.00300664 0)
(-0.0234494 0.00297136 0)
(-0.0246391 0.00296231 0)
(-0.0260759 0.00296619 0)
(-0.0278337 0.00297603 0)
(-0.0298453 0.0029826 0)
(-0.0321251 0.0029771 1.9426e-18)
(-0.0346293 0.00295082 -1.92826e-18)
(-0.0373371 0.00289426 0)
(-0.040199 0.00279881 6.9105e-24)
(-0.0431662 0.00265598 -9.50618e-19)
(-0.0461735 0.00245927 0)
(-0.0491541 0.00220408 -9.48751e-19)
(-0.0520337 0.00188779 0)
(-0.054731 0.00150937 4.76534e-19)
(-0.0571547 0.00107038 -2.39422e-19)
(-0.0592057 0.000575187 0)
(-0.0607763 3.15481e-05 0)
(-0.0617525 -0.00054909 2.45513e-19)
(-0.0620148 -0.00115163 -4.63278e-24)
(-0.0614389 -0.00175487 0)
(-0.0599015 -0.00233526 1.0223e-18)
(-0.0572768 -0.00286497 0)
(-0.0534451 -0.00331066 1.0574e-18)
(-0.0482854 -0.00363633 0)
(-0.0416971 -0.00380048 0)
(-0.0335732 -0.00376077 0)
(-0.0238787 -0.00346743 2.2753e-18)
(-0.0125781 -0.00287193 0)
(0.000102519 -0.00191001 0)
(0.0137968 -0.000526953 -2.37852e-18)
(0.0276085 0.00116627 0)
(0.042328 0.0031326 0)
(0.0573772 0.00541133 2.58652e-18)
(0.073631 0.00803956 -2.64424e-18)
(0.0896101 0.0109961 -2.68764e-18)
(0.107563 0.0143674 0)
(0.123732 0.0179917 0)
(0.144159 0.0222238 0)
(0.15908 0.0264002 5.38042e-18)
(0.184536 0.0318549 5.32895e-18)
(0.195024 0.0362002 4.9885e-18)
(0.232382 0.0440039 0)
(0.230961 0.0473418 3.9898e-18)
(0.297429 0.0607212 8.26845e-18)
(0.269469 0.0603795 0)
(0.402158 0.0848378 -2.987e-18)
(0.605049 0.000253524 -1.44286e-19)
(0.0969964 0.0110042 4.12952e-18)
(0.0279036 -0.00122771 -4.32937e-18)
(-0.0183249 0.00584363 0)
(-0.0200982 0.00456409 0)
(-0.0290449 0.00577079 0)
(-0.0278665 0.00514193 0)
(-0.0298321 0.00516567 0)
(-0.0288115 0.00477002 0)
(-0.0292494 0.00459587 4.41969e-18)
(-0.0287819 0.00434737 4.35025e-18)
(-0.0291465 0.00420806 0)
(-0.0294143 0.00408997 0)
(-0.0302894 0.0040375 0)
(-0.0313911 0.00401732 2.05055e-18)
(-0.0329824 0.00402975 0)
(-0.0348937 0.00405782 1.99914e-18)
(-0.0372095 0.00409129 -1.9768e-18)
(-0.0398443 0.00411788 0)
(-0.0428077 0.0041253 -1.9392e-18)
(-0.0460389 0.00410154 0)
(-0.0495027 0.00403334 -9.55727e-19)
(-0.0531283 0.00390887 1.9015e-18)
(-0.0568448 0.00371664 9.47125e-19)
(-0.0605616 0.00344825 0)
(-0.0641865 0.00309819 4.72041e-19)
(-0.0676187 0.00266363 0)
(-0.0707497 0.00214383 4.73469e-19)
(-0.0734605 0.00154158 0)
(-0.075624 0.000863454 0)
(-0.0771053 0.000120493 0)
(-0.0777647 -0.000671455 2.42929e-19)
(-0.0774583 -0.00149169 -9.81879e-19)
(-0.076042 -0.00231323 0)
(-0.0733755 -0.00310544 -5.03128e-19)
(-0.0693211 -0.00383155 0)
(-0.0637534 -0.00444953 -1.03553e-18)
(-0.0565533 -0.0049145 0)
(-0.0476337 -0.00517522 0)
(-0.0369134 -0.00517982 0)
(-0.0244095 -0.0048668 2.189e-18)
(-0.0101534 -0.00417361 0)
(0.00551654 -0.00301657 2.21908e-18)
(0.0222855 -0.0013292 -2.2468e-18)
(0.0396588 0.000774543 0)
(0.0583808 0.00324537 -2.40384e-18)
(0.0777626 0.0061507 -4.95596e-18)
(0.0987288 0.00952498 2.54718e-18)
(0.119602 0.0133626 5.2009e-18)
(0.142842 0.0177234 -5.29375e-18)
(0.164267 0.0224858 -5.33271e-18)
(0.190555 0.0279361 0)
(0.210899 0.0335135 -5.28865e-18)
(0.243098 0.0404115 -5.25532e-18)
(0.258865 0.0464434 -4.91656e-18)
(0.304845 0.0559716 0)
(0.307816 0.0612942 0)
(0.387527 0.0768998 -4.10824e-18)
(0.361408 0.0787219 0)
(0.520751 0.105602 2.92087e-18)
(0.684215 0.0143669 -1.25456e-19)
(0.162881 0.0131473 -3.18916e-20)
(0.04787 -0.000608085 4.30346e-18)
(-0.0132749 0.0065388 4.60558e-18)
(-0.0200943 0.00513266 0)
(-0.0325173 0.00670571 -4.64417e-18)
(-0.0323859 0.00602143 0)
(-0.0353457 0.00612076 0)
(-0.0346117 0.00569196 0)
(-0.0353843 0.0055213 4.42065e-18)
(-0.0350437 0.00525658 -4.35116e-18)
(-0.0355981 0.00512041 0)
(-0.0360297 0.00501041 0)
(-0.0371447 0.00497863 0)
(-0.0385281 0.00498534 -2.04907e-18)
(-0.0404748 0.0050293 0)
(-0.0427953 0.00508973 -1.99615e-18)
(-0.0455772 0.00515318 1.97288e-18)
(-0.0487188 0.00520432 0)
(-0.0522201 0.00522749 0)
(-0.0560026 0.0052074 9.58245e-19)
(-0.0600136 0.00512729 9.51231e-19)
(-0.0641608 0.00497235 -1.89082e-18)
(-0.0683511 0.00472857 -9.40857e-19)
(-0.0724705 0.00438629 0)
(-0.0764043 0.00393983 4.67846e-19)
(-0.0800301 0.00338684 0)
(-0.0832192 0.00272748 -4.68001e-19)
(-0.0858337 0.00196628 2.34553e-19)
(-0.0877303 0.00111237 0)
(-0.0887612 0.000180193 0)
(-0.0887771 -0.000810239 -4.76741e-19)
(-0.0876293 -0.0018332 4.80509e-19)
(-0.0851748 -0.00285695 0)
(-0.0812772 -0.00384418 -4.89571e-19)
(-0.0758083 -0.00475253 0)
(-0.0686578 -0.00553364 1.00065e-18)
(-0.0597272 -0.00613653 0)
(-0.048957 -0.00650337 0)
(-0.0362986 -0.00657538 0)
(-0.02181 -0.00628225 -2.07833e-18)
(-0.00555795 -0.00554826 -2.08497e-18)
(0.0120948 -0.00427727 -2.08596e-18)
(0.0309921 -0.00240436 1.19637e-21)
(0.0510035 -4.09721e-05 -2.17796e-18)
(0.0727375 0.00276914 2.25857e-18)
(0.09548 0.00611949 4.6676e-18)
(0.120159 0.0100504 0)
(0.145052 0.0145735 -2.47012e-18)
(0.172641 0.0197287 5.05397e-18)
(0.198655 0.0254395 5.11472e-18)
(0.229864 0.0319048 0)
(0.255267 0.0387128 0)
(0.292997 0.0467975 0)
(0.314216 0.0543954 4.80022e-18)
(0.366702 0.0652097 0)
(0.375412 0.072545 0)
(0.463882 0.0894291 4.02367e-18)
(0.4434 0.0937791 -1.61704e-18)
(0.619702 0.120922 -2.89299e-18)
(0.745566 0.0291099 -1.12209e-19)
(0.233422 0.0160011 -3.95581e-18)
(0.0745753 0.000578845 0)
(-0.00364265 0.00707691 -4.59556e-18)
(-0.0173803 0.00552725 -4.61959e-18)
(-0.0338144 0.00742404 5.12932e-22)
(-0.0353118 0.00670609 0)
(-0.0395123 0.00689738 0)
(-0.0393079 0.00645571 0)
(-0.0405303 0.00630507 -4.42128e-18)
(-0.0404243 0.00604002 0)
(-0.0412139 0.00592051 0)
(-0.0418407 0.00583096 2.10837e-18)
(-0.0431894 0.00583042 0)
(-0.0448301 0.00587287 0)
(-0.0470788 0.00595517 0)
(-0.0497328 0.0060526 0)
(-0.0528765 0.00614856 -1.96648e-18)
(-0.0563929 0.00622461 0)
(-0.0602689 0.00626192 1.92309e-18)
(-0.0644078 0.00624214 -9.52284e-19)
(-0.0687387 0.00614537 -9.44058e-19)
(-0.0731492 0.00595437 1.87395e-18)
(-0.0775268 0.00565336 1.86204e-18)
(-0.0817396 0.00523229 0)
(-0.0856576 0.00468621 -4.61333e-19)
(-0.0891461 0.00401402 0)
(-0.0920671 0.00321741 0)
(-0.094277 0.00230311 -4.59619e-19)
(-0.0956305 0.00128296 0)
(-0.0959823 0.000174627 0)
(-0.0951893 -0.000998228 4.63426e-19)
(-0.0931137 -0.00220606 0)
(-0.0896251 -0.00341321 0)
(-0.0846 -0.00457824 4.7139e-19)
(-0.0779261 -0.00565494 0)
(-0.0695102 -0.00659078 -9.56925e-19)
(-0.0592712 -0.00733063 0)
(-0.0471676 -0.0078121 0)
(-0.0331673 -0.00797059 0)
(-0.0173417 -0.00772814 0)
(0.000240679 -0.00699625 1.96177e-18)
(0.01925 -0.00567242 1.95724e-18)
(0.0396808 -0.00370243 1.23401e-21)
(0.0616144 -0.00119353 2.03731e-18)
(0.0855272 0.00182638 2.10673e-18)
(0.110729 0.00546723 -2.17928e-18)
(0.138132 0.00977919 0)
(0.166076 0.0147895 -2.31006e-18)
(0.196985 0.0205304 2.36984e-18)
(0.226717 0.0269681 -4.81287e-18)
(0.261855 0.0342283 0)
(0.291708 0.0420493 0)
(0.333936 0.0510888 -4.8672e-18)
(0.360434 0.0600672 -4.59607e-18)
(0.417959 0.071857 4.5768e-18)
(0.433004 0.081106 3.74269e-18)
(0.527304 0.09866 -3.92761e-18)
(0.514505 0.105591 1.5853e-18)
(0.700815 0.13167 0)
(0.793858 0.0436839 -1.01239e-19)
(0.304747 0.0197905 0)
(0.10794 0.00233665 4.23082e-18)
(0.0106931 0.00761884 4.57925e-18)
(-0.0118541 0.00582603 -6.12525e-23)
(-0.0328777 0.00797313 4.64351e-18)
(-0.0365844 0.00722949 0)
(-0.0423011 0.00751988 0)
(-0.0428685 0.00707884 0)
(-0.0446687 0.00696039 2.21027e-18)
(-0.0449037 0.00670705 2.1747e-18)
(-0.0459774 0.00661446 0)
(-0.0468278 0.00655461 -2.10658e-18)
(-0.0484019 0.0065928 2.07391e-18)
(-0.0502697 0.00667666 0)
(-0.0527604 0.00680078 0)
(-0.0556629 0.00693635 0)
(-0.0590543 0.00706359 5.47271e-23)
(-0.0628034 0.0071611 0)
(-0.0668825 0.00720721 -3.81741e-18)
(-0.0711786 0.00718093 9.43588e-19)
(-0.0756049 0.00705995 9.33821e-19)
(-0.0800342 0.00682539 -3.01181e-23)
(-0.0843419 0.00646066 -9.17218e-19)
(-0.088387 0.00595625 0)
(-0.0920348 0.0053088 0)
(-0.095149 0.00451903 0)
(-0.0975937 0.00359048 2.24209e-19)
(-0.0992305 0.00253208 4.47297e-19)
(-0.0999226 0.00135808 0)
(-0.0995351 8.87451e-05 0)
(-0.0979375 -0.00124962 -4.47156e-19)
(-0.0950062 -0.00262482 -2.23934e-19)
(-0.0906209 -0.00399886 0)
(-0.0846698 -0.00532773 0)
(-0.0770514 -0.00656245 0)
(-0.0676826 -0.00764759 0)
(-0.0564907 -0.00852479 0)
(-0.0434408 -0.00912785 0)
(-0.0285048 -0.00938656 0)
(-0.0117521 -0.00921584 0)
(0.00676207 -0.00851543 0)
(0.0267622 -0.00718132 -9.87183e-22)
(0.0483497 -0.00517563 1.86086e-18)
(0.0716962 -0.00260134 0)
(0.0971758 0.000536463 -3.9414e-18)
(0.124139 0.00435453 -2.03071e-18)
(0.153468 0.0089129 0)
(0.183608 0.0142479 2.15192e-18)
(0.21689 0.0203932 -2.20822e-18)
(0.249414 0.0273463 4.49045e-18)
(0.287464 0.0351853 -4.56338e-18)
(0.320918 0.0437725 0)
(0.366611 0.0535366 9.04713e-21)
(0.397804 0.0636398 4.3477e-18)
(0.459212 0.0761572 -8.69292e-18)
(0.480508 0.0870951 -1.31906e-20)
(0.578787 0.104949 -3.74577e-18)
(0.574404 0.114282 1.50269e-18)
(0.766047 0.138591 2.68965e-18)
(0.832278 0.0576537 3.11936e-18)
(0.374275 0.0245417 0)
(0.147322 0.00468314 2.61611e-21)
(0.0298686 0.00828702 -2.75862e-22)
(-0.00341911 0.00613198 4.60646e-18)
(-0.0296363 0.0084013 4.63983e-18)
(-0.0361394 0.00762649 0)
(-0.0436748 0.00801365 4.55148e-18)
(-0.0452598 0.0075797 0)
(-0.0477782 0.00750124 -2.20973e-18)
(-0.0484615 0.00726748 -9.44869e-23)
(-0.0498726 0.00720876 -2.13898e-18)
(-0.050973 0.00718453 0)
(-0.052763 0.00726578 -4.13978e-18)
(-0.0548229 0.00739354 0)
(-0.0574915 0.00755974 0)
(-0.0605528 0.00773141 0)
(-0.0640755 0.00788568 1.94422e-18)
(-0.067917 0.00799855 0)
(-0.0720366 0.00804609 1.88943e-18)
(-0.0763103 0.00800538 -1.86434e-18)
(-0.080641 0.0078526 0)
(-0.0848951 0.00756815 -3.2266e-23)
(-0.0889444 0.00713553 0)
(-0.0926483 0.00654647 0)
(-0.0958756 0.00579959 -4.41684e-19)
(-0.0984961 0.00489753 0)
(-0.100382 0.00384551 -4.35599e-19)
(-0.101405 0.00265418 -2.16709e-19)
(-0.101437 0.00133956 -5.39688e-20)
(-0.100356 -7.62898e-05 5.38368e-20)
(-0.098042 -0.00156537 2.14995e-19)
(-0.0943795 -0.0030939 4.29669e-19)
(-0.0892551 -0.0046225 0)
(-0.082564 -0.00610523 4.30598e-19)
(-0.0742109 -0.00749092 0)
(-0.0641169 -0.00872175 0)
(-0.0522125 -0.00973638 0)
(-0.0384643 -0.0104651 8.72741e-19)
(-0.0228422 -0.0108322 0)
(-0.00540873 -0.010746 0)
(0.0137999 -0.0100966 1.75368e-18)
(0.0345655 -0.00878186 -1.7524e-18)
(0.0570558 -0.00678226 0)
(0.0814595 -0.00419656 0)
(0.108078 -0.0010037 1.85397e-18)
(0.136309 0.00291343 1.90446e-18)
(0.166989 0.00762382 -1.95488e-18)
(0.198684 0.013166 0)
(0.233608 0.0195807 0)
(0.26814 0.0268809 0)
(0.308229 0.0351213 7.3524e-21)
(0.344404 0.0442483 0)
(0.392592 0.0545304 4.26346e-18)
(0.427626 0.0654746 0)
(0.491873 0.0785075 4.07199e-18)
(0.518776 0.0908087 -3.36163e-18)
(0.619743 0.108737 7.08192e-18)
(0.623537 0.120108 -1.43249e-18)
(0.817444 0.142386 -2.57027e-18)
(0.863048 0.0707569 8.43639e-20)
(0.440367 0.0301541 -3.63804e-18)
(0.191686 0.007641 -4.12565e-18)
(0.0538975 0.00919308 -1.83213e-22)
(0.00809938 0.00653585 -4.59412e-18)
(-0.0240077 0.00875881 -4.63486e-18)
(-0.0339066 0.00793334 0)
(-0.0435885 0.00840464 -4.54972e-18)
(-0.0464436 0.00797725 0)
(-0.049834 0.00794202 -2.20854e-18)
(-0.0510758 0.00773153 -2.17213e-18)
(-0.0528826 0.00771026 2.1366e-18)
(-0.0542595 0.00772422 -2.1e-18)
(-0.0562565 0.00784982 2.06444e-18)
(-0.0584728 0.00802101 -2.02888e-18)
(-0.061256 0.00822692 1.99432e-18)
(-0.06439 0.00843036 0)
(-0.067937 0.0086058 0)
(-0.0717476 0.00872711 0)
(-0.0757737 0.00876892 9.32851e-19)
(-0.0798864 0.0087072 9.18463e-19)
(-0.0839856 0.00851745 0)
(-0.0879385 0.00818003 -8.92206e-19)
(-0.09162 0.00767907 0)
(-0.0948957 0.00700774 0)
(-0.0976415 0.00616659 4.30159e-19)
(-0.099736 0.00515984 -4.25928e-19)
(-0.10106 0.00399394 2.11173e-19)
(-0.101493 0.00268068 0)
(-0.100918 0.00123727 1.04228e-19)
(-0.0992194 -0.000313079 -1.03771e-19)
(-0.0962846 -0.00194133 0)
(-0.0920024 -0.00361282 -2.0629e-19)
(-0.086264 -0.00528698 4.12114e-19)
(-0.0789689 -0.00691624 -4.12345e-19)
(-0.0700249 -0.00844751 0)
(-0.0593555 -0.00982077 0)
(-0.0468917 -0.0109718 0)
(-0.0325997 -0.0118276 -8.33104e-19)
(-0.0164463 -0.0123072 0)
(0.00151517 -0.0123134 0)
(0.0212687 -0.0117286 -1.6743e-18)
(0.0426486 -0.0104547 0)
(0.0658589 -0.00848977 1.68374e-18)
(0.0910669 -0.00592801 -1.71514e-18)
(0.118525 -0.00272227 0)
(0.147676 0.00124114 1.79453e-18)
(0.17931 0.00603935 3.6757e-18)
(0.212104 0.0117078 -1.87466e-18)
(0.248156 0.0182977 0)
(0.284109 0.0258234 0)
(0.325583 0.0343353 1.97437e-18)
(0.363745 0.0438234 0)
(0.413637 0.0544615 3.94227e-18)
(0.451639 0.0659896 0)
(0.517829 0.0793667 3.7658e-18)
(0.549398 0.0926746 3.11064e-18)
(0.652049 0.11054 -3.30701e-18)
(0.663135 0.123477 0)
(0.857298 0.143744 2.38696e-18)
(0.887776 0.0828587 -3.37038e-18)
(0.50205 0.0364598 2.00248e-20)
(0.23979 0.0112213 4.07131e-18)
(0.0826745 0.0104472 -1.62727e-22)
(0.0228852 0.00710441 -6.62156e-22)
(-0.0158948 0.0090981 0)
(-0.0298103 0.00818774 0)
(-0.0419883 0.00871929 0)
(-0.0463765 0.00829101 -2.23986e-18)
(-0.0508065 0.00829749 4.41405e-18)
(-0.0527228 0.00810979 0)
(-0.0549905 0.00812623 2.13326e-18)
(-0.0566732 0.00817778 6.46406e-23)
(-0.0588722 0.00834629 -2.05736e-18)
(-0.0612132 0.00855809 5.93505e-23)
(-0.0640554 0.0087996 -1.98173e-18)
(-0.0671888 0.00902951 0)
(-0.0706734 0.00922018 0)
(-0.0743596 0.00934396 0)
(-0.0781971 0.00937477 -9.19538e-19)
(-0.0820582 0.00928809 0)
(-0.0858454 0.0090593 8.88002e-19)
(-0.0894309 0.00866905 8.73665e-19)
(-0.0926962 0.00810217 -8.60393e-19)
(-0.0955146 0.00735316 0)
(-0.0977699 0.00642418 0)
(-0.0993483 0.00532064 4.13839e-19)
(-0.100138 0.00404973 0)
(-0.100026 0.002624 2.03011e-19)
(-0.0989006 0.00106143 -5.0394e-20)
(-0.0966526 -0.000614005 5.00942e-20)
(-0.0931736 -0.00237265 -1.99321e-19)
(-0.0883546 -0.0041792 0)
(-0.0820905 -0.00599194 -3.96566e-19)
(-0.0742839 -0.00776183 0)
(-0.0648444 -0.00943396 0)
(-0.0536969 -0.0109463 7.94606e-19)
(-0.0407727 -0.0122318 0)
(-0.0260368 -0.0132144 0)
(-0.00945249 -0.0138083 0)
(0.00893641 -0.0139118 0)
(0.0291336 -0.0134015 0)
(0.0510176 -0.0121847 0)
(0.0748092 -0.0102741 -3.23534e-18)
(0.100636 -0.00775902 1.64294e-18)
(0.128718 -0.00456851 1.67279e-18)
(0.158542 -0.000594329 -3.41115e-18)
(0.190852 0.00424828 -1.74015e-18)
(0.224425 0.00998799 1.7697e-18)
(0.261247 0.0166884 -1.79759e-18)
(0.298199 0.0243549 0)
(0.3406 0.0330474 3.38435e-21)
(0.380189 0.0427656 -3.64241e-18)
(0.431206 0.0536426 -3.66828e-18)
(0.471434 0.0655493 -3.47294e-18)
(0.538874 0.0791445 -6.98066e-18)
(0.57415 0.0931348 -2.89006e-18)
(0.677714 0.110856 3.04305e-18)
(0.69492 0.124874 1.20877e-18)
(0.888049 0.143309 -2.22487e-18)
(0.907675 0.093916 -7.31302e-20)
(0.558812 0.0432664 3.49853e-18)
(0.290338 0.0154113 2.24731e-21)
(0.115935 0.012132 -2.02828e-22)
(0.0411186 0.00790611 4.55335e-18)
(-0.00518938 0.00947231 4.61439e-18)
(-0.0237691 0.00842889 -4.58292e-18)
(-0.038811 0.00898453 2.27107e-18)
(-0.045009 0.00854121 4.44198e-23)
(-0.0506609 0.00858295 -2.20499e-18)
(-0.0533761 0.00841347 -2.16714e-18)
(-0.056179 0.00846465 -2.12927e-18)
(-0.0582035 0.00855031 4.17845e-18)
(-0.0606076 0.00875809 5.54766e-23)
(-0.0630511 0.00900609 2.008e-18)
(-0.0659113 0.00927835 0)
(-0.0689902 0.00952956 1.92657e-18)
(-0.0723522 0.00973056 0)
(-0.0758525 0.00985257 -1.84821e-18)
(-0.0794437 0.00986937 -9.0552e-19)
(-0.0830033 0.00975621 -8.8779e-19)
(-0.0864392 0.00948864 -3.18804e-23)
(-0.0896306 0.00904759 -8.55429e-19)
(-0.0924665 0.00841852 8.40957e-19)
(-0.0948274 0.00759697 0)
(-0.0966046 0.00658641 -4.07884e-19)
(-0.0976904 0.00539309 0)
(-0.097979 0.00402467 0)
(-0.0973625 0.00249417 -1.97051e-19)
(-0.0957344 0.000820133 0)
(-0.0929896 -0.000972968 0)
(-0.0890218 -0.00285512 1.92872e-19)
(-0.0837245 -0.00479036 0)
(-0.0769955 -0.00673587 0)
(-0.0687399 -0.00864123 3.8265e-19)
(-0.058869 -0.0104498 0)
(-0.0473089 -0.0120976 -7.6696e-19)
(-0.0339908 -0.0135151 0)
(-0.0188787 -0.0146233 7.71108e-19)
(-0.00193258 -0.0153321 0)
(0.0168134 -0.0155359 0)
(0.0373803 -0.0151077 0)
(0.0596833 -0.0139601 0)
(0.0839467 -0.0121174 1.56249e-18)
(0.110253 -0.00966346 0)
(0.1388 -0.00650691 -3.21218e-18)
(0.169114 -0.00254597 1.63199e-18)
(0.201899 0.00231139 -1.65664e-18)
(0.236021 0.00808457 1.67844e-18)
(0.27336 0.014851 1.7031e-18)
(0.31101 0.0225993 0)
(0.354016 0.0314091 1.72739e-18)
(0.394623 0.0412642 5.12103e-18)
(0.446356 0.0522978 -3.41333e-18)
(0.488236 0.0644292 3.23892e-18)
(0.556425 0.0781549 3.24173e-18)
(0.594579 0.0925635 0)
(0.698503 0.110102 -2.8233e-18)
(0.720661 0.124769 -2.22747e-18)
(0.911972 0.141619 0)
(0.92368 0.103942 3.59759e-18)
(0.610454 0.0503829 0)
(0.342093 0.0201703 2.03078e-21)
(0.153249 0.0143041 -2.83227e-22)
(0.0629442 0.0090021 -4.52681e-18)
(0.00823049 0.00994032 -9.19937e-18)
(-0.0156964 0.00869765 9.15275e-18)
(-0.0339838 0.00922781 -2.26844e-18)
(-0.042285 0.00874897 2.23577e-18)
(-0.0493565 0.00881437 0)
(-0.0530066 0.00865459 4.38629e-23)
(-0.0564309 0.00873455 0)
(-0.0588435 0.00884833 -4.16483e-18)
(-0.0614677 0.00909004 2.03956e-18)
(-0.0640059 0.00936887 0)
(-0.0668606 0.00966701 0)
(-0.0698531 0.00993502 -1.90777e-18)
(-0.0730573 0.0101427 0)
(-0.0763379 0.0102604 1.82333e-18)
(-0.0796537 0.0102618 8.91713e-19)
(-0.0828894 0.0101221 2.86714e-23)
(-0.0859597 0.00981715 -8.5488e-19)
(-0.0887514 0.00932799 -8.38193e-19)
(-0.0911607 0.00864058 0)
(-0.0930753 0.00775127 0)
(-0.0943922 0.00666457 3.98153e-19)
(-0.0950095 0.00538735 0)
(-0.0948257 0.00392757 1.93843e-19)
(-0.0937377 0.00229857 -1.91774e-19)
(-0.0916428 0.000519318 4.75161e-20)
(-0.0884393 -0.00138544 -4.71255e-20)
(-0.0840218 -0.00338542 1.87265e-19)
(-0.0782871 -0.00544395 -1.86377e-19)
(-0.0711354 -0.00751713 3.71629e-19)
(-0.0624743 -0.00955326 -3.71191e-19)
(-0.0522167 -0.0114941 0)
(-0.0402895 -0.0132739 0)
(-0.0266245 -0.0148205 0)
(-0.0111845 -0.0160524 -2.17889e-22)
(0.00607315 -0.0168756 7.4977e-19)
(0.0251242 -0.0171818 0)
(0.0460038 -0.0168413 0)
(0.0686569 -0.015772 0)
(0.0933028 -0.0140062 0)
(0.119979 -0.0116224 0)
(0.148869 -0.00851224 1.10383e-21)
(0.179537 -0.00458091 0)
(0.212648 0.000270688 3.17984e-18)
(0.247146 0.00605105 -3.21128e-18)
(0.284819 0.0128523 -1.62041e-18)
(0.322947 0.0206409 0)
(0.366328 0.0295235 0)
(0.407652 0.0394489 -3.21578e-18)
(0.459813 0.0505812 7.79901e-21)
(0.502912 0.0628249 -3.01904e-18)
(0.571502 0.0766213 3.00944e-18)
(0.611874 0.0912448 2.46581e-18)
(0.715779 0.108589 -2.59672e-18)
(0.741877 0.123554 2.03601e-18)
(0.93093 0.139082 1.86922e-18)
(0.936534 0.112982 6.54443e-20)
(0.656989 0.0576353 -3.35689e-18)
(0.393945 0.0254317 -7.79623e-18)
(0.194038 0.0169957 -3.94112e-22)
(0.0884288 0.0104462 4.49432e-18)
(0.0245034 0.0105598 4.57972e-18)
(-0.00550043 0.0090384 -2.28281e-18)
(-0.0274232 0.00947715 0)
(-0.0381411 0.00893643 0)
(-0.0468464 0.00900855 2.19952e-18)
(-0.0515817 0.00884618 2.16023e-18)
(-0.0557279 0.00894612 0)
(-0.0585884 0.00907985 2.07515e-18)
(-0.0614629 0.00934883 0)
(-0.0641038 0.00965257 0)
(-0.066948 0.00997184 0)
(-0.0698414 0.0102528 0)
(-0.072873 0.0104646 1.84344e-18)
(-0.0759201 0.0105762 8.9968e-19)
(-0.0789499 0.0105617 -8.78613e-19)
(-0.0818555 0.0103961 2.77431e-23)
(-0.084559 0.0100554 0)
(-0.0869551 0.00952072 8.22563e-19)
(-0.088947 0.00877842 0)
(-0.0904286 0.00782544 0)
(-0.0913027 0.00666718 3.89482e-19)
(-0.0914719 0.00531094 -3.83717e-19)
(-0.0908389 0.00376487 -1.89369e-19)
(-0.0893044 0.00204254 1.87239e-19)
(-0.0867692 0.000163263 -9.27206e-20)
(-0.083134 -0.00184812 9.18965e-20)
(-0.0782951 -0.00396106 -1.82526e-19)
(-0.0721521 -0.00613812 1.81599e-19)
(-0.064608 -0.00833436 -6.70901e-23)
(-0.0555726 -0.0104969 -3.61357e-19)
(-0.0449603 -0.0125659 0)
(-0.0326994 -0.0144741 0)
(-0.018722 -0.0161467 0)
(-0.00299033 -0.0175002 -1.45567e-18)
(0.014541 -0.0184368 -7.29927e-19)
(0.0338567 -0.0188462 0)
(0.0550028 -0.0185974 0)
(0.0779482 -0.0176132 -1.46922e-18)
(0.102902 -0.0159301 0)
(0.129863 -0.0136217 0)
(0.159 -0.0105661 3.00753e-18)
(0.189914 -0.00667554 -1.51818e-18)
(0.223235 -0.0018441 -3.06793e-18)
(0.257979 0.00392485 1.69125e-21)
(0.295849 0.0107386 3.10971e-18)
(0.334287 0.0185378 1.552e-18)
(0.377875 0.0274611 0)
(0.419692 0.0374088 1.52706e-18)
(0.472076 0.0485984 3.03547e-18)
(0.516066 0.060872 2.84957e-18)
(0.584814 0.074698 -2.83019e-18)
(0.626894 0.0893838 -2.31025e-18)
(0.730527 0.106535 2.42463e-18)
(0.759748 0.12153 -9.39987e-19)
(0.946321 0.135985 -1.73497e-18)
(0.946832 0.121099 6.24657e-20)
(0.698574 0.0648736 3.31762e-18)
(0.444942 0.0311087 -1.57102e-21)
(0.237614 0.0202152 -5.30714e-22)
(0.117534 0.0122832 0)
(0.0437473 0.0113898 0)
(0.00694039 0.0094939 1.72177e-22)
(-0.0190344 0.00976168 0)
(-0.0325051 0.00912691 0)
(-0.0430755 0.00918317 -7.25969e-24)
(-0.0490629 0.00900231 0)
(-0.0540481 0.00911075 0)
(-0.0574323 0.00925427 2.06785e-18)
(-0.0606033 0.00954268 0)
(-0.0633712 0.00986483 0)
(-0.0662157 0.0102005 0)
(-0.0690135 0.0104909 0)
(-0.0718725 0.0107044 -3.62857e-23)
(-0.0746855 0.0108087 -8.88665e-19)
(-0.0774299 0.0107781 1.73337e-18)
(-0.0800081 0.0105871 2.6184e-23)
(-0.0823503 0.0102121 8.26536e-19)
(-0.0843589 0.00963415 0)
(-0.0859439 0.00883984 7.92116e-19)
(-0.0870056 0.00782661 0)
(-0.0874519 0.00660056 -3.81959e-19)
(-0.0871896 0.00516936 3.09661e-23)
(-0.0861254 0.00354125 0)
(-0.0841633 0.00172997 0)
(-0.0812075 -0.000244926 5.44424e-24)
(-0.0771604 -0.00235861 -6.00679e-24)
(-0.0719208 -0.0045802 8.92152e-20)
(-0.065391 -0.00687147 0)
(-0.0574767 -0.0091865 -3.53775e-19)
(-0.0480899 -0.0114713 3.53166e-19)
(-0.037147 -0.0136646 0)
(-0.0245775 -0.0156974 -7.07091e-19)
(-0.0103143 -0.017493 0)
(0.00568107 -0.0189653 1.77803e-22)
(0.0234562 -0.020014 0)
(0.0430035 -0.0205269 7.14582e-19)
(0.0643775 -0.0203724 7.16439e-19)
(0.087566 -0.0194776 5.49109e-22)
(0.112765 -0.017881 -1.44267e-18)
(0.139938 -0.0156506 0)
(0.169247 -0.0126547 -9.25009e-22)
(0.200321 -0.0088125 1.47694e-18)
(0.233762 -0.00401138 1.31785e-21)
(0.268648 0.00173281 1.49468e-18)
(0.306607 0.00854269 -1.83529e-21)
(0.345226 0.0163307 -2.1496e-21)
(0.388894 0.0252709 0)
(0.431031 0.0352055 0)
(0.483485 0.0464221 0)
(0.52812 0.0586647 0)
(0.596851 0.0724917 0)
(0.640246 0.0871254 2.15586e-18)
(0.743441 0.104093 0)
(0.77514 0.118915 0)
(0.959149 0.132523 -1.59715e-18)
(0.95506 0.128368 -1.93079e-18)
(0.735458 0.0719745 0)
(0.494305 0.0371015 -1.37863e-21)
(0.283222 0.0239474 -6.87335e-22)
(0.1501 0.0145467 0)
(0.0660489 0.0124877 2.26448e-18)
(0.0217633 0.0101059 -2.26803e-18)
(-0.00871129 0.0101116 0)
(-0.0252959 0.00934498 0)
(-0.0379786 0.00935678 -2.19335e-18)
(-0.0454036 0.00913806 0)
(-0.0513626 0.00924083 0)
(-0.0553635 0.00938206 -2.06108e-18)
(-0.0588937 0.00968078 0)
(-0.061828 0.0100141 -1.95879e-18)
(-0.0646978 0.010361 0)
(-0.0674152 0.0106573 0)
(-0.0701124 0.0108702 -2.87601e-23)
(-0.0726995 0.0109658 0)
(-0.0751661 0.0109185 -8.56066e-19)
(-0.0774247 0.0107026 8.3469e-19)
(-0.0794141 0.0102943 -1.62952e-18)
(-0.0810448 0.00967486 7.96345e-19)
(-0.0822338 0.00883088 -7.79571e-19)
(-0.0828874 0.0077602 0)
(-0.0829187 0.00646953 -3.75393e-19)
(-0.0822385 0.00496677 7.38882e-19)
(-0.0807571 0.00326022 0)
(-0.0783821 0.00136376 -8.99709e-20)
(-0.0750206 -0.00070295 4.45001e-20)
(-0.0705766 -0.00291511 -4.40761e-20)
(-0.0649517 -0.00524144 -8.74919e-20)
(-0.0580514 -0.00764294 0)
(-0.0497839 -0.0100728 -3.46726e-19)
(-0.0400635 -0.0124759 3.46098e-19)
(-0.0288086 -0.0147896 0)
(-0.0159502 -0.0169435 6.93216e-19)
(-0.00142209 -0.0188585 0)
(0.0148145 -0.020447 6.96611e-19)
(0.032809 -0.0216058 0)
(0.0525602 -0.0222217 -7.00592e-19)
(0.0741291 -0.0221632 -7.02698e-19)
(0.0975177 -0.0213607 5.09972e-22)
(0.122908 -0.0198522 1.41524e-18)
(0.150235 -0.0177009 0)
(0.179651 -0.0147677 -1.43305e-18)
(0.210815 -0.0109787 0)
(0.244302 -0.00621505 1.44962e-18)
(0.279246 -0.000505272 0)
(0.317209 0.00628859 -1.45469e-18)
(0.355905 0.0140492 -2.88774e-18)
(0.399553 0.0229883 0)
(0.441875 0.0328833 0)
(0.494283 0.0441036 0)
(0.539369 0.0562696 1.28282e-18)
(0.607956 0.0700765 0)
(0.652364 0.0845722 -9.92074e-21)
(0.755007 0.101368 0)
(0.788683 0.115869 7.89229e-19)
(0.970116 0.128824 1.49844e-18)
(0.961618 0.134863 0)
(0.76795 0.0788412 3.22903e-18)
(0.541422 0.0433053 3.7475e-18)
(0.33008 0.0281553 -8.55388e-22)
(0.185844 0.0172575 0)
(0.0914515 0.013905 -2.24914e-18)
(0.0391054 0.0109164 0)
(0.00366059 0.0105596 2.25126e-18)
(-0.0164233 0.00961664 2.22406e-18)
(-0.0314792 0.00954874 2.19035e-18)
(-0.0405467 0.00926949 2.14941e-18)
(-0.0476324 0.00934963 2.10479e-18)
(-0.0523606 0.00947447 0)
(-0.056329 0.0097729 0)
(-0.0594833 0.0101091 1.94876e-18)
(-0.0624152 0.0104615 0)
(-0.065078 0.0107594 0)
(-0.0676319 0.0109691 -1.78969e-18)
(-0.0700077 0.0110544 0)
(-0.0722086 0.0109897 -8.46787e-19)
(-0.0741587 0.0107487 0)
(-0.0758059 0.0103078 8.04534e-19)
(-0.0770692 0.0096481 -7.85783e-19)
(-0.0778728 0.00875631 0)
(-0.0781293 0.00763047 0)
(-0.0777567 0.00627782 2.41499e-23)
(-0.07667 0.00470638 -3.63771e-19)
(-0.0747831 0.00292449 0)
(-0.0720068 0.000946138 8.85447e-20)
(-0.0682512 -0.00120904 4.37583e-20)
(-0.063422 -0.00351624 -4.33317e-20)
(-0.0574243 -0.00594372 0)