/*--------------------------------*- C++ -*----------------------------------*\
| =========                 |                                                 |
| \\      /  F ield         | OpenFOAM: The Open Source CFD Toolbox           |
|  \\    /   O peration     | Version:  2.4.0                                 |
|   \\  /    A nd           | Web:      www.OpenFOAM.org                      |
|    \\/     M anipulation  |                                                 |
\*---------------------------------------------------------------------------*/
FoamFile
{
    version     2.0;
    format      ascii;
    class       volVectorField;
    location    "310";
    object      U;
}
// * * * * * * * * * * * * * * * * * * * * * * * * * * * * * * * * * * * * * //

dimensions      [0 1 -1 0 0 0 0];

internalField   nonuniform List<vector> 
10000
(
(0.99997 3.67062e-06 0)
(0.999846 7.19628e-06 0)
(0.999646 1.10906e-05 0)
(0.999396 1.51751e-05 0)
(0.999101 1.98038e-05 0)
(0.998766 2.50738e-05 0)
(0.998393 3.11959e-05 0)
(0.997985 3.84025e-05 0)
(0.997542 4.69992e-05 0)
(0.997062 5.73945e-05 0)
(0.996543 7.0153e-05 0)
(0.995981 8.60804e-05 0)
(0.995369 0.000106356 0)
(0.994698 0.000132768 0)
(0.993951 0.000168034 0)
(0.993111 0.000216668 0)
(0.992139 0.000286718 0)
(0.990963 0.000407918 0)
(0.989376 0.000821733 0)
(0.988056 0.00503985 0)
(0.99997 1.10559e-05 0)
(0.999847 2.17486e-05 0)
(0.999647 3.34666e-05 0)
(0.999399 4.58201e-05 0)
(0.999104 5.97836e-05 0)
(0.99877 7.56891e-05 0)
(0.9984 9.41595e-05 0)
(0.997994 0.000115896 0)
(0.997553 0.000141815 0)
(0.997076 0.000173137 0)
(0.996561 0.000211543 0)
(0.996004 0.000259419 0)
(0.995399 0.00032024 0)
(0.994737 0.000399261 0)
(0.994005 0.000504572 0)
(0.993185 0.000650083 0)
(0.99224 0.000862194 0)
(0.9911 0.00121968 0)
(0.989542 0.0020139 0)
(0.988526 0.00408421 0)
(0.99997 1.85739e-05 0)
(0.999847 3.66621e-05 0)
(0.999648 5.631e-05 0)
(0.999401 7.7139e-05 0)
(0.999108 0.000100614 0)
(0.998776 0.000127361 0)
(0.998408 0.000158401 0)
(0.998005 0.000194903 0)
(0.997567 0.000238381 0)
(0.997095 0.000290841 0)
(0.996586 0.000355016 0)
(0.996038 0.000434741 0)
(0.995444 0.00053552 0)
(0.9948 0.000665521 0)
(0.994096 0.000837234 0)
(0.993322 0.00107185 0)
(0.99246 0.00140913 0)
(0.991501 0.00194979 0)
(0.990444 0.00293224 0)
(0.989919 0.00482324 0)
(0.99997 2.62857e-05 0)
(0.999848 5.19515e-05 0)
(0.99965 7.96954e-05 0)
(0.999404 0.000109184 0)
(0.999113 0.00014236 0)
(0.998783 0.000180153 0)
(0.998417 0.000223972 0)
(0.998018 0.000275447 0)
(0.997585 0.000336663 0)
(0.997119 0.000410354 0)
(0.996619 0.000500193 0)
(0.996082 0.000611238 0)
(0.995506 0.000750568 0)
(0.994888 0.000928332 0)
(0.994223 0.00115935 0)
(0.993512 0.00146685 0)
(0.992756 0.00188903 0)
(0.991982 0.00250048 0)
(0.991258 0.0034197 0)
(0.990924 0.00477973 0)
(0.99997 3.4181e-05 0)
(0.999849 6.76022e-05 0)
(0.999651 0.000103606 0)
(0.999407 0.000141926 0)
(0.999118 0.000184974 0)
(0.998791 0.00023398 0)
(0.998428 0.000290735 0)
(0.998033 0.000357301 0)
(0.997607 0.000436287 0)
(0.997149 0.000531062 0)
(0.99666 0.000646068 0)
(0.996138 0.000787258 0)
(0.995584 0.000962677 0)
(0.994998 0.00118329 0)
(0.994381 0.00146402 0)
(0.993742 0.00182581 0)
(0.993097 0.00229775 0)
(0.992484 0.00292334 0)
(0.991979 0.00374637 0)
(0.991754 0.00478406 0)
(0.99997 4.22556e-05 0)
(0.999849 8.36106e-05 0)
(0.999653 0.000128032 0)
(0.99941 0.000175344 0)
(0.999124 0.000228414 0)
(0.998799 0.000288772 0)
(0.998441 0.000358565 0)
(0.998052 0.000440254 0)
(0.997632 0.0005369 0)
(0.997184 0.000652388 0)
(0.996708 0.000791707 0)
(0.996205 0.000961319 0)
(0.995677 0.00116956 0)
(0.995128 0.00142706 0)
(0.994565 0.00174698 0)
(0.994 0.00214529 0)
(0.993458 0.00263969 0)
(0.992977 0.0032486 0)
(0.992616 0.00397684 0)
(0.992458 0.00480287 0)
(0.999971 5.05069e-05 0)
(0.99985 9.99731e-05 0)
(0.999655 0.000152961 0)
(0.999414 0.000209418 0)
(0.99913 0.000272641 0)
(0.99881 0.000344453 0)
(0.998456 0.00042733 0)
(0.998073 0.000524082 0)
(0.997662 0.000638139 0)
(0.997225 0.000773749 0)
(0.996764 0.0009362 0)
(0.996282 0.00113205 0)
(0.995784 0.00136926 0)
(0.995275 0.00165718 0)
(0.994767 0.00200596 0)
(0.994276 0.0024256 0)
(0.993825 0.0029234 0)
(0.99345 0.00350106 0)
(0.993187 0.00414599 0)
(0.993075 0.00482919 0)
(0.999971 5.89326e-05 0)
(0.999851 0.000116684 0)
(0.999658 0.00017838 0)
(0.999419 0.00024412 0)
(0.999138 0.000317603 0)
(0.998821 0.000400936 0)
(0.998473 0.000496884 0)
(0.998097 0.000608546 0)
(0.997695 0.00073962 0)
(0.997271 0.000894551 0)
(0.996828 0.00107866 0)
(0.99637 0.0012982 0)
(0.995903 0.00156021 0)
(0.995436 0.00187204 0)
(0.994982 0.00224025 0)
(0.994559 0.00266905 0)
(0.994188 0.00315763 0)
(0.993895 0.0036979 0)
(0.993701 0.00427117 0)
(0.993621 0.00485155 0)
(0.999971 6.75287e-05 0)
(0.999852 0.000133733 0)
(0.99966 0.000204272 0)
(0.999424 0.000279417 0)
(0.999146 0.000363244 0)
(0.998834 0.000458121 0)
(0.998492 0.000567062 0)
(0.998124 0.000693385 0)
(0.997733 0.000840941 0)
(0.997323 0.0010142 0)
(0.996899 0.00121825 0)
(0.996466 0.00145869 0)
(0.996032 0.00174119 0)
(0.995608 0.00207072 0)
(0.995207 0.00245022 0)
(0.994845 0.00287894 0)
(0.994541 0.00335053 0)
(0.994312 0.00385213 0)
(0.994168 0.00436463 0)
(0.994112 0.00486803 0)
(0.999971 7.629e-05 0)
(0.999853 0.000151109 0)
(0.999664 0.000230614 0)
(0.99943 0.00031527 0)
(0.999156 0.000409495 0)
(0.998849 0.000515897 0)
(0.998513 0.000637687 0)
(0.998154 0.000778324 0)
(0.997775 0.000941693 0)
(0.997381 0.00113211 0)
(0.996977 0.00135419 0)
(0.996571 0.00161259 0)
(0.99617 0.00191134 0)
(0.995788 0.00225292 0)
(0.995436 0.00263696 0)
(0.995129 0.00305892 0)
(0.994881 0.00350917 0)
(0.994701 0.00397333 0)
(0.994595 0.00443439 0)
(0.994556 0.00487803 0)
(0.999971 8.52095e-05 0)
(0.999855 0.000168798 0)
(0.999667 0.000257379 0)
(0.999436 0.000351632 0)
(0.999166 0.000456279 0)
(0.998865 0.000574141 0)
(0.998537 0.000708567 0)
(0.998187 0.000863076 0)
(0.997821 0.00104146 0)
(0.997444 0.00124771 0)
(0.997062 0.0014858 0)
(0.996682 0.00175919 0)
(0.996316 0.00207015 0)
(0.995973 0.00241879 0)
(0.995667 0.00280199 0)
(0.995408 0.00321261 0)
(0.995206 0.00363948 0)
(0.995065 0.00406861 0)
(0.994986 0.00448593 0)
(0.994962 0.00488177 0)
(0.999972 9.42793e-05 0)
(0.999856 0.000186781 0)
(0.999671 0.000284535 0)
(0.999443 0.00038845 0)
(0.999178 0.000503509 0)
(0.998882 0.000632716 0)
(0.998563 0.000779497 0)
(0.998224 0.000947342 0)
(0.997871 0.00113983 0)
(0.997512 0.0013605 0)
(0.997152 0.00161246 0)
(0.9968 0.00189792 0)
(0.996467 0.00221738 0)
(0.996162 0.00256884 0)
(0.995897 0.00294705 0)
(0.995679 0.00334337 0)
(0.995515 0.00374632 0)
(0.995406 0.00414328 0)
(0.995348 0.00452314 0)
(0.995334 0.00487978 0)
(0.999972 0.00010349 0)
(0.999858 0.000205038 0)
(0.999675 0.000312045 0)
(0.999451 0.000425661 0)
(0.999191 0.000551089 0)
(0.998902 0.000691475 0)
(0.998591 0.000850262 0)
(0.998264 0.00103082 0)
(0.997926 0.00123642 0)
(0.997585 0.00146998 0)
(0.997248 0.00173369 0)
(0.996924 0.00202841 0)
(0.996622 0.00235302 0)
(0.996353 0.00270376 0)
(0.996124 0.00307394 0)
(0.995942 0.00345421 0)
(0.995809 0.00383362 0)
(0.995725 0.00420133 0)
(0.995684 0.00454885 0)
(0.995677 0.00487269 0)
(0.999972 0.00011283 0)
(0.99986 0.000223545 0)
(0.99968 0.000339867 0)
(0.99946 0.000463198 0)
(0.999205 0.000598914 0)
(0.998923 0.000750263 0)
(0.998622 0.000920639 0)
(0.998306 0.00111321 0)
(0.997984 0.00133083 0)
(0.997662 0.00157572 0)
(0.997348 0.00184906 0)
(0.997051 0.00215044 0)
(0.99678 0.00247726 0)
(0.996543 0.00282444 0)
(0.996347 0.0031844 0)
(0.996196 0.00354777 0)
(0.996089 0.00390456 0)
(0.996025 0.00424578 0)
(0.995996 0.00456517 0)
(0.995997 0.00486111 0)
(0.999973 0.000122286 0)
(0.999862 0.000242274 0)
(0.999685 0.000367955 0)
(0.99947 0.000500986 0)
(0.99922 0.000646871 0)
(0.998947 0.000808915 0)
(0.998655 0.000990399 0)
(0.998352 0.00119421 0)
(0.998046 0.0014227 0)
(0.997743 0.00167733 0)
(0.997453 0.00195827 0)
(0.997182 0.0022639 0)
(0.99694 0.00259042 0)
(0.996733 0.00293179 0)
(0.996566 0.00328007 0)
(0.99644 0.00362629 0)
(0.996355 0.00396167 0)
(0.996307 0.00427896 0)
(0.996289 0.00457369 0)
(0.996294 0.00484558 0)
(0.999973 0.000131846 0)
(0.999865 0.000261195 0)
(0.999691 0.000396256 0)
(0.99948 0.000538942 0)
(0.999237 0.000694837 0)
(0.998972 0.000867256 0)
(0.998691 0.00105931 0)
(0.998401 0.00127353 0)
(0.998111 0.0015117 0)
(0.997828 0.0017745 0)
(0.99756 0.0020611 0)
(0.997315 0.00236882 0)
(0.9971 0.00269291 0)
(0.99692 0.00302677 0)
(0.996778 0.00336247 0)
(0.996675 0.00369172 0)
(0.996608 0.00400703 0)
(0.996573 0.00430268 0)
(0.996563 0.00457564 0)
(0.996573 0.00482658 0)
(0.999973 0.000141491 0)
(0.999867 0.000280274 0)
(0.999697 0.000424713 0)
(0.999491 0.000576979 0)
(0.999255 0.000742683 0)
(0.998998 0.00092511 0)
(0.998729 0.00112714 0)
(0.998453 0.00135089 0)
(0.99818 0.00159753 0)
(0.997917 0.00186695 0)
(0.997671 0.0021574 0)
(0.99745 0.00246529 0)
(0.99726 0.00278523 0)
(0.997104 0.00311032 0)
(0.996985 0.00343295 0)
(0.996901 0.00374571 0)
(0.996849 0.0040423 0)
(0.996824 0.00431836 0)
(0.996821 0.00457198 0)
(0.996834 0.00480449 0)
(0.999974 0.000151206 0)
(0.99987 0.000299472 0)
(0.999704 0.000453264 0)
(0.999503 0.000615001 0)
(0.999274 0.000790275 0)
(0.999027 0.000982294 0)
(0.998769 0.00119365 0)
(0.998508 0.00142601 0)
(0.998251 0.00167992 0)
(0.998007 0.00195446 0)
(0.997783 0.0022471 0)
(0.997585 0.00255352 0)
(0.997418 0.00286789 0)
(0.997285 0.00318333 0)
(0.997185 0.00349274 0)
(0.997118 0.00378963 0)
(0.997078 0.00406884 0)
(0.997062 0.00432713 0)
(0.997065 0.00456347 0)
(0.997081 0.00477965 0)
(0.999974 0.000160969 0)
(0.999873 0.000318751 0)
(0.999711 0.000481843 0)
(0.999516 0.000652909 0)
(0.999295 0.000837472 0)
(0.999057 0.00103862 0)
(0.998811 0.00125862 0)
(0.998564 0.00149866 0)
(0.998325 0.00175861 0)
(0.9981 0.00203688 0)
(0.997897 0.00233019 0)
(0.997721 0.00263372 0)
(0.997575 0.00294143 0)
(0.997461 0.00324666 0)
(0.997379 0.00354293 0)
(0.997325 0.00382467 0)
(0.997297 0.00408777 0)
(0.997288 0.0043299 0)
(0.997295 0.00455071 0)
(0.997313 0.00475232 0)
(0.999975 0.000170762 0)
(0.999876 0.000338064 0)
(0.999719 0.000510378 0)
(0.99953 0.000690596 0)
(0.999317 0.000884131 0)
(0.999089 0.00109391 0)
(0.998855 0.00132184 0)
(0.998623 0.00156859 0)
(0.998401 0.00183343 0)
(0.998195 0.00211408 0)
(0.998012 0.00240673 0)
(0.997856 0.00270619 0)
(0.997729 0.0030064 0)
(0.997633 0.00330108 0)
(0.997566 0.00358445 0)
(0.997524 0.00385182 0)
(0.997505 0.0041 0)
(0.997502 0.0043274 0)
(0.997513 0.0045342 0)
(0.997533 0.00472273 0)
(0.999975 0.00018056 0)
(0.99988 0.000357366 0)
(0.999727 0.000538794 0)
(0.999544 0.000727954 0)
(0.99934 0.000930104 0)
(0.999123 0.00114798 0)
(0.998901 0.00138309 0)
(0.998684 0.0016356 0)
(0.998479 0.00190418 0)
(0.998291 0.00218601 0)
(0.998127 0.00247681 0)
(0.997989 0.00277122 0)
(0.99788 0.00306332 0)
(0.9978 0.00334732 0)
(0.997746 0.00361815 0)
(0.997715 0.00387195 0)
(0.997703 0.0041063 0)
(0.997706 0.00432024 0)
(0.99772 0.00451435 0)
(0.997742 0.00469108 0)
(0.999976 0.00019034 0)
(0.999883 0.000376606 0)
(0.999736 0.000567012 0)
(0.99956 0.000764869 0)
(0.999364 0.000975243 0)
(0.999157 0.00120064 0)
(0.998949 0.00144217 0)
(0.998747 0.00169949 0)
(0.998558 0.00197075 0)
(0.998388 0.00225263 0)
(0.998241 0.00254055 0)
(0.998121 0.00282913 0)
(0.998029 0.00311272 0)
(0.997962 0.00338605 0)
(0.99792 0.00364477 0)
(0.997898 0.00388578 0)
(0.997892 0.00410731 0)
(0.9979 0.00430892 0)
(0.997916 0.00449148 0)
(0.997939 0.00465751 0)
(0.999977 0.000200076 0)
(0.999887 0.000395731 0)
(0.999745 0.000594949 0)
(0.999576 0.000801225 0)
(0.999389 0.0010194 0)
(0.999194 0.00125173 0)
(0.998998 0.00149891 0)
(0.998811 0.00176012 0)
(0.998638 0.00203303 0)
(0.998484 0.00231394 0)
(0.998355 0.00259812 0)
(0.998251 0.00288026 0)
(0.998173 0.00315506 0)
(0.998119 0.00341785 0)
(0.998087 0.00366496 0)
(0.998073 0.00389393 0)
(0.998073 0.00410357 0)
(0.998084 0.00429385 0)
(0.998103 0.00446587 0)
(0.998127 0.00462218 0)
(0.999978 0.00020974 0)
(0.999891 0.000414685 0)
(0.999754 0.000622521 0)
(0.999593 0.000836904 0)
(0.999415 0.00106243 0)
(0.999231 0.00130108 0)
(0.999049 0.00155313 0)
(0.998876 0.00181733 0)
(0.998718 0.00209094 0)
(0.998581 0.00237 0)
(0.998467 0.0026497 0)
(0.998378 0.00292493 0)
(0.998313 0.00319082 0)
(0.998271 0.00344328 0)
(0.998248 0.00367927 0)
(0.99824 0.00389693 0)
(0.998245 0.00409555 0)
(0.998259 0.0042754 0)
(0.99828 0.00443776 0)
(0.998305 0.00458518 0)
(0.999978 0.000219305 0)
(0.999895 0.00043341 0)
(0.999764 0.000649639 0)
(0.99961 0.00087179 0)
(0.999442 0.00110418 0)
(0.999269 0.00134851 0)
(0.9991 0.00160468 0)
(0.998941 0.00187101 0)
(0.998799 0.00214446 0)
(0.998677 0.00242087 0)
(0.998578 0.00269548 0)
(0.998503 0.00296347 0)
(0.99845 0.00322043 0)
(0.998417 0.00346283 0)
(0.998402 0.00368822 0)
(0.9984 0.00389526 0)
(0.998409 0.00408363 0)
(0.998426 0.00425386 0)
(0.998448 0.00440735 0)
(0.998474 0.00454664 0)
(0.999979 0.000228742 0)
(0.9999 0.000451847 0)
(0.999774 0.000676214 0)
(0.999628 0.000905763 0)
(0.99947 0.00114452 0)
(0.999308 0.0013939 0)
(0.999152 0.00165342 0)
(0.999008 0.00192108 0)
(0.99888 0.00219355 0)
(0.998773 0.00246663 0)
(0.998687 0.00273568 0)
(0.998624 0.0029962 0)
(0.998582 0.00324428 0)
(0.998558 0.00347693 0)
(0.998549 0.00369225 0)
(0.998553 0.00388932 0)
(0.998566 0.00406815 0)
(0.998585 0.00422949 0)
(0.998608 0.00437482 0)
(0.998634 0.00450662 0)
(0.99998 0.000238018 0)
(0.999904 0.000469935 0)
(0.999785 0.000702156 0)
(0.999647 0.000938706 0)
(0.999498 0.00118331 0)
(0.999348 0.00143709 0)
(0.999205 0.00169924 0)
(0.999074 0.00196745 0)
(0.99896 0.00223824 0)
(0.998866 0.0025074 0)
(0.998794 0.0027705 0)
(0.998742 0.00302342 0)
(0.99871 0.00326274 0)
(0.998693 0.003486 0)
(0.998691 0.00369174 0)
(0.998699 0.00387945 0)
(0.998714 0.0040494 0)
(0.998736 0.00420251 0)
(0.99876 0.0043403 0)
(0.998786 0.00446522 0)
(0.999981 0.000247104 0)
(0.999909 0.00048761 0)
(0.999796 0.000727375 0)
(0.999666 0.000970506 0)
(0.999527 0.00122042 0)
(0.999389 0.00147797 0)
(0.999258 0.00174203 0)
(0.99914 0.00201009 0)
(0.99904 0.00227855 0)
(0.998959 0.0025433 0)
(0.998898 0.00280017 0)
(0.998857 0.00304544 0)
(0.998833 0.00327617 0)
(0.998823 0.00349039 0)
(0.998826 0.00368705 0)
(0.998838 0.00386598 0)
(0.998856 0.00402765 0)
(0.998879 0.00417311 0)
(0.998904 0.00430393 0)
(0.998931 0.00442249 0)
(0.999982 0.000255968 0)
(0.999914 0.000504812 0)
(0.999807 0.000751781 0)
(0.999685 0.00100105 0)
(0.999557 0.00125573 0)
(0.999429 0.00151641 0)
(0.999311 0.00178172 0)
(0.999206 0.00204896 0)
(0.999118 0.00231454 0)
(0.999049 0.00257446 0)
(0.998999 0.00282489 0)
(0.998967 0.00306252 0)
(0.998951 0.00328489 0)
(0.998948 0.00349043 0)
(0.998955 0.00367849 0)
(0.99897 0.00384916 0)
(0.998991 0.00400311 0)
(0.999015 0.00414147 0)
(0.999041 0.00426584 0)
(0.999068 0.00437851 0)
(0.999983 0.000264578 0)
(0.999919 0.000521475 0)
(0.999819 0.000775286 0)
(0.999705 0.00103023 0)
(0.999586 0.00128913 0)
(0.99947 0.00155232 0)
(0.999364 0.00181823 0)
(0.999271 0.00208406 0)
(0.999195 0.00234626 0)
(0.999137 0.00260103 0)
(0.999097 0.00284489 0)
(0.999074 0.00307495 0)
(0.999064 0.00328918 0)
(0.999067 0.00348642 0)
(0.999078 0.00366634 0)
(0.999096 0.00382925 0)
(0.999119 0.00397598 0)
(0.999144 0.00410773 0)
(0.999171 0.00422611 0)
(0.999198 0.00433333 0)
(0.999984 0.000272902 0)
(0.999924 0.000537538 0)
(0.999831 0.000797805 0)
(0.999725 0.00105795 0)
(0.999616 0.00132051 0)
(0.999511 0.00158561 0)
(0.999416 0.00185153 0)
(0.999335 0.0021154 0)
(0.99927 0.00237379 0)
(0.999223 0.00262317 0)
(0.999192 0.00286038 0)
(0.999176 0.00308298 0)
(0.999173 0.00328933 0)
(0.99918 0.00347864 0)
(0.999195 0.00365085 0)
(0.999216 0.00380647 0)
(0.99924 0.00394645 0)
(0.999266 0.00407204 0)
(0.999293 0.00418484 0)
(0.99932 0.004287 0)
(0.999985 0.000280908 0)
(0.999929 0.00055294 0)
(0.999842 0.000819253 0)
(0.999745 0.00108411 0)
(0.999646 0.00134979 0)
(0.999552 0.00161621 0)
(0.999468 0.00188157 0)
(0.999398 0.00214301 0)
(0.999344 0.00239723 0)
(0.999306 0.00264101 0)
(0.999283 0.00287156 0)
(0.999275 0.00308684 0)
(0.999277 0.00328558 0)
(0.999289 0.00346732 0)
(0.999307 0.00363224 0)
(0.999329 0.00378101 0)
(0.999355 0.00391466 0)
(0.999382 0.00403451 0)
(0.999409 0.00414212 0)
(0.999436 0.00423957 0)
(0.999986 0.000288565 0)
(0.999934 0.000567622 0)
(0.999854 0.000839553 0)
(0.999766 0.00110863 0)
(0.999676 0.00137687 0)
(0.999592 0.00164407 0)
(0.999519 0.00190834 0)
(0.999459 0.00216691 0)
(0.999415 0.00241668 0)
(0.999386 0.00265473 0)
(0.999371 0.00287864 0)
(0.999369 0.00308676 0)
(0.999376 0.00327818 0)
(0.999391 0.0034527 0)
(0.999412 0.00361071 0)
(0.999437 0.00375304 0)
(0.999463 0.00388077 0)
(0.999491 0.00399525 0)
(0.999519 0.00409802 0)
(0.999546 0.00419109 0)
(0.999987 0.000295843 0)
(0.999939 0.000581526 0)
(0.999866 0.00085863 0)
(0.999786 0.00113141 0)
(0.999706 0.00140169 0)
(0.999632 0.00166913 0)
(0.999569 0.00193185 0)
(0.999519 0.00218718 0)
(0.999484 0.00243225 0)
(0.999463 0.00266447 0)
(0.999455 0.00288182 0)
(0.999458 0.00308296 0)
(0.99947 0.00326733 0)
(0.999489 0.00343498 0)
(0.999512 0.00358647 0)
(0.999538 0.00372272 0)
(0.999566 0.00384491 0)
(0.999594 0.00395436 0)
(0.999622 0.00405261 0)
(0.999648 0.0041416 0)
(0.999988 0.000302712 0)
(0.999944 0.000594598 0)
(0.999878 0.000876414 0)
(0.999806 0.0011524 0)
(0.999735 0.0014242 0)
(0.999671 0.00169138 0)
(0.999617 0.0019521 0)
(0.999577 0.00220386 0)
(0.999551 0.00244405 0)
(0.999537 0.00267041 0)
(0.999536 0.00288127 0)
(0.999544 0.00307565 0)
(0.999559 0.00325325 0)
(0.999581 0.00341435 0)
(0.999606 0.00355967 0)
(0.999633 0.00369021 0)
(0.999662 0.00380719 0)
(0.99969 0.00391194 0)
(0.999718 0.00400597 0)
(0.999745 0.00409114 0)
(0.999989 0.000309147 0)
(0.999949 0.000606788 0)
(0.99989 0.000892842 0)
(0.999826 0.00117153 0)
(0.999763 0.00144433 0)
(0.999709 0.00171079 0)
(0.999665 0.00196913 0)
(0.999633 0.00221704 0)
(0.999615 0.0024522 0)
(0.999608 0.00267269 0)
(0.999612 0.00287718 0)
(0.999625 0.00306501 0)
(0.999644 0.00323612 0)
(0.999668 0.003391 0)
(0.999695 0.00353048 0)
(0.999723 0.00365564 0)
(0.999752 0.00376772 0)
(0.999781 0.00386807 0)
(0.999809 0.00395815 0)
(0.999836 0.00403976 0)
(0.99999 0.000315121 0)
(0.999955 0.000618048 0)
(0.999902 0.000907859 0)
(0.999845 0.00118875 0)
(0.999792 0.00146207 0)
(0.999746 0.00172736 0)
(0.99971 0.00198297 0)
(0.999687 0.0022268 0)
(0.999676 0.00245684 0)
(0.999676 0.00267148 0)
(0.999685 0.00286973 0)
(0.999701 0.00305122 0)
(0.999723 0.00321613 0)
(0.999749 0.00336509 0)
(0.999778 0.00349903 0)
(0.999807 0.00361912 0)
(0.999837 0.00372661 0)
(0.999866 0.00382283 0)
(0.999894 0.00390922 0)
(0.99992 0.00398749 0)
(0.999991 0.00032061 0)
(0.99996 0.000628337 0)
(0.999913 0.000921414 0)
(0.999864 0.00120401 0)
(0.999819 0.00147738 0)
(0.999782 0.00174111 0)
(0.999755 0.00199368 0)
(0.999739 0.00223323 0)
(0.999734 0.00245807 0)
(0.99974 0.00266692 0)
(0.999753 0.00285909 0)
(0.999773 0.00303447 0)
(0.999798 0.00319343 0)
(0.999826 0.00333676 0)
(0.999856 0.00346548 0)
(0.999886 0.00358079 0)
(0.999916 0.00368395 0)
(0.999945 0.0037763 0)
(0.999973 0.00385922 0)
(0.999999 0.00393438 0)
(0.999992 0.000325593 0)
(0.999965 0.000637615 0)
(0.999924 0.000933465 0)
(0.999883 0.00121728 0)
(0.999845 0.00149026 0)
(0.999816 0.00175205 0)
(0.999797 0.0020013 0)
(0.999788 0.00223644 0)
(0.99979 0.00245605 0)
(0.9998 0.00265918 0)
(0.999818 0.00284542 0)
(0.999841 0.00301491 0)
(0.999868 0.00316819 0)
(0.999898 0.00330617 0)
(0.999928 0.00342994 0)
(0.999959 0.00354074 0)
(0.99999 0.00363984 0)
(1.00002 0.00372854 0)
(1.00005 0.00380822 0)
(1.00007 0.00388045 0)
(0.999993 0.000330051 0)
(0.99997 0.000645852 0)
(0.999935 0.000943979 0)
(0.999901 0.00122853 0)
(0.999871 0.00150071 0)
(0.999849 0.00176021 0)
(0.999837 0.00200592 0)
(0.999835 0.00223651 0)
(0.999842 0.00245088 0)
(0.999857 0.00264839 0)
(0.999878 0.00282888 0)
(0.999904 0.0029927 0)
(0.999933 0.00314055 0)
(0.999964 0.00327345 0)
(0.999996 0.00339254 0)
(1.00003 0.00349908 0)
(1.00006 0.00359435 0)
(1.00009 0.00367963 0)
(1.00011 0.00375626 0)
(1.00014 0.00382576 0)
(0.999994 0.000333969 0)
(0.999974 0.00065302 0)
(0.999946 0.000952929 0)
(0.999918 0.00123777 0)
(0.999896 0.00150874 0)
(0.999881 0.00176565 0)
(0.999875 0.00200761 0)
(0.999879 0.00223357 0)
(0.999891 0.00244272 0)
(0.99991 0.00263471 0)
(0.999935 0.00280962 0)
(0.999963 0.00296799 0)
(0.999994 0.00311066 0)
(1.00003 0.00323872 0)
(1.00006 0.00335338 0)
(1.00009 0.00345591 0)
(1.00012 0.00354757 0)
(1.00015 0.00362963 0)
(1.00018 0.0037034 0)
(1.0002 0.00377033 0)
(0.999995 0.000337333 0)
(0.999979 0.000659099 0)
(0.999956 0.0009603 0)
(0.999935 0.00124498 0)
(0.999919 0.00151437 0)
(0.999911 0.00176842 0)
(0.999912 0.00200646 0)
(0.999921 0.00222772 0)
(0.999937 0.0024317 0)
(0.99996 0.00261828 0)
(0.999988 0.00278779 0)
(1.00002 0.00294092 0)
(1.00005 0.00307865 0)
(1.00008 0.00320212 0)
(1.00012 0.00331258 0)
(1.00015 0.00341131 0)
(1.00018 0.00349957 0)
(1.00021 0.00357861 0)
(1.00023 0.00364969 0)
(1.00026 0.0037142 0)
(0.999996 0.000340133 0)
(0.999983 0.000664075 0)
(0.999966 0.000966082 0)
(0.999951 0.00125017 0)
(0.999941 0.00151763 0)
(0.999939 0.00176857 0)
(0.999946 0.00200255 0)
(0.99996 0.00221909 0)
(0.99998 0.00241793 0)
(1.00001 0.00259924 0)
(1.00004 0.00276353 0)
(1.00007 0.00291164 0)
(1.0001 0.00304464 0)
(1.00014 0.00316375 0)
(1.00017 0.00327023 0)
(1.0002 0.00336538 0)
(1.00023 0.00345043 0)
(1.00026 0.00352662 0)
(1.00029 0.00359517 0)
(1.00031 0.00365742 0)
(0.999997 0.000342363 0)
(0.999988 0.000667938 0)
(0.999975 0.000970276 0)
(0.999966 0.00125337 0)
(0.999962 0.00151858 0)
(0.999966 0.00176619 0)
(0.999978 0.00199599 0)
(0.999996 0.00220778 0)
(1.00002 0.00240157 0)
(1.00005 0.00257773 0)
(1.00008 0.00273698 0)
(1.00012 0.00288027 0)
(1.00015 0.00300877 0)
(1.00018 0.00312373 0)
(1.00022 0.00322644 0)
(1.00025 0.00331819 0)
(1.00028 0.00340023 0)
(1.00031 0.00347373 0)
(1.00033 0.0035399 0)
(1.00036 0.00360002 0)
(0.999998 0.000344019 0)
(0.999992 0.000670688 0)
(0.999984 0.000972891 0)
(0.99998 0.0012546 0)
(0.999982 0.00151726 0)
(0.999991 0.00176134 0)
(1.00001 0.00198688 0)
(1.00003 0.00219392 0)
(1.00006 0.00238273 0)
(1.00009 0.00255389 0)
(1.00012 0.00270827 0)
(1.00016 0.00284694 0)
(1.00019 0.00297114 0)
(1.00023 0.00308216 0)
(1.00026 0.0031813 0)
(1.00029 0.00326985 0)
(1.00032 0.00334902 0)
(1.00035 0.00342 0)
(1.00038 0.00348393 0)
(1.0004 0.00354205 0)
(0.999999 0.000345102 0)
(0.999995 0.000672328 0)
(0.999992 0.000973943 0)
(0.999993 0.0012539 0)
(1 0.00151374 0)
(1.00001 0.00175412 0)
(1.00003 0.00197532 0)
(1.00006 0.00217763 0)
(1.00009 0.00236156 0)
(1.00012 0.00252786 0)
(1.00016 0.00267754 0)
(1.0002 0.00281178 0)
(1.00023 0.00293187 0)
(1.00027 0.00303914 0)
(1.0003 0.0031349 0)
(1.00033 0.00322041 0)
(1.00036 0.00329689 0)
(1.00039 0.00336548 0)
(1.00042 0.0034273 0)
(1.00044 0.00348353 0)
(1 0.000345614 0)
(0.999999 0.000672871 0)
(1 0.000973457 0)
(1.00001 0.0012513 0)
(1.00002 0.00150808 0)
(1.00004 0.00174462 0)
(1.00006 0.00196143 0)
(1.00009 0.00215904 0)
(1.00012 0.00233817 0)
(1.00016 0.00249975 0)
(1.00019 0.0026449 0)
(1.00023 0.0027749 0)
(1.00027 0.00289108 0)
(1.0003 0.00299478 0)
(1.00034 0.00308732 0)
(1.00037 0.00316996 0)
(1.0004 0.00324389 0)
(1.00043 0.00331022 0)
(1.00045 0.00337006 0)
(1.00047 0.00342452 0)
(1 0.000345562 0)
(1 0.000672331 0)
(1.00001 0.000971466 0)
(1.00002 0.00124688 0)
(1.00003 0.00150036 0)
(1.00006 0.00173292 0)
(1.00008 0.00194531 0)
(1.00012 0.00213827 0)
(1.00015 0.00231271 0)
(1.00019 0.0024697 0)
(1.00022 0.0026105 0)
(1.00026 0.00273643 0)
(1.0003 0.00284887 0)
(1.00033 0.00294917 0)
(1.00037 0.00303866 0)
(1.0004 0.00311858 0)
(1.00043 0.00319009 0)
(1.00046 0.0032543 0)
(1.00048 0.00331226 0)
(1.0005 0.00336505 0)
(1 0.000344958 0)
(1.00001 0.000670733 0)
(1.00001 0.000968009 0)
(1.00003 0.00124068 0)
(1.00005 0.00149066 0)
(1.00007 0.00171914 0)
(1.0001 0.00192709 0)
(1.00014 0.00211545 0)
(1.00018 0.00228529 0)
(1.00021 0.00243784 0)
(1.00025 0.00257444 0)
(1.00029 0.00269647 0)
(1.00033 0.00280534 0)
(1.00036 0.00290241 0)
(1.0004 0.002989 0)
(1.00043 0.00306634 0)
(1.00046 0.00313556 0)
(1.00048 0.00319776 0)
(1.00051 0.00325395 0)
(1.00053 0.00330516 0)
(1 0.000343812 0)
(1.00001 0.000668103 0)
(1.00002 0.000963132 0)
(1.00004 0.00123277 0)
(1.00006 0.00147906 0)
(1.00009 0.00170338 0)
(1.00012 0.00190687 0)
(1.00016 0.00209069 0)
(1.0002 0.00225605 0)
(1.00024 0.0024043 0)
(1.00028 0.00253684 0)
(1.00031 0.00265513 0)
(1.00035 0.00276059 0)
(1.00039 0.00285458 0)
(1.00042 0.00293842 0)
(1.00045 0.0030133 0)
(1.00048 0.00308037 0)
(1.00051 0.00314066 0)
(1.00053 0.00319517 0)
(1.00055 0.00324489 0)
(1 0.000342141 0)
(1.00001 0.000664475 0)
(1.00003 0.000956888 0)
(1.00005 0.00122323 0)
(1.00007 0.00146567 0)
(1.0001 0.00168574 0)
(1.00014 0.00188479 0)
(1.00018 0.00206412 0)
(1.00022 0.0022251 0)
(1.00026 0.00236918 0)
(1.0003 0.00249783 0)
(1.00034 0.00261253 0)
(1.00037 0.00271472 0)
(1.00041 0.00280578 0)
(1.00044 0.00288699 0)
(1.00047 0.00295955 0)
(1.0005 0.00302456 0)
(1.00052 0.00308305 0)
(1.00055 0.00313598 0)
(1.00057 0.00318429 0)
(1 0.000339963 0)
(1.00001 0.000659885 0)
(1.00003 0.000949332 0)
(1.00005 0.00121213 0)
(1.00008 0.00145057 0)
(1.00012 0.00166634 0)
(1.00015 0.00186095 0)
(1.00019 0.00203586 0)
(1.00023 0.00219257 0)
(1.00028 0.00233261 0)
(1.00032 0.0024575 0)
(1.00035 0.00256876 0)
(1.00039 0.00266784 0)
(1.00043 0.00275609 0)
(1.00046 0.00283481 0)
(1.00049 0.00290515 0)
(1.00052 0.00296822 0)
(1.00054 0.003025 0)
(1.00056 0.00307642 0)
(1.00058 0.00312341 0)
(1 0.000337297 0)
(1.00002 0.000654374 0)
(1.00004 0.000940527 0)
(1.00006 0.00119956 0)
(1.00009 0.00143386 0)
(1.00013 0.00164528 0)
(1.00017 0.00183547 0)
(1.00021 0.00200604 0)
(1.00025 0.00215859 0)
(1.00029 0.00229471 0)
(1.00033 0.00241598 0)
(1.00037 0.00252393 0)
(1.00041 0.00262002 0)
(1.00044 0.0027056 0)
(1.00047 0.00278194 0)
(1.0005 0.00285018 0)
(1.00053 0.00291139 0)
(1.00055 0.00296655 0)
(1.00058 0.00301655 0)
(1.0006 0.00306227 0)
(1 0.000334165 0)
(1.00002 0.000647987 0)
(1.00004 0.000930537 0)
(1.00007 0.00118559 0)
(1.0001 0.00141564 0)
(1.00014 0.00162268 0)
(1.00018 0.00180848 0)
(1.00022 0.00197478 0)
(1.00026 0.00212326 0)
(1.0003 0.00225558 0)
(1.00034 0.00237336 0)
(1.00038 0.00247814 0)
(1.00042 0.00257137 0)
(1.00045 0.00265439 0)
(1.00048 0.00272845 0)
(1.00051 0.00279469 0)
(1.00054 0.00285414 0)
(1.00056 0.00290775 0)
(1.00059 0.00295641 0)
(1.0006 0.00300093 0)
(1 0.000330592 0)
(1.00002 0.000640771 0)
(1.00004 0.000919433 0)
(1.00007 0.00117033 0)
(1.00011 0.00139603 0)
(1.00015 0.00159865 0)
(1.00019 0.0017801 0)
(1.00023 0.0019422 0)
(1.00027 0.00208671 0)
(1.00031 0.00221535 0)
(1.00035 0.00232976 0)
(1.00039 0.00243148 0)
(1.00043 0.00252196 0)
(1.00046 0.00260254 0)
(1.00049 0.00267444 0)
(1.00052 0.00273876 0)
(1.00055 0.00279653 0)
(1.00057 0.00284868 0)
(1.00059 0.00289605 0)
(1.00061 0.00293944 0)
(1 0.000326603 0)
(1.00002 0.000632775 0)
(1.00005 0.000907285 0)
(1.00008 0.00115384 0)
(1.00011 0.00137511 0)
(1.00015 0.0015733 0)
(1.0002 0.00175042 0)
(1.00024 0.0019084 0)
(1.00028 0.00204905 0)
(1.00032 0.00217412 0)
(1.00036 0.00228527 0)
(1.0004 0.00238405 0)
(1.00043 0.0024719 0)
(1.00047 0.00255013 0)
(1.0005 0.00261995 0)
(1.00053 0.00268245 0)
(1.00055 0.00273862 0)
(1.00057 0.00278937 0)
(1.0006 0.00283552 0)
(1.00061 0.00287782 0)
(1 0.000322224 0)
(1.00002 0.000624052 0)
(1.00005 0.000894166 0)
(1.00008 0.00113624 0)
(1.00012 0.00135299 0)
(1.00016 0.00154674 0)
(1.0002 0.00171959 0)
(1.00024 0.00187351 0)
(1.00029 0.00201039 0)
(1.00033 0.00213199 0)
(1.00037 0.00223999 0)
(1.0004 0.00233594 0)
(1.00044 0.00242126 0)
(1.00047 0.00249725 0)
(1.0005 0.00256508 0)
(1.00053 0.00262583 0)
(1.00055 0.00268047 0)
(1.00058 0.00272988 0)
(1.0006 0.00277486 0)
(1.00061 0.00281613 0)
(1.00001 0.000317484 0)
(1.00002 0.000614656 0)
(1.00005 0.000880152 0)
(1.00008 0.0011176 0)
(1.00012 0.00132978 0)
(1.00016 0.00151909 0)
(1.00021 0.00168769 0)
(1.00025 0.00183764 0)
(1.00029 0.00197083 0)
(1.00033 0.00208907 0)
(1.00037 0.00219403 0)
(1.00041 0.00228725 0)
(1.00044 0.00237013 0)
(1.00047 0.00244395 0)
(1.0005 0.00250988 0)
(1.00053 0.00256896 0)
(1.00055 0.00262213 0)
(1.00058 0.00267027 0)
(1.0006 0.00271413 0)
(1.00061 0.00275442 0)
(1.00001 0.00031241 0)
(1.00002 0.000604639 0)
(1.00005 0.000865316 0)
(1.00009 0.00109802 0)
(1.00013 0.00130558 0)
(1.00017 0.00149045 0)
(1.00021 0.00165486 0)
(1.00025 0.00180089 0)
(1.00029 0.00193049 0)
(1.00034 0.00204546 0)
(1.00037 0.00214747 0)
(1.00041 0.00223805 0)
(1.00044 0.00231858 0)
(1.00047 0.00239033 0)
(1.0005 0.00245443 0)
(1.00053 0.0025119 0)
(1.00055 0.00256367 0)
(1.00057 0.00261058 0)
(1.00059 0.00265338 0)
(1.00061 0.00269272 0)
(1.00001 0.00030703 0)
(1.00002 0.000594057 0)
(1.00005 0.000849735 0)
(1.00009 0.00107759 0)
(1.00013 0.00128049 0)
(1.00017 0.00146092 0)
(1.00021 0.00162118 0)
(1.00025 0.00176337 0)
(1.0003 0.00188946 0)
(1.00034 0.00200125 0)
(1.00037 0.00210041 0)
(1.00041 0.00218843 0)
(1.00044 0.0022667 0)
(1.00047 0.00233645 0)
(1.0005 0.00239878 0)
(1.00053 0.00245471 0)
(1.00055 0.00250513 0)
(1.00057 0.00255087 0)
(1.00059 0.00259264 0)
(1.00061 0.00263108 0)
(1.00001 0.000301375 0)
(1.00002 0.000582964 0)
(1.00005 0.000833482 0)
(1.00009 0.0010564 0)
(1.00013 0.0012546 0)
(1.00017 0.00143062 0)
(1.00021 0.00158677 0)
(1.00026 0.00172519 0)
(1.0003 0.00184785 0)
(1.00034 0.00195654 0)
(1.00037 0.00205292 0)
(1.00041 0.00213848 0)
(1.00044 0.00221456 0)
(1.00047 0.00228238 0)
(1.0005 0.00234302 0)
(1.00052 0.00239746 0)
(1.00054 0.00244658 0)
(1.00056 0.00249119 0)
(1.00058 0.00253198 0)
(1.0006 0.00256954 0)
(1.00001 0.00029547 0)
(1.00002 0.000571413 0)
(1.00005 0.000816629 0)
(1.00009 0.00103453 0)
(1.00013 0.00122801 0)
(1.00017 0.00139964 0)
(1.00021 0.00155173 0)
(1.00026 0.00168644 0)
(1.0003 0.00180574 0)
(1.00033 0.00191142 0)
(1.00037 0.0020051 0)