/*--------------------------------*- C++ -*----------------------------------*\
| =========                 |                                                 |
| \\      /  F ield         | OpenFOAM: The Open Source CFD Toolbox           |
|  \\    /   O peration     | Version:  2.4.0                                 |
|   \\  /    A nd           | Web:      www.OpenFOAM.org                      |
|    \\/     M anipulation  |                                                 |
\*---------------------------------------------------------------------------*/
FoamFile
{
    version     2.0;
    format      ascii;
    class       volScalarField;
    location    "0.31";
    object      k;
}
// * * * * * * * * * * * * * * * * * * * * * * * * * * * * * * * * * * * * * //

dimensions      [0 2 -2 0 0 0 0];

internalField   nonuniform List<scalar> 
6000
(
0.00510096
0.0064528
0.00771273
0.00881071
0.00970929
0.0103996
0.0108936
0.0112168
0.0114015
0.0114816
0.0114891
0.0114515
0.0113908
0.0113222
0.011255
0.0111935
0.0111385
0.0110896
0.0110459
0.011007
0.010973
0.0109444
0.0109214
0.0109039
0.0108913
0.0108828
0.0108774
0.0108741
0.0108721
0.0108708
0.0108698
0.0108689
0.0108678
0.0108666
0.010865
0.010863
0.0108605
0.0108572
0.010853
0.0108476
0.0108407
0.0108317
0.0108201
0.0108052
0.0107859
0.0107611
0.0107291
0.0106877
0.0106342
0.0105651
0.0104757
0.0103596
0.0102087
0.0100114
0.0097522
0.00940735
0.00894586
0.00830783
0.00747296
0.00614324
0.0035494
0.00344486
0.00340547
0.00341521
0.0034581
0.00352096
0.00359547
0.00367682
0.00376186
0.00384807
0.00393296
0.00401382
0.00408777
0.00415214
0.00420477
0.00424423
0.00426972
0.00428099
0.00427821
0.00426218
0.0042346
0.00419822
0.00415666
0.00411391
0.00407359
0.00403837
0.00400967
0.00398774
0.00397192
0.00396108
0.00395399
0.00394956
0.00394692
0.00394549
0.00394489
0.00394493
0.0039455
0.00394657
0.00394816
0.00395037
0.0039533
0.00395715
0.00396216
0.00396865
0.00397707
0.00398799
0.00400216
0.0040206
0.00404465
0.00407615
0.00411762
0.00417267
0.00424656
0.00434734
0.00448801
0.00469045
0.00499481
0.00547106
0.00625744
0.00819028
0.00348321
0.00325647
0.00306424
0.00290015
0.00275845
0.00263394
0.00252272
0.00242234
0.00233136
0.00224901
0.00217484
0.00210856
0.00204993
0.00199866
0.00195437
0.00191654
0.00188447
0.00185734
0.00183427
0.00181433
0.0017966
0.0017803
0.00176481
0.00174987
0.00173553
0.00172209
0.00170999
0.00169958
0.00169105
0.0016844
0.00167941
0.00167581
0.00167328
0.00167157
0.00167045
0.00166978
0.00166945
0.0016694
0.00166958
0.00166998
0.00167062
0.00167152
0.00167274
0.00167435
0.00167648
0.00167927
0.00168297
0.00168788
0.00169444
0.00170331
0.00171546
0.00173239
0.0017565
0.00179177
0.00184528
0.00193006
0.00207311
0.00232364
0.00282214
0.00385648
0.00347969
0.00324256
0.00303442
0.00285067
0.00268757
0.00254189
0.00241082
0.00229204
0.00218365
0.00208413
0.00199229
0.00190726
0.00182839
0.00175528
0.0016877
0.00162558
0.00156893
0.0015178
0.00147226
0.0014323
0.0013978
0.0013685
0.00134397
0.00132367
0.00130703
0.00129348
0.00128255
0.00127382
0.00126695
0.00126163
0.0012576
0.00125459
0.0012524
0.00125084
0.00124976
0.00124902
0.00124856
0.00124829
0.00124817
0.00124817
0.00124828
0.00124848
0.0012488
0.00124923
0.00124981
0.00125059
0.00125161
0.00125296
0.00125477
0.0012572
0.00126052
0.00126514
0.00127173
0.00128145
0.00129645
0.00132094
0.00136455
0.00144781
0.00164207
0.0020734
0.00347951
0.00324163
0.00303199
0.00284603
0.00268015
0.00253139
0.00239731
0.00227586
0.00216532
0.00206426
0.00197148
0.00188602
0.00180707
0.00173404
0.00166649
0.00160412
0.00154679
0.00149442
0.00144703
0.00140463
0.00136724
0.00133479
0.0013071
0.00128391
0.00126483
0.00124938
0.00123708
0.00122742
0.00121994
0.00121423
0.00120994
0.00120676
0.00120444
0.00120277
0.0012016
0.00120078
0.00120023
0.00119986
0.00119963
0.00119948
0.00119941
0.00119938
0.00119939
0.00119943
0.00119951
0.00119962
0.00119979
0.00120002
0.00120035
0.00120084
0.00120155
0.00120262
0.00120427
0.0012069
0.00121122
0.00121862
0.00123211
0.00125902
0.00132318
0.00149221
0.0034795
0.00324152
0.00303169
0.00284547
0.00267924
0.00253008
0.00239558
0.00227376
0.00216294
0.00206175
0.00196902
0.0018838
0.00180529
0.00173288
0.00166608
0.00160457
0.00154811
0.00149659
0.00144992
0.00140809
0.00137102
0.00133863
0.00131077
0.00128718
0.00126757
0.00125153
0.00123865
0.00122848
0.00122058
0.00121454
0.00121
0.00120663
0.00120418
0.00120243
0.00120118
0.00120032
0.00119973
0.00119933
0.00119907
0.00119889
0.00119878
0.00119871
0.00119866
0.00119864
0.00119862
0.00119862
0.00119863
0.00119867
0.00119874
0.00119887
0.0011991
0.00119952
0.00120024
0.00120151
0.0012037
0.00120755
0.00121432
0.00122718
0.00125223
0.0013237
0.00347949
0.00324148
0.00303159
0.00284531
0.00267901
0.00252978
0.00239521
0.00227332
0.00216246
0.00206126
0.00196857
0.00188343
0.00180508
0.00173288
0.00166636
0.00160518
0.00154911
0.00149799
0.00145175
0.0014103
0.00137358
0.00134146
0.00131376
0.00129026
0.00127063
0.00125451
0.00124151
0.00123119
0.00122315
0.00121699
0.00121235
0.00120891
0.0012064
0.0012046
0.00120334
0.00120245
0.00120185
0.00120144
0.00120117
0.001201
0.00120088
0.00120081
0.00120076
0.00120073
0.00120072
0.00120071
0.00120072
0.00120076
0.00120082
0.00120095
0.00120117
0.00120156
0.00120225
0.00120344
0.00120547
0.00120895
0.00121483
0.00122515
0.00124144
0.00128159
0.00347949
0.00324145
0.00303152
0.0028452
0.00267887
0.0025296
0.002395
0.00227308
0.0021622
0.00206098
0.00196829
0.00188317
0.00180484
0.00173269
0.00166625
0.00160517
0.00154921
0.00149823
0.00145212
0.00141082
0.00137424
0.00134224
0.00131466
0.00129122
0.00127164
0.00125554
0.00124253
0.00123219
0.00122413
0.00121794
0.00121327
0.00120981
0.00120729
0.00120548
0.0012042
0.00120331
0.00120271
0.0012023
0.00120203
0.00120185
0.00120174
0.00120167
0.00120162
0.0012016
0.00120159
0.0012016
0.00120162
0.00120167
0.00120176
0.00120191
0.00120217
0.00120262
0.00120337
0.00120464
0.00120678
0.00121038
0.00121636
0.00122652
0.00124167
0.00127281
0.00347949
0.00324143
0.00303147
0.00284512
0.00267876
0.00252946
0.00239483
0.00227289
0.00216198
0.00206075
0.00196805
0.00188292
0.00180459
0.00173245
0.00166603
0.00160496
0.00154904
0.00149809
0.00145203
0.00141078
0.00137425
0.00134231
0.00131477
0.00129137
0.00127182
0.00125575
0.00124275
0.00123243
0.00122437
0.00121818
0.00121351
0.00121005
0.00120752
0.00120571
0.00120443
0.00120355
0.00120294
0.00120253
0.00120226
0.00120208
0.00120197
0.0012019
0.00120186
0.00120184
0.00120184
0.00120185
0.00120188
0.00120194
0.00120203
0.0012022
0.00120248
0.00120296
0.00120374
0.00120506
0.00120726
0.00121092
0.00121696
0.00122707
0.0012422
0.0012703
0.00347949
0.00324142
0.00303143
0.00284505
0.00267866
0.00252934
0.00239469
0.00227273
0.00216181
0.00206056
0.00196784
0.0018827
0.00180437
0.00173223
0.0016658
0.00160474
0.00154883
0.0014979
0.00145186
0.00141063
0.00137412
0.0013422
0.00131469
0.00129132
0.00127179
0.00125574
0.00124276
0.00123245
0.0012244
0.00121822
0.00121355
0.00121009
0.00120757
0.00120576
0.00120448
0.0012036
0.00120299
0.00120258
0.00120231
0.00120214
0.00120202
0.00120195
0.00120191
0.0012019
0.00120189
0.00120191
0.00120194
0.001202
0.0012021
0.00120227
0.00120256
0.00120304
0.00120384
0.00120516
0.00120736
0.001211
0.00121696
0.00122683
0.00124169
0.00126778
0.00347949
0.00324141
0.0030314
0.002845
0.00267859
0.00252924
0.00239457
0.00227259
0.00216165
0.00206039
0.00196766
0.00188251
0.00180417
0.00173203
0.0016656
0.00160454
0.00154863
0.00149771
0.00145168
0.00141047
0.00137398
0.00134208
0.00131458
0.00129123
0.00127172
0.00125568
0.00124272
0.00123242
0.00122438
0.00121821
0.00121355
0.0012101
0.00120758
0.00120577
0.00120449
0.0012036
0.001203
0.00120259
0.00120232
0.00120215
0.00120203
0.00120196
0.00120192
0.00120191
0.0012019
0.00120192
0.00120195
0.00120201
0.00120211
0.00120229
0.00120258
0.00120306
0.00120385
0.00120517
0.00120734
0.00121092
0.00121673
0.00122621
0.00124049
0.00126455
0.00347949
0.0032414
0.00303137
0.00284495
0.00267852
0.00252916
0.00239447
0.00227247
0.00216152
0.00206025
0.00196751
0.00188235
0.001804
0.00173185
0.00166542
0.00160437
0.00154846
0.00149755
0.00145153
0.00141032
0.00137385
0.00134196
0.00131448
0.00129115
0.00127165
0.00125563
0.00124268
0.00123239
0.00122436
0.00121819
0.00121354
0.00121009
0.00120757
0.00120577
0.00120449
0.0012036
0.001203
0.00120259
0.00120232
0.00120215
0.00120204
0.00120197
0.00120193
0.00120191
0.0012019
0.00120192
0.00120195
0.00120201
0.00120211
0.00120229
0.00120258
0.00120306
0.00120385
0.00120515
0.00120729
0.00121079
0.00121642
0.00122548
0.00123903
0.00126102
0.00347949
0.00324139
0.00303135
0.00284491
0.00267847
0.00252909
0.00239438
0.00227237
0.00216141
0.00206012
0.00196737
0.00188221
0.00180386
0.0017317
0.00166527
0.00160422
0.00154831
0.0014974
0.00145139
0.0014102
0.00137373
0.00134186
0.00131439
0.00129108
0.00127159
0.00125558
0.00124264
0.00123237
0.00122434
0.00121818
0.00121353
0.00121008
0.00120757
0.00120576
0.00120449
0.0012036
0.001203
0.00120259
0.00120232
0.00120215
0.00120204
0.00120197
0.00120193
0.00120191
0.00120191
0.00120192
0.00120195
0.00120201
0.00120212
0.00120229
0.00120258
0.00120305
0.00120384
0.00120513
0.00120724
0.00121066
0.00121611
0.00122474
0.00123754
0.00125757
0.00347948
0.00324138
0.00303134
0.00284488
0.00267842
0.00252902
0.0023943
0.00227228
0.00216131
0.00206001
0.00196725
0.00188208
0.00180373
0.00173157
0.00166513
0.00160408
0.00154818
0.00149728
0.00145127
0.00141009
0.00137363
0.00134177
0.00131431
0.00129101
0.00127154
0.00125554
0.00124261
0.00123234
0.00122432
0.00121817
0.00121352
0.00121008
0.00120756
0.00120576
0.00120449
0.0012036
0.001203
0.00120259
0.00120232
0.00120215
0.00120204
0.00120197
0.00120193
0.00120191
0.00120191
0.00120192
0.00120195
0.00120201
0.00120212
0.00120229
0.00120258
0.00120305
0.00120383
0.00120511
0.00120718
0.00121053
0.00121581
0.00122405
0.00123612
0.00125439
0.00347948
0.00324138
0.00303132
0.00284485
0.00267838
0.00252897
0.00239424
0.00227221
0.00216122
0.00205992
0.00196715
0.00188197
0.00180361
0.00173145
0.00166502
0.00160397
0.00154807
0.00149717
0.00145117
0.00140999
0.00137354
0.00134169
0.00131425
0.00129095
0.00127149
0.0012555
0.00124258
0.00123232
0.00122431
0.00121816
0.00121352
0.00121007
0.00120756
0.00120576
0.00120449
0.0012036
0.001203
0.00120259
0.00120232
0.00120215
0.00120204
0.00120197
0.00120193
0.00120191
0.00120191
0.00120192
0.00120195
0.00120201
0.00120212
0.00120229
0.00120257
0.00120305
0.00120382
0.00120508
0.00120713
0.0012104
0.00121553
0.00122342
0.00123483
0.00125156
0.00347948
0.00324138
0.00303131
0.00284483
0.00267835
0.00252893
0.00239419
0.00227214
0.00216115
0.00205984
0.00196706
0.00188188
0.00180351
0.00173135
0.00166492
0.00160387
0.00154797
0.00149707
0.00145108
0.00140991
0.00137347
0.00134163
0.00131419
0.0012909
0.00127145
0.00125547
0.00124256
0.0012323
0.00122429
0.00121815
0.00121351
0.00121007
0.00120756
0.00120576
0.00120448
0.0012036
0.001203
0.00120259
0.00120232
0.00120215
0.00120204
0.00120197
0.00120193
0.00120191
0.00120191
0.00120192
0.00120195
0.00120201
0.00120212
0.00120229
0.00120257
0.00120304
0.00120381
0.00120506
0.00120708
0.00121029
0.00121527
0.00122285
0.00123366
0.00124908
0.00347948
0.00324137
0.0030313
0.00284481
0.00267832
0.00252889
0.00239414
0.00227208
0.00216108
0.00205976
0.00196699
0.0018818
0.00180343
0.00173126
0.00166483
0.00160378
0.00154788
0.00149699
0.001451
0.00140984
0.0013734
0.00134157
0.00131414
0.00129086
0.00127142
0.00125544
0.00124254
0.00123229
0.00122428
0.00121814
0.0012135
0.00121006
0.00120756
0.00120576
0.00120448
0.0012036
0.001203
0.00120259
0.00120232
0.00120215
0.00120204
0.00120197
0.00120193
0.00120191
0.00120191
0.00120192
0.00120195
0.00120201
0.00120212
0.00120229
0.00120257
0.00120304
0.0012038
0.00120504
0.00120704
0.00121018
0.00121504
0.00122234
0.00123263
0.00124694
0.00347948
0.00324137
0.00303129
0.0028448
0.00267829
0.00252886
0.0023941
0.00227204
0.00216103
0.0020597
0.00196692
0.00188173
0.00180336
0.00173119
0.00166475
0.0016037
0.00154781
0.00149692
0.00145094
0.00140978
0.00137335
0.00134152
0.0013141
0.00129082
0.00127139
0.00125542
0.00124252
0.00123227
0.00122427
0.00121813
0.0012135
0.00121006
0.00120755
0.00120575
0.00120448
0.0012036
0.001203
0.00120259
0.00120232
0.00120215
0.00120204
0.00120197
0.00120193
0.00120191
0.00120191
0.00120192
0.00120195
0.00120201
0.00120212
0.00120229
0.00120257
0.00120304
0.0012038
0.00120503
0.00120699
0.00121009
0.00121483
0.00122189
0.00123172
0.0012451
0.00347948
0.00324137
0.00303129
0.00284479
0.00267827
0.00252883
0.00239406
0.002272
0.00216098
0.00205965
0.00196686
0.00188167
0.00180329
0.00173112
0.00166469
0.00160364
0.00154775
0.00149686
0.00145088
0.00140972
0.0013733
0.00134148
0.00131406
0.00129079
0.00127136
0.0012554
0.0012425
0.00123226
0.00122426
0.00121813
0.00121349
0.00121006
0.00120755
0.00120575
0.00120448
0.0012036
0.001203
0.00120259
0.00120232
0.00120215
0.00120204
0.00120197
0.00120193
0.00120191
0.00120191
0.00120192
0.00120195
0.00120201
0.00120212
0.00120229
0.00120257
0.00120303
0.00120379
0.00120501
0.00120696
0.00121001
0.00121465
0.00122149
0.00123094
0.00124353
0.00347948
0.00324137
0.00303128
0.00284478
0.00267826
0.00252881
0.00239404
0.00227196
0.00216094
0.00205961
0.00196682
0.00188162
0.00180324
0.00173107
0.00166463
0.00160359
0.0015477
0.00149681
0.00145083
0.00140968
0.00137326
0.00134144
0.00131403
0.00129077
0.00127134
0.00125538
0.00124249
0.00123225
0.00122426
0.00121812
0.00121349
0.00121006
0.00120755
0.00120575
0.00120448
0.0012036
0.001203
0.00120259
0.00120232
0.00120215
0.00120204
0.00120197
0.00120193
0.00120191
0.00120191
0.00120192
0.00120195
0.00120201
0.00120212
0.00120229
0.00120257
0.00120303
0.00120378
0.001205
0.00120693
0.00120994
0.00121449
0.00122115
0.00123027
0.00124221
0.00347948
0.00324137
0.00303128
0.00284477
0.00267824
0.00252879
0.00239401
0.00227193
0.00216091
0.00205957
0.00196678
0.00188158
0.0018032
0.00173103
0.00166459
0.00160354
0.00154765
0.00149677
0.00145079
0.00140964
0.00137323
0.00134141
0.001314
0.00129075
0.00127132
0.00125537
0.00124248
0.00123224
0.00122425
0.00121812
0.00121349
0.00121005
0.00120755
0.00120575
0.00120448
0.0012036
0.001203
0.00120259
0.00120232
0.00120215
0.00120204
0.00120197
0.00120193
0.00120191
0.00120191
0.00120192
0.00120195
0.00120201
0.00120212
0.00120229
0.00120257
0.00120303
0.00120378
0.00120499
0.0012069
0.00120988
0.00121436
0.00122087
0.00122971
0.00124111
0.00347948
0.00324137
0.00303128
0.00284476
0.00267823
0.00252878
0.00239399
0.00227191
0.00216089
0.00205955
0.00196675
0.00188155
0.00180317
0.00173099
0.00166455
0.00160351
0.00154762
0.00149674
0.00145076
0.00140961
0.0013732
0.00134139
0.00131398
0.00129073
0.00127131
0.00125536
0.00124247
0.00123224
0.00122424
0.00121811
0.00121349
0.00121005
0.00120755
0.00120575
0.00120448
0.0012036
0.001203
0.00120259
0.00120232
0.00120215
0.00120204
0.00120197
0.00120193
0.00120191
0.00120191
0.00120192
0.00120195
0.00120201
0.00120212
0.00120229
0.00120257
0.00120303
0.00120377
0.00120498
0.00120688
0.00120983
0.00121425
0.00122064
0.00122925
0.00124022
0.00347948
0.00324137
0.00303127
0.00284476
0.00267823
0.00252877
0.00239398
0.0022719
0.00216087
0.00205953
0.00196673
0.00188152
0.00180314
0.00173097
0.00166453
0.00160348
0.00154759
0.00149671
0.00145074
0.00140959
0.00137318
0.00134137
0.00131397
0.00129072
0.0012713
0.00125535
0.00124246
0.00123223
0.00122424
0.00121811
0.00121348
0.00121005
0.00120755
0.00120575
0.00120448
0.0012036
0.001203
0.00120259
0.00120232
0.00120215
0.00120204
0.00120197
0.00120193
0.00120191
0.00120191
0.00120192
0.00120195
0.00120201
0.00120212
0.00120229
0.00120257
0.00120303
0.00120377
0.00120497
0.00120686
0.00120979
0.00121417
0.00122046
0.00122889
0.00123952
0.00347948
0.00324137
0.00303127
0.00284475
0.00267822
0.00252876
0.00239397
0.00227189
0.00216086
0.00205951
0.00196671
0.00188151
0.00180312
0.00173095
0.00166451
0.00160347
0.00154758
0.0014967
0.00145072
0.00140958
0.00137317
0.00134136
0.00131396
0.00129071
0.00127129
0.00125534
0.00124246
0.00123223
0.00122424
0.00121811
0.00121348
0.00121005
0.00120755
0.00120575
0.00120448
0.0012036
0.001203
0.00120259
0.00120232
0.00120215
0.00120204
0.00120197
0.00120193
0.00120191
0.00120191
0.00120192
0.00120195
0.00120201
0.00120212
0.00120229
0.00120257
0.00120302
0.00120377
0.00120496
0.00120685
0.00120976
0.00121411
0.00122034
0.00122864
0.001239
0.00347948
0.00324137
0.00303127
0.00284475
0.00267822
0.00252876
0.00239397
0.00227188
0.00216085
0.00205951
0.00196671
0.0018815
0.00180312
0.00173094
0.0016645
0.00160346
0.00154757
0.00149669
0.00145072
0.00140957
0.00137316
0.00134135
0.00131395
0.0012907
0.00127129
0.00125534
0.00124246
0.00123223
0.00122424
0.00121811
0.00121348
0.00121005
0.00120755
0.00120575
0.00120448
0.0012036
0.001203
0.00120259
0.00120232
0.00120215
0.00120204
0.00120197
0.00120193
0.00120191
0.00120191
0.00120192
0.00120195
0.00120201
0.00120212
0.00120229
0.00120257
0.00120302
0.00120377
0.00120496
0.00120684
0.00120974
0.00121408
0.00122026
0.00122848
0.00123867
0.00347948
0.00324137
0.00303127
0.00284475
0.00267822
0.00252876
0.00239397
0.00227188
0.00216085
0.00205951
0.00196671
0.0018815
0.00180312
0.00173094
0.0016645
0.00160346
0.00154757
0.00149669
0.00145072
0.00140957
0.00137316
0.00134135
0.00131395
0.0012907
0.00127129
0.00125534
0.00124246
0.00123222
0.00122424
0.00121811
0.00121348
0.00121005
0.00120755
0.00120575
0.00120448
0.0012036
0.001203
0.00120259
0.00120232
0.00120215
0.00120204
0.00120197
0.00120193
0.00120191
0.00120191
0.00120192
0.00120195
0.00120201
0.00120211
0.00120229
0.00120257
0.00120302
0.00120377
0.00120496
0.00120684
0.00120974
0.00121407
0.00122024
0.00122841
0.0012385
0.00347948
0.00324137
0.00303127
0.00284475
0.00267822
0.00252876
0.00239397
0.00227189
0.00216086
0.00205951
0.00196671
0.00188151
0.00180312
0.00173095
0.00166451
0.00160347
0.00154758
0.0014967
0.00145072
0.00140958
0.00137317
0.00134136
0.00131396
0.00129071
0.00127129
0.00125534
0.00124246
0.00123223
0.00122424
0.00121811
0.00121348
0.00121005
0.00120755
0.00120575
0.00120448
0.0012036
0.001203
0.00120259
0.00120232
0.00120215
0.00120204
0.00120197
0.00120193
0.00120191
0.00120191
0.00120192
0.00120195
0.00120201
0.00120211
0.00120229
0.00120257
0.00120302
0.00120377
0.00120496
0.00120684
0.00120975
0.00121409
0.00122027
0.00122845
0.00123851
0.00347948
0.00324137
0.00303127
0.00284476
0.00267823
0.00252877
0.00239398
0.0022719
0.00216087
0.00205953
0.00196673
0.00188152
0.00180314
0.00173097
0.00166453
0.00160348
0.00154759
0.00149671
0.00145074
0.00140959
0.00137318
0.00134137
0.00131397
0.00129072
0.0012713
0.00125535
0.00124246
0.00123223
0.00122424
0.00121811
0.00121348
0.00121005
0.00120755
0.00120575
0.00120448
0.0012036
0.001203
0.00120259
0.00120232
0.00120215
0.00120204
0.00120197
0.00120193
0.00120191
0.00120191
0.00120192
0.00120195
0.00120201
0.00120211
0.00120229
0.00120257
0.00120302
0.00120377
0.00120496
0.00120685
0.00120977
0.00121413
0.00122035
0.00122858
0.00123869
0.00347948
0.00324137
0.00303128
0.00284476
0.00267823
0.00252878
0.00239399
0.00227191
0.00216089
0.00205955
0.00196675
0.00188155
0.00180317
0.00173099
0.00166455
0.00160351
0.00154762
0.00149674
0.00145076
0.00140962
0.0013732
0.00134139
0.00131398
0.00129073
0.00127131
0.00125536
0.00124247
0.00123223
0.00122424
0.00121811
0.00121348
0.00121005
0.00120755
0.00120575
0.00120448
0.0012036
0.001203
0.00120259
0.00120232
0.00120215
0.00120204
0.00120197
0.00120193
0.00120191
0.00120191
0.00120192
0.00120195
0.00120201
0.00120211
0.00120228
0.00120257
0.00120302
0.00120377
0.00120496
0.00120686
0.0012098
0.00121419
0.00122048
0.00122881
0.00123905
0.00347948
0.00324137
0.00303128
0.00284477
0.00267824
0.00252879
0.00239401
0.00227193
0.00216091
0.00205957
0.00196678
0.00188158
0.0018032
0.00173103
0.00166459
0.00160354
0.00154765
0.00149677
0.00145079
0.00140964
0.00137323
0.00134141
0.001314
0.00129075
0.00127132
0.00125537
0.00124248
0.00123224
0.00122425
0.00121811
0.00121348
0.00121005
0.00120755
0.00120575
0.00120448
0.0012036
0.001203
0.00120259
0.00120232
0.00120215
0.00120204
0.00120197
0.00120193
0.00120191
0.00120191
0.00120192
0.00120195
0.00120201
0.00120211
0.00120228
0.00120257
0.00120302
0.00120377
0.00120497
0.00120688
0.00120984
0.00121429
0.00122067
0.00122915
0.00123961
0.00347948
0.00324137
0.00303128
0.00284478
0.00267826
0.00252881
0.00239404
0.00227196
0.00216094
0.00205961
0.00196682
0.00188162
0.00180324
0.00173107
0.00166463
0.00160359
0.0015477
0.00149681
0.00145083
0.00140968
0.00137326
0.00134144
0.00131403
0.00129077
0.00127134
0.00125538
0.00124249
0.00123225
0.00122425
0.00121812
0.00121349
0.00121005
0.00120755
0.00120575
0.00120448
0.0012036
0.001203
0.00120259
0.00120232
0.00120215
0.00120204
0.00120197
0.00120193
0.00120191
0.00120191
0.00120192
0.00120195
0.00120201
0.00120211
0.00120228
0.00120257
0.00120302
0.00120377
0.00120498
0.0012069
0.00120989
0.00121441
0.00122092
0.0012296
0.00124037
0.00347948
0.00324137
0.00303129
0.00284479
0.00267827
0.00252883
0.00239406
0.002272
0.00216098
0.00205965
0.00196686
0.00188167
0.00180329
0.00173112
0.00166469
0.00160364
0.00154775
0.00149686
0.00145088
0.00140972
0.0013733
0.00134148
0.00131406
0.00129079
0.00127136
0.0012554
0.0012425
0.00123226
0.00122426
0.00121812
0.00121349
0.00121005
0.00120755
0.00120575
0.00120448
0.0012036
0.001203
0.00120259
0.00120232
0.00120215
0.00120204
0.00120197
0.00120193
0.00120191
0.00120191
0.00120192
0.00120195
0.00120201
0.00120211
0.00120228
0.00120257
0.00120303
0.00120378
0.00120499
0.00120692
0.00120996
0.00121455
0.00122123
0.00123017
0.00124136
0.00347948
0.00324137
0.00303129
0.0028448
0.00267829
0.00252886
0.0023941
0.00227204
0.00216103
0.0020597
0.00196692
0.00188173
0.00180336
0.00173119
0.00166475
0.0016037
0.00154781
0.00149692
0.00145094
0.00140978
0.00137335
0.00134152
0.0013141
0.00129082
0.00127139
0.00125542
0.00124252
0.00123227
0.00122427
0.00121813
0.00121349
0.00121006
0.00120755
0.00120575
0.00120448
0.0012036
0.001203
0.00120259
0.00120232
0.00120215
0.00120204
0.00120197
0.00120193
0.00120191
0.00120191
0.00120192
0.00120195
0.00120201
0.00120211
0.00120228
0.00120257
0.00120303
0.00120378
0.001205
0.00120696
0.00121003
0.00121473
0.0012216
0.00123086
0.00124261
0.00347948
0.00324137
0.0030313
0.00284481
0.00267832
0.00252889
0.00239414
0.00227208
0.00216108
0.00205977
0.00196699
0.0018818
0.00180343
0.00173126
0.00166483
0.00160378
0.00154789
0.00149699
0.001451
0.00140984
0.0013734
0.00134157
0.00131414
0.00129086
0.00127142
0.00125544
0.00124253
0.00123228
0.00122428
0.00121813
0.0012135
0.00121006
0.00120755
0.00120575
0.00120448
0.0012036
0.001203
0.00120259
0.00120232
0.00120215
0.00120204
0.00120197
0.00120193
0.00120191
0.00120191
0.00120192
0.00120195
0.00120201
0.00120211
0.00120228
0.00120257
0.00120303
0.00120378
0.00120501
0.00120699
0.00121012
0.00121493
0.00122205
0.00123169
0.00124414
0.00347948
0.00324138
0.00303131
0.00284483
0.00267835
0.00252893
0.00239419
0.00227214
0.00216115
0.00205984
0.00196706
0.00188188
0.00180351
0.00173135
0.00166492
0.00160387
0.00154797
0.00149707
0.00145108
0.00140991
0.00137347
0.00134163
0.00131419
0.0012909
0.00127145
0.00125547
0.00124256
0.0012323
0.00122429
0.00121814
0.0012135
0.00121006
0.00120755
0.00120575
0.00120448
0.0012036
0.001203
0.00120259
0.00120232
0.00120215
0.00120204
0.00120197
0.00120193
0.00120191
0.00120191
0.00120192
0.00120195
0.00120201
0.00120211
0.00120228
0.00120257
0.00120303
0.00120379
0.00120503
0.00120703
0.00121022
0.00121516
0.00122256
0.00123267
0.00124601
0.00347948
0.00324138
0.00303132
0.00284485
0.00267838
0.00252897
0.00239424
0.00227221
0.00216122
0.00205992
0.00196715
0.00188197
0.00180361
0.00173145
0.00166502
0.00160397
0.00154807
0.00149717
0.00145117
0.00140999
0.00137355
0.00134169
0.00131425
0.00129095
0.00127149
0.0012555
0.00124258
0.00123232
0.0012243
0.00121815
0.00121351
0.00121007
0.00120756
0.00120576
0.00120448
0.0012036
0.001203
0.00120259
0.00120232
0.00120215
0.00120204
0.00120197
0.00120193
0.00120191
0.00120191
0.00120192
0.00120195
0.00120201
0.00120211
0.00120228
0.00120257
0.00120303
0.0012038
0.00120505
0.00120707
0.00121033
0.00121541
0.00122316
0.00123381
0.00124828
0.00347948
0.00324138
0.00303134
0.00284488
0.00267842
0.00252902
0.0023943
0.00227228
0.00216131
0.00206001
0.00196725
0.00188208
0.00180373
0.00173157
0.00166513
0.00160408
0.00154818
0.00149728
0.00145127
0.00141009
0.00137363
0.00134177
0.00131431
0.00129101
0.00127154
0.00125554
0.00124261
0.00123234
0.00122432
0.00121816
0.00121352
0.00121007
0.00120756
0.00120576
0.00120448
0.0012036
0.001203
0.00120259
0.00120232
0.00120215
0.00120204
0.00120197
0.00120193
0.00120191
0.00120191
0.00120192
0.00120195
0.00120201
0.00120211
0.00120228
0.00120257
0.00120303
0.0012038
0.00120506
0.00120712
0.00121045
0.0012157
0.00122383
0.00123513
0.00125102
0.00347949
0.00324139
0.00303135
0.00284491
0.00267847
0.00252909
0.00239438
0.00227237
0.00216141
0.00206012
0.00196737
0.00188221
0.00180386
0.0017317
0.00166527
0.00160422
0.00154831
0.0014974
0.00145139
0.0014102
0.00137373
0.00134186
0.00131439
0.00129107
0.00127159
0.00125558
0.00124264
0.00123236
0.00122434
0.00121817
0.00121353
0.00121008
0.00120756
0.00120576
0.00120449
0.0012036
0.001203
0.00120259
0.00120232
0.00120215
0.00120204
0.00120197
0.00120193
0.00120191
0.00120191
0.00120192
0.00120195
0.00120201
0.00120211
0.00120228
0.00120257
0.00120304
0.00120381
0.00120508
0.00120717
0.00121058
0.00121602
0.0012246
0.00123665
0.00125435
0.00347949
0.0032414
0.00303137
0.00284495
0.00267852
0.00252916
0.00239447
0.00227247
0.00216152
0.00206025
0.00196751
0.00188235
0.001804
0.00173185
0.00166542
0.00160437
0.00154846
0.00149755
0.00145153
0.00141032
0.00137385
0.00134196
0.00131448
0.00129115
0.00127165
0.00125563
0.00124268
0.00123239
0.00122435
0.00121819
0.00121354
0.00121008
0.00120757
0.00120576
0.00120449
0.0012036
0.001203
0.00120259
0.00120232
0.00120215
0.00120204
0.00120197
0.00120193
0.00120191
0.00120191
0.00120192
0.00120195
0.00120201
0.00120211
0.00120228
0.00120257
0.00120304
0.00120381
0.0012051
0.00120722
0.00121072
0.00121636
0.00122547
0.00123838
0.00125842
0.00347949
0.00324141
0.0030314
0.002845
0.00267859
0.00252924
0.00239457
0.00227259
0.00216165
0.00206039
0.00196766
0.00188251
0.00180417
0.00173203
0.0016656
0.00160455
0.00154863
0.00149771
0.00145168
0.00141047
0.00137398
0.00134208
0.00131458
0.00129123
0.00127172
0.00125568
0.00124272
0.00123242
0.00122438
0.0012182
0.00121354
0.00121009
0.00120757
0.00120576
0.00120449
0.0012036
0.001203
0.00120259
0.00120232
0.00120215
0.00120203
0.00120197
0.00120193
0.00120191
0.0012019
0.00120192
0.00120195
0.00120201
0.00120211
0.00120228
0.00120257
0.00120304
0.00120382
0.00120512
0.00120727
0.00121086
0.00121673
0.00122645
0.00124037
0.00126343
0.00347949
0.00324142
0.00303143
0.00284505
0.00267866
0.00252934
0.00239469
0.00227273
0.00216181
0.00206056
0.00196784
0.0018827
0.00180437
0.00173223
0.0016658
0.00160474
0.00154883
0.0014979
0.00145186
0.00141063
0.00137412
0.0013422
0.00131469
0.00129132
0.00127179
0.00125573
0.00124276
0.00123244
0.00122439
0.00121821
0.00121355
0.00121009
0.00120757
0.00120576
0.00120448
0.00120359
0.00120299
0.00120258
0.00120231
0.00120214
0.00120203
0.00120196
0.00120192
0.0012019
0.0012019
0.00120191
0.00120194
0.001202
0.0012021
0.00120227
0.00120256
0.00120303
0.00120382
0.00120513
0.00120731
0.001211
0.00121712
0.00122753
0.00124265
0.00126967
0.00347949
0.00324143
0.00303147
0.00284512
0.00267876
0.00252946
0.00239483
0.00227289
0.00216199
0.00206075
0.00196805
0.00188292
0.0018046
0.00173245
0.00166603
0.00160497
0.00154904
0.00149809
0.00145203
0.00141078
0.00137425
0.00134231
0.00131477
0.00129138
0.00127182
0.00125575
0.00124275
0.00123243
0.00122436
0.00121817
0.00121351
0.00121005
0.00120752
0.00120571
0.00120443
0.00120355
0.00120294
0.00120253
0.00120226
0.00120209
0.00120198
0.00120191
0.00120187
0.00120185
0.00120185
0.00120186
0.00120189
0.00120195
0.00120206
0.00120223
0.00120251
0.00120299
0.00120378
0.0012051
0.00120732
0.00121111
0.0012175
0.00122871
0.00124524
0.00127755
0.00347949
0.00324145
0.00303152
0.0028452
0.00267887
0.0025296
0.002395
0.00227308
0.0021622
0.00206098
0.00196829
0.00188317
0.00180484
0.0017327
0.00166625
0.00160517
0.00154921
0.00149823
0.00145212
0.00141083
0.00137424
0.00134225
0.00131466
0.00129123
0.00127165
0.00125554
0.00124253
0.0012322
0.00122413
0.00121794
0.00121328
0.00120982
0.0012073
0.00120549
0.00120421
0.00120332
0.00120272
0.00120231
0.00120204
0.00120187
0.00120176
0.00120169
0.00120165
0.00120163
0.00120163
0.00120164
0.00120167
0.00120174
0.00120184
0.00120201
0.0012023
0.00120278
0.00120357
0.00120491
0.00120717
0.00121106
0.00121775
0.00122985
0.00124811
0.00128763
0.00347949
0.00324148
0.00303159
0.00284531
0.00267901
0.00252978
0.00239521
0.00227332
0.00216246
0.00206126
0.00196857
0.00188343
0.00180508
0.00173288
0.00166636
0.00160519
0.00154911
0.001498
0.00145176
0.00141031
0.00137359
0.00134148
0.00131379
0.00129028
0.00127066
0.00125454
0.00124153
0.00123122
0.00122318
0.00121702
0.00121238
0.00120894
0.00120643
0.00120463
0.00120337
0.00120249
0.00120189
0.00120148
0.00120121
0.00120104
0.00120093
0.00120086
0.00120082
0.00120081
0.0012008
0.00120082
0.00120085
0.00120091
0.00120102
0.00120119
0.00120148
0.00120197
0.00120277
0.00120412
0.00120643
0.00121042
0.00121744
0.00123052
0.00125094
0.00130043
0.0034795
0.00324152
0.00303169
0.00284547
0.00267924
0.00253008
0.00239558
0.00227376
0.00216294
0.00206175
0.00196903
0.0018838
0.0018053
0.00173288
0.00166609
0.00160458
0.00154812
0.0014966
0.00144995
0.00140812
0.00137106
0.00133868
0.00131082
0.00128725
0.00126764
0.00125161
0.00123873
0.00122855
0.00122065
0.00121461
0.00121007
0.0012067
0.00120425
0.0012025
0.00120126
0.00120039
0.0011998
0.00119941
0.00119914
0.00119897
0.00119886