/*--------------------------------*- C++ -*----------------------------------*\
| =========                 |                                                 |
| \\      /  F ield         | OpenFOAM: The Open Source CFD Toolbox           |
|  \\    /   O peration     | Version:  2.4.0                                 |
|   \\  /    A nd           | Web:      www.OpenFOAM.org                      |
|    \\/     M anipulation  |                                                 |
\*---------------------------------------------------------------------------*/
FoamFile
{
    version     2.0;
    format      ascii;
    class       volScalarField;
    location    "2.17";
    object      p;
}
// * * * * * * * * * * * * * * * * * * * * * * * * * * * * * * * * * * * * * //

dimensions      [0 2 -2 0 0 0 0];

internalField   nonuniform List<scalar> 
6000
(
0.233193
0.227779
0.225285
0.224418
0.223535
0.222445
0.221361
0.220359
0.219416
0.21851
0.217634
0.216792
0.215981
0.215197
0.214437
0.213697
0.212974
0.212265
0.211569
0.210884
0.210207
0.209538
0.208876
0.20822
0.20757
0.206925
0.206286
0.205654
0.20503
0.204414
0.203808
0.203216
0.202638
0.20208
0.201546
0.201041
0.200573
0.200151
0.199786
0.199495
0.199294
0.199209
0.199268
0.199509
0.199981
0.200741
0.201867
0.203451
0.205613
0.208498
0.212285
0.217194
0.223484
0.23145
0.241433
0.253678
0.268599
0.285476
0.305976
0.320777
0.229254
0.226995
0.225238
0.224413
0.2236
0.222584
0.221531
0.220533
0.219584
0.218665
0.217776
0.216918
0.216093
0.215297
0.214526
0.213776
0.213045
0.212329
0.211627
0.210936
0.210254
0.209581
0.208915
0.208255
0.207602
0.206954
0.206313
0.205678
0.205051
0.204434
0.203827
0.203232
0.202653
0.202094
0.201558
0.201052
0.200583
0.20016
0.199794
0.1995
0.199298
0.199209
0.199265
0.199502
0.199967
0.200721
0.201838
0.203411
0.205559
0.208425
0.21219
0.21707
0.223325
0.231248
0.241181
0.253377
0.268276
0.285148
0.305941
0.320567
0.229102
0.227489
0.225552
0.224442
0.223565
0.222547
0.221484
0.220479
0.219532
0.218621
0.21774
0.21689
0.216073
0.215283
0.214517
0.213772
0.213045
0.212333
0.211634
0.210946
0.210266
0.209595
0.208931
0.208273
0.207621
0.206975
0.206334
0.205701
0.205074
0.204457
0.203849
0.203254
0.202675
0.202114
0.201577
0.201069
0.200597
0.200171
0.199802
0.199504
0.199297
0.199203
0.199251
0.199479
0.199934
0.200673
0.201772
0.203323
0.205442
0.208271
0.211987
0.216802
0.222971
0.230777
0.240554
0.252539
0.26716
0.283675
0.304101
0.318043
0.228449
0.227053
0.225311
0.224238
0.22342
0.222471
0.221451
0.220473
0.219547
0.218651
0.217779
0.216933
0.216116
0.215324
0.214555
0.213806
0.213074
0.212357
0.211654
0.210961
0.210278
0.209604
0.208937
0.208276
0.207622
0.206974
0.206333
0.205699
0.205072
0.204454
0.203847
0.203252
0.202673
0.202112
0.201575
0.201066
0.200593
0.200165
0.199793
0.199491
0.199278
0.199176
0.199214
0.199429
0.199865
0.200583
0.201653
0.203166
0.205237
0.208004
0.211639
0.216349
0.22238
0.230004
0.239536
0.251197
0.265374
0.281317
0.300885
0.313893
0.227892
0.226808
0.225308
0.224235
0.223398
0.222466
0.221461
0.220488
0.219564
0.21867
0.217798
0.216952
0.216133
0.215341
0.214571
0.21382
0.213087
0.21237
0.211665
0.210972
0.210288
0.209613
0.208945
0.208284
0.207629
0.206981
0.206339
0.205703
0.205076
0.204457
0.203849
0.203252
0.202671
0.202109
0.201569
0.201057
0.20058
0.200148
0.19977
0.199461
0.199239
0.199126
0.19915
0.199346
0.19976
0.200447
0.201479
0.202943
0.20495
0.207635
0.211163
0.215734
0.221582
0.228966
0.238182
0.249428
0.263048
0.278295
0.296784
0.30886
0.227423
0.226568
0.225242
0.224166
0.223316
0.222412
0.221436
0.220478
0.219563
0.218677
0.217811
0.216969
0.216153
0.215361
0.21459
0.213839
0.213105
0.212386
0.211679
0.210984
0.210299
0.209622
0.208953
0.208291
0.207635
0.206985
0.206342
0.205706
0.205078
0.204458
0.203848
0.203251
0.202668
0.202104
0.201562
0.201047
0.200566
0.200129
0.199745
0.199428
0.199195
0.199068
0.199075
0.199249
0.199634
0.200284
0.201269
0.202673
0.204602
0.207185
0.210583
0.214983
0.220608
0.2277
0.23653
0.247275
0.260229
0.274665
0.29193
0.303157
0.227019
0.226327
0.225151
0.224101
0.223251
0.222374
0.221424
0.220479
0.219571
0.21869
0.217828
0.216988
0.216173
0.21538
0.214609
0.213857
0.213121
0.2124
0.211692
0.210995
0.210308
0.20963
0.20896
0.208297
0.20764
0.206989
0.206346
0.205709
0.205079
0.204459
0.203848
0.203249
0.202665
0.202098
0.201553
0.201035
0.20055
0.200107
0.199715
0.199389
0.199145
0.199003
0.19899
0.199139
0.199492
0.200102
0.201035
0.202371
0.204212
0.206683
0.209934
0.214142
0.219515
0.226276
0.234669
0.244842
0.257036
0.27055
0.286467
0.29693
0.226667
0.226093
0.22505
0.224041
0.223193
0.222334
0.221407
0.220475
0.219574
0.218699
0.217842
0.217004
0.21619
0.215397
0.214626
0.213872
0.213135
0.212413
0.211704
0.211006
0.210318
0.209639
0.208967
0.208303
0.207645
0.206994
0.206349
0.205711
0.205081
0.204459
0.203847
0.203246
0.20266
0.202091
0.201543
0.201021
0.200531
0.200082
0.199682
0.199346
0.199088
0.19893
0.198895
0.199017
0.199336
0.199901
0.200776
0.202039
0.203786
0.206134
0.209226
0.213228
0.218331
0.224739
0.232666
0.24223
0.253612
0.266136
0.280624
0.290354
0.226357
0.225873
0.224945
0.22398
0.223137
0.222293
0.221389
0.22047
0.219577
0.218707
0.217854
0.217019
0.216206
0.215414
0.214642
0.213888
0.213149
0.212426
0.211715
0.211016
0.210327
0.209646
0.208974
0.208308
0.207649
0.206997
0.206351
0.205713
0.205081
0.204458
0.203845
0.203243
0.202654
0.202083
0.201531
0.201005
0.20051
0.200054
0.199646
0.199298
0.199026
0.198849
0.198792
0.198884
0.199165
0.199682
0.200495
0.201678
0.203323
0.20554
0.208462
0.212245
0.217065
0.223104
0.230549
0.239488
0.250044
0.261566
0.274613
0.28356
0.226083
0.225667
0.224836
0.223918
0.223084
0.222254
0.221369
0.220465
0.219579
0.218714
0.217865
0.217033
0.216221
0.215429
0.214657
0.213902
0.213162
0.212438
0.211726
0.211025
0.210335
0.209653
0.20898
0.208313
0.207653
0.207
0.206354
0.205714
0.205081
0.204457
0.203842
0.203238
0.202648
0.202073
0.201518
0.200987
0.200486
0.200023
0.199605
0.199246
0.198959
0.198762
0.19868
0.198741
0.198981
0.199445
0.200192
0.20129
0.202826
0.204903
0.207646
0.211198
0.215721
0.221377
0.228328
0.236635
0.246367
0.256902
0.268553
0.276633
0.22584
0.225478
0.224729
0.223857
0.223034
0.222217
0.22135
0.220459
0.21958
0.21872
0.217875
0.217046
0.216235
0.215443
0.21467
0.213915
0.213175
0.212449
0.211736
0.211034
0.210343
0.20966
0.208985
0.208318
0.207657
0.207003
0.206355
0.205715
0.205081
0.204455
0.203839
0.203233
0.20264
0.202062
0.201504
0.200968
0.200461
0.199989
0.199562
0.199189
0.198886
0.198669
0.19856
0.198586
0.198783
0.199192
0.199868
0.200876
0.202296
0.204226
0.20678
0.210091
0.214304
0.219566
0.226011
0.23368
0.242594
0.252167
0.262493
0.269638
0.225624
0.225304
0.224623
0.223796
0.222987
0.222181
0.221331
0.220452
0.219581
0.218726
0.217884
0.217057
0.216247
0.215456
0.214683
0.213927
0.213186
0.212459
0.211745
0.211042
0.21035
0.209666
0.20899
0.208322
0.20766
0.207005
0.206357
0.205715
0.20508
0.204453
0.203835
0.203227
0.202631
0.202051
0.201488
0.200947
0.200433
0.199953
0.199515
0.199129
0.198808
0.198569
0.198431
0.198422
0.198573
0.198924
0.199525
0.200438
0.201737
0.203512
0.205869
0.208928
0.212822
0.217677
0.223608
0.230634
0.238739
0.24737
0.256452
0.262634
0.225431
0.225145
0.224522
0.223736
0.222943
0.222148
0.221311
0.220445
0.219581
0.21873
0.217892
0.217067
0.216259
0.215468
0.214695
0.213938
0.213196
0.212469
0.211754
0.21105
0.210356
0.209672
0.208995
0.208326
0.207663
0.207007
0.206358
0.205715
0.205079
0.20445
0.20383
0.20322
0.202622
0.202038
0.201471
0.200924
0.200404
0.199915
0.199465
0.199065
0.198725
0.198463
0.198296
0.198249
0.198351
0.198641
0.199164
0.199977
0.201149
0.202763
0.204915
0.207713
0.211277
0.215716
0.221125
0.227506
0.234811
0.242521
0.250436
0.255668
0.225261
0.225
0.224426
0.223678
0.222902
0.222116
0.221293
0.220438
0.21958
0.218734
0.217899
0.217076
0.216269
0.215479
0.214705
0.213948
0.213206
0.212477
0.211761
0.211057
0.210362
0.209677
0.208999
0.208329
0.207666
0.207009
0.206358
0.205714
0.205077
0.204447
0.203825
0.203213
0.202612
0.202024
0.201452
0.2009
0.200372
0.199874
0.199412
0.198997
0.198638
0.198351
0.198153
0.198066
0.198118
0.198344
0.198785
0.199495
0.200535
0.201981
0.20392
0.206451
0.209676
0.213691
0.218571
0.224305
0.23082
0.237629
0.244449
0.248767
0.225109
0.22487
0.224337
0.223623
0.222864
0.222088
0.221275
0.220431
0.21958
0.218737
0.217905
0.217084
0.216278
0.215488
0.214715
0.213957
0.213214
0.212485
0.211768
0.211063
0.210368
0.209681
0.209003
0.208332
0.207668
0.20701
0.206358
0.205713
0.205074
0.204443
0.203819
0.203205
0.2026
0.202009
0.201432
0.200874
0.200339
0.199831
0.199357
0.198926
0.198547
0.198235
0.198004
0.197876
0.197876
0.198035
0.198391
0.198993
0.199896
0.201169
0.20289
0.205144
0.208022
0.211605
0.215952
0.221038
0.226773
0.232703
0.238494
0.241943
0.224975
0.224754
0.224254
0.223572
0.222828
0.222061
0.221258
0.220423
0.219579
0.21874
0.21791
0.217092
0.216287
0.215497
0.214724
0.213966
0.213222
0.212492
0.211775
0.211069
0.210372
0.209685
0.209006
0.208334
0.207669
0.20701
0.206358
0.205712
0.205072
0.204439
0.203813
0.203196
0.202589
0.201993
0.201412
0.200847
0.200304
0.199786
0.199299
0.198852
0.198452
0.198113
0.197849
0.197678
0.197624
0.197713
0.197982
0.198473
0.199236
0.20033
0.201826
0.203797
0.206322
0.209467
0.213274
0.217712
0.222677
0.227748
0.232569
0.235198
0.224858
0.224651
0.22418
0.223524
0.222796
0.222037
0.221243
0.220416
0.219577
0.218742
0.217915
0.217098
0.216294
0.215505
0.214731
0.213973
0.213229
0.212499
0.211781
0.211074
0.210377
0.209689
0.209009
0.208336
0.20767
0.207011
0.206357
0.20571
0.205068
0.204434
0.203806
0.203186
0.202576
0.201977
0.20139
0.200819
0.200267
0.199739
0.199239
0.198774
0.198354
0.197987
0.197689
0.197474
0.197363
0.197382
0.197561
0.197937
0.198555
0.199467
0.200732
0.202415
0.20458
0.20728
0.210546
0.214335
0.21854
0.222771
0.226671
0.228529
0.224756
0.224561
0.224113
0.22348
0.222766
0.222016
0.221229
0.22041
0.219576
0.218744
0.217919
0.217103
0.2163
0.215512
0.214738
0.21398
0.213235
0.212504
0.211785
0.211078
0.21038
0.209691
0.209011
0.208338
0.207671
0.207011
0.206356
0.205707
0.205065
0.204428
0.203799
0.203176
0.202563
0.201959
0.201367
0.20079
0.20023
0.19969
0.199177
0.198695
0.198252
0.197858
0.197523
0.197263
0.197095
0.197041
0.197127
0.197386
0.197856
0.198581
0.199612
0.201001
0.202801
0.205052
0.207771
0.210913
0.214365
0.217773
0.220798
0.221927
0.224668
0.224483
0.224054
0.223441
0.22274
0.221997
0.221217
0.220404
0.219575
0.218745
0.217922
0.217108
0.216306
0.215518
0.214744
0.213985
0.213241
0.212509
0.21179
0.211081
0.210383
0.209694
0.209013
0.208339
0.207671
0.20701
0.206355
0.205705
0.205061
0.204423
0.203791
0.203166
0.202549
0.201941
0.201344
0.20076
0.200191
0.19964
0.199113
0.198613
0.198148
0.197724
0.197353
0.197047
0.19682
0.196691
0.196683
0.196823
0.197141
0.197676
0.198468
0.199559
0.200989
0.202786
0.204957
0.207451
0.210158
0.212759
0.214944
0.215382
0.224594
0.224416
0.224003
0.223408
0.222717
0.22198
0.221206
0.220398
0.219573
0.218746
0.217925
0.217112
0.216311
0.215523
0.214749
0.21399
0.213245
0.212513
0.211793
0.211085
0.210386
0.209696
0.209014
0.208339
0.207671
0.207009
0.206353
0.205702
0.205056
0.204416
0.203782
0.203155
0.202534
0.201922
0.20132
0.200728
0.20015
0.199589
0.199047
0.198529
0.198041
0.197588
0.19718
0.196826
0.196539
0.196335
0.19623
0.196248
0.196414
0.196755
0.197305
0.198093
0.199149
0.200489
0.202109
0.203955
0.205922
0.207727
0.209102
0.208881
0.224533
0.224361
0.223961
0.223379
0.222698
0.221967
0.221197
0.220394
0.219572
0.218747
0.217927
0.217115
0.216315
0.215527
0.214753
0.213994
0.213249
0.212516
0.211796
0.211087
0.210388
0.209697
0.209015
0.208339
0.207671
0.207008
0.20635
0.205698
0.205051
0.20441
0.203774
0.203143
0.202519
0.201903
0.201295
0.200696
0.200109
0.199536
0.19898
0.198443
0.197931
0.197449
0.197003
0.196601
0.196254
0.195972
0.19577
0.195665
0.195674
0.19582
0.196125
0.196608
0.197287
0.198166
0.199233
0.20043
0.201661
0.20268
0.203267
0.20241
0.224485
0.224318
0.223928
0.223356
0.222683
0.221956
0.221189
0.22039
0.219571
0.218748
0.217929
0.217118
0.216318
0.21553
0.214757
0.213997
0.213252
0.212519
0.211798
0.211089
0.210389
0.209698
0.209015
0.208339
0.20767
0.207006
0.206348
0.205695
0.205046
0.204403
0.203764
0.203131
0.202504
0.201883
0.201269
0.200663
0.200067
0.199483
0.198911
0.198356
0.197821
0.197308
0.196824
0.196373
0.195964
0.195604
0.195304
0.195074
0.194926
0.194875
0.194932
0.195107
0.195406
0.195822
0.196333
0.19688
0.197376
0.197614
0.19743
0.195954
0.224449
0.224285
0.223902
0.223339
0.222671
0.221947
0.221184
0.220387
0.21957
0.218748
0.21793
0.21712
0.21632
0.215532
0.214759
0.213999
0.213254
0.212521
0.2118
0.21109
0.21039
0.209698
0.209015
0.208339
0.207668
0.207004
0.206345
0.20569
0.205041
0.204396
0.203755
0.203119
0.202488
0.201862
0.201243
0.20063
0.200025
0.199428
0.198842
0.198268
0.197708
0.197165
0.196642
0.196143
0.195672
0.195233
0.194833
0.194477
0.194172
0.193921
0.193729
0.193595
0.193512
0.193463
0.193415
0.19331
0.193072
0.19253
0.191583
0.189499
0.224426
0.224264
0.223885
0.223327
0.222663
0.221942
0.22118
0.220385
0.21957
0.218749
0.217931
0.217121
0.216321
0.215534
0.21476
0.214001
0.213255
0.212522
0.211801
0.21109
0.21039
0.209698
0.209014
0.208338
0.207667
0.207002
0.206342
0.205686
0.205035
0.204388
0.203745
0.203106
0.202472
0.201842
0.201216
0.200596
0.199981
0.199373
0.198772
0.198179
0.197595
0.197021
0.196459
0.195911
0.195377
0.194859
0.194359
0.193877
0.193413
0.192963
0.192521
0.192076
0.191609
0.191092
0.190484
0.189725
0.188748
0.187426
0.185717
0.183026
0.224414
0.224253
0.223877
0.223321
0.222659
0.221939
0.221178
0.220384
0.219569
0.218749
0.217931
0.217122
0.216322
0.215535
0.214761
0.214001
0.213255
0.212522
0.211801
0.21109
0.21039
0.209698
0.209013
0.208336
0.207665
0.206999
0.206338
0.205681
0.205029
0.20438
0.203735
0.203093
0.202455
0.201821
0.201189
0.200562
0.199938
0.199318
0.198701
0.198089
0.197481
0.196877
0.196276
0.195678
0.195081
0.194484
0.193884
0.193276
0.192652
0.192002
0.19131
0.190554
0.189703
0.188717
0.187546
0.186128
0.184409
0.182298
0.179822
0.17652
0.224414
0.224253
0.223877
0.223321
0.222659
0.221939
0.221178
0.220384
0.219569
0.218749
0.217931
0.217121
0.216322
0.215534
0.214761
0.214001
0.213255
0.212522
0.2118
0.21109
0.210389
0.209696
0.209012
0.208334
0.207662
0.206996
0.206334
0.205676
0.205022
0.204372
0.203725
0.20308
0.202438
0.201799
0.201162
0.200527
0.199894
0.199262
0.198631
0.197999
0.197367
0.196732
0.196092
0.195444
0.194785
0.194109
0.193409
0.192674
0.191891
0.191042
0.1901
0.189032
0.187797
0.186341
0.184605
0.182524
0.180054
0.177144
0.173889
0.169963
0.224425
0.224264
0.223885
0.223327
0.222663
0.221942
0.22118
0.220385
0.21957
0.218748
0.217931
0.217121
0.216321
0.215533
0.21476
0.214
0.213254
0.212521
0.211799
0.211088
0.210387
0.209695
0.20901
0.208332
0.20766
0.206992
0.20633
0.205671
0.205016
0.204364
0.203714
0.203067
0.202421
0.201778
0.201135
0.200492
0.19985
0.199206
0.19856
0.197909
0.197253
0.196587
0.195908
0.195211
0.19449
0.193735
0.192935
0.192075
0.191134
0.190085
0.188894
0.187516
0.185897
0.18397
0.181666
0.178917
0.175687
0.171962
0.167907
0.163335
0.224449
0.224285
0.223902
0.223339
0.222671
0.221947
0.221183
0.220387
0.21957
0.218748
0.21793
0.217119
0.216319
0.215532
0.214758
0.213998
0.213252
0.212519
0.211797
0.211086
0.210385
0.209693
0.209008
0.208329
0.207656
0.206989
0.206325
0.205666
0.205009
0.204355
0.203703
0.203053
0.202404
0.201756
0.201107
0.200458
0.199806
0.19915
0.198489
0.19782
0.197139
0.196443
0.195725
0.19498
0.194196
0.193363
0.192465
0.191479
0.190381
0.189135
0.187696
0.186009
0.184007
0.18161
0.178737
0.175313
0.17131
0.166749
0.161866
0.156617
0.224485
0.224318
0.223927
0.223356
0.222683
0.221955
0.221189
0.22039
0.219571
0.218747
0.217928
0.217117
0.216317
0.215529
0.214755
0.213995
0.213249
0.212516
0.211795
0.211084
0.210383
0.20969
0.209005
0.208326
0.207653
0.206985
0.206321
0.20566
0.205002
0.204346
0.203692
0.20304
0.202387
0.201734
0.20108
0.200423
0.199762
0.199095
0.198419
0.19773
0.197026
0.196299
0.195544
0.19475
0.193906
0.192995
0.191998
0.19089
0.189636
0.188194
0.186509
0.184516
0.182132
0.179266
0.175821
0.171715
0.166925
0.161503
0.155754
0.149788
0.224533
0.224361
0.223961
0.223379
0.222698
0.221966
0.221196
0.220393
0.219572
0.218747
0.217926
0.217115
0.216313
0.215525
0.214751
0.213992
0.213246
0.212513
0.211791
0.211081
0.21038
0.209687
0.209002
0.208323
0.207649
0.20698
0.206316
0.205654
0.204995
0.204338
0.203681
0.203026
0.20237
0.201713
0.201053
0.200389
0.199718
0.19904
0.198349
0.197642
0.196914
0.196158
0.195365
0.194523
0.193618
0.192631
0.191538
0.190308
0.1889
0.187265
0.185338
0.18304
0.180278
0.176943
0.172925
0.16813
0.162534
0.156222
0.14956
0.142827
0.224594
0.224416
0.224003
0.223408
0.222717
0.22198
0.221205
0.220398
0.219573
0.218746
0.217924
0.217111
0.216309
0.215521
0.214747
0.213987
0.213242
0.212509
0.211787
0.211077
0.210376
0.209683
0.208998
0.208319
0.207645
0.206976
0.20631
0.205648
0.204987
0.204329
0.20367
0.203012
0.202353
0.201691
0.201026
0.200355
0.199675
0.198985
0.19828
0.197555
0.196804
0.196019
0.195188
0.1943
0.193336
0.192274
0.191085
0.189735
0.188176
0.18635
0.184184
0.181587
0.17845
0.174648
0.170055
0.164563
0.158142
0.150903
0.143272
0.13571
0.224668
0.224482
0.224054
0.223441
0.22274
0.221996
0.221216
0.220403
0.219574
0.218744
0.217921
0.217107
0.216304
0.215516
0.214742
0.213982
0.213236
0.212504
0.211783
0.211073
0.210372
0.209679
0.208994
0.208315
0.207641
0.206971
0.206305
0.205641
0.20498
0.204319
0.203659
0.202998
0.202336
0.20167
0.200999
0.200321
0.199633
0.198932
0.198212
0.19747
0.196696
0.195882
0.195015
0.194081
0.193058
0.191923
0.190641
0.189173
0.187466
0.185454
0.183053
0.18016
0.176652
0.172387
0.167218
0.161021
0.153753
0.145547
0.136878
0.128413
0.224756
0.224561
0.224113
0.22348
0.222766
0.222015
0.221229
0.220409
0.219575
0.218743
0.217918
0.217102
0.216299
0.215509
0.214735
0.213976
0.213231
0.212498
0.211778
0.211068
0.210367
0.209675
0.208989
0.20831
0.207636
0.206966
0.206299
0.205635
0.204972
0.20431
0.203648
0.202985
0.202319
0.201649
0.200972
0.200288
0.199591
0.198879
0.198146
0.197386
0.19659
0.195748
0.194846
0.193866
0.192787
0.19158
0.190208
0.188625
0.186773
0.184578
0.181947
0.178764
0.17489
0.170166
0.164422
0.157512
0.149373
0.140154
0.130367
0.120909
0.224858
0.224651
0.224179
0.223524
0.222795
0.222037
0.221242
0.220416
0.219577
0.218741
0.217914
0.217096
0.216292
0.215502
0.214728
0.213969
0.213224
0.212492
0.211772
0.211062
0.210362
0.20967
0.208985
0.208305
0.207631
0.206961
0.206293
0.205628
0.204964
0.204301
0.203637
0.202971
0.202302
0.201628
0.200947
0.200255
0.19955
0.198827
0.198081
0.197304
0.196486
0.195617
0.194681
0.193658
0.192523
0.191246
0.189785
0.188091
0.186098
0.183725
0.180869
0.177402
0.173169
0.167991
0.161673
0.154042
0.145008
0.134725
0.123727
0.113172
0.224975
0.224754
0.224254
0.223571
0.222828
0.222061
0.221258
0.220423
0.219578
0.218739
0.217909
0.21709
0.216284
0.215494
0.21472
0.213961
0.213216
0.212485
0.211765
0.211056
0.210356
0.209664
0.208979
0.2083
0.207626
0.206955
0.206287
0.205621
0.204957
0.204292
0.203626
0.202958
0.202286
0.201607
0.200921
0.200223
0.19951
0.198777
0.198018
0.197224
0.196386
0.19549
0.19452
0.193455
0.192267
0.190922
0.189376
0.187574
0.185444
0.182898
0.179823
0.17608
0.171495
0.16587
0.15898
0.150622
0.140667
0.129264
0.116946
0.105173
0.225109
0.22487
0.224336
0.223623
0.222863
0.222087
0.221274
0.22043
0.219579
0.218736
0.217903
0.217083
0.216276
0.215485
0.214711
0.213952
0.213208
0.212477
0.211758
0.211049
0.21035
0.209658
0.208974
0.208295
0.20762
0.206949
0.206281
0.205615
0.204949
0.204283
0.203615
0.202945
0.202269
0.201587
0.200896
0.200192
0.199471
0.198728
0.197956
0.197147
0.196289
0.195367
0.194365
0.19326
0.19202
0.19061
0.188981
0.187074
0.184813
0.1821
0.178813
0.174801
0.169874
0.163808
0.156352
0.147262
0.136358
0.123778
0.110013
0.0968801
0.22526
0.225
0.224426
0.223678
0.222902
0.222116
0.221292
0.220437
0.219579
0.218733
0.217897
0.217074
0.216266
0.215475
0.214701
0.213943
0.213199
0.212468
0.21175
0.211042
0.210343
0.209652
0.208968
0.208289
0.207614
0.206943
0.206275
0.205608
0.204941
0.204274
0.203604
0.202932
0.202253
0.201568
0.200872
0.200162
0.199434
0.198681
0.197897
0.197072
0.196195
0.195249
0.194216
0.193071
0.191783
0.19031
0.188602
0.186594
0.184206
0.181332
0.177842
0.17357
0.168309
0.161815
0.153797
0.143973
0.132095
0.118273
0.102919
0.0882621
0.225431
0.225144
0.224522
0.223736
0.222943
0.222147
0.221311
0.220445
0.21958
0.218729
0.21789
0.217065
0.216256
0.215464
0.21469
0.213932
0.213189
0.212459
0.211741
0.211034
0.210336
0.209645
0.208961
0.208283
0.207608
0.206937
0.206268
0.205601
0.204933
0.204264
0.203594
0.202919
0.202238
0.201549
0.200849
0.200133
0.199398
0.198636
0.19784
0.197001
0.196105
0.195136
0.194074
0.192891
0.191555
0.190023
0.188239
0.186136
0.183626
0.180599
0.176913
0.17239
0.166809
0.159896
0.151327
0.140768
0.127892
0.112763
0.0956561
0.079286
0.225623
0.225303
0.224623
0.223795
0.222987
0.222181
0.22133
0.220452
0.21958
0.218724
0.217882
0.217055
0.216244
0.215452
0.214678
0.21392
0.213178
0.212449
0.211732
0.211025
0.210328
0.209638
0.208955
0.208276
0.207602
0.206931
0.206262
0.205593
0.204925
0.204255
0.203583
0.202906
0.202223
0.201531
0.200826
0.200105
0.199363
0.198592
0.197786
0.196933
0.196019
0.195028
0.193938
0.19272
0.191339
0.18975
0.187894
0.1857
0.183074
0.179901
0.176028
0.171267
0.165377
0.158059
0.148951
0.137661
0.123765
0.107264
0.0882191
0.0699176
0.225839
0.225477
0.224728
0.223856
0.223034
0.222216
0.221349
0.220458
0.219579
0.218719
0.217873
0.217043
0.216231
0.215439
0.214665
0.213908
0.213166
0.212438
0.211722
0.211016
0.21032
0.20963
0.208947
0.20827
0.207596
0.206924
0.206255
0.205586
0.204917
0.204247
0.203573
0.202894
0.202208
0.201513
0.200804
0.200078
0.199329
0.198551
0.197734
0.196868
0.195938
0.194926
0.193809
0.192558
0.191135
0.189492
0.187568
0.185287
0.182553
0.179241
0.175192
0.170204
0.164019
0.156313
0.14668
0.134669
0.119735
0.101796
0.0806075
0.0601223
0.226082
0.225667
0.224836
0.223918
0.223083
0.222254
0.221369
0.220464
0.219578
0.218713
0.217863
0.21703
0.216217
0.215425
0.214651
0.213895
0.213153
0.212426
0.211711
0.211007
0.210311
0.209622
0.20894
0.208262
0.207589
0.206918
0.206248
0.205579
0.204909
0.204238
0.203563
0.202882
0.202194
0.201496
0.200783
0.200053
0.199298
0.198512
0.197685
0.196806
0.195861
0.194829
0.193688
0.192406
0.190943
0.189249
0.187262
0.184901
0.182064
0.178622
0.174407
0.169205
0.162741
0.154666
0.144527
0.131807
0.115826
0.0963878
0.0728273
0.0498654
0.226356
0.225872
0.224944
0.223979
0.223136
0.222293
0.221388
0.220469
0.219576
0.218706
0.217852
0.217017
0.216202
0.21541
0.214636
0.21388
0.21314
0.212414
0.2117
0.210996
0.210301
0.209614
0.208932
0.208255
0.207582
0.206911
0.206241
0.205572
0.204902
0.204229
0.203553
0.202871
0.202181
0.20148
0.200764
0.200028
0.199268
0.198475
0.197639
0.196749
0.195789
0.194739
0.193575
0.192264
0.190764
0.189024
0.186977
0.18454
0.181608
0.178045
0.173675
0.168274
0.161549
0.153124
0.142502
0.129096
0.112066
0.0910741
0.0648942
0.039113
0.226666
0.226093
0.22505
0.22404
0.223192
0.222333
0.221406
0.220474
0.219573
0.218697
0.217839
0.217001
0.216186
0.215393
0.21462
0.213865
0.213126
0.212401
0.211688
0.210985
0.210292
0.209605
0.208924
0.208248
0.207575
0.206904
0.206234
0.205565
0.204894
0.204221
0.203543
0.20286
0.202168
0.201464
0.200745
0.200006
0.19924
0.19844
0.197596
0.196695
0.195722
0.194655
0.19347
0.192132
0.190599
0.188815
0.186713
0.184208
0.181188
0.177513
0.173
0.167414
0.160447
0.151697
0.140621
0.126555
0.108488
0.0858998
0.0568389
0.0278301
0.227019
0.226326
0.22515
0.224101
0.223251
0.222373
0.221423
0.220478
0.21957
0.218688
0.217826
0.216985
0.216169
0.215376
0.214603
0.213849
0.213111
0.212387
0.211675
0.210974
0.210281
0.209596
0.208916
0.20824
0.207567
0.206897
0.206227
0.205558
0.204886
0.204213
0.203534
0.202849
0.202155
0.201449
0.200727
0.199984
0.199214
0.198408
0.197556
0.196646
0.19566
0.194579
0.193374
0.192012
0.190448
0.188625
0.186474
0.183905
0.180805
0.177028
0.172386
0.166632
0.159443
0.150394
0.138897
0.124211
0.105134
0.0809248
0.04872
0.0159852
0.227423
0.226568
0.225242
0.224166
0.223315
0.222411
0.221435
0.220477
0.219562
0.218675
0.217809
0.216966
0.216149
0.215356
0.214584
0.213831
0.213095
0.212372
0.211662
0.210963
0.210271
0.209586
0.208907
0.208232
0.20756
0.20689
0.206221
0.205551
0.204879
0.204205
0.203525
0.202839
0.202144
0.201436
0.200711
0.199965
0.19919
0.198378
0.19752
0.196601
0.195604
0.194509
0.193287
0.191904
0.190312
0.188455
0.186258
0.183633
0.180461
0.176594
0.171834
0.16593
0.158542
0.149225
0.137345
0.122086
0.102049
0.0762202
0.0406285
0.0035635
0.227891
0.226807
0.225308
0.224234
0.223397
0.222465
0.22146
0.220487
0.219563
0.218668
0.217795
0.216949
0.21613
0.215336
0.214564
0.213812
0.213077
0.212356
0.211648
0.210949
0.210259
0.209576
0.208898
0.208224
0.207552
0.206883
0.206214
0.205544
0.204872
0.204197
0.203517
0.20283
0.202133
0.201423
0.200696
0.199947
0.199168
0.198352
0.197487
0.19656
0.195554
0.194447
0.19321
0.191807
0.190192
0.188304
0.186067
0.183393
0.180159
0.176211
0.171349
0.165313
0.157751
0.148197
0.135979
0.120208
0.0992862
0.0718727
0.0326949
-0.0094646
0.228449
0.227053
0.22531
0.224237
0.22342
0.22247
0.22145
0.220472
0.219546
0.218649
0.217776
0.21693
0.216112
0.215319
0.214549
0.213798
0.213063
0.212344
0.211636
0.210938
0.210249
0.209566
0.208889
0.208215
0.207544
0.206875
0.206206
0.205536
0.204864
0.204189
0.203509
0.202821
0.202123
0.201412
0.200683
0.199931
0.19915
0.198329
0.197459
0.196526
0.195512
0.194394
0.193144
0.191725
0.190089
0.188176
0.185906
0.183189
0.179902
0.175888
0.170942
0.164796
0.157091
0.147342
0.134843
0.11864
0.096955
0.0680648
0.0252238
-0.0232024
0.229102
0.227489
0.225551
0.224442
0.223565
0.222547
0.221483
0.220477
0.21953
0.218619
0.217737
0.216887
0.216069
0.215278
0.214511
0.213764
0.213034
0.212319
0.211616
0.210922
0.210237
0.209557
0.208882
0.208211
0.207542
0.206873
0.206205
0.205535
0.204863
0.204187
0.203505
0.202815
0.202115
0.201402
0.20067
0.199914
0.199129
0.198304
0.197429
0.196489
0.195468
0.194341
0.193081
0.19165
0.189998
0.188064
0.185773
0.183027
0.179703
0.175642
0.170636
0.164412
0.156604
0.146714
0.134011
0.117486
0.0952199
0.0650944
0.018813
-0.0378253
0.229254
0.226994
0.225238
0.224413
0.223599
0.222583
0.22153
0.220532
0.219582
0.218663
0.217773
0.216915
0.216089
0.215292
0.214519
0.213767
0.213034
0.212315
0.211609
0.210912
0.210224
0.209542
0.208866
0.208192
0.207521
0.206851
0.206181
0.205511
0.204838
0.204161
0.203479
0.202789
0.202088
0.201374
0.200642
0.199886
0.1991
0.198274
0.197397
0.196456
0.195431
0.194302
0.193038
0.191601
0.189942
0.187997
0.185693
0.182929
0.179584
0.175496
0.170457
0.164189
0.156321
0.146347
0.133523
0.1168
0.0941798
0.0631856
0.0142687
-0.053009
0.233193
0.227779
0.225285
0.224417
0.223534
0.222445
0.22136
0.220357
0.219414
0.218508
0.217632
0.216789
0.215977
0.215192
0.21443
0.213688
0.212962
0.212251
0.211551
0.21086
0.210177
0.209499
0.208826
0.208156
0.207489
0.206822
0.206154
0.205486
0.204815
0.204139
0.203458
0.20277
0.20207
0.201356
0.200624
0.199868
0.199081
0.198255
0.197377
0.196434
0.195408
0.194276
0.19301
0.191576
0.18992
0.187974
0.185667
0.1829
0.179549
0.175455
0.170406
0.164127
0.156243
0.146245
0.133382
0.116592
0.0938403
0.0624911
0.0121596
-0.0633438
0.377353
0.295792
0.235871
0.20715
0.187845
0.169984
0.155546
0.145873
0.139829
0.136025
0.133674
0.132492
0.132305
0.132971
0.134454
0.136847
0.140502
0.14601
0.154061
0.147509
0.127827
0.101693
0.0716771
0.037755
-0.000447021
-0.0432862
-0.0914508
-0.146021
-0.208261
-0.279006
-0.356188
-0.433771
-0.501916
-0.53619
-0.523116
-0.464229
-0.38005
-0.298202
-0.224787
-0.155716
-0.0954247
-0.0474085
-0.00947564
0.0146892
0.0165345
0.014822
0.0147243
0.0141716
0.0125555
0.0107481
0.00920609
0.00788763
0.00671316
0.00567651
0.00478235
0.00401564
0.00338299
0.0028401
0.00256955
0.00141958
0.372711
0.289808
0.230949
0.204241
0.185739
0.168234
0.154171
0.144819
0.139036
0.135451
0.133181
0.132052
0.131896
0.132574
0.13406
0.136447
0.140077
0.14525
0.151363
0.14375
0.123435
0.0971053
0.0672238
0.0336914
-0.00381737
-0.0455569
-0.0920786
-0.144268
-0.202832
-0.267098
-0.334514
-0.398296
-0.452708
-0.484565
-0.480283
-0.43826
-0.374002
-0.304701
-0.233497
-0.163928
-0.102559
-0.0529012
-0.0137004
0.0117263
0.0148325
0.0138241
0.0139623
0.013609
0.0121872
0.010496
0.00901542
0.00774027
0.00660026
0.00558881
0.0047124
0.00395737
0.003334
0.0027872
0.00251171
0.00138971
0.365103
0.285438
0.228312
0.202733
0.184583
0.167304
0.153518
0.144402
0.138756
0.135039
0.132788
0.131665
0.131492
0.132138
0.133576
0.135894
0.139359
0.143941
0.148708
0.140711
0.120567
0.0945118
0.0650107
0.0320098
-0.0047317
-0.0453539
-0.0902444
-0.140004
-0.194901
-0.253998
-0.314854
-0.372347
-0.423528
-0.452736
-0.447258
-0.413452
-0.360049
-0.298864
-0.233311
-0.166319
-0.105069
-0.0554182
-0.0162249
0.00968323
0.0134566
0.0129468
0.0133059
0.0131149
0.0118409
0.0102389
0.0088089
0.00757269
0.0064647
0.00547705
0.00461787
0.00387462
0.00326046
0.00271185
0.00243293
0.00138668
0.35576
0.280984
0.225263
0.200425
0.182779
0.165884
0.152422
0.143524
0.137957
0.134422
0.132244
0.131133
0.130941
0.131545
0.132917
0.135122
0.138336
0.142279
0.145693
0.137245
0.117165
0.091335
0.0622546
0.0299181
-0.00584851
-0.0450795
-0.0880013
-0.13496
-0.185905
-0.239654
-0.293669
-0.343162
-0.385217
-0.410055
-0.409768
-0.385184
-0.341788
-0.288883
-0.230851
-0.168544
-0.108412
-0.0581512
-0.0184221
0.00797693
0.0122668
0.0122013
0.0127834
0.0127316
0.011582
0.0100557
0.00866544
0.0074581
0.00637365
0.00540293
0.00455513
0.00381859
0.00320869
0.00265528
0.00237803
0.0013563
0.345218
0.276036
0.221977
0.19781
0.180795
0.164393
0.151299