/*--------------------------------*- C++ -*----------------------------------*\
| =========                 |                                                 |
| \\      /  F ield         | OpenFOAM: The Open Source CFD Toolbox           |
|  \\    /   O peration     | Version:  2.4.0                                 |
|   \\  /    A nd           | Web:      www.OpenFOAM.org                      |
|    \\/     M anipulation  |                                                 |
\*---------------------------------------------------------------------------*/
FoamFile
{
    version     2.0;
    format      ascii;
    class       volScalarField;
    location    "120";
    object      nut;
}
// * * * * * * * * * * * * * * * * * * * * * * * * * * * * * * * * * * * * * //

dimensions      [0 2 -1 0 0 0 0];

internalField   nonuniform List<scalar> 
10000
(
0.00240061
0.00238827
0.00237677
0.0023656
0.00235471
0.00234482
0.00233663
0.00233012
0.00232511
0.00232143
0.00231898
0.00231764
0.00231732
0.00231783
0.00231843
0.00231557
0.00229312
0.00218333
0.00174931
0.000690277
0.00240061
0.00238828
0.00237678
0.00236562
0.00235474
0.00234485
0.00233667
0.00233018
0.00232518
0.00232152
0.00231908
0.00231776
0.00231747
0.00231802
0.00231874
0.00231663
0.002299
0.00221945
0.00194778
0.00131092
0.00240061
0.00238828
0.00237678
0.00236561
0.00235473
0.00234483
0.00233663
0.00233011
0.00232508
0.00232139
0.00231891
0.00231754
0.00231719
0.00231771
0.00231855
0.00231746
0.00230597
0.00225754
0.0021106
0.00178974
0.00240061
0.00238827
0.00237677
0.0023656
0.0023547
0.00234477
0.00233652
0.00232994
0.00232484
0.00232106
0.00231849
0.00231702
0.00231656
0.00231697
0.00231786
0.00231771
0.00231146
0.00228533
0.00221216
0.00206223
0.00240061
0.00238827
0.00237676
0.00236558
0.00235465
0.00234467
0.00233636
0.00232969
0.00232448
0.00232059
0.00231787
0.00231625
0.00231562
0.00231588
0.00231673
0.00231725
0.00231462
0.00230211
0.00226802
0.00220042
0.00240061
0.00238827
0.00237675
0.00236555
0.00235459
0.00234455
0.00233615
0.00232938
0.00232404
0.00231999
0.00231711
0.00231529
0.00231445
0.00231449
0.00231523
0.00231611
0.00231566
0.00231067
0.00229611
0.00226686
0.00240061
0.00238826
0.00237673
0.00236552
0.00235453
0.00234443
0.00233593
0.00232903
0.00232355
0.00231932
0.00231624
0.0023142
0.00231311
0.0023129
0.00231344
0.00231442
0.00231508
0.00231394
0.00230878
0.00229721
0.00240061
0.00238826
0.00237673
0.00236549
0.00235447
0.0023443
0.0023357
0.00232867
0.00232302
0.00231861
0.00231531
0.00231302
0.00231167
0.00231117
0.00231145
0.00231233
0.00231344
0.00231408
0.00231323
0.00230971
0.00240061
0.00238826
0.00237672
0.00236548
0.00235443
0.00234419
0.00233547
0.0023283
0.00232249
0.00231788
0.00231436
0.00231182
0.00231018
0.00230938
0.00230936
0.00231001
0.00231116
0.00231247
0.00231345
0.00231345
0.00240062
0.00238827
0.00237672
0.00236547
0.0023544
0.00234409
0.00233527
0.00232796
0.00232198
0.00231717
0.00231342
0.00231063
0.0023087
0.00230759
0.00230725
0.0023076
0.00230856
0.00230997
0.00231156
0.00231295
0.00240062
0.00238827
0.00237673
0.00236548
0.00235439
0.00234403
0.00233509
0.00232765
0.0023215
0.00231651
0.00231253
0.00230948
0.00230728
0.00230586
0.00230518
0.00230519
0.00230585
0.00230707
0.0023087
0.00231047
0.00240062
0.00238828
0.00237674
0.0023655
0.00235441
0.002344
0.00233496
0.00232738
0.00232108
0.0023159
0.00231171
0.00230842
0.00230595
0.00230423
0.00230322
0.00230289
0.0023032
0.00230409
0.00230548
0.00230716
0.00240063
0.00238829
0.00237677
0.00236554
0.00235445
0.002344
0.00233487
0.00232718
0.00232073
0.00231537
0.00231099
0.00230747
0.00230474
0.00230274
0.00230141
0.00230074
0.00230068
0.00230121
0.00230224
0.00230362
0.00240064
0.00238831
0.0023768
0.0023656
0.00235453
0.00234405
0.00233484
0.00232703
0.00232045
0.00231494
0.00231037
0.00230664
0.00230367
0.00230141
0.00229979
0.00229879
0.00229838
0.00229853
0.00229917
0.00230017
0.00240064
0.00238833
0.00237684
0.00236567
0.00235464
0.00234415
0.00233487
0.00232696
0.00232025
0.0023146
0.00230986
0.00230595
0.00230277
0.00230026
0.00229837
0.00229708
0.00229634
0.00229612
0.00229637
0.00229698
0.00240065
0.00238836
0.0023769
0.00236577
0.00235478
0.0023443
0.00233496
0.00232696
0.00232015
0.00231436
0.00230948
0.00230539
0.00230202
0.0022993
0.00229718
0.00229561
0.00229457
0.00229402
0.0022939
0.00229413
0.00240066
0.00238839
0.00237696
0.00236589
0.00235496
0.00234449
0.00233511
0.00232703
0.00232013
0.00231423
0.00230922
0.00230499
0.00230145
0.00229854
0.0022962
0.0022944
0.00229309
0.00229224
0.00229179
0.00229167
0.00240068
0.00238842
0.00237704
0.00236602
0.00235517
0.00234474
0.00233532
0.00232718
0.0023202
0.00231421
0.00230908
0.00230473
0.00230105
0.00229797
0.00229545
0.00229344
0.00229189
0.00229078
0.00229004
0.0022896
0.00240069
0.00238846
0.00237712
0.00236618
0.00235541
0.00234503
0.00233561
0.00232741
0.00232036
0.00231429
0.00230907
0.00230461
0.0023008
0.00229759
0.00229491
0.00229272
0.00229098
0.00228963
0.00228864
0.00228793
0.00240071
0.0023885
0.00237721
0.00236635
0.00235568
0.00234538
0.00233595
0.00232772
0.00232061
0.00231447
0.00230918
0.00230462
0.00230072
0.00229739
0.00229458
0.00229224
0.00229032
0.00228878
0.00228757
0.00228663
0.00240072
0.00238855
0.00237731
0.00236654
0.00235598
0.00234577
0.00233637
0.0023281
0.00232094
0.00231475
0.0023094
0.00230477
0.00230078
0.00229736
0.00229444
0.00229197
0.00228991
0.00228821
0.00228682
0.00228568
0.00240074
0.0023886
0.00237742
0.00236674
0.0023563
0.0023462
0.00233684
0.00232856
0.00232137
0.00231513
0.00230973
0.00230504
0.00230098
0.00229748
0.00229447
0.00229191
0.00228973
0.0022879
0.00228636
0.00228505
0.00240076
0.00238866
0.00237754
0.00236696
0.00235665
0.00234668
0.00233739
0.0023291
0.00232188
0.00231561
0.00231017
0.00230543
0.00230132
0.00229776
0.00229468
0.00229203
0.00228976
0.00228782
0.00228616
0.00228472
0.00240078
0.00238871
0.00237766
0.00236719
0.00235702
0.00234719
0.00233799
0.00232972
0.00232249
0.00231619
0.00231071
0.00230594
0.00230179
0.00229818
0.00229504
0.00229233
0.00228998
0.00228796
0.0022862
0.00228465
0.0024008
0.00238878
0.00237779
0.00236743
0.00235741
0.00234774
0.00233865
0.00233042
0.00232318
0.00231687
0.00231136
0.00230656
0.00230238
0.00229873
0.00229555
0.00229279
0.00229039
0.00228829
0.00228645
0.00228483
0.00240083
0.00238884
0.00237793
0.00236767
0.00235782
0.00234832
0.00233936
0.0023312
0.00232397
0.00231764
0.00231212
0.0023073
0.00230309
0.00229942
0.00229621
0.00229341
0.00229096
0.00228881
0.00228692
0.00228522
0.00240085
0.0023889
0.00237806
0.00236793
0.00235824
0.00234892
0.00234012
0.00233204
0.00232485
0.00231853
0.002313
0.00230816
0.00230394
0.00230024
0.002297
0.00229417
0.00229169
0.00228951
0.00228757
0.00228582
0.00240087
0.00238897
0.00237821
0.00236819
0.00235867
0.00234954
0.00234091
0.00233296
0.00232582
0.00231952
0.00231399
0.00230915
0.00230491
0.0023012
0.00229795
0.0022951
0.00229259
0.00229038
0.0022884
0.00228662
0.0024009
0.00238904
0.00237835
0.00236846
0.0023591
0.00235017
0.00234174
0.00233393
0.00232688
0.00232061
0.0023151
0.00231026
0.00230602
0.0023023
0.00229904
0.00229618
0.00229366
0.00229143
0.00228943
0.00228762
0.00240093
0.00238912
0.0023785
0.00236873
0.00235953
0.00235081
0.00234258
0.00233495
0.00232801
0.00232181
0.00231634
0.00231151
0.00230728
0.00230356
0.0023003
0.00229743
0.0022949
0.00229266
0.00229064
0.00228882
0.00240095
0.00238919
0.00237865
0.00236899
0.00235997
0.00235145
0.00234344
0.002336
0.00232921
0.00232311
0.00231769
0.0023129
0.00230869
0.00230499
0.00230173
0.00229886
0.00229633
0.00229409
0.00229207
0.00229024
0.00240098
0.00238926
0.0023788
0.00236926
0.0023604
0.00235209
0.00234429
0.00233706
0.00233044
0.00232447
0.00231914
0.00231442
0.00231025
0.00230657
0.00230334
0.00230049
0.00229797
0.00229573
0.00229371
0.00229188
0.00240101
0.00238934
0.00237895
0.00236953
0.00236083
0.00235271
0.00234514
0.00233812
0.00233169
0.00232588
0.00232067
0.00231604
0.00231193
0.00230831
0.00230511
0.00230229
0.0022998
0.00229757
0.00229557
0.00229376
0.00240104
0.00238941
0.0023791
0.00236979
0.00236124
0.00235332
0.00234596
0.00233917
0.00233295
0.00232731
0.00232224
0.00231772
0.00231371
0.00231016
0.00230703
0.00230425
0.0023018
0.00229961
0.00229764
0.00229584
0.00240107
0.00238949
0.00237925
0.00237005
0.00236164
0.00235391
0.00234676
0.00234019
0.00233418
0.00232873
0.00232382
0.00231944
0.00231555
0.00231209
0.00230903
0.00230633
0.00230393
0.00230178
0.00229985
0.0022981
0.00240109
0.00238956
0.0023794
0.00237029
0.00236204
0.00235448
0.00234753
0.00234117
0.00233537
0.00233011
0.00232538
0.00232116
0.00231739
0.00231404
0.00231108
0.00230845
0.00230612
0.00230404
0.00230216
0.00230045
0.00240112
0.00238964
0.00237954
0.00237054
0.00236241
0.00235502
0.00234826
0.0023421
0.00233651
0.00233144
0.00232689
0.00232282
0.00231919
0.00231597
0.00231311
0.00231058
0.00230832
0.00230631
0.00230449
0.00230284
0.00240115
0.00238971
0.00237968
0.00237077
0.00236277
0.00235553
0.00234896
0.00234299
0.00233758
0.00233271
0.00232833
0.00232442
0.00232093
0.00231783
0.00231508
0.00231264
0.00231047
0.00230854
0.00230678
0.00230519
0.00240118
0.00238978
0.00237981
0.002371
0.00236311
0.00235602
0.00234961
0.00234381
0.00233859
0.00233389
0.00232968
0.00232592
0.00232257
0.00231959
0.00231695
0.00231461
0.00231253
0.00231066
0.00230898
0.00230745
0.00240121
0.00238985
0.00237995
0.00237121
0.00236344
0.00235647
0.00235021
0.00234458
0.00233952
0.00233498
0.00233093
0.00232731
0.00232409
0.00232124
0.0023187
0.00231645
0.00231445
0.00231266
0.00231104
0.00230958
0.00240123
0.00238992
0.00238007
0.00237142
0.00236374
0.0023569
0.00235078
0.00234529
0.00234038
0.00233599
0.00233208
0.00232859
0.0023255
0.00232275
0.00232031
0.00231815
0.00231623
0.00231451
0.00231295
0.00231154
0.00240126
0.00238998
0.00238019
0.00237161
0.00236403
0.0023573
0.0023513
0.00234595
0.00234117
0.00233691
0.00233313
0.00232976
0.00232677
0.00232413
0.00232178
0.0023197
0.00231785
0.00231619
0.0023147
0.00231334
0.00240129
0.00239005
0.00238031
0.0023718
0.0023643
0.00235767
0.00235178
0.00234655
0.00234189
0.00233775
0.00233408
0.00233082
0.00232793
0.00232537
0.00232311
0.0023211
0.00231932
0.00231772
0.00231628
0.00231497
0.00240131
0.00239011
0.00238042
0.00237197
0.00236455
0.00235801
0.00235222
0.00234709
0.00234255
0.00233851
0.00233494
0.00233177
0.00232897
0.00232649
0.0023243
0.00232236
0.00232063
0.00231909
0.00231769
0.00231643
0.00240134
0.00239017
0.00238052
0.00237213
0.00236479
0.00235833
0.00235263
0.00234759
0.00234314
0.0023392
0.00233571
0.00233263
0.00232991
0.0023275
0.00232537
0.00232348
0.00232181
0.00232031
0.00231895
0.00231773
0.00240136
0.00239022
0.00238062
0.00237229
0.002365
0.00235862
0.002353
0.00234804
0.00234367
0.00233981
0.0023364
0.0023334
0.00233074
0.00232839
0.00232632
0.00232448
0.00232285
0.00232139
0.00232007
0.00231888
0.00240138
0.00239027
0.00238071
0.00237243
0.00236521
0.00235888
0.00235334
0.00234845
0.00234415
0.00234037
0.00233702
0.00233408
0.00233148
0.00232919
0.00232716
0.00232537
0.00232377
0.00232235
0.00232107
0.0023199
0.0024014
0.00239032
0.0023808
0.00237256
0.00236539
0.00235913
0.00235364
0.00234882
0.00234459
0.00234086
0.00233758
0.00233469
0.00233214
0.00232989
0.00232791
0.00232615
0.00232459
0.0023232
0.00232194
0.00232081
0.00240143
0.00239037
0.00238088
0.00237268
0.00236556
0.00235935
0.00235392
0.00234916
0.00234498
0.0023413
0.00233807
0.00233523
0.00233272
0.00233051
0.00232857
0.00232684
0.00232531
0.00232395
0.00232272
0.0023216
0.00240144
0.00239042
0.00238096
0.0023728
0.00236572
0.00235955
0.00235417
0.00234946
0.00234533
0.0023417
0.00233851
0.00233571
0.00233324
0.00233107
0.00232915
0.00232745
0.00232595
0.00232461
0.0023234
0.0023223
0.00240146
0.00239046
0.00238103
0.0023729
0.00236586
0.00235974
0.0023544
0.00234973
0.00234564
0.00234205
0.0023389
0.00233613
0.0023337
0.00233156
0.00232966
0.00232799
0.00232651
0.00232519
0.002324
0.00232291
0.00240148
0.0023905
0.0023811
0.002373
0.00236599
0.00235991
0.0023546
0.00234997
0.00234592
0.00234237
0.00233925
0.00233651
0.00233411
0.00233199
0.00233012
0.00232847
0.00232701
0.0023257
0.00232452
0.00232346
0.0024015
0.00239053
0.00238116
0.00237309
0.00236611
0.00236006
0.00235479
0.00235019
0.00234617
0.00234265
0.00233956
0.00233685
0.00233447
0.00233237
0.00233052
0.00232889
0.00232744
0.00232615
0.00232499
0.00232393
0.00240151
0.00239057
0.00238121
0.00237317
0.00236622
0.0023602
0.00235496
0.00235039
0.00234639
0.0023429
0.00233983
0.00233715
0.00233478
0.00233271
0.00233087
0.00232926
0.00232783
0.00232655
0.00232539
0.00232435
0.00240153
0.0023906
0.00238126
0.00237324
0.00236632
0.00236032
0.00235511
0.00235056
0.00234659
0.00234312
0.00234008
0.00233741
0.00233506
0.002333
0.00233119
0.00232958
0.00232816
0.00232689
0.00232575
0.00232472
0.00240154
0.00239063
0.00238131
0.00237331
0.00236641
0.00236043
0.00235524
0.00235072
0.00234677
0.00234332
0.00234029
0.00233764
0.00233531
0.00233327
0.00233146
0.00232987
0.00232846
0.0023272
0.00232607
0.00232504
0.00240155
0.00239066
0.00238136
0.00237337
0.00236649
0.00236053
0.00235536
0.00235086
0.00234693
0.00234349
0.00234049
0.00233785
0.00233553
0.0023335
0.00233171
0.00233012
0.00232872
0.00232747
0.00232634
0.00232532
0.00240156
0.00239068
0.0023814
0.00237343
0.00236657
0.00236063
0.00235547
0.00235098
0.00234707
0.00234365
0.00234066
0.00233803
0.00233573
0.0023337
0.00233192
0.00233035
0.00232895
0.00232771
0.00232659
0.00232557
0.00240157
0.0023907
0.00238143
0.00237348
0.00236663
0.00236071
0.00235557
0.0023511
0.0023472
0.00234379
0.00234081
0.00233819
0.0023359
0.00233388
0.00233211
0.00233054
0.00232916
0.00232792
0.0023268
0.00232579
0.00240158
0.00239072
0.00238146
0.00237353
0.00236669
0.00236078
0.00235565
0.0023512
0.00234731
0.00234391
0.00234094
0.00233834
0.00233605
0.00233405
0.00233228
0.00233072
0.00232934
0.0023281
0.00232699
0.00232599
0.00240159
0.00239074
0.00238149
0.00237357
0.00236675
0.00236085
0.00235573
0.00235129
0.00234741
0.00234402
0.00234106
0.00233847
0.00233619
0.00233419
0.00233243
0.00233087
0.00232949
0.00232826
0.00232716
0.00232616
0.0024016
0.00239076
0.00238152
0.00237361
0.00236679
0.00236091
0.0023558
0.00235136
0.0023475
0.00234412
0.00234117
0.00233858
0.00233631
0.00233431
0.00233256
0.00233101
0.00232963
0.00232841
0.0023273
0.00232631
0.00240161
0.00239078
0.00238155
0.00237364
0.00236684
0.00236096
0.00235586
0.00235144
0.00234758
0.00234421
0.00234126
0.00233868
0.00233641
0.00233442
0.00233267
0.00233113
0.00232976
0.00232853
0.00232743
0.00232644
0.00240162
0.00239079
0.00238157
0.00237367
0.00236688
0.00236101
0.00235592
0.0023515
0.00234765
0.00234428
0.00234134
0.00233877
0.00233651
0.00233452
0.00233277
0.00233123
0.00232986
0.00232865
0.00232755
0.00232655
0.00240162
0.0023908
0.00238159
0.0023737
0.00236691
0.00236105
0.00235597
0.00235156
0.00234771
0.00234435
0.00234142
0.00233884
0.00233659
0.00233461
0.00233286
0.00233132
0.00232996
0.00232874
0.00232765
0.00232666
0.00240163
0.00239082
0.00238161
0.00237373
0.00236694
0.00236109
0.00235601
0.00235161
0.00234776
0.00234441
0.00234148
0.00233891
0.00233666
0.00233468
0.00233294
0.00233141
0.00233004
0.00232883
0.00232774
0.00232675
0.00240163
0.00239083
0.00238163
0.00237375
0.00236697
0.00236112
0.00235605
0.00235165
0.00234781
0.00234447
0.00234154
0.00233897
0.00233673
0.00233475
0.00233301
0.00233148
0.00233012
0.00232891
0.00232782
0.00232683
0.00240164
0.00239084
0.00238164
0.00237377
0.002367
0.00236115
0.00235609
0.00235169
0.00234786
0.00234451
0.00234159
0.00233903
0.00233678
0.00233481
0.00233307
0.00233154
0.00233019
0.00232897
0.00232788
0.0023269
0.00240164
0.00239084
0.00238165
0.00237379
0.00236702
0.00236118
0.00235612
0.00235173
0.0023479
0.00234456
0.00234164
0.00233908
0.00233683
0.00233486
0.00233313
0.0023316
0.00233024
0.00232903
0.00232795
0.00232696
0.00240165
0.00239085
0.00238167
0.0023738
0.00236704
0.0023612
0.00235615
0.00235176
0.00234793
0.00234459
0.00234168
0.00233912
0.00233688
0.00233491
0.00233318
0.00233165
0.00233029
0.00232909
0.002328
0.00232701
0.00240165
0.00239086
0.00238168
0.00237382
0.00236706
0.00236123
0.00235617
0.00235178
0.00234796
0.00234463
0.00234171
0.00233916
0.00233692
0.00233495
0.00233322
0.00233169
0.00233034
0.00232913
0.00232805
0.00232706
0.00240165
0.00239087
0.00238169
0.00237383
0.00236708
0.00236125
0.0023562
0.00235181
0.00234799
0.00234466
0.00234174
0.00233919
0.00233695
0.00233499
0.00233326
0.00233173
0.00233038
0.00232917
0.00232809
0.00232711
0.00240166
0.00239087
0.0023817
0.00237384
0.00236709
0.00236126
0.00235622
0.00235183
0.00234801
0.00234468
0.00234177
0.00233922
0.00233698
0.00233502
0.00233329
0.00233177
0.00233042
0.00232921
0.00232813
0.00232714
0.00240166
0.00239088
0.0023817
0.00237385
0.0023671
0.00236128
0.00235623
0.00235185
0.00234804
0.00234471
0.0023418
0.00233925
0.00233701
0.00233505
0.00233332
0.0023318
0.00233045
0.00232924
0.00232816
0.00232718
0.00240166
0.00239088
0.00238171
0.00237386
0.00236712
0.00236129
0.00235625
0.00235187
0.00234805
0.00234473
0.00234182
0.00233927
0.00233704
0.00233507
0.00233335
0.00233182
0.00233047
0.00232927
0.00232819
0.00232721
0.00240166
0.00239089
0.00238172
0.00237387
0.00236713
0.0023613
0.00235626
0.00235188
0.00234807
0.00234474
0.00234184
0.00233929
0.00233706
0.0023351
0.00233337
0.00233185
0.0023305
0.0023293
0.00232821
0.00232723
0.00240167
0.00239089
0.00238172
0.00237388
0.00236713
0.00236131
0.00235627
0.0023519
0.00234809
0.00234476
0.00234185
0.00233931
0.00233708
0.00233511
0.00233339
0.00233187
0.00233052
0.00232932
0.00232824
0.00232726
0.00240167
0.00239089
0.00238173
0.00237388
0.00236714
0.00236132
0.00235629
0.00235191
0.0023481
0.00234478
0.00234187
0.00233932
0.00233709
0.00233513
0.00233341
0.00233189
0.00233054
0.00232934
0.00232826
0.00232728
0.00240167
0.0023909
0.00238173
0.00237389
0.00236715
0.00236133
0.0023563
0.00235192
0.00234811
0.00234479
0.00234188
0.00233934
0.00233711
0.00233515
0.00233342
0.0023319
0.00233056
0.00232935
0.00232827
0.00232729
0.00240167
0.0023909
0.00238174
0.0023739
0.00236716
0.00236134
0.0023563
0.00235193
0.00234812
0.0023448
0.00234189
0.00233935
0.00233712
0.00233516
0.00233344
0.00233192
0.00233057
0.00232937
0.00232829
0.00232731
0.00240167
0.0023909
0.00238174
0.0023739
0.00236716
0.00236135
0.00235631
0.00235194
0.00234813
0.00234481
0.00234191
0.00233936
0.00233713
0.00233517
0.00233345
0.00233193
0.00233059
0.00232938
0.0023283
0.00232732
0.00240167
0.0023909
0.00238174
0.0023739
0.00236717
0.00236135
0.00235632
0.00235195
0.00234814
0.00234482
0.00234191
0.00233937
0.00233714
0.00233518
0.00233346
0.00233194
0.0023306
0.0023294
0.00232831
0.00232734
0.00240167
0.00239091
0.00238175
0.00237391
0.00236717
0.00236136
0.00235633
0.00235195
0.00234815
0.00234483
0.00234192
0.00233938
0.00233715
0.00233519
0.00233347
0.00233195
0.00233061
0.00232941
0.00232833
0.00232735
0.00240168
0.00239091
0.00238175
0.00237391
0.00236718
0.00236136
0.00235633
0.00235196
0.00234815
0.00234483
0.00234193
0.00233939
0.00233716
0.0023352
0.00233348
0.00233196
0.00233062
0.00232942
0.00232834
0.00232736
0.00240168
0.00239091
0.00238175
0.00237392
0.00236718
0.00236137
0.00235634
0.00235196
0.00234816
0.00234484
0.00234194
0.0023394
0.00233717
0.00233521
0.00233349
0.00233197
0.00233062
0.00232942
0.00232834
0.00232737
0.00240168
0.00239091
0.00238175
0.00237392
0.00236718
0.00236137
0.00235634
0.00235197
0.00234816
0.00234485
0.00234194
0.0023394
0.00233717
0.00233522
0.0023335
0.00233198
0.00233063
0.00232943
0.00232835
0.00232737
0.00240168
0.00239091
0.00238175
0.00237392
0.00236719
0.00236138
0.00235634
0.00235197
0.00234817
0.00234485
0.00234195
0.00233941
0.00233718
0.00233522
0.0023335
0.00233198
0.00233064
0.00232944
0.00232836
0.00232738
0.00240168
0.00239091
0.00238176
0.00237392
0.00236719
0.00236138
0.00235635
0.00235198
0.00234817
0.00234485
0.00234195
0.00233941
0.00233718
0.00233523
0.00233351
0.00233199
0.00233064
0.00232944
0.00232836
0.00232739
0.00240168
0.00239091
0.00238176
0.00237392
0.00236719
0.00236138
0.00235635
0.00235198
0.00234818
0.00234486
0.00234196
0.00233942
0.00233719
0.00233523
0.00233351
0.00233199
0.00233065
0.00232945
0.00232837
0.00232739
0.00240168
0.00239092
0.00238176
0.00237393
0.00236719
0.00236138
0.00235635
0.00235198
0.00234818
0.00234486
0.00234196
0.00233942
0.00233719
0.00233524
0.00233352
0.002332
0.00233065
0.00232945
0.00232837
0.0023274
0.00240168
0.00239092
0.00238176
0.00237393
0.0023672
0.00236139
0.00235636
0.00235199
0.00234818
0.00234486
0.00234196
0.00233942
0.0023372
0.00233524
0.00233352
0.002332
0.00233066
0.00232946
0.00232838
0.0023274
0.00240168
0.00239092
0.00238176
0.00237393
0.0023672
0.00236139
0.00235636
0.00235199
0.00234819
0.00234487
0.00234197
0.00233943
0.0023372
0.00233524
0.00233352
0.00233201
0.00233066
0.00232946
0.00232838
0.0023274
0.00240168
0.00239092
0.00238176
0.00237393
0.0023672
0.00236139
0.00235636
0.00235199
0.00234819
0.00234487
0.00234197
0.00233943
0.0023372
0.00233525
0.00233353
0.00233201
0.00233066
0.00232946
0.00232838
0.00232741
0.00240168
0.00239092
0.00238176
0.00237393
0.0023672
0.00236139
0.00235636
0.00235199
0.00234819
0.00234487
0.00234197
0.00233943
0.00233721
0.00233525
0.00233353
0.00233201
0.00233067
0.00232947
0.00232839
0.00232741
0.00240168
0.00239092
0.00238176
0.00237393
0.0023672
0.00236139
0.00235636
0.00235199
0.00234819
0.00234487
0.00234197
0.00233943
0.00233721
0.00233525
0.00233353
0.00233201
0.00233067
0.00232947
0.00232839
0.00232741
0.00240168
0.00239092
0.00238176
0.00237393
0.0023672
0.00236139
0.00235636
0.002352
0.00234819
0.00234488
0.00234198
0.00233944
0.00233721
0.00233525
0.00233353
0.00233202
0.00233067
0.00232947
0.00232839
0.00232742
0.00240168
0.00239092
0.00238176
0.00237393
0.0023672
0.00236139
0.00235636
0.002352
0.00234819
0.00234488
0.00234198
0.00233944
0.00233721
0.00233526
0.00233354
0.00233202
0.00233067
0.00232947
0.00232839
0.00232742
0.00240168
0.00239092
0.00238177
0.00237393
0.0023672
0.0023614
0.00235637
0.002352
0.0023482
0.00234488
0.00234198
0.00233944
0.00233721
0.00233526
0.00233354
0.00233202
0.00233068
0.00232948
0.0023284
0.00232742
0.00240168
0.00239092
0.00238177
0.00237393
0.0023672
0.0023614
0.00235637
0.002352
0.0023482
0.00234488
0.00234198
0.00233944
0.00233721
0.00233526
0.00233354
0.00233202
0.00233068
0.00232948
0.0023284
0.00232742
0.00240168
0.00239092
0.00238177
0.00237394
0.0023672
0.0023614
0.00235637
0.002352
0.0023482
0.00234488
0.00234198
0.00233944
0.00233722
0.00233526
0.00233354
0.00233202
0.00233068
0.00232948
0.0023284
0.00232742
2.52798e-05
2.22729e-05
1.98171e-05
1.78553e-05
1.62607e-05
1.49463e-05
1.38501e-05
1.29261e-05
1.21397e-05
1.14645e-05
1.088e-05
1.03703e-05
9.92243e-06
9.52643e-06
9.17408e-06
8.85875e-06
8.575e-06
8.31838e-06
8.08519e-06
7.87235e-06
7.67729e-06
7.49785e-06
7.3322e-06
7.17878e-06
7.03627e-06
6.90353e-06
6.77958e-06
6.66356e-06
6.55473e-06
6.45244e-06
6.35611e-06
6.26524e-06
6.17935e-06
6.09806e-06
6.02096e-06
5.94774e-06
5.87805e-06
5.81163e-06
5.74819e-06
5.68749e-06
5.62927e-06
5.57336e-06
5.51949e-06
5.46754e-06
5.41727e-06
5.36861e-06
5.32133e-06
5.27543e-06
5.23069e-06
5.1872e-06
5.14476e-06
5.10354e-06
5.06336e-06
5.02448e-06
4.98672e-06
4.95047e-06
4.91552e-06
4.88239e-06
4.85081e-06
4.82145e-06
4.79396e-06
4.76914e-06
4.74652e-06
4.72706e-06
4.71006e-06
4.69669e-06
4.68592e-06
4.67913e-06
4.67482e-06
4.67466e-06
4.67652e-06
4.68246e-06
4.68958e-06
4.70051e-06
4.71141e-06
4.72583e-06
4.73875e-06
4.7551e-06
4.76829e-06
4.7846e-06
0.000518739
0.00037446
0.000311115
0.000274298
0.000249627
0.000231631
0.000217758
0.000206634
0.000197449
0.000189691
0.000183016
0.000177186
0.000172029
0.000167418
0.000163256
0.00015947
0.000156002
0.000152804
0.00014984
0.00014708
0.000144498
0.000142073
0.00013979
0.000137633
0.000135589
0.000133649
0.000131803
0.000130042
0.000128361
0.000126753
0.000125211
0.000123731
0.000122308
0.000120938
0.000119615
0.000118336
0.000117097
0.000115894
0.000114723
0.00011358
0.000112463
0.000111368
0.000110291
0.000109231
0.000108184
0.00010715
0.000106126
0.000105111
0.000104106
0.000103112
0.000102129
0.00010116
0.000100207
9.92761e-05
9.83695e-05
9.74942e-05
9.6655e-05
9.58603e-05
9.51157e-05
9.44311e-05
9.38122e-05
9.327e-05
9.2809e-05
9.24402e-05
9.21653e-05
9.19941e-05
9.19231e-05
9.19595e-05
9.20924e-05
9.23256e-05
9.26393e-05
9.30353e-05
9.34851e-05
9.39915e-05
9.45193e-05
9.50777e-05
9.56257e-05
9.6182e-05
9.66974e-05
9.71422e-05
0.00130913
0.00102754
0.000857001
0.000744664
0.000665297
0.000606162
0.000560296
0.000523604
0.000493523
0.000468371
0.000446997
0.000428585
0.000412541
0.000398421
0.000385886
0.000374673
0.000364575
0.000355426
0.000347091
0.00033946
0.000332444
0.000325965
0.000319961
0.000314377
0.000309168
0.000304293
0.000299719
0.000295415
0.000291354
0.000287515
0.000283874
0.000280415
0.000277118
0.000273968
0.00027095
0.000268051
0.000265256
0.000262553
0.000259931
0.000257378
0.000254884
0.000252439
0.000250034
0.000247661
0.000245315
0.00024299
0.000240681
0.000238389
0.000236113
0.000233854
0.000231619
0.000229412
0.000227243
0.000225124
0.000223066
0.000221085
0.000219198
0.000217425
0.000215783
0.000214295
0.000212981
0.000211864
0.000210961
0.000210292
0.000209869
0.000209705
0.000209798
0.000210154
0.000210754
0.000211588
0.000212621
0.000213833
0.000215173
0.00021662
0.000218115
0.000219644
0.000221149
0.000222625
0.000224019
0.000225203
0.00182874
0.00160545
0.00142081
0.00127371
0.00115652
0.00106204
0.000984688
0.0009204
0.000866222
0.000819996
0.000780124
0.000745401
0.000714907
0.000687925
0.000663893
0.000642361
0.000622967
0.000605414
0.00058946
0.000574902
0.000561569
0.000549319
0.000538029
0.000527595
0.000517925
0.000508942
0.000500577
0.000492769
0.000485465
0.000478617
0.00047218
0.000466117
0.00046039
0.000454967
0.000449816
0.000444909
0.000440218
0.000435717
0.000431383
0.000427193
0.000423125
0.00041916
0.000415281
0.000411473
0.000407722
0.000404019
0.000400355
0.000396729
0.00039314
0.000389591
0.000386091
0.00038265
0.000379285
0.000376015
0.000372864
0.000369858
0.000367026
0.000364403
0.000362021
0.000359918
0.000358128
0.000356687
0.000355626
0.000354974
0.000354748
0.000354967
0.000355625
0.000356719
0.000358217
0.000360094
0.000362287
0.000364753
0.000367411
0.00037021
0.000373064
0.000375934
0.000378741
0.00038146
0.000384026
0.000386221
0.00209193
0.00196074
0.00182623
0.0016995
0.00158499
0.00148349
0.00139419
0.00131574
0.00124667
0.00118567
0.00113155
0.00108333
0.00104017
0.00100139
0.0009664
0.00093471
0.000905912
0.000879658
0.000855653
0.000833644
0.000813415
0.000794778
0.000777572
0.000761653
0.000746898
0.000733197
0.000720453
0.000708577
0.000697493
0.000687128
0.000677419
0.000668307
0.000659736
0.000651655
0.000644018
0.000636778
0.000629895
0.000623327
0.000617038
0.000610992
0.000605155
0.000599499
0.000593995
0.00058862
0.000583354
0.000578181
0.00057309
0.000568076
0.000563137
0.00055828
0.000553514
0.000548859
0.000544336
0.000539974
0.000535808
0.000531877
0.000528224
0.000524898
0.000521947
0.000519423
0.000517377
0.000515858
0.000514907
0.000514564
0.000514849
0.000515782
0.000517351
0.000519543
0.000522308
0.000525598
0.000529326
0.000533417
0.000537758
0.000542271
0.000546834
0.000551387
0.000555825
0.000560105
0.000564144
0.000567631
0.00221786
0.00215007
0.0020695
0.00198273
0.00189496
0.00180959
0.00172855
0.00165278
0.00158258
0.00151788
0.0014584
0.0014038
0.00135368
0.00130764
0.00126531
0.00122636
0.00119045
0.00115731
0.00112669
0.00109835
0.0010721
0.00104774
0.00102511
0.00100407
0.000984485
0.00096623
0.0009492
0.000933294
0.000918423
0.000904501
0.000891452
0.000879203
0.000867686
0.000856837
0.000846596
0.000836906
0.000827711
0.000818959
0.000810602
0.000802592
0.000794887
0.000787445
0.000780232
0.000773217
0.000766371
0.000759675
0.000753115
0.000746683
0.000740379
0.00073421
0.000728192
0.000722348
0.000716708
0.000711312
0.000706205
0.000701441
0.000697075
0.000693172
0.000689795
0.000687014
0.000684891
0.000683491
0.000682864
0.000683057
0.000684096
0.000685996
0.00068874
0.000692303
0.000696614
0.000701604
0.000707155
0.000713166
0.000719487
0.000726013
0.000732588
0.000739129
0.000745503
0.000751652
0.000757466
0.000762525
0.00227629
0.0022442
0.0022015
0.00215025
0.00209304
0.00203238
0.00197035
0.00190854
0.00184806
0.00178965
0.00173377
0.00168066
0.00163042
0.00158305
0.00153849
0.00149665
0.00145738
0.00142057
0.00138608
0.00135375
0.00132347
0.00129509
0.0012685
0.00124357
0.0012202
0.00119829
0.00117773
0.00115843
0.00114031
0.00112329
0.00110728
0.00109221
0.00107801
0.00106462
0.00105195
0.00103996
0.00102858
0.00101774
0.0010074
0.000997491
0.000987972
0.000978791
0.000969909
0.000961287
0.000952894
0.000944708
0.000936712
0.000928898
0.000921269
0.000913834
0.000906614
0.00089964
0.000892951
0.000886596
0.000880634
0.000875131
0.000870158
0.000865794
0.00086212
0.000859217
0.000857165
0.00085604
0.000855902
0.000856806
0.000858778
0.000861833
0.000865945
0.000871075
0.000877137
0.000884036
0.000891628
0.000899782
0.000908319
0.000917102
0.000925946
0.000934741
0.00094333
0.000951633
0.000959516
0.000966422
0.00230193
0.00228832
0.00226808
0.00224125
0.00220845
0.00217073
0.00212925
0.0020852
0.0020396
0.00199335
0.00194714
0.00190152
0.00185689
0.00181355
0.0017717
0.00173146
0.00169291
0.00165609
0.00162099
0.00158761
0.00155591
0.00152583
0.00149733
0.00147035
0.00144482
0.00142068
0.00139786
0.0013763
0.00135593
0.00133669
0.0013185
0.0013013
0.00128503
0.00126963
0.00125502
0.00124115
0.00122795
0.00121536
0.00120332
0.00119178
0.00118068
0.00116997
0.00115961
0.00114955
0.00113977
0.00113024
0.00112094
0.00111187
0.00110303
0.00109445
0.00108614
0.00107814
0.00107052
0.00106332
0.00105661
0.00105048
0.00104502
0.00104031
0.00103646
0.00103356
0.00103171
0.00103099
0.00103147
0.00103322
0.00103626
0.0010406
0.00104622
0.00105306
0.00106101
0.00106997
0.00107976
0.00109023