/*--------------------------------*- C++ -*----------------------------------*\
| =========                 |                                                 |
| \\      /  F ield         | OpenFOAM: The Open Source CFD Toolbox           |
|  \\    /   O peration     | Version:  2.4.0                                 |
|   \\  /    A nd           | Web:      www.OpenFOAM.org                      |
|    \\/     M anipulation  |                                                 |
\*---------------------------------------------------------------------------*/
FoamFile
{
    version     2.0;
    format      ascii;
    class       surfaceScalarField;
    location    "305";
    object      phi;
}
// * * * * * * * * * * * * * * * * * * * * * * * * * * * * * * * * * * * * * //

dimensions      [0 3 -1 0 0 0 0];

internalField   nonuniform List<scalar> 
19800
(
0.000192436
-6.89355e-08
0.000192405
3.14401e-08
0.000192407
-2.57673e-09
0.000192391
1.57416e-08
0.000192382
9.14985e-09
0.000192368
1.44054e-08
0.000192353
1.51549e-08
0.000192338
1.48677e-08
0.000192318
2.00948e-08
0.000192302
1.58121e-08
0.000192277
2.54487e-08
0.00019226
1.70369e-08
0.000192227
3.26061e-08
0.000192208
1.87842e-08
0.000192164
4.36953e-08
0.000192142
2.28988e-08
0.000192079
6.30033e-08
0.00019204
3.82667e-08
0.000191934
1.05807e-07
9.86547e-08
0.000191836
0.000197632
5.3317e-10
0.000197655
8.31641e-09
0.000197634
1.85864e-08
0.000197634
1.59339e-08
0.000197615
2.79206e-08
0.000197608
2.14837e-08
0.000197588
3.55958e-08
0.000197577
2.57982e-08
0.000197554
4.33465e-08
0.00019754
2.97003e-08
0.000197513
5.24876e-08
0.000197496
3.39861e-08
0.000197464
6.47094e-08
0.000197442
4.02071e-08
0.000197403
8.27892e-08
0.000197373
5.27802e-08
0.000197323
1.12872e-07
0.000197277
8.49731e-08
0.000197209
1.73222e-07
1.71389e-07
0.000197137
0.000203176
8.59391e-09
0.000203173
1.1738e-08
0.000203162
2.92021e-08
0.000203154
2.41615e-08
0.000203139
4.27319e-08
0.000203128
3.27515e-08
0.00020311
5.40693e-08
0.000203096
3.95178e-08
0.000203074
6.53675e-08
0.000203058
4.59153e-08
0.000203032
7.81889e-08
0.000203012
5.35899e-08
0.000202983
9.41723e-08
0.000202957
6.55849e-08
0.000202924
1.15775e-07
0.000202889
8.82145e-08
0.000202853
1.48635e-07
0.000202805
1.33092e-07
0.000202774
2.03831e-07
2.09446e-07
0.000202736
0.000208816
1.20767e-08
0.000208811
1.58154e-08
0.000208801
3.94863e-08
0.000208793
3.27234e-08
0.000208778
5.75902e-08
0.000208766
4.44654e-08
0.000208748
7.25684e-08
0.000208733
5.39327e-08
0.000208711
8.7103e-08
0.000208694
6.32638e-08
0.000208669
1.02868e-07
0.000208648
7.49419e-08
0.000208621
1.21302e-07
0.000208594
9.29492e-08
0.000208565
1.44471e-07
0.00020853
1.23387e-07
0.000208502
1.76597e-07
0.000208463
1.72082e-07
0.000208445
2.21213e-07
2.33294e-07
0.000208421
0.000214605
1.72504e-08
0.000214601
1.93966e-08
0.00021459
5.0166e-08
0.000214582
4.14851e-08
0.000214567
7.26223e-08
0.000214554
5.67091e-08
0.000214536
9.09726e-08
0.000214521
6.92511e-08
0.0002145
1.08227e-07
0.000214481
8.20291e-08
0.000214458
1.26025e-07
0.000214434
9.81976e-08
0.00021441
1.45634e-07
0.000214381
1.2176e-07
0.000214357
1.69e-07
0.000214324
1.56571e-07
0.000214301
1.9903e-07
0.000214271
2.02057e-07
0.000214258
2.34397e-07
2.45742e-07
0.000214246
0.000220552
2.61447e-08
0.000220551
2.13323e-08
0.000220539
6.19377e-08
0.00022053
4.98552e-08
0.000220515
8.82674e-08
0.000220502
6.90445e-08
0.000220484
1.096e-07
0.000220468
8.50815e-08
0.000220447
1.29022e-07
0.000220428
1.0169e-07
0.000220405
1.48102e-07
0.000220381
1.22357e-07
0.000220359
1.68063e-07
0.00022033
1.50249e-07
0.000220309
1.90803e-07
0.000220279
1.86143e-07
0.00022026
2.17797e-07
0.000220238
2.24658e-07
0.000220228
2.44317e-07
2.51903e-07
0.000220222
0.000226676
2.79266e-08
0.000226671
2.62581e-08
0.000226661
7.249e-08
0.000226651
5.95228e-08
0.000226636
1.03321e-07
0.000226622
8.25109e-08
0.000226604
1.27602e-07
0.000226587
1.0213e-07
0.000226568
1.48865e-07
0.000226547
1.22582e-07
0.000226526
1.68794e-07
0.000226501
1.47154e-07
0.00022648
1.88798e-07
0.000226453
1.77495e-07
0.000226433
2.1063e-07
0.000226408
2.11465e-07
0.000226392
2.34025e-07
0.000226375
2.4126e-07
0.000226367
2.52035e-07
2.55104e-07
0.000226364
0.000232962
2.98376e-08
0.000232957
3.13622e-08
0.000232946
8.30415e-08
0.000232936
6.96565e-08
0.000232921
1.18265e-07
0.000232907
9.66663e-08
0.00023289
1.45245e-07
0.000232872
1.20032e-07
0.000232853
1.67986e-07
0.000232831
1.44216e-07
0.000232811
1.88422e-07
0.000232787
1.71861e-07
0.000232767
2.08249e-07
0.000232742
2.02811e-07
0.000232724
2.28818e-07
0.000232702
2.32758e-07
0.000232688
2.4804e-07
0.000232676
2.53512e-07
0.00023267
2.5801e-07
2.56645e-07
0.000232669
0.000239421
3.3055e-08
0.000239416
3.63018e-08
0.000239406
9.37481e-08
0.000239395
8.01803e-08
0.00023938
1.3312e-07
0.000239365
1.11455e-07
0.000239348
1.62532e-07
0.00023933
1.38635e-07
0.000239311
1.86474e-07
0.000239289
1.66209e-07
0.00023927
2.07248e-07
0.000239246
1.95865e-07
0.000239228
2.26759e-07
0.000239205
2.25774e-07
0.000239188
2.45602e-07
0.00023917
2.5047e-07
0.000239158
2.60062e-07
0.000239149
2.62686e-07
0.000239145
2.62486e-07
2.57273e-07
0.000239144
0.00024606
3.66983e-08
0.000246055
4.13718e-08
0.000246045
1.04487e-07
0.000246034
9.11475e-08
0.000246019
1.47833e-07
0.000246004
1.26856e-07
0.000245987
1.79445e-07
0.000245968
1.57807e-07
0.00024595
2.04385e-07
0.000245928
1.88264e-07
0.000245909
2.25398e-07
0.000245886
2.18811e-07
0.000245869
2.44414e-07
0.000245848
2.46347e-07
0.000245833
2.60982e-07
0.000245818
2.65192e-07
0.000245808
2.70244e-07
0.000245801
2.69656e-07
0.000245798
2.65743e-07
2.57362e-07
0.000245798
0.000252884
4.03687e-08
0.000252879
4.67136e-08
0.000252868
1.15164e-07
0.000252857
1.02588e-07
0.000252842
1.62361e-07
0.000252826
1.42811e-07
0.00025281
1.96004e-07
0.00025279
1.77352e-07
0.000252773
2.21826e-07
0.000252751
2.10047e-07
0.000252733
2.43005e-07
0.000252712
2.40421e-07
0.000252695
2.61236e-07
0.000252677
2.64624e-07
0.000252663
2.74935e-07
0.00025265
2.77465e-07
0.000252642
2.78754e-07
0.000252637
2.75008e-07
0.000252634
2.68035e-07
2.57076e-07
0.000252635
0.000259897
4.39637e-08
0.000259892
5.23694e-08
0.000259881
1.25732e-07
0.000259869
1.14506e-07
0.000259855
1.76668e-07
0.000259838
1.5926e-07
0.000259822
2.12218e-07
0.000259802
1.97098e-07
0.000259785
2.38859e-07
0.000259764
2.31311e-07
0.000259747
2.60112e-07
0.000259727
2.60562e-07
0.000259711
2.77178e-07
0.000259695
2.80796e-07
0.000259682
2.8745e-07
0.000259672
2.87734e-07
0.000259665
2.85785e-07
0.000259661
2.79128e-07
0.000259659
2.69568e-07
2.56506e-07
0.00025966
0.000267105
4.74765e-08
0.000267099
5.83333e-08
0.000267088
1.36179e-07
0.000267076
1.26863e-07
0.000267062
1.90764e-07
0.000267045
1.76091e-07
0.000267029
2.28136e-07
0.000267009
2.16843e-07
0.000266993
2.55553e-07
0.000266972
2.51842e-07
0.000266956
2.76721e-07
0.000266937
2.79185e-07
0.000266922
2.92166e-07
0.000266908
2.95075e-07
0.000266897
2.98555e-07
0.000266888
2.96348e-07
0.000266882
2.91535e-07
0.000266879
2.82275e-07
0.000266878
2.70506e-07
2.55711e-07
0.000266879
0.000274512
5.08679e-08
0.000274506
6.46232e-08
0.000274496
1.46476e-07
0.000274483
1.39631e-07
0.000274469
2.04641e-07
0.000274452
1.93202e-07
0.000274436
2.43788e-07
0.000274417
2.36413e-07
0.0002744
2.71936e-07
0.000274381
2.71492e-07
0.000274365
2.9279e-07
0.000274347
2.96315e-07
0.000274334
3.0613e-07
0.000274321
3.07675e-07
0.000274311
3.08308e-07
0.000274304
3.03574e-07
0.000274299
2.96189e-07
0.000274297
2.84633e-07
0.000274296
2.70968e-07
2.54731e-07
0.000274297
0.000282125
5.41453e-08
0.000282119
7.12215e-08
0.000282108
1.56621e-07
0.000282095
1.52753e-07
0.000282082
2.18318e-07
0.000282064
2.10472e-07
0.000282049
2.59212e-07
0.00028203
2.55645e-07
0.000282014
2.88015e-07
0.000281995
2.9016e-07
0.000281979
3.08253e-07
0.000281964
3.12006e-07
0.000281951
3.19021e-07
0.00028194
3.18778e-07
0.000281931
3.16799e-07
0.000281925
3.09617e-07
0.000281922
2.99909e-07
0.00028192
2.86338e-07
0.00028192
2.71043e-07
2.53596e-07
0.000281921
0.000289949
5.72782e-08
0.000289942
7.81265e-08
0.000289932
1.66599e-07
0.000289919
1.66175e-07
0.000289905
2.31802e-07
0.000289888
2.27784e-07
0.000289873
2.74424e-07
0.000289854
2.74405e-07
0.000289838
3.03765e-07
0.000289821
3.07795e-07
0.000289806
3.23033e-07
0.000289792
3.2634e-07
0.00028978
3.30811e-07
0.00028977
3.28547e-07
0.000289763
3.24128e-07
0.000289758
3.1464e-07
0.000289755
3.02834e-07
0.000289754
2.87496e-07
0.000289754
2.70797e-07
2.5233e-07
0.000289755
0.00029799
6.02744e-08
0.000297983
8.53132e-08
0.000297973
1.76415e-07
0.000297959
1.79826e-07
0.000297946
2.45113e-07
0.000297929
2.45019e-07
0.000297914
2.89437e-07
0.000297896
2.92581e-07
0.00029788
3.19146e-07
0.000297864
3.2437e-07
0.00029785
3.37055e-07
0.000297837
3.39397e-07
0.000297826
3.41502e-07
0.000297817
3.37113e-07
0.000297811
3.30401e-07
0.000297807
3.18774e-07
0.000297805
3.05075e-07
0.000297804
2.88187e-07
0.000297805
2.7028e-07
2.50947e-07
0.000297806
0.000306254
6.3114e-08
0.000306247
9.27618e-08
0.000306237
1.86067e-07
0.000306223
1.93634e-07
0.00030621
2.58259e-07
0.000306193
2.62069e-07
0.000306178
3.04242e-07
0.000306161
3.10088e-07
0.000306146
3.34095e-07
0.00030613
3.39889e-07
0.000306117
3.50256e-07
0.000306105
3.51259e-07
0.000306096
3.51117e-07
0.000306088
3.44592e-07
0.000306083
3.35719e-07
0.000306079
3.22128e-07
0.000306078
3.06726e-07
0.000306077
2.88479e-07
0.000306078
2.69527e-07
2.49463e-07
0.00030608
0.000314747
6.58065e-08
0.00031474
1.00438e-07
0.00031473
1.95562e-07
0.000314716
2.07521e-07
0.000314703
2.71252e-07
0.000314686
2.78832e-07
0.000314672
3.18817e-07
0.000314655
3.26862e-07
0.000314641
3.48549e-07
0.000314626
3.54365e-07
0.000314614
3.62587e-07
0.000314603
3.61996e-07
0.000314595
3.59696e-07
0.000314588
3.51077e-07
0.000314584
3.40177e-07
0.000314581
3.24789e-07
0.00031458
3.07863e-07
0.00031458
2.88423e-07
0.000314581
2.68571e-07
2.47886e-07
0.000314582
0.000323476
6.83414e-08
0.000323468
1.08307e-07
0.000323459
2.04904e-07
0.000323445
2.21409e-07
0.000323432
2.84091e-07
0.000323416
2.9522e-07
0.000323401
3.33128e-07
0.000323385
3.42861e-07
0.000323371
3.62437e-07
0.000323358
3.67823e-07
0.000323347
3.74014e-07
0.000323337
3.71676e-07
0.000323329
3.67287e-07
0.000323324
3.56655e-07
0.00032332
3.4386e-07
0.000323318
3.26838e-07
0.000323317
3.08548e-07
0.000323318
2.88063e-07
0.000323319
2.67433e-07
2.46224e-07
0.00032332
0.000332447
7.0731e-08
0.000332439
1.16325e-07
0.000332429
2.14101e-07
0.000332416
2.35219e-07
0.000332403
2.9677e-07
0.000332387
3.11154e-07
0.000332373
3.4713e-07
0.000332358
3.58053e-07
0.000332345
3.75695e-07
0.000332332
3.80287e-07
0.000332322
3.84524e-07
0.000332313
3.80356e-07
0.000332306
3.73944e-07
0.000332302
3.61399e-07
0.000332299
3.46842e-07
0.000332297
3.28338e-07
0.000332297
3.08831e-07
0.000332297
2.87433e-07
0.000332299
2.66133e-07
2.44484e-07
0.0003323
0.000341666
7.29721e-08
0.000341658
1.2445e-07
0.000341649
2.23156e-07
0.000341635
2.48877e-07
0.000341623
3.09273e-07
0.000341607
3.26571e-07
0.000341594
3.60767e-07
0.000341579
3.72425e-07
0.000341567
3.88263e-07
0.000341555
3.91787e-07
0.000341546
3.94114e-07
0.000341538
3.8809e-07
0.000341532
3.79725e-07
0.000341528
3.65379e-07
0.000341526
3.49189e-07
0.000341525
3.29348e-07
0.000341525
3.08756e-07
0.000341526
2.86562e-07
0.000341527
2.64686e-07
2.42669e-07
0.000341529
0.000351141
7.50795e-08
0.000351133
1.32632e-07
0.000351124
2.32073e-07
0.000351111
2.62309e-07
0.000351098
3.21578e-07
0.000351084
3.41416e-07
0.00035107
3.73985e-07
0.000351057
3.85963e-07
0.000351045
4.00095e-07
0.000351034
4.02344e-07
0.000351026
4.02795e-07
0.000351019
3.94926e-07
0.000351014
3.84685e-07
0.000351011
3.68651e-07
0.000351009
3.5096e-07
0.000351008
3.29912e-07
0.000351009
3.0836e-07
0.00035101
2.85472e-07
0.000351011
2.63105e-07
2.40785e-07
0.000351013
0.000360879
7.70551e-08
0.000360871
1.40823e-07
0.000360862
2.40849e-07
0.000360849
2.75452e-07
0.000360837
3.33652e-07
0.000360823
3.55647e-07
0.00036081
3.86721e-07
0.000360797
3.98666e-07
0.000360786
4.11149e-07
0.000360777
4.11986e-07
0.000360769
4.10583e-07
0.000360763
4.00911e-07
0.000360759
3.88877e-07
0.000360756
3.71272e-07
0.000360755
3.52205e-07
0.000360755
3.30075e-07
0.000360755
3.07671e-07
0.000360757
2.84185e-07
0.000360758
2.614e-07
2.38834e-07
0.00036076
0.000370887
7.89148e-08
0.000370879
1.4897e-07
0.00037087
2.4948e-07
0.000370858
2.88244e-07
0.000370846
3.45458e-07
0.000370832
3.69227e-07
0.00037082
3.9892e-07
0.000370808
4.1053e-07
0.000370798
4.214e-07
0.000370789
4.20734e-07
0.000370782
4.17505e-07
0.000370777
4.06086e-07
0.000370774
3.92352e-07
0.000370772
3.73291e-07
0.000370771
3.52968e-07
0.000370771
3.29871e-07
0.000370772
3.06717e-07
0.000370773
2.82717e-07
0.000370775
2.5958e-07
2.36819e-07
0.000370777
0.000381173
8.06628e-08
0.000381165
1.57028e-07
0.000381156
2.57954e-07
0.000381144
3.00633e-07
0.000381132
3.56952e-07
0.000381119
3.8213e-07
0.000381108
4.10526e-07
0.000381097
4.2156e-07
0.000381087
4.30828e-07
0.000381079
4.28612e-07
0.000381073
4.23589e-07
0.000381069
4.10496e-07
0.000381066
3.95155e-07
0.000381065
3.74754e-07
0.000381064
3.53288e-07
0.000381065
3.29331e-07
0.000381066
3.0552e-07
0.000381068
2.81081e-07
0.00038107
2.57653e-07
2.34742e-07
0.000381072
0.000391743
8.23146e-08
0.000391735
1.64946e-07
0.000391727
2.66258e-07
0.000391715
3.1257e-07
0.000391704
3.68087e-07
0.000391692
3.94333e-07
0.000391681
4.21491e-07
0.000391671
4.31754e-07
0.000391662
4.39426e-07
0.000391655
4.3564e-07
0.00039165
4.28866e-07
0.000391646
4.14177e-07
0.000391644
3.97329e-07
0.000391643
3.75698e-07
0.000391643
3.532e-07
0.000391644
3.28482e-07
0.000391645
3.04097e-07
0.000391647
2.7929e-07
0.000391649
2.55625e-07
2.32604e-07
0.000391651
0.000402607
8.3874e-08
0.000402599
1.72681e-07
0.000402591
2.74369e-07
0.00040258
3.24015e-07
0.000402569
3.78813e-07
0.000402558
4.05819e-07
0.000402547
4.31773e-07
0.000402538
4.41117e-07
0.00040253
4.47191e-07
0.000402524
4.41844e-07
0.000402519
4.33367e-07
0.000402516
4.1717e-07
0.000402515
3.98915e-07
0.000402514
3.76163e-07
0.000402515
3.52733e-07
0.000402516
3.27348e-07
0.000402518
3.02467e-07
0.00040252
2.77355e-07
0.000402522
2.53501e-07
2.30409e-07
0.000402524
0.000413772
8.5354e-08
0.000413765
1.8019e-07
0.000413757
2.82266e-07
0.000413746
3.34932e-07
0.000413736
3.89083e-07
0.000413725
4.16572e-07
0.000413715
4.41337e-07
0.000413707
4.4965e-07
0.0004137
4.54129e-07
0.000413694
4.47244e-07
0.000413691
4.37126e-07
0.000413688
4.19508e-07
0.000413687
3.9995e-07
0.000413687
3.76179e-07
0.000413688
3.51916e-07
0.000413689
3.25948e-07
0.000413691
3.00643e-07
0.000413693
2.75283e-07
0.000413696
2.51285e-07
2.28157e-07
0.000413698
0.000425247
8.67568e-08
0.00042524
1.87435e-07
0.000425232
2.89918e-07
0.000425222
3.45291e-07
0.000425212
3.98848e-07
0.000425202
4.2658e-07
0.000425193
4.50153e-07
0.000425185
4.57361e-07
0.000425179
4.6025e-07
0.000425175
4.51865e-07
0.000425171
4.40175e-07
0.00042517
4.21229e-07
0.000425169
4.00465e-07
0.00042517
3.75777e-07
0.000425171
3.50772e-07
0.000425172
3.24301e-07
0.000425174
2.98639e-07
0.000425177
2.73083e-07
0.000425179
2.48983e-07
2.25849e-07
0.000425181
0.00043704
8.80912e-08
0.000437033
1.9438e-07
0.000437025
2.97297e-07
0.000437016
3.55065e-07
0.000437006
4.08063e-07
0.000436997
4.35833e-07
0.000436989
4.58203e-07
0.000436982
4.64253e-07
0.000436977
4.65566e-07
0.000436973
4.55732e-07
0.000436971
4.42543e-07
0.00043697
4.22363e-07
0.000436969
4.00494e-07
0.00043697
3.74984e-07
0.000436972
3.49323e-07
0.000436974
3.22424e-07
0.000436976
2.96464e-07
0.000436978
2.70762e-07
0.00043698
2.46598e-07
2.23486e-07
0.000436983
0.00044916
8.93564e-08
0.000449153
2.00998e-07
0.000449146
3.04368e-07
0.000449137
3.64233e-07
0.000449128
4.16688e-07
0.00044912
4.44321e-07
0.000449112
4.6547e-07
0.000449106
4.70334e-07
0.000449102
4.70095e-07
0.000449099
4.58869e-07
0.000449097
4.44263e-07
0.000449096
4.22941e-07
0.000449097
4.00064e-07
0.000449098
3.73823e-07
0.0004491
3.47589e-07
0.000449102
3.20329e-07
0.000449104
2.94129e-07
0.000449107
2.68326e-07
0.000449109
2.44132e-07
2.2107e-07
0.000449111
0.000461616
9.05569e-08
0.000461609
2.07259e-07
0.000461603
3.11097e-07
0.000461594
3.72775e-07
0.000461586
4.24685e-07
0.000461578
4.52037e-07
0.000461572
4.71947e-07
0.000461567
4.75613e-07
0.000461563
4.73855e-07
0.00046156
4.61301e-07
0.000461559
4.45362e-07
0.000461559
4.22993e-07
0.00046156
3.99202e-07
0.000461562
3.72317e-07
0.000461564
3.45586e-07
0.000461566
3.18031e-07
0.000461568
2.91643e-07
0.000461571
2.6578e-07
0.000461574
2.41589e-07
2.18601e-07
0.000461576
0.000474417
9.16886e-08
0.000474411
2.13143e-07
0.000474405
3.17451e-07
0.000474397
3.80674e-07
0.00047439
4.32024e-07
0.000474383
4.58976e-07
0.000474377
4.7763e-07
0.000474372
4.80101e-07
0.000474369
4.76867e-07
0.000474368
4.63055e-07
0.000474367
4.45871e-07
0.000474368
4.22545e-07
0.000474369
3.97932e-07
0.000474371
3.70486e-07
0.000474373
3.4333e-07
0.000474376
3.1554e-07
0.000474378
2.89014e-07
0.000474381
2.6313e-07
0.000474383
2.38972e-07
2.16081e-07
0.000474386
0.000487574
9.27518e-08
0.000487568
2.1863e-07
0.000487562
3.23396e-07
0.000487555
3.87917e-07
0.000487548
4.38677e-07
0.000487542
4.65133e-07
0.000487537
4.8252e-07
0.000487533
4.83812e-07
0.000487531
4.79153e-07
0.00048753
4.64155e-07
0.00048753
4.45815e-07
0.000487531
4.21624e-07
0.000487533
3.96277e-07
0.000487535
3.68348e-07
0.000487537
3.40836e-07
0.00048754
3.12867e-07
0.000487543
2.86248e-07
0.000487545
2.60379e-07
0.000487548
2.36283e-07
2.1351e-07
0.000487551
0.000501095
9.374e-08
0.00050109
2.23705e-07
0.000501084
3.28902e-07
0.000501078
3.94491e-07
0.000501072
4.44624e-07
0.000501066
4.70508e-07
0.000501062
4.86623e-07
0.000501059
4.86759e-07
0.000501058
4.80734e-07
0.000501057
4.64627e-07
0.000501058
4.45222e-07
0.000501059
4.20254e-07
0.000501061
3.94259e-07
0.000501064
3.6592e-07
0.000501066
3.38118e-07
0.000501069
3.10022e-07
0.000501072
2.83353e-07
0.000501075
2.57532e-07
0.000501078
2.33524e-07
2.10889e-07
0.00050108
0.000514991
9.46501e-08
0.000514986
2.28356e-07
0.000514981
3.33939e-07
0.000514975
4.00386e-07
0.00051497
4.4985e-07
0.000514966
4.751e-07
0.000514962
4.89948e-07
0.00051496
4.88961e-07
0.000514959
4.81635e-07
0.000514959
4.64497e-07
0.00051496
4.44116e-07
0.000514962
4.18457e-07
0.000514965
3.91895e-07
0.000514967
3.63219e-07
0.00051497
3.35186e-07
0.000514973
3.07013e-07
0.000514976
2.80335e-07
0.000514979
2.54593e-07
0.000514982
2.30698e-07
2.0822e-07
0.000514985
0.000529273
9.54741e-08
0.000529268
2.32572e-07
0.000529264
3.38482e-07
0.000529259
4.05595e-07
0.000529254
4.54344e-07
0.00052925
4.78912e-07
0.000529248
4.92507e-07
0.000529246
4.90434e-07
0.000529246
4.81879e-07
0.000529247
4.63789e-07
0.000529248
4.42522e-07
0.000529251
4.16256e-07
0.000529253
3.89207e-07
0.000529256
3.60258e-07
0.000529259
3.32053e-07
0.000529263
3.03848e-07
0.000529266
2.77199e-07
0.000529269
2.51566e-07
0.000529272
2.27806e-07
2.05503e-07
0.000529274
0.00054395
9.62072e-08
0.000543947
2.36348e-07
0.000543943
3.42509e-07
0.000543938
4.10112e-07
0.000543934
4.581e-07
0.000543931
4.81951e-07
0.000543929
4.94312e-07
0.000543929
4.91199e-07
0.000543929
4.81489e-07
0.00054393
4.62527e-07
0.000543932
4.40464e-07
0.000543935
4.1367e-07
0.000543938
3.86209e-07
0.000543941
3.57051e-07
0.000543945
3.28729e-07
0.000543948
3.00535e-07
0.000543951
2.73951e-07
0.000543954
2.48453e-07
0.000543957
2.24852e-07
2.02739e-07
0.00054396
0.000559035
9.68409e-08
0.000559032
2.39677e-07
0.000559028
3.46002e-07
0.000559024
4.13933e-07
0.000559021
4.61119e-07
0.000559019
4.84225e-07
0.000559018
4.95383e-07
0.000559018
4.91276e-07
0.000559019
4.80491e-07
0.000559021
4.60736e-07
0.000559023
4.37963e-07
0.000559026
4.10719e-07
0.00055903
3.82919e-07
0.000559033
3.53612e-07
0.000559037
3.25223e-07
0.00055904
2.97081e-07
0.000559043
2.70595e-07
0.000559047
2.45259e-07
0.00055905
2.21836e-07
1.99929e-07
0.000559052
0.000574538
9.73702e-08
0.000574535
2.42558e-07
0.000574532
3.48947e-07
0.000574529
4.17058e-07
0.000574527
4.63401e-07
0.000574525
4.85744e-07
0.000574525
4.95735e-07
0.000574526
4.90688e-07
0.000574527
4.78907e-07
0.00057453
4.5844e-07
0.000574532
4.35042e-07
0.000574536
4.07421e-07
0.000574539
3.79351e-07
0.000574543
3.49951e-07
0.000574547
3.21546e-07
0.00057455
2.93493e-07
0.000574554
2.67137e-07
0.000574557
2.41985e-07
0.00057456
2.18761e-07
1.97075e-07
0.000574563
0.000590471
9.77873e-08
0.000590469
2.44988e-07
0.000590466
3.51334e-07
0.000590464
4.19487e-07
0.000590462
4.64954e-07
0.000590462
4.86523e-07
0.000590462
4.9539e-07
0.000590463
4.89458e-07
0.000590465
4.76763e-07
0.000590468
4.55661e-07
0.000590471
4.31721e-07
0.000590475
4.03795e-07
0.000590479
3.75522e-07
0.000590483
3.46081e-07
0.000590487
3.17704e-07
0.00059049
2.89777e-07
0.000590494
2.6358e-07
0.000590497
2.38637e-07
0.0005905
2.15629e-07
1.94177e-07
0.000590503
0.000606846
9.80883e-08
0.000606844
2.46969e-07
0.000606842
3.53157e-07
0.00060684
4.21226e-07
0.00060684
4.65787e-07
0.00060684
4.86577e-07
0.000606841
4.94369e-07
0.000606842
4.8761e-07
0.000606845
4.74083e-07
0.000606848
4.52422e-07
0.000606852
4.28021e-07
0.000606856
3.99857e-07
0.00060686
3.71443e-07
0.000606864
3.42012e-07
0.000606868
3.13708e-07
0.000606872
2.85939e-07
0.000606876
2.5993e-07
0.000606879
2.35215e-07
0.000606882
2.12441e-07
1.91237e-07
0.000606885
0.000623675
9.82667e-08
0.000623673
2.48503e-07
0.000623672
3.54413e-07
0.000623671
4.2228e-07
0.000623671
4.65915e-07
0.000623672
4.85924e-07
0.000623673
4.92695e-07
0.000623676
4.85167e-07
0.000623679
4.70891e-07
0.000623683
4.48745e-07
0.000623687
4.23961e-07
0.000623691
3.95624e-07
0.000623695
3.67129e-07
0.0006237
3.37755e-07
0.000623704
3.09564e-07
0.000623708
2.81985e-07
0.000623711
2.56191e-07
0.000623715
2.31724e-07
0.000623718
2.09201e-07
1.88256e-07
0.000623721
0.000640971
9.83207e-08
0.00064097
2.49595e-07
0.000640969
3.55105e-07
0.000640968
4.22659e-07
0.000640969
4.65351e-07
0.00064097
4.84586e-07
0.000640973
4.90391e-07
0.000640976
4.82155e-07
0.000640979
4.67211e-07
0.000640983
4.44653e-07
0.000640988
4.1956e-07
0.000640992
3.91112e-07
0.000640997
3.62592e-07
0.000641001
3.33319e-07
0.000641006
3.05281e-07
0.00064101
2.77922e-07
0.000641013
2.52366e-07
0.000641017
2.28167e-07
0.00064102
2.0591e-07
1.85235e-07
0.000641023
0.000658746
9.82459e-08
0.000658745
2.50248e-07
0.000658745
3.55237e-07
0.000658745
4.22377e-07
0.000658747
4.64115e-07
0.000658749
4.82584e-07
0.000658752
4.87482e-07
0.000658755
4.78599e-07
0.000658759
4.63066e-07
0.000658764
4.40166e-07
0.000658768
4.14836e-07
0.000658773
3.86335e-07
0.000658778
3.57845e-07
0.000658783
3.28715e-07
0.000658787
3.00866e-07
0.000658791
2.73754e-07
0.000658795
2.48461e-07
0.000658799
2.24546e-07
0.000658802
2.02569e-07
1.82176e-07
0.000658805
0.000677014
9.80425e-08
0.000677014
2.50472e-07
0.000677014
3.54817e-07
0.000677015
4.21447e-07
0.000677017
4.62226e-07
0.00067702
4.79942e-07
0.000677023
4.83994e-07
0.000677027
4.74524e-07
0.000677032
4.5848e-07
0.000677037
4.35306e-07
0.000677042
4.09808e-07
0.000677047
3.81309e-07
0.000677052
3.52899e-07
0.000677057
3.23952e-07
0.000677061
2.96326e-07
0.000677065
2.69487e-07
0.000677069
2.44479e-07
0.000677073
2.20865e-07
0.000677076
1.99182e-07
1.79081e-07
0.000677079
0.000695789
9.77083e-08
0.000695789
2.50274e-07
0.00069579
3.53857e-07
0.000695792
4.19887e-07
0.000695794
4.59706e-07
0.000695797
4.76686e-07
0.000695801
4.79953e-07
0.000695806
4.69957e-07
0.000695811
4.53477e-07
0.000695816
4.30094e-07
0.000695822
4.04492e-07
0.000695827
3.76048e-07
0.000695832
3.47766e-07
0.000695837
3.19039e-07
0.000695841
2.91668e-07
0.000695846
2.65127e-07
0.00069585
2.40424e-07
0.000695854
2.17126e-07
0.000695857
1.95751e-07
1.75951e-07
0.00069586
0.000715084
9.7246e-08
0.000715085
2.49665e-07
0.000715086
3.52371e-07
0.000715089
4.17718e-07
0.000715092
4.5658e-07
0.000715096
4.72841e-07
0.0007151
4.75385e-07
0.000715105
4.64922e-07
0.000715111
4.4808e-07
0.000715116
4.24549e-07
0.000715122
3.98907e-07
0.000715127
3.70566e-07
0.000715132
3.42458e-07
0.000715138
3.13985e-07
0.000715142
2.869e-07
0.000715147
2.60679e-07
0.000715151
2.363e-07
0.000715155
2.13333e-07
0.000715158
1.92278e-07
1.72787e-07
0.000715161
0.000734915
9.66555e-08
0.000734916
2.48657e-07
0.000734918
3.50374e-07
0.000734921
4.14961e-07
0.000734924
4.52873e-07
0.000734929
4.68437e-07
0.000734934
4.70318e-07
0.000734939
4.59445e-07
0.000734945
4.42312e-07
0.000734951
4.18692e-07
0.000734957
3.93067e-07
0.000734962
3.64877e-07
0.000734968
3.36985e-07
0.000734973
3.08798e-07
0.000734978
2.82027e-07
0.000734983
2.56148e-07
0.000734987
2.32113e-07
0.000734991
2.0949e-07
0.000734994
1.88765e-07
1.69593e-07
0.000734997
0.000755295
9.59413e-08
0.000755297
2.47262e-07
0.000755299
3.47885e-07
0.000755303
4.11639e-07
0.000755307
4.48612e-07
0.000755312
4.635e-07
0.000755317
4.64778e-07
0.000755323
4.53553e-07
0.000755329
4.36194e-07
0.000755335
4.12543e-07
0.000755342
3.86991e-07
0.000755347
3.58995e-07
0.000755353
3.31358e-07
0.000755358
3.03489e-07
0.000755363
2.77058e-07
0.000755368
2.5154e-07
0.000755372
2.27864e-07
0.000755376
2.05598e-07
0.00075538
1.85215e-07
1.66369e-07
0.000755383
0.000776241
9.51052e-08
0.000776243
2.45496e-07
0.000776246
3.44923e-07
0.00077625
4.0778e-07
0.000776254
4.43824e-07
0.00077626
4.58061e-07
0.000776266
4.58794e-07
0.000776272
4.47271e-07
0.000776279
4.29751e-07
0.000776285
4.06121e-07
0.000776291
3.80693e-07
0.000776297
3.52932e-07
0.000776303
3.25588e-07
0.000776309
2.98064e-07
0.000776314
2.71999e-07
0.000776318
2.46861e-07
0.000776323
2.2356e-07
0.000776326
2.01663e-07
0.00077633
1.8163e-07
1.63118e-07
0.000776333
0.000797768
9.41531e-08
0.00079777
2.43374e-07
0.000797773
3.41511e-07
0.000797777
4.03409e-07
0.000797783
4.38539e-07
0.000797789
4.52148e-07
0.000797795
4.52393e-07
0.000797802
4.40624e-07
0.000797808
4.23003e-07
0.000797815
3.99444e-07
0.000797822
3.7419e-07
0.000797828
3.46703e-07
0.000797834
3.19686e-07
0.000797839
2.92534e-07
0.000797844
2.66856e-07
0.000797849
2.42115e-07
0.000797853
2.19204e-07
0.000797857
1.97686e-07
0.000797861
1.78014e-07
1.59841e-07
0.000797864
0.000819891
9.30882e-08
0.000819893
2.40914e-07
0.000819897
3.37671e-07
0.000819902
3.98554e-07
0.000819908
4.32784e-07
0.000819914
4.45792e-07
0.000819921
4.45603e-07
0.000819928
4.33638e-07
0.000819935
4.15973e-07
0.000819942
3.92532e-07
0.000819949
3.67497e-07
0.000819955
3.40319e-07
0.000819961
3.13661e-07
0.000819967
2.86905e-07
0.000819972
2.61636e-07
0.000819977
2.37308e-07
0.000819981
2.14801e-07
0.000819985
1.93672e-07
0.000819989
1.74368e-07
1.56542e-07
0.000819992
0.000842628
9.19177e-08
0.000842631
2.38133e-07
0.000842635
3.33427e-07
0.00084264
3.93245e-07
0.000842646
4.2659e-07
0.000842653
4.39022e-07
0.00084266
4.3845e-07
0.000842668
4.26337e-07
0.000842675
4.08681e-07
0.000842682
3.85403e-07
0.000842689
3.60628e-07
0.000842695
3.33794e-07
0.000842702
3.07523e-07
0.000842707
2.81187e-07
0.000842713
2.56345e-07
0.000842718
2.32445e-07
0.000842722
2.10353e-07
0.000842726
1.89623e-07
0.00084273
1.70695e-07
1.53222e-07
0.000842733
0.000865995
9.06455e-08
0.000865998
2.3505e-07
0.000866003
3.28802e-07
0.000866009
3.87511e-07
0.000866015
4.19986e-07
0.000866023
4.31868e-07
0.00086603
4.30962e-07
0.000866038
4.18746e-07
0.000866045
4.01149e-07
0.000866053
3.78075e-07
0.00086606
3.536e-07
0.000866066
3.27139e-07
0.000866072
3.01283e-07
0.000866078
2.75387e-07
0.000866084
2.50991e-07
0.000866089
2.27533e-07
0.000866093
2.05867e-07
0.000866097
1.85544e-07
0.000866101
1.66999e-07
1.49883e-07
0.000866104
0.000890011
8.92794e-08
0.000890014
2.31686e-07
0.000890019
3.23823e-07
0.000890025
3.81382e-07
0.000890032
4.13003e-07
0.00089004
4.2436e-07
0.000890048
4.23166e-07
0.000890056
4.1089e-07
0.000890063
3.93396e-07
0.000890071
3.70565e-07
0.000890078
3.46425e-07
0.000890085
3.20366e-07
0.000890091
2.94951e-07
0.000890097
2.69514e-07
0.000890102
2.4558e-07
0.000890107
2.22575e-07
0.000890112
2.01346e-07
0.000890116
1.81438e-07
0.00089012
1.63282e-07
1.46528e-07
0.000890123
0.000914692
8.78239e-08
0.000914696
2.28059e-07
0.000914701
3.18515e-07
0.000914708
3.74888e-07
0.000914715
4.0567e-07
0.000914723
4.16527e-07
0.000914731
4.15087e-07
0.000914739
4.02791e-07
0.000914747
3.85444e-07
0.000914755
3.62892e-07
0.000914762
3.39119e-07
0.000914769
3.13489e-07
0.000914775
2.88535e-07
0.000914781
2.63576e-07
0.000914787
2.40118e-07
0.000914792
2.17578e-07
0.000914796
1.96795e-07
0.0009148
1.77309e-07
0.000914804
1.59548e-07
1.4316e-07
0.000914808
0.000940058
8.62872e-08
0.000940062
2.2419e-07
0.000940068
3.12903e-07
0.000940075
3.6806e-07
0.000940082
3.98017e-07
0.00094009
4.08398e-07
0.000940099
4.06751e-07
0.000940107
3.94474e-07
0.000940115
3.77312e-07
0.000940123
3.5507e-07
0.00094013
3.31695e-07
0.000940137
3.06517e-07
0.000940144
2.82046e-07
0.00094015
2.5758e-07
0.000940155
2.34611e-07
0.00094016
2.12546e-07
0.000940165
1.92218e-07
0.000940169
1.73159e-07
0.000940173
1.55798e-07
1.3978e-07
0.000940176
0.000966128
8.4674e-08
0.000966132
2.20098e-07
0.000966138
3.07012e-07
0.000966145
3.60926e-07
0.000966153
3.90072e-07
0.000966161
4.00001e-07
0.00096617
3.98184e-07
0.000966178
3.85959e-07
0.000966186
3.69018e-07
0.000966194
3.47118e-07
0.000966202
3.24167e-07
0.000966209
2.99464e-07
0.000966216
2.75493e-07
0.000966222
2.51534e-07
0.000966227
2.29067e-07
0.000966232
2.07486e-07
0.000966237
1.87618e-07
0.000966241
1.68993e-07
0.000966245
1.52036e-07
1.36391e-07
0.000966248
0.00099292
8.29928e-08
0.000992924
2.15805e-07
0.00099293
3.00869e-07
0.000992938
3.53515e-07
0.000992946
3.81865e-07
0.000992955
3.91364e-07
0.000992963
3.89411e-07
0.000992972
3.77271e-07
0.000992981
3.60581e-07
0.000992989
3.39051e-07
0.000992996
3.16547e-07
0.000993003
2.92339e-07
0.00099301
2.68885e-07
0.000993016
2.45446e-07
0.000993022
2.2349e-07
0.000993027
2.02402e-07
0.000993031
1.83001e-07
0.000993036
1.64815e-07
0.000993039
1.48265e-07
1.32996e-07
0.000993043
0.00102046
8.12481e-08
0.00102046
2.11329e-07
0.00102047
2.94497e-07
0.00102047
3.45858e-07
0.00102048
3.73423e-07