/*--------------------------------*- C++ -*----------------------------------*\
| =========                 |                                                 |
| \\      /  F ield         | OpenFOAM: The Open Source CFD Toolbox           |
|  \\    /   O peration     | Version:  2.4.0                                 |
|   \\  /    A nd           | Web:      www.OpenFOAM.org                      |
|    \\/     M anipulation  |                                                 |
\*---------------------------------------------------------------------------*/
FoamFile
{
    version     2.0;
    format      ascii;
    class       volVectorField;
    location    "305";
    object      U;
}
// * * * * * * * * * * * * * * * * * * * * * * * * * * * * * * * * * * * * * //

dimensions      [0 1 -1 0 0 0 0];

internalField   nonuniform List<vector> 
10000
(
(0.986599 -2.47597e-05 0)
(1.01256 1.71419e-05 0)
(0.98923 -1.09355e-05 0)
(1.00994 1.48497e-05 0)
(0.991418 -5.18572e-06 0)
(1.00776 1.39067e-05 0)
(0.993116 -9.08337e-08 0)
(1.00597 1.39046e-05 0)
(0.994405 5.84386e-06 0)
(1.00449 1.47163e-05 0)
(0.995358 1.40734e-05 0)
(1.00325 1.61814e-05 0)
(0.996031 2.74044e-05 0)
(1.00218 1.80217e-05 0)
(0.996458 5.18035e-05 0)
(1.0012 2.176e-05 0)
(0.99664 0.000100055 0)
(1.00022 4.30776e-05 0)
(0.996486 0.000212052 0)
(0.99903 0.000171529 0)
(0.999598 -6.81269e-06 0)
(0.999703 -1.05945e-06 0)
(0.999814 1.10275e-05 0)
(0.99953 1.54167e-06 0)
(0.99976 1.77795e-05 0)
(0.999399 6.77619e-06 0)
(0.999626 2.56659e-05 0)
(0.999258 1.35796e-05 0)
(0.999449 3.72916e-05 0)
(0.999092 2.23052e-05 0)
(0.999236 5.59014e-05 0)
(0.998894 3.37378e-05 0)
(0.998986 8.79124e-05 0)
(0.998651 4.98229e-05 0)
(0.998685 0.000146849 0)
(0.998342 7.97199e-05 0)
(0.998298 0.000263048 0)
(0.997919 0.000168747 0)
(0.997764 0.000529785 0)
(0.997335 0.000511153 0)
(1.00078 -4.07085e-06 0)
(0.999247 1.26461e-05 0)
(1.00055 7.37027e-06 0)
(0.999313 1.74337e-05 0)
(1.00032 1.86236e-05 0)
(0.999311 2.47993e-05 0)
(1.00007 3.34262e-05 0)
(0.999252 3.46882e-05 0)
(0.999824 5.42282e-05 0)
(0.999144 4.85773e-05 0)
(0.999563 8.52309e-05 0)
(0.998988 6.94527e-05 0)
(0.999279 0.000134031 0)
(0.998781 0.000104821 0)
(0.998958 0.000215318 0)
(0.998513 0.000176416 0)
(0.998577 0.000363132 0)
(0.998173 0.000348732 0)
(0.998141 0.000673038 0)
(0.99783 0.000787535 0)
(1.00113 9.85516e-06 0)
(0.998978 2.39705e-07 0)
(1.00083 2.17811e-05 0)
(0.999111 1.1069e-05 0)
(1.00054 3.63031e-05 0)
(0.99916 2.37709e-05 0)
(1.00025 5.56588e-05 0)
(0.999141 3.95674e-05 0)
(0.999971 8.34225e-05 0)
(0.999065 6.09919e-05 0)
(0.999685 0.000124814 0)
(0.998938 9.32675e-05 0)
(0.999385 0.000188024 0)
(0.998759 0.000149101 0)
(0.999061 0.000287259 0)
(0.998529 0.00025898 0)
(0.998706 0.000453765 0)
(0.998262 0.000486543 0)
(0.998364 0.000754633 0)
(0.99805 0.000913152 0)
(1.00152 1.51408e-06 0)
(0.998618 1.23936e-05 0)
(1.00114 1.91515e-05 0)
(0.998825 2.5345e-05 0)
(1.00078 3.93781e-05 0)
(0.998934 4.03448e-05 0)
(1.00045 6.53912e-05 0)
(0.998964 6.00628e-05 0)
(1.00012 0.00010136 0)
(0.998929 8.82174e-05 0)
(0.999806 0.000152957 0)
(0.998837 0.000132193 0)
(0.999486 0.000228666 0)
(0.998694 0.000207838 0)
(0.999158 0.000342993 0)
(0.998507 0.000346113 0)
(0.998829 0.0005243 0)
(0.998306 0.000592749 0)
(0.998554 0.000811182 0)
(0.998176 0.000966129 0)
(1.00162 1.17482e-05 0)
(0.998496 6.04693e-06 0)
(1.00123 3.10515e-05 0)
(0.998721 2.36277e-05 0)
(1.00086 5.40223e-05 0)
(0.998848 4.39032e-05 0)
(1.00051 8.42416e-05 0)
(0.998894 7.02781e-05 0)
(1.00017 0.000125946 0)
(0.998874 0.000107881 0)
(0.999849 0.000184659 0)
(0.998799 0.00016634 0)
(0.999528 0.000268496 0)
(0.998677 0.00026314 0)
(0.999211 0.000391781 0)
(0.998522 0.000424557 0)
(0.998916 0.000579003 0)
(0.998372 0.000674619 0)
(0.998694 0.00084896 0)
(0.998298 0.000998515 0)
(1.00069 9.10108e-06 0)
(0.999383 1.25772e-05 0)
(1.00049 3.2967e-05 0)
(0.999432 3.26191e-05 0)
(1.00027 6.1447e-05 0)
(0.999416 5.6189e-05 0)
(1.00005 9.78841e-05 0)
(0.99935 8.75703e-05 0)
(0.999819 0.000146723 0)
(0.999243 0.000133171 0)
(0.999579 0.000213467 0)
(0.999103 0.000204002 0)
(0.999333 0.000306114 0)
(0.998937 0.000317054 0)
(0.999087 0.000438371 0)
(0.998762 0.000491588 0)
(0.998868 0.000628917 0)
(0.998616 0.000734495 0)
(0.998719 0.000880646 0)
(0.998551 0.00101585 0)
(1.00015 1.24922e-05 0)
(0.999857 1.20646e-05 0)
(1.00006 4.00775e-05 0)
(0.999806 3.65819e-05 0)
(0.999941 7.20716e-05 0)
(0.999712 6.53091e-05 0)
(0.99979 0.000112753 0)
(0.999585 0.000103507 0)
(0.999618 0.000166732 0)
(0.999434 0.000158642 0)
(0.999428 0.000239497 0)
(0.999262 0.000242093 0)
(0.999228 0.000339243 0)
(0.999079 0.000368327 0)
(0.99903 0.000478878 0)
(0.998904 0.000548643 0)
(0.998864 0.00067042 0)
(0.998771 0.000778188 0)
(0.998763 0.000904143 0)
(0.998717 0.00102337 0)
(1.00001 1.22676e-05 0)
(0.999972 1.53747e-05 0)
(0.999956 4.50027e-05 0)
(0.999895 4.29683e-05 0)
(0.999857 8.17718e-05 0)
(0.999782 7.59205e-05 0)
(0.999725 0.000127612 0)
(0.999643 0.000120316 0)
(0.99957 0.000187169 0)
(0.999483 0.000184326 0)
(0.999398 0.000265953 0)
(0.99931 0.000278863 0)
(0.999218 0.000372302 0)
(0.999134 0.000414863 0)
(0.999047 0.000517557 0)
(0.998976 0.000596346 0)
(0.998912 0.000706905 0)
(0.998866 0.000811146 0)
(0.998838 0.000922474 0)
(0.998825 0.00102729 0)
(0.999988 1.38775e-05 0)
(0.99999 1.76128e-05 0)
(0.999939 5.02755e-05 0)
(0.999909 4.93773e-05 0)
(0.999843 9.09047e-05 0)
(0.999795 8.73859e-05 0)
(0.999717 0.000141146 0)
(0.999656 0.000138415 0)
(0.999568 0.000205696 0)
(0.999499 0.000210944 0)
(0.999404 0.000290201 0)
(0.999333 0.000314682 0)
(0.999238 0.000402884 0)
(0.99917 0.00045679 0)
(0.999088 0.000552458 0)
(0.999032 0.000635732 0)
(0.998976 0.000737417 0)
(0.998944 0.000835708 0)
(0.99892 0.000935514 0)
(0.998915 0.00102822 0)
(0.999986 1.5648e-05 0)
(0.999992 1.95291e-05 0)
(0.999937 5.61869e-05 0)
(0.999912 5.53125e-05 0)
(0.999843 0.000100904 0)
(0.999799 9.84035e-05 0)
(0.999719 0.000155438 0)
(0.999663 0.000156147 0)
(0.999574 0.000224648 0)
(0.999512 0.000236847 0)
(0.999419 0.000314436 0)
(0.999354 0.000348372 0)
(0.999266 0.000432612 0)
(0.999206 0.000494168 0)
(0.999134 0.000584655 0)
(0.999087 0.000668674 0)
(0.999041 0.000763394 0)
(0.999016 0.00085471 0)
(0.998998 0.000945194 0)
(0.998997 0.00102771 0)
(0.999985 1.66068e-05 0)
(0.999994 2.25652e-05 0)
(0.999937 6.10974e-05 0)
(0.999914 6.25356e-05 0)
(0.999844 0.000109812 0)
(0.999803 0.000110691 0)
(0.999723 0.000168616 0)
(0.99967 0.000174806 0)
(0.999583 0.000242525 0)
(0.999525 0.000262661 0)
(0.999436 0.000337562 0)
(0.999377 0.000380074 0)
(0.999296 0.000460563 0)
(0.999242 0.000527321 0)
(0.99918 0.000613391 0)
(0.99914 0.000696156 0)
(0.999102 0.000784667 0)
(0.999084 0.000869248 0)
(0.99907 0.00095158 0)
(0.999071 0.00102578 0)
(0.999985 1.85261e-05 0)
(0.999994 2.46609e-05 0)
(0.999937 6.68718e-05 0)
(0.999916 6.90867e-05 0)
(0.999846 0.000119339 0)
(0.999807 0.000122576 0)
(0.999728 0.000182102 0)
(0.999678 0.000193048 0)
(0.999593 0.000260418 0)
(0.999538 0.00028739 0)
(0.999455 0.000360316 0)
(0.9994 0.000409308 0)
(0.999327 0.00048716 0)
(0.999279 0.000556531 0)
(0.999225 0.000639192 0)
(0.999192 0.000719165 0)
(0.999161 0.000802324 0)
(0.999148 0.000880436 0)
(0.999137 0.000955857 0)
(0.99914 0.00102298 0)
(0.999984 1.94556e-05 0)
(0.999996 2.78683e-05 0)
(0.999937 7.18008e-05 0)
(0.999918 7.66527e-05 0)
(0.999848 0.000128149 0)
(0.999812 0.000135277 0)
(0.999733 0.000194953 0)
(0.999686 0.000211606 0)
(0.999604 0.000277702 0)
(0.999553 0.000311425 0)
(0.999474 0.00038218 0)
(0.999424 0.000436447 0)
(0.999358 0.000511879 0)
(0.999316 0.000582444 0)
(0.999269 0.000661799 0)
(0.999243 0.000738542 0)
(0.999217 0.000816548 0)
(0.999208 0.000888926 0)
(0.999199 0.000958131 0)
(0.999203 0.00101935 0)
(0.999984 2.11655e-05 0)
(0.999996 3.04057e-05 0)
(0.999938 7.7284e-05 0)
(0.99992 8.38161e-05 0)
(0.999851 0.000137277 0)
(0.999816 0.000147667 0)
(0.999739 0.000207924 0)
(0.999695 0.000229562 0)
(0.999616 0.000294903 0)
(0.999568 0.000334068 0)
(0.999495 0.000403452 0)
(0.999449 0.000461155 0)
(0.99939 0.000534923 0)
(0.999354 0.000605157 0)
(0.999313 0.000681661 0)
(0.999292 0.000754687 0)
(0.99927 0.000828088 0)
(0.999264 0.000895137 0)
(0.999258 0.000959027 0)
(0.999263 0.00101506 0)
(0.999984 2.21104e-05 0)
(0.999998 3.37709e-05 0)
(0.999939 8.21528e-05 0)
(0.999923 9.16967e-05 0)
(0.999853 0.000145891 0)
(0.999821 0.000160539 0)
(0.999745 0.000220439 0)
(0.999704 0.000247456 0)
(0.999628 0.000311573 0)
(0.999584 0.000355762 0)
(0.999516 0.000423702 0)
(0.999475 0.000483953 0)
(0.999422 0.000555969 0)
(0.999391 0.000625307 0)
(0.999355 0.000698778 0)
(0.999339 0.000768253 0)
(0.99932 0.000837162 0)
(0.999317 0.00089956 0)
(0.999312 0.00095861 0)
(0.999318 0.00101023 0)
(0.999984 2.36274e-05 0)
(0.999998 3.66651e-05 0)
(0.99994 8.74088e-05 0)
(0.999925 9.92602e-05 0)
(0.999856 0.000154737 0)
(0.999826 0.000173023 0)
(0.999752 0.000233048 0)
(0.999714 0.000264549 0)
(0.999642 0.000328073 0)
(0.999601 0.000375962 0)
(0.999538 0.000443121 0)
(0.999501 0.000504564 0)
(0.999453 0.00057523 0)
(0.999427 0.000642865 0)
(0.999396 0.000713565 0)
(0.999384 0.000779371 0)
(0.999369 0.000844275 0)
(0.999368 0.000902336 0)
(0.999364 0.00095723 0)
(0.99937 0.00100488 0)
(0.999984 2.4514e-05 0)
(0.999999 4.02318e-05 0)
(0.99994 9.21493e-05 0)
(0.999927 0.000107365 0)
(0.99986 0.000163152 0)
(0.999832 0.000185752 0)
(0.99976 0.000245251 0)
(0.999724 0.00028133 0)
(0.999656 0.000343974 0)
(0.999618 0.00039513 0)
(0.99956 0.00046134 0)
(0.999528 0.000523491 0)
(0.999485 0.00059252 0)
(0.999463 0.000658365 0)
(0.999436 0.000726087 0)
(0.999427 0.000788556 0)
(0.999414 0.00084957 0)
(0.999415 0.000903849 0)
(0.999413 0.000954907 0)
(0.99942 0.000999158 0)
(0.999984 2.58693e-05 0)
(1 4.34002e-05 0)
(0.999942 9.72097e-05 0)
(0.99993 0.000115138 0)
(0.999863 0.000171766 0)
(0.999837 0.000197987 0)
(0.999768 0.000257503 0)
(0.999734 0.000297196 0)
(0.99967 0.000359555 0)
(0.999636 0.00041284 0)
(0.999583 0.00047854 0)
(0.999554 0.000540494 0)
(0.999516 0.000608092 0)
(0.999498 0.000671726 0)
(0.999475 0.00073671 0)
(0.999469 0.000795836 0)
(0.999458 0.000853406 0)
(0.99946 0.000904128 0)
(0.999459 0.000951872 0)
(0.999466 0.000993 0)
(0.999983 2.66689e-05 0)
(1 4.71377e-05 0)
(0.999942 0.000101817 0)
(0.999933 0.000123304 0)
(0.999867 0.000180003 0)
(0.999843 0.000210269 0)
(0.999776 0.000269346 0)
(0.999746 0.000312592 0)
(0.999685 0.00037442 0)
(0.999654 0.000429519 0)
(0.999605 0.000494427 0)
(0.999581 0.000556005 0)
(0.999546 0.000621841 0)
(0.999532 0.000683382 0)
(0.999512 0.00074549 0)
(0.999509 0.000801618 0)
(0.9995 0.000855852 0)
(0.999503 0.000903464 0)
(0.999502 0.00094811 0)
(0.99951 0.000986537 0)
(0.999984 2.78682e-05 0)
(1 5.05132e-05 0)
(0.999944 0.000106696 0)
(0.999935 0.000131105 0)
(0.999871 0.000188399 0)
(0.999849 0.000221977 0)
(0.999785 0.000281145 0)
(0.999757 0.000327032 0)
(0.9997 0.000388795 0)
(0.999673 0.000444828 0)
(0.999628 0.000509193 0)
(0.999607 0.000569818 0)
(0.999576 0.000634028 0)
(0.999566 0.000693248 0)
(0.999548 0.000752731 0)
(0.999547 0.000805891 0)
(0.999539 0.000857175 0)
(0.999544 0.000901845 0)
(0.999543 0.000943796 0)
(0.999551 0.000979711 0)
(0.999983 2.85835e-05 0)
(1 5.435e-05 0)
(0.999945 0.000111184 0)
(0.999938 0.00013915 0)
(0.999876 0.000196453 0)
(0.999856 0.00023357 0)
(0.999794 0.000292493 0)
(0.999769 0.000340907 0)
(0.999715 0.000402343 0)
(0.999691 0.000459131 0)
(0.99965 0.000522624 0)
(0.999633 0.000582285 0)
(0.999605 0.000644595 0)
(0.999598 0.000701674 0)
(0.999583 0.000758464 0)
(0.999583 0.000808968 0)
(0.999577 0.000857402 0)
(0.999583 0.000899486 0)
(0.999583 0.000938893 0)
(0.999591 0.000972617 0)
(0.999983 2.96305e-05 0)
(1 5.7857e-05 0)
(0.999947 0.000115891 0)
(0.999941 0.000146805 0)
(0.99988 0.000204599 0)
(0.999862 0.000244545 0)
(0.999804 0.000303673 0)
(0.999781 0.000353836 0)
(0.999731 0.000415251 0)
(0.99971 0.000472163 0)
(0.999672 0.00053491 0)
(0.999659 0.000593244 0)
(0.999634 0.000653777 0)
(0.999629 0.000708593 0)
(0.999616 0.000762936 0)
(0.999618 0.000810834 0)
(0.999613 0.000856736 0)
(0.99962 0.000896366 0)
(0.99962 0.000933539 0)
(0.999628 0.000965209 0)
(0.999983 3.02747e-05 0)
(1 6.17069e-05 0)
(0.999948 0.000120269 0)
(0.999944 0.000154561 0)
(0.999885 0.000212419 0)
(0.999869 0.000255277 0)
(0.999813 0.000314342 0)
(0.999793 0.00036614 0)
(0.999746 0.000427257 0)
(0.999729 0.000484213 0)
(0.999694 0.000545909 0)
(0.999684 0.000602976 0)
(0.999662 0.000661544 0)
(0.99966 0.000714282 0)
(0.999648 0.000766164 0)
(0.999652 0.000811721 0)
(0.999647 0.000855181 0)
(0.999655 0.000892638 0)
(0.999655 0.000927693 0)
(0.999664 0.000957553 0)
(0.999983 3.11805e-05 0)
(1 6.52583e-05 0)
(0.99995 0.000124803 0)
(0.999947 0.000161911 0)
(0.99989 0.000220243 0)
(0.999876 0.000265376 0)
(0.999823 0.00032471 0)
(0.999805 0.000377532 0)
(0.999762 0.000438516 0)
(0.999748 0.000495084 0)
(0.999716 0.000555794 0)
(0.999709 0.000611368 0)
(0.999689 0.000668093 0)
(0.999689 0.0007187 0)
(0.999679 0.000768338 0)
(0.999684 0.000811619 0)
(0.99968 0.000852894 0)
(0.999688 0.000888287 0)
(0.999689 0.000921463 0)
(0.999697 0.000949619 0)
(0.999983 3.17687e-05 0)
(1.00001 6.90322e-05 0)
(0.999951 0.000129063 0)
(0.99995 0.000169234 0)
(0.999895 0.000227738 0)
(0.999883 0.000275134 0)
(0.999833 0.000334505 0)
(0.999818 0.000388256 0)
(0.999777 0.00044884 0)
(0.999766 0.000504994 0)
(0.999737 0.000564477 0)
(0.999733 0.000618636 0)
(0.999715 0.000673412 0)
(0.999717 0.000722054 0)
(0.999708 0.000769473 0)
(0.999714 0.000810696 0)
(0.999711 0.00084987 0)
(0.99972 0.000883418 0)
(0.99972 0.00091481 0)
(0.999729 0.000941447 0)
(0.999983 3.25506e-05 0)
(1.00001 7.25366e-05 0)
(0.999953 0.00013341 0)
(0.999953 0.000176148 0)
(0.9999 0.000235137 0)
(0.99989 0.000284265 0)
(0.999843 0.000343877 0)
(0.999831 0.000398108 0)
(0.999793 0.000458356 0)
(0.999785 0.00051381 0)
(0.999758 0.000572104 0)
(0.999756 0.000624717 0)
(0.99974 0.000677659 0)
(0.999744 0.000724332 0)
(0.999736 0.000769714 0)
(0.999743 0.000808952 0)
(0.999741 0.000846228 0)
(0.99975 0.000878026 0)
(0.999751 0.000907816 0)
(0.99976 0.000933025 0)
(0.999983 3.30961e-05 0)
(1.00001 7.61505e-05 0)
(0.999955 0.000137523 0)
(0.999956 0.000182926 0)
(0.999905 0.000242185 0)
(0.999898 0.000292979 0)
(0.999853 0.000352627 0)
(0.999843 0.000407259 0)
(0.999808 0.000466941 0)
(0.999803 0.000521689 0)
(0.999779 0.000578629 0)
(0.999779 0.000629771 0)
(0.999765 0.000680837 0)
(0.999769 0.000725683 0)
(0.999763 0.000769075 0)
(0.999771 0.000806503 0)
(0.999769 0.000841963 0)
(0.999778 0.00087218 0)
(0.999779 0.000900452 0)
(0.999788 0.000924371 0)
(0.999983 3.37739e-05 0)
(1.00001 7.95196e-05 0)
(0.999957 0.000141652 0)
(0.99996 0.000189299 0)
(0.999911 0.000249036 0)
(0.999905 0.000301079 0)
(0.999863 0.000360856 0)
(0.999856 0.000415574 0)
(0.999823 0.000474695 0)
(0.99982 0.000528553 0)
(0.999798 0.000584169 0)
(0.9998 0.000633773 0)
(0.999788 0.000683067 0)
(0.999794 0.000726114 0)
(0.999789 0.000767666 0)
(0.999797 0.000803361 0)
(0.999796 0.000837163 0)
(0.999805 0.000865886 0)
(0.999807 0.000892778 0)
(0.999816 0.000915486 0)
(0.999983 3.42849e-05 0)
(1.00001 8.29012e-05 0)
(0.999959 0.000145568 0)
(0.999963 0.000195449 0)
(0.999916 0.000255507 0)
(0.999913 0.000308705 0)
(0.999872 0.000368429 0)
(0.999868 0.000423167 0)
(0.999838 0.000481546 0)
(0.999837 0.000534513 0)
(0.999818 0.000588708 0)
(0.999821 0.00063684 0)
(0.99981 0.000684362 0)
(0.999818 0.00072573 0)
(0.999813 0.000765504 0)
(0.999822 0.000799605 0)
(0.999821 0.000831828 0)
(0.999831 0.000859186 0)
(0.999832 0.000884773 0)
(0.999841 0.000906377 0)
(0.999983 3.48769e-05 0)
(1.00001 8.60562e-05 0)
(0.99996 0.00014943 0)
(0.999966 0.0002012 0)
(0.999921 0.00026169 0)
(0.99992 0.00031573 0)
(0.999882 0.000375414 0)
(0.99988 0.000429955 0)
(0.999853 0.000487571 0)
(0.999854 0.000539533 0)
(0.999836 0.000592335 0)
(0.999842 0.000638974 0)
(0.999832 0.000684816 0)
(0.99984 0.000724552 0)
(0.999836 0.000762669 0)
(0.999846 0.000795253 0)
(0.999845 0.000826021 0)
(0.999855 0.000852093 0)
(0.999857 0.000876483 0)
(0.999866 0.000897049 0)
(0.999983 3.53553e-05 0)
(1.00001 8.91471e-05 0)
(0.999962 0.000153082 0)
(0.99997 0.000206664 0)
(0.999927 0.000267459 0)
(0.999927 0.000322239 0)
(0.999892 0.000381728 0)
(0.999892 0.000436013 0)
(0.999867 0.000492735 0)
(0.99987 0.000543692 0)
(0.999854 0.000595055 0)
(0.999861 0.000640261 0)
(0.999852 0.00068445 0)
(0.999862 0.000722654 0)
(0.999858 0.00075918 0)
(0.999868 0.000790359 0)
(0.999868 0.000819746 0)
(0.999878 0.000844632 0)
(0.99988 0.000867892 0)
(0.999889 0.000887504 0)
(0.999983 3.58748e-05 0)
(1.00001 9.2023e-05 0)
(0.999964 0.000156617 0)
(0.999973 0.000211731 0)
(0.999932 0.000272865 0)
(0.999935 0.000328154 0)
(0.999901 0.000387413 0)
(0.999904 0.000441296 0)
(0.99988 0.000497097 0)
(0.999886 0.000546982 0)
(0.999871 0.000596937 0)
(0.999879 0.000640717 0)
(0.999872 0.000683334 0)
(0.999882 0.000720062 0)
(0.999879 0.000755099 0)
(0.99989 0.000784944 0)
(0.99989 0.000813049 0)
(0.9999 0.000836819 0)
(0.999901 0.000859033 0)
(0.99991 0.000877749 0)
(0.999983 3.63167e-05 0)
(1.00001 9.47789e-05 0)
(0.999966 0.000159933 0)
(0.999976 0.000216465 0)
(0.999937 0.000277829 0)
(0.999942 0.000333526 0)
(0.999911 0.000392426 0)
(0.999915 0.000445852 0)
(0.999893 0.000500647 0)
(0.999901 0.000549463 0)
(0.999887 0.000597997 0)
(0.999897 0.000640406 0)
(0.99989 0.000681492 0)
(0.999901 0.000716829 0)
(0.999899 0.000750444 0)
(0.99991 0.000779045 0)
(0.99991 0.000805937 0)
(0.99992 0.000828671 0)
(0.999922 0.000849898 0)
(0.999931 0.000867785 0)
(0.999983 3.67705e-05 0)
(1.00001 9.73257e-05 0)
(0.999968 0.000163077 0)
(0.99998 0.000220803 0)
(0.999942 0.000282374 0)
(0.999949 0.000338309 0)
(0.99992 0.000396796 0)
(0.999926 0.000449663 0)
(0.999906 0.00050343 0)
(0.999915 0.000551143 0)
(0.999903 0.000598291 0)
(0.999914 0.000639352 0)
(0.999908 0.000678981 0)
(0.999919 0.000712984 0)
(0.999918 0.000745262 0)
(0.999929 0.000772685 0)
(0.999929 0.000798444 0)
(0.99994 0.000820202 0)
(0.999941 0.000840511 0)
(0.99995 0.000857618 0)
(0.999983 3.71663e-05 0)
(1.00001 9.97161e-05 0)
(0.99997 0.000165983 0)
(0.999983 0.000224778 0)
(0.999947 0.000286453 0)
(0.999956 0.000342533 0)
(0.999928 0.000400501 0)
(0.999937 0.000452765 0)
(0.999919 0.000505452 0)
(0.999929 0.000552068 0)
(0.999918 0.000597839 0)
(0.99993 0.000637606 0)
(0.999925 0.000675825 0)
(0.999937 0.000708568 0)
(0.999935 0.000739572 0)
(0.999947 0.000765891 0)
(0.999947 0.000790578 0)
(0.999958 0.000811426 0)
(0.999959 0.00083087 0)
(0.999968 0.000847251 0)
(0.999983 3.7555e-05 0)
(1.00001 0.000101897 0)
(0.999971 0.000168675 0)
(0.999986 0.000228352 0)
(0.999952 0.00029008 0)
(0.999963 0.000346172 0)
(0.999937 0.000403569 0)
(0.999947 0.000455155 0)
(0.99993 0.000506752 0)
(0.999942 0.000552257 0)
(0.999932 0.000596689 0)
(0.999945 0.000635193 0)
(0.99994 0.000672069 0)
(0.999953 0.000703607 0)
(0.999952 0.000733409 0)
(0.999963 0.000758684 0)
(0.999964 0.000782365 0)
(0.999975 0.000802356 0)
(0.999976 0.00082099 0)
(0.999985 0.000836687 0)
(0.999982 3.78923e-05 0)
(1.00001 0.000103902 0)
(0.999973 0.000171107 0)
(0.99999 0.000231545 0)
(0.999957 0.000293225 0)
(0.999969 0.000349249 0)
(0.999945 0.00040599 0)
(0.999957 0.000456864 0)
(0.999941 0.000507341 0)
(0.999954 0.000551749 0)
(0.999945 0.000594864 0)
(0.999959 0.000632154 0)
(0.999955 0.000667737 0)
(0.999968 0.000698133 0)
(0.999967 0.000726793 0)
(0.999979 0.000751085 0)
(0.99998 0.000773816 0)
(0.99999 0.000793003 0)
(0.999992 0.000810872 0)
(1 0.00082593 0)
(0.999982 3.82106e-05 0)
(1.00001 0.000105695 0)
(0.999975 0.000173294 0)
(0.999993 0.000234332 0)
(0.999962 0.000295902 0)
(0.999976 0.000351748 0)
(0.999953 0.000407789 0)
(0.999967 0.000457896 0)
(0.999952 0.000507257 0)
(0.999966 0.000550565 0)
(0.999958 0.000592404 0)
(0.999972 0.000628516 0)
(0.999969 0.000662866 0)
(0.999982 0.000692171 0)
(0.999981 0.000719752 0)
(0.999994 0.000743113 0)
(0.999994 0.00076495 0)
(1 0.000783378 0)
(1.00001 0.00080053 0)
(1.00002 0.000814985 0)
(0.999982 3.84764e-05 0)
(1.00001 0.000107301 0)
(0.999976 0.000175202 0)
(0.999996 0.00023673 0)
(0.999966 0.000298092 0)
(0.999982 0.000353691 0)
(0.999961 0.000408968 0)
(0.999976 0.000458283 0)
(0.999962 0.000506514 0)
(0.999977 0.000548742 0)
(0.99997 0.000589332 0)
(0.999985 0.000624313 0)
(0.999982 0.00065748 0)
(0.999995 0.00068575 0)
(0.999995 0.000712303 0)
(1.00001 0.000734786 0)
(1.00001 0.000755777 0)
(1.00002 0.000773491 0)
(1.00002 0.000789966 0)
(1.00003 0.000803855 0)
(0.999982 3.87152e-05 0)
(1.00001 0.000108693 0)
(0.999978 0.000176845 0)
(0.999999 0.000238718 0)
(0.99997 0.00029981 0)
(0.999988 0.000355071 0)
(0.999968 0.000409551 0)
(0.999984 0.000458034 0)
(0.999972 0.000505146 0)
(0.999988 0.000546301 0)
(0.999981 0.000585685 0)
(0.999996 0.00061957 0)
(0.999994 0.000651609 0)
(1.00001 0.000678889 0)
(1.00001 0.000704472 0)
(1.00002 0.000726121 0)
(1.00002 0.000746315 0)
(1.00003 0.000763353 0)
(1.00003 0.000779191 0)
(1.00004 0.000792544 0)
(0.999982 3.88978e-05 0)
(1.00001 0.000109894 0)
(0.99998 0.000178195 0)
(1 0.000240315 0)
(0.999975 0.000301046 0)
(0.999993 0.00035591 0)
(0.999974 0.000409544 0)
(0.999992 0.000457179 0)
(0.99998 0.000503172 0)
(0.999997 0.000543276 0)
(0.999991 0.000581486 0)
(1.00001 0.000614318 0)
(1 0.000645276 0)
(1.00002 0.000671614 0)
(1.00002 0.000696274 0)
(1.00003 0.000717134 0)
(1.00003 0.000736573 0)
(1.00004 0.000752974 0)
(1.00004 0.00076821 0)
(1.00005 0.000781057 0)
(0.999982 3.90472e-05 0)
(1.00001 0.000110881 0)
(0.999981 0.00017927 0)
(1 0.000241505 0)
(0.999978 0.000301819 0)
(0.999998 0.000356206 0)
(0.999981 0.000408975 0)
(0.999999 0.000455733 0)
(0.999989 0.000500625 0)
(1.00001 0.000539688 0)
(1 0.000576768 0)
(1.00002 0.00060858 0)
(1.00001 0.000638508 0)
(1.00003 0.000663946 0)
(1.00003 0.00068773 0)
(1.00004 0.00070784 0)
(1.00004 0.000726566 0)
(1.00005 0.000742363 0)
(1.00005 0.00075703 0)
(1.00006 0.000769399 0)
(0.999982 3.91373e-05 0)
(1.00002 0.000111677 0)
(0.999982 0.000180047 0)
(1.00001 0.000242308 0)
(0.999982 0.000302123 0)
(1 0.000355983 0)
(0.999987 0.000407851 0)
(1.00001 0.000453724 0)
(0.999996 0.000497522 0)
(1.00001 0.000535569 0)
(1.00001 0.000571551 0)
(1.00003 0.000602384 0)
(1.00002 0.000631325 0)
(1.00004 0.000655904 0)
(1.00004 0.000678857 0)
(1.00005 0.000698255 0)
(1.00005 0.000716305 0)
(1.00006 0.000731529 0)
(1.00006 0.000745659 0)
(1.00007 0.000757575 0)
(0.999982 3.91892e-05 0)
(1.00002 0.000112262 0)
(0.999984 0.000180544 0)
(1.00001 0.000242712 0)
(0.999986 0.000301979 0)
(1.00001 0.000355246 0)
(0.999992 0.000406202 0)
(1.00001 0.00045117 0)
(1 0.000493896 0)
(1.00002 0.000530942 0)
(1.00002 0.000565867 0)
(1.00003 0.000595752 0)
(1.00003 0.000623752 0)
(1.00005 0.000647509 0)
(1.00005 0.000669672 0)
(1.00006 0.000688392 0)
(1.00006 0.000705802 0)
(1.00007 0.000720482 0)
(1.00007 0.000734103 0)
(1.00008 0.00074559 0)
(0.999982 3.91801e-05 0)
(1.00002 0.000112659 0)
(0.999985 0.000180748 0)
(1.00001 0.000242739 0)
(0.999989 0.000301387 0)
(1.00001 0.000354019 0)
(0.999997 0.000404038 0)
(1.00002 0.000448099 0)
(1.00001 0.000489766 0)
(1.00003 0.000525835 0)
(1.00003 0.000559736 0)
(1.00004 0.00058871 0)
(1.00004 0.000615807 0)
(1.00006 0.00063878 0)
(1.00006 0.000660191 0)
(1.00007 0.000678265 0)
(1.00007 0.000695068 0)
(1.00008 0.000709231 0)
(1.00008 0.000722372 0)
(1.00009 0.00073345 0)
(0.999982 3.91293e-05 0)
(1.00002 0.000112851 0)
(0.999986 0.000180675 0)
(1.00001 0.000242384 0)
(0.999992 0.000300371 0)
(1.00002 0.00035231 0)
(1 0.000401389 0)
(1.00002 0.00044453 0)
(1.00002 0.000485162 0)
(1.00004 0.000520271 0)
(1.00003 0.000553187 0)
(1.00005 0.000581278 0)
(1.00005 0.000607515 0)
(1.00006 0.000629735 0)
(1.00006 0.000650432 0)
(1.00008 0.000667889 0)
(1.00008 0.000684117 0)
(1.00009 0.000697787 0)
(1.00009 0.000710471 0)
(1.0001 0.000721162 0)
(0.999982 3.90178e-05 0)
(1.00002 0.000112859 0)
(0.999987 0.000180318 0)
(1.00002 0.000241667 0)
(0.999995 0.000298934 0)
(1.00002 0.000350146 0)
(1.00001 0.000398269 0)
(1.00003 0.000440492 0)
(1.00002 0.000480104 0)
(1.00004 0.000514278 0)
(1.00004 0.000546239 0)
(1.00006 0.000573481 0)
(1.00005 0.000598893 0)
(1.00007 0.000620392 0)
(1.00007 0.000640407 0)
(1.00008 0.000657277 0)
(1.00008 0.000672957 0)
(1.00009 0.000686158 0)
(1.00009 0.000698409 0)
(1.0001 0.00070873 0)
(0.999982 3.88628e-05 0)
(1.00002 0.000112672 0)
(0.999988 0.000179695 0)
(1.00002 0.000240589 0)
(0.999997 0.000297099 0)
(1.00002 0.000347538 0)
(1.00001 0.000394706 0)
(1.00003 0.000436004 0)
(1.00003 0.000474621 0)
(1.00005 0.000507876 0)
(1.00004 0.000538919 0)
(1.00006 0.000565338 0)
(1.00006 0.000589962 0)
(1.00008 0.000610768 0)
(1.00007 0.000630135 0)
(1.00009 0.000646442 0)
(1.00009 0.000661603 0)
(1.0001 0.000674355 0)
(1.0001 0.000686195 0)
(1.00011 0.000696163 0)
(0.999982 3.86494e-05 0)
(1.00002 0.000112308 0)
(0.999989 0.000178803 0)
(1.00002 0.000239172 0)
(0.999999 0.000294876 0)
(1.00003 0.000344513 0)
(1.00001 0.000390716 0)
(1.00004 0.000431095 0)
(1.00003 0.000468734 0)
(1.00005 0.000501093 0)
(1.00005 0.000531246 0)
(1.00007 0.000556872 0)
(1.00006 0.000580739 0)
(1.00008 0.000600881 0)
(1.00008 0.000619629 0)
(1.00009 0.000635398 0)
(1.00009 0.000650063 0)
(1.0001 0.000662388 0)
(1.0001 0.000673836 0)
(1.00011 0.000683467 0)
(0.999982 3.83921e-05 0)
(1.00002 0.000111762 0)
(0.99999 0.00017766 0)
(1.00002 0.000237419 0)
(1 0.000292288 0)
(1.00003 0.000341086 0)
(1.00002 0.000386327 0)
(1.00004 0.000425784 0)
(1.00003 0.00046247 0)
(1.00006 0.00049395 0)
(1.00005 0.000523246 0)
(1.00007 0.000548103 0)
(1.00007 0.000571246 0)
(1.00008 0.000590748 0)
(1.00008 0.000608905 0)
(1.0001 0.000624157 0)
(1.0001 0.000638351 0)
(1.00011 0.000650265 0)
(1.00011 0.000661342 0)
(1.00012 0.00067065 0)
(0.999982 3.80801e-05 0)
(1.00002 0.00011105 0)
(0.99999 0.000176268 0)
(1.00002 0.000235353 0)
(1 0.000289347 0)
(1.00003 0.000337283 0)
(1.00002 0.000381558 0)
(1.00004 0.000420099 0)
(1.00004 0.000455849 0)
(1.00006 0.000486472 0)
(1.00006 0.000514938 0)
(1.00007 0.000539052 0)
(1.00007 0.000561497 0)
(1.00009 0.000580385 0)
(1.00009 0.000597977 0)
(1.0001 0.000612734 0)
(1.0001 0.000626477 0)
(1.00011 0.000637999 0)
(1.00011 0.00064872 0)
(1.00012 0.00065772 0)
(0.999982 3.77258e-05 0)
(1.00002 0.000110169 0)
(0.999991 0.000174644 0)
(1.00002 0.000232982 0)
(1.00001 0.000286076 0)
(1.00003 0.00033312 0)
(1.00002 0.000376435 0)
(1.00005 0.000414061 0)
(1.00004 0.000448898 0)
(1.00006 0.00047868 0)
(1.00006 0.000506345 0)
(1.00008 0.000529738 0)
(1.00008 0.000551515 0)
(1.00009 0.000569809 0)
(1.00009 0.00058686 0)
(1.0001 0.000601141 0)
(1.0001 0.000614453 0)
(1.00011 0.000625599 0)
(1.00011 0.000635981 0)
(1.00012 0.000644686 0)
(0.999981 3.7321e-05 0)
(1.00002 0.000109137 0)
(0.999992 0.000172794 0)
(1.00002 0.000230329 0)
(1.00001 0.000282489 0)
(1.00004 0.000328623 0)
(1.00002 0.000370976 0)
(1.00005 0.000407696 0)
(1.00004 0.000441636 0)
(1.00007 0.000470598 0)
(1.00006 0.000497485 0)
(1.00008 0.000520181 0)
(1.00008 0.000541313 0)
(1.00009 0.000559036 0)
(1.00009 0.000575567 0)
(1.00011 0.000589391 0)
(1.00011 0.000602291 0)
(1.00012 0.000613076 0)
(1.00012 0.000623134 0)
(1.00012 0.000631555 0)
(0.999981 3.68772e-05 0)
(1.00002 0.000107951 0)
(0.999992 0.000170735 0)
(1.00003 0.000227403 0)
(1.00001 0.00027861 0)
(1.00004 0.000323811 0)
(1.00003 0.00036521 0)
(1.00005 0.000401025 0)
(1.00005 0.00043409 0)
(1.00007 0.000462247 0)
(1.00006 0.000488382 0)
(1.00008 0.000510399 0)
(1.00008 0.000530912 0)
(1.0001 0.000548083 0)
(1.0001 0.000564115 0)
(1.00011 0.000577498 0)
(1.00011 0.000590004 0)
(1.00012 0.00060044 0)
(1.00012 0.000610188 0)
(1.00013 0.000618336 0)
(0.999981 3.63875e-05 0)
(1.00002 0.000106629 0)
(0.999993 0.000168473 0)
(1.00003 0.000224228 0)
(1.00001 0.000274453 0)
(1.00004 0.00031871 0)
(1.00003 0.000359153 0)
(1.00005 0.000394074 0)
(1.00005 0.000426278 0)
(1.00007 0.000453649 0)
(1.00007 0.000479053 0)
(1.00008 0.000500413 0)
(1.00008 0.000520326 0)
(1.0001 0.000536964 0)
(1.0001 0.000552517 0)
(1.00011 0.000565475 0)
(1.00011 0.000577601 0)
(1.00012 0.000587703 0)
(1.00012 0.000597153 0)
(1.00013 0.000605039 0)
(0.999981 3.5863e-05 0)
(1.00002 0.000105172 0)
(0.999993 0.000166028 0)
(1.00003 0.000220814 0)
(1.00001 0.000270044 0)
(1.00004 0.000313336 0)
(1.00003 0.000352833 0)
(1.00006 0.000386863 0)
(1.00005 0.000418227 0)
(1.00007 0.000444825 0)
(1.00007 0.00046952 0)
(1.00009 0.00049024 0)
(1.00008 0.000509575 0)
(1.0001 0.000525697 0)
(1.0001 0.000540787 0)
(1.00011 0.000553336 0)
(1.00011 0.000565097 0)
(1.00012 0.000574876 0)
(1.00012 0.00058404 0)
(1.00013 0.000591673 0)
(0.999981 3.52977e-05 0)
(1.00002 0.000103596 0)
(0.999993 0.000163405 0)
(1.00003 0.000217185 0)
(1.00001 0.000265395 0)
(1.00004 0.000307716 0)
(1.00003 0.000346267 0)
(1.00006 0.000379416 0)
(1.00005 0.000409952 0)
(1.00007 0.000435797 0)
(1.00007 0.0004598 0)
(1.00009 0.000479899 0)
(1.00008 0.000498673 0)
(1.0001 0.000514295 0)
(1.0001 0.00052894 0)
(1.00011 0.000541092 0)
(1.00011 0.000552502 0)
(1.00012 0.00056197 0)
(1.00012 0.000570858 0)
(1.00013 0.000578247 0)
(0.999981 3.47022e-05 0)
(1.00002 0.000101902 0)
(0.999993 0.000160624 0)
(1.00003 0.000213352 0)
(1.00001 0.000260532 0)
(1.00004 0.000301867 0)
(1.00003 0.00033948 0)
(1.00006 0.000371753 0)
(1.00005 0.000401479 0)
(1.00007 0.000426583 0)
(1.00007 0.000449914 0)
(1.00009 0.000469407 0)
(1.00008 0.000487639 0)
(1.0001 0.000502776 0)
(1.0001 0.000516989 0)
(1.00011 0.000528758 0)
(1.00011 0.000539828 0)
(1.00012 0.000548996 0)
(1.00012 0.000557618 0)
(1.00013 0.000564772 0)
(0.999981 3.40714e-05 0)
(1.00002 0.000100107 0)
(0.999994 0.000157693 0)
(1.00003 0.000209338 0)
(1.00001 0.000255468 0)
(1.00004 0.000295814 0)
(1.00003 0.000332491 0)
(1.00006 0.000363898 0)
(1.00005 0.000392826 0)
(1.00007 0.000417204 0)
(1.00007 0.000439879 0)
(1.00009 0.000458782 0)
(1.00008 0.000476486 0)
(1.0001 0.000491153 0)
(1.0001 0.000504948 0)