/*--------------------------------*- C++ -*----------------------------------*\
| =========                 |                                                 |
| \\      /  F ield         | OpenFOAM: The Open Source CFD Toolbox           |
|  \\    /   O peration     | Version:  2.4.0                                 |
|   \\  /    A nd           | Web:      www.OpenFOAM.org                      |
|    \\/     M anipulation  |                                                 |
\*---------------------------------------------------------------------------*/
FoamFile
{
    version     2.0;
    format      ascii;
    class       surfaceScalarField;
    location    "6.49";
    object      phi;
}
// * * * * * * * * * * * * * * * * * * * * * * * * * * * * * * * * * * * * * //

dimensions      [0 3 -1 0 0 0 0];

internalField   nonuniform List<scalar> 
11840
(
7.83427e-07
9.21657e-06
-9.36068e-07
1.71949e-06
6.59139e-07
-1.59521e-06
1.47832e-07
5.11307e-07
-2.02052e-07
3.49883e-07
-3.01911e-07
9.98594e-08
-4.0593e-07
1.04019e-07
-4.94911e-07
8.89811e-08
-6.58895e-07
1.63984e-07
-7.79241e-07
1.20346e-07
-9.66318e-07
1.87077e-07
-1.11974e-06
1.53424e-07
-1.32456e-06
2.04822e-07
-1.52384e-06
1.99281e-07
-1.75403e-06
2.3018e-07
-1.98257e-06
2.28548e-07
-2.2183e-06
2.35729e-07
-2.44696e-06
2.28662e-07
-2.67007e-06
2.23103e-07
-2.88034e-06
2.10274e-07
-3.0754e-06
1.95055e-07
-3.25431e-06
1.78909e-07
-3.41962e-06
1.65316e-07
-3.57001e-06
1.50391e-07
-3.70365e-06
1.33633e-07
-3.81833e-06
1.14682e-07
-3.91204e-06
9.37084e-08
-3.98261e-06
7.05701e-08
-4.02759e-06
4.49887e-08
-4.04361e-06
1.60176e-08
-4.02838e-06
-1.52278e-08
-3.98189e-06
-4.64975e-08
-3.90349e-06
-7.83925e-08
-3.79173e-06
-1.11763e-07
-3.6455e-06
-1.4623e-07
-3.46379e-06
-1.81707e-07
-3.24621e-06
-2.17584e-07
-2.9921e-06
-2.54108e-07
-2.70224e-06
-2.89859e-07
-2.37588e-06
-3.26367e-07
-2.01611e-06
-3.59767e-07
-1.6205e-06
-3.95614e-07
-1.19718e-06
-4.23319e-07
-7.38996e-07
-4.58181e-07
-2.62199e-07
-4.76796e-07
2.45755e-07
-5.07954e-07
7.53339e-07
-5.07584e-07
1.30223e-06
-5.48891e-07
1.81857e-06
-5.16339e-07
2.40402e-06
-5.8545e-07
2.89249e-06
-4.88476e-07
3.52053e-06
-6.28038e-07
3.92138e-06
-4.00853e-07
4.62635e-06
-7.04961e-07
4.84248e-06
-2.1613e-07
5.70561e-06
-8.63134e-07
5.58627e-06
1.19342e-07
6.77826e-06
-1.19199e-06
6.21506e-06
5.63203e-07
-2.29918e-06
2.45133e-06
1.67652e-05
-5.06692e-07
4.67752e-06
3.6868e-07
-2.47058e-06
-8.51213e-08
9.65108e-07
-3.09499e-07
5.74261e-07
-4.68314e-07
2.58675e-07
-5.71201e-07
2.06906e-07
-6.81256e-07
1.99036e-07
-8.46546e-07
3.29274e-07
-9.8715e-07
2.6095e-07
-1.17058e-06
3.70511e-07
-1.34268e-06
3.25519e-07
-1.54574e-06
4.07883e-07
-1.75497e-06
4.0851e-07
-1.98009e-06
4.55305e-07
-2.20545e-06
4.53901e-07
-2.43056e-06
4.60844e-07
-2.64858e-06
4.46678e-07
-2.85835e-06
4.32876e-07
-3.05642e-06
4.08345e-07
-3.24188e-06
3.80508e-07
-3.41384e-06
3.5087e-07
-3.57137e-06
3.22848e-07
-3.71235e-06
2.91375e-07
-3.83481e-06
2.56092e-07
-3.93667e-06
2.16541e-07
-4.01595e-06
1.72989e-07
-4.07068e-06
1.253e-07
-4.09897e-06
7.32735e-08
-4.09965e-06
1.67013e-08
-4.0714e-06
-4.34807e-08
-4.0121e-06
-1.0579e-07
-3.91987e-06
-1.70625e-07
-3.79334e-06
-2.38297e-07
-3.63142e-06
-3.08151e-07
-3.43324e-06
-3.7988e-07
-3.19835e-06
-4.52473e-07
-2.92647e-06
-5.25995e-07
-2.61794e-06
-5.98384e-07
-2.27309e-06
-6.71218e-07
-1.8934e-06
-7.39461e-07
-1.47967e-06
-8.09342e-07
-1.03487e-06
-8.68123e-07
-5.60543e-07
-9.32504e-07
-6.08898e-08
-9.76449e-07
4.6155e-07
-1.03039e-06
9.99143e-07
-1.04518e-06
1.55697e-06
-1.10672e-06
2.11693e-06
-1.0763e-06
2.69639e-06
-1.16491e-06
3.25414e-06
-1.04623e-06
3.84382e-06
-1.21771e-06
4.36449e-06
-9.21525e-07
4.96579e-06
-1.30627e-06
5.39475e-06
-6.4509e-07
6.0455e-06
-1.51388e-06
6.29539e-06
-1.30547e-07
7.10962e-06
-2.00622e-06
7.16738e-06
5.05445e-07
-3.78018e-06
3.60686e-06
2.31584e-05
1.73437e-08
8.26704e-06
5.85355e-08
-2.51177e-06
-3.03708e-07
1.32735e-06
-3.67119e-07
6.37673e-07
-5.34901e-07
4.26457e-07
-6.25574e-07
2.97578e-07
-7.43783e-07
3.17245e-07
-8.95114e-07
4.80605e-07
-1.04322e-06
4.09058e-07
-1.21517e-06
5.42463e-07
-1.39009e-06
5.00433e-07
-1.58452e-06
6.02311e-07
-1.78952e-06
6.13516e-07
-2.00495e-06
6.70732e-07
-2.22201e-06
6.70966e-07
-2.43737e-06
6.76203e-07
-2.64663e-06
6.55934e-07
-2.84779e-06
6.34037e-07
-3.03856e-06
5.99112e-07
-3.2178e-06
5.59754e-07
-3.38421e-06
5.17276e-07
-3.53606e-06
4.74698e-07
-3.67127e-06
4.26586e-07
-3.78787e-06
3.72688e-07
-3.88382e-06
3.12498e-07
-3.9572e-06
2.46362e-07
-4.0061e-06
1.74202e-07
-4.0288e-06
9.59748e-08
-4.02384e-06
1.17406e-08
-3.98972e-06
-7.76004e-08
-3.92441e-06
-1.711e-07
-3.82619e-06
-2.6884e-07
-3.69378e-06
-3.70713e-07
-3.52609e-06
-4.75835e-07
-3.32233e-06
-5.83641e-07
-3.08202e-06
-6.92786e-07
-2.80497e-06
-8.03043e-07
-2.49145e-06
-9.11904e-07
-2.14202e-06
-1.02065e-06
-1.7578e-06
-1.12368e-06
-1.3403e-06
-1.22684e-06
-8.91386e-07
-1.31704e-06
-4.14261e-07
-1.40963e-06
8.90801e-08
-1.47979e-06
6.13931e-07
-1.55524e-06
1.15765e-06
-1.58889e-06
1.71654e-06
-1.66561e-06
2.28542e-06
-1.64518e-06
2.86158e-06
-1.74107e-06
3.4352e-06
-1.61985e-06
4.01095e-06
-1.79347e-06
4.56457e-06
-1.47514e-06
5.1264e-06
-1.8681e-06
5.62837e-06
-1.14706e-06
6.17937e-06
-2.06488e-06
6.5904e-06
-5.41584e-07
7.17662e-06
-2.59243e-06
7.55178e-06
1.30279e-07
-4.78014e-06
4.52838e-06
2.863e-05
7.5647e-07
1.2039e-05
-2.34085e-07
-1.52122e-06
-4.59939e-07
1.55321e-06
-3.98411e-07
5.76145e-07
-5.66528e-07
5.94574e-07
-6.46902e-07
3.77952e-07
-7.69646e-07
4.39989e-07
-9.09656e-07
6.20615e-07
-1.06009e-06
5.59498e-07
-1.22446e-06
7.06827e-07
-1.39812e-06
6.7409e-07
-1.58588e-06
7.90079e-07
-1.78532e-06
8.1295e-07
-1.9928e-06
8.78209e-07
-2.20246e-06
8.80632e-07
-2.41006e-06
8.83803e-07
-2.61216e-06
8.58036e-07
-2.80648e-06
8.28353e-07
-2.99111e-06
7.83746e-07
-3.16474e-06
7.33383e-07
-3.32579e-06
6.78329e-07
-3.4723e-06
6.21207e-07
-3.60224e-06
5.5652e-07
-3.71363e-06
4.84081e-07
-3.8045e-06
4.03363e-07
-3.87292e-06
3.14786e-07
-3.91707e-06
2.18348e-07
-3.93523e-06
1.14139e-07
-3.92586e-06
2.37449e-09
-3.88732e-06
-1.16141e-07
-3.81772e-06
-2.40698e-07
-3.71546e-06
-3.71104e-07
-3.57925e-06
-5.0692e-07
-3.40806e-06
-6.4703e-07
-3.20109e-06
-7.90607e-07
-2.95789e-06
-9.35991e-07
-2.6783e-06
-1.08263e-06
-2.36257e-06
-1.22764e-06
-2.01135e-06
-1.37187e-06
-1.62562e-06
-1.50941e-06
-1.20713e-06
-1.64533e-06
-7.57407e-07
-1.76676e-06
-2.80034e-07
-1.887e-06
2.23541e-07
-1.98337e-06
7.48285e-07
-2.07999e-06
1.29287e-06
-2.13348e-06
1.85094e-06
-2.22368e-06
2.42117e-06
-2.21541e-06
2.99467e-06
-2.31457e-06
3.57161e-06
-2.19679e-06
4.14068e-06
-2.36253e-06
4.70342e-06
-2.03789e-06
5.24886e-06
-2.41353e-06
5.77512e-06
-1.67332e-06
6.28535e-06
-2.57511e-06
6.75732e-06
-1.01356e-06
7.24619e-06
-3.0813e-06
7.74857e-06
-3.72106e-07
-5.54381e-06
5.30449e-06
3.33255e-05
1.49037e-06
1.58531e-05
-2.60579e-07
2.29738e-07
-5.51626e-07
1.84425e-06
-4.19276e-07
4.43795e-07
-5.82903e-07
7.58201e-07
-6.55162e-07
4.50211e-07
-7.79379e-07
5.64206e-07
-9.10917e-07
7.52153e-07
-1.06076e-06
7.09337e-07
-1.21947e-06
8.65541e-07
-1.39028e-06
8.44904e-07
-1.57216e-06
9.71951e-07
-1.76567e-06
1.00646e-06
-1.96589e-06
1.07843e-06
-2.16855e-06
1.08329e-06
-2.3691e-06
1.08436e-06
-2.5646e-06
1.05353e-06
-2.75262e-06
1.01637e-06
-2.93143e-06
9.62559e-07
-3.09956e-06
9.01512e-07
-3.25529e-06
8.34056e-07
-3.39655e-06
7.62466e-07
-3.52135e-06
6.81322e-07
-3.62775e-06
5.90479e-07
-3.71378e-06
4.894e-07
-3.77757e-06
3.78575e-07
-3.81732e-06
2.5809e-07
-3.83131e-06
1.28135e-07
-3.81796e-06
-1.09741e-08
-3.77557e-06
-1.58533e-07
-3.70235e-06
-3.13916e-07
-3.59677e-06
-4.76685e-07
-3.45757e-06
-6.4612e-07
-3.28373e-06
-8.20877e-07
-3.07447e-06
-9.99864e-07
-2.82934e-06
-1.18112e-06
-2.54823e-06
-1.36374e-06
-2.23136e-06
-1.54451e-06
-1.87942e-06
-1.72381e-06
-1.49334e-06
-1.89548e-06
-1.07497e-06
-2.06371e-06
-6.25692e-07
-2.21603e-06
-1.49139e-07
-2.36355e-06
3.5336e-07
-2.48586e-06
8.76853e-07
-2.60348e-06
1.42034e-06
-2.67697e-06
1.9765e-06
-2.77984e-06
2.54544e-06
-2.78435e-06
3.11593e-06
-2.88505e-06
3.69209e-06
-2.77295e-06
4.25614e-06
-2.92658e-06
4.82045e-06
-2.6022e-06
5.35635e-06
-2.94944e-06
5.89098e-06
-2.20795e-06
6.38037e-06
-3.0645e-06
6.87758e-06
-1.51077e-06
7.31919e-06
-3.52291e-06
7.87316e-06
-9.26073e-07
-6.17603e-06
5.97539e-06
3.73501e-05
2.23984e-06
1.95886e-05
-6.42557e-08
2.53384e-06
-5.83508e-07
2.3635e-06
-4.36548e-07
2.96836e-07
-5.9063e-07
9.12283e-07
-6.56329e-07
5.1591e-07
-7.80009e-07
6.87886e-07
-9.04689e-07
8.76833e-07
-1.05245e-06
8.571e-07
-1.20629e-06
1.01938e-06
-1.37353e-06
1.01215e-06
-1.54977e-06
1.14819e-06
-1.73721e-06
1.1939e-06
-1.93046e-06
1.27168e-06
-2.12626e-06
1.2791e-06
-2.32006e-06
1.27815e-06
-2.50915e-06
1.24262e-06
-2.69105e-06
1.19828e-06
-2.86411e-06
1.13561e-06
-3.02672e-06
1.06412e-06
-3.17707e-06
9.84409e-07
-3.31307e-06
8.98462e-07
-3.43275e-06
8.0101e-07
-3.53421e-06
6.91929e-07
-3.61549e-06
5.70686e-07
-3.67475e-06
4.37836e-07
-3.71022e-06
2.93553e-07
-3.72019e-06
1.38109e-07
-3.70304e-06
-2.81234e-08
-3.65707e-06
-2.04508e-07
-3.58055e-06
-3.90429e-07
-3.47202e-06
-5.85219e-07
-3.33022e-06
-7.87913e-07
-3.15416e-06
-9.9694e-07
-2.94309e-06
-1.21094e-06
-2.69655e-06
-1.42765e-06
-2.41445e-06
-1.64584e-06
-2.09701e-06
-1.86195e-06
-1.74494e-06
-2.07588e-06
-1.35916e-06
-2.28126e-06
-9.4153e-07
-2.48135e-06
-4.93393e-07
-2.66417e-06
-1.83007e-08
-2.83865e-06
4.82389e-07
-2.98655e-06
1.00389e-06
-3.12498e-06
1.54522e-06
-3.21829e-06
2.0987e-06
-3.33333e-06
2.66504e-06
-3.35069e-06
3.232e-06
-3.45201e-06
3.80553e-06
-3.34648e-06
4.36484e-06
-3.48589e-06
4.92754e-06
-3.1649e-06
5.45627e-06
-3.47817e-06
5.99279e-06
-2.74447e-06
6.46901e-06
-3.54072e-06
6.977e-06
-2.01876e-06
7.39167e-06
-3.93758e-06
7.96613e-06
-1.50053e-06
-6.72215e-06
6.56065e-06
4.07895e-05
2.97374e-06
2.31755e-05
2.29353e-07
5.27822e-06
-5.36981e-07
3.12984e-06
-4.51634e-07
2.11489e-07
-5.9244e-07
1.05309e-06
-6.52613e-07
5.76083e-07
-7.74557e-07
8.0983e-07
-8.9324e-07
9.95517e-07
-1.03813e-06
1.00199e-06
-1.18738e-06
1.16863e-06
-1.35065e-06
1.17541e-06
-1.52132e-06
1.31886e-06
-1.7026e-06
1.37518e-06
-1.88899e-06
1.45807e-06
-2.078e-06
1.46811e-06
-2.26512e-06
1.46527e-06
-2.44786e-06
1.42536e-06
-2.62368e-06
1.3741e-06
-2.79094e-06
1.30287e-06
-2.94794e-06
1.22113e-06
-3.09283e-06
1.1293e-06
-3.2235e-06
1.02913e-06
-3.33802e-06
9.15535e-07
-3.4345e-06
7.88405e-07
-3.51102e-06
6.47212e-07
-3.56577e-06
4.9258e-07
-3.59698e-06
3.24765e-07
-3.60297e-06
1.44104e-07
-3.5821e-06
-4.89974e-08
-3.53267e-06
-2.5394e-07
-3.45303e-06
-4.70071e-07
-3.34173e-06
-6.96513e-07
-3.19757e-06
-9.32074e-07
-3.01955e-06
-1.17496e-06
-2.80694e-06
-1.42355e-06
-2.55931e-06
-1.67528e-06
-2.27657e-06
-1.92858e-06
-1.95893e-06
-2.17959e-06
-1.60713e-06
-2.42768e-06
-1.22208e-06
-2.66631e-06
-8.05617e-07
-2.89781e-06
-3.59089e-07
-3.1107e-06
1.14081e-07
-3.31182e-06
6.12444e-07
-3.48492e-06
1.13139e-06
-3.64393e-06
1.66985e-06
-3.75675e-06
2.22006e-06
-3.88354e-06
2.78294e-06
-3.91356e-06
3.34591e-06
-4.01499e-06
3.91571e-06
-3.91628e-06
4.47018e-06
-4.04036e-06
5.02956e-06
-3.72428e-06
5.55201e-06
-4.00061e-06
6.0872e-06
-3.27966e-06
6.5537e-06
-4.00722e-06
7.06548e-06
-2.53055e-06
7.46263e-06
-4.33473e-06
8.04295e-06
-2.08085e-06
-7.20493e-06
7.07169e-06
4.37178e-05
3.68631e-06
2.65609e-05
6.52955e-07
8.31158e-06
-4.07282e-07
4.19007e-06
-4.60675e-07
2.64882e-07
-5.89474e-07
1.18189e-06
-6.44937e-07
6.31546e-07
-7.64479e-07
9.29372e-07
-8.77642e-07
1.10868e-06
-1.01918e-06
1.14352e-06
-1.16395e-06
1.3134e-06
-1.32297e-06
1.33443e-06
-1.48809e-06
1.48398e-06
-1.66314e-06
1.55024e-06
-1.8427e-06
1.63763e-06
-2.02491e-06
1.65032e-06
-2.20537e-06
1.64573e-06
-2.38172e-06
1.60171e-06
-2.5514e-06
1.54379e-06
-2.71277e-06
1.46423e-06
-2.86406e-06
1.37242e-06
-3.00337e-06
1.26861e-06
-3.1286e-06
1.15436e-06
-3.23788e-06
1.02481e-06
-3.3293e-06
8.79832e-07
-3.40101e-06
7.18922e-07
-3.4512e-06
5.42763e-07
-3.47813e-06
3.51695e-07
-3.48013e-06
1.46106e-07
-3.45555e-06
-7.35799e-08
-3.40271e-06
-3.06774e-07
-3.32003e-06
-5.52756e-07
-3.20608e-06
-8.10455e-07
-3.05969e-06
-1.07847e-06
-2.87987e-06
-1.35478e-06
-2.66592e-06
-1.6375e-06
-2.41741e-06
-1.9238e-06
-2.13426e-06
-2.21173e-06
-1.8167e-06
-2.49715e-06
-1.46547e-06
-2.77891e-06
-1.08145e-06
-3.05033e-06
-6.66503e-07
-3.31275e-06
-2.21947e-07
-3.55525e-06
2.48919e-07
-3.78268e-06
7.44539e-07
-3.98054e-06
1.26047e-06
-4.15986e-06
1.7955e-06
-4.29177e-06
2.34194e-06
-4.42999e-06
2.90074e-06
-4.47235e-06
3.45927e-06
-4.57353e-06
4.02459e-06
-4.48159e-06
4.57397e-06
-4.58975e-06
5.12897e-06
-4.27927e-06
5.64543e-06
-4.51707e-06
6.17742e-06
-3.81165e-06
6.6359e-06
-4.4657e-06
7.14758e-06
-3.04223e-06
7.53203e-06
-4.71918e-06
8.11047e-06
-2.65929e-06
-7.6374e-06
7.51714e-06
4.62006e-05
4.37126e-06
2.97068e-05
1.17973e-06
1.15031e-05
-2.08381e-07
5.57818e-06
-4.54128e-07
5.10629e-07
-5.81834e-07
1.30959e-06
-6.33638e-07
6.8335e-07
-7.50492e-07
1.04623e-06
-8.58432e-07
1.21662e-06
-9.96322e-07
1.28141e-06
-1.13662e-06
1.4537e-06
-1.2912e-06
1.48902e-06
-1.45074e-06
1.64352e-06
-1.61952e-06
1.71901e-06
-1.79225e-06
1.81036e-06
-1.96761e-06
1.82568e-06
-2.14135e-06
1.81947e-06
-2.31124e-06
1.7716e-06
-2.4747e-06
1.70724e-06
-2.63005e-06
1.61959e-06
-2.77549e-06
1.51785e-06
-2.90909e-06
1.40221e-06
-3.02877e-06
1.27404e-06
-3.13268e-06
1.12872e-06
-3.21896e-06
9.66113e-07
-3.28577e-06
7.85727e-07
-3.33132e-06
5.88311e-07
-3.3539e-06
3.74281e-07
-3.35186e-06
1.44069e-07
-3.32355e-06
-1.01891e-07
-3.26733e-06
-3.63e-07
-3.18163e-06
-6.3845e-07
-3.0651e-06
-9.26988e-07
-2.91656e-06
-1.22701e-06
-2.73505e-06
-1.53629e-06
-2.51989e-06
-1.85266e-06
-2.27065e-06
-2.17303e-06
-1.98729e-06
-2.4951e-06
-1.67002e-06
-2.81442e-06
-1.31958e-06
-3.12934e-06
-9.36868e-07
-3.43305e-06
-5.23711e-07
-3.72591e-06
-8.14313e-08
-3.99753e-06
3.86795e-07
-4.25091e-06
8.79309e-07
-4.47305e-06
1.39181e-06
-4.67236e-06
1.92295e-06
-4.82291e-06
2.46518e-06
-4.97223e-06
3.01938e-06
-5.02654e-06
3.57306e-06
-5.12721e-06
4.13329e-06
-5.04183e-06
4.67729e-06
-5.13375e-06
5.22714e-06
-4.82912e-06
5.73764e-06
-5.02758e-06
6.26519e-06
-4.3392e-06
6.71652e-06
-4.91702e-06
7.22569e-06
-3.5514e-06
7.60006e-06
-5.09355e-06
8.17216e-06
-3.23139e-06
-8.02779e-06
7.90467e-06
4.8296e-05
5.02273e-06
3.25887e-05
1.77263e-06
1.47532e-05
5.66296e-08
7.29418e-06
-4.21891e-07
9.89149e-07
-5.68582e-07
1.45628e-06
-6.18686e-07
7.33453e-07
-7.32895e-07
1.16044e-06
-8.35849e-07
1.31957e-06
-9.69926e-07
1.41549e-06
-1.10572e-06
1.58949e-06
-1.25573e-06
1.63903e-06
-1.40966e-06
1.79745e-06
-1.5721e-06
1.88145e-06
-1.73797e-06
1.97624e-06
-1.90643e-06
1.99414e-06
-2.07339e-06
1.98643e-06
-2.23672e-06
1.93493e-06
-2.39383e-06
1.86435e-06
-2.54303e-06
1.7688e-06
-2.68247e-06
1.65729e-06
-2.81021e-06
1.52995e-06
-2.92421e-06
1.38804e-06
-3.02263e-06
1.22714e-06
-3.10365e-06
1.04713e-06
-3.16544e-06
8.47522e-07
-3.20626e-06
6.29127e-07
-3.22442e-06
3.92439e-07
-3.21827e-06
1.37923e-07
-3.18619e-06
-1.33977e-07
-3.12655e-06
-4.22637e-07
-3.03785e-06
-7.27147e-07
-2.91875e-06
-1.04609e-06
-2.76811e-06
-1.37766e-06
-2.58498e-06
-1.71941e-06
-2.36871e-06
-2.06894e-06
-2.11888e-06
-2.42286e-06
-1.83544e-06
-2.77853e-06
-1.51864e-06
-3.13123e-06
-1.1692e-06
-3.47877e-06
-7.8802e-07
-3.81423e-06
-3.769e-07
-4.13703e-06
6.28301e-08
-4.43726e-06
5.28109e-07
-4.71619e-06
1.01718e-06
-4.96212e-06
1.52588e-06
-5.18106e-06
2.05272e-06
-5.34975e-06
2.59033e-06
-5.50984e-06
3.13947e-06
-5.57568e-06
3.68789e-06
-5.67563e-06
4.24255e-06
-5.59649e-06
4.78084e-06
-5.67204e-06
5.32493e-06
-5.37321e-06
5.82935e-06
-5.532e-06
6.35159e-06
-4.86144e-06
6.79617e-06
-5.3616e-06
7.30123e-06
-4.05646e-06
7.66697e-06
-5.45929e-06
8.22998e-06
-3.7944e-06
-8.38171e-06
8.24124e-06
5.00547e-05
5.6361e-06
3.51939e-05
2.41003e-06
1.79793e-05
4.33676e-07
9.27053e-06
-3.53515e-07
1.77634e-06
-5.47384e-07
1.65015e-06
-5.99712e-07
7.85782e-07
-7.11699e-07
1.27242e-06
-8.09937e-07
1.41781e-06
-9.40134e-07
1.54569e-06
-1.07139e-06
1.72074e-06
-1.21672e-06
1.78436e-06
-1.365e-06
1.94573e-06
-1.52108e-06
2.03753e-06
-1.68007e-06
2.13522e-06
-1.84155e-06
2.15563e-06
-2.00163e-06
2.14651e-06
-2.15829e-06
2.09159e-06
-2.30892e-06
2.01498e-06
-2.45183e-06
1.91171e-06
-2.58511e-06
1.79057e-06
-2.70685e-06
1.65168e-06
-2.81501e-06
1.4962e-06
-2.90781e-06
1.31994e-06
-2.98343e-06
1.12275e-06
-3.04009e-06
9.04186e-07
-3.07607e-06
6.65104e-07
-3.08971e-06
4.06074e-07
-3.07937e-06
1.27589e-07
-3.04345e-06
-1.69897e-07
-2.98037e-06
-4.85722e-07
-2.88865e-06
-8.18865e-07
-2.76699e-06
-1.16775e-06
-2.61427e-06
-1.53038e-06
-2.42958e-06
-1.9041e-06
-2.21226e-06
-2.28625e-06
-1.96194e-06
-2.67319e-06
-1.67856e-06
-3.0619e-06
-1.36237e-06
-3.44742e-06
-1.01412e-06
-3.82702e-06
-6.34673e-07
-4.19368e-06
-2.25817e-07
-4.54589e-06
2.1111e-07
-4.87419e-06
6.73149e-07
-5.17823e-06
1.15847e-06
-5.44744e-06
1.663e-06
-5.68559e-06
2.18516e-06
-5.87192e-06
2.71777e-06
-6.04244e-06
3.26145e-06
-6.11936e-06
3.80422e-06
-6.2184e-06
4.35286e-06
-6.14512e-06
4.88508e-06
-6.20426e-06
5.42292e-06
-5.91105e-06
5.92106e-06
-6.03013e-06
6.4373e-06
-5.37768e-06
6.87528e-06
-5.79958e-06
7.37508e-06
-4.55626e-06
7.73298e-06
-5.81719e-06
8.28512e-06
-4.34655e-06
-8.70322e-06
8.53308e-06
5.15216e-05
6.20807e-06
3.75189e-05
3.06972e-06
2.11176e-05
8.67032e-07
1.14732e-05
-2.22836e-07
2.86621e-06
-5.13526e-07
1.94084e-06
-5.759e-07
8.48156e-07
-6.86666e-07
1.38319e-06
-7.80577e-07
1.51172e-06
-9.06934e-07
1.67204e-06
-1.03363e-06
1.84744e-06
-1.17423e-06
1.92496e-06
-1.31685e-06
2.08834e-06
-1.46653e-06
2.18721e-06
-1.6186e-06
2.28729e-06
-1.77304e-06
2.31007e-06
-1.92614e-06
2.29961e-06
-2.076e-06
2.24145e-06
-2.22002e-06
2.159e-06
-2.35648e-06
2.04817e-06
-2.48346e-06
1.91755e-06
-2.59903e-06
1.76726e-06
-2.70121e-06
1.59838e-06
-2.78824e-06
1.40697e-06
-2.85833e-06
1.19284e-06
-2.90974e-06
9.55592e-07
-2.94076e-06
6.96124e-07
-2.94976e-06
4.15078e-07
-2.93515e-06
1.12975e-07
-2.89532e-06
-2.09724e-07
-2.82874e-06
-5.52306e-07
-2.73397e-06
-9.13635e-07
-2.60974e-06
-1.29198e-06
-2.45496e-06
-1.68516e-06
-2.26873e-06
-2.09033e-06
-2.05044e-06
-2.50454e-06
-1.7997e-06
-2.92392e-06
-1.5165e-06
-3.34511e-06
-1.20107e-06
-3.76285e-06
-8.54162e-07
-4.17393e-06
-4.76641e-07
-4.5712e-06
-7.02626e-08
-4.95226e-06
3.63618e-07
-5.30807e-06
8.22134e-07
-5.63674e-06
1.30339e-06
-5.9287e-06
1.80343e-06
-6.18563e-06
2.32056e-06
-6.38905e-06
2.84778e-06
-6.56967e-06
3.38561e-06
-6.65719e-06
3.92236e-06
-6.75515e-06
4.46456e-06
-6.68733e-06
4.99037e-06
-6.73007e-06
5.52151e-06
-6.44219e-06
6.0131e-06
-6.52172e-06
6.52279e-06
-5.88737e-06
6.95416e-06
-6.23095e-06
7.44782e-06
-5.04992e-06
7.79827e-06
-6.16764e-06
8.33837e-06
-4.88665e-06
-8.9954e-06
8.78575e-06
5.27359e-05
6.73671e-06
3.95679e-05
3.73568e-06
2.41187e-05
1.36107e-06
1.38478e-05
-1.01731e-08
4.23745e-06
-4.58308e-07
2.38898e-06
-5.45724e-07
9.35572e-07
-6.57288e-07
1.49475e-06
-7.47495e-07
1.60193e-06
-8.70185e-07
1.79473e-06
-9.92355e-07
1.96961e-06
-1.1282e-06
2.06081e-06
-1.26514e-06
2.22529e-06
-1.40843e-06
2.3305e-06
-1.55355e-06
2.4324e-06
-1.70089e-06
2.45741e-06
-1.84692e-06
2.44564e-06
-1.98986e-06
2.38439e-06
-2.12712e-06
2.29626e-06
-2.25698e-06
2.17803e-06
-2.37749e-06
2.03806e-06
-2.48675e-06
1.87652e-06
-2.5828e-06
1.69443e-06
-2.6639e-06
1.48807e-06
-2.72833e-06
1.25727e-06
-2.77434e-06
1.00161e-06
-2.80029e-06
7.22065e-07
-2.80455e-06
4.19342e-07
-2.78556e-06
9.39855e-08
-2.74175e-06
-2.53535e-07
-2.67161e-06
-6.22447e-07
-2.57375e-06
-1.01149e-06
-2.44693e-06
-1.4188e-06
-2.29009e-06
-1.842e-06
-2.10236e-06
-2.27805e-06
-1.88314e-06
-2.72376e-06
-1.63207e-06
-3.175e-06
-1.34914e-06
-3.62804e-06
-1.03459e-06
-4.0774e-06
-6.89183e-07
-4.51933e-06
-3.13772e-07
-4.94661e-06
8.99217e-08
-5.35596e-06
5.2052e-07
-5.73867e-06
9.75241e-07
-6.09146e-06
1.45214e-06
-6.4056e-06
1.94735e-06
-6.68084e-06
2.45911e-06
-6.9008e-06
2.98059e-06
-7.09115e-06
3.5122e-06
-7.1888e-06
4.04254e-06
-7.28549e-06
4.57792e-06
-7.22272e-06
5.09696e-06
-7.24911e-06
5.62098e-06
-6.9662e-06
6.10574e-06
-7.00649e-06
6.6084e-06
-6.39002e-06
7.03304e-06
-6.65559e-06
7.51987e-06
-5.53675e-06
7.863e-06
-6.51077e-06
8.39024e-06
-5.41388e-06
-9.26068e-06
9.00422e-06
5.37317e-05
7.22126e-06
4.13509e-05
4.39578e-06
2.69442e-05
1.90545e-06
1.63382e-05
2.35708e-07
5.90719e-06
-3.67879e-07
2.99257e-06
-5.06506e-07
1.0742e-06
-6.22714e-07
1.61096e-06
-7.10245e-07
1.68946e-06
-8.29614e-07
1.9141e-06
-9.47356e-07
2.08735e-06
-1.07848e-06
2.19192e-06
-1.20977e-06
2.35659e-06
-1.34669e-06
2.46742e-06
-1.48484e-06
2.57056e-06
-1.62502e-06
2.59758e-06
-1.76389e-06
2.58451e-06
-1.89979e-06
2.52029e-06
-2.03015e-06
2.42662e-06
-2.15326e-06
2.30114e-06
-2.26715e-06
2.15195e-06
-2.36994e-06
1.97931e-06
-2.4597e-06
1.7842e-06
-2.53475e-06
1.56312e-06
-2.59336e-06
1.31588e-06
-2.63386e-06
1.0421e-06
-2.6546e-06
7.42805e-07
-2.65401e-06
4.18754e-07
-2.63054e-06
7.05212e-08
-2.58267e-06
-3.01412e-07
-2.5089e-06
-6.96208e-07
-2.40791e-06
-1.11249e-06
-2.27848e-06
-1.54823e-06
-2.11957e-06
-2.00091e-06
-1.93036e-06
-2.46727e-06
-1.71026e-06
-2.94387e-06
-1.45892e-06
-3.42633e-06
-1.17636e-06
-3.9106e-06
-8.62821e-07
-4.39094e-06
-5.19063e-07
-4.86309e-06
-1.45937e-07
-5.31974e-06
2.54868e-07
-5.75676e-06
6.81952e-07
-6.16575e-06
1.13261e-06
-6.54212e-06
1.60487e-06
-6.87786e-06
2.09493e-06
-7.1709e-06
2.60097e-06
-7.40684e-06
3.11636e-06
-7.60654e-06
3.64138e-06
-7.71382e-06
4.16495e-06
-7.80905e-06
4.69313e-06
-7.7509e-06
5.20504e-06
-7.76103e-06
5.72154e-06
-7.4827e-06
6.19918e-06
-7.48412e-06
6.69436e-06
-6.88521e-06
7.11211e-06
-7.07334e-06
7.59151e-06
-6.01616e-06
7.92732e-06
-6.84657e-06
8.44113e-06
-5.92769e-06
-9.50102e-06
9.19303e-06
5.45387e-05
7.66201e-06
4.28819e-05
5.04046e-06
2.95657e-05
2.49122e-06
1.88874e-05
5.73758e-07
7.82465e-06
-2.29524e-07
3.79585e-06
-4.53862e-07
1.29854e-06
-5.81601e-07
1.7387e-06
-6.68166e-07
1.77603e-06
-7.84807e-07
2.03074e-06
-8.98333e-07
2.20088e-06
-1.02483e-06
2.31842e-06
-1.15055e-06
2.4823e-06
-1.28113e-06
2.598e-06
-1.41233e-06
2.70176e-06
-1.54531e-06
2.73056e-06
-1.67693e-06
2.71613e-06
-1.80568e-06
2.64904e-06
-1.92902e-06
2.54995e-06
-2.04523e-06
2.41735e-06
-2.15234e-06
2.25906e-06
-2.24851e-06
2.07548e-06
-2.33185e-06
1.86753e-06
-2.40069e-06
1.63196e-06
-2.45335e-06
1.36854e-06
-2.48819e-06
1.07695e-06
-2.50361e-06
7.5822e-07
-2.49805e-06
4.13203e-07
-2.47002e-06
4.24842e-08
-2.41799e-06
-3.53437e-07
-2.34055e-06
-7.73654e-07
-2.23637e-06
-1.21666e-06
-2.1043e-06
-1.6803e-06
-1.94332e-06
-2.16188e-06
-1.75265e-06
-2.65794e-06
-1.5317e-06
-3.16481e-06
-1.28017e-06
-3.67786e-06
-9.98069e-07
-4.1927e-06
-6.85657e-07
-4.70335e-06
-3.43693e-07
-5.20505e-06
2.69748e-08
-5.69041e-06
4.24689e-07
-6.15448e-06
8.48028e-07
-6.58909e-06
1.29436e-06
-6.98845e-06
1.76169e-06
-7.34519e-06
2.24629e-06
-7.6555e-06
2.74628e-06
-7.90684e-06
3.25523e-06
-8.11549e-06
3.77331e-06
-8.2319e-06
4.28974e-06
-8.32549e-06
4.81035e-06
-8.2715e-06
5.31477e-06
-8.26545e-06
5.82338e-06
-7.99131e-06
6.29356e-06
-7.9543e-06
6.78087e-06
-7.37251e-06
7.19149e-06
-7.48396e-06
7.66297e-06
-6.48764e-06
7.99133e-06
-7.17493e-06
8.49131e-06
-6.42767e-06
-9.71805e-06
9.35623e-06
5.51824e-05
8.06007e-06
4.4178e-05
5.66214e-06
3.19636e-05
3.10801e-06
2.14415e-05
9.91801e-07
9.94086e-06
-4.05207e-08
4.82817e-06
-3.81371e-07
1.63939e-06
-5.31879e-07
1.88921e-06
-6.20322e-07
1.86447e-06
-7.35182e-07
2.1456e-06
-8.44865e-07
2.31056e-06
-9.66932e-07
2.44049e-06
-1.08719e-06
2.60256e-06
-1.21152e-06
2.72234e-06
-1.33581e-06
2.82605e-06
-1.46158e-06
2.85632e-06
-1.58589e-06
2.84044e-06
-1.70739e-06
2.77054e-06
-1.82357e-06
2.66613e-06
-1.93275e-06
2.52653e-06
-2.03295e-06
2.35927e-06
-2.12236e-06
2.16489e-06
-2.19912e-06
1.94429e-06
-2.26161e-06
1.69445e-06
-2.30819e-06
1.41512e-06
-2.33725e-06
1.106e-06
-2.34722e-06
7.68191e-07
-2.33659e-06
4.02579e-07
-2.30389e-06
9.77843e-09
-2.24763e-06
-4.09692e-07
-2.16644e-06
-8.54848e-07
-2.05904e-06
-1.32406e-06
-1.9243e-06
-1.81505e-06
-1.76125e-06
-2.32493e-06
-1.56912e-06
-2.85007e-06
-1.34738e-06
-3.38656e-06
-1.09572e-06
-3.92953e-06
-8.14169e-07
-4.47424e-06
-5.03003e-07
-5.01452e-06
-1.62977e-07
-5.54508e-06
2.0506e-07
-6.05844e-06
5.99482e-07
-6.5489e-06
1.01885e-06
-7.00845e-06
1.46059e-06
-7.43019e-06
1.9227e-06
-7.8073e-06
2.40153e-06
-8.13433e-06
2.89516e-06
-8.40047e-06
3.39732e-06
-8.61765e-06
3.90811e-06
-8.74269e-06
4.41704e-06
-8.83441e-06
4.92971e-06
-8.78417e-06
5.42628e-06
-8.76202e-06
5.92662e-06
-8.49166e-06
6.38902e-06
-8.4167e-06
6.86806e-06
-7.85155e-06
7.27129e-06
-7.88719e-06
7.73441e-06
-6.95076e-06
8.05513e-06
-7.49566e-06
8.541e-06
-6.91354e-06
-9.91315e-06
9.49746e-06
5.5685e-05
8.41722e-06
4.52583e-05
6.2548e-06
3.41261e-05
3.74509e-06
2.39512e-05
1.48062e-06
1.22053e-05
2.29976e-07
6.07881e-06
-2.80704e-07
2.15007e-06
-4.70383e-07
2.07889e-06
-5.65392e-07
1.95948e-06
-6.79946e-07
2.26016e-06
-7.86396e-07
2.41701e-06
-9.0435e-07
2.55844e-06
-1.01933e-06
2.71754e-06
-1.13757e-06
2.84057e-06
-1.25502e-06
2.9435e-06
-1.37358e-06
2.97489e-06
-1.49054e-06
2.9574e-06
-1.60471e-06
2.88471e-06
-1.71363e-06
2.77506e-06
-1.81565e-06
2.62855e-06
-1.90881e-06
2.45243e-06
-1.99132e-06
2.2474e-06
-2.06137e-06
2.01434e-06
-2.11738e-06
1.75046e-06
-2.15775e-06
1.45549e-06
-2.1809e-06
1.12916e-06
-2.18531e-06
7.72604e-07
-2.16951e-06
3.8678e-07
-2.13205e-06
-2.76879e-08
-2.07149e-06
-4.70253e-07
-1.98648e-06
-9.39852e-07
-1.87581e-06
-1.43474e-06
-1.73838e-06
-1.95248e-06
-1.57326e-06
-2.49005e-06
-1.3797e-06
-3.04363e-06
-1.1572e-06
-3.60906e-06
-9.05472e-07
-4.18126e-06
-6.24572e-07
-4.75514e-06
-3.14771e-07
-5.32432e-06
2.31731e-08
-5.88302e-06
3.88406e-07
-6.42368e-06
7.7933e-07
-6.93982e-06
1.19449e-06
-7.42361e-06
1.63138e-06
-7.86709e-06
2.088e-06
-8.26392e-06
2.56075e-06
-8.60708e-06
3.04769e-06
-8.88741e-06
3.54273e-06
-9.1127e-06
4.04587e-06
-9.24583e-06
4.54693e-06
-9.33548e-06
5.0513e-06
-9.28854e-06
5.53965e-06
-9.25037e-06
6.03138e-06
-8.98339e-06
6.48565e-06
-8.87097e-06
6.95606e-06
-8.32197e-06
7.35163e-06
-8.28276e-06
7.80596e-06
-7.40509e-06
8.11882e-06
-7.80852e-06
8.59038e-06
-7.3851e-06
-1.00875e-05
9.61998e-06
5.6065e-05
8.73577e-06
4.61425e-05
6.81384e-06
3.6048e-05
4.39197e-06
2.63731e-05
2.02759e-06
1.45697e-05
5.61756e-07
7.54464e-06
-1.37595e-07
2.84942e-06
-3.92364e-07
2.33365e-06
-5.01531e-07
2.06865e-06
-6.18032e-07
2.37666e-06
-7.22202e-07
2.52118e-06
-8.3653e-07
2.67277e-06
-9.4654e-07
2.82755e-06
-1.05887e-06
2.9529e-06
-1.16961e-06
3.05424e-06
-1.28102e-06
3.0863e-06
-1.39062e-06
3.067e-06
-1.4974e-06
2.99149e-06
-1.59897e-06
2.87663e-06
-1.69373e-06
2.72331e-06
-1.77973e-06
2.53843e-06
-1.85523e-06
2.32289e-06
-1.91844e-06
2.07756e-06
-1.96785e-06
1.79986e-06
-2.00188e-06
1.48952e-06
-2.01901e-06
1.14629e-06
-2.01776e-06
7.71351e-07
-1.99669e-06
3.65708e-07
-1.95438e-06
-7.00002e-08
-1.88944e-06
-5.35193e-07
-1.80057e-06
-1.02872e-06
-1.68659e-06
-1.54871e-06
-1.54645e-06
-2.09262e-06
-1.37925e-06
-2.65724e-06
-1.18429e-06
-3.23859e-06
-9.61073e-07
-3.83227e-06
-7.09351e-07
-4.43298e-06
-4.29192e-07
-5.0353e-06
-1.20878e-07
-5.63264e-06
2.14837e-07
-6.21874e-06
5.7709e-07
-6.78593e-06
9.64312e-07
-7.32705e-06
1.37504e-06
-7.83434e-06
1.80682e-06
-8.29887e-06
2.25766e-06
-8.71475e-06
2.72402e-06
-9.07344e-06
3.20394e-06
-9.36733e-06
3.69152e-06
-9.60027e-06
4.18667e-06
-9.74098e-06
4.67952e-06
-9.82833e-06
5.17522e-06
-9.78424e-06
5.65499e-06
-9.73015e-06
6.13773e-06
-9.46612e-06
6.58353e-06
-9.31677e-06
7.04496e-06
-8.7834e-06
7.43256e-06
-8.67036e-06
7.87772e-06
-7.85025e-06
8.18246e-06
-8.11326e-06
8.63956e-06
-7.8422e-06
-1.02421e-05
9.72667e-06
5.63383e-05
9.01836e-06
4.68508e-05
7.33597e-06
3.77304e-05
5.03879e-06
2.86703e-05
2.62074e-06
1.69878e-05
9.57248e-07
9.20813e-06
5.79189e-08
3.74875e-06
-2.91074e-07
2.68265e-06
-4.26156e-07
2.20373e-06
-5.48014e-07
2.49852e-06
-6.5135e-07
2.62452e-06
-7.62775e-07
2.78419e-06
-8.68246e-07
2.93302e-06
-9.74973e-07
3.05963e-06
-1.07918e-06
3.15844e-06
-1.18355e-06
3.19066e-06
-1.28581e-06
3.16926e-06
-1.38518e-06
3.09086e-06
-1.47934e-06
2.9708e-06
-1.56675e-06
2.81072e-06
-1.64549e-06
2.61717e-06
-1.71386e-06
2.39126e-06
-1.77013e-06
2.13383e-06
-1.81282e-06
1.84255e-06
-1.84041e-06
1.51711e-06
-1.85142e-06
1.15731e-06
-1.8444e-06
7.64337e-07
-1.81797e-06
3.39275e-07
-1.77074e-06
-1.17235e-07
-1.70135e-06
-6.04574e-07
-1.60857e-06
-1.1215e-06
-1.49126e-06
-1.66603e-06
-1.34839e-06
-2.23548e-06
-1.17913e-06
-2.82651e-06
-9.82781e-07
-3.43494e-06
-7.58906e-07
-4.05615e-06
-5.07265e-07
-4.68462e-06
-2.27947e-07
-5.31462e-06
7.87566e-08
-5.93934e-06
4.12091e-07
-6.55207e-06
7.71185e-07
-7.14502e-06
1.1545e-06
-7.71036e-06
1.56056e-06
-8.2404e-06
1.98697e-06
-8.72529e-06
2.43174e-06
-9.15952e-06
2.89141e-06
-9.53311e-06
3.36401e-06
-9.83993e-06
3.84378e-06
-1.008e-05
4.33059e-06
-1.02278e-05
4.81485e-06
-1.03126e-05
5.30153e-06
-1.02709e-05
5.77236e-06
-1.0201e-05
6.24576e-06
-9.93951e-06
6.68274e-06
-9.75375e-06
7.13483e-06
-9.23549e-06
7.51415e-06
-9.04968e-06
7.94979e-06
-8.28589e-06
8.24613e-06
-8.4096e-06
8.68867e-06
-8.28475e-06
-1.03779e-05
9.82004e-06
5.65183e-05
9.26795e-06
4.74029e-05
7.81904e-06
3.91793e-05
5.6766e-06
3.08127e-05
3.24915e-06
1.94152e-05
1.41497e-06
1.10423e-05
3.04632e-07
4.85908e-06
-1.57983e-07
3.14526e-06
-3.35693e-07
2.38144e-06
-4.67989e-07
2.63081e-06
-5.72645e-07
2.72917e-06
-6.82209e-07
2.89376e-06
-7.83761e-07
3.03457e-06
-8.85295e-07
3.16116e-06
-9.83248e-07
3.2564e-06
-1.08073e-06
3.28814e-06
-1.17573e-06
3.26427e-06
-1.26769e-06
3.18282e-06
-1.35442e-06
3.05752e-06
-1.43442e-06
2.89072e-06
-1.50582e-06
2.68857e-06
-1.56697e-06
2.45242e-06
-1.61621e-06
2.18307e-06
-1.65209e-06
1.87842e-06
-1.67314e-06
1.53816e-06
-1.67793e-06
1.1621e-06
-1.66507e-06
7.51476e-07
-1.6332e-06
3.07404e-07
-1.58098e-06
-1.69461e-07
-1.5071e-06
-6.78451e-07
-1.41037e-06
-1.21823e-06
-1.28969e-06
-1.78671e-06
-1.1441e-06
-2.38108e-06
-9.72776e-07
-2.99783e-06
-7.75086e-07
-3.63263e-06
-5.50606e-07
-4.28063e-06
-2.99127e-07
-4.9361e-06
-2.07531e-08