/*--------------------------------*- C++ -*----------------------------------*\
| =========                 |                                                 |
| \\      /  F ield         | OpenFOAM: The Open Source CFD Toolbox           |
|  \\    /   O peration     | Version:  2.4.0                                 |
|   \\  /    A nd           | Web:      www.OpenFOAM.org                      |
|    \\/     M anipulation  |                                                 |
\*---------------------------------------------------------------------------*/
FoamFile
{
    version     2.0;
    format      ascii;
    class       volScalarField;
    location    "0.84";
    object      p;
}
// * * * * * * * * * * * * * * * * * * * * * * * * * * * * * * * * * * * * * //

dimensions      [0 2 -2 0 0 0 0];

internalField   nonuniform List<scalar> 
2320
(
1.08908
1.08361
1.08588
1.07944
1.07532
1.08647
1.08008
1.06188
1.10137
1.07689
1.07206
1.08766
1.07611
1.07896
1.05954
1.07946
1.07293
1.0385
1.03585
1.04175
1.07594
1.05824
1.04815
1.05373
1.06873
1.08942
1.04425
1.03183
1.06468
1.07322
1.07667
1.06742
1.06054
1.06129
1.05333
1.05496
1.06129
1.04584
1.00532
1.026
1.07471
1.0671
1.07298
1.07882
1.07978
1.0842
1.07597
1.06624
1.08187
1.07457
1.08012
1.07744
1.06602
1.08159
1.07176
1.08102
1.07363
1.04755
1.04301
1.04114
1.08192
1.07547
1.08802
1.08295
1.07544
1.08002
1.07663
1.06462
1.07354
1.07347
1.07637
1.07523
1.07045
1.07275
1.06403
1.05966
1.04733
1.04834
1.02992
1.03388
1.08214
1.07447
1.08126
1.07985
1.07665
1.07906
1.08026
1.07594
1.08468
1.08101
1.07846
1.07927
1.07414
1.07815
1.06644
1.07362
1.06513
1.05691
1.0593
1.04353
1.08251
1.07794
1.08396
1.07994
1.07844
1.07958
1.08046
1.07607
1.08115
1.07595
1.079
1.08012
1.07313
1.07533
1.0653
1.06724
1.05522
1.05583
1.0561
1.04143
1.08252
1.07792
1.08049
1.07858
1.07756
1.07857
1.081
1.07874
1.08332
1.07984
1.08171
1.08316
1.07478
1.07962
1.0659
1.07137
1.06759
1.06356
1.06212
1.04762
1.0829
1.07787
1.07966
1.07814
1.07793
1.07965
1.08269
1.07994
1.08218
1.07752
1.08059
1.0808
1.0732
1.07636
1.06854
1.0726
1.06867
1.06285
1.0644
1.05033
1.08265
1.07847
1.08067
1.07904
1.07857
1.07936
1.08262
1.08019
1.08146
1.07659
1.07976
1.081
1.07544
1.08087
1.07396
1.07903
1.07394
1.07029
1.06988
1.05668
1.08263
1.07848
1.08066
1.07935
1.0786
1.07912
1.08223
1.08016
1.08168
1.07692
1.07947
1.07943
1.07719
1.08194
1.07623
1.08177
1.07535
1.07302
1.07505
1.06227
1.08314
1.0787
1.08055
1.0801
1.08065
1.07984
1.08083
1.08009
1.08207
1.07675
1.07994
1.0792
1.07839
1.08467
1.07806
1.08408
1.08035
1.07873
1.08191
1.07002
1.08386
1.07915
1.08088
1.08111
1.08159
1.08121
1.08074
1.07939
1.08266
1.07803
1.08061
1.08091
1.08049
1.08579
1.07963
1.08664
1.08392
1.08305
1.08712
1.07645
1.08366
1.07932
1.08128
1.08162
1.08196
1.08243
1.08132
1.0796
1.08277
1.07954
1.08143
1.08221
1.08136
1.08661
1.08071
1.08927
1.08705
1.08716
1.09512
1.08363
1.08429
1.07913
1.08091
1.08225
1.0822
1.08298
1.08202
1.08063
1.08264
1.08146
1.08167
1.08288
1.08226
1.08666
1.08237
1.0899
1.08959
1.0918
1.10079
1.09211
1.08413
1.07983
1.08008
1.08207
1.08188
1.08316
1.0825
1.08192
1.08274
1.08259
1.08307
1.08314
1.08379
1.08794
1.0838
1.09426
1.09193
1.09513
1.10643
1.09981
1.08359
1.0804
1.07982
1.08088
1.08131
1.08318
1.08289
1.08326
1.0836
1.08314
1.08402
1.08416
1.08512
1.0898
1.08355
1.0964
1.09395
1.09889
1.11179
1.10866
1.08312
1.08055
1.08031
1.08015
1.08068
1.08316
1.0832
1.08436
1.08415
1.08232
1.08456
1.08423
1.08595
1.09134
1.08591
1.0981
1.0963
1.10433
1.11837
1.11813
1.08377
1.08106
1.08126
1.08067
1.08034
1.08317
1.08318
1.08511
1.08449
1.08192
1.08406
1.08514
1.08581
1.09395
1.08786
1.10111
1.09784
1.11218
1.12571
1.12889
1.08489
1.08212
1.08198
1.08213
1.0806
1.08322
1.08362
1.0853
1.08528
1.08303
1.08478
1.0862
1.08715
1.09442
1.08947
1.10209
1.09997
1.11558
1.13119
1.13607
1.08527
1.08273
1.08215
1.08295
1.08095
1.08331
1.08373
1.08548
1.08576
1.08546
1.08568
1.08756
1.08712
1.09492
1.08922
1.10389
1.10004
1.11961
1.1329
1.16228
1.01324
0.972059
0.956147
0.93391
0.880291
0.804467
0.703085
0.62179
1.00606
0.968551
0.909467
0.913464
0.869958
0.787002
0.696096
0.624207
1.01733
0.977842
0.954164
0.935762
0.883695
0.807537
0.717511
0.621635
1.01181
0.988776
0.983014
0.930474
0.880042
0.813566
0.746213
0.633863
1.02678
1.00017
0.980375
0.944203
0.894281
0.82972
0.761046
0.660454
1.02619
1.0078
0.989339
0.954595
0.90652
0.849531
0.77708
0.681978
1.03678
1.01977
0.996028
0.971891
0.923541
0.865774
0.800387
0.707172
1.04059
1.02727
1.00555
0.98171
0.940543
0.88798
0.826468
0.732201
1.05084
1.03799
1.01662
0.999034
0.960244
0.91162
0.853192
0.768574
1.05966
1.04766
1.02981
1.01252
0.980012
0.934479
0.884907
0.801463
1.06894
1.06211
1.04291
1.03201
1.00039
0.963074
0.914261
0.839415
1.0792
1.07198
1.05721
1.05133
1.02038
0.994818
0.946757
0.878655
1.08996
1.0839
1.07356
1.06942
1.04535
1.02717
0.98342
0.922596
1.10197
1.094
1.08873
1.08777
1.06878
1.05887
1.02069
0.97145
1.11528
1.10441
1.10291
1.10388
1.09345
1.09202
1.05879
1.02035
1.12864
1.11366
1.11855
1.12135
1.11453
1.12468
1.09317
1.07039
1.14171
1.12346
1.12857
1.13705
1.13815
1.15565
1.12265
1.11803
1.15747
1.13263
1.14152
1.1496
1.16233
1.18776
1.1512
1.14697
1.17106
1.13957
1.15007
1.16212
1.17608
1.20768
1.15073
1.17321
1.18989
1.14616
1.14423
1.16694
1.19337
1.22915
1.17954
1.14831
0.460826
0.288414
0.0460791
-0.26655
-0.734641
-1.2049
-1.81914
-2.53754
-3.28819
-4.13752
-5.00515
-5.83222
-6.62203
-7.28554
-7.7773
-8.07528
-8.15166
-8.0094
-7.6511
-7.05655
-6.30729
-5.44294
-4.56359
-3.64078
-2.83018
-2.01559
-1.39859
-0.667746
0.457743
0.272769
0.034297
-0.27177
-0.724042
-1.2098
-1.82161
-2.54125
-3.31931
-4.17552
-5.04342
-5.87962
-6.67239
-7.34241
-7.82958
-8.13228
-8.20725
-8.0676
-7.70325
-7.10871
-6.34861
-5.48404
-4.58689
-3.66761
-2.82745
-2.03874
-1.37815
-0.820139
0.464139
0.304998
0.023593
-0.27886
-0.699518
-1.22558
-1.82592
-2.56035
-3.36575
-4.23854
-5.10854
-5.96382
-6.76906
-7.45158
-7.93648
-8.24238
-8.32362
-8.18059
-7.8147
-7.20924
-6.43902
-5.56247
-4.64643
-3.71495
-2.85682
-2.05109
-1.36988
-0.821898
0.482761
0.31527
0.0364587
-0.277751
-0.686441
-1.24007
-1.85643
-2.60114
-3.44348
-4.33211
-5.21525
-6.09362
-6.91697
-7.6119
-8.09834
-8.41571
-8.49789
-8.36188
-7.97939
-7.36551
-6.57834
-5.68533
-4.73407
-3.78727
-2.89632
-2.07206
-1.38175
-0.816239
0.499827
0.326596
0.0619197
-0.277542
-0.68306
-1.24994
-1.89672
-2.66322
-3.54077
-4.45429
-5.36609
-6.26532
-7.11712
-7.82615
-8.32115
-8.6467
-8.73169
-8.59587
-8.20126
-7.56854
-6.76785
-5.8441
-4.86406
-3.89256
-2.9574
-2.10665
-1.39643
-0.805322
0.524335
0.34577
0.0873699
-0.266436
-0.688446
-1.25837
-1.95778
-2.75205
-3.6612
-4.60207
-5.55144
-6.4777
-7.36205
-8.09045
-8.59858
-8.93844
-9.02327
-8.87813
-8.46523
-7.81472
-7.00458
-6.0432
-5.02633
-4.03649
-3.05246
-2.15966
-1.41218
-0.803214
0.555378
0.376235
0.119506
-0.247104
-0.69137
-1.273
-2.02182
-2.86348
-3.80107
-4.77428
-5.7621
-6.71512
-7.63019
-8.37394
-8.89874
-9.242
-9.32048
-9.17852
-8.7455
-8.07188
-7.25134
-6.25271
-5.21638
-4.19412
-3.16425
-2.2275
-1.44368
-0.805269
0.590804
0.407644
0.152438
-0.222441
-0.695404
-1.29748
-2.09246
-2.97968
-3.94402
-4.94181
-5.96367
-6.93963
-7.87694
-8.64137
-9.18279
-9.52964
-9.61003
-9.46479
-9.00918
-8.33095
-7.48108
-6.44479
-5.4158
-4.3565
-3.28797
-2.31752
-1.49126
-0.810391
0.6318
0.447695
0.193325
-0.190472
-0.69035
-1.32411
-2.15088
-3.07402
-4.06037
-5.08435
-6.14092
-7.13761
-8.09194
-8.87892
-9.43361
-9.78646
-9.87541
-9.72935
-9.24511
-8.55848
-7.67531
-6.62138
-5.58708
-4.48094
-3.39719
-2.40164
-1.52419
-0.819904
0.672845
0.494747
0.23649
-0.154498
-0.672099
-1.33814
-2.19053
-3.13101
-4.13916
-5.19744
-6.27389
-7.28952
-8.25402
-9.05318
-9.63109
-9.99782
-10.0816
-9.93673
-9.4423
-8.7516
-7.81222
-6.76851
-5.72957
-4.57453
-3.48826
-2.4619
-1.53046
-0.808098
0.721383
0.542407
0.28439
-0.108158
-0.63791
-1.32763
-2.19698
-3.15478
-4.17799
-5.2647
-6.35535
-7.38906
-8.3591
-9.16233
-9.75941
-10.1415
-10.2485
-10.0808
-9.57291
-8.87021
-7.89578
-6.88728
-5.80769
-4.60925
-3.55117
-2.5036
-1.50716
-0.78353
0.772997
0.598462
0.342049
-0.0516391
-0.587224
-1.29138
-2.16342
-3.13717
-4.18266
-5.29273
-6.38902
-7.42294
-8.39799
-9.20491
-9.8197
-10.2111
-10.3201
-10.1627
-9.67484
-8.91049
-7.90138
-6.95994
-5.84077
-4.61306
-3.55838
-2.49243
-1.46783
-0.75367
0.829969
0.664618
0.408327
0.0142271
-0.523551
-1.23672
-2.1102
-3.07539
-4.13404
-5.28011
-6.38451
-7.40601
-8.3841
-9.18847
-9.80307
-10.2082
-10.3217
-10.1474
-9.67466
-8.8898
-7.88912
-6.93328
-5.79514
-4.60019
-3.53998
-2.42981
-1.39812
-0.708805
0.893307
0.734902
0.482733
0.0854297
-0.45143
-1.16328
-2.02534
-2.99575
-4.05676
-5.19715
-6.3247
-7.35445
-8.30141
-9.12284
-9.74295
-10.1258
-10.2583
-10.0863
-9.60281
-8.80311
-7.83433
-6.86703
-5.72735
-4.54396
-3.45758
-2.34629
-1.32315
-0.648824
0.960388
0.804255
0.547854
0.15704
-0.363479
-1.07688
-1.93029
-2.87852
-3.95301
-5.09985
-6.20752
-7.25827
-8.19786
-8.99653
-9.62306
-10.0012
-10.114
-9.94804
-9.47528
-8.66977
-7.7392
-6.76019
-5.61423
-4.46103
-3.36229
-2.24137
-1.22848
-0.575751
1.01649
0.867508
0.610923
0.220206
-0.295405
-0.969161
-1.82075
-2.77307
-3.82203
-4.9766
-6.08403
-7.12751
-8.07351
-8.86489
-9.47193
-9.8422
-9.95428
-9.78341
-9.29892
-8.51024
-7.61553
-6.62116
-5.48256
-4.35827
-3.24548
-2.11983
-1.14103
-0.487235
1.06771
0.912971
0.665857
0.276143
-0.237962
-0.893594
-1.70347
-2.66188
-3.7106
-4.84017
-5.94807
-6.99361
-7.93164
-8.72269
-9.3194
-9.67676
-9.78133
-9.59856
-9.10982
-8.36041
-7.47897
-6.45752
-5.35123
-4.24846
-3.11785
-1.98407
-1.03575
-0.396773
1.10772
0.956543
0.718427
0.321201
-0.197576
-0.843824
-1.63436
-2.56518
-3.60557
-4.72261
-5.82138
-6.86789
-7.80476
-8.58884
-9.17738
-9.527
-9.62334
-9.42816
-8.94349
-8.22986
-7.354
-6.3187
-5.22342
-4.12448
-2.9912
-1.851
-0.941882
-0.32362
1.12419
0.962971
0.747723
0.352905
-0.171753
-0.813286
-1.58959
-2.50958
-3.52814
-4.63246
-5.72357
-6.7693
-7.70503
-8.48772
-9.06571
-9.41025
-9.49771
-9.2928
-8.81906
-8.12441
-7.25013
-6.21411
-5.11715
-4.02509
-2.89076
-1.73016
-0.867298
-0.280787
1.10632
0.967035
0.757076
0.375812
-0.155155
-0.800742
-1.56854
-2.47479
-3.49045
-4.58216
-5.67261
-6.71475
-7.65227
-8.43156
-9.0053
-9.34674
-9.43101
-9.22306
-8.75494
-8.06717
-7.18905
-6.15026
-5.05497
-3.97076
-2.82819
-1.65201
-0.82551
-0.262655
-0.46714
-0.393483
0.115094
-0.0784655
0.0307958
0.708331
0.95661
1.14975
-0.454615
-0.227468
0.209142
0.16366
0.34706
0.748599
0.931646
1.15204
-0.411652
-0.120392
0.196576
0.324916
0.486337
0.855154
0.980381
1.06311
-0.379275
-0.0552683
0.254017
0.434012
0.642218
1.05413
1.11881
0.840717
-0.357111
-0.00226573
0.322722
0.509255
0.698763
0.924434
1.03988
1.06764
-0.333114
0.0391832
0.360958
0.56459
0.743209
0.969302
1.09834
0.988489
-0.308518
0.0748472
0.398099
0.601302
0.783178
0.937984
1.08301
1.08219
-0.287155
0.115918
0.43213
0.642899
0.807538
0.951635
1.07319
1.07276
-0.261991
0.170123
0.478137
0.68137
0.839892
0.959176
1.06325
1.07498
-0.231772
0.222277
0.534046
0.732419
0.876811
0.977818
1.06367
1.07652
-0.182141
0.293089
0.604543
0.789296
0.914285
1.00326
1.06528
1.0772
-0.115098
0.374695
0.672737
0.84685
0.956023
1.02979
1.0769
1.08169
-0.0366808
0.452042
0.735019
0.91075
1.00146
1.06368
1.09316
1.08939
0.0645713
0.53446
0.799673
0.975157
1.04183
1.09756
1.1106
1.10122
0.167441
0.597975
0.855916
1.03448
1.07494
1.12876
1.12746
1.11178
0.26763
0.640561
0.905854
1.07544
1.09881
1.15427
1.13853
1.12207
0.368666
0.666079
0.956906
1.10471
1.12613
1.17912
1.14549
1.13384
0.450338
0.675246
1.00173
1.11099
1.14549
1.19129
1.15
1.14519
0.49918
0.670102
1.02947
1.11044
1.15423
1.19095
1.15362
1.1512
0.524379
0.668651
1.04307
1.10602
1.15603
1.19002
1.15651
1.15335
1.63459
1.36985
1.28813
1.14673
0.951399
0.706865
0.628587
0.653311
0.671956
0.659556
0.618494
0.579201
0.521476
0.466762
0.38112
0.302331
0.192825
0.108285
-0.0553788
-0.160284
1.5786
1.3002
1.21838
1.08462
0.929994
0.759038
0.689347
0.700017
0.695521
0.669569
0.621541
0.579737
0.520131
0.464994
0.38073
0.299871
0.19592
0.1049
-0.00281976
-0.0879877
1.27869
1.24563
1.18699
1.0643
0.932873
0.775593
0.70046
0.70191
0.692043
0.664916
0.616885
0.576454
0.51913
0.463599
0.380813
0.300049
0.198257
0.108057
0.0138228
-0.0728926
1.45905
1.32244
1.16719
1.03937
0.921395
0.794865
0.725992
0.725393
0.70604
0.672322
0.622114
0.577506
0.519037
0.460695
0.381364
0.297305
0.203361
0.112056
0.0308317
-0.0423721
1.3241
1.14169
1.07796
1.00689
0.917297
0.809546
0.741464
0.732692
0.708361
0.669416
0.618327
0.573889
0.517114
0.457933
0.382423
0.296421
0.20829
0.117466
0.0455157
-0.0234837
1.20956
1.13294
1.06892
1.00188
0.924979
0.827601
0.759555
0.745533
0.715461
0.675223
0.626134
0.577402
0.519738
0.456223
0.384286
0.296885
0.211913
0.123422
0.0552134
-0.00895017
1.23135
1.12073
1.04769
0.974564
0.906359
0.828636
0.773486
0.754722
0.722848
0.676403
0.625717
0.575587
0.518901
0.453334
0.379293
0.297292
0.215706
0.129652
0.0636302
0.00210196
1.15041
1.07743
1.02154
0.967815
0.90915
0.836874
0.777386
0.761126
0.728618
0.682057
0.631174
0.578384
0.520187
0.451811
0.381161
0.298778
0.219588
0.13688
0.0716953
0.0112427
1.13904
1.09107
1.03717
0.978223
0.922969
0.860129
0.812564
0.771418
0.736361
0.686842
0.632388
0.576784
0.518863
0.450096
0.380362
0.299818
0.222723
0.141858
0.077665
0.0176724
1.11059
1.06536
1.00906
0.952409
0.901092
0.847022
0.789306
0.772832
0.737954
0.686959
0.634629
0.579061
0.520953
0.450354
0.379879
0.301611
0.226016
0.148383
0.0838109
0.0228109
1.08926
1.06599
1.02528
0.975605
0.931039
0.880815
0.828102
0.783856
0.746196
0.693774
0.638428
0.579874
0.51997
0.449209
0.379536
0.302349
0.228754
0.153156
0.0886349
0.0267417
1.08579
1.06545
1.0164
0.957801
0.909747
0.863969
0.81281
0.784052
0.745597
0.689701
0.637142
0.580628
0.52074
0.449929
0.379618
0.304825
0.232108
0.157791
0.0930442
0.029981
1.0829
1.06272
1.02021
0.973532
0.932367
0.888778
0.838545
0.794168
0.752937
0.698142
0.641504
0.583394
0.520481
0.449575
0.379678
0.306446
0.234867
0.161706
0.0968288
0.0326093
1.08844
1.06505
1.02032
0.970036
0.924917
0.878583
0.831867
0.793842
0.750331
0.69072
0.637396
0.579587
0.519933
0.449925
0.380329
0.308495
0.237605
0.165422
0.100197
0.0346714
1.09349
1.06759
1.02366
0.977829
0.935811
0.895025
0.847578
0.801715
0.755495
0.698426
0.641245
0.584311
0.520935
0.450299
0.380707
0.309839
0.240061
0.169103
0.103424
0.0363665
1.09975
1.06801
1.02405
0.979472
0.933571
0.888271
0.844345
0.800876
0.751943
0.689812
0.636123
0.581591
0.519123
0.450462
0.381626
0.312062
0.242637
0.172642
0.106366
0.0376832
1.10778
1.07251
1.02932
0.984569
0.938235
0.896058
0.853704
0.806567
0.755051
0.696038
0.639786
0.584068
0.520887
0.45114
0.382525
0.313574
0.24507
0.175954
0.10902
0.0387208
1.11048
1.07101
1.02915
0.98389
0.936976
0.893626
0.851154
0.803117
0.74971
0.688715
0.635163
0.580651
0.519558
0.450839
0.383265
0.315908
0.247547
0.178999
0.111434
0.039605
1.11247
1.0745
1.03237
0.986411
0.939618
0.896788
0.854757
0.804891
0.750885
0.692043
0.637737
0.58234
0.519855
0.451226
0.383883
0.316799
0.249024
0.1808
0.112859
0.04009
1.1117
1.07297
1.03072
0.983723
0.936763
0.892706
0.850605
0.800148
0.745098
0.686182
0.633261
0.578738
0.517929
0.45055
0.384474
0.31906
0.251581
0.183428
0.114357
0.0403729
0.0352296
-0.216031
-0.170086
0.00242276
-0.0279218
0.0405571
-0.0194135
0.0297023
-0.150301
-0.202884
-0.146295
0.0331324
0.125258
0.168386
0.0799723
0.108891
-0.335717
-0.220088
-0.172275
0.0515288
0.137651
0.241852
0.14807
0.171261
-0.29865
-0.287639
-0.177526
0.0354559
0.203438
0.27207
0.158859
0.188396
-0.232497
-0.263935
-0.196237
0.000303687
0.131531
0.247819
0.14237
0.165887
-0.182053
-0.319514
-0.203431
-0.0581293
0.149761
0.198376
0.103485
0.13711
-0.187839
-0.345666
-0.259398
-0.136305
0.0678964
0.117789
0.0378857
0.0831141
-0.169804
-0.336743
-0.301792
-0.257467
-0.0769519
-0.0213584
-0.0706513
0.0126692
-0.14133
-0.325368
-0.389048
-0.437497
-0.493567
-0.258522
-0.252949
-0.0976211
-0.202176
-0.333205
-0.474308
-0.614698
-0.868063
-0.625399
-0.527842
-0.26243
-0.24932
-0.406129
-0.609928
-0.774306
-1.26676
-1.03213
-0.776063
-0.46063
-0.32851
-0.470133
-0.735059
-0.902587
-1.34253
-1.18894
-0.868344
-0.660618
-0.395229
-0.521041
-0.842929
-0.981972
-1.30699
-1.25493
-0.978263
-0.834065
-0.53115
-0.644759
-0.938018
-1.07867
-1.34755
-1.33647
-1.10831
-0.958314
-0.649694
-0.727051
-0.982818
-1.10609
-1.33748
-1.34732
-1.13554
-1.00762
-0.755786
-0.796569
-1.05887
-1.13824
-1.3105
-1.34565
-1.17806
-1.10831
-0.809477
-0.870326
-1.07713
-1.18965
-1.31351
-1.40619
-1.34912
-1.26786
-0.858054
-0.901696
-1.11004
-1.1589
-1.34795
-1.41214
-1.3873
-1.28037
-0.907494
-0.960959
-1.14213
-1.25691
-1.3285
-1.3742
-1.29823
-1.24999
-0.91564
-1.0057
-1.21865
-1.36131
-1.35483
-1.4222
-1.30887
-1.26195
-0.915031
-0.995192
-1.2894
-1.45678
-1.41197
-1.50549
-1.32702
-1.27098
-0.909256
-1.01536
-1.29961
-1.54435
-1.45789
-1.52213
-1.28835
-1.27687
-0.859844
-0.977099
-1.30986
-1.49939
-1.44301
-1.45091
-1.22375
-1.16222
-0.790462
-0.935069
-1.25275
-1.51555
-1.39956
-1.34932
-1.13022
-1.02504
-0.704971
-0.869331
-1.17656
-1.42279
-1.31176
-1.25471
-1.04184
-0.986293
-0.607924
-0.780669
-1.05735
-1.29414
-1.15807
-1.06888
-0.874193
-0.805213
-0.527592
-0.711161
-0.913228
-1.11164
-0.977086
-0.814761
-0.678316
-0.589915
-0.480338
-0.656139
-0.770319
-0.928879
-0.785
-0.633778
-0.559318
-0.512072
-0.465786
-0.597192
-0.61263
-0.754999
-0.580444
-0.472505
-0.402631
-0.390963
-0.442324
-0.508284
-0.478648
-0.577562
-0.440319
-0.326166
-0.225869
-0.232237
-0.405444
-0.370715
-0.373544
-0.457628
-0.21578
-0.194424
-0.162065
-0.143805
-0.35921
-0.253644
-0.295209
-0.38111
-0.222029
-0.0968167
-0.167494
-0.0306689
-0.328399
-0.258633
-0.32147
-0.300729
-0.139071
-0.0399704
-0.174778
0.0939458
-0.333172
-0.319498
-0.271318
-0.376927
-0.177286
0.129529
-0.180299
0.212896
-0.319962
-0.34253
-0.325358
-0.364323
-0.240034
0.168195
-0.03714
0.347665
-0.333169
-0.356727
-0.230594
-0.484342
-0.190481
0.280012
0.282435
0.480326
-0.365218
-0.326121
-0.361228
-0.528465
0.0013229
0.51063
0.505231
0.559791
-0.448262
-0.466608
-0.425085
-0.682936
0.100343
-0.00727197
0.616447
0.652797
-0.449249
-0.361688
0.0791692
-0.805195
-0.199049
0.219659
0.708961
0.776804
-0.423032
-0.392201
0.366206
-0.592373
-0.2042
0.45773
0.824009
0.918826
1.21856
1.15543
1.15201
1.15467
1.1786
1.18952
1.13287
1.10668
1.18592
1.17207
1.15669
1.15584
1.17636
1.22406
1.18213
1.13752
1.19231
1.16631
1.15569
1.16151
1.13288
1.16161
1.19674
1.17747
1.17813
1.17561
1.16413
1.16473
1.17158
1.15985
1.16354
1.17229
1.17462
1.16235
1.16595
1.15083
1.17504
1.14534
1.16029
1.16621
1.16924
1.16119
1.16614
1.13623
1.16416
1.16668
1.17048
1.16351
1.16713
1.15609
1.16567
1.13378
1.16014
1.15438
1.16979
1.166
1.16466
1.15629
1.16685
1.14512
1.16094
1.15961
1.16639
1.17018
1.16338
1.15462
1.16402
1.14959
1.15839
1.15184
1.15725
1.16707
1.16258
1.15619
1.16204
1.15393
1.15552
1.15178
1.13725
1.15249
1.163
1.15504
1.16013
1.15056
1.15239
1.1525
1.13055
1.14565
1.1634
1.15749
1.15829
1.15179
1.15064
1.15413
1.14382
1.15191
1.1642
1.15697
1.15732
1.15018
1.14757
1.15299
1.14866
1.15596
1.16452
1.15774
1.15664
1.14943
1.14263
1.14518
1.14393
1.15199
1.16403
1.15664
1.15655
1.14911
1.14025
1.13974
1.13794
1.14775
1.1593
1.15103
1.15626
1.15024
1.14049
1.14027
1.13357
1.14582
1.15176
1.1415
1.15371
1.14979
1.14387
1.13668
1.13053
1.14395
1.14219
1.13576
1.15012
1.14843
1.14615
1.12625
1.12854
1.1362
1.13827
1.13701
1.14459
1.14855
1.14968
1.13648
1.13636
1.1384
1.13843
1.1466
1.13985
1.14529
1.14601
1.14557
1.14288
1.14505
1.12848
1.14343
1.13381
1.14341
1.14036
1.14724
1.14212
1.14601
1.10625
1.12967
1.11799
1.13858
1.13276
1.14418
1.13935
1.14503
1.07501
1.10751
1.09442
1.13155
1.12357
1.13846
1.13532
1.14093
1.06318
1.08321
1.06683
1.11913
1.11434
1.13023
1.12993
1.13737
1.06458
1.0695
1.06042
1.10758
1.10573
1.12226
1.12386
1.13253
1.0595
1.04936
1.05469
1.09659
1.09954
1.11522
1.11807
1.12644
1.05834
1.03063
1.03402
1.08612
1.09381
1.10716
1.11315
1.12124
1.07375
1.02933
1.02644
1.07779
1.09109
1.10205
1.10987
1.11605
1.0946
1.03751
1.04245
1.07289
1.0913
1.09757
1.1079
1.11154
1.11714
1.04388
1.05064
1.07399
1.09349
1.09586
1.10673
1.10858
1.14613
1.06961
1.05996
1.08027
1.09803
1.09729
1.10813
1.10732
1.17237
1.11896
1.09738
1.0957
1.10431
1.10321
1.11194
1.10978
1.18425
1.14826
1.12689
1.11763
1.11168
1.11094
1.11797
1.11544
1.19544
1.16371
1.13692
1.13179
1.12032
1.11985
1.1235
1.12171
1.20365
1.18075
1.1487
1.14287
1.1274
1.12972
1.12977
1.13068
1.2079
1.19198
1.16007
1.15502
1.13494
1.14179
1.13798
1.14377
1.20853
1.19746
1.16725
1.16695
1.13824
1.15046
1.14526
1.15774
1.20885
1.2055
1.17088
1.17624
1.14228
1.15655
1.15178
1.17151
1.20683
1.19649
1.17564
1.18947
1.14682
1.16798
1.15757
1.1859
1.206
1.1991
1.1947
1.20389
1.15795
1.17238
1.16221
1.18856
)
;

boundaryField
{
    wall
    {
        type            zeroGradient;
    }
    inlet1
    {
        type            zeroGradient;
    }
    inlet2
    {
        type            zeroGradient;
    }
    outlet1
    {
        type            fixedValue;
        value           uniform 0;
    }
    outlet2
    {
        type            outletInlet;
        outletValue     uniform 0;
        value           nonuniform List<scalar> 8(0 0 -0.170086 0.00242276 0 0 0 0);
    }
    defaultFaces
    {
        type            empty;
    }
}


// ************************************************************************* //
