/*--------------------------------*- C++ -*----------------------------------*\
| =========                 |                                                 |
| \\      /  F ield         | OpenFOAM: The Open Source CFD Toolbox           |
|  \\    /   O peration     | Version:  2.4.0                                 |
|   \\  /    A nd           | Web:      www.OpenFOAM.org                      |
|    \\/     M anipulation  |                                                 |
\*---------------------------------------------------------------------------*/
FoamFile
{
    version     2.0;
    format      ascii;
    class       surfaceScalarField;
    location    "0.84";
    object      phi_0;
}
// * * * * * * * * * * * * * * * * * * * * * * * * * * * * * * * * * * * * * //

dimensions      [0 3 -1 0 0 0 0];

internalField   nonuniform List<scalar> 
4456
(
2.07422e-06
4.25785e-07
2.14024e-06
-6.60208e-08
3.02001e-06
-8.79771e-07
2.4215e-06
5.98504e-07
2.50437e-06
-8.28665e-08
2.82133e-06
-3.16959e-07
1.81249e-06
1.00884e-06
2.51894e-06
-7.06453e-07
2.2673e-06
2.51647e-07
2.41044e-06
-1.43144e-07
2.81788e-06
-4.07443e-07
2.53428e-06
2.83603e-07
2.9064e-06
-3.72126e-07
2.33518e-06
5.71224e-07
2.76693e-06
-4.31745e-07
2.34896e-06
4.17961e-07
2.45055e-06
-1.01583e-07
3.12918e-06
-6.7863e-07
2.61561e-06
5.13569e-07
1.67323e-08
2.59888e-06
2.41689e-06
5.08897e-07
2.30541e-06
4.54562e-08
2.45651e-06
-1.03087e-06
2.6995e-06
3.55509e-07
2.66131e-06
-4.46711e-08
2.44433e-06
-9.99837e-08
2.65859e-06
7.94575e-07
2.6113e-06
-6.59161e-07
2.29038e-06
5.72574e-07
2.64186e-06
-4.94624e-07
2.5918e-06
-3.57386e-07
2.31781e-06
5.57596e-07
2.44103e-06
-4.95346e-07
2.84511e-06
1.67144e-07
2.51923e-06
-1.05873e-07
2.45321e-06
4.83983e-07
2.76627e-06
-4.14638e-07
2.43131e-06
-3.43677e-07
2.68586e-06
2.59021e-07
1.71132e-07
2.53146e-06
2.68907e-06
3.1983e-07
2.80789e-06
-7.33679e-08
2.22697e-06
-4.4995e-07
2.42981e-06
1.52672e-07
2.65541e-06
-2.70271e-07
2.47316e-06
8.22682e-08
2.65805e-06
6.09682e-07
2.51391e-06
-5.1502e-07
2.56001e-06
5.26471e-07
2.49576e-06
-4.30367e-07
2.49597e-06
-3.576e-07
2.59423e-06
4.59333e-07
2.37333e-06
-2.74444e-07
2.48943e-06
5.10439e-08
2.62619e-06
-2.42635e-07
2.64264e-06
4.67538e-07
2.2487e-06
-2.07009e-08
2.29195e-06
-3.86922e-07
2.55504e-06
-4.07401e-09
1.36467e-07
2.58971e-06
2.64791e-06
1.71916e-07
2.71823e-06
-1.43679e-07
2.3674e-06
-9.91284e-08
2.42585e-06
9.423e-08
2.38778e-06
-2.32206e-07
2.50436e-06
-3.4307e-08
2.64604e-06
4.67995e-07
2.47653e-06
-3.4551e-07
2.63549e-06
3.67519e-07
2.54708e-06
-3.41959e-07
2.51894e-06
-3.29459e-07
2.50779e-06
4.70475e-07
2.3455e-06
-1.12145e-07
2.49583e-06
-9.92885e-08
2.57397e-06
-3.20773e-07
2.60657e-06
4.34936e-07
2.56824e-06
1.76276e-08
2.55998e-06
-3.78661e-07
2.55165e-06
4.25969e-09
-8.13695e-08
2.76948e-06
2.57035e-06
1.01568e-07
2.60321e-06
-1.76539e-07
2.46268e-06
4.14007e-08
2.45164e-06
1.05273e-07
2.39235e-06
-1.7292e-07
2.54284e-06
-1.84795e-07
2.57752e-06
4.33317e-07
2.502e-06
-2.69996e-07
2.54702e-06
3.22498e-07
2.4777e-06
-2.72635e-07
2.44573e-06
-2.97495e-07
2.5567e-06
3.59504e-07
2.33702e-06
1.0754e-07
2.40833e-06
-1.70601e-07
2.54515e-06
-4.57594e-07
2.62396e-06
3.56125e-07
2.54842e-06
9.31696e-08
2.40094e-06
-2.31177e-07
2.65975e-06
-2.54558e-07
-1.59285e-07
2.73767e-06
2.56168e-06
3.9884e-08
2.5472e-06
-1.62053e-07
2.46296e-06
1.25637e-07
2.4468e-06
1.21434e-07
2.39565e-06
-1.2177e-07
2.5305e-06
-3.19647e-07
2.58417e-06
3.79655e-07
2.4315e-06
-1.1733e-07
2.52612e-06
2.27883e-07
2.51566e-06
-2.62174e-07
2.39993e-06
-1.81765e-07
2.57832e-06
1.81107e-07
2.47233e-06
2.1353e-07
2.42995e-06
-1.28222e-07
2.56103e-06
-5.88674e-07
2.6567e-06
2.60462e-07
2.5318e-06
2.18063e-07
2.53366e-06
-2.33028e-07
2.59162e-06
-3.12519e-07
-1.84138e-07
2.61647e-06
2.49814e-06
4.17456e-08
2.60422e-06
-2.68131e-07
2.53493e-06
1.94927e-07
2.45699e-06
1.99366e-07
2.41268e-06
-7.74581e-08
2.44696e-06
-3.53922e-07
2.58986e-06
2.36755e-07
2.54588e-06
-7.33552e-08
2.50394e-06
2.69824e-07
2.49911e-06
-2.57344e-07
2.51746e-06
-2.00115e-07
2.55312e-06
1.45447e-07
2.41386e-06
3.5279e-07
2.46734e-06
-1.81701e-07
2.48564e-06
-6.06979e-07
2.48649e-06
2.59614e-07
2.6328e-06
7.1757e-08
2.54361e-06
-1.43835e-07
2.57549e-06
-3.44403e-07
-2.85079e-07
2.67643e-06
2.48737e-06
5.43796e-08
2.46023e-06
-2.40992e-07
2.52243e-06
1.32725e-07
2.53459e-06
1.87201e-07
2.44984e-06
7.29419e-09
2.49102e-06
-3.95098e-07
2.562e-06
1.65774e-07
2.46028e-06
2.83638e-08
2.42948e-06
3.00628e-07
2.48513e-06
-3.12998e-07
2.56105e-06
-2.76031e-07
2.55991e-06
1.46586e-07
2.49298e-06
4.19716e-07
2.5342e-06
-2.22915e-07
2.44545e-06
-5.18233e-07
2.52339e-06
1.81676e-07
2.58713e-06
8.01925e-09
2.53316e-06
-8.9866e-08
2.64808e-06
-4.59325e-07
-2.59482e-07
2.62248e-06
2.47029e-06
8.40852e-08
2.41283e-06
-1.83524e-07
2.57368e-06
-2.81321e-08
2.58072e-06
1.80167e-07
2.45394e-06
1.3407e-07
2.47049e-06
-4.1165e-07
2.51681e-06
1.19453e-07
2.42678e-06
1.18403e-07
2.48982e-06
2.37581e-07
2.57359e-06
-3.96766e-07
2.60941e-06
-3.11849e-07
2.52217e-06
2.33827e-07
2.53622e-06
4.05668e-07
2.57277e-06
-2.59467e-07
2.42694e-06
-3.72406e-07
2.5393e-06
6.93153e-08
2.59401e-06
-4.66887e-08
2.56125e-06
-5.71126e-08
2.59341e-06
-4.91482e-07
-2.47791e-07
2.58172e-06
2.50588e-06
7.82021e-08
2.45146e-06
-1.291e-07
2.53696e-06
-1.13633e-07
2.53359e-06
1.8354e-07
2.54578e-06
1.2188e-07
2.53667e-06
-4.02543e-07
2.50461e-06
1.51508e-07
2.45954e-06
1.63474e-07
2.51562e-06
1.815e-07
2.61025e-06
-4.91396e-07
2.57184e-06
-2.73441e-07
2.51567e-06
2.90005e-07
2.53613e-06
3.85205e-07
2.55903e-06
-2.82368e-07
2.51187e-06
-3.25249e-07
2.54238e-06
3.88122e-08
2.60422e-06
-1.08527e-07
2.5547e-06
-7.59485e-09
2.50133e-06
-4.38117e-07
-3.29612e-07
2.58315e-06
2.53479e-06
4.34131e-08
2.52267e-06
-1.16984e-07
2.44091e-06
-3.18736e-08
2.48619e-06
1.3826e-07
2.60433e-06
3.74036e-09
2.55038e-06
-3.48589e-07
2.4981e-06
2.03792e-07
2.38427e-06
2.77296e-07
2.54013e-06
2.56434e-08
2.57302e-06
-5.24286e-07
2.46684e-06
-1.67263e-07
2.4856e-06
2.71247e-07
2.52552e-06
3.45284e-07
2.5595e-06
-3.16347e-07
2.53257e-06
-2.98321e-07
2.58684e-06
-1.54541e-08
2.54676e-06
-6.84466e-08
2.47475e-06
6.44167e-08
2.44779e-06
-4.11155e-07
-4.44217e-07
2.56239e-06
2.57657e-06
-3.31566e-08
2.49758e-06
-3.79921e-08
2.35463e-06
1.11074e-07
2.53782e-06
-4.4932e-08
2.61624e-06
-7.46734e-08
2.46373e-06
-1.96086e-07
2.48e-06
1.87526e-07
2.41284e-06
3.44453e-07
2.59318e-06
-1.54691e-07
2.54158e-06
-4.72688e-07
2.4032e-06
-2.88844e-08
2.48426e-06
1.90183e-07
2.49382e-06
3.35725e-07
2.54045e-06
-3.62969e-07
2.52129e-06
-2.79163e-07
2.51037e-06
-4.53893e-09
2.51976e-06
-7.78355e-08
2.45961e-06
1.24564e-07
2.49512e-06
-4.46659e-07
-5.0461e-07
2.55551e-06
2.51639e-06
-4.95432e-08
2.40759e-06
7.08092e-08
2.47345e-06
4.52109e-08
2.59886e-06
-1.70348e-07
2.5469e-06
-2.27084e-08
2.42908e-06
-7.82693e-08
2.44069e-06
1.75922e-07
2.47998e-06
3.05161e-07
2.65934e-06
-3.34052e-07
2.53114e-06
-3.44493e-07
2.38307e-06
1.19193e-07
2.44343e-06
1.29815e-07
2.48097e-06
2.9819e-07
2.55232e-06
-4.34317e-07
2.51942e-06
-2.46268e-07
2.48542e-06
2.94573e-08
2.50035e-06
-9.2765e-08
2.47593e-06
1.4899e-07
2.52234e-06
-4.93075e-07
-4.63395e-07
2.48113e-06
2.41e-06
4.04528e-08
2.40416e-06
7.66499e-08
2.64257e-06
-1.93192e-07
2.55459e-06
-8.23769e-08
2.45046e-06
8.14235e-08
2.43021e-06
-5.80161e-08
2.48308e-06
1.23049e-07
2.54686e-06
2.4138e-07
2.65073e-06
-4.37919e-07
2.43506e-06
-1.28824e-07
2.35994e-06
1.94313e-07
2.44999e-06
3.97697e-08
2.50174e-06
2.46437e-07
2.55242e-06
-4.85e-07
2.45209e-06
-1.45931e-07
2.44815e-06
3.33894e-08
2.47964e-06
-1.24253e-07
2.42018e-06
2.0845e-07
2.47716e-06
-5.50055e-07
-4.13103e-07
2.42687e-06
2.42225e-06
1.18204e-07
2.52187e-06
-2.29669e-08
2.62835e-06
-2.99676e-07
2.5003e-06
4.56712e-08
2.43973e-06
1.41997e-07
2.42616e-06
-4.44435e-08
2.51157e-06
3.76308e-08
2.58225e-06
1.70701e-07
2.56947e-06
-4.25134e-07
2.38946e-06
5.11842e-08
2.37818e-06
2.05598e-07
2.4725e-06
-5.45552e-08
2.56197e-06
1.5697e-07
2.53868e-06
-4.61711e-07
2.37803e-06
1.47177e-08
2.43216e-06
-2.07376e-08
2.50819e-06
-2.00286e-07
2.42825e-06
2.88393e-07
2.45209e-06
-5.73902e-07
-3.10357e-07
2.34935e-06
2.45566e-06
1.62544e-07
2.57558e-06
-1.42884e-07
2.57185e-06
-2.95952e-07
2.44748e-06
1.70039e-07
2.4554e-06
1.34086e-07
2.44387e-06
-3.29142e-08
2.48968e-06
-8.17755e-09
2.59425e-06
6.61225e-08
2.53825e-06
-3.69128e-07
2.35995e-06
2.29479e-07
2.44482e-06
1.2073e-07
2.50628e-06
-1.16011e-07
2.52629e-06
1.36957e-07
2.46716e-06
-4.02578e-07
2.37016e-06
1.1171e-07
2.44961e-06
-1.00183e-07
2.4525e-06
-2.03176e-07
2.44048e-06
3.00414e-07
2.41446e-06
-5.47886e-07
-1.86002e-07
2.29011e-06
2.50159e-06
1.60957e-07
2.58501e-06
-2.26306e-07
2.51317e-06
-2.2411e-07
2.43894e-06
2.44271e-07
2.47339e-06
9.96322e-08
2.44747e-06
-6.99819e-09
2.46991e-06
-3.06163e-08
2.55954e-06
-2.35066e-08
2.50892e-06
-3.18506e-07
2.42241e-06
3.15992e-07
2.46424e-06
7.88983e-08
2.50932e-06
-1.61096e-07
2.50962e-06
1.36664e-07
2.37488e-06
-2.6784e-07
2.4155e-06
7.10878e-08
2.43047e-06
-1.15156e-07
2.38765e-06
-1.60356e-07
2.47305e-06
2.15016e-07
2.39817e-06
-4.73004e-07
-3.70666e-08
2.24923e-06
2.57227e-06
8.86905e-08
2.55786e-06
-2.11895e-07
2.4171e-06
-8.33539e-08
2.45756e-06
2.03806e-07
2.46449e-06
9.2702e-08
2.47221e-06
-1.47092e-08
2.46562e-06
-2.40329e-08
2.53779e-06
-9.56784e-08
2.46983e-06
-2.50538e-07
2.4756e-06
3.10218e-07
2.50024e-06
5.4255e-08
2.47099e-06
-1.31844e-07
2.49983e-06
1.07827e-07
2.37931e-06
-1.47319e-07
2.45707e-06
-6.67819e-09
2.42154e-06
-7.96166e-08
2.30733e-06
-4.61538e-08
2.47505e-06
4.72973e-08
2.34867e-06
-3.4662e-07
5.22928e-08
2.25931e-06
2.56837e-06
2.03238e-08
2.46412e-06
-1.07643e-07
2.3773e-06
3.46349e-09
2.46812e-06
1.12989e-07
2.51272e-06
4.80928e-08
2.51824e-06
-2.02204e-08
2.50979e-06
-1.55857e-08
2.49302e-06
-7.89094e-08
2.38997e-06
-1.47485e-07
2.51347e-06
1.86709e-07
2.52291e-06
4.48171e-08
2.44208e-06
-5.10092e-08
2.49036e-06
5.95431e-08
2.41231e-06
-6.92636e-08
2.45113e-06
-4.55001e-08
2.39879e-06
-2.72782e-08
2.34729e-06
5.34699e-09
2.41114e-06
-1.65582e-08
2.28678e-06
-2.22251e-07
8.08999e-08
2.25817e-06
2.52032e-06
2.41268e-06
2.41614e-06
2.52913e-06
2.57723e-06
2.55701e-06
2.54142e-06
2.46251e-06
2.31503e-06
2.50173e-06
2.54655e-06
2.49554e-06
2.55509e-06
2.48582e-06
2.44032e-06
2.41304e-06
2.41839e-06
2.40183e-06
2.17958e-06
2.26048e-06
3.00881e-06
-4.09934e-07
3.32961e-06
-3.20803e-07
2.44859e-06
8.81022e-07
2.93975e-06
-4.91154e-07
3.32448e-06
-3.84738e-07
3.75518e-06
-4.30698e-07
3.52947e-06
2.2571e-07
2.94249e-07
3.23522e-06
2.59221e-06
-4.70681e-07
2.91266e-06
-6.41251e-07
2.90456e-06
8.89125e-07
2.84223e-06
-4.28832e-07
3.10191e-06
-6.4442e-07
3.33027e-06
-6.59058e-07
3.34194e-06
2.14049e-07
-1.04663e-07
3.74085e-06
2.46465e-06
-3.45625e-07
2.2746e-06
-4.51201e-07
2.97427e-06
1.89452e-07
2.90629e-06
-3.60844e-07
3.24062e-06
-9.7875e-07
3.00303e-06
-4.21471e-07
3.21115e-06
5.9325e-09
-6.55958e-07
3.76244e-06
2.77618e-06
-3.52323e-07
2.62804e-06
-3.03058e-07
2.79988e-06
1.76046e-08
3.02203e-06
-5.82985e-07
3.11514e-06
-1.07187e-06
3.0628e-06
-3.69127e-07
3.52412e-06
-4.55384e-07
-7.57216e-07
3.62538e-06
2.55856e-06
-1.73213e-07
2.61612e-06
-3.60615e-07
2.87785e-06
-2.44125e-07
2.91337e-06
-6.18513e-07
2.74747e-06
-9.05965e-07
3.05455e-06
-6.76211e-07
3.31623e-06
-7.17057e-07
-9.44201e-07
3.50321e-06
2.66134e-06
-2.18079e-07
2.68382e-06
-3.83102e-07
2.89332e-06
-4.53624e-07
2.88371e-06
-6.08904e-07
2.94308e-06
-9.65333e-07
3.08803e-06
-8.21159e-07
3.21861e-06
-8.47637e-07
-1.39422e-06
3.66863e-06
2.59638e-06
-1.38032e-07
2.70831e-06
-4.95026e-07
2.83203e-06
-5.77347e-07
2.85372e-06
-6.306e-07
2.90575e-06
-1.01736e-06
3.02773e-06
-9.43142e-07
3.2797e-06
-1.09961e-06
-1.54535e-06
3.43082e-06
2.63074e-06
-1.46285e-07
2.61291e-06
-4.77197e-07
2.6672e-06
-6.31636e-07
2.86469e-06
-8.28093e-07
2.87361e-06
-1.02628e-06
3.0146e-06
-1.08413e-06
3.17893e-06
-1.26394e-06
-1.71246e-06
3.34604e-06
2.67726e-06
-2.4182e-07
2.6396e-06
-4.39543e-07
2.66091e-06
-6.52947e-07
2.69986e-06
-8.67043e-07
2.78235e-06
-1.10877e-06
2.95461e-06
-1.25639e-06
3.07766e-06
-1.38698e-06
-1.90094e-06
3.26614e-06
2.68033e-06
-3.39e-07
2.63897e-06
-3.98183e-07
2.63928e-06
-6.53256e-07
2.64118e-06
-8.68942e-07
2.746e-06
-1.21359e-06
2.78849e-06
-1.29888e-06
2.93297e-06
-1.53146e-06
-2.02579e-06
3.05782e-06
2.63822e-06
-4.14831e-07
2.61755e-06
-3.77515e-07
2.55656e-06
-5.92256e-07
2.63693e-06
-9.49317e-07
2.65115e-06
-1.22781e-06
2.69738e-06
-1.3451e-06
2.87223e-06
-1.70631e-06
-2.02686e-06
2.8733e-06
2.57182e-06
-4.31141e-07
2.56252e-06
-3.6821e-07
2.55304e-06
-5.82778e-07
2.60364e-06
-9.99922e-07
2.592e-06
-1.21617e-06
2.68294e-06
-1.43604e-06
2.68691e-06
-1.71028e-06
-2.05681e-06
2.71686e-06
2.45022e-06
-4.00233e-07
2.47577e-06
-3.93759e-07
2.52275e-06
-6.29761e-07
2.48763e-06
-9.64795e-07
2.48486e-06
-1.2134e-06
2.56837e-06
-1.51956e-06
2.54129e-06
-1.6832e-06
-2.19274e-06
2.67722e-06
2.39386e-06
-3.67221e-07
2.39981e-06
-3.99709e-07
2.40649e-06
-6.36443e-07
2.40749e-06
-9.65794e-07
2.36753e-06
-1.17344e-06
2.37386e-06
-1.52589e-06
2.48481e-06
-1.79415e-06
-2.26706e-06
2.55913e-06
2.37286e-06
-3.90736e-07
2.39335e-06
-4.20197e-07
2.36397e-06
-6.07066e-07
2.32572e-06
-9.27542e-07
2.26038e-06
-1.1081e-06
2.28101e-06
-1.54652e-06
2.3567e-06
-1.86984e-06
-2.21218e-06
2.30182e-06
2.32423e-06
-4.24857e-07
2.35786e-06
-4.53832e-07
2.3214e-06
-5.706e-07
2.27e-06
-8.76148e-07
2.1583e-06
-9.96393e-07
2.12233e-06
-1.51055e-06
2.14672e-06
-1.89422e-06
-1.88053e-06
1.81507e-06
2.31896e-06
-4.94581e-07
2.33563e-06
-4.70502e-07
2.25636e-06
-4.9133e-07
2.20882e-06
-8.28608e-07
2.12624e-06
-9.13814e-07
2.01907e-06
-1.40339e-06
1.76111e-06
-1.63626e-06
-1.24763e-06
1.1282e-06
2.27246e-06
-5.07733e-07
2.32232e-06
-5.20363e-07
2.24377e-06
-4.12775e-07
2.10733e-06
-6.92174e-07
2.00432e-06
-8.10806e-07
1.75702e-06
-1.15608e-06
1.23028e-06
-1.10952e-06
-3.99852e-07
3.82504e-07
2.21935e-06
-4.68911e-07
2.22131e-06
-5.22323e-07
2.14737e-06
-3.38843e-07
2.01214e-06
-5.5694e-07
1.66963e-06
-4.68293e-07
1.15307e-06
-6.39522e-07
5.1734e-07
-4.73793e-07
3.43924e-07
-2.26437e-07
2.03739e-06
-2.4582e-07
1.96861e-06
-4.53546e-07
1.77667e-06
-1.46897e-07
1.48693e-06
-2.67203e-07
8.45351e-07
1.73287e-07
3.74984e-07
-1.69155e-07
1.80582e-08
-1.16867e-07
-8.64215e-07
1.2262e-06
4.15449e-06
-9.19269e-07
4.11991e-06
3.45812e-08
5.00141e-06
-8.81502e-07
5.62531e-06
-6.23896e-07
5.88613e-06
-2.60819e-07
6.59035e-06
-7.04222e-07
6.8648e-06
-2.74453e-07
7.6142e-06
-7.49401e-07
8.28118e-06
-6.66976e-07
9.00798e-06
-7.26797e-07
9.64599e-06
-6.38011e-07
1.02003e-05
-5.54362e-07
1.06855e-05
-4.8518e-07
1.10615e-05
-3.76008e-07
1.13077e-05
-2.4614e-07
1.13803e-05
-7.26614e-08
1.12876e-05
9.27557e-08
1.10877e-05
1.99855e-07
1.07061e-05
3.81639e-07
1.03082e-05
3.97849e-07
9.74922e-06
5.59019e-07
9.21634e-06
5.32879e-07
8.49681e-06
7.1953e-07
7.95006e-06
5.46748e-07
7.23426e-06
7.15807e-07
6.85185e-06
3.82403e-07
6.11665e-06
7.35201e-07
1.41377e-07
5.97527e-06
3.77014e-06
-9.4856e-07
4.14276e-06
-3.38036e-07
4.65567e-06
-1.39442e-06
5.34413e-06
-1.31236e-06
5.75477e-06
-6.71459e-07
6.42752e-06
-1.37697e-06
7.10984e-06
-9.56774e-07
7.80882e-06
-1.44838e-06
8.47044e-06
-1.3286e-06
9.08367e-06
-1.34002e-06
9.64406e-06
-1.1984e-06
1.01692e-05
-1.07952e-06
1.06412e-05
-9.57175e-07
1.09722e-05
-7.07032e-07
1.11396e-05
-4.13512e-07
1.1236e-05
-1.69074e-07
1.11138e-05
2.15019e-07
1.09852e-05
3.28435e-07
1.06672e-05
6.99577e-07
1.03103e-05
7.54821e-07
9.79031e-06
1.07898e-06
9.19335e-06
1.12984e-06
8.59564e-06
1.31724e-06
7.91731e-06
1.22508e-06
7.24503e-06
1.38809e-06
6.68389e-06
9.43544e-07
6.10277e-06
1.31631e-06
6.18084e-07
5.62607e-06
3.69149e-06
-8.77607e-07
4.36744e-06
-1.01399e-06
4.527e-06
-1.55398e-06
5.05737e-06
-1.84273e-06
5.66817e-06
-1.28225e-06
6.36773e-06
-2.07653e-06
7.12024e-06
-1.70929e-06
7.79436e-06
-2.1225e-06
8.46203e-06
-1.99627e-06
9.1045e-06
-1.98249e-06
9.71295e-06
-1.80685e-06
1.02479e-05
-1.61449e-06
1.0751e-05
-1.46023e-06
1.10463e-05
-1.00241e-06
1.12392e-05
-6.06355e-07
1.13257e-05
-2.556e-07
1.12928e-05
2.47961e-07
1.11699e-05
4.51352e-07
1.08692e-05
1.00026e-06
1.0491e-05
1.13295e-06
9.98581e-06
1.58422e-06
9.38642e-06
1.72922e-06
8.74307e-06
1.96059e-06
8.08089e-06
1.88726e-06
7.36506e-06
2.10391e-06
6.68872e-06
1.61989e-06
5.89571e-06
2.10932e-06
1.18745e-06
5.32635e-06
4.08162e-06
-1.33385e-06
4.48347e-06
-1.41583e-06
4.54688e-06
-1.61739e-06
5.0554e-06
-2.35124e-06
5.69347e-06
-1.92033e-06
6.26555e-06
-2.64862e-06
6.99535e-06
-2.43908e-06
7.70008e-06
-2.82723e-06
8.36784e-06
-2.66402e-06
9.05856e-06
-2.6732e-06
9.66987e-06
-2.41817e-06
1.02117e-05
-2.15628e-06
1.06755e-05
-1.92402e-06
1.09763e-05
-1.30326e-06
1.12376e-05
-8.67623e-07
1.1388e-05
-4.06002e-07
1.13937e-05
2.42239e-07
1.1244e-05
6.01075e-07
1.09513e-05
1.29288e-06
1.05777e-05
1.50658e-06
1.00421e-05
2.11986e-06
9.40348e-06
2.36782e-06
8.71316e-06
2.65092e-06
7.98079e-06
2.61963e-06
7.28819e-06
2.79652e-06
6.56975e-06
2.33833e-06
5.95004e-06
2.72903e-06
1.94902e-06
5.18847e-06
3.98405e-06
-1.8147e-06
4.07204e-06
-1.50382e-06
4.57965e-06
-2.125e-06
5.04495e-06
-2.81655e-06
5.66146e-06
-2.53684e-06
6.22982e-06
-3.21697e-06
7.06612e-06
-3.27538e-06
7.76028e-06
-3.52139e-06
8.44343e-06
-3.34718e-06
9.08988e-06
-3.31966e-06
9.69391e-06
-3.0222e-06
1.01943e-05
-2.65668e-06
1.06331e-05
-2.36285e-06
1.09309e-05
-1.60105e-06
1.12045e-05
-1.14116e-06
1.12574e-05
-4.58935e-07
1.12922e-05
2.07398e-07
1.11525e-05
7.40784e-07
1.09011e-05
1.5443e-06
1.05314e-05
1.87629e-06
9.99206e-06
2.6592e-06
9.45793e-06
2.90195e-06
8.79755e-06
3.3113e-06
8.04101e-06
3.37616e-06
7.22603e-06
3.6115e-06
6.44962e-06
3.11473e-06
5.79201e-06
3.38664e-06
2.65136e-06
5.08967e-06
3.74849e-06
-1.89456e-06
4.12483e-06
-1.88016e-06
4.64293e-06
-2.64311e-06
4.83061e-06
-3.00423e-06
5.57872e-06
-3.28494e-06
6.17851e-06
-3.81677e-06
6.96331e-06
-4.06018e-06
7.67345e-06
-4.23153e-06
8.2997e-06
-3.97343e-06
8.90056e-06
-3.92052e-06
9.41793e-06
-3.53956e-06
9.88761e-06
-3.12635e-06
1.02403e-05
-2.71557e-06
1.0523e-05
-1.88368e-06
1.07188e-05
-1.33704e-06
1.07363e-05
-4.76434e-07
1.07542e-05
1.89555e-07
1.05936e-05
9.01343e-07
1.0371e-05
1.76693e-06
1.0075e-05
2.17226e-06
9.60565e-06
3.12858e-06
9.17579e-06
3.33181e-06
8.5909e-06
3.89618e-06
7.8985e-06
4.06856e-06
7.1263e-06
4.3837e-06
6.28165e-06
3.95938e-06
5.67934e-06
3.98895e-06
3.50324e-06
4.82746e-06
3.63602e-06
-2.09975e-06
4.14668e-06
-2.39081e-06
4.3445e-06
-2.84093e-06
4.86231e-06
-3.52204e-06
5.62691e-06
-4.04954e-06
6.14359e-06
-4.33345e-06
6.9215e-06
-4.83809e-06
7.4701e-06
-4.78013e-06
7.9649e-06
-4.46823e-06
8.42838e-06
-4.384e-06
8.78338e-06
-3.89456e-06
9.11868e-06
-3.46166e-06
9.35342e-06
-2.95031e-06
9.56659e-06
-2.09686e-06
9.6707e-06
-1.44115e-06
9.69457e-06
-5.0031e-07
9.68926e-06
1.94872e-07
9.56147e-06
1.02913e-06
9.37548e-06
1.95292e-06
9.15461e-06
2.39313e-06
8.8092e-06
3.47399e-06
8.51524e-06
3.62577e-06
8.03902e-06
4.3724e-06
7.50256e-06
4.60502e-06
6.8885e-06
4.99776e-06
6.11654e-06
4.73135e-06
5.52473e-06
4.58076e-06
4.22877e-06
4.79921e-06
3.62828e-06
-2.382e-06
3.85915e-06
-2.62167e-06
4.30734e-06
-3.28913e-06
4.85165e-06
-4.06634e-06
5.33692e-06
-4.53481e-06
5.986e-06
-4.98253e-06
6.52535e-06
-5.37744e-06
6.80812e-06
-5.0629e-06
7.21785e-06
-4.87796e-06
7.45976e-06
-4.62592e-06
7.65173e-06
-4.08653e-06
7.95973e-06
-3.76966e-06
8.13116e-06
-3.12174e-06
8.29403e-06
-2.25972e-06
8.35904e-06
-1.50615e-06
8.40646e-06
-5.47731e-07
8.38485e-06
2.16478e-07
8.29121e-06
1.12277e-06
8.16161e-06
2.08253e-06
7.94964e-06
2.6051e-06
7.6937e-06
3.72992e-06
7.46972e-06
3.84975e-06
7.10513e-06
4.73699e-06
6.77025e-06
4.93991e-06
6.41926e-06
5.34874e-06
5.80844e-06
5.34217e-06
5.31352e-06
5.07568e-06
4.76326e-06
4.77902e-06
3.40423e-06
-2.52009e-06
3.75318e-06
-2.97062e-06
4.18977e-06
-3.72571e-06
4.56079e-06
-4.43736e-06
5.08984e-06
-5.06386e-06
5.5158e-06
-5.40849e-06
5.6251e-06
-5.48674e-06
5.83761e-06
-5.27541e-06
6.12717e-06
-5.16752e-06
6.18769e-06
-4.68643e-06
6.41235e-06
-4.31119e-06
6.60676e-06
-3.96407e-06
6.63058e-06
-3.14556e-06
6.78371e-06
-2.41286e-06
6.79875e-06
-1.5212e-06
6.86516e-06
-6.14133e-07
6.85765e-06
2.23985e-07
6.83053e-06
1.14988e-06
6.79203e-06
2.12103e-06
6.59433e-06
2.8028e-06
6.52685e-06
3.7974e-06
6.29566e-06
4.08094e-06
6.02586e-06
5.0068e-06
5.86357e-06
5.10219e-06
5.69068e-06
5.52163e-06
5.26254e-06
5.77031e-06
4.92228e-06
5.41594e-06
5.07006e-06
4.61547e-06
3.22964e-06
-2.69192e-06
3.5567e-06
-3.29768e-06
3.90823e-06
-4.07724e-06
4.24596e-06
-4.77509e-06
4.45677e-06
-5.27467e-06
4.53582e-06
-5.48754e-06
4.63721e-06
-5.58813e-06
4.82913e-06
-5.46733e-06
4.84022e-06
-5.17862e-06
4.93246e-06
-4.77867e-06
5.06619e-06
-4.44492e-06
4.94473e-06
-3.84261e-06
4.99832e-06
-3.19915e-06
5.10431e-06
-2.51884e-06
5.07867e-06
-1.49556e-06
5.20334e-06
-7.388e-07
5.15697e-06
2.70357e-07
5.16659e-06
1.14026e-06
5.17414e-06
2.11348e-06
4.99243e-06
2.98451e-06
5.04387e-06
3.74596e-06
4.91672e-06
4.20809e-06
4.839e-06
5.08451e-06
4.82721e-06
5.11399e-06
4.76026e-06
5.58859e-06
4.53143e-06
5.99914e-06
4.33988e-06
5.60749e-06
5.23289e-06
4.17706e-06
3.0593e-06
-2.87792e-06
3.36071e-06
-3.59909e-06
3.57861e-06
-4.29514e-06
3.60182e-06
-4.79831e-06
3.56844e-06
-5.24129e-06
3.61e-06
-5.5291e-06
3.55119e-06
-5.52932e-06
3.40451e-06
-5.32065e-06
3.39354e-06
-5.16764e-06
3.457e-06
-4.84213e-06
3.30767e-06
-4.29559e-06
3.227e-06
-3.76193e-06
3.302e-06
-3.27416e-06
3.17302e-06
-2.38986e-06
3.22725e-06
-1.5498e-06
3.39098e-06
-9.02526e-07
3.31922e-06
3.42113e-07
3.37415e-06
1.08533e-06
3.34448e-06
2.14316e-06
3.32315e-06
3.00585e-06
3.53249e-06
3.53662e-06
3.46532e-06
4.27526e-06
3.51923e-06
5.03061e-06
3.53133e-06
5.10188e-06
3.65238e-06
5.46753e-06
3.70114e-06
5.95039e-06
3.68718e-06
5.62144e-06
5.25689e-06
3.66318e-06
2.951e-06
-3.11205e-06
3.04933e-06
-3.69741e-06
2.96643e-06
-4.21225e-06
2.84667e-06
-4.67855e-06
2.68389e-06
-5.0785e-06
2.4947e-06
-5.33991e-06
2.29026e-06
-5.32488e-06
2.24456e-06
-5.27494e-06
2.13453e-06
-5.05761e-06
1.89044e-06
-4.59805e-06
1.75647e-06
-4.16162e-06
1.61871e-06
-3.62417e-06
1.38994e-06
-3.04539e-06
1.30529e-06
-2.3052e-06
1.40965e-06
-1.65415e-06
1.28946e-06
-7.82341e-07
1.3446e-06
2.86981e-07
1.54922e-06
8.80704e-07
1.52154e-06
2.17084e-06
1.52513e-06
3.00226e-06
1.63489e-06
3.42686e-06
1.87001e-06
4.04014e-06
2.20815e-06
4.69247e-06
2.31128e-06
4.99875e-06
2.4052e-06
5.37362e-06
2.66146e-06
5.69413e-06
2.85097e-06
5.43193e-06
5.14957e-06
2.9583e-06
2.69609e-06
-3.13092e-06
2.55896e-06
-3.56028e-06
2.32637e-06
-3.97965e-06
1.99522e-06
-4.3474e-06
1.66142e-06
-4.74471e-06
1.44765e-06
-5.12614e-06
1.19563e-06
-5.07286e-06
7.56889e-07
-4.83621e-06
4.52495e-07
-4.75322e-06
2.81305e-07
-4.42686e-06
1.71494e-08
-3.89747e-06
-2.82916e-07
-3.3241e-06
-4.25912e-07
-2.90239e-06
-5.31928e-07
-2.19919e-06
-6.5165e-07
-1.53443e-06
-6.92229e-07
-7.41763e-07
-4.8209e-07
7.68426e-08
-5.48913e-07
9.47528e-07
-4.91674e-07
2.1136e-06
-1.23959e-07
2.63454e-06
-3.87963e-09
3.30678e-06
2.73704e-07
3.76256e-06
5.33667e-07
4.43251e-06
8.64213e-07
4.6682e-06
1.22489e-06
5.01294e-06
1.53201e-06
5.38701e-06
1.81995e-06
5.14399e-06
4.95041e-06
2.01911e-06
2.33642e-06
-2.90821e-06
1.93093e-06
-3.1548e-06
1.51614e-06
-3.56486e-06
1.17108e-06
-4.00234e-06
8.3905e-07
-4.41268e-06
3.39748e-07
-4.62684e-06
-1.46918e-07
-4.58619e-06
-5.2954e-07
-4.45358e-06
-9.48467e-07
-4.33429e-06
-1.35261e-06
-4.02272e-06
-1.66888e-06
-3.5812e-06
-1.94801e-06
-3.04496e-06
-2.29749e-06
-2.55292e-06
-2.48182e-06
-2.01487e-06
-2.58891e-06
-1.42734e-06
-2.61286e-06
-7.17808e-07
-2.60136e-06
6.53377e-08
-2.57686e-06
9.23032e-07
-2.15961e-06
1.69634e-06
-1.93605e-06
2.41098e-06
-1.82746e-06
3.19819e-06
-1.27797e-06
3.21307e-06
-8.43888e-07
3.99843e-06
-5.62401e-07
4.38671e-06
-1.92334e-07
4.64288e-06
3.35736e-07
4.85894e-06
8.67642e-07
4.61208e-06
4.62703e-06
1.19102e-06
1.83477e-06
-2.44117e-06
1.33685e-06
-2.65688e-06
9.39651e-07
-3.16767e-06
4.17072e-07
-3.47976e-06
-1.81272e-07
-3.81433e-06
-7.64176e-07
-4.04393e-06
-1.35102e-06
-3.99935e-06
-1.98061e-06
-3.82399e-06
-2.48726e-06
-3.82764e-06
-2.91774e-06
-3.59225e-06
-3.35868e-06
-3.14025e-06
-3.70097e-06
-2.70267e-06
-4.03574e-06
-2.21815e-06
-4.29333e-06
-1.75727e-06
-4.48117e-06
-1.2395e-06
-4.56248e-06
-6.36499e-07
-4.53673e-06
3.95885e-08
-4.38119e-06
7.67493e-07
-4.09791e-06
1.41306e-06
-3.92379e-06
2.23686e-06
-3.307e-06
2.5814e-06
-2.87352e-06
2.77959e-06
-2.65533e-06
3.78024e-06
-1.94517e-06
3.67655e-06
-1.26702e-06
3.96472e-06
-8.62925e-07
4.45485e-06
-4.20265e-07
4.16942e-06
4.04721e-06
1.59557e-07
1.27747e-06
-1.90356e-06
7.58414e-07
-2.13782e-06
2.39472e-07
-2.64872e-06
-3.05686e-07
-2.9346e-06
-9.83288e-07
-3.13673e-06
-1.81378e-06
-3.21344e-06
-2.4961e-06
-3.31704e-06
-3.09152e-06
-3.22857e-06
-3.76512e-06
-3.15403e-06
-4.33776e-06
-3.01961e-06
-4.85128e-06
-2.62673e-06
-5.27077e-06
-2.28319e-06
-5.65082e-06
-1.8381e-06
-5.93259e-06
-1.47551e-06
-6.14973e-06
-1.02235e-06
-6.25994e-06
-5.26292e-07
-6.24624e-06
2.58931e-08
-6.06319e-06
5.84435e-07
-5.84641e-06
1.19629e-06
-5.46341e-06
1.85386e-06
-4.87401e-06
1.99201e-06
-4.56275e-06
2.46832e-06
-3.79298e-06
3.01048e-06
-3.05067e-06
2.93424e-06
-2.8078e-06
3.72185e-06
-2.14855e-06
3.7956e-06
-1.36437e-06
3.38524e-06
3.53703e-06
-8.54198e-07
5.8423e-07
-1.35959e-06
1.13733e-07
-1.66732e-06
-4.30248e-07
-2.10474e-06
-1.01188e-06
-2.35297e-06
-1.82842e-06
-2.32019e-06
-2.74443e-06
-2.29743e-06
-3.61329e-06
-2.44817e-06
-4.35744e-06
-2.48442e-06
-5.02372e-06
-2.48776e-06
-5.68108e-06
-2.36226e-06
-6.26708e-06
-2.04073e-06
-6.7625e-06
-1.78776e-06
-7.17898e-06
-1.42162e-06
-7.51097e-06
-1.14353e-06
-7.74021e-06
-7.93109e-07
-7.84541e-06
-4.21096e-07
-7.81737e-06
-2.14524e-09
-7.66444e-06
4.31502e-07
-7.37891e-06
9.1076e-07
-6.87678e-06
1.35173e-06
-6.3904e-06
1.50563e-06
-5.88721e-06
1.96513e-06
-5.05814e-06
2.18141e-06
-4.62337e-06
2.49947e-06
-3.88804e-06
2.98651e-06
-2.9021e-06
2.80967e-06
-2.45673e-06
2.93987e-06
2.82058e-06
-1.74028e-06
-1.15293e-07
-8.6179e-07
-6.06528e-07
-1.17609e-06
-1.22808e-06
-1.48319e-06
-1.8922e-06
-1.68884e-06
-2.72001e-06
-1.49238e-06
-3.58174e-06
-1.4357e-06
-4.412e-06
-1.61791e-06
-5.24427e-06
-1.65215e-06
-6.05776e-06
-1.67426e-06
-6.80463e-06
-1.61539e-06
-7.45435e-06
-1.39101e-06
-8.01836e-06
-1.22375e-06
-8.47019e-06
-9.6978e-07
-8.82545e-06
-7.88273e-07
-9.0694e-06
-5.4916e-07
-9.18733e-06
-3.03162e-07
-9.1623e-06
-2.71751e-08
-9.0036e-06
2.72794e-07
-8.68462e-06
5.91785e-07
-8.19273e-06
8.59845e-07
-7.7054e-06
1.01829e-06
-7.07161e-06
1.33134e-06
-6.40163e-06
1.51143e-06
-5.77974e-06
1.87758e-06
-4.74911e-06
1.95588e-06
-4.02239e-06
2.08295e-06
-3.27005e-06
2.18753e-06
1.66575e-06
-2.11521e-06
-7.40919e-07
-3.47308e-07
-1.43745e-06
-4.7956e-07
-2.13299e-06
-7.87651e-07
-2.94598e-06
-8.75851e-07
-3.68303e-06
-7.55335e-07
-4.41235e-06
-7.06383e-07
-5.21185e-06
-8.18409e-07
-6.03128e-06
-8.32719e-07
-6.84391e-06
-8.61635e-07
-7.64088e-06
-8.18416e-07
-8.32036e-06
-7.11532e-07
-8.92917e-06
-6.14939e-07
-9.40395e-06
-4.94999e-07
-9.78894e-06
-4.03281e-07
-1.00517e-05
-2.86433e-07
-1.01904e-05
-1.64427e-07
-1.01892e-05
-2.83554e-08
-1.00393e-05
1.22914e-07
-9.73338e-06
2.85823e-07
-9.29004e-06
4.16506e-07
-8.78642e-06
5.14669e-07
-8.12612e-06
6.71043e-07
-7.40881e-06
7.94113e-07
-6.52597e-06
9.94743e-07
-5.54843e-06
9.78344e-07
-4.64525e-06
1.17977e-06
-3.52248e-06
1.06476e-06
7.74243e-07
-2.63098e-06
-1.21152e-06
-1.69108e-06
-2.47873e-06
-3.35459e-06
-4.10992e-06
-4.8163e-06
-5.63471e-06
-6.46743e-06
-7.32907e-06
-8.14748e-06
-8.85902e-06
-9.47395e-06
-9.96895e-06
-1.03722e-05
-1.06587e-05
-1.08231e-05
-1.08514e-05
-1.07285e-05
-1.04427e-05
-1.00262e-05
-9.51154e-06
-8.84049e-06
-8.04638e-06
-7.05164e-06
-6.07329e-06
-4.89353e-06
-3.82877e-06
-3.05453e-06
4.83664e-06
1.91766e-06
-7.79021e-07
4.19164e-06
-8.59481e-07
1.50448e-06
4.15125e-06
6.53912e-07
-6.13526e-07
4.49528e-06
-6.77039e-07
3.33008e-07
3.2365e-06
-2.5452e-06
3.80399e-06
1.00658e-06
-1.63327e-06
3.86319e-06
4.49468e-07
-2.58549e-06
3.1426e-06
-2.90799e-06
-1.7876e-07
3.53622e-06
4.96578e-06
2.57794e-06
3.9436e-06
1.62706e-07
4.31765e-06
2.79859e-07
4.09444e-06
-4.53827e-07
2.75209e-06
-1.20285e-06
2.63619e-06
-1.51737e-06
3.07762e-06
-3.02691e-06
-1.95393e-06
2.12356e-06
5.26852e-06
2.63577e-06
4.21566e-06
1.21557e-06
4.11548e-06
3.8004e-07
3.64544e-06
1.62103e-08
2.96517e-06
-5.22588e-07
3.31237e-06
-1.86457e-06
2.04548e-06
-1.76002e-06
-6.50448e-07
7.41994e-07
5.22898e-06
2.59526e-06
4.4032e-06
2.04135e-06
3.9064e-06
8.76834e-07
3.71726e-06
2.05349e-07
2.75168e-06
4.42991e-07
1.91221e-06
-1.02509e-06
-8.2143e-07
9.73618e-07
-8.57759e-07
-6.14118e-07
4.88391e-06
2.80102e-06
4.42736e-06
2.49791e-06
3.74025e-06
1.56394e-06
3.424e-06
5.21599e-07
3.03512e-06
8.3187e-07
2.50164e-06
-4.9161e-07
2.42413e-06
1.05112e-06
-8.185e-07
2.38487e-06
4.54114e-06
3.08734e-06
4.14211e-06
2.89693e-06
3.63196e-06
2.0741e-06
3.30543e-06
8.48126e-07
2.90941e-06
1.22789e-06
2.48836e-06
-7.05544e-08
2.54744e-06
9.92044e-07
-3.10001e-07
2.03894e-06
4.21028e-06
3.67627e-06
3.92531e-06
3.1819e-06
3.50476e-06
2.49465e-06
3.18987e-06
1.16301e-06
2.93527e-06
1.48248e-06
2.46255e-06
4.02171e-07
2.36882e-06
1.08577e-06
2.66852e-07
1.79196e-06
4.20251e-06
4.25279e-06
3.92897e-06
3.45544e-06
3.52031e-06
2.90331e-06
3.19312e-06
1.4902e-06
2.91253e-06
1.76307e-06
2.63172e-06
6.82981e-07
2.56259e-06
1.15491e-06
6.40171e-07
2.18927e-06
4.14287e-06
4.72539e-06
3.77125e-06
3.82706e-06
3.49759e-06
3.17697e-06
3.22093e-06
1.76687e-06
2.95673e-06
2.02727e-06
2.65523e-06
9.84482e-07
2.54746e-06
1.26267e-06
9.00934e-07
2.2867e-06
3.93158e-06
4.97087e-06
3.70219e-06
4.05644e-06
3.50627e-06
3.3729e-06
3.26368e-06
2.00946e-06
3.02417e-06
2.26678e-06
2.75335e-06
1.2553e-06
2.69191e-06
1.32411e-06
1.10146e-06
2.49139e-06
3.50999e-06
5.12406e-06
3.3924e-06
4.17403e-06
3.25322e-06
3.51208e-06
3.04326e-06
2.21942e-06
2.87152e-06
2.43852e-06
2.68948e-06
1.43734e-06
2.66851e-06
1.34508e-06
1.16938e-06
2.60059e-06
3.01465e-06