/*--------------------------------*- C++ -*----------------------------------*\
| =========                 |                                                 |
| \\      /  F ield         | OpenFOAM: The Open Source CFD Toolbox           |
|  \\    /   O peration     | Version:  2.4.0                                 |
|   \\  /    A nd           | Web:      www.OpenFOAM.org                      |
|    \\/     M anipulation  |                                                 |
\*---------------------------------------------------------------------------*/
FoamFile
{
    version     2.0;
    format      ascii;
    class       volScalarField;
    location    "395";
    object      nut;
}
// * * * * * * * * * * * * * * * * * * * * * * * * * * * * * * * * * * * * * //

dimensions      [0 2 -1 0 0 0 0];

internalField   nonuniform List<scalar> 
6000
(
1.35204e-05
9.80825e-06
5.56184e-06
5.14636e-06
5.25518e-06
5.49221e-06
5.73654e-06
6.00345e-06
6.27713e-06
6.55257e-06
6.82226e-06
7.08056e-06
7.32263e-06
7.5469e-06
7.75187e-06
7.93521e-06
8.09332e-06
8.22383e-06
8.32871e-06
8.41823e-06
8.51578e-06
8.64297e-06
8.83168e-06
9.11085e-06
9.50594e-06
1.00051e-05
1.05865e-05
1.12217e-05
1.18901e-05
1.26007e-05
1.32791e-05
1.39031e-05
1.44543e-05
1.49185e-05
1.52867e-05
1.55552e-05
1.57302e-05
1.58095e-05
1.57907e-05
1.56813e-05
1.54895e-05
1.52252e-05
1.48972e-05
1.45177e-05
1.40938e-05
1.364e-05
1.31646e-05
1.26091e-05
1.22702e-05
1.21592e-05
1.20371e-05
1.1983e-05
1.18187e-05
1.17806e-05
1.15394e-05
1.15703e-05
1.12186e-05
1.14559e-05
1.09692e-05
1.17523e-05
2.16984e-05
1.63836e-05
1.46849e-05
1.58043e-05
2.24376e-05
2.65514e-05
2.99472e-05
3.31186e-05
3.61528e-05
3.89954e-05
4.1573e-05
4.38261e-05
4.56823e-05
4.71602e-05
4.83377e-05
4.933e-05
5.0236e-05
5.11311e-05
5.20635e-05
5.30755e-05
5.42348e-05
5.59544e-05
5.8465e-05
6.18234e-05
6.55659e-05
6.97879e-05
7.43106e-05
7.90134e-05
8.3715e-05
8.81385e-05
9.25643e-05
9.69972e-05
0.000101385
0.000105651
0.000109704
0.000113418
0.000116562
0.000118881
0.000120777
0.000122275
0.000123398
0.000124199
0.000124715
0.000125037
0.000125204
0.000125323
0.000125474
0.000125006
0.000120818
0.000114518
0.000108373
0.000101775
9.47934e-05
8.70979e-05
7.83131e-05
6.96484e-05
5.89536e-05
5.13202e-05
3.79105e-05
3.5706e-05
2.83901e-05
2.19855e-05
1.99277e-05
2.41158e-05
4.23316e-05
5.62632e-05
6.64177e-05
7.49176e-05
8.26124e-05
8.96577e-05
9.60375e-05
0.000101682
0.000106461
0.000110405
0.000113654
0.000116395
0.000118737
0.000120691
0.000122191
0.000123205
0.000123967
0.000125412
0.000128355
0.000133305
0.00013982
0.000147998
0.000157404
0.000167666
0.000178367
0.00018908
0.000199917
0.000210713
0.000221221
0.000231172
0.000240299
0.000248292
0.00025473
0.000259339
0.000262713
0.000264934
0.000266092
0.000266335
0.000265792
0.000264685
0.000263155
0.00026142
0.000259634
0.000256516
0.000249452
0.000239651
0.000229637
0.000218813
0.000206345
0.000192655
0.000175561
0.000159349
0.000137499
0.000123183
9.52785e-05
9.5857e-05
3.19829e-05
2.55931e-05
2.32298e-05
2.86574e-05
5.29037e-05
7.74347e-05
9.65222e-05
0.000112044
0.000125632
0.000137803
0.000148719
0.000158377
0.000166637
0.000173536
0.000179246
0.000183969
0.000187762
0.000190521
0.000192058
0.000192333
0.000191857
0.000192039
0.00019441
0.000200131
0.000209055
0.000221094
0.000235468
0.000251463
0.00026838
0.000285593
0.00030288
0.000319826
0.000335968
0.000350848
0.000364067
0.000375221
0.00038385
0.000389812
0.000393734
0.00039578
0.000396136
0.000395054
0.000392773
0.000389639
0.000385915
0.000381905
0.000377762
0.000372168
0.00036365
0.000352662
0.000341175
0.00032857
0.000313214
0.000295964
0.000273471
0.000251934
0.000222394
0.000203102
0.000166855
0.000170106
3.37102e-05
2.77457e-05
2.5289e-05
3.10467e-05
5.69931e-05
9.02417e-05
0.000117962
0.000140878
0.000160824
0.000178523
0.000194292
0.000208213
0.000220154
0.00023015
0.000238381
0.000245037
0.00025013
0.000253477
0.000254843
0.000254268
0.000252548
0.000251476
0.000253229
0.000259622
0.000270878
0.000286687
0.000305891
0.000327388
0.000350169
0.00037335
0.000396367
0.000418566
0.000439295
0.000457965
0.000474111
0.000487321
0.000497147
0.000503649
0.000507446
0.000508791
0.000507961
0.000505309
0.000501174
0.000496003
0.000490176
0.000484057
0.000477766
0.000470411
0.000461315
0.000450356
0.00043881
0.000425855
0.000409352
0.000390085
0.000364347
0.000338945
0.000304569
0.000281315
0.000241855
0.000246175
3.4566e-05
2.9018e-05
2.65357e-05
3.20546e-05
5.85614e-05
9.73178e-05
0.00013238
0.000162206
0.000188386
0.000211621
0.000232281
0.000250504
0.000266159
0.000279255
0.000289959
0.000298444
0.000304698
0.000308526
0.000309732
0.000308493
0.00030587
0.000303944
0.000305384
0.000312573
0.000326134
0.000345574
0.000369357
0.000395977
0.000424089
0.000452533
0.000480434
0.000506931
0.000531232
0.000552673
0.000570776
0.000585179
0.00059545
0.000601886
0.000605091
0.000605401
0.000603179
0.000598859
0.00059287
0.000585742
0.000577958
0.000569924
0.000561765
0.000553242
0.000544095
0.000533831
0.000523091
0.000510707
0.000494241
0.000474043
0.000446565
0.000418385
0.000381176
0.000354816
0.000314787
0.000319754
3.50092e-05
2.97739e-05
2.72599e-05
3.22075e-05
5.83509e-05
0.000100249
0.000141605
0.000177506
0.000209463
0.000237992
0.000263401
0.000285844
0.000305159
0.000321308
0.000334419
0.000344647
0.000351987
0.000356288
0.000357461
0.000355859
0.000352773
0.000350498
0.000352029
0.000360192
0.000376018
0.000398901
0.000426956
0.000458268
0.000491148
0.000524158
0.000556155
0.000586113
0.000613143
0.000636548
0.000655873
0.000670841
0.000681014
0.000686951
0.00068924
0.000688289
0.000684533
0.000678477
0.000670627
0.000661579
0.00065191
0.00064206
0.000632249
0.000622913
0.000614013
0.000604802
0.000595407
0.000584234
0.000568654
0.00054836
0.00052023
0.000490155
0.000451519
0.000422849
0.00038398
0.000389406
3.52416e-05
3.02249e-05
2.76566e-05
3.18638e-05
5.68501e-05
0.000100271
0.000146977
0.00018813
0.000225268
0.000258709
0.000288626
0.000315134
0.000338018
0.00035716
0.000372628
0.000384559
0.000392977
0.00039782
0.000399148
0.000397503
0.000394381
0.000392236
0.000394255
0.000403568
0.000421598
0.000447706
0.000479699
0.000515268
0.000552383
0.000589335
0.000624757
0.000657495
0.0006866
0.000711368
0.000731382
0.000746452
0.000756163
0.000761298
0.000762437
0.000760056
0.000754649
0.000746782
0.000737025
0.000726031
0.000714458
0.000702781
0.000691437
0.00068144
0.000672911
0.000664916
0.000657198
0.000647705
0.000633651
0.000613946
0.00058599
0.000554765
0.00051571
0.00048546
0.0004489
0.000454707
3.53592e-05
3.04934e-05
2.78537e-05
3.12599e-05
5.43816e-05
9.85905e-05
0.000149256
0.000195115
0.000236846
0.000274766
0.000308893
0.00033928
0.000365624
0.000387703
0.000405507
0.000419149
0.000428697
0.000434208
0.000435908
0.00043452
0.000431723
0.000430107
0.000432958
0.000443576
0.000463738
0.000492837
0.000528435
0.000567849
0.000608717
0.000649079
0.000687381
0.000722368
0.000753059
0.000778754
0.000799082
0.000813918
0.000822928
0.000827041
0.00082686
0.000822912
0.000815747
0.000805978
0.000794233
0.000781212
0.000767643
0.000754035
0.000741195
0.000730538
0.000722368
0.000715613
0.000709757
0.000702297
0.00069028
0.00067176
0.000644635
0.000612908
0.000574175
0.000542997
0.00050948
0.000515619
3.54118e-05
3.06513e-05
2.79323e-05
3.05464e-05
5.13314e-05
9.57181e-05
0.000148556
0.000199163
0.000245018
0.000286995
0.000325021
0.000359083
0.000388773
0.000413747
0.000433895
0.000449298
0.000460077
0.000466416
0.000468712
0.00046785
0.000465664
0.000464877
0.000468834
0.000480891
0.000503113
0.000534975
0.000573855
0.000616734
0.000660935
0.000704264
0.00074501
0.000781843
0.00081376
0.000840076
0.000860459
0.000874828
0.000882963
0.000885896
0.000884261
0.000878634
0.00086961
0.000857842
0.000844006
0.000828841
0.000813133
0.000797448
0.000783069
0.000771652
0.000763719
0.000758125
0.000754207
0.00074905
0.000739492
0.000722692
0.000696953
0.000665297
0.000627442
0.000595899
0.000565861
0.000572261
3.54266e-05
3.07412e-05
2.79431e-05
2.98151e-05
4.8033e-05
9.16256e-05
0.000146119
0.000200666
0.000250386
0.000296057
0.00033768
0.000375213
0.00040814
0.000435977
0.000458499
0.000475747
0.00048789
0.000495242
0.000498356
0.000498252
0.000496896
0.000497148
0.000502409
0.00051602
0.000540241
0.000574652
0.000616514
0.000662515
0.000709685
0.000755617
0.000798465
0.000836838
0.000869721
0.000896442
0.000916698
0.000930438
0.000937568
0.000939203
0.00093601
0.000928609
0.000917634
0.000903771
0.000887734
0.000870293
0.000852277
0.000834374
0.000818346
0.000806007
0.000798102
0.000793505
0.000791514
0.000788856
0.000782122
0.000767536
0.000743674
0.000712607
0.000676057
0.000644622
0.000618268
0.000624813
3.54193e-05
3.07888e-05
2.79172e-05
2.9119e-05
4.47368e-05
8.65004e-05
0.000142527
0.000199683
0.00025334
0.00030245
0.000347406
0.000388217
0.000424272
0.000454949
0.000479893
0.000499091
0.000512753
0.000521311
0.000525458
0.000526319
0.000525955
0.000527377
0.000534073
0.000549332
0.000575507
0.000612282
0.000656853
0.000705669
0.000755495
0.000803729
0.000848408
0.00088809
0.00092175
0.000948721
0.000968723
0.000981715
0.000987745
0.00098799
0.000983157
0.000973904
0.000960898
0.000944852
0.000926511
0.000906661
0.000886168
0.000865945
0.000848119
0.000834649
0.000826498
0.000822665
0.000822509
0.000822484
0.000818891
0.000806987
0.000785454
0.00075545
0.000720543
0.000689599
0.00066696
0.000673483
3.53993e-05
3.08102e-05
2.78736e-05
2.84855e-05
4.16121e-05
8.06492e-05
0.000137753
0.000196903
0.000254087
0.00030653
0.000354608
0.000398521
0.000437604
0.000471102
0.000498525
0.00051979
0.000535136
0.000545096
0.000550481
0.00055249
0.000553247
0.000555913
0.00056411
0.000581086
0.000609195
0.000648179
0.000695217
0.000746575
0.000798788
0.000849075
0.000895368
0.000936179
0.000970473
0.000997582
0.00101724
0.00102939
0.00103425
0.00103303
0.0010265
0.00101533
0.00100023
0.000981925
0.000961189
0.000938815
0.00091571
0.000893099
0.000873317
0.00085848
0.000849766
0.000846403
0.000847922
0.000850601
0.000850421
0.000841646
0.000822874
0.000794373
0.00076138
0.00073123
0.000712198
0.000718486
3.5372e-05
3.08153e-05
2.78232e-05
2.79259e-05
3.87596e-05
7.44071e-05
0.000131732
0.000192973
0.000252631
0.000308516
0.000359586
0.000406453
0.000448471
0.000484773
0.000514733
0.000538188
0.000555384
0.000566939
0.000573757
0.000577083
0.000579067
0.000583012
0.000592724
0.000611461
0.000641499
0.000682575
0.000731873
0.000785533
0.000839896
0.000892024
0.000939753
0.000981552
0.00101637
0.00104353
0.00106277
0.00107402
0.00107764
0.00107491
0.00106663
0.0010535
0.00103625
0.00101564
0.000992436
0.00096744
0.000941669
0.000916616
0.000894733
0.000878285
0.000868665
0.000865433
0.000868399
0.000873785
0.00087725
0.000872029
0.000856439
0.000829861
0.000799005
0.000769876
0.000754237
0.000760045
3.53409e-05
3.08104e-05
2.77726e-05
2.7442e-05
3.62284e-05
6.80845e-05
0.000124563
0.000187902
0.000249538
0.000308505
0.000362542
0.000412258
0.000457126
0.000496214
0.000528767
0.000554532
0.000573741
0.000587075
0.000595511
0.000600313
0.000603623
0.000608862
0.000620062
0.00064057
0.000672546
0.000715632
0.000767019
0.000822771
0.000879078
0.000932864
0.000981878
0.00102455
0.00105979
0.00108694
0.00110571
0.001116
0.00111834
0.00111406
0.00110399
0.00108887
0.00106944
0.00104648
0.00102077
0.000993088
0.000964689
0.000937147
0.000913042
0.000894744
0.000883871
0.000880396
0.000884521
0.000892551
0.000899845
0.000898581
0.00088659
0.000862336
0.000833807
0.000805864
0.000793325
0.000798388
3.53083e-05
3.07998e-05
2.77253e-05
2.70303e-05
3.40302e-05
6.19396e-05
0.000116465
0.000181563
0.000245345
0.000306515
0.000363589
0.000416103
0.000463755
0.00050561
0.000540806
0.000568993
0.000590367
0.000605655
0.000615884
0.000622317
0.00062705
0.000633594
0.000646226
0.000668482
0.000702404
0.000747457
0.000800796
0.000858458
0.000916527
0.00097181
0.00102198
0.00106541
0.00110101
0.00112808
0.00114634
0.00115562
0.00115665
0.00115079
0.00113891
0.00112178
0.00110017
0.00107483
0.00104658
0.00101625
0.000985274
0.000955235
0.000928815
0.000908451
0.000895986
0.000891877
0.000896818
0.000907357
0.000918611
0.000921684
0.000913705
0.000892165
0.000866133
0.000839484
0.000829698
0.000833744
3.52755e-05
3.07862e-05
2.76831e-05
2.66844e-05
3.21533e-05
5.61663e-05
0.000107724
0.000173915
0.000239996
0.000303143
0.000362754
0.000418092
0.000468485
0.00051309
0.000550968
0.000581678
0.000605361
0.000622765
0.000634951
0.000643164
0.000649427
0.000657293
0.000671288
0.000695232
0.000731102
0.000778102
0.000833294
0.000892715
0.000952383
0.00100902
0.00106022
0.00110432
0.00114021
0.00116716
0.00118486
0.0011931
0.00119279
0.00118533
0.00117163
0.00115249
0.00112868
0.00110098
0.0010702
0.00103734
0.00100383
0.000971326
0.000942529
0.000919915
0.000905546
0.000900406
0.000905777
0.000918619
0.000933903
0.000941661
0.000938108
0.000919667
0.000896284
0.000870998
0.000863582
0.00086634
3.52433e-05
3.07711e-05
2.76467e-05
2.63967e-05
3.05717e-05
5.08939e-05
9.86564e-05
0.000165015
0.000233394
0.000298615
0.00036032
0.000418266
0.000471396
0.000518737
0.00055933
0.00059265
0.000618771
0.00063844
0.000652737
0.000662877
0.000670786
0.000680006
0.000695293
0.000720836
0.000758631
0.00080758
0.000864561
0.000925615
0.00098674
0.00104459
0.00109671
0.0011414
0.0011775
0.00120428
0.0012214
0.00122857
0.00122691
0.00121785
0.00120233
0.00118118
0.00115519
0.00112514
0.00109194
0.00105665
0.0010207
0.000985776
0.000954576
0.000929568
0.000913024
0.000906466
0.000911846
0.000926712
0.00094603
0.000958786
0.000960067
0.000945107
0.000924524
0.000900634
0.000895193
0.000896404
3.52123e-05
3.07559e-05
2.76163e-05
2.61598e-05
2.92529e-05
4.61932e-05
8.9568e-05
0.00015502
0.000225455
0.0002929
0.000356631
0.000416754
0.000472522
0.000522598
0.000565931
0.000601935
0.000630607
0.000652677
0.000669228
0.000681438
0.000691119
0.00070175
0.000718269
0.000745296
0.000784964
0.000835866
0.000894603
0.000957194
0.00101965
0.0010786
0.00113154
0.00117673
0.00121299
0.00123955
0.00125606
0.00126214
0.00125912
0.00124846
0.00123113
0.00120799
0.00117985
0.00114752
0.00111204
0.00107442
0.00103613
0.000998871
0.00096527
0.000937772
0.000918827
0.00091049
0.000915437
0.000931985
0.000955265
0.000973286
0.000979805
0.000968711
0.000951076
0.000928596
0.00092473
0.000924153
3.51827e-05
3.07411e-05
2.75915e-05
2.59664e-05
2.81626e-05
4.20867e-05
8.07334e-05
0.000144164
0.000216149
0.000285927
0.000351717
0.000413892
0.000471942
0.00052469
0.000570784
0.000609533
0.000640854
0.000665445
0.000684383
0.000698803
0.00071039
0.000722511
0.000740226
0.000768608
0.000810057
0.000862911
0.000923392
0.000987452
0.00105114
0.00111108
0.00116473
0.00121034
0.0012467
0.00127301
0.00128888
0.00129386
0.00128948
0.00127722
0.00125811
0.00123301
0.00120277
0.00116832
0.00113066
0.00109084
0.00105033
0.00101083
0.000974859
0.000944818
0.000923301
0.00091286
0.000916929
0.000934754
0.000961849
0.000985348
0.000997499
0.000990656
0.000976127
0.000955057
0.000952384
0.000949797
3.51549e-05
3.07272e-05
2.7572e-05
2.581e-05
2.72675e-05
3.85608e-05
7.23782e-05
0.00013273
0.000205516
0.000277615
0.000345561
0.000409731
0.000469926
0.000525091
0.000573879
0.000615424
0.000649475
0.000676694
0.00069814
0.000714902
0.000728538
0.000742252
0.000761158
0.000790763
0.000833864
0.000888641
0.00095087
0.00101636
0.00108119
0.00114202
0.0011963
0.00124225
0.00127865
0.00130467
0.00131988
0.00132375
0.00131803
0.0013042
0.00128333
0.00125631
0.00122411
0.00118764
0.00114793
0.00110603
0.00106344
0.0010218
0.00098353
0.000950938
0.000926733
0.000913912
0.000916664
0.000935313
0.000965991
0.000995122
0.00101328
0.00101108
0.000999827
0.000980166
0.000978324
0.00097353
3.51288e-05
3.07146e-05
2.75573e-05
2.56849e-05
2.65371e-05
3.5577e-05
6.46703e-05
0.000121028
0.000193676
0.000267898
0.000338109
0.000404287
0.000466526
0.000523977
0.000575319
0.000619573
0.000656422
0.00068636
0.000710422
0.000729652
0.000745481
0.000760914
0.000781041
0.000811752
0.000856339
0.000912974
0.000976954
0.00104385
0.00110976
0.0011714
0.00122623
0.00127245
0.00130883
0.00133453
0.00134905
0.00135184
0.00134478
0.00132941
0.00130683
0.00127803
0.00124396
0.00120558
0.00116394
0.00112011
0.00107557
0.00103191
0.000991418
0.000956307
0.000929353
0.000913928
0.00091495
0.000933929
0.000967879
0.00100273
0.00102725
0.00103009
0.00102229
0.00100404
0.00100271
0.000995534
3.51044e-05
3.07032e-05
2.7547e-05
2.55859e-05
2.59443e-05
3.30826e-05
5.77179e-05
0.00010937
0.000180821
0.000256757
0.000329291
0.000397538
0.00046177
0.000521391
0.000575176
0.000622076
0.000661673
0.000694369
0.000721141
0.000742957
0.000761123
0.00077842
0.000799836
0.000831561
0.000877442
0.000935822
0.00100154
0.00106984
0.00113679
0.00119917
0.00125447
0.0013009
0.00133721
0.00136256
0.00137639
0.0013781
0.00136975
0.0013529
0.00132871
0.0012982
0.00126237
0.0012222
0.00117875
0.00113313
0.00108678
0.00104123
0.000998614
0.000961051
0.000931336
0.000913141
0.000912055
0.00093085
0.000967679
0.00100824
0.00103947
0.00104774
0.00104361
0.00102679
0.00102566
0.00101597
3.50817e-05
3.06932e-05
2.75404e-05
2.55088e-05
2.54657e-05
3.10182e-05
5.15739e-05
9.80444e-05
0.000167202
0.00024423
0.00031904
0.000389442
0.000455659
0.000517362
0.000573478
0.000622944
0.000665257
0.000700719
0.000730229
0.000754712
0.000775356
0.000794675
0.000817487
0.000850169
0.000897143
0.000957098
0.00102451
0.00109421
0.00116219
0.00122526
0.00128097
0.00132756
0.00136376
0.00138872
0.00140185
0.00140253
0.00139295
0.0013747
0.00134897
0.00131685
0.00127937
0.00123753
0.00119242
0.00114514
0.00109711
0.0010498
0.00100517
0.000965251
0.000932811
0.000911737
0.000908211
0.000926297
0.000965537
0.00101174
0.00104995
0.00106407
0.00106382
0.00104847
0.00104731
0.00103498
3.50607e-05
3.06845e-05
2.75371e-05
2.54499e-05
2.50812e-05
2.93241e-05
4.62431e-05
8.73003e-05
0.000153113
0.000230419
0.000307312
0.000379936
0.000448171
0.000511899
0.000570244
0.000622186
0.000667159
0.000705373
0.000737643
0.000764854
0.000788085
0.000809575
0.000833905
0.000867515
0.000915388
0.000976729
0.00104579
0.0011169
0.00118589
0.00124961
0.00130568
0.00135237
0.00138842
0.00141299
0.00142542
0.00142513
0.00141439
0.00139481
0.00136765
0.00133402
0.001295
0.0012516
0.00120496
0.00115616
0.00110658
0.00105763
0.00101112
0.000968954
0.000933861
0.000909858
0.000903614
0.00092047
0.000961588
0.00101326
0.0010587
0.00107907
0.00108296
0.00106913
0.00106774
0.00105269
3.50413e-05
3.06772e-05
2.75367e-05
2.54062e-05
2.47741e-05
2.79435e-05
4.16928e-05
7.73364e-05
0.000138872
0.000215493
0.000294099
0.000368958
0.000439266
0.000504994
0.000565484
0.000619805
0.000667366
0.000708294
0.000743323
0.000773298
0.000799204
0.000823006
0.000848991
0.000883543
0.000932146
0.000994657
0.00106526
0.00113779
0.0012078
0.00127216
0.00132855
0.0013753
0.00141119
0.00143536
0.00144709
0.00144591
0.00143408
0.00141325
0.00138474
0.0013497
0.00130925
0.00126444
0.00121638
0.00116619
0.00111519
0.00106471
0.00101645
0.000972177
0.000934536
0.000907602
0.000898421
0.000913549
0.000955953
0.00101283
0.00106569
0.00109272
0.00110102
0.0010888
0.00108702
0.0010692
3.50235e-05
3.06711e-05
2.75388e-05
2.5375e-05
2.45305e-05
2.68252e-05
3.7864e-05
6.82928e-05
0.000124799
0.000199683
0.000279448
0.000356456
0.00042889
0.000496624
0.000559195
0.000615802
0.000665866
0.00070945
0.000747214
0.000779965
0.000808609
0.000834849
0.000862635
0.000898182
0.000947379
0.00101083
0.00108285
0.00115678
0.00122784
0.00129284
0.00134954
0.00139633
0.00143202
0.00145579
0.00146685
0.00146483
0.00145198
0.00143
0.00140024
0.0013639
0.00132214
0.00127602
0.00122667
0.00117521
0.00112292
0.00107104
0.00102116
0.000974913
0.000934852
0.000905034
0.000892756
0.000905691
0.000948742
0.00101045
0.00107087
0.00110494
0.00111797
0.00110748
0.00110522
0.00108459
3.5007e-05
3.06662e-05
2.75431e-05
2.53542e-05
2.43387e-05
2.59242e-05
3.46821e-05
6.02496e-05
0.000111195
0.000183268
0.000263459
0.000342405
0.000416986
0.000486753
0.000551364
0.000610172
0.000662648
0.000708814
0.000749268
0.000784784
0.0008162
0.000844986
0.000874718
0.000911345
0.000961039
0.00102519
0.00109845
0.00117376
0.0012459
0.00131156
0.00136856
0.00141538
0.00145087
0.00147426
0.00148467
0.00148187
0.00146809
0.00144505
0.00141413
0.00137661
0.00133364
0.00128634
0.00123583
0.00118321
0.00112973
0.00107658
0.0010252
0.000977135
0.000934803
0.000902184
0.000886711
0.000897032
0.000940062
0.00100613
0.00107415
0.00111567
0.00113374
0.00112516
0.00112236
0.00109895
3.49919e-05
3.06624e-05
2.75492e-05
2.53419e-05
2.41891e-05
2.52016e-05
3.20656e-05
5.32312e-05
9.83286e-05
0.000166564
0.000246296
0.000326816
0.000403505
0.000475332
0.000541966
0.000602906
0.000657701
0.000706362
0.000749441
0.000787687
0.000821883
0.000853304
0.000885118
0.000922934
0.000973071
0.0010377
0.001112
0.00118861
0.00126185
0.00132822
0.00138555
0.0014324
0.00146771
0.00149071
0.00150051
0.00149701
0.00148238
0.00145836
0.00142641
0.0013878
0.00134375
0.00129537
0.00124381
0.00119015
0.0011356
0.00108128
0.00102854
0.000978805
0.000934361
0.000899059
0.000880349
0.000887689
0.000930013
0.000999883
0.00107547
0.0011248
0.00114828
0.0011418
0.00113846
0.00111231
3.4978e-05
3.06596e-05
2.75568e-05
2.53366e-05
2.40741e-05
2.4625e-05
2.99332e-05
4.72138e-05
8.64166e-05
0.000149908
0.000228183
0.000309748
0.000388413
0.000462313
0.000530969
0.000593986
0.000651012
0.000702075
0.000747698
0.000788618
0.000825582
0.000859693
0.000893711
0.000932841
0.000983409
0.00104831
0.00112342
0.00120124
0.00127559
0.0013427
0.0014004
0.00144732
0.00148245
0.00150511
0.00151434
0.00151021
0.00149482
0.00146993
0.00143703
0.00139746
0.00135243
0.00130309
0.00125059
0.00119599
0.00114047
0.00108509
0.00103112
0.000979873
0.000933485
0.000895641
0.000873705
0.000877759
0.000918692
0.000991696
0.00107472
0.00113221
0.00116148
0.00115734
0.00115353
0.00112472
3.49653e-05
3.06577e-05
2.75658e-05
2.53371e-05
2.3987e-05
2.41671e-05
2.82084e-05
4.21367e-05
7.5617e-05
0.000133634
0.000209396
0.000291314
0.000371707
0.000447649
0.000518331
0.000583389
0.000642567
0.000695935
0.000744009
0.000787527
0.000827221
0.000864053
0.000900377
0.000940951
0.000991977
0.00105698
0.00113265
0.00121153
0.00128698
0.0013549
0.00141303
0.00146004
0.00149505
0.0015174
0.00152611
0.00152142
0.00150536
0.0014797
0.00144598
0.00140554
0.00135965
0.00130946
0.00125611
0.00120069
0.0011443
0.00108798
0.0010329
0.00098028
0.00093212
0.000891898
0.000866794
0.000867324
0.000906196
0.00098158
0.00107179
0.00113775
0.00117323
0.00117173
0.00116754
0.0011362
3.49537e-05
3.06566e-05
2.75759e-05
2.53423e-05
2.39226e-05
2.38054e-05
2.68222e-05
3.79136e-05
6.60237e-05
0.000118059
0.000190254
0.000271685
0.00035342
0.000431308
0.000504009
0.000571083
0.000632348
0.000687927
0.000738351
0.000784375
0.000826735
0.00086629
0.000905
0.000947149
0.000998694
0.00106367
0.00113964
0.00121941
0.00129593
0.00136469
0.00142331
0.00147049
0.00150541
0.0015275
0.00153577
0.0015306
0.00151396
0.00148764
0.00145319
0.00141201
0.00136537
0.00131443
0.00126035
0.00120419
0.00114703
0.00108987
0.0010338
0.000979966
0.000930206
0.000887782
0.00085961
0.000856444
0.000892619
0.000969552
0.0010666
0.00114129
0.0011834
0.00118487
0.00118048
0.00114676
3.4943e-05
3.06562e-05
2.75869e-05
2.53513e-05
2.38768e-05
2.35216e-05
2.57145e-05
3.44445e-05
5.76674e-05
0.00010346
0.000171108
0.000251093
0.000333633
0.000413281
0.000487964
0.000557034
0.000620331
0.000678033
0.000730704
0.000779129
0.000824071
0.000866318
0.000907472
0.000951317
0.00100347
0.00106833
0.00114437
0.00122481
0.00130232
0.00137197
0.00143114
0.00147857
0.00151347
0.00153536
0.00154325
0.00153769
0.00152057
0.0014937
0.00145864
0.00141682
0.00136953
0.00131796
0.00126324
0.00120644
0.00114861
0.00109071
0.00103378
0.000978864
0.000927675
0.000883236
0.000852133
0.000845168
0.000878058
0.00095564
0.00105903
0.00114266
0.00119185
0.00119668
0.0011923
0.0011564
3.49333e-05
3.06565e-05
2.75986e-05
2.53634e-05
2.38458e-05
2.33005e-05
2.48337e-05
3.16252e-05
5.05227e-05
9.00609e-05
0.000152319
0.000229823
0.000312479
0.000393589
0.000470169
0.000541208
0.000606492
0.000666238
0.000721051
0.000771764
0.000819184
0.000864062
0.000907691
0.000953342
0.00100621
0.0010709
0.00114679
0.00122767
0.00130606
0.0013766
0.00143642
0.00148416
0.00151914
0.0015409
0.0015485
0.00154263
0.00152515
0.00149783
0.00146227
0.00141993
0.0013721
0.00131999
0.00126474
0.00120739
0.00114899
0.00109045
0.00103276
0.000976909
0.000924458
0.000878196
0.000844327
0.000833526
0.000862604
0.000939887
0.00104899
0.00114171
0.00119844
0.00120706
0.00120296
0.00116512
3.49245e-05
3.06574e-05
2.76109e-05
2.5378e-05
2.3827e-05
2.31299e-05
2.41367e-05
2.93549e-05
4.45186e-05
7.80205e-05
0.000134242
0.000208209
0.000290153
0.000372294
0.000450614
0.000523574
0.000590802
0.000652523
0.00070938
0.000762261
0.000812039
0.000859452
0.000905569
0.000953116
0.00100682
0.00107135
0.00114689
0.00122796
0.00130709
0.00137851
0.00143902
0.00148718
0.00152231
0.00154404
0.00155143
0.00154537
0.00152762
0.00149997
0.00146403
0.00142127
0.00137302
0.00132047
0.00126478
0.00120699
0.0011481
0.00108903
0.0010307
0.000974034
0.000920485
0.000872594
0.000836148
0.000821538
0.000846353
0.000922356
0.00103641
0.00113825
0.00120299
0.00121588
0.0012124
0.0011729
3.49164e-05
3.06588e-05
2.76237e-05
2.53945e-05
2.38178e-05
2.3e-05
2.35878e-05
2.75406e-05
3.95513e-05
6.74247e-05
0.000117203
0.000186623
0.000266906
0.000349507
0.000429317
0.000504109
0.000573237
0.00063687
0.000695676
0.000750607
0.000802612
0.000852448
0.000901025
0.000950537
0.00100519
0.0010696
0.00114465
0.00122566
0.00130534
0.00137759
0.00143885
0.00148752
0.00152291
0.00154468
0.00155198
0.00154582
0.00152793
0.00150006
0.00146386
0.0014208
0.00137222
0.00131935
0.00126332
0.00120516
0.00114589
0.00108637
0.00102751
0.000970172
0.000915683
0.000866357
0.000827541
0.000809207
0.000829392
0.000903128
0.00102123
0.00113213
0.00120533
0.00122303
0.00122054
0.00117971
3.49091e-05
3.06606e-05
2.76369e-05
2.54126e-05
2.38165e-05
2.29028e-05
2.31578e-05
2.61002e-05
3.54987e-05
5.82889e-05
0.000101479
0.000165455
0.000243048
0.000325395
0.000406332
0.000482809
0.000553772
0.000619257
0.000679928
0.000736792
0.000790886
0.000843021
0.000893992
0.000945513
0.00100125
0.00106561
0.00114005
0.00122076
0.00130079
0.00137378
0.00143582
0.00148507
0.00152082
0.00154274
0.00155006
0.00154393
0.001526
0.00149804
0.00146169
0.00141845
0.00136966
0.00131656
0.00126028
0.00120187
0.0011423
0.00108244
0.00102315
0.000965257
0.000909982
0.000859413
0.000818448
0.000796527
0.000811808
0.000882307
0.00100341
0.00112319
0.0012053
0.00122837
0.00122731
0.00118553
3.49024e-05
3.06628e-05
2.76503e-05
2.54318e-05
2.38215e-05
2.28317e-05
2.28229e-05
2.49632e-05
3.22318e-05
5.05645e-05
8.72807e-05
0.000145096
0.000218943
0.000300185
0.000381758
0.000459695
0.000532397
0.000599669
0.000662125
0.000720809
0.000776852
0.000831142
0.000884412
0.000937962
0.000994889
0.0010593
0.00113308
0.00121328
0.00129342
0.00136703
0.00142983
0.00147975
0.00151597
0.00153813
0.00154561
0.00153962
0.00152178
0.00149385
0.00145747
0.00141415
0.00136526
0.00131204
0.00125562
0.00119704
0.00113727
0.00107716
0.00101755
0.000959228
0.000903314
0.000851689
0.000808803
0.00078348
0.000793682
0.000860016
0.000982937
0.00111127
0.0012027
0.00123176
0.00123262
0.0011903
3.48963e-05
3.06654e-05
2.76638e-05
2.5452e-05
2.38314e-05
2.27815e-05
2.25639e-05
2.40702e-05
2.96252e-05
4.41519e-05
7.47396e-05
0.000125914
0.000194994
0.000274166
0.000355747
0.000434821
0.000509115
0.000578095
0.000642256
0.000702655
0.000760506
0.000816798
0.000872236
0.000927811
0.000986029
0.00105061
0.00112372
0.00120322
0.00128324
0.00135731
0.00142085
0.00147149
0.00150827
0.00153077
0.00153853
0.00153281
0.00151519
0.00148741
0.00145113
0.00140786
0.00135898
0.00130574
0.00124927
0.00119062
0.00113074
0.00107048
0.00101066
0.000952022
0.000895611
0.000843114
0.00079854
0.000770038
0.000775084
0.000836397
0.000959847
0.00109624
0.00119735
0.00123306
0.00123639
0.001194
3.48908e-05
3.06682e-05
2.76774e-05
2.54727e-05
2.38453e-05
2.27481e-05
2.23654e-05
2.33723e-05
2.75633e-05
3.89163e-05
6.39038e-05
0.00010823
0.00017163
0.000247691
0.000328512
0.000408283
0.000483953
0.000554532
0.000620317
0.000682329
0.000741851
0.000799983
0.00085744
0.000915001
0.00097459
0.00103947
0.00111195
0.00119061
0.00127027
0.00134462
0.00140882
0.0014602
0.00149764
0.00152057
0.00152875
0.00152343
0.00150616
0.00147866
0.0014426
0.0013995
0.00135074
0.00129759
0.00124118
0.00118255
0.00112267
0.00106235
0.00100241
0.000943581
0.000886811
0.000833618
0.000787591
0.000756166
0.000756076
0.000811607
0.0009342
0.00107797
0.00118907
0.00123211
0.00123851
0.00119656
3.48858e-05
3.06712e-05
2.7691e-05
2.54939e-05
2.38623e-05
2.27281e-05
2.22149e-05
2.28295e-05
2.5944e-05
3.47042e-05
5.47414e-05
9.22914e-05
0.00014928
0.000221167
0.000300329
0.000380227
0.000456971
0.000528997
0.000596308
0.000659833
0.000720894
0.000780701
0.000840026
0.000899486
0.000960504
0.00102583
0.00109774
0.00117547
0.00125455
0.00132898
0.00139374
0.00144586
0.00148401
0.00150748
0.00151622
0.00151142
0.00149463
0.00146754
0.00143183
0.00138901
0.0013405
0.00128754
0.0012313
0.00117279
0.00111299
0.00105272
0.00099277
0.00093385
0.000876854
0.000823135
0.000775887
0.00074182
0.000736709
0.00078582
0.000906102
0.00105638
0.00117768
0.00122875
0.00123888
0.00119793
3.48813e-05
3.06744e-05
2.77046e-05
2.55152e-05
2.38817e-05
2.27187e-05
2.21026e-05
2.24096e-05
2.468e-05
3.13582e-05
4.71515e-05
7.82607e-05
0.000128353
0.000195045
0.000271544
0.000350862
0.00042827
0.000501528
0.000570243
0.000635176
0.000697647
0.000758965
0.000819991
0.000881232
0.000943712
0.00100961
0.00108106
0.00115782
0.00123614
0.00131043
0.00137561
0.00142844
0.00146735
0.00149145
0.00150085
0.00149672
0.00148053
0.00145399
0.00141875
0.00137635
0.00132819
0.00127554
0.00121956
0.00116128
0.00110166
0.00104153
0.000981674
0.000922778
0.000865682
0.000811602