/*--------------------------------*- C++ -*----------------------------------*\
| =========                 |                                                 |
| \\      /  F ield         | OpenFOAM: The Open Source CFD Toolbox           |
|  \\    /   O peration     | Version:  2.4.0                                 |
|   \\  /    A nd           | Web:      www.OpenFOAM.org                      |
|    \\/     M anipulation  |                                                 |
\*---------------------------------------------------------------------------*/
FoamFile
{
    version     2.0;
    format      ascii;
    class       surfaceScalarField;
    location    "395";
    object      phi;
}
// * * * * * * * * * * * * * * * * * * * * * * * * * * * * * * * * * * * * * //

dimensions      [0 3 -1 0 0 0 0];

internalField   nonuniform List<scalar> 
11840
(
4.2667e-06
5.73331e-06
1.63224e-06
2.63448e-06
-2.03796e-07
1.83607e-06
-1.04499e-06
8.41259e-07
-1.18023e-06
1.35298e-07
-1.24694e-06
6.67634e-08
-1.31801e-06
7.11148e-08
-1.39464e-06
7.66807e-08
-1.47904e-06
8.44337e-08
-1.5709e-06
9.1905e-08
-1.67118e-06
1.00301e-07
-1.77889e-06
1.07745e-07
-1.89426e-06
1.15391e-07
-2.01506e-06
1.20833e-07
-2.13667e-06
1.21622e-07
-2.25077e-06
1.14124e-07
-2.34709e-06
9.6315e-08
-2.41494e-06
6.78703e-08
-2.44664e-06
3.16776e-08
-2.44044e-06
-6.17781e-09
-2.40284e-06
-3.76334e-08
-2.34999e-06
-5.28459e-08
-2.30838e-06
-4.16602e-08
-2.3087e-06
3.1861e-10
-2.37761e-06
6.88521e-08
-2.52939e-06
1.51771e-07
-2.7654e-06
2.35957e-07
-3.07142e-06
3.06008e-07
-3.42292e-06
3.51457e-07
-3.79496e-06
3.72018e-07
-4.16365e-06
3.68643e-07
-4.50353e-06
3.39856e-07
-4.79249e-06
2.88909e-07
-5.01335e-06
2.20825e-07
-5.15379e-06
1.40393e-07
-5.20543e-06
5.15907e-08
-5.16575e-06
-3.97148e-08
-5.03598e-06
-1.29816e-07
-4.82006e-06
-2.1594e-07
-4.52308e-06
-2.9703e-07
-4.152e-06
-3.71088e-07
-3.71216e-06
-4.39891e-07
-3.21251e-06
-4.99648e-07
-2.65511e-06
-5.57458e-07
-2.0521e-06
-6.02999e-07
-1.39497e-06
-6.57179e-07
-6.89576e-07
-7.05358e-07
9.76151e-08
-7.87231e-07
8.49827e-07
-7.5216e-07
1.57115e-06
-7.21346e-07
2.21726e-06
-6.46038e-07
2.92334e-06
-7.061e-07
3.47862e-06
-5.55207e-07
4.21231e-06
-7.33687e-07
4.58455e-06
-3.72158e-07
5.45542e-06
-8.70851e-07
5.40635e-06
4.91493e-08
6.73915e-06
-1.33283e-06
5.88664e-06
8.52305e-07
-2.97166e-06
5.42179e-06
1.03115e-05
2.65447e-06
5.40182e-06
3.72497e-07
4.11806e-06
-8.97598e-07
2.11139e-06
-1.23304e-06
4.70776e-07
-1.35004e-06
1.83786e-07
-1.43891e-06
1.60011e-07
-1.52573e-06
1.63519e-07
-1.61574e-06
1.74463e-07
-1.71192e-06
1.88105e-07
-1.81562e-06
2.04017e-07
-1.92706e-06
2.19196e-07
-2.04632e-06
2.34657e-07
-2.17107e-06
2.45596e-07
-2.29579e-06
2.46339e-07
-2.41146e-06
2.29801e-07
-2.50717e-06
1.92023e-07
-2.57225e-06
1.32947e-07
-2.59935e-06
5.87647e-08
-2.58774e-06
-1.77891e-08
-2.54607e-06
-7.93347e-08
-2.49333e-06
-1.05594e-07
-2.45771e-06
-7.7306e-08
-2.47027e-06
1.28665e-08
-2.55686e-06
1.55409e-07
-2.73041e-06
3.25314e-07
-2.98885e-06
4.94379e-07
-3.31611e-06
6.33258e-07
-3.68746e-06
7.22797e-07
-4.075e-06
7.59558e-07
-4.45094e-06
7.44564e-07
-4.78958e-06
6.785e-07
-5.06944e-06
5.68757e-07
-5.27409e-06
4.2547e-07
-5.39185e-06
2.58143e-07
-5.41531e-06
7.5044e-08
-5.34299e-06
-1.12042e-07
-5.17775e-06
-2.95065e-07
-4.92447e-06
-4.6922e-07
-4.58906e-06
-6.32464e-07
-4.17842e-06
-7.81724e-07
-3.69914e-06
-9.19183e-07
-3.15865e-06
-1.04014e-06
-2.56222e-06
-1.15391e-06
-1.91582e-06
-1.24939e-06
-1.22066e-06
-1.35236e-06
-4.60924e-07
-1.46508e-06
3.44697e-07
-1.59287e-06
1.12321e-06
-1.53066e-06
1.86735e-06
-1.4655e-06
2.58252e-06
-1.36119e-06
3.29547e-06
-1.41907e-06
3.95941e-06
-1.21912e-06
4.6526e-06
-1.42688e-06
5.22648e-06
-9.46002e-07
5.92649e-06
-1.57086e-06
6.29485e-06
-3.19174e-07
7.12037e-06
-2.15836e-06
7.13502e-06
8.37521e-07
-4.59935e-06
6.10565e-06
1.42059e-05
3.46207e-06
8.04541e-06
1.09707e-06
6.48307e-06
-4.95392e-07
3.70388e-06
-1.11275e-06
1.08816e-06
-1.29832e-06
3.69378e-07
-1.41134e-06
2.73038e-07
-1.50991e-06
2.62112e-07
-1.60591e-06
2.70468e-07
-1.70516e-06
2.87368e-07
-1.81e-06
3.08862e-07
-1.92147e-06
3.30683e-07
-2.04e-06
3.53188e-07
-2.1635e-06
3.69115e-07
-2.28647e-06
3.69306e-07
-2.39994e-06
3.43287e-07
-2.49315e-06
2.85242e-07
-2.55582e-06
1.95622e-07
-2.58117e-06
8.41172e-08
-2.56928e-06
-2.96665e-08
-2.52969e-06
-1.18933e-07
-2.48216e-06
-1.53119e-07
-2.45503e-06
-1.04441e-07
-2.47901e-06
3.68511e-08
-2.57873e-06
2.55108e-07
-2.76522e-06
5.11804e-07
-3.03423e-06
7.63373e-07
-3.36839e-06
9.67418e-07
-3.74247e-06
1.09685e-06
-4.12798e-06
1.14506e-06
-4.49697e-06
1.11353e-06
-4.82459e-06
1.0061e-06
-5.09041e-06
8.34558e-07
-5.27901e-06
6.14044e-07
-5.37945e-06
3.58564e-07
-5.38513e-06
8.07014e-08
-5.29525e-06
-2.01938e-07
-5.11313e-06
-4.77208e-07
-4.84371e-06
-7.38651e-07
-4.49305e-06
-9.8315e-07
-4.06793e-06
-1.20685e-06
-3.57514e-06
-1.412e-06
-3.02147e-06
-1.59381e-06
-2.41278e-06
-1.76263e-06
-1.75315e-06
-1.90902e-06
-1.04483e-06
-2.06069e-06
-2.7056e-07
-2.23934e-06
5.32297e-07
-2.39574e-06
1.30978e-06
-2.30812e-06
2.06102e-06
-2.21674e-06
2.7942e-06
-2.09434e-06
3.5114e-06
-2.13628e-06
4.20441e-06
-1.9121e-06
4.88687e-06
-2.10934e-06
5.51679e-06
-1.57589e-06
6.15872e-06
-2.21278e-06
6.65904e-06
-8.19475e-07
7.29478e-06
-2.7941e-06
7.63372e-06
4.98532e-07
-5.62497e-06
6.57915e-06
1.76267e-05
4.10649e-06
1.05181e-05
1.81498e-06
8.7746e-06
6.03342e-09
5.51285e-06
-9.14411e-07
2.00862e-06
-1.20056e-06
6.55545e-07
-1.34585e-06
4.18339e-07
-1.45891e-06
3.75184e-07
-1.56215e-06
3.73716e-07
-1.66492e-06
3.90149e-07
-1.77096e-06
4.14903e-07
-1.88217e-06
4.41904e-07
-1.99948e-06
4.70498e-07
-2.12124e-06
4.90879e-07
-2.24218e-06
4.90247e-07
-2.3536e-06
4.54713e-07
-2.44496e-06
3.76592e-07
-2.50624e-06
2.569e-07
-2.531e-06
1.08875e-07
-2.51976e-06
-4.09073e-08
-2.48254e-06
-1.56176e-07
-2.43947e-06
-1.96188e-07
-2.41891e-06
-1.25024e-07
-2.45114e-06
6.90798e-08
-2.55973e-06
3.63687e-07
-2.7541e-06
7.06165e-07
-3.02835e-06
1.03761e-06
-3.36416e-06
1.30323e-06
-3.736e-06
1.46868e-06
-4.11546e-06
1.52452e-06
-4.47508e-06
1.47314e-06
-4.79091e-06
1.32193e-06
-5.04348e-06
1.08712e-06
-5.21814e-06
7.88699e-07
-5.30454e-06
4.44966e-07
-5.29662e-06
7.27739e-08
-5.19402e-06
-3.04543e-07
-5.00025e-06
-6.70975e-07
-4.72028e-06
-1.01862e-06
-4.36018e-06
-1.34326e-06
-3.92663e-06
-1.6404e-06
-3.42639e-06
-1.91225e-06
-2.86589e-06
-2.1543e-06
-2.25101e-06
-2.37752e-06
-1.58486e-06
-2.57516e-06
-8.689e-07
-2.77666e-06
-9.06026e-08
-3.01763e-06
7.04167e-07
-3.19052e-06
1.47598e-06
-3.07993e-06
2.22904e-06
-2.96981e-06
2.96826e-06
-2.83355e-06
3.68731e-06
-2.85533e-06
4.39015e-06
-2.61494e-06
5.06786e-06
-2.78705e-06
5.71573e-06
-2.22375e-06
6.33119e-06
-2.82823e-06
6.87745e-06
-1.36572e-06
7.42582e-06
-3.34247e-06
7.89301e-06
3.12875e-08
-6.35806e-06
6.93642e-06
2.06903e-05
4.64424e-06
1.28103e-05
2.47363e-06
1.09452e-05
5.61162e-07
7.42533e-06
-6.22861e-07
3.19266e-06
-1.06545e-06
1.09815e-06
-1.25643e-06
6.09327e-07
-1.38864e-06
5.07409e-07
-1.50132e-06
4.86404e-07
-1.60874e-06
4.9757e-07
-1.71658e-06
5.22755e-07
-1.82783e-06
5.53157e-07
-1.94405e-06
5.86727e-07
-2.06415e-06
6.10991e-07
-2.18327e-06
6.09371e-07
-2.29303e-06
5.64478e-07
-2.3831e-06
4.66672e-07
-2.44368e-06
3.17489e-07
-2.46848e-06
1.33677e-07
-2.45819e-06
-5.1186e-08
-2.42306e-06
-1.91311e-07
-2.38343e-06
-2.35809e-07
-2.36759e-06
-1.40873e-07
-2.40549e-06
1.0699e-07
-2.5198e-06
4.77986e-07
-2.71853e-06
9.049e-07
-2.99451e-06
1.31357e-06
-3.32872e-06
1.63744e-06
-3.69553e-06
1.83547e-06
-4.06686e-06
1.89584e-06
-4.41591e-06
1.82218e-06
-4.71961e-06
1.62562e-06
-4.95929e-06
1.32678e-06
-5.12096e-06
9.5035e-07
-5.19474e-06
5.18732e-07
-5.17502e-06
5.30298e-08
-5.06178e-06
-4.17797e-07
-4.85866e-06
-8.74111e-07
-4.57061e-06
-1.30668e-06
-4.20368e-06
-1.71021e-06
-3.76445e-06
-2.07964e-06
-3.25959e-06
-2.41713e-06
-2.69526e-06
-2.71862e-06
-2.07717e-06
-2.99563e-06
-1.40772e-06
-3.2446e-06
-6.86903e-07
-3.49749e-06
8.9006e-08
-3.79353e-06
8.7217e-07
-3.97369e-06
1.63711e-06
-3.84484e-06
2.38896e-06
-3.72166e-06
3.12936e-06
-3.57393e-06
3.84809e-06
-3.57407e-06
4.55373e-06
-3.32055e-06
5.22728e-06
-3.46059e-06
5.88002e-06
-2.87647e-06
6.47908e-06
-3.42729e-06
7.04101e-06
-1.92765e-06
7.54187e-06
-3.84333e-06
8.05778e-06
-4.8464e-07
-6.93224e-06
7.22842e-06
2.34619e-05
5.1074e-06
1.49313e-05
3.07373e-06
1.29789e-05
1.14462e-06
9.35446e-06
-2.51383e-07
4.58868e-06
-8.87875e-07
1.73466e-06
-1.14367e-06
8.6513e-07
-1.3016e-06
6.65352e-07
-1.42678e-06
6.11593e-07
-1.54046e-06
6.11257e-07
-1.65106e-06
6.33354e-07
-1.76288e-06
6.64982e-07
-1.87834e-06
7.02192e-07
-1.99701e-06
7.29672e-07
-2.11456e-06
7.2692e-07
-2.223e-06
6.72918e-07
-2.31227e-06
5.55937e-07
-2.37269e-06
3.77912e-07
-2.39802e-06
1.58993e-07
-2.38892e-06
-6.0287e-08
-2.35565e-06
-2.24596e-07
-2.31857e-06
-2.72889e-07
-2.30587e-06
-1.53588e-07
-2.34724e-06
1.48361e-07
-2.46463e-06
5.95355e-07
-2.66488e-06
1.10515e-06
-2.9398e-06
1.58848e-06
-3.26988e-06
1.96753e-06
-3.62953e-06
2.19512e-06
-3.99114e-06
2.25745e-06
-4.32865e-06
2.15968e-06
-4.61976e-06
1.91674e-06
-4.84656e-06
1.55358e-06
-4.99563e-06
1.09942e-06
-5.05749e-06
5.80589e-07
-5.02694e-06
2.2476e-08
-4.90428e-06
-5.40457e-07
-4.69319e-06
-1.08521e-06
-4.39859e-06
-1.60128e-06
-4.02652e-06
-2.08229e-06
-3.58343e-06
-2.52272e-06
-3.07591e-06
-2.92467e-06
-2.50983e-06
-3.28469e-06
-1.89069e-06
-3.61479e-06
-1.22021e-06
-3.91508e-06
-4.97177e-07
-4.22054e-06
2.71466e-07
-4.56216e-06
1.04057e-06
-4.74281e-06
1.79791e-06
-4.60217e-06
2.54629e-06
-4.47005e-06
3.28499e-06
-4.31261e-06
4.00156e-06
-4.29065e-06
4.70635e-06
-4.02533e-06
5.37505e-06
-4.1293e-06
6.02682e-06
-3.52822e-06
6.61289e-06
-4.01336e-06
7.17802e-06
-2.49277e-06
7.64739e-06
-4.3127e-06
8.17892e-06
-1.01621e-06
-7.40604e-06
7.47967e-06
2.59822e-05
5.51533e-06
1.68956e-05
3.62073e-06
1.48735e-05
1.73106e-06
1.12441e-05
1.83158e-07
6.1366e-06
-6.57696e-07
2.57553e-06
-1.00492e-06
1.21237e-06
-1.19727e-06
8.57707e-07
-1.33889e-06
7.53225e-07
-1.46094e-06
7.33308e-07
-1.5755e-06
7.47922e-07
-1.68862e-06
7.78114e-07
-1.80376e-06
8.17337e-07
-1.9213e-06
8.47217e-07
-2.03753e-06
8.43158e-07
-2.14496e-06
7.80357e-07
-2.23383e-06
6.4481e-07
-2.29457e-06
4.38668e-07
-2.32089e-06
1.85307e-07
-2.31325e-06
-6.79114e-08
-2.28171e-06
-2.56136e-07
-2.24646e-06
-3.08127e-07
-2.23551e-06
-1.6454e-07
-2.27838e-06
1.91239e-07
-2.39648e-06
7.13442e-07
-2.59574e-06
1.30442e-06
-2.86717e-06
1.8599e-06
-3.19095e-06
2.2913e-06
-3.54164e-06
2.54579e-06
-3.89217e-06
2.60797e-06
-4.21719e-06
2.48468e-06
-4.49521e-06
2.19473e-06
-4.70895e-06
1.7673e-06
-4.84556e-06
1.23601e-06
-4.89586e-06
6.30866e-07
-4.8551e-06
-1.83026e-08
-4.72387e-06
-6.71706e-07
-4.5058e-06
-1.3033e-06
-4.20582e-06
-1.90127e-06
-3.82992e-06
-2.45821e-06
-3.38444e-06
-2.9682e-06
-2.87582e-06
-3.4333e-06
-2.30971e-06
-3.8508e-06
-1.6913e-06
-4.23322e-06
-1.02168e-06
-4.58469e-06
-2.99649e-07
-4.94258e-06
4.57967e-07
-5.31977e-06
1.21165e-06
-5.4965e-06
1.96036e-06
-5.35087e-06
2.70336e-06
-5.21305e-06
3.43819e-06
-5.04743e-06
4.15098e-06
-5.00344e-06
4.85252e-06
-4.72686e-06
5.5154e-06
-4.79217e-06
6.16293e-06
-4.17574e-06
6.73721e-06
-4.58764e-06
7.29939e-06
-3.05494e-06
7.74487e-06
-4.75817e-06
8.27647e-06
-1.54782e-06
-7.80827e-06
7.70204e-06
2.82802e-05
5.88046e-06
1.87172e-05
4.12082e-06
1.66332e-05
2.30038e-06
1.30646e-05
6.63214e-07
7.77378e-06
-3.66806e-07
3.60556e-06
-8.35888e-07
1.68146e-06
-1.07398e-06
1.09581e-06
-1.23697e-06
9.16225e-07
-1.36997e-06
8.66316e-07
-1.49001e-06
8.67962e-07
-1.60534e-06
8.93457e-07
-1.72071e-06
9.32702e-07
-1.83744e-06
9.63952e-07
-1.95261e-06
9.58331e-07
-2.05931e-06
8.87056e-07
-2.14813e-06
7.33629e-07
-2.20964e-06
5.0018e-07
-2.2374e-06
2.13062e-07
-2.23156e-06
-7.37573e-08
-2.20173e-06
-2.8598e-07
-2.16773e-06
-3.42129e-07
-2.1573e-06
-1.74984e-07
-2.19984e-06
2.33784e-07
-2.31646e-06
8.30049e-07
-2.51244e-06
1.5004e-06
-2.7782e-06
2.12564e-06
-3.09371e-06
2.60682e-06
-3.43382e-06
2.8859e-06
-3.77201e-06
2.94616e-06
-4.08368e-06
2.79635e-06
-4.34805e-06
2.4591e-06
-4.5485e-06
1.96775e-06
-4.67266e-06
1.36017e-06
-4.71164e-06
6.69844e-07
-4.66113e-06
-6.8816e-08
-4.52197e-06
-8.1086e-07
-4.29775e-06
-1.52754e-06
-3.99337e-06
-2.20564e-06
-3.61476e-06
-2.83683e-06
-3.16814e-06
-3.41482e-06
-2.6598e-06
-3.94164e-06
-2.09514e-06
-4.41545e-06
-1.47905e-06
-4.84933e-06
-8.11932e-07
-5.2518e-06
-9.45365e-08
-5.65999e-06
6.48878e-07
-6.06317e-06
1.38646e-06
-6.23409e-06
2.12537e-06
-6.08977e-06
2.86124e-06
-5.94893e-06
3.59039e-06
-5.77656e-06
4.29789e-06
-5.71094e-06
4.99435e-06
-5.42331e-06
5.65039e-06
-5.44821e-06
6.29155e-06
-4.81689e-06
6.85439e-06
-5.15048e-06
7.41016e-06
-3.61069e-06
7.83564e-06
-5.18365e-06
8.35938e-06
-2.07158e-06
-8.15535e-06
7.90227e-06
3.03779e-05
6.21137e-06
2.04081e-05
4.57987e-06
1.82647e-05
2.84629e-06
1.47982e-05
1.17287e-06
9.44722e-06
-1.90965e-08
4.79754e-06
-6.30739e-07
2.29312e-06
-9.29317e-07
1.3944e-06
-1.1198e-06
1.10672e-06
-1.26692e-06
1.01344e-06
-1.39425e-06
9.953e-07
-1.51291e-06
1.01212e-06
-1.62916e-06
1.04896e-06
-1.74548e-06
1.08028e-06
-1.85986e-06
1.07272e-06
-1.96607e-06
9.93281e-07
-2.05517e-06
8.22729e-07
-2.11786e-06
5.62878e-07
-2.14753e-06
2.4274e-07
-2.14385e-06
-7.74263e-08
-2.11581e-06
-3.14024e-07
-2.08262e-06
-3.75302e-07
-2.07163e-06
-1.85979e-07
-2.11218e-06
2.7434e-07
-2.22527e-06
9.43139e-07
-2.41583e-06
1.69096e-06
-2.67386e-06
2.38366e-06
-2.97933e-06
2.91229e-06
-3.30736e-06
3.21392e-06
-3.63206e-06
3.27085e-06
-3.92955e-06
3.09381e-06
-4.17973e-06
2.70926e-06
-4.36661e-06
2.15461e-06
-4.47829e-06
1.47184e-06
-4.50616e-06
6.97688e-07
-4.44628e-06
-1.28714e-07
-4.29976e-06
-9.57394e-07
-4.07011e-06
-1.75721e-06
-3.76221e-06
-2.51355e-06
-3.38189e-06
-3.21717e-06
-2.93524e-06
-3.86148e-06
-2.42843e-06
-4.44847e-06
-1.86656e-06
-4.97732e-06
-1.2542e-06
-5.46171e-06
-5.91038e-07
-5.91496e-06
1.17766e-07
-6.3688e-06
8.44175e-07
-6.78957e-06
1.56553e-06
-6.95546e-06
2.29336e-06
-6.81758e-06
3.02047e-06
-6.67604e-06
3.74228e-06
-6.49835e-06
4.44308e-06
-6.41174e-06
5.13293e-06
-6.11314e-06
5.78114e-06
-6.09641e-06
6.4144e-06
-5.45013e-06
6.96578e-06
-5.70186e-06
7.51297e-06
-4.15787e-06
7.92064e-06
-5.59132e-06
8.4322e-06
-2.58316e-06
-8.45739e-06
8.08482e-06
3.22931e-05
6.51425e-06
2.19787e-05
5.00307e-06
1.97759e-05
3.36587e-06
1.64354e-05
1.69394e-06
1.11192e-05
3.7698e-07
6.11452e-06
-3.8131e-07
3.05142e-06
-7.60152e-07
1.77325e-06
-9.85807e-07
1.33238e-06
-1.15086e-06
1.1785e-06
-1.28767e-06
1.13211e-06
-1.41096e-06
1.13542e-06
-1.52889e-06
1.16689e-06
-1.64527e-06
1.19666e-06
-1.75914e-06
1.18659e-06
-1.86512e-06
1.09926e-06
-1.95477e-06
9.12382e-07
-2.01902e-06
6.27125e-07
-2.05107e-06
2.7478e-07
-2.04997e-06
-7.85269e-08
-2.02388e-06
-3.40115e-07
-1.99123e-06
-4.0796e-07
-1.97876e-06
-1.98462e-07
-2.01577e-06
3.11355e-07
-2.12342e-06
1.05078e-06
-2.30653e-06
1.87406e-06
-2.55494e-06
2.63207e-06
-2.84868e-06
3.20603e-06
-3.16327e-06
3.5285e-06
-3.47341e-06
3.58099e-06
-3.75594e-06
3.37633e-06
-3.99143e-06
2.94476e-06
-4.16449e-06
2.32766e-06
-4.26367e-06
1.57102e-06
-4.2806e-06
7.14613e-07
-4.21171e-06
-1.97602e-07
-4.05836e-06
-1.11075e-06
-3.82395e-06
-1.99163e-06
-3.51333e-06
-2.82417e-06
-3.13222e-06
-3.59829e-06
-2.68656e-06
-4.30713e-06
-2.18238e-06
-4.95267e-06
-1.62451e-06
-5.53518e-06
-1.01715e-06
-6.06909e-06
-3.59722e-07
-6.57238e-06
3.36763e-07
-7.0653e-06
1.04411e-06
-7.49691e-06
1.74915e-06
-7.6605e-06
2.46458e-06
-7.533e-06
3.18133e-06
-7.3928e-06
3.89426e-06
-7.21126e-06
4.58699e-06
-7.10448e-06
5.26888e-06
-6.79502e-06
5.90832e-06
-6.73585e-06
6.53248e-06
-6.07428e-06
7.07222e-06
-6.2416e-06
7.60942e-06
-4.69506e-06
8.00056e-06
-5.98245e-06
8.49754e-06
-3.08016e-06
-8.72142e-06
8.25277e-06
3.40404e-05
6.7937e-06
2.34378e-05
5.39486e-06
2.11747e-05
3.85821e-06
1.79721e-05
2.21607e-06
1.27613e-05
8.12e-07
7.51861e-06
-8.63864e-08
3.94981e-06
-5.62543e-07
2.24942e-06
-8.3302e-07
1.60287e-06
-1.02062e-06
1.3661e-06
-1.1695e-06
1.281e-06
-1.29901e-06
1.26494e-06
-1.41958e-06
1.28747e-06
-1.53657e-06
1.31366e-06
-1.65026e-06
1.30029e-06
-1.75623e-06
1.20524e-06
-1.84671e-06
1.00286e-06
-1.91286e-06
6.93291e-07
-1.94773e-06
3.09652e-07
-1.94965e-06
-7.65896e-08
-1.9258e-06
-3.63965e-07
-1.89353e-06
-4.40216e-07
-1.87885e-06
-2.13153e-07
-1.91096e-06
3.43477e-07
-2.01136e-06
1.15118e-06
-2.18511e-06
2.04781e-06
-2.42211e-06
2.86905e-06
-2.70256e-06
3.48648e-06
-3.00242e-06
3.82835e-06
-3.29702e-06
3.87558e-06
-3.56388e-06
3.64317e-06
-3.78423e-06
3.1651e-06
-3.94324e-06
2.48664e-06
-4.02992e-06
1.65768e-06
-4.0361e-06
7.20774e-07
-3.95857e-06
-2.75154e-07
-3.79888e-06
-1.27046e-06
-3.56036e-06
-2.23017e-06
-3.24777e-06
-3.13678e-06
-2.86671e-06
-3.97936e-06
-2.42298e-06
-4.75086e-06
-1.92243e-06
-5.45324e-06
-1.36965e-06
-6.08797e-06
-7.68399e-07
-6.67035e-06
-1.19125e-07
-7.22165e-06
5.61905e-07
-7.74634e-06
1.24914e-06
-8.18413e-06
1.93745e-06
-8.34883e-06
2.63914e-06
-8.23467e-06
3.34402e-06
-8.09767e-06
4.04655e-06
-7.91377e-06
4.72992e-06
-7.78784e-06
5.40262e-06
-7.46771e-06
6.03238e-06
-7.36561e-06
6.64647e-06
-6.68835e-06
7.17433e-06
-6.76945e-06
7.70053e-06
-5.22126e-06
8.07597e-06
-6.35788e-06
8.55707e-06
-3.56126e-06
-8.95238e-06
8.40834e-06
3.5632e-05
7.05318e-06
2.4793e-05
5.75902e-06
2.24689e-05
4.32356e-06
1.94076e-05
2.732e-06
1.43529e-05
1.27447e-06
8.97615e-06
2.51708e-07
4.97259e-06
-3.31395e-07
2.83253e-06
-6.59056e-07
1.93054e-06
-8.74825e-07
1.58188e-06
-1.03886e-06
1.44504e-06
-1.17645e-06
1.40253e-06
-1.30079e-06
1.41182e-06
-1.41906e-06
1.43193e-06
-1.53295e-06
1.41418e-06
-1.63917e-06
1.31145e-06
-1.7307e-06
1.0944e-06
-1.79909e-06
7.61677e-07
-1.83721e-06
3.47763e-07
-1.84262e-06
-7.11731e-08
-1.82134e-06
-3.85256e-07
-1.78947e-06
-4.72087e-07
-1.77201e-06
-2.30621e-07
-1.79803e-06
3.69495e-07
-1.88954e-06
1.24268e-06
-2.05213e-06
2.2104e-06
-2.27601e-06
3.09292e-06
-2.5417e-06
3.75218e-06
-2.82565e-06
4.11229e-06
-3.1038e-06
4.15373e-06
-3.35436e-06
3.89372e-06
-3.55917e-06
3.36991e-06
-3.70396e-06
2.63142e-06
-3.77816e-06
1.73188e-06
-3.77381e-06
7.1642e-07
-3.688e-06
-3.60963e-07
-3.52249e-06
-1.43597e-06
-3.28048e-06
-2.47219e-06
-2.96662e-06
-3.45064e-06
-2.58641e-06
-4.35959e-06
-2.14545e-06
-5.19182e-06
-1.64944e-06
-5.94926e-06
-1.10269e-06
-6.63471e-06
-5.0853e-07
-7.26453e-06
1.29681e-07
-7.85985e-06
7.92602e-07
-8.40927e-06
1.45948e-06
-8.851e-06
2.13052e-06
-9.01988e-06
2.81715e-06
-8.92129e-06
3.50865e-06
-8.78918e-06
4.19935e-06
-8.60445e-06
4.87207e-06
-8.46057e-06
5.53443e-06
-8.13006e-06
6.15368e-06
-7.98486e-06
6.75686e-06
-7.29153e-06
7.27255e-06
-7.28514e-06
7.78705e-06
-5.73575e-06
8.14735e-06
-6.71818e-06
8.61192e-06
-4.02585e-06
-9.15421e-06
8.55317e-06
3.70789e-05
7.29537e-06
2.60508e-05
6.09875e-06
2.36655e-05
4.76286e-06
2.07435e-05
3.2366e-06
1.58792e-05
1.75472e-06
1.04581e-05
6.28435e-07
6.09888e-06
-6.40121e-08
3.52499e-06
-4.6101e-07
2.32754e-06
-7.11847e-07
1.83273e-06
-8.94699e-07
1.6279e-06
-1.04257e-06
1.55041e-06
-1.17205e-06
1.5413e-06
-1.2924e-06
1.55229e-06
-1.40694e-06
1.52873e-06
-1.51366e-06
1.41819e-06
-1.60648e-06
1.18723e-06
-1.67738e-06
8.32588e-07
-1.71915e-06
3.89537e-07
-1.72853e-06
-6.17799e-08
-1.71024e-06
-4.0355e-07
-1.67891e-06
-5.03395e-07
-1.65834e-06
-2.51193e-07
-1.67728e-06
3.88439e-07
-1.75839e-06
1.32378e-06
-1.90814e-06
2.36016e-06
-2.1173e-06
3.30206e-06
-2.36686e-06
4.00174e-06
-2.63379e-06
4.37919e-06
-2.89466e-06
4.41459e-06
-3.12833e-06
4.12738e-06
-3.31727e-06
3.55883e-06
-3.44772e-06
2.76184e-06
-3.5095e-06
1.79364e-06
-3.49486e-06
7.01755e-07
-3.40117e-06
-4.54673e-07
-3.23035e-06
-1.60681e-06
-2.98544e-06
-2.71712e-06
-2.67099e-06
-3.7651e-06
-2.29235e-06
-4.73825e-06
-1.85494e-06
-5.62924e-06
-1.36429e-06
-6.43993e-06
-8.2443e-07
-7.17456e-06
-2.386e-07
-7.85038e-06
3.85667e-07
-8.48411e-06
1.02864e-06
-9.05226e-06
1.67526e-06
-9.4976e-06
2.32839e-06
-9.67301e-06
2.99868e-06
-9.59157e-06
3.67537e-06
-9.46587e-06
4.35281e-06
-9.28186e-06
5.01363e-06
-9.12139e-06
5.66457e-06
-8.78098e-06
6.27249e-06
-8.59277e-06
6.86405e-06
-7.88307e-06
7.36729e-06
-7.78838e-06
7.86955e-06
-6.238e-06
8.21514e-06
-7.06376e-06
8.66298e-06
-4.4737e-06
-9.32988e-06
8.68852e-06
3.83903e-05
7.52238e-06
2.72169e-05
6.41679e-06
2.47711e-05
5.17743e-06
2.19828e-05
3.72639e-06
1.73302e-05
2.24513e-06
1.19393e-05
1.03721e-06
7.30681e-06
2.39522e-07
4.32269e-06
-2.35267e-07
2.80234e-06
-5.29749e-07
2.12722e-06
-7.35812e-07
1.83396e-06
-8.96555e-07
1.71116e-06
-1.03277e-06
1.67752e-06
-1.15617e-06
1.67569e-06
-1.2719e-06
1.64446e-06
-1.37944e-06
1.52572e-06
-1.47376e-06
1.28155e-06
-1.54743e-06
9.06257e-07
-1.59322e-06
4.35321e-07
-1.60704e-06
-4.79634e-08
-1.59219e-06
-4.18405e-07
-1.56171e-06
-5.33878e-07
-1.53788e-06
-2.7503e-07
-1.54897e-06
3.99524e-07
-1.61836e-06
1.39317e-06
-1.75372e-06
2.49552e-06
-1.94666e-06
3.49499e-06
-2.17878e-06
4.23386e-06
-2.42765e-06
4.62806e-06
-2.67048e-06
4.65742e-06
-2.88678e-06
4.34367e-06
-3.05957e-06
3.73162e-06
-3.17559e-06
2.87787e-06
-3.22508e-06
1.84313e-06
-3.20041e-06
6.77085e-07
-3.09925e-06
-5.55842e-07
-2.92361e-06
-1.78245e-06
-2.67639e-06
-2.96435e-06
-2.362e-06
-4.0795e-06
-1.98562e-06
-5.11464e-06
-1.55246e-06
-6.06239e-06
-1.0679e-06
-6.9245e-06
-5.35667e-07
-7.70679e-06
3.99242e-08
-8.42598e-06
6.47838e-07
-9.09202e-06
1.27012e-06
-9.67455e-06
1.89647e-06
-1.01239e-05
2.53102e-06
-1.03076e-05
3.1838e-06
-1.02443e-05
3.8443e-06
-1.01264e-05
4.50709e-06
-9.94465e-06
5.15479e-06
-9.76909e-06
5.79326e-06
-9.41945e-06
6.38907e-06
-9.18859e-06
6.96837e-06
-8.46235e-06
7.45889e-06
-8.2789e-06
7.94853e-06
-6.72764e-06
8.27974e-06
-7.39497e-06
8.71093e-06
-4.9049e-06
-9.48196e-06
8.81537e-06
3.9575e-05
7.7359e-06
2.82964e-05
6.71542e-06
2.57916e-05
5.56875e-06
2.31295e-05
4.1991e-06
1.86999e-05
2.73926e-06
1.33992e-05
1.47185e-06
8.57423e-06
5.77469e-07
5.21709e-06
2.02069e-08
3.35961e-06
-3.26229e-07
2.47366e-06
-5.60785e-07
2.06853e-06
-7.37469e-07
1.88785e-06
-8.82314e-07
1.82237e-06
-1.00991e-06
1.8033e-06
-1.1275e-06
1.76206e-06
-1.23621e-06
1.63444e-06
-1.33226e-06
1.37761e-06
-1.40891e-06
9.82928e-07
-1.45905e-06
4.85465e-07
-1.47776e-06
-2.92419e-08
-1.46688e-06
-4.29282e-07
-1.43764e-06
-5.63101e-07
-1.41063e-06
-3.02045e-07
-1.41333e-06
4.0224e-07
-1.4699e-06
1.44972e-06
-1.58945e-06
2.61508e-06
-1.76476e-06
3.67029e-06
-1.97823e-06
4.44733e-06
-2.20809e-06
4.85789e-06
-2.43219e-06
4.88152e-06
-2.63066e-06
4.54212e-06
-2.78707e-06
3.88801e-06
-2.88865e-06
2.97943e-06
-2.92597e-06
1.88043e-06
-2.89158e-06
6.42672e-07
-2.78337e-06
-6.64079e-07
-2.60344e-06
-1.9624e-06
-2.35448e-06
-3.21333e-06
-2.04075e-06
-4.39323e-06
-1.66727e-06
-5.48815e-06
-1.23903e-06
-6.49063e-06
-7.61206e-07
-7.40235e-06
-2.3733e-07
-8.23066e-06
3.25658e-07
-8.98899e-06
9.15312e-07
-9.68167e-06
1.51698e-06
-1.02762e-05
2.12303e-06
-1.073e-05
2.73839e-06
-1.09229e-05
3.37254e-06
-1.08785e-05
4.01555e-06
-1.07694e-05
4.66237e-06
-1.05914e-05
5.29573e-06
-1.04025e-05
5.92073e-06
-1.00444e-05
6.50369e-06
-9.77155e-06
7.07013e-06
-9.02877e-06
7.54767e-06
-8.75644e-06
8.02441e-06
-7.20437e-06
8.34155e-06
-7.71211e-06
8.75635e-06
-5.3197e-06
-9.61245e-06
8.93453e-06
4.06405e-05
7.9373e-06
2.92936e-05
6.99662e-06
2.67323e-05
5.93838e-06
2.41878e-05
4.65342e-06
1.99849e-05
3.23181e-06
1.48208e-05
1.92655e-06
9.87951e-06
9.46445e-07
6.1972e-06
3.05894e-07
4.00017e-06
-9.86218e-08
2.87818e-06
-3.67969e-07
2.33788e-06
-5.64225e-07
2.08411e-06
-7.19934e-07
1.97809e-06
-8.53103e-07
1.93647e-06
-9.73345e-07
1.8823e-06
-1.08365e-06
1.74475e-06
-1.18166e-06
1.47562e-06
-1.26151e-06
1.06278e-06
-1.31628e-06
5.4023e-07
-1.34032e-06
-5.20523e-09
-1.33395e-06
-4.35663e-07
-1.30648e-06
-5.90569e-07
-1.27654e-06
-3.31992e-07
-1.27059e-06
3.96294e-07
-1.31343e-06
1.49255e-06
-1.41592e-06
2.71758e-06
-1.5723e-06
3.82666e-06
-1.76598e-06
4.64101e-06
-1.97593e-06
5.06784e-06
-2.18068e-06
5.08626e-06
-2.36094e-06
4.72237e-06
-2.5008e-06
4.02788e-06
-2.58796e-06
3.06657e-06
-2.61328e-06
1.90575e-06
-2.56949e-06
5.98869e-07
-2.45466e-06
-7.7891e-07
-2.27094e-06
-2.14613e-06
-2.02081e-06
-3.46346e-06
-1.70834e-06
-4.7057e-06
-1.33836e-06
-5.85814e-06
-9.15638e-07
-6.91335e-06
-4.45134e-07
-7.87286e-06
6.89463e-08
-8.74474e-06
6.17307e-07
-9.53736e-06
1.18789e-06
-1.02523e-05
1.76906e-06
-1.08574e-05
2.35477e-06
-1.13157e-05
2.95038e-06
-1.15186e-05
3.56495e-06
-1.1493e-05
4.18925e-06
-1.13937e-05
4.81882e-06
-1.1221e-05
5.43667e-06
-1.10203e-05
6.0472e-06
-1.06549e-05
6.6166e-06
-1.03409e-05
7.16965e-06
-9.58181e-06
7.63396e-06
-9.22074e-06
8.09757e-06
-7.66798e-06
8.40093e-06
-8.01547e-06
8.79973e-06
-5.7185e-06
-9.72319e-06
9.04666e-06
4.15938e-05
8.12769e-06
3.02126e-05
7.26205e-06
2.75979e-05
6.28785e-06
2.5162e-05
5.08868e-06
2.1184e-05
3.7185e-06
1.6191e-05
2.39572e-06
1.12023e-05
1.34331e-06
7.24963e-06
6.2122e-07
4.72226e-06
1.54254e-07
3.34516e-06
-1.55429e-07
2.64757e-06
-3.75573e-07
2.30426e-06
-5.44776e-07
2.1473e-06
-6.85153e-07
2.07685e-06
-8.09015e-07
2.00617e-06
-9.21449e-07
1.8572e-06
-1.02169e-06
1.57586e-06
-1.10491e-06
1.14601e-06
-1.16454e-06
5.99871e-07
-1.19431e-06
2.45742e-08
-1.19301e-06
-4.36956e-07
-1.16792e-06
-6.1565e-07
-1.13551e-06
-3.64398e-07
-1.12089e-06
3.81684e-07
-1.14937e-06
1.52103e-06
-1.23373e-06
2.80194e-06
-1.37e-06
3.96291e-06
-1.54283e-06
4.81384e-06
-1.73205e-06
5.25704e-06
-1.91686e-06
5.27106e-06
-2.07857e-06
4.88407e-06
-2.20176e-06
4.15105e-06
-2.27454e-06
3.13933e-06
-2.28806e-06
1.91925e-06
-2.2352e-06
5.45979e-07
-2.11421e-06
-8.99919e-07
-1.9272e-06
-2.33316e-06
-1.67644e-06
-3.71424e-06
-1.36581e-06
-5.01634e-06
-9.99898e-07
-6.22408e-06
-5.83256e-07
-7.33e-06
-1.20745e-07
-8.33539e-06
3.81636e-07
-9.24712e-06
9.138e-07
-1.00695e-05
1.46529e-06
-1.08037e-05
2.02611e-06
-1.14182e-05
2.59144e-06
-1.1881e-05
3.16686e-06
-1.2094e-05
3.761e-06
-1.20872e-05
4.36551e-06
-1.19982e-05
4.97661e-06
-1.18321e-05
5.5778e-06
-1.16215e-05
6.17291e-06
-1.125e-05
6.72803e-06
-1.08961e-05
7.26719e-06
-1.0121e-05
7.71804e-06
-9.67158e-06
8.1684e-06
-8.11833e-06
8.45826e-06
-8.30533e-06
8.84151e-06
-6.10176e-06
-9.81559e-06
9.15232e-06
4.24415e-05
8.30801e-06
3.10569e-05
7.51315e-06
2.83928e-05
6.61861e-06
2.60565e-05
5.50476e-06
2.22979e-05
4.19594e-06
1.74998e-05
2.87415e-06
1.25241e-05
1.76437e-06
8.35942e-06
9.65028e-07
5.52162e-06
4.32946e-07
3.87725e-06
7.83696e-08
3.00215e-06
-1.70064e-07
2.5527e-06
-3.55859e-07
2.3331e-06
-5.05377e-07
2.22638e-06
-6.34027e-07
2.13482e-06
-7.4923e-07
1.9724e-06
-8.52019e-07
1.67865e-06
-9.38788e-07
1.23278e-06
-1.00346e-06
6.64542e-07
-1.03933e-06
6.04374e-08
-1.04369e-06
-4.32603e-07
-1.02164e-06
-6.37692e-07
-9.87393e-07
-3.98658e-07
-9.64339e-07
3.58633e-07
-9.78081e-07
1.53476e-06
-1.04344e-06
2.86731e-06
-1.15856e-06
4.07801e-06
-1.30956e-06
4.96485e-06
-1.47728e-06
5.42474e-06
-1.64163e-06
5.43541e-06
-1.7845e-06
5.02693e-06
-1.89093e-06
4.25747e-06
-1.94941e-06
3.1978e-06
-1.95134e-06
1.92117e-06
-1.88975e-06
4.84384e-07
-1.76306e-06
-1.02661e-06
-1.57327e-06
-2.52296e-06
-1.32242e-06
-3.96509e-06
-1.01417e-06
-5.3246e-06
-6.52864e-07
-6.5854e-06
-2.42821e-07
-7.74004e-06
2.10327e-07
-8.78855e-06
6.99341e-07
-9.73613e-06
1.2147e-06
-1.05849e-05
1.74712e-06
-1.13361e-05
2.28776e-06
-1.19589e-05
2.83274e-06
-1.2426e-05
3.38762e-06
-1.26489e-05
3.96067e-06
-1.26602e-05
4.54442e-06
-1.2582e-05
5.13592e-06
-1.24236e-05
5.71934e-06
-1.22049e-05
6.29809e-06
-1.18288e-05
6.83826e-06
-1.14362e-05
7.36305e-06
-1.06457e-05
7.80022e-06
-1.01088e-05
8.23722e-06
-8.55533e-06
8.51386e-06
-8.58196e-06
8.88209e-06
-6.47001e-06
-9.89105e-06
9.25198e-06
4.31895e-05
8.47905e-06
3.18298e-05
7.75114e-06
2.91207e-05
6.93203e-06
2.68757e-05
5.90188e-06
2.33281e-05
4.66156e-06
1.87402e-05
3.35712e-06
1.38286e-05
2.20566e-06
9.5109e-06
1.33582e-06
6.39147e-06
7.37489e-07
4.47559e-06
3.34275e-07
3.40537e-06
5.37181e-08
2.83327e-06
-1.52053e-07
2.53887e-06
-3.12994e-07
2.38733e-06
-4.47831e-07
2.26966e-06
-5.66593e-07
2.09117e-06
-6.72321e-07
1.78439e-06
-7.62826e-07
1.3233e-06
-8.32702e-07
7.34424e-07
-8.74982e-07
1.02732e-07
-8.85553e-07
-4.22026e-07
-8.67287e-07
-6.55944e-07
-8.31964e-07
-4.33979e-07
-8.00964e-07
3.27645e-07
-7.99878e-07
1.53367e-06
-8.45608e-07
2.91304e-06
-9.38668e-07
4.17106e-06
-1.06698e-06
5.09316e-06
-1.21249e-06
5.57024e-06
-1.3559e-06
5.5788e-06
-1.47967e-06
5.15068e-06
-1.56927e-06
4.34705e-06
-1.61356e-06
3.24207e-06
-1.60411e-06
1.9117e-06
-1.53415e-06
4.14404e-07
-1.40222e-06
-1.15857e-06
-1.21013e-06
-2.71507e-06
-9.59722e-07
-4.21553e-06
-6.54376e-07
-5.62996e-06
-2.98187e-07
-6.94161e-06
1.04342e-07
-8.14258e-06
5.46587e-07
-9.23082e-06
1.02119e-06
-1.02107e-05
1.51954e-06
-1.10833e-05
2.03298e-06
-1.18496e-05
2.55362e-06
-1.24795e-05
3.0783e-06
-1.29506e-05
3.61243e-06
-1.3183e-05
4.16386e-06
-1.32116e-05
4.72604e-06
-1.31441e-05
5.29691e-06
-1.29944e-05
5.8615e-06
-1.27695e-05
6.42297e-06
-1.23902e-05
6.9475e-06
-1.19607e-05
7.45748e-06
-1.11557e-05
7.88078e-06
-1.0532e-05
8.30438e-06
-8.97892e-06
8.56807e-06
-8.84566e-06
8.92182e-06
-6.82376e-06
-9.95057e-06
9.34605e-06
4.38435e-05
8.64149e-06
3.25344e-05
7.97708e-06
2.97851e-05
7.22938e-06
2.76234e-05
6.28053e-06
2.42769e-05
5.11345e-06
1.99073e-05
3.84043e-06
1.51016e-05
2.66305e-06
1.06883e-05
1.7315e-06
7.32303e-06
1.06779e-06
5.1393e-06
6.12839e-07
3.86033e-06
2.9662e-07
3.14949e-06
6.78109e-08
2.76769e-06
-1.07102e-07
2.56224e-06
-2.49798e-07
2.41236e-06
-3.73087e-07
2.21447e-06
-4.8224e-07
1.89354e-06
-5.76697e-07
1.41776e-06
-6.51912e-07
8.09635e-07
-7.00889e-07
1.51711e-07
-7.18191e-07
-4.0473e-07
-7.04454e-07
-6.6968e-07
-6.68951e-07
-4.69492e-07
-6.30725e-07
2.89422e-07
-6.1501e-07
1.51794e-06
-6.40724e-07
2.93876e-06
-7.11011e-07
4.24134e-06
-8.15852e-07
5.198e-06
-9.38519e-07
5.6929e-06
-1.06055e-06
5.70083e-06
-1.16499e-06
5.25511e-06
-1.23772e-06
4.41978e-06
-1.26793e-06
3.27228e-06
-1.24732e-06
1.89109e-06
-1.16935e-06
3.36428e-07
-1.03265e-06
-1.29528e-06
-8.38746e-07
-2.90898e-06
-5.89269e-07
-4.46501e-06
-2.87335e-07
-5.93189e-06
6.30776e-08
-7.29203e-06
4.56727e-07