/*--------------------------------*- C++ -*----------------------------------*\
| =========                 |                                                 |
| \\      /  F ield         | OpenFOAM: The Open Source CFD Toolbox           |
|  \\    /   O peration     | Version:  2.4.0                                 |
|   \\  /    A nd           | Web:      www.OpenFOAM.org                      |
|    \\/     M anipulation  |                                                 |
\*---------------------------------------------------------------------------*/
FoamFile
{
    version     2.0;
    format      ascii;
    class       volScalarField;
    location    "2.9";
    object      epsilon;
}
// * * * * * * * * * * * * * * * * * * * * * * * * * * * * * * * * * * * * * //

dimensions      [0 2 -3 0 0 0 0];

internalField   nonuniform List<scalar> 
6000
(
56.3162
0.598492
0.0097371
0.127328
0.0751905
0.0910446
0.0633475
0.0621524
0.0492775
0.0470907
0.041661
0.0413948
0.040878
0.043601
0.0465279
0.0511783
0.056046
0.0629335
0.0717191
0.0836319
0.0988873
0.118432
0.142688
0.172396
0.207321
0.247668
0.292552
0.339546
0.38575
0.429213
0.468637
0.497263
0.511371
0.502304
0.468034
0.407178
0.328441
0.234077
0.141027
0.137239
0.255657
0.455036
0.722561
1.04244
1.36428
1.65988
1.87221
2.00143
2.07646
2.12506
2.18154
2.26971
2.41375
2.72531
3.04089
4.24727
4.69933
8.48617
8.18318
24.2441
18.7069
0.807974
0.0145177
0.0703725
0.0431241
0.0497297
0.0353004
0.0339144
0.0271333
0.0255989
0.022672
0.0222791
0.0218597
0.0229947
0.0242597
0.0263137
0.0284821
0.0315611
0.035484
0.0407434
0.0473737
0.0556828
0.065763
0.07779
0.0915825
0.107136
0.124023
0.141355
0.158189
0.173933
0.188163
0.198771
0.204616
0.202883
0.192787
0.173632
0.147252
0.113015
0.0765715
0.0797935
0.127689
0.200274
0.289499
0.391118
0.491406
0.583337
0.652047
0.697705
0.729161
0.753913
0.783378
0.825134
0.888536
1.01059
1.14505
1.57096
1.79099
3.07701
3.16444
8.29485
7.20557
0.642857
0.0188321
0.0411088
0.0259287
0.0285334
0.0206105
0.0194253
0.0156841
0.014646
0.0130193
0.0127131
0.0124639
0.0130293
0.0137108
0.0148176
0.016035
0.0177509
0.0199414
0.0228366
0.0264397
0.0308692
0.0361461
0.0423081
0.0492471
0.0569282
0.0651174
0.0734301
0.0814915
0.0890803
0.0960067
0.101463
0.105002
0.105435
0.102436
0.0956202
0.0852265
0.0704652
0.0538335
0.0581791
0.0811667
0.112328
0.146642
0.18308
0.217535
0.248531
0.272187
0.288679
0.300781
0.31096
0.323756
0.341835
0.36966
0.420789
0.481466
0.64715
0.757948
1.24164
1.35441
3.15731
3.30944
0.477115
0.0214628
0.025522
0.0163464
0.0171542
0.0125663
0.0116354
0.00948335
0.00879124
0.00787038
0.00768186
0.00757781
0.00794405
0.00842266
0.00917107
0.010036
0.0112265
0.0127432
0.0147128
0.0171361
0.020067
0.0235075
0.0274552
0.0318396
0.0366188
0.0416416
0.0467056
0.0516288
0.0563135
0.0606444
0.064247
0.0669078
0.0680437
0.0674935
0.0650692
0.060653
0.0536923
0.0454715
0.0492894
0.0617521
0.0769434
0.0921089
0.107066
0.120269
0.131354
0.139449
0.144793
0.148442
0.151217
0.15542
0.161983
0.173599
0.195717
0.22408
0.293582
0.351165
0.549273
0.631197
1.31492
1.78006
0.361414
0.0234136
0.0170701
0.0108513
0.0108091
0.00799414
0.00727753
0.00598963
0.00553149
0.00500822
0.00491936
0.00492047
0.00522119
0.00562927
0.00623191
0.00695239
0.00791777
0.0091432
0.0107099
0.0126193
0.0148982
0.0175404
0.0205286
0.0238106
0.0273439
0.0310225
0.0347278
0.0383618
0.0418782
0.0451981
0.0481265
0.0505357
0.0521042
0.0526912
0.0521911
0.0504122
0.0470046
0.0427682
0.0457542
0.0530291
0.0608775
0.0679764
0.0745814
0.0800981
0.084307
0.0870159
0.0882357
0.0884755
0.0877851
0.0878537
0.0888559
0.0928183
0.102044
0.115352
0.146137
0.176746
0.263891
0.316059
0.593483
1.10259
0.284472
0.025368
0.0125471
0.00765434
0.00716225
0.00531524
0.00475653
0.00395402
0.00365195
0.00335919
0.00334331
0.00341551
0.00369594
0.0040774
0.00461354
0.00526811
0.00612969
0.00722261
0.00860467
0.0102774
0.0122536
0.0145227
0.0170632
0.0198349
0.0227996
0.025882
0.0290079
0.0321183
0.0351843
0.0381481
0.0408856
0.0432977
0.0451746
0.0463797
0.0467979
0.046293
0.0446666
0.0424544
0.0447058
0.049057
0.0530678
0.0561533
0.0587561
0.0608105
0.0622341
0.0629823
0.0629831
0.0621247
0.0601021
0.0583571
0.0567246
0.0570017
0.0602005
0.0660957
0.0800987
0.0966079
0.137309
0.169087
0.289242
0.769995
0.234954
0.0276618
0.0103297
0.0058182
0.00502628
0.00371054
0.00325817
0.00273454
0.00253579
0.00237876
0.00241318
0.00253086
0.00280539
0.00317551
0.00367956
0.0043054
0.00512258
0.0061608
0.00746422
0.00903427
0.0108763
0.0129783
0.0153197
0.0178687
0.020592
0.0234338
0.0263418
0.0292706
0.0321963
0.0350709
0.0377955
0.0402847
0.042385
0.043948
0.044859
0.0450206
0.0443471
0.0432705
0.0448767
0.047399
0.0491873
0.0500246
0.0503873
0.0504942
0.0503984
0.0502342
0.0498588
0.0489161
0.0466276
0.0442943
0.0415779
0.0400005
0.0402514
0.0424534
0.0486437
0.0576099
0.0776123
0.0967449
0.152461
0.596868
0.199479
0.0303807
0.00957271
0.00484027
0.00377686
0.00274036
0.00235115
0.00198878
0.00185745
0.00178067
0.00184854
0.00199486
0.00226866
0.00263521
0.00312641
0.00374561
0.00455223
0.00557879
0.00686119
0.00840128
0.0102007
0.0122478
0.014524
0.0170029
0.0196538
0.0224315
0.0252929
0.0281954
0.0311154
0.0340101
0.0367873
0.0393705
0.0416389
0.043426
0.044625
0.0451644
0.0450693
0.0446391
0.0456939
0.0469401
0.0473262
0.0467754
0.0457436
0.0446168
0.0435033
0.0426722
0.0420332
0.0412472
0.0391841
0.0368504
0.0338549
0.0314367
0.0300901
0.0304256
0.032847
0.0375835
0.0478418
0.0594433
0.0872841
0.501354
0.175509
0.0335805
0.00981187
0.00444831
0.00307916
0.00216321
0.00180054
0.00152912
0.00143972
0.00141035
0.00150009
0.00166523
0.00194155
0.00231046
0.00280175
0.00342894
0.00424555
0.00528575
0.00658073
0.00813346
0.00994384
0.0120011
0.0142883
0.0167814
0.01945
0.0222542
0.0251531
0.028103
0.0310786
0.0340379
0.0368904
0.039569
0.0419764
0.0439282
0.0453184
0.0460928
0.0463479
0.0462574
0.0468319
0.0471065
0.0465697
0.0450424
0.0430984
0.0411299
0.039289
0.0378853
0.0369183
0.0362017
0.0344845
0.0323834
0.0295065
0.0268127
0.0246259
0.0238875
0.0244382
0.0267718
0.0321179
0.0392864
0.0543674
0.443293
0.163157
0.0373215
0.0107855
0.00449503
0.00275275
0.00184538
0.00147643
0.00125079
0.00118452
0.00118277
0.00128684
0.00146563
0.00174747
0.00212388
0.00262443
0.00326933
0.00410866
0.00517792
0.00650609
0.0080977
0.00995181
0.0120575
0.0143996
0.016954
0.0196895
0.0225679
0.0255479
0.0285829
0.0316447
0.0346903
0.0376293
0.040402
0.0429301
0.0450117
0.0465316
0.0474471
0.0479041
0.0479556
0.0480966
0.0476216
0.0463747
0.0441443
0.0415636
0.0389948
0.0366252
0.0347386
0.033402
0.032616
0.031171
0.0293549
0.0267445
0.0240778
0.0214909
0.020138
0.0195993
0.0206486
0.0233511
0.0278024
0.0365971
0.406906
0.156683
0.0414848
0.0123779
0.00489329
0.00270177
0.00171374
0.00130705
0.00109482
0.00103743
0.0010507
0.00116407
0.00135392
0.00164411
0.00203233
0.00254857
0.00321757
0.00408758
0.00519532
0.00656892
0.00821496
0.0101328
0.0123125
0.0147375
0.0173826
0.0202137
0.0231927
0.0262753
0.0294117
0.0325708
0.0357111
0.0387388
0.0415995
0.0442326
0.0464187
0.0480256
0.0490152
0.0495663
0.0496298
0.0493707
0.0482649
0.0464379
0.0436999
0.0406442
0.0376343
0.0348816
0.0326077
0.0309121
0.02996
0.0286641
0.0271005
0.0247728
0.0222782
0.0195403
0.0178581
0.0166382
0.016957
0.0181995
0.0209065
0.026309
0.383613
0.153259
0.0458741
0.0144482
0.00562013
0.00287172
0.0017298
0.00125373
0.00102866
0.000968486
0.000987556
0.00110669
0.00130627
0.00160723
0.00201065
0.00254703
0.00324398
0.00414918
0.0053016
0.00673022
0.00844278
0.010438
0.0127058
0.0152287
0.0179791
0.0209199
0.024012
0.0272075
0.030452
0.0337117
0.0369474
0.0400602
0.0429992
0.0457206
0.0479893
0.0496489
0.0506599
0.0512215
0.0512066
0.0505694
0.0488905
0.0465989
0.0434633
0.0400422
0.0367034
0.0336791
0.0311123
0.0291048
0.0279438
0.0266949
0.0253164
0.0232354
0.0209656
0.0182151
0.0163651
0.0147345
0.0145684
0.0150002
0.0165799
0.019968
0.368485
0.151448
0.0502876
0.0168976
0.00663729
0.00324728
0.00187356
0.00129614
0.0010352
0.000961472
0.000978741
0.00110064
0.00130897
0.00162239
0.00204337
0.00260269
0.00333095
0.00427542
0.00547645
0.00696455
0.00874926
0.0108291
0.0131931
0.0158222
0.0186856
0.0217426
0.0249528
0.0282643
0.0316169
0.0349743
0.0383008
0.0414912
0.044495
0.0472865
0.0496164
0.0512982
0.0522863
0.0527904
0.0526362
0.0516181
0.0494138
0.0467244
0.0432728
0.0395652
0.035982
0.0327761
0.0300051
0.0277514
0.0263803
0.0251146
0.0238531
0.0219694
0.0199259
0.0172382
0.0153125
0.0134515
0.0129449
0.0128701
0.0137637
0.0158651
0.35859
0.150509
0.0545496
0.0196278
0.00792239
0.00381606
0.00214389
0.00142684
0.00110609
0.0010077
0.00101624
0.00113781
0.00135379
0.00168132
0.00212231
0.0027072
0.00346819
0.00445331
0.00570479
0.00725486
0.0091147
0.0112826
0.0137461
0.0164845
0.0194632
0.0226374
0.0259656
0.0293911
0.0328473
0.0362953
0.0397044
0.0429614
0.0460142
0.0488554
0.0512242
0.0528994
0.053826
0.0542177
0.0538771
0.0524617
0.0497709
0.0467375
0.043016
0.0390816
0.0353214
0.0320094
0.029117
0.0266909
0.0251358
0.0238235
0.022628
0.0208942
0.0190535
0.0164692
0.0145213
0.0125388
0.011812
0.0113655
0.0118599
0.0131154
0.352116
0.15006
0.0585243
0.0225377
0.00944987
0.00457263
0.00253909
0.00164658
0.00124184
0.00110565
0.00109803
0.00121571
0.00143798
0.00178018
0.00224241
0.00285419
0.00364892
0.00467542
0.0059778
0.0075903
0.00952567
0.0117819
0.0143449
0.0171918
0.0202841
0.0235727
0.0270149
0.0305491
0.0341011
0.0376295
0.0411101
0.0444206
0.0475042
0.0503727
0.0527569
0.0543977
0.0552283
0.0554637
0.054894
0.0530624
0.0499173
0.0465642
0.0426123
0.0384988
0.0346178
0.0312646
0.0283278
0.0258054
0.0241095
0.0227462
0.0215861
0.0199642
0.0182948
0.0158337
0.0138961
0.0118585
0.0109914
0.0102737
0.0105246
0.0112239
0.347899
0.149912
0.0621204
0.0255244
0.0111863
0.00551322
0.00306394
0.0019583
0.00144418
0.0012561
0.00122397
0.00133331
0.00155971
0.00191664
0.00240115
0.00304088
0.00386981
0.00493756
0.00629008
0.00796381
0.00997299
0.0123152
0.0149749
0.0179266
0.021128
0.0245252
0.0280746
0.0317097
0.0353475
0.0389439
0.042483
0.0458318
0.0489266
0.0517984
0.0541732
0.0557521
0.0564556
0.056501
0.0556577
0.0533811
0.0498289
0.0461561
0.0420036
0.0377498
0.0337959
0.0304591
0.0275494
0.0250058
0.0232225
0.0218226
0.0206845
0.0191489
0.0176204
0.0152899
0.0133832
0.0113313
0.0103777
0.00946634
0.00955887
0.0098971
0.345179
0.149951
0.0652881
0.028488
0.0130883
0.00663018
0.00372387
0.00236867
0.0017187
0.00146319
0.00139633
0.00149207
0.00171969
0.00209069
0.00259814
0.0032665
0.00412962
0.00523777
0.00663861
0.00837094
0.0104504
0.0128744
0.0156256
0.0186763
0.0219798
0.0254775
0.0291254
0.0328518
0.0365636
0.0402139
0.0437968
0.0471676
0.050253
0.0531026
0.0554419
0.0569315
0.0574798
0.0573118
0.0561334
0.0534332
0.0494674
0.045479
0.0411487
0.0367872
0.0328021
0.0295324
0.0267163
0.024224
0.0224125
0.0210032
0.0198878
0.0184244
0.0170122
0.014813
0.0129504
0.0109098
0.00990564
0.00886211
0.00884011
0.00895292
0.343453
0.150112
0.0680147
0.0313382
0.0151026
0.00790882
0.0045224
0.00288567
0.00207262
0.00173322
0.00161944
0.00169518
0.00192018
0.00230374
0.00283436
0.0035317
0.00442866
0.00557575
0.00702221
0.00880929
0.010954
0.0134536
0.0162894
0.0194314
0.0228283
0.0264167
0.0301527
0.0339594
0.0377321
0.0414213
0.045032
0.0484078
0.0514623
0.0542636
0.05654
0.057913
0.0582836
0.0578754
0.0563105
0.0531961
0.0488157
0.0445104
0.0400201
0.035579
0.0315994
0.0284416
0.0257796
0.023407
0.021629
0.0202464
0.0191653
0.0177701
0.0164569
0.0143863
0.0125772
0.0105638
0.00953339
0.00840498
0.0082974
0.00826695
0.342379
0.150413
0.070319
0.0339993
0.0171686
0.00932543
0.00545857
0.00351658
0.00251425
0.00207377
0.00189926
0.00194725
0.00216472
0.00255837
0.00311188
0.00383828
0.00476846
0.00595249
0.00744113
0.00927806
0.0114817
0.0140495
0.0169614
0.0201852
0.0236654
0.0273334
0.0311458
0.0350209
0.0388407
0.0425525
0.0461746
0.0495374
0.0525397
0.0552658
0.0574512
0.0586804
0.0588565
0.0581576
0.0561897
0.0526635
0.0478641
0.043238
0.0386027
0.034107
0.0301653
0.0271584
0.0247047
0.0225145
0.0208316
0.0195173
0.0184901
0.0171682
0.0159434
0.0139979
0.0122489
0.0102734
0.00923334
0.00805271
0.0078862
0.00775746
0.34173
0.150812
0.0722402
0.0364149
0.0192224
0.0108466
0.00652472
0.00426606
0.00305195
0.00249272
0.00224319
0.00225404
0.00245798
0.00285807
0.00343362
0.00418886
0.00515144
0.00637003
0.00789681
0.00977783
0.0120328
0.0146601
0.0176383
0.0209335
0.0244857
0.028221
0.0320972
0.0360278
0.0398802
0.0435982
0.0472143
0.050546
0.0534747
0.0560987
0.0581642
0.0592223
0.0591838
0.0581778
0.0557585
0.051827
0.0466091
0.0416585
0.0368922
0.0323652
0.0284906
0.025668
0.023469
0.0215168
0.0199879
0.0187866
0.0178389
0.0166027
0.0154615
0.0136384
0.011955
0.0100245
0.0089864
0.00777656
0.00756921
0.00737444
0.34135
0.151293
0.0738307
0.0385492
0.0212011
0.0124303
0.00770487
0.00513424
0.00369263
0.00299819
0.00265907
0.00262221
0.00280553
0.00320711
0.00380316
0.00458671
0.00558076
0.00683127
0.00839169
0.0103104
0.0126084
0.0152854
0.0183188
0.0216739
0.0252858
0.0290752
0.0330017
0.0369744
0.0408448
0.0445519
0.0481445
0.0514267
0.0542608
0.0567559
0.0586717
0.0595228
0.0592761
0.0579059
0.0550206
0.0506829
0.0450524
0.039777
0.0348944
0.0303598
0.0265792
0.0239685
0.0220618
0.020394
0.0190731
0.0180301
0.017191
0.0160591
0.015002
0.0132998
0.0116869
0.0098068
0.00877888
0.00755631
0.00732077
0.0070827
0.341136
0.151835
0.0751481
0.0403875
0.0230482
0.0140275
0.00897382
0.00611474
0.00444016
0.00359724
0.00315465
0.00305891
0.00321362
0.00361032
0.00422454
0.00503553
0.00605997
0.0073398
0.00892902
0.0108784
0.0132103
0.0159263
0.0190033
0.0224057
0.0260642
0.0298937
0.0338566
0.0378576
0.0417307
0.04541
0.048961
0.0521751
0.0548938
0.0572339
0.0589621
0.059598
0.059125
0.0573352
0.0539843
0.0492318
0.0432012
0.0376066
0.0326256
0.0281087
0.0244475
0.0220715
0.0204845
0.019136
0.0180691
0.0172283
0.0165286
0.0155248
0.0145563
0.0129755
0.0114378
0.00961236
0.00860068
0.00737738
0.00712255
0.00685719
0.341012
0.152408
0.0762467
0.0419335
0.0247177
0.0155865
0.0102975
0.00719321
0.00529369
0.00429448
0.0037368
0.00357104
0.00368916
0.00407286
0.00470207
0.00553926
0.00659286
0.00789965
0.00951267
0.0114856
0.0138417
0.0165853
0.0196931
0.0231298
0.0268211
0.0306762
0.0346608
0.0386756
0.0425362
0.0461704
0.0496619
0.0527889
0.0553723
0.057527
0.0590449
0.0594498
0.0587163
0.0564683
0.0526525
0.0474774
0.041067
0.035168
0.0301119
0.0256418
0.0221254
0.0200021
0.0187501
0.0177427
0.0169647
0.0163667
0.0158363
0.0149884
0.014116
0.0126594
0.0112019
0.00943494
0.00844409
0.00722897
0.00696117
0.00667991
0.340931
0.15299
0.0771747
0.0432061
0.0261772
0.0170564
0.0116345
0.00834649
0.00624595
0.0050906
0.00441038
0.0041645
0.004239
0.00460002
0.00524
0.00610177
0.00718319
0.008515
0.0101469
0.012136
0.0145065
0.0172657
0.020391
0.0238481
0.0275579
0.0314235
0.0354145
0.0394284
0.0432609
0.046833
0.0502467
0.0532674
0.055695
0.0576381
0.0589228
0.0590788
0.0580431
0.0553108
0.0510285
0.0454269
0.0386662
0.0324903
0.0273896
0.0230011
0.0196561
0.0177996
0.0168845
0.0162239
0.0157554
0.0154358
0.0151017
0.0144409
0.0136733
0.0123466
0.0109741
0.00926938
0.00830308
0.00710295
0.0068267
0.00653769
0.340864
0.153562
0.0779727
0.0442358
0.0274096
0.0183918
0.0129387
0.00954266
0.00728192
0.0059808
0.00517693
0.00484374
0.00486848
0.00519716
0.00584219
0.00672659
0.00783436
0.00918976
0.0108358
0.0128342
0.015209
0.0179716
0.0211006
0.0245636
0.0282771
0.0321375
0.0361194
0.040117
0.0439056
0.0473986
0.0507158
0.0536107
0.0558562
0.0575764
0.0585923
0.0584926
0.0570964
0.0538697
0.0491189
0.0430917
0.0360203
0.0296105
0.0245057
0.0202408
0.0170964
0.0155171
0.0149261
0.0145997
0.0144443
0.0144311
0.0143154
0.0138747
0.0132205
0.012033
0.0107502
0.00911137
0.0081728
0.00699302
0.00671165
0.00642081
0.340792
0.154108
0.0786729
0.0450606
0.0284134
0.0195563
0.0141629
0.0107425
0.00837803
0.00695336
0.00603316
0.00561067
0.00558026
0.00586916
0.00651159
0.00741648
0.00854903
0.00992711
0.0115834
0.0135846
0.0159538
0.0187075
0.021826
0.0252801
0.0289819
0.032821
0.0367777
0.0407432
0.0444717
0.0478683
0.0510705
0.053816
0.0558695
0.057337
0.0580589
0.0576893
0.055871
0.0521556
0.0469327
0.0404872
0.0331564
0.0265742
0.0215179
0.0174275
0.0145163
0.0132214
0.0129259
0.0128996
0.0130429
0.0133559
0.0134867
0.0132672
0.0127497
0.0117157
0.0105262
0.00895719
0.00804926
0.00689425
0.00661025
0.00632196
0.340708
0.154616
0.0792995
0.0457215
0.0292001
0.0205258
0.0152633
0.0119017
0.00950221
0.00798868
0.00696966
0.00646294
0.00637337
0.00661996
0.00724961
0.00817292
0.00932865
0.010729
0.0123926
0.0143907
0.0167456
0.019478
0.0225716
0.0260016
0.029676
0.0334773
0.0373921
0.041309
0.0449607
0.0482438
0.0513118
0.0538867
0.0557291
0.0569213
0.0573318
0.0566581
0.0543646
0.0501816
0.0444815
0.0376347
0.0301084
0.0234367
0.018495
0.0146388
0.0119975
0.0109898
0.0109459
0.0111375
0.0115764
0.0122272
0.0126352
0.012601
0.0122523
0.0113932
0.0102985
0.00880362
0.00792914
0.00680268
0.00651803
0.00623559
0.34061
0.155076
0.0798741
0.0462535
0.0297915
0.0212894
0.0162027
0.0129751
0.0106149
0.00905899
0.00796977
0.00739211
0.00724427
0.00744874
0.00805624
0.00899556
0.0101728
0.0115955
0.013265
0.015255
0.0175879
0.0202874
0.0233418
0.0267321
0.0303629
0.0341097
0.0379654
0.0418163
0.0453739
0.0485261
0.0514362
0.053826
0.0554337
0.0563304
0.0564202
0.0553868
0.0525865
0.0479498
0.0417791
0.0345613
0.0269182
0.0202628
0.0155161
0.0119608
0.00962919
0.00890685
0.00901954
0.00938282
0.0100982
0.0110441
0.0117429
0.0119138
0.0117152
0.011053
0.010063
0.00864789
0.00780966
0.00671507
0.00643144
0.00615742
0.3405
0.155482
0.0804147
0.0466856
0.0302154
0.0218494
0.0169545
0.0139199
0.0116713
0.0101292
0.00900901
0.00838273
0.00818433
0.00835
0.0089287
0.00988145
0.0110786
0.0125241
0.0142001
0.0161775
0.0184831
0.0211388
0.02414
0.0274752
0.031046
0.0347209
0.0384999
0.0422666
0.0457119
0.0487153
0.0514513
0.0536295
0.0549815
0.0555641
0.0553336
0.0538573
0.0505475
0.0454658
0.0388428
0.0313023
0.0236379
0.017127
0.0126681
0.00948322
0.00750057
0.00703075
0.00722487
0.00771228
0.00863695
0.0098273
0.0108082
0.0112154
0.0111447
0.0106819
0.00981613
0.00848781
0.00768846
0.00662876
0.00634763
0.00608413
0.340384
0.15583
0.0809297
0.0470486
0.0305044
0.0222202
0.017505
0.0147005
0.0126241
0.0111585
0.0100553
0.00941153
0.0091787
0.00931256
0.00986038
0.0108243
0.0120401
0.013509
0.0151945
0.0171553
0.0194309
0.0220333
0.0249684
0.0282331
0.0317273
0.0353129
0.0389971
0.0426602
0.0459741
0.0488079
0.0513526
0.0532943
0.0543692
0.0546293
0.0540544
0.0520616
0.048265
0.0427381
0.0356943
0.0279021
0.0203309
0.014112
0.0100412
0.00729054
0.00568611
0.00541479
0.00564178
0.00618892
0.00723155
0.00860219
0.0098395
0.0104961
0.0105597
0.0102703
0.00955568
0.00832197
0.00756357
0.00654151
0.00626429
0.00601309
0.340267
0.156121
0.0814193
0.0473718
0.0306937
0.0224262
0.0178536
0.0152916
0.0134292
0.0121031
0.0110695
0.0104474
0.0102053
0.0103186
0.0108398
0.0118134
0.0130471
0.0145403
0.0162404
0.0181822
0.0204278
0.0229697
0.0258267
0.0290062
0.0324072
0.035886
0.0394568
0.0429959
0.0461582
0.0488074
0.051136
0.0528158
0.0535921
0.0535337
0.0525581
0.0500002
0.0457494
0.0397784
0.0323619
0.0244162
0.0170735
0.0113051
0.00771909
0.00544928
0.00423046
0.00409805
0.00432396
0.00487009
0.00592922
0.00739934
0.00885062
0.0097489
0.00997885
0.00981767
0.00927077
0.00815017
0.00743326
0.00645139
0.00617954
0.00594224
0.340154
0.156358
0.0818794
0.0476781
0.0308182
0.0224974
0.018013
0.0156787
0.0140517
0.0129184
0.0120082
0.0114523
0.0112343
0.0113432
0.0118494
0.012833
0.014085
0.0156034
0.0173248
0.0192477
0.0214652
0.0239424
0.0267116
0.0297921
0.0330837
0.0364383
0.0398767
0.0432702
0.0462567
0.0487055
0.0507954
0.0521867
0.0526468
0.0522741
0.0508217
0.0476876
0.0430019
0.0366026
0.0288822
0.0209129
0.0139534
0.00879024
0.00576692
0.00399393
0.00313902
0.00309358
0.00329848
0.0037971
0.00477847
0.00625312
0.00785913
0.00897842
0.00939607
0.00934115
0.00894922
0.00797431
0.00729581
0.00635671
0.00609181
0.00586996
0.340049
0.156548
0.0823042
0.0479823
0.030909
0.0224765
0.0180079
0.01586
0.0144696
0.013564
0.0128262
0.0123829
0.012228
0.0123546
0.0128654
0.0138614
0.0151339
0.0166782
0.0184288
0.020337
0.022528
0.0249412
0.0276151
0.0305845
0.0337513
0.0369647
0.0402514
0.0434766
0.0462677
0.0484945
0.0503219
0.0513974
0.0515377
0.0508213
0.0488278
0.0451439
0.0400289
0.0332329
0.0253038
0.0174742
0.0110653
0.006637
0.00421693
0.00291843
0.00237989
0.00238471
0.00256609
0.00298941
0.00382077
0.00519923
0.00688565
0.0081924
0.00880491
0.00885663
0.00859574
0.00778465
0.00714904
0.006256
0.00599983
0.00579495
0.339957
0.156699
0.0826892
0.04829
0.0309913
0.0224004
0.0179035
0.015852
0.0146739
0.0140086
0.0134812
0.0131937
0.0131411
0.013316
0.0138568
0.0148704
0.0161677
0.0177393
0.0195268
0.0214289
0.0235944
0.0259495
0.0285236
0.0313721
0.0343998
0.0374561
0.0405719
0.0436029
0.046178
0.0481631
0.049703
0.050436
0.0502682
0.0491426
0.0465738
0.042375
0.0368412
0.0297012
0.0216901
0.0141941
0.00850111
0.00488674
0.00306026
0.00218002
0.0018948
0.00194211
0.00211149
0.00244152
0.00308263
0.00427169
0.00595237
0.00740142
0.00820095
0.00837928
0.00821508
0.00757354
0.00699072
0.00614799
0.0059026
0.00571621
0.339878
0.156818
0.0830323
0.0485996
0.0310838
0.022288
0.017684
0.0157144
0.0146713
0.0142346
0.0139384
0.0138402
0.0139203
0.0141909
0.014785
0.0158253
0.0171545
0.0187549
0.020587
0.0224946
0.0246365
0.0269434
0.0294168
0.0321373
0.0350137
0.0378982
0.0408243
0.0436377
0.0459724
0.0476962
0.0489225
0.0492964
0.0488151
0.0472137
0.0440692
0.0393841
0.0334563
0.0260522
0.0181221
0.011174
0.0063336
0.00354243
0.0022511
0.0017152
0.00162809
0.00174692
0.00190119
0.00212206
0.00257329
0.00350043
0.00508091
0.00661786
0.0075878
0.00790623
0.00781886
0.00733914
0.00681904
0.00603171
0.00579939
0.00563298
0.339816
0.156916
0.0833339
0.0489066
0.0311965
0.0221761
0.0174067
0.0154231
0.0145179
0.0142413
0.014175
0.0142736
0.0145319
0.0149355
0.0156012
0.0166855
0.0180567
0.0196882
0.021571
0.023497
0.0256204
0.0278898
0.030266
0.0328553
0.0355707
0.0382709
0.0409869
0.0435615
0.0456316
0.0470742
0.0479607
0.0479772
0.0471406
0.0450175
0.0413227
0.0361804
0.0299016
0.0223473
0.0146987
0.008511
0.00459972
0.00256856
0.00172314
0.0014717
0.00151926
0.00173515
0.00187128
0.00199878
0.00227703
0.00292498
0.00428886
0.00585582
0.00697062
0.00743525
0.00741589
0.00708232
0.00663275
0.00590666
0.00568974
0.00554472
0.33977
0.156999
0.0835964
0.0492053
0.0313332
0.0220855
0.0171101
0.0150382
0.0141824
0.0140833
0.0141684
0.0144762
0.0149362
0.0155007
0.016261
0.0174069
0.0188322
0.0204976
0.0224354
0.0243921
0.0265056
0.0287473
0.0310344
0.0334928
0.0360407
0.0385469
0.0410365
0.0433479
0.0451312
0.046273
0.0467953
0.0464742
0.0452021
0.0425525
0.0383345
0.0327808
0.0262184
0.0186682
0.0115317
0.00627925
0.00329071
0.00190331
0.00142006
0.00136847
0.00152362
0.00188838
0.00199539
0.00204174
0.00216652
0.002561
0.0036029
0.00513119
0.0063561
0.00696292
0.00701643
0.0068037
0.00643125
0.00577298
0.00557348
0.00545108
0.339739
0.157076
0.0838241
0.0494903
0.0314927
0.022029
0.0168259
0.0146012
0.0137236
0.0137297
0.0139594
0.0144452
0.0150992
0.0158463
0.0167221
0.0179444
0.0194359
0.0211385
0.0231331
0.0251308
0.0272443
0.029467
0.0316764
0.0340081
0.0363857
0.0386875
0.0409411
0.0429654
0.0444418
0.0452638
0.0454193
0.0447364
0.0429737
0.03983
0.0351133
0.0292132
0.0224662
0.0151185
0.00873258
0.00451153
0.00235729
0.00147898
0.00127848
0.00134145
0.00169324
0.00217394
0.00224906
0.00222683
0.00220815
0.00238225
0.00307251
0.00445935
0.00575223
0.00648885
0.00662695
0.0065044
0.00621465
0.00563171
0.00545067
0.00535187
0.339723
0.157151
0.0840224
0.0497574
0.0316708
0.0220134
0.0165782
0.0141481
0.0131901
0.0132242
0.0135271
0.0141946
0.0150141
0.0159392
0.0169455
0.0182546
0.0198232
0.0215656
0.0236157
0.025661
0.0277832
0.0299948
0.032139
0.0343489
0.0365554
0.0386586
0.040659
0.0423768
0.0435293
0.0440147
0.0438272
0.042709
0.0404526
0.0368449
0.0316781
0.0255202
0.0187273
0.0118195
0.00638918
0.00319024
0.00172797
0.00124394
0.00123067
0.00140949
0.00202111
0.00258125
0.00261985
0.00255163
0.00236694
0.00236505
0.00274596
0.00384616
0.00516833
0.0060165
0.00624594
0.00619107
0.00598263
0.00548484
0.00532151
0.00524702
0.33972
0.15723
0.0841978
0.0500039
0.0318619
0.0220313
0.0163823
0.0137115
0.0126178
0.0126246
0.0129384
0.0136892
0.014682
0.0157822
0.0169077
0.0183022
0.0199541
0.0217368
0.0238366
0.0259309
0.0280672
0.0302712
0.032361
0.0344608
0.0365058
0.0384067
0.0401434
0.0415395
0.0423555
0.0425051
0.0419774
0.0403544
0.0376492
0.033602
0.0280619
0.0217641
0.0151098
0.0088965
0.00454183
0.00225632
0.00133095
0.0011375
0.00122831
0.00161063
0.00250298
0.00310126
0.0031056
0.00299258
0.00268117
0.00243349
0.00259644
0.00334946
0.00461585
0.00555086
0.00587226
0.00587424
0.00573707
0.00532985
0.0051862
0.00513661
0.339725
0.157315
0.0843565
0.0502292
0.0320596
0.0220829
0.0162459
0.013317
0.0120477
0.0119615
0.0122479
0.0130021
0.0140876
0.0153513
0.0166122
0.018084
0.0198075
0.0216219
0.0237573
0.0258936
0.0280432
0.0302426
0.0322886
0.0342864
0.0361748
0.0378773
0.0393429
0.040408
0.0408813
0.040726
0.0398089
0.037671
0.0345614
0.0301206
0.0243169
0.0180309
0.0117437
0.00645206
0.00317179
0.0016309
0.00111104
0.00110164
0.00132438
0.00198482
0.00310366
0.00372196
0.00370111
0.00353805
0.00312601
0.00261548
0.00257863
0.00300936
0.00409889
0.00509805
0.0055038
0.00556516
0.00548131
0.00516454
0.00504496
0.00502078
0.33974
0.157408
0.0845042
0.0504342
0.0322577
0.0221669
0.0161699
0.0129832
0.0115119
0.0112734
0.0115023
0.0121873
0.0132939
0.0146556
0.0160195
0.0175615
0.0193569
0.0211958
0.0233502
0.0255145
0.0276662
0.0298556
0.0318615
0.0337639
0.0355046
0.0370139
0.0382041
0.0389363
0.0390816
0.038638
0.0372806
0.0346727
0.0312035
0.0264407
0.0205194
0.0144336
0.00876619
0.00453596
0.00221257
0.00123762
0.00100767
0.00110049
0.00154741
0.00253738
0.00380956
0.00443629
0.0043927
0.00417872
0.00368102
0.00294699
0.00262697
0.00283404
0.00364574
0.00466585
0.00514327
0.00526612
0.00522175
0.00498905
0.00489856
0.0048998
0.339761
0.157509
0.0846462
0.0506211
0.0324522
0.0222714
0.0161493
0.0127217
0.0110322
0.0105962
0.0107457
0.0113044
0.0123527
0.0137477
0.0151765
0.0167496
0.01859
0.0204363
0.0225867
0.0247604
0.0269022
0.0290702
0.0310323
0.0328414
0.0344427
0.0357635
0.0366771
0.0370845
0.03695
0.0361867
0.0343767
0.0313852
0.0276103
0.0226292
0.016773
0.0111076
0.00629101
0.00312942
0.00157622
0.00101466
0.000964933
0.00118408
0.00194031
0.00322694
0.0046167
0.00523435
0.00516801
0.00490385
0.00432865
0.00341357
0.00276316
0.00278005
0.00329156
0.00426121
0.00479438
0.00497733
0.00496478
0.0048056
0.00474848
0.00477409
0.339787
0.157618
0.0847864
0.0507927
0.03264
0.0223899
0.0161675
0.0125347
0.0106245
0.00996144
0.0100113
0.0104168
0.011321
0.0126812
0.0141251
0.0156874
0.0175376
0.0193649
0.0214787
0.0236322
0.025739
0.0278646
0.0297703
0.0314824
0.0329495
0.0340831
0.0347228
0.0348382
0.0344567
0.033348
0.0311258
0.0278387
0.0238418
0.018785
0.0132087
0.00819449
0.00437221
0.00215788
0.00117802
0.000905676
0.000953535
0.00137031
0.0025202
0.00403932
0.00551371
0.00610357
0.00601418
0.00570042
0.00505342
0.00400203
0.00302651
0.00279712
0.00307549
0.00388413
0.00446162
0.00469889
0.00471637
0.00461711
0.00459442
0.00464563
0.339815
0.157733
0.0849277
0.0509524
0.0328198
0.0225164
0.0162189
0.0124184
0.0102965
0.00940121
0.00930679
0.00957084
0.0102749
0.0115197
0.012923
0.0144257
0.0162412
0.0180161
0.0200543
0.0221497
0.0241882
0.0262424
0.028069
0.0296737
0.0310065
0.0319487
0.0323227
0.0322146
0.0315703
0.0301261
0.0275861
0.0240956
0.0199907
0.0150401
0.00997553
0.00580757
0.00298579
0.00152251
0.000949346
0.000859531
0.000995198
0.00169562
0.00326911
0.00496899
0.00648545
0.00702946
0.00691718
0.00655326
0.00584264
0.00469648
0.0034167
0.00287497
0.00297516
0.00356047
0.00415148
0.00443206
0.00448088
0.00442733
0.00443631
0.00451682
0.339846
0.157854
0.0850721
0.0511032
0.0329911
0.0226461
0.0162977
0.0123643
0.0100502
0.00893375
0.00864818
0.00879175
0.00928515
0.010327
0.0116373
0.0130307
0.0147614
0.0164457
0.0183654
0.0203595
0.0222902
0.0242367
0.0259531
0.0274338
0.0286251
0.0293651
0.0295038
0.0292228
0.0283061
0.0265894
0.0238267
0.0202533
0.0161853
0.0115539
0.00721606
0.00399275
0.00204592
0.00112903
0.000836398
0.000846537
0.00110693
0.00221487
0.00415628
0.00599789
0.00751322
0.00799655
0.00786236
0.00744573
0.0066866
0.00547967
0.00393064
0.00304529
0.00295994
0.0033144
0.00387052
0.00418015
0.00425877
0.00424157
0.00427505
0.00439061
0.339876
0.157978
0.0852204
0.051248
0.0331544
0.0227764
0.0163912
0.012361
0.00988094
0.00856137
0.00806385
0.00809004
0.00839053
0.00917046
0.010338
0.011577
0.0131728
0.0147277
0.0164864
0.0183336
0.0201148
0.0219134
0.0234828
0.0248192
0.0258532
0.0263772
0.0263413
0.0258959
0.0247321
0.022837
0.01996
0.0164465
0.0125861
0.00849201
0.0050268
0.00271166
0.00144272
0.000902787
0.00078928
0.000862449
0.00130988
0.00294196
0.00517562
0.00710477
0.00857671
0.00898943
0.00883526
0.0083672
0.00757217
0.00633396
0.00455991
0.00332995
0.0029938
0.00316694
0.00362221
0.0039469
0.00405068
0.00406241
0.00411652
0.00426774
0.339907
0.158105
0.0853729
0.0513892
0.0333105
0.0229056
0.0164934
0.0123857
0.00977893
0.00827968
0.00758088
0.00745102
0.00760727
0.008121
0.00908886
0.0101398
0.0115561
0.0129468
0.0145074
0.0161653
0.017758
0.0193691
0.0207544
0.021925
0.022779
0.0230835
0.0229347
0.0223269
0.0209746
0.0189972
0.0161404
0.012841
0.00936775
0.00598821
0.0034219
0.00186427
0.00107479
0.000790304
0.000775347
0.000929262
0.00163276
0.00387773
0.00631495
0.00826394
0.00965563
0.00999364
0.00982234
0.00930726
0.00848862
0.00724252
0.00529409
0.00372741
0.00309067
0.00310917
0.0034148
0.00373668
0.00385818
0.00389175
0.00396573
0.00415005