/*--------------------------------*- C++ -*----------------------------------*\
| =========                 |                                                 |
| \\      /  F ield         | OpenFOAM: The Open Source CFD Toolbox           |
|  \\    /   O peration     | Version:  2.4.0                                 |
|   \\  /    A nd           | Web:      www.OpenFOAM.org                      |
|    \\/     M anipulation  |                                                 |
\*---------------------------------------------------------------------------*/
FoamFile
{
    version     2.0;
    format      ascii;
    class       volScalarField;
    location    "2.11";
    object      epsilon;
}
// * * * * * * * * * * * * * * * * * * * * * * * * * * * * * * * * * * * * * //

dimensions      [0 2 -3 0 0 0 0];

internalField   nonuniform List<scalar> 
6000
(
0.995006
0.382895
0.0493153
0.00525856
0.00155714
0.00290254
0.00243424
0.00429119
0.0071585
0.0180455
0.042845
0.0643086
0.0697082
0.057775
0.039719
0.0336476
0.0365414
0.0375011
0.0790795
0.122503
0.144746
0.142193
0.122635
0.0961467
0.0717308
0.0516418
0.0360065
0.0243341
0.0155971
0.00859728
0.00397456
0.00269385
0.00428609
0.0063115
0.0084007
0.0102576
0.0117837
0.0130474
0.0141974
0.0153941
0.0167777
0.0184652
0.0205585
0.0231568
0.0263688
0.0303257
0.0351958
0.0412023
0.0486465
0.0579419
0.0696599
0.0846136
0.103947
0.129424
0.163423
0.210644
0.275168
0.376668
0.501915
0.781559
0.558249
0.35624
0.0228227
0.00530975
0.000741843
0.00118611
0.00161939
0.00268223
0.00468905
0.0101278
0.0193561
0.0247154
0.0219144
0.0197067
0.0169552
0.0182116
0.0584431
0.112297
0.0761431
0.0466457
0.0329961
0.0237723
0.0171833
0.0135438
0.0113293
0.0094391
0.00777286
0.00622025
0.00466694
0.00315328
0.00193156
0.00133962
0.00122905
0.00128874
0.00145935
0.00169255
0.00195028
0.00221107
0.00247146
0.00274133
0.00303726
0.00337771
0.0037811
0.00426592
0.00485194
0.00556194
0.00642396
0.00747401
0.0087598
0.0103457
0.0123203
0.0148066
0.0179807
0.0220928
0.0275331
0.0348311
0.0450396
0.0591917
0.0816811
0.115738
0.416721
0.412028
0.0304793
0.0036515
0.000679013
0.00097004
0.00163297
0.00264068
0.00465759
0.0091838
0.0170802
0.022296
0.0186855
0.0152976
0.0140918
0.0270503
0.088796
0.07515
0.0322433
0.0169916
0.0112363
0.00843618
0.00725117
0.00700932
0.00690899
0.00672321
0.00635298
0.00570447
0.00472344
0.0034936
0.0022742
0.0013982
0.000953817
0.000712103
0.000605689
0.000583255
0.000607789
0.000656225
0.000716467
0.000784232
0.000860047
0.000946872
0.00104867
0.0011698
0.001315
0.00148964
0.00170006
0.00195417
0.00226215
0.00263731
0.00309758
0.003667
0.00437993
0.00528093
0.00644683
0.0079475
0.0100277
0.0126166
0.017021
0.0210733
0.367362
0.406424
0.0515034
0.00234862
0.000717293
0.000958482
0.00171557
0.00276295
0.00481694
0.00879715
0.0163024
0.023045
0.0196888
0.0158555
0.016763
0.0411265
0.0862587
0.0432493
0.0163366
0.00913731
0.00684913
0.00618181
0.00624208
0.00662994
0.00698235
0.00716632
0.00706811
0.00657486
0.00561664
0.00427037
0.00283425
0.00173154
0.00110591
0.000715912
0.000499334
0.000394337
0.00035238
0.000343178
0.000350276
0.000365862
0.000386953
0.000412958
0.000444335
0.000481997
0.00052712
0.000581135
0.000645792
0.000723268
0.00081631
0.000928417
0.00106415
0.00122937
0.00143225
0.00168258
0.00199805
0.00238906
0.00291766
0.00351582
0.004587
0.00514041
0.34302
0.37631
0.0738849
0.0020458
0.000774074
0.000986515
0.00177446
0.00286094
0.00487971
0.00831449
0.0151027
0.0234624
0.0211858
0.0174594
0.0212479
0.0539855
0.0683445
0.0258635
0.0103009
0.00675893
0.00599665
0.00612136
0.00663187
0.00727534
0.00782027
0.00814456
0.00812825
0.00764827
0.00661742
0.00509955
0.00342359
0.0021478
0.00138654
0.000868698
0.000554038
0.000384438
0.000301686
0.000265296
0.000252203
0.000250757
0.000255599
0.000264474
0.000276539
0.000291582
0.000309717
0.000331286
0.000356838
0.000387129
0.000423143
0.000466128
0.00051768
0.000579785
0.000655157
0.000746861
0.000860609
0.000998732
0.00118205
0.00138153
0.00173885
0.00190697
0.32945
0.340205
0.0970518
0.00328599
0.00085337
0.0010171
0.00178839
0.00288036
0.00477188
0.00769945
0.0133255
0.0226753
0.0224105
0.0193554
0.026642
0.0606577
0.0499998
0.0169409
0.00779333
0.00616522
0.00613752
0.00666086
0.00741567
0.00821393
0.00886234
0.00924356
0.00924175
0.00873271
0.00761521
0.00593176
0.0040126
0.00257573
0.00170938
0.00108777
0.00067748
0.000438213
0.000312709
0.000251705
0.000224056
0.000213095
0.000210677
0.000212996
0.000218281
0.000225698
0.000234885
0.000245766
0.000258473
0.000273311
0.000290735
0.000311344
0.000335908
0.00036537
0.000401018
0.00044427
0.000497844
0.000562838
0.000649309
0.000744493
0.000918023
0.00103028
0.321273
0.305755
0.114213
0.00866954
0.00100898
0.00104403
0.00176155
0.00281429
0.00450582
0.00696184
0.0113638
0.0205762
0.0232403
0.0213353
0.0324086
0.0605851
0.0361506
0.0122444
0.00680759
0.00626024
0.00666701
0.00745721
0.00838758
0.00929742
0.0100018
0.0103912
0.0103632
0.00980104
0.00859447
0.00676159
0.00460948
0.00299939
0.00203048
0.00133267
0.000841937
0.000530806
0.000355968
0.000266078
0.000222476
0.000202537
0.000194611
0.000193017
0.000194981
0.000199102
0.000204659
0.000211316
0.000218992
0.000227794
0.000237972
0.000249899
0.000264073
0.000281114
0.000301886
0.000327342
0.000359404
0.000398884
0.00045337
0.000514468
0.000634048
0.000731518
0.315842
0.275701
0.126082
0.0183946
0.00136385
0.00107574
0.00171289
0.00268637
0.00414552
0.00619943
0.009618
0.0175575
0.0237896
0.0233626
0.0380008
0.0557646
0.0266181
0.00968808
0.00656309
0.00668008
0.0074124
0.00842629
0.00950744
0.0105029
0.0112254
0.0115802
0.0114878
0.0108484
0.00954807
0.00758089
0.00521955
0.00342966
0.002336
0.00157394
0.0010261
0.00065113
0.000423283
0.000299036
0.000235819
0.000205102
0.000191114
0.000185853
0.00018532
0.00018746
0.000191173
0.00019588
0.000201321
0.000207462
0.000214429
0.000222482
0.000232005
0.000243493
0.000257658
0.000275293
0.000298064
0.000326712
0.000368041
0.000415302
0.000515529
0.000606236
0.31191
0.250621
0.133393
0.0307824
0.002197
0.00113173
0.00166902
0.0025386
0.00377685
0.00553266
0.00830851
0.0143282
0.0241355
0.0254302
0.0427006
0.0483798
0.0202161
0.00829111
0.00671095
0.00729724
0.00832461
0.00955528
0.0107778
0.0118353
0.0125376
0.012813
0.0126155
0.0118713
0.0104691
0.00837941
0.00583927
0.00387736
0.00263374
0.00179745
0.00121005
0.000787806
0.000509834
0.000347549
0.000260695
0.000216498
0.000194925
0.000185264
0.000182036
0.000182393
0.000184796
0.000188392
0.000192732
0.000197633
0.00020311
0.000209329
0.000216599
0.000225349
0.000236228
0.000249966
0.000268145
0.000291485
0.000326611
0.000367287
0.000460004
0.000546444
0.308914
0.230204
0.136868
0.0441885
0.00425239
0.00124599
0.00165681
0.00241664
0.00347566
0.00503912
0.0074016
0.0116268
0.0240913
0.0274624
0.0454877
0.0404001
0.0159189
0.00757486
0.00709061
0.00806744
0.0093944
0.0108496
0.0122072
0.0133005
0.0139413
0.0140896
0.0137434
0.0128648
0.0113497
0.00914632
0.00645779
0.0043449
0.00293702
0.00200446
0.00138012
0.000928117
0.000609609
0.000409371
0.000295873
0.000235415
0.000204349
0.000189103
0.00018249
0.000180733
0.00018178
0.000184468
0.000188131
0.000192421
0.000197223
0.000202601
0.000208789
0.000216161
0.000225325
0.000236981
0.000252687
0.000273163
0.000305035
0.000342222
0.000431575
0.00051495
0.306565
0.213826
0.137298
0.0568073
0.00889365
0.00148156
0.001698
0.00235672
0.0032907
0.00474115
0.00680304
0.00980572
0.0231945
0.0292818
0.0456665
0.0331528
0.0130192
0.00728766
0.00762807
0.00897694
0.0106234
0.0123145
0.0137991
0.0148982
0.0154339
0.0154059
0.0148667
0.0138228
0.0121821
0.00987121
0.00706315
0.00482597
0.00325373
0.00220429
0.00153181
0.00106079
0.000714943
0.000481248
0.000340164
0.000261264
0.000218848
0.00019669
0.000185789
0.000181326
0.000180669
0.000182309
0.000185345
0.000189248
0.00019375
0.000198796
0.000204529
0.000211259
0.000219554
0.000230092
0.000244419
0.000263265
0.0002933
0.000328497
0.000416035
0.000497027
0.304688
0.200803
0.135482
0.0676833
0.0153791
0.00195494
0.00180889
0.00237957
0.00324134
0.00463144
0.00647654
0.00877896
0.0210354
0.0306467
0.043407
0.0271014
0.0110592
0.00728704
0.00828975
0.0100223
0.0120129
0.0139492
0.0155485
0.0166209
0.0170073
0.0167545
0.0159789
0.0147393
0.0129594
0.0105451
0.00764527
0.00530986
0.00358403
0.00240627
0.00166828
0.0011788
0.000817784
0.000558648
0.000391647
0.000293275
0.000238048
0.000207763
0.000191658
0.00018381
0.00018096
0.000181232
0.000183479
0.000186979
0.000191303
0.000196257
0.000201873
0.000208382
0.000216301
0.00022628
0.000239855
0.000257764
0.00028671
0.000320716
0.00040699
0.000486008
0.303165
0.190505
0.132151
0.0762944
0.0231047
0.00291718
0.00200624
0.00249189
0.00332408
0.00469211
0.00638314
0.00819516
0.017928
0.0312112
0.0393029
0.0222633
0.00974564
0.00748859
0.00906062
0.0112019
0.0135599
0.0157456
0.0174435
0.0184549
0.0186493
0.0181257
0.0170726
0.0156085
0.0136763
0.0111611
0.00819681
0.0057852
0.00392272
0.00261557
0.00179626
0.0012803
0.000911441
0.0006363
0.000447557
0.000330165
0.000261348
0.000222017
0.000199925
0.000188062
0.000182516
0.000181029
0.000182213
0.000185158
0.000189267
0.000194201
0.000199863
0.000206389
0.000214227
0.000223991
0.000237197
0.000254588
0.000282877
0.000316146
0.000401317
0.00047861
0.301915
0.182392
0.127922
0.0824892
0.031246
0.00498456
0.00232043
0.00269237
0.00352775
0.00490601
0.00648679
0.00777188
0.0148761
0.030174
0.0341944
0.0184902
0.00888927
0.00784118
0.00993361
0.0125123
0.0152558
0.0176891
0.019465
0.0203825
0.020345
0.0195081
0.01814
0.0164257
0.0143289
0.0117142
0.0087128
0.00624204
0.00426209
0.00283271
0.00192233
0.00136772
0.000991896
0.000709105
0.000504539
0.000370133
0.000287801
0.000238941
0.00021032
0.00019395
0.000185273
0.000181655
0.000181471
0.000183637
0.000187404
0.000192282
0.000198041
0.000204703
0.000212636
0.000222398
0.000235479
0.000252619
0.000280514
0.000313321
0.00039741
0.000473134
0.300881
0.176017
0.123277
0.0863703
0.0392394
0.0085344
0.00281539
0.00297862
0.00384114
0.00526198
0.00677458
0.00750277
0.0123584
0.0272247
0.0289871
0.0155961
0.00836591
0.00831348
0.0109043
0.0139472
0.0170877
0.0197606
0.0215916
0.0223833
0.0220777
0.0208896
0.0191734
0.0171862
0.0149143
0.0122011
0.00919002
0.0066725
0.00459413
0.00305482
0.00205074
0.0014457
0.00105824
0.00077305
0.000559145
0.000411013
0.000316158
0.000257806
0.000222414
0.000201237
0.000189126
0.000183076
0.000181245
0.000182397
0.000185647
0.00019037
0.000196202
0.000203043
0.000211164
0.000221058
0.000234173
0.000251237
0.00027891
0.000311426
0.000394417
0.000468675
0.300021
0.171018
0.118572
0.0881993
0.0466343
0.0135416
0.00362894
0.00335425
0.00425583
0.00575484
0.00724919
0.00744438
0.0104014
0.0231638
0.0242453
0.0134072
0.00809246
0.00888587
0.0119685
0.0154975
0.0190393
0.0219388
0.0238006
0.0244366
0.0238309
0.0222583
0.0201655
0.0178866
0.0154309
0.0126203
0.00962664
0.00707048
0.0049117
0.0032773
0.00218294
0.00151913
0.00111218
0.00082588
0.000608387
0.000450548
0.000344973
0.000277711
0.000235642
0.000209581
0.000193885
0.000185215
0.000181524
0.000181451
0.000184001
0.000188437
0.000194271
0.000201282
0.000209632
0.000219736
0.000232988
0.000250094
0.000277661
0.000309999
0.000391883
0.000464753
0.299302
0.167106
0.114053
0.0883254
0.053038
0.019624
0.00507574
0.00383831
0.00476653
0.00638343
0.00791805
0.00763855
0.00900325
0.0189837
0.020231
0.0117781
0.00801231
0.00954553
0.0131211
0.0171517
0.0210929
0.0242021
0.0260698
0.0265227
0.0255885
0.0236027
0.0211097
0.0185241
0.0158779
0.0129713
0.0100218
0.00743124
0.00520897
0.00349509
0.00231809
0.00159173
0.001157
0.000867409
0.000649696
0.000486615
0.000372749
0.000297674
0.000249356
0.000218558
0.000199293
0.000187934
0.000182259
0.000180801
0.000182489
0.000186498
0.000192238
0.000199372
0.000207955
0.00021831
0.000231765
0.000248996
0.000276537
0.000308774
0.000389562
0.00046111
0.298699
0.164054
0.109873
0.0871306
0.058172
0.0262656
0.00745854
0.00447977
0.00537149
0.00714867
0.00878872
0.00810174
0.00812477
0.0153798
0.0170033
0.0105933
0.00808636
0.0102835
0.0143556
0.0188969
0.0232304
0.0265305
0.0283796
0.0286244
0.0273363
0.0249126
0.0220002
0.0190969
0.0162557
0.0132615
0.010369
0.00775093
0.00548146
0.00370347
0.00245396
0.00166555
0.0011964
0.000898766
0.000682001
0.00051732
0.000398061
0.000316706
0.000262884
0.000227709
0.000205045
0.000191051
0.000183361
0.000180426
0.000181125
0.000184579
0.000190117
0.000197308
0.000206099
0.000216719
0.000230417
0.000247829
0.000275405
0.000307599
0.000387318
0.000457609
0.298193
0.161678
0.106117
0.0849886
0.0618925
0.0329757
0.0108829
0.00538523
0.00607476
0.00805241
0.00986892
0.00883683
0.00770806
0.0126313
0.0145106
0.00976331
0.00828714
0.0110925
0.0156645
0.0207193
0.0254347
0.0289061
0.0307133
0.0307265
0.0290614
0.0261785
0.0228319
0.0196038
0.0165654
0.0135032
0.0106586
0.0080268
0.00572581
0.00389839
0.00258766
0.00174105
0.00123351
0.000922246
0.000705477
0.000541581
0.000419736
0.000333909
0.000275584
0.00023658
0.000210824
0.000194358
0.00018471
0.000180276
0.000179908
0.0001827
0.000187935
0.000195104
0.00020406
0.000214937
0.000228899
0.00024653
0.000274186
0.000306379
0.000385074
0.000454175
0.297765
0.159836
0.102819
0.0822375
0.0641836
0.0392984
0.015259
0.00672999
0.00689231
0.00909678
0.0111675
0.00984528
0.00769663
0.010726
0.0126552
0.00921929
0.00859507
0.0119665
0.0170389
0.022605
0.0276896
0.0313135
0.033057
0.0328163
0.0307527
0.0273921
0.0236006
0.0200445
0.0168085
0.0137009
0.0108903
0.00825722
0.00593965
0.00407668
0.00271626
0.0018175
0.00127049
0.000940857
0.000721472
0.0005592
0.000437037
0.000348564
0.0002869
0.000244758
0.000216328
0.000197642
0.000186171
0.00018028
0.000178817
0.000180875
0.000185717
0.000192784
0.000201848
0.000212959
0.000227187
0.000245063
0.000272831
0.00030506
0.000382782
0.000450761
0.297404
0.158415
0.0999798
0.0791633
0.0651367
0.0448546
0.0203868
0.00868459
0.0078652
0.0102853
0.0126942
0.0111337
0.00804201
0.00952913
0.0113311
0.00890861
0.00899583
0.0128992
0.0184694
0.02454
0.0299804
0.0337396
0.035399
0.0348827
0.0323996
0.0285456
0.0243026
0.0204193
0.0169874
0.0138591
0.0110654
0.00844144
0.00612132
0.00423596
0.00283711
0.0018935
0.00130838
0.000957138
0.000731918
0.000570757
0.000449655
0.0003602
0.000296404
0.000251904
0.000221296
0.000200708
0.000187608
0.000180358
0.000177819
0.000179105
0.000183484
0.000190371
0.000199483
0.00021079
0.000225276
0.000243408
0.000271311
0.000303604
0.00038041
0.000447339
0.297098
0.157326
0.0975756
0.0759934
0.0649225
0.0493652
0.0259647
0.0113769
0.00907692
0.0116293
0.0144577
0.0127165
0.00870378
0.00889331
0.010443
0.00879089
0.00947861
0.0138842
0.0199454
0.0265106
0.0322934
0.0361726
0.0377289
0.0369152
0.0339922
0.0296316
0.0249345
0.0207289
0.0171044
0.0139823
0.0111854
0.00857951
0.00626989
0.00437456
0.00294801
0.00196736
0.00134727
0.000972928
0.000738865
0.000577385
0.000457808
0.000368641
0.000303834
0.000257771
0.000225519
0.000203388
0.000188897
0.000180427
0.000176871
0.00017738
0.000181248
0.00018789
0.000196986
0.000208446
0.000223168
0.000241556
0.000269609
0.00030199
0.000377935
0.000443886
0.296839
0.156499
0.0955703
0.0728971
0.0637603
0.052662
0.031631
0.0148541
0.0106423
0.0131378
0.0164626
0.0146161
0.00964839
0.00870056
0.00991245
0.00883501
0.0100348
0.0149146
0.021456
0.0285028
0.0346151
0.0386012
0.0400363
0.0389031
0.0355198
0.0306424
0.0254934
0.0209739
0.0171835
0.0140554
0.011252
0.00867216
0.006385
0.00449143
0.0030473
0.00203742
0.00138662
0.000989283
0.000744111
0.000580482
0.00046214
0.000374004
0.000309102
0.000262218
0.000228856
0.000205557
0.000189932
0.000180411
0.000175929
0.000175685
0.000179017
0.000185361
0.000194381
0.000205944
0.000220871
0.000239508
0.000267715
0.000300202
0.000375338
0.000440384
0.296618
0.155879
0.0939216
0.0699913
0.0618898
0.0546866
0.0370108
0.0190575
0.0126806
0.0147954
0.0187035
0.0168626
0.0108488
0.00886752
0.009678
0.00901687
0.0106569
0.0159828
0.0229895
0.0305026
0.0369318
0.0410134
0.0423099
0.0408341
0.0369709
0.0315702
0.0259766
0.0211546
0.017237
0.0140756
0.0112673
0.00872078
0.00646687
0.00458604
0.00313377
0.00210223
0.00142555
0.00100657
0.000748985
0.000581437
0.000463535
0.000376656
0.000312296
0.000265215
0.000231234
0.00020713
0.000190636
0.000180245
0.000174948
0.000174
0.000176793
0.000182799
0.00019169
0.000203303
0.000218399
0.000237266
0.000265626
0.000298231
0.000372606
0.000436817
0.296429
0.155422
0.092585
0.0673489
0.0595457
0.0554809
0.0417598
0.0238178
0.0152682
0.0166582
0.0211603
0.0194905
0.0122865
0.00933725
0.00969271
0.00931768
0.0113385
0.0170807
0.0245338
0.0324957
0.0392292
0.043396
0.0445361
0.0426942
0.0383325
0.0324064
0.0263813
0.0212721
0.0172706
0.0140451
0.0112342
0.00872729
0.00651624
0.0046583
0.00320669
0.00216062
0.00146306
0.00102464
0.000754302
0.000581427
0.000462944
0.000377126
0.000313643
0.00026683
0.000232648
0.00020807
0.000190958
0.000179882
0.000173892
0.000172305
0.000174573
0.000180218
0.000188933
0.000200547
0.000215768
0.000234841
0.000263343
0.000296072
0.000369729
0.000433174
0.296268
0.155093
0.0915173
0.0650072
0.0569405
0.0551684
0.0455999
0.0288739
0.0184385
0.0188036
0.0237909
0.0225339
0.0139556
0.01007
0.00992114
0.00972266
0.0120727
0.0181995
0.0260761
0.0344668
0.0414916
0.0457335
0.0466988
0.0444667
0.03959
0.0331421
0.0267056
0.0213528
0.0172655
0.0139661
0.0111557
0.00869401
0.00653428
0.0047085
0.00326569
0.00221174
0.0014982
0.00104306
0.000760412
0.00058131
0.000461243
0.000376012
0.00031347
0.000267212
0.000233148
0.000208377
0.000190874
0.000179289
0.000172733
0.000170583
0.000172354
0.000177627
0.000186128
0.000197694
0.000212998
0.000232244
0.000260871
0.000293725
0.0003667
0.000429445
0.296129
0.154866
0.090678
0.0629775
0.0542522
0.0539306
0.0483434
0.0339057
0.0221597
0.0212984
0.0265551
0.0260177
0.0158699
0.0110369
0.0103367
0.01022
0.0128531
0.0193299
0.0276032
0.0364
0.0437014
0.0480079
0.0487786
0.0461324
0.0407276
0.033768
0.0269472
0.0214164
0.0172107
0.0138407
0.0110349
0.00862362
0.00652258
0.0047373
0.00331075
0.00225503
0.00153017
0.00106125
0.000767318
0.000581613
0.000459135
0.000373905
0.000312151
0.000266565
0.000232834
0.000208089
0.000190389
0.000178453
0.000171452
0.000168819
0.000170132
0.000175033
0.000183291
0.000194766
0.000210106
0.00022949
0.00025822
0.000291192
0.000363514
0.00042562
0.29601
0.154719
0.0900307
0.0612523
0.0516202
0.051982
0.0499047
0.0385745
0.0263221
0.0241551
0.0294343
0.0299443
0.0180715
0.0122171
0.0109195
0.0108002
0.0136729
0.020462
0.0291012
0.0382782
0.0458391
0.0501977
0.0507522
0.0476691
0.0417282
0.0342751
0.027123
0.0214536
0.0171055
0.0136716
0.0108751
0.00851906
0.00648306
0.00474562
0.00334212
0.00229019
0.00155834
0.00107861
0.000774795
0.000582571
0.000457119
0.000371312
0.000310057
0.000265121
0.000231833
0.000207267
0.000189524
0.000177376
0.000170039
0.000167004
0.000167903
0.00017244
0.000180437
0.000191782
0.000207113
0.000226595
0.000255399
0.000288479
0.000360171
0.000421695
0.295907
0.154635
0.0895434
0.0598121
0.0491446
0.0495451
0.0502984
0.0425645
0.0307388
0.0273611
0.0324067
0.0342747
0.0206372
0.0135962
0.0116557
0.0114557
0.0145255
0.021586
0.0305557
0.0400831
0.0478828
0.0522781
0.0525927
0.0490522
0.0425743
0.0346551
0.0272727
0.0214333
0.01695
0.0134613
0.0106798
0.00838347
0.00641792
0.00473469
0.00336026
0.00231717
0.0015823
0.00109459
0.000782505
0.0005842
0.000455486
0.000368624
0.000307524
0.000263112
0.000230289
0.000205994
0.000188321
0.00017607
0.000168497
0.000165133
0.000165665
0.000169855
0.000177576
0.000188759
0.000204039
0.000223578
0.000252423
0.000285595
0.000356672
0.000417666
0.295817
0.1546
0.089188
0.0586305
0.0468902
0.0468304
0.0496268
0.0456185
0.0351601
0.0308632
0.0354784
0.0389052
0.0236801
0.0151667
0.0125368
0.0121813
0.0154057
0.0226925
0.0319517
0.0417943
0.0498076
0.0542195
0.0542689
0.0502549
0.0432486
0.0349412
0.027375
0.0213481
0.0167454
0.0132127
0.0104525
0.00822013
0.00632958
0.00470592
0.00336587
0.00233609
0.00160178
0.00110877
0.000790077
0.000586372
0.000454363
0.000366103
0.000304822
0.000260752
0.000228347
0.000204358
0.000186828
0.000174559
0.000166831
0.000163207
0.000163418
0.00016728
0.00017472
0.000185712
0.000200901
0.000220457
0.000249307
0.000282549
0.000353022
0.000413532
0.295739
0.154603
0.0889409
0.0576777
0.044892
0.0440212
0.048059
0.0475657
0.0392992
0.0345568
0.0386541
0.0436906
0.0273415
0.0169276
0.0135603
0.0129761
0.0163141
0.0237743
0.0332727
0.0433884
0.0515845
0.0559873
0.0557451
0.0512486
0.0437413
0.0351765
0.0273932
0.0211955
0.016493
0.0129287
0.0101968
0.00803242
0.00622062
0.00466095
0.00335978
0.00234725
0.00161669
0.00112081
0.00079716
0.000588884
0.000453747
0.000363895
0.000302152
0.000258221
0.000226143
0.000202452
0.000185102
0.000172876
0.000165057
0.000161231
0.000161165
0.000164721
0.000171878
0.000182657
0.000197719
0.000217249
0.000246067
0.000279354
0.000349228
0.000409296
0.295671
0.154635
0.0887819
0.0569236
0.043162
0.0412651
0.0458054
0.0483356
0.0428653
0.0382827
0.0419319
0.0484454
0.0317668
0.018886
0.0147299
0.013851
0.0172721
0.0248308
0.0345001
0.0448353
0.053178
0.057539
0.0569809
0.0520028
0.0441271
0.0353048
0.0273154
0.0209755
0.016195
0.0126125
0.00991612
0.00782376
0.00609372
0.00460151
0.00334296
0.00235108
0.00162705
0.00113051
0.000803455
0.000591504
0.000453556
0.000362057
0.000299641
0.00025566
0.000223795
0.000200361
0.0001832
0.000171054
0.000163193
0.000159214
0.00015891
0.000162183
0.000169059
0.000179607
0.000194508
0.000213973
0.000242719
0.000276024
0.000345298
0.000404961
0.295612
0.154688
0.0886939
0.0563391
0.041695
0.0386708
0.0430911
0.0479596
0.0455995
0.0418344
0.045204
0.0529427
0.0370586
0.0210659
0.0160495
0.0148231
0.0182786
0.0258722
0.0356522
0.0461243
0.0545423
0.0588221
0.0579473
0.0525664
0.0443671
0.0353026
0.0271378
0.0206891
0.015854
0.0122673
0.00961422
0.0075976
0.00595166
0.00452949
0.00331652
0.0023481
0.00163302
0.00113774
0.000808725
0.000594006
0.000453664
0.000360574
0.00029736
0.000253168
0.000221399
0.000198162
0.000181179
0.000169129
0.00016126
0.000157167
0.000156658
0.00015967
0.00016627
0.000176573
0.000191285
0.000210647
0.000239283
0.000272575
0.000341245
0.000400533
0.29556
0.154758
0.0886626
0.0558976
0.0404746
0.03631
0.0401329
0.0465593
0.0473067
0.0449764
0.0482735
0.0570728
0.0430638
0.0235339
0.0175155
0.0158993
0.0193276
0.0268916
0.0367195
0.0472517
0.0556761
0.05983
0.0586567
0.0529276
0.0444382
0.0351604
0.0268603
0.0203387
0.0154729
0.0118966
0.0092947
0.00735737
0.00579722
0.00444682
0.00328162
0.00233892
0.00163482
0.00114249
0.000812805
0.000596194
0.000453926
0.000359393
0.000295335
0.000250811
0.000219029
0.000195922
0.000179089
0.000167138
0.000159282
0.000155103
0.000154418
0.000157189
0.000163519
0.000173566
0.000188063
0.000207286
0.000235774
0.000269022
0.00033708
0.000396019
0.295514
0.154838
0.0886762
0.0555752
0.0394778
0.0342218
0.0371208
0.0443246
0.0478797
0.0474709
0.05101
0.0607887
0.0494141
0.0264437
0.01916
0.0170842
0.0204135
0.027883
0.0376942
0.0482112
0.0565774
0.0605686
0.0591137
0.0530766
0.0443288
0.0348754
0.0264853
0.0199277
0.0150553
0.011504
0.00896121
0.00710645
0.00563319
0.00435548
0.00323949
0.00232423
0.00163275
0.00114479
0.000815589
0.000597907
0.000454202
0.000358434
0.000293551
0.00024862
0.000216736
0.000193692
0.000176974
0.000165114
0.00015728
0.000153036
0.000152199
0.000154746
0.000160812
0.000170596
0.000184857
0.000203908
0.00023221
0.00026538
0.000332817
0.000391428
0.295474
0.154927
0.0887247
0.0553509
0.0386784
0.0324195
0.0342071
0.0414865
0.0473114
0.0491066
0.0532529
0.0639953
0.0557788
0.0299745
0.0209997
0.0183816
0.0215317
0.0288416
0.0385699
0.0489993
0.057247
0.0610438
0.0593204
0.0530073
0.0440345
0.0344498
0.0260173
0.0194606
0.014605
0.0110931
0.00861734
0.00684815
0.0054623
0.00425747
0.00319141
0.00230475
0.00162716
0.00114476
0.000817032
0.000599022
0.000454366
0.000357611
0.000291974
0.000246605
0.000214553
0.000191512
0.000174871
0.000163086
0.000155277
0.000150981
0.000150009
0.000152348
0.000158157
0.000167672
0.000181677
0.000200527
0.000228608
0.000261668
0.000328471
0.000386771
0.295439
0.155019
0.0887998
0.0552067
0.0380495
0.0308972
0.0315017
0.0382872
0.0456933
0.0497281
0.0548297
0.0665696
0.0619551
0.0341384
0.0230458
0.0197938
0.0226784
0.0297638
0.0393421
0.0496146
0.0576873
0.0612615
0.0592789
0.0527173
0.0435563
0.0338886
0.0254626
0.0189427
0.0141264
0.0106677
0.00826663
0.0065857
0.00528724
0.00415476
0.00313867
0.00228124
0.00161844
0.00114255
0.000817135
0.000599461
0.000454314
0.000356838
0.000290558
0.000244756
0.000212497
0.000189411
0.00017281
0.00016108
0.000153293
0.000148952
0.000147857
0.00015
0.000155559
0.000164802
0.000178535
0.000197155
0.000224983
0.0002579
0.000324056
0.00038206
0.295408
0.155114
0.0888946
0.0551272
0.0375655
0.0296363
0.0290738
0.034954
0.0431993
0.0492599
0.0555784
0.0683679
0.0676873
0.0389087
0.0253219
0.0213207
0.0238505
0.0306469
0.0400081
0.0500574
0.0579024
0.061228
0.0589927
0.0522085
0.042899
0.0332
0.0248292
0.01838
0.013624
0.0102318
0.00791255
0.00632219
0.00511061
0.00404932
0.00308258
0.00225449
0.001607
0.00113836
0.000815942
0.000599177
0.000453964
0.000356038
0.000289251
0.000243055
0.000210571
0.000187407
0.000170814
0.000159119
0.000151344
0.000146961
0.000145752
0.000147709
0.000153025
0.000161992
0.00017544
0.000193807
0.000221351
0.000254092
0.000319589
0.000377305
0.29538
0.15521
0.0890034
0.0550992
0.0372029
0.0286108
0.026957
0.0316793
0.0400607
0.0477194
0.0553715
0.0691933
0.0726943
0.0441992
0.0278614
0.0229617
0.0250456
0.031489
0.0405665
0.05033
0.0578977
0.0609505
0.0584667
0.0514858
0.0420712
0.0323945
0.0241263
0.0177791
0.0131025
0.00978901
0.00755848
0.00606062
0.00493491
0.00394305
0.00302444
0.0022253
0.00159327
0.00113239
0.000813528
0.000598157
0.000453261
0.000355147
0.000288004
0.000241476
0.000208773
0.000185509
0.000168899
0.00015722
0.000149447
0.00014502
0.000143702
0.000145482
0.000150559
0.000159249
0.0001724
0.000190493
0.000217724
0.000250261
0.000315083
0.000372519
0.295356
0.155304
0.0891217
0.0551119
0.0369405
0.0277912
0.0251568
0.0286095
0.0365339
0.0452179
0.0541409
0.068923
0.0766973
0.0498482
0.0307001
0.0247176
0.0262612
0.0322886
0.0410176
0.0504355
0.0576797
0.0604368
0.0577082
0.0505577
0.0410845
0.0314847
0.0233641
0.0171468
0.0125665
0.00934322
0.00720764
0.00580384
0.00476257
0.00383782
0.00296555
0.00219448
0.00157776
0.00112492
0.00081
0.000596415
0.000452169
0.000354115
0.000286772
0.000239991
0.000207093
0.000183723
0.000167077
0.000155396
0.000147614
0.00014314
0.000141716
0.000143324
0.000148166
0.000156578
0.000169424
0.000187223
0.000214116
0.000246419
0.000310553
0.000367716
0.295335
0.155396
0.0892455
0.055156
0.0367602
0.0271478
0.023659
0.0258412
0.0328689
0.041947
0.051895
0.0675269
0.0793287
0.0556151
0.033864
0.026592
0.0274953
0.0330448
0.0413626
0.0503787
0.057256
0.059696
0.0567268
0.0494356
0.0399529
0.0304849
0.0225535
0.0164902
0.0120209
0.00889801
0.00686314
0.00555457
0.0045959
0.00373544
0.00290717
0.00216283
0.00156101
0.00111621
0.000805478
0.000593987
0.000450675
0.000352907
0.000285519
0.000238575
0.000205519
0.000182046
0.000165355
0.000153657
0.000145855
0.000141329
0.0001398
0.000141239
0.00014585
0.000153985
0.000166517
0.000184006
0.000210539
0.000242581
0.000306016
0.000362907
0.295316
0.155485
0.0893721
0.0552237
0.0366461
0.0266526
0.0224368
0.0234257
0.0292826
0.0381525
0.0487269
0.0650139
0.080448
0.0612025
0.0373567
0.0285926
0.0287467
0.0337564
0.0416037
0.0501652
0.0566352
0.0587385
0.055534
0.0481336
0.0386933
0.0294107
0.0217059
0.0158162
0.01147
0.00845689
0.00652792
0.00531541
0.00443713
0.00363769
0.00285055
0.00213116
0.00154347
0.00110653
0.0008001
0.000590927
0.000448782
0.0003515
0.000284217
0.000237203
0.000204037
0.000180477
0.000163735
0.00015201
0.000144178
0.000139594
0.000137958
0.000139232
0.000143616
0.000151473
0.000163686
0.000180851
0.000207003
0.00023876
0.000301483
0.000358104
0.295299
0.155572
0.089499
0.0553088
0.0365849
0.02628
0.0214573
0.0213764
0.0259414
0.0341021
0.0448099
0.0614491
0.0800071
0.066276
0.0411462
0.0307293
0.0300162
0.0344232
0.0417438
0.0498014
0.0558268
0.0575758
0.0541437
0.0466686
0.0373243
0.0282787
0.0208324
0.0151312
0.0109183
0.00802313
0.00620476
0.00508884
0.00428842
0.00354628
0.00279695
0.00210027
0.00152561
0.00109615
0.000794018
0.000587304
0.00044651
0.000349887
0.000282847
0.000235857
0.000202634
0.000179009
0.00016222
0.00015046
0.00014259
0.000137941
0.000136197
0.000137306
0.000141466
0.000149045
0.000160936
0.000177764
0.000203518
0.000234966
0.000296969
0.000353321
0.295284
0.155654
0.0896244
0.0554061
0.0365655
0.0260075
0.0206854
0.0196796
0.0229546
0.0300502
0.0403795
0.0569654
0.0780067
0.0704896
0.0451536
0.0330111
0.0313071
0.0350454
0.0417863
0.0492945
0.0548413
0.0562212
0.0525719
0.04506
0.0358666
0.0271061
0.019944
0.0144415
0.0103695
0.00759982
0.00589633
0.00487728
0.00415191
0.00346293
0.0027476
0.00207097
0.00150794
0.00108536
0.000787392
0.000583202
0.000443892
0.000348072
0.000281399
0.000234525
0.000201302
0.000177638
0.000160807
0.000149009
0.000141093
0.000136375
0.00013452
0.000135465
0.000139403
0.000146705
0.000158269
0.000174751
0.000200092
0.000231211
0.000292485
0.000348569
0.295272
0.155733
0.0897472
0.0555113
0.0365783
0.0258161
0.0200873
0.0183041
0.0203772
0.02621
0.0357048
0.0517638
0.0745247
0.0735198
0.0492468
0.0354397
0.0326259
0.035625
0.0417354
0.0486529
0.0536906
0.0546894
0.0508371
0.0433297
0.0343423
0.0259101
0.0190508
0.0137525
0.00982745
0.0071898
0.00560514
0.00468309
0.00402969
0.00338933
0.00270371
0.00204404
0.00149094
0.00107446
0.000780392
0.000578713
0.000440974
0.000346069
0.00027987
0.000233197
0.00020003
0.000176358
0.000159496
0.000147659
0.000139691
0.000134897
0.000132929
0.00013371
0.000137427
0.000144454
0.000155689
0.000171818
0.000196733
0.000227504
0.000288043
0.000343858
0.29526
0.155807
0.0898662
0.0556211
0.0366158
0.0256893