/*--------------------------------*- C++ -*----------------------------------*\
| =========                 |                                                 |
| \\      /  F ield         | OpenFOAM: The Open Source CFD Toolbox           |
|  \\    /   O peration     | Version:  2.4.0                                 |
|   \\  /    A nd           | Web:      www.OpenFOAM.org                      |
|    \\/     M anipulation  |                                                 |
\*---------------------------------------------------------------------------*/
FoamFile
{
    version     2.0;
    format      ascii;
    class       surfaceScalarField;
    location    "1.75";
    object      phi;
}
// * * * * * * * * * * * * * * * * * * * * * * * * * * * * * * * * * * * * * //

dimensions      [0 3 -1 0 0 0 0];

internalField   nonuniform List<scalar> 
11840
(
7.80897e-07
9.2191e-06
-9.31463e-07
1.71236e-06
6.30069e-07
-1.56153e-06
1.85009e-07
4.4506e-07
-1.75599e-08
2.02569e-07
-4.46438e-08
2.70839e-08
3.62609e-07
-4.07252e-07
1.37332e-06
-1.01071e-06
3.34704e-06
-1.97372e-06
5.12657e-06
-1.77953e-06
5.24104e-06
-1.14471e-07
4.50683e-06
7.34213e-07
3.48575e-06
1.02108e-06
9.43413e-07
2.54234e-06
-3.21938e-06
4.1628e-06
-7.72588e-06
4.50649e-06
-1.13667e-05
3.64084e-06
-1.37285e-05
2.3618e-06
-1.48032e-05
1.07471e-06
-1.47245e-05
-7.8699e-08
-1.37611e-05
-9.63377e-07
-1.21214e-05
-1.63977e-06
-9.94111e-06
-2.18026e-06
-7.43825e-06
-2.50287e-06
-4.9118e-06
-2.52645e-06
-2.64976e-06
-2.26204e-06
-8.0466e-07
-1.8451e-06
6.09608e-07
-1.41427e-06
1.63642e-06
-1.02681e-06
2.3514e-06
-7.14989e-07
2.85549e-06
-5.0409e-07
3.22982e-06
-3.74325e-07
3.53277e-06
-3.02955e-07
3.80241e-06
-2.69638e-07
4.06069e-06
-2.58279e-07
4.31803e-06
-2.57339e-07
4.57736e-06
-2.59333e-07
4.83729e-06
-2.59923e-07
5.09425e-06
-2.5696e-07
5.34387e-06
-2.4962e-07
5.58166e-06
-2.37794e-07
5.80344e-06
-2.21775e-07
6.00561e-06
-2.02172e-07
6.1855e-06
-1.79889e-07
6.34157e-06
-1.56077e-07
6.47361e-06
-1.32036e-07
6.58266e-06
-1.09052e-07
6.6709e-06
-8.82401e-08
6.74129e-06
-7.03897e-08
6.79726e-06
-5.5965e-08
6.84221e-06
-4.49533e-08
6.87947e-06
-3.72633e-08
6.91094e-06
-3.14698e-08
6.94104e-06
-3.0094e-08
6.96493e-06
-2.38948e-08
7.00402e-06
-3.90894e-08
7.00926e-06
-5.24478e-09
7.12411e-06
-1.14841e-07
6.99989e-06
1.24221e-07
-5.95967e-07
2.44769e-06
1.67714e-05
-5.04902e-07
4.66495e-06
3.112e-07
-2.37763e-06
-7.51692e-08
8.31429e-07
-9.74209e-08
2.24821e-07
-1.62405e-07
9.20685e-08
2.27214e-07
-7.96872e-07
1.19482e-06
-1.97831e-06
3.13592e-06
-3.91483e-06
5.06568e-06
-3.70929e-06
5.676e-06
-7.24786e-07
5.09863e-06
1.31158e-06
2.90624e-06
3.21346e-06
-1.94741e-06
7.39599e-06
-7.89657e-06
1.0112e-05
-1.23079e-05
8.91786e-06
-1.46816e-05
6.01452e-06
-1.56793e-05
3.35946e-06
-1.58335e-05
1.22891e-06
-1.53658e-05
-5.46405e-07
-1.42399e-05
-2.08922e-06
-1.2465e-05
-3.41475e-06
-1.01841e-05
-4.46116e-06
-7.59781e-06
-5.08911e-06
-4.97663e-06
-5.14763e-06
-2.58689e-06
-4.65178e-06
-5.95688e-07
-3.8363e-06
9.74796e-07
-2.98475e-06
2.13375e-06
-2.18577e-06
2.96716e-06
-1.5484e-06
3.57151e-06
-1.10844e-06
4.02952e-06
-8.32338e-07
4.40376e-06
-6.77195e-07
4.73623e-06
-6.02107e-07
5.05167e-06
-5.73725e-07
5.36206e-06
-5.67727e-07
5.67091e-06
-5.6818e-07
5.97683e-06
-5.65841e-07
6.27604e-06
-5.56173e-07
6.56391e-06
-5.37486e-07
6.83573e-06
-5.09614e-07
7.08719e-06
-4.73232e-07
7.31466e-06
-4.29649e-07
7.51553e-06
-3.80759e-07
7.68842e-06
-3.2896e-07
7.83332e-06
-2.76937e-07
7.95162e-06
-2.27352e-07
8.04588e-06
-1.82506e-07
8.11953e-06
-1.44036e-07
8.17642e-06
-1.12854e-07
8.22035e-06
-8.88854e-08
8.25505e-06
-7.19606e-08
8.28311e-06
-5.9529e-08
8.30796e-06
-5.49512e-08
8.32834e-06
-4.42753e-08
8.35641e-06
-6.71504e-08
8.36465e-06
-1.34873e-08
8.46008e-06
-2.10274e-07
8.44656e-06
1.37742e-07
-1.08663e-06
3.60196e-06
2.31695e-05
1.2705e-08
8.2542e-06
1.72859e-08
-2.38221e-06
-2.97226e-07
1.14594e-06
-1.99799e-07
1.27394e-07
-2.76532e-07
1.68801e-07
4.75958e-08
-1.121e-06
9.06642e-07
-2.83736e-06
2.73951e-06
-5.74769e-06
4.65922e-06
-5.62901e-06
5.36367e-06
-1.42923e-06
4.53879e-06
2.13645e-06
1.24081e-06
6.51145e-06
-4.59205e-06
1.32288e-05
-9.94776e-06
1.54677e-05
-1.29728e-05
1.19429e-05
-1.45619e-05
7.60364e-06
-1.54878e-05
4.28541e-06
-1.57662e-05
1.50732e-06
-1.53253e-05
-9.87336e-07
-1.41694e-05
-3.24509e-06
-1.23792e-05
-5.20501e-06
-1.00913e-05
-6.74904e-06
-7.50936e-06
-7.67105e-06
-4.89655e-06
-7.76045e-06
-2.50362e-06
-7.04471e-06
-4.9507e-07
-5.84485e-06
1.10184e-06
-4.58167e-06
2.29558e-06
-3.37951e-06
3.16964e-06
-2.42245e-06
3.81509e-06
-1.75388e-06
4.31261e-06
-1.32986e-06
4.72473e-06
-1.08932e-06
5.09428e-06
-9.71653e-07
5.4468e-06
-9.26252e-07
5.79465e-06
-9.15569e-07
6.14114e-06
-9.14674e-07
6.4843e-06
-9.09001e-07
6.81953e-06
-8.91405e-07
7.14136e-06
-8.59312e-07
7.44436e-06
-8.12614e-07
7.72368e-06
-7.52559e-07
7.9754e-06
-6.81361e-07
8.19674e-06
-6.021e-07
8.38635e-06
-5.18575e-07
8.54441e-06
-4.34991e-07
8.67253e-06
-3.5548e-07
8.77364e-06
-2.83609e-07
8.85151e-06
-2.21913e-07
8.91045e-06
-1.71793e-07
8.95473e-06
-1.33168e-07
8.98837e-06
-1.05597e-07
9.01452e-06
-8.56793e-08
9.03669e-06
-7.71259e-08
9.05472e-06
-6.23033e-08
9.0785e-06
-9.09238e-08
9.08761e-06
-2.26036e-08
9.16494e-06
-2.87602e-07
9.16472e-06
1.37961e-07
-1.52182e-06
4.52239e-06
2.86471e-05
7.41831e-07
1.20348e-05
-2.69859e-07
-1.37052e-06
-4.51866e-07
1.32795e-06
-2.9904e-07
-2.54318e-08
-3.95956e-07
2.65716e-07
-1.74046e-07
-1.34291e-06
5.75627e-07
-3.58703e-06
2.27718e-06
-7.44925e-06
4.15901e-06
-7.51084e-06
4.87033e-06
-2.14055e-06
3.64121e-06
3.36558e-06
-5.36199e-07
1.06889e-05
-6.36148e-06
1.90541e-05
-1.05059e-05
1.96121e-05
-1.27128e-05
1.41497e-05
-1.42743e-05
9.16509e-06
-1.53208e-05
5.33193e-06
-1.56454e-05
1.83195e-06
-1.5205e-05
-1.42779e-06
-1.4039e-05
-4.41108e-06
-1.22367e-05
-7.00726e-06
-9.93731e-06
-9.04845e-06
-7.35267e-06
-1.02557e-05
-4.75248e-06
-1.03606e-05
-2.38214e-06
-9.41504e-06
-3.9559e-07
-7.8314e-06
1.18801e-06
-6.16527e-06
2.37709e-06
-4.56858e-06
3.25386e-06
-3.29923e-06
3.90599e-06
-2.40601e-06
4.41261e-06
-1.83648e-06
4.83583e-06
-1.51253e-06
5.21864e-06
-1.35446e-06
5.58695e-06
-1.29456e-06
5.95328e-06
-1.2819e-06
6.32085e-06
-1.28224e-06
6.68722e-06
-1.27537e-06
7.04706e-06
-1.25125e-06
7.39397e-06
-1.20623e-06
7.72157e-06
-1.14021e-06
8.02406e-06
-1.05505e-06
8.29671e-06
-9.54018e-07
8.5362e-06
-8.41585e-07
8.7408e-06
-7.23181e-07
8.91056e-06
-6.04744e-07
9.04714e-06
-4.92063e-07
9.15364e-06
-3.90106e-07
9.23414e-06
-3.02415e-07
9.29328e-06
-2.30933e-07
9.33571e-06
-1.756e-07
9.36589e-06
-1.3577e-07
9.38727e-06
-1.07068e-07
9.40378e-06
-9.36368e-08
9.41517e-06
-7.36927e-08
9.43235e-06
-1.08097e-07
9.43436e-06
-2.46173e-08
9.49871e-06
-3.51949e-07
9.49701e-06
1.39661e-07
-1.89031e-06
5.2978e-06
3.33493e-05
1.47222e-06
1.58604e-05
-2.71233e-07
3.72925e-07
-5.47326e-07
1.60404e-06
-3.91508e-07
-1.8125e-07
-5.18054e-07
3.92262e-07
-4.0566e-07
-1.4553e-06
2.19203e-07
-4.2119e-06
1.7553e-06
-8.98534e-06
3.5771e-06
-9.33263e-06
4.24747e-06
-2.81092e-06
2.56207e-06
5.05098e-06
-2.11157e-06
1.53625e-05
-7.3394e-06
2.4282e-05
-1.04619e-05
2.27346e-05
-1.24153e-05
1.61032e-05
-1.40935e-05
1.08433e-05
-1.5182e-05
6.42045e-06
-1.55152e-05
2.16509e-06
-1.5075e-05
-1.86799e-06
-1.39023e-05
-5.58377e-06
-1.2084e-05
-8.82555e-06
-9.7596e-06
-1.13728e-05
-7.15027e-06
-1.2865e-05
-4.5438e-06
-1.29671e-05
-2.19623e-06
-1.17626e-05
-2.5041e-07
-9.77722e-06
1.29685e-06
-7.71253e-06
2.45884e-06
-5.73057e-06
3.31854e-06
-4.15893e-06
3.96051e-06
-3.04799e-06
4.46177e-06
-2.33773e-06
4.88328e-06
-1.93405e-06
5.2676e-06
-1.73879e-06
5.64049e-06
-1.66744e-06
6.01434e-06
-1.65575e-06
6.39215e-06
-1.66006e-06
6.77114e-06
-1.65436e-06
7.14547e-06
-1.62558e-06
7.50813e-06
-1.56889e-06
7.852e-06
-1.48408e-06
8.17059e-06
-1.37363e-06
8.45845e-06
-1.24188e-06
8.71165e-06
-1.09479e-06
8.92804e-06
-9.39573e-07
9.10737e-06
-7.8407e-07
9.25119e-06
-6.35884e-07
9.36261e-06
-5.01529e-07
9.44586e-06
-3.8566e-07
9.50577e-06
-2.9084e-07
9.54725e-06
-2.17088e-07
9.575e-06
-1.63521e-07
9.59284e-06
-1.24907e-07
9.60465e-06
-1.05444e-07
9.6113e-06
-8.03419e-08
9.62069e-06
-1.17483e-07
9.62021e-06
-2.41362e-08
9.66745e-06
-3.99192e-07
9.67137e-06
1.35744e-07
-2.18231e-06
5.96832e-06
3.73809e-05
2.21925e-06
1.96094e-05
-5.84366e-08
2.65062e-06
-5.86463e-07
2.13207e-06
-4.71563e-07
-2.96151e-07
-6.3323e-07
5.5393e-07
-6.27657e-07
-1.46088e-06
-1.45419e-07
-4.69413e-06
1.19081e-06
-1.03216e-05
2.92139e-06
-1.10632e-05
3.51327e-06
-3.4028e-06
1.41031e-06
7.15395e-06
-3.38537e-06
2.01582e-05
-7.7812e-06
2.86778e-05
-1.02437e-05
2.51971e-05
-1.21999e-05
1.80594e-05
-1.39439e-05
1.25873e-05
-1.50409e-05
7.51743e-06
-1.5382e-05
2.50621e-06
-1.49485e-05
-2.30155e-06
-1.37764e-05
-6.75587e-06
-1.19465e-05
-1.06554e-05
-9.59298e-06
-1.37264e-05
-6.93944e-06
-1.55186e-05
-4.29491e-06
-1.56116e-05
-1.94618e-06
-1.41113e-05
-4.82791e-08
-1.16751e-05
1.45528e-06
-9.21608e-06
2.57114e-06
-6.84643e-06
3.39729e-06
-4.98508e-06
4.01627e-06
-3.66696e-06
4.50211e-06
-2.82358e-06
4.91375e-06
-2.3457e-06
5.29263e-06
-2.11767e-06
5.66386e-06
-2.03867e-06
6.03939e-06
-2.03127e-06
6.42178e-06
-2.04245e-06
6.80777e-06
-2.04035e-06
7.19098e-06
-2.00879e-06
7.56379e-06
-1.9417e-06
7.91847e-06
-1.83876e-06
8.24789e-06
-1.70305e-06
8.54608e-06
-1.54007e-06
8.80865e-06
-1.35736e-06
9.03314e-06
-1.16406e-06
9.21907e-06
-9.70007e-07
9.36794e-06
-7.84746e-07
9.48282e-06
-6.16417e-07
9.56802e-06
-4.70858e-07
9.62848e-06
-3.51296e-07
9.66926e-06
-2.57876e-07
9.69521e-06
-1.89471e-07
9.71042e-06
-1.40108e-07
9.71871e-06
-1.13735e-07
9.72175e-06
-8.3388e-08
9.7259e-06
-1.21629e-07
9.72382e-06
-2.20622e-08
9.75546e-06
-4.30829e-07
9.7727e-06
1.18507e-07
-2.4015e-06
6.55347e-06
4.08275e-05
2.95143e-06
2.32115e-05
2.35679e-07
5.36637e-06
-5.49886e-07
2.91763e-06
-5.32356e-07
-3.1368e-07
-7.30707e-07
7.52281e-07
-8.2558e-07
-1.366e-06
-5.07838e-07
-5.01188e-06
6.05806e-07
-1.14352e-05
2.20375e-06
-1.26612e-05
2.67939e-06
-3.87844e-06
2.76923e-07
9.55641e-06
-4.35489e-06
2.479e-05
-7.9075e-06
3.22304e-05
-1.00032e-05
2.72928e-05
-1.20294e-05
2.00856e-05
-1.37905e-05
1.43483e-05
-1.48913e-05
8.61828e-06
-1.52428e-05
2.85767e-06
-1.48209e-05
-2.72337e-06
-1.36581e-05
-7.91867e-06
-1.18281e-05
-1.24854e-05
-9.45436e-06
-1.61002e-05
-6.75288e-06
-1.822e-05
-4.04407e-06
-1.83205e-05
-1.65612e-06
-1.64993e-05
2.44948e-07
-1.35762e-05
1.67489e-06
-1.0646e-05
2.73028e-06
-7.90182e-06
3.50754e-06
-5.76234e-06
4.09114e-06
-4.25057e-06
4.5521e-06
-3.28453e-06
4.94644e-06
-2.74004e-06
5.31381e-06
-2.48503e-06
5.67825e-06
-2.40312e-06
6.05102e-06
-2.40404e-06
6.4341e-06
-2.42553e-06
6.82361e-06
-2.42986e-06
7.21253e-06
-2.39771e-06
7.59254e-06
-2.32171e-06
7.95519e-06
-2.20141e-06
8.29268e-06
-2.04054e-06
8.59849e-06
-1.84587e-06
8.86784e-06
-1.62671e-06
9.09801e-06
-1.39423e-06
9.28848e-06
-1.16047e-06
9.44072e-06
-9.36989e-07
9.55792e-06
-7.33615e-07
9.64446e-06
-5.57397e-07
9.7054e-06
-4.12234e-07
9.74593e-06
-2.98407e-07
9.77097e-06
-2.14511e-07
9.78479e-06
-1.53926e-07
9.79109e-06
-1.20039e-07
9.79238e-06
-8.46748e-08
9.7927e-06
-1.21953e-07
9.79182e-06
-2.11786e-08
9.80937e-06
-4.48384e-07
9.84114e-06
8.67368e-08
-2.55808e-06
7.06462e-06
4.37628e-05
3.66279e-06
2.66133e-05
6.53856e-07
8.37531e-06
-4.28764e-07
4.00025e-06
-5.66274e-07
-1.76171e-07
-8.00712e-07
9.8672e-07
-9.8546e-07
-1.18126e-06
-8.2824e-07
-5.1691e-06
2.26417e-08
-1.22861e-05
1.43884e-06
-1.40774e-05
1.75304e-06
-4.19264e-06
-8.78656e-07
1.21881e-05
-5.03916e-06
2.89505e-05
-7.86258e-06
3.50538e-05
-9.78021e-06
2.92104e-05
-1.18667e-05
2.21721e-05
-1.3622e-05
1.61036e-05
-1.47245e-05
9.72081e-06
-1.50843e-05
3.2175e-06
-1.46759e-05
-3.13181e-06
-1.35292e-05
-9.06535e-06
-1.17117e-05
-1.43029e-05
-9.33467e-06
-1.84772e-05
-6.59909e-06
-2.09556e-05
-3.82077e-06
-2.10988e-05
-1.36097e-06
-1.89591e-05
5.64598e-07
-1.55018e-05
1.95297e-06
-1.20344e-05
2.9435e-06
-8.89235e-06
3.65973e-06
-6.47857e-06
4.19626e-06
-4.78709e-06
4.62298e-06
-3.71125e-06
4.99256e-06
-3.10962e-06
5.34224e-06
-2.83471e-06
5.69467e-06
-2.75555e-06
6.06023e-06
-2.7696e-06
6.44023e-06
-2.80553e-06
6.83015e-06
-2.81978e-06
7.22227e-06
-2.78984e-06
7.60747e-06
-2.7069e-06
7.97643e-06
-2.57037e-06
8.32055e-06
-2.38466e-06
8.63264e-06
-2.15796e-06
8.90745e-06
-1.90152e-06
9.14205e-06
-1.62883e-06
9.33585e-06
-1.35428e-06
9.49045e-06
-1.09159e-06
9.60918e-06
-8.52342e-07
9.69658e-06
-6.44797e-07
9.75784e-06
-4.73493e-07
9.79826e-06
-3.38828e-07
9.82282e-06
-2.39068e-07
9.8359e-06
-1.67006e-07
9.84108e-06
-1.2522e-07
9.84148e-06
-8.50772e-08
9.83947e-06
-1.1994e-07
9.83977e-06
-2.14832e-08
9.84734e-06
-4.5595e-07
9.89033e-06
4.37494e-08
-2.66654e-06
7.51033e-06
4.62525e-05
4.3469e-06
2.97767e-05
1.17161e-06
1.15506e-05
-2.34561e-07
5.40642e-06
-5.65855e-07
1.55123e-07
-8.36469e-07
1.25733e-06
-1.09627e-06
-9.21453e-07
-1.09377e-06
-5.1716e-06
-5.14703e-07
-1.28652e-05
6.42533e-07
-1.52346e-05
7.73247e-07
-4.32335e-06
-1.89463e-06
1.4856e-05
-5.4779e-06
3.25338e-05
-7.72778e-06
3.73037e-05
-9.57557e-06
3.10582e-05
-1.16921e-05
2.42887e-05
-1.34309e-05
1.78423e-05
-1.45289e-05
1.08189e-05
-1.4892e-05
3.5806e-06
-1.44961e-05
-3.52771e-06
-1.33698e-05
-1.01916e-05
-1.1575e-05
-1.60977e-05
-9.21164e-06
-2.08406e-05
-6.46408e-06
-2.37032e-05
-3.63254e-06
-2.39303e-05
-1.08883e-06
-2.15028e-05
8.96577e-07
-1.74872e-05
2.27541e-06
-1.34132e-05
3.20937e-06
-9.82632e-06
3.8585e-06
-7.12771e-06
4.33826e-06
-5.26685e-06
4.72204e-06
-4.09503e-06
5.05966e-06
-3.44724e-06
5.38549e-06
-3.16054e-06
5.7205e-06
-3.09056e-06
6.0741e-06
-3.1232e-06
6.44694e-06
-3.17837e-06
6.83392e-06
-3.20676e-06
7.22661e-06
-3.18252e-06
7.61504e-06
-3.09533e-06
7.98894e-06
-2.94427e-06
8.33873e-06
-2.73446e-06
8.65637e-06
-2.4756e-06
8.93601e-06
-2.18116e-06
9.1744e-06
-1.86722e-06
9.37092e-06
-1.5508e-06
9.52729e-06
-1.24797e-06
9.64707e-06
-9.7212e-07
9.73501e-06
-7.32739e-07
9.79648e-06
-5.34956e-07
9.83688e-06
-3.79227e-07
9.86124e-06
-2.63427e-07
9.87401e-06
-1.79784e-07
9.8787e-06
-1.29903e-07
9.87878e-06
-8.51619e-08
9.87553e-06
-1.16694e-07
9.87694e-06
-2.28909e-08
9.8779e-06
-4.56904e-07
9.9275e-06
-5.8572e-09
-2.73978e-06
7.89826e-06
4.83543e-05
4.99787e-06
3.26771e-05
1.75424e-06
1.47942e-05
1.25067e-08
7.14815e-06
-5.2562e-07
6.9325e-07
-8.35553e-07
1.56727e-06
-1.15395e-06
-6.03055e-07
-1.29547e-06
-5.03007e-06
-9.90069e-07
-1.31706e-05
-1.62428e-07
-1.60622e-05
-2.29414e-07
-4.25636e-06
-2.76003e-06
1.73866e-05
-5.71979e-06
3.54935e-05
-7.54512e-06
3.9129e-05
-9.37808e-06
3.28912e-05
-1.14952e-05
2.64058e-05
-1.32094e-05
1.95565e-05
-1.42943e-05
1.19037e-05
-1.46547e-05
3.94108e-06
-1.42698e-05
-3.91268e-06
-1.31666e-05
-1.12949e-05
-1.14018e-05
-1.78625e-05
-9.06497e-06
-2.31774e-05
-6.32597e-06
-2.64422e-05
-3.46764e-06
-2.67887e-05
-8.51343e-07
-2.41191e-05
1.21635e-06
-1.95548e-05
2.6217e-06
-1.48186e-05
3.51922e-06
-1.07238e-05
4.10319e-06
-7.71168e-06
4.51984e-06
-5.6835e-06
4.8533e-06
-4.4285e-06
5.15247e-06
-3.74641e-06
5.44871e-06
-3.45678e-06
5.76101e-06
-3.40286e-06
6.09777e-06
-3.45996e-06
6.4591e-06
-3.5397e-06
6.83941e-06
-3.58707e-06
7.22969e-06
-3.5728e-06
7.61916e-06
-3.4848e-06
7.99654e-06
-3.32164e-06
8.3511e-06
-3.08902e-06
8.67376e-06
-2.79826e-06
8.95788e-06
-2.46528e-06
9.19976e-06
-2.1091e-06
9.39867e-06
-1.74971e-06
9.55647e-06
-1.40577e-06
9.67698e-06
-1.09263e-06
9.76523e-06
-8.20984e-07
9.82678e-06
-5.96504e-07
9.86717e-06
-4.19623e-07
9.8915e-06
-2.87751e-07
9.90424e-06
-1.92526e-07
9.90882e-06
-1.34483e-07
9.90892e-06
-8.52682e-08
9.90516e-06
-1.12932e-07
9.90737e-06
-2.50948e-08
9.9043e-06
-4.53841e-07
9.95685e-06
-5.84011e-08
-2.78746e-06
8.23534e-06
5.01189e-05
5.61111e-06
3.53013e-05
2.38301e-06
1.80223e-05
3.92533e-07
9.13862e-06
-4.43034e-07
1.52882e-06
-7.99336e-07
1.92357e-06
-1.1615e-06
-2.40892e-07
-1.43006e-06
-4.76151e-06
-1.38077e-06
-1.32199e-05
-8.87778e-07
-1.65552e-05
-1.21205e-06
-3.93209e-06
-3.45427e-06
1.96288e-05
-5.80972e-06
3.7849e-05
-7.33543e-06
4.06547e-05
-9.1754e-06
3.47311e-05
-1.12697e-05
2.85002e-05
-1.29509e-05
2.12376e-05
-1.40134e-05
1.29662e-05
-1.4366e-05
4.29367e-06
-1.39905e-05
-4.28812e-06
-1.29125e-05
-1.23728e-05
-1.11833e-05
-1.95917e-05
-8.88246e-06
-2.54783e-05
-6.16714e-06
-2.91575e-05
-3.30668e-06
-2.96491e-05
-6.42305e-07
-2.67835e-05
1.50842e-06
-2.17056e-05
2.97055e-06
-1.62807e-05
3.85936e-06
-1.16126e-05
4.3887e-06
-8.24102e-06
4.74047e-06
-6.03526e-06
5.0181e-06
-4.70613e-06
5.27334e-06
-4.00165e-06
5.53497e-06
-3.71841e-06
5.81973e-06
-3.68762e-06
6.13496e-06
-3.77519e-06
6.48033e-06
-3.88507e-06
6.85e-06
-3.95674e-06
7.23456e-06
-3.95736e-06
7.62255e-06
-3.87279e-06
8.00167e-06
-3.70076e-06
8.35998e-06
-3.44734e-06
8.68715e-06
-3.12543e-06
8.97553e-06
-2.75365e-06
9.22076e-06
-2.35434e-06
9.42192e-06
-1.95086e-06
9.58095e-06
-1.5648e-06
9.70196e-06
-1.21364e-06
9.7903e-06
-9.09324e-07
9.85179e-06
-6.57995e-07
9.89214e-06
-4.59971e-07
9.91648e-06
-3.12098e-07
9.92933e-06
-2.05376e-07
9.93406e-06
-1.39204e-07
9.93439e-06
-8.56064e-08
9.9306e-06
-1.09138e-07
9.93335e-06
-2.7847e-08
9.92805e-06
-4.4854e-07
9.9809e-06
-1.11254e-07
-2.81629e-06
8.52776e-06
5.15911e-05
6.18333e-06
3.76458e-05
3.03564e-06
2.117e-05
8.18314e-07
1.13559e-05
-2.96903e-07
2.64403e-06
-7.30485e-07
2.35715e-06
-1.12602e-06
1.5464e-07
-1.50114e-06
-4.38639e-06
-1.68306e-06
-1.30379e-05
-1.55453e-06
-1.66838e-05
-2.07739e-06
-3.40923e-06
-3.96869e-06
2.15201e-05
-5.78505e-06
3.96653e-05
-7.1085e-06
4.19782e-05
-8.95743e-06
3.65801e-05
-1.10111e-05
3.05538e-05
-1.26504e-05
2.28769e-05
-1.36824e-05
1.39983e-05
-1.40229e-05
4.63411e-06
-1.36559e-05
-4.65509e-06
-1.26051e-05
-1.34237e-05
-1.09162e-05
-2.12805e-05
-8.65859e-06
-2.77359e-05
-5.97765e-06
-3.18384e-05
-3.13291e-06
-3.24938e-05
-4.50313e-07
-2.94661e-05
1.76932e-06
-2.39252e-05
3.30474e-06
-1.78161e-05
4.21383e-06
-1.25217e-05
4.70652e-06
-8.73371e-06
4.99705e-06
-6.32579e-06
5.21571e-06
-4.92478e-06
5.42267e-06
-4.20862e-06
5.64556e-06
-3.9413e-06
5.89869e-06
-3.94075e-06
6.18816e-06
-4.06466e-06
6.51332e-06
-4.21023e-06
6.8683e-06
-4.31172e-06
7.24359e-06
-4.33265e-06
7.62724e-06
-4.25645e-06
8.00607e-06
-4.07959e-06
8.36689e-06
-3.80815e-06
8.69795e-06
-3.4565e-06
8.99037e-06
-3.04607e-06
9.23894e-06
-2.6029e-06
9.44231e-06
-2.15424e-06
9.60249e-06
-1.72498e-06
9.72385e-06
-1.335e-06
9.81211e-06
-9.97578e-07
9.87338e-06
-7.19273e-07
9.91359e-06
-5.00173e-07
9.93794e-06
-3.36451e-07
9.95095e-06
-2.18387e-07
9.95594e-06
-1.44198e-07
9.95664e-06
-8.63002e-08
9.95311e-06
-1.05615e-07
9.95625e-06
-3.09797e-08
9.94988e-06
-4.42173e-07
1.00012e-05
-1.62615e-07
-2.8309e-06
8.78105e-06
5.28101e-05
6.71257e-06
3.97143e-05
3.69599e-06
2.41866e-05
1.30329e-06
1.37486e-05
-7.86032e-08
4.02593e-06
-6.30507e-07
2.90905e-06
-1.05528e-06
5.79414e-07
-1.51639e-06
-3.92528e-06
-1.89336e-06
-1.2661e-05
-2.10248e-06
-1.64746e-05
-2.77651e-06
-2.7352e-06
-4.3085e-06
2.30521e-05
-5.67517e-06
4.1032e-05
-6.86799e-06
4.3171e-05
-8.71685e-06
3.84289e-05
-1.07161e-05
3.25531e-05
-1.2305e-05
2.44659e-05
-1.33e-05
1.49933e-05
-1.36249e-05
4.95898e-06
-1.32655e-05
-5.01447e-06
-1.22435e-05
-1.44457e-05
-1.05992e-05
-2.29248e-05
-8.39131e-06
-2.99438e-05
-5.75315e-06
-3.44766e-05
-2.93628e-06
-3.53107e-05
-2.58455e-07
-3.21439e-05
2.00504e-06
-2.61887e-05
3.61422e-06
-1.94253e-05
4.56717e-06
-1.34747e-05
5.04573e-06
-9.21227e-06
5.28437e-06
-6.56443e-06
5.44396e-06
-5.08437e-06
5.59957e-06
-4.36423e-06
5.78042e-06
-4.12215e-06
5.99864e-06
-4.15897e-06
6.25881e-06
-4.32483e-06
6.55993e-06
-4.51135e-06
6.89634e-06
-4.64813e-06
7.2587e-06
-4.69501e-06
7.63494e-06
-4.63268e-06
8.01114e-06
-4.4558e-06
8.37292e-06
-4.16994e-06
8.70708e-06
-3.79066e-06
9.00327e-06
-3.34225e-06
9.25516e-06
-2.8548e-06
9.46084e-06
-2.35991e-06
9.62219e-06
-1.88633e-06
9.74384e-06
-1.45664e-06
9.83187e-06
-1.08562e-06
9.89279e-06
-7.80186e-07
9.93271e-06
-5.40101e-07
9.957e-06
-3.60733e-07
9.97015e-06
-2.31542e-07
9.97546e-06
-1.49508e-07
9.97657e-06
-8.74077e-08
9.97349e-06
-1.02534e-07
9.97689e-06
-3.43872e-08
9.97017e-06
-4.35444e-07
1.00189e-05
-2.11371e-07
-2.83437e-06
9.00017e-06
5.38099e-05
7.19805e-06
4.15164e-05
4.35179e-06
2.70329e-05
1.83947e-06
1.6261e-05
1.84246e-07
5.68115e-06
-4.97623e-07
3.59092e-06
-9.55631e-07
1.03742e-06
-1.48485e-06
-3.39605e-06
-2.01575e-06
-1.21301e-05
-2.50423e-06
-1.59862e-05
-3.28341e-06
-1.95602e-06
-4.48978e-06
2.42585e-05
-5.50218e-06
4.20444e-05
-6.61407e-06
4.42829e-05
-8.44872e-06
4.02636e-05
-1.03829e-05
3.44873e-05
-1.19139e-05
2.59968e-05
-1.28666e-05
1.5946e-05
-1.31732e-05
5.26553e-06
-1.28205e-05
-5.3671e-06
-1.18284e-05
-1.54378e-05
-1.02323e-05
-2.4521e-05
-8.07999e-06
-3.20961e-05
-5.49203e-06
-3.70646e-05
-2.71208e-06
-3.80907e-05
-5.34245e-08
-3.48026e-05
2.22616e-06
-2.84683e-05
3.89653e-06
-2.10957e-05
4.90699e-06
-1.44851e-05
5.39436e-06
-9.69965e-06
5.59541e-06
-6.76548e-06
5.69947e-06
-5.18842e-06
5.80225e-06
-4.46701e-06
5.93858e-06
-4.25848e-06
6.11934e-06
-4.33972e-06
6.3474e-06
-4.55289e-06
6.62126e-06
-4.78521e-06
6.93557e-06
-4.96243e-06
7.28147e-06
-5.04092e-06
7.64706e-06
-4.99827e-06
8.01805e-06
-4.82678e-06
8.37899e-06
-4.53088e-06
8.71521e-06
-4.12687e-06
9.01474e-06
-3.64178e-06
9.26994e-06
-3.11e-06
9.47804e-06
-2.56802e-06
9.64067e-06
-2.04896e-06
9.76262e-06
-1.5786e-06
9.85037e-06
-1.17337e-06
9.9108e-06
-8.40612e-07
9.95033e-06
-5.79628e-07
9.97444e-06
-3.84843e-07
9.98768e-06
-2.4478e-07
9.99329e-06
-1.55123e-07
9.99482e-06
-8.89384e-08
9.99226e-06
-9.99696e-08
9.99587e-06
-3.80001e-08
9.98916e-06
-4.28733e-07
1.00347e-05
-2.56874e-07
-2.8288e-06
9.18961e-06
5.46203e-05
7.64001e-06
4.3066e-05
4.99339e-06
2.96795e-05
2.41733e-06
1.8837e-05
5.12733e-07
7.58575e-06
-3.26766e-07
4.43042e-06
-8.31096e-07
1.54175e-06
-1.41473e-06
-2.81242e-06
-2.06022e-06
-1.14846e-05
-2.75802e-06
-1.52884e-05
-3.59996e-06
-1.11408e-06
-4.53509e-06
2.51936e-05
-5.28213e-06
4.27914e-05
-6.34507e-06
4.53458e-05
-8.14991e-06
4.20684e-05
-1.00107e-05
3.6348e-05
-1.14773e-05
2.74635e-05
-1.23838e-05
1.68525e-05
-1.26699e-05
5.55157e-06
-1.23231e-05
-5.7139e-06
-1.13616e-05
-1.63993e-05
-9.81635e-06
-2.60662e-05
-7.72471e-06
-3.41877e-05
-5.19378e-06
-3.95955e-05
-2.45859e-06
-4.08259e-05
1.73816e-07
-3.7435e-05
2.44336e-06
-3.07378e-05
4.15505e-06
-2.28074e-05
5.22548e-06
-1.55556e-05
5.74097e-06
-1.02151e-05
5.92181e-06
-6.94632e-06
5.97771e-06
-5.24432e-06
6.02823e-06
-4.51753e-06
6.11844e-06
-4.3487e-06
6.25986e-06
-4.48114e-06
6.45373e-06
-4.74676e-06
6.69777e-06
-5.02925e-06
6.98694e-06
-5.2516e-06
7.3131e-06
-5.36707e-06
7.66486e-06
-5.35004e-06
8.02787e-06
-5.18979e-06
8.38591e-06
-4.88893e-06
8.72289e-06
-4.46385e-06
9.02516e-06
-3.94406e-06
9.28354e-06
-3.36837e-06
9.49418e-06
-2.77866e-06
9.65826e-06
-2.21304e-06
9.78062e-06
-1.70096e-06
9.86808e-06
-1.26083e-06
9.92795e-06
-9.00474e-07
9.96696e-06
-6.18642e-07
9.99079e-06
-4.08675e-07
1.0004e-05
-2.58021e-07
1.00099e-05
-1.60995e-07
1.00118e-05
-9.08688e-08
1.00098e-05
-9.79373e-08
1.00136e-05
-4.17668e-08
1.0007e-05
-4.22212e-07
1.0049e-05
-2.98782e-07
-2.81556e-06
9.35343e-06
5.52669e-05
8.03952e-06
4.43799e-05
5.61307e-06
3.21059e-05
3.02681e-06
2.14233e-05
9.13706e-07
9.69885e-06
-1.14958e-07
5.45909e-06
-6.83268e-07
2.11006e-06
-1.31233e-06
-2.18336e-06
-2.03923e-06
-1.07577e-05
-2.87976e-06
-1.44478e-05
-3.74836e-06
-2.45472e-07
-4.46914e-06
2.59144e-05
-5.02625e-06
4.33486e-05
-6.05862e-06
4.63782e-05
-7.81871e-06
4.38285e-05
-9.59938e-06
3.81287e-05
-1.09968e-05
2.88609e-05
-1.18543e-05
1.771e-05
-1.21181e-05
5.81539e-06
-1.17761e-05
-6.0559e-06
-1.08453e-05
-1.73301e-05
-9.35293e-06
-2.75586e-05
-7.32616e-06
-3.62145e-05
-4.85845e-06
-4.20632e-05
-2.17547e-06
-4.35088e-05
4.1701e-07
-4.00274e-05
2.66492e-06
-3.29857e-05
4.39635e-06
-2.45388e-05
5.51968e-06
-1.66789e-05
6.07611e-06
-1.07716e-05
6.25466e-06
-7.12487e-06
6.27314e-06
-5.26281e-06
6.2744e-06
-4.51879e-06
6.318e-06
-4.3923e-06
6.4188e-06
-4.58194e-06
6.577e-06
-4.90496e-06
6.78934e-06
-5.2416e-06
7.05092e-06
-5.51317e-06
7.35443e-06
-5.67059e-06
7.68933e-06
-5.68494e-06
8.04157e-06
-5.54203e-06
8.39447e-06
-5.24183e-06
8.73068e-06
-4.80006e-06
9.03487e-06
-4.24825e-06
9.29616e-06
-3.62967e-06
9.50942e-06
-2.99191e-06
9.67512e-06
-2.37875e-06
9.79803e-06
-1.82387e-06
9.88526e-06
-1.34806e-06
9.94453e-06
-9.59744e-07
9.98295e-06
-6.57064e-07
1.00064e-05
-4.32134e-07
1.00196e-05
-2.71179e-07
1.00256e-05
-1.67061e-07
1.00279e-05
-9.31568e-08
1.00264e-05
-9.64151e-08
1.00303e-05
-4.5644e-08
1.0024e-05
-4.15925e-07
1.00622e-05
-3.3695e-07
-2.7956e-06
9.49524e-06
5.57716e-05
8.39832e-06
4.54768e-05
6.20474e-06
3.42995e-05
3.65744e-06
2.39706e-05
1.38152e-06
1.19748e-05
1.57134e-07
6.68347e-06
-5.11764e-07
2.77896e-06
-1.18185e-06
-1.51328e-06
-1.96504e-06
-9.97449e-06
-2.89269e-06
-1.35202e-05
-3.75951e-06
6.21341e-07
-4.31556e-06
2.64704e-05
-4.74216e-06
4.37752e-05
-5.75229e-06
4.73883e-05
-7.45447e-06
4.55307e-05
-9.14993e-06
3.98242e-05
-1.04745e-05
3.01855e-05
-1.12814e-05
1.85169e-05
-1.15218e-05
6.0558e-06
-1.11835e-05
-6.3942e-06
-1.02828e-05
-1.82308e-05
-8.84424e-06
-2.89972e-05
-6.88555e-06
-3.81732e-05
-4.48646e-06
-4.44623e-05
-1.86273e-06
-4.61326e-05
6.81992e-07
-4.25722e-05
2.89636e-06
-3.52001e-05
4.62771e-06
-2.62702e-05
5.79063e-06
-1.78418e-05
6.39322e-06
-1.13742e-05
6.58538e-06
-7.31704e-06
6.57945e-06
-5.25687e-06
6.53702e-06
-4.47636e-06
6.53491e-06
-4.39018e-06
6.59447e-06
-4.6415e-06
6.71604e-06
-5.02652e-06
6.89538e-06
-5.42094e-06
7.12751e-06
-5.74531e-06
7.40597e-06
-5.94904e-06
7.72125e-06
-6.00022e-06
8.06e-06
-5.88078e-06
8.4054e-06
-5.58722e-06
8.73911e-06
-5.13377e-06
9.0442e-06
-4.55334e-06
9.30798e-06
-3.89344e-06
9.52382e-06
-3.20775e-06
9.6913e-06
-2.54623e-06
9.81493e-06
-1.9475e-06
9.90204e-06
-1.43516e-06
9.96073e-06
-1.01843e-06
9.99851e-06
-6.94844e-07
1.00215e-05
-4.55141e-07
1.00345e-05
-2.84176e-07
1.00407e-05
-1.73254e-07
1.00433e-05
-9.57516e-08
1.00422e-05
-9.53618e-08
1.00462e-05
-4.95919e-08
1.00401e-05
-4.09839e-07
1.00745e-05
-3.71352e-07
-2.76954e-06
9.61829e-06
5.61534e-05
8.71864e-06
4.63765e-05
6.76373e-06
3.62544e-05
4.29897e-06
2.64354e-05
1.90839e-06
1.43653e-05
4.88321e-07
8.10354e-06
-3.11877e-07
3.57916e-06
-1.02537e-06
-7.99779e-07
-1.8482e-06
-9.15167e-06
-2.82035e-06
-1.2548e-05
-3.66382e-06
1.46481e-06
-4.09489e-06
2.69015e-05
-4.43481e-06
4.41151e-05
-5.42407e-06
4.83776e-05
-7.05734e-06
4.7164e-05
-8.66379e-06
4.14306e-05
-9.91335e-06
3.1435e-05
-1.06687e-05
1.92723e-05
-1.0885e-05
6.27203e-06
-1.05492e-05
-6.72999e-06
-9.67755e-06
-1.91024e-05
-8.29299e-06
-3.03817e-05
-6.40463e-06
-4.00615e-05
-4.07868e-06
-4.67882e-05
-1.5207e-06
-4.86905e-05
9.6923e-07
-4.50621e-05
3.14083e-06
-3.73717e-05
4.85556e-06
-2.79849e-05
6.04191e-06
-1.90282e-05
6.68894e-06
-1.20212e-05
6.90669e-06
-7.53479e-06
6.89e-06
-5.24018e-06
6.81177e-06
-4.39814e-06
6.76647e-06
-4.34488e-06
6.78495e-06
-4.65998e-06
6.86943e-06
-5.111e-06
7.01499e-06
-5.5665e-06
7.21639e-06
-5.94671e-06
7.46788e-06
-6.20052e-06
7.76116e-06
-6.2935e-06
8.08385e-06
-6.20347e-06
8.41938e-06
-5.92275e-06
8.74873e-06
-5.46313e-06
9.05349e-06
-4.85811e-06
9.31916e-06
-4.15911e-06
9.53744e-06
-3.42603e-06
9.70682e-06
-2.71561e-06
9.83135e-06
-2.07203e-06
9.91845e-06
-1.52226e-06
9.97661e-06
-1.07659e-06
1.00137e-05
-7.31962e-07
1.00362e-05
-4.77637e-07
1.0049e-05
-2.96941e-07
1.00552e-05
-1.7951e-07
1.00581e-05
-9.86001e-08
1.00575e-05
-9.47284e-08
1.00614e-05
-5.35728e-08
1.00555e-05
-4.03889e-07
1.00862e-05
-4.0203e-07
-2.73783e-06
9.72543e-06
5.64279e-05
9.00309e-06
4.70988e-05
7.28666e-06
3.79708e-05
4.94172e-06
2.87803e-05
2.48374e-06
1.68233e-05
8.70817e-07
9.71646e-06
-7.46822e-08
4.52466e-06
-8.4299e-07
-3.14709e-08
-1.69693e-06
-8.29773e-06
-2.6832e-06
-1.15618e-05
-3.48754e-06
2.26915e-06
-3.82381e-06
2.72378e-05
-4.10726e-06
4.43985e-05
-5.07252e-06
4.93428e-05
-6.62804e-06
4.87195e-05
-8.14291e-06
4.29455e-05
-9.3164e-06
3.26085e-05
-1.00204e-05
1.99763e-05
-1.02121e-05
6.46374e-06
-9.87758e-06
-7.0645e-06
-9.03346e-06
-1.99465e-05
-7.70224e-06
-3.17129e-05
-5.8855e-06
-4.18783e-05
-3.6363e-06
-4.90374e-05
-1.14987e-06
-5.1177e-05
1.27856e-06
-4.74905e-05
3.39985e-06
-3.9493e-05
5.08482e-06
-2.96699e-05
6.27828e-06
-2.02216e-05
6.96272e-06
-1.27056e-05
7.21314e-06
-7.7852e-06
7.19847e-06
-5.22551e-06
7.09392e-06
-4.29359e-06
7.00965e-06
-4.26062e-06
6.98818e-06
-4.63851e-06
7.0356e-06
-5.15842e-06
7.14703e-06
-5.67793e-06
7.31691e-06
-6.11659e-06
7.54003e-06
-6.42364e-06
7.80933e-06
-6.5628e-06
8.11364e-06
-6.50778e-06
8.437e-06
-6.24611e-06
8.76005e-06
-5.78618e-06
9.06312e-06
-5.16117e-06
9.32991e-06
-4.42591e-06
9.55037e-06
-3.64649e-06
9.72168e-06
-2.88692e-06
9.84727e-06
-2.19761e-06
9.93451e-06
-1.6095e-06
9.99221e-06
-1.1343e-06
1.00287e-05
-7.68423e-07
1.00506e-05
-4.99584e-07
1.00631e-05
-3.09416e-07
1.00694e-05
-1.85767e-07
1.00724e-05
-1.01651e-07
1.00721e-05
-9.44642e-08
1.00761e-05
-5.75506e-08
1.00702e-05
-3.97995e-07
1.00973e-05
-4.29067e-07
-2.70081e-06
9.8192e-06
5.66087e-05
9.25456e-06
4.76634e-05
7.77131e-06
3.94541e-05
5.57683e-06
3.09748e-05
3.09708e-06
1.93031e-05
1.30816e-06
1.15054e-05
2.01077e-07
5.63175e-06
-6.32917e-07
8.02522e-07
-1.51706e-06
-7.41359e-06
-2.49789e-06
-1.05809e-05
-3.25194e-06
3.02319e-06
-3.51521e-06
2.7501e-05
-3.76135e-06
4.46447e-05
-4.69683e-06
5.02783e-05
-6.16779e-06
5.01904e-05
-7.58954e-06
4.43672e-05
-8.68698e-06
3.3706e-05
-9.34033e-06
2.06296e-05
-9.50758e-06
6.63099e-06
-9.17313e-06
-7.39894e-06
-8.35457e-06
-2.07651e-05
-7.07533e-06
-3.29922e-05
-5.33059e-06
-4.3623e-05
-3.16085e-06
-5.12072e-05
-7.50982e-07
-5.35868e-05
1.60954e-06
-4.98511e-05
3.67391e-06
-4.15574e-05
5.31879e-06
-3.13147e-05
6.50451e-06
-2.14073e-05
7.21611e-06
-1.34172e-05
7.50141e-06
-8.0705e-06
7.49933e-06
-5.22342e-06
7.37862e-06
-4.17289e-06
7.26113e-06
-4.14312e-06
7.20188e-06
-4.57926e-06
7.21286e-06
-5.1694e-06
7.29023e-06
-5.75531e-06
7.42823e-06
-6.25459e-06
7.62206e-06
-6.61747e-06
7.86582e-06
-6.80656e-06
8.14974e-06
-6.7917e-06
8.45878e-06