/*--------------------------------*- C++ -*----------------------------------*\
| =========                 |                                                 |
| \\      /  F ield         | OpenFOAM: The Open Source CFD Toolbox           |
|  \\    /   O peration     | Version:  2.4.0                                 |
|   \\  /    A nd           | Web:      www.OpenFOAM.org                      |
|    \\/     M anipulation  |                                                 |
\*---------------------------------------------------------------------------*/
FoamFile
{
    version     2.0;
    format      ascii;
    class       surfaceScalarField;
    location    "7.33";
    object      phi;
}
// * * * * * * * * * * * * * * * * * * * * * * * * * * * * * * * * * * * * * //

dimensions      [0 3 -1 0 0 0 0];

internalField   nonuniform List<scalar> 
11840
(
7.85112e-07
9.21489e-06
-2.03292e-08
8.05441e-07
-4.80754e-08
2.77461e-08
-7.30514e-08
2.49761e-08
-8.37744e-08
1.0723e-08
-8.51704e-08
1.39598e-09
-8.91248e-08
3.95439e-09
-8.86279e-08
-4.96949e-10
-9.10109e-08
2.383e-09
-9.15444e-08
5.33544e-10
-9.42631e-08
2.71867e-09
-9.67722e-08
2.50908e-09
-1.01155e-07
4.38281e-09
-1.06304e-07
5.14854e-09
-1.13205e-07
6.90155e-09
-1.21369e-07
8.16424e-09
-1.31247e-07
9.87776e-09
-1.42637e-07
1.13902e-08
-1.55735e-07
1.30974e-08
-1.70442e-07
1.4707e-08
-1.86791e-07
1.63496e-08
-2.04654e-07
1.78624e-08
-2.23898e-07
1.92444e-08
-2.44266e-07
2.03679e-08
-2.65438e-07
2.11717e-08
-2.86997e-07
2.15594e-08
-3.08459e-07
2.14622e-08
-3.29244e-07
2.07842e-08
-3.48674e-07
1.94305e-08
-3.65988e-07
1.73135e-08
-3.80353e-07
1.43653e-08
-3.90883e-07
1.05296e-08
-3.96668e-07
5.78532e-09
-3.96848e-07
1.80199e-10
-3.90509e-07
-6.33937e-09
-3.7688e-07
-1.36285e-08
-3.553e-07
-2.15798e-08
-3.25183e-07
-3.01174e-08
-2.8621e-07
-3.89727e-08
-2.38075e-07
-4.81352e-08
-1.81018e-07
-5.7057e-08
-1.15281e-07
-6.57372e-08
-4.24005e-08
-7.28804e-08
3.40155e-08
-7.6416e-08
1.08127e-07
-7.41114e-08
1.8256e-07
-7.44336e-08
2.54381e-07
-7.18209e-08
3.27896e-07
-7.35142e-08
3.9464e-07
-6.67447e-08
4.65613e-07
-7.09724e-08
5.21444e-07
-5.58317e-08
5.90115e-07
-6.86706e-08
6.26936e-07
-3.6821e-08
6.99315e-07
-7.23789e-08
7.04948e-07
-5.63327e-09
7.97984e-07
-9.30362e-08
7.53454e-07
4.453e-08
9.06427e-07
-1.52973e-07
7.86911e-07
1.19516e-07
-3.98623e-07
1.9181e-06
1.72968e-05
1.0218e-07
2.62136e-06
-7.4338e-08
2.04264e-07
-1.77888e-07
1.28526e-07
-2.09729e-07
4.25634e-08
-2.27244e-07
1.89112e-08
-2.3769e-07
1.44005e-08
-2.42551e-07
4.36437e-09
-2.48744e-07
8.57548e-09
-2.53315e-07
5.10469e-09
-2.60693e-07
1.00967e-08
-2.69169e-07
1.09852e-08
-2.81257e-07
1.64703e-08
-2.96184e-07
2.00754e-08
-3.15178e-07
2.58958e-08
-3.37881e-07
3.0867e-08
-3.64843e-07
3.68406e-08
-3.95894e-07
4.24413e-08
-4.31226e-07
4.84293e-08
-4.70668e-07
5.41488e-08
-5.14106e-07
5.97878e-08
-5.61159e-07
6.49149e-08
-6.11325e-07
6.94103e-08
-6.63837e-07
7.28807e-08
-7.17741e-07
7.50748e-08
-7.71867e-07
7.56854e-08
-8.24872e-07
7.44679e-08
-8.75203e-07
7.1115e-08
-9.21094e-07
6.53211e-08
-9.606e-07
5.682e-08
-9.91646e-07
4.54114e-08
-1.01206e-06
3.09472e-08
-1.01968e-06
1.3401e-08
-1.01233e-06
-7.17224e-09
-9.88048e-07
-3.06184e-08
-9.44965e-07
-5.67114e-08
-8.81526e-07
-8.50184e-08
-7.96413e-07
-1.1523e-07
-6.88784e-07
-1.46602e-07
-5.58043e-07
-1.78876e-07
-4.0454e-07
-2.10561e-07
-2.29454e-07
-2.40823e-07
-3.65909e-08
-2.65743e-07
1.60969e-07
-2.73976e-07
3.52586e-07
-2.65728e-07
5.4291e-07
-2.64758e-07
7.28333e-07
-2.57244e-07
9.12397e-07
-2.57578e-07
1.08509e-06
-2.39437e-07
1.25689e-06
-2.4277e-07
1.40625e-06
-2.05198e-07
1.56218e-06
-2.24595e-07
1.67637e-06
-1.51017e-07
1.82098e-06
-2.16989e-07
1.88605e-06
-7.06981e-08
2.03907e-06
-2.46057e-07
2.03815e-06
4.54519e-08
2.25499e-06
-3.69814e-07
2.17406e-06
2.00442e-07
-1.04288e-06
2.91716e-06
2.43796e-05
3.96462e-07
5.14206e-06
-4.05409e-08
6.41267e-07
-2.39369e-07
3.27355e-07
-3.0247e-07
1.05664e-07
-3.44183e-07
6.06246e-08
-3.64177e-07
3.43941e-08
-3.7812e-07
1.83072e-08
-3.89392e-07
1.98475e-08
-3.99737e-07
1.545e-08
-4.12261e-07
2.26209e-08
-4.27316e-07
2.60401e-08
-4.47005e-07
3.61596e-08
-4.71524e-07
4.45936e-08
-5.01944e-07
5.63166e-08
-5.38307e-07
6.72298e-08
-5.81068e-07
7.9601e-08
-6.30167e-07
9.15404e-08
-6.85677e-07
1.0394e-07
-7.47348e-07
1.15819e-07
-8.1483e-07
1.2727e-07
-8.87444e-07
1.37529e-07
-9.64252e-07
1.46218e-07
-1.04394e-06
1.52569e-07
-1.12489e-06
1.56021e-07
-1.20517e-06
1.55967e-07
-1.2826e-06
1.51901e-07
-1.35471e-06
1.43223e-07
-1.41873e-06
1.29346e-07
-1.4717e-06
1.09782e-07
-1.51047e-06
8.41879e-08
-1.53187e-06
5.23415e-08
-1.53272e-06
1.42575e-08
-1.51001e-06
-2.98873e-08
-1.46099e-06
-7.96409e-08
-1.3832e-06
-1.34494e-07
-1.27468e-06
-1.93538e-07
-1.13393e-06
-2.55987e-07
-9.60151e-07
-3.20378e-07
-7.5327e-07
-3.85756e-07
-5.14628e-07
-4.49203e-07
-2.47666e-07
-5.07785e-07
4.02398e-08
-5.53649e-07
3.31832e-07
-5.65568e-07
6.18716e-07
-5.52612e-07
9.05414e-07
-5.51457e-07
1.18792e-06
-5.39747e-07
1.46614e-06
-5.35804e-07
1.73176e-06
-5.05054e-07
1.9895e-06
-5.00507e-07
2.22348e-06
-4.39187e-07
2.45198e-06
-4.53094e-07
2.64081e-06
-3.39841e-07
2.84015e-06
-4.1633e-07
2.97191e-06
-2.02457e-07
3.15796e-06
-4.32105e-07
3.22457e-06
-2.11663e-08
3.4544e-06
-5.99636e-07
3.46937e-06
1.8547e-07
-1.77225e-06
3.80889e-06
3.05707e-05
8.13205e-07
8.13775e-06
5.24343e-08
1.40204e-06
-2.53314e-07
6.33103e-07
-3.61942e-07
2.14292e-07
-4.33778e-07
1.32461e-07
-4.68299e-07
6.89145e-08
-4.94013e-07
4.40211e-08
-5.12557e-07
3.83916e-08
-5.29897e-07
3.27901e-08
-5.48472e-07
4.11965e-08
-5.70435e-07
4.80023e-08
-5.97761e-07
6.34864e-08
-6.31474e-07
7.83062e-08
-6.72611e-07
9.74533e-08
-7.21524e-07
1.16143e-07
-7.78597e-07
1.36674e-07
-8.4381e-07
1.56753e-07
-9.17084e-07
1.77214e-07
-9.98011e-07
1.96746e-07
-1.08595e-06
2.15206e-07
-1.17985e-06
2.31429e-07
-1.27828e-06
2.44649e-07
-1.37934e-06
2.53632e-07
-1.48073e-06
2.57413e-07
-1.57979e-06
2.55026e-07
-1.67354e-06
2.45652e-07
-1.75868e-06
2.28364e-07
-1.83162e-06
2.02278e-07
-1.88854e-06
1.66703e-07
-1.92555e-06
1.212e-07
-1.93876e-06
6.55554e-08
-1.92444e-06
-6.6206e-11
-1.87913e-06
-7.51942e-08
-1.79984e-06
-1.58931e-07
-1.68408e-06
-2.50261e-07
-1.53003e-06
-3.47588e-07
-1.33664e-06
-4.49369e-07
-1.1039e-06
-5.53119e-07
-8.32958e-07
-6.56701e-07
-5.26845e-07
-7.55315e-07
-1.91495e-07
-8.43135e-07
1.63041e-07
-9.08186e-07
5.22419e-07
-9.24946e-07
8.83263e-07
-9.13456e-07
1.24747e-06
-9.15661e-07
1.61011e-06
-9.02388e-07
1.96756e-06
-8.93259e-07
2.31239e-06
-8.49885e-07
2.64428e-06
-8.32388e-07
2.95145e-06
-7.46364e-07
3.24376e-06
-7.45399e-07
3.49714e-06
-5.93224e-07
3.74603e-06
-6.6522e-07
3.93415e-06
-3.90571e-07
4.15266e-06
-6.50623e-07
4.27279e-06
-1.41292e-07
4.51857e-06
-8.45413e-07
4.61032e-06
9.37217e-08
-2.53084e-06
4.61529e-06
3.59554e-05
1.32414e-06
1.14289e-05
2.12436e-07
2.51374e-06
-2.18541e-07
1.06408e-06
-3.86946e-07
3.82697e-07
-4.952e-07
2.40714e-07
-5.49337e-07
1.23051e-07
-5.89685e-07
8.43693e-08
-6.17736e-07
6.64428e-08
-6.43356e-07
5.84102e-08
-6.68877e-07
6.67173e-08
-6.98064e-07
7.71898e-08
-7.32999e-07
9.84207e-08
-7.75426e-07
1.20733e-07
-8.26434e-07
1.48461e-07
-8.86616e-07
1.76325e-07
-9.56285e-07
2.06343e-07
-1.03539e-06
2.35857e-07
-1.12365e-06
2.65476e-07
-1.22043e-06
2.93522e-07
-1.32472e-06
3.19495e-07
-1.43503e-06
3.41749e-07
-1.54942e-06
3.5903e-07
-1.66535e-06
3.69568e-07
-1.77988e-06
3.71938e-07
-1.88965e-06
3.64798e-07
-1.99101e-06
3.47014e-07
-2.08e-06
3.17358e-07
-2.15243e-06
2.74699e-07
-2.20396e-06
2.18236e-07
-2.23031e-06
1.47554e-07
-2.22735e-06
6.25926e-08
-2.19126e-06
-3.61591e-08
-2.11872e-06
-1.47735e-07
-2.007e-06
-2.70647e-07
-1.85409e-06
-4.03174e-07
-1.65882e-06
-5.42853e-07
-1.421e-06
-6.87188e-07
-1.1416e-06
-8.32519e-07
-8.23016e-07
-9.75288e-07
-4.69551e-07
-1.10878e-06
-8.84336e-08
-1.22425e-06
3.099e-07
-1.30652e-06
7.16539e-07
-1.33159e-06
1.13198e-06
-1.32889e-06
1.55478e-06
-1.33847e-06
1.97957e-06
-1.32718e-06
2.40016e-06
-1.31384e-06
2.80983e-06
-1.25956e-06
3.20393e-06
-1.22648e-06
3.57391e-06
-1.11634e-06
3.9221e-06
-1.09359e-06
4.23258e-06
-9.03702e-07
4.52656e-06
-9.59198e-07
4.76446e-06
-6.28477e-07
5.01437e-06
-9.00532e-07
5.17875e-06
-3.05671e-07
5.44184e-06
-1.1085e-06
5.59281e-06
-5.72472e-08
-3.27923e-06
5.34675e-06
4.06087e-05
1.90183e-06
1.48738e-05
4.47628e-07
3.96794e-06
-1.33897e-07
1.64561e-06
-3.76315e-07
6.25116e-07
-5.27616e-07
3.92015e-07
-6.06598e-07
2.02033e-07
-6.64633e-07
1.42405e-07
-7.04487e-07
1.06296e-07
-7.39744e-07
9.36682e-08
-7.73104e-07
1.00077e-07
-8.09827e-07
1.13913e-07
-8.5228e-07
1.40873e-07
-9.02858e-07
1.71311e-07
-9.6276e-07
2.08363e-07
-1.03276e-06
2.46321e-07
-1.11308e-06
2.86665e-07
-1.20357e-06
3.26347e-07
-1.3037e-06
3.65608e-07
-1.41252e-06
4.02344e-07
-1.52862e-06
4.35593e-07
-1.65004e-06
4.63164e-07
-1.77425e-06
4.83247e-07
-1.89819e-06
4.93504e-07
-2.0183e-06
4.92052e-07
-2.13071e-06
4.77209e-07
-2.23129e-06
4.47594e-07
-2.31571e-06
4.0177e-07
-2.37949e-06
3.38484e-07
-2.41822e-06
2.56967e-07
-2.42766e-06
1.56991e-07
-2.40388e-06
3.88092e-08
-2.34344e-06
-9.65924e-08
-2.24352e-06
-2.47658e-07
-2.10192e-06
-4.12242e-07
-1.91727e-06
-5.87831e-07
-1.68906e-06
-7.71061e-07
-1.4178e-06
-9.5845e-07
-1.10512e-06
-1.1452e-06
-7.54074e-07
-1.32633e-06
-3.69441e-07
-1.49341e-06
4.14008e-08
-1.63509e-06
4.68978e-07
-1.7341e-06
9.08873e-07
-1.77148e-06
1.36322e-06
-1.78324e-06
1.8279e-06
-1.80315e-06
2.29749e-06
-1.79677e-06
2.76446e-06
-1.78082e-06
3.22303e-06
-1.71813e-06
3.66555e-06
-1.669e-06
4.08628e-06
-1.53708e-06
4.48116e-06
-1.48846e-06
4.84138e-06
-1.26393e-06
5.17565e-06
-1.29347e-06
5.45955e-06
-9.12383e-07
5.73918e-06
-1.18016e-06
5.94428e-06
-5.10773e-07
6.22391e-06
-1.38813e-06
6.42269e-06
-2.56028e-07
-3.99061e-06
6.0088e-06
4.45999e-05
2.52337e-06
1.83592e-05
7.56385e-07
5.73493e-06
-2.61173e-09
2.4046e-06
-3.2887e-07
9.51374e-07
-5.30113e-07
5.93258e-07
-6.39347e-07
3.11267e-07
-7.1833e-07
2.21387e-07
-7.72365e-07
1.60332e-07
-8.18706e-07
1.40009e-07
-8.60814e-07
1.42185e-07
-9.05383e-07
1.58482e-07
-9.55211e-07
1.90701e-07
-1.0133e-06
2.29398e-07
-1.08099e-06
2.76057e-07
-1.15919e-06
3.24518e-07
-1.24802e-06
3.75493e-07
-1.34715e-06
4.25485e-07
-1.45578e-06
4.74238e-07
-1.5726e-06
5.19162e-07
-1.69577e-06
5.58758e-07
-1.82285e-06
5.90253e-07
-1.95087e-06
6.11263e-07
-2.07628e-06
6.18912e-07
-2.19515e-06
6.10919e-07
-2.3033e-06
5.85363e-07
-2.39644e-06
5.40731e-07
-2.47018e-06
4.75511e-07
-2.52016e-06
3.88468e-07
-2.5422e-06
2.79003e-07
-2.5324e-06
1.47197e-07
-2.48732e-06
-6.27762e-09
-2.40401e-06
-1.79897e-07
-2.28013e-06
-3.71537e-07
-2.11397e-06
-5.78402e-07
-1.9046e-06
-7.97198e-07
-1.65195e-06
-1.02371e-06
-1.35688e-06
-1.25352e-06
-1.02131e-06
-1.48077e-06
-6.48487e-07
-1.69915e-06
-2.43204e-07
-1.8987e-06
1.87549e-07
-2.06585e-06
6.35657e-07
-2.1822e-06
1.09946e-06
-2.23529e-06
1.58118e-06
-2.26495e-06
2.07489e-06
-2.29687e-06
2.57524e-06
-2.29712e-06
3.07415e-06
-2.27973e-06
3.5667e-06
-2.21068e-06
4.04364e-06
-2.14593e-06
4.50162e-06
-1.99506e-06
4.93198e-06
-1.91882e-06
5.33213e-06
-1.66408e-06
5.69971e-06
-1.66105e-06
6.02469e-06
-1.23737e-06
6.33072e-06
-1.48619e-06
6.57549e-06
-7.5554e-07
6.86905e-06
-1.68169e-06
7.10995e-06
-4.96923e-07
-4.64755e-06
6.60526e-06
4.79946e-05
3.16978e-06
2.17947e-05
1.13507e-06
7.76964e-06
1.9308e-07
3.34659e-06
-2.43344e-07
1.3878e-06
-5.0166e-07
8.51574e-07
-6.46762e-07
4.56369e-07
-7.50174e-07
3.24799e-07
-8.20886e-07
2.31044e-07
-8.7986e-07
1.98983e-07
-9.31659e-07
1.93984e-07
-9.84401e-07
2.11224e-07
-1.04143e-06
2.4773e-07
-1.10632e-06
2.94291e-07
-1.18061e-06
3.50343e-07
-1.26528e-06
4.09187e-07
-1.36034e-06
4.70557e-07
-1.46529e-06
5.30431e-07
-1.579e-06
5.87946e-07
-1.69982e-06
6.39987e-07
-1.82554e-06
6.84477e-07
-1.95336e-06
7.18076e-07
-2.07996e-06
7.3786e-07
-2.20154e-06
7.40495e-07
-2.31403e-06
7.23403e-07
-2.41321e-06
6.84546e-07
-2.49488e-06
6.22402e-07
-2.55487e-06
5.35497e-07
-2.58911e-06
4.22712e-07
-2.59381e-06
2.83696e-07
-2.56549e-06
1.18882e-07
-2.50115e-06
-7.06157e-08
-2.39825e-06
-2.828e-07
-2.25476e-06
-5.1503e-07
-2.06928e-06
-7.63881e-07
-1.84115e-06
-1.02532e-06
-1.57051e-06
-1.29436e-06
-1.25837e-06
-1.56566e-06
-9.06722e-07
-1.83242e-06
-5.18844e-07
-2.08703e-06
-9.93375e-08
-2.3182e-06
3.45383e-07
-2.51057e-06
8.08527e-07
-2.64535e-06
1.28979e-06
-2.71655e-06
1.79068e-06
-2.76584e-06
2.30422e-06
-2.8104e-06
2.8251e-06
-2.818e-06
3.34508e-06
-2.79971e-06
3.85989e-06
-2.72549e-06
4.35957e-06
-2.64561e-06
4.84256e-06
-2.47806e-06
5.29737e-06
-2.37363e-06
5.72632e-06
-2.09302e-06
6.11856e-06
-2.05329e-06
6.47672e-06
-1.59553e-06
6.80367e-06
-1.81314e-06
7.08511e-06
-1.03698e-06
7.38842e-06
-1.985e-06
7.66785e-06
-7.76355e-07
-5.23987e-06
7.13972e-06
5.08549e-05
3.82519e-06
2.51093e-05
1.57688e-06
1.0018e-05
4.37966e-07
4.4855e-06
-1.17816e-07
1.94358e-06
-4.41071e-07
1.17483e-06
-6.27912e-07
6.43211e-07
-7.59462e-07
4.56349e-07
-8.49491e-07
3.21073e-07
-9.22777e-07
2.72269e-07
-9.85274e-07
2.56481e-07
-1.04655e-06
2.72504e-07
-1.1106e-06
3.11777e-07
-1.18158e-06
3.65268e-07
-1.26123e-06
4.2999e-07
-1.35062e-06
4.98586e-07
-1.44968e-06
5.69616e-07
-1.55771e-06
6.38458e-07
-1.67333e-06
7.03564e-07
-1.79462e-06
7.61279e-07
-1.91909e-06
8.08948e-07
-2.04373e-06
8.42713e-07
-2.16505e-06
8.59182e-07
-2.27921e-06
8.54659e-07
-2.38219e-06
8.26378e-07
-2.46993e-06
7.72284e-07
-2.53845e-06
6.90928e-07
-2.5839e-06
5.80941e-07
-2.60254e-06
4.4136e-07
-2.59095e-06
2.72098e-07
-2.54601e-06
7.3946e-08
-2.46503e-06
-1.51592e-07
-2.34572e-06
-4.02111e-07
-2.18627e-06
-6.74484e-07
-1.98547e-06
-9.64682e-07
-1.74281e-06
-1.26798e-06
-1.45852e-06
-1.57865e-06
-1.13369e-06
-1.89049e-06
-7.70315e-07
-2.19579e-06
-3.71595e-07
-2.48575e-06
5.80949e-08
-2.74789e-06
5.12961e-07
-2.96544e-06
9.87357e-07
-3.11974e-06
1.48141e-06
-3.21061e-06
1.9956e-06
-3.28003e-06
2.5224e-06
-3.33719e-06
3.05657e-06
-3.35217e-06
3.58989e-06
-3.33303e-06
4.11851e-06
-3.25411e-06
4.63226e-06
-3.15935e-06
5.13078e-06
-2.97658e-06
5.60099e-06
-2.84385e-06
6.04876e-06
-2.54079e-06
6.45732e-06
-2.46185e-06
6.83944e-06
-1.97765e-06
7.18086e-06
-2.15455e-06
7.49272e-06
-1.34884e-06
7.80072e-06
-2.293e-06
8.1138e-06
-1.08943e-06
-5.76353e-06
7.61599e-06
5.32389e-05
4.47647e-06
2.82488e-05
2.07303e-06
1.24214e-05
7.37649e-07
5.82089e-06
4.98035e-08
2.63143e-06
-3.47021e-07
1.57165e-06
-5.81746e-07
8.77937e-07
-7.45369e-07
6.19972e-07
-8.57533e-07
4.33236e-07
-9.46959e-07
3.61695e-07
-1.02126e-06
3.30778e-07
-1.09152e-06
3.42764e-07
-1.16245e-06
3.82708e-07
-1.23883e-06
4.41653e-07
-1.32267e-06
5.13831e-07
-1.41518e-06
5.91089e-07
-1.5162e-06
6.70635e-07
-1.62492e-06
7.47185e-07
-1.7398e-06
8.18443e-07
-1.85875e-06
8.80227e-07
-1.97913e-06
9.2933e-07
-2.09786e-06
9.61441e-07
-2.21145e-06
9.72775e-07
-2.31616e-06
9.59363e-07
-2.40811e-06
9.18328e-07
-2.48349e-06
8.47664e-07
-2.53859e-06
7.46035e-07
-2.56985e-06
6.12199e-07
-2.57385e-06
4.4536e-07
-2.54744e-06
2.45687e-07
-2.48779e-06
1.42997e-08
-2.39242e-06
-2.46967e-07
-2.25918e-06
-5.35347e-07
-2.08644e-06
-8.47232e-07
-1.8731e-06
-1.17802e-06
-1.61877e-06
-1.52232e-06
-1.32372e-06
-1.87369e-06
-9.8908e-07
-2.22513e-06
-6.16815e-07
-2.56806e-06
-2.10036e-07
-2.89253e-06
2.27132e-07
-3.18506e-06
6.89487e-07
-3.42779e-06
1.17231e-06
-3.60256e-06
1.67561e-06
-3.71391e-06
2.19876e-06
-3.80318e-06
2.73406e-06
-3.8725e-06
3.27635e-06
-3.89446e-06
3.81751e-06
-3.87419e-06
4.35395e-06
-3.79055e-06
4.87555e-06
-3.68096e-06
5.38272e-06
-3.48375e-06
5.86158e-06
-3.32271e-06
6.32037e-06
-2.99958e-06
6.73847e-06
-2.87995e-06
7.13613e-06
-2.37531e-06
7.48607e-06
-2.5045e-06
7.82051e-06
-1.68328e-06
8.12854e-06
-2.60103e-06
8.46816e-06
-1.42905e-06
-6.21971e-06
8.03813e-06
5.52008e-05
5.11287e-06
3.1174e-05
2.61341e-06
1.49208e-05
1.09171e-06
7.34259e-06
2.60822e-07
3.46231e-06
-2.18073e-07
2.05055e-06
-5.07094e-07
1.16696e-06
-7.0694e-07
8.19817e-07
-8.44261e-07
5.70558e-07
-9.51837e-07
4.6927e-07
-1.03917e-06
4.18116e-07
-1.11898e-06
4.22571e-07
-1.19677e-06
4.60498e-07
-1.27802e-06
5.22902e-07
-1.36506e-06
6.00866e-07
-1.45929e-06
6.8532e-07
-1.56059e-06
7.71937e-07
-1.66812e-06
8.5472e-07
-1.78026e-06
9.30577e-07
-1.89485e-06
9.94818e-07
-2.00923e-06
1.04371e-06
-2.12036e-06
1.07257e-06
-2.22485e-06
1.07726e-06
-2.31911e-06
1.05362e-06
-2.39948e-06
9.98701e-07
-2.46239e-06
9.10577e-07
-2.5044e-06
7.88044e-07
-2.52219e-06
6.29987e-07
-2.5126e-06
4.35769e-07
-2.47271e-06
2.05797e-07
-2.3999e-06
-5.85144e-08
-2.29181e-06
-3.55053e-07
-2.14645e-06
-6.8071e-07
-1.96228e-06
-1.0314e-06
-1.73835e-06
-1.40195e-06
-1.4743e-06
-1.78637e-06
-1.17047e-06
-2.17752e-06
-8.27988e-07
-2.56761e-06
-4.48799e-07
-2.94725e-06
-3.59126e-08
-3.30542e-06
4.06794e-07
-3.62777e-06
8.74649e-07
-3.89564e-06
1.36365e-06
-4.09156e-06
1.87339e-06
-4.22366e-06
2.40222e-06
-4.33201e-06
2.94247e-06
-4.41275e-06
3.48905e-06
-4.44104e-06
4.03403e-06
-4.41917e-06
4.57398e-06
-4.3305e-06
5.09897e-06
-4.20594e-06
5.60986e-06
-3.99464e-06
6.09246e-06
-3.80531e-06
6.55654e-06
-3.46365e-06
6.97905e-06
-3.30246e-06
7.38552e-06
-2.78178e-06
7.73922e-06
-2.8582e-06
8.08872e-06
-2.03278e-06
8.39316e-06
-2.90546e-06
8.75129e-06
-1.78718e-06
-6.61315e-06
8.41037e-06
5.67904e-05
5.72589e-06
3.38585e-05
3.18723e-06
1.74595e-05
1.49819e-06
9.03162e-06
5.18212e-07
4.44229e-06
-5.28524e-08
2.62161e-06
-4.02663e-07
1.51677e-06
-6.4308e-07
1.06023e-06
-8.08818e-07
7.36296e-07
-9.36757e-07
5.97209e-07
-1.03856e-06
5.19918e-07
-1.12865e-06
5.12667e-07
-1.21346e-06
5.45303e-07
-1.29923e-06
6.08674e-07
-1.38872e-06
6.90357e-07
-1.48364e-06
7.80234e-07
-1.58396e-06
8.72265e-07
-1.68893e-06
9.59687e-07
-1.79692e-06
1.03856e-06
-1.90582e-06
1.10372e-06
-2.01302e-06
1.15092e-06
-2.11558e-06
1.17513e-06
-2.21027e-06
1.17195e-06
-2.29369e-06
1.13704e-06
-2.3624e-06
1.06741e-06
-2.41306e-06
9.61239e-07
-2.44246e-06
8.17439e-07
-2.44749e-06
6.35021e-07
-2.42521e-06
4.13492e-07
-2.3729e-06
1.53482e-07
-2.28807e-06
-1.43341e-07
-2.1685e-06
-4.74623e-07
-2.0123e-06
-8.36909e-07
-1.81806e-06
-1.22564e-06
-1.5849e-06
-1.63512e-06
-1.31252e-06
-2.05874e-06
-1.00131e-06
-2.48873e-06
-6.52416e-07
-2.91651e-06
-2.67742e-07
-3.33192e-06
1.49799e-07
-3.72296e-06
5.96567e-07
-4.07454e-06
1.06834e-06
-4.36742e-06
1.56165e-06
-4.58487e-06
2.07556e-06
-4.73757e-06
2.60749e-06
-4.86394e-06
3.14994e-06
-4.95519e-06
3.6979e-06
-4.98901e-06
4.24367e-06
-4.96493e-06
4.78392e-06
-4.87076e-06
5.30899e-06
-4.73101e-06
5.82e-06
-4.50565e-06
6.30275e-06
-4.28806e-06
6.76793e-06
-3.92883e-06
7.19106e-06
-3.72559e-06
7.60127e-06
-3.19199e-06
7.95515e-06
-3.21207e-06
8.31345e-06
-2.39108e-06
8.61182e-06
-3.20383e-06
8.98086e-06
-2.15622e-06
-6.95022e-06
8.73701e-06
5.80534e-05
6.30904e-06
3.62865e-05
3.7836e-06
1.99849e-05
1.95358e-06
1.08616e-05
8.2315e-07
5.57272e-06
1.51259e-07
3.2935e-06
-2.67029e-07
1.93506e-06
-5.52545e-07
1.34575e-06
-7.50221e-07
9.33971e-07
-9.0097e-07
7.47958e-07
-1.01889e-06
6.37835e-07
-1.12025e-06
6.14024e-07
-1.21245e-06
6.37511e-07
-1.30267e-06
6.98894e-07
-1.39418e-06
7.81864e-07
-1.48909e-06
8.75137e-07
-1.58759e-06
9.70766e-07
-1.68906e-06
1.06116e-06
-1.79199e-06
1.14149e-06
-1.89436e-06
1.20609e-06
-1.99368e-06
1.25024e-06
-2.08716e-06
1.2686e-06
-2.17173e-06
1.25653e-06
-2.2442e-06
1.20952e-06
-2.30136e-06
1.12457e-06
-2.34006e-06
9.99944e-07
-2.35731e-06
8.34682e-07
-2.35019e-06
6.27901e-07
-2.31594e-06
3.79242e-07
-2.252e-06
8.95415e-08
-2.15601e-06
-2.39326e-07
-2.02586e-06
-6.04777e-07
-1.85977e-06
-1.003e-06
-1.65642e-06
-1.42898e-06
-1.41502e-06
-1.87652e-06
-1.13536e-06
-2.33841e-06
-8.17823e-07
-2.80627e-06
-4.63586e-07
-3.27075e-06
-7.45345e-08
-3.72097e-06
3.46526e-07
-4.14402e-06
7.96168e-07
-4.52418e-06
1.27054e-06
-4.84179e-06
1.76657e-06
-5.08089e-06
2.28274e-06
-5.25374e-06
2.8157e-06
-5.3969e-06
3.35815e-06
-5.49764e-06
3.90521e-06
-5.53607e-06
4.4494e-06
-5.50912e-06
4.98749e-06
-5.40884e-06
5.5101e-06
-5.25363e-06
6.01853e-06
-5.01408e-06
6.49871e-06
-4.76825e-06
6.9619e-06
-4.39201e-06
7.38282e-06
-4.14652e-06
7.793e-06
-3.60218e-06
8.1444e-06
-3.56347e-06
8.50659e-06
-2.75327e-06
8.79727e-06
-3.4945e-06
9.17084e-06
-2.52979e-06
-7.23744e-06
9.02226e-06
5.90312e-05
6.85762e-06
3.84511e-05
4.392e-06
2.24506e-05
2.45284e-06
1.28008e-05
1.17617e-06
6.84939e-06
3.95355e-07
4.07432e-06
-9.84133e-08
2.42883e-06
-4.33921e-07
1.68126e-06
-6.67343e-07
1.16739e-06
-8.43603e-07
9.24218e-07
-9.79552e-07
7.73785e-07
-1.09341e-06
7.27883e-07
-1.19369e-06
7.37792e-07
-1.28857e-06
7.93776e-07
-1.38197e-06
8.75256e-07
-1.47649e-06
9.69665e-07
-1.57266e-06
1.06694e-06
-1.67009e-06
1.15859e-06
-1.7674e-06
1.2388e-06
-1.86274e-06
1.30143e-06
-1.95378e-06
1.34128e-06
-2.0379e-06
1.35272e-06
-2.11223e-06
1.33086e-06
-2.17379e-06
1.27108e-06
-2.21955e-06
1.17033e-06
-2.24659e-06
1.02698e-06
-2.25207e-06
8.40167e-07
-2.23328e-06
6.09109e-07
-2.18761e-06
3.3357e-07
-2.11264e-06
1.45745e-08
-2.00613e-06
-3.45833e-07
-1.86607e-06
-7.44844e-07
-1.69079e-06
-1.17828e-06
-1.47908e-06
-1.64069e-06
-1.23022e-06
-2.12538e-06
-9.44043e-07
-2.62458e-06
-6.21007e-07
-3.1293e-06
-2.62284e-07
-3.62947e-06
1.30258e-07
-4.11351e-06
5.53913e-07
-4.56767e-06
1.00544e-06
-4.9757e-06
1.48127e-06
-5.31763e-06
1.97863e-06
-5.57825e-06
2.49544e-06
-5.77055e-06
3.02771e-06
-5.92917e-06
3.56837e-06
-6.0383e-06
4.11267e-06
-6.08037e-06
4.65337e-06
-6.04981e-06
5.18732e-06
-5.9428e-06
5.70548e-06
-5.77178e-06
6.20919e-06
-5.51779e-06
6.6847e-06
-5.24376e-06
7.14353e-06
-4.85084e-06
7.56009e-06
-4.56308e-06
7.96741e-06
-4.0095e-06
8.31433e-06
-3.91039e-06
8.67668e-06
-3.11561e-06
8.9586e-06
-3.77643e-06
9.33165e-06
-2.90283e-06
-7.48075e-06
9.27024e-06
5.97609e-05
7.36851e-06
4.03529e-05
5.00256e-06
2.48165e-05
2.98966e-06
1.48137e-05
1.57672e-06
8.26233e-06
6.81248e-07
4.96979e-06
1.05062e-07
3.00501e-06
-2.85626e-07
2.07195e-06
-5.5889e-07
1.44066e-06
-7.63618e-07
1.12895e-06
-9.19806e-07
9.29973e-07
-1.0477e-06
8.55774e-07
-1.15701e-06
8.47106e-07
-1.25706e-06
8.93825e-07
-1.3525e-06
9.70693e-07
-1.44657e-06
1.06374e-06
-1.54019e-06
1.16055e-06
-1.63326e-06
1.25166e-06
-1.72465e-06
1.3302e-06
-1.81271e-06
1.38949e-06
-1.89527e-06
1.42384e-06
-1.96991e-06
1.42737e-06
-2.03398e-06
1.39493e-06
-2.0847e-06
1.32179e-06
-2.11923e-06
1.20486e-06
-2.13485e-06
1.0426e-06
-2.1289e-06
8.34217e-07
-2.09882e-06
5.79025e-07
-2.04215e-06
2.76904e-07
-1.95662e-06
-7.09605e-08
-1.84007e-06
-4.62378e-07
-1.69061e-06
-8.94306e-07
-1.50669e-06
-1.3622e-06
-1.28719e-06
-1.86019e-06
-1.03147e-06
-2.3811e-06
-7.39422e-07
-2.91663e-06
-4.11546e-07
-3.45718e-06
-4.90366e-08
-3.99198e-06
3.46261e-07
-4.50881e-06
7.71727e-07
-4.99314e-06
1.22427e-06
-5.42824e-06
1.70057e-06
-5.79393e-06
2.19803e-06
-6.0757e-06
2.71408e-06
-6.28661e-06
3.2442e-06
-6.45929e-06
3.78157e-06
-6.57567e-06
4.32156e-06
-6.62036e-06
4.85718e-06
-6.58543e-06
5.38537e-06
-6.47099e-06
5.89741e-06
-6.28382e-06
6.39471e-06
-6.01509e-06
6.86383e-06
-5.71288e-06
7.31644e-06
-5.30345e-06
7.72691e-06
-4.97355e-06
8.12921e-06
-4.4118e-06
8.47011e-06
-4.2513e-06
8.82976e-06
-3.47526e-06
9.10221e-06
-4.04888e-06
9.47087e-06
-3.2715e-06
-7.68521e-06
9.48489e-06
6.0276e-05
7.83994e-06
4.19978e-05
5.60638e-06
2.70501e-05
3.55672e-06
1.68634e-05
2.02301e-06
9.79604e-06
1.01038e-06
5.98242e-06
3.45451e-07
3.66994e-06
-1.05954e-07
2.52335e-06
-4.23392e-07
1.7581e-06
-6.59788e-07
1.36534e-06
-8.38718e-07
1.1089e-06
-9.82473e-07
9.99528e-07
-1.10209e-06
9.66718e-07
-1.2081e-06
9.99837e-07
-1.30601e-06
1.0686e-06
-1.39981e-06
1.15754e-06
-1.49087e-06
1.25162e-06
-1.57952e-06
1.34031e-06
-1.66488e-06
1.41555e-06
-1.74553e-06
1.47013e-06
-1.81953e-06
1.49784e-06
-1.88468e-06
1.49252e-06
-1.93853e-06
1.44878e-06
-1.97851e-06
1.36177e-06
-2.00198e-06
1.22834e-06
-2.0064e-06
1.04702e-06
-1.98929e-06
8.171e-07
-1.94822e-06
5.37957e-07
-1.88089e-06
2.09581e-07
-1.78515e-06
-1.66703e-07
-1.65895e-06
-5.88577e-07
-1.50051e-06
-1.05275e-06
-1.30839e-06
-1.55432e-06
-1.08156e-06
-2.08701e-06
-8.19469e-07
-2.6432e-06
-5.22075e-07
-3.21402e-06
-1.89917e-07
-3.78934e-06
1.7579e-07
-4.35769e-06
5.73215e-07
-4.90624e-06
9.99812e-07
-5.41973e-06
1.45261e-06
-5.88104e-06
1.92849e-06
-6.26981e-06
2.42494e-06
-6.57215e-06
2.93899e-06
-6.80066e-06
3.46571e-06
-6.98601e-06
3.99849e-06
-7.10846e-06
4.53284e-06
-7.15471e-06
5.06203e-06
-7.11462e-06
5.58309e-06
-6.99204e-06
6.08762e-06
-6.78835e-06
6.57705e-06
-6.50452e-06
7.03837e-06
-6.1742e-06
7.48324e-06
-5.74831e-06
7.88623e-06
-5.37654e-06
8.28177e-06
-4.80734e-06
8.61542e-06
-4.58495e-06
8.97016e-06
-3.82999e-06
9.2326e-06
-4.31132e-06
9.59396e-06
-3.63286e-06
-7.85502e-06
9.66995e-06
6.06061e-05
8.27129e-06
4.33965e-05
6.19567e-06
2.91257e-05
4.14601e-06
1.8913e-05
2.51197e-06
1.14301e-05
1.38355e-06
7.11084e-06
6.24812e-07
4.42868e-06
1.07016e-07
3.04115e-06
-2.59221e-07
2.12433e-06
-5.30679e-07
1.6368e-06
-7.35141e-07
1.31337e-06
-8.96884e-07
1.16127e-06
-1.02836e-06
1.0982e-06
-1.14142e-06
1.11289e-06
-1.24249e-06
1.16968e-06
-1.33641e-06
1.25146e-06
-1.42515e-06
1.34035e-06
-1.50946e-06
1.42463e-06
-1.58882e-06
1.4949e-06
-1.66207e-06
1.54339e-06
-1.72754e-06
1.56331e-06
-1.78324e-06
1.54822e-06
-1.82695e-06
1.4925e-06
-1.85631e-06
1.39113e-06
-1.86889e-06
1.24092e-06
-1.86231e-06
1.04044e-06
-1.83426e-06
7.89045e-07
-1.78246e-06
4.86161e-07
-1.70476e-06
1.31881e-07
-1.59911e-06
-2.72358e-07
-1.46357e-06
-7.24116e-07
-1.29648e-06
-1.21984e-06
-1.09653e-06
-1.75428e-06
-8.62766e-07
-2.32077e-06
-5.94719e-07
-2.91124e-06
-2.92421e-07
-3.51632e-06
4.35419e-08
-4.1253e-06
4.11935e-07
-4.72608e-06
8.10939e-07
-5.30524e-06
1.23806e-06
-5.84685e-06
1.69042e-06
-6.3334e-06
2.16505e-06
-6.74444e-06
2.6595e-06
-7.06661e-06
3.17046e-06
-7.31161e-06
3.69266e-06
-7.50821e-06
4.21974e-06
-7.63553e-06
4.74729e-06
-7.68227e-06
5.26887e-06
-7.6362e-06
5.78158e-06
-7.50475e-06
6.27738e-06
-7.28416e-06
6.75772e-06
-6.98486e-06
7.21002e-06
-6.6265e-06
7.64585e-06
-6.18414e-06
8.04017e-06
-5.77086e-06
8.42755e-06
-5.19473e-06
8.75293e-06
-4.91033e-06
9.101e-06
-4.17807e-06
9.353e-06
-4.56331e-06
9.70485e-06
-3.98472e-06
-7.99362e-06
9.82892e-06
6.07772e-05
8.66287e-06
4.45625e-05
6.76383e-06
3.10247e-05
4.7492e-06
2.09277e-05
3.03925e-06
1.314e-05
1.8007e-06
8.34939e-06
9.44826e-07
5.28456e-06
3.552e-07
3.63077e-06
-6.45429e-08
2.54408e-06
-3.7467e-07
1.94693e-06
-6.0771e-07
1.54641e-06
-7.89841e-07
1.3434e-06
-9.35046e-07
1.2434e-06
-1.0565e-06
1.23435e-06
-1.16168e-06
1.27486e-06
-1.25635e-06
1.34613e-06
-1.34315e-06
1.42715e-06
-1.42338e-06
1.50486e-06
-1.4969e-06
1.56842e-06
-1.56288e-06
1.60938e-06
-1.61991e-06
1.62034e-06
-1.66628e-06
1.59458e-06
-1.69997e-06
1.52619e-06
-1.71886e-06
1.41002e-06
-1.72071e-06
1.24277e-06
-1.70332e-06
1.02305e-06
-1.66454e-06
7.50263e-07
-1.60224e-06
4.23863e-07
-1.5144e-06
4.40433e-08
-1.39909e-06
-3.87674e-07
-1.25448e-06
-8.68722e-07
-1.07904e-06
-1.39527e-06
-8.71564e-07
-1.96176e-06
-6.31207e-07
-2.56113e-06
-3.5757e-07
-3.18488e-06
-5.07592e-08
-3.82313e-06
2.88588e-07
-4.46465e-06
6.59216e-07
-5.09671e-06
1.0593e-06
-5.70533e-06
1.48638e-06
-6.27394e-06
1.93768e-06
-6.78469e-06
2.41031e-06
-7.21707e-06
2.90186e-06
-7.55816e-06
3.40873e-06
-7.81848e-06
3.92543e-06
-8.02492e-06
4.44578e-06
-8.15588e-06
4.96551e-06
-8.20199e-06
5.47841e-06
-8.14911e-06
5.98171e-06
-8.00805e-06
6.46771e-06
-7.77016e-06
6.93787e-06
-7.45502e-06
7.38005e-06
-7.06868e-06
7.80573e-06
-6.60983e-06
8.19034e-06
-6.15546e-06
8.56838e-06
-5.57277e-06
8.88459e-06
-5.22653e-06
9.22459e-06
-4.51807e-06
9.46576e-06
-4.80448e-06
9.80644e-06
-4.3254e-06
-8.10385e-06
9.96506e-06
6.08121e-05
9.01575e-06
4.55118e-05
7.30554e-06
3.2735e-05
5.35797e-06
2.28752e-05
3.59936e-06
1.48986e-05
2.26077e-06
9.68798e-06
1.30673e-06
6.2386e-06
6.40413e-07
4.29709e-06
1.6257e-07
3.02192e-06
-1.8999e-07
2.29949e-06
-4.54861e-07
1.81128e-06
-6.60015e-07
1.54856e-06
-8.21088e-07
1.40447e-06
-9.52573e-07
1.36583e-06
-1.06305e-06
1.38533e-06
-1.15931e-06
1.4424e-06
-1.24475e-06
1.5126e-06
-1.32131e-06
1.58141e-06
-1.38927e-06
1.63638e-06
-1.44821e-06
1.66831e-06
-1.49699e-06
1.66913e-06
-1.53418e-06
1.63177e-06
-1.55803e-06
1.55004e-06
-1.56661e-06
1.4186e-06
-1.55791e-06
1.23406e-06
-1.5299e-06
9.95042e-07
-1.48059e-06
7.00955e-07
-1.408e-06
3.51275e-07
-1.31025e-06
-5.3714e-08
-1.1855e-06
-5.12421e-07
-1.03207e-06
-1.02215e-06
-8.48547e-07
-1.5788e-06
-6.33828e-07
-2.17648e-06
-3.87176e-07
-2.80778e-06
-1.08276e-07
-3.46378e-06
2.02696e-07
-4.1341e-06
5.4505e-07
-4.807e-06
9.17501e-07
-5.46916e-06
1.31821e-06
-6.10603e-06
1.74474e-06
-6.70047e-06
2.19437e-06
-7.23432e-06
2.66431e-06
-7.68701e-06
3.15213e-06
-8.04598e-06
3.654e-06
-8.32035e-06
4.1643e-06
-8.53522e-06
4.67701e-06
-8.6686e-06
5.18798e-06
-8.71296e-06
5.69126e-06
-8.65239e-06
6.18418e-06
-8.50096e-06
6.65939e-06
-8.24538e-06
7.11837e-06
-7.91399e-06
7.54946e-06
-7.49977e-06
7.964e-06
-7.02437e-06
8.33796e-06
-6.52942e-06
8.70564e-06
-5.94045e-06
9.01188e-06
-5.53277e-06
9.34263e-06
-4.84883e-06
9.57261e-06
-5.03446e-06
9.90082e-06
-4.65361e-06
-8.18802e-06
1.00814e-05
6.07307e-05
9.33159e-06
4.62616e-05
7.81667e-06
3.42499e-05
5.96431e-06
2.47276e-05
4.18583e-06
1.66771e-05
2.76152e-06
1.11123e-05
1.71115e-06
7.28896e-06
9.64424e-07
5.04381e-06
4.24179e-07
3.56217e-06
2.52064e-08
2.69846e-06
-2.74858e-07
2.11134e-06
-5.05859e-07
1.77956e-06
-6.85201e-07
1.58382e-06
-8.28612e-07
1.50924e-06
-9.45823e-07
1.50254e-06
-1.04473e-06
1.5413e-06
-1.12959e-06
1.59746e-06
-1.20303e-06
1.65485e-06
-1.26586e-06
1.69922e-06
-1.31807e-06
1.72052e-06
-1.35888e-06
1.70993e-06
-1.38713e-06
1.66001e-06
-1.40134e-06
1.56425e-06
-1.39982e-06
1.41709e-06
-1.38076e-06
1.215e-06
-1.34234e-06
9.56619e-07
-1.28271e-06
6.41326e-07
-1.20004e-06
2.68607e-07
-1.09258e-06
-1.6118e-07
-9.58616e-07
-6.46382e-07
-7.96596e-07
-1.18417e-06
-6.05233e-07
-1.77016e-06
-3.83536e-07
-2.39818e-06
-1.3087e-07
-3.06045e-06
1.52991e-07
-3.74764e-06
4.67802e-07
-4.44891e-06
8.12814e-07
-5.15201e-06
1.1867e-06
-5.84305e-06
1.5876e-06
-6.50693e-06
2.01309e-06
-7.12597e-06
2.4605e-06
-7.68173e-06
2.92709e-06
-8.1536e-06
3.41041e-06