/*--------------------------------*- C++ -*----------------------------------*\
| =========                 |                                                 |
| \\      /  F ield         | OpenFOAM: The Open Source CFD Toolbox           |
|  \\    /   O peration     | Version:  2.4.0                                 |
|   \\  /    A nd           | Web:      www.OpenFOAM.org                      |
|    \\/     M anipulation  |                                                 |
\*---------------------------------------------------------------------------*/
FoamFile
{
    version     2.0;
    format      ascii;
    class       volScalarField;
    location    "4.3";
    object      nut;
}
// * * * * * * * * * * * * * * * * * * * * * * * * * * * * * * * * * * * * * //

dimensions      [0 2 -1 0 0 0 0];

internalField   nonuniform List<scalar> 
6000
(
4.70151e-05
1.44412e-05
4.24862e-06
8.77672e-06
7.789e-06
8.927e-06
8.56868e-06
8.94255e-06
8.81873e-06
9.02821e-06
9.06857e-06
9.29979e-06
9.51579e-06
9.8764e-06
1.02933e-05
1.08214e-05
1.14125e-05
1.20808e-05
1.28072e-05
1.36016e-05
1.44603e-05
1.53843e-05
1.63634e-05
1.73833e-05
1.84235e-05
1.94628e-05
2.0479e-05
2.14504e-05
2.23554e-05
2.31729e-05
2.38816e-05
2.44598e-05
2.48858e-05
2.5137e-05
2.51879e-05
2.5015e-05
2.45949e-05
2.39043e-05
2.29246e-05
2.16429e-05
2.00691e-05
1.82422e-05
1.62452e-05
1.58994e-05
1.79098e-05
1.99825e-05
2.20175e-05
2.40529e-05
2.58783e-05
2.76807e-05
2.90442e-05
3.05531e-05
3.12447e-05
3.26456e-05
3.23905e-05
3.42409e-05
3.24749e-05
3.59278e-05
3.17475e-05
3.809e-05
2.94897e-05
9.50702e-06
3.16633e-06
7.01505e-06
6.32289e-06
7.01741e-06
6.77591e-06
7.01017e-06
6.9391e-06
7.08756e-06
7.14512e-06
7.33704e-06
7.54153e-06
7.85626e-06
8.23068e-06
8.69539e-06
9.22284e-06
9.82006e-06
1.04779e-05
1.12019e-05
1.19902e-05
1.28407e-05
1.37437e-05
1.46859e-05
1.5651e-05
1.66231e-05
1.75878e-05
1.8533e-05
1.94491e-05
2.0329e-05
2.11687e-05
2.19672e-05
2.27279e-05
2.34585e-05
2.41701e-05
2.48886e-05
2.56577e-05
2.6551e-05
2.7692e-05
2.92945e-05
3.17216e-05
3.5569e-05
4.14534e-05
4.22768e-05
3.60212e-05
3.14379e-05
2.83713e-05
2.63613e-05
2.50986e-05
2.43348e-05
2.38328e-05
2.36114e-05
2.33076e-05
2.33735e-05
2.29168e-05
2.33553e-05
2.23705e-05
2.36449e-05
2.16204e-05
2.42426e-05
2.14309e-05
8.16008e-06
2.81446e-06
5.88993e-06
5.32685e-06
5.68268e-06
5.49868e-06
5.6338e-06
5.59723e-06
5.71381e-06
5.79938e-06
5.99383e-06
6.23276e-06
6.57613e-06
7.00133e-06
7.52666e-06
8.14272e-06
8.8567e-06
9.67112e-06
1.05936e-05
1.16273e-05
1.27706e-05
1.40148e-05
1.53466e-05
1.6751e-05
1.82139e-05
1.97251e-05
2.12793e-05
2.28774e-05
2.45273e-05
2.62453e-05
2.80585e-05
3.00086e-05
3.21544e-05
3.4557e-05
3.73389e-05
4.06745e-05
4.48311e-05
5.02201e-05
5.74979e-05
6.76632e-05
8.21223e-05
0.00010143
0.000103416
8.3063e-05
6.60569e-05
5.32204e-05
4.3596e-05
3.66557e-05
3.14515e-05
2.7726e-05
2.48276e-05
2.27372e-05
2.10415e-05
1.97561e-05
1.87828e-05
1.78028e-05
1.74878e-05
1.63813e-05
1.68032e-05
1.78746e-05
7.96934e-06
2.98826e-06
5.26083e-06
4.70414e-06
4.76827e-06
4.59505e-06
4.65246e-06
4.63813e-06
4.74428e-06
4.87209e-06
5.10892e-06
5.43283e-06
5.88409e-06
6.46547e-06
7.19468e-06
8.08433e-06
9.1523e-06
1.04211e-05
1.1911e-05
1.36395e-05
1.56131e-05
1.78302e-05
2.02804e-05
2.29512e-05
2.58306e-05
2.8913e-05
3.22014e-05
3.57106e-05
3.94693e-05
4.35237e-05
4.79429e-05
5.28283e-05
5.82856e-05
6.44282e-05
7.15163e-05
7.98751e-05
8.99718e-05
0.000102468
0.000118323
0.000138796
0.000165282
0.000196417
0.000198371
0.00016514
0.000133604
0.000107192
8.55631e-05
6.87072e-05
5.52864e-05
4.52083e-05
3.70863e-05
3.12037e-05
2.62161e-05
2.28351e-05
1.96571e-05
1.77515e-05
1.56898e-05
1.45704e-05
1.33856e-05
1.67546e-05
8.4451e-06
3.53564e-06
5.03924e-06
4.40631e-06
4.18565e-06
3.98104e-06
3.96843e-06
3.96764e-06
4.08122e-06
4.27106e-06
4.59554e-06
5.06957e-06
5.73014e-06
6.61063e-06
7.74347e-06
9.17573e-06
1.09531e-05
1.31344e-05
1.57696e-05
1.89048e-05
2.25667e-05
2.67683e-05
3.15072e-05
3.67741e-05
4.25573e-05
4.88515e-05
5.56623e-05
6.30107e-05
7.0936e-05
7.95001e-05
8.8796e-05
9.897e-05
0.000109987
0.000122051
0.000135464
0.000150573
0.000167858
0.000187956
0.000211734
0.000240197
0.000274193
0.00031001
0.000310998
0.000271455
0.000229652
0.000191259
0.000157041
0.000128025
0.000103231
8.3234e-05
6.638e-05
5.34839e-05
4.24314e-05
3.46319e-05
2.74344e-05
2.3078e-05
1.83146e-05
1.61252e-05
1.32575e-05
1.71085e-05
9.39791e-06
4.39222e-06
5.14759e-06
4.41121e-06
3.89013e-06
3.61097e-06
3.52498e-06
3.53087e-06
3.66887e-06
3.94858e-06
4.41859e-06
5.13391e-06
6.14683e-06
7.53543e-06
9.36816e-06
1.1747e-05
1.47673e-05
1.85422e-05
2.31648e-05
2.87168e-05
3.52472e-05
4.27804e-05
5.13136e-05
6.08264e-05
7.12873e-05
8.26648e-05
9.4934e-05
0.000108082
0.00012211
0.000137039
0.000152918
0.000169794
0.000187394
0.00020598
0.000225781
0.000247045
0.000270131
0.000295511
0.000323835
0.000355808
0.000391771
0.000426541
0.000426423
0.000386311
0.000340117
0.000294553
0.000251153
0.000211642
0.000175658
0.000144481
0.000116808
9.41046e-05
7.41391e-05
5.89823e-05
4.52507e-05
3.61229e-05
2.69215e-05
2.20803e-05
1.68831e-05
1.83893e-05
1.07092e-05
5.51704e-06
5.50574e-06
4.69606e-06
3.86637e-06
3.46647e-06
3.29411e-06
3.30035e-06
3.48103e-06
3.8895e-06
4.58351e-06
5.67009e-06
7.23992e-06
9.43669e-06
1.23889e-05
1.6273e-05
2.12477e-05
2.74813e-05
3.51001e-05
4.42023e-05
5.48366e-05
6.70144e-05
8.07054e-05
9.58453e-05
0.000112344
0.000130101
0.000149012
0.000168979
0.000189913
0.000211739
0.000234418
0.000257708
0.000281274
0.000305363
0.000330105
0.000355639
0.000382203
0.000410123
0.000439879
0.000472002
0.000506372
0.000537401
0.00053643
0.000498936
0.000452619
0.000404324
0.000355961
0.00030948
0.000264993
0.000224122
0.000186152
0.000152949
0.000122816
9.81782e-05
7.58695e-05
5.94501e-05
4.38714e-05
3.42292e-05
2.57066e-05
2.02058e-05
1.22753e-05
6.86692e-06
6.06127e-06
5.20666e-06
4.11218e-06
3.54806e-06
3.26924e-06
3.26934e-06
3.51406e-06
4.10452e-06
5.129e-06
6.76582e-06
9.16919e-06
1.25681e-05
1.71665e-05
2.32171e-05
3.09291e-05
4.04932e-05
5.20276e-05
6.56045e-05
8.1238e-05
9.88975e-05
0.000118498
0.000139901
0.000162929
0.000187379
0.000213039
0.000239704
0.000267179
0.000295283
0.000323894
0.000352373
0.000380594
0.000408703
0.000436753
0.000464802
0.000493002
0.000521577
0.000550899
0.00058139
0.000612508
0.000639045
0.000637508
0.000603907
0.000559843
0.000511765
0.000461705
0.000411567
0.000361737
0.000313862
0.000267737
0.000225289
0.000185611
0.000151073
0.000119501
9.41178e-05
7.0851e-05
5.42863e-05
4.15059e-05
2.2247e-05
1.39955e-05
8.38985e-06
6.80682e-06
5.86079e-06
4.61369e-06
3.86349e-06
3.45838e-06
3.44642e-06
3.78127e-06
4.62312e-06
6.11534e-06
8.52892e-06
1.21011e-05
1.71513e-05
2.39527e-05
3.28053e-05
4.39247e-05
5.74669e-05
7.34923e-05
9.20117e-05
0.000112986
0.000136334
0.000161904
0.000189474
0.000218768
0.000249475
0.000281278
0.000313871
0.000346963
0.00038029
0.000413575
0.000446032
0.000477665
0.000508542
0.00053866
0.000568021
0.000596715
0.000624898
0.000652871
0.000680936
0.000708333
0.000730498
0.000728583
0.000699067
0.00065831
0.000612094
0.000562426
0.000511053
0.000458493
0.000406255
0.000354473
0.000304929
0.000257416
0.000213997
0.000173743
0.000139063
0.000107783
8.29748e-05
6.53849e-05
2.42783e-05
1.57759e-05
1.00268e-05
7.74519e-06
6.60067e-06
5.32068e-06
4.4083e-06
3.87268e-06
3.84712e-06
4.30391e-06
5.48025e-06
7.6003e-06
1.10428e-05
1.61321e-05
2.32601e-05
3.27361e-05
4.48548e-05
5.97825e-05
7.75904e-05
9.82545e-05
0.000121719
0.000147899
0.000176667
0.00020781
0.000241026
0.000275942
0.000312153
0.000349248
0.000386838
0.000424559
0.000462083
0.000498932
0.000534385
0.000568481
0.00060123
0.000632585
0.000662509
0.000691049
0.000718315
0.000744559
0.000769927
0.000793694
0.000811918
0.000809702
0.000783929
0.00074674
0.000703152
0.000655056
0.000604018
0.000550592
0.00049611
0.000440878
0.000386468
0.00033314
0.000282601
0.000234987
0.000191808
0.000152996
0.00011967
9.71997e-05
2.61484e-05
1.75359e-05
1.17169e-05
8.86261e-06
7.42007e-06
6.15294e-06
5.14595e-06
4.50763e-06
4.47855e-06
5.09465e-06
6.69279e-06
9.60148e-06
1.43088e-05
2.12117e-05
3.07348e-05
4.31769e-05
5.87726e-05
7.75989e-05
9.96222e-05
0.00012474
0.000152848
0.000183832
0.000217527
0.000253667
0.000291869
0.000331681
0.000372612
0.000414175
0.000455916
0.000497411
0.000538298
0.000577846
0.000615563
0.000651442
0.000685446
0.000717495
0.000747522
0.000775548
0.000801648
0.000826027
0.000848717
0.000869138
0.000883914
0.00088138
0.000858785
0.000824994
0.000784259
0.000738307
0.000688531
0.000635468
0.000580281
0.000523326
0.000465983
0.000408735
0.00035301
0.000299635
0.000249417
0.000204031
0.000162846
0.000135723
2.77811e-05
1.92132e-05
1.34029e-05
1.01258e-05
8.34163e-06
7.04675e-06
6.01084e-06
5.3262e-06
5.31992e-06
6.1352e-06
8.2309e-06
1.20585e-05
1.82035e-05
2.7108e-05
3.91833e-05
5.4674e-05
7.37178e-05
9.62901e-05
0.000122262
0.000151476
0.000183801
0.000219104
0.00025719
0.000297739
0.000340298
0.000384338
0.000429298
0.000474627
0.00051982
0.000564406
0.000607959
0.000649612
0.000689059
0.000726233
0.00076106
0.000793439
0.000823279
0.000850583
0.000875406
0.000897887
0.000918056
0.000935449
0.000947223
0.000944295
0.000924249
0.000893473
0.000855506
0.00081189
0.000763864
0.000711919
0.000657078
0.00059967
0.000540923
0.000481359
0.000422233
0.000364685
0.000309123
0.000258341
0.000210542
0.00017914
2.91563e-05
2.07654e-05
1.50359e-05
1.14892e-05
9.38028e-06
7.98623e-06
6.94179e-06
6.26418e-06
6.31439e-06
7.36221e-06
1.00018e-05
1.48199e-05
2.24816e-05
3.3445e-05
4.80704e-05
6.65194e-05
8.88184e-05
0.00011485
0.000144413
0.00017732
0.000213426
0.000252586
0.000294571
0.000339007
0.000385373
0.000433076
0.000481493
0.00053002
0.000578108
0.000625249
0.000670918
0.000714249
0.000755025
0.000793135
0.000828476
0.000860928
0.000890387
0.000916841
0.000940331
0.000960945
0.000978776
0.000993437
0.00100257
0.000999145
0.000981039
0.000952807
0.000917356
0.000876039
0.000829966
0.000779567
0.000725754
0.000668787
0.000609783
0.000549179
0.000488162
0.000427873
0.000368618
0.000313665
0.000260745
0.000225502
3.02873e-05
2.21683e-05
1.6578e-05
1.29026e-05
1.05319e-05
8.98829e-06
7.91213e-06
7.26123e-06
7.38739e-06
8.67913e-06
1.1865e-05
1.7672e-05
2.68296e-05
3.97921e-05
5.68448e-05
7.80539e-05
0.000103335
0.000132497
0.000165286
0.000201503
0.000240998
0.000283609
0.000329069
0.000376952
0.000426668
0.000477568
0.000528976
0.000580241
0.000630782
0.000680058
0.00072742
0.000772096
0.000813894
0.000852668
0.000888287
0.000920622
0.000949558
0.000975079
0.000997196
0.00101601
0.00103167
0.00104385
0.00105064
0.00104658
0.00102986
0.00100369
0.000970425
0.000931246
0.000887148
0.000838504
0.000786137
0.000730217
0.000671786
0.000611126
0.000549423
0.000487613
0.000426134
0.000368176
0.000311631
0.000273012
3.12037e-05
2.34129e-05
1.80027e-05
1.43172e-05
1.17752e-05
1.0072e-05
8.92841e-06
8.28861e-06
8.48058e-06
9.99272e-06
1.36761e-05
2.03979e-05
3.09451e-05
4.57598e-05
6.50434e-05
8.87639e-05
0.000116734
0.000148703
0.000184384
0.000223575
0.000266119
0.000311833
0.000360412
0.000411371
0.000464059
0.000517772
0.000571789
0.00062542
0.000678054
0.000729129
0.00077785
0.000823608
0.000866185
0.000905403
0.000941116
0.000973185
0.00100149
0.001026
0.00104673
0.00106383
0.00107745
0.00108735
0.001092
0.00108719
0.00107138
0.0010468
0.00101537
0.000978103
0.000935898
0.000889075
0.000838386
0.000783912
0.000726636
0.000666655
0.000605201
0.000542875
0.000480399
0.000420496
0.000361684
0.000320164
3.19396e-05
2.45009e-05
1.92949e-05
1.56897e-05
1.30775e-05
1.12429e-05
1.00092e-05
9.35068e-06
9.57229e-06
1.12472e-05
1.53325e-05
2.28339e-05
3.45994e-05
5.10622e-05
7.23415e-05
9.83101e-05
0.000128683
0.000163164
0.000201442
0.000243311
0.000288611
0.000337132
0.000388522
0.000442245
0.000497584
0.000553788
0.000610098
0.000665784
0.000720215
0.000772787
0.000822626
0.000869247
0.000912403
0.000951888
0.000987542
0.00101922
0.0010468
0.00107024
0.00108959
0.00110502
0.00111671
0.00112449
0.00112716
0.00112149
0.00110618
0.00108277
0.00105282
0.00101722
0.000976768
0.000931745
0.000882845
0.000830063
0.00077434
0.000715581
0.000655078
0.000593047
0.000530567
0.000469645
0.000409728
0.000365788
3.25279e-05
2.54417e-05
2.04488e-05
1.69855e-05
1.44003e-05
1.2491e-05
1.11693e-05
1.04679e-05
1.06731e-05
1.24334e-05
1.67937e-05
2.48965e-05
3.7664e-05
5.55352e-05
7.85558e-05
0.00010651
0.000139017
0.000175745
0.000216355
0.000260644
0.000308439
0.000359502
0.000413436
0.00046965
0.000527364
0.000585785
0.000644117
0.000701594
0.00075757
0.000811377
0.000862142
0.000909444
0.000953009
0.00099261
0.00102807
0.00105926
0.00108602
0.00110835
0.00112632
0.00114013
0.00114998
0.00115577
0.00115657
0.00114993
0.00113476
0.00111216
0.00108338
0.00104918
0.00101032
0.000967022
0.000919941
0.000868996
0.000815087
0.000757943
0.000698913
0.000637816
0.000576116
0.000514969
0.000454904
0.000409022
3.29975e-05
2.62485e-05
2.14658e-05
1.81791e-05
1.57041e-05
1.37937e-05
1.24116e-05
1.16585e-05
1.18124e-05
1.35756e-05
1.80732e-05
2.65776e-05
4.01045e-05
5.91224e-05
8.362e-05
0.000113302
0.000147691
0.000186421
0.000229125
0.000275595
0.000325647
0.000379012
0.000435248
0.000493708
0.000553554
0.000613947
0.000674064
0.000733103
0.000790408
0.00084523
0.000896752
0.000944575
0.000988402
0.00102799
0.00106315
0.00109374
0.00111961
0.00114079
0.00115739
0.00116962
0.00117768
0.00118157
0.00118059
0.00117288
0.00115758
0.00113545
0.00110755
0.00107453
0.00103708
0.000995415
0.000950134
0.000901098
0.000849169
0.000793919
0.000736744
0.000677083
0.000616768
0.000556066
0.000496624
0.000449271
3.33723e-05
2.69365e-05
2.23531e-05
1.92551e-05
1.69522e-05
1.51198e-05
1.37259e-05
1.29319e-05
1.30224e-05
1.47135e-05
1.92177e-05
2.79225e-05
4.19559e-05
6.18475e-05
8.7552e-05
0.000118707
0.000154736
0.000195241
0.000239815
0.000288243
0.000340328
0.000395769
0.000454078
0.00051456
0.000576313
0.000638459
0.000700148
0.000760543
0.000818983
0.000874632
0.00092676
0.000974962
0.00101892
0.00105837
0.00109313
0.00112301
0.00114794
0.00116796
0.00118319
0.00119385
0.00120017
0.00120223
0.00119953
0.00119068
0.00117501
0.0011531
0.00112582
0.00109375
0.00105756
0.00101741
0.000973878
0.00092678
0.00087693
0.000823769
0.000768722
0.000710887
0.000652424
0.000592724
0.000534515
0.000486152
3.3672e-05
2.75211e-05
2.31211e-05
2.02064e-05
1.81139e-05
1.64333e-05
1.50913e-05
1.4286e-05
1.43201e-05
1.58994e-05
2.0287e-05
2.90051e-05
4.32964e-05
6.37865e-05
9.04241e-05
0.000122799
0.000160233
0.000202294
0.000248523
0.000298695
0.000352595
0.000409892
0.000470057
0.000532348
0.000595797
0.000659491
0.000722556
0.000784118
0.000843505
0.000899828
0.000952425
0.00100088
0.00104485
0.00108406
0.00111829
0.00114741
0.00117136
0.00119019
0.00120404
0.00121314
0.00121777
0.00121805
0.00121367
0.00120361
0.00118739
0.00116546
0.00113858
0.00110729
0.00107219
0.00103345
0.000991608
0.000946445
0.000898731
0.000847793
0.00079507
0.00073936
0.000683101
0.000624868
0.000568371
0.000519444
3.3912e-05
2.80168e-05
2.3782e-05
2.10334e-05
1.91663e-05
1.76975e-05
1.64779e-05
1.57079e-05
1.57086e-05
1.71774e-05
2.13458e-05
2.99096e-05
4.42259e-05
6.50445e-05
9.23414e-05
0.000125684
0.000164288
0.000207691
0.000255367
0.000307073
0.000362574
0.000421511
0.000483318
0.00054721
0.000612154
0.000677201
0.000741456
0.000804006
0.000864166
0.000921029
0.000973967
0.00102255
0.00106643
0.00110527
0.0011389
0.00116721
0.00119014
0.00120775
0.00122021
0.00122776
0.00123071
0.00122926
0.00122323
0.00121191
0.00119499
0.00117286
0.0011462
0.00111551
0.00108137
0.00104394
0.00100373
0.000960481
0.000914928
0.000866307
0.000816044
0.000762691
0.000708902
0.000652518
0.000598108
0.000549042
3.41047e-05
2.84368e-05
2.43488e-05
2.1742e-05
2.00948e-05
1.88786e-05
1.78502e-05
1.71745e-05
1.71802e-05
1.85566e-05
2.24836e-05
3.07189e-05
4.48507e-05
6.57404e-05
9.34258e-05
0.000127484
0.000167023
0.000211555
0.00026047
0.000313502
0.000370393
0.000430756
0.000493992
0.00055928
0.000625521
0.000691731
0.000756998
0.000820365
0.000881139
0.000938413
0.000991572
0.00104018
0.00108381
0.00112221
0.00115518
0.00118262
0.00120449
0.00122087
0.00123192
0.00123793
0.00123923
0.00123608
0.00122842
0.0012158
0.00119806
0.00117559
0.00114899
0.00111876
0.00108546
0.00104925
0.0010106
0.000969252
0.000925867
0.000879624
0.000831917
0.0007811
0.00072998
0.000675761
0.000623729
0.00057493
3.42598e-05
2.87926e-05
2.48343e-05
2.23419e-05
2.08932e-05
1.99482e-05
1.91703e-05
1.86545e-05
1.87169e-05
2.00341e-05
2.37334e-05
3.15592e-05
4.52753e-05
6.59968e-05
9.38066e-05
0.000128329
0.000168566
0.000214013
0.000263963
0.000318114
0.000376183
0.000437757
0.000502209
0.00056869
0.00063603
0.000703212
0.000769316
0.000833334
0.000894576
0.000952137
0.00100539
0.00105387
0.00109719
0.00113507
0.00116732
0.00119385
0.00121462
0.00122973
0.00123937
0.00124384
0.0012435
0.00123867
0.00122941
0.00121546
0.00119682
0.00117388
0.00114723
0.00111735
0.00108479
0.00104971
0.00101258
0.000973089
0.000931872
0.00088805
0.000842966
0.000794822
0.000746519
0.000694727
0.000645301
0.000597153
3.43849e-05
2.90944e-05
2.52503e-05
2.28454e-05
2.15624e-05
2.08856e-05
2.0401e-05
2.01102e-05
2.02906e-05
2.15956e-05
2.5099e-05
3.25084e-05
4.56554e-05
6.59332e-05
9.36144e-05
0.000128351
0.000169046
0.000215196
0.000265973
0.000321037
0.000380074
0.000442645
0.000508098
0.000575565
0.000643804
0.000711769
0.000778535
0.000843035
0.000904614
0.000962307
0.00101553
0.00106379
0.00110671
0.001144
0.00117548
0.00120105
0.0012207
0.00123452
0.00124273
0.00124566
0.00124369
0.0012372
0.00122635
0.00121106
0.00119145
0.00116794
0.00114114
0.00111151
0.00107962
0.00104562
0.00100994
0.000972299
0.000933245
0.000891875
0.00084946
0.000804095
0.000758722
0.000709572
0.000662932
0.000615795
3.4486e-05
2.93505e-05
2.56075e-05
2.32654e-05
2.21096e-05
2.16787e-05
2.15094e-05
2.15011e-05
2.18654e-05
2.32161e-05
2.65711e-05
3.35821e-05
4.6114e-05
6.57415e-05
9.29775e-05
0.000127683
0.000168595
0.000215231
0.000266627
0.0003224
0.000382195
0.000445548
0.000511786
0.000580031
0.000648969
0.000717521
0.000784774
0.000849585
0.000911312
0.000969025
0.00102211
0.00107007
0.00111252
0.00114916
0.00117981
0.00120438
0.00122286
0.00123537
0.00124214
0.00124352
0.00123994
0.00123181
0.00121939
0.00120274
0.00118212
0.00115798
0.00113095
0.0011015
0.00107021
0.00103723
0.00100298
0.00096716
0.000930264
0.000891369
0.000851658
0.000809158
0.000766796
0.000720469
0.000676756
0.000630968
3.45679e-05
2.9568e-05
2.5915e-05
2.36151e-05
2.25462e-05
2.23238e-05
2.24696e-05
2.27863e-05
2.33991e-05
2.48608e-05
2.81273e-05
3.47793e-05
4.66833e-05
6.55577e-05
9.21481e-05
0.000126455
0.000167342
0.000214246
0.000266051
0.000322329
0.000382675
0.000446598
0.000513404
0.000582216
0.000651645
0.000720581
0.000788075
0.000853047
0.000914796
0.000972413
0.00102526
0.00107284
0.00111474
0.00115066
0.00118043
0.00120396
0.00122124
0.00123242
0.00123774
0.00123757
0.00123238
0.00122262
0.00120864
0.00119064
0.00116897
0.00114416
0.00111683
0.00108752
0.00105677
0.00102479
0.000991935
0.000957927
0.000923188
0.000886787
0.000849807
0.000810239
0.000770953
0.0007276
0.000686925
0.000642802
3.46343e-05
2.97531e-05
2.61809e-05
2.39066e-05
2.28861e-05
2.2825e-05
2.3264e-05
2.39287e-05
2.48461e-05
2.64869e-05
2.97339e-05
3.60833e-05
4.73758e-05
6.54322e-05
9.12184e-05
0.000124904
0.000165513
0.000212374
0.000264369
0.000320948
0.000381641
0.000445922
0.000513079
0.000582198
0.000651887
0.000721003
0.000788557
0.000853544
0.000915184
0.00097259
0.00102511
0.00107221
0.00111348
0.00114863
0.00117747
0.0011999
0.00121595
0.00122577
0.00122963
0.00122791
0.00122112
0.00120975
0.00119423
0.00117488
0.00115215
0.00112663
0.00109898
0.00106976
0.00103953
0.0010085
0.000977035
0.000944834
0.000912254
0.000878366
0.00084414
0.000807561
0.000771398
0.000731147
0.000693602
0.000651438
3.46882e-05
2.99107e-05
2.64117e-05
2.41511e-05
2.31448e-05
2.31929e-05
2.38849e-05
2.48977e-05
2.6161e-05
2.80457e-05
3.13468e-05
3.74634e-05
4.81854e-05
6.53946e-05
9.02549e-05
0.000123125
0.000163211
0.000209788
0.000261734
0.000318386
0.000379198
0.000443608
0.000510885
0.000580085
0.000649817
0.000718903
0.00078635
0.000851194
0.000912593
0.00096967
0.00102175
0.00106828
0.00110886
0.00114317
0.00117101
0.00119232
0.00120711
0.00121556
0.00121793
0.00121466
0.00120627
0.00119331
0.00117627
0.00115558
0.00113179
0.00110553
0.00107754
0.00104839
0.00101866
0.000988584
0.00095849
0.000928097
0.000897683
0.000866328
0.000834876
0.000801334
0.000768334
0.000731292
0.000696953
0.000657021
3.47321e-05
3.00451e-05
2.6613e-05
2.4358e-05
2.33377e-05
2.34428e-05
2.43337e-05
2.56718e-05
2.73022e-05
2.94855e-05
3.29142e-05
3.88762e-05
4.90885e-05
6.5454e-05
8.93043e-05
0.000121193
0.000160531
0.000206589
0.000258247
0.000314744
0.000375453
0.000439767
0.000506938
0.000575997
0.000645552
0.000714401
0.000781576
0.000846117
0.000907138
0.000963765
0.0010153
0.00106118
0.00110098
0.00113438
0.00116119
0.00118132
0.00119482
0.00120186
0.00120275
0.00119792
0.00118794
0.0011734
0.00115487
0.00113285
0.001108
0.00108101
0.00105267
0.00102358
0.00099434
0.00096521
0.000936494
0.000907918
0.000879683
0.000850881
0.000822224
0.000791762
0.000761956
0.000728217
0.000697146
0.0006597
3.47677e-05
3.01597e-05
2.67891e-05
2.45353e-05
2.34794e-05
2.35927e-05
2.46206e-05
2.62403e-05
2.82353e-05
3.07558e-05
3.4379e-05
4.02679e-05
5.00454e-05
6.5599e-05
8.83916e-05
0.000119166
0.000157555
0.000202866
0.000254004
0.000310119
0.000370506
0.000434506
0.00050135
0.00057005
0.000639213
0.000707613
0.000774357
0.000838436
0.000898938
0.000954988
0.00100587
0.001051
0.00108994
0.00112237
0.00114808
0.001167
0.00117918
0.0011848
0.00118418
0.0011778
0.00116623
0.00115013
0.00113012
0.00110681
0.00108091
0.0010532
0.0010245
0.000995478
0.000966736
0.000938562
0.000911233
0.000884489
0.000858448
0.000832224
0.000806382
0.000779038
0.000752453
0.000722099
0.000694348
0.000659623
3.47966e-05
3.02576e-05
2.69437e-05
2.46894e-05
2.35828e-05
2.36621e-05
2.47622e-05
2.66032e-05
2.89361e-05
3.18111e-05
3.56828e-05
4.15772e-05
5.10032e-05
6.57996e-05
8.75208e-05
0.000117084
0.000154347
0.0001987
0.00024909
0.000304601
0.000364451
0.000427925
0.00049423
0.00056236
0.000630915
0.000698685
0.000764818
0.00082827
0.000888109
0.000943453
0.000993566
0.00103785
0.00107586
0.00110724
0.0011318
0.00114946
0.00116028
0.00116446
0.00116233
0.00115438
0.00114124
0.0011236
0.00110214
0.00107756
0.00105063
0.00102223
0.000993192
0.000964246
0.000936015
0.00090881
0.000882887
0.000857993
0.000834168
0.000810546
0.000787542
0.000763349
0.00074001
0.000713109
0.000688727
0.000656939
3.48202e-05
3.03412e-05
2.708e-05
2.48252e-05
2.36591e-05
2.36701e-05
2.47799e-05
2.67711e-05
2.93926e-05
3.26144e-05
3.67701e-05
4.27391e-05
5.18991e-05
6.60091e-05
8.6675e-05
0.000114963
0.000150956
0.000194157
0.000243582
0.000298272
0.000357374
0.000420118
0.00048568
0.000553035
0.000620773
0.000687738
0.000753081
0.000815742
0.00087477
0.000929276
0.000978505
0.00102185
0.00105882
0.00108909
0.00111245
0.00112881
0.00113823
0.00114094
0.00113728
0.00112778
0.00111308
0.00109392
0.00107104
0.00104522
0.0010173
0.000988224
0.00095888
0.000930036
0.00090234
0.000876128
0.000851634
0.000828614
0.000807027
0.000786032
0.000765888
0.00074488
0.000724805
0.00070142
0.000680446
0.000651793
3.48393e-05
3.04126e-05
2.72002e-05
2.49466e-05
2.37172e-05
2.36345e-05
2.46977e-05
2.67634e-05
2.96056e-05
3.31412e-05
3.75925e-05
4.36895e-05
5.26638e-05
6.61679e-05
8.58187e-05
0.000112802
0.000147411
0.000189291
0.000237546
0.000291206
0.000349356
0.000411172
0.000475794
0.000542179
0.000608892
0.000674891
0.000739269
0.000800973
0.00085904
0.000912572
0.000960798
0.00100309
0.00103895
0.00106803
0.00109012
0.00110513
0.00111313
0.00111435
0.00110916
0.0010981
0.00108185
0.00106119
0.00103693
0.0010099
0.000981045
0.00095133
0.000921715
0.000893009
0.000865881
0.000840691
0.000817653
0.000796535
0.000777211
0.000758868
0.000741605
0.000723808
0.000707018
0.000687199
0.00066967
0.000644332
3.48548e-05
3.04738e-05
2.73065e-05
2.50563e-05
2.37643e-05
2.3571e-05
2.45404e-05
2.66057e-05
2.95883e-05
3.33807e-05
3.81132e-05
4.43701e-05
5.32273e-05
6.62076e-05
8.49011e-05
0.000110578
0.000143723
0.000184136
0.000231036
0.000283464
0.000340466
0.000401162
0.000464658
0.000529885
0.000595397
0.000660256
0.000723497
0.000784082
0.000841036
0.000893457
0.000940558
0.000981691
0.00101635
0.00104417
0.00106492
0.00107853
0.00108508
0.00108478
0.00107805
0.00106544
0.00104766
0.00102553
0.000999929
0.00097175
0.000941994
0.000911696
0.000881858
0.000853334
0.000826814
0.000802683
0.000781133
0.000761943
0.000744908
0.00072924
0.000714877
0.000700315
0.000686823
0.000670615
0.000656563
0.000634702
3.48674e-05
3.05261e-05
2.74005e-05
2.51565e-05
2.38056e-05
2.34928e-05
2.43315e-05
2.63279e-05
2.93646e-05
3.33376e-05
3.83099e-05
4.4733e-05
5.35232e-05
6.60562e-05
8.38602e-05
0.000108253
0.000139882
0.000178712
0.00022409
0.0002751
0.000330764
0.000390157
0.000452349
0.00051624
0.000580394
0.000643939
0.000705878
0.000765183
0.000820875
0.000872046
0.000917896
0.000957762
0.000991122
0.0010176
0.00103696
0.00104912
0.00105417
0.00105235
0.00104406
0.00102991
0.00101062
0.000987066
0.000960167
0.000930892
0.0009003
0.00086948
0.00083948
0.000811194
0.000785332
0.000762301
0.000742274
0.00072504
0.000710314
0.00069734
0.000685893
0.000674583
0.000664401
0.000651837
0.000641289
0.000623048
3.48776e-05
3.0571e-05
2.74839e-05
2.52485e-05
2.38447e-05
2.34102e-05
2.40925e-05
2.59612e-05
2.89666e-05
3.30307e-05
3.81773e-05
4.4745e-05
5.3495e-05
6.5644e-05
8.26282e-05
0.000105776
0.000135866
0.000173022
0.000216735
0.000266154
0.000320301
0.000378215
0.000438933
0.000501318
0.000563969
0.000626037
0.000686515
0.000744384
0.000798666
0.00084845
0.000892925
0.000931414
0.000963379
0.000988431
0.00100633
0.001017
0.00102052
0.00101715
0.00100732
0.000991628
0.000970863
0.000945923
0.000917785
0.000887483
0.000856128
0.000824863
0.000794773
0.000766792
0.000741645
0.00071976
0.000701291
0.000686038
0.000673641
0.000663373
0.00065485
0.000646801
0.000639934
0.000631038
0.000624014
0.000609519
3.48859e-05
3.06095e-05
2.75577e-05
2.53334e-05
2.38838e-05
2.33311e-05
2.38415e-05
2.55361e-05
2.84312e-05
3.24914e-05
3.77277e-05
4.43912e-05
5.31006e-05
6.49094e-05
8.11378e-05
0.00010309
0.000131639
0.000167056
0.000208983
0.000256654
0.000309115
0.000365384
0.000424465
0.000485182
0.000546195
0.000606636
0.000665502
0.000721787
0.000774517
0.000822778
0.000865754
0.000902754
0.000933229
0.000956779
0.000973158
0.000982285
0.000984248
0.000979311
0.000967926
0.000950726
0.000928519
0.000902247
0.000872942
0.000841692
0.000809663
0.000778043
0.000747953
0.000720355
0.000695989
0.000675302
0.000658426
0.000645175
0.000635118
0.000627558
0.000621959
0.000617169
0.000613613
0.000608396
0.00060491
0.000594264
3.48925e-05
3.06426e-05
2.76233e-05
2.54119e-05
2.39243e-05
2.32607e-05
2.35935e-05
2.50805e-05
2.77978e-05
3.17605e-05
3.69896e-05
4.36765e-05
5.23167e-05
6.38051e-05
7.93286e-05
0.000100135
0.000127157
0.000160794
0.000200836
0.000246621
0.000297239
0.000351702
0.000408994
0.000467889
0.000527139
0.000585812
0.000642925
0.000697485
0.000748525
0.000795133
0.000836488
0.000871892
0.000900782
0.00092275
0.000937544
0.000945082
0.000945457
0.000938947
0.000926021
0.000907337
0.000883736
0.000856201
0.000825811
0.000793712
0.000761116
0.000729251
0.000699264
0.000672143
0.000648635
0.0006292
0.000613951
0.000602716
0.000594998
0.000590136
0.000587447
0.000585899
0.000585641
0.000584099
0.000584154
0.000577438
3.48979e-05
3.06712e-05
2.76814e-05
2.54845e-05
2.39666e-05
2.32024e-05
2.33593e-05
2.46184e-05
2.71045e-05
3.08845e-05
3.60054e-05
4.26256e-05
5.1142e-05
6.23026e-05
7.71532e-05
9.68598e-05
0.000122377
0.00015421
0.000192288
0.000236066
0.000284697
0.000337204
0.000392559
0.00044951
0.000506856
0.000563631
0.000618859
0.000671562
0.000720782
0.000765612
0.000805231
0.000838932
0.000866145
0.000886455
0.000899604
0.000905512
0.000904277
0.00089619
0.00088174
0.000861613
0.00083668
0.000807964
0.000776594
0.000743765
0.00071073
0.00067875
0.00064899
0.000622456
0.000599892
0.000581768
0.000568178
0.000558962
0.000553571
0.000551377
0.000551567
0.000553225
0.000556234
0.000558345
0.000561932
0.000559201
3.49021e-05
3.06958e-05
2.7733e-05
2.55517e-05
2.40107e-05
2.31577e-05
2.31469e-05
2.41694e-05
2.63863e-05
2.99117e-05
3.48273e-05
4.1281e-05
4.95976e-05
6.03967e-05
7.45837e-05
9.32233e-05
0.000117261
0.000147277
0.000183331
0.000224997
0.000271508
0.000321918
0.000375195
0.000430082
0.000485395
0.000540149
0.000593371
0.000644095
0.000691374
0.000734309
0.000772081
0.000803979
0.000829428
0.000848007
0.000859457
0.000863699
0.000860839
0.000851182
0.000835239
0.000813722
0.000787536
0.000757745
0.000725521
0.000692106
0.000658788
0.000626848
0.000597465
0.000571644
0.000550123
0.000533371
0.000521466
0.00051426
0.000511163
0.000511586
0.000514599
0.000519403
0.000525629
0.000531347
0.000538441
0.000539722
3.49056e-05
3.07171e-05
2.7779e-05
2.56138e-05
2.40563e-05
2.31269e-05
2.29609e-05
2.37484e-05
2.56736e-05
2.88889e-05
3.35132e-05
3.96996e-05
4.7726e-05
5.81069e-05
7.16154e-05
8.92047e-05
0.000111783
0.000139978
0.000173959
0.000213424
0.000257695
0.000305871
0.000356935
0.00040964
0.000462801
0.000515418
0.000566521
0.000615154
0.000660381
0.000701313
0.000737134
0.000767136
0.000790741
0.000807524
0.000817228
0.000819776
0.000815286
0.000804079
0.000786688
0.000763855
0.000736519
0.000705783
0.000672861
0.000639035
0.00060562
0.00057391
0.000545077
0.000520119
0.000499751
0.000484436
0.000474234
0.000469011
0.000468152
0.000471109
0.000476862
0.00048472
0.000494086
0.000503337
0.000513892
0.000519177
3.49083e-05
3.07357e-05
2.78199e-05
2.5671e-05
2.41029e-05
2.31094e-05
2.28034e-05
2.33654e-05
2.49904e-05
2.78584e-05
3.21215e-05
3.79476e-05
4.55882e-05
5.54771e-05
6.82702e-05
8.48068e-05
0.000105936
0.000132308
0.000164179
0.000201364