/*--------------------------------*- C++ -*----------------------------------*\
| =========                 |                                                 |
| \\      /  F ield         | OpenFOAM: The Open Source CFD Toolbox           |
|  \\    /   O peration     | Version:  2.4.0                                 |
|   \\  /    A nd           | Web:      www.OpenFOAM.org                      |
|    \\/     M anipulation  |                                                 |
\*---------------------------------------------------------------------------*/
FoamFile
{
    version     2.0;
    format      ascii;
    class       surfaceScalarField;
    location    "4.3";
    object      phi;
}
// * * * * * * * * * * * * * * * * * * * * * * * * * * * * * * * * * * * * * //

dimensions      [0 3 -1 0 0 0 0];

internalField   nonuniform List<scalar> 
11840
(
7.85129e-07
9.21487e-06
-2.03018e-08
8.05431e-07
-4.80551e-08
2.77533e-08
-7.30449e-08
2.49898e-08
-8.3788e-08
1.07431e-08
-8.52091e-08
1.42109e-09
-8.91964e-08
3.98728e-09
-8.87458e-08
-4.50534e-10
-9.12043e-08
2.45847e-09
-9.18506e-08
6.46328e-10
-9.47436e-08
2.89292e-09
-9.75333e-08
2.78973e-09
-1.02407e-07
4.87379e-09
-1.08338e-07
5.93096e-09
-1.16337e-07
7.99884e-09
-1.25822e-07
9.48466e-09
-1.37145e-07
1.13238e-08
-1.50054e-07
1.29091e-08
-1.64813e-07
1.47585e-08
-1.81488e-07
1.66751e-08
-2.00318e-07
1.88295e-08
-2.21328e-07
2.10109e-08
-2.44456e-07
2.31275e-08
-2.69395e-07
2.49392e-08
-2.95706e-07
2.63111e-08
-3.22801e-07
2.70949e-08
-3.49982e-07
2.71808e-08
-3.76446e-07
2.64642e-08
-4.01303e-07
2.48573e-08
-4.23578e-07
2.22743e-08
-4.42226e-07
1.86488e-08
-4.56148e-07
1.39212e-08
-4.64187e-07
8.03962e-09
-4.65231e-07
1.04398e-09
-4.58045e-07
-7.18644e-09
-4.41532e-07
-1.65132e-08
-4.14667e-07
-2.68645e-08
-3.7652e-07
-3.81474e-08
-3.26421e-07
-5.00986e-08
-2.6386e-07
-6.25612e-08
-1.89015e-07
-7.48451e-08
-1.02525e-07
-8.64901e-08
-7.85975e-09
-9.46649e-08
8.80474e-08
-9.59071e-08
1.81017e-07
-9.29692e-08
2.73177e-07
-9.21605e-08
3.61946e-07
-8.87693e-08
4.49147e-07
-8.72006e-08
5.27706e-07
-7.85585e-08
6.04329e-07
-7.66236e-08
6.6403e-07
-5.97005e-08
7.27512e-07
-6.34827e-08
7.60235e-07
-3.27229e-08
8.16578e-07
-5.63427e-08
8.13562e-07
3.01602e-09
8.82088e-07
-6.85264e-08
8.29441e-07
5.2647e-08
9.51814e-07
-1.22373e-07
8.27666e-07
1.24148e-07
-3.43997e-07
1.91815e-06
1.72967e-05
1.02273e-07
2.6213e-06
-7.42674e-08
2.04294e-07
-1.77852e-07
1.28575e-07
-2.09745e-07
4.26361e-08
-2.27329e-07
1.90051e-08
-2.37865e-07
1.45232e-08
-2.42856e-07
4.53998e-09
-2.49251e-07
8.85419e-09
-2.54128e-07
5.52326e-09
-2.61973e-07
1.07374e-08
-2.71213e-07
1.203e-08
-2.84633e-07
1.82934e-08
-3.01671e-07
2.29698e-08
-3.23577e-07
2.99048e-08
-3.49723e-07
3.56308e-08
-3.80367e-07
4.1967e-08
-4.15206e-07
4.77488e-08
-4.54645e-07
5.4197e-08
-4.9899e-07
6.10206e-08
-5.48691e-07
6.85299e-08
-6.03768e-07
7.60881e-08
-6.63843e-07
8.32022e-08
-7.2796e-07
8.90564e-08
-7.94766e-07
9.31177e-08
-8.62568e-07
9.48965e-08
-9.29415e-07
9.40282e-08
-9.93149e-07
9.01981e-08
-1.05144e-06
8.31493e-08
-1.10181e-06
7.26451e-08
-1.14167e-06
5.8509e-08
-1.16834e-06
4.05918e-08
-1.17909e-06
1.87878e-08
-1.17112e-06
-6.93097e-09
-1.14177e-06
-3.65278e-08
-1.08843e-06
-6.98623e-08
-1.00869e-06
-1.06595e-07
-9.00468e-07
-1.46375e-07
-7.62144e-07
-1.88423e-07
-5.9268e-07
-2.32024e-07
-3.92531e-07
-2.74995e-07
-1.64208e-07
-3.14813e-07
8.12546e-08
-3.40128e-07
3.26272e-07
-3.40924e-07
5.6363e-07
-3.30328e-07
7.96832e-07
-3.25362e-07
1.02171e-06
-3.1365e-07
1.23799e-06
-3.03474e-07
1.43608e-06
-2.76653e-07
1.6208e-06
-2.61346e-07
1.77495e-06
-2.13848e-07
1.91911e-06
-2.07643e-07
2.01697e-06
-1.30587e-07
2.12627e-06
-1.65642e-07
2.16106e-06
-3.17734e-08
2.26214e-06
-1.69599e-07
2.22786e-06
8.69192e-08
2.38373e-06
-2.78238e-07
2.27007e-06
2.37804e-07
-8.83682e-07
2.91723e-06
2.43795e-05
3.966e-07
5.14194e-06
-4.04039e-08
6.41298e-07
-2.39287e-07
3.27458e-07
-3.02467e-07
1.05817e-07
-3.44288e-07
6.08258e-08
-3.64423e-07
3.46584e-08
-3.7857e-07
1.86871e-08
-3.9016e-07
2.04435e-08
-4.0098e-07
1.6344e-08
-4.14229e-07
2.39858e-08
-4.30483e-07
2.82845e-08
-4.52261e-07
4.0071e-08
-4.80076e-07
5.07846e-08
-5.14987e-07
6.48163e-08
-5.56586e-07
7.72292e-08
-6.04836e-07
9.02176e-08
-6.59491e-07
1.02403e-07
-7.20977e-07
1.15684e-07
-7.89828e-07
1.29871e-07
-8.66575e-07
1.45276e-07
-9.51137e-07
1.6065e-07
-1.04269e-06
1.74756e-07
-1.13954e-06
1.85908e-07
-1.23936e-06
1.92932e-07
-1.33931e-06
1.94851e-07
-1.43623e-06
1.9095e-07
-1.52669e-06
1.80653e-07
-1.60705e-06
1.63514e-07
-1.67355e-06
1.39142e-07
-1.72231e-06
1.07274e-07
-1.74943e-06
6.77084e-08
-1.75097e-06
2.03228e-08
-1.72304e-06
-3.48569e-08
-1.66201e-06
-9.75569e-08
-1.56447e-06
-1.67407e-07
-1.42745e-06
-2.43614e-07
-1.24858e-06
-3.25239e-07
-1.02643e-06
-4.10575e-07
-7.6085e-07
-4.97605e-07
-4.54253e-07
-5.81592e-07
-1.13177e-07
-6.55889e-07
2.46095e-07
-6.99399e-07
6.05539e-07
-7.00368e-07
9.60531e-07
-6.8532e-07
1.31192e-06
-6.76747e-07
1.65343e-06
-6.55168e-07
1.98062e-06
-6.30664e-07
2.28356e-06
-5.79586e-07
2.56172e-06
-5.39508e-07
2.80116e-06
-4.53285e-07
3.01392e-06
-4.20402e-07
3.17475e-06
-2.9142e-07
3.32423e-06
-3.15118e-07
3.40401e-06
-1.11562e-07
3.51695e-06
-2.82531e-07
3.52308e-06
8.07822e-08
3.6692e-06
-4.2435e-07
3.61886e-06
2.88137e-07
-1.4764e-06
3.80899e-06
3.05705e-05
8.13394e-07
8.13753e-06
5.26194e-08
1.40207e-06
-2.53169e-07
6.33246e-07
-3.61897e-07
2.14545e-07
-4.33874e-07
1.32802e-07
-4.68581e-07
6.9366e-08
-4.94565e-07
4.46709e-08
-5.13524e-07
3.94024e-08
-5.31483e-07
3.43027e-08
-5.51002e-07
4.35051e-08
-5.74539e-07
5.18218e-08
-6.04607e-07
7.01388e-08
-6.42625e-07
8.88026e-08
-6.8956e-07
1.11751e-07
-7.45127e-07
1.32797e-07
-8.0903e-07
1.54121e-07
-8.81002e-07
1.74375e-07
-9.61449e-07
1.96131e-07
-1.051e-06
2.19424e-07
-1.15014e-06
2.44417e-07
-1.25853e-06
2.69039e-07
-1.37477e-06
2.90993e-07
-1.49633e-06
3.07471e-07
-1.61988e-06
3.16483e-07
-1.74152e-06
3.16486e-07
-1.85696e-06
3.06388e-07
-1.96169e-06
2.85386e-07
-2.05107e-06
2.52892e-07
-2.12037e-06
2.08444e-07
-2.16488e-06
1.51787e-07
-2.17996e-06
8.2785e-08
-2.16106e-06
1.42516e-09
-2.10391e-06
-9.20036e-08
-2.00465e-06
-1.96826e-07
-1.85987e-06
-3.12179e-07
-1.66697e-06
-4.36522e-07
-1.42426e-06
-5.67948e-07
-1.13147e-06
-7.03358e-07
-7.90314e-07
-8.38764e-07
-4.05673e-07
-9.66233e-07
1.26304e-08
-1.07419e-06
4.48532e-07
-1.1353e-06
8.90533e-07
-1.14237e-06
1.33667e-06
-1.13146e-06
1.78328e-06
-1.12335e-06
2.22162e-06
-1.09351e-06
2.64306e-06
-1.0521e-06
3.03662e-06
-9.73151e-07
3.39692e-06
-8.99806e-07
3.71191e-06
-7.68269e-07
3.98688e-06
-6.95372e-07
4.20399e-06
-5.08529e-07
4.39196e-06
-5.03098e-07
4.51046e-06
-2.30059e-07
4.6383e-06
-4.10371e-07
4.67455e-06
4.45374e-08
4.8168e-06
-5.66601e-07
4.81486e-06
2.90073e-07
-2.07561e-06
4.61541e-06
3.59551e-05
1.32438e-06
1.14286e-05
2.12707e-07
2.51375e-06
-2.18317e-07
1.06427e-06
-3.86837e-07
3.83065e-07
-4.95256e-07
2.41221e-07
-5.49619e-07
1.23728e-07
-5.90291e-07
8.53434e-08
-6.18836e-07
6.79469e-08
-6.45188e-07
6.0655e-08
-6.71827e-07
7.01442e-08
-7.02893e-07
8.28881e-08
-7.41096e-07
1.08342e-07
-7.88629e-07
1.36335e-07
-8.4643e-07
1.69551e-07
-9.14267e-07
2.00633e-07
-9.91584e-07
2.31439e-07
-1.07802e-06
2.60806e-07
-1.17386e-06
2.91973e-07
-1.27968e-06
3.2525e-07
-1.39576e-06
3.60494e-07
-1.52133e-06
3.94605e-07
-1.6543e-06
4.23972e-07
-1.79133e-06
4.44492e-07
-1.92812e-06
4.53279e-07
-2.05988e-06
4.48245e-07
-2.18149e-06
4.28001e-07
-2.28773e-06
3.91626e-07
-2.37337e-06
3.38527e-07
-2.43325e-06
2.68324e-07
-2.46239e-06
1.8093e-07
-2.45604e-06
7.64378e-08
-2.40977e-06
-4.48533e-08
-2.31955e-06
-1.8222e-07
-2.18192e-06
-3.34456e-07
-1.9941e-06
-5e-07
-1.75425e-06
-6.76369e-07
-1.46173e-06
-8.6047e-07
-1.11745e-06
-1.04764e-06
-7.24499e-07
-1.23171e-06
-2.891e-07
-1.40163e-06
1.77971e-07
-1.54126e-06
6.63962e-07
-1.62129e-06
1.1636e-06
-1.64201e-06
1.6758e-06
-1.64366e-06
2.19336e-06
-1.64091e-06
2.70618e-06
-1.60633e-06
3.2028e-06
-1.54872e-06
3.67144e-06
-1.44179e-06
4.1024e-06
-1.33077e-06
4.48466e-06
-1.15053e-06
4.81718e-06
-1.02789e-06
5.08734e-06
-7.7869e-07
5.31395e-06
-7.29708e-07
5.46935e-06
-3.8546e-07
5.61557e-06
-5.56588e-07
5.67676e-06
-1.66543e-08
5.82019e-06
-7.10035e-07
5.85367e-06
2.56596e-07
-2.65024e-06
5.34688e-06
4.06082e-05
1.90213e-06
1.48733e-05
4.47986e-07
3.96789e-06
-1.33579e-07
1.64583e-06
-3.76118e-07
6.25603e-07
-5.27603e-07
3.92706e-07
-6.0684e-07
2.02966e-07
-6.65242e-07
1.43745e-07
-7.05646e-07
1.08351e-07
-7.41717e-07
9.67255e-08
-7.76318e-07
1.04746e-07
-8.15138e-07
1.21708e-07
-8.61236e-07
1.54441e-07
-9.17477e-07
1.92576e-07
-9.84813e-07
2.36887e-07
-1.063e-06
2.78821e-07
-1.15122e-06
3.19653e-07
-1.2489e-06
3.58491e-07
-1.35614e-06
3.99208e-07
-1.47328e-06
4.42397e-07
-1.60025e-06
4.87465e-07
-1.73577e-06
5.30123e-07
-1.87709e-06
5.65288e-07
-2.02011e-06
5.87512e-07
-2.15988e-06
5.93055e-07
-2.29105e-06
5.7941e-07
-2.40809e-06
5.45043e-07
-2.50555e-06
4.89085e-07
-2.57813e-06
4.11106e-07
-2.62076e-06
3.1096e-07
-2.6287e-06
1.88869e-07
-2.59755e-06
4.52845e-08
-2.52334e-06
-1.19063e-07
-2.40257e-06
-3.02991e-07
-2.23229e-06
-5.04734e-07
-2.01034e-06
-7.21951e-07
-1.73554e-06
-9.51176e-07
-1.4079e-06
-1.18811e-06
-1.02899e-06
-1.42655e-06
-6.02471e-07
-1.65823e-06
-1.34826e-07
-1.86928e-06
3.63679e-07
-2.03977e-06
8.83656e-07
-2.14127e-06
1.42346e-06
-2.18181e-06
1.98144e-06
-2.20164e-06
2.5483e-06
-2.20777e-06
3.11354e-06
-2.17158e-06
3.66449e-06
-2.09967e-06
4.18946e-06
-1.96676e-06
4.67603e-06
-1.81734e-06
5.11424e-06
-1.58874e-06
5.49746e-06
-1.41111e-06
5.81721e-06
-1.09845e-06
6.08244e-06
-9.94932e-07
6.276e-06
-5.79018e-07
6.44412e-06
-7.24714e-07
6.53094e-06
-1.03469e-07
6.67936e-06
-8.58463e-07
6.74073e-06
1.9523e-07
-3.18103e-06
6.00894e-06
4.45993e-05
2.52372e-06
1.83585e-05
7.56836e-07
5.73478e-06
-2.18144e-09
2.40485e-06
-3.28563e-07
9.51985e-07
-5.3e-07
5.94144e-07
-6.3951e-07
3.12476e-07
-7.18887e-07
2.23122e-07
-7.73508e-07
1.62972e-07
-8.20706e-07
1.43923e-07
-8.6412e-07
1.4816e-07
-9.10903e-07
1.68491e-07
-9.64582e-07
2.0812e-07
-1.02861e-06
2.56606e-07
-1.10399e-06
3.12264e-07
-1.19042e-06
3.6525e-07
-1.28679e-06
4.16023e-07
-1.39228e-06
4.63987e-07
-1.50669e-06
5.13613e-07
-1.63006e-06
5.65767e-07
-1.76191e-06
6.19312e-07
-1.90048e-06
6.68695e-07
-2.04252e-06
7.07326e-07
-2.18348e-06
7.28477e-07
-2.31811e-06
7.27689e-07
-2.44091e-06
7.02203e-07
-2.54637e-06
6.50503e-07
-2.62919e-06
5.71912e-07
-2.68436e-06
4.66272e-07
-2.70715e-06
3.33752e-07
-2.69323e-06
1.74949e-07
-2.63866e-06
-9.28982e-09
-2.5399e-06
-2.17819e-07
-2.39384e-06
-4.49049e-07
-2.19793e-06
-7.0065e-07
-1.95039e-06
-9.69491e-07
-1.6504e-06
-1.25116e-06
-1.29834e-06
-1.54018e-06
-8.95989e-07
-1.8289e-06
-4.4716e-07
-2.10706e-06
4.18977e-08
-2.35833e-06
5.61939e-07
-2.55981e-06
1.10612e-06
-2.68545e-06
1.67421e-06
-2.7499e-06
2.26343e-06
-2.79087e-06
2.86332e-06
-2.80766e-06
3.46336e-06
-2.77161e-06
4.05055e-06
-2.68686e-06
4.6138e-06
-2.53001e-06
5.13953e-06
-2.34307e-06
5.61911e-06
-2.06832e-06
6.04211e-06
-1.83411e-06
6.40374e-06
-1.46008e-06
6.70396e-06
-1.29515e-06
6.93521e-06
-8.10266e-07
7.1269e-06
-9.16405e-07
7.24266e-06
-2.1923e-07
7.39854e-06
-1.01434e-06
7.48568e-06
1.08084e-07
-3.65723e-06
6.60541e-06
4.79939e-05
3.17017e-06
2.17938e-05
1.13561e-06
7.76933e-06
1.93637e-07
3.34683e-06
-2.42903e-07
1.38853e-06
-5.01414e-07
8.52655e-07
-6.46805e-07
4.57866e-07
-7.50625e-07
3.26942e-07
-8.21933e-07
2.3428e-07
-8.8177e-07
2.0376e-07
-9.34876e-07
2.01265e-07
-9.89836e-07
2.23451e-07
-1.05072e-06
2.69008e-07
-1.12154e-06
3.27424e-07
-1.20336e-06
3.9408e-07
-1.29581e-06
4.57705e-07
-1.39753e-06
5.17741e-07
-1.50742e-06
5.7388e-07
-1.62497e-06
6.31156e-07
-1.74991e-06
6.90715e-07
-1.88144e-06
7.50842e-07
-2.01749e-06
8.04736e-07
-2.15452e-06
8.44357e-07
-2.28786e-06
8.61823e-07
-2.41228e-06
8.52106e-07
-2.52242e-06
8.12339e-07
-2.61304e-06
7.41126e-07
-2.67917e-06
6.38047e-07
-2.71615e-06
5.03248e-07
-2.71963e-06
3.37232e-07
-2.68564e-06
1.40963e-07
-2.61061e-06
-8.43276e-08
-2.49126e-06
-3.37166e-07
-2.32473e-06
-6.1558e-07
-2.10872e-06
-9.16662e-07
-1.84169e-06
-1.23651e-06
-1.52304e-06
-1.56981e-06
-1.15327e-06
-1.90995e-06
-7.34265e-07
-2.2479e-06
-2.6977e-07
-2.57155e-06
2.34347e-07
-2.86245e-06
7.6997e-07
-3.09543e-06
1.33194e-06
-3.24741e-06
1.92013e-06
-3.33809e-06
2.53051e-06
-3.40125e-06
3.15206e-06
-3.4292e-06
3.7743e-06
-3.39386e-06
4.38433e-06
-3.29689e-06
4.97169e-06
-3.11737e-06
5.5225e-06
-2.89388e-06
6.02948e-06
-2.5753e-06
6.48007e-06
-2.28469e-06
6.87273e-06
-1.85274e-06
7.20047e-06
-1.62289e-06
7.46444e-06
-1.07423e-06
7.67772e-06
-1.12969e-06
7.8237e-06
-3.65209e-07
7.98737e-06
-1.17801e-06
8.10074e-06
-5.28809e-09
-4.0737e-06
7.13987e-06
5.0854e-05
3.82562e-06
2.5108e-05
1.57753e-06
1.00174e-05
4.38659e-07
4.4857e-06
-1.17219e-07
1.9444e-06
-4.40662e-07
1.1761e-06
-6.27794e-07
6.44998e-07
-7.59751e-07
4.589e-07
-8.50364e-07
3.24893e-07
-9.24477e-07
2.77873e-07
-9.88213e-07
2.65001e-07
-1.05159e-06
2.86833e-07
-1.11931e-06
3.36721e-07
-1.19589e-06
4.04007e-07
-1.28253e-06
4.80723e-07
-1.37886e-06
5.54034e-07
-1.4833e-06
6.22181e-07
-1.59455e-06
6.85131e-07
-1.71184e-06
7.48444e-07
-1.83469e-06
8.13565e-07
-1.96206e-06
8.78213e-07
-2.09174e-06
9.34409e-07
-2.22014e-06
9.72762e-07
-2.34269e-06
9.84373e-07
-2.45435e-06
9.63766e-07
-2.55006e-06
9.08049e-07
-2.62492e-06
8.15985e-07
-2.67429e-06
6.87417e-07
-2.69383e-06
5.22784e-07
-2.6795e-06
3.22903e-07
-2.62762e-06
8.90829e-08
-2.53482e-06
-1.77123e-07
-2.39802e-06
-4.73966e-07
-2.21452e-06
-7.99083e-07
-1.9822e-06
-1.14898e-06
-1.69969e-06
-1.51903e-06
-1.36649e-06
-1.90301e-06
-9.83195e-07
-2.29324e-06
-5.517e-07
-2.6794e-06
-7.56318e-08
-3.04762e-06
4.39578e-07
-3.37766e-06
9.86853e-07
-3.64271e-06
1.56206e-06
-3.82262e-06
2.16449e-06
-3.94052e-06
2.78896e-06
-4.02572e-06
3.42424e-06
-4.06448e-06
4.05998e-06
-4.02959e-06
4.68347e-06
-3.92038e-06
5.28478e-06
-3.71868e-06
5.85018e-06
-3.45929e-06
6.37347e-06
-3.09858e-06
6.84105e-06
-2.75227e-06
7.25402e-06
-2.26572e-06
7.60063e-06
-1.9695e-06
7.88934e-06
-1.36295e-06
8.11933e-06
-1.35968e-06
8.2927e-06
-5.38585e-07
8.4621e-06
-1.3474e-06
8.60125e-06
-1.44439e-07
-4.42918e-06
7.61614e-06
5.32378e-05
4.47693e-06
2.82472e-05
2.07378e-06
1.24206e-05
7.38489e-07
5.82098e-06
5.05714e-08
2.63232e-06
-3.46419e-07
1.57309e-06
-5.81426e-07
8.80005e-07
-7.45442e-07
6.22916e-07
-8.58153e-07
4.37603e-07
-9.48334e-07
3.68055e-07
-1.02373e-06
3.40402e-07
-1.09586e-06
3.5896e-07
-1.17007e-06
4.10928e-07
-1.25147e-06
4.85408e-07
-1.34146e-06
5.70715e-07
-1.43977e-06
6.52339e-07
-1.54473e-06
7.27145e-07
-1.65494e-06
7.95344e-07
-1.76947e-06
8.62966e-07
-1.88767e-06
9.31767e-07
-2.00839e-06
9.9893e-07
-2.12937e-06
1.0554e-06
-2.24716e-06
1.09054e-06
-2.35736e-06
1.09457e-06
-2.45523e-06
1.06164e-06
-2.53605e-06
9.88867e-07
-2.59523e-06
8.7517e-07
-2.62845e-06
7.2063e-07
-2.63161e-06
5.25948e-07
-2.60094e-06
2.92229e-07
-2.53295e-06
2.10948e-08
-2.42442e-06
-2.85647e-07
-2.2724e-06
-6.25993e-07
-2.07432e-06
-9.97164e-07
-1.82821e-06
-1.39509e-06
-1.53283e-06
-1.81441e-06
-1.18775e-06
-2.24809e-06
-7.93636e-07
-2.68736e-06
-3.52358e-07
-3.12067e-06
1.32595e-07
-3.53257e-06
6.56217e-07
-3.90128e-06
1.21232e-06
-4.19881e-06
1.79733e-06
-4.40763e-06
2.40964e-06
-4.55283e-06
3.0431e-06
-4.65918e-06
3.68648e-06
-4.70787e-06
4.32958e-06
-4.67269e-06
4.95995e-06
-4.55075e-06
5.56809e-06
-4.32682e-06
6.14058e-06
-4.03178e-06
6.67204e-06
-3.63004e-06
7.14849e-06
-3.22872e-06
7.57298e-06
-2.69021e-06
7.93069e-06
-2.3272e-06
8.23584e-06
-1.6681e-06
8.47669e-06
-1.60053e-06
8.67174e-06
-7.33642e-07
8.84344e-06
-1.51909e-06
9.00527e-06
-3.06272e-07
-4.72533e-06
8.03827e-06
5.51996e-05
5.11336e-06
3.11721e-05
2.61424e-06
1.49197e-05
1.0927e-06
7.34252e-06
2.61794e-07
3.46323e-06
-2.17248e-07
2.05213e-06
-5.06532e-07
1.16929e-06
-7.06744e-07
8.23127e-07
-8.44556e-07
5.75416e-07
-9.52781e-07
4.76279e-07
-1.04103e-06
4.28647e-07
-1.12236e-06
4.40292e-07
-1.20287e-06
4.91437e-07
-1.28833e-06
5.70867e-07
-1.38047e-06
6.62855e-07
-1.47925e-06
7.51127e-07
-1.5831e-06
8.30994e-07
-1.6906e-06
9.02837e-07
-1.80069e-06
9.73058e-07
-1.91264e-06
1.04372e-06
-2.02523e-06
1.11152e-06
-2.13626e-06
1.16642e-06
-2.24241e-06
1.1967e-06
-2.33959e-06
1.19175e-06
-2.42338e-06
1.14542e-06
-2.48936e-06
1.05485e-06
-2.53327e-06
9.19076e-07
-2.55102e-06
7.38381e-07
-2.53876e-06
5.13693e-07
-2.49291e-06
2.46372e-07
-2.41013e-06
-6.16803e-08
-2.28732e-06
-4.08459e-07
-2.12161e-06
-7.91701e-07
-1.91059e-06
-1.20818e-06
-1.65241e-06
-1.65327e-06
-1.34592e-06
-2.1209e-06
-9.90782e-07
-2.60323e-06
-5.87684e-07
-3.09045e-06
-1.38487e-07
-3.56987e-06
3.53469e-07
-4.02453e-06
8.8356e-07
-4.43137e-06
1.44632e-06
-4.76157e-06
2.03843e-06
-4.99975e-06
2.65728e-06
-5.17168e-06
3.29591e-06
-5.29781e-06
3.94326e-06
-5.35522e-06
4.58927e-06
-5.3187e-06
5.22179e-06
-5.18327e-06
5.83167e-06
-4.9367e-06
6.40588e-06
-4.60599e-06
6.93964e-06
-4.1638e-06
7.41897e-06
-3.70805e-06
7.84831e-06
-3.11956e-06
8.21092e-06
-2.6898e-06
8.52537e-06
-1.98255e-06
8.77169e-06
-1.84685e-06
8.9819e-06
-9.43844e-07
9.15234e-06
-1.68953e-06
9.33161e-06
-4.85544e-07
-4.96594e-06
8.41052e-06
5.67891e-05
5.7264e-06
3.38563e-05
3.18814e-06
1.7458e-05
1.49935e-06
9.03131e-06
5.19402e-07
4.44318e-06
-5.17819e-08
2.62331e-06
-4.01822e-07
1.51933e-06
-6.42566e-07
1.06387e-06
-8.08724e-07
7.41574e-07
-9.37179e-07
6.04734e-07
-1.03965e-06
5.31115e-07
-1.13085e-06
5.31491e-07
-1.21769e-06
5.78281e-07
-1.30673e-06
6.59903e-07
-1.40017e-06
7.56301e-07
-1.49841e-06
8.49365e-07
-1.60005e-06
9.32637e-07
-1.70376e-06
1.00654e-06
-1.80841e-06
1.07771e-06
-1.91319e-06
1.1485e-06
-2.01683e-06
1.21515e-06
-2.11722e-06
1.26681e-06
-2.21127e-06
1.29075e-06
-2.29518e-06
1.27567e-06
-2.36487e-06
1.21511e-06
-2.41624e-06
1.10622e-06
-2.44529e-06
9.48131e-07
-2.44819e-06
7.41274e-07
-2.42126e-06
4.86767e-07
-2.36109e-06
1.86202e-07
-2.26448e-06
-1.58293e-07
-2.12839e-06
-5.44541e-07
-1.9501e-06
-9.7e-07
-1.72729e-06
-1.43099e-06
-1.45824e-06
-1.92232e-06
-1.14189e-06
-2.43726e-06
-7.77965e-07
-2.96715e-06
-3.672e-07
-3.50122e-06
8.85663e-08
-4.02564e-06
5.86131e-07
-4.52209e-06
1.1212e-06
-4.96644e-06
1.68887e-06
-5.32924e-06
2.28587e-06
-5.59675e-06
2.90862e-06
-5.79442e-06
3.5495e-06
-5.93869e-06
4.19767e-06
-6.00339e-06
4.84326e-06
-5.96429e-06
5.47441e-06
-5.81443e-06
6.08229e-06
-5.54458e-06
6.65426e-06
-5.17796e-06
7.18603e-06
-4.69557e-06
7.66382e-06
-4.18583e-06
8.09304e-06
-3.54878e-06
8.45583e-06
-3.05259e-06
8.77391e-06
-2.30063e-06
9.02132e-06
-2.09427e-06
9.24064e-06
-1.16317e-06
9.4068e-06
-1.85569e-06
9.59757e-06
-6.76313e-07
-5.15588e-06
8.73714e-06
5.80519e-05
6.30955e-06
3.62838e-05
3.78459e-06
1.99829e-05
1.95489e-06
1.0861e-05
8.24573e-07
5.5735e-06
1.52618e-07
3.29527e-06
-2.65872e-07
1.93782e-06
-5.51668e-07
1.34967e-06
-7.49683e-07
9.3959e-07
-9.00801e-07
7.55852e-07
-1.01912e-06
6.4943e-07
-1.12111e-06
6.33481e-07
-1.2146e-06
6.71777e-07
-1.30707e-06
7.52368e-07
-1.40136e-06
8.50594e-07
-1.49844e-06
9.46446e-07
-1.59724e-06
1.03143e-06
-1.69654e-06
1.10585e-06
-1.79519e-06
1.17636e-06
-1.89228e-06
1.24559e-06
-1.98652e-06
1.3094e-06
-2.07594e-06
1.35623e-06
-2.15768e-06
1.37249e-06
-2.22827e-06
1.34626e-06
-2.28397e-06
1.2708e-06
-2.32097e-06
1.14323e-06
-2.33555e-06
9.6271e-07
-2.32407e-06
7.2979e-07
-2.28304e-06
4.4574e-07
-2.20919e-06
1.12356e-07
-2.09943e-06
-2.68055e-07
-1.95081e-06
-6.93159e-07
-1.76071e-06
-1.1601e-06
-1.52696e-06
-1.66474e-06
-1.24791e-06
-2.20136e-06
-9.22604e-07
-2.76256e-06
-5.50843e-07
-3.33891e-06
-1.33393e-07
-3.91867e-06
3.2792e-07
-4.48695e-06
8.30013e-07
-5.02419e-06
1.36885e-06
-5.50528e-06
1.93998e-06
-5.90037e-06
2.54004e-06
-6.19681e-06
3.16454e-06
-6.41892e-06
3.80537e-06
-6.57952e-06
4.45192e-06
-6.64994e-06
5.0945e-06
-6.60687e-06
5.72158e-06
-6.44151e-06
6.32459e-06
-6.14758e-06
6.89133e-06
-5.7447e-06
7.41788e-06
-5.22212e-06
7.89077e-06
-4.65872e-06
8.31615e-06
-3.97416e-06
8.67553e-06
-3.41198e-06
8.99288e-06
-2.61797e-06
9.23795e-06
-2.33934e-06
9.46137e-06
-1.38659e-06
9.62092e-06
-2.01523e-06
9.81756e-06
-8.72953e-07
-5.30032e-06
9.02238e-06
5.90295e-05
6.85813e-06
3.84481e-05
4.39305e-06
2.2448e-05
2.45431e-06
1.27998e-05
1.17784e-06
6.84997e-06
3.97017e-07
4.07609e-06
-9.69024e-08
2.43174e-06
-4.32637e-07
1.6854e-06
-6.66315e-07
1.17327e-06
-8.42793e-07
9.32329e-07
-9.78865e-07
7.85502e-07
-1.09287e-06
7.47484e-07
-1.19366e-06
7.72564e-07
-1.28974e-06
8.48453e-07
-1.38478e-06
9.45629e-07
-1.48045e-06
1.04212e-06
-1.5761e-06
1.12708e-06
-1.6707e-06
1.20045e-06
-1.76306e-06
1.26872e-06
-1.85219e-06
1.33473e-06
-1.93683e-06
1.39403e-06
-2.01512e-06
1.43452e-06
-2.08449e-06
1.44187e-06
-2.14181e-06
1.40358e-06
-2.18365e-06
1.31264e-06
-2.20653e-06
1.1661e-06
-2.20694e-06
9.63126e-07
-2.18146e-06
7.0431e-07
-2.12677e-06
3.91047e-07
-2.03972e-06
2.53109e-08
-1.91732e-06
-3.90458e-07
-1.75671e-06
-8.53765e-07
-1.5554e-06
-1.36142e-06
-1.31131e-06
-1.90883e-06
-1.02292e-06
-2.48975e-06
-6.89357e-07
-3.09613e-06
-3.10481e-07
-3.71779e-06
1.12896e-07
-4.34204e-06
5.78953e-07
-4.95301e-06
1.0847e-06
-5.52994e-06
1.62632e-06
-6.0469e-06
2.19966e-06
-6.47371e-06
2.80123e-06
-6.79837e-06
3.42572e-06
-7.04341e-06
4.06464e-06
-7.21844e-06
4.7076e-06
-7.2929e-06
5.34511e-06
-7.24438e-06
5.96597e-06
-7.06236e-06
6.56184e-06
-6.74346e-06
7.12099e-06
-6.30385e-06
7.63979e-06
-5.74092e-06
8.10521e-06
-5.12414e-06
8.52386e-06
-4.39282e-06
8.87707e-06
-3.76519e-06
9.19035e-06
-2.93125e-06
9.43042e-06
-2.57941e-06
9.65392e-06
-1.61009e-06
9.80515e-06
-2.16646e-06
1.00028e-05
-1.07063e-06
-5.40411e-06
9.27035e-06
5.97592e-05
7.36902e-06
4.03494e-05
5.00366e-06
2.48134e-05
2.99128e-06
1.48121e-05
1.57863e-06
8.26262e-06
6.83238e-07
4.97149e-06
1.0696e-07
3.00802e-06
-2.83892e-07
2.07625e-06
-5.5733e-07
1.44671e-06
-7.62133e-07
1.13713e-06
-9.18182e-07
9.41551e-07
-1.04574e-06
8.75045e-07
-1.1548e-06
8.81617e-07
-1.25503e-06
9.48683e-07
-1.35101e-06
1.04161e-06
-1.4453e-06
1.1364e-06
-1.53774e-06
1.21953e-06
-1.62754e-06
1.29025e-06
-1.7135e-06
1.35469e-06
-1.7946e-06
1.41582e-06
-1.86955e-06
1.46898e-06
-1.93669e-06
1.50166e-06
-1.99373e-06
1.49891e-06
-2.03787e-06
1.44772e-06
-2.06601e-06
1.34079e-06
-2.07497e-06
1.17506e-06
-2.06149e-06
9.49645e-07
-2.02232e-06
6.65141e-07
-1.95431e-06
3.2303e-07
-1.85443e-06
-7.45675e-08
-1.71977e-06
-5.25114e-07
-1.5476e-06
-1.02594e-06
-1.33552e-06
-1.5735e-06
-1.08158e-06
-2.16276e-06
-7.84364e-07
-2.78697e-06
-4.43071e-07
-3.43742e-06
-5.76501e-08
-4.10321e-06
3.71049e-07
-4.77074e-06
8.412e-07
-5.42316e-06
1.34988e-06
-6.03862e-06
1.89343e-06
-6.59045e-06
2.46792e-06
-7.0482e-06
3.06965e-06
-7.4001e-06
3.69265e-06
-7.66641e-06
4.32812e-06
-7.85391e-06
4.96588e-06
-7.93066e-06
5.59664e-06
-7.87514e-06
6.20951e-06
-7.67523e-06
6.79641e-06
-7.33036e-06
7.34604e-06
-6.85348e-06
7.85507e-06
-6.24995e-06
8.31092e-06
-5.57998e-06
8.72058e-06
-4.80248e-06
9.06542e-06
-4.11003e-06
9.37202e-06
-3.23785e-06
9.60502e-06
-2.81242e-06
9.82543e-06
-1.83049e-06
9.9671e-06
-2.30813e-06
1.01619e-05
-1.26541e-06
-5.47155e-06
9.48499e-06
6.02742e-05
7.84044e-06
4.1994e-05
5.60751e-06
2.70463e-05
3.55847e-06
1.68612e-05
2.02518e-06
9.79591e-06
1.01272e-06
5.98395e-06
3.47772e-07
3.67296e-06
-1.03731e-07
2.52776e-06
-4.2126e-07
1.76423e-06
-6.57601e-07
1.37347e-06
-8.36159e-07
1.12011e-06
-9.79147e-07
1.01803e-06
-1.09777e-06
1.00024e-06
-1.20298e-06
1.05389e-06
-1.3004e-06
1.13903e-06
-1.39355e-06
1.22956e-06
-1.48291e-06
1.30888e-06
-1.56797e-06
1.3753e-06
-1.64757e-06
1.43429e-06
-1.72064e-06
1.48889e-06
-1.78594e-06
1.53428e-06
-1.842e-06
1.55772e-06
-1.8868e-06
1.54371e-06
-1.9179e-06
1.47882e-06
-1.93253e-06
1.35542e-06
-1.92778e-06
1.17032e-06
-1.90064e-06
9.22504e-07
-1.84804e-06
6.12544e-07
-1.76698e-06
2.41972e-07
-1.65456e-06
-1.86987e-07
-1.50796e-06
-6.71716e-07
-1.32455e-06
-1.20935e-06
-1.10207e-06
-1.79599e-06
-8.38667e-07
-2.42616e-06
-5.33025e-07
-3.09261e-06
-1.84441e-07
-3.78601e-06
2.07066e-07
-4.49471e-06
6.40594e-07
-5.20427e-06
1.11429e-06
-5.89686e-06
1.62529e-06
-6.54962e-06
2.17003e-06
-7.13518e-06
2.74473e-06
-7.62291e-06
3.34547e-06
-8.00084e-06
3.96572e-06
-8.28666e-06
4.59644e-06
-8.48463e-06
5.22765e-06
-8.56187e-06
5.85024e-06
-8.49773e-06
6.45365e-06
-8.27863e-06
7.03003e-06
-7.90675e-06
7.56854e-06
-7.39198e-06
8.0661e-06
-6.74752e-06
8.51064e-06
-6.02453e-06
8.90946e-06
-5.20129e-06
9.24414e-06
-4.44471e-06
9.54197e-06
-3.53568e-06
9.76624e-06
-3.03669e-06
9.98106e-06
-2.0453e-06
1.01122e-05
-2.43932e-06
1.0301e-05
-1.45416e-06
-5.50635e-06
9.67004e-06
6.06041e-05
8.27177e-06
4.33923e-05
6.19681e-06
2.91213e-05
4.14787e-06
1.89101e-05
2.51438e-06
1.14294e-05
1.38624e-06
7.11208e-06
6.27589e-07
4.43162e-06
1.09774e-07
3.04557e-06
-2.56476e-07
2.13048e-06
-5.27766e-07
1.64476e-06
-7.31661e-07
1.324e-06
-8.92255e-07
1.17863e-06
-1.02208e-06
1.13006e-06
-1.1334e-06
1.16521e-06
-1.23299e-06
1.23862e-06
-1.32547e-06
1.32205e-06
-1.41203e-06
1.39543e-06
-1.49252e-06
1.4558e-06
-1.56589e-06
1.50766e-06
-1.63106e-06
1.55406e-06
-1.68685e-06
1.59007e-06
-1.73196e-06
1.60282e-06
-1.76469e-06
1.57643e-06
-1.78292e-06
1.49705e-06
-1.78422e-06
1.35673e-06
-1.76599e-06
1.15208e-06
-1.72541e-06
8.81927e-07
-1.65962e-06
5.46753e-07
-1.56576e-06
1.48113e-07
-1.44104e-06
-3.11701e-07
-1.28276e-06
-8.30004e-07
-1.08839e-06
-1.40372e-06
-8.55793e-07
-2.02858e-06
-5.83244e-07
-2.69871e-06
-2.69514e-07
-3.40634e-06
8.60056e-08
-4.14153e-06
4.83217e-07
-4.89193e-06
9.21158e-07
-5.64221e-06
1.39794e-06
-6.37364e-06
1.91072e-06
-7.06239e-06
2.456e-06
-7.68047e-06
3.03009e-06
-8.19699e-06
3.62882e-06
-8.59957e-06
4.24522e-06
-8.90306e-06
4.87008e-06
-9.10949e-06
5.49359e-06
-9.18538e-06
6.1068e-06
-9.11095e-06
6.69947e-06
-8.8713e-06
7.26401e-06
-8.47128e-06
7.79e-06
-7.91797e-06
8.27465e-06
-7.23216e-06
8.70642e-06
-6.45629e-06
9.09281e-06
-5.58769e-06
9.41583e-06
-4.76773e-06
9.70319e-06
-3.82304e-06
9.91736e-06
-3.25087e-06
1.01246e-05
-2.25251e-06
1.02445e-05
-2.55929e-06
1.04248e-05
-1.63443e-06
-5.51161e-06
9.829e-06
6.07751e-05
8.66333e-06
4.45579e-05
6.76498e-06
3.10196e-05
4.75116e-06
2.09239e-05
3.04189e-06
1.31387e-05
1.80376e-06
8.35021e-06
9.48085e-07
5.2873e-06
3.5853e-07
3.63513e-06
-6.11377e-08
2.55015e-06
-3.71002e-07
1.95463e-06
-6.03321e-07
1.55632e-06
-7.83985e-07
1.35929e-06
-9.26943e-07
1.27302e-06
-1.0458e-06
1.28407e-06
-1.14855e-06
1.34137e-06
-1.24102e-06
1.41452e-06
-1.3252e-06
1.47961e-06
-1.40143e-06
1.53204e-06
-1.46881e-06
1.57504e-06
-1.52629e-06
1.61154e-06
-1.57277e-06
1.63656e-06
-1.60715e-06
1.6372e-06
-1.62801e-06
1.5973e-06
-1.6336e-06
1.50263e-06
-1.62182e-06
1.34494e-06
-1.59031e-06
1.12057e-06
-1.53652e-06
8.28139e-07
-1.45776e-06
4.67991e-07
-1.35132e-06
4.16734e-08
-1.21453e-06
-4.48491e-07
-1.04479e-06
-9.99751e-07
-8.39703e-07
-1.6088e-06
-5.97255e-07
-2.27103e-06
-3.15825e-07
-2.98014e-06
5.70872e-09
-3.72787e-06
3.67862e-07
-4.50368e-06
7.70452e-07
-5.29452e-06
1.21244e-06
-6.0842e-06
1.6919e-06
-6.8531e-06
2.20597e-06
-7.57647e-06
2.75122e-06
-8.22571e-06
3.32395e-06
-8.76973e-06
3.91979e-06
-9.19541e-06
4.53139e-06
-9.51467e-06
5.14942e-06
-9.72752e-06
5.76421e-06
-9.80017e-06
6.36699e-06
-9.71373e-06
6.9478e-06
-9.45212e-06
7.49933e-06
-9.02281e-06
8.01159e-06
-8.43023e-06
8.48205e-06
-7.70262e-06
8.89974e-06
-6.87399e-06
9.27237e-06
-5.96032e-06
9.58242e-06
-5.07778e-06
9.85786e-06
-4.09847e-06
1.00608e-05
-3.45379e-06
1.02587e-05
-2.45046e-06
1.03669e-05
-2.66748e-06
1.05368e-05
-1.80427e-06
-5.48995e-06
9.96513e-06
6.081e-05
9.01617e-06
4.55069e-05
7.30667e-06
3.27291e-05
5.36e-06
2.28706e-05
3.60221e-06
1.48965e-05
2.26419e-06
9.68823e-06
1.31049e-06
6.241e-06
6.44356e-07
4.30126e-06
1.66681e-07
3.02783e-06
-1.85527e-07
2.30684e-06
-4.49561e-07
1.82036e-06
-6.53004e-07
1.56273e-06
-8.1133e-07
1.43134e-06
-9.39437e-07
1.41218e-06
-1.04657e-06
1.4485e-06
-1.13988e-06
1.50782e-06
-1.22226e-06
1.562e-06
-1.29466e-06
1.60443e-06
-1.35637e-06
1.63675e-06
-1.40647e-06
1.66163e-06
-1.44394e-06
1.67403e-06
-1.46788e-06
1.66114e-06
-1.47716e-06
1.60659e-06
-1.47038e-06
1.49585e-06
-1.44577e-06
1.32032e-06
-1.40124e-06
1.07605e-06
-1.33448e-06
7.61377e-07
-1.24297e-06
3.76484e-07
-1.12417e-06
-7.71321e-08
-9.7551e-07
-5.97147e-07
-7.94517e-07
-1.18074e-06
-5.78939e-07
-1.82438e-06
-3.26865e-07
-2.5231e-06
-3.67931e-08
-3.27021e-06
2.92295e-07
-4.05696e-06
6.60818e-07
-4.87221e-06
1.0685e-06
-5.7022e-06
1.51421e-06
-6.52992e-06
1.99598e-06
-7.33486e-06
2.51092e-06
-8.09141e-06
3.0556e-06
-8.7704e-06
3.62632e-06
-9.34044e-06
4.21846e-06
-9.78755e-06
4.82441e-06
-1.01206e-05
5.43475e-06
-1.03379e-05
6.03992e-06
-1.04053e-05
6.63132e-06
-1.03051e-05
7.19929e-06
-1.00201e-05
7.73674e-06
-9.56026e-06
8.23418e-06
-8.92766e-06
8.68931e-06
-8.15775e-06
9.09177e-06
-7.27645e-06
9.44943e-06
-6.31798e-06
9.74537e-06
-5.37372e-06
1.00076e-05
-4.36074e-06
1.01983e-05
-3.64447e-06
1.03856e-05
-2.63779e-06
1.04815e-05
-2.76339e-06
1.06394e-05
-1.96217e-06
-5.44354e-06
1.00814e-05
6.07286e-05
9.33198e-06
4.62563e-05
7.81777e-06
3.42433e-05
5.96638e-06
2.4722e-05
4.18887e-06
1.6674e-05
2.7653e-06
1.11118e-05
1.71543e-06
7.29087e-06
9.69015e-07
5.04767e-06
4.2905e-07
3.56779e-06
3.05222e-08
2.70536e-06
-2.68631e-07
2.11951e-06
-4.97746e-07
1.79185e-06
-6.73938e-07
1.60753e-06
-8.13278e-07
1.55152e-06
-9.26295e-07
1.56152e-06
-1.02149e-06
1.60301e-06
-1.10283e-06
1.64334e-06
-1.17192e-06
1.67352e-06
-1.22842e-06
1.69326e-06
-1.27154e-06
1.70475e-06
-1.30037e-06
1.70286e-06
-1.31423e-06
1.675e-06
-1.31229e-06
1.60465e-06
-1.29347e-06
1.47703e-06
-1.25633e-06
1.28318e-06
-1.19906e-06
1.01878e-06
-1.11959e-06
6.81897e-07
-1.01557e-06
2.7247e-07
-8.84617e-07
-2.08085e-07
-7.24302e-07
-7.57462e-07
-5.32271e-07
-1.37278e-06
-3.06407e-07
-2.05024e-06
-4.49234e-08
-2.78459e-06
2.53573e-07
-3.56871e-06
5.8999e-07
-4.39337e-06
9.64642e-07
-5.24686e-06
1.37714e-06
-6.1147e-06
1.82629e-06
-6.97907e-06
2.31002e-06
-7.8186e-06
2.82544e-06
-8.60682e-06
3.36907e-06
-9.31404e-06
3.93716e-06
-9.90853e-06
4.52489e-06
-1.03753e-05