/*--------------------------------*- C++ -*----------------------------------*\
| =========                 |                                                 |
| \\      /  F ield         | OpenFOAM: The Open Source CFD Toolbox           |
|  \\    /   O peration     | Version:  2.4.0                                 |
|   \\  /    A nd           | Web:      www.OpenFOAM.org                      |
|    \\/     M anipulation  |                                                 |
\*---------------------------------------------------------------------------*/
FoamFile
{
    version     2.0;
    format      ascii;
    class       volScalarField;
    location    "6.71";
    object      epsilon;
}
// * * * * * * * * * * * * * * * * * * * * * * * * * * * * * * * * * * * * * //

dimensions      [0 2 -3 0 0 0 0];

internalField   nonuniform List<scalar> 
6000
(
54.1729
1.09758
0.0202879
0.134487
0.0725471
0.0863281
0.061604
0.0575554
0.046092
0.0418982
0.0364332
0.0341092
0.0320123
0.0315816
0.0317374
0.0329823
0.0349174
0.0377553
0.0413714
0.0458839
0.0512764
0.0576179
0.0649077
0.073155
0.0823114
0.0923064
0.103019
0.114275
0.125827
0.137344
0.148417
0.158555
0.167195
0.173713
0.177454
0.177809
0.174273
0.16647
0.154366
0.138211
0.118978
0.09797
0.077411
0.0639678
0.100387
0.155005
0.231471
0.343929
0.490306
0.708484
0.964206
1.38336
1.7927
2.65059
3.21693
5.22888
5.67576
11.3713
10.3082
29.0389
17.7229
0.975465
0.0253675
0.0742217
0.0418223
0.047386
0.034372
0.0316195
0.0254832
0.0229906
0.0200093
0.0186173
0.0174086
0.0170408
0.0169917
0.0174761
0.0182971
0.0195351
0.0211214
0.0230937
0.0254326
0.0281543
0.0312477
0.0347064
0.0385035
0.0426066
0.0469673
0.0515216
0.0561816
0.0608346
0.0653425
0.0695419
0.0732457
0.0762361
0.0782938
0.0791922
0.0787272
0.0767157
0.0730656
0.0677539
0.0610003
0.0531526
0.0450121
0.039986
0.0580115
0.0834138
0.117098
0.16405
0.223122
0.307493
0.405535
0.559318
0.713914
1.016
1.23865
1.91989
2.15571
4.00924
3.92372
9.77343
7.13598
0.711152
0.030306
0.0435431
0.0252887
0.0273074
0.0200741
0.0182007
0.0147555
0.0132302
0.0115395
0.0106973
0.00999632
0.00974731
0.00968735
0.00991175
0.0103203
0.0109453
0.0117502
0.0127485
0.0139279
0.015293
0.0168365
0.0185538
0.0204326
0.0224591
0.024614
0.0268725
0.029201
0.0315567
0.0338873
0.0361308
0.0382139
0.0400496
0.0415507
0.0426118
0.0431318
0.0430066
0.0421546
0.0405093
0.0380989
0.0350141
0.031598
0.0298873
0.0403909
0.0545072
0.0723201
0.0957835
0.124196
0.162689
0.20678
0.272199
0.339675
0.4613
0.560859
0.821951
0.948718
1.62609
1.70792
3.74511
3.42004
0.518234
0.0345349
0.0274549
0.0160623
0.0164815
0.012229
0.0109314
0.00890964
0.00795118
0.00696198
0.00645079
0.00604784
0.00590368
0.00588087
0.00602303
0.00627801
0.00665962
0.00714914
0.00775222
0.00846288
0.00928308
0.0102095
0.0112403
0.0123698
0.0135922
0.0148992
0.0162801
0.0177198
0.0191992
0.0206947
0.022178
0.0236131
0.0249659
0.0261886
0.0272267
0.0280256
0.0285261
0.0286748
0.0284211
0.0277561
0.0267
0.0254156
0.0252219
0.0321083
0.0410711
0.0519921
0.0657458
0.0819492
0.102839
0.126503
0.159472
0.194266
0.251362
0.302719
0.417201
0.489555
0.768184
0.854802
1.64319
1.89782
0.395525
0.0386497
0.01904
0.0107892
0.0104254
0.00776251
0.00683602
0.00559673
0.00497921
0.00438652
0.0040789
0.00385527
0.00378968
0.00380756
0.00392948
0.00412774
0.00440901
0.00476397
0.00519584
0.00570221
0.00628454
0.00694166
0.00767281
0.00847546
0.00934676
0.0102826
0.0112774
0.0123235
0.0134112
0.0145285
0.0156612
0.016791
0.0179061
0.018977
0.0199753
0.0208713
0.0216312
0.0222219
0.0226078
0.0227717
0.0227077
0.022497
0.0230477
0.0280025
0.0342862
0.0417395
0.0507959
0.0612888
0.0742987
0.0890308
0.108431
0.129495
0.160919
0.191803
0.250051
0.295824
0.426328
0.494055
0.836386
1.19136
0.318419
0.0429756
0.0149623
0.00776922
0.00694109
0.00514179
0.00445087
0.00365544
0.00324736
0.00288626
0.00270607
0.00259249
0.00258187
0.00263215
0.00275344
0.00293088
0.00316838
0.00346166
0.00381316
0.00422237
0.00469065
0.00521782
0.00580374
0.00644726
0.00714702
0.00790107
0.00870673
0.00956029
0.0104572
0.0113918
0.0123574
0.0133468
0.0143546
0.0153629
0.0163555
0.0173145
0.0182185
0.0190443
0.0197655
0.0203636
0.0208248
0.0211922
0.0221269
0.0259628
0.030717
0.036229
0.0427208
0.050143
0.0590556
0.06919
0.0819517
0.0962547
0.115935
0.13696
0.170993
0.203175
0.272956
0.32479
0.492194
0.829185
0.268834
0.0475664
0.0135341
0.00612344
0.00490753
0.00357039
0.00302397
0.00248574
0.00220804
0.00198569
0.00188621
0.00184102
0.00186741
0.00194071
0.00206628
0.00223632
0.00245371
0.002717
0.0030284
0.00338845
0.00379857
0.00425921
0.00477076
0.00533308
0.00594605
0.00660934
0.00732236
0.00808404
0.00889294
0.00974704
0.0106431
0.0115806
0.0125533
0.0135502
0.0145606
0.0155719
0.0165687
0.0175334
0.0184458
0.0192899
0.0200502
0.0207499
0.0218932
0.0250315
0.0288396
0.0331694
0.0381305
0.0437296
0.0502658
0.0577128
0.066758
0.0771693
0.0906308
0.106059
0.128167
0.152462
0.194329
0.235201
0.325819
0.628421
0.235882
0.0523299
0.0138402
0.00540409
0.00373684
0.00262054
0.00215438
0.00176567
0.00156912
0.00143117
0.00138306
0.00138073
0.00143163
0.00152079
0.00165144
0.00181982
0.0020285
0.00227766
0.00256954
0.00290535
0.00328673
0.00371471
0.00419029
0.00471427
0.00528756
0.00591111
0.00658574
0.00731193
0.00808988
0.00891924
0.00979878
0.0107285
0.0117026
0.0127133
0.0137523
0.0148097
0.0158734
0.0169296
0.0179628
0.0189599
0.0199035
0.0208079
0.0220686
0.024743
0.0279233
0.0314788
0.0354567
0.0398888
0.0449346
0.050674
0.0574374
0.0653616
0.0751344
0.0869293
0.102382
0.12138
0.148834
0.181683
0.234712
0.510221
0.213249
0.0571107
0.0153571
0.00536352
0.00311842
0.00205766
0.00162209
0.00131711
0.00116967
0.00108312
0.00106762
0.00109247
0.00115986
0.0012604
0.00139639
0.00156644
0.0017731
0.00201755
0.00230219
0.00262877
0.00299926
0.00341527
0.00387841
0.00439023
0.00495244
0.00556677
0.00623485
0.0069579
0.00773681
0.00857188
0.00946253
0.0104076
0.0114019
0.0124393
0.0135128
0.0146137
0.0157321
0.0168565
0.017975
0.0190774
0.020139
0.0211781
0.0225054
0.0248545
0.0275925
0.0306082
0.033913
0.0375496
0.0415995
0.046186
0.0514545
0.0576889
0.0651022
0.0743646
0.0857408
0.100856
0.120086
0.146647
0.179633
0.437373
0.197245
0.0617379
0.0177422
0.00586819
0.00289286
0.00175289
0.00130442
0.00103947
0.000918981
0.000862917
0.000867902
0.000910342
0.000989437
0.00109901
0.00124091
0.00141518
0.00162448
0.00187065
0.00215632
0.00248374
0.00285524
0.00327295
0.00373899
0.00425546
0.00482454
0.00544842
0.00612907
0.006868
0.00766631
0.00852445
0.00944132
0.0104148
0.0114403
0.0125123
0.0136244
0.0147687
0.0159361
0.0171172
0.0183022
0.0194814
0.0206237
0.0217556
0.023119
0.0252291
0.0276399
0.0302587
0.0330769
0.036141
0.0394881
0.0432562
0.0474921
0.0525285
0.0583484
0.0657842
0.074498
0.086689
0.100854
0.122404
0.144037
0.390905
0.185658
0.0660573
0.0207407
0.00683868
0.00298424
0.00163781
0.00113312
0.000875525
0.000765304
0.000725693
0.000743109
0.000797281
0.000885369
0.00100297
0.00115168
0.00133239
0.00154791
0.00180056
0.00209329
0.00242874
0.00280962
0.00323847
0.00371781
0.00425007
0.0048377
0.00548309
0.00618834
0.00695497
0.00778408
0.00867597
0.00962815
0.0106384
0.0117023
0.0128143
0.0139682
0.0151564
0.0163704
0.0176018
0.0188428
0.0200787
0.0212797
0.022477
0.023857
0.0257845
0.0279429
0.0302568
0.0327062
0.0353388
0.0381655
0.0413264
0.0448152
0.0489708
0.0536654
0.0597521
0.0666423
0.076617
0.0874807
0.105087
0.119992
0.360499
0.177122
0.069951
0.0241399
0.00822532
0.00335267
0.00168031
0.00107157
0.000793177
0.00067916
0.000645735
0.000669908
0.000732102
0.000827695
0.000953098
0.00110965
0.00129877
0.00152341
0.0017863
0.00209066
0.00243951
0.0028359
0.00328268
0.00378263
0.00433839
0.00495254
0.00562751
0.00636539
0.00716761
0.00803515
0.00896759
0.00996129
0.011014
0.0121211
0.013277
0.0144752
0.015708
0.0169672
0.0182452
0.0195345
0.0208119
0.0220579
0.0233013
0.0246847
0.0264677
0.0284244
0.0304948
0.0326535
0.0349473
0.0373722
0.0400648
0.0429901
0.046476
0.0503436
0.0554111
0.0610007
0.0692871
0.0778978
0.0924466
0.103195
0.340228
0.170763
0.0733475
0.0277495
0.00998216
0.00397821
0.00187197
0.00110247
0.000775404
0.00064419
0.000608464
0.000634941
0.000702591
0.000804838
0.00093818
0.00110365
0.00130293
0.00153913
0.0018153
0.00213492
0.00250136
0.00291791
0.0033877
0.00391365
0.00449853
0.00514492
0.00585522
0.00663146
0.00747488
0.00838631
0.00936386
0.0104035
0.0115026
0.0126564
0.0138587
0.0151029
0.0163808
0.0176842
0.0190058
0.0203351
0.0216446
0.0229253
0.0242004
0.0255777
0.0272423
0.0290327
0.0309024
0.0328237
0.0348422
0.0369455
0.0392641
0.0417486
0.0447093
0.0479465
0.052226
0.0568538
0.063841
0.0708517
0.0830437
0.0911155
0.326536
0.166004
0.0762214
0.0313974
0.0120555
0.00485319
0.00221315
0.00122117
0.00081469
0.000652049
0.000605987
0.000630741
0.000701779
0.000810096
0.000951665
0.00112707
0.0013381
0.00158797
0.00187996
0.00221784
0.00260523
0.00304565
0.0035424
0.00409852
0.0047168
0.00539975
0.00614969
0.00696857
0.00785735
0.0088168
0.00984248
0.0109311
0.0120796
0.0132823
0.0145327
0.0158237
0.0171467
0.018493
0.0198557
0.0212151
0.0225514
0.0238583
0.0251539
0.0265177
0.0280821
0.0297315
0.0314309
0.0331524
0.0349405
0.0367778
0.0387887
0.0409168
0.0434538
0.0461946
0.0498506
0.0537432
0.0597165
0.0655491
0.0759193
0.0821923
0.317206
0.162446
0.078587
0.0349339
0.0143784
0.00597244
0.00270722
0.00143246
0.00091008
0.000699635
0.000634664
0.00065351
0.000725937
0.00083978
0.000989871
0.00117617
0.00140037
0.00166575
0.00197578
0.00233445
0.00274561
0.00321295
0.00373988
0.00432949
0.00498454
0.00570745
0.00650039
0.00736519
0.00830251
0.00931264
0.0103889
0.0115287
0.0127283
0.0139813
0.0152807
0.0166187
0.0179862
0.0193739
0.0207716
0.0221553
0.0235135
0.0248393
0.0261458
0.0274902
0.0289672
0.0304938
0.032045
0.033594
0.0351839
0.0367952
0.0385462
0.0403777
0.0425641
0.0449024
0.0480535
0.0513674
0.0565358
0.0614725
0.0704206
0.0754324
0.310816
0.159807
0.080488
0.0382376
0.0168698
0.00732438
0.00336074
0.00174537
0.00106576
0.000787648
0.000693808
0.000701931
0.000773505
0.000892194
0.00105103
0.00124907
0.00148772
0.00177029
0.00210031
0.00248198
0.00291932
0.00341615
0.00397594
0.00460178
0.00529636
0.00606195
0.00690054
0.00781384
0.00880214
0.00986465
0.0109932
0.0121856
0.0134374
0.0147413
0.0160897
0.0174741
0.0188849
0.0203114
0.0217363
0.023141
0.0245162
0.0258542
0.0271634
0.0284834
0.0298817
0.0312988
0.032718
0.0341145
0.03553
0.0369446
0.0384708
0.0400494
0.0419389
0.0439424
0.046676
0.0495219
0.0540399
0.0582752
0.0660975
0.0701891
0.306431
0.157877
0.0819864
0.0412207
0.0194382
0.00888619
0.00418175
0.00216792
0.00129056
0.00091994
0.000785043
0.00077655
0.000844502
0.000967089
0.00113472
0.00134524
0.0015995
0.00190076
0.00225252
0.00265915
0.00312478
0.00365331
0.00424824
0.00491262
0.00564899
0.00645946
0.00734579
0.0083096
0.00935075
0.0104666
0.0116485
0.0128943
0.0141985
0.0155532
0.0169499
0.0183796
0.0198319
0.0212907
0.0227383
0.0241603
0.0255474
0.0268912
0.0281958
0.0294868
0.0308121
0.0321294
0.0334287
0.0346876
0.0359467
0.0371865
0.0385144
0.0398726
0.0415056
0.0432242
0.0456056
0.0480641
0.0520469
0.0557187
0.0626354
0.0660306
0.303426
0.156499
0.0831518
0.0438304
0.0219893
0.0106212
0.00517337
0.00270943
0.00159509
0.00110332
0.000912047
0.000879478
0.000940239
0.00106535
0.0012416
0.00146518
0.00173607
0.00205737
0.00243245
0.00286578
0.00336157
0.00392374
0.00455577
0.00526059
0.00604062
0.00689774
0.00783345
0.00884928
0.00994473
0.0111142
0.0123499
0.013649
0.0150054
0.0164101
0.0178538
0.0193268
0.0208163
0.0223009
0.0237678
0.025203
0.0265969
0.0279403
0.0292335
0.030491
0.0317471
0.0329714
0.0341598
0.0352922
0.0364087
0.0374903
0.0386404
0.039803
0.0412105
0.0426819
0.0447609
0.0468918
0.0504267
0.0536353
0.0598109
0.062662
0.301375
0.155549
0.0840541
0.046047
0.0244334
0.0124787
0.00633036
0.00338002
0.00198827
0.00134765
0.00108052
0.0010143
0.00106317
0.00118886
0.00137322
0.00161022
0.0018986
0.00224117
0.00264098
0.00310257
0.00363016
0.00422765
0.00489843
0.00564531
0.00647051
0.00737567
0.00836197
0.00943091
0.0105812
0.0118043
0.0130936
0.0144455
0.0158532
0.0173063
0.0187951
0.0203085
0.0218272
0.0233343
0.0248167
0.0262605
0.0276557
0.0289924
0.0302677
0.0314876
0.0326762
0.0338124
0.0348964
0.0359108
0.0368952
0.0378318
0.0388198
0.0398062
0.0410124
0.0422659
0.0440812
0.0459303
0.0490838
0.0519041
0.0574629
0.0598774
0.299986
0.154932
0.0847573
0.0478788
0.0266939
0.0143969
0.00763646
0.00418608
0.00248029
0.00166272
0.00129831
0.00118608
0.00121688
0.00134039
0.00153193
0.00178247
0.00208902
0.0024539
0.0028797
0.00337092
0.00393174
0.00456599
0.00527692
0.00606716
0.0069387
0.00789294
0.00893066
0.0100534
0.0112582
0.0125347
0.0138769
0.0152806
0.0167378
0.0182374
0.0197685
0.0213147
0.0228584
0.0243839
0.0258773
0.0273246
0.0287155
0.0300392
0.0312902
0.0324682
0.0335901
0.0346411
0.0356256
0.0365286
0.037389
0.0381908
0.0390297
0.0398552
0.0408796
0.0419382
0.0435202
0.0451231
0.0479472
0.0504363
0.0554735
0.0575297
0.299055
0.154568
0.0853167
0.0493555
0.0287133
0.0163072
0.00906292
0.00512768
0.00308096
0.0020573
0.00157529
0.00140148
0.00140607
0.00152363
0.00172082
0.00198471
0.00230987
0.00269795
0.00315079
0.00367284
0.00426812
0.00494033
0.00569253
0.00652713
0.00744585
0.00844985
0.00953943
0.0107162
0.0119745
0.0133038
0.0146977
0.0161513
0.017656
0.0191991
0.0207656
0.0223395
0.0239042
0.0254433
0.0269427
0.0283879
0.0297684
0.0310727
0.0322934
0.0334249
0.0344796
0.0354475
0.0363358
0.0371321
0.0378753
0.0385505
0.0392506
0.039928
0.0407863
0.0416688
0.0430422
0.0444271
0.0469628
0.0491655
0.0537546
0.0555119
0.298442
0.154397
0.0857773
0.0505203
0.0304559
0.0181413
0.010569
0.00619616
0.00379682
0.00254146
0.00192013
0.00166889
0.00163668
0.00174317
0.00194377
0.0022204
0.00256434
0.00297629
0.00345704
0.00401088
0.00464162
0.00535273
0.00614706
0.0070267
0.0079931
0.00904718
0.0101887
0.0114195
0.0127297
0.0141105
0.0155541
0.0170555
0.0186047
0.0201845
0.0217809
0.0233781
0.0249589
0.0265065
0.0280061
0.0294432
0.030807
0.0320855
0.0332695
0.0343501
0.0353364
0.0362217
0.0370162
0.0377097
0.0383408
0.0388963
0.0394663
0.0400061
0.0407117
0.0414335
0.0426185
0.0438086
0.0460888
0.0480407
0.0522398
0.0537444
0.298046
0.154368
0.0861739
0.0514237
0.0319087
0.0198373
0.0121041
0.0073724
0.00462894
0.00312364
0.00234196
0.00199704
0.00191595
0.00200453
0.00220536
0.0024936
0.00285616
0.00329241
0.0038017
0.00438809
0.00505503
0.00580573
0.00664272
0.00756776
0.00858195
0.00968608
0.0108791
0.0121633
0.0135234
0.0149538
0.0164447
0.0179908
0.0195772
0.0211887
0.0228105
0.0244258
0.0260171
0.0275673
0.029061
0.0304836
0.031824
0.0330698
0.0342109
0.0352361
0.0361519
0.0369548
0.0376569
0.0382504
0.0387737
0.0392152
0.0396627
0.0400739
0.0406381
0.0412126
0.0422262
0.0432407
0.0452923
0.0470225
0.050878
0.0521672
0.2978
0.154442
0.0865317
0.0521173
0.0330784
0.0213459
0.0136122
0.00862634
0.00557088
0.00380893
0.00284944
0.00239439
0.00225212
0.0023142
0.00251089
0.00280898
0.00318959
0.00365029
0.00418851
0.00480794
0.00551155
0.00630221
0.00718207
0.0081525
0.00921422
0.010368
0.0116118
0.0129473
0.0143554
0.015833
0.0173674
0.0189512
0.0205702
0.0222084
0.0238501
0.0254779
0.0270736
0.0286198
0.0301009
0.0315021
0.032812
0.0340184
0.0351103
0.0360751
0.036918
0.0376378
0.0382483
0.038744
0.0391631
0.0394958
0.0398272
0.040118
0.0405508
0.0409896
0.0418462
0.0427017
0.044547
0.0460799
0.0496295
0.0507343
0.297654
0.154587
0.0868679
0.0526496
0.0339876
0.0226339
0.0150373
0.00991803
0.00660697
0.00459722
0.00344909
0.00286903
0.00265321
0.00267975
0.00286633
0.0031717
0.00356935
0.00405431
0.00462156
0.00527423
0.00601469
0.00684537
0.00776795
0.00878337
0.00989192
0.0110944
0.0123878
0.0137718
0.0152256
0.0167447
0.0183174
0.0199343
0.0215807
0.0232401
0.0248957
0.0265294
0.0281228
0.029658
0.0311191
0.0324915
0.0337637
0.0349236
0.0359599
0.0368594
0.0376266
0.0382621
0.0387814
0.0391811
0.0394991
0.0397273
0.0399488
0.0401265
0.0404368
0.0407504
0.041463
0.0421738
0.0438318
0.0451882
0.0484631
0.0494098
0.297576
0.154779
0.0871933
0.0530638
0.0346695
0.0236859
0.0163287
0.0112003
0.00771163
0.00548128
0.00414361
0.00342748
0.0031264
0.00310843
0.00327901
0.00358728
0.00400042
0.00450912
0.00510519
0.00579102
0.00656818
0.00743857
0.00840334
0.00946291
0.0106171
0.0118671
0.0132084
0.0146357
0.0161303
0.0176867
0.0192928
0.0209375
0.0226056
0.0242798
0.0259425
0.0275751
0.0291587
0.0306753
0.0321088
0.0334446
0.0346716
0.0357777
0.0367519
0.0375811
0.0382695
0.0388193
0.0392474
0.0395524
0.0397722
0.0399002
0.0400172
0.0400887
0.0402849
0.0404829
0.041063
0.0416421
0.0431293
0.0443273
0.0473538
0.0481655
0.297541
0.155
0.0875136
0.0533958
0.0351632
0.0245038
0.0174466
0.0124232
0.00884991
0.00644533
0.0049302
0.00407335
0.00367755
0.00360631
0.00375486
0.00406249
0.0044888
0.00501943
0.00564382
0.00636242
0.00717579
0.00808522
0.00909124
0.0101937
0.0113916
0.0126855
0.0140717
0.0155377
0.0170686
0.0186575
0.0202915
0.021958
0.0236413
0.0253233
0.0269858
0.0286095
0.0301754
0.0316651
0.0330628
0.034354
0.0355278
0.0365728
0.0374786
0.0382323
0.0388385
0.0393009
0.0396376
0.0398492
0.0399735
0.0400053
0.0400232
0.0399952
0.0400853
0.0401768
0.040635
0.0410943
0.0424252
0.0434811
0.0462818
0.046979
0.297533
0.155235
0.0878311
0.0536739
0.0355089
0.0251037
0.0183652
0.0135386
0.00997953
0.00746437
0.0057989
0.00480576
0.00430999
0.00417807
0.00429867
0.00460186
0.00503917
0.00559046
0.00624219
0.00699259
0.007841
0.00878797
0.00983337
0.0109764
0.0122154
0.0135502
0.0149766
0.0164769
0.0180393
0.0196551
0.0213108
0.0229925
0.0246837
0.0263659
0.0280201
0.0296266
0.0311661
0.0326204
0.0339736
0.0352118
0.0363245
0.0373009
0.0381317
0.0388049
0.0393255
0.0396987
0.0399438
0.0400632
0.0400946
0.0400342
0.0399584
0.0398373
0.0398291
0.0398229
0.0401693
0.0405199
0.0417076
0.0426361
0.0452308
0.045832
0.297542
0.155474
0.0881457
0.0539195
0.035745
0.0255123
0.0190741
0.0145056
0.0110544
0.00850471
0.00673139
0.00561772
0.00502314
0.00482596
0.00491364
0.00520875
0.00565487
0.00622545
0.00690339
0.00768437
0.00856634
0.009549
0.0106315
0.0118123
0.013089
0.0144615
0.0159225
0.0174523
0.0190404
0.0206768
0.0223472
0.0240367
0.025728
0.0274021
0.0290393
0.0306196
0.0321238
0.0335335
0.0348333
0.0360097
0.0370531
0.0379536
0.0387029
0.0392905
0.0397221
0.0400044
0.0401577
0.0401862
0.0401274
0.0399789
0.0398148
0.0396073
0.0395083
0.0394131
0.0396573
0.0399099
0.0409666
0.0417813
0.0441876
0.0447099
0.29756
0.155711
0.0884561
0.0541475
0.0359054
0.0257629
0.0195783
0.0152947
0.0120292
0.00952589
0.00770067
0.00649483
0.00581098
0.00554852
0.00560032
0.00588454
0.00633762
0.00692628
0.00762933
0.00843961
0.00935348
0.0103697
0.0114865
0.0127019
0.0140127
0.0154189
0.0169081
0.0184617
0.0200692
0.0217192
0.0233968
0.025086
0.0267688
0.0284257
0.0300366
0.0315813
0.0330405
0.0343962
0.0356333
0.0367391
0.037705
0.0385221
0.0391836
0.0396807
0.0400201
0.0402098
0.0402713
0.0402104
0.0400643
0.0398321
0.0395852
0.039298
0.0391161
0.0389404
0.039092
0.0392567
0.040194
0.0409076
0.0431416
0.0436009
0.297582
0.15594
0.0887603
0.0543679
0.0360181
0.025891
0.0198952
0.0158901
0.0128641
0.0104839
0.00867186
0.00741446
0.00666079
0.00633927
0.00635555
0.00662767
0.00708672
0.00769277
0.00842017
0.0092586
0.0102027
0.01125
0.0123983
0.0136445
0.0149852
0.0164206
0.017931
0.019502
0.0211217
0.0227777
0.0244541
0.0261342
0.0277994
0.0294295
0.0310043
0.0325035
0.0339077
0.0351996
0.0363646
0.0373909
0.0382709
0.0389974
0.039565
0.039967
0.0402112
0.040307
0.0402769
0.0401283
0.0398982
0.0395869
0.0392629
0.038903
0.0386459
0.0383986
0.0384669
0.038554
0.0393827
0.0400076
0.042084
0.0424952
0.297606
0.156158
0.0890563
0.0545863
0.0361054
0.0259309
0.0200517
0.0162907
0.0135291
0.0113357
0.00960431
0.00834595
0.00755219
0.00718545
0.00717119
0.00743259
0.0078981
0.00852182
0.00927348
0.0101393
0.0111121
0.0121883
0.0133648
0.014638
0.0160039
0.0174618
0.0189875
0.0205687
0.022193
0.0238465
0.0255128
0.0271745
0.0288121
0.0304055
0.0319338
0.033377
0.0347161
0.035934
0.0370173
0.0379552
0.0387414
0.0393701
0.0398381
0.0401407
0.0402869
0.0402879
0.0401668
0.0399328
0.0396222
0.0392367
0.038842
0.0384166
0.0380925
0.0377824
0.0377767
0.0377964
0.038527
0.0390749
0.0410075
0.0413847
0.297629
0.156365
0.0893421
0.0548054
0.0361835
0.0259137
0.0200797
0.0165088
0.0140072
0.0120434
0.010455
0.0092519
0.00845697
0.00806714
0.00803306
0.00828868
0.00876332
0.00940649
0.0101834
0.0110768
0.0120773
0.0131803
0.014382
0.0156781
0.0170644
0.0185376
0.0200718
0.0216557
0.0232761
0.0249182
0.026565
0.0281982
0.0297981
0.0313439
0.0328152
0.0341917
0.0354551
0.0365891
0.0375812
0.0384219
0.0391063
0.0396307
0.0399936
0.0401929
0.0402392
0.0401448
0.0399338
0.039617
0.0392301
0.0387759
0.0383169
0.0378337
0.0374508
0.0370871
0.037017
0.0369792
0.0376223
0.0381047
0.0399064
0.040263
0.29765
0.156558
0.0896164
0.0550259
0.0362633
0.0258655
0.020013
0.0165674
0.0142957
0.012579
0.011183
0.0100908
0.00933999
0.00895698
0.00892018
0.00917929
0.0096686
0.010335
0.0111399
0.0120622
0.0130904
0.0142187
0.0154427
0.0167577
0.0181597
0.0196408
0.0211762
0.0227548
0.0243625
0.0259837
0.027601
0.0291953
0.0307466
0.0322341
0.0336373
0.0349363
0.0361135
0.0371535
0.038045
0.03878
0.0393552
0.039769
0.0400222
0.040115
0.0400597
0.0398701
0.039571
0.0391747
0.0387161
0.0381991
0.0376828
0.0371498
0.0367169
0.036309
0.0361839
0.0360989
0.0366648
0.0370929
0.0387763
0.0391248
0.297669
0.156739
0.0898782
0.0552472
0.0363517
0.0258068
0.0198836
0.0164965
0.0144053
0.0129273
0.0117536
0.0108207
0.0101612
0.00982085
0.00980456
0.0100812
0.0105941
0.0112901
0.0121275
0.0130816
0.0141388
0.0152921
0.0165364
0.0178667
0.0192801
0.0207611
0.0222904
0.0238553
0.0254411
0.0270317
0.028609
0.0301537
0.0316455
0.0330635
0.0343875
0.0355983
0.0366789
0.037615
0.0383968
0.0390181
0.0394773
0.039775
0.0399144
0.0398983
0.0397406
0.0394566
0.039072
0.0386
0.038075
0.0375017
0.0369357
0.0363613
0.0358874
0.0354448
0.0352748
0.0351528
0.0356516
0.0360365
0.0376134
0.0379661
0.297685
0.156907
0.090127
0.0554679
0.036452
0.0257525
0.01972
0.0163292
0.0143582
0.0130875
0.0121429
0.0114039
0.0108789
0.0106196
0.0106519
0.0109647
0.0115135
0.0122482
0.0131249
0.0141159
0.0152052
0.0163844
0.017648
0.0189908
0.0204098
0.0218852
0.0234009
0.0249437
0.0264984
0.0280484
0.0295753
0.0310596
0.0324807
0.0338182
0.0350521
0.0361639
0.0371376
0.0379606
0.0386243
0.0391244
0.0394615
0.0396384
0.0396608
0.0395343
0.0392743
0.0388978
0.0384308
0.037888
0.0373026
0.0366801
0.0360724
0.0354654
0.0349599
0.0344925
0.0342875
0.0341387
0.0345807
0.0349332
0.0364154
0.0367836
0.297699
0.157063
0.0903628
0.0556866
0.036565
0.0257125
0.0195453
0.0160983
0.014184
0.013072
0.0123405
0.0118107
0.0114539
0.011312
0.0114231
0.011794
0.0123944
0.0131793
0.0141047
0.0151398
0.0162662
0.0174741
0.0187576
0.0201112
0.0215311
0.0229955
0.0244907
0.0260033
0.0275178
0.0290174
0.0304835
0.0318965
0.0332362
0.0344822
0.0356153
0.0366179
0.0374753
0.0381763
0.0387141
0.0390866
0.0392964
0.0393489
0.0392523
0.0390148
0.0386538
0.0381875
0.0376425
0.0370344
0.0363953
0.0357313
0.0350905
0.0344601
0.0339327
0.0334507
0.0332207
0.0330556
0.0334509
0.0337818
0.0351804
0.035575
0.297711
0.157208
0.0905856
0.0559017
0.0366898
0.0256928
0.0193773
0.0158336
0.0139166
0.0129049
0.0123502
0.0120241
0.0118537
0.0118585
0.0120772
0.0125296
0.0131991
0.014048
0.0150332
0.0161218
0.0172924
0.0185338
0.0198395
0.0212039
0.0226213
0.0240703
0.0255389
0.0270137
0.0284795
0.0299193
0.0313147
0.0326461
0.0338938
0.0350379
0.0360602
0.0369441
0.0376763
0.0382474
0.0386527
0.0388921
0.0389708
0.0388964
0.03868
0.0383325
0.0378728
0.0373207
0.0367028
0.0360359
0.0353506
0.0346536
0.0339887
0.0333447
0.0328053
0.0323189
0.0320743
0.0319032
0.032262
0.0325816
0.0339076
0.0343388
0.29772
0.157344
0.0907961
0.056112
0.0368249
0.0256956
0.0192285
0.0155604
0.0135897
0.0126178
0.0121894
0.0120412
0.0120572
0.0122256
0.012575
0.0131304
0.0138867
0.0148139
0.0158715
0.0170243
0.0182483
0.0195301
0.0208624
0.0222394
0.0236528
0.0250835
0.0265205
0.027951
0.0293602
0.0307316
0.0320469
0.0332872
0.0344332
0.035466
0.0363682
0.0371248
0.0377242
0.0381588
0.0384262
0.0385286
0.0384735
0.0382715
0.037936
0.0374807
0.036926
0.0362932
0.0356089
0.0348906
0.0341675
0.0334464
0.032767
0.0321193
0.0315782
0.0310978
0.0308488
0.030682
0.0310144
0.0313329
0.0325968
0.0330742
0.297728
0.15747
0.0909948
0.0563164
0.0369679
0.0257209
0.0191063
0.0152979
0.0132342
0.012246
0.0118865
0.0118737
0.0120569
0.0123902
0.0128832
0.0135579
0.014416
0.015435
0.016577
0.0178055
0.0190932
0.0204241
0.0217893
0.0231827
0.024593
0.0260039
0.0274058
0.0287869
0.0301332
0.0314286
0.0326558
0.0337965
0.0348322
0.0357452
0.0365195
0.0371417
0.037602
0.037895
0.0380206
0.0379837
0.0377942
0.0374653
0.0370131
0.0364538
0.0358095
0.0351024
0.0343594
0.0335982
0.0328462
0.0321107
0.0314268
0.0307856
0.0302531
0.029789
0.0295459
0.0293935
0.0297095
0.0300367
0.0312489
0.0317811
0.297734
0.157588
0.0911825
0.0565142
0.0371165
0.0257672
0.0190146
0.01506
0.0128763
0.0118246
0.0114764
0.0115463
0.0118608
0.0123431
0.0129788
0.01378
0.0147495
0.0158699
0.0171062
0.0184207
0.0197826
0.0211721
0.0225782
0.0239939
0.0254039
0.0267958
0.0281612
0.0294896
0.0307681
0.0319818
0.0331144
0.0341484
0.0350669
0.0358533
0.0364934
0.0369756
0.0372923
0.0374405
0.0374226
0.0372459
0.0369232
0.0364703
0.0359057
0.0352482
0.0345211
0.0337477
0.0329546
0.0321599
0.031389
0.0306492
0.029971
0.0293467
0.0288331
0.0283956
0.0281685
0.0280404
0.0283496
0.0286949
0.0298653
0.0304603
0.297738
0.157698
0.0913601
0.0567051
0.0372685
0.0258319
0.0189538
0.0148553
0.0125361
0.0113852
0.0109968
0.0110933
0.0114911
0.0120902
0.0128527
0.0137753
0.014857
0.0160822
0.0174182
0.018826
0.0202707
0.0217281
0.0231838
0.0246288
0.026044
0.0274197
0.0287493
0.0300238
0.0312319
0.03236
0.0333931
0.0343156
0.0351116
0.0357667
0.0362683
0.0366072
0.036778
0.0367804
0.0366194
0.036305
0.0358527
0.0352807
0.0346102
0.033862
0.0330608
0.0322306
0.0313975
0.0305796
0.0298003
0.0290666
0.0284047
0.0278075
0.027323
0.026922
0.0267206
0.0266262
0.026938
0.0273102
0.0284482
0.0291129
0.297742
0.157802
0.0915283
0.0568889
0.037422
0.0259118
0.0189226
0.0146879
0.0122277
0.0109541
0.0104839
0.0105539
0.0109814
0.0116532
0.0125116
0.013537
0.0147203
0.0160449
0.0174788
0.0189814
0.0205137
0.0220461
0.0235594
0.0250415
0.0264686
0.0278331
0.0291298
0.0303516
0.0314888
0.0325298
0.0334613
0.0342695
0.0349404
0.0354617
0.0358232
0.0360178
0.036043
0.0359012
0.0356001
0.0351526
0.0345767
0.0338932
0.0331254
0.0322963
0.0314314
0.0305553
0.0296934
0.0288635
0.0280869
0.0273702
0.0267349
0.0261749
0.0257293
0.0253742
0.0252078
0.0251559
0.0254791
0.0258862
0.0270008
0.0277412
0.297744
0.157901
0.091688
0.0570655
0.0375754
0.0260039
0.0189181
0.0145588
0.0119598
0.0105511
0.00996929
0.00996794
0.0103725
0.011066
0.0119781
0.0130745
0.0143367
0.0157443
0.0172648
0.0188559
0.0204745
0.0220845
0.0236606
0.0251864
0.026633
0.0279927
0.0292614
0.0304339
0.0315024
0.0324573
0.0332876
0.0339814
0.0345274
0.0349153
0.0351376
0.03519
0.0350729
0.0347914
0.0343562
0.033783
0.0330924
0.0323075
0.0314536
0.0305554
0.0296392
0.0287296
0.0278512
0.0270213
0.0262588
0.0255698
0.0249713
0.0244581
0.0240605
0.0237599
0.0236371
0.0236355
0.0239784
0.0244277
0.025527
0.0263479
0.297746
0.157994
0.09184
0.0572353
0.0377274
0.0261053
0.0189368
0.0144663
0.0117363
0.0101894
0.00947816
0.00937169
0.00970738
0.0103714
0.0112884
0.0124139
0.0137206
0.0151834
0.0167685
0.018432
0.0201267
0.0218099
0.0234495
0.0250226
0.0264952
0.0278568
0.0291039
0.0302325
0.0312368
0.0321094
0.0328416
0.0334241
0.0338481
0.0341062
0.0341936
0.0341091
0.033856
0.0334427
0.0328827
0.0321945
0.031401
0.0305276
0.0296013
0.028648
0.0276945
0.0267653
0.0258836
0.0250661
0.0243292
0.0236784
0.0231264
0.0226687
0.0223274
0.0220888
0.0220172
0.0220727
0.0224426
0.0229401
0.0240317
0.0249366
0.297747
0.158082
0.0919851
0.0573984
0.0378771
0.0262134
0.0189749
0.0144073
0.0115575
0.00987664
0.00902855
0.00879532
0.00902647
0.00961564
0.0104882
0.0115953
0.0129034
0.0143836
0.0160006
0.0177095
0.0194598
0.021203
0.022899
0.0245179
0.0260201
0.0273893
0.0286214
0.0297127
0.0306593
0.0314558
0.032096
0.0325732
0.0328815
0.0330166
0.0329769
0.0327643
0.0323853
0.0318515
0.0311793
0.03039
0.0295087
0.0285626
0.02758
0.0265879
0.0256128
0.0246789
0.0238079
0.0230155
0.0223154
0.0217127
0.0212159
0.0208212
0.0205431
0.0203727
0.0203584
0.0204765
0.0208798
0.0214302
0.0225205
0.0235115
0.297748
0.158167
0.092124
0.0575554
0.038024
0.0263259
0.0190287
0.0143775
0.0114212
0.0096154
0.0086316
0.00826127
0.00836431
0.00884298
0.00962741
0.0106687
0.0119312
0.0133839
0.0149911
0.0167082
0.018483
0.0202623
0.0219987
0.0236543
0.0251843
0.0265637
0.027786
0.0288471
0.0297437
0.0304723
0.0310289
0.0314098
0.0316121
0.0316345
0.0314789
0.0311506
0.0306596
0.0300203
0.0292522
0.0283791
0.0274281
0.0264278
0.0254075
0.0243946
0.0234152
0.0224924
0.0216464
0.0208914
0.020239
0.0196932
0.0192589
0.0189331
0.0187236
0.0186258
0.0186735
0.0188579
0.0192992
0.0199059
0.0210004
0.0220778
0.297749
0.158249
0.0922575
0.0577065
0.0381675
0.0264411
0.0190949
0.0143727
0.0113234
0.00940479
0.00829252
0.00778418
0.00774731
0.00809184
0.00875401
0.00968814
0.0108595
0.0122377
0.0137884
0.0154689
0.0172275
0.0190085
0.0207587
0.0224327
0.023981
0.0253681
0.0265829
0.0276192
0.0284737
0.0291437
0.0296273
0.0299235
0.0300322
0.0299556
0.029699
0.0292713
0.0286855
0.0279594
0.0271153
0.026179
0.0251794
0.0241461
0.0231088
0.0220948
0.0211292
0.0202338
0.0194269
0.0187212
0.0181259
0.0176443
0.0172782
0.0170253
0.0168876
0.0168645
0.0169767
0.0172292
0.0177119
0.0183762
0.0194791
0.0206415
0.297749
0.158328
0.0923862
0.0578524
0.0383075
0.0265575
0.0191704
0.0143885
0.0112595
0.00924138
0.00801179
0.0073716
0.00719313
0.00739192
0.00790978
0.00870542