/*--------------------------------*- C++ -*----------------------------------*\
| =========                 |                                                 |
| \\      /  F ield         | OpenFOAM: The Open Source CFD Toolbox           |
|  \\    /   O peration     | Version:  2.4.0                                 |
|   \\  /    A nd           | Web:      www.OpenFOAM.org                      |
|    \\/     M anipulation  |                                                 |
\*---------------------------------------------------------------------------*/
FoamFile
{
    version     2.0;
    format      ascii;
    class       volScalarField;
    location    "7.4";
    object      p;
}
// * * * * * * * * * * * * * * * * * * * * * * * * * * * * * * * * * * * * * //

dimensions      [0 2 -2 0 0 0 0];

internalField   nonuniform List<scalar> 
5625
(
0.0261606
0.206986
0.227806
0.252396
0.261106
0.269234
0.273537
0.277338
0.279831
0.281998
0.283615
0.285023
0.286164
0.287167
0.288026
0.288791
0.289471
0.290086
0.290647
0.291162
0.291642
0.292089
0.292514
0.292914
0.293301
0.293671
0.294034
0.294384
0.294734
0.295073
0.295416
0.295751
0.296093
0.296428
0.296777
0.297122
0.297491
0.297865
0.298282
0.298716
0.299219
0.299748
0.300366
0.300993
0.301705
0.302373
0.303096
0.303715
0.304407
0.305029
0.305961
0.30708
0.308996
0.311407
0.315033
0.319192
0.32473
0.330355
0.337357
0.343216
0.350767
0.35481
0.36125
0.361447
0.364106
0.358793
0.355008
0.341976
0.329641
0.305896
0.282528
0.243146
0.204301
0.137801
0.0740266
0.0541262
0.207921
0.227985
0.252179
0.260942
0.26909
0.273426
0.277247
0.279756
0.281935
0.283561
0.284976
0.286123
0.287131
0.287993
0.288762
0.289445
0.290063
0.290626
0.291143
0.291626
0.292075
0.292501
0.292903
0.293292
0.293663
0.294027
0.294379
0.294729
0.29507
0.295414
0.29575
0.296093
0.29643
0.29678
0.297126
0.297498
0.297873
0.298291
0.298726
0.299231
0.299761
0.30038
0.301009
0.301725
0.3024
0.303133
0.303766
0.304474
0.305114
0.306062
0.307197
0.309123
0.311544
0.315177
0.319327
0.324863
0.33048
0.337436
0.343273
0.350756
0.354761
0.361117
0.361267
0.363816
0.358391
0.354458
0.341274
0.328754
0.304861
0.281262
0.241764
0.20258
0.13586
0.0711046
0.0752078
0.20846
0.228264
0.252134
0.26087
0.269003
0.273353
0.277179
0.279701
0.281886
0.28352
0.284941
0.286093
0.287105
0.287972
0.288744
0.289429
0.290049
0.290614
0.291133
0.291617
0.292066
0.292494
0.292897
0.293286
0.293658
0.294023
0.294375
0.294726
0.295067
0.295412
0.295749
0.296093
0.296431
0.296782
0.29713
0.297502
0.297878
0.298297
0.298732
0.299237
0.299767
0.300387
0.301018
0.301738
0.302419
0.303161
0.303804
0.304524
0.305173
0.306126
0.307259
0.309182
0.311596
0.315224
0.319392
0.324917
0.330528
0.337488
0.343301
0.350772
0.354728
0.361041
0.361118
0.363605
0.358096
0.354075
0.34079
0.328153
0.304114
0.280351
0.240597
0.201147
0.134065
0.0687347
0.0887805
0.208909
0.228587
0.252141
0.260848
0.268952
0.273304
0.277133
0.279659
0.281849
0.283488
0.284912
0.286068
0.287083
0.287951
0.288725
0.289413
0.290034
0.290601
0.291121
0.291606
0.292057
0.292486
0.292889
0.29328
0.293652
0.294018
0.294371
0.294722
0.295064
0.29541
0.295747
0.296092
0.296431
0.296783
0.297132
0.297505
0.29788
0.2983
0.298735
0.29924
0.299769
0.300391
0.301025
0.30175
0.302437
0.30319
0.303841
0.30457
0.305217
0.306167
0.307288
0.309205
0.311609
0.315237
0.319412
0.324947
0.330558
0.337523
0.343323
0.350787
0.354702
0.360993
0.360999
0.363425
0.357826
0.353715
0.340317
0.327557
0.303378
0.279452
0.239525
0.199825
0.132573
0.0666769
0.0990678
0.209476
0.228945
0.252178
0.260866
0.268923
0.273272
0.277097
0.279625
0.281818
0.283459
0.284887
0.286045
0.287062
0.287933
0.288709
0.289398
0.290021
0.290589
0.291111
0.291597
0.292048
0.292478
0.292882
0.293273
0.293646
0.294012
0.294366
0.294718
0.29506
0.295407
0.295745
0.296091
0.29643
0.296783
0.297132
0.297506
0.297881
0.298301
0.298734
0.299239
0.299768
0.300392
0.301028
0.301761
0.302456
0.30322
0.303878
0.304611
0.305249
0.306188
0.307284
0.309192
0.311581
0.31523
0.319396
0.324945
0.330562
0.337536
0.34333
0.350791
0.354672
0.360933
0.360877
0.363239
0.357548
0.353339
0.339826
0.326941
0.302621
0.278538
0.238442
0.198506
0.131138
0.0647411
0.107945
0.210109
0.229324
0.252241
0.260916
0.268917
0.273257
0.277072
0.279601
0.281793
0.283436
0.284865
0.286025
0.287044
0.287917
0.288694
0.289384
0.290009
0.290578
0.2911
0.291587
0.29204
0.29247
0.292875
0.293266
0.29364
0.294007
0.29436
0.294713
0.295056
0.295403
0.295741
0.296089
0.296428
0.296782
0.297131
0.297505
0.297879
0.298299
0.29873
0.299235
0.299763
0.30039
0.301029
0.301771
0.302475
0.303252
0.303913
0.304648
0.305265
0.306184
0.307246
0.30914
0.311512
0.315172
0.319344
0.324911
0.33054
0.337525
0.343317
0.350777
0.354624
0.360852
0.360736
0.363031
0.357248
0.35294
0.339309
0.326303
0.301841
0.277611
0.237346
0.197194
0.129762
0.0629289
0.115875
0.210742
0.229711
0.252316
0.260991
0.268931
0.273258
0.27706
0.279585
0.281775
0.283418
0.284847
0.286008
0.287028
0.287902
0.28868
0.289372
0.289997
0.290568
0.291091
0.291578
0.292032
0.292462
0.292867
0.29326
0.293633
0.294001
0.294354
0.294708
0.295051
0.295399
0.295737
0.296086
0.296425
0.296781
0.297129
0.297503
0.297876
0.298294
0.298723
0.299227
0.299753
0.300384
0.301028
0.301781
0.302494
0.303285
0.303948
0.304679
0.305266
0.306157
0.307175
0.309053
0.311407
0.315079
0.319263
0.32485
0.330495
0.33749
0.343282
0.350744
0.354546
0.360746
0.360567
0.36279
0.356915
0.352507
0.338757
0.325635
0.301028
0.276663
0.236234
0.195886
0.128446
0.0612354
0.123068
0.211363
0.230096
0.252392
0.261084
0.268961
0.273276
0.277059
0.279579
0.281764
0.283406
0.284834
0.285995
0.287015
0.28789
0.288669
0.289361
0.289987
0.290558
0.291082
0.29157
0.292024
0.292455
0.29286
0.293253
0.293626
0.293994
0.294348
0.294702
0.295045
0.295394
0.295733
0.296082
0.296422
0.296778
0.297125
0.297499
0.297869
0.298287
0.298712
0.299216
0.29974
0.300375
0.301023
0.30179
0.302514
0.303321
0.303982
0.304706
0.305253
0.306109
0.307078
0.308939
0.311275
0.314964
0.319161
0.32477
0.330432
0.337436
0.343223
0.350678
0.35445
0.36061
0.360363
0.362511
0.356541
0.352033
0.338161
0.324928
0.300175
0.275686
0.235102
0.194574
0.12718
0.0596461
0.129736
0.21199
0.230475
0.252461
0.261188
0.269004
0.273307
0.277069
0.279581
0.281759
0.283398
0.284824
0.285985
0.287005
0.28788
0.288659
0.289352
0.289978
0.29055
0.291074
0.291562
0.292016
0.292448
0.292853
0.293246
0.293619
0.293988
0.294341
0.294696
0.295039
0.295388
0.295727
0.296078
0.296417
0.296774
0.29712
0.297494
0.297861
0.298277
0.298697
0.2992
0.299722
0.300362
0.301016
0.301798
0.302534
0.303358
0.304016
0.304727
0.305228
0.306044
0.306961
0.308807
0.31114
0.314837
0.319048
0.324676
0.330354
0.337365
0.343145
0.350589
0.354321
0.360438
0.360121
0.362187
0.356121
0.351511
0.337515
0.324177
0.299278
0.274675
0.233948
0.193254
0.125957
0.0581491
0.136047
0.212649
0.23085
0.252516
0.261296
0.269056
0.273351
0.277088
0.279592
0.281761
0.283396
0.284819
0.285978
0.286997
0.287872
0.288651
0.289344
0.28997
0.290542
0.291066
0.291555
0.292009
0.292441
0.292846
0.293239
0.293612
0.293981
0.294334
0.294689
0.295032
0.295383
0.295722
0.296073
0.296412
0.296769
0.297114
0.297487
0.297851
0.298264
0.298679
0.29918
0.299699
0.300346
0.301006
0.301807
0.302556
0.303398
0.304049
0.304746
0.305195
0.30597
0.306835
0.308664
0.310992
0.314705
0.31893
0.324577
0.330266
0.337284
0.343047
0.350476
0.35416
0.360228
0.359839
0.361816
0.355651
0.350938
0.336817
0.323379
0.298337
0.273629
0.232771
0.191923
0.124771
0.0567355
0.142098
0.213363
0.231227
0.252558
0.261402
0.269112
0.273404
0.277117
0.279611
0.281769
0.2834
0.284818
0.285975
0.286992
0.287866
0.288644
0.289337
0.289963
0.290536
0.29106
0.291549
0.292002
0.292434
0.292839
0.293232
0.293605
0.293974
0.294327
0.294683
0.295025
0.295376
0.295715
0.296067
0.296406
0.296764
0.297107
0.297479
0.297838
0.298248
0.298657
0.299157
0.299673
0.300327
0.300993
0.301815
0.302577
0.303439
0.304082
0.304762
0.305157
0.305892
0.306707
0.308519
0.310846
0.314577
0.318816
0.324477
0.33017
0.337191
0.342933
0.350341
0.35397
0.35998
0.359515
0.361396
0.35513
0.350312
0.336067
0.322531
0.297352
0.272545
0.231574
0.19058
0.123616
0.0553985
0.147939
0.214153
0.231617
0.252586
0.261501
0.269168
0.273463
0.277153
0.279638
0.281784
0.283409
0.284822
0.285976
0.286991
0.287863
0.28864
0.289333
0.289958
0.29053
0.291054
0.291543
0.291997
0.292428
0.292833
0.293226
0.293599
0.293967
0.29432
0.294676
0.295018
0.29537
0.295709
0.296062
0.2964
0.296758
0.297099
0.29747
0.297824
0.298231
0.298633
0.299131
0.299643
0.300305
0.300978
0.301821
0.302599
0.30348
0.304115
0.304779
0.30512
0.305816
0.306587
0.308415
0.310714
0.314458
0.318708
0.324382
0.330072
0.33709
0.342801
0.350184
0.353751
0.359693
0.35915
0.360925
0.354559
0.349632
0.335265
0.321634
0.296324
0.271424
0.230357
0.189226
0.12249
0.0541325
0.153591
0.215034
0.232031
0.252605
0.26159
0.269221
0.273527
0.277195
0.279671
0.281805
0.283422
0.284829
0.28598
0.286992
0.287862
0.288638
0.28933
0.289954
0.290526
0.29105
0.291539
0.291991
0.292423
0.292827
0.29322
0.293592
0.293961
0.294313
0.294669
0.295011
0.295363
0.295701
0.296056
0.296393
0.296752
0.29709
0.29746
0.297808
0.298212
0.298605
0.299102
0.299609
0.300279
0.30096
0.301826
0.302619
0.303522
0.304147
0.304796
0.305087
0.305749
0.306481
0.308296
0.310599
0.314356
0.31861
0.324292
0.329975
0.336985
0.342654
0.350006
0.353505
0.359367
0.358743
0.360403
0.353938
0.348897
0.334412
0.320687
0.295257
0.270266
0.229124
0.187862
0.12139
0.0529332
0.159066
0.216015
0.232484
0.252623
0.261669
0.269266
0.273592
0.277241
0.279711
0.281831
0.283442
0.284841
0.285988
0.286996
0.287864
0.288638
0.289328
0.289952
0.290524
0.291046
0.291535
0.291987
0.292419
0.292822
0.293215
0.293585
0.293954
0.294305
0.294662
0.295003
0.295356
0.295694
0.29605
0.296386
0.296746
0.297081
0.297449
0.297791
0.298191
0.298575
0.29907
0.299571
0.30025
0.300938
0.301829
0.302637
0.303562
0.30418
0.304815
0.305062
0.305694
0.306393
0.308202
0.310505
0.314272
0.318527
0.324212
0.329876
0.336877
0.342493
0.349806
0.35323
0.359
0.358296
0.359829
0.353266
0.348109
0.333511
0.319692
0.294152
0.269073
0.227877
0.18649
0.120315
0.0517973
0.16437
0.217101
0.232986
0.252648
0.261737
0.269303
0.273655
0.27729
0.279755
0.281862
0.283466
0.284858
0.285999
0.287003
0.287869
0.28864
0.289329
0.289952
0.290522
0.291044
0.291532
0.291983
0.292415
0.292817
0.293209
0.293579
0.293948
0.294298
0.294655
0.294995
0.295349
0.295686
0.296043
0.296379
0.296739
0.297071
0.297438
0.297773
0.29817
0.298544
0.299036
0.299531
0.300218
0.300913
0.301828
0.302652
0.303599
0.304211
0.304837
0.305046
0.305655
0.306334
0.308136
0.310434
0.314207
0.318459
0.324143
0.329778
0.336766
0.342319
0.349584
0.352929
0.358594
0.357808
0.359205
0.352546
0.347266
0.332561
0.318649
0.293011
0.267847
0.226618
0.185115
0.119264
0.0507217
0.169507
0.218288
0.233545
0.252689
0.261798
0.26933
0.273715
0.277339
0.279803
0.281898
0.283495
0.284878
0.286015
0.287013
0.287876
0.288644
0.289332
0.289953
0.290523
0.291043
0.291531
0.291981
0.292412
0.292813
0.293205
0.293574
0.293942
0.294291
0.294648
0.294988
0.295342
0.295679
0.296037
0.296371
0.296732
0.297061
0.297427
0.297754
0.298148
0.298512
0.299001
0.299489
0.300184
0.300884
0.301824
0.302661
0.303631
0.30424
0.30486
0.30504
0.305633
0.306291
0.308095
0.310389
0.314165
0.318405
0.324086
0.329683
0.336653
0.342132
0.34934
0.352601
0.358148
0.357279
0.35853
0.351777
0.346371
0.331566
0.317561
0.291839
0.266592
0.225349
0.183738
0.118237
0.0497042
0.174483
0.21957
0.234167
0.252756
0.261855
0.269349
0.27377
0.277388
0.279854
0.281938
0.283528
0.284903
0.286034
0.287027
0.287886
0.288651
0.289337
0.289955
0.290524
0.291043
0.29153
0.291979
0.292409
0.292809
0.293201
0.293568
0.293937
0.294284
0.294641
0.29498
0.295336
0.295671
0.29603
0.296363
0.296725
0.29705
0.297416
0.297736
0.298126
0.298479
0.298965
0.299445
0.300148
0.300852
0.301814
0.302665
0.303658
0.304265
0.304886
0.305044
0.305631
0.306274
0.308078
0.310368
0.314144
0.318367
0.324041
0.32959
0.336537
0.341935
0.349075
0.352246
0.357663
0.356709
0.357804
0.35096
0.345426
0.330528
0.316429
0.290636
0.26531
0.224075
0.182364
0.117233
0.0487423
0.179303
0.220939
0.234856
0.252857
0.261914
0.269361
0.27382
0.277434
0.279907
0.281981
0.283566
0.284932
0.286057
0.287044
0.287899
0.288661
0.289344
0.28996
0.290527
0.291045
0.291531
0.291978
0.292408
0.292807
0.293198
0.293564
0.293932
0.294278
0.294635
0.294972
0.295329
0.295663
0.296024
0.296355
0.296719
0.29704
0.297405
0.297718
0.298104
0.298446
0.298931
0.299401
0.30011
0.300816
0.301799
0.302662
0.303677
0.304286
0.304912
0.305058
0.305643
0.306281
0.308086
0.31037
0.314146
0.318345
0.324008
0.329501
0.336417
0.341726
0.348787
0.351864
0.357138
0.356099
0.35703
0.350097
0.344431
0.329448
0.315258
0.289407
0.264005
0.222797
0.180996
0.116253
0.047834
0.183972
0.222383
0.235612
0.252998
0.261981
0.269369
0.273865
0.277479
0.27996
0.282028
0.283608
0.284965
0.286084
0.287065
0.287916
0.288673
0.289353
0.289967
0.290532
0.291048
0.291533
0.291979
0.292408
0.292805
0.293196
0.29356
0.293927
0.294272
0.294629
0.294965
0.295322
0.295655
0.296017
0.296347
0.296712
0.29703
0.297395
0.2977
0.298084
0.298415
0.298897
0.299358
0.300072
0.300778
0.30178
0.302652
0.303689
0.3043
0.304937
0.305081
0.30567
0.306308
0.308119
0.310395
0.314168
0.318339
0.323987
0.329416
0.336295
0.341506
0.348477
0.351456
0.356574
0.355448
0.356208
0.349189
0.343389
0.328329
0.314049
0.288154
0.262681
0.221518
0.179638
0.115296
0.0469774
0.188497
0.22389
0.236431
0.253185
0.26206
0.269376
0.273905
0.277521
0.280015
0.282077
0.283654
0.285002
0.286116
0.28709
0.287935
0.288688
0.289365
0.289976
0.290539
0.291052
0.291537
0.291981
0.292409
0.292804
0.293194
0.293557
0.293924
0.294267
0.294624
0.294958
0.295316
0.295647
0.296011
0.296339
0.296706
0.29702
0.297386
0.297684
0.298066
0.298387
0.298866
0.299318
0.300036
0.30074
0.301757
0.302637
0.303693
0.304311
0.30496
0.30511
0.305712
0.306355
0.308174
0.310442
0.314211
0.318349
0.323978
0.329335
0.336169
0.341277
0.348144
0.351021
0.355971
0.354758
0.35534
0.348238
0.342303
0.327174
0.312806
0.286881
0.261341
0.220241
0.178294
0.114363
0.0461705
0.192886
0.225452
0.237309
0.25342
0.262158
0.269389
0.273944
0.277562
0.280071
0.282129
0.283705
0.285045
0.286152
0.287119
0.287959
0.288707
0.28938
0.289987
0.290548
0.291059
0.291542
0.291984
0.292411
0.292804
0.293194
0.293554
0.293921
0.294262
0.29462
0.294952
0.295311
0.29564
0.296006
0.296331
0.2967
0.297011
0.297378
0.297669
0.298051
0.298361
0.29884
0.29928
0.300003
0.300702
0.301733
0.302616
0.303689
0.304315
0.304983
0.305145
0.305768
0.30642
0.30825
0.31051
0.314275
0.318375
0.323981
0.32926
0.336039
0.341037
0.347788
0.35056
0.355331
0.354029
0.354428
0.347246
0.341175
0.325985
0.311533
0.285591
0.25999
0.21897
0.176966
0.113456
0.0454113
0.197145
0.227056
0.238242
0.253704
0.262277
0.26941
0.273984
0.277604
0.280129
0.282186
0.28376
0.285093
0.286194
0.287153
0.287988
0.288729
0.289399
0.290001
0.29056
0.291068
0.291549
0.291989
0.292415
0.292806
0.293195
0.293553
0.29392
0.294259
0.294616
0.294946
0.295306
0.295633
0.296
0.296324
0.296695
0.297002
0.297371
0.297656
0.298038
0.298339
0.298817
0.299248
0.299974
0.300668
0.301708
0.302593
0.30368
0.304315
0.305004
0.305186
0.305835
0.306502
0.308347
0.3106
0.314359
0.318417
0.323995
0.329189
0.335905
0.340787
0.34741
0.350072
0.354654
0.353262
0.353474
0.346214
0.340008
0.324767
0.310233
0.284286
0.258631
0.217706
0.175658
0.112573
0.0446981
0.201282
0.228697
0.239224
0.254036
0.262423
0.269443
0.274029
0.277648
0.28019
0.282247
0.283823
0.285148
0.286243
0.287194
0.288022
0.288757
0.289422
0.29002
0.290576
0.29108
0.291559
0.291996
0.292421
0.29281
0.293198
0.293554
0.29392
0.294257
0.294614
0.294942
0.295302
0.295627
0.295996
0.296317
0.296691
0.296995
0.297366
0.297646
0.298029
0.298322
0.298801
0.299224
0.299951
0.30064
0.301685
0.30257
0.303669
0.304313
0.305027
0.305232
0.305914
0.306602
0.308464
0.31071
0.314463
0.318476
0.324021
0.329125
0.335766
0.340528
0.347009
0.349558
0.353943
0.352458
0.35248
0.345145
0.338807
0.323521
0.308911
0.282972
0.25727
0.216452
0.174373
0.111715
0.044029
0.205306
0.230365
0.240249
0.254414
0.262595
0.269493
0.27408
0.277697
0.280257
0.282316
0.283893
0.285212
0.286301
0.287242
0.288064
0.288791
0.289451
0.290043
0.290595
0.291095
0.291572
0.292006
0.292429
0.292816
0.293203
0.293557
0.293922
0.294256
0.294614
0.294939
0.2953
0.295623
0.295993
0.296312
0.296688
0.296989
0.297363
0.297639
0.298023
0.298311
0.298791
0.299207
0.299936
0.300619
0.301668
0.30255
0.303659
0.304313
0.305053
0.305287
0.306007
0.306719
0.308601
0.310842
0.314587
0.318552
0.324058
0.329066
0.335621
0.340259
0.346586
0.349018
0.353198
0.351619
0.35145
0.344043
0.337574
0.322251
0.30757
0.281651
0.255909
0.215213
0.173115
0.110884
0.0434023
0.209224
0.232056
0.241311
0.254835
0.262796
0.269563
0.274142
0.277754
0.280331
0.282393
0.283974
0.285286
0.286369
0.287301
0.288115
0.288834
0.289487
0.290073
0.29062
0.291115
0.291589
0.29202
0.292441
0.292825
0.293211
0.293562
0.293927
0.294259
0.294617
0.294939
0.295301
0.295621
0.295993
0.296309
0.296687
0.296986
0.297363
0.297636
0.298023
0.298306
0.298789
0.299199
0.299931
0.300608
0.30166
0.302537
0.303654
0.304317
0.305086
0.305352
0.306114
0.306854
0.30876
0.310996
0.314732
0.318646
0.324106
0.329014
0.335472
0.33998
0.346142
0.348453
0.352422
0.350747
0.350386
0.342909
0.336313
0.320962
0.306216
0.280327
0.254554
0.213989
0.171887
0.110079
0.0428163
0.213046
0.233764
0.242406
0.255296
0.263025
0.269653
0.274216
0.277821
0.280416
0.282481
0.284066
0.285373
0.28645
0.287372
0.288178
0.288887
0.289533
0.290111
0.290653
0.291142
0.291613
0.292039
0.292458
0.292838
0.293223
0.293571
0.293936
0.294265
0.294622
0.294942
0.295305
0.295622
0.295996
0.296309
0.29669
0.296987
0.297367
0.297637
0.298029
0.298309
0.298796
0.299203
0.299938
0.300609
0.301662
0.302534
0.303659
0.30433
0.30513
0.305431
0.306238
0.307011
0.308942
0.311174
0.314899
0.318758
0.324166
0.328969
0.335319
0.339693
0.345677
0.347864
0.351616
0.349843
0.349291
0.341748
0.335029
0.319657
0.304852
0.279004
0.253209
0.212785
0.17069
0.109302
0.0422695
0.21678
0.235485
0.243529
0.255792
0.263281
0.269765
0.274305
0.277901
0.280512
0.282583
0.284174
0.285476
0.286547
0.287459
0.288255
0.288953
0.28959
0.290159
0.290696
0.291178
0.291644
0.292065
0.292482
0.292858
0.293241
0.293586
0.29395
0.294275
0.294633
0.29495
0.295313
0.295628
0.296003
0.296314
0.296698
0.296992
0.297376
0.297645
0.298042
0.298321
0.298814
0.299219
0.299958
0.300625
0.301679
0.302546
0.303676
0.304358
0.305188
0.305527
0.306383
0.307191
0.309148
0.311376
0.315088
0.31889
0.324237
0.328931
0.33516
0.339397
0.345194
0.347253
0.350784
0.348911
0.348171
0.340562
0.333726
0.31834
0.303482
0.277685
0.251877
0.211603
0.169529
0.108552
0.0417603
0.220434
0.237215
0.244676
0.256321
0.263563
0.269899
0.274411
0.277995
0.280623
0.282701
0.2843
0.285598
0.286664
0.287564
0.28835
0.289036
0.289664
0.290223
0.290751
0.291225
0.291686
0.292101
0.292514
0.292885
0.293267
0.293607
0.293971
0.294293
0.29465
0.294964
0.295328
0.29564
0.296017
0.296325
0.296712
0.297005
0.297393
0.297661
0.298064
0.298344
0.298844
0.299249
0.299994
0.300658
0.301713
0.302576
0.303712
0.304404
0.305266
0.305645
0.30655
0.307397
0.309381
0.311605
0.315301
0.319043
0.324321
0.328901
0.334998
0.339092
0.344694
0.34662
0.349929
0.347953
0.347027
0.339356
0.332408
0.317015
0.302112
0.276375
0.250563
0.210446
0.168406
0.107831
0.0412873
0.224017
0.238952
0.245844
0.256878
0.263869
0.270055
0.274533
0.278105
0.28075
0.282837
0.284445
0.285742
0.286804
0.287693
0.288469
0.289141
0.289757
0.290304
0.290823
0.291288
0.291742
0.292149
0.292558
0.292924
0.293302
0.293639
0.294001
0.294319
0.294677
0.294987
0.295352
0.295661
0.29604
0.296346
0.296735
0.297027
0.29742
0.297688
0.298099
0.298381
0.298889
0.299297
0.300048
0.300712
0.301768
0.302627
0.303769
0.304473
0.305367
0.305789
0.306745
0.307631
0.309642
0.311863
0.315538
0.319217
0.324417
0.328879
0.334833
0.338781
0.344178
0.345968
0.349053
0.346972
0.345865
0.338134
0.331079
0.315686
0.300745
0.275076
0.249271
0.209317
0.167324
0.107138
0.0408492
0.227537
0.240694
0.247029
0.257461
0.264197
0.270232
0.274672
0.278232
0.280893
0.282992
0.284613
0.285911
0.28697
0.287849
0.288613
0.289271
0.289875
0.290408
0.290917
0.29137
0.291816
0.292215
0.292618
0.292977
0.293352
0.293684
0.294043
0.294358
0.294715
0.295022
0.295387
0.295694
0.296074
0.296378
0.296771
0.297061
0.29746
0.29773
0.298148
0.298434
0.298953
0.299365
0.300124
0.300788
0.301847
0.302704
0.303851
0.304569
0.305496
0.305963
0.30697
0.307898
0.309934
0.31215
0.3158
0.319412
0.324526
0.328865
0.334666
0.338463
0.343649
0.345299
0.348159
0.345972
0.344687
0.336899
0.329745
0.314356
0.299387
0.273793
0.248005
0.208217
0.166283
0.106475
0.040445
0.231003
0.242437
0.248229
0.258066
0.264545
0.270429
0.274828
0.278374
0.281053
0.283167
0.284803
0.286105
0.287164
0.288035
0.288789
0.289432
0.290023
0.29054
0.291036
0.291477
0.291913
0.292302
0.292698
0.293049
0.29342
0.293745
0.294103
0.294413
0.294769
0.295073
0.295438
0.295742
0.296124
0.296426
0.296822
0.297113
0.297517
0.297789
0.298217
0.298509
0.299038
0.299458
0.300225
0.300892
0.301953
0.30281
0.303964
0.304697
0.305657
0.306171
0.307229
0.308198
0.310259
0.312469
0.316088
0.31963
0.324648
0.328859
0.334497
0.338139
0.343108
0.344615
0.347251
0.344957
0.343499
0.335656
0.328408
0.313031
0.298041
0.272529
0.246768
0.20715
0.165288
0.105842
0.0400735
0.234422
0.244179
0.24944
0.258692
0.264911
0.270644
0.275
0.278533
0.281231
0.283362
0.285017
0.286328
0.28739
0.288254
0.288999
0.289628
0.290205
0.290706
0.291188
0.291614
0.292039
0.292416
0.292804
0.293145
0.293511
0.293829
0.294183
0.294488
0.294843
0.295143
0.295509
0.29581
0.296194
0.296495
0.296894
0.297185
0.297595
0.297872
0.298309
0.298608
0.29915
0.299579
0.300356
0.301028
0.302092
0.302951
0.304112
0.304862
0.305855
0.306416
0.307525
0.308536
0.310619
0.31282
0.316403
0.31987
0.324784
0.328863
0.334328
0.337811
0.342559
0.343918
0.346333
0.343929
0.342304
0.334409
0.327075
0.311714
0.296711
0.271288
0.245564
0.206118
0.16434
0.105241
0.0397338
0.237801
0.245918
0.25066
0.259334
0.265293
0.270876
0.275187
0.278708
0.281425
0.283577
0.285255
0.286578
0.287648
0.288509
0.289247
0.289863
0.290426
0.290911
0.291378
0.291788
0.2922
0.292563
0.292941
0.293272
0.293631
0.293941
0.294291
0.29459
0.294943
0.295239
0.295605
0.295903
0.296289
0.296589
0.296992
0.297284
0.297701
0.297982
0.29843
0.298739
0.299294
0.299734
0.300521
0.301201
0.302269
0.303131
0.304299
0.305069
0.306094
0.306703
0.307861
0.308913
0.311014
0.313204
0.316745
0.320133
0.324933
0.328876
0.33416
0.337481
0.342004
0.343212
0.345407
0.342893
0.341107
0.333161
0.325748
0.310409
0.295402
0.270073
0.244396
0.205124
0.163441
0.104671
0.0394251
0.241147
0.247652
0.251886
0.259992
0.26569
0.271123
0.275389
0.278898
0.281634
0.28381
0.285515
0.286856
0.287937
0.288801
0.289535
0.290141
0.290691
0.291159
0.291611
0.292004
0.292402
0.29275
0.293117
0.293436
0.293786
0.294088
0.294432
0.294725
0.295075
0.295367
0.295732
0.296028
0.296415
0.296714
0.297121
0.297416
0.29784
0.298128
0.298587
0.298906
0.299476
0.299928
0.300727
0.301415
0.302488
0.303355
0.30453
0.305321
0.306377
0.307035
0.308239
0.309331
0.311446
0.313622
0.317114
0.320418
0.325097
0.328898
0.333995
0.337148
0.341444
0.342499
0.344477
0.341853
0.339911
0.331917
0.324433
0.30912
0.294117
0.268886
0.243268
0.204169
0.162594
0.104133
0.0391468
0.244468
0.249379
0.253116
0.260661
0.2661
0.271385
0.275604
0.279101
0.281859
0.28406
0.285796
0.287159
0.288258
0.289129
0.289864
0.290462
0.291002
0.291456
0.291893
0.292269
0.292652
0.292984
0.293338
0.293644
0.293985
0.294276
0.294614
0.294899
0.295246
0.295533
0.295897
0.296191
0.296579
0.296878
0.297289
0.297587
0.298018
0.298314
0.298785
0.299117
0.299701
0.300168
0.300979
0.301678
0.302754
0.303628
0.304811
0.305622
0.306709
0.307414
0.308662
0.30979
0.311916
0.314073
0.317509
0.320725
0.325274
0.32893
0.333833
0.336815
0.340884
0.341782
0.343548
0.340812
0.338721
0.330681
0.323133
0.30785
0.292861
0.267732
0.242183
0.203257
0.161799
0.103628
0.0388984
0.247769
0.251095
0.254346
0.26134
0.26652
0.27166
0.275832
0.279318
0.282097
0.284327
0.286096
0.287487
0.288608
0.289492
0.290233
0.290829
0.291362
0.291803
0.292227
0.292587
0.292955
0.293271
0.293612
0.293904
0.294234
0.294514
0.294844
0.295122
0.295464
0.295746
0.296108
0.296399
0.296789
0.297088
0.297503
0.297804
0.298244
0.298547
0.299031
0.299378
0.299977
0.30046
0.301282
0.301992
0.303073
0.303955
0.305144
0.305977
0.307093
0.307843
0.309132
0.310293
0.312424
0.314558
0.317931
0.321053
0.325466
0.328971
0.333675
0.336484
0.340325
0.341064
0.342621
0.339773
0.33754
0.329457
0.321851
0.306604
0.291636
0.266614
0.241144
0.202389
0.161059
0.103158
0.0386795
0.251058
0.252799
0.255574
0.262026
0.26695
0.271947
0.276071
0.279548
0.282348
0.284608
0.286413
0.287836
0.288985
0.289887
0.29064
0.291239
0.291769
0.292202
0.292616
0.292961
0.293315
0.293616
0.293943
0.294221
0.294539
0.294808
0.29513
0.295399
0.295736
0.296012
0.296373
0.296661
0.297051
0.297351
0.29777
0.298075
0.298523
0.298836
0.299332
0.299694
0.300308
0.300809
0.301642
0.302365
0.303449
0.30434
0.305534
0.306389
0.307531
0.308324
0.309648
0.310839
0.312969
0.315075
0.318379
0.321403
0.325671
0.329023
0.333524
0.336156
0.339769
0.340347
0.341701
0.338741
0.336371
0.328247
0.320593
0.305383
0.290446
0.265534
0.240153
0.201567
0.160375
0.102722
0.0384898
0.254341
0.254487
0.256797
0.262717
0.267387
0.272245
0.276322
0.279789
0.282612
0.284903
0.286747
0.288205
0.289386
0.290312
0.291082
0.291689
0.292223
0.292652
0.293059
0.293393
0.293735
0.294022
0.294336
0.2946
0.294907
0.295164
0.295477
0.295737
0.296068
0.296339
0.296697
0.296983
0.297373
0.297674
0.298096
0.298407
0.298862
0.299186
0.299695
0.300073
0.300701
0.301219
0.302064
0.302799
0.303886
0.304785
0.305983
0.306858
0.308024
0.308857
0.310212
0.311427
0.31355
0.315623
0.318851
0.321772
0.32589
0.329085
0.33338
0.335833
0.339219
0.339636
0.340789
0.337718
0.335218
0.327056
0.31936
0.304193
0.289295
0.264495
0.239214
0.200794
0.159749
0.102322
0.0383293
0.257624
0.256157
0.258012
0.263411
0.26783
0.272552
0.276584
0.280042
0.282887
0.285211
0.287094
0.288591
0.289808
0.290763
0.291556
0.292178
0.292721
0.293151
0.293555
0.293882
0.294216
0.29449
0.294793
0.295045
0.295341
0.295587
0.295892
0.296143
0.296468
0.296733
0.297088
0.297371
0.297761
0.298063
0.298489
0.298805
0.299267
0.299603
0.300123
0.300518
0.301161
0.301697
0.30255
0.303297
0.304385
0.305292
0.306493
0.307387
0.308573
0.309441
0.310822
0.312056
0.314167
0.316201
0.319346
0.32216
0.326123
0.329157
0.333245
0.335517
0.338677
0.338932
0.33989
0.336709
0.334085
0.325887
0.318157
0.303035
0.288185
0.2635
0.238328
0.20007
0.159183
0.101958
0.0381978
0.260914
0.257806
0.259216
0.264103
0.268277
0.272868
0.276856
0.280306
0.283173
0.285531
0.287455
0.288993
0.290249
0.291237
0.292058
0.2927
0.293257
0.293695
0.294102
0.294426
0.294755
0.295022
0.295316
0.295557
0.295844
0.29608
0.296376
0.296619
0.296939
0.297198
0.29755
0.297831
0.29822
0.298524
0.298952
0.299274
0.299743
0.300091
0.300622
0.301034
0.301689
0.302243
0.303104
0.303863
0.30495
0.305863
0.307065
0.307975
0.309177
0.310076
0.311478
0.312725
0.314816
0.316806
0.319863
0.322565
0.32637
0.32924
0.333118
0.335208
0.338146
0.338237
0.339006
0.335715
0.332975
0.324744
0.316986
0.301914
0.28712
0.262551
0.237498
0.199399
0.158676
0.101631
0.0380953
0.264218
0.25943
0.260407
0.264793
0.268725
0.273191
0.277136
0.28058
0.28347
0.285862
0.287828
0.289408
0.290706
0.291731
0.292584
0.293252
0.293828
0.294279
0.294694
0.295021
0.295349
0.295612
0.295901
0.296135
0.296415
0.296643
0.296932
0.297169
0.297482
0.297738
0.298086
0.298365
0.298754
0.299059
0.29949
0.299818
0.300293
0.300653
0.301194
0.301622
0.302289
0.302859
0.303726
0.304495
0.30558
0.306498
0.307698
0.308621
0.309836
0.310761
0.312176
0.31343
0.315495
0.317437
0.320399
0.322987
0.326629
0.329334
0.333002
0.334909
0.337626
0.337556
0.33814
0.334741
0.33189
0.323629
0.315851
0.300831
0.286102
0.261651
0.236727
0.198781
0.158233
0.101342
0.0380225
0.267543
0.261028
0.261581
0.265477
0.269174
0.27352
0.277426
0.280865
0.283778
0.286204
0.288213
0.289836
0.291177
0.292242
0.29313
0.293828
0.294429
0.294899
0.295326
0.295662
0.295994
0.296258
0.296545
0.296776
0.297051
0.297274
0.297558
0.29779
0.298099
0.298351
0.298696
0.298975
0.299363
0.29967
0.300102
0.300437
0.300918
0.301289
0.301839
0.302284
0.302959
0.303544
0.304415
0.305192
0.306273
0.307194
0.308389
0.309323
0.310545
0.311491
0.312914
0.31417
0.316202
0.318091
0.320954
0.323424
0.3269
0.329439
0.332897
0.334621
0.337121
0.336888
0.337293
0.333789
0.330833
0.322546
0.314755
0.29979
0.285134
0.260802
0.236016
0.19822
0.157852
0.101093
0.0379798
0.270894
0.262594
0.262735
0.266152
0.269622
0.273855
0.277723
0.281159
0.284097
0.286558
0.288609
0.290277
0.291661
0.292768
0.293695
0.294426
0.295055
0.295548
0.295994
0.296343
0.296684
0.296954
0.297244
0.297475
0.297749
0.29797
0.298251
0.29848
0.298786
0.299036
0.299379
0.299658
0.300045
0.300355
0.300789
0.301131
0.301616
0.301999
0.302556
0.303016
0.303698
0.304297
0.30517
0.305953
0.307027
0.307948
0.309136
0.310077
0.311303
0.312264
0.313689
0.31494
0.316935
0.318766
0.321526
0.323875
0.327184
0.329555
0.332804
0.334344
0.336631
0.336238
0.336469
0.332861
0.329808
0.321497
0.313701
0.298794
0.284218
0.260007
0.235367
0.197716
0.157537
0.100883
0.0379673
0.274279
0.264126
0.263867
0.266817
0.270067
0.274193
0.278027
0.281463
0.284426
0.286923
0.289016
0.290729
0.292158
0.293308
0.294275
0.295043
0.295703
0.296223
0.296691
0.297059
0.297413
0.297693
0.29799
0.298226
0.298502
0.298725
0.299005
0.299235
0.299539
0.29979
0.300132
0.300412
0.300798
0.301112
0.301547
0.301896
0.302385
0.302779
0.303342
0.303816
0.304504
0.305114
0.305986