/*--------------------------------*- C++ -*----------------------------------*\
| =========                 |                                                 |
| \\      /  F ield         | OpenFOAM: The Open Source CFD Toolbox           |
|  \\    /   O peration     | Version:  2.4.0                                 |
|   \\  /    A nd           | Web:      www.OpenFOAM.org                      |
|    \\/     M anipulation  |                                                 |
\*---------------------------------------------------------------------------*/
FoamFile
{
    version     2.0;
    format      ascii;
    class       surfaceScalarField;
    location    "0.34";
    object      phi;
}
// * * * * * * * * * * * * * * * * * * * * * * * * * * * * * * * * * * * * * //

dimensions      [0 3 -1 0 0 0 0];

internalField   nonuniform List<scalar> 
4456
(
2.25016e-06
-1.63398e-10
2.2507e-06
-5.39514e-10
2.25166e-06
-9.61453e-10
2.25313e-06
-1.46714e-09
2.25525e-06
-2.12087e-09
2.25824e-06
-2.99151e-09
2.2624e-06
-4.15754e-09
2.26812e-06
-5.72221e-09
2.27595e-06
-7.82703e-09
2.28661e-06
-1.06634e-08
2.3011e-06
-1.44859e-08
2.32073e-06
-1.96301e-08
2.34726e-06
-2.65331e-08
2.38302e-06
-3.5757e-08
2.43103e-06
-4.80112e-08
2.4952e-06
-6.41657e-08
2.58045e-06
-8.52501e-08
2.69285e-06
-1.12399e-07
2.83958e-06
-1.46732e-07
-1.8911e-07
3.02869e-06
2.25017e-06
-3.37255e-10
2.25069e-06
-1.05839e-09
2.25162e-06
-1.88697e-09
2.25305e-06
-2.89587e-09
2.25512e-06
-4.19308e-09
2.25804e-06
-5.91215e-09
2.2621e-06
-8.2138e-09
2.26768e-06
-1.13054e-08
2.27532e-06
-1.54663e-08
2.28573e-06
-2.10742e-08
2.29988e-06
-2.86335e-08
2.31906e-06
-3.88102e-08
2.345e-06
-5.24735e-08
2.37998e-06
-7.07426e-08
2.42701e-06
-9.50338e-08
2.48993e-06
-1.27091e-07
2.57367e-06
-1.68991e-07
2.68431e-06
-2.23034e-07
2.8291e-06
-2.91528e-07
-3.7627e-07
3.01626e-06
2.25016e-06
-4.99697e-10
2.25066e-06
-1.55395e-09
2.25154e-06
-2.76713e-09
2.2529e-06
-4.25301e-09
2.25487e-06
-6.16315e-09
2.25764e-06
-8.69016e-09
2.2615e-06
-1.20725e-08
2.26681e-06
-1.66178e-08
2.27409e-06
-2.27381e-08
2.284e-06
-3.09896e-08
2.29749e-06
-4.21173e-08
2.31578e-06
-5.71066e-08
2.34056e-06
-7.72475e-08
2.37402e-06
-1.04205e-07
2.41908e-06
-1.40096e-07
2.47953e-06
-1.87544e-07
2.56025e-06
-2.49705e-07
2.66732e-06
-3.30109e-07
2.80819e-06
-4.32391e-07
-5.59432e-07
2.99135e-06
2.25015e-06
-6.48737e-10
2.25061e-06
-2.01231e-09
2.25142e-06
-3.58021e-09
2.25267e-06
-5.50597e-09
2.25449e-06
-7.98313e-09
2.25706e-06
-1.12578e-08
2.26063e-06
-1.56401e-08
2.26554e-06
-2.15314e-08
2.27227e-06
-2.94682e-08
2.28146e-06
-4.01742e-08
2.29396e-06
-5.46205e-08
2.31095e-06
-7.40956e-08
2.33399e-06
-1.00292e-07
2.36519e-06
-1.35402e-07
2.40733e-06
-1.82233e-07
2.46407e-06
-2.44288e-07
2.54022e-06
-3.2585e-07
2.64187e-06
-4.31767e-07
2.77669e-06
-5.67208e-07
-7.36441e-07
2.9537e-06
2.25013e-06
-7.81424e-10
2.25054e-06
-2.42153e-09
2.25127e-06
-4.30623e-09
2.25239e-06
-6.62451e-09
2.25401e-06
-9.60856e-09
2.25631e-06
-1.35523e-08
2.2595e-06
-1.88296e-08
2.26389e-06
-2.5927e-08
2.26992e-06
-3.54942e-08
2.27815e-06
-4.84075e-08
2.28938e-06
-6.58455e-08
2.30466e-06
-8.93771e-08
2.32544e-06
-1.21072e-07
2.35366e-06
-1.63621e-07
2.39193e-06
-2.20507e-07
2.44374e-06
-2.961e-07
2.51377e-06
-3.95878e-07
2.60808e-06
-5.26073e-07
2.73463e-06
-6.93764e-07
-9.04965e-07
2.90316e-06
2.25011e-06
-8.94762e-10
2.25046e-06
-2.77144e-09
2.25108e-06
-4.92719e-09
2.25204e-06
-7.58125e-09
2.25343e-06
-1.09996e-08
2.2554e-06
-1.55171e-08
2.25813e-06
-2.15628e-08
2.2619e-06
-2.96971e-08
2.26707e-06
-4.0669e-08
2.27416e-06
-5.54892e-08
2.28383e-06
-7.55206e-08
2.29704e-06
-1.02583e-07
2.31506e-06
-1.3909e-07
2.33963e-06
-1.88195e-07
2.37315e-06
-2.54024e-07
2.41883e-06
-3.41783e-07
2.48119e-06
-4.58235e-07
2.5661e-06
-6.10983e-07
2.68211e-06
-8.0978e-07
-1.06204e-06
2.83918e-06
2.25009e-06
-9.86075e-10
2.25037e-06
-3.05339e-09
2.25087e-06
-5.42766e-09
2.25165e-06
-8.35259e-09
2.25277e-06
-1.21218e-08
2.25435e-06
-1.71038e-08
2.25656e-06
-2.37721e-08
2.25961e-06
-3.27484e-08
2.26381e-06
-4.48644e-08
2.26956e-06
-6.12437e-08
2.27745e-06
-8.34056e-08
2.28825e-06
-1.13386e-07
2.30306e-06
-1.539e-07
2.32338e-06
-2.0851e-07
2.3513e-06
-2.81945e-07
2.38971e-06
-3.80193e-07
2.44283e-06
-5.1136e-07
2.51625e-06
-6.84397e-07
2.61922e-06
-9.12752e-07
-1.20372e-06
2.7609e-06
2.25007e-06
-1.05315e-09
2.25027e-06
-3.26041e-09
2.25064e-06
-5.79512e-09
2.25121e-06
-8.91936e-09
2.25203e-06
-1.29475e-08
2.2532e-06
-1.82727e-08
2.25483e-06
-2.54021e-08
2.25709e-06
-3.50041e-08
2.2602e-06
-4.79743e-08
2.26448e-06
-6.55247e-08
2.27037e-06
-8.92986e-08
2.27849e-06
-1.21506e-07
2.28971e-06
-1.65114e-07
2.30523e-06
-2.24029e-07
2.3268e-06
-3.03515e-07
2.35686e-06
-4.1026e-07
2.3992e-06
-5.53692e-07
2.45905e-06
-7.44248e-07
2.54569e-06
-9.99395e-07
-1.32649e-06
2.66846e-06
2.25004e-06
-1.09435e-09
2.25017e-06
-3.38734e-09
2.25039e-06
-6.02034e-09
2.25074e-06
-9.26731e-09
2.25125e-06
-1.34557e-08
2.25197e-06
-1.89941e-08
2.25298e-06
-2.64111e-08
2.25438e-06
-3.64059e-08
2.25632e-06
-4.99176e-08
2.25902e-06
-6.82187e-08
2.26276e-06
-9.30413e-08
2.26798e-06
-1.26722e-07
2.27528e-06
-1.7242e-07
2.28555e-06
-2.34301e-07
2.30013e-06
-3.18094e-07
2.32088e-06
-4.31003e-07
2.35099e-06
-5.83802e-07
2.39508e-06
-7.88347e-07
2.46132e-06
-1.06563e-06
-1.42901e-06
2.56383e-06
2.25001e-06
-1.10862e-09
2.25006e-06
-3.43097e-09
2.25014e-06
-6.09757e-09
2.25026e-06
-9.38749e-09
2.25043e-06
-1.36333e-08
2.25069e-06
-1.92491e-08
2.25105e-06
-2.67722e-08
2.25156e-06
-3.69158e-08
2.25228e-06
-5.06402e-08
2.25331e-06
-6.92488e-08
2.25479e-06
-9.45235e-08
2.25694e-06
-1.28872e-07
2.26011e-06
-1.75589e-07
2.26479e-06
-2.38979e-07
2.27189e-06
-3.25195e-07
2.28243e-06
-4.41539e-07
2.29925e-06
-6.00622e-07
2.32477e-06
-8.13865e-07
2.36753e-06
-1.10839e-06
-1.50835e-06
2.44687e-06
2.24999e-06
-1.09561e-09
2.24995e-06
-3.39013e-09
2.24987e-06
-6.02466e-09
2.24976e-06
-9.27655e-09
2.2496e-06
-1.34753e-08
2.24939e-06
-1.90302e-08
2.24909e-06
-2.64743e-08
2.24869e-06
-3.65173e-08
2.24817e-06
-5.01174e-08
2.24749e-06
-6.85774e-08
2.24666e-06
-9.36879e-08
2.24566e-06
-1.27869e-07
2.24455e-06
-1.74487e-07
2.24342e-06
-2.3784e-07
2.24274e-06
-3.24518e-07
2.24235e-06
-4.4115e-07
2.24532e-06
-6.03588e-07
2.24847e-06
-8.17016e-07
2.26822e-06
-1.12815e-06
-1.54937e-06
2.30924e-06
2.24996e-06
-1.05559e-09
2.24984e-06
-3.26572e-09
2.24961e-06
-5.80319e-09
2.24927e-06
-8.93679e-09
2.24878e-06
-1.29847e-08
2.2481e-06
-1.83416e-08
2.24714e-06
-2.55225e-08
2.24584e-06
-3.52161e-08
2.24408e-06
-4.83548e-08
2.24171e-06
-6.62079e-08
2.23855e-06
-9.05319e-08
2.23438e-06
-1.23698e-07
2.22897e-06
-1.69078e-07
2.22194e-06
-2.30807e-07
2.21338e-06
-3.15961e-07
2.20167e-06
-4.29442e-07
2.1907e-06
-5.92612e-07
2.16737e-06
-7.93684e-07
2.16786e-06
-1.12864e-06
-1.51703e-06
2.13552e-06
2.24993e-06
-9.89545e-10
2.24973e-06
-3.06073e-09
2.24936e-06
-5.43839e-09
2.2488e-06
-8.3762e-09
2.24799e-06
-1.21732e-08
2.24685e-06
-1.7199e-08
2.24527e-06
-2.3938e-08
2.24309e-06
-3.30404e-08
2.24012e-06
-4.53886e-08
2.2361e-06
-6.21859e-08
2.23068e-06
-8.51101e-08
2.2234e-06
-1.1642e-07
2.21375e-06
-1.59426e-07
2.2009e-06
-2.17957e-07
2.18455e-06
-2.99611e-07
2.16166e-06
-4.06552e-07
2.13712e-06
-5.68073e-07
2.08487e-06
-7.41433e-07
2.07005e-06
-1.11383e-06
-1.36183e-06
1.91486e-06
2.24991e-06
-8.99096e-10
2.24963e-06
-2.78014e-09
2.24913e-06
-4.93907e-09
2.24836e-06
-7.6083e-09
2.24725e-06
-1.10601e-08
2.24568e-06
-1.56297e-08
2.2435e-06
-2.17582e-08
2.2405e-06
-3.00405e-08
2.2364e-06
-4.1286e-08
2.23081e-06
-5.65994e-08
2.22323e-06
-7.75343e-08
2.21299e-06
-1.06177e-07
2.19926e-06
-1.45694e-07
2.18082e-06
-1.99519e-07
2.15691e-06
-2.75699e-07
2.12362e-06
-3.73267e-07
2.08639e-06
-5.30842e-07
2.00757e-06
-6.62608e-07
1.98302e-06
-1.08928e-06
-1.04218e-06
1.66337e-06
2.24989e-06
-7.86508e-10
2.24954e-06
-2.43083e-09
2.24892e-06
-4.31733e-09
2.24796e-06
-6.6518e-09
2.24657e-06
-9.67254e-09
2.24461e-06
-1.36715e-08
2.24189e-06
-1.90355e-08
2.23814e-06
-2.62883e-08
2.233e-06
-3.61438e-08
2.22598e-06
-4.9578e-08
2.21641e-06
-6.79734e-08
2.20343e-06
-9.31901e-08
2.18587e-06
-1.28137e-07
2.1622e-06
-1.75851e-07
2.13101e-06
-2.44507e-07
2.08861e-06
-3.30867e-07
2.03963e-06
-4.81856e-07
1.94393e-06
-5.66916e-07
1.92186e-06
-1.0672e-06
-5.71922e-07
1.4516e-06
2.24987e-06
-6.54669e-10
2.24946e-06
-2.02138e-09
2.24873e-06
-3.58832e-09
2.24761e-06
-5.53021e-09
2.24598e-06
-8.04468e-09
2.24368e-06
-1.13726e-08
2.24048e-06
-1.58365e-08
2.23607e-06
-2.18751e-08
2.23001e-06
-3.00867e-08
2.22172e-06
-4.12907e-08
2.2104e-06
-5.66526e-08
2.19497e-06
-7.77563e-08
2.17395e-06
-1.07114e-07
2.14552e-06
-1.47422e-07
2.10732e-06
-2.06311e-07
2.05707e-06
-2.80617e-07
1.99595e-06
-4.20734e-07
1.90062e-06
-4.71585e-07
1.89225e-06
-1.05883e-06
-3.34854e-08
1.35382e-06
2.24985e-06
-5.07098e-10
2.24939e-06
-1.56178e-09
2.24857e-06
-2.7699e-09
2.24732e-06
-4.27134e-09
2.24549e-06
-6.21672e-09
2.2429e-06
-8.78967e-09
2.23931e-06
-1.22403e-08
2.23434e-06
-1.69103e-08
2.22752e-06
-2.32647e-08
2.21817e-06
-3.19423e-08
2.20537e-06
-4.38507e-08
2.18786e-06
-6.02499e-08
2.16386e-06
-8.31053e-08
2.13124e-06
-1.14803e-07
2.08641e-06
-1.6148e-07
2.0288e-06
-2.23012e-07
1.95236e-06
-3.44297e-07
1.872e-06
-3.91223e-07
1.87356e-06
-1.06039e-06
4.68522e-07
1.37155e-06
2.24984e-06
-3.48138e-10
2.24934e-06
-1.06272e-09
2.24845e-06
-1.88226e-09
2.24709e-06
-2.90679e-09
2.24511e-06
-4.23406e-09
2.2423e-06
-5.98661e-09
2.2384e-06
-8.33623e-09
2.23301e-06
-1.15179e-08
2.22559e-06
-1.58493e-08
2.21542e-06
-2.17687e-08
2.20146e-06
-2.98943e-08
2.18233e-06
-4.11152e-08
2.15596e-06
-5.67339e-08
2.11987e-06
-7.87134e-08
2.06921e-06
-1.10821e-07
2.00348e-06
-1.57286e-07
1.90742e-06
-2.48235e-07
1.83888e-06
-3.22682e-07
1.75249e-06
-9.74003e-07
7.70881e-07
1.45013e-06
2.24984e-06
-1.8378e-10
2.24931e-06
-5.34706e-10
2.24837e-06
-9.47154e-10
2.24694e-06
-1.47096e-09
2.24485e-06
-2.14604e-09
2.2419e-06
-3.03315e-09
2.23778e-06
-4.22207e-09
2.2321e-06
-5.83368e-09
2.22428e-06
-8.02865e-09
2.21354e-06
-1.103e-08
2.19879e-06
-1.51486e-08
2.17853e-06
-2.08531e-08
2.15055e-06
-2.87577e-08
2.11192e-06
-4.00769e-08
2.0572e-06
-5.61002e-08
1.98199e-06
-8.20829e-08
1.86502e-06
-1.31263e-07
1.75366e-06
-2.11319e-07
1.54063e-06
-7.60975e-07
7.39164e-07
1.57235e-06
2.24982e-06
2.24928e-06
2.24833e-06
2.24686e-06
2.24472e-06
2.24168e-06
2.23746e-06
2.23163e-06
2.2236e-06
2.21257e-06
2.19742e-06
2.17657e-06
2.14781e-06
2.10773e-06
2.05163e-06
1.96955e-06
1.83829e-06
1.62697e-06
8.65993e-07
1.60516e-06
3.26845e-06
-2.39766e-07
3.56643e-06
-2.97973e-07
3.92808e-06
-3.61656e-07
4.35589e-06
-4.27811e-07
4.84952e-06
-4.93624e-07
5.40622e-06
-5.56702e-07
6.02068e-06
-6.1446e-07
-6.64222e-07
6.6849e-06
3.2543e-06
-4.77802e-07
3.55107e-06
-5.94746e-07
3.91212e-06
-7.22708e-07
4.33981e-06
-8.55497e-07
4.83407e-06
-9.87883e-07
5.39281e-06
-1.11544e-06
6.01057e-06
-1.23222e-06
-1.33147e-06
6.67782e-06
3.22587e-06
-7.12325e-07
3.52017e-06
-8.89049e-07
3.87985e-06
-1.08238e-06
4.30784e-06
-1.28349e-06
4.80515e-06
-1.4852e-06
5.36812e-06
-1.67841e-06
5.98612e-06
-1.85023e-06
-1.99108e-06
6.64573e-06
3.18275e-06
-9.41374e-07
3.47297e-06
-1.17927e-06
3.83122e-06
-1.44063e-06
4.26185e-06
-1.71411e-06
4.76146e-06
-1.98481e-06
5.317e-06
-2.23395e-06
5.91686e-06
-2.45009e-06
-2.63825e-06
6.56403e-06
3.12421e-06
-1.16243e-06
3.40941e-06
-1.46446e-06
3.7684e-06
-1.79963e-06
4.19844e-06
-2.14415e-06
4.6818e-06
-2.46818e-06
5.21296e-06
-2.76511e-06
5.82086e-06
-3.05799e-06
-3.36833e-06
6.55094e-06
3.04965e-06
-1.37289e-06
3.33152e-06
-1.74634e-06
3.68797e-06
-2.15608e-06
4.09524e-06
-2.55141e-06
4.55023e-06
-2.92317e-06
5.11895e-06
-3.33383e-06
5.88852e-06
-3.82756e-06
-4.36096e-06
6.88114e-06
2.96038e-06
-1.57237e-06
3.2381e-06
-2.02406e-06
3.56973e-06
-2.48771e-06
3.9416e-06
-2.92329e-06
4.45222e-06
-3.43378e-06
5.24804e-06
-4.12965e-06
6.35345e-06
-4.93296e-06
-5.6487e-06
7.64119e-06
2.85771e-06
-1.76161e-06
3.11406e-06
-2.28041e-06
3.39977e-06
-2.77343e-06
3.81888e-06
-3.3424e-06
4.59104e-06
-4.20594e-06
5.77426e-06
-5.31287e-06
7.17623e-06
-6.33493e-06
-7.01037e-06
8.5379e-06
2.73438e-06
-1.93216e-06
2.93979e-06
-2.48582e-06
3.23438e-06
-3.06801e-06
3.90725e-06
-4.01528e-06
5.10412e-06
-5.40281e-06
6.59921e-06
-6.80796e-06
8.02904e-06
-7.76476e-06
-8.14792e-06
9.1666e-06
2.57178e-06
-2.05707e-06
2.73519e-06
-2.64923e-06
3.22083e-06
-3.55365e-06
4.3378e-06
-5.13224e-06
5.89147e-06
-6.95648e-06
7.41324e-06
-8.32973e-06
8.57167e-06
-8.92319e-06
-8.88836e-06
9.31211e-06
2.35908e-06
-2.1069e-06
2.59799e-06
-2.88815e-06
3.49959e-06
-4.45525e-06
5.04928e-06
-6.68194e-06
6.68221e-06
-8.58941e-06
7.9269e-06
-9.57442e-06
8.65254e-06
-9.64883e-06
-9.2544e-06
9.01857e-06
2.13012e-06
-2.1015e-06
2.66574e-06
-3.42378e-06
4.0752e-06
-5.8647e-06
5.82225e-06
-8.42898e-06
7.21853e-06
-9.98569e-06
8.01345e-06
-1.03693e-05
8.33126e-06
-9.96664e-06
-9.41888e-06
8.49574e-06
1.98023e-06
-2.16687e-06
3.01454e-06
-4.45809e-06
4.79865e-06
-7.64881e-06
6.42061e-06
-1.00509e-05
7.36992e-06
-1.0935e-05
7.72035e-06
-1.07198e-05
7.79544e-06
-1.00417e-05
-9.59473e-06
7.97129e-06
2.01758e-06
-2.52108e-06
3.59397e-06
-6.03448e-06
5.4635e-06
-9.51834e-06
6.69466e-06
-1.12821e-05
7.1508e-06
-1.13911e-05
7.20474e-06
-1.07737e-05
7.24241e-06
-1.00794e-05
-9.92533e-06
7.57301e-06
2.29978e-06
-3.36927e-06
4.25663e-06
-7.99133e-06
5.90146e-06
-1.11632e-05
6.61221e-06
-1.19929e-05
6.68072e-06
-1.14596e-05
6.64096e-06
-1.0734e-05
6.7816e-06
-1.022e-05
-1.04374e-05
7.29372e-06
2.79093e-06
-4.80638e-06
4.84191e-06
-1.00423e-05
6.02513e-06
-1.23464e-05
6.24267e-06
-1.22104e-05
6.11882e-06
-1.13358e-05
6.14427e-06
-1.07594e-05
6.40616e-06
-1.04819e-05
-1.10608e-05
7.02949e-06
3.3873e-06
-6.82212e-06
5.22146e-06
-1.18765e-05
5.833e-06
-1.29579e-05
5.71638e-06
-1.20938e-05
5.59556e-06
-1.1215e-05
5.74512e-06
-1.0909e-05
6.04887e-06
-1.07857e-05
-1.16555e-05
6.64355e-06
3.96353e-06
-9.33553e-06
5.30729e-06
-1.32202e-05
5.40094e-06
-1.30516e-05
5.17316e-06
-1.1866e-05
5.16566e-06
-1.12075e-05
5.40219e-06
-1.11455e-05
5.66e-06
-1.10435e-05
-1.2045e-05
6.04957e-06
4.39607e-06
-1.21593e-05
5.07244e-06
-1.38966e-05
4.86936e-06
-1.28485e-05
4.71361e-06
-1.17103e-05
4.80805e-06
-1.13019e-05
5.02076e-06
-1.13582e-05
5.1797e-06
-1.12024e-05
-1.22238e-05
5.35844e-06
4.55325e-06
-1.51073e-05
4.60887e-06
-1.39522e-05
4.39432e-06
-1.26339e-05
4.36752e-06
-1.16835e-05
4.4786e-06
-1.1413e-05
4.52921e-06
-1.14088e-05
4.41682e-06
-1.109e-05
4.90425e-06
-1.27112e-05
7.38871e-06
-7.03808e-07
8.12042e-06
-7.31707e-07
8.86751e-06
-7.4709e-07
9.61686e-06
-7.49357e-07
1.03539e-05
-7.37032e-07
1.1061e-05
-7.07103e-07
1.17167e-05
-6.55718e-07
1.22965e-05
-5.79823e-07
1.27753e-05
-4.78766e-07
1.31304e-05
-3.5513e-07
1.33451e-05
-2.14657e-07
1.34105e-05
-6.54217e-08
1.33272e-05
8.32826e-08
1.31054e-05
2.21808e-07
1.27647e-05
3.40707e-07
1.23315e-05
4.33252e-07
1.18355e-05
4.95934e-07
1.13073e-05
5.28186e-07
1.07754e-05
5.31988e-07
1.02641e-05
5.11224e-07
9.79339e-06
4.70745e-07
9.37813e-06
4.15258e-07
9.02978e-06
3.48346e-07
8.75876e-06
2.71024e-07
8.57932e-06
1.79441e-07
8.51822e-06
6.11002e-08
8.69392e-06
-1.75701e-07
-6.09031e-07
9.30295e-06
7.38218e-06
-1.40817e-06
8.11061e-06
-1.46013e-06
8.85114e-06
-1.48762e-06
9.59297e-06
-1.49119e-06
1.03244e-05
-1.46842e-06
1.10299e-05
-1.41259e-06
1.16886e-05
-1.31446e-06
1.22751e-05
-1.16631e-06
1.2762e-05
-9.65682e-07
1.31244e-05
-7.17484e-07
1.33434e-05
-4.33694e-07
1.34089e-05
-1.30944e-07
1.33219e-05
1.70295e-07
1.30932e-05
4.50519e-07
1.27434e-05
6.90483e-07
1.23e-05
8.76619e-07
1.17941e-05
1.00191e-06
1.12569e-05
1.06538e-06
1.07176e-05
1.07131e-06
1.02009e-05
1.02785e-06
9.72662e-06
9.45056e-07
9.30917e-06
8.32714e-07
8.95933e-06
6.9818e-07
8.68616e-06
5.44196e-07
8.50156e-06
3.64038e-07
8.42635e-06
1.36309e-07
8.47033e-06
-2.1968e-07
-7.80359e-07
8.64166e-06
7.33693e-06
-2.09936e-06
8.05488e-06
-2.17809e-06
8.79732e-06
-2.23006e-06
9.55996e-06
-2.25383e-06
1.0332e-05
-2.24051e-06
1.10936e-05
-2.17416e-06
1.18157e-05
-2.03659e-06
1.24638e-05
-1.81438e-06
1.30026e-05
-1.50442e-06
1.34013e-05
-1.11625e-06
1.3638e-05
-6.70418e-07
1.37027e-05
-1.95611e-07
1.35989e-05
2.7414e-07
1.3341e-05
7.08409e-07
1.29527e-05
1.07873e-06
1.24651e-05
1.36423e-06
1.1913e-05
1.55404e-06
1.13313e-05
1.64705e-06
1.07519e-05
1.65067e-06
1.02014e-05
1.57839e-06
9.69978e-06
1.44668e-06
9.26104e-06
1.27145e-06
8.89443e-06
1.06479e-06
8.60638e-06
8.32242e-07
8.40279e-06
5.67629e-07
8.289e-06
2.50104e-07
8.25301e-06
-1.83694e-07
-8.0543e-07
8.27808e-06
7.27279e-06
-2.80812e-06
8.05347e-06
-2.95877e-06
8.90188e-06
-3.07847e-06
9.79831e-06
-3.15026e-06
1.07115e-05
-3.1537e-06
1.16032e-05
-3.06587e-06
1.24326e-05
-2.86601e-06
1.31605e-05
-2.54222e-06
1.37524e-05
-2.09639e-06
1.41816e-05
-1.54542e-06
1.44298e-05
-9.18615e-07
1.44898e-05
-2.55572e-07
1.43635e-05
4.00356e-07
1.40657e-05
1.00626e-06
1.3621e-05
1.52342e-06
1.30631e-05
1.92216e-06
1.2431e-05
2.18615e-06
1.1765e-05
2.31306e-06
1.11025e-05
2.31316e-06
1.04748e-05
2.20611e-06
9.90516e-06
2.01628e-06
9.409e-06
1.76761e-06
8.99492e-06
1.47887e-06
8.66689e-06
1.16027e-06
8.42534e-06
8.09177e-07
8.26765e-06
4.07799e-07
8.17526e-06
-9.1311e-08
-7.42382e-07
8.11222e-06
7.42325e-06
-3.68042e-06
8.41305e-06
-3.94857e-06
9.46644e-06
-4.13185e-06
1.05253e-05
-4.20917e-06
1.15415e-05
-4.16984e-06
1.24787e-05
-4.00307e-06
1.331e-05
-3.69737e-06
1.40145e-05
-3.24667e-06
1.45746e-05
-2.65646e-06
1.49754e-05
-1.9463e-06
1.52061e-05
-1.14929e-06
1.526e-05
-3.09419e-07
1.51346e-05
5.25772e-07
1.48383e-05
1.30247e-06
1.43903e-05
1.97148e-06
1.38183e-05
2.49415e-06
1.31573e-05
2.84712e-06
1.24466e-05
3.02377e-06
1.17259e-05
3.03386e-06
1.10313e-05
2.90068e-06
1.0392e-05
2.6556e-06
9.82839e-06
2.33122e-06
9.35248e-06
1.95478e-06
8.96932e-06
1.54343e-06
8.678e-06
1.1005e-06
8.47183e-06
6.13962e-07
8.33122e-06
4.93036e-08
-6.30826e-07
8.21966e-06
8.02849e-06
-4.82778e-06
9.21967e-06
-5.13975e-06
1.03605e-05
-5.27264e-06
1.13983e-05
-5.24706e-06
1.2317e-05
-5.08853e-06
1.31202e-05
-4.80626e-06
1.38161e-05
-4.39321e-06
1.44065e-05
-3.83708e-06
1.48835e-05
-3.13349e-06
1.52323e-05
-2.29506e-06
1.54375e-05
-1.3545e-06
1.54886e-05
-3.60539e-07
1.53835e-05
6.30835e-07
1.51287e-05
1.55731e-06
1.47387e-05
2.36152e-06
1.42336e-05
2.99922e-06
1.36385e-05
3.44224e-06
1.29826e-05
3.67962e-06
1.22986e-05
3.71791e-06
1.16195e-05
3.57975e-06
1.09759e-05
3.29923e-06
1.03925e-05
2.91462e-06
9.88669e-06
2.46058e-06
9.46819e-06
1.96194e-06
9.1392e-06
1.42949e-06
8.89443e-06
8.58738e-07
8.71514e-06
2.28594e-07
-4.86203e-07
8.57051e-06
8.9312e-06
-6.11778e-06
1.00896e-05
-6.29813e-06
1.10641e-05
-6.24718e-06
1.18689e-05
-6.05185e-06
1.25516e-05
-5.77121e-06
1.31622e-05
-5.41688e-06
1.37297e-05
-4.96066e-06
1.42521e-05
-4.35946e-06
1.4703e-05
-3.58444e-06
1.50469e-05
-2.63891e-06
1.52526e-05
-1.56029e-06
1.53046e-05
-4.12535e-07
1.52047e-05
7.30784e-07
1.4967e-05
1.79503e-06
1.46136e-05
2.71492e-06
1.41697e-05
3.44312e-06
1.36595e-05
3.95245e-06
1.31048e-05
4.23431e-06
1.25261e-05
4.29657e-06
1.19442e-05
4.16163e-06
1.13803e-05
3.86313e-06
1.08547e-05
3.44026e-06
1.03846e-05
2.93065e-06
9.98243e-06
2.36411e-06
9.65394e-06
1.75797e-06
9.39691e-06
1.11577e-06
9.19717e-06
4.28333e-07
-3.16962e-07
9.02793e-06
9.68397e-06
-7.26386e-06
1.05625e-05
-7.17671e-06
1.12192e-05
-6.9038e-06
1.17493e-05
-6.58202e-06
1.22513e-05
-6.27315e-06
1.27863e-05
-5.95188e-06
1.33579e-05
-5.53227e-06
1.39225e-05
-4.92406e-06
1.44191e-05
-4.08111e-06
1.47948e-05
-3.01455e-06
1.50146e-05
-1.78014e-06
1.50648e-05
-4.62749e-07
1.49484e-05
8.47243e-07
1.46847e-05
2.05868e-06
1.43056e-05
3.09403e-06
1.38504e-05
3.89839e-06
1.3357e-05
4.44585e-06
1.28547e-05
4.73659e-06
1.23616e-05
4.78966e-06
1.18873e-05
4.63589e-06
1.1438e-05
4.31249e-06
1.10198e-05
3.85845e-06
1.06402e-05
3.31027e-06
1.03064e-05
2.69792e-06
1.00228e-05
2.04159e-06
9.78803e-06
1.35049e-06
9.59136e-06
6.25005e-07
-1.35401e-07
9.4098e-06
9.96043e-06
-8.0577e-06
1.04839e-05
-7.70013e-06
1.08727e-05
-7.29267e-06
1.12684e-05
-6.97769e-06
1.17627e-05
-6.76745e-06
1.23627e-05
-6.5519e-06
1.30036e-05
-6.17316e-06
1.36006e-05
-5.52104e-06
1.40907e-05
-4.57118e-06
1.44407e-05
-3.36458e-06
1.4638e-05
-1.97744e-06
1.46798e-05
-5.04504e-07
1.45635e-05
9.63546e-07
1.42988e-05
2.32335e-06
1.39087e-05
3.48415e-06
1.34316e-05
4.37549e-06
1.29157e-05
4.96176e-06
1.2407e-05
5.24526e-06
1.19379e-05
5.25875e-06
1.15224e-05
5.05137e-06
1.11601e-05
4.6748e-06
1.08439e-05
4.17467e-06
1.05666e-05
3.58759e-06
1.03233e-05
2.94115e-06
1.01106e-05
2.25431e-06
9.92311e-06
1.53798e-06
9.75039e-06
7.97725e-07
4.3007e-08
9.57198e-06
9.73998e-06
-8.48556e-06
1.00228e-05
-7.98292e-06
1.03269e-05
-7.59685e-06
1.07632e-05
-7.41394e-06
1.13361e-05
-7.34038e-06
1.19585e-05
-7.17431e-06
1.25282e-05
-6.74284e-06
1.29901e-05
-5.98291e-06
1.33346e-05
-4.91576e-06
1.35692e-05
-3.59909e-06
1.37008e-05
-2.10911e-06
1.37313e-05
-5.34985e-07
1.36559e-05
1.03894e-06
1.34683e-05
2.51092e-06
1.31674e-05
3.78508e-06
1.27659e-05
4.77698e-06
1.22975e-05
5.43015e-06
1.18116e-05
5.73117e-06
1.13573e-05
5.71311e-06
1.0967e-05
5.44162e-06
1.06508e-05
4.991e-06
1.04011e-05
4.42435e-06
1.02025e-05
3.78624e-06
1.00388e-05
3.10487e-06
9.89613e-06
2.39696e-06
9.76191e-06
1.6722e-06
9.62206e-06
9.37569e-07
2.04298e-07
9.46077e-06
9.23373e-06
-8.70072e-06
9.47509e-06
-8.22428e-06
9.8474e-06
-7.96916e-06
1.03435e-05
-7.90999e-06
1.0848e-05
-7.84495e-06
1.12512e-05
-7.57748e-06
1.15324e-05
-7.02409e-06
1.17335e-05
-6.18396e-06
1.18889e-05
-5.07117e-06
1.20046e-05
-3.71477e-06
1.20746e-05
-2.17916e-06
1.20964e-05
-5.56742e-07
1.20712e-05
1.06412e-06
1.19939e-05
2.58827e-06
1.18506e-05
3.92835e-06
1.16259e-05
5.0017e-06
1.13197e-05
5.73637e-06
1.09582e-05
6.09262e-06
1.05876e-05
6.08376e-06
1.02533e-05
5.7759e-06
9.98287e-06
5.26142e-06
9.78116e-06
4.62605e-06
9.6366e-06
3.93081e-06
9.53014e-06
3.21132e-06
9.44184e-06
2.48526e-06
9.35321e-06
1.76083e-06
9.24698e-06
1.04381e-06
3.44327e-07
9.10695e-06
8.70397e-06
-8.90895e-06
9.03808e-06
-8.5584e-06
9.45288e-06
-8.38395e-06
9.79616e-06
-8.25328e-06
9.93465e-06
-7.98344e-06
9.91422e-06
-7.55705e-06
9.87335e-06
-6.98322e-06
9.88725e-06
-6.19786e-06
9.93779e-06
-5.12171e-06
9.98375e-06
-3.76073e-06
1.00074e-05
-2.20277e-06
1.00137e-05
-5.63078e-07
1.001e-05
1.06785e-06
1.00056e-05
2.59263e-06
9.99755e-06
3.9364e-06
9.96409e-06
5.03516e-06
9.87755e-06
5.82291e-06
9.72701e-06
6.24316e-06
9.53121e-06
6.27956e-06
9.3274e-06
5.97971e-06
9.15016e-06
5.43866e-06
9.0175e-06
4.75871e-06
8.92903e-06
4.01928e-06
8.87169e-06
3.26866e-06
8.82688e-06
2.53007e-06
8.7753e-06
1.81241e-06
8.69899e-06
1.12012e-06
4.60976e-07
8.58234e-06
8.30082e-06
-9.23847e-06
8.69264e-06
-8.95022e-06
8.91634e-06
-8.60766e-06
8.78071e-06
-8.11764e-06
8.36895e-06
-7.57168e-06
7.9971e-06
-7.18519e-06
7.81777e-06
-6.80389e-06
7.76126e-06
-6.14135e-06
7.71815e-06
-5.07859e-06
7.65536e-06
-3.69794e-06
7.5984e-06
-2.14582e-06
7.57635e-06
-5.41019e-07
7.59118e-06
1.05301e-06
7.64557e-06
2.53824e-06
7.74353e-06
3.83843e-06
7.87318e-06
4.90551e-06
8.00212e-06
5.69397e-06
8.09258e-06
6.1527e-06
8.1299e-06
6.24225e-06
8.12599e-06
5.98361e-06
8.10554e-06
5.45912e-06
8.08957e-06
4.77467e-06
8.08677e-06
4.02207e-06
8.09327e-06
3.26216e-06
8.09726e-06
2.52608e-06
8.08381e-06
1.82586e-06
8.03807e-06
1.16587e-06
5.5186e-07
7.94718e-06
8.00002e-06
-9.66549e-06
8.24117e-06
-9.19136e-06
7.93677e-06
-8.30326e-06
7.12368e-06
-7.30455e-06
6.3032e-06
-6.7512e-06
5.85273e-06
-6.73472e-06
5.63279e-06
-6.58395e-06
5.4219e-06
-5.93046e-06
5.16557e-06
-4.82227e-06
4.9219e-06
-3.45427e-06
4.75935e-06
-1.98326e-06
4.71258e-06
-4.94256e-07
4.78083e-06
9.84773e-07
4.93464e-06
2.38443e-06
5.16129e-06
3.61179e-06
5.45166e-06
4.61514e-06
5.78338e-06
5.36224e-06
6.11086e-06
5.82522e-06
6.39888e-06
5.95423e-06
6.63275e-06
5.74975e-06
6.81737e-06
5.27449e-06
6.96563e-06
4.62642e-06
7.0879e-06
3.89981e-06
7.18691e-06
3.16315e-06
7.25864e-06
2.45434e-06
7.29523e-06
1.78927e-06
7.2877e-06
1.17339e-06
6.11457e-07
7.22811e-06
7.64867e-06
-1.00204e-05
7.43571e-06
-8.9784e-06
6.34257e-06
-7.21012e-06
4.99323e-06
-5.95521e-06
4.12894e-06
-5.88691e-06
3.69259e-06
-6.29837e-06
3.26753e-06
-6.1589e-06
2.76794e-06
-5.43086e-06
2.28049e-06
-4.33481e-06
1.90342e-06
-3.0772e-06
1.67926e-06
-1.7591e-06
1.61188e-06
-4.2688e-07
1.72692e-06
8.69733e-07
1.98004e-06
2.1313e-06
2.34277e-06
3.24906e-06
2.79563e-06
4.16228e-06
3.3228e-06
4.83508e-06
3.87398e-06
5.27404e-06
4.4065e-06
5.42171e-06
4.88586e-06
5.27039e-06
5.29702e-06
4.86332e-06
5.63892e-06
4.28452e-06
5.91718e-06
3.62154e-06
6.13636e-06
2.94398e-06
6.29804e-06
2.29266e-06
6.40127e-06
1.68604e-06
6.44387e-06
1.13078e-06
6.31543e-07
6.42379e-06
7.05332e-06
-1.00443e-05
6.10468e-06
-8.02976e-06
4.23052e-06
-5.33597e-06
2.80763e-06
-4.53231e-06
2.07187e-06
-5.15115e-06
1.4272e-06
-5.6537e-06
6.64711e-07
-5.3964e-06
-9.84632e-08
-4.66769e-06
-7.06551e-07
-3.72673e-06
-1.15146e-06
-2.6323e-06
-1.41227e-06
-1.49829e-06
-1.49723e-06
-3.41918e-07
-1.3814e-06
7.53906e-07
-1.06352e-06
1.81342e-06
-5.80671e-07
2.76622e-06
3.76055e-08
3.544e-06
7.31383e-07
4.1413e-06
1.48939e-06
4.51603e-06
2.24902e-06
4.66208e-06
2.96192e-06
4.55749e-06
3.5973e-06
4.22794e-06
4.13951e-06
3.74231e-06
4.58694e-06
3.17411e-06
4.94213e-06
2.58879e-06
5.20927e-06
2.02552e-06
5.39279e-06
1.50252e-06
5.49659e-06
1.02699e-06
6.03816e-07
5.52431e-06
6.04317e-06
-9.4439e-06
4.23567e-06
-6.22226e-06
1.99427e-06
-3.09457e-06
8.85411e-07
-3.42346e-06
3.67805e-08
-4.30252e-06
-9.61076e-07
-4.65585e-06
-1.97384e-06
-4.38364e-06
-2.88432e-06
-3.75721e-06
-3.64299e-06
-2.96805e-06
-4.1864e-06
-2.08889e-06
-4.50238e-06
-1.18231e-06
-4.5847e-06
-2.59594e-07
-4.4369e-06
6.06107e-07
-4.06098e-06
1.43749e-06
-3.48036e-06
2.18559e-06
-2.73714e-06
2.80079e-06
-1.86811e-06
3.27227e-06
-9.27828e-07
3.57575e-06
3.4828e-08
3.69942e-06
9.59083e-07
3.63323e-06
1.80023e-06
3.3868e-06
2.52991e-06
3.01263e-06
3.14083e-06
2.56319e-06
3.63199e-06
2.09763e-06
4.00787e-06
1.64965e-06
4.27705e-06
1.23335e-06
4.44801e-06
8.56031e-07
5.22612e-07
4.52921e-06
4.45353e-06
-7.84786e-06
2.04788e-06
-3.81661e-06
2.44413e-07
-1.2911e-06
-7.63033e-07
-2.41601e-06
-1.92196e-06
-3.14359e-06
-3.23328e-06
-3.34453e-06
-4.47462e-06
-3.14231e-06
-5.55413e-06
-2.67769e-06
-6.42457e-06
-2.09762e-06
-7.0461e-06
-1.46736e-06
-7.4036e-06
-8.24806e-07
-7.485e-06
-1.78195e-07
-7.30358e-06
4.24686e-07
-6.86498e-06
9.98893e-07
-6.19498e-06
1.51559e-06
-5.33781e-06
1.94362e-06
-4.33742e-06
2.27188e-06
-3.24706e-06
2.48538e-06
-2.12193e-06
2.5743e-06
-1.0222e-06
2.53351e-06
-9.62514e-09
2.37422e-06
8.92031e-07
2.11097e-06
1.64677e-06
1.80845e-06
2.25995e-06
1.48445e-06
2.73539e-06
1.17421e-06
3.08635e-06
8.82381e-07
3.324e-06
6.18377e-07
3.85999e-07
3.46062e-06
2.11536e-06
-4.60477e-06
-4.03593e-08
-1.66089e-06
-9.66786e-07
-3.64672e-07
-2.12825e-06
-1.25454e-06
-3.60593e-06
-1.66591e-06
-5.17089e-06
-1.77958e-06
-6.63734e-06
-1.67585e-06
-7.88582e-06
-1.42922e-06
-8.866e-06
-1.11743e-06
-9.55318e-06
-7.80178e-07
-9.9396e-06
-4.38379e-07
-1.00224e-05
-9.54362e-08
-9.8148e-06
2.17122e-07
-9.32826e-06
5.12349e-07
-8.59025e-06
7.77593e-07
-7.64441e-06
9.97776e-07
-6.53905e-06
1.16651e-06
-5.3305e-06
1.27684e-06
-4.07993e-06
1.32372e-06
-2.85118e-06
1.30476e-06
-1.70298e-06
1.22602e-06
-6.89437e-07
1.09743e-06
1.82283e-07
9.36731e-07
9.01708e-07
7.65024e-07
1.4576e-06
6.18319e-07
1.87662e-06
4.63353e-07
2.16979e-06
3.25213e-07
2.05357e-07
2.35043e-06
2.9948e-07
-1.36141e-06
-1.72609e-06
-2.98063e-06
-4.64654e-06
-6.42612e-06
-8.10196e-06
-9.53118e-06
-1.06486e-05
-1.14288e-05
-1.18672e-05
-1.19626e-05
-1.17455e-05
-1.12331e-05
-1.04555e-05
-9.45777e-06
-8.29126e-06
-7.01442e-06
-5.6907e-06
-4.38594e-06
-3.15992e-06
-2.0625e-06
-1.12576e-06
-3.60741e-07
2.57578e-07
7.20931e-07
1.04614e-06
1.2515e-06
9.21543e-06
-2.37056e-06
2.45807e-06
8.82579e-06
-4.21376e-06
4.6034e-06
7.57624e-06
-5.90854e-06
7.15808e-06
5.92435e-06
-7.21539e-06
8.86728e-06
4.40349e-06
-7.92543e-06
9.44629e-06
2.94873e-06
-8.40674e-06
9.8615e-06
1.15679e-06
-8.35489e-06
1.01468e-05
-9.30069e-06
-2.64391e-06
1.31014e-05
8.34917e-06
-2.07806e-06
7.75765e-06
-3.62225e-06
6.85716e-06
-5.00804e-06
5.77575e-06
-6.13398e-06
4.68231e-06
-6.83199e-06
3.50859e-06
-7.23302e-06
2.27429e-06
-7.12059e-06
-7.15937e-06
1.3296e-07
8.05602e-06
-1.856e-06
7.57298e-06
-3.1392e-06
6.88354e-06
-4.3186e-06
6.03476e-06
-5.2852e-06
5.12433e-06
-5.92156e-06
4.12564e-06
-6.23434e-06
2.98409e-06
-5.97904e-06
-5.40924e-06
1.23397e-06
7.91368e-06
-1.65747e-06
7.52643e-06
-2.75195e-06
6.99723e-06
-3.7894e-06
6.35439e-06
-4.64236e-06
5.63669e-06
-5.20387e-06
4.81513e-06
-5.41278e-06
3.8573e-06
-5.02121e-06
-4.14206e-06
2.59012e-06
8.04377e-06
-1.48158e-06
7.74592e-06
-2.45409e-06
7.34054e-06
-3.38403e-06
6.83821e-06
-4.14003e-06
6.24478e-06
-4.61044e-06
5.53847e-06
-4.70646e-06
4.71647e-06
-4.19921e-06
-3.17929e-06
3.7537e-06
8.39846e-06
-1.30952e-06
8.14694e-06
-2.20257e-06
7.80704e-06
-3.04412e-06
7.3761e-06
-3.70909e-06
6.84904e-06
-4.08337e-06
6.21687e-06
-4.07429e-06
5.50457e-06
-3.48691e-06
-2.42353e-06
4.74882e-06
8.84411e-06
-1.12571e-06
8.60086e-06
-1.95933e-06
8.27832e-06
-2.72157e-06
7.86825e-06
-3.29903e-06
7.36791e-06
-3.58303e-06
6.78233e-06
-3.48872e-06
6.15625e-06
-2.86084e-06
-1.80794e-06
5.54065e-06
9.20989e-06
-9.25803e-07
8.95459e-06
-1.70403e-06
8.62375e-06
-2.39072e-06
8.21108e-06
-2.88636e-06
7.72174e-06
-3.09369e-06
7.17284e-06
-2.93982e-06
6.61997e-06
-2.30796e-06
-1.29922e-06
6.11126e-06
9.36333e-06
-7.17147e-07
9.09603e-06
-1.43673e-06
8.75546e-06
-2.05016e-06
8.34112e-06
-2.47202e-06
7.86662e-06
-2.61918e-06
7.35774e-06
-2.43095e-06
6.87397e-06
-1.82419e-06
-8.82148e-07
6.45689e-06
9.25521e-06
-5.1159e-07
8.98806e-06
-1.16957e-06
8.65066e-06
-1.71275e-06
8.24885e-06
-2.07022e-06
7.8026e-06
-2.17293e-06
7.34257e-06
-1.97092e-06
6.92709e-06
-1.4087e-06
-5.48052e-07
6.59299e-06
8.91567e-06
-3.20316e-07
8.66201e-06
-9.15914e-07
8.34323e-06
-1.39396e-06
7.96951e-06
-1.6965e-06
7.56418e-06
-1.7676e-06
7.15973e-06