/*--------------------------------*- C++ -*----------------------------------*\
| =========                 |                                                 |
| \\      /  F ield         | OpenFOAM: The Open Source CFD Toolbox           |
|  \\    /   O peration     | Version:  2.4.0                                 |
|   \\  /    A nd           | Web:      www.OpenFOAM.org                      |
|    \\/     M anipulation  |                                                 |
\*---------------------------------------------------------------------------*/
FoamFile
{
    version     2.0;
    format      ascii;
    class       volScalarField;
    location    "0.9";
    object      nut;
}
// * * * * * * * * * * * * * * * * * * * * * * * * * * * * * * * * * * * * * //

dimensions      [0 2 -1 0 0 0 0];

internalField   nonuniform List<scalar> 
6000
(
1.24053e-05
9.9993e-06
5.4268e-06
3.97882e-06
4.99209e-06
5.30869e-06
5.82422e-06
8.97053e-06
1.08389e-05
1.13718e-05
1.07791e-05
9.56152e-06
8.24608e-06
6.98866e-06
5.92238e-06
5.145e-06
4.79055e-06
5.27151e-06
6.19273e-06
7.0426e-06
7.81773e-06
8.50845e-06
9.10561e-06
9.60513e-06
1.00109e-05
1.03342e-05
1.05904e-05
1.07941e-05
1.09571e-05
1.1088e-05
1.11928e-05
1.12764e-05
1.13426e-05
1.13945e-05
1.14349e-05
1.14657e-05
1.14885e-05
1.15046e-05
1.15151e-05
1.15209e-05
1.15225e-05
1.15208e-05
1.15161e-05
1.15089e-05
1.14996e-05
1.14885e-05
1.14759e-05
1.14621e-05
1.14473e-05
1.14319e-05
1.14159e-05
1.14002e-05
1.13843e-05
1.13705e-05
1.1354e-05
1.13498e-05
1.13158e-05
1.13671e-05
1.12088e-05
1.14885e-05
2.33518e-05
3.30265e-05
1.75246e-05
1.2394e-05
1.06911e-05
1.33495e-05
1.2212e-05
9.45261e-06
7.80731e-06
8.49645e-06
1.23695e-05
1.56716e-05
1.76165e-05
1.84416e-05
1.89654e-05
1.90477e-05
1.83109e-05
1.71191e-05
1.62273e-05
1.56411e-05
1.53563e-05
1.53579e-05
1.55821e-05
1.5917e-05
1.62432e-05
1.64803e-05
1.66055e-05
1.66356e-05
1.65978e-05
1.65111e-05
1.63847e-05
1.62235e-05
1.60328e-05
1.58188e-05
1.55879e-05
1.53451e-05
1.50938e-05
1.48361e-05
1.45729e-05
1.43049e-05
1.40321e-05
1.37547e-05
1.34727e-05
1.31865e-05
1.28964e-05
1.26029e-05
1.23066e-05
1.20078e-05
1.17068e-05
1.14038e-05
1.10992e-05
1.07927e-05
1.04853e-05
1.0175e-05
9.86701e-06
9.5445e-06
9.24248e-06
8.86247e-06
8.55509e-06
8.17944e-06
2.89025e-05
4.83198e-05
2.45656e-05
1.64242e-05
1.48613e-05
1.4754e-05
1.08912e-05
8.93109e-06
1.17736e-05
2.21809e-05
3.33302e-05
3.72375e-05
3.71663e-05
3.4919e-05
3.26679e-05
3.10543e-05
2.97644e-05
2.86546e-05
2.76213e-05
2.6521e-05
2.53862e-05
2.43465e-05
2.354e-05
2.30204e-05
2.27303e-05
2.25575e-05
2.24098e-05
2.22458e-05
2.20606e-05
2.18593e-05
2.16435e-05
2.14112e-05
2.11603e-05
2.08912e-05
2.06059e-05
2.03062e-05
1.99929e-05
1.96658e-05
1.93237e-05
1.89652e-05
1.85885e-05
1.81921e-05
1.77745e-05
1.73347e-05
1.68716e-05
1.63846e-05
1.58729e-05
1.53362e-05
1.47745e-05
1.41881e-05
1.35786e-05
1.29488e-05
1.23019e-05
1.16444e-05
1.09722e-05
1.02945e-05
9.58126e-06
8.8763e-06
8.01432e-06
7.2405e-06
3.22059e-05
5.54291e-05
2.7883e-05
1.80142e-05
1.55811e-05
1.34518e-05
1.0767e-05
1.31341e-05
2.34944e-05
3.86429e-05
4.53986e-05
4.68239e-05
4.53207e-05
4.2188e-05
3.927e-05
3.74713e-05
3.65459e-05
3.60397e-05
3.55679e-05
3.48953e-05
3.39394e-05
3.27524e-05
3.14962e-05
3.03594e-05
2.94577e-05
2.8795e-05
2.83081e-05
2.79306e-05
2.76206e-05
2.73555e-05
2.71197e-05
2.69001e-05
2.6686e-05
2.64699e-05
2.62467e-05
2.60127e-05
2.57646e-05
2.54988e-05
2.52114e-05
2.48989e-05
2.45574e-05
2.41836e-05
2.37739e-05
2.33251e-05
2.28339e-05
2.22972e-05
2.1712e-05
2.10751e-05
2.03836e-05
1.96354e-05
1.8829e-05
1.79681e-05
1.70549e-05
1.60997e-05
1.509e-05
1.40629e-05
1.29352e-05
1.19011e-05
1.05171e-05
9.79993e-06
3.39742e-05
5.79926e-05
3.40434e-05
1.92471e-05
1.58823e-05
1.32433e-05
1.34904e-05
2.13507e-05
3.60367e-05
4.67801e-05
5.00042e-05
5.0195e-05
4.81288e-05
4.48613e-05
4.18818e-05
4.0106e-05
3.93952e-05
3.92338e-05
3.91884e-05
3.89991e-05
3.85214e-05
3.77271e-05
3.6706e-05
3.56222e-05
3.46343e-05
3.38293e-05
3.3214e-05
3.2752e-05
3.24015e-05
3.21299e-05
3.19127e-05
3.17315e-05
3.15719e-05
3.14233e-05
3.1278e-05
3.113e-05
3.09741e-05
3.08059e-05
3.06209e-05
3.0415e-05
3.01843e-05
2.99248e-05
2.96323e-05
2.93027e-05
2.89315e-05
2.85138e-05
2.80443e-05
2.75173e-05
2.69269e-05
2.62656e-05
2.55303e-05
2.47198e-05
2.38311e-05
2.28702e-05
2.18192e-05
2.0725e-05
1.94738e-05
1.83699e-05
1.67783e-05
1.65657e-05
3.49268e-05
5.7944e-05
4.12535e-05
1.97513e-05
1.88258e-05
1.55907e-05
1.89429e-05
3.09455e-05
4.4478e-05
5.04625e-05
5.22198e-05
5.17508e-05
4.92008e-05
4.56514e-05
4.24933e-05
4.05835e-05
3.98461e-05
3.97905e-05
3.99735e-05
4.01157e-05
4.00287e-05
3.96266e-05
3.89464e-05
3.81193e-05
3.72994e-05
3.65943e-05
3.60406e-05
3.56253e-05
3.53172e-05
3.50867e-05
3.49105e-05
3.47712e-05
3.46563e-05
3.45567e-05
3.44656e-05
3.43781e-05
3.429e-05
3.41978e-05
3.40981e-05
3.39881e-05
3.38647e-05
3.3725e-05
3.3566e-05
3.33842e-05
3.31761e-05
3.29373e-05
3.26632e-05
3.23479e-05
3.19834e-05
3.15642e-05
3.10858e-05
3.05436e-05
2.99318e-05
2.9251e-05
2.84853e-05
2.76697e-05
2.6717e-05
2.58832e-05
2.47219e-05
2.50827e-05
3.5441e-05
5.64246e-05
4.67797e-05
2.00931e-05
2.48209e-05
2.05024e-05
2.60695e-05
3.94946e-05
4.94989e-05
5.27545e-05
5.3856e-05
5.29127e-05
4.99086e-05
4.593e-05
4.23754e-05
4.01412e-05
3.91998e-05
3.9096e-05
3.93766e-05
3.97417e-05
3.99589e-05
3.98836e-05
3.94989e-05
3.89065e-05
3.82583e-05
3.76768e-05
3.72166e-05
3.68767e-05
3.66322e-05
3.64554e-05
3.6325e-05
3.62256e-05
3.61471e-05
3.60826e-05
3.60275e-05
3.59784e-05
3.59327e-05
3.58883e-05
3.58431e-05
3.57957e-05
3.57444e-05
3.56878e-05
3.56241e-05
3.55516e-05
3.54685e-05
3.53721e-05
3.52598e-05
3.51277e-05
3.49719e-05
3.4789e-05
3.45757e-05
3.43288e-05
3.40446e-05
3.37221e-05
3.33556e-05
3.29619e-05
3.25145e-05
3.21336e-05
3.1758e-05
3.25431e-05
3.57022e-05
5.41463e-05
5.04779e-05
2.39324e-05
3.19531e-05
2.71177e-05
3.36111e-05
4.6225e-05
5.28265e-05
5.46847e-05
5.53565e-05
5.39566e-05
5.05442e-05
4.61782e-05
4.21493e-05
3.94772e-05
3.82223e-05
3.79671e-05
3.82493e-05
3.87571e-05
3.92199e-05
3.94338e-05
3.93206e-05
3.89431e-05
3.84464e-05
3.79682e-05
3.75829e-05
3.73032e-05
3.711e-05
3.69773e-05
3.68842e-05
3.68163e-05
3.6765e-05
3.6725e-05
3.6693e-05
3.6667e-05
3.66455e-05
3.66275e-05
3.6612e-05
3.65985e-05
3.65864e-05
3.65752e-05
3.65646e-05
3.65541e-05
3.65432e-05
3.65315e-05
3.65179e-05
3.65014e-05
3.64821e-05
3.64594e-05
3.64333e-05
3.6404e-05
3.63725e-05
3.63407e-05
3.63147e-05
3.63027e-05
3.63334e-05
3.6409e-05
3.68205e-05
3.7933e-05
3.58127e-05
5.15544e-05
5.26281e-05
2.96707e-05
3.82075e-05
3.44812e-05
4.07933e-05
5.14493e-05
5.54884e-05
5.65662e-05
5.68266e-05
5.48878e-05
5.10413e-05
4.64141e-05
4.19863e-05
3.88669e-05
3.7259e-05
3.67889e-05
3.69977e-05
3.75769e-05
3.82314e-05
3.8705e-05
3.88542e-05
3.86916e-05
3.83459e-05
3.79652e-05
3.7644e-05
3.74111e-05
3.72554e-05
3.71543e-05
3.70876e-05
3.70417e-05
3.70085e-05
3.69838e-05
3.69654e-05
3.69521e-05
3.69433e-05
3.69384e-05
3.69373e-05
3.694e-05
3.69466e-05
3.69573e-05
3.69723e-05
3.69923e-05
3.70177e-05
3.70493e-05
3.70879e-05
3.71344e-05
3.71908e-05
3.72595e-05
3.73438e-05
3.74475e-05
3.75768e-05
3.77384e-05
3.79485e-05
3.82141e-05
3.86062e-05
3.90478e-05
4.00895e-05
4.14655e-05
3.58344e-05
4.8922e-05
5.35077e-05
3.58789e-05
4.1973e-05
4.20062e-05
4.73666e-05
5.5728e-05
5.79765e-05
5.8544e-05
5.83607e-05
5.57431e-05
5.13249e-05
4.65143e-05
4.18405e-05
3.83459e-05
3.64164e-05
3.57021e-05
3.5786e-05
3.6375e-05
3.71667e-05
3.78667e-05
3.8268e-05
3.83248e-05
3.81381e-05
3.78597e-05
3.76021e-05
3.74109e-05
3.72854e-05
3.72077e-05
3.71595e-05
3.71281e-05
3.71064e-05
3.70908e-05
3.70799e-05
3.70732e-05
3.70703e-05
3.70715e-05
3.70769e-05
3.70867e-05
3.71016e-05
3.71219e-05
3.71486e-05
3.71824e-05
3.72245e-05
3.72765e-05
3.73399e-05
3.74174e-05
3.75121e-05
3.76282e-05
3.77711e-05
3.79477e-05
3.81682e-05
3.84436e-05
3.87986e-05
3.92408e-05
3.98751e-05
4.05773e-05
4.20669e-05
4.3647e-05
3.58055e-05
4.6409e-05
5.3386e-05
4.16325e-05
4.18911e-05
4.94017e-05
5.33825e-05
5.9524e-05
6.05427e-05
6.07466e-05
6.00936e-05
5.66322e-05
5.1419e-05
4.63827e-05
4.16112e-05
3.78684e-05
3.56856e-05
3.47313e-05
3.46658e-05
3.52183e-05
3.60961e-05
3.69848e-05
3.76225e-05
3.79004e-05
3.78813e-05
3.77129e-05
3.75227e-05
3.73732e-05
3.72751e-05
3.72166e-05
3.71825e-05
3.71614e-05
3.71471e-05
3.7137e-05
3.71302e-05
3.71266e-05
3.71265e-05
3.71302e-05
3.71383e-05
3.71512e-05
3.71696e-05
3.71941e-05
3.72258e-05
3.72658e-05
3.73155e-05
3.73768e-05
3.7452e-05
3.75442e-05
3.76574e-05
3.77967e-05
3.79691e-05
3.81833e-05
3.84522e-05
3.879e-05
3.92273e-05
3.97746e-05
4.05574e-05
4.14295e-05
4.32063e-05
4.49348e-05
3.57489e-05
4.41018e-05
5.25136e-05
4.6406e-05
4.10888e-05
5.64653e-05
5.90083e-05
6.31579e-05
6.33438e-05
6.33028e-05
6.21628e-05
5.76874e-05
5.1431e-05
4.60062e-05
4.12219e-05
3.73873e-05
3.50167e-05
3.38554e-05
3.36411e-05
3.41291e-05
3.50501e-05
3.60885e-05
3.69415e-05
3.74378e-05
3.75931e-05
3.75426e-05
3.7425e-05
3.73192e-05
3.72483e-05
3.72075e-05
3.71853e-05
3.71723e-05
3.71634e-05
3.71568e-05
3.71523e-05
3.71503e-05
3.71515e-05
3.71563e-05
3.71655e-05
3.71796e-05
3.71994e-05
3.72258e-05
3.72597e-05
3.73025e-05
3.73557e-05
3.74213e-05
3.7502e-05
3.76012e-05
3.77233e-05
3.78739e-05
3.80609e-05
3.82941e-05
3.85879e-05
3.89586e-05
3.94406e-05
4.00472e-05
4.0916e-05
4.18923e-05
4.38412e-05
4.56657e-05
3.56784e-05
4.20388e-05
5.11136e-05
5.00026e-05
4.15112e-05
6.2863e-05
6.44275e-05
6.68449e-05
6.64938e-05
6.63229e-05
6.46665e-05
5.90071e-05
5.14918e-05
4.54505e-05
4.06461e-05
3.68697e-05
3.43617e-05
3.30408e-05
3.26967e-05
3.31105e-05
3.40431e-05
3.51943e-05
3.62379e-05
3.69453e-05
3.72793e-05
3.73538e-05
3.73143e-05
3.72552e-05
3.72127e-05
3.71895e-05
3.71785e-05
3.71727e-05
3.71683e-05
3.71644e-05
3.71614e-05
3.71603e-05
3.7162e-05
3.71673e-05
3.71769e-05
3.71915e-05
3.72119e-05
3.72391e-05
3.7274e-05
3.73181e-05
3.73729e-05
3.74407e-05
3.75241e-05
3.76267e-05
3.77531e-05
3.79094e-05
3.81037e-05
3.83464e-05
3.8653e-05
3.90409e-05
3.95467e-05
4.01859e-05
4.11028e-05
4.21401e-05
4.41845e-05
4.60632e-05
3.56024e-05
4.02292e-05
4.93742e-05
5.24108e-05
4.32558e-05
6.77993e-05
6.97934e-05
7.0731e-05
7.00784e-05
6.98822e-05
6.76434e-05
6.06282e-05
5.17014e-05
4.48244e-05
3.99572e-05
3.62695e-05
3.36871e-05
3.2257e-05
3.18124e-05
3.21565e-05
3.3081e-05
3.43133e-05
3.55209e-05
3.64283e-05
3.69424e-05
3.71482e-05
3.71923e-05
3.71836e-05
3.71711e-05
3.71663e-05
3.71666e-05
3.71677e-05
3.71675e-05
3.71659e-05
3.71643e-05
3.71638e-05
3.71658e-05
3.71712e-05
3.7181e-05
3.71958e-05
3.72165e-05
3.72439e-05
3.72793e-05
3.7324e-05
3.73797e-05
3.74485e-05
3.75332e-05
3.76376e-05
3.77663e-05
3.79255e-05
3.81235e-05
3.83713e-05
3.86845e-05
3.90816e-05
3.96002e-05
4.0257e-05
4.12001e-05
4.22721e-05
4.43642e-05
4.62676e-05
3.55263e-05
3.86639e-05
4.74476e-05
5.37251e-05
4.58091e-05
7.08125e-05
7.52014e-05
7.49173e-05
7.41584e-05
7.40171e-05
7.10775e-05
6.25297e-05
5.21017e-05
4.42342e-05
3.92297e-05
3.55824e-05
3.29761e-05
3.14821e-05
3.09693e-05
3.12576e-05
3.21652e-05
3.3453e-05
3.47982e-05
3.58914e-05
3.65846e-05
3.69266e-05
3.70597e-05
3.71049e-05
3.71247e-05
3.71394e-05
3.71515e-05
3.71598e-05
3.71638e-05
3.71646e-05
3.71641e-05
3.71642e-05
3.71664e-05
3.71719e-05
3.71817e-05
3.71966e-05
3.72174e-05
3.7245e-05
3.72806e-05
3.73256e-05
3.73817e-05
3.7451e-05
3.75365e-05
3.76418e-05
3.77717e-05
3.79325e-05
3.81326e-05
3.83831e-05
3.87e-05
3.91021e-05
3.96277e-05
4.02944e-05
4.12517e-05
4.23428e-05
4.44544e-05
4.6363e-05
3.54529e-05
3.73245e-05
4.54518e-05
5.40936e-05
4.86376e-05
7.21668e-05
8.06463e-05
7.94721e-05
7.87718e-05
7.87293e-05
7.49139e-05
6.46521e-05
5.26808e-05
4.37876e-05
3.85093e-05
3.48299e-05
3.22264e-05
3.07048e-05
3.01532e-05
3.04036e-05
3.12937e-05
3.26184e-05
3.40766e-05
3.53392e-05
3.62076e-05
3.66895e-05
3.69165e-05
3.70196e-05
3.7074e-05
3.71096e-05
3.71343e-05
3.71502e-05
3.71585e-05
3.71618e-05
3.71625e-05
3.71632e-05
3.71656e-05
3.71712e-05
3.7181e-05
3.71959e-05
3.72167e-05
3.72444e-05
3.72801e-05
3.73253e-05
3.73816e-05
3.74512e-05
3.75371e-05
3.7643e-05
3.77736e-05
3.79353e-05
3.81366e-05
3.83887e-05
3.87078e-05
3.91129e-05
3.96425e-05
4.03149e-05
4.12798e-05
4.23814e-05
4.44965e-05
4.63982e-05
3.53842e-05
3.61879e-05
4.34743e-05
5.36855e-05
5.13478e-05
7.24877e-05
8.59156e-05
8.4435e-05
8.39356e-05
8.39955e-05
7.90755e-05
6.69188e-05
5.33921e-05
4.35409e-05
3.78347e-05
3.40451e-05
3.14471e-05
2.99222e-05
2.93555e-05
2.95856e-05
3.04629e-05
3.18122e-05
3.33617e-05
3.47762e-05
3.58136e-05
3.64374e-05
3.6763e-05
3.69276e-05
3.70192e-05
3.70771e-05
3.71154e-05
3.71393e-05
3.71523e-05
3.71582e-05
3.71602e-05
3.71615e-05
3.71642e-05
3.71698e-05
3.71797e-05
3.71945e-05
3.72154e-05
3.72431e-05
3.72789e-05
3.73241e-05
3.73806e-05
3.74505e-05
3.75366e-05
3.76428e-05
3.77739e-05
3.79362e-05
3.81383e-05
3.83914e-05
3.87119e-05
3.91188e-05
3.9651e-05
4.03269e-05
4.1296e-05
4.24032e-05
4.4513e-05
4.64011e-05
3.53209e-05
3.52296e-05
4.15768e-05
5.26707e-05
5.36656e-05
7.23763e-05
9.07266e-05
8.98157e-05
8.96473e-05
8.97742e-05
8.34741e-05
6.92502e-05
5.4179e-05
4.34926e-05
3.72397e-05
3.32627e-05
3.06538e-05
2.91381e-05
2.85728e-05
2.87974e-05
2.96688e-05
3.10356e-05
3.2658e-05
3.42067e-05
3.5405e-05
3.61713e-05
3.65992e-05
3.6829e-05
3.69603e-05
3.70422e-05
3.70949e-05
3.71274e-05
3.71455e-05
3.7154e-05
3.71575e-05
3.71595e-05
3.71625e-05
3.71682e-05
3.71781e-05
3.71929e-05
3.72138e-05
3.72415e-05
3.72774e-05
3.73227e-05
3.73793e-05
3.74493e-05
3.75356e-05
3.76421e-05
3.77735e-05
3.79362e-05
3.81389e-05
3.83928e-05
3.87143e-05
3.91225e-05
3.96564e-05
4.03346e-05
4.1306e-05
4.24161e-05
4.45163e-05
4.63872e-05
3.52634e-05
3.44259e-05
3.98001e-05
5.12083e-05
5.5419e-05
7.22269e-05
9.48278e-05
9.55776e-05
9.58828e-05
9.60077e-05
8.80151e-05
7.15709e-05
5.49915e-05
4.36144e-05
3.67346e-05
3.25106e-05
2.98646e-05
2.83603e-05
2.7806e-05
2.80354e-05
2.89077e-05
3.02885e-05
3.19689e-05
3.36346e-05
3.4984e-05
3.58919e-05
3.64253e-05
3.67238e-05
3.68972e-05
3.70047e-05
3.70728e-05
3.71146e-05
3.7138e-05
3.71496e-05
3.71546e-05
3.71573e-05
3.71606e-05
3.71665e-05
3.71764e-05
3.71913e-05
3.72121e-05
3.72399e-05
3.72758e-05
3.73212e-05
3.73778e-05
3.7448e-05
3.75345e-05
3.76411e-05
3.77728e-05
3.79359e-05
3.8139e-05
3.83935e-05
3.87158e-05
3.91251e-05
3.96603e-05
4.03402e-05
4.13129e-05
4.24244e-05
4.45128e-05
4.6365e-05
3.52117e-05
3.37549e-05
3.81684e-05
4.94398e-05
5.65211e-05
7.2226e-05
9.80608e-05
0.000101584
0.000102589
0.000102616
9.25982e-05
7.38124e-05
5.58674e-05
4.37966e-05
3.63087e-05
3.18059e-05
2.90963e-05
2.75982e-05
2.70583e-05
2.72984e-05
2.81768e-05
2.95702e-05
3.12969e-05
3.30634e-05
3.45533e-05
3.56004e-05
3.62417e-05
3.66119e-05
3.683e-05
3.69646e-05
3.70492e-05
3.71008e-05
3.71299e-05
3.71447e-05
3.71515e-05
3.7155e-05
3.71587e-05
3.71647e-05
3.71746e-05
3.71895e-05
3.72104e-05
3.72382e-05
3.72742e-05
3.73196e-05
3.73763e-05
3.74466e-05
3.75333e-05
3.76401e-05
3.7772e-05
3.79354e-05
3.8139e-05
3.8394e-05
3.87169e-05
3.91271e-05
3.96634e-05
4.03447e-05
4.13181e-05
4.24302e-05
4.45059e-05
4.63389e-05
3.51655e-05
3.31967e-05
3.66934e-05
4.74861e-05
5.69532e-05
7.23928e-05
0.000100386
0.000107603
0.000109664
0.000109481
9.71116e-05
7.59198e-05
5.6793e-05
4.39834e-05
3.59399e-05
3.11549e-05
2.83615e-05
2.68612e-05
2.63345e-05
2.6587e-05
2.74744e-05
2.88796e-05
3.06436e-05
3.24964e-05
3.41153e-05
3.52979e-05
3.60486e-05
3.64935e-05
3.67586e-05
3.6922e-05
3.70241e-05
3.70861e-05
3.71213e-05
3.71396e-05
3.71481e-05
3.71526e-05
3.71566e-05
3.71629e-05
3.71728e-05
3.71878e-05
3.72087e-05
3.72365e-05
3.72725e-05
3.7318e-05
3.73749e-05
3.74452e-05
3.7532e-05
3.76391e-05
3.77712e-05
3.79349e-05
3.81388e-05
3.83943e-05
3.87179e-05
3.91288e-05
3.96661e-05
4.03485e-05
4.13224e-05
4.24346e-05
4.44974e-05
4.63114e-05
3.51246e-05
3.27338e-05
3.53775e-05
4.54468e-05
5.67475e-05
7.26428e-05
0.000101852
0.00011337
0.000116912
0.000116418
0.000101416
7.78525e-05
5.77502e-05
4.41309e-05
3.56018e-05
3.05545e-05
2.76681e-05
2.61569e-05
2.56396e-05
2.59029e-05
2.67995e-05
2.82159e-05
3.00101e-05
3.19362e-05
3.36725e-05
3.49858e-05
3.58465e-05
3.63686e-05
3.66829e-05
3.68767e-05
3.69973e-05
3.70704e-05
3.71122e-05
3.71341e-05
3.71446e-05
3.715e-05
3.71546e-05
3.7161e-05
3.71711e-05
3.7186e-05
3.7207e-05
3.72349e-05
3.72709e-05
3.73165e-05
3.73734e-05
3.74439e-05
3.75308e-05
3.7638e-05
3.77704e-05
3.79343e-05
3.81386e-05
3.83946e-05
3.87187e-05
3.91304e-05
3.96686e-05
4.0352e-05
4.13262e-05
4.24381e-05
4.44883e-05
4.62839e-05
3.50884e-05
3.23513e-05
3.42166e-05
4.34011e-05
5.59717e-05
7.28433e-05
0.000102573
0.000118632
0.000124041
0.000123144
0.000105316
7.97966e-05
5.8556e-05
4.42005e-05
3.52677e-05
2.99964e-05
2.70193e-05
2.5491e-05
2.4978e-05
2.52483e-05
2.61523e-05
2.75782e-05
2.93969e-05
3.13848e-05
3.32271e-05
3.46653e-05
3.56361e-05
3.62375e-05
3.66031e-05
3.68289e-05
3.6969e-05
3.70538e-05
3.71025e-05
3.71282e-05
3.71409e-05
3.71474e-05
3.71524e-05
3.71591e-05
3.71693e-05
3.71843e-05
3.72053e-05
3.72332e-05
3.72693e-05
3.73149e-05
3.73719e-05
3.74425e-05
3.75296e-05
3.7637e-05
3.77695e-05
3.79338e-05
3.81384e-05
3.83948e-05
3.87195e-05
3.91319e-05
3.96709e-05
4.03553e-05
4.13296e-05
4.2441e-05
4.4479e-05
4.62569e-05
3.50566e-05
3.2036e-05
3.32023e-05
4.14091e-05
5.4715e-05
7.28542e-05
0.000102685
0.000123162
0.000130747
0.000129175
0.000108963
8.16101e-05
5.91516e-05
4.41625e-05
3.49147e-05
2.94693e-05
2.64144e-05
2.48667e-05
2.43531e-05
2.46254e-05
2.55331e-05
2.6966e-05
2.88043e-05
3.08441e-05
3.27812e-05
3.43379e-05
3.54177e-05
3.61001e-05
3.65192e-05
3.67784e-05
3.6939e-05
3.70362e-05
3.70922e-05
3.71221e-05
3.7137e-05
3.71446e-05
3.71502e-05
3.71571e-05
3.71674e-05
3.71825e-05
3.72036e-05
3.72316e-05
3.72677e-05
3.73134e-05
3.73705e-05
3.74412e-05
3.75284e-05
3.76359e-05
3.77687e-05
3.79332e-05
3.81382e-05
3.8395e-05
3.87202e-05
3.91333e-05
3.96731e-05
4.03584e-05
4.13327e-05
4.24436e-05
4.44697e-05
4.62308e-05
3.50287e-05
3.17769e-05
3.23237e-05
3.95147e-05
5.30764e-05
7.25535e-05
0.00010232
0.000126787
0.000136761
0.000134416
0.00011218
8.3067e-05
5.95015e-05
4.39958e-05
3.45247e-05
2.89619e-05
2.58502e-05
2.4285e-05
2.37672e-05
2.40362e-05
2.49426e-05
2.63792e-05
2.82324e-05
3.03154e-05
3.23367e-05
3.40051e-05
3.51923e-05
3.5957e-05
3.64312e-05
3.67253e-05
3.69075e-05
3.70177e-05
3.70813e-05
3.71156e-05
3.71329e-05
3.71417e-05
3.7148e-05
3.71552e-05
3.71656e-05
3.71808e-05
3.72019e-05
3.72299e-05
3.72661e-05
3.73119e-05
3.73691e-05
3.74399e-05
3.75272e-05
3.76349e-05
3.77679e-05
3.79327e-05
3.8138e-05
3.83952e-05
3.87209e-05
3.91347e-05
3.96751e-05
4.03613e-05
4.13357e-05
4.24459e-05
4.44607e-05
4.62057e-05
3.50043e-05
3.15647e-05
3.15684e-05
3.77474e-05
5.11565e-05
7.18522e-05
0.000101579
0.000129399
0.000141845
0.00013878
0.000114803
8.40855e-05
5.95797e-05
4.36863e-05
3.40848e-05
2.84643e-05
2.53221e-05
2.37455e-05
2.32212e-05
2.3482e-05
2.43817e-05
2.58175e-05
2.76812e-05
2.97998e-05
3.18955e-05
3.36681e-05
3.49604e-05
3.58082e-05
3.63392e-05
3.66696e-05
3.68743e-05
3.69982e-05
3.70699e-05
3.71088e-05
3.71286e-05
3.71388e-05
3.71457e-05
3.71532e-05
3.71638e-05
3.71791e-05
3.72002e-05
3.72283e-05
3.72646e-05
3.73104e-05
3.73677e-05
3.74386e-05
3.75261e-05
3.76339e-05
3.77671e-05
3.79321e-05
3.81377e-05
3.83953e-05
3.87216e-05
3.91359e-05
3.96771e-05
4.0364e-05
4.13384e-05
4.24479e-05
4.44519e-05
4.61817e-05
3.49829e-05
3.13914e-05
3.09235e-05
3.61252e-05
4.90506e-05
7.07009e-05
0.000100522
0.000130956
0.000145814
0.000142176
0.000116715
8.46172e-05
5.93683e-05
4.3226e-05
3.35873e-05
2.79686e-05
2.48254e-05
2.32462e-05
2.27149e-05
2.29633e-05
2.38509e-05
2.52812e-05
2.71508e-05
2.92981e-05
3.14589e-05
3.33284e-05
3.47228e-05
3.56541e-05
3.62434e-05
3.66114e-05
3.68395e-05
3.69777e-05
3.70578e-05
3.71016e-05
3.71241e-05
3.71357e-05
3.71433e-05
3.71512e-05
3.71619e-05
3.71773e-05
3.71985e-05
3.72267e-05
3.7263e-05
3.7309e-05
3.73663e-05
3.74373e-05
3.75249e-05
3.76329e-05
3.77663e-05
3.79316e-05
3.81375e-05
3.83955e-05
3.87222e-05
3.91371e-05
3.9679e-05
4.03666e-05
4.13409e-05
4.24497e-05
4.44433e-05
4.61589e-05
3.49643e-05
3.12504e-05
3.03766e-05
3.4657e-05
4.68447e-05
6.90895e-05
9.91644e-05
0.000131479
0.000148545
0.00014452
0.000117838
8.46294e-05
5.88576e-05
4.26131e-05
3.30289e-05
2.74696e-05
2.43557e-05
2.27848e-05
2.22476e-05
2.24802e-05
2.33505e-05
2.47701e-05
2.66411e-05
2.88109e-05
3.10283e-05
3.29872e-05
3.44804e-05
3.54951e-05
3.61439e-05
3.65507e-05
3.68032e-05
3.69563e-05
3.70452e-05
3.70941e-05
3.71194e-05
3.71325e-05
3.71409e-05
3.71491e-05
3.71601e-05
3.71756e-05
3.71969e-05
3.72251e-05
3.72615e-05
3.73075e-05
3.7365e-05
3.74361e-05
3.75238e-05
3.7632e-05
3.77655e-05
3.7931e-05
3.81372e-05
3.83956e-05
3.87227e-05
3.91383e-05
3.96808e-05
4.03691e-05
4.13433e-05
4.24513e-05
4.44351e-05
4.61371e-05
3.49481e-05
3.11362e-05
2.99155e-05
3.33441e-05
4.46128e-05
6.7043e-05
9.74914e-05
0.000131037
0.000149985
0.000145753
0.000118124
8.41041e-05
5.80464e-05
4.18509e-05
3.24105e-05
2.69645e-05
2.39093e-05
2.23585e-05
2.18176e-05
2.20323e-05
2.28807e-05
2.42844e-05
2.6152e-05
2.83386e-05
3.06049e-05
3.26457e-05
3.42338e-05
3.53316e-05
3.60409e-05
3.64876e-05
3.67654e-05
3.69339e-05
3.70321e-05
3.70863e-05
3.71145e-05
3.71292e-05
3.71384e-05
3.71471e-05
3.71582e-05
3.71738e-05
3.71952e-05
3.72235e-05
3.726e-05
3.73061e-05
3.73636e-05
3.74349e-05
3.75227e-05
3.7631e-05
3.77648e-05
3.79305e-05
3.8137e-05
3.83957e-05
3.87233e-05
3.91393e-05
3.96825e-05
4.03714e-05
4.13455e-05
4.24527e-05
4.44272e-05
4.61165e-05
3.49339e-05
3.1044e-05
2.95292e-05
3.21829e-05
4.24162e-05
6.46144e-05
9.54674e-05
0.000129725
0.000150146
0.000145856
0.000117559
8.30387e-05
5.69417e-05
4.09476e-05
3.17362e-05
2.64528e-05
2.34834e-05
2.19645e-05
2.14231e-05
2.16184e-05
2.24411e-05
2.38241e-05
2.56836e-05
2.78815e-05
3.01895e-05
3.23052e-05
3.3984e-05
3.5164e-05
3.59344e-05
3.64222e-05
3.6726e-05
3.69106e-05
3.70184e-05
3.70781e-05
3.71095e-05
3.71258e-05
3.71359e-05
3.7145e-05
3.71564e-05
3.71721e-05
3.71936e-05
3.7222e-05
3.72586e-05
3.73047e-05
3.73623e-05
3.74337e-05
3.75217e-05
3.76301e-05
3.7764e-05
3.793e-05
3.81367e-05
3.83957e-05
3.87238e-05
3.91404e-05
3.96841e-05
4.03736e-05
4.13476e-05
4.24539e-05
4.44195e-05
4.60969e-05
3.49215e-05
3.09701e-05
2.92074e-05
3.11657e-05
4.03031e-05
6.18764e-05
9.3053e-05
0.000127647
0.000149098
0.000144854
0.000116152
8.14449e-05
5.55585e-05
3.99159e-05
3.10131e-05
2.5936e-05
2.30763e-05
2.16003e-05
2.10618e-05
2.12374e-05
2.20312e-05
2.3389e-05
2.52356e-05
2.744e-05
2.9783e-05
3.19665e-05
3.37317e-05
3.49926e-05
3.58248e-05
3.63545e-05
3.66851e-05
3.68864e-05
3.70041e-05
3.70696e-05
3.71042e-05
3.71223e-05
3.71333e-05
3.71429e-05
3.71545e-05
3.71704e-05
3.7192e-05
3.72205e-05
3.72571e-05
3.73034e-05
3.73611e-05
3.74325e-05
3.75206e-05
3.76292e-05
3.77633e-05
3.79294e-05
3.81364e-05
3.83958e-05
3.87242e-05
3.91413e-05
3.96856e-05
4.03757e-05
4.13495e-05
4.2455e-05
4.44122e-05
4.60785e-05
3.49107e-05
3.0911e-05
2.89411e-05
3.02827e-05
3.83091e-05
5.8913e-05
9.02185e-05
0.0001249
0.000146955
0.000142812
0.000113939
7.9348e-05
5.39194e-05
3.87723e-05
3.02502e-05
2.54168e-05
2.26869e-05
2.12637e-05
2.07316e-05
2.08875e-05
2.16503e-05
2.29788e-05
2.48081e-05
2.7014e-05
2.93859e-05
3.16307e-05
3.34776e-05
3.4818e-05
3.57123e-05
3.62847e-05
3.66429e-05
3.68613e-05
3.69893e-05
3.70608e-05
3.70988e-05
3.71188e-05
3.71307e-05
3.71407e-05
3.71527e-05
3.71687e-05
3.71904e-05
3.7219e-05
3.72557e-05
3.7302e-05
3.73598e-05
3.74314e-05
3.75196e-05
3.76283e-05
3.77626e-05
3.79289e-05
3.81362e-05
3.83958e-05
3.87247e-05
3.91422e-05
3.9687e-05
4.03777e-05
4.13513e-05
4.2456e-05
4.44053e-05
4.60611e-05
3.49013e-05
3.08643e-05
2.87221e-05
2.95225e-05
3.64591e-05
5.58122e-05
8.69542e-05
0.000121557
0.000143851
0.00013982
0.000110968
7.67844e-05
5.20534e-05
3.75362e-05
2.94584e-05
2.48991e-05
2.2315e-05
2.09524e-05
2.04303e-05
2.05672e-05
2.12973e-05
2.25931e-05
2.44008e-05
2.66037e-05
2.89989e-05
3.12986e-05
3.32226e-05
3.46406e-05
3.5597e-05
3.62128e-05
3.65993e-05
3.68353e-05
3.6974e-05
3.70518e-05
3.70933e-05
3.71151e-05
3.7128e-05
3.71386e-05
3.71508e-05
3.7167e-05
3.71888e-05
3.72175e-05
3.72543e-05
3.73007e-05
3.73586e-05
3.74303e-05
3.75186e-05
3.76275e-05
3.77619e-05
3.79284e-05
3.81359e-05
3.83959e-05
3.87251e-05
3.91431e-05
3.96883e-05
4.03795e-05
4.13529e-05
4.24568e-05
4.43986e-05
4.60447e-05
3.4893e-05
3.08275e-05
2.85432e-05
2.88731e-05
3.47679e-05
5.26589e-05
8.32769e-05
0.000117667
0.000139923
0.000135977
0.000107298
7.37994e-05
4.99954e-05
3.62297e-05
2.86494e-05
2.43875e-05
2.19607e-05
2.06649e-05
2.01557e-05
2.02745e-05
2.0971e-05
2.22313e-05
2.40135e-05
2.6209e-05
2.86223e-05
3.09709e-05
3.29672e-05
3.44608e-05
3.54792e-05
3.61389e-05
3.65543e-05
3.68085e-05
3.69582e-05
3.70424e-05
3.70875e-05
3.71114e-05
3.71253e-05
3.71365e-05
3.7149e-05
3.71654e-05
3.71873e-05
3.7216e-05
3.72529e-05
3.72995e-05
3.73575e-05
3.74292e-05
3.75176e-05
3.76266e-05
3.77612e-05
3.79279e-05
3.81356e-05
3.83959e-05
3.87254e-05
3.91438e-05
3.96895e-05
4.03812e-05
4.13544e-05
4.24576e-05
4.43923e-05
4.60294e-05
3.48858e-05
3.07988e-05
2.83982e-05
2.83226e-05
3.32424e-05
4.95309e-05
7.92314e-05
0.000113258
0.000135285
0.000131373
0.000102987
7.04463e-05
4.77847e-05
3.48764e-05
2.78354e-05
2.38868e-05
2.16245e-05
2.03997e-05
1.99059e-05
2.00078e-05
2.06702e-05
2.18927e-05
2.36458e-05
2.58299e-05
2.82565e-05
3.06483e-05
3.27123e-05
3.42791e-05
3.53591e-05
3.60633e-05
3.65082e-05
3.6781e-05
3.6942e-05
3.70328e-05
3.70816e-05
3.71075e-05
3.71226e-05
3.71343e-05
3.71471e-05
3.71637e-05
3.71857e-05
3.72146e-05
3.72516e-05
3.72982e-05
3.73563e-05
3.74281e-05
3.75167e-05
3.76258e-05
3.77605e-05
3.79274e-05
3.81354e-05
3.83959e-05
3.87257e-05
3.91446e-05
3.96907e-05
4.03828e-05
4.13558e-05
4.24582e-05
4.43863e-05
4.60151e-05
3.48795e-05
3.07768e-05
2.82817e-05
2.78592e-05
3.18829e-05
4.6495e-05
7.4888e-05
0.000108351
0.000130022
0.000126073
9.80911e-05
6.67855e-05
4.54646e-05
3.35008e-05
2.70286e-05
2.34017e-05
2.1307e-05
2.01555e-05
1.9679e-05
1.97652e-05
2.03935e-05
2.15766e-05
2.32975e-05
2.54663e-05
2.79016e-05
3.03315e-05
3.24584e-05
3.40959e-05
3.5237e-05
3.5986e-05
3.64608e-05
3.67526e-05
3.69253e-05
3.70229e-05
3.70756e-05
3.71036e-05
3.71198e-05
3.71322e-05
3.71453e-05
3.71621e-05
3.71842e-05
3.72132e-05
3.72503e-05
3.7297e-05
3.73552e-05
3.74271e-05
3.75158e-05
3.7625e-05
3.77599e-05
3.7927e-05
3.81351e-05
3.83959e-05
3.8726e-05
3.91452e-05
3.96917e-05
4.03842e-05
4.1357e-05
4.24587e-05
4.43807e-05
4.60018e-05
3.4874e-05
3.07601e-05
2.81889e-05
2.74722e-05
3.06846e-05
4.36058e-05
7.03364e-05
0.000102966
0.000124182
0.000120117
9.26714e-05
6.28856e-05
4.30809e-05
3.21274e-05
2.62406e-05
2.29366e-05
2.1009e-05
1.99312e-05
1.94732e-05
1.9545e-05
2.01395e-05
2.12819e-05
2.2968e-05
2.5118e-05
2.75579e-05
3.00208e-05
3.22062e-05
3.39117e-05
3.51132e-05
3.59072e-05
3.64124e-05
3.67236e-05
3.69081e-05
3.70127e-05
3.70695e-05
3.70997e-05
3.7117e-05
3.713e-05
3.71435e-05
3.71605e-05
3.71828e-05
3.72119e-05
3.7249e-05
3.72959e-05
3.73541e-05
3.74261e-05
3.75149e-05
3.76243e-05
3.77593e-05
3.79265e-05
3.81348e-05
3.83958e-05
3.87263e-05
3.91458e-05
3.96927e-05
4.03856e-05
4.13582e-05
4.24592e-05
4.43754e-05
4.59895e-05
3.48692e-05
3.07476e-05
2.81158e-05
2.71513e-05
2.96393e-05
4.09043e-05
6.56785e-05
9.71464e-05
0.000117786
0.000113526
8.67982e-05
5.88235e-05
4.06812e-05
3.07798e-05
2.54817e-05
2.24955e-05
2.07309e-05
1.97258e-05
1.92871e-05
1.93456e-05
1.9907e-05
2.10079e-05
2.26568e-05
2.47849e-05
2.72254e-05
2.97167e-05
3.19561e-05
3.3727e-05
3.49879e-05
3.58269e-05
3.63629e-05
3.66939e-05
3.68906e-05
3.70024e-05
3.70632e-05
3.70956e-05
3.71142e-05
3.71278e-05
3.71417e-05
3.71589e-05
3.71813e-05
3.72105e-05
3.72478e-05
3.72947e-05
3.73531e-05
3.74252e-05
3.75141e-05
3.76235e-05
3.77587e-05
3.79261e-05
3.81346e-05
3.83958e-05
3.87265e-05
3.91464e-05
3.96936e-05
4.03868e-05
4.13592e-05
4.24596e-05
4.43704e-05
4.59782e-05
3.4865e-05
3.07386e-05
2.80589e-05
2.68875e-05
2.8736e-05
3.84187e-05
6.10193e-05
9.09583e-05
0.000110852
0.000106326
8.05633e-05
5.46843e-05
3.83129e-05
2.94797e-05
2.47612e-05
2.20815e-05
2.04732e-05
1.95385e-05
1.91192e-05
1.91654e-05
1.96944e-05
2.07535e-05
2.23635e-05
2.44667e-05
2.69042e-05
2.94195e-05
3.17087e-05
3.35421e-05
3.48614e-05
3.57455e-05
3.63125e-05
3.66636e-05
3.68727e-05
3.69918e-05
3.70568e-05
3.70916e-05
3.71114e-05
3.71257e-05
3.71399e-05
3.71573e-05
3.71799e-05
3.72092e-05
3.72466e-05
3.72936e-05
3.73521e-05
3.74243e-05
3.75133e-05
3.76228e-05
3.77581e-05
3.79256e-05
3.81343e-05
3.83957e-05
3.87267e-05
3.91469e-05
3.96944e-05
4.0388e-05
4.13601e-05
4.24599e-05
4.43658e-05
4.59679e-05
3.48612e-05
3.07324e-05
2.80153e-05
2.66723e-05
2.79626e-05
3.61657e-05
5.64596e-05
8.45008e-05
0.000103417
9.85691e-05
7.40876e-05
5.056e-05
3.60216e-05
2.82464e-05
2.40863e-05
2.16969e-05
2.02362e-05
1.93685e-05
1.89682e-05
1.90029e-05
1.95004e-05
2.05177e-05
2.20873e-05
2.4163e-05
2.65943e-05
2.91297e-05
3.14645e-05
3.33575e-05
3.4734e-05
3.56629e-05
3.62613e-05
3.66327e-05
3.68544e-05
3.6981e-05
3.70503e-05
3.70875e-05
3.71086e-05
3.71236e-05
3.71382e-05
3.71558e-05
3.71786e-05
3.7208e-05
3.72455e-05
3.72926e-05
3.73511e-05
3.74234e-05
3.75125e-05
3.76222e-05
3.77575e-05
3.79252e-05
3.8134e-05
3.83957e-05
3.87269e-05
3.91473e-05
3.96952e-05
4.0389e-05
4.13609e-05
4.24602e-05
4.43615e-05
4.59586e-05
3.4858e-05
3.07282e-05
2.79826e-05
2.64983e-05
2.73062e-05
3.41512e-05
5.20891e-05
7.79e-05
9.55576e-05
9.0367e-05
6.75234e-05
4.65449e-05
3.38484e-05
2.70956e-05
2.34626e-05
2.13436e-05
2.00198e-05
1.92149e-05
1.88328e-05
1.88567e-05
1.93236e-05
2.02994e-05
2.18276e-05
2.38736e-05
2.62956e-05
2.88473e-05
3.12238e-05
3.31735e-05
3.46059e-05
3.55794e-05
3.62093e-05
3.66014e-05
3.68358e-05
3.697e-05
3.70437e-05
3.70833e-05
3.71058e-05
3.71214e-05
3.71364e-05
3.71543e-05
3.71772e-05
3.72068e-05
3.72444e-05
3.72915e-05
3.73502e-05
3.74226e-05
3.75117e-05
3.76215e-05
3.7757e-05
3.79248e-05
3.81338e-05