/*--------------------------------*- C++ -*----------------------------------*\
| =========                 |                                                 |
| \\      /  F ield         | OpenFOAM: The Open Source CFD Toolbox           |
|  \\    /   O peration     | Version:  2.4.0                                 |
|   \\  /    A nd           | Web:      www.OpenFOAM.org                      |
|    \\/     M anipulation  |                                                 |
\*---------------------------------------------------------------------------*/
FoamFile
{
    version     2.0;
    format      ascii;
    class       volScalarField;
    location    "1.4";
    object      p;
}
// * * * * * * * * * * * * * * * * * * * * * * * * * * * * * * * * * * * * * //

dimensions      [0 2 -2 0 0 0 0];

internalField   nonuniform List<scalar> 
5625
(
0.218614
0.237605
0.278245
0.304485
0.324809
0.34053
0.353169
0.363491
0.372085
0.379344
0.385563
0.390962
0.395704
0.399879
0.40361
0.407168
0.410876
0.41459
0.417602
0.418753
0.417146
0.412759
0.406737
0.401427
0.399785
0.404068
0.414954
0.43081
0.44894
0.466804
0.482708
0.495767
0.506006
0.513664
0.519319
0.523327
0.52622
0.528158
0.529516
0.530281
0.53073
0.530733
0.530535
0.529915
0.529145
0.527922
0.526587
0.524743
0.522834
0.52034
0.517836
0.514638
0.511489
0.507486
0.503602
0.498636
0.493865
0.487704
0.481823
0.474138
0.466821
0.457136
0.44791
0.435531
0.423686
0.407565
0.39201
0.370488
0.349482
0.319775
0.290416
0.247374
0.204547
0.13671
0.0708389
0.22765
0.239765
0.278679
0.304474
0.324671
0.340372
0.353012
0.363342
0.371947
0.379217
0.385447
0.390855
0.395607
0.399792
0.403527
0.407076
0.410749
0.414449
0.417512
0.41877
0.417335
0.413085
0.407114
0.401723
0.399886
0.40397
0.41468
0.430276
0.448412
0.466338
0.48233
0.495477
0.505789
0.513505
0.519202
0.52324
0.526151
0.528102
0.529466
0.530235
0.530686
0.530689
0.530488
0.529865
0.529091
0.527861
0.526519
0.524666
0.522747
0.52024
0.517724
0.51451
0.511345
0.507329
0.503419
0.498445
0.493639
0.487475
0.481546
0.473856
0.466482
0.456786
0.447493
0.435093
0.423174
0.407014
0.391372
0.369786
0.348663
0.318864
0.289339
0.246159
0.203064
0.134995
0.0684171
0.233151
0.2415
0.279028
0.304507
0.324607
0.340275
0.352907
0.363239
0.371849
0.379126
0.385362
0.390777
0.395537
0.399731
0.403467
0.406998
0.410652
0.414363
0.417487
0.418857
0.417551
0.41338
0.407381
0.401829
0.399752
0.403601
0.414167
0.429764
0.447971
0.466003
0.482095
0.495319
0.505685
0.513432
0.519149
0.523196
0.526114
0.528066
0.529431
0.530199
0.530649
0.530649
0.530448
0.529821
0.529045
0.52781
0.526464
0.524604
0.522679
0.520163
0.51764
0.514414
0.511241
0.507206
0.50329
0.498287
0.493475
0.48727
0.481337
0.473597
0.466214
0.456465
0.447147
0.434693
0.422719
0.406498
0.390775
0.369115
0.347892
0.317974
0.288305
0.244945
0.201603
0.133273
0.0660002
0.23566
0.242988
0.279305
0.304537
0.324556
0.340201
0.352827
0.36316
0.371773
0.379055
0.385296
0.390716
0.395481
0.39968
0.403412
0.406925
0.410556
0.414293
0.417509
0.419017
0.417842
0.413701
0.407578
0.401755
0.399359
0.402968
0.413382
0.429099
0.447471
0.465677
0.481909
0.495224
0.505641
0.513409
0.519135
0.523181
0.526095
0.528042
0.529403
0.530167
0.530613
0.530609
0.530405
0.529773
0.528994
0.527752
0.526403
0.524533
0.522603
0.520075
0.517544
0.514304
0.511123
0.50707
0.503145
0.498121
0.493296
0.487066
0.481116
0.473343
0.465939
0.456142
0.446804
0.434281
0.422289
0.405987
0.390222
0.368468
0.347153
0.317125
0.28732
0.243799
0.200234
0.131696
0.0640045
0.237351
0.244547
0.279586
0.304559
0.324505
0.340136
0.352759
0.363094
0.371711
0.378997
0.385241
0.390665
0.395435
0.399637
0.40336
0.406851
0.41046
0.414236
0.41757
0.419244
0.418201
0.41405
0.407717
0.401527
0.398749
0.40211
0.412449
0.4283
0.446898
0.465327
0.48173
0.495149
0.505621
0.513407
0.519134
0.523174
0.526079
0.528017
0.529371
0.530127
0.530569
0.530559
0.530352
0.529714
0.528932
0.527682
0.526328
0.524447
0.522512
0.519971
0.517434
0.514178
0.510989
0.506919
0.502982
0.497937
0.4931
0.486844
0.480878
0.473074
0.465649
0.455813
0.446446
0.433873
0.421842
0.405464
0.389656
0.367788
0.346425
0.316252
0.286341
0.242646
0.198876
0.130243
0.0621736
0.239082
0.24619
0.279886
0.304566
0.324443
0.34007
0.352696
0.363037
0.371658
0.378948
0.385196
0.390623
0.395397
0.399601
0.403314
0.406781
0.410372
0.414195
0.417667
0.419528
0.418616
0.414411
0.407796
0.401167
0.397965
0.401078
0.41137
0.427394
0.446264
0.464951
0.481543
0.495078
0.505604
0.513407
0.519132
0.523162
0.526056
0.527981
0.529327
0.530074
0.530512
0.530495
0.530285
0.52964
0.528854
0.527596
0.526237
0.524346
0.522405
0.519851
0.517307
0.514036
0.510839
0.506751
0.502805
0.497739
0.49289
0.486607
0.480627
0.472789
0.465345
0.455468
0.446075
0.433451
0.421384
0.404941
0.389082
0.367131
0.345692
0.315396
0.285381
0.241529
0.197578
0.128906
0.0604696
0.240925
0.247853
0.280205
0.304553
0.324358
0.339991
0.352629
0.362981
0.371611
0.378907
0.385159
0.390589
0.395366
0.399573
0.403275
0.406717
0.410292
0.41417
0.417795
0.419858
0.41907
0.414774
0.40782
0.400707
0.397057
0.399929
0.410184
0.42641
0.445581
0.464546
0.481341
0.494996
0.505579
0.513397
0.519118
0.523136
0.526017
0.52793
0.529266
0.530005
0.530437
0.530414
0.5302
0.529549
0.52876
0.527494
0.52613
0.524229
0.522282
0.519716
0.517165
0.513879
0.510675
0.506568
0.502614
0.497525
0.492666
0.486356
0.480362
0.472491
0.46503
0.455111
0.445695
0.433017
0.420919
0.404408
0.388504
0.366464
0.344958
0.314546
0.28443
0.24044
0.19631
0.127649
0.0588962
0.242811
0.249507
0.280542
0.304516
0.324238
0.339886
0.352547
0.362919
0.371563
0.378868
0.385127
0.39056
0.395342
0.39955
0.403244
0.406662
0.41022
0.414161
0.417948
0.420214
0.41954
0.41513
0.407801
0.400182
0.396077
0.398718
0.408938
0.42538
0.444867
0.464115
0.481119
0.494895
0.505533
0.513366
0.519083
0.523089
0.525957
0.527859
0.529187
0.529917
0.530344
0.530315
0.530098
0.529441
0.528649
0.527375
0.526007
0.524096
0.522143
0.519565
0.517008
0.513707
0.510496
0.506371
0.502409
0.497298
0.49243
0.486092
0.480087
0.472181
0.464705
0.454743
0.445308
0.432575
0.42045
0.403867
0.387925
0.365792
0.344229
0.313699
0.283488
0.239368
0.195072
0.12647
0.0574463
0.244693
0.251142
0.280898
0.30446
0.324079
0.339745
0.352439
0.36284
0.371506
0.378826
0.385094
0.390534
0.395321
0.399532
0.403219
0.406618
0.410177
0.414166
0.41811
0.420575
0.420006
0.415462
0.407757
0.399627
0.395077
0.397488
0.407686
0.424344
0.444132
0.463666
0.480874
0.494768
0.505459
0.513307
0.51902
0.523016
0.525874
0.527766
0.529086
0.52981
0.530232
0.530198
0.529979
0.529316
0.528521
0.527239
0.525869
0.523947
0.521991
0.519399
0.516837
0.513521
0.510305
0.506162
0.502193
0.49706
0.492184
0.485818
0.479803
0.471863
0.464374
0.454368
0.444916
0.432127
0.419978
0.403324
0.387346
0.365121
0.343505
0.312858
0.282561
0.23832
0.193866
0.125369
0.0561097
0.246541
0.252748
0.281272
0.304387
0.323881
0.339562
0.352296
0.362737
0.371433
0.378774
0.385057
0.390506
0.3953
0.399516
0.403201
0.406587
0.410142
0.414156
0.418206
0.420917
0.420443
0.415763
0.407687
0.399087
0.394105
0.396225
0.406472
0.423331
0.443408
0.463212
0.480611
0.494614
0.505355
0.513216
0.518927
0.522915
0.525765
0.527649
0.528964
0.529683
0.530103
0.530063
0.529843
0.529174
0.528378
0.527089
0.525716
0.523785
0.521825
0.519222
0.516656
0.513325
0.510104
0.505943
0.501969
0.496813
0.49193
0.485537
0.479514
0.471539
0.464039
0.453989
0.444521
0.431677
0.419507
0.402781
0.386772
0.364455
0.34279
0.31203
0.28165
0.237301
0.192694
0.124341
0.0548773
0.248331
0.254314
0.281659
0.304306
0.323648
0.339336
0.352112
0.362601
0.371336
0.378706
0.38501
0.390473
0.395275
0.399499
0.403187
0.406569
0.41012
0.414173
0.418344
0.421219
0.420829
0.416022
0.407613
0.398583
0.393209
0.395033
0.405345
0.422384
0.442722
0.462768
0.480336
0.494434
0.505217
0.51309
0.518801
0.522784
0.52563
0.52751
0.528823
0.529538
0.529956
0.529913
0.529692
0.529019
0.528222
0.526927
0.525551
0.523612
0.521649
0.519034
0.516465
0.51312
0.509896
0.505717
0.501739
0.496561
0.491673
0.485252
0.479222
0.471212
0.463703
0.453608
0.444128
0.431227
0.419039
0.402241
0.386205
0.363797
0.342087
0.311217
0.280758
0.236315
0.191558
0.123382
0.0537411
0.250044
0.255831
0.282058
0.30422
0.323386
0.339068
0.351887
0.362429
0.37121
0.378617
0.384947
0.390428
0.395244
0.399478
0.403176
0.406561
0.410114
0.414196
0.418456
0.421461
0.421141
0.416228
0.407541
0.398144
0.392432
0.394039
0.404354
0.421544
0.442102
0.46235
0.480056
0.49423
0.505046
0.51293
0.518642
0.522623
0.52547
0.527349
0.528662
0.529376
0.529794
0.529749
0.529528
0.528851
0.528054
0.526753
0.525377
0.523429
0.521465
0.518839
0.516268
0.51291
0.509682
0.505486
0.501505
0.496305
0.491413
0.484965
0.478929
0.470884
0.463368
0.45323
0.443739
0.430782
0.418577
0.401709
0.385647
0.36315
0.341397
0.310424
0.279887
0.235362
0.19046
0.122488
0.0526935
0.251671
0.25729
0.282462
0.304136
0.323105
0.338764
0.351621
0.362218
0.371051
0.378501
0.384865
0.39037
0.395201
0.39945
0.403164
0.406562
0.410122
0.414219
0.418532
0.421627
0.421361
0.41637
0.407473
0.397792
0.39181
0.393242
0.403543
0.420847
0.441574
0.461973
0.47978
0.494006
0.504845
0.512735
0.518451
0.522435
0.525285
0.527168
0.528485
0.5292
0.52962
0.529573
0.529353
0.528673
0.527877
0.526571
0.525195
0.52324
0.521274
0.518639
0.516067
0.512695
0.509466
0.505253
0.50127
0.496049
0.491153
0.484678
0.478638
0.470559
0.463036
0.452855
0.443355
0.430343
0.418124
0.401187
0.385101
0.362518
0.340724
0.309652
0.279039
0.234446
0.1894
0.121654
0.0517278
0.25321
0.258688
0.28287
0.304058
0.322813
0.338434
0.351319
0.36197
0.370859
0.378356
0.384759
0.390293
0.395145
0.399411
0.403147
0.406567
0.410138
0.414237
0.418566
0.421705
0.421473
0.416439
0.407411
0.397544
0.391371
0.392672
0.40295
0.420329
0.441163
0.461655
0.479516
0.493767
0.504615
0.512509
0.51823
0.522219
0.525079
0.526969
0.528294
0.529012
0.529436
0.529389
0.529171
0.528488
0.527693
0.526383
0.525007
0.523045
0.52108
0.518436
0.515863
0.512479
0.509249
0.50502
0.501035
0.495794
0.490896
0.484394
0.47835
0.470238
0.46271
0.452486
0.442978
0.429913
0.417681
0.400677
0.384569
0.361904
0.340068
0.308906
0.278215
0.233568
0.18838
0.120877
0.0508377
0.25466
0.260021
0.283278
0.30399
0.322519
0.338085
0.350989
0.36169
0.370634
0.378183
0.384628
0.390195
0.395072
0.399361
0.403124
0.406572
0.410157
0.414244
0.418553
0.421688
0.42147
0.416429
0.407356
0.397409
0.391137
0.392357
0.402609
0.420015
0.440889
0.461406
0.479273
0.493518
0.504361
0.512253
0.517981
0.52198
0.524853
0.526754
0.52809
0.528814
0.529244
0.529197
0.528983
0.528298
0.527505
0.52619
0.524816
0.522848
0.520884
0.518231
0.515659
0.512263
0.509033
0.504789
0.500804
0.495542
0.490643
0.484115
0.478069
0.469924
0.462391
0.452127
0.442611
0.429494
0.41725
0.400181
0.384051
0.361308
0.339432
0.308186
0.277418
0.232728
0.187402
0.120153
0.0500172
0.256024
0.26129
0.283683
0.303934
0.32223
0.337727
0.350639
0.361384
0.370382
0.377982
0.384472
0.390076
0.394982
0.399296
0.403091
0.406572
0.410172
0.414234
0.418488
0.421575
0.42135
0.416339
0.407309
0.397394
0.391119
0.392316
0.40254
0.419924
0.440766
0.461238
0.479057
0.493264
0.504086
0.511972
0.517707
0.521719
0.524609
0.526525
0.527876
0.528608
0.529047
0.529002
0.528792
0.528105
0.527315
0.525996
0.524624
0.522651
0.520688
0.518027
0.515456
0.51205
0.50882
0.504562
0.500576
0.495295
0.490395
0.483842
0.477794
0.469617
0.462081
0.451777
0.442254
0.429088
0.416832
0.399701
0.383549
0.360733
0.338817
0.307494
0.27665
0.231926
0.186465
0.119478
0.0492613
0.257306
0.262494
0.284083
0.30389
0.321951
0.337369
0.350278
0.361059
0.370107
0.377758
0.384295
0.389937
0.394874
0.399217
0.403046
0.406563
0.410176
0.414201
0.418368
0.421366
0.421117
0.416171
0.407273
0.397501
0.391325
0.392558
0.402755
0.420067
0.440801
0.461157
0.478875
0.493011
0.503796
0.511671
0.517412
0.52144
0.524351
0.526286
0.527654
0.528398
0.528846
0.528804
0.528599
0.527911
0.527124
0.525802
0.524433
0.522454
0.520494
0.517825
0.515256
0.51184
0.508612
0.504339
0.500354
0.495054
0.490153
0.483577
0.477527
0.46932
0.461781
0.451438
0.44191
0.428695
0.416428
0.399238
0.383066
0.36018
0.338224
0.306831
0.27591
0.231163
0.185571
0.11885
0.0485651
0.258507
0.263635
0.284477
0.303861
0.321687
0.337017
0.349915
0.360724
0.369817
0.377516
0.384098
0.389781
0.394749
0.399123
0.402989
0.406542
0.410165
0.414138
0.418192
0.421068
0.420781
0.415934
0.407252
0.397732
0.391755
0.393084
0.403254
0.420444
0.440996
0.461164
0.478728
0.492762
0.503494
0.511352
0.517102
0.521148
0.524083
0.526039
0.527427
0.528184
0.528644
0.528607
0.528407
0.527718
0.526934
0.52561
0.524243
0.52226
0.520302
0.517627
0.51506
0.511634
0.508408
0.504122
0.500138
0.494821
0.48992
0.483321
0.47727
0.469034
0.461491
0.451112
0.441578
0.428318
0.416039
0.398794
0.3826
0.35965
0.337654
0.306197
0.2752
0.23044
0.184721
0.118265
0.0479243
0.259632
0.264714
0.284862
0.303844
0.321441
0.336677
0.349556
0.360387
0.369518
0.377262
0.383887
0.389609
0.394611
0.399015
0.402919
0.406507
0.410134
0.414043
0.417962
0.420691
0.420359
0.415642
0.407253
0.398087
0.392403
0.393883
0.404027
0.421045
0.441344
0.461257
0.47862
0.492521
0.503187
0.511023
0.516779
0.520845
0.523806
0.525787
0.527197
0.52797
0.528442
0.52841
0.528216
0.527528
0.526748
0.525421
0.524057
0.52207
0.520115
0.517434
0.51487
0.511435
0.508211
0.503913
0.49993
0.494596
0.489695
0.483075
0.477022
0.468758
0.461213
0.450799
0.441259
0.427956
0.415666
0.398369
0.382155
0.359144
0.337108
0.305594
0.274522
0.229754
0.183913
0.117722
0.0473349
0.260684
0.26573
0.285237
0.303839
0.321213
0.336354
0.349207
0.360053
0.369218
0.377001
0.383668
0.389427
0.394462
0.398897
0.402837
0.406458
0.410082
0.413916
0.417682
0.420249
0.419868
0.415313
0.407284
0.398562
0.393257
0.394938
0.405052
0.421851
0.441833
0.461432
0.478549
0.492293
0.502879
0.510687
0.516449
0.520536
0.523525
0.525532
0.526967
0.527756
0.528242
0.528217
0.52803
0.527342
0.526565
0.525237
0.523876
0.521885
0.519933
0.517247
0.514686
0.511243
0.508021
0.503712
0.49973
0.49438
0.48948
0.482839
0.476785
0.468495
0.460947
0.4505
0.440955
0.427611
0.41531
0.397964
0.381729
0.358663
0.336587
0.305022
0.273876
0.229107
0.183149
0.117218
0.0467933
0.261665
0.266687
0.285601
0.303845
0.321004
0.336048
0.348872
0.359727
0.368921
0.376741
0.383445
0.38924
0.394306
0.398771
0.402745
0.406394
0.41001
0.413758
0.417361
0.419756
0.419331
0.414966
0.407354
0.399153
0.394297
0.39622
0.4063
0.422837
0.442444
0.461678
0.478514
0.492079
0.502573
0.510349
0.516117
0.520224
0.523243
0.525278
0.526737
0.527544
0.528046
0.528028
0.527848
0.527162
0.526389
0.525058
0.5237
0.521706
0.519758
0.517066
0.514508
0.511058
0.507839
0.503519
0.499539
0.494174
0.489274
0.482614
0.476559
0.468245
0.460694
0.450216
0.440665
0.427283
0.414972
0.397579
0.381324
0.358206
0.336092
0.30448
0.273262
0.228498
0.182428
0.116751
0.0462964
0.262579
0.267583
0.285951
0.30386
0.320814
0.335763
0.348555
0.359415
0.368632
0.376484
0.383223
0.38905
0.394146
0.39864
0.402645
0.406318
0.409918
0.413575
0.417009
0.41923
0.418768
0.414617
0.407468
0.399848
0.395498
0.397692
0.40773
0.423969
0.443155
0.461983
0.478511
0.49188
0.502274
0.510015
0.515786
0.519915
0.522963
0.525026
0.526511
0.527337
0.527854
0.527845
0.527672
0.526987
0.526218
0.524886
0.523531
0.521534
0.519589
0.516893
0.514339
0.510882
0.507665
0.503335
0.499357
0.493979
0.489079
0.4824
0.476345
0.468007
0.460454
0.449947
0.44039
0.426972
0.414651
0.397216
0.38094
0.357775
0.335623
0.30397
0.272681
0.227927
0.18175
0.116319
0.0458411
0.263427
0.268421
0.286287
0.303883
0.320642
0.335498
0.348257
0.359118
0.368356
0.376236
0.383005
0.388863
0.393987
0.398507
0.40254
0.406231
0.409811
0.413373
0.416637
0.418688
0.418199
0.414283
0.407628
0.40063
0.396825
0.399309
0.409295
0.425207
0.44394
0.462336
0.478535
0.491697
0.501985
0.509687
0.51546
0.519611
0.522688
0.524779
0.526291
0.527136
0.527669
0.527669
0.527504
0.526821
0.526055
0.524721
0.52337
0.52137
0.519428
0.516728
0.514177
0.510714
0.507501
0.503161
0.499184
0.493794
0.488895
0.482199
0.476143
0.467783
0.460228
0.449693
0.440131
0.42668
0.414348
0.396873
0.380578
0.35737
0.33518
0.303491
0.272135
0.227393
0.181116
0.11592
0.0454249
0.264212
0.269201
0.286606
0.303912
0.320488
0.335253
0.347978
0.358839
0.368093
0.375998
0.382796
0.388681
0.393831
0.398375
0.402433
0.406138
0.409692
0.413158
0.416257
0.418147
0.417642
0.413972
0.40783
0.401476
0.398237
0.401018
0.410946
0.426512
0.444771
0.46272
0.478582
0.491531
0.501709
0.509371
0.515144
0.519315
0.522421
0.524539
0.526077
0.526942
0.527491
0.5275
0.527343
0.526662
0.5259
0.524565
0.523216
0.521214
0.519276
0.516572
0.514025
0.510556
0.507345
0.502997
0.499022
0.493619
0.488721
0.482009
0.475953
0.467573
0.460015
0.449454
0.439888
0.426405
0.414063
0.396552
0.380238
0.35699
0.334764
0.303043
0.271622
0.226896
0.180524
0.115553
0.0450453
0.264935
0.269923
0.286909
0.303945
0.320349
0.335028
0.34772
0.358578
0.367847
0.375774
0.382596
0.388507
0.39368
0.398247
0.402325
0.40604
0.409567
0.412937
0.41588
0.417621
0.41711
0.413693
0.408066
0.402359
0.399691
0.402769
0.412631
0.427843
0.445623
0.463122
0.478646
0.491381
0.501448
0.509068
0.514841
0.51903
0.522164
0.524309
0.525873
0.526756
0.527322
0.527339
0.52719
0.526512
0.525753
0.524418
0.523072
0.521067
0.519132
0.516425
0.513881
0.510407
0.507199
0.502844
0.49887
0.493457
0.488559
0.481832
0.475775
0.467376
0.459816
0.449232
0.43966
0.426149
0.413798
0.396253
0.37992
0.356636
0.334375
0.302626
0.271143
0.226434
0.179975
0.115217
0.0447002
0.265598
0.270589
0.287192
0.303982
0.320225
0.334823
0.347482
0.358337
0.367618
0.375564
0.382409
0.388343
0.393537
0.398123
0.40222
0.405941
0.409438
0.412718
0.415514
0.41712
0.416613
0.413449
0.408327
0.403254
0.401143
0.404508
0.414303
0.429162
0.446471
0.46353
0.478722
0.491247
0.501204
0.508781
0.514553
0.51876
0.52192
0.52409
0.525678
0.52658
0.527161
0.527188
0.527047
0.526371
0.525616
0.524279
0.522936
0.520929
0.518997
0.516288
0.513747
0.510269
0.507063
0.502701
0.498729
0.493305
0.488408
0.481668
0.47561
0.467194
0.459631
0.449026
0.439449
0.425912
0.413551
0.395975
0.379625
0.356309
0.334015
0.30224
0.270699
0.226009
0.179468
0.11491
0.0443876
0.266204
0.271199
0.287457
0.304019
0.320115
0.334637
0.347264
0.358115
0.367406
0.37537
0.382235
0.388189
0.393403
0.398007
0.402118
0.405843
0.40931
0.412504
0.415168
0.416654
0.416159
0.41324
0.4086
0.404133
0.402554
0.406192
0.415918
0.430438
0.447295
0.46393
0.478805
0.491128
0.500978
0.508513
0.514282
0.518505
0.52169
0.523885
0.525495
0.526415
0.527011
0.527047
0.526913
0.52624
0.525488
0.524151
0.52281
0.520802
0.518872
0.51616
0.513622
0.51014
0.506937
0.502568
0.498598
0.493165
0.488269
0.481516
0.475458
0.467025
0.459461
0.448835
0.439254
0.425693
0.413323
0.39572
0.379352
0.356007
0.333682
0.301886
0.27029
0.22562
0.179003
0.114631
0.0441059
0.266752
0.271753
0.287701
0.304058
0.320017
0.334468
0.347067
0.357912
0.367213
0.375192
0.382075
0.388048
0.393279
0.397898
0.402022
0.405748
0.409185
0.412301
0.414845
0.416227
0.41575
0.413063
0.408875
0.404974
0.403892
0.407783
0.417443
0.431644
0.448076
0.464315
0.47889
0.491022
0.500771
0.508266
0.514031
0.518269
0.521476
0.523693
0.525325
0.526261
0.526872
0.526917
0.52679
0.526119
0.52537
0.524033
0.522694
0.520684
0.518757
0.516043
0.513508
0.510022
0.506821
0.502447
0.498478
0.493037
0.488141
0.481377
0.475318
0.466871
0.459305
0.448661
0.439076
0.425493
0.413114
0.395486
0.379103
0.355731
0.333377
0.301563
0.269916
0.225265
0.17858
0.11438
0.0438535
0.267244
0.272253
0.287923
0.304095
0.319932
0.334318
0.346889
0.35773
0.367037
0.37503
0.381929
0.387919
0.393165
0.397798
0.401933
0.405658
0.409067
0.412113
0.41455
0.415843
0.415388
0.412917
0.409143
0.405758
0.405131
0.409254
0.418852
0.43276
0.448802
0.464675
0.478975
0.49093
0.500584
0.50804
0.513801
0.518051
0.521279
0.523517
0.525169
0.52612
0.526744
0.526797
0.526677
0.526009
0.525263
0.523925
0.522588
0.520577
0.518653
0.515936
0.513403
0.509915
0.506716
0.502337
0.498369
0.492921
0.488025
0.481252
0.475192
0.466732
0.459163
0.448504
0.438914
0.425311
0.412925
0.395274
0.378876
0.355482
0.333101
0.30127
0.269577
0.224945
0.178197
0.114154
0.043629
0.267682
0.272699
0.288124
0.304132
0.319857
0.334185
0.34673
0.357566
0.36688
0.374885
0.381798
0.387802
0.393063
0.397707
0.401851
0.405575
0.408958
0.41194
0.414286
0.415503
0.415072
0.412798
0.409396
0.406474
0.406255
0.410585
0.420127
0.433771
0.449462
0.465006
0.479056
0.49085
0.500416
0.507836
0.513593
0.517855
0.5211
0.523357
0.525027
0.525992
0.526628
0.526689
0.526575
0.525909
0.525166
0.523828
0.522493
0.520481
0.518558
0.51584
0.513309
0.509818
0.506621
0.502238
0.498272
0.492817
0.487921
0.481139
0.475078
0.466607
0.459036
0.448362
0.438769
0.425149
0.412755
0.395085
0.378673
0.355258
0.332853
0.301009
0.269274
0.22466
0.177856
0.113955
0.0434312
0.268066
0.273091
0.288303
0.304165
0.319793
0.334068
0.346591
0.357422
0.366742
0.374757
0.381683
0.387699
0.392972
0.397627
0.401778
0.4055
0.408859
0.411785
0.414052
0.415207
0.414801
0.412701
0.409627
0.407113
0.407252
0.411764
0.421257
0.434668
0.45005
0.465303
0.47913
0.490781
0.500269
0.507656
0.513408
0.517679
0.520941
0.523214
0.5249
0.525878
0.526525
0.526592
0.526484
0.525821
0.52508
0.523742
0.522408
0.520395
0.518474
0.515755
0.513226
0.509733
0.506538
0.50215
0.498185
0.492725
0.48783
0.481039
0.474978
0.466496
0.458924
0.448237
0.438641
0.425005
0.412605
0.394917
0.378494
0.355061
0.332634
0.300778
0.269005
0.224409
0.177556
0.11378
0.0432591
0.268397
0.27343
0.288459
0.304196
0.319739
0.333968
0.346471
0.357298
0.366622
0.374646
0.381582
0.38761
0.392893
0.397557
0.401714
0.405433
0.408771
0.41165
0.41385
0.414954
0.414572
0.412625
0.409833
0.407669
0.408116
0.412784
0.422236
0.435447
0.450562
0.465564
0.479198
0.490722
0.500141
0.507499
0.513246
0.517526
0.520802
0.52309
0.524789
0.525778
0.526435
0.526508
0.526405
0.525744
0.525005
0.523668
0.522335
0.520321
0.518401
0.515681
0.513154
0.509658
0.506465
0.502074
0.49811
0.492645
0.48775
0.480953
0.474891
0.466401
0.458827
0.448129
0.43853
0.424881
0.412475
0.394772
0.378338
0.354891
0.332444
0.300578
0.268773
0.224192
0.177296
0.11363
0.0431117
0.268676
0.273716
0.288591
0.304223
0.319694
0.333884
0.346369
0.357192
0.36652
0.374552
0.381497
0.387534
0.392826
0.397497
0.401658
0.405375
0.408695
0.411534
0.41368
0.414742
0.414383
0.412565
0.410011
0.40814
0.408845
0.413644
0.423061
0.436105
0.450996
0.465785
0.479256
0.490674
0.500034
0.507366
0.513109
0.517396
0.520684
0.522983
0.524695
0.525693
0.526358
0.526437
0.526338
0.525679
0.524942
0.523604
0.522272
0.520258
0.518339
0.515618
0.513092
0.509595
0.506403
0.50201
0.498047
0.492577
0.487682
0.480879
0.474817
0.466319
0.458744
0.448037
0.438435
0.424776
0.412365
0.394649
0.378207
0.354746
0.332283
0.300409
0.268576
0.224008
0.177077
0.113504
0.0429883
0.268904
0.273949
0.2887
0.304246
0.319658
0.333816
0.346287
0.357106
0.366437
0.374475
0.381427
0.387472
0.392771
0.397447
0.401613
0.405327
0.408632
0.411439
0.413541
0.414571
0.414231
0.412519
0.410158
0.408525
0.409439
0.414344
0.423733
0.436642
0.451351
0.465968
0.479305
0.490635
0.499946
0.507257
0.512997
0.517289
0.520586
0.522896
0.524617
0.525623
0.526294
0.526378
0.526283
0.525625
0.52489
0.523552
0.522221
0.520206
0.518288
0.515566
0.513042
0.509543
0.506352
0.501957
0.497994
0.492521
0.487627
0.480819
0.474757
0.466253
0.458677
0.447962
0.438358
0.424689
0.412275
0.394549
0.378098
0.354628
0.332151
0.300271
0.268415
0.223859
0.176898
0.113401
0.0428882
0.26908
0.274131
0.288785
0.304264
0.31963
0.333763
0.346222
0.357039
0.366372
0.374414
0.381373
0.387423
0.392728
0.397409
0.401577
0.405289
0.408582
0.411365
0.413433
0.414439
0.414116
0.412486
0.410274
0.408824
0.409898
0.414886
0.424253
0.437058
0.451627
0.46611
0.479343
0.490605
0.499878
0.507173
0.512909
0.517205
0.52051
0.522827
0.524556
0.525568
0.526245
0.526332
0.526239
0.525583
0.524849
0.523511
0.522181
0.520165
0.518249
0.515526
0.513003
0.509503
0.506313
0.501916
0.497954
0.492478
0.487584
0.480773
0.47471
0.466201
0.458624
0.447904
0.438298
0.424622
0.412204
0.39447
0.378014
0.354536
0.332048
0.300164
0.268289
0.223742
0.176758
0.113321
0.0428108
0.269206
0.27426
0.288846
0.304277
0.31961
0.333725
0.346177
0.356992
0.366326
0.374372
0.381334
0.387388
0.392697
0.397381
0.401551
0.405262
0.408547
0.411312
0.413357
0.414346
0.414034
0.412463
0.410357
0.409037
0.410225
0.415271
0.424623
0.437355
0.451824
0.466211
0.479371
0.490584
0.49983
0.507112
0.512846
0.517146
0.520455
0.522778
0.524513
0.525529
0.526209
0.526299
0.526209
0.525553
0.52482
0.523482
0.522152
0.520136
0.51822
0.515497
0.512974
0.509474
0.506285
0.501886
0.497925
0.492447
0.487553
0.480739
0.474676
0.466164
0.458587
0.447862
0.438255
0.424574
0.412154
0.394414
0.377954
0.35447
0.331975
0.300087
0.2682
0.223659
0.176659
0.113264
0.0427559
0.269281
0.274338
0.288882
0.304285
0.319599
0.333702
0.346149
0.356963
0.366298
0.374346
0.38131
0.387368
0.392678
0.397365
0.401536
0.405245
0.408525
0.41128
0.413311
0.41429
0.413986
0.41245
0.410407
0.409164
0.410421
0.415502
0.424845
0.437532
0.451942
0.466272
0.479388
0.490571
0.499801
0.507076
0.512809
0.51711
0.520423
0.522749
0.524487
0.525505
0.526188
0.526279
0.52619
0.525535
0.524802
0.523464
0.522135
0.520119
0.518203
0.51548
0.512957
0.509457
0.506268
0.501869
0.497907
0.492429
0.487534
0.480719
0.474656
0.466142
0.458564
0.447837
0.438229
0.424545
0.412124
0.394381
0.377918
0.354431
0.331931
0.300041
0.268146
0.223609
0.176599
0.11323
0.042723
0.269306
0.274364
0.288894
0.304288
0.319595
0.333695
0.34614
0.356953
0.366289
0.374337
0.381303
0.387361
0.392672
0.397359
0.401531
0.40524
0.408518
0.411269
0.413296
0.414272
0.41397
0.412446
0.410424
0.409207
0.410486
0.415578
0.424918
0.437591
0.451981
0.466293
0.479393
0.490567
0.499791
0.507064
0.512796
0.517098
0.520412
0.522739
0.524478
0.525497
0.526181
0.526272
0.526184
0.525529
0.524797
0.523459
0.522129
0.520113
0.518198
0.515474
0.512952
0.509451
0.506262
0.501863
0.497901
0.492422
0.487528
0.480712
0.474649
0.466135
0.458557
0.447829
0.438221
0.424536
0.412114
0.39437
0.377906
0.354417
0.331916
0.300026
0.268128
0.223593
0.176579
0.113219
0.0427121
0.269281
0.274338
0.288882
0.304285
0.319599
0.333702
0.346149
0.356963
0.366298
0.374346
0.38131
0.387368
0.392678
0.397365
0.401536
0.405245
0.408525
0.41128
0.413311
0.41429
0.413986
0.41245
0.410407
0.409164
0.410421
0.415502
0.424845
0.437532
0.451942
0.466272
0.479388
0.490571
0.499801
0.507076
0.512809
0.51711
0.520423
0.522749
0.524486
0.525505
0.526188
0.526279
0.52619
0.525535
0.524802
0.523464
0.522135
0.520119
0.518203
0.51548
0.512957
0.509457
0.506268
0.501869
0.497907
0.492429
0.487534
0.480719
0.474656
0.466142
0.458564
0.447837
0.438229
0.424545
0.412124
0.394381
0.377918
0.354431
0.331931
0.300041
0.268146
0.223609
0.176599
0.11323
0.042723
0.269206
0.27426
0.288846
0.304277
0.31961
0.333725
0.346177
0.356992
0.366326
0.374371
0.381334
0.387388
0.392697
0.397381
0.401551
0.405262
0.408547
0.411312
0.413357
0.414346
0.414034
0.412463
0.410357
0.409037
0.410226
0.415272
0.424624
0.437355
0.451824
0.466211
0.479371
0.490584
0.49983
0.507112
0.512846
0.517145
0.520455
0.522778
0.524513
0.525529
0.526209
0.526299
0.526209
0.525553
0.52482
0.523482
0.522152
0.520136
0.51822
0.515497
0.512974
0.509474
0.506285
0.501886
0.497925
0.492447
0.487553
0.480739
0.474676
0.466164
0.458587
0.447862
0.438255
0.424574
0.412154
0.394414
0.377954
0.35447
0.331975
0.300087
0.2682
0.223659
0.176659
0.113264
0.0427559
0.26908
0.274131
0.288785
0.304264
0.31963
0.333762
0.346222
0.357039
0.366372
0.374414
0.381373
0.387423
0.392728
0.397409
0.401577
0.405289
0.408582
0.411365
0.413433
0.414439
0.414116
0.412486
0.410274
0.408824
0.409899
0.414887
0.424254
0.437059
0.451628
0.46611
0.479344
0.490605
0.499878
0.507173
0.512909
0.517205
0.52051
0.522827
0.524556
0.525568
0.526245
0.526332
0.526239
0.525583
0.524849
0.523511
0.522181
0.520165
0.518249
0.515526
0.513003
0.509503
0.506313
0.501916
0.497954
0.492478
0.487584
0.480773
0.47471
0.466201
0.458624
0.447904
0.438298
0.424622
0.412204
0.39447
0.378014
0.354536
0.332048
0.300164
0.268289
0.223742
0.176758
0.113321
0.0428108
0.268904
0.273949
0.2887
0.304246
0.319658
0.333815
0.346287
0.357106
0.366437
0.374474
0.381427
0.387472
0.392771
0.397447
0.401613
0.405327
0.408632
0.411439
0.413541
0.414571
0.414231
0.412519
0.410159
0.408525
0.409439
0.414345
0.423734
0.436643
0.451352
0.465968
0.479305
0.490635
0.499946
0.507257
0.512997
0.517289
0.520586
0.522896
0.524617
0.525623
0.526294
0.526378
0.526283
0.525625
0.52489
0.523552
0.522221
0.520206
0.518288
0.515566
0.513042
0.509543
0.506352
0.501957
0.497994
0.492521
0.487627
0.480819
0.474757
0.466253
0.458677
0.447962
0.438358
0.424689
0.412275
0.394549
0.378098
0.354628
0.332151
0.300271
0.268415
0.223859
0.176898
0.113401
0.0428882
0.268676
0.273716
0.288591
0.304223
0.319694
0.333884
0.346369
0.357192
0.36652
0.374552
0.381497
0.387534
0.392826
0.397497
0.401658
0.405375
0.408695
0.411534
0.41368
0.414742
0.414383
0.412565
0.410011
0.40814
0.408845
0.413645
0.423062
0.436107
0.450997
0.465786
0.479257
0.490674
0.500034
0.507366
0.513109
0.517396
0.520684
0.522983
0.524695
0.525693
0.526357
0.526437
0.526338
0.525679
0.524942
0.523604
0.522272
0.520258
0.518339
0.515618
0.513092
0.509595
0.506403
0.50201
0.498047
0.492577
0.487682
0.480879
0.474817
0.466319
0.458744
0.448037
0.438435
0.424776
0.412365
0.394649
0.378207
0.354746
0.332283
0.300409
0.268576
0.224008
0.177077
0.113504
0.0429883
0.268397
0.27343
0.288459
0.304196
0.319739
0.333968
0.346471
0.357298
0.366621
0.374646
0.381582
0.38761
0.392893
0.397556
0.401713
0.405432
0.40877
0.41165
0.41385
0.414954
0.414572
0.412625
0.409834
0.407669
0.408116
0.412785
0.422237
0.435449
0.450563
0.465565
0.479198
0.490723
0.500142
0.507499
0.513246
0.517526
0.520802
0.523089
0.524789
0.525778
0.526434
0.526508
0.526405
0.525744
0.525005
0.523667
0.522335