/*--------------------------------*- C++ -*----------------------------------*\
| =========                 |                                                 |
| \\      /  F ield         | OpenFOAM: The Open Source CFD Toolbox           |
|  \\    /   O peration     | Version:  2.4.0                                 |
|   \\  /    A nd           | Web:      www.OpenFOAM.org                      |
|    \\/     M anipulation  |                                                 |
\*---------------------------------------------------------------------------*/
FoamFile
{
    version     2.0;
    format      ascii;
    class       volVectorField;
    location    "4.68";
    object      U;
}
// * * * * * * * * * * * * * * * * * * * * * * * * * * * * * * * * * * * * * //

dimensions      [0 1 -1 0 0 0 0];

internalField   nonuniform List<vector> 
6000
(
(0.165118 -0.00671292 1.28854e-18)
(-0.00974495 0.00185823 0)
(0.000829518 -0.000234415 7.22535e-18)
(-0.00663324 0.00128748 0)
(-0.00500579 0.000987408 0)
(-0.00607706 0.00114006 0)
(-0.005345 0.000984294 4.00962e-18)
(-0.00550989 0.000962328 3.33597e-22)
(-0.00512789 0.000866891 0)
(-0.00513076 0.00082248 0)
(-0.00495863 0.000760647 3.91092e-18)
(-0.00498853 0.000723838 -7.74747e-18)
(-0.00499417 0.00068814 0)
(-0.00513454 0.000666604 0)
(-0.00531552 0.000650575 -1.87956e-18)
(-0.00559897 0.000641701 0)
(-0.00594254 0.000636014 0)
(-0.00636926 0.000632324 -1.83156e-18)
(-0.00686233 0.000628517 -1.81863e-18)
(-0.00743215 0.000623044 0)
(-0.00807285 0.000614217 1.79834e-18)
(-0.00878619 0.000600077 8.9561e-19)
(-0.00956434 0.000578575 -8.93126e-19)
(-0.0103989 0.000547535 0)
(-0.0112752 0.000505055 0)
(-0.0121777 0.000449547 0)
(-0.0130872 0.000379884 4.47685e-19)
(-0.0139823 0.000295431 -4.49668e-19)
(-0.014838 0.000196195 0)
(-0.0156263 8.29055e-05 0)
(-0.0163157 -4.28566e-05 5.75424e-20)
(-0.0168717 -0.000178637 0)
(-0.0172565 -0.000321261 4.71769e-19)
(-0.0174305 -0.000467024 -4.78868e-19)
(-0.0173513 -0.000598748 0)
(-0.0169738 -0.000719339 0)
(-0.016255 -0.000817787 1.01153e-18)
(-0.0151494 -0.000883291 0)
(-0.013617 -0.000903806 1.05617e-18)
(-0.0116143 -0.000866655 0)
(-0.00911519 -0.000757943 0)
(-0.00609248 -0.000564845 2.2638e-18)
(-0.00256172 -0.000273495 -4.63064e-18)
(0.00136812 0.000118194 0)
(0.00529315 0.000574808 0)
(0.00941372 0.00110599 2.46125e-18)
(0.0135958 0.00171719 0)
(0.0180957 0.00242326 0)
(0.0224756 0.00320799 -5.10003e-18)
(0.0273858 0.0041074 -5.12187e-18)
(0.031667 0.0050469 -5.09426e-18)
(0.0371675 0.00616504 -1.9248e-21)
(0.0407949 0.00720152 4.91205e-18)
(0.0476652 0.00864189 0)
(0.0494908 0.00961529 -3.18821e-21)
(0.0599783 0.0117451 -4.30701e-18)
(0.0573742 0.0121859 3.46205e-18)
(0.0770817 0.0161144 3.50725e-18)
(0.0649666 0.0150876 4.36887e-21)
(0.104302 0.0230059 0)
(0.360298 -0.016452 -1.79286e-18)
(0.00301978 0.00650531 4.28329e-18)
(0.00549435 -0.000894217 -4.33324e-18)
(-0.0149537 0.00337549 -4.5973e-18)
(-0.0124292 0.00257915 0)
(-0.0157713 0.00305999 0)
(-0.0142837 0.00266559 -4.57754e-18)
(-0.0148818 0.00262604 9.0673e-18)
(-0.0140355 0.00238365 0)
(-0.0141032 0.00227141 0)
(-0.0137202 0.00211624 -4.33895e-18)
(-0.0138289 0.0020245 4.27482e-18)
(-0.0138845 0.00193882 2.10547e-18)
(-0.0142799 0.0018902 0)
(-0.0147904 0.00185717 2.04757e-18)
(-0.0155643 0.00184261 0)
(-0.0164985 0.00183616 0)
(-0.0176452 0.00183429 0)
(-0.0189624 0.00183154 0)
(-0.0204722 0.00182367 0)
(-0.0221577 0.00180587 -9.83957e-24)
(-0.0240185 0.00177236 0)
(-0.02603 0.00171707 -9.53508e-19)
(-0.0281647 0.00163365 0)
(-0.0303798 0.00151673 0)
(-0.0326301 0.00136207 4.74664e-19)
(-0.0348624 0.00116675 -4.75518e-19)
(-0.0370182 0.00092925 -4.61374e-24)
(-0.0390318 0.000649835 2.39898e-19)
(-0.0408305 0.000330762 0)
(-0.0423352 -2.33889e-05 -6.09684e-20)
(-0.0434599 -0.000405597 -2.46609e-19)
(-0.0441129 -0.000806435 1.08553e-23)
(-0.0441956 -0.00121367 5.07246e-19)
(-0.0436076 -0.00159741 -5.15839e-19)
(-0.042243 -0.00195041 0)
(-0.0399959 -0.00224609 0)
(-0.0367574 -0.00245652 0)
(-0.0324281 -0.00254993 0)
(-0.0269014 -0.00249254 0)
(-0.0201101 -0.00224608 -2.3468e-18)
(-0.0119922 -0.00177364 0)
(-0.0026282 -0.00102821 2.45031e-18)
(0.00758456 1.19937e-05 2.50491e-18)
(0.0177251 0.00124729 0)
(0.0283452 0.00267068 0)
(0.0391207 0.0043018 0)
(0.0505896 0.00617319 0)
(0.0617998 0.00825181 5.55034e-18)
(0.0741457 0.0106137 0)
(0.0851571 0.0130982 0)
(0.0987686 0.0160055 -5.59688e-18)
(0.108446 0.0187634 -5.47908e-18)
(0.125018 0.0224514 0)
(0.13103 0.0251357 -1.00751e-17)
(0.155443 0.030439 0)
(0.152393 0.0320607 -8.01088e-18)
(0.196911 0.0414564 -4.07662e-18)
(0.174227 0.0399751 1.7064e-18)
(0.262964 0.0578801 2.85129e-18)
(0.500825 -0.0113664 -1.73809e-19)
(0.0412841 0.00906004 -4.24655e-18)
(0.014128 -0.00129379 0)
(-0.0188673 0.00483363 4.60463e-18)
(-0.017503 0.00374054 0)
(-0.0234485 0.00457212 0)
(-0.0218158 0.00403515 0)
(-0.0230066 0.00400976 -4.53918e-18)
(-0.0219501 0.00367484 0)
(-0.0221615 0.0035192 -4.4103e-18)
(-0.0216831 0.00330695 0)
(-0.0219046 0.00318204 0)
(-0.022053 0.00307275 -2.10668e-18)
(-0.0227026 0.00301675 0)
(-0.0235365 0.00298644 0)
(-0.0247667 0.00298215 0)
(-0.0262452 0.00298965 0)
(-0.0280429 0.00300237 0)
(-0.030098 0.00301279 0)
(-0.0324384 0.00301394 1.93947e-18)
(-0.0350366 0.00299813 -1.92506e-18)
(-0.0378853 0.00295537 0)
(-0.0409416 0.00287542 4.22563e-24)
(-0.0441559 0.00274753 -9.48858e-19)
(-0.0474565 0.00256305 0)
(-0.0507674 0.00231547 -9.46889e-19)
(-0.0540019 0.00200053 0)
(-0.0570657 0.00161633 4.7561e-19)
(-0.059855 0.00116386 -2.38982e-19)
(-0.0622577 0.000647392 0)
(-0.0641531 7.49046e-05 0)
(-0.0654131 -0.000541691 2.45269e-19)
(-0.0659027 -0.00118619 -4.64684e-24)
(-0.0654794 -0.00183676 0)
(-0.0640009 -0.00246633 1.02325e-18)
(-0.0613208 -0.00304515 0)
(-0.0572958 -0.00353619 1.06034e-18)
(-0.0517839 -0.00389854 0)
(-0.0446615 -0.00408551 0)
(-0.0358081 -0.00404809 0)
(-0.0251743 -0.00372963 2.29157e-18)
(-0.0127472 -0.00307402 0)
(0.00123136 -0.00200256 0)
(0.0162018 -0.000470889 -2.40411e-18)
(0.031378 0.00139832 0)
(0.0474468 0.00356599 0)
(0.0639102 0.00607319 2.62496e-18)
(0.0814178 0.00894819 -2.68427e-18)
(0.0986876 0.0121667 -2.72845e-18)
(0.117522 0.0157895 0)
(0.134678 0.0196647 0)
(0.155297 0.0240851 0)
(0.170833 0.0284526 5.43824e-18)
(0.195487 0.0339493 5.36604e-18)
(0.206382 0.0384069 5.02398e-18)
(0.241673 0.0460222 0)
(0.240899 0.0494455 4.00562e-18)
(0.303649 0.0622931 8.16776e-18)
(0.277301 0.0621838 0)
(0.402806 0.0854624 -2.87024e-18)
(0.60505 0.00025311 -1.44287e-19)
(0.0970009 0.011003 4.12209e-18)
(0.0279085 -0.00122865 -4.3217e-18)
(-0.018321 0.00584305 0)
(-0.0200967 0.00456411 0)
(-0.0290462 0.00577144 0)
(-0.0278713 0.00514332 0)
(-0.0298409 0.00516791 0)
(-0.0288261 0.00477341 0)
(-0.0292712 0.00460047 4.41308e-18)
(-0.0288115 0.00435302 4.34377e-18)
(-0.0291837 0.00421493 0)
(-0.0294645 0.00409989 0)
(-0.0303657 0.00405319 0)
(-0.0315107 0.00404049 2.04743e-18)
(-0.033156 0.00405956 0)
(-0.0351218 0.00409221 1.99596e-18)
(-0.0374883 0.00412931 -1.97356e-18)
(-0.0401778 0.00416157 0)
(-0.0432176 0.00417964 -1.93573e-18)
(-0.0465685 0.00417279 0)
(-0.0502115 0.00412666 -9.5377e-19)
(-0.054083 0.00402657 1.89728e-18)
(-0.058109 0.00385743 9.4485e-19)
(-0.0621886 0.00360769 0)
(-0.0662156 0.00326917 4.70736e-19)
(-0.070072 0.00283693 0)
(-0.0736321 0.00230932 4.72048e-19)
(-0.0767604 0.00168865 0)
(-0.0793134 0.000981604 0)
(-0.0811407 0.000199726 0)
(-0.0820855 -0.000640442 2.42304e-19)
(-0.0819862 -0.00151681 -9.79783e-19)
(-0.080678 -0.00240074 0)
(-0.0780002 -0.00325901 -5.02621e-19)
(-0.0737927 -0.00405131 0)
(-0.0679062 -0.00473136 -1.03615e-18)
(-0.0602011 -0.00524838 0)
(-0.0505696 -0.00554488 0)
(-0.0389225 -0.0055608 0)
(-0.0252696 -0.005226 2.19863e-18)
(-0.00967697 -0.00446772 0)
(0.00748805 -0.00318361 2.2314e-18)
(0.0257768 -0.00132011 -2.2661e-18)
(0.0448377 0.000997406 0)
(0.0652649 0.00372254 -2.43397e-18)
(0.0864471 0.00692351 -5.02527e-18)
(0.10904 0.0106256 2.58458e-18)
(0.131577 0.0148144 5.27945e-18)
(0.155998 0.0195232 -5.37056e-18)
(0.178697 0.024629 -5.40806e-18)
(0.205317 0.0303586 0)
(0.22643 0.0361982 -5.34971e-18)
(0.257731 0.0432009 -5.29609e-18)
(0.273928 0.0493731 -4.95564e-18)
(0.317449 0.0587283 0)
(0.321025 0.0641133 0)
(0.396275 0.0791432 -4.0611e-18)
(0.371783 0.0811664 0)
(0.522482 0.10678 2.80772e-18)
(0.684216 0.0143664 -1.25457e-19)
(0.162887 0.0131457 -3.18915e-20)
(0.0478766 -0.000609362 4.29583e-18)
(-0.0132691 0.00653795 4.59806e-18)
(-0.0200912 0.00513259 0)
(-0.0325176 0.00670645 -4.63694e-18)
(-0.0323906 0.00602313 0)
(-0.0353554 0.00612357 0)
(-0.0346286 0.00569631 0)
(-0.03541 0.00552723 4.41402e-18)
(-0.0350793 0.00526389 -4.34466e-18)
(-0.0356438 0.00512953 0)
(-0.0360923 0.00502407 0)
(-0.0372404 0.00500052 0)
(-0.0386773 0.00501737 -2.04588e-18)
(-0.0406893 0.00506968 0)
(-0.0430742 0.00513523 -1.9928e-18)
(-0.0459142 0.00520269 1.96938e-18)
(-0.0491169 0.0052612 0)
(-0.0527033 0.00529925 0)
(-0.0566199 0.00530297 9.56022e-19)
(-0.0608318 0.0052536 9.4875e-19)
(-0.0652529 0.005132 -1.88526e-18)
(-0.0697838 0.00491916 -9.37747e-19)
(-0.0742968 0.00460132 0)
(-0.0786593 0.00416955 4.65943e-19)
(-0.0827287 0.00361913 0)
(-0.0863563 0.00294948 -4.65791e-19)
(-0.0893863 0.00216494 2.33392e-19)
(-0.0916583 0.00127506 0)
(-0.0930083 0.000295071 0)
(-0.0932705 -0.000754121 -4.74356e-19)
(-0.092278 -0.00184537 4.78266e-19)
(-0.0898687 -0.00294482 0)
(-0.0858855 -0.00401253 -4.87706e-19)
(-0.0801787 -0.00500237 0)
(-0.0726152 -0.00586133 9.98313e-19)
(-0.0630781 -0.00653184 0)
(-0.0514891 -0.00694908 0)
(-0.0377949 -0.00704485 0)
(-0.0220491 -0.00673841 -2.08196e-18)
(-0.00435469 -0.00594126 -2.09019e-18)
(0.0148989 -0.00453676 -2.09316e-18)
(0.0354877 -0.00247455 1.34323e-21)
(0.0574065 0.000123798 -2.19824e-18)
(0.0810972 0.00322334 2.28415e-18)
(0.10592 0.00691867 4.7285e-18)
(0.132517 0.0112423 0)
(0.159374 0.0161938 -2.50724e-18)
(0.188423 0.0217867 5.12903e-18)
(0.215971 0.027932 5.19095e-18)
(0.247702 0.034774 0)
(0.27403 0.041923 0)
(0.310886 0.0501944 0)
(0.332549 0.0579688 4.84649e-18)
(0.382382 0.0686592 0)
(0.391584 0.0760299 0)
(0.475156 0.0923518 3.98298e-18)
(0.456113 0.0968463 -1.64055e-18)
(0.622932 0.122766 -2.78496e-18)
(0.745567 0.0291091 -1.1221e-19)
(0.233429 0.0159992 -3.94864e-18)
(0.0745838 0.00057718 0)
(-0.00363465 0.00707576 -4.58805e-18)
(-0.0173753 0.00552705 -4.6122e-18)
(-0.0338132 0.00742481 5.12983e-22)
(-0.0353157 0.00670804 0)
(-0.0395221 0.00690073 0)
(-0.0393259 0.00646098 0)
(-0.0405587 0.00631229 -4.41464e-18)
(-0.0404645 0.00604898 0)
(-0.0412665 0.00593196 0)
(-0.041914 0.00584861 2.10518e-18)
(-0.0433019 0.00585896 0)
(-0.0450046 0.00591418 0)
(-0.0473273 0.00600624 0)
(-0.0500522 0.00610883 0)
(-0.0532572 0.0062086 -1.96258e-18)
(-0.0568352 0.00629332 0)
(-0.0607964 0.00634949 1.91821e-18)
(-0.0650707 0.00636015 -9.49483e-19)
(-0.0696051 0.00630232 -9.40827e-19)
(-0.0742919 0.00615285 1.8665e-18)
(-0.0790102 0.0058896 1.85351e-18)
(-0.0836117 0.00549762 0)
(-0.0879471 0.00496836 -4.58641e-19)
(-0.0918603 0.00429831 0)
(-0.0951936 0.00348882 0)
(-0.0977862 0.00254672 -4.56232e-19)
(-0.0994769 0.00148457 0)
(-0.100105 0.000321038 0)
(-0.0995115 -0.000919224 4.59821e-19)
(-0.0975415 -0.00220564 0)
(-0.0940462 -0.00350013 0)
(-0.0888814 -0.00475867 4.68212e-19)
(-0.081913 -0.0059313 0)
(-0.0730259 -0.00696054 -9.52013e-19)
(-0.0621209 -0.00778418 0)
(-0.0491385 -0.00833209 0)
(-0.0340426 -0.00852912 0)
(-0.0169 -0.00828507 0)
(0.00218727 -0.00749625 1.96382e-18)
(0.0228706 -0.00603978 1.96195e-18)
(0.0451194 -0.00387677 1.37593e-21)
(0.0691053 -0.00112244 2.05471e-18)
(0.0951401 0.00220908 2.1288e-18)
(0.122604 0.00622943 -2.20651e-18)
(0.152126 0.0109826 0)
(0.182245 0.0164829 -2.3448e-18)
(0.214837 0.0227381 2.40611e-18)
(0.24632 0.0296937 -4.88927e-18)
(0.282188 0.0374263 0)
(0.313132 0.0456726 0)
(0.354614 0.0549943 -4.92303e-18)
(0.381601 0.0642009 -4.65248e-18)
(0.436452 0.0759418 4.59934e-18)
(0.451871 0.0852148 3.77847e-18)
(0.541078 0.102257 -3.89826e-18)
(0.529432 0.109276 1.61325e-18)
(0.70592 0.134261 0)
(0.793858 0.0436829 -1.01241e-19)
(0.304754 0.0197882 0)
(0.10795 0.00233454 4.22334e-18)
(0.0107036 0.00761732 4.57176e-18)
(-0.0118468 0.00582564 -6.11625e-23)
(-0.0328743 0.00797387 4.63628e-18)
(-0.0365867 0.00723163 0)
(-0.0423099 0.0075237 0)
(-0.0428867 0.00708496 0)
(-0.0446985 0.00696884 2.20694e-18)
(-0.0449469 0.0067176 2.17143e-18)
(-0.0460352 0.00662826 0)
(-0.0469095 0.00657638 -2.10334e-18)
(-0.0485278 0.00662816 2.07061e-18)
(-0.0504636 0.0067273 0)
(-0.053034 0.00686216 0)
(-0.0560103 0.00700231 0)
(-0.0594616 0.00713249 5.54147e-23)
(-0.0632671 0.00723935 0)
(-0.0674232 0.00730768 -3.80542e-18)
(-0.0718441 0.00731779 9.4006e-19)
(-0.0764607 0.00724309 9.29671e-19)
(-0.0811496 0.0070572 -2.60855e-23)
(-0.0857765 0.00673596 -9.11651e-19)
(-0.0901838 0.00626442 0)
(-0.0942175 0.00563538 0)
(-0.0977211 0.00484727 0)
(-0.10054 0.00390364 2.2214e-19)
(-0.102521 0.00281377 4.42917e-19)
(-0.10351 0.00159281 0)
(-0.103359 0.000262031 0)
(-0.101921 -0.00115137 -4.42557e-19)
(-0.0990562 -0.00261427 -2.21661e-19)
(-0.0946249 -0.00408647 0)
(-0.0884938 -0.00552144 0)
(-0.0805401 -0.00686636 0)
(-0.0706585 -0.00806058 0)
(-0.0587588 -0.00903819 0)
(-0.0447884 -0.00972448 0)
(-0.0287151 -0.0100376 0)
(-0.0106032 -0.00987859 0)
(0.00946242 -0.00912987 0)
(0.0311963 -0.00766831 -1.09288e-21)
(0.0546963 -0.00547185 1.87185e-18)
(0.0801915 -0.00264813 0)
(0.1079 0.000815076 -3.98205e-18)
(0.137237 0.00503708 -2.05571e-18)
(0.168811 0.0100729 0)
(0.201259 0.0159463 2.1853e-18)
(0.23638 0.0226683 -2.24395e-18)
(0.270809 0.0302106 4.56779e-18)
(0.309773 0.038608 -4.63873e-18)
(0.344468 0.047703 0)
(0.389597 0.0578473 9.32277e-21)
(0.421363 0.068245 4.41638e-18)
(0.480211 0.0808051 -8.76914e-18)
(0.501812 0.0917816 -1.32059e-20)
(0.595003 0.109199 -3.73308e-18)
(0.591482 0.118586 1.53723e-18)
(0.773348 0.141978 2.6068e-18)
(0.832279 0.0576526 3.10721e-18)
(0.374282 0.024539 0)
(0.147334 0.00468055 2.61618e-21)
(0.0298819 0.00828507 -2.76067e-22)
(-0.00340896 0.00613135 4.59908e-18)
(-0.0296302 0.00840194 4.6326e-18)
(-0.0361394 0.00762874 0)
(-0.0436819 0.00801785 4.54454e-18)
(-0.0452769 0.00758658 0)
(-0.0478079 0.00751082 -2.20639e-18)
(-0.0485059 0.00727954 -9.43825e-23)
(-0.0499334 0.00722485 -2.13571e-18)
(-0.0510602 0.0072104 0)
(-0.0528978 0.00730789 -4.13295e-18)
(-0.0550294 0.00745317 0)
(-0.05778 0.00763063 0)
(-0.0609145 0.00780564 0)
(-0.0644922 0.00796131 1.93905e-18)
(-0.0683806 0.00808353 0)
(-0.0725637 0.008156 1.88218e-18)
(-0.0769446 0.00815693 -1.85573e-18)
(-0.081444 0.00805698 0)
(-0.0859315 0.0078276 -2.77325e-23)
(-0.0902694 0.00744358 0)
(-0.0943011 0.00689078 0)
(-0.0978774 0.00616387 -4.37485e-19)
(-0.100849 0.00526324 0)
(-0.103071 0.00419442 -4.30731e-19)
(-0.1044 0.00296856 -2.14155e-19)
(-0.104693 0.00160262 -5.33107e-20)
(-0.103812 0.000119636 5.31696e-20)
(-0.101622 -0.00145175 2.12372e-19)
(-0.09799 -0.00307667 4.24511e-19)
(-0.0927837 -0.00471403 0)
(-0.0858763 -0.00631536 4.25948e-19)
(-0.0771509 -0.0078255 0)
(-0.0665072 -0.00918113 0)
(-0.0538584 -0.0103129 0)
(-0.0391536 -0.0111418 8.67991e-19)
(-0.0223591 -0.0115796 0)
(-0.00353077 -0.0115191 0)
(0.017269 -0.0108314 1.75397e-18)
(0.0398198 -0.0093971 -1.75676e-18)
(0.064294 -0.00721258 0)
(0.090911 -0.00437711 0)
(0.119827 -0.0008502 1.8736e-18)
(0.150498 0.00348892 1.9287e-18)
(0.1835 0.00870479 -1.98295e-18)
(0.217577 0.0148245 0)
(0.254441 0.0218666 0)
(0.290969 0.0298163 0)
(0.332113 0.0386886 7.75125e-21)
(0.36964 0.0483986 0)
(0.417446 0.0591518 4.33918e-18)
(0.453144 0.0704629 0)
(0.515025 0.0836336 4.1263e-18)
(0.542224 0.0960146 -3.42522e-18)
(0.638255 0.113595 7.09636e-18)
(0.642686 0.125026 -1.47396e-18)
(0.827145 0.146575 -2.5065e-18)
(0.863048 0.0707556 8.43662e-20)
(0.440375 0.030151 -3.63126e-18)
(0.1917 0.00763788 -4.11836e-18)
(0.0539137 0.00919066 -1.83411e-22)
(0.00811273 0.00653491 -4.58677e-18)
(-0.0239983 0.00875928 -4.62763e-18)
(-0.0339035 0.00793563 0)
(-0.0435929 0.00840914 -4.54278e-18)
(-0.0464584 0.00798477 0)
(-0.0498621 0.0079526 -2.20519e-18)
(-0.0511196 0.00774496 -2.16881e-18)
(-0.0529442 0.00772852 2.13327e-18)
(-0.0543491 0.00775401 -2.09662e-18)
(-0.0563952 0.00789833 2.06088e-18)
(-0.0586842 0.00808896 -2.02501e-18)
(-0.0615488 0.00830616 1.98997e-18)
(-0.0647527 0.00851117 0)
(-0.0683478 0.00868595 0)
(-0.0721948 0.00881615 0)
(-0.0762696 0.00888514 9.28628e-19)
(-0.0804703 0.00886979 9.13458e-19)
(-0.0847144 0.00873891 0)
(-0.088872 0.00846245 -8.85449e-19)
(-0.0928094 0.00801485 0)
(-0.0963769 0.00738299 0)
(-0.0994341 0.00656335 4.25484e-19)
(-0.101841 0.00555797 -4.20901e-19)
(-0.103463 0.00437378 2.08511e-19)
(-0.104165 0.00302317 0)
(-0.103813 0.0015243 1.02811e-19)
(-0.102278 -9.86953e-05 -1.02353e-19)
(-0.0994305 -0.0018163 0)
(-0.0951428 -0.00359285 -2.03565e-19)
(-0.0892857 -0.00538633 4.06903e-19)
(-0.0817373 -0.00714662 -4.07488e-19)
(-0.0723842 -0.00881651 0)
(-0.0611286 -0.0103302 0)
(-0.0478852 -0.0116149 0)
(-0.0326027 -0.0125878 -8.28271e-19)
(-0.0152441 -0.0131544 0)
(0.00414458 -0.0132005 0)
(0.0255253 -0.0125885 -1.67503e-18)
(0.048735 -0.0112047 0)
(0.0739832 -0.00906272 1.69432e-18)
(0.101448 -0.00625276 -1.73024e-18)
(0.131248 -0.0027073 0)
(0.162875 0.00169229 1.81836e-18)
(0.196875 0.00701884 3.73156e-18)
(0.232087 0.0132977 -1.90681e-18)
(0.270137 0.0205575 0)
(0.308132 0.0287846 0)
(0.350757 0.0379909 2.01534e-18)
(0.390336 0.0481286 0)
(0.439999 0.059317 4.02511e-18)
(0.478738 0.0712828 0)
(0.542769 0.0848859 3.83401e-18)
(0.574661 0.0983316 3.18708e-18)
(0.672613 0.115934 -3.33404e-18)
(0.684198 0.128976 0)
(0.869413 0.148693 2.3461e-18)
(0.887776 0.0828572 -3.35856e-18)
(0.502058 0.0364563 2.00233e-20)
(0.239805 0.0112176 4.06413e-18)
(0.0826937 0.0104442 -1.62906e-22)
(0.0229022 0.00710308 -6.61987e-22)
(-0.0158815 0.00909831 0)
(-0.0298034 0.00818998 0)
(-0.0419891 0.00872399 0)
(-0.0463879 0.00829904 -2.23644e-18)
(-0.0508313 0.00830892 4.4073e-18)
(-0.0527639 0.00812443 0)
(-0.0550502 0.00814645 2.12988e-18)
(-0.0567617 0.00821116 6.37753e-23)
(-0.0590095 0.00840063 -2.05364e-18)
(-0.0614217 0.00863345 5.83503e-23)
(-0.0643426 0.00888592 -1.97699e-18)
(-0.0675413 0.00911531 0)
(-0.0710674 0.00930302 0)
(-0.0747805 0.00943498 0)
(-0.0786537 0.00949494 -9.14823e-19)
(-0.082585 0.00945898 0)
(-0.0864937 0.0092946 8.81585e-19)
(-0.0902552 0.0089707 8.66339e-19)
(-0.0937428 0.00846151 -8.52162e-19)
(-0.0968161 0.00775489 0)
(-0.0993437 0.00684882 0)
(-0.101195 0.00574654 4.08552e-19)
(-0.102243 0.00445588 0)
(-0.102359 0.00299004 2.00136e-19)
(-0.101418 0.00136793 -4.96622e-20)
(-0.0992947 -0.000385591 4.93716e-20)
(-0.0958652 -0.00224052 -1.96464e-19)
(-0.0910024 -0.00416078 0)
(-0.0845812 -0.00610332 -3.91288e-19)
(-0.0764829 -0.00801655 0)
(-0.0665968 -0.00984128 0)
(-0.0548266 -0.0115094 7.86895e-19)
(-0.0410878 -0.012945 0)
(-0.0253281 -0.0140614 0)
(-0.00750702 -0.0147584 0)
(0.0123398 -0.0149162 0)
(0.0341971 -0.0143906 0)
(0.0579502 -0.0130747 0)
(0.083821 -0.0109958 -3.25725e-18)
(0.111935 -0.00823495 1.65845e-18)
(0.142385 -0.00470066 1.69242e-18)
(0.174702 -0.00027831 -3.45937e-18)
(0.209399 0.00511231 -1.76837e-18)
(0.2454 0.0114913 1.80224e-18)
(0.284248 0.0188987 -1.8333e-18)
(0.323258 0.0273123 0)
(0.366867 0.0367529 3.58246e-21)
(0.407902 0.0471801 -3.73345e-18)
(0.458803 0.058675 -3.75687e-18)
(0.499812 0.0710854 -3.56845e-18)
(0.565279 0.0849825 -7.13879e-18)
(0.600906 0.0991751 -2.97642e-18)
(0.700032 0.116709 3.08711e-18)
(0.717661 0.130903 1.26304e-18)
(0.902409 0.148938 -2.20443e-18)
(0.907675 0.0939143 -7.3133e-20)
(0.55882 0.0432624 3.49198e-18)
(0.290355 0.015407 2.24791e-21)
(0.115957 0.0121284 -2.02961e-22)
(0.0411395 0.00790432 4.54605e-18)
(-0.00517166 0.00947217 4.60719e-18)
(-0.0237578 0.00843099 -4.57585e-18)
(-0.0388073 0.0089893 2.26759e-18)
(-0.0450158 0.0085496 4.42954e-23)
(-0.0506809 0.00859504 -2.20159e-18)
(-0.0534126 0.00842913 -2.16374e-18)
(-0.0562344 0.00848657 -2.12582e-18)
(-0.0582872 0.00858684 4.17124e-18)
(-0.0607382 0.00881753 5.40866e-23)
(-0.0632497 0.00908784 2.00358e-18)
(-0.0661843 0.00937054 0)
(-0.069324 0.00961906 1.9205e-18)
(-0.0727223 0.00981478 0)
(-0.0762427 0.00994421 -1.83961e-18)
(-0.0798591 0.00999184 -9.00459e-19)
(-0.0834729 0.00993325 -8.81903e-19)
(-0.0870075 0.00973498 -2.82257e-23)
(-0.0903456 0.009365 -8.47769e-19)
(-0.0933689 0.00879739 8.32408e-19)
(-0.0959463 0.00802074 0)
(-0.0979547 0.00703424 -4.02808e-19)
(-0.0992717 0.00584195 0)
(-0.0997763 0.00445229 0)
(-0.0993465 0.00287894 -1.94134e-19)
(-0.0978613 0.00114132 0)
(-0.0952002 -0.000735216 0)
(-0.0912416 -0.0027205 1.90003e-19)
(-0.0858603 -0.00477803 0)
(-0.0789343 -0.00686371 0)
(-0.0703478 -0.00892456 3.7777e-19)
(-0.059992 -0.0108995 0)
(-0.0477722 -0.0127183 -7.59401e-19)
(-0.0336044 -0.014302 0)
(-0.0174353 -0.0155604 7.66557e-19)
(0.000778493 -0.0163883 0)
(0.0210122 -0.0166609 0)
(0.0432701 -0.0162299 0)
(0.0674767 -0.0149946 0)
(0.0938509 -0.0129925 1.57394e-18)
(0.122463 -0.0102954 0)
(0.153394 -0.00679172 -3.25251e-18)
(0.186206 -0.0023718 1.65663e-18)
(0.221383 0.0030514 -1.68518e-18)
(0.257925 0.0094903 1.71129e-18)
(0.297298 0.016997 1.73957e-18)
(0.336998 0.025534 0)
(0.381241 0.0351393 1.77021e-18)
(0.423294 0.0457569 5.2614e-18)
(0.474989 0.0574664 -3.50543e-18)
(0.517662 0.0701619 3.33907e-18)
(0.58403 0.0842527 3.32852e-18)
(0.622548 0.0989281 0)
(0.722278 0.116341 -2.88035e-18)
(0.744812 0.131266 -2.34369e-18)
(0.928296 0.147834 0)
(0.92368 0.10394 3.58601e-18)
(0.610462 0.0503785 0)
(0.342111 0.0201654 2.03164e-21)
(0.153274 0.0142998 -2.83276e-22)
(0.0629694 0.00899975 -4.51956e-18)
(0.00825317 0.00993977 -9.185e-18)
(-0.0156799 0.0086995 9.13861e-18)
(-0.0339746 0.00923253 -2.26496e-18)
(-0.042286 0.00875756 2.23234e-18)
(-0.0493703 0.00882694 0)
(-0.0530366 0.00867104 4.3626e-23)
(-0.0564795 0.00875786 0)
(-0.0589191 0.00888749 -4.15739e-18)
(-0.061587 0.00915378 2.03548e-18)
(-0.0641883 0.00945599 0)
(-0.0671125 0.009764 0)
(-0.0701619 0.0100273 -1.9013e-18)
(-0.0733993 0.0102275 0)
(-0.0766957 0.0103517 1.81428e-18)
(-0.0800282 0.0103853 8.86437e-19)
(-0.0833031 0.0103034 2.62004e-23)
(-0.0864493 0.0100717 -8.47939e-19)
(-0.0893574 0.0096576 -8.30378e-19)
(-0.091918 0.00903476 0)
(-0.0940085 0.0081924 0)
(-0.095514 0.00713065 3.93023e-19)
(-0.0963185 0.00585412 0)
(-0.096307 0.00437158 1.90998e-19)
(-0.0953621 0.00269701 -1.88848e-19)
(-0.093367 0.000850209 4.67755e-20)
(-0.0902048 -0.00114325 -4.63995e-20)
(-0.0857549 -0.00325314 1.84405e-19)
(-0.0798947 -0.00544246 -1.83615e-19)
(-0.0725051 -0.00766608 3.66406e-19)
(-0.0634729 -0.00986971 -3.66379e-19)
(-0.0526912 -0.0119906 0)
(-0.0400671 -0.0139562 0)
(-0.0255168 -0.0156849 0)
(-0.00898657 -0.0170832 -2.46127e-22)
(0.00956996 -0.0180413 7.47133e-19)
(0.030138 -0.0184307 0)
(0.0527378 -0.0181 0)
(0.077325 -0.0169548 0)
(0.104106 -0.0150383 0)
(0.133102 -0.0124138 0)
(0.164383 -0.00895331 1.22313e-21)
(0.197544 -0.00455266 0)
(0.23304 0.000881573 3.23835e-18)
(0.269941 0.00735258 -3.27843e-18)
(0.30964 0.014925 -1.65741e-18)
(0.349792 0.023541 0)
(0.394418 0.0332619 0)
(0.437168 0.0439989 -3.31116e-18)
(0.489338 0.0558576 8.15175e-21)
(0.533218 0.0687206 -3.1218e-18)
(0.600102 0.0829344 3.10112e-18)
(0.64083 0.0978865 2.56315e-18)
(0.740752 0.11515 -2.66291e-18)
(0.76718 0.13046 2.15663e-18)
(0.948909 0.145794 1.88113e-18)
(0.936534 0.11298 6.54475e-20)
(0.656997 0.0576304 -3.35053e-18)
(0.393964 0.0254261 -7.78251e-18)
(0.194066 0.0169907 -3.94034e-22)
(0.0884585 0.0104432 4.48712e-18)
(0.0245316 0.0105588 4.57256e-18)
(-0.00547808 0.00903992 -2.27928e-18)
(-0.0274078 0.0094817 0)
(-0.0381352 0.00894506 0)
(-0.0468526 0.00902141 2.19608e-18)
(-0.0516033 0.00886319 2.15675e-18)
(-0.0557674 0.00897049 0)
(-0.058653 0.00912107 2.07132e-18)
(-0.0615668 0.00941604 0)
(-0.0642649 0.00974406 0)
(-0.0671731 0.0100728 0)
(-0.0701203 0.0103473 0)
(-0.0731837 0.0105495 1.83548e-18)
(-0.0762441 0.0106667 8.95026e-19)
(-0.0792836 0.0106851 -8.73227e-19)
(-0.0822139 0.0105796 2.51742e-23)
(-0.0849702 0.0103153 0)
(-0.0874515 0.00985874 8.14685e-19)
(-0.089557 0.00918345 0)
(-0.0911728 0.00827903 0)
(-0.0921912 0.00714635 3.84342e-19)
(-0.0925024 0.00579036 -3.78266e-19)
(-0.0919965 0.00422 -1.86524e-19)
(-0.0905603 0.00244943 1.84317e-19)
(-0.0880807 0.000498716 -9.12575e-20)
(-0.0844437 -0.00160655 9.04506e-20)
(-0.0795295 -0.00383613 -1.79686e-19)
(-0.0732186 -0.00615241 1.78863e-19)
(-0.0653947 -0.00850928 -7.31393e-23)
(-0.0559471 -0.0108512 -3.56606e-19)
(-0.0447711 -0.0131137 0)
(-0.0317751 -0.0152223 0)
(-0.0168763 -0.0170927 0)
(-2.05755e-05 -0.0186284 -1.44729e-18)
(0.0188411 -0.0197155 -7.27458e-19)
(0.0397028 -0.0202225 0)
(0.0625972 -0.0199964 0)
(0.0875041 -0.0189476 -1.47678e-18)
(0.114613 -0.0171222 0)
(0.143901 -0.014575 0)
(0.17543 -0.0111657 3.05037e-18)
(0.208826 -0.00679559 -1.54399e-18)
(0.244519 -0.00136515 -3.12795e-18)
(0.281639 0.0051185 1.85231e-21)
(0.321515 0.0127326 3.18552e-18)
(0.361942 0.021396 1.59396e-18)
(0.406766 0.0311969 0)
(0.449972 0.0420021 1.57567e-18)
(0.502388 0.0539628 3.13291e-18)
(0.547129 0.0669069 2.95458e-18)
(0.614253 0.081194 -2.92558e-18)
(0.656661 0.096266 -2.41021e-18)
(0.756486 0.113372 2.49711e-18)
(0.785981 0.128793 -1.00116e-18)
(0.965669 0.143117 -1.75623e-18)
(0.946832 0.121097 6.2469e-20)
(0.698581 0.0648682 3.31134e-18)
(0.444961 0.0311023 -1.57253e-21)
(0.237645 0.0202094 -5.30461e-22)
(0.117568 0.0122795 0)
(0.0437813 0.0113881 0)
(0.00696923 0.00949497 1.72141e-22)
(-0.0190119 0.0097659 0)
(-0.0324915 0.0091354 0)
(-0.0430727 0.0091961 -7.00826e-24)
(-0.0490746 0.00901963 0)
(-0.0540766 0.00913582 0)
(-0.0574832 0.00929697 2.06394e-18)
(-0.0606883 0.00961249 0)
(-0.0635066 0.00995976 0)
(-0.0664095 0.0103045 0)
(-0.0692583 0.010587 0)
(-0.0721487 0.0107892 -3.57005e-23)
(-0.0749738 0.0108978 -8.83946e-19)
(-0.0777217 0.0109002 1.7225e-18)
(-0.0803103 0.0107707 2.349e-23)
(-0.0826817 0.0104743 8.1951e-19)
(-0.0847435 0.00997663 0)
(-0.0864039 0.00925113 7.83382e-19)
(-0.0875572 0.00828764 0)
(-0.0881028 0.00708758 -3.7682e-19)
(-0.0879367 0.00565611 2.87769e-23)
(-0.0869536 0.00400217 0)
(-0.0850443 0.00214002 0)
(-0.0820992 8.98572e-05 5.48577e-24)
(-0.0780064 -0.00212284 -6.20414e-24)
(-0.0726477 -0.00446777 8.7804e-20)
(-0.0659068 -0.00690666 0)
(-0.0576701 -0.00939244 -3.48673e-19)
(-0.0478295 -0.0118684 3.4849e-19)
(-0.0362823 -0.0142684 0)
(-0.0229388 -0.0165162 -7.00046e-19)
(-0.00771721 -0.0185249 0)
(0.00943674 -0.0201951 2.0578e-22)
(0.0285743 -0.0214095 0)
(0.0496968 -0.0220341 7.14308e-19)
(0.0728465 -0.0219151 7.18281e-19)
(0.0980214 -0.020967 6.31979e-22)
(0.125392 -0.0192356 -1.45568e-18)
(0.154897 -0.0167679 0)
(0.186594 -0.0134144 -1.03975e-21)
(0.220135 -0.00908207 1.50367e-18)
(0.255929 -0.00366564 1.46224e-21)
(0.293158 0.00281693 1.52997e-18)
(0.333095 0.0104555 -2.00814e-21)
(0.373659 0.0191431 -2.33125e-21)
(0.41854 0.0289979 0)
(0.462018 0.0398334 0)
(0.514509 0.0518613 0)
(0.559848 0.0648222 0)
(0.627011 0.0791469 0)
(0.67069 0.0942208 2.25695e-18)
(0.770218 0.111168 0)
(0.802125 0.126494 0)
(0.979622 0.14001 -1.62579e-18)
(0.95506 0.128365 -1.9251e-18)
(0.735464 0.0719687 0)
(0.494324 0.0370944 -1.3805e-21)
(0.283254 0.0239407 -6.86854e-22)
(0.150139 0.0145421 0)
(0.0660891 0.0124853 2.26094e-18)
(0.0217992 0.0101064 -2.26452e-18)
(-0.00868076 0.0101154 0)
(-0.0252735 0.00935317 0)
(-0.0379658 0.00936957 -2.18988e-18)
(-0.045404 0.00915545 0)
(-0.0513782 0.00926626 0)
(-0.0553984 0.00942564 -2.05709e-18)
(-0.0589569 0.00975235 0)
(-0.0619341 0.0101115 -1.95365e-18)
(-0.064856 0.0104675 0)
(-0.067622 0.0107547 0)
(-0.0703506 0.0109545 -2.78103e-23)
(-0.0729491 0.0110531 0)
(-0.0754134 0.0110382 -8.50629e-19)
(-0.0776682 0.0108841 8.28494e-19)
(-0.0796633 0.0105556 -1.61549e-18)
(-0.0813153 0.0100178 7.8848e-19)
(-0.0825411 0.00924378 -7.70848e-19)
(-0.0832436 0.00822362 0)
(-0.0833291 0.00695913 -3.70266e-19)
(-0.0826989 0.0054555 7.28016e-19)
(-0.0812526 0.00372158 0)
(-0.0788844 0.00177162 -8.85189e-20)
(-0.0754885 -0.00037412 4.37824e-20)
(-0.0709542 -0.00269042 -4.33605e-20)
(-0.065166 -0.00514679 -8.6091e-20)
(-0.0580107 -0.00770429 0)
(-0.0493774 -0.0103149 -3.41673e-19)
(-0.0391607 -0.0129209 3.41479e-19)
(-0.0272602 -0.0154545 0)
(-0.013588 -0.0178377 6.86367e-19)
(0.00193644 -0.019981 0)
(0.0193673 -0.0217827 6.92735e-19)
(0.0387572 -0.0231222 0)
(0.0601131 -0.0238637 -7.00604e-19)
(0.0834846 -0.0238531 -7.04864e-19)
(0.108883 -0.0230081 5.93704e-22)
(0.136459 -0.0213717 1.42895e-18)
(0.166119 -0.0189837 0)
(0.197919 -0.0156883 -1.45603e-18)
(0.231531 -0.0113982 0)
(0.267347 -0.00600274 1.48145e-18)
(0.304597 0.000469016 0)
(0.344503 0.00811931 -1.49454e-18)
(0.385093 0.0168139 -2.97544e-18)
(0.429921 0.0267029 0)
(0.473527 0.0375403 0)
(0.52596 0.0496089 0)
(0.571693 0.0625382 1.3365e-18)
(0.638747 0.0768741 0)
(0.683379 0.0918607 -1.01535e-20)
(0.78247 0.108655 0)
(0.816275 0.12373 8.49539e-19)
(0.991517 0.136616 1.53138e-18)
(0.961618 0.134861 0)
(0.767956 0.0788349 3.22288e-18)
(0.541442 0.0432973 3.74092e-18)
(0.330114 0.0281477 -8.54626e-22)
(0.185887 0.0172519 0)
(0.091498 0.0139018 -2.24562e-18)
(0.039149 0.0109162 0)
(0.00369985 0.0105627 2.2478e-18)
(-0.0163912 0.00962434 2.22061e-18)
(-0.0314553 0.00956118 2.18687e-18)
(-0.0405344 0.00928669 2.14584e-18)
(-0.0476335 0.00937504 2.10105e-18)
(-0.0523777 0.00951833 0)
(-0.0563679 0.00984536 0)
(-0.0595568 0.0102081 1.94354e-18)
(-0.0625341 0.0105698 0)
(-0.0652424 0.0108578 0)
(-0.0678279 0.0110528 -1.78145e-18)
(-0.0702147 0.0111392 0)
(-0.0724078 0.0111056 -8.4137e-19)
(-0.0743403 0.010926 0)
(-0.0759702 0.010565 7.97547e-19)
(-0.0772231 0.00998745 -7.7794e-19)
(-0.0780256 0.00916621 0)
(-0.0782886 0.00809129 0)
(-0.0779254 0.00676479 2.15887e-23)
(-0.0768429 0.00519179 -3.5835e-19)
(-0.0749449 0.00338096 0)
(-0.0721297 0.00134649 8.70975e-20)
(-0.0682945 -0.000891483 4.30431e-20)
(-0.06333 -0.00330796 -4.26195e-20)
(-0.0571241 -0.00587222 0)
(-0.0495666 -0.00854462 0)