/*--------------------------------*- C++ -*----------------------------------*\
| =========                 |                                                 |
| \\      /  F ield         | OpenFOAM: The Open Source CFD Toolbox           |
|  \\    /   O peration     | Version:  2.4.0                                 |
|   \\  /    A nd           | Web:      www.OpenFOAM.org                      |
|    \\/     M anipulation  |                                                 |
\*---------------------------------------------------------------------------*/
FoamFile
{
    version     2.0;
    format      ascii;
    class       volVectorField;
    location    "0.02";
    object      U;
}
// * * * * * * * * * * * * * * * * * * * * * * * * * * * * * * * * * * * * * //

dimensions      [0 1 -1 0 0 0 0];

internalField   nonuniform List<vector> 
2320
(
(1.00063 -1.39116e-06 0)
(0.997022 4.26472e-07 0)
(0.996482 1.21908e-05 0)
(1.00315 2.42246e-05 0)
(1.00369 3.21401e-05 0)
(0.997947 4.36891e-05 0)
(0.997108 5.98817e-05 0)
(0.999817 7.69291e-05 0)
(0.999817 9.77796e-05 0)
(0.998201 0.00012771 0)
(0.9975 0.000168619 0)
(0.997107 0.000221609 0)
(0.996136 0.000289077 0)
(0.994738 0.000373362 0)
(0.993062 0.000475313 0)
(0.990973 0.000593369 0)
(0.988366 0.00072204 0)
(0.985228 0.000849781 0)
(0.981601 0.000957049 0)
(0.977606 0.00101561 0)
(1.00063 -8.31795e-07 0)
(0.997029 5.53723e-06 0)
(0.996493 3.20614e-05 0)
(1.00315 6.51728e-05 0)
(1.0037 9.65557e-05 0)
(0.997962 0.000134785 0)
(0.997127 0.000179511 0)
(0.999839 0.00022822 0)
(0.999845 0.000291371 0)
(0.99824 0.000381112 0)
(0.997551 0.000502772 0)
(0.997171 0.000660977 0)
(0.996216 0.000863049 0)
(0.994835 0.00111582 0)
(0.993177 0.00142214 0)
(0.991103 0.00177788 0)
(0.988501 0.00216704 0)
(0.985353 0.0025554 0)
(0.981692 0.00288439 0)
(0.977631 0.0030686 0)
(1.00063 1.49658e-06 0)
(0.997031 1.0755e-05 0)
(0.996495 4.42704e-05 0)
(1.00316 9.93847e-05 0)
(1.00371 0.000162075 0)
(0.997981 0.000227022 0)
(0.997155 0.000294673 0)
(0.999876 0.00037311 0)
(0.999897 0.000479031 0)
(0.99831 0.000627307 0)
(0.997644 0.000827332 0)
(0.997291 0.00108886 0)
(0.996368 0.00142423 0)
(0.995023 0.00184493 0)
(0.993399 0.00235686 0)
(0.991353 0.00295469 0)
(0.988763 0.00361347 0)
(0.985597 0.00427757 0)
(0.981869 0.00484975 0)
(0.977677 0.00518552 0)
(1.00063 2.1537e-06 0)
(0.997032 1.2998e-05 0)
(0.996497 5.57539e-05 0)
(1.00316 0.000134409 0)
(1.00372 0.000225182 0)
(0.998005 0.000312614 0)
(0.997194 0.000401896 0)
(0.999931 0.000509773 0)
(0.999974 0.000656733 0)
(0.998415 0.000860726 0)
(0.997782 0.00113613 0)
(0.99747 0.00149804 0)
(0.996595 0.00196417 0)
(0.995303 0.00255165 0)
(0.993734 0.00327104 0)
(0.991734 0.00411805 0)
(0.989166 0.00506142 0)
(0.985977 0.00602659 0)
(0.982153 0.00687841 0)
(0.977765 0.00741043 0)
(1.00063 2.7282e-06 0)
(0.997033 1.62968e-05 0)
(0.9965 6.84363e-05 0)
(1.00317 0.000166513 0)
(1.00374 0.000281236 0)
(0.998036 0.000390309 0)
(0.997244 0.000500588 0)
(1 0.000635397 0)
(1.00007 0.000820119 0)
(0.998552 0.00107634 0)
(0.997964 0.00142305 0)
(0.997706 0.00188087 0)
(0.996896 0.00247376 0)
(0.995678 0.00322585 0)
(0.994185 0.00415454 0)
(0.992252 0.00525978 0)
(0.989722 0.00650799 0)
(0.986511 0.00780963 0)
(0.982569 0.00899359 0)
(0.977923 0.00978789 0)
(1.00063 3.2135e-06 0)
(0.997034 1.90148e-05 0)
(0.996502 7.90693e-05 0)
(1.00317 0.000193904 0)
(1.00375 0.000330257 0)
(0.998074 0.000459142 0)
(0.997305 0.000587912 0)
(1.00009 0.000746459 0)
(1.0002 0.000965362 0)
(0.998718 0.0012694 0)
(0.998186 0.00168189 0)
(0.997996 0.00222952 0)
(0.997269 0.00294344 0)
(0.996146 0.00385639 0)
(0.994754 0.00499538 0)
(0.992914 0.00636887 0)
(0.990446 0.0079466 0)
(0.987226 0.00963002 0)
(0.98315 0.0112158 0)
(0.978189 0.0123635 0)
(1.00063 3.58058e-06 0)
(0.997034 2.1197e-05 0)
(0.996504 8.80207e-05 0)
(1.00318 0.00021696 0)
(1.00378 0.000371402 0)
(0.998116 0.000516949 0)
(0.997374 0.000661418 0)
(1.00019 0.000840395 0)
(1.00034 0.00108909 0)
(0.998912 0.00143526 0)
(0.998445 0.00190655 0)
(0.998337 0.00253605 0)
(0.997711 0.00336306 0)
(0.996706 0.00443079 0)
(0.995444 0.00577918 0)
(0.993731 0.00743053 0)
(0.991357 0.0093655 0)
(0.988152 0.0114852 0)
(0.983943 0.0135612 0)
(0.978618 0.015183 0)
(1.00063 3.85656e-06 0)
(0.997035 2.28687e-05 0)
(0.996507 9.49687e-05 0)
(1.00319 0.000234843 0)
(1.0038 0.000403432 0)
(0.998164 0.000562242 0)
(0.997451 0.000719322 0)
(1.0003 0.000914849 0)
(1.0005 0.00118809 0)
(0.999129 0.00156957 0)
(0.998737 0.00209113 0)
(0.998725 0.00279248 0)
(0.998217 0.00372196 0)
(0.997355 0.00493513 0)
(0.996256 0.00648869 0)
(0.994711 0.0084252 0)
(0.992478 0.0107461 0)
(0.989329 0.0133646 0)
(0.985007 0.0160387 0)
(0.979283 0.0182914 0)
(1.00063 4.04405e-06 0)
(0.997036 2.39892e-05 0)
(0.996509 9.9664e-05 0)
(1.0032 0.000247069 0)
(1.00382 0.000425629 0)
(0.998215 0.000593923 0)
(0.997533 0.00076006 0)
(1.00043 0.00096775 0)
(1.00067 0.00125956 0)
(0.999366 0.00166842 0)
(0.999058 0.0022301 0)
(0.999153 0.00299096 0)
(0.998783 0.00400899 0)
(0.998091 0.00535402 0)
(0.997191 0.00710349 0)
(0.995862 0.00932765 0)
(0.993831 0.0120612 0)
(0.990804 0.0152463 0)
(0.986414 0.0186469 0)
(0.98028 0.0217298 0)
(1.00063 4.13784e-06 0)
(0.997036 2.45284e-05 0)
(0.996511 0.000101952 0)
(1.00321 0.000253293 0)
(1.00385 0.000437423 0)
(0.998268 0.000611131 0)
(0.99762 0.000782437 0)
(1.00055 0.000997483 0)
(1.00085 0.00130122 0)
(0.999617 0.00172845 0)
(0.9994 0.00231844 0)
(0.999615 0.00312391 0)
(0.9994 0.00421286 0)
(0.998904 0.00567077 0)
(0.998245 0.00759983 0)
(0.997192 0.010106 0)
(0.995441 0.0132727 0)
(0.992628 0.0170932 0)
(0.988257 0.021368 0)
(0.981735 0.0255311 0)
(1.00063 4.13245e-06 0)
(0.997037 2.44671e-05 0)
(0.996514 0.000101743 0)
(1.00322 0.000253305 0)
(1.00388 0.000438476 0)
(0.998322 0.000613354 0)
(0.997708 0.000785692 0)
(1.00068 0.00100293 0)
(1.00104 0.00131138 0)
(0.999877 0.00174699 0)
(0.999756 0.00235187 0)
(1.0001 0.00318447 0)
(1.00006 0.00432247 0)
(0.999785 0.00586779 0)
(0.99941 0.0079508 0)
(0.998701 0.0107212 0)
(0.997328 0.0143295 0)
(0.994857 0.018848 0)
(0.990641 0.0241607 0)
(0.983815 0.0297115 0)
(1.00063 4.024e-06 0)
(0.997037 2.3799e-05 0)
(0.996517 9.90101e-05 0)
(1.00323 0.00024705 0)
(1.00391 0.000428711 0)
(0.998376 0.00060044 0)
(0.997796 0.000769518 0)
(1.00081 0.000983549 0)
(1.00122 0.00128904 0)
(1.00014 0.00172225 0)
(1.00012 0.00232717 0)
(1.0006 0.00316682 0)
(1.00074 0.00432756 0)
(1.00072 0.00592732 0)
(1.00067 0.00812692 0)
(1.00038 0.0111266 0)
(0.999507 0.015165 0)
(0.997548 0.0204267 0)
(0.993696 0.0269497 0)
(0.986732 0.0342574 0)
(1.00063 3.81135e-06 0)
(0.997038 2.25348e-05 0)
(0.996519 9.37902e-05 0)
(1.00324 0.00023463 0)
(1.00393 0.00040832 0)
(0.998429 0.000572614 0)
(0.997881 0.000734089 0)
(1.00094 0.000939392 0)
(1.00141 0.00123403 0)
(1.0004 0.00165347 0)
(1.00048 0.0022424 0)
(1.0011 0.00306674 0)
(1.00144 0.00421948 0)
(1.00169 0.00583254 0)
(1.00201 0.00809739 0)
(1.00222 0.0112685 0)
(1.00198 0.0156959 0)
(1.00075 0.0217107 0)
(0.997565 0.0296111 0)
(0.990758 0.0391025 0)
(1.00063 3.49767e-06 0)
(0.997038 2.07047e-05 0)
(0.996521 8.61743e-05 0)
(1.00325 0.000216303 0)
(1.00396 0.000377779 0)
(0.998479 0.000530474 0)
(0.997962 0.000680067 0)
(1.00106 0.000871187 0)
(1.00158 0.00114703 0)
(1.00065 0.00154111 0)
(1.00083 0.00209729 0)
(1.00159 0.00288217 0)
(1.00212 0.00399225 0)
(1.00266 0.00556919 0)
(1.00339 0.00783232 0)
(1.00418 0.011088 0)
(1.00473 0.0158215 0)
(1.00451 0.0225381 0)
(1.0024 0.0319542 0)
(0.996238 0.0440869 0)
(1.00063 3.09594e-06 0)
(0.997038 1.83616e-05 0)
(0.996523 7.6285e-05 0)
(1.00326 0.000192479 0)
(1.00398 0.000337888 0)
(0.998524 0.00047503 0)
(0.998035 0.000608591 0)
(1.00118 0.000780296 0)
(1.00174 0.00102967 0)
(1.00087 0.00138694 0)
(1.00115 0.00189349 0)
(1.00205 0.00261382 0)
(1.00278 0.0036437 0)
(1.00361 0.00512777 0)
(1.00477 0.00730607 0)
(1.00622 0.010525 0)
(1.00771 0.0154258 0)
(1.00883 0.02269 0)
(1.00834 0.0337043 0)
(1.00361 0.0489011 0)
(1.00063 2.63858e-06 0)
(0.997038 1.56191e-05 0)
(0.996524 6.42906e-05 0)
(1.00326 0.00016358 0)
(1.004 0.000289539 0)
(0.998563 0.000407681 0)
(0.9981 0.000521478 0)
(1.00127 0.000668881 0)
(1.00189 0.000884534 0)
(1.00108 0.00119412 0)
(1.00144 0.00163478 0)
(1.00246 0.00226572 0)
(1.00338 0.00317678 0)
(1.00449 0.00450608 0)
(1.00609 0.00650223 0)
(1.00824 0.00952416 0)
(1.01081 0.0143878 0)
(1.01366 0.0218957 0)
(1.0155 0.034403 0)
(1.01338 0.0530158 0)
(1.00063 2.15473e-06 0)
(0.997038 1.25887e-05 0)
(0.996525 5.07845e-05 0)
(1.00327 0.000130867 0)
(1.00402 0.000233833 0)
(0.998596 0.000329335 0)
(0.998153 0.000420439 0)
(1.00136 0.000539771 0)
(1.00201 0.000715282 0)
(1.00125 0.000967292 0)
(1.00169 0.00132721 0)
(1.00282 0.00184562 0)
(1.0039 0.00260062 0)
(1.00527 0.0037128 0)
(1.00728 0.005419 0)
(1.01016 0.00805235 0)
(1.01388 0.0125663 0)
(1.01887 0.0198685 0)
(1.02385 0.0336603 0)
(1.02638 0.0547033 0)
(1.00063 1.83449e-06 0)
(0.997038 8.50084e-06 0)
(0.996525 3.44687e-05 0)
(1.00328 9.55146e-05 0)
(1.00404 0.000174465 0)
(0.998621 0.000243292 0)
(0.998194 0.000307681 0)
(1.00142 0.00039571 0)
(1.0021 0.000526172 0)
(1.00139 0.000712355 0)
(1.00188 0.000978806 0)
(1.0031 0.00136471 0)
(1.00431 0.00193086 0)
(1.0059 0.00276861 0)
(1.00826 0.00408426 0)
(1.01182 0.00609508 0)
(1.01669 0.00993991 0)
(1.02431 0.0158922 0)
(1.03277 0.031065 0)
(1.04312 0.054561 0)
(1.00063 2.85879e-06 0)
(0.997036 6.09057e-06 0)
(0.996523 1.56917e-05 0)
(1.00328 5.36002e-05 0)
(1.00404 0.000108682 0)
(0.998636 0.000152048 0)
(0.998221 0.000187891 0)
(1.00146 0.000240821 0)
(1.00217 0.000322009 0)
(1.00148 0.000436517 0)
(1.00201 0.00059992 0)
(1.00329 0.000837826 0)
(1.0046 0.00118878 0)
(1.00634 0.00171028 0)
(1.00894 0.00253429 0)
(1.01311 0.00382645 0)
(1.01868 0.00619215 0)
(1.02984 0.0108597 0)
(1.04207 0.021342 0)
(1.06458 0.0512022 0)
(1.00063 1.96955e-06 0)
(0.997029 3.05972e-06 0)
(0.996515 3.11104e-06 0)
(1.00328 1.50499e-05 0)
(1.00405 3.64135e-05 0)
(0.998639 5.2475e-05 0)
(0.99823 6.34791e-05 0)
(1.00148 8.06698e-05 0)
(1.0022 0.000108384 0)
(1.00152 0.00014714 0)
(1.00208 0.000202105 0)
(1.00339 0.000282411 0)
(1.00475 0.000401308 0)
(1.00657 0.000577588 0)
(1.00931 0.000867114 0)
(1.01368 0.0012322 0)
(1.02013 0.0025238 0)
(1.03198 0.00179331 0)
(1.05439 0.0150449 0)
(1.08957 -0.000567612 0)
(0.973493 0.000990558 0)
(0.969662 0.000847019 0)
(0.966646 0.000562223 0)
(0.965034 0.000140882 0)
(0.96534 -0.000372188 0)
(0.967819 -0.000892035 0)
(0.972325 -0.00131657 0)
(0.978294 -0.00156184 0)
(0.973416 0.00300149 0)
(0.969455 0.00257536 0)
(0.966298 0.00171837 0)
(0.96457 0.000442302 0)
(0.964825 -0.00111712 0)
(0.967346 -0.00269947 0)
(0.971988 -0.00399158 0)
(0.978156 -0.0047365 0)
(0.973259 0.00510119 0)
(0.969033 0.00440694 0)
(0.965591 0.00297083 0)
(0.963626 0.000803816 0)
(0.963776 -0.00186385 0)
(0.966386 -0.00457886 0)
(0.971307 -0.00679533 0)
(0.977884 -0.0080677 0)
(0.973037 0.00735245 0)
(0.968401 0.00641639 0)
(0.964509 0.00439036 0)
(0.962166 0.00126995 0)
(0.962146 -0.00261354 0)
(0.96489 -0.00658276 0)
(0.970249 -0.00982152 0)
(0.977468 -0.0116691 0)
(0.972773 0.0098228 0)
(0.967565 0.00868783 0)
(0.963031 0.00605997 0)
(0.960138 0.00189536 0)
(0.959862 -0.00336414 0)
(0.962791 -0.00876863 0)
(0.968768 -0.0131757 0)
(0.976898 -0.0156716 0)
(0.972499 0.0125868 0)
(0.966533 0.0113194 0)
(0.961127 0.0080807 0)
(0.957468 0.00274852 0)
(0.956825 -0.0041103 0)
(0.959992 -0.011202 0)
(0.9668 -0.0169809 0)
(0.976161 -0.0202303 0)
(0.972263 0.0157278 0)
(0.965325 0.014429 0)
(0.958761 0.0105794 0)
(0.954056 0.00391776 0)
(0.952897 -0.00484164 0)
(0.956361 -0.0139589 0)
(0.964253 -0.0213837 0)
(0.975237 -0.0255365 0)
(0.972134 0.0193402 0)
(0.963973 0.018161 0)
(0.955887 0.0137189 0)
(0.949771 0.00551863 0)
(0.947895 -0.0055406 0)
(0.951721 -0.0171283 0)
(0.961005 -0.0265615 0)
(0.974094 -0.0318332 0)
(0.97221 0.02353 0)
(0.96253 0.022696 0)
(0.952456 0.0177124 0)
(0.944439 0.00770312 0)
(0.941576 -0.0061795 0)
(0.945842 -0.0208148 0)
(0.956886 -0.0327302 0)
(0.972685 -0.0394369 0)
(0.97263 0.0284164 0)
(0.96108 0.0282634 0)
(0.948408 0.0228417 0)
(0.937833 0.010671 0)
(0.933625 -0.00671598 0)
(0.938422 -0.025141 0)
(0.951664 -0.0401521 0)
(0.970934 -0.0487714 0)
(0.97359 0.0341299 0)
(0.959758 0.0351597 0)
(0.943677 0.0294828 0)
(0.929656 0.0146833 0)
(0.923633 -0.00708557 0)
(0.929073 -0.0302473 0)
(0.945018 -0.0491411 0)
(0.968726 -0.0604434 0)
(0.975368 0.0408087 0)
(0.958771 0.0437765 0)
(0.938185 0.0381394 0)
(0.919518 0.020078 0)
(0.911073 -0.00719133 0)
(0.917294 -0.0362907 0)
(0.93648 -0.060041 0)
(0.965873 -0.0753214 0)
(0.978365 0.0485903 0)
(0.958438 0.0546404 0)
(0.931835 0.0494865 0)
(0.906899 0.0272958 0)
(0.895267 -0.00687481 0)
(0.902457 -0.0434415 0)
(0.925392 -0.0732082 0)
(0.962045 -0.0945511 0)
(0.983158 0.0576019 0)
(0.959234 0.0684899 0)
(0.924499 0.064405 0)
(0.891109 0.0368356 0)
(0.875352 -0.00597367 0)
(0.883793 -0.0519529 0)
(0.910806 -0.0890542 0)
(0.956732 -0.120326 0)
(0.990605 0.0678861 0)
(0.961855 0.0863672 0)
(0.915929 0.0842842 0)
(0.871185 0.0497322 0)
(0.85019 -0.00389234 0)
(0.860516 -0.0618256 0)
(0.890625 -0.107625 0)
(0.949208 -0.156805 0)
(1.00198 0.07969 0)
(0.967459 0.109371 0)
(0.905934 0.109507 0)
(0.845893 0.0657468 0)
(0.818255 -0.000889481 0)
(0.831823 -0.0728796 0)
(0.860984 -0.128272 0)
(0.941821 -0.208288 0)
(1.01903 0.0927587 0)
(0.976679 0.142785 0)
(0.893174 0.146294 0)
(0.813481 0.0884394 0)
(0.778641 0.003994 0)
(0.7952 -0.0848641 0)
(0.82331 -0.1518 0)
(0.946568 -0.281945 0)
(1.04628 0.102596 0)
(0.995392 0.177614 0)
(0.879729 0.188635 0)
(0.772708 0.119182 0)
(0.730739 0.0107021 0)
(0.741798 -0.0984595 0)
(0.793377 -0.186493 0)
(0.95752 -0.395818 0)
(1.08191 0.133713 0)
(1.00839 0.245218 0)
(0.841215 0.242888 0)
(0.700647 0.146496 0)
(0.661529 0.0270756 0)
(0.663134 -0.114578 0)
(0.777206 -0.242562 0)
(0.898934 -0.562482 0)
(1.1843 0.144825 0)
(1.1189 0.342805 0)
(0.864519 0.352913 0)
(0.664238 0.204278 0)
(0.613587 0.0210983 0)
(0.581835 -0.150372 0)
(0.723709 -0.291018 0)
(0.67366 -0.716831 0)
(0.984876 -0.00158683 0)
(0.991147 -0.00140363 0)
(0.996334 -0.00107935 0)
(1.00002 -0.000717207 0)
(1.00223 -0.000408124 0)
(1.00332 -0.000189315 0)
(1.0037 -5.12718e-05 0)
(1.00367 2.62605e-05 0)
(1.00346 5.69057e-05 0)
(1.0032 5.22868e-05 0)
(1.00301 2.46143e-05 0)
(1.00298 -1.83109e-05 0)
(1.00314 -7.44675e-05 0)
(1.00357 -0.00014562 0)
(1.00431 -0.000236178 0)
(1.00546 -0.000353805 0)
(1.00715 -0.000510326 0)
(1.00956 -0.000723101 0)
(1.01296 -0.00101783 0)
(1.01776 -0.00143304 0)
(1.02452 -0.0020315 0)
(1.03422 -0.00290289 0)
(1.04805 -0.00428664 0)
(1.06953 -0.00613041 0)
(1.09992 -0.0111646 0)
(1.16139 -0.0121324 0)
(1.2427 -0.0540829 0)
(1.51182 -0.0233759 0)
(0.984954 -0.00480824 0)
(0.991403 -0.00424279 0)
(0.996683 -0.00324741 0)
(1.00036 -0.00214246 0)
(1.00251 -0.00120715 0)
(1.00351 -0.000550621 0)
(1.00382 -0.000138887 0)
(1.00374 9.11087e-05 0)
(1.00348 0.000179738 0)
(1.00319 0.000163056 0)
(1.00298 7.82773e-05 0)
(1.00293 -5.1041e-05 0)
(1.00309 -0.000219244 0)
(1.00349 -0.000431679 0)
(1.00421 -0.000701471 0)
(1.00532 -0.00105143 0)
(1.00696 -0.00151665 0)
(1.00931 -0.00214853 0)
(1.01261 -0.00302292 0)
(1.01725 -0.00425331 0)
(1.02378 -0.00602238 0)
(1.03311 -0.00860453 0)
(1.04633 -0.0125818 0)
(1.06658 -0.0186351 0)
(1.09484 -0.0297275 0)
(1.14704 -0.0485569 0)
(1.20708 -0.0988216 0)
(1.33972 -0.213674 0)
(0.985122 -0.00817555 0)
(0.991931 -0.00717773 0)
(0.997394 -0.00544059 0)
(1.00105 -0.0035358 0)
(1.00304 -0.00195064 0)
(1.00387 -0.000857285 0)
(1.00404 -0.000180039 0)
(1.00385 0.000193054 0)
(1.00351 0.00032957 0)
(1.00316 0.000291948 0)
(1.00292 0.000144899 0)
(1.00284 -7.24306e-05 0)
(1.00296 -0.000351832 0)
(1.00333 -0.000702391 0)
(1.004 -0.00114566 0)
(1.00505 -0.00171908 0)
(1.0066 -0.00247992 0)
(1.00881 -0.00351153 0)
(1.01191 -0.00493617 0)
(1.01626 -0.00693612 0)
(1.02234 -0.00979993 0)
(1.03094 -0.0139669 0)
(1.04305 -0.0203126 0)
(1.06081 -0.029951 0)
(1.08557 -0.0470889 0)
(1.12378 -0.0745848 0)
(1.16716 -0.139057 0)
(1.22908 -0.241844 0)
(0.985399 -0.0117936 0)
(0.992773 -0.0102734 0)
(0.998511 -0.00766946 0)
(1.00212 -0.00486768 0)
(1.00386 -0.00259637 0)
(1.00441 -0.00107104 0)
(1.00436 -0.000143499 0)
(1.00401 0.00035612 0)
(1.00354 0.000522616 0)
(1.00311 0.000448963 0)
(1.00281 0.000231394 0)
(1.00269 -7.64206e-05 0)
(1.00278 -0.000465478 0)
(1.0031 -0.000948845 0)
(1.0037 -0.00155608 0)
(1.00466 -0.00233845 0)
(1.00607 -0.00337367 0)
(1.00808 -0.00477375 0)
(1.0109 -0.00670156 0)
(1.01482 -0.00939825 0)
(1.02027 -0.0132373 0)
(1.02785 -0.0187943 0)
(1.03835 -0.0271058 0)
(1.05312 -0.0397239 0)
(1.07283 -0.060482 0)
(1.09964 -0.0939119 0)
(1.1274 -0.155483 0)
(1.15078 -0.249213 0)
(0.985819 -0.0157839 0)
(0.993995 -0.0136019 0)
(1.0001 -0.00993929 0)
(1.0036 -0.00609853 0)
(1.00496 -0.00309489 0)
(1.00512 -0.00114961 0)
(1.00477 4.72656e-06 0)
(1.0042 0.000606201 0)
(1.00357 0.000775295 0)
(1.00303 0.000643729 0)
(1.00266 0.000344147 0)
(1.0025 -5.74646e-05 0)
(1.00253 -0.000553986 0)
(1.00279 -0.00116279 0)
(1.00331 -0.00192096 0)
(1.00415 -0.00289264 0)
(1.00539 -0.00417367 0)
(1.00715 -0.0059005 0)
(1.0096 -0.00826928 0)
(1.01299 -0.0115672 0)
(1.01765 -0.0162296 0)
(1.02401 -0.02292 0)
(1.03259 -0.0327538 0)
(1.04409 -0.047414 0)
(1.05856 -0.0703005 0)
(1.0758 -0.105527 0)
(1.09013 -0.162978 0)
(1.09213 -0.246614 0)
(0.986431 -0.0202913 0)
(0.995695 -0.017242 0)
(1.00227 -0.0122431 0)
(1.00556 -0.00717172 0)
(1.00635 -0.00338628 0)
(1.00598 -0.00104592 0)
(1.00526 0.000301061 0)
(1.00442 0.000968548 0)
(1.00358 0.00110188 0)
(1.0029 0.000883521 0)
(1.00247 0.000487965 0)
(1.00225 -1.15166e-05 0)
(1.00223 -0.000612708 0)
(1.00242 -0.00133757 0)
(1.00284 -0.00223036 0)
(1.00354 -0.00336713 0)
(1.00457 -0.00485919 0)
(1.00603 -0.00686246 0)
(1.00807 -0.00959818 0)
(1.01084 -0.0133856 0)
(1.01459 -0.0186972 0)
(1.01959 -0.026238 0)
(1.02611 -0.0371207 0)
(1.03433 -0.0529927 0)
(1.0438 -0.0766761 0)
(1.05309 -0.111635 0)
(1.05707 -0.163907 0)
(1.0464 -0.235352 0)
(0.987306 -0.0254949 0)
(0.998015 -0.0212807 0)
(1.00514 -0.0145547 0)
(1.00805 -0.00800728 0)
(1.00805 -0.00339746 0)
(1.00699 -0.000706543 0)
(1.0058 0.000785546 0)
(1.00463 0.00146892 0)
(1.00355 0.00151352 0)
(1.00273 0.00117169 0)
(1.00223 0.000664172 0)
(1.00195 6.32507e-05 0)
(1.00187 -0.000638734 0)
(1.00199 -0.00146821 0)
(1.0023 -0.00247636 0)
(1.00284 -0.00375016 0)
(1.00364 -0.00541347 0)
(1.00478 -0.00763644 0)
(1.00634 -0.0106569 0)
(1.00845 -0.0148122 0)
(1.01122 -0.0205891 0)
(1.0148 -0.0286938 0)
(1.01921 -0.0401808 0)
(1.02431 -0.056551 0)
(1.02924 -0.0800743 0)
(1.03209 -0.113419 0)
(1.02825 -0.16008 0)
(1.00986 -0.220606 0)
(0.988547 -0.0316241 0)
(1.00116 -0.0258124 0)
(1.0089 -0.0168168 0)
(1.01115 -0.00849355 0)
(1.01003 -0.00303952 0)
(1.00811 -6.99759e-05 0)
(1.00638 0.00150266 0)
(1.0048 0.00213176 0)
(1.00345 0.00201971 0)
(1.00249 0.00151041 0)
(1.00193 0.000872613 0)
(1.00161 0.000166513 0)
(1.00147 -0.000631247 0)
(1.0015 -0.00155175 0)
(1.0017 -0.00265331 0)
(1.00207 -0.00403301 0)
(1.00263 -0.00582416 0)
(1.00341 -0.00820585 0)
(1.00448 -0.0114243 0)
(1.00588 -0.0158223 0)
(1.00765 -0.0218811 0)
(1.0098 -0.0302782 0)
(1.01218 -0.0419738 0)
(1.01438 -0.0582708 0)
(1.01536 -0.080939 0)
(1.01303 -0.111905 0)
(1.00343 -0.153062 0)
(0.9803 -0.203947 0)
(0.990296 -0.0389794 0)
(1.0054 -0.0309363 0)
(1.01379 -0.0189251 0)
(1.01495 -0.00847758 0)
(1.01229 -0.00220435 0)
(1.0093 0.000935738 0)
(1.00694 0.00250179 0)
(1.00491 0.00297841 0)
(1.00325 0.0026179 0)
(1.00217 0.00189373 0)
(1.00156 0.00111066 0)
(1.00121 0.000296012 0)
(1.00102 -0.000591541 0)
(1.00098 -0.00158728 0)
(1.00106 -0.00275797 0)
(1.00125 -0.00421019 0)
(1.00156 -0.00608347 0)
(1.00198 -0.00856077 0)
(1.00253 -0.0118893 0)
(1.00322 -0.0164062 0)
(1.00399 -0.0225723 0)
(1.00475 -0.0310154 0)
(1.00521 -0.0425827 0)
(1.00482 -0.0583645 0)
(1.00241 -0.0797025 0)
(0.995989 -0.107907 0)
(0.982178 -0.143854 0)
(0.956187 -0.186494 0)
(0.992762 -0.0479531 0)
(1.01115 -0.0367394 0)
(1.0201 -0.0207098 0)
(1.01951 -0.00776127 0)
(1.01477 -0.000761092 0)
(1.01051 0.00239803 0)
(1.00744 0.00383699 0)
(1.00489 0.00402388 0)
(1.00293 0.00330112 0)
(1.00176 0.00231073 0)
(1.00114 0.00136866 0)
(1.00076 0.000444748 0)
(1.00053 -0.000523556 0)
(1.00042 -0.00157602 0)
(1.00039 -0.00278957 0)
(1.00041 -0.00427941 0)
(1.00045 -0.00618806 0)
(1.00051 -0.00869767 0)
(1.00056 -0.0120501 0)
(1.00054 -0.0165678 0)
(1.00035 -0.0226803 0)
(0.99979 -0.0309531 0)
(0.998498 -0.0421149 0)
(0.995809 -0.0570514 0)
(0.990571 -0.0767514 0)
(0.980925 -0.102047 0)
(0.964084 -0.133183 0)
(0.936429 -0.168822 0)
(0.996257 -0.059078 0)
(1.01895 -0.0432486 0)
(1.0282 -0.021881 0)
(1.0249 -0.00609266 0)
(1.0174 0.00143858 0)
(1.01165 0.00442451 0)
(1.0078 0.0055682 0)
(1.00468 0.00527194 0)
(1.00242 0.00405388 0)
(1.00122 0.0027478 0)
(1.00064 0.00163548 0)
(1.00027 0.000603565 0)
(1.00001 -0.000433335 0)
(0.999849 -0.00152117 0)
(0.999712 -0.00274965 0)
(0.999555 -0.0042415 0)
(0.999347 -0.00613886 0)
(0.999048 -0.00861897 0)
(0.998598 -0.0119129 0)
(0.997901 -0.0163218 0)
(0.996798 -0.0222365 0)
(0.995029 -0.0301546 0)
(0.99216 -0.040689 0)
(0.987487 -0.0545414 0)
(0.979901 -0.0724185 0)
(0.967745 -0.0948002 0)
(0.948748 -0.121553 0)
(0.920204 -0.151255 0)
(1.00127 -0.0731375 0)
(1.02958 -0.0504791 0)
(1.0385 -0.0220102 0)
(1.03109 -0.00311546 0)
(1.02006 0.00457812 0)
(1.01264 0.00712795 0)
(1.00793 0.00773256 0)
(1.00418 0.00669121 0)
(1.00169 0.00482987 0)
(1.00056 0.00317486 0)
(1.00007 0.00189328 0)
(0.999734 0.000759998 0)
(0.999474 -0.000328872 0)
(0.999267 -0.00142765 0)
(0.999034 -0.00264194 0)
(0.998714 -0.00410012 0)
(0.998264 -0.00594066 0)
(0.997624 -0.00833232 0)
(0.996705 -0.011491 0)
(0.995372 -0.0156918 0)
(0.993427 -0.0212826 0)
(0.990559 -0.0286921 0)
(0.986298 -0.0384257 0)
(0.979933 -0.0510267 0)
(0.970425 -0.0669834 0)
(0.956331 -0.0865272 0)
(0.935818 -0.109314 0)
(0.906885 -0.133965 0)
(1.00844 -0.0908889 0)
(1.04405 -0.0583056 0)
(1.05142 -0.0206929 0)
(1.03796 0.00153044 0)
(1.0225 0.00898302 0)
(1.0133 0.0107605 0)
(1.00766 0.0104493 0)
(1.00328 0.00830407 0)
(1.00069 0.0056217 0)
(0.999769 0.00357565 0)
(0.999441 0.00212088 0)
(0.999163 0.000897128 0)
(0.998923 -0.000220048 0)
(0.998694 -0.00130182 0)
(0.998377 -0.002472 0)
(0.997906 -0.00386145 0)
(0.997231 -0.00560167 0)
(0.996272 -0.00784991 0)
(0.994917 -0.0108034 0)
(0.993003 -0.0147081 0)
(0.990295 -0.0198668 0)
(0.986453 -0.0266418 0)
(0.980985 -0.035442 0)
(0.973197 -0.0466792 0)
(0.962133 -0.0606773 0)
(0.946554 -0.0775014 0)
(0.924993 -0.0967084 0)
(0.895984 -0.117033 0)
(1.01891 -0.112916 0)
(1.06366 -0.0657111 0)
(1.06736 -0.0171313 0)
(1.04532 0.00803972 0)
(1.02449 0.0146316 0)
(1.0134 0.0150877 0)
(1.00678 0.013307 0)
(1.00183 0.00976046 0)
(0.999357 0.0062494 0)
(0.998825 0.00387788 0)
(0.998741 0.0022846 0)
(0.998567 0.000996657 0)
(0.998376 -0.000117095 0)
(0.998142 -0.00115095 0)
(0.997755 -0.0022469 0)
(0.997149 -0.00353377 0)
(0.996269 -0.00513299 0)
(0.995022 -0.00718772 0)
(0.993274 -0.00987387 0)
(0.990838 -0.0134058 0)
(0.987456 -0.0180416 0)
(0.982766 -0.0240811 0)
(0.976271 -0.0318487 0)
(0.967303 -0.0416502 0)
(0.954996 -0.0536893 0)
(0.93829 -0.0679285 0)
(0.916017 -0.0838984 0)
(0.887118 -0.100486 0)
(1.03673 -0.14145 0)
(1.09224 -0.0713736 0)
(1.08752 -0.00978438 0)
(1.05304 0.0177056 0)
(1.02564 0.0234735 0)
(1.0126 0.0221476 0)
(1.00508 0.0176094 0)
(0.999821 0.0115966 0)
(0.997784 0.0068364 0)
(0.9978 0.00406489 0)
(0.998005 0.00235072 0)
(0.997964 0.00103901 0)
(0.99785 -3.01297e-05 0)
(0.997629 -0.000982841 0)
(0.997185 -0.00197474 0)
(0.996462 -0.003127 0)
(0.995402 -0.00454813 0)
(0.9939 -0.00636481 0)
(0.991806 -0.00872937 0)
(0.988916 -0.0118235 0)
(0.984953 -0.0158616 0)
(0.979543 -0.0210859 0)
(0.972191 -0.0277485 0)
(0.962264 -0.0360711 0)
(0.948976 -0.0461734 0)
(0.931424 -0.0579624 0)
(0.908681 -0.0709903 0)
(0.879988 -0.0843133 0)
(1.07066 -0.180734 0)
(1.13713 -0.0754936 0)
(1.11566 0.00219062 0)
(1.06297 0.0282227 0)
(1.02668 0.0298915 0)
(1.01041 0.0260695 0)
(1.00156 0.0196405 0)
(0.996499 0.0122959 0)
(0.995624 0.00696983 0)
(0.996593 0.00403864 0)
(0.99723 0.00228393 0)
(0.997376 0.00100941 0)
(0.997364 3.33564e-05 0)
(0.997169 -0.000804646 0)
(0.996682 -0.00166405 0)
(0.995861 -0.00265226 0)
(0.994649 -0.00386245 0)
(0.99293 -0.00540261 0)
(0.990542 -0.0073997 0)
(0.987268 -0.0100023 0)
(0.98282 -0.0133824 0)
(0.976816 -0.01773 0)
(0.968769 -0.0232357 0)
(0.958078 -0.0300559 0)
(0.944032 -0.0382546 0)
(0.925857 -0.0477176 0)
(0.90281 -0.05805 0)
(0.874359 -0.0684831 0)
(1.11697 -0.22389 0)
(1.18787 -0.0804694 0)
(1.14312 0.0246758 0)
(1.07002 0.0596402 0)
(1.02594 0.0561897 0)
(1.00783 0.04141 0)
(0.99826 0.0256151 0)
(0.99351 0.0135091 0)
(0.993673 0.00677662 0)
(0.995463 0.00367502 0)
(0.99649 0.00200978 0)
(0.996836 0.000884055 0)
(0.99694 6.55963e-05 0)
(0.996778 -0.000622781 0)
(0.996259 -0.00132318 0)
(0.995361 -0.00212137 0)
(0.994025 -0.00309274 0)
(0.992129 -0.00432442 0)
(0.989503 -0.00591652 0)
(0.985921 -0.00798436 0)
(0.981084 -0.0106594 0)
(0.974609 -0.0140842 0)
(0.966019 -0.0183968 0)
(0.954741 -0.0237039 0)
(0.940127 -0.0300348 0)
(0.921503 -0.0372791 0)
(0.898268 -0.0451145 0)
(0.870051 -0.0529473 0)
(1.12553 -0.237462 0)
(1.17751 -0.0726529 0)
(1.12526 0.0196832 0)
(1.05219 0.0560049 0)
(1.00998 0.0567622 0)
(0.99397 0.0424412 0)
(0.987696 0.0255476 0)
(0.987203 0.0128735 0)
(0.990759 0.00611978 0)
(0.994225 0.00311267 0)
(0.995835 0.00160019 0)
(0.9964 0.000683576 0)
(0.996607 6.74047e-05 0)
(0.996472 -0.000442157 0)
(0.99593 -0.000960172 0)
(0.994974 -0.00154669 0)
(0.993545 -0.0022569 0)
(0.991515 -0.00315491 0)
(0.988708 -0.00431292 0)
(0.984893 -0.00581307 0)
(0.979765 -0.00774802 0)
(0.97294 -0.0102165 0)
(0.96395 -0.0133119 0)
(0.952246 -0.0171023 0)
(0.937228 -0.0215981 0)
(0.918295 -0.0267098 0)
(0.894947 -0.0322001 0)
(0.866927 -0.0376478 0)
(1.03815 -0.253786 0)
(0.972899 -0.0135496 0)
(0.929463 0.0859426 0)
(0.93463 0.113976 0)
(0.958982 0.0957732 0)
(0.977213 0.0595452 0)
(0.982746 0.0282556 0)
(0.985154 0.0105366 0)
(0.98952 0.00363917 0)
(0.993401 0.00159867 0)
(0.995295 0.000855683 0)
(0.99606 0.000394756 0)
(0.99637 4.71494e-05 0)
(0.99626 -0.000262172 0)
(0.995704 -0.000581346 0)
(0.99471 -0.00094047 0)
(0.993218 -0.00137332 0)
(0.991098 -0.00191949 0)
(0.988171 -0.00262263 0)
(0.984199 -0.00353192 0)
(0.978876 -0.00470241 0)
(0.97182 -0.00619209 0)
(0.962566 -0.0080549 0)
(0.950585 -0.0103284 0)
(0.935306 -0.013015 0)
(0.916179 -0.0160567 0)
(0.89277 -0.0193085 0)
(0.86489 -0.0225194 0)
(0.906685 -0.355261 0)
(0.514866 -0.107073 0)
(0.419785 -0.010143 0)
(0.579037 0.0361681 0)
(0.762792 0.0465529 0)
(0.889262 0.0365248 0)
(0.953279 0.0210412 0)
(0.979781 0.00903752 0)
(0.990352 0.002851 0)
(0.994316 0.00067286 0)
(0.995507 0.000155506 0)
(0.995979 5.85214e-05 0)
(0.996247 -1.99848e-06 0)
(0.996142 -8.84641e-05 0)
(0.995582 -0.0001939 0)
(0.994572 -0.000315157 0)
(0.993049 -0.000460801 0)
(0.990883 -0.000644129 0)
(0.987894 -0.000879882 0)
(0.983843 -0.00118447 0)
(0.978422 -0.00157616 0)
(0.971248 -0.00207407 0)
(0.961862 -0.00269581 0)
(0.949742 -0.00345337 0)
(0.934333 -0.00434685 0)
(0.915111 -0.00535627 0)
(0.891673 -0.0064329 0)
(0.863864 -0.00749332 0)
(1.57038 -0.609853 0)
(1.11014 -0.902949 0)
(0.719715 -0.867884 0)
(0.524123 -0.76651 0)
(0.406566 -0.674525 0)
(0.283233 -0.596916 0)
(0.193264 -0.507784 0)
(-0.0712466 -0.476323 0)
(1.29796 -0.633742 0)
(1.03307 -0.775706 0)
(0.753405 -0.745037 0)
(0.571264 -0.683065 0)
(0.447307 -0.611996 0)
(0.325251 -0.537997 0)
(0.228629 -0.446105 0)
(0.0486463 -0.399591 0)
(1.20116 -0.478743 0)
(1.01102 -0.632507 0)
(0.774163 -0.651006 0)
(0.602006 -0.6083 0)
(0.480322 -0.548955 0)
(0.364883 -0.480827 0)
(0.268158 -0.392659 0)
(0.121981 -0.31889 0)
(1.11278 -0.422288 0)
(0.968365 -0.551149 0)
(0.779326 -0.570623 0)
(0.625123 -0.53729 0)
(0.509362 -0.488826 0)
(0.402408 -0.427309 0)
(0.310599 -0.343919 0)
(0.194392 -0.261325 0)
(1.05011 -0.368533 0)
(0.93566 -0.468337 0)
(0.781614 -0.495532 0)
(0.644115 -0.474579 0)
(0.535364 -0.433825 0)
(0.437059 -0.377862 0)
(0.35261 -0.300687 0)
(0.259183 -0.215979 0)
(1.00174 -0.327381 0)
(0.906596 -0.406156 0)
(0.779654 -0.433336 0)
(0.658761 -0.418394 0)
(0.558271 -0.383109 0)
(0.468623 -0.332687 0)
(0.392391 -0.262378 0)
(0.315698 -0.181038 0)
(0.964633 -0.291807 0)
(0.883136 -0.352709 0)
(0.776497 -0.377473 0)
(0.670339 -0.367588 0)
(0.578508 -0.337343 0)
(0.497209 -0.292031 0)
(0.428947 -0.22864 0)
(0.365286 -0.153569 0)
(0.935597 -0.260163 0)
(0.864059 -0.307774 0)
(0.772941 -0.329168 0)
(0.679724 -0.322264 0)
(0.596428 -0.296074 0)
(0.52288 -0.255527 0)
(0.461911 -0.198962 0)
(0.408375 -0.13132 0)
(0.912659 -0.231443 0)
(0.848771 -0.268823 0)
(0.769631 -0.286567 0)
(0.687433 -0.281502 0)
(0.612176 -0.258897 0)
(0.545733 -0.222874 0)
(0.491234 -0.172827 0)
(0.445666 -0.112881 0)
(0.894384 -0.205033 0)
(0.836557 -0.234558 0)
(0.766808 -0.248936 0)
(0.693894 -0.244931 0)
(0.625969 -0.225413 0)
(0.565919 -0.193641 0)
(0.517042 -0.149725 0)
(0.477773 -0.097246 0)
(0.879747 -0.180541 0)
(0.826836 -0.203943 0)
(0.76455 -0.215385 0)
(0.699389 -0.21199 0)
(0.637977 -0.195172 0)
(0.583591 -0.167394 0)
(0.539541 -0.12919 0)
(0.505266 -0.0837246 0)
(0.867997 -0.157665 0)
(0.819124 -0.176233 0)
(0.76283 -0.185216 0)
(0.704106 -0.182199 0)
(0.648364 -0.167762 0)
(0.59892 -0.143717 0)
(0.55897 -0.110801 0)
(0.528655 -0.0718164 0)
(0.858569 -0.136158 0)
(0.813035 -0.150863 0)
(0.761576 -0.157828 0)
(0.708164 -0.155092 0)
(0.65727 -0.142788 0)
(0.612071 -0.122222 0)
(0.57557 -0.0941907 0)
(0.548387 -0.0611485 0)
(0.851038 -0.11581 0)
(0.808255 -0.127386 0)
(0.760702 -0.132717 0)
(0.711638 -0.130244 0)
(0.664817 -0.11988 0)
(0.623204 -0.102558 0)
(0.58957 -0.0790391 0)
(0.564853 -0.0514362 0)
(0.845075 -0.0964311 0)
(0.804541 -0.105438 0)
(0.76012 -0.109456 0)
(0.714571 -0.107267 0)
(0.671106 -0.0986964 0)
(0.632463 -0.0844062 0)