/*--------------------------------*- C++ -*----------------------------------*\
| =========                 |                                                 |
| \\      /  F ield         | OpenFOAM: The Open Source CFD Toolbox           |
|  \\    /   O peration     | Version:  2.4.0                                 |
|   \\  /    A nd           | Web:      www.OpenFOAM.org                      |
|    \\/     M anipulation  |                                                 |
\*---------------------------------------------------------------------------*/
FoamFile
{
    version     2.0;
    format      ascii;
    class       surfaceScalarField;
    location    "0.23";
    object      phi;
}
// * * * * * * * * * * * * * * * * * * * * * * * * * * * * * * * * * * * * * //

dimensions      [0 3 -1 0 0 0 0];

internalField   nonuniform List<scalar> 
4456
(
2.50028e-06
-2.76418e-10
2.50101e-06
-7.32639e-10
2.50208e-06
-1.07072e-09
2.50354e-06
-1.4628e-09
2.50574e-06
-2.19754e-09
2.50916e-06
-3.42226e-09
2.51421e-06
-5.05231e-09
2.52118e-06
-6.96478e-09
2.5304e-06
-9.22117e-09
2.54249e-06
-1.20939e-08
2.55845e-06
-1.59539e-08
2.57963e-06
-2.11862e-08
2.60783e-06
-2.81915e-08
2.64525e-06
-3.74229e-08
2.69465e-06
-4.94005e-08
2.75933e-06
-6.46822e-08
2.84313e-06
-8.37941e-08
2.95025e-06
-1.07121e-07
3.085e-06
-1.34755e-07
-1.66394e-07
3.2514e-06
2.50027e-06
-5.45864e-10
2.50098e-06
-1.44726e-09
2.50203e-06
-2.11499e-09
2.50345e-06
-2.88912e-09
2.5056e-06
-4.34071e-09
2.50894e-06
-6.76135e-09
2.51387e-06
-9.98368e-09
2.52067e-06
-1.37648e-08
2.52967e-06
-1.82274e-08
2.54149e-06
-2.39119e-08
2.55709e-06
-3.15551e-08
2.57783e-06
-4.19233e-08
2.60546e-06
-5.58177e-08
2.64218e-06
-7.41482e-08
2.69075e-06
-9.79652e-08
2.75447e-06
-1.28402e-07
2.83721e-06
-1.66539e-07
2.94327e-06
-2.1318e-07
3.07705e-06
-2.68536e-07
-3.32001e-07
3.24266e-06
2.50026e-06
-8.01991e-10
2.50094e-06
-2.12671e-09
2.50193e-06
-3.10809e-09
2.50329e-06
-4.24585e-09
2.50532e-06
-6.37965e-09
2.5085e-06
-9.93866e-09
2.5132e-06
-1.46776e-08
2.51967e-06
-2.02407e-08
2.52826e-06
-2.68111e-08
2.53953e-06
-3.51882e-08
2.55444e-06
-4.64633e-08
2.57429e-06
-6.17766e-08
2.6008e-06
-8.23285e-08
2.63615e-06
-1.09493e-07
2.68305e-06
-1.44869e-07
2.74485e-06
-1.90201e-07
2.8255e-06
-2.47183e-07
2.92942e-06
-3.17106e-07
3.06125e-06
-4.00364e-07
-4.96055e-07
3.2253e-06
2.50024e-06
-1.03855e-09
2.50086e-06
-2.75442e-09
2.50178e-06
-4.02589e-09
2.50304e-06
-5.5002e-09
2.50492e-06
-8.2653e-09
2.50786e-06
-1.28779e-08
2.51221e-06
-1.90216e-08
2.5182e-06
-2.62386e-08
2.52616e-06
-3.47709e-08
2.53664e-06
-4.56634e-08
2.55052e-06
-6.03443e-08
2.56906e-06
-8.03157e-08
2.5939e-06
-1.07175e-07
2.62718e-06
-1.42767e-07
2.67158e-06
-1.8927e-07
2.73047e-06
-2.49089e-07
2.80791e-06
-3.24623e-07
2.90856e-06
-4.1776e-07
3.03739e-06
-5.29196e-07
-6.57774e-07
3.19911e-06
2.50021e-06
-1.24975e-09
2.50077e-06
-3.31506e-09
2.50159e-06
-4.84601e-09
2.50271e-06
-6.62167e-09
2.5044e-06
-9.95191e-09
2.50703e-06
-1.55079e-08
2.51092e-06
-2.29111e-08
2.5163e-06
-3.16145e-08
2.52344e-06
-4.19176e-08
2.53287e-06
-5.50917e-08
2.5454e-06
-7.28789e-08
2.56221e-06
-9.71257e-08
2.58486e-06
-1.2982e-07
2.61538e-06
-1.73288e-07
2.65643e-06
-2.30319e-07
2.71139e-06
-3.04045e-07
2.78446e-06
-3.97699e-07
2.88062e-06
-5.13918e-07
3.00534e-06
-6.53922e-07
-8.16362e-07
3.16393e-06
2.50018e-06
-1.4304e-09
2.50066e-06
-3.79485e-09
2.50136e-06
-5.54832e-09
2.50232e-06
-7.58276e-09
2.50377e-06
-1.13982e-08
2.50603e-06
-1.77644e-08
2.50937e-06
-2.62508e-08
2.51399e-06
-3.62374e-08
2.52015e-06
-4.80779e-08
2.5283e-06
-6.32463e-08
2.53919e-06
-8.37688e-08
2.55388e-06
-1.11813e-07
2.57381e-06
-1.49747e-07
2.6009e-06
-2.00382e-07
2.63774e-06
-2.67159e-07
2.68771e-06
-3.54009e-07
2.75518e-06
-4.65171e-07
2.84549e-06
-6.04229e-07
2.9649e-06
-7.73336e-07
-9.70869e-07
3.11941e-06
2.50015e-06
-1.57605e-09
2.50053e-06
-4.18193e-09
2.5011e-06
-6.11546e-09
2.50188e-06
-8.35968e-09
2.50305e-06
-1.25683e-08
2.50487e-06
-1.95914e-08
2.50758e-06
-2.89582e-08
2.51134e-06
-3.99926e-08
2.51636e-06
-5.30985e-08
2.52303e-06
-6.99241e-08
2.53201e-06
-9.27428e-08
2.54421e-06
-1.24013e-07
2.56093e-06
-1.66465e-07
2.58394e-06
-2.23394e-07
2.61571e-06
-2.98929e-07
2.65958e-06
-3.97876e-07
2.7201e-06
-5.25695e-07
2.80306e-06
-6.87187e-07
2.91574e-06
-8.86024e-07
-1.12008e-06
3.06496e-06
2.50011e-06
-1.68306e-09
2.50039e-06
-4.46668e-09
2.50081e-06
-6.53324e-09
2.50138e-06
-8.93293e-09
2.50225e-06
-1.34328e-08
2.5036e-06
-2.09428e-08
2.5056e-06
-3.09644e-08
2.5084e-06
-4.27843e-08
2.51215e-06
-5.68502e-08
2.51717e-06
-7.49508e-08
2.524e-06
-9.95632e-08
2.53338e-06
-1.33397e-07
2.54643e-06
-1.7952e-07
2.56474e-06
-2.41695e-07
2.59058e-06
-3.24769e-07
2.6272e-06
-4.34498e-07
2.67929e-06
-5.77791e-07
2.75319e-06
-7.61085e-07
2.85725e-06
-9.9008e-07
-1.26296e-06
3.00012e-06
2.50007e-06
-1.74876e-09
2.50024e-06
-4.6419e-09
2.5005e-06
-6.79106e-09
2.50085e-06
-9.28779e-09
2.50139e-06
-1.39693e-08
2.50223e-06
-2.17834e-08
2.50348e-06
-3.2217e-08
2.50524e-06
-4.45384e-08
2.50762e-06
-5.9231e-08
2.51085e-06
-7.81857e-08
2.51532e-06
-1.04033e-07
2.52161e-06
-1.39684e-07
2.5306e-06
-1.88506e-07
2.5436e-06
-2.54698e-07
2.56267e-06
-3.43841e-07
2.59084e-06
-4.62672e-07
2.63292e-06
-6.19866e-07
2.6957e-06
-8.23863e-07
2.78857e-06
-1.08295e-06
-1.39933e-06
2.92494e-06
2.50002e-06
-1.77145e-09
2.50008e-06
-4.70308e-09
2.50017e-06
-6.88215e-09
2.5003e-06
-9.41478e-09
2.5005e-06
-1.41633e-08
2.5008e-06
-2.20903e-08
2.50127e-06
-3.2681e-08
2.50193e-06
-4.52045e-08
2.50287e-06
-6.01697e-08
2.50421e-06
-7.95266e-08
2.50618e-06
-1.06001e-07
2.50915e-06
-1.42649e-07
2.51372e-06
-1.93081e-07
2.5209e-06
-2.61875e-07
2.53241e-06
-3.5535e-07
2.55088e-06
-4.81148e-07
2.58128e-06
-6.50262e-07
2.63022e-06
-8.72807e-07
2.70907e-06
-1.1618e-06
-1.52887e-06
2.83861e-06
2.49998e-06
-1.75052e-09
2.49992e-06
-4.64846e-09
2.49985e-06
-6.80381e-09
2.49974e-06
-9.30995e-09
2.49959e-06
-1.40085e-08
2.49935e-06
-2.18533e-08
2.49901e-06
-3.23406e-08
2.49856e-06
-4.47583e-08
2.49802e-06
-5.9629e-08
2.49741e-06
-7.89146e-08
2.49678e-06
-1.05372e-07
2.49626e-06
-1.42133e-07
2.49617e-06
-1.92982e-07
2.49707e-06
-2.62783e-07
2.5003e-06
-3.58578e-07
2.50782e-06
-4.88669e-07
2.52482e-06
-6.67262e-07
2.5564e-06
-9.04385e-07
2.61859e-06
-1.22399e-06
-1.64732e-06
2.73705e-06
2.49994e-06
-1.68639e-09
2.49977e-06
-4.47915e-09
2.49952e-06
-6.55749e-09
2.49919e-06
-8.97506e-09
2.49868e-06
-1.35072e-08
2.49791e-06
-2.10755e-08
2.49677e-06
-3.11995e-08
2.49521e-06
-4.32026e-08
2.49319e-06
-5.76072e-08
2.49061e-06
-7.63373e-08
2.48735e-06
-1.02112e-07
2.48327e-06
-1.38056e-07
2.47834e-06
-1.88046e-07
2.47265e-06
-2.57097e-07
2.46699e-06
-3.52921e-07
2.4624e-06
-4.84078e-07
2.46414e-06
-6.68997e-07
2.47427e-06
-9.14516e-07
2.51692e-06
-1.26663e-06
-1.74226e-06
2.61185e-06
2.49989e-06
-1.58061e-09
2.49961e-06
-4.1991e-09
2.49921e-06
-6.14885e-09
2.49865e-06
-8.41761e-09
2.49781e-06
-1.26705e-08
2.49651e-06
-1.97738e-08
2.49459e-06
-2.92816e-08
2.49196e-06
-4.05683e-08
2.48849e-06
-5.41405e-08
2.48399e-06
-7.18326e-08
2.47813e-06
-9.62516e-08
2.4705e-06
-1.30431e-07
2.46068e-06
-1.78224e-07
2.44823e-06
-2.44649e-07
2.43324e-06
-3.37931e-07
2.41563e-06
-4.6647e-07
2.4001e-06
-6.53463e-07
2.38461e-06
-8.99025e-07
2.40357e-06
-1.2856e-06
-1.78977e-06
2.45108e-06
2.49986e-06
-1.43571e-09
2.49947e-06
-3.81504e-09
2.49891e-06
-5.5876e-09
2.49814e-06
-7.65075e-09
2.49699e-06
-1.1518e-08
2.4952e-06
-1.79785e-08
2.49254e-06
-2.66308e-08
2.48889e-06
-3.69141e-08
2.48405e-06
-4.93028e-08
2.47771e-06
-6.549e-08
2.46935e-06
-8.78954e-08
2.45829e-06
-1.19365e-07
2.44367e-06
-1.63606e-07
2.42448e-06
-2.25462e-07
2.39994e-06
-3.13392e-07
2.36878e-06
-4.35308e-07
2.33415e-06
-6.18831e-07
2.28917e-06
-8.54047e-07
2.27911e-06
-1.27553e-06
-1.75115e-06
2.24049e-06
2.49982e-06
-1.25526e-09
2.49934e-06
-3.33632e-09
2.49864e-06
-4.88736e-09
2.49768e-06
-6.69299e-09
2.49624e-06
-1.00774e-08
2.494e-06
-1.57324e-08
2.49068e-06
-2.33102e-08
2.48609e-06
-3.23258e-08
2.47999e-06
-4.32056e-08
2.47195e-06
-5.74509e-08
2.46128e-06
-7.72195e-08
2.44698e-06
-1.05073e-07
2.42781e-06
-1.4443e-07
2.40213e-06
-1.99781e-07
2.36813e-06
-2.79399e-07
2.32334e-06
-3.90512e-07
2.26842e-06
-5.63908e-07
2.19115e-06
-7.76777e-07
2.14686e-06
-1.23124e-06
-1.57614e-06
1.97184e-06
2.49979e-06
-1.04368e-09
2.49923e-06
-2.77468e-09
2.4984e-06
-4.0653e-09
2.49728e-06
-5.56783e-09
2.49559e-06
-8.38402e-09
2.49294e-06
-1.30906e-08
2.48903e-06
-1.94007e-08
2.48362e-06
-2.69151e-08
2.47641e-06
-3.5996e-08
2.46687e-06
-4.79071e-08
2.45412e-06
-6.44735e-08
2.43693e-06
-8.78806e-08
2.4136e-06
-1.21102e-07
2.38191e-06
-1.68091e-07
2.33895e-06
-2.36432e-07
2.28102e-06
-3.32588e-07
2.20555e-06
-4.88439e-07
2.09612e-06
-6.67348e-07
2.01209e-06
-1.14721e-06
-1.23332e-06
1.66928e-06
2.49976e-06
-8.06199e-10
2.49913e-06
-2.14399e-09
2.49821e-06
-3.14168e-09
2.49694e-06
-4.30307e-09
2.49504e-06
-6.47982e-09
2.49207e-06
-1.01187e-08
2.48767e-06
-1.49995e-08
2.48157e-06
-2.08162e-08
2.47342e-06
-2.78533e-08
2.46261e-06
-3.70968e-08
2.44812e-06
-4.99761e-08
2.42845e-06
-6.82148e-08
2.40154e-06
-9.41944e-08
2.36458e-06
-1.31132e-07
2.31351e-06
-1.85362e-07
2.24359e-06
-2.62664e-07
2.14815e-06
-3.92998e-07
2.01336e-06
-5.32554e-07
1.87971e-06
-1.01357e-06
-7.65822e-07
1.41221e-06
2.49974e-06
-5.48731e-10
2.49906e-06
-1.4599e-09
2.49806e-06
-2.13943e-09
2.49668e-06
-2.93018e-09
2.49462e-06
-4.41232e-09
2.49139e-06
-6.89094e-09
2.48661e-06
-1.02171e-08
2.47997e-06
-1.41832e-08
2.4711e-06
-1.89851e-08
2.45931e-06
-2.52986e-08
2.44344e-06
-3.41072e-08
2.42182e-06
-4.66018e-08
2.39207e-06
-6.44438e-08
2.35087e-06
-8.99242e-08
2.293e-06
-1.27499e-07
2.21263e-06
-1.82293e-07
2.09744e-06
-2.77803e-07
1.94948e-06
-3.84599e-07
1.75427e-06
-8.18354e-07
-2.91225e-07
1.27967e-06
2.49973e-06
-2.77805e-10
2.49901e-06
-7.39364e-10
2.49795e-06
-1.08358e-09
2.49651e-06
-1.48397e-09
2.49433e-06
-2.23428e-09
2.49093e-06
-3.48945e-09
2.48588e-06
-5.1746e-09
2.47889e-06
-7.18488e-09
2.46952e-06
-9.61987e-09
2.45705e-06
-1.2823e-08
2.44023e-06
-1.72954e-08
2.41728e-06
-2.36459e-08
2.38556e-06
-3.27244e-08
2.34138e-06
-4.57455e-08
2.27871e-06
-6.48339e-08
2.18997e-06
-9.35458e-08
2.0556e-06
-1.4344e-07
1.88111e-06
-2.10108e-07
1.63016e-06
-5.67403e-07
7.14983e-08
1.26744e-06
2.49972e-06
2.49898e-06
2.4979e-06
2.49642e-06
2.49418e-06
2.49069e-06
2.48552e-06
2.47833e-06
2.46871e-06
2.45589e-06
2.43859e-06
2.41495e-06
2.38222e-06
2.33648e-06
2.27164e-06
2.1781e-06
2.03466e-06
1.82455e-06
1.25715e-06
1.32864e-06
3.45269e-06
-2.01295e-07
3.69126e-06
-2.38569e-07
3.96919e-06
-2.77929e-07
4.28988e-06
-3.20692e-07
4.65953e-06
-3.69652e-07
5.08609e-06
-4.26561e-07
5.5735e-06
-4.8741e-07
-5.40043e-07
6.11355e-06
3.44337e-06
-4.02003e-07
3.68139e-06
-4.76592e-07
3.95844e-06
-5.54975e-07
4.27764e-06
-6.39901e-07
4.64565e-06
-7.37657e-07
5.07173e-06
-8.52639e-07
5.56116e-06
-9.76841e-07
-1.08519e-06
6.10631e-06
3.4249e-06
-6.01602e-07
3.66191e-06
-7.13598e-07
3.93723e-06
-8.30298e-07
4.25369e-06
-9.56357e-07
4.61863e-06
-1.1026e-06
5.04278e-06
-1.27679e-06
5.53319e-06
-1.46725e-06
-1.63675e-06
6.08475e-06
3.39712e-06
-7.99604e-07
3.63272e-06
-9.49201e-07
3.90589e-06
-1.10347e-06
4.21857e-06
-1.26903e-06
4.57625e-06
-1.46028e-06
4.99018e-06
-1.69072e-06
5.47527e-06
-1.95234e-06
-2.19954e-06
6.03807e-06
3.35988e-06
-9.95553e-07
3.59433e-06
-1.18365e-06
3.86581e-06
-1.37496e-06
4.17057e-06
-1.57378e-06
4.50828e-06
-1.79799e-06
4.90283e-06
-2.08527e-06
5.39839e-06
-2.44791e-06
-2.81772e-06
6.01657e-06
3.31317e-06
-1.18931e-06
3.54819e-06
-1.41867e-06
3.81651e-06
-1.64328e-06
4.10085e-06
-1.85813e-06
4.40986e-06
-2.10701e-06
4.81791e-06
-2.49332e-06
5.40587e-06
-3.03587e-06
-3.5804e-06
6.16855e-06
3.25768e-06
-1.38203e-06
3.49507e-06
-1.65606e-06
3.7514e-06
-1.89961e-06
4.00649e-06
-2.11321e-06
4.32691e-06
-2.42743e-06
4.85631e-06
-3.02271e-06
5.64763e-06
-3.82719e-06
-4.53253e-06
6.59976e-06
3.19437e-06
-1.57628e-06
3.43101e-06
-1.8927e-06
3.66532e-06
-2.13393e-06
3.92327e-06
-2.37116e-06
4.3648e-06
-2.86896e-06
5.13115e-06
-3.78907e-06
6.14869e-06
-4.84472e-06
-5.6054e-06
7.22156e-06
3.12155e-06
-1.77289e-06
3.34901e-06
-2.12015e-06
3.57574e-06
-2.36065e-06
3.92717e-06
-2.7226e-06
4.60129e-06
-3.54308e-06
5.6187e-06
-4.80648e-06
6.76527e-06
-5.99129e-06
-6.6763e-06
7.83617e-06
3.03283e-06
-1.96711e-06
3.25004e-06
-2.33736e-06
3.52656e-06
-2.63717e-06
4.0734e-06
-3.26944e-06
5.00521e-06
-4.47489e-06
6.1796e-06
-5.98086e-06
7.32061e-06
-7.1323e-06
-7.66014e-06
8.30445e-06
2.91996e-06
-2.15003e-06
3.14818e-06
-2.56558e-06
3.55508e-06
-3.04407e-06
4.34687e-06
-4.06122e-06
5.47044e-06
-5.59846e-06
6.6735e-06
-7.18392e-06
7.70882e-06
-8.16763e-06
-8.54481e-06
8.59349e-06
2.77638e-06
-2.31456e-06
3.05989e-06
-2.84909e-06
3.66699e-06
-3.65117e-06
4.68832e-06
-5.08256e-06
5.89505e-06
-6.80519e-06
7.01566e-06
-8.30453e-06
7.9e-06
-9.05196e-06
-9.38935e-06
8.74454e-06
2.59831e-06
-2.46179e-06
3.00286e-06
-3.25364e-06
3.85661e-06
-4.50492e-06
5.0404e-06
-6.26635e-06
6.20857e-06
-7.97336e-06
7.17111e-06
-9.26707e-06
7.91754e-06
-9.79839e-06
-1.03087e-05
8.83693e-06
2.3978e-06
-2.61909e-06
3.01824e-06
-3.87408e-06
4.12279e-06
-5.60948e-06
5.34889e-06
-7.49245e-06
6.3631e-06
-8.98757e-06
7.14317e-06
-1.00471e-05
7.81757e-06
-1.04728e-05
-1.14347e-05
8.94355e-06
2.2311e-06
-2.87835e-06
3.16486e-06
-4.80784e-06
4.4371e-06
-6.88173e-06
5.55014e-06
-8.60549e-06
6.33897e-06
-9.77639e-06
6.9689e-06
-1.06771e-05
7.65304e-06
-1.11569e-05
-1.28447e-05
9.06297e-06
2.19752e-06
-3.40659e-06
3.45772e-06
-6.06804e-06
4.72037e-06
-8.14438e-06
5.59443e-06
-9.47955e-06
6.16216e-06
-1.03441e-05
6.70654e-06
-1.12215e-05
7.43719e-06
-1.18876e-05
-1.44767e-05
9.06926e-06
2.37667e-06
-4.37105e-06
3.82426e-06
-7.51563e-06
4.88173e-06
-9.20185e-06
5.48166e-06
-1.00795e-05
5.89519e-06
-1.07576e-05
6.41305e-06
-1.17393e-05
7.15742e-06
-1.26319e-05
-1.60753e-05
8.756e-06
2.76124e-06
-5.85261e-06
4.14226e-06
-8.89666e-06
4.87794e-06
-9.93752e-06
5.2617e-06
-1.04632e-05
5.59522e-06
-1.10912e-05
6.10828e-06
-1.22524e-05
6.81104e-06
-1.33347e-05
-1.72744e-05
8.01009e-06
3.24084e-06
-7.82601e-06
4.30869e-06
-9.9645e-06
4.73764e-06
-1.03665e-05
5.00236e-06
-1.0728e-05
5.28349e-06
-1.13723e-05
5.73421e-06
-1.27031e-05
6.33441e-06
-1.39349e-05
-1.80029e-05
7.06295e-06
3.63685e-06
-1.01342e-05
4.29184e-06
-1.06195e-05
4.54201e-06
-1.06166e-05
4.75441e-06
-1.09404e-05
4.96564e-06
-1.15835e-05
5.227e-06
-1.29645e-05
5.49618e-06
-1.42041e-05
6.4305e-06
-1.89372e-05
6.68142e-06
-5.67877e-07
7.23839e-06
-5.56969e-07
7.74064e-06
-5.02252e-07
8.15058e-06
-4.09934e-07
8.44571e-06
-2.95136e-07
8.62221e-06
-1.76497e-07
8.69259e-06
-7.03804e-08
8.67953e-06
1.30578e-08
8.60881e-06
7.07213e-08
8.50363e-06
1.05184e-07
8.38214e-06
1.21493e-07
8.25759e-06
1.24542e-07
8.13916e-06
1.1843e-07
8.03264e-06
1.06529e-07
7.94125e-06
9.13899e-08
7.86655e-06
7.46969e-08
7.80915e-06
5.74029e-08
7.76925e-06
3.98963e-08
7.74717e-06
2.20773e-08
7.74378e-06
3.38849e-09
7.76123e-06
-1.74465e-08
7.80359e-06
-4.23573e-08
7.87838e-06
-7.47904e-08
7.99912e-06
-1.2074e-07
8.19367e-06
-1.9455e-07
8.51442e-06
-3.20754e-07
9.19906e-06
-6.84641e-07
-1.41513e-06
1.06142e-05
6.68203e-06
-1.1436e-06
7.2482e-06
-1.12314e-06
7.75892e-06
-1.01297e-06
8.17454e-06
-8.25552e-07
8.47146e-06
-5.92057e-07
8.64605e-06
-3.51091e-07
8.71209e-06
-1.36417e-07
8.69385e-06
3.12938e-08
8.6183e-06
1.46271e-07
8.50915e-06
2.14333e-07
8.38468e-06
2.45966e-07
8.25809e-06
2.51128e-07
8.1384e-06
2.38127e-07
8.03116e-06
2.13759e-07
7.93943e-06
1.83127e-07
7.86456e-06
1.49565e-07
7.80701e-06
1.14949e-07
7.76688e-06
8.00343e-08
7.74434e-06
4.46158e-08
7.74016e-06
7.56437e-09
7.75627e-06
-3.35543e-08
7.7964e-06
-8.24822e-08
7.86754e-06
-1.4594e-07
7.98198e-06
-2.35171e-07
8.16372e-06
-3.76293e-07
8.45797e-06
-6.15005e-07
8.89228e-06
-1.11895e-06
-1.9942e-06
9.47135e-06
6.67402e-06
-1.73287e-06
7.25895e-06
-1.70807e-06
7.78838e-06
-1.5424e-06
8.21725e-06
-1.25442e-06
8.5191e-06
-8.93909e-07
8.69074e-06
-5.2273e-07
8.74864e-06
-1.94315e-07
8.72037e-06
5.95635e-08
8.63536e-06
2.31277e-07
8.5184e-06
3.31293e-07
8.38804e-06
3.76334e-07
8.25739e-06
3.81771e-07
8.13518e-06
3.6034e-07
8.02656e-06
3.22378e-07
7.93416e-06
2.75529e-07
7.85901e-06
2.24717e-07
7.80127e-06
1.72681e-07
7.7608e-06
1.20504e-07
7.73756e-06
6.7861e-08
7.73203e-06
1.30901e-08
7.74577e-06
-4.72908e-08
7.78188e-06
-1.18588e-07
7.84602e-06
-2.10083e-07
7.9478e-06
-3.36957e-07
8.10176e-06
-5.30251e-07
8.32623e-06
-8.3947e-07
8.60218e-06
-1.3949e-06
-2.30621e-06
8.91419e-06
6.65817e-06
-2.35297e-06
7.2834e-06
-2.3333e-06
7.84799e-06
-2.10699e-06
8.29719e-06
-1.70363e-06
8.60257e-06
-1.19929e-06
8.76469e-06
-6.84848e-07
8.80619e-06
-2.35817e-07
8.76036e-06
1.05394e-07
8.65998e-06
3.31658e-07
8.53087e-06
4.60403e-07
8.39158e-06
5.15628e-07
8.25489e-06
5.18455e-07
8.12897e-06
4.86257e-07
8.01834e-06
4.33015e-07
7.925e-06
3.68866e-07
7.84949e-06
3.00224e-07
7.79157e-06
2.30603e-07
7.75073e-06
1.6135e-07
7.72659e-06
9.19988e-08
7.71925e-06
2.04302e-08
7.72974e-06
-5.77874e-08
7.76029e-06
-1.49132e-07
7.81479e-06
-2.64589e-07
7.89931e-06
-4.21471e-07
8.01987e-06
-6.50814e-07
8.18048e-06
-1.00008e-06
8.35043e-06
-1.56485e-06
-2.4278e-06
8.47201e-06
6.71855e-06
-3.05495e-06
7.41808e-06
-3.03283e-06
8.02636e-06
-2.71527e-06
8.48425e-06
-2.16152e-06
8.77106e-06
-1.48609e-06
8.89923e-06
-8.13015e-07
8.90277e-06
-2.39358e-07
8.8231e-06
1.85057e-07
8.6963e-06
4.58463e-07
8.548e-06
6.08702e-07
8.39554e-06
6.68091e-07
8.25041e-06
6.63579e-07
8.11954e-06
6.17131e-07
8.00631e-06
5.46239e-07
7.91186e-06
4.63319e-07
7.83601e-06
3.76072e-07
7.77797e-06
2.88641e-07
7.73677e-06
2.02552e-07
7.71161e-06
1.17165e-07
7.70218e-06
2.98623e-08
7.70876e-06
-6.43773e-08
7.73263e-06
-1.73002e-07
7.77587e-06
-3.07822e-07
7.84111e-06
-4.86715e-07
7.92879e-06
-7.38494e-07
8.03349e-06
-1.10478e-06
8.12131e-06
-1.65266e-06
-2.43859e-06
8.1321e-06
7.00388e-06
-3.89029e-06
7.78141e-06
-3.81036e-06
8.40485e-06
-3.33871e-06
8.82951e-06
-2.58618e-06
9.0553e-06
-1.71188e-06
9.1131e-06
-8.70819e-07
9.05047e-06
-1.76729e-07
8.91665e-06
3.18884e-07
8.74933e-06
6.25777e-07
8.57252e-06
7.85519e-07
8.40112e-06
8.39489e-07
8.24431e-06
8.20392e-07
8.10685e-06
7.54584e-07
7.99038e-06
6.62713e-07
7.89466e-06
5.59034e-07
7.81857e-06
4.52167e-07
7.76057e-06
3.46638e-07
7.71914e-06
2.43986e-07
7.69297e-06
1.43329e-07
7.68123e-06
4.16093e-08
7.68354e-06
-6.66876e-08
7.70011e-06
-1.89574e-07
7.73137e-06
-3.39087e-07
7.77722e-06
-5.32566e-07
7.83428e-06
-7.95551e-07
7.8919e-06
-1.16239e-06
7.9185e-06
-1.67927e-06
-2.38079e-06
7.8607e-06
7.54343e-06
-4.83395e-06
8.34178e-06
-4.60871e-06
8.9231e-06
-3.92003e-06
9.268e-06
-2.93108e-06
9.39695e-06
-1.84083e-06
9.35886e-06
-8.3273e-07
9.21481e-06
-3.26789e-08
9.01924e-06
5.14452e-07
8.80748e-06
8.37536e-07
8.59931e-06
9.93695e-07
8.40652e-06
1.03227e-06
8.2361e-06
9.90816e-07
8.09083e-06
8.99852e-07
7.97052e-06
7.83026e-07
7.87343e-06
6.56127e-07
7.79723e-06
5.28365e-07
7.73951e-06
4.04359e-07
7.69805e-06
2.85447e-07
7.671e-06
1.70377e-07
7.65693e-06
5.5676e-08
7.65483e-06
-6.45917e-08
7.66394e-06
-1.9868e-07
7.68328e-06
-3.58422e-07
7.71068e-06
-5.59966e-07
7.74038e-06
-8.25255e-07
7.75956e-06
-1.18157e-06
7.74032e-06
-1.66002e-06
-2.27913e-06
7.63866e-06
8.17788e-06
-5.79027e-06
8.92492e-06
-5.35575e-06
9.42775e-06
-4.42286e-06
9.67846e-06
-3.18179e-06
9.70104e-06
-1.86341e-06
9.55723e-06
-6.88926e-07
9.32797e-06
1.96589e-07
9.0768e-06
7.65622e-07
8.83276e-06
1.08158e-06
8.60528e-06
1.22118e-06
8.39962e-06
1.23793e-06
8.22027e-06
1.17016e-06
8.0693e-06
1.05082e-06
7.94602e-06
9.06311e-07
7.848e-06
7.54149e-07
7.77206e-06
6.04301e-07
7.71496e-06
4.61458e-07
7.67378e-06
3.2663e-07
7.64606e-06
1.98091e-07
7.62985e-06
7.18853e-08
7.62345e-06
-5.81881e-08
7.62528e-06
-2.00511e-07
7.63325e-06
-3.66392e-07
7.64377e-06
-5.70487e-07
7.64978e-06
-8.31259e-07
7.63802e-06
-1.16982e-06
7.58457e-06
-1.60658e-06
-2.14921e-06
7.45465e-06
8.72409e-06
-6.67819e-06
9.3969e-06
-6.02856e-06
9.83798e-06
-4.86393e-06
1.00202e-05
-3.36406e-06
9.94822e-06
-1.79138e-06
9.69038e-06
-4.31085e-07
9.36276e-06
5.24202e-07
9.05188e-06
1.0765e-06
8.78539e-06
1.34807e-06
8.55687e-06
1.44969e-06
8.35708e-06
1.43773e-06
8.18306e-06
1.34418e-06
8.03522e-06
1.19867e-06
7.91373e-06
1.0278e-06
7.81718e-06
8.50699e-07
7.74274e-06
6.78739e-07
7.68698e-06
5.17217e-07
7.64656e-06
3.67049e-07
7.61856e-06
2.26093e-07
7.60049e-06
8.99521e-08
7.59012e-06
-4.78121e-08
7.58517e-06
-1.95561e-07
7.58271e-06
-3.63938e-07
7.57825e-06
-5.66023e-07
7.56415e-06
-8.17163e-07
7.52775e-06
-1.13341e-06
7.44894e-06
-1.52777e-06
-2.0011e-06
7.30083e-06
9.11405e-06
-7.48779e-06
9.76065e-06
-6.67516e-06
1.02063e-05
-5.30954e-06
1.03674e-05
-3.5252e-06
1.02147e-05
-1.63872e-06
9.82512e-06
-4.14577e-08
9.36714e-06
9.82185e-07
8.9659e-06
1.47774e-06
8.66183e-06
1.65214e-06
8.4358e-06
1.67572e-06
8.25723e-06
1.6163e-06
8.10651e-06
1.4949e-06
7.97656e-06
1.32862e-06
7.8668e-06
1.13756e-06
7.77758e-06
9.39912e-07
7.70786e-06
7.48464e-07
7.65517e-06
5.69901e-07
7.61651e-06
4.05715e-07
7.58885e-06
2.53756e-07
7.5694e-06
1.09394e-07
7.55555e-06
-3.39539e-08
7.54449e-06
-1.8451e-07
7.53275e-06
-3.52199e-07
7.51531e-06
-5.48581e-07
7.48448e-06
-7.86332e-07
7.42863e-06
-1.07756e-06
7.33113e-06
-1.43026e-06
-1.84149e-06
7.17152e-06
9.39051e-06
-8.28482e-06
1.01171e-05
-7.40173e-06
1.06611e-05
-5.85355e-06
1.08438e-05
-3.70788e-06
1.06015e-05
-1.3965e-06
1.00521e-05
5.07943e-07
9.41939e-06
1.61493e-06
8.88198e-06
2.01515e-06
8.5013e-06
2.03282e-06
8.25655e-06
1.92047e-06
8.09699e-06
1.77585e-06
7.9796e-06
1.61229e-06
7.88161e-06
1.42661e-06
7.79621e-06
1.22296e-06
7.72349e-06
1.01263e-06
7.66427e-06
8.07691e-07
7.61804e-06
6.16131e-07
7.58305e-06
4.40701e-07
7.55688e-06
2.79926e-07
7.53688e-06
1.29394e-07
7.52029e-06
-1.73637e-08
7.50405e-06
-1.68272e-07
7.48434e-06
-3.32484e-07
7.45592e-06
-5.20165e-07
7.41137e-06
-7.4178e-07
7.34029e-06
-1.00648e-06
7.22908e-06
-1.31905e-06
-1.67475e-06
7.06234e-06
9.64969e-06
-9.18996e-06
1.05833e-05
-8.33532e-06
1.13059e-05
-6.57616e-06
1.15239e-05
-3.92587e-06
1.11597e-05
-1.03228e-06
1.04003e-05
1.26732e-06
9.55496e-06
2.46025e-06
8.84474e-06
2.72537e-06
8.351e-06
2.52656e-06
8.05617e-06
2.2153e-06
7.89682e-06
1.93521e-06
7.80822e-06
1.70089e-06
7.7478e-06
1.48703e-06
7.6966e-06
1.27415e-06
7.65e-06
1.05923e-06
7.6087e-06
8.48999e-07
7.57387e-06
6.50956e-07
7.54558e-06
4.6899e-07
7.52269e-06
3.02816e-07
7.50326e-06
1.48824e-07
7.48482e-06
1.07509e-09
7.46437e-06
-1.47818e-07
7.43801e-06
-3.06119e-07
7.40054e-06
-4.82695e-07
7.34495e-06
-6.86193e-07
7.26208e-06
-9.23619e-07
7.14084e-06
-1.19781e-06
-1.50357e-06
6.96965e-06
9.97727e-06
-1.03303e-05
1.11863e-05
-9.54439e-06
1.20749e-05
-7.46476e-06
1.22868e-05
-4.13775e-06
1.17664e-05
-5.11849e-07
1.07815e-05
2.25221e-06
9.72092e-06
3.52082e-06
8.8392e-06
3.60709e-06
8.22813e-06
3.13763e-06
7.86895e-06
2.57448e-06
7.69116e-06
2.11301e-06
7.61716e-06
1.77488e-06
7.58872e-06
1.51547e-06
7.57337e-06
1.2895e-06
7.55812e-06
1.07448e-06
7.54047e-06
8.66646e-07
7.52176e-06
6.69664e-07
7.5035e-06
4.8725e-07
7.48607e-06
3.20244e-07
7.46869e-06
1.66206e-07
7.4496e-06
2.01699e-08
7.42613e-06
-1.24348e-07
7.39454e-06
-2.7453e-07
7.34982e-06
-4.37979e-07
7.28548e-06
-6.21846e-07
7.19347e-06
-8.31615e-07
7.0647e-06
-1.06904e-06
-1.32941e-06
6.89054e-06
1.03531e-05
-1.17398e-05
1.17163e-05
-1.09076e-05
1.256e-05
-8.30846e-06
1.26501e-05
-4.22786e-06
1.201e-05
1.28236e-07
1.09047e-05
3.35751e-06
9.7331e-06
4.69244e-06
8.76118e-06
4.57901e-06
8.08913e-06
3.80969e-06
7.69484e-06
2.96876e-06
7.50429e-06
2.30356e-06
7.43753e-06
1.84164e-06
7.43145e-06
1.52156e-06
7.44583e-06
1.27512e-06
7.46006e-06
1.06025e-06
7.46689e-06
8.59818e-07
7.46602e-06
6.70532e-07
7.45937e-06
4.93901e-07
7.44858e-06
3.31037e-07
7.43413e-06
1.80651e-07
7.41513e-06
3.91773e-08
7.38954e-06
-9.87602e-08
7.3539e-06
-2.3889e-07
7.30351e-06
-3.87591e-07
7.23239e-06
-5.50726e-07
7.13347e-06
-7.327e-07
6.99924e-06
-9.34804e-07
-1.15371e-06
6.82354e-06
1.05475e-05
-1.32244e-05
1.16239e-05
-1.19839e-05
1.19728e-05
-8.65739e-06
1.17786e-05
-4.03358e-06
1.11503e-05
7.56478e-07
1.02266e-05
4.28119e-06
9.23542e-06
5.68365e-06
8.39494e-06
5.41949e-06
7.81199e-06
4.39263e-06
7.47483e-06
3.30593e-06
7.31957e-06
2.45882e-06
7.27746e-06
1.88374e-06
7.29425e-06
1.50476e-06
7.33266e-06
1.23672e-06
7.37043e-06
1.02248e-06
7.39763e-06
8.32611e-07
7.4124e-06
6.55767e-07
7.41642e-06
4.89883e-07
7.41199e-06
3.35467e-07
7.40058e-06
1.92062e-07
7.38228e-06
5.74786e-08
7.35542e-06
-7.19035e-08
7.31699e-06
-2.00462e-07
7.26259e-06
-3.33192e-07
7.18679e-06
-4.7492e-07
7.08337e-06
-6.29282e-07
6.94617e-06
-7.97607e-07
-9.78705e-07
6.77117e-06
1.01248e-05
-1.428e-05
1.01684e-05
-1.20276e-05
9.51232e-06
-8.00127e-06
8.95674e-06
-3.47801e-06
8.56727e-06
1.14596e-06
8.25264e-06
4.59582e-06
7.85919e-06
6.0771e-06
7.48632e-06
5.79236e-06
7.22917e-06
4.64979e-06
7.10139e-06
3.43371e-06
7.07157e-06
2.48864e-06
7.10113e-06
1.85418e-06
7.16037e-06
1.44553e-06
7.22729e-06
1.1698e-06
7.28669e-06
9.63081e-07
7.33098e-06
7.88319e-07
7.35873e-06
6.28012e-07
7.37191e-06
4.7671e-07
7.37343e-06
3.33943e-07
7.36554e-06
1.99951e-07
7.34885e-06
7.41688e-08
7.32234e-06
-4.53961e-08
7.28342e-06
-1.61536e-07
7.2281e-06
-2.77877e-07
7.15127e-06
-3.98085e-07
7.0471e-06
-5.25118e-07
6.91018e-06
-6.60686e-07
-8.05917e-07
6.73739e-06
8.63324e-06
-1.41572e-05
6.96037e-06
-1.03547e-05
5.22299e-06
-6.26389e-06
4.48129e-06
-2.73631e-06
4.52188e-06
1.10537e-06
5.07074e-06
4.04697e-06
5.54743e-06
5.6004e-06
5.91577e-06
5.42403e-06
6.20661e-06
4.35895e-06
6.44799e-06
3.19232e-06
6.64918e-06
2.28744e-06
6.8155e-06
1.68786e-06
6.95467e-06
1.30635e-06
7.0703e-06
1.05418e-06
7.16243e-06
8.70947e-07
7.23135e-06
7.19402e-07
7.27889e-06
5.80466e-07
7.30814e-06
4.4746e-07
7.32244e-06
3.1965e-07
7.32435e-06
1.98038e-07
7.3152e-06
8.33152e-08
7.29443e-06
-2.46263e-08
7.25981e-06
-1.26919e-07
7.20729e-06
-2.25355e-07
7.13159e-06
-3.22384e-07
7.02693e-06
-4.20452e-07
6.88801e-06
-5.21774e-07
-6.28925e-07
6.71102e-06
5.85462e-06
-1.20017e-05
2.63043e-06
-7.1305e-06
4.88657e-07
-4.12212e-06
-1.01926e-07
-2.14573e-06
3.53539e-07
6.49901e-07
1.33717e-06
3.06333e-06
2.61455e-06
4.32303e-06
3.79402e-06
4.24455e-06
4.72473e-06
3.42824e-06
5.41996e-06
2.49709e-06
5.91948e-06
1.78793e-06
6.27633e-06
1.33101e-06
6.53967e-06
1.04301e-06
6.74121e-06
8.5264e-07
6.89856e-06
7.13593e-07
7.02139e-06
5.96572e-07
7.11534e-06
4.8652e-07
7.18439e-06
3.78406e-07
7.23177e-06
2.72277e-07
7.25978e-06
1.70022e-07
7.26933e-06
7.37682e-08
7.26022e-06
-1.55157e-08
7.23009e-06
-9.67894e-08
7.17551e-06
-1.70774e-07
7.09237e-06
-2.39249e-07
6.97633e-06
-3.04413e-07
6.82284e-06
-3.68284e-07
-4.33063e-07
6.62698e-06
2.08436e-06
-7.02316e-06
-1.53322e-06
-3.51293e-06
-3.34509e-06
-2.31025e-06
-4.23957e-06
-1.25125e-06
-3.93073e-06
3.41055e-07
-2.49301e-06
1.62562e-06
-5.17733e-07
2.34775e-06
1.39015e-06
2.33667e-06
2.88897e-06
1.92942e-06
3.99434e-06
1.39172e-06
4.78028e-06
1.00199e-06
5.34808e-06
7.63215e-07
5.77831e-06
6.1278e-07
6.12001e-06
5.10938e-07
6.40003e-06
4.33572e-07
6.63119e-06
3.65411e-07
6.81869e-06
2.99026e-07
6.96464e-06
2.32452e-07
7.07042e-06
1.66495e-07
7.13726e-06
1.03181e-07
7.16607e-06
4.49562e-08
7.15725e-06
-6.69504e-09
7.11245e-06
-5.19838e-08
7.03365e-06
-9.19781e-08
6.92206e-06
-1.27655e-07
6.77739e-06
-1.59745e-07
6.59765e-06
-1.88542e-07
-2.14601e-07
6.37919e-06
-5.92661e-07
-4.10559e-06
-6.41583e-06
-7.66708e-06
-7.32602e-06
-5.70041e-06
-3.35266e-06
-1.01599e-06
9.13432e-07
2.30515e-06
3.30713e-06
4.07035e-06
4.68313e-06
5.19407e-06
5.62764e-06
5.99305e-06
6.29208e-06
6.52453e-06
6.69102e-06
6.79421e-06
6.83916e-06
6.83247e-06
6.78048e-06
6.6885e-06
6.56085e-06
6.4011e-06
6.21256e-06
5.99796e-06
1.00484e-05
-4.82709e-06
5.39283e-06
9.2973e-06
-7.31168e-06
8.06282e-06
7.71327e-06
-9.20797e-06
1.0792e-05
5.97801e-06
-1.0506e-05
1.22413e-05
4.41868e-06
-1.08868e-05
1.24461e-05
2.88212e-06
-1.05624e-05
1.20989e-05
1.141e-06
-9.4913e-06
1.12324e-05
-8.80749e-06
-1.98744e-06
1.19359e-05
8.96809e-06
-4.32383e-06
8.21841e-06
-6.56199e-06
7.16395e-06
-8.15351e-06
5.87696e-06
-9.21902e-06
4.52498e-06
-9.53477e-06
3.13769e-06
-9.17507e-06
1.7951e-06
-8.1487e-06
-6.99265e-06
-1.97487e-08
8.62262e-06
-4.03226e-06
7.93798e-06
-5.87735e-06
7.002e-06
-7.21753e-06
5.84586e-06
-8.06288e-06
4.6149e-06
-8.30381e-06
3.37366e-06
-7.93383e-06
2.14444e-06
-6.91948e-06
-5.4993e-06
6.51091e-07
8.21407e-06
-3.77431e-06
7.59789e-06
-5.26117e-06
6.7703e-06
-6.38994e-06
5.77433e-06
-7.06691e-06
4.70299e-06
-7.23247e-06
3.62029e-06
-6.85114e-06
2.57032e-06
-5.86951e-06
-4.40954e-06
1.48057e-06
7.88544e-06
-3.52765e-06
7.34406e-06
-4.71979e-06
6.61021e-06
-5.65609e-06
5.74161e-06
-6.19832e-06
4.80466e-06
-6.29552e-06
3.86125e-06
-5.90773e-06
2.96767e-06
-4.97593e-06
-3.5814e-06
2.13953e-06
7.61141e-06
-3.27836e-06
7.12931e-06
-4.23769e-06
6.47923e-06
-5.00601e-06
5.71958e-06
-5.43867e-06
4.90397e-06
-5.4799e-06
4.08927e-06
-5.09302e-06
3.33724e-06
-4.2239e-06
-2.94579e-06
2.70163e-06
7.38749e-06
-3.02719e-06
6.95427e-06
-3.80448e-06
6.37843e-06
-4.43016e-06
5.71224e-06
-4.77248e-06
5.00339e-06
-4.77106e-06
4.30308e-06
-4.39272e-06
3.67246e-06
-3.59328e-06
-2.44467e-06
3.17134e-06
7.20429e-06
-2.77683e-06
6.81087e-06
-3.41106e-06
6.29971e-06
-3.919e-06
5.71506e-06
-4.18783e-06
5.10017e-06
-4.15617e-06
4.50061e-06
-3.79316e-06
3.97199e-06
-3.06466e-06
-2.0419e-06
3.56922e-06
7.05396e-06
-2.52996e-06
6.69395e-06
-3.05106e-06
6.23885e-06
-3.46389e-06
5.72566e-06
-3.67465e-06
5.19361e-06
-3.62411e-06
4.6825e-06
-3.28205e-06
4.23936e-06
-2.62152e-06
-1.71312e-06
3.91059e-06
6.92996e-06
-2.2884e-06
6.59833e-06
-2.71943e-06
6.19158e-06
-3.05714e-06
5.74163e-06
-3.22469e-06
5.28364e-06
-3.16613e-06
4.85075e-06
-2.84916e-06
4.47952e-06
-2.25029e-06
-1.44089e-06
4.20729e-06
6.82686e-06
-2.05291e-06
6.51941e-06
-2.41198e-06
6.15467e-06
-2.6924e-06
5.76162e-06
-2.83165e-06
5.37088e-06
-2.77539e-06
5.00744e-06
-2.48572e-06
4.69666e-06
-1.93951e-06