/*--------------------------------*- C++ -*----------------------------------*\
| =========                 |                                                 |
| \\      /  F ield         | OpenFOAM: The Open Source CFD Toolbox           |
|  \\    /   O peration     | Version:  2.4.0                                 |
|   \\  /    A nd           | Web:      www.OpenFOAM.org                      |
|    \\/     M anipulation  |                                                 |
\*---------------------------------------------------------------------------*/
FoamFile
{
    version     2.0;
    format      ascii;
    class       volVectorField;
    location    "155";
    object      U;
}
// * * * * * * * * * * * * * * * * * * * * * * * * * * * * * * * * * * * * * //

dimensions      [0 1 -1 0 0 0 0];

internalField   nonuniform List<vector> 
10000
(
(0.999999 4.59061e-07 0)
(0.999978 1.21092e-06 0)
(0.999944 1.96304e-06 0)
(0.999899 2.75316e-06 0)
(0.999845 3.61676e-06 0)
(0.999783 4.58643e-06 0)
(0.999715 5.69287e-06 0)
(0.999641 6.98155e-06 0)
(0.99956 8.48669e-06 0)
(0.999474 1.02868e-05 0)
(0.999381 1.24113e-05 0)
(0.999282 1.50177e-05 0)
(0.999175 1.80323e-05 0)
(0.999064 2.18039e-05 0)
(0.998941 2.53593e-05 0)
(0.998824 2.92861e-05 0)
(0.998687 2.522e-05 0)
(0.998646 1.40215e-05 0)
(0.998489 -8.44753e-05 0)
(0.999162 0.00109431 0)
(0.999999 1.38686e-06 0)
(0.999978 3.66403e-06 0)
(0.999944 5.94135e-06 0)
(0.999899 8.33377e-06 0)
(0.999845 1.09477e-05 0)
(0.999783 1.38821e-05 0)
(0.999715 1.72294e-05 0)
(0.999641 2.11258e-05 0)
(0.99956 2.56762e-05 0)
(0.999474 3.11117e-05 0)
(0.999381 3.75306e-05 0)
(0.999283 4.53837e-05 0)
(0.999177 5.45182e-05 0)
(0.999066 6.58975e-05 0)
(0.998943 7.72859e-05 0)
(0.998821 9.06992e-05 0)
(0.99867 8.95909e-05 0)
(0.998541 8.60326e-05 0)
(0.9982 -2.06582e-05 0)
(0.997828 0.000235067 0)
(0.999999 2.33675e-06 0)
(0.999978 6.18155e-06 0)
(0.999944 1.00253e-05 0)
(0.999899 1.40633e-05 0)
(0.999845 1.84728e-05 0)
(0.999784 2.34207e-05 0)
(0.999715 2.9062e-05 0)
(0.999641 3.56224e-05 0)
(0.999561 4.32797e-05 0)
(0.999475 5.24082e-05 0)
(0.999383 6.31904e-05 0)
(0.999285 7.63285e-05 0)
(0.99918 9.17174e-05 0)
(0.99907 0.000110809 0)
(0.998949 0.000131384 0)
(0.998826 0.000157287 0)
(0.998673 0.000176833 0)
(0.998519 0.000220699 0)
(0.998249 0.000276341 0)
(0.997994 0.0007094 0)
(0.999999 3.31356e-06 0)
(0.999979 8.76826e-06 0)
(0.999944 1.42205e-05 0)
(0.999899 1.99472e-05 0)
(0.999845 2.61977e-05 0)
(0.999784 3.32071e-05 0)
(0.999716 4.1193e-05 0)
(0.999642 5.04689e-05 0)
(0.999562 6.12846e-05 0)
(0.999477 7.41489e-05 0)
(0.999386 8.93301e-05 0)
(0.99929 0.000107754 0)
(0.999186 0.000129419 0)
(0.999079 0.00015621 0)
(0.998961 0.000186419 0)
(0.998839 0.000225351 0)
(0.998696 0.000266627 0)
(0.998547 0.000342848 0)
(0.998349 0.000461311 0)
(0.998182 0.00079876 0)
(0.999999 4.31571e-06 0)
(0.999979 1.14221e-05 0)
(0.999944 1.85239e-05 0)
(0.999899 2.59809e-05 0)
(0.999846 3.41148e-05 0)
(0.999785 4.32287e-05 0)
(0.999717 5.3602e-05 0)
(0.999644 6.56321e-05 0)
(0.999564 7.96374e-05 0)
(0.99948 9.62479e-05 0)
(0.99939 0.000115814 0)
(0.999296 0.000139444 0)
(0.999195 0.000167267 0)
(0.999091 0.000201474 0)
(0.998978 0.000241011 0)
(0.998862 0.000291719 0)
(0.998732 0.000350751 0)
(0.998601 0.000444075 0)
(0.998457 0.000577755 0)
(0.998349 0.000829194 0)
(0.999999 5.34254e-06 0)
(0.999979 1.41419e-05 0)
(0.999944 2.29333e-05 0)
(0.9999 3.21605e-05 0)
(0.999846 4.22172e-05 0)
(0.999786 5.34739e-05 0)
(0.999718 6.62692e-05 0)
(0.999646 8.10787e-05 0)
(0.999567 9.82844e-05 0)
(0.999484 0.000118618 0)
(0.999396 0.000142504 0)
(0.999304 0.000171176 0)
(0.999207 0.000204894 0)
(0.999106 0.000245974 0)
(0.999 0.000293919 0)
(0.998893 0.000354195 0)
(0.998778 0.000425682 0)
(0.998667 0.000525957 0)
(0.998561 0.000657371 0)
(0.998489 0.000850361 0)
(0.999999 6.39369e-06 0)
(0.999979 1.69266e-05 0)
(0.999945 2.74465e-05 0)
(0.9999 3.84817e-05 0)
(0.999847 5.04975e-05 0)
(0.999787 6.39293e-05 0)
(0.99972 7.91724e-05 0)
(0.999648 9.67727e-05 0)
(0.999571 0.000117168 0)
(0.99949 0.000141169 0)
(0.999404 0.000169255 0)
(0.999314 0.000202729 0)
(0.999221 0.000241942 0)
(0.999126 0.000289146 0)
(0.999027 0.000344198 0)
(0.998929 0.000411598 0)
(0.998831 0.000490809 0)
(0.998738 0.000592353 0)
(0.99866 0.000715966 0)
(0.998611 0.000871186 0)
(0.999999 7.46874e-06 0)
(0.999979 1.97747e-05 0)
(0.999945 3.20607e-05 0)
(0.999901 4.49395e-05 0)
(0.999848 5.89466e-05 0)
(0.999788 7.45797e-05 0)
(0.999722 9.22868e-05 0)
(0.999651 0.000112674 0)
(0.999576 0.000136224 0)
(0.999496 0.000163801 0)
(0.999412 0.00019592 0)
(0.999326 0.000233879 0)
(0.999237 0.000278073 0)
(0.999148 0.000330521 0)
(0.999058 0.000391207 0)
(0.99897 0.000463407 0)
(0.998886 0.000546511 0)
(0.998812 0.000645863 0)
(0.998752 0.000759479 0)
(0.998718 0.000888042 0)
(0.999999 8.56715e-06 0)
(0.999979 2.26846e-05 0)
(0.999945 3.67725e-05 0)
(0.999901 5.15274e-05 0)
(0.999849 6.75539e-05 0)
(0.99979 8.54077e-05 0)
(0.999725 0.000105584 0)
(0.999655 0.000128738 0)
(0.999581 0.000155385 0)
(0.999503 0.000186413 0)
(0.999422 0.000222346 0)
(0.99934 0.000264414 0)
(0.999256 0.000312991 0)
(0.999173 0.000369738 0)
(0.999091 0.000434577 0)
(0.999014 0.000509541 0)
(0.998943 0.000593666 0)
(0.998883 0.000688837 0)
(0.998839 0.000792186 0)
(0.998814 0.000901227 0)
(0.999999 9.68824e-06 0)
(0.999979 2.56542e-05 0)
(0.999946 4.15775e-05 0)
(0.999902 5.82382e-05 0)
(0.99985 7.6307e-05 0)
(0.999792 9.63932e-05 0)
(0.999728 0.000119033 0)
(0.999659 0.000144916 0)
(0.999587 0.000174579 0)
(0.999512 0.000208901 0)
(0.999434 0.000248387 0)
(0.999356 0.000294139 0)
(0.999277 0.000346448 0)
(0.9992 0.000406543 0)
(0.999127 0.000474157 0)
(0.99906 0.000550211 0)
(0.999 0.000633345 0)
(0.998952 0.000723353 0)
(0.998918 0.000817128 0)
(0.998901 0.000911497 0)
(0.999999 1.08312e-05 0)
(0.999979 2.8681e-05 0)
(0.999946 4.64711e-05 0)
(0.999903 6.50634e-05 0)
(0.999852 8.5192e-05 0)
(0.999794 0.000107514 0)
(0.999732 0.000132599 0)
(0.999664 0.000161159 0)
(0.999594 0.000193731 0)
(0.999521 0.00023116 0)
(0.999447 0.000273901 0)
(0.999373 0.00032288 0)
(0.9993 0.000378253 0)
(0.99923 0.000440786 0)
(0.999164 0.000509962 0)
(0.999106 0.000585801 0)
(0.999057 0.00066663 0)
(0.999018 0.000751128 0)
(0.998992 0.000836346 0)
(0.998979 0.000919379 0)
(0.999999 1.1995e-05 0)
(0.99998 3.17619e-05 0)
(0.999947 5.14473e-05 0)
(0.999904 7.19933e-05 0)
(0.999854 9.41933e-05 0)
(0.999797 0.000118746 0)
(0.999736 0.000146246 0)
(0.99967 0.000177411 0)
(0.999602 0.000212766 0)
(0.999532 0.000253089 0)
(0.999461 0.000298759 0)
(0.999391 0.00035049 0)
(0.999324 0.000408266 0)
(0.99926 0.000472403 0)
(0.999203 0.00054212 0)
(0.999152 0.000616772 0)
(0.999111 0.000694506 0)
(0.999081 0.000773516 0)
(0.999061 0.000851212 0)
(0.999051 0.000925236 0)
(0.999999 1.31785e-05 0)
(0.99998 3.48937e-05 0)
(0.999947 5.65e-05 0)
(0.999905 7.90169e-05 0)
(0.999856 0.000103294 0)
(0.9998 0.000130063 0)
(0.99974 0.000159935 0)
(0.999676 0.000193618 0)
(0.99961 0.000231607 0)
(0.999543 0.00027459 0)
(0.999477 0.000322844 0)
(0.999411 0.000376849 0)
(0.999349 0.000436398 0)
(0.999292 0.000501396 0)
(0.999241 0.000570832 0)
(0.999198 0.000643609 0)
(0.999165 0.000717825 0)
(0.99914 0.000791572 0)
(0.999125 0.000862686 0)
(0.999118 0.00092937 0)
(0.999999 1.43804e-05 0)
(0.99998 3.80724e-05 0)
(0.999948 6.16216e-05 0)
(0.999907 8.61223e-05 0)
(0.999858 0.000112474 0)
(0.999804 0.000141436 0)
(0.999745 0.000173624 0)
(0.999683 0.000209722 0)
(0.99962 0.000250178 0)
(0.999556 0.00029557 0)
(0.999493 0.000346052 0)
(0.999432 0.000401864 0)
(0.999376 0.000462603 0)
(0.999325 0.000527825 0)
(0.99928 0.000596337 0)
(0.999244 0.00066678 0)
(0.999216 0.000737304 0)
(0.999196 0.000806113 0)
(0.999185 0.000871462 0)
(0.99918 0.000932037 0)
(0.999999 1.55993e-05 0)
(0.99998 4.12937e-05 0)
(0.999949 6.68043e-05 0)
(0.999908 9.32962e-05 0)
(0.99986 0.000121714 0)
(0.999807 0.000152835 0)
(0.99975 0.000187271 0)
(0.999691 0.000225666 0)
(0.99963 0.000268408 0)
(0.999569 0.000315945 0)
(0.99951 0.000368298 0)
(0.999454 0.000425469 0)
(0.999403 0.000486872 0)
(0.999357 0.000551783 0)
(0.999319 0.00061889 0)
(0.999288 0.000686715 0)
(0.999265 0.000753538 0)
(0.999249 0.000817773 0)
(0.999241 0.000878053 0)
(0.999238 0.000933454 0)
(0.999999 1.68333e-05 0)
(0.999981 4.45527e-05 0)
(0.99995 7.20389e-05 0)
(0.99991 0.000100524 0)
(0.999863 0.000130992 0)
(0.999811 0.000164229 0)
(0.999756 0.000200832 0)
(0.999699 0.000241394 0)
(0.999641 0.000286226 0)
(0.999584 0.000335639 0)
(0.999529 0.00038951 0)
(0.999477 0.000447623 0)
(0.999431 0.000509226 0)
(0.99939 0.00057339 0)
(0.999357 0.000638746 0)
(0.999331 0.000703802 0)
(0.999312 0.000767016 0)
(0.9993 0.000827044 0)
(0.999293 0.000882846 0)
(0.999292 0.000933799 0)
(0.999999 1.80806e-05 0)
(0.999981 4.7844e-05 0)
(0.999951 7.73157e-05 0)
(0.999912 0.00010779 0)
(0.999866 0.000140284 0)
(0.999816 0.000175584 0)
(0.999762 0.000214264 0)
(0.999707 0.000256849 0)
(0.999652 0.000303567 0)
(0.999599 0.000354583 0)
(0.999547 0.000409633 0)
(0.9995 0.000468304 0)
(0.999459 0.000529709 0)
(0.999423 0.000592781 0)
(0.999394 0.000656148 0)
(0.999373 0.000718383 0)
(0.999357 0.000778137 0)
(0.999348 0.000834312 0)
(0.999343 0.000886138 0)
(0.999342 0.000933221 0)
(0.999999 1.9339e-05 0)
(0.999981 5.11616e-05 0)
(0.999952 8.26239e-05 0)
(0.999914 0.000115078 0)
(0.999869 0.000149566 0)
(0.99982 0.000186867 0)
(0.999769 0.00022752 0)
(0.999717 0.000271977 0)
(0.999664 0.000320371 0)
(0.999614 0.00037272 0)
(0.999567 0.000428628 0)
(0.999524 0.00048751 0)
(0.999487 0.000548381 0)
(0.999456 0.000610097 0)
(0.999431 0.000671327 0)
(0.999413 0.000730754 0)
(0.9994 0.000787229 0)
(0.999393 0.00083988 0)
(0.99939 0.000888158 0)
(0.99939 0.000931839 0)
(0.999999 2.06064e-05 0)
(0.999982 5.4499e-05 0)
(0.999953 8.79521e-05 0)
(0.999916 0.000122369 0)
(0.999872 0.000158812 0)
(0.999825 0.000198042 0)
(0.999776 0.000240558 0)
(0.999726 0.000286726 0)
(0.999677 0.000336581 0)
(0.99963 0.000390001 0)
(0.999587 0.000446467 0)
(0.999548 0.000505255 0)
(0.999515 0.000565316 0)
(0.999488 0.000625478 0)
(0.999467 0.000684491 0)
(0.999452 0.00074117 0)
(0.999442 0.000794561 0)
(0.999436 0.000843991 0)
(0.999435 0.000889086 0)
(0.999435 0.000929754 0)
(0.999999 2.18801e-05 0)
(0.999982 5.78491e-05 0)
(0.999954 9.32878e-05 0)
(0.999918 0.000129646 0)
(0.999876 0.000167996 0)
(0.999831 0.000209075 0)
(0.999784 0.000253333 0)
(0.999736 0.000301045 0)
(0.99969 0.000352149 0)
(0.999647 0.000406388 0)
(0.999607 0.000463136 0)
(0.999572 0.000521565 0)
(0.999543 0.000580591 0)
(0.99952 0.000639064 0)
(0.999502 0.000695829 0)
(0.999489 0.000749853 0)
(0.999482 0.000800357 0)
(0.999478 0.000846838 0)
(0.999477 0.000889065 0)
(0.999478 0.000927045 0)
(0.999999 2.31573e-05 0)
(0.999983 6.12044e-05 0)
(0.999955 9.86178e-05 0)
(0.99992 0.000136887 0)
(0.99988 0.00017709 0)
(0.999836 0.00021993 0)
(0.999792 0.000265802 0)
(0.999747 0.000314891 0)
(0.999704 0.000367033 0)
(0.999664 0.000421852 0)
(0.999628 0.000478631 0)
(0.999597 0.000536474 0)
(0.999571 0.000594292 0)
(0.999551 0.000650984 0)
(0.999536 0.000705513 0)
(0.999526 0.00075699 0)
(0.99952 0.000804798 0)
(0.999517 0.000848579 0)
(0.999517 0.000888212 0)
(0.999519 0.000923778 0)
(0.999999 2.44353e-05 0)
(0.999983 6.45567e-05 0)
(0.999956 0.000103928 0)
(0.999923 0.000144072 0)
(0.999884 0.000186065 0)
(0.999842 0.000230572 0)
(0.9998 0.000277926 0)
(0.999758 0.000328219 0)
(0.999718 0.000381194 0)
(0.999681 0.00043637 0)
(0.999648 0.00049296 0)
(0.999621 0.000550025 0)
(0.999598 0.000606503 0)
(0.999581 0.000661364 0)
(0.999568 0.000713693 0)
(0.99956 0.000762743 0)
(0.999556 0.000808039 0)
(0.999554 0.000849342 0)
(0.999555 0.00088662 0)
(0.999558 0.000920008 0)
(0.999999 2.57108e-05 0)
(0.999984 6.78975e-05 0)
(0.999958 0.000109205 0)
(0.999925 0.000151181 0)
(0.999888 0.000194895 0)
(0.999848 0.000240966 0)
(0.999808 0.000289665 0)
(0.999769 0.000340992 0)
(0.999732 0.000394603 0)
(0.999698 0.000449929 0)
(0.999669 0.000506134 0)
(0.999644 0.000562266 0)
(0.999625 0.000617308 0)
(0.99961 0.000670317 0)
(0.9996 0.000720503 0)
(0.999594 0.000767251 0)
(0.999591 0.000810207 0)
(0.99959 0.000849233 0)
(0.999592 0.000884364 0)
(0.999594 0.000915777 0)
(0.999999 2.69805e-05 0)
(0.999984 7.12176e-05 0)
(0.999959 0.000114432 0)
(0.999928 0.000158192 0)
(0.999892 0.000203549 0)
(0.999855 0.000251079 0)
(0.999817 0.000300983 0)
(0.99978 0.000353175 0)
(0.999746 0.000407236 0)
(0.999716 0.000462523 0)
(0.99969 0.000518175 0)
(0.999668 0.000573248 0)
(0.999651 0.000626788 0)
(0.999639 0.00067795 0)
(0.999631 0.000726063 0)
(0.999626 0.000770633 0)
(0.999624 0.000811411 0)
(0.999624 0.000848339 0)
(0.999626 0.000881508 0)
(0.999629 0.000911123 0)
(0.999999 2.82409e-05 0)
(0.999985 7.45077e-05 0)
(0.999961 0.000119594 0)
(0.999931 0.000165081 0)
(0.999897 0.000212001 0)
(0.999861 0.000260877 0)
(0.999826 0.000311845 0)
(0.999792 0.000364739 0)
(0.999761 0.000419073 0)
(0.999733 0.000474152 0)
(0.99971 0.000529108 0)
(0.999691 0.000583024 0)
(0.999677 0.000635023 0)
(0.999667 0.000684359 0)
(0.99966 0.000730478 0)
(0.999657 0.000772991 0)
(0.999656 0.000811741 0)
(0.999657 0.000846734 0)
(0.999659 0.000878103 0)
(0.999662 0.000906076 0)
(0.999999 2.94883e-05 0)
(0.999985 7.77578e-05 0)
(0.999962 0.000124675 0)
(0.999934 0.000171828 0)
(0.999902 0.000220223 0)
(0.999868 0.000270329 0)
(0.999835 0.00032222 0)
(0.999804 0.000375658 0)
(0.999775 0.000430101 0)
(0.999751 0.000484822 0)
(0.99973 0.000538961 0)
(0.999714 0.000591647 0)
(0.999702 0.000642085 0)
(0.999694 0.000689633 0)
(0.999689 0.000733841 0)
(0.999687 0.000774416 0)
(0.999686 0.000811275 0)
(0.999688 0.000844479 0)
(0.999691 0.000874194 0)
(0.999694 0.000900662 0)
(0.999999 3.07191e-05 0)
(0.999986 8.09578e-05 0)
(0.999964 0.000129659 0)
(0.999937 0.00017841 0)
(0.999906 0.000228186 0)
(0.999875 0.000279406 0)
(0.999845 0.000332082 0)
(0.999816 0.000385911 0)
(0.99979 0.000440313 0)
(0.999768 0.000494543 0)
(0.99975 0.000547766 0)
(0.999736 0.00059917 0)
(0.999726 0.000648045 0)
(0.99972 0.000693851 0)
(0.999716 0.000736234 0)
(0.999715 0.000774983 0)
(0.999716 0.000810079 0)
(0.999718 0.000841627 0)
(0.999721 0.000869816 0)
(0.999724 0.0008949 0)
(0.999999 3.19291e-05 0)
(0.999987 8.40974e-05 0)
(0.999966 0.000134528 0)
(0.99994 0.000184803 0)
(0.999911 0.000235866 0)
(0.999882 0.00028808 0)
(0.999854 0.000341403 0)
(0.999828 0.000395482 0)
(0.999805 0.000449705 0)
(0.999785 0.000503329 0)
(0.99977 0.000555557 0)
(0.999758 0.000605644 0)
(0.99975 0.000652969 0)
(0.999745 0.000697086 0)
(0.999742 0.000737729 0)
(0.999742 0.000774759 0)
(0.999743 0.000808211 0)
(0.999746 0.000838222 0)
(0.999749 0.000865002 0)
(0.999753 0.00088881 0)
(0.999999 3.31146e-05 0)
(0.999987 8.7166e-05 0)
(0.999967 0.000139267 0)
(0.999943 0.000190988 0)
(0.999916 0.000243236 0)
(0.999889 0.000296325 0)
(0.999863 0.000350164 0)
(0.99984 0.000404356 0)
(0.999819 0.000458278 0)
(0.999802 0.000511198 0)
(0.999789 0.000562369 0)
(0.999779 0.00061112 0)
(0.999772 0.000656917 0)
(0.999769 0.000699404 0)
(0.999767 0.000738392 0)
(0.999768 0.000773804 0)
(0.99977 0.00080572 0)
(0.999773 0.000834303 0)
(0.999776 0.000859777 0)
(0.99978 0.000882406 0)
(0.999999 3.42714e-05 0)
(0.999988 9.01529e-05 0)
(0.999969 0.000143859 0)
(0.999946 0.000196942 0)
(0.999922 0.000250273 0)
(0.999897 0.000304119 0)
(0.999873 0.000358346 0)
(0.999852 0.000412526 0)
(0.999833 0.000466035 0)
(0.999818 0.00051817 0)
(0.999807 0.000568238 0)
(0.999799 0.000615646 0)
(0.999794 0.000659946 0)
(0.999792 0.000700863 0)
(0.999792 0.000738279 0)
(0.999793 0.000772169 0)
(0.999795 0.000802647 0)
(0.999798 0.000829902 0)
(0.999802 0.000854164 0)
(0.999806 0.0008757 0)
(0.999999 3.53954e-05 0)
(0.999989 9.30476e-05 0)
(0.999971 0.000148287 0)
(0.99995 0.000202645 0)
(0.999927 0.000256955 0)
(0.999904 0.000311441 0)
(0.999882 0.000365933 0)
(0.999863 0.000419986 0)
(0.999847 0.000472986 0)
(0.999835 0.000524266 0)
(0.999825 0.000573199 0)
(0.999819 0.000619268 0)
(0.999815 0.000662108 0)
(0.999814 0.000701518 0)
(0.999815 0.000737441 0)
(0.999816 0.000769898 0)
(0.999819 0.000799032 0)
(0.999823 0.000825047 0)
(0.999827 0.000848182 0)
(0.999831 0.000868705 0)
(0.999999 3.64826e-05 0)
(0.999989 9.58395e-05 0)
(0.999973 0.000152535 0)
(0.999953 0.000208077 0)
(0.999932 0.000263261 0)
(0.999911 0.000318271 0)
(0.999892 0.000372913 0)
(0.999875 0.000426734 0)
(0.999861 0.00047914 0)
(0.99985 0.000529512 0)
(0.999843 0.000577288 0)
(0.999838 0.000622031 0)
(0.999836 0.000663452 0)
(0.999835 0.000701417 0)
(0.999837 0.000735924 0)
(0.999839 0.000767031 0)
(0.999842 0.000794905 0)
(0.999846 0.000819764 0)
(0.99985 0.00084185 0)
(0.999854 0.000861428 0)
(1 3.75289e-05 0)
(0.99999 9.85184e-05 0)
(0.999975 0.000156589 0)
(0.999956 0.000213221 0)
(0.999937 0.000269171 0)
(0.999918 0.000324595 0)
(0.999901 0.000379278 0)
(0.999886 0.000432771 0)
(0.999875 0.000484511 0)
(0.999866 0.000533931 0)
(0.99986 0.000580541 0)
(0.999856 0.000623976 0)
(0.999855 0.000664022 0)
(0.999856 0.000700605 0)
(0.999858 0.000733769 0)
(0.99986 0.000763604 0)
(0.999864 0.000790297 0)
(0.999868 0.000814074 0)
(0.999872 0.00083518 0)
(0.999876 0.000853879 0)
(1 3.85304e-05 0)
(0.999991 0.000101074 0)
(0.999977 0.000160434 0)
(0.99996 0.000218058 0)
(0.999942 0.000274671 0)
(0.999925 0.0003304 0)
(0.99991 0.000385022 0)
(0.999898 0.000438102 0)
(0.999888 0.000489114 0)
(0.99988 0.00053755 0)
(0.999876 0.00058299 0)
(0.999874 0.000625143 0)
(0.999874 0.00066386 0)
(0.999875 0.000699122 0)
(0.999877 0.000731013 0)
(0.999881 0.000759649 0)
(0.999885 0.000785233 0)
(0.999889 0.000807996 0)
(0.999893 0.000828187 0)
(0.999897 0.000846065 0)
(1 3.94833e-05 0)
(0.999991 0.000103497 0)
(0.999978 0.000164055 0)
(0.999963 0.000222573 0)
(0.999947 0.000279744 0)
(0.999932 0.000335675 0)
(0.999919 0.000390143 0)
(0.999908 0.000442733 0)
(0.9999 0.000492965 0)
(0.999895 0.000540395 0)
(0.999892 0.00058467 0)
(0.999891 0.00062557 0)
(0.999891 0.000663005 0)
(0.999893 0.000697005 0)
(0.999896 0.000727689 0)
(0.9999 0.000755194 0)
(0.999904 0.000779735 0)
(0.999908 0.000801549 0)
(0.999913 0.000820883 0)
(0.999917 0.000837992 0)
(1 4.03838e-05 0)
(0.999992 0.000105778 0)
(0.99998 0.00016744 0)
(0.999967 0.000226753 0)
(0.999953 0.000284378 0)
(0.999939 0.000340412 0)
(0.999928 0.000394639 0)
(0.999919 0.000446672 0)
(0.999912 0.000496084 0)
(0.999908 0.000542492 0)
(0.999906 0.000585613 0)
(0.999906 0.000625291 0)
(0.999908 0.000661492 0)
(0.999911 0.000694288 0)
(0.999914 0.000723828 0)
(0.999918 0.000750265 0)
(0.999922 0.000773825 0)
(0.999927 0.000794748 0)
(0.999931 0.000813278 0)
(0.999936 0.000829667 0)
(1 4.12285e-05 0)
(0.999993 0.000107908 0)
(0.999982 0.000170578 0)
(0.99997 0.000230584 0)
(0.999958 0.000288563 0)
(0.999946 0.000344607 0)
(0.999937 0.000398513 0)
(0.999929 0.000449931 0)
(0.999924 0.000498489 0)
(0.999921 0.000543868 0)
(0.999921 0.00058585 0)
(0.999922 0.000624341 0)
(0.999924 0.000659355 0)
(0.999927 0.000691003 0)
(0.999931 0.000719457 0)
(0.999935 0.000744886 0)
(0.99994 0.000767522 0)
(0.999944 0.000787607 0)
(0.999949 0.000805382 0)
(0.999953 0.000821096 0)
(1 4.20141e-05 0)
(0.999994 0.00010988 0)
(0.999984 0.000173456 0)
(0.999973 0.000234055 0)
(0.999962 0.000292292 0)
(0.999953 0.000348257 0)
(0.999945 0.000401769 0)
(0.999939 0.000452523 0)
(0.999936 0.000500201 0)
(0.999934 0.000544548 0)
(0.999934 0.000585412 0)
(0.999936 0.000622751 0)
(0.999939 0.000656625 0)
(0.999943 0.000687177 0)
(0.999947 0.000714602 0)
(0.999951 0.000739078 0)
(0.999956 0.000760843 0)
(0.999961 0.000780139 0)
(0.999965 0.000797205 0)
(0.99997 0.000812285 0)
(1 4.27376e-05 0)
(0.999994 0.000111686 0)
(0.999986 0.000176068 0)
(0.999976 0.000237159 0)
(0.999967 0.000295558 0)
(0.999959 0.000351361 0)
(0.999953 0.000404416 0)
(0.999949 0.000454462 0)
(0.999946 0.000501241 0)
(0.999946 0.000544561 0)
(0.999947 0.000584327 0)
(0.99995 0.000620551 0)
(0.999953 0.000653331 0)
(0.999957 0.000682839 0)
(0.999962 0.000709286 0)
(0.999967 0.00073286 0)
(0.999971 0.000753803 0)
(0.999976 0.000772356 0)
(0.999981 0.000788755 0)
(0.999985 0.000803238 0)
(1 4.33963e-05 0)
(0.999995 0.00011332 0)
(0.999988 0.000178404 0)
(0.99998 0.000239888 0)
(0.999972 0.000298357 0)
(0.999965 0.000353922 0)
(0.99996 0.00040646 0)
(0.999958 0.000455763 0)
(0.999957 0.00050163 0)
(0.999957 0.00054393 0)
(0.999959 0.000582624 0)
(0.999962 0.000617769 0)
(0.999966 0.0006495 0)
(0.999971 0.000678011 0)
(0.999976 0.000703531 0)
(0.999981 0.000726252 0)
(0.999986 0.000746419 0)
(0.99999 0.000764271 0)
(0.999995 0.00078004 0)
(0.999999 0.00079396 0)
(1 4.3988e-05 0)
(0.999996 0.000114777 0)
(0.999989 0.000180458 0)
(0.999983 0.000242237 0)
(0.999976 0.00030069 0)
(0.999971 0.000355943 0)
(0.999968 0.000407914 0)
(0.999966 0.000456444 0)
(0.999966 0.000501391 0)
(0.999968 0.000542681 0)
(0.999971 0.000580329 0)
(0.999974 0.000614433 0)
(0.999979 0.000645157 0)
(0.999984 0.000672719 0)
(0.999989 0.000697356 0)
(0.999994 0.000719269 0)
(0.999999 0.000738702 0)
(1 0.000755892 0)
(1.00001 0.000771068 0)
(1.00001 0.000784457 0)
(1 4.45105e-05 0)
(0.999996 0.000116053 0)
(0.999991 0.000182225 0)
(0.999985 0.000244203 0)
(0.999981 0.000302555 0)
(0.999977 0.000357432 0)
(0.999975 0.00040879 0)
(0.999974 0.000456522 0)
(0.999975 0.000500545 0)
(0.999978 0.00054084 0)
(0.999981 0.000577469 0)
(0.999986 0.000610567 0)
(0.999991 0.000640327 0)
(0.999996 0.000666982 0)
(1 0.000690782 0)
(1.00001 0.000711929 0)
(1.00001 0.000730667 0)
(1.00002 0.000747231 0)
(1.00002 0.000761845 0)
(1.00003 0.000774734 0)
(1 4.49623e-05 0)
(0.999997 0.000117143 0)
(0.999993 0.000183702 0)
(0.999988 0.000245784 0)
(0.999985 0.000303958 0)
(0.999982 0.000358397 0)
(0.999981 0.0004091 0)
(0.999982 0.000456016 0)
(0.999984 0.000499115 0)
(0.999987 0.000538431 0)
(0.999991 0.000574069 0)
(0.999996 0.000606197 0)
(1 0.000635032 0)
(1.00001 0.000660823 0)
(1.00001 0.000683826 0)
(1.00002 0.000704245 0)
(1.00002 0.000722325 0)
(1.00003 0.000738297 0)
(1.00003 0.00075238 0)
(1.00004 0.000764795 0)
(1 4.53422e-05 0)
(0.999998 0.000118046 0)
(0.999994 0.000184887 0)
(0.999991 0.000246983 0)
(0.999989 0.000304902 0)
(0.999987 0.000358847 0)
(0.999988 0.000408862 0)
(0.999989 0.000454946 0)
(0.999992 0.000497125 0)
(0.999996 0.000535479 0)
(1 0.000570154 0)
(1.00001 0.000601347 0)
(1.00001 0.000629295 0)
(1.00002 0.00065426 0)
(1.00002 0.000676504 0)
(1.00003 0.000696233 0)
(1.00003 0.000713689 0)
(1.00004 0.000729099 0)
(1.00004 0.000742679 0)
(1.00005 0.000754646 0)
(1 4.56493e-05 0)
(0.999998 0.000118759 0)
(0.999996 0.000185779 0)
(0.999994 0.0002478 0)
(0.999992 0.000305394 0)
(0.999992 0.000358794 0)
(0.999993 0.00040809 0)
(0.999996 0.000453332 0)
(1 0.000494596 0)
(1 0.000532007 0)
(1.00001 0.000565747 0)
(1.00001 0.000596038 0)
(1.00002 0.000623135 0)
(1.00003 0.000647311 0)
(1.00003 0.000668833 0)
(1.00004 0.000687905 0)
(1.00004 0.000704768 0)
(1.00005 0.000719646 0)
(1.00005 0.00073275 0)
(1.00006 0.000744291 0)
(1 4.58833e-05 0)
(0.999999 0.000119284 0)
(0.999997 0.000186381 0)
(0.999996 0.000248241 0)
(0.999996 0.000305442 0)
(0.999997 0.000358252 0)
(0.999999 0.000406802 0)
(1 0.000451194 0)
(1.00001 0.000491551 0)
(1.00001 0.000528039 0)
(1.00002 0.000560871 0)
(1.00002 0.000590293 0)
(1.00003 0.000616574 0)
(1.00004 0.000639996 0)
(1.00004 0.000660829 0)
(1.00005 0.000679277 0)
(1.00005 0.000695576 0)
(1.00006 0.000709948 0)
(1.00006 0.0007226 0)
(1.00007 0.000733737 0)
(1 4.6044e-05 0)
(0.999999 0.000119619 0)
(0.999998 0.000186693 0)
(0.999998 0.000248311 0)
(0.999999 0.000305058 0)
(1 0.000357234 0)
(1 0.000405017 0)
(1.00001 0.000448554 0)
(1.00001 0.000488014 0)
(1.00002 0.000523599 0)
(1.00002 0.000555549 0)
(1.00003 0.000584133 0)
(1.00004 0.000609631 0)
(1.00004 0.000632332 0)
(1.00005 0.000652508 0)
(1.00005 0.00067036 0)
(1.00006 0.000686123 0)
(1.00006 0.000700014 0)
(1.00007 0.000712235 0)
(1.00007 0.000722989 0)
(1 4.61318e-05 0)
(1 0.000119767 0)
(1 0.000186722 0)
(1 0.000248018 0)
(1 0.000304252 0)
(1 0.000355757 0)
(1.00001 0.000402753 0)
(1.00001 0.000445434 0)
(1.00002 0.000484007 0)
(1.00002 0.000518708 0)
(1.00003 0.000549804 0)
(1.00004 0.000577579 0)
(1.00004 0.000602325 0)
(1.00005 0.000624335 0)
(1.00006 0.000643883 0)
(1.00006 0.000661167 0)
(1.00007 0.00067642 0)
(1.00007 0.000689853 0)
(1.00008 0.000701665 0)
(1.00008 0.000712053 0)
(1 4.61474e-05 0)
(1 0.000119731 0)
(1 0.000186471 0)
(1 0.000247371 0)
(1 0.000303038 0)
(1.00001 0.000353838 0)
(1.00001 0.000400031 0)
(1.00002 0.000441855 0)
(1.00002 0.000479552 0)
(1.00003 0.00051339 0)
(1.00004 0.000543658 0)
(1.00004 0.000570652 0)
(1.00005 0.000594675 0)
(1.00006 0.000616023 0)
(1.00006 0.000634971 0)
(1.00007 0.000651713 0)
(1.00007 0.000666478 0)
(1.00008 0.000679475 0)
(1.00008 0.000690896 0)
(1.00009 0.000700937 0)
(1 4.60919e-05 0)
(1 0.000119513 0)
(1 0.000185948 0)
(1 0.000246381 0)
(1.00001 0.00030143 0)
(1.00001 0.000351493 0)
(1.00002 0.000396871 0)
(1.00002 0.000437838 0)
(1.00003 0.000474672 0)
(1.00004 0.000507668 0)
(1.00004 0.00053713 0)
(1.00005 0.000563371 0)
(1.00006 0.000586699 0)
(1.00006 0.000607412 0)
(1.00007 0.000625784 0)
(1.00007 0.000642008 0)
(1.00008 0.000656308 0)
(1.00008 0.000668889 0)
(1.00009 0.000679938 0)
(1.00009 0.000689646 0)
(1 4.59668e-05 0)
(1 0.000119119 0)
(1 0.000185161 0)
(1.00001 0.000245058 0)
(1.00001 0.000299443 0)
(1.00001 0.000348742 0)
(1.00002 0.000393294 0)
(1.00003 0.000433407 0)
(1.00003 0.000469391 0)
(1.00004 0.000501562 0)
(1.00005 0.000530244 0)
(1.00005 0.000555757 0)
(1.00006 0.000578414 0)
(1.00007 0.000598518 0)
(1.00007 0.000616339 0)
(1.00008 0.000632067 0)
(1.00008 0.000645922 0)
(1.00009 0.000658104 0)
(1.00009 0.000668798 0)
(1.0001 0.000678189 0)
(1 4.5774e-05 0)
(1 0.000118553 0)
(1 0.000184117 0)
(1.00001 0.000243416 0)
(1.00001 0.000297093 0)
(1.00002 0.000345604 0)
(1.00002 0.00038932 0)
(1.00003 0.000428583 0)
(1.00004 0.00046373 0)
(1.00004 0.000495096 0)
(1.00005 0.000523019 0)
(1.00006 0.000547827 0)
(1.00007 0.00056984 0)
(1.00007 0.000589357 0)
(1.00008 0.00060665 0)
(1.00008 0.000621902 0)
(1.00009 0.000635331 0)
(1.00009 0.000647132 0)
(1.0001 0.000657485 0)
(1.0001 0.000666574 0)
(1 4.55156e-05 0)
(1 0.000117822 0)
(1 0.000182827 0)
(1.00001 0.000241468 0)
(1.00001 0.000294397 0)
(1.00002 0.000342097 0)
(1.00003 0.000384971 0)
(1.00003 0.000423389 0)
(1.00004 0.00045771 0)
(1.00005 0.00048829 0)
(1.00006 0.000515475 0)
(1.00006 0.000539603 0)
(1.00007 0.000560992 0)
(1.00008 0.000579945 0)
(1.00008 0.00059673 0)
(1.00009 0.000611526 0)
(1.00009 0.000624546 0)
(1.0001 0.000635982 0)
(1.0001 0.000646009 0)
(1.00011 0.000654807 0)
(1 4.51941e-05 0)
(1 0.000116931 0)
(1.00001 0.000181302 0)
(1.00001 0.000239228 0)
(1.00002 0.000291373 0)
(1.00002 0.000338243 0)
(1.00003 0.000380269 0)
(1.00004 0.000417847 0)
(1.00004 0.000451356 0)
(1.00005 0.000481166 0)
(1.00006 0.000507634 0)
(1.00007 0.000531101 0)
(1.00007 0.000551889 0)
(1.00008 0.000570298 0)
(1.00008 0.000586594 0)
(1.00009 0.000600952 0)
(1.0001 0.00061358 0)
(1.0001 0.000624665 0)
(1.0001 0.00063438 0)
(1.00011 0.000642899 0)
(1 4.48122e-05 0)
(1 0.000115889 0)
(1.00001 0.000179553 0)
(1.00001 0.000236712 0)
(1.00002 0.000288038 0)
(1.00002 0.000334061 0)
(1.00003 0.000375235 0)
(1.00004 0.000411978 0)
(1.00005 0.000444687 0)
(1.00005 0.000473744 0)
(1.00006 0.000499514 0)
(1.00007 0.000522341 0)
(1.00008 0.000542547 0)
(1.00008 0.000560432 0)
(1.00009 0.000576257 0)
(1.00009 0.000590193 0)
(1.0001 0.000602444 0)
(1.0001 0.000613192 0)
(1.00011 0.000622606 0)
(1.00011 0.000630858 0)
(1 4.43726e-05 0)
(1 0.000114702 0)
(1.00001 0.000177591 0)
(1.00001 0.000233935 0)
(1.00002 0.000284412 0)
(1.00003 0.000329573 0)
(1.00003 0.000369891 0)
(1.00004 0.000405805 0)
(1.00005 0.000437726 0)
(1.00006 0.000466047 0)
(1.00006 0.000491136 0)
(1.00007 0.000513342 0)
(1.00008 0.000532984 0)
(1.00008 0.000550362 0)
(1.00009 0.000565733 0)
(1.00009 0.000579262 0)
(1.0001 0.00059115 0)
(1.0001 0.000601574 0)
(1.00011 0.000610699 0)
(1.00011 0.000618693 0)
(1 4.38786e-05 0)
(1 0.000113378 0)
(1.00001 0.000175429 0)
(1.00001 0.000230912 0)
(1.00002 0.000280513 0)
(1.00003 0.000324797 0)
(1.00003 0.000364258 0)
(1.00004 0.000399349 0)
(1.00005 0.000430494 0)
(1.00006 0.000458093 0)
(1.00007 0.000482519 0)
(1.00007 0.00050412 0)
(1.00008 0.000523217 0)
(1.00009 0.000540104 0)
(1.00009 0.000555036 0)
(1.0001 0.000568172 0)
(1.0001 0.00057971 0)
(1.00011 0.000589822 0)
(1.00011 0.000598668 0)
(1.00011 0.000606414 0)
(1 4.33331e-05 0)
(1 0.000111926 0)
(1.00001 0.000173079 0)
(1.00001 0.00022766 0)
(1.00002 0.00027636 0)
(1.00003 0.000319755 0)
(1.00004 0.000358357 0)
(1.00004 0.000392631 0)
(1.00005 0.000423012 0)
(1.00006 0.000449903 0)
(1.00007 0.000473682 0)
(1.00007 0.000494695 0)
(1.00008 0.000513262 0)
(1.00009 0.000529673 0)
(1.00009 0.00054418 0)
(1.0001 0.000556938 0)
(1.0001 0.000568137 0)
(1.00011 0.000577947 0)
(1.00011 0.000586525 0)
(1.00011 0.000594032 0)
(1 4.27396e-05 0)
(1 0.000110354 0)
(1.00001 0.000170555 0)
(1.00001 0.000224196 0)
(1.00002 0.00027197 0)
(1.00003 0.000314468 0)
(1.00004 0.00035221 0)
(1.00004 0.000385673 0)
(1.00005 0.0004153 0)
(1.00006 0.000441497 0)
(1.00007 0.000464643 0)
(1.00007 0.000485084 0)
(1.00008 0.000503135 0)
(1.00009 0.000519085 0)
(1.00009 0.000533181 0)
(1.0001 0.000545571 0)
(1.0001 0.000556443 0)
(1.00011 0.000565962 0)
(1.00011 0.00057428 0)
(1.00011 0.000581555 0)
(1 4.21014e-05 0)
(1 0.00010867 0)
(1.00001 0.000167868 0)
(1.00001 0.000220534 0)
(1.00002 0.000267364 0)
(1.00003 0.000308954 0)
(1.00004 0.000345836 0)
(1.00005 0.000378496 0)
(1.00005 0.000407378 0)
(1.00006 0.000432894 0)
(1.00007 0.000455421 0)
(1.00008 0.000475303 0)
(1.00008 0.000492853 0)
(1.00009 0.000508355 0)
(1.00009 0.000522052 0)
(1.0001 0.000534086 0)
(1.0001 0.000544641 0)
(1.00011 0.000553877 0)
(1.00011 0.000561944 0)
(1.00011 0.000568996 0)
(1 4.14218e-05 0)
(1 0.000106884 0)
(1.00001 0.000165032 0)
(1.00001 0.000216693 0)
(1.00002 0.000262559 0)