/*--------------------------------*- C++ -*----------------------------------*\
| =========                 |                                                 |
| \\      /  F ield         | OpenFOAM: The Open Source CFD Toolbox           |
|  \\    /   O peration     | Version:  2.4.0                                 |
|   \\  /    A nd           | Web:      www.OpenFOAM.org                      |
|    \\/     M anipulation  |                                                 |
\*---------------------------------------------------------------------------*/
FoamFile
{
    version     2.0;
    format      ascii;
    class       volVectorField;
    location    "1.3";
    object      U;
}
// * * * * * * * * * * * * * * * * * * * * * * * * * * * * * * * * * * * * * //

dimensions      [0 1 -1 0 0 0 0];

internalField   nonuniform List<vector> 
6000
(
(0.990441 -0.000273757 0)
(0.970231 0.0020497 0)
(0.948316 0.00334879 0)
(0.925587 0.00413663 0)
(0.903364 0.00452023 0)
(0.882322 0.00453154 0)
(0.862685 0.00428822 0)
(0.844553 0.00390126 0)
(0.82799 0.00344516 0)
(0.812998 0.00296863 0)
(0.79952 0.00250387 0)
(0.78746 0.00207086 0)
(0.7767 0.00168054 0)
(0.767117 0.00133769 0)
(0.758585 0.00104306 0)
(0.750981 0.000794879 0)
(0.744191 0.000589975 0)
(0.738106 0.000424414 0)
(0.732629 0.000293966 0)
(0.727671 0.000194362 0)
(0.723153 0.000121438 0)
(0.719006 7.12059e-05 0)
(0.715169 3.98989e-05 0)
(0.71159 2.40251e-05 0)
(0.708225 2.03866e-05 0)
(0.705035 2.61406e-05 0)
(0.701989 3.87892e-05 0)
(0.699061 5.61626e-05 0)
(0.696232 7.64242e-05 0)
(0.693482 9.80911e-05 0)
(0.690798 0.000120043 0)
(0.688167 0.000141509 0)
(0.685578 0.000162052 0)
(0.683021 0.000181537 0)
(0.680483 0.000200111 0)
(0.677951 0.000218183 0)
(0.67541 0.000236412 0)
(0.672839 0.000255705 0)
(0.670214 0.000277233 0)
(0.667503 0.000302458 0)
(0.664667 0.000333183 0)
(0.661653 0.000371619 0)
(0.658398 0.000420495 0)
(0.654816 0.000483195 0)
(0.650803 0.000563964 0)
(0.646222 0.000668167 0)
(0.6409 0.000802655 0)
(0.634613 0.000976246 0)
(0.627077 0.00120038 0)
(0.617922 0.00149002 0)
(0.606674 0.00186483 0)
(0.592711 0.00235101 0)
(0.575242 0.00298258 0)
(0.553182 0.00380636 0)
(0.525316 0.00487235 0)
(0.489442 0.0062689 0)
(0.445087 0.00794352 0)
(0.384342 0.0101807 0)
(0.324684 0.0121632 0)
(0.186729 0.0111634 0)
(1.00417 0.00480515 0)
(1.01373 0.00718215 0)
(1.0207 0.00682435 0)
(1.02486 0.00641226 0)
(1.02687 0.00609189 0)
(1.02702 0.00572672 0)
(1.02543 0.0053509 0)
(1.02232 0.00499901 0)
(1.01792 0.00467253 0)
(1.01248 0.00436642 0)
(1.00623 0.00407884 0)
(0.999349 0.0038094 0)
(0.992003 0.00355768 0)
(0.984333 0.00332307 0)
(0.976458 0.00310483 0)
(0.968478 0.00290209 0)
(0.960477 0.00271393 0)
(0.952526 0.0025394 0)
(0.944682 0.00237758 0)
(0.936995 0.00222759 0)
(0.929502 0.00208863 0)
(0.922237 0.00195999 0)
(0.915221 0.00184103 0)
(0.908473 0.00173118 0)
(0.902003 0.00162992 0)
(0.895815 0.0015367 0)
(0.889909 0.0014512 0)
(0.884279 0.00137321 0)
(0.878915 0.00130262 0)
(0.873806 0.00123934 0)
(0.868936 0.00118332 0)
(0.864289 0.00113457 0)
(0.859846 0.00109315 0)
(0.855587 0.00105918 0)
(0.851493 0.00103294 0)
(0.847541 0.00101488 0)
(0.843711 0.00100572 0)
(0.839977 0.0010065 0)
(0.836314 0.00101874 0)
(0.832693 0.00104449 0)
(0.82908 0.00108657 0)
(0.825435 0.00114868 0)
(0.821712 0.00123573 0)
(0.817852 0.00135409 0)
(0.813783 0.00151209 0)
(0.809415 0.00172055 0)
(0.804632 0.00199359 0)
(0.799288 0.00234964 0)
(0.793191 0.00281295 0)
(0.786092 0.00341553 0)
(0.777666 0.00420007 0)
(0.767473 0.00522374 0)
(0.754934 0.00656413 0)
(0.739203 0.00832488 0)
(0.719266 0.0106472 0)
(0.693071 0.0137044 0)
(0.659702 0.0177075 0)
(0.610403 0.0227307 0)
(0.558863 0.0298549 0)
(0.427929 0.0303614 0)
(1.00036 0.00116234 0)
(1.00263 0.00202372 0)
(1.00544 0.00239372 0)
(1.00803 0.00304093 0)
(1.01052 0.00370471 0)
(1.013 0.00418587 0)
(1.01529 0.00451 0)
(1.01726 0.00472085 0)
(1.01884 0.00483323 0)
(1.02001 0.0048611 0)
(1.02076 0.00482369 0)
(1.02109 0.00473967 0)
(1.021 0.00462418 0)
(1.02051 0.00448883 0)
(1.01964 0.00434231 0)
(1.01841 0.00419092 0)
(1.01683 0.00403901 0)
(1.01492 0.0038895 0)
(1.0127 0.00374419 0)
(1.01019 0.00360413 0)
(1.00741 0.00346985 0)
(1.00437 0.00334156 0)
(1.00111 0.00321931 0)
(0.997629 0.00310296 0)
(0.993966 0.00299217 0)
(0.990139 0.00288651 0)
(0.986175 0.00278568 0)
(0.982097 0.00268956 0)
(0.977931 0.00259808 0)
(0.973701 0.00251133 0)
(0.969429 0.00242948 0)
(0.965136 0.00235287 0)
(0.96084 0.00228201 0)
(0.956556 0.00221762 0)
(0.952294 0.0021607 0)
(0.948062 0.00211255 0)
(0.943863 0.00207488 0)
(0.939692 0.00204989 0)
(0.935542 0.00204041 0)
(0.931396 0.00205003 0)
(0.927233 0.00208331 0)
(0.92302 0.00214608 0)
(0.918715 0.00224581 0)
(0.914263 0.00239202 0)
(0.909594 0.00259697 0)
(0.904618 0.00287644 0)
(0.899219 0.00325088 0)
(0.893254 0.00374695 0)
(0.886536 0.0043996 0)
(0.878831 0.00525494 0)
(0.869839 0.00637455 0)
(0.859175 0.00784097 0)
(0.846356 0.00976753 0)
(0.830719 0.0123061 0)
(0.811544 0.015678 0)
(0.787376 0.0201412 0)
(0.75798 0.0262004 0)
(0.716662 0.0338158 0)
(0.675458 0.0459277 0)
(0.572872 0.0508966 0)
(1.00025 0.00137449 0)
(1.00159 0.00317762 0)
(1.00312 0.00385962 0)
(1.00435 0.00422169 0)
(1.00551 0.0044898 0)
(1.00681 0.00462059 0)
(1.00821 0.00464384 0)
(1.00962 0.00461185 0)
(1.01101 0.00454652 0)
(1.01236 0.00445806 0)
(1.01365 0.0043568 0)
(1.01486 0.00425151 0)
(1.01598 0.00414779 0)
(1.017 0.00404885 0)
(1.0179 0.00395647 0)
(1.01869 0.0038715 0)
(1.01935 0.00379414 0)
(1.01989 0.00372409 0)
(1.02031 0.00366075 0)
(1.02059 0.00360332 0)
(1.02075 0.00355088 0)
(1.02077 0.00350254 0)
(1.02065 0.00345744 0)
(1.02039 0.00341471 0)
(1.01999 0.00337354 0)
(1.01945 0.00333328 0)
(1.01875 0.00329345 0)
(1.0179 0.00325373 0)
(1.0169 0.00321397 0)
(1.01573 0.00317423 0)
(1.01441 0.00313481 0)
(1.01293 0.00309627 0)
(1.01128 0.00305947 0)
(1.00947 0.00302561 0)
(1.0075 0.00299628 0)
(1.00537 0.00297351 0)
(1.00307 0.00295987 0)
(1.00061 0.00295857 0)
(0.997968 0.00297361 0)
(0.995148 0.00301005 0)
(0.992134 0.00307423 0)
(0.988906 0.00317414 0)
(0.985436 0.00331997 0)
(0.981684 0.00352463 0)
(0.977596 0.00380466 0)
(0.9731 0.00418123 0)
(0.968099 0.00468161 0)
(0.962464 0.00534111 0)
(0.956031 0.00620564 0)
(0.948582 0.00733534 0)
(0.939838 0.00880964 0)
(0.929437 0.0107338 0)
(0.916923 0.013251 0)
(0.90168 0.0165494 0)
(0.883047 0.0209061 0)
(0.859773 0.0266258 0)
(0.831758 0.0343985 0)
(0.793813 0.0440743 0)
(0.756707 0.0598294 0)
(0.673822 0.0690579 0)
(1.00018 0.00117351 0)
(1.00125 0.00265202 0)
(1.00255 0.00313695 0)
(1.00361 0.00339465 0)
(1.00455 0.00368378 0)
(1.00554 0.00390459 0)
(1.00659 0.00402484 0)
(1.00763 0.00408063 0)
(1.00866 0.00409623 0)
(1.00967 0.00408009 0)
(1.01068 0.00403963 0)
(1.01168 0.00398306 0)
(1.01266 0.003917 0)
(1.01361 0.0038463 0)
(1.01453 0.00377451 0)
(1.01543 0.00370424 0)
(1.0163 0.0036373 0)
(1.01713 0.00357479 0)
(1.01793 0.00351731 0)
(1.0187 0.00346505 0)
(1.01942 0.00341794 0)
(1.02011 0.00337575 0)
(1.02075 0.00333808 0)
(1.02135 0.00330452 0)
(1.0219 0.00327471 0)
(1.0224 0.00324833 0)
(1.02285 0.00322514 0)
(1.02325 0.00320496 0)
(1.02358 0.00318774 0)
(1.02385 0.00317359 0)
(1.02405 0.00316279 0)
(1.02417 0.00315583 0)
(1.02421 0.00315348 0)
(1.02417 0.00315684 0)
(1.02403 0.00316742 0)
(1.02378 0.00318724 0)
(1.02341 0.00321894 0)
(1.02291 0.00326599 0)
(1.02226 0.00333288 0)
(1.02145 0.00342537 0)
(1.02045 0.0035509 0)
(1.01922 0.00371901 0)
(1.01773 0.00394192 0)
(1.01594 0.00423533 0)
(1.01379 0.00461936 0)
(1.01119 0.00511992 0)
(1.00806 0.0057704 0)
(1.00427 0.00661397 0)
(0.999656 0.0077067 0)
(0.99402 0.00912175 0)
(0.987099 0.0109553 0)
(0.978553 0.013334 0)
(0.967956 0.0164282 0)
(0.954732 0.0204593 0)
(0.938253 0.0257494 0)
(0.917369 0.0326386 0)
(0.891902 0.0419174 0)
(0.857473 0.0533482 0)
(0.823167 0.0715833 0)
(0.752849 0.0838553 0)
(1.00014 0.000986939 0)
(1.00102 0.00234199 0)
(1.00218 0.00292823 0)
(1.00322 0.00327081 0)
(1.00413 0.00359505 0)
(1.00506 0.00382755 0)
(1.00603 0.0039415 0)
(1.00699 0.00398007 0)
(1.00792 0.00397617 0)
(1.00883 0.00394142 0)
(1.00972 0.00388359 0)
(1.01059 0.00381146 0)
(1.01145 0.00373254 0)
(1.01229 0.0036521 0)
(1.01311 0.00357368 0)
(1.01392 0.00349966 0)
(1.01471 0.0034315 0)
(1.01549 0.00336991 0)
(1.01626 0.00331508 0)
(1.01701 0.00326685 0)
(1.01776 0.00322482 0)
(1.01849 0.0031885 0)
(1.01921 0.00315729 0)
(1.01991 0.00313067 0)
(1.0206 0.00310816 0)
(1.02127 0.00308937 0)
(1.02193 0.003074 0)
(1.02257 0.00306188 0)
(1.02318 0.00305301 0)
(1.02377 0.0030476 0)
(1.02434 0.00304606 0)
(1.02487 0.00304911 0)
(1.02538 0.00305777 0)
(1.02584 0.00307345 0)
(1.02626 0.00309805 0)
(1.02662 0.00313405 0)
(1.02693 0.00318469 0)
(1.02717 0.00325411 0)
(1.02732 0.00334766 0)
(1.02737 0.00347215 0)
(1.02731 0.0036363 0)
(1.02709 0.00385125 0)
(1.02671 0.00413124 0)
(1.0261 0.00449453 0)
(1.02523 0.00496455 0)
(1.02402 0.00557141 0)
(1.0224 0.00635395 0)
(1.02026 0.00736235 0)
(1.01746 0.00866178 0)
(1.01382 0.0103371 0)
(1.00913 0.0124998 0)
(1.00308 0.0152961 0)
(0.995307 0.0189218 0)
(0.985302 0.0236299 0)
(0.972499 0.0297845 0)
(0.95585 0.0377663 0)
(0.935109 0.0484402 0)
(0.906391 0.0615332 0)
(0.877037 0.0817916 0)
(0.81794 0.0963754 0)
(1.00011 0.000842191 0)
(1.00084 0.00209722 0)
(1.00189 0.00272308 0)
(1.00289 0.00306789 0)
(1.00378 0.00335926 0)
(1.00468 0.00357136 0)
(1.00563 0.00368004 0)
(1.00656 0.00371976 0)
(1.00748 0.00372117 0)
(1.00836 0.00369494 0)
(1.00923 0.00364717 0)
(1.01007 0.00358548 0)
(1.0109 0.00351678 0)
(1.0117 0.00344592 0)
(1.01248 0.00337612 0)
(1.01324 0.00330956 0)
(1.01399 0.00324764 0)
(1.01473 0.00319117 0)
(1.01546 0.00314046 0)
(1.01617 0.00309551 0)
(1.01688 0.0030561 0)
(1.01758 0.0030219 0)
(1.01827 0.00299252 0)
(1.01896 0.00296756 0)
(1.01964 0.00294667 0)
(1.02031 0.00292959 0)
(1.02097 0.00291613 0)
(1.02163 0.00290624 0)
(1.02227 0.00290004 0)
(1.02291 0.00289784 0)
(1.02353 0.00290019 0)
(1.02413 0.00290793 0)
(1.02472 0.00292222 0)
(1.02528 0.00294468 0)
(1.02582 0.00297741 0)
(1.02632 0.0030232 0)
(1.02678 0.00308562 0)
(1.0272 0.00316929 0)
(1.02755 0.00328013 0)
(1.02783 0.00342572 0)
(1.02802 0.00361574 0)
(1.0281 0.00386259 0)
(1.02804 0.00418213 0)
(1.02781 0.00459472 0)
(1.02736 0.00512644 0)
(1.02664 0.00581087 0)
(1.02558 0.00669128 0)
(1.0241 0.00782357 0)
(1.02208 0.0092803 0)
(1.01938 0.0111559 0)
(1.01584 0.0135741 0)
(1.01122 0.0166972 0)
(1.00525 0.020742 0)
(0.997572 0.0259886 0)
(0.987778 0.0328383 0)
(0.975074 0.041715 0)
(0.959367 0.0535549 0)
(0.937388 0.068115 0)
(0.915014 0.0901295 0)
(0.868937 0.106974 0)
(1.00009 0.000728813 0)
(1.00071 0.00188098 0)
(1.00166 0.00251236 0)
(1.00261 0.00285663 0)
(1.00348 0.00313202 0)
(1.00436 0.00334175 0)
(1.00529 0.0034588 0)
(1.00621 0.00350669 0)
(1.00711 0.00351445 0)
(1.00799 0.00349424 0)
(1.00885 0.00345227 0)
(1.00969 0.00339581 0)
(1.0105 0.00333168 0)
(1.01129 0.00326477 0)
(1.01207 0.00319833 0)
(1.01282 0.0031346 0)
(1.01356 0.00307507 0)
(1.01428 0.00302063 0)
(1.01499 0.00297168 0)
(1.01569 0.00292828 0)
(1.01638 0.00289029 0)
(1.01707 0.00285743 0)
(1.01774 0.00282934 0)
(1.01841 0.00280569 0)
(1.01907 0.00278616 0)
(1.01973 0.00277054 0)
(1.02038 0.0027587 0)
(1.02102 0.00275065 0)
(1.02165 0.00274657 0)
(1.02228 0.00274686 0)
(1.0229 0.00275216 0)
(1.0235 0.00276341 0)
(1.02409 0.00278195 0)
(1.02467 0.00280955 0)
(1.02522 0.00284855 0)
(1.02574 0.002902 0)
(1.02623 0.00297386 0)
(1.02668 0.00306919 0)
(1.02708 0.00319446 0)
(1.02741 0.00335798 0)
(1.02766 0.00357033 0)
(1.02782 0.00384505 0)
(1.02785 0.00419945 0)
(1.02772 0.00465567 0)
(1.02739 0.00524207 0)
(1.02682 0.00599508 0)
(1.02594 0.0069615 0)
(1.02467 0.00820169 0)
(1.02291 0.00979368 0)
(1.02054 0.0118387 0)
(1.01742 0.0144688 0)
(1.01335 0.0178565 0)
(1.00813 0.0222311 0)
(1.00148 0.027888 0)
(0.993157 0.0352495 0)
(0.982645 0.0447656 0)
(0.970126 0.0574165 0)
(0.95326 0.0730349 0)
(0.93695 0.0962439 0)
(0.904228 0.115457 0)
(1.00007 0.000636572 0)
(1.00061 0.00168643 0)
(1.00146 0.00230827 0)
(1.00237 0.00265444 0)
(1.00322 0.00291891 0)
(1.00409 0.00312325 0)
(1.00499 0.00324227 0)
(1.0059 0.00329259 0)
(1.00679 0.00330233 0)
(1.00766 0.00328528 0)
(1.00852 0.00324771 0)
(1.00935 0.00319614 0)
(1.01016 0.003137 0)
(1.01095 0.00307501 0)
(1.01172 0.0030133 0)
(1.01248 0.00295398 0)
(1.01321 0.00289849 0)
(1.01393 0.00284768 0)
(1.01464 0.00280196 0)
(1.01534 0.00276142 0)
(1.01602 0.00272593 0)
(1.0167 0.00269527 0)
(1.01737 0.00266914 0)
(1.01803 0.00264726 0)
(1.01869 0.00262938 0)
(1.01934 0.00261534 0)
(1.01998 0.0026051 0)
(1.02061 0.00259873 0)
(1.02124 0.00259651 0)
(1.02186 0.00259892 0)
(1.02247 0.0026067 0)
(1.02307 0.00262094 0)
(1.02366 0.0026431 0)
(1.02423 0.00267513 0)
(1.02477 0.00271962 0)
(1.0253 0.00277988 0)
(1.02579 0.0028602 0)
(1.02624 0.00296609 0)
(1.02665 0.00310456 0)
(1.027 0.0032846 0)
(1.02727 0.00351766 0)
(1.02745 0.00381837 0)
(1.02751 0.00420541 0)
(1.02742 0.00470263 0)
(1.02715 0.00534057 0)
(1.02664 0.00615832 0)
(1.02584 0.00720601 0)
(1.02467 0.00854805 0)
(1.02304 0.0102674 0)
(1.02084 0.0124709 0)
(1.01792 0.0152974 0)
(1.01413 0.0189264 0)
(1.00926 0.0235945 0)
(1.0031 0.0296032 0)
(0.995451 0.0373787 0)
(0.98596 0.0473738 0)
(0.974932 0.0605571 0)
(0.960897 0.0768419 0)
(0.947929 0.100514 0)
(0.925667 0.121903 0)
(1.00006 0.000559605 0)
(1.00052 0.00151227 0)
(1.0013 0.00211482 0)
(1.00216 0.00246017 0)
(1.003 0.00271329 0)
(1.00385 0.00290875 0)
(1.00473 0.0030269 0)
(1.00563 0.00307919 0)
(1.00651 0.00309151 0)
(1.00738 0.00307827 0)
(1.00823 0.00304558 0)
(1.00906 0.00299926 0)
(1.00987 0.00294529 0)
(1.01066 0.00288823 0)
(1.01143 0.00283112 0)
(1.01218 0.002776 0)
(1.01291 0.00272427 0)
(1.01363 0.0026768 0)
(1.01434 0.002634 0)
(1.01504 0.00259603 0)
(1.01572 0.0025628 0)
(1.0164 0.00253415 0)
(1.01707 0.00250983 0)
(1.01773 0.00248961 0)
(1.01838 0.00247332 0)
(1.01903 0.00246085 0)
(1.01967 0.0024522 0)
(1.0203 0.00244754 0)
(1.02093 0.0024472 0)
(1.02155 0.00245174 0)
(1.02215 0.00246201 0)
(1.02275 0.00247919 0)
(1.02333 0.0025049 0)
(1.0239 0.00254125 0)
(1.02445 0.00259103 0)
(1.02497 0.00265782 0)
(1.02547 0.00274624 0)
(1.02592 0.0028622 0)
(1.02634 0.00301324 0)
(1.02669 0.003209 0)
(1.02698 0.00346175 0)
(1.02717 0.00378716 0)
(1.02725 0.00420522 0)
(1.02719 0.00474143 0)
(1.02696 0.00542835 0)
(1.0265 0.00630764 0)
(1.02577 0.00743256 0)
(1.02468 0.00887135 0)
(1.02316 0.0107115 0)
(1.02109 0.0130655 0)
(1.01835 0.016078 0)
(1.01478 0.0199348 0)
(1.01021 0.0248783 0)
(1.00442 0.0312134 0)
(0.997247 0.0393626 0)
(0.988415 0.0497716 0)
(0.978196 0.063353 0)
(0.965702 0.0800966 0)
(0.954069 0.10371 0)
(0.938129 0.126785 0)
(1.00005 0.000494162 0)
(1.00046 0.00135607 0)
(1.00117 0.00193158 0)
(1.00199 0.00227173 0)
(1.00281 0.00251315 0)
(1.00364 0.00269857 0)
(1.00451 0.00281463 0)
(1.00539 0.00286855 0)
(1.00626 0.00288321 0)
(1.00712 0.00287318 0)
(1.00797 0.0028447 0)
(1.00879 0.00280301 0)
(1.0096 0.00275372 0)
(1.01039 0.00270121 0)
(1.01116 0.00264844 0)
(1.01191 0.00259735 0)
(1.01265 0.0025493 0)
(1.01337 0.00250515 0)
(1.01408 0.00246533 0)
(1.01477 0.00243002 0)
(1.01546 0.00239916 0)
(1.01614 0.00237264 0)
(1.01681 0.00235026 0)
(1.01747 0.00233183 0)
(1.01812 0.00231724 0)
(1.01877 0.00230643 0)
(1.01941 0.00229946 0)
(1.02004 0.00229656 0)
(1.02066 0.00229813 0)
(1.02128 0.00230481 0)
(1.02189 0.00231754 0)
(1.02249 0.00233762 0)
(1.02307 0.00236678 0)
(1.02364 0.00240732 0)
(1.02419 0.0024622 0)
(1.02472 0.00253527 0)
(1.02521 0.00263145 0)
(1.02568 0.00275705 0)
(1.0261 0.0029201 0)
(1.02646 0.00313085 0)
(1.02676 0.00340237 0)
(1.02697 0.00375132 0)
(1.02708 0.00419891 0)
(1.02705 0.00477219 0)
(1.02685 0.00550568 0)
(1.02645 0.0064434 0)
(1.02578 0.0076416 0)
(1.02478 0.00917208 0)
(1.02336 0.0111267 0)
(1.02144 0.0136227 0)
(1.01888 0.0168106 0)
(1.01554 0.0208818 0)
(1.01125 0.0260837 0)
(1.00584 0.0327239 0)
(0.999142 0.0412195 0)
(0.990924 0.0520095 0)
(0.981398 0.0659322 0)
(0.970019 0.0830579 0)
(0.95908 0.106416 0)
(0.946377 0.130617 0)
(1.00005 0.000437554 0)
(1.00041 0.0012151 0)
(1.00106 0.00175793 0)
(1.00184 0.00208869 0)
(1.00264 0.00231827 0)
(1.00346 0.0024931 0)
(1.00431 0.00260572 0)
(1.00518 0.00266034 0)
(1.00605 0.00267672 0)
(1.0069 0.00266931 0)
(1.00774 0.00264454 0)
(1.00856 0.0026072 0)
(1.00937 0.0025624 0)
(1.01016 0.00251434 0)
(1.01093 0.00246584 0)
(1.01168 0.00241876 0)
(1.01241 0.00237439 0)
(1.01314 0.00233356 0)
(1.01384 0.00229673 0)
(1.01454 0.00226408 0)
(1.01523 0.0022356 0)
(1.01591 0.00221121 0)
(1.01657 0.00219075 0)
(1.01724 0.00217411 0)
(1.01789 0.00216121 0)
(1.01854 0.00215203 0)
(1.01918 0.00214672 0)
(1.01981 0.00214554 0)
(1.02044 0.00214898 0)
(1.02105 0.00215775 0)
(1.02166 0.00217287 0)
(1.02226 0.00219575 0)
(1.02285 0.00222825 0)
(1.02342 0.00227281 0)
(1.02397 0.0023326 0)
(1.0245 0.00241168 0)
(1.025 0.00251527 0)
(1.02547 0.00265006 0)
(1.0259 0.00282454 0)
(1.02628 0.00304956 0)
(1.02659 0.00333891 0)
(1.02683 0.00371019 0)
(1.02696 0.00418576 0)
(1.02696 0.00479415 0)
(1.02681 0.00557167 0)
(1.02646 0.00656462 0)
(1.02586 0.00783197 0)
(1.02495 0.00944889 0)
(1.02365 0.0115112 0)
(1.02188 0.0141408 0)
(1.0195 0.017493 0)
(1.0164 0.0217647 0)
(1.01243 0.0272072 0)
(1.0074 0.0341305 0)
(1.00119 0.0429451 0)
(0.993603 0.054085 0)
(0.984793 0.0683131 0)
(0.974429 0.0857778 0)
(0.964234 0.108876 0)
(0.953261 0.133742 0)
(1.00004 0.000387797 0)
(1.00037 0.00108696 0)
(1.00097 0.0015933 0)
(1.00172 0.00191092 0)
(1.0025 0.00212824 0)
(1.0033 0.00229199 0)
(1.00413 0.00239986 0)
(1.00499 0.00245421 0)
(1.00585 0.00247181 0)
(1.0067 0.00246663 0)
(1.00754 0.00244521 0)
(1.00836 0.00241194 0)
(1.00916 0.00237144 0)
(1.00995 0.00232767 0)
(1.01072 0.00228332 0)
(1.01147 0.00224015 0)
(1.01221 0.00219939 0)
(1.01293 0.00216185 0)
(1.01364 0.00212797 0)
(1.01433 0.00209797 0)
(1.01502 0.00207186 0)
(1.0157 0.0020496 0)
(1.01637 0.00203109 0)
(1.01703 0.00201624 0)
(1.01768 0.00200502 0)
(1.01833 0.00199749 0)
(1.01897 0.00199382 0)
(1.01961 0.00199435 0)
(1.02023 0.00199962 0)
(1.02085 0.00201043 0)
(1.02146 0.00202788 0)
(1.02206 0.00205346 0)
(1.02265 0.00208916 0)
(1.02322 0.00213757 0)
(1.02378 0.00220202 0)
(1.02432 0.00228682 0)
(1.02483 0.00239746 0)
(1.0253 0.00254095 0)
(1.02574 0.00272625 0)
(1.02613 0.00296474 0)
(1.02646 0.00327091 0)
(1.02672 0.00366323 0)
(1.02688 0.00416515 0)
(1.02692 0.00480655 0)
(1.02682 0.00562545 0)
(1.02652 0.00667023 0)
(1.026 0.00800241 0)
(1.02519 0.00970026 0)
(1.02401 0.0118632 0)
(1.02239 0.0146174 0)
(1.02021 0.0181227 0)
(1.01737 0.0225806 0)
(1.01371 0.0282456 0)
(1.00909 0.0354297 0)
(1.00338 0.0445358 0)
(0.996422 0.0559931 0)
(0.988352 0.0704944 0)
(0.978963 0.0882508 0)
(0.969657 0.111142 0)
(0.959904 0.136349 0)
(1.00004 0.000343415 0)
(1.00034 0.000969605 0)
(1.00089 0.001437 0)
(1.00161 0.0017382 0)
(1.00237 0.00194256 0)
(1.00316 0.00209481 0)
(1.00398 0.00219686 0)
(1.00483 0.00225006 0)
(1.00568 0.00226843 0)
(1.00652 0.00226511 0)
(1.00736 0.00224669 0)
(1.00817 0.00221719 0)
(1.00898 0.00218078 0)
(1.00976 0.00214114 0)
(1.01053 0.00210082 0)
(1.01128 0.00206149 0)
(1.01202 0.00202429 0)
(1.01274 0.00199001 0)
(1.01345 0.00195908 0)
(1.01415 0.00193173 0)
(1.01484 0.001908 0)
(1.01552 0.00188789 0)
(1.01619 0.00187132 0)
(1.01685 0.00185826 0)
(1.0175 0.00184873 0)
(1.01815 0.00184282 0)
(1.01879 0.00184078 0)
(1.01943 0.00184299 0)
(1.02006 0.00185005 0)
(1.02068 0.00186282 0)
(1.02129 0.0018825 0)
(1.02189 0.00191067 0)
(1.02248 0.00194943 0)
(1.02306 0.00200149 0)
(1.02362 0.00207037 0)
(1.02416 0.00216057 0)
(1.02467 0.00227783 0)
(1.02516 0.00242952 0)
(1.02561 0.00262498 0)
(1.02602 0.0028761 0)
(1.02637 0.00319804 0)
(1.02664 0.00361003 0)
(1.02683 0.00413658 0)
(1.02691 0.0048088 0)
(1.02686 0.00566629 0)
(1.02663 0.00675933 0)
(1.02618 0.00815183 0)
(1.02547 0.00992486 0)
(1.02442 0.0121812 0)
(1.02296 0.0150508 0)
(1.02099 0.0186976 0)
(1.01841 0.023327 0)
(1.01508 0.0291964 0)
(1.01087 0.0366189 0)
(1.00567 0.0459898 0)
(0.999349 0.0577323 0)
(0.992027 0.0724768 0)
(0.983576 0.0904751 0)
(0.975215 0.113204 0)
(0.966552 0.138543 0)
(1.00003 0.000303298 0)
(1.00031 0.000861298 0)
(1.00083 0.00128831 0)
(1.00151 0.00157024 0)
(1.00226 0.00176079 0)
(1.00303 0.00190121 0)
(1.00385 0.00199656 0)
(1.00468 0.0020478 0)
(1.00553 0.00206645 0)
(1.00637 0.00206466 0)
(1.0072 0.0020489 0)
(1.00801 0.00202291 0)
(1.00881 0.00199039 0)
(1.0096 0.00195474 0)
(1.01037 0.00191835 0)
(1.01112 0.00188279 0)
(1.01186 0.00184911 0)
(1.01258 0.00181806 0)
(1.01329 0.00179006 0)
(1.01399 0.00176535 0)
(1.01468 0.00174401 0)
(1.01536 0.00172603 0)
(1.01603 0.00171141 0)
(1.01669 0.00170014 0)
(1.01734 0.00169229 0)
(1.01799 0.001688 0)
(1.01863 0.00168756 0)
(1.01927 0.00169141 0)
(1.0199 0.00170021 0)
(1.02052 0.00171489 0)
(1.02113 0.00173671 0)
(1.02174 0.00176734 0)
(1.02233 0.001809 0)
(1.02291 0.00186451 0)
(1.02347 0.00193755 0)
(1.02402 0.00203281 0)
(1.02455 0.00215629 0)
(1.02504 0.00231563 0)
(1.0255 0.00252055 0)
(1.02593 0.00278344 0)
(1.02629 0.00312001 0)
(1.0266 0.00355028 0)
(1.02682 0.00409964 0)
(1.02694 0.0048004 0)
(1.02693 0.00569355 0)
(1.02677 0.00683117 0)
(1.0264 0.0082793 0)
(1.02579 0.0101216 0)
(1.02488 0.0124638 0)
(1.02359 0.0154393 0)
(1.02183 0.0192156 0)
(1.01951 0.0240018 0)
(1.01652 0.0300574 0)
(1.01273 0.0376961 0)
(1.00805 0.047306 0)
(1.00237 0.0593029 0)
(0.995788 0.0742631 0)
(0.988241 0.0924589 0)
(0.98081 0.115054 0)
(0.97318 0.140399 0)
(1.00003 0.000266596 0)
(1.00029 0.000760564 0)
(1.00078 0.00114642 0)
(1.00143 0.00140673 0)
(1.00216 0.00158254 0)
(1.00293 0.00171082 0)
(1.00373 0.00179877 0)
(1.00456 0.00184728 0)
(1.0054 0.00186576 0)
(1.00623 0.00186517 0)
(1.00706 0.00185178 0)
(1.00787 0.00182905 0)
(1.00867 0.00180025 0)
(1.00945 0.00176846 0)
(1.01022 0.00173591 0)
(1.01097 0.00170404 0)
(1.01171 0.00167384 0)
(1.01244 0.00164599 0)
(1.01315 0.00162092 0)
(1.01385 0.00159885 0)
(1.01453 0.00157988 0)
(1.01521 0.00156405 0)
(1.01588 0.00155137 0)
(1.01655 0.00154189 0)
(1.0172 0.00153571 0)
(1.01785 0.00153302 0)
(1.0185 0.00153415 0)
(1.01913 0.0015396 0)
(1.01976 0.00155008 0)
(1.02038 0.00156659 0)
(1.021 0.00159046 0)
(1.02161 0.00162343 0)
(1.0222 0.00166782 0)
(1.02278 0.00172657 0)
(1.02335 0.0018035 0)
(1.02391 0.00190348 0)
(1.02444 0.00203273 0)
(1.02494 0.00219915 0)
(1.02542 0.00241283 0)
(1.02586 0.00268656 0)
(1.02624 0.00303662 0)
(1.02657 0.00348368 0)
(1.02683 0.00405399 0)
(1.02699 0.0047809 0)
(1.02703 0.00570671 0)
(1.02694 0.00688508 0)
(1.02666 0.00838398 0)
(1.02616 0.0102894 0)
(1.02538 0.0127097 0)
(1.02426 0.0157814 0)
(1.02273 0.0196753 0)
(1.02068 0.0246032 0)
(1.01803 0.0308269 0)
(1.01467 0.03866 0)
(1.01051 0.0484838 0)
(1.00546 0.0607061 0)
(0.999619 0.0758566 0)
(0.992944 0.0942138 0)
(0.986405 0.116695 0)
(0.979738 0.141972 0)
(1.00003 0.000232643 0)
(1.00027 0.000666153 0)
(1.00073 0.00101057 0)
(1.00137 0.00124734 0)
(1.00208 0.00140746 0)
(1.00283 0.0015233 0)
(1.00363 0.00160327 0)
(1.00445 0.00164838 0)
(1.00528 0.00166624 0)
(1.00611 0.00166657 0)
(1.00693 0.00165529 0)
(1.00774 0.0016356 0)
(1.00854 0.00161035 0)
(1.00933 0.00158229 0)
(1.01009 0.00155349 0)
(1.01085 0.00152526 0)
(1.01158 0.00149849 0)
(1.01231 0.00147382 0)
(1.01302 0.00145165 0)
(1.01372 0.00143221 0)
(1.01441 0.00141562 0)
(1.01509 0.00140193 0)
(1.01576 0.00139119 0)
(1.01642 0.00138349 0)
(1.01708 0.00137897 0)
(1.01773 0.00137786 0)
(1.01837 0.00138053 0)
(1.01901 0.00138754 0)
(1.01964 0.00139966 0)
(1.02027 0.00141792 0)
(1.02088 0.00144372 0)
(1.02149 0.00147891 0)
(1.02209 0.00152585 0)
(1.02268 0.00158762 0)
(1.02325 0.00166816 0)
(1.02381 0.0017725 0)
(1.02435 0.00190705 0)
(1.02487 0.00207998 0)
(1.02535 0.00230167 0)
(1.02581 0.0025853 0)
(1.02622 0.00294765 0)
(1.02657 0.00340998 0)
(1.02686 0.00399931 0)
(1.02706 0.00474992 0)
(1.02716 0.00570527 0)
(1.02714 0.00692045 0)
(1.02695 0.00846514 0)
(1.02656 0.0104274 0)
(1.02592 0.012918 0)
(1.02498 0.016076 0)
(1.02367 0.0200751 0)
(1.0219 0.0251298 0)
(1.0196 0.0315032 0)
(1.01667 0.0395092 0)
(1.01304 0.0495226 0)
(1.00862 0.0619433 0)
(1.00351 0.0772611 0)
(0.997676 0.0957512 0)
(0.991989 0.118135 0)
(0.986206 0.143306 0)
(1.00003 0.000200912 0)
(1.00025 0.000577003 0)
(1.0007 0.000879973 0)
(1.00131 0.00109167 0)
(1.00201 0.00123522 0)
(1.00275 0.00133831 0)
(1.00354 0.00140983 0)
(1.00435 0.00145095 0)
(1.00518 0.00146778 0)
(1.00601 0.00146875 0)
(1.00683 0.00145936 0)
(1.00764 0.0014425 0)
(1.00843 0.00142064 0)
(1.00922 0.00139623 0)
(1.00998 0.00137109 0)
(1.01074 0.00134644 0)
(1.01147 0.00132306 0)
(1.0122 0.00130155 0)
(1.01291 0.00128227 0)
(1.01361 0.00126546 0)
(1.0143 0.00125123 0)
(1.01498 0.00123968 0)
(1.01565 0.00123088 0)
(1.01632 0.00122495 0)
(1.01697 0.00122207 0)
(1.01763 0.00122251 0)
(1.01827 0.00122671 0)
(1.01891 0.00123523 0)
(1.01954 0.00124891 0)
(1.02017 0.00126884 0)
(1.02078 0.00129649 0)
(1.02139 0.00133374 0)
(1.022 0.00138306 0)
(1.02259 0.00144763 0)
(1.02317 0.00153148 0)
(1.02373 0.0016398 0)
(1.02428 0.00177919 0)
(1.02481 0.00195802 0)
(1.02531 0.00218695 0)
(1.02578 0.00247952 0)
(1.02621 0.00285292 0)
(1.02659 0.00332895 0)
(1.02691 0.00393531 0)
(1.02716 0.0047071 0)
(1.02732 0.0056888 0)
(1.02736 0.00693675 0)
(1.02726 0.00852213 0)
(1.02699 0.0105348 0)
(1.0265 0.0130875 0)
(1.02574 0.0163219 0)
(1.02465 0.0204138 0)
(1.02317 0.02558 0)
(1.02123 0.0320852 0)
(1.01873 0.0402428 0)
(1.01562 0.0504224 0)
(1.01184 0.0630161 0)
(1.00745 0.07848 0)
(1.00243 0.0970812 0)
(0.997561 0.119384 0)
(0.992587 0.144436 0)
(1.00003 0.000170978 0)
(1.00024 0.000492201 0)
(1.00067 0.000753915 0)
(1.00126 0.000939325 0)
(1.00195 0.00106547 0)
(1.00268 0.00115553 0)
(1.00346 0.00121821 0)
(1.00427 0.00125484 0)
(1.00509 0.00127025 0)
(1.00592 0.00127163 0)
(1.00673 0.00126392 0)
(1.00754 0.00124972 0)
(1.00834 0.00123113 0)
(1.00912 0.00121024 0)
(1.00989 0.00118871 0)
(1.01064 0.00116758 0)
(1.01138 0.00114757 0)
(1.0121 0.00112918 0)
(1.01282 0.00111278 0)
(1.01352 0.00109858 0)
(1.01421 0.00108672 0)
(1.01489 0.0010773 0)
(1.01556 0.00107043 0)
(1.01623 0.00106626 0)
(1.01688 0.00106501 0)
(1.01754 0.00106699 0)
(1.01818 0.00107266 0)
(1.01882 0.00108265 0)
(1.01945 0.00109783 0)
(1.02008 0.00111935 0)
(1.0207 0.00114872 0)
(1.02131 0.0011879 0)
(1.02192 0.00123942 0)
(1.02251 0.00130654 0)
(1.0231 0.00139341 0)
(1.02367 0.00150534 0)
(1.02423 0.00164907 0)
(1.02476 0.00183318 0)
(1.02528 0.00206857 0)
(1.02577 0.00236908 0)
(1.02622 0.00275226 0)
(1.02663 0.00324039 0)
(1.02699 0.00386174 0)
(1.02728 0.00465213 0)
(1.0275 0.00565691 0)
(1.02761 0.0069335 0)
(1.0276 0.00855437 0)
(1.02745 0.0106109 0)
(1.0271 0.0132176 0)
(1.02653 0.0165181 0)
(1.02568 0.0206903 0)
(1.02449 0.0259529 0)
(1.0229 0.0325715 0)
(1.02085 0.0408598 0)
(1.01827 0.0511827 0)
(1.01511 0.0639256 0)
(1.01144 0.0795167 0)
(1.00722 0.0982124 0)
(1.00312 0.120452 0)
(0.998893 0.145389 0)
(1.00003 0.000142486 0)
(1.00023 0.000410957 0)
(1.00064 0.000631696 0)
(1.00122 0.000789888 0)
(1.0019 0.00089789 0)
(1.00263 0.000974649 0)
(1.0034 0.00102818 0)
(1.0042 0.00105988 0)
(1.00502 0.00107354 0)
(1.00584 0.00107512 0)
(1.00666 0.00106892 0)
(1.00746 0.00105722 0)
(1.00826 0.00104177 0)
(1.00904 0.00102434 0)
(1.00981 0.00100634 0)
(1.01056 0.000988689 0)
(1.0113 0.000972005 0)
(1.01203 0.000956734 0)
(1.01274 0.000943198 0)
(1.01344 0.000931605 0)
(1.01413 0.000922101 0)
(1.01481 0.000914806 0)
(1.01548 0.000909858 0)
(1.01615 0.000907436 0)
(1.01681 0.000907789 0)
(1.01746 0.000911274 0)
(1.01811 0.000918385 0)
(1.01875 0.000929798 0)
(1.01938 0.000946416 0)
(1.02001 0.000969434 0)
(1.02063 0.00100041 0)
(1.02125 0.00104137 0)
(1.02186 0.0010949 0)
(1.02246 0.00116433 0)
(1.02305 0.00125391 0)
(1.02362 0.00136905 0)
(1.02419 0.00151663 0)
(1.02474 0.00170539 0)
(1.02527 0.00194644 0)
(1.02577 0.00225386 0)
(1.02625 0.00264553 0)
(1.02669 0.00314413 0)
(1.02708 0.00377839 0)
(1.02742 0.00458474 0)
(1.02769 0.00560928 0)
(1.02788 0.0069103 0)
(1.02797 0.00856136 0)
(1.02793 0.0106551 0)
(1.02773 0.0133075 0)
(1.02735 0.0166638 0)
(1.02673 0.0209036 0)
(1.02584 0.0262473 0)
(1.02462 0.0329614 0)
(1.02301 0.0413597 0)
(1.02096 0.0518036 0)
(1.01843 0.0646731 0)
(1.01546 0.080374 0)
(1.01202 0.0991523 0)
(1.00868 0.121347 0)
(1.00514 0.146189 0)
(1.00002 0.00011514 0)
(1.00022 0.000332581 0)
(1.00062 0.000512656 0)
(1.00119 0.000642921 0)
(1.00186 0.000732155 0)
(1.00258 0.000795355 0)
(1.00335 0.000839493 0)
(1.00414 0.000865911 0)
(1.00496 0.000877526 0)
(1.00578 0.000879119 0)
(1.00659 0.000874294 0)
(1.0074 0.000864958 0)
(1.00819 0.000852545 0)
(1.00898 0.000838495 0)
(1.00974 0.000823979 0)
(1.0105 0.00080977 0)
(1.01123 0.000796386 0)
(1.01196 0.000784209 0)
(1.01267 0.000773524 0)
(1.01337 0.000764529 0)
(1.01407 0.000757373 0)
(1.01475 0.000752196 0)
(1.01542 0.000749158 0)
(1.01609 0.000748467 0)
(1.01675 0.000750408 0)
(1.0174 0.00075537 0)
(1.01805 0.000763884 0)
(1.01869 0.000776662 0)
(1.01932 0.000794646 0)
(1.01995 0.000819073 0)
(1.02058 0.000851544 0)
(1.0212 0.000894127 0)
(1.02181 0.000949473 0)
(1.02241 0.00102097 0)
(1.02301 0.00111295 0)
(1.02359 0.0012309 0)
(1.02417 0.00138182 0)
(1.02473 0.00157459 0)
(1.02527 0.00182047 0)
(1.02579 0.00213377 0)
(1.02629 0.00253262 0)
(1.02676 0.00304001 0)
(1.02719 0.00368507 0)
(1.02758 0.00450471 0)
(1.02791 0.00554562 0)
(1.02817 0.00686681 0)
(1.02836 0.00854268 0)
(1.02844 0.0106669 0)
(1.02839 0.0133566 0)
(1.0282 0.0167583 0)
(1.02782 0.021053 0)
(1.02723 0.0264623 0)
(1.02637 0.0332539 0)
(1.0252 0.0417417 0)
(1.02369 0.0522848 0)
(1.02179 0.0652594 0)
(1.01953 0.0810543 0)
(1.01684 0.0999068 0)
(1.01424 0.122077 0)
(1.01134 0.146851 0)
(1.00002 8.86853e-05 0)
(1.00022 0.000256456 0)
(1.00061 0.00039617 0)
(1.00116 0.000497981 0)
(1.00182 0.000567933 0)
(1.00254 0.000617352 0)
(1.00331 0.0006519 0)
(1.0041 0.000672759 0)
(1.00491 0.000682087 0)
(1.00573 0.000683538 0)
(1.00654 0.000679968 0)
(1.00735 0.000672896 0)
(1.00814 0.000663434 0)