/*--------------------------------*- C++ -*----------------------------------*\
| =========                 |                                                 |
| \\      /  F ield         | OpenFOAM: The Open Source CFD Toolbox           |
|  \\    /   O peration     | Version:  2.4.0                                 |
|   \\  /    A nd           | Web:      www.OpenFOAM.org                      |
|    \\/     M anipulation  |                                                 |
\*---------------------------------------------------------------------------*/
FoamFile
{
    version     2.0;
    format      ascii;
    class       volScalarField;
    location    "6.09";
    object      p;
}
// * * * * * * * * * * * * * * * * * * * * * * * * * * * * * * * * * * * * * //

dimensions      [0 2 -2 0 0 0 0];

internalField   nonuniform List<scalar> 
6000
(
0.0496635
0.278831
0.275781
0.29911
0.304549
0.312229
0.315265
0.31888
0.320815
0.322894
0.324282
0.325682
0.326787
0.32788
0.328858
0.329839
0.330796
0.331785
0.332806
0.333894
0.335063
0.336338
0.33774
0.339294
0.341025
0.342955
0.345109
0.347512
0.350185
0.353148
0.356419
0.360009
0.363922
0.368157
0.372701
0.377528
0.382596
0.387852
0.393219
0.39861
0.4039
0.408979
0.413675
0.417891
0.421232
0.423702
0.42482
0.424863
0.422658
0.41942
0.412118
0.40491
0.389168
0.378334
0.346434
0.336415
0.26764
0.277353
0.110347
0.202683
0.0646827
0.277046
0.275824
0.298962
0.304466
0.312142
0.315208
0.318827
0.320776
0.322859
0.324256
0.325659
0.32677
0.327866
0.328847
0.32983
0.330789
0.331779
0.332802
0.333892
0.335061
0.336337
0.33774
0.339295
0.341026
0.342957
0.345112
0.347515
0.350189
0.353154
0.356426
0.360018
0.363934
0.368171
0.372715
0.377542
0.382609
0.387864
0.393227
0.398613
0.403893
0.40896
0.413639
0.417842
0.421179
0.423637
0.42474
0.424757
0.422528
0.419243
0.411907
0.404616
0.388842
0.377856
0.345965
0.335623
0.267076
0.275948
0.109707
0.200028
0.0785271
0.274969
0.275921
0.298844
0.304394
0.312075
0.315159
0.318785
0.320743
0.32283
0.324233
0.325639
0.326753
0.327852
0.328836
0.329821
0.330782
0.331774
0.332798
0.333888
0.335059
0.336335
0.337739
0.339294
0.341025
0.342956
0.345112
0.347515
0.35019
0.353155
0.356428
0.36002
0.363936
0.368174
0.372718
0.377544
0.382609
0.38786
0.393217
0.398593
0.403859
0.408907
0.413564
0.417745
0.421075
0.423525
0.424615
0.424613
0.42236
0.419039
0.411668
0.404316
0.3885
0.377399
0.345488
0.334899
0.266425
0.27469
0.108853
0.197682
0.0899954
0.272792
0.27606
0.298753
0.30434
0.31202
0.315117
0.318748
0.320714
0.322805
0.324212
0.325622
0.326739
0.32784
0.328825
0.329812
0.330774
0.331767
0.332793
0.333884
0.335054
0.336331
0.337735
0.33929
0.341021
0.342952
0.345107
0.347511
0.350184
0.353149
0.356422
0.360013
0.363928
0.368164
0.372706
0.377528
0.382588
0.387832
0.393178
0.39854
0.403787
0.408813
0.413443
0.41759
0.420905
0.423346
0.424426
0.424412
0.42214
0.418795
0.411392
0.403995
0.388136
0.376948
0.344997
0.334219
0.265763
0.273556
0.107966
0.195748
0.099982
0.27062
0.276222
0.298686
0.304303
0.311974
0.315082
0.318716
0.320687
0.322782
0.324193
0.325605
0.326724
0.327828
0.328815
0.329803
0.330767
0.33176
0.332786
0.333878
0.335049
0.336325
0.337729
0.339284
0.341014
0.342944
0.345098
0.3475
0.350173
0.353136
0.356406
0.359995
0.363907
0.368138
0.372675
0.37749
0.382541
0.387773
0.393104
0.398447
0.403674
0.408676
0.413276
0.417383
0.420667
0.423092
0.424155
0.424127
0.421836
0.418471
0.41104
0.403607
0.387707
0.376451
0.344451
0.333523
0.265055
0.272459
0.107054
0.194068
0.109051
0.26852
0.276392
0.298642
0.304281
0.311936
0.315053
0.318687
0.320664
0.322761
0.324175
0.325589
0.326711
0.327816
0.328804
0.329794
0.330758
0.331752
0.332779
0.33387
0.335041
0.336317
0.33772
0.339274
0.341003
0.342932
0.345084
0.347484
0.350154
0.353114
0.356381
0.359965
0.363871
0.368096
0.372624
0.377429
0.382467
0.387684
0.392998
0.398322
0.403526
0.408506
0.413078
0.417142
0.420381
0.422775
0.42381
0.423758
0.421439
0.41805
0.410586
0.403122
0.387177
0.375867
0.34381
0.332764
0.264262
0.271346
0.106089
0.192535
0.117374
0.266533
0.276564
0.298617
0.304273
0.311905
0.315029
0.318662
0.320643
0.322742
0.324159
0.325575
0.326698
0.327804
0.328794
0.329784
0.330749
0.331744
0.33277
0.333861
0.335032
0.336308
0.337709
0.339262
0.34099
0.342917
0.345067
0.347464
0.350131
0.353086
0.356348
0.359925
0.363824
0.368039
0.372556
0.377349
0.382373
0.387574
0.392871
0.398176
0.403362
0.408322
0.412869
0.416889
0.420074
0.422426
0.423419
0.423329
0.42097
0.417546
0.410037
0.402537
0.386538
0.375179
0.343054
0.331915
0.263351
0.270182
0.105021
0.191095
0.125037
0.264682
0.276738
0.298595
0.304289
0.311883
0.315012
0.318641
0.320626
0.322725
0.324144
0.325561
0.326686
0.327793
0.328784
0.329775
0.330739
0.331734
0.332761
0.333852
0.335022
0.336297
0.337698
0.339249
0.340975
0.3429
0.345047
0.34744
0.350102
0.353052
0.356307
0.359877
0.363767
0.367972
0.372478
0.377258
0.382269
0.387455
0.392735
0.398024
0.403193
0.408136
0.41266
0.416638
0.419766
0.422069
0.423012
0.422872
0.42046
0.416987
0.409422
0.401874
0.385807
0.374397
0.342187
0.33097
0.262314
0.26895
0.103835
0.189705
0.132141
0.262978
0.276911
0.298581
0.304317
0.311869
0.315002
0.318625
0.320611
0.32271
0.324131
0.325548
0.326674
0.327782
0.328773
0.329765
0.33073
0.331725
0.332751
0.333842
0.335011
0.336286
0.337685
0.339235
0.340958
0.34288
0.345024
0.347413
0.35007
0.353014
0.356262
0.359824
0.363704
0.3679
0.372395
0.377163
0.382161
0.387334
0.3926
0.397876
0.40303
0.407957
0.412458
0.416396
0.419469
0.421719
0.422607
0.422411
0.419938
0.416406
0.408773
0.401165
0.385018
0.373546
0.341234
0.329941
0.261162
0.267644
0.102528
0.188336
0.138781
0.261429
0.27708
0.298571
0.304356
0.311863
0.314998
0.318612
0.3206
0.322697
0.324119
0.325537
0.326664
0.327772
0.328763
0.329755
0.33072
0.331715
0.332741
0.333831
0.335
0.336274
0.337671
0.339219
0.34094
0.342859
0.344999
0.347383
0.350034
0.352972
0.356213
0.359767
0.36364
0.367826
0.372311
0.377069
0.382056
0.387217
0.392472
0.397734
0.402876
0.407787
0.412265
0.416165
0.419187
0.421386
0.422216
0.42196
0.419422
0.415824
0.408115
0.400437
0.384199
0.372656
0.340225
0.328853
0.259925
0.266279
0.101118
0.18698
0.145038
0.260038
0.277241
0.29856
0.304406
0.311864
0.315
0.318604
0.320592
0.322687
0.324109
0.325527
0.326654
0.327763
0.328754
0.329746
0.330711
0.331706
0.332731
0.333821
0.334989
0.336261
0.337657
0.339203
0.340921
0.342836
0.344971
0.347351
0.349997
0.352929
0.356163
0.35971
0.363575
0.367753
0.372229
0.376978
0.381955
0.387107
0.392351
0.397603
0.402731
0.407628
0.412082
0.415947
0.418922
0.42107
0.421844
0.421528
0.418922
0.415255
0.407465
0.399711
0.383374
0.37175
0.33919
0.327731
0.258634
0.264874
0.0996335
0.185643
0.150972
0.258806
0.277391
0.298544
0.304464
0.311872
0.315008
0.318599
0.320587
0.322679
0.324102
0.325519
0.326646
0.327754
0.328746
0.329738
0.330702
0.331697
0.332722
0.333811
0.334978
0.336248
0.337642
0.339185
0.3409
0.342811
0.344943
0.347318
0.349958
0.352885
0.356113
0.359653
0.363511
0.367682
0.372151
0.376892
0.381861
0.387004
0.392239
0.39748
0.402597
0.407478
0.41191
0.415742
0.418674
0.420773
0.421493
0.421116
0.418443
0.414704
0.406833
0.398998
0.382559
0.370847
0.338152
0.326599
0.257319
0.263453
0.0981098
0.184336
0.15663
0.257735
0.277526
0.298521
0.30453
0.311886
0.315023
0.318599
0.320586
0.322674
0.324096
0.325512
0.32664
0.327748
0.328739
0.32973
0.330695
0.331689
0.332713
0.333801
0.334966
0.336235
0.337627
0.339167
0.340878
0.342786
0.344914
0.347284
0.34992
0.352841
0.356063
0.359598
0.363449
0.367614
0.372077
0.376811
0.381773
0.386908
0.392135
0.397366
0.402472
0.407338
0.411748
0.415548
0.418441
0.420494
0.421161
0.420725
0.417986
0.414176
0.406223
0.398305
0.381764
0.369958
0.337126
0.325472
0.256004
0.262035
0.0965798
0.183073
0.16205
0.256824
0.277647
0.29849
0.3046
0.311905
0.315044
0.318603
0.320588
0.322672
0.324093
0.325508
0.326635
0.327742
0.328733
0.329724
0.330688
0.331681
0.332705
0.333792
0.334955
0.336222
0.337611
0.339148
0.340857
0.342761
0.344884
0.34725
0.349881
0.352797
0.356015
0.359544
0.36339
0.36755
0.372007
0.376735
0.381692
0.38682
0.392039
0.397261
0.402356
0.407207
0.411595
0.415366
0.418222
0.420232
0.420849
0.420355
0.417552
0.41367
0.405638
0.397635
0.380993
0.36909
0.336124
0.324362
0.254709
0.260634
0.095071
0.181861
0.167261
0.256073
0.277753
0.298447
0.304674
0.311929
0.315071
0.318611
0.320594
0.322672
0.324093
0.325506
0.326632
0.327739
0.328729
0.32972
0.330683
0.331675
0.332698
0.333783
0.334945
0.336209
0.337596
0.33913
0.340835
0.342736
0.344855
0.347217
0.349844
0.352756
0.355968
0.359493
0.363335
0.36749
0.371942
0.376665
0.381616
0.386738
0.39195
0.397164
0.402248
0.407083
0.411451
0.415194
0.418016
0.419985
0.420553
0.420003
0.417138
0.413186
0.405077
0.396989
0.38025
0.368247
0.335151
0.323275
0.253444
0.259261
0.0936047
0.180706
0.172284
0.255477
0.277849
0.298393
0.304748
0.311955
0.315103
0.318623
0.320604
0.322675
0.324095
0.325506
0.326632
0.327738
0.328727
0.329717
0.330679
0.33167
0.332691
0.333775
0.334935
0.336197
0.337581
0.339112
0.340814
0.342712
0.344827
0.347186
0.349808
0.352716
0.355924
0.359445
0.363283
0.367433
0.371882
0.376601
0.381547
0.386663
0.391868
0.397074
0.402147
0.406967
0.411314
0.415031
0.417822
0.419751
0.420273
0.419669
0.416744
0.412723
0.404539
0.396366
0.379535
0.36743
0.334211
0.322217
0.25222
0.257921
0.0921965
0.179608
0.177137
0.255033
0.277937
0.298325
0.304822
0.311983
0.31514
0.318638
0.320617
0.322681
0.324099
0.325508
0.326634
0.327738
0.328728
0.329716
0.330677
0.331667
0.332687
0.333769
0.334927
0.336187
0.337568
0.339096
0.340795
0.342689
0.344801
0.347156
0.349775
0.352679
0.355884
0.359401
0.363235
0.367382
0.371826
0.376542
0.381483
0.386595
0.391793
0.396991
0.402053
0.406858
0.411184
0.414876
0.417638
0.419529
0.420007
0.41935
0.416368
0.412279
0.404024
0.395767
0.378847
0.36664
0.333307
0.321188
0.251042
0.256619
0.090857
0.178565
0.181834
0.254735
0.278024
0.298245
0.304892
0.312012
0.315182
0.318658
0.320634
0.32269
0.324106
0.325513
0.326638
0.327742
0.32873
0.329717
0.330677
0.331666
0.332684
0.333764
0.33492
0.336178
0.337556
0.339081
0.340777
0.342668
0.344777
0.347128
0.349744
0.352645
0.355846
0.35936
0.363191
0.367335
0.371776
0.376488
0.381425
0.386532
0.391725
0.396914
0.401966
0.406756
0.411061
0.414728
0.417462
0.419317
0.419753
0.419045
0.416008
0.411852
0.403529
0.395189
0.378186
0.365875
0.332437
0.32019
0.249912
0.255357
0.0895927
0.177574
0.186384
0.254577
0.278114
0.298153
0.304956
0.31204
0.315229
0.31868
0.320654
0.322701
0.324117
0.325521
0.326645
0.327747
0.328735
0.329721
0.33068
0.331667
0.332683
0.333762
0.334915
0.33617
0.337546
0.339069
0.340762
0.34265
0.344756
0.347104
0.349717
0.352614
0.355812
0.359323
0.363151
0.367293
0.371731
0.37644
0.381373
0.386475
0.391662
0.396843
0.401884
0.406659
0.410944
0.414588
0.417295
0.419114
0.419509
0.418751
0.415661
0.411441
0.403053
0.394631
0.377551
0.365136
0.331603
0.319223
0.248832
0.254135
0.0884074
0.17663
0.190796
0.254552
0.278214
0.298051
0.305014
0.312068
0.315279
0.318706
0.320679
0.322716
0.324129
0.325531
0.326654
0.327756
0.328742
0.329727
0.330685
0.33167
0.332685
0.333761
0.334913
0.336166
0.337539
0.339059
0.340749
0.342634
0.344737
0.347083
0.349693
0.352587
0.355783
0.359291
0.363117
0.367256
0.371691
0.376397
0.381327
0.386424
0.391605
0.396778
0.401808
0.406567
0.410833
0.414453
0.417134
0.418919
0.419274
0.418468
0.415327
0.411043
0.402594
0.394091
0.376939
0.364419
0.330804
0.318285
0.247804
0.252952
0.0873028
0.175729
0.195078
0.254653
0.278329
0.297942
0.305063
0.312092
0.315332
0.318735
0.320707
0.322734
0.324145
0.325543
0.326667
0.327767
0.328753
0.329736
0.330692
0.331676
0.332689
0.333764
0.334914
0.336164
0.337535
0.339052
0.34074
0.342622
0.344723
0.347065
0.349673
0.352565
0.355758
0.359264
0.363087
0.367224
0.371657
0.37636
0.381287
0.386379
0.391554
0.396719
0.401737
0.406481
0.410727
0.414323
0.416979
0.418731
0.419047
0.418193
0.415003
0.410657
0.40215
0.393567
0.37635
0.363724
0.330037
0.317376
0.246827
0.251807
0.086279
0.174864
0.199236
0.254871
0.278463
0.29783
0.305103
0.312113
0.315387
0.318767
0.320739
0.322754
0.324164
0.325559
0.326682
0.327781
0.328766
0.329748
0.330703
0.331686
0.332697
0.33377
0.334917
0.336166
0.337534
0.339049
0.340734
0.342614
0.344712
0.347053
0.349657
0.352547
0.355738
0.359242
0.363064
0.367198
0.371629
0.376329
0.381252
0.38634
0.391509
0.396665
0.401672
0.406399
0.410625
0.414199
0.416829
0.418547
0.418827
0.417926
0.414688
0.410281
0.401719
0.393057
0.375781
0.36305
0.329302
0.316494
0.245899
0.250699
0.0853351
0.174031
0.203276
0.255198
0.27862
0.297718
0.305134
0.31213
0.315444
0.318802
0.320775
0.322778
0.324186
0.325577
0.326699
0.327798
0.328782
0.329764
0.330717
0.331698
0.332708
0.333779
0.334925
0.336171
0.337538
0.33905
0.340733
0.342611
0.344706
0.347044
0.349647
0.352534
0.355724
0.359226
0.363046
0.367178
0.371607
0.376305
0.381224
0.386308
0.391469
0.396617
0.401611
0.406322
0.410528
0.414078
0.416684
0.418369
0.418612
0.417665
0.414381
0.409914
0.4013
0.392561
0.375231
0.362394
0.328597
0.315637
0.245021
0.249626
0.0844695
0.173225
0.207202
0.255627
0.278804
0.297609
0.305157
0.312142
0.315501
0.318839
0.320815
0.322805
0.324211
0.325598
0.32672
0.327818
0.328802
0.329783
0.330735
0.331715
0.332723
0.333793
0.334936
0.336181
0.337545
0.339056
0.340736
0.342612
0.344706
0.347042
0.349642
0.352528
0.355715
0.359216
0.363034
0.367165
0.371592
0.376287
0.381203
0.386281
0.391436
0.396574
0.401555
0.40625
0.410435
0.413962
0.416542
0.418195
0.418401
0.417409
0.414081
0.409555
0.400892
0.392076
0.374699
0.361756
0.327921
0.314806
0.24419
0.248586
0.0836803
0.172441
0.211019
0.256149
0.279017
0.297509
0.305173
0.312149
0.315559
0.318879
0.320859
0.322836
0.32424
0.325622
0.326744
0.327841
0.328826
0.329805
0.330757
0.331735
0.332742
0.33381
0.334952
0.336195
0.337558
0.339066
0.340745
0.342619
0.34471
0.347045
0.349643
0.352528
0.355714
0.359213
0.36303
0.367159
0.371584
0.376276
0.381188
0.386261
0.391408
0.396536
0.401505
0.406182
0.410346
0.413849
0.416404
0.418024
0.418195
0.417157
0.413786
0.409202
0.400494
0.391601
0.374182
0.361134
0.327273
0.313997
0.243406
0.247577
0.0829652
0.171674
0.214734
0.256756
0.279259
0.29742
0.305182
0.31215
0.315616
0.318921
0.320907
0.322872
0.324274
0.32565
0.326772
0.327868
0.328853
0.329832
0.330783
0.33176
0.332766
0.333833
0.334973
0.336214
0.337575
0.339082
0.340759
0.342631
0.344721
0.347054
0.349651
0.352534
0.355719
0.359217
0.363032
0.36716
0.371583
0.376272
0.38118
0.386247
0.391387
0.396504
0.401459
0.406118
0.410261
0.41374
0.41627
0.417856
0.417992
0.416909
0.413496
0.408855
0.400104
0.391136
0.373681
0.360526
0.326651
0.31321
0.242667
0.246598
0.0823218
0.170922
0.218349
0.257443
0.279533
0.297345
0.305188
0.312147
0.315673
0.318966
0.32096
0.322911
0.324311
0.325682
0.326804
0.327898
0.328884
0.329863
0.330814
0.33179
0.332795
0.33386
0.335
0.336239
0.337599
0.339104
0.34078
0.34265
0.344739
0.34707
0.349666
0.352548
0.355731
0.359228
0.363043
0.367169
0.371589
0.376275
0.381179
0.38624
0.391372
0.396478
0.401418
0.406058
0.41018
0.413634
0.416137
0.41769
0.417791
0.416664
0.41321
0.408512
0.399721
0.39068
0.373194
0.359933
0.326054
0.312444
0.241972
0.245648
0.0817476
0.170181
0.22187
0.258201
0.279837
0.297287
0.305193
0.312141
0.315728
0.319012
0.321017
0.322955
0.324354
0.325718
0.326839
0.327933
0.328919
0.329898
0.330849
0.331825
0.332829
0.333893
0.335032
0.33627
0.337629
0.339133
0.340807
0.342676
0.344763
0.347093
0.349689
0.352569
0.355752
0.359248
0.363061
0.367186
0.371604
0.376287
0.381186
0.38624
0.391363
0.396458
0.401382
0.406003
0.410102
0.41353
0.416007
0.417527
0.417592
0.416421
0.412928
0.408174
0.399345
0.390231
0.37272
0.359352
0.325482
0.311698
0.241319
0.244723
0.0812403
0.169447
0.225301
0.259024
0.280173
0.297248
0.305198
0.312131
0.315781
0.31906
0.321079
0.323005
0.324402
0.325759
0.32688
0.327972
0.32896
0.329939
0.33089
0.331866
0.332869
0.333933
0.33507
0.336308
0.337665
0.339168
0.340842
0.342709
0.344796
0.347125
0.349719
0.352599
0.355781
0.359277
0.363088
0.367211
0.371627
0.376306
0.3812
0.386248
0.391361
0.396443
0.401352
0.405952
0.410027
0.413429
0.415879
0.417364
0.417395
0.416179
0.412648
0.407839
0.398975
0.389789
0.372259
0.358784
0.324932
0.310971
0.240708
0.243824
0.0807974
0.168718
0.228648
0.259906
0.280537
0.29723
0.305206
0.312121
0.315834
0.319111
0.321145
0.32306
0.324456
0.325806
0.326926
0.328017
0.329005
0.329985
0.330937
0.331912
0.332915
0.333979
0.335116
0.336353
0.337709
0.339211
0.340884
0.342751
0.344836
0.347165
0.349759
0.352638
0.35582
0.359314
0.363125
0.367246
0.37166
0.376335
0.381223
0.386263
0.391366
0.396434
0.401326
0.405905
0.409956
0.413331
0.415752
0.417203
0.417199
0.415939
0.41237
0.407506
0.39861
0.389353
0.371809
0.358227
0.324406
0.310262
0.240137
0.242948
0.0804166
0.167991
0.231914
0.260841
0.280931
0.297234
0.305219
0.312111
0.315886
0.319164
0.321217
0.323122
0.324517
0.325859
0.326978
0.328066
0.329056
0.330036
0.330989
0.331965
0.332968
0.334031
0.335168
0.336405
0.337761
0.339263
0.340934
0.342801
0.344886
0.347214
0.349808
0.352687
0.355868
0.359362
0.363172
0.367291
0.371701
0.376372
0.381255
0.386287
0.391379
0.396432
0.401306
0.405862
0.409888
0.413235
0.415627
0.417043
0.417003
0.415699
0.412093
0.407176
0.39825
0.388922
0.37137
0.357681
0.323901
0.30957
0.239606
0.242095
0.0800957
0.167265
0.235104
0.261824
0.281351
0.297261
0.305238
0.312103
0.315939
0.31922
0.321293
0.32319
0.324586
0.325919
0.327036
0.328123
0.329113
0.330094
0.331049
0.332025
0.333029
0.334092
0.335229
0.336465
0.337821
0.339322
0.340994
0.34286
0.344945
0.347273
0.349866
0.352746
0.355926
0.35942
0.363228
0.367346
0.371753
0.37642
0.381296
0.386318
0.391398
0.396436
0.401291
0.405823
0.409823
0.41314
0.415504
0.416883
0.416808
0.415459
0.411818
0.406847
0.397894
0.388497
0.370941
0.357145
0.323416
0.308895
0.239112
0.241263
0.0798327
0.166538
0.238223
0.262851
0.281797
0.29731
0.305266
0.312099
0.315992
0.319279
0.321375
0.323266
0.324662
0.325988
0.327103
0.328186
0.329178
0.330159
0.331115
0.332092
0.333097
0.33416
0.335297
0.336534
0.33789
0.339392
0.341063
0.342929
0.345014
0.347342
0.349936
0.352815
0.355996
0.359489
0.363296
0.367411
0.371815
0.376477
0.381345
0.386358
0.391426
0.396447
0.401281
0.405789
0.409761
0.413048
0.415381
0.416723
0.416613
0.41522
0.411543
0.40652
0.397541
0.388077
0.370522
0.35662
0.322953
0.308236
0.238656
0.240452
0.0796254
0.165808
0.241275
0.263915
0.282266
0.297382
0.305302
0.3121
0.316048
0.319342
0.321463
0.32335
0.324748
0.326065
0.327178
0.328258
0.32925
0.330232
0.331189
0.332168
0.333173
0.334238
0.335375
0.336612
0.337969
0.339471
0.341142
0.343008
0.345094
0.347422
0.350017
0.352896
0.356077
0.359569
0.363375
0.367488
0.371889
0.376544
0.381405
0.386407
0.391461
0.396464
0.401277
0.405758
0.409702
0.412958
0.415259
0.416563
0.416417
0.41498
0.411269
0.406193
0.397192
0.387661
0.370113
0.356104
0.322509
0.307593
0.238237
0.239661
0.079472
0.165075
0.244265
0.265014
0.282758
0.297476
0.30535
0.312107
0.316107
0.31941
0.321558
0.323442
0.324843
0.326153
0.327263
0.328339
0.32933
0.330313
0.331272
0.332252
0.333259
0.334324
0.335463
0.336701
0.338058
0.33956
0.341232
0.343099
0.345185
0.347515
0.350109
0.352989
0.35617
0.359662
0.363467
0.367577
0.371973
0.376623
0.381475
0.386465
0.391504
0.396488
0.401278
0.405732
0.409646
0.412869
0.415137
0.416403
0.416221
0.414739
0.410995
0.405868
0.396847
0.387249
0.369713
0.355598
0.322085
0.306966
0.237853
0.238889
0.0793707
0.164337
0.247196
0.266143
0.28327
0.297592
0.305408
0.312122
0.316171
0.319484
0.32166
0.323544
0.324949
0.326251
0.327359
0.32843
0.329421
0.330403
0.331364
0.332346
0.333355
0.334421
0.335561
0.3368
0.338158
0.339662
0.341334
0.343202
0.345289
0.347619
0.350215
0.353095
0.356276
0.359768
0.363571
0.367678
0.37207
0.376713
0.381555
0.386533
0.391555
0.396519
0.401285
0.40571
0.409593
0.412782
0.415016
0.416243
0.416024
0.414497
0.41072
0.405543
0.396504
0.386841
0.369322
0.355101
0.321681
0.306355
0.237504
0.238136
0.0793197
0.163594
0.250074
0.267298
0.283801
0.297728
0.305477
0.312145
0.31624
0.319564
0.32177
0.323656
0.325066
0.326362
0.327466
0.328533
0.329523
0.330504
0.331467
0.33245
0.333461
0.334529
0.33567
0.336911
0.33827
0.339775
0.341449
0.343317
0.345405
0.347737
0.350334
0.353215
0.356396
0.359887
0.363689
0.367793
0.372179
0.376814
0.381647
0.386611
0.391615
0.396558
0.401297
0.405693
0.409542
0.412696
0.414894
0.416081
0.415825
0.414254
0.410445
0.405218
0.396163
0.386437
0.368939
0.354613
0.321295
0.305759
0.23719
0.237401
0.0793173
0.162845
0.252902
0.268476
0.284348
0.297885
0.305558
0.312178
0.316315
0.319651
0.321888
0.323779
0.325196
0.326486
0.327587
0.328648
0.329637
0.330617
0.331581
0.332566
0.333578
0.334648
0.335792
0.337034
0.338395
0.339901
0.341576
0.343446
0.345536
0.347869
0.350467
0.353349
0.35653
0.360021
0.36382
0.367921
0.372302
0.376928
0.381749
0.386698
0.391684
0.396603
0.401315
0.405679
0.409494
0.412611
0.414773
0.415919
0.415625
0.414009
0.410168
0.404893
0.395825
0.386037
0.368565
0.354135
0.320928
0.305178
0.236909
0.236684
0.079362
0.16209
0.255684
0.269674
0.28491
0.29806
0.30565
0.31222
0.316397
0.319747
0.322016
0.323913
0.325339
0.326624
0.327723
0.328778
0.329764
0.330743
0.331708
0.332694
0.333709
0.334781
0.335926
0.33717
0.338533
0.340041
0.341718
0.34359
0.345681
0.348016
0.350615
0.353498
0.35668
0.360169
0.363967
0.368063
0.372438
0.377055
0.381864
0.386797
0.391762
0.396656
0.401339
0.405669
0.409448
0.412526
0.414651
0.415755
0.415423
0.413762
0.409891
0.404567
0.395489
0.38564
0.3682
0.353666
0.320579
0.304613
0.236662
0.235985
0.0794522
0.161329
0.258425
0.270888
0.285486
0.298253
0.305754
0.312272
0.316486
0.319851
0.322153
0.32406
0.325495
0.326777
0.327874
0.328923
0.329906
0.330883
0.331848
0.332835
0.333853
0.334927
0.336075
0.337321
0.338687
0.340196
0.341875
0.343749
0.345842
0.348179
0.350779
0.353664
0.356846
0.360334
0.364129
0.368221
0.372588
0.377196
0.381991
0.386906
0.391849
0.396717
0.401368
0.405663
0.409405
0.412443
0.414529
0.415589
0.415219
0.413513
0.409612
0.404242
0.395154
0.385247
0.367843
0.353207
0.320249
0.304063
0.236447
0.235304
0.0795864
0.160563
0.261128
0.272115
0.286073
0.298463
0.305869
0.312335
0.316583
0.319964
0.3223
0.324219
0.325667
0.326947
0.328042
0.329085
0.330065
0.331039
0.332004
0.332992
0.334011
0.335088
0.336238
0.337487
0.338855
0.340367
0.342048
0.343924
0.34602
0.348358
0.350961
0.353846
0.357028
0.360515
0.364307
0.368394
0.372754
0.37735
0.38213
0.387026
0.391946
0.396785
0.401404
0.405662
0.409364
0.41236
0.414405
0.415421
0.415012
0.413262
0.409332
0.403915
0.394822
0.384858
0.367493
0.352756
0.319936
0.303529
0.236265
0.23464
0.0797632
0.159791
0.263796
0.273354
0.286671
0.298688
0.305994
0.312408
0.316689
0.320087
0.322459
0.324392
0.325854
0.327134
0.328228
0.329266
0.330242
0.331212
0.332177
0.333165
0.334186
0.335265
0.336418
0.33767
0.339041
0.340556
0.342239
0.344117
0.346215
0.348556
0.35116
0.354046
0.357228
0.360714
0.364503
0.368584
0.372934
0.377518
0.382282
0.387157
0.392052
0.396861
0.401445
0.405663
0.409324
0.412277
0.41428
0.415251
0.414803
0.413007
0.409049
0.403588
0.394491
0.384472
0.367152
0.352316
0.319642
0.303011
0.236114
0.233994
0.0799811
0.159013
0.266435
0.274601
0.287277
0.298928
0.306129
0.31249
0.316802
0.320219
0.322627
0.324579
0.326057
0.327339
0.328434
0.329466
0.330439
0.331405
0.332368
0.333356
0.334379
0.33546
0.336616
0.33787
0.339244
0.340762
0.342448
0.344329
0.34643
0.348773
0.351379
0.354266
0.357448
0.360932
0.364716
0.368791
0.373131
0.377702
0.382448
0.387301
0.392168
0.396944
0.401492
0.405669
0.409287
0.412194
0.414154
0.415079
0.414591
0.41275
0.408764
0.40326
0.394161
0.384089
0.366819
0.351885
0.319365
0.302509
0.235994
0.233367
0.0802388
0.158232
0.269047
0.275853
0.287891
0.299181
0.306275
0.312583
0.316925
0.320361
0.322807
0.324779
0.326276
0.327563
0.32866
0.329688
0.330656
0.331618
0.332579
0.333566
0.33459
0.335673
0.336832
0.33809
0.339467
0.340988
0.342677
0.344561
0.346664
0.34901
0.351617
0.354505
0.357687
0.361168
0.364948
0.369015
0.373345
0.377901
0.382628
0.387456
0.392295
0.397036
0.401544
0.405678
0.409251
0.412111
0.414025
0.414903
0.414374
0.412489
0.408477
0.40293
0.393833
0.38371
0.366494
0.351464
0.319107
0.302023
0.235905
0.232757
0.0805347
0.157447
0.271635
0.277108
0.28851
0.299447
0.306429
0.312685
0.317055
0.320513
0.322997
0.324993
0.326511
0.327806
0.328906
0.329931
0.330896
0.331853
0.332812
0.333798
0.334822
0.335907
0.337069
0.338329
0.33971
0.341235
0.342927
0.344814
0.34692
0.349268
0.351877
0.354766
0.357947
0.361425
0.3652
0.369259
0.373577
0.378116
0.382822
0.387624
0.392431
0.397136
0.401603
0.405691
0.409216
0.412027
0.413895
0.414724
0.414154
0.412225
0.408187
0.4026
0.393506
0.383335
0.366177
0.351053
0.318865
0.301555
0.235846
0.232166
0.0808675
0.156659
0.274204
0.278364
0.289134
0.299724
0.306591
0.312796
0.317194
0.320674
0.323198
0.32522
0.326762
0.328068
0.329174
0.330198
0.33116
0.332113
0.333068
0.334052
0.335077
0.336163
0.337327
0.338591
0.339976
0.341504
0.343199
0.34509
0.347199
0.349549
0.35216
0.355049
0.358229
0.361704
0.365473
0.369522
0.373827
0.378348
0.383031
0.387805
0.392578
0.397244
0.401667
0.405707
0.409182
0.411942
0.413761
0.414541
0.41393
0.411956
0.407893
0.402267
0.393179
0.382963
0.365867
0.350653
0.318641
0.301103
0.235817
0.231594
0.0812357
0.15587
0.276757
0.279619
0.289761
0.300011
0.306762
0.312917
0.317341
0.320844
0.32341
0.32546
0.32703
0.328349
0.329464
0.330488
0.331448
0.332397
0.333349
0.334331
0.335355
0.336443
0.337609
0.338876
0.340265
0.341796
0.343496
0.34539
0.347502
0.349854
0.352467
0.355356
0.358534
0.362005
0.365767
0.369805
0.374095
0.378597
0.383255
0.387999
0.392736
0.397359
0.401736
0.405725
0.409148
0.411855
0.413625
0.414354
0.413701
0.411683
0.407597
0.401933
0.392853
0.382595
0.365565
0.350263
0.318435
0.300669
0.235816
0.231042
0.0816376
0.155081
0.279297
0.28087
0.290389
0.300307
0.30694
0.313046
0.317495
0.321023
0.323631
0.325713
0.327312
0.328649
0.329775
0.330802
0.331762
0.332708
0.333657
0.334636
0.33566
0.336748
0.337916
0.339187
0.340579
0.342114
0.343818
0.345715
0.34783
0.350185
0.352798
0.355688
0.358863
0.36233
0.366083
0.37011
0.374383
0.378864
0.383495
0.388206
0.392904
0.397483
0.401811
0.405747
0.409116
0.411767
0.413485
0.414162
0.413467
0.411406
0.407296
0.401597
0.392528
0.38223
0.365271
0.349884
0.318245
0.300254
0.235844
0.230509
0.0820718
0.154293
0.281828
0.282114
0.291017
0.300611
0.307126
0.313183
0.317658
0.321211
0.323861
0.325978
0.327609
0.328966
0.330108
0.331141
0.332102
0.333046
0.333992
0.334969
0.335992
0.33708
0.33825
0.339523
0.340919
0.342459
0.344166
0.346067
0.348185
0.350542
0.353157
0.356045
0.359218
0.362679
0.366423
0.370437
0.374692
0.379149
0.383751
0.388427
0.393083
0.397615
0.401891
0.405771
0.409083
0.411677
0.413341
0.413966
0.413228
0.411123
0.406991
0.401259
0.392203
0.381869
0.364984
0.349516
0.318072
0.299856
0.235899
0.229998
0.0825364
0.153508
0.284352
0.28335
0.291645
0.300923
0.307317
0.313328
0.317828
0.321407
0.324101
0.326254
0.32792
0.329301
0.33046
0.331502
0.332468
0.333412
0.334357
0.335332
0.336353
0.337441
0.338613
0.339888
0.341288
0.342831
0.344543
0.346447
0.348568
0.350927
0.353543
0.35643
0.359599
0.363053
0.366788
0.370786
0.375022
0.379453
0.384024
0.388661
0.393274
0.397756
0.401976
0.405797
0.40905
0.411584
0.413193
0.413764
0.412983
0.410835
0.406682
0.400919
0.391878
0.381511
0.364703
0.349158
0.317914
0.299477
0.235981
0.229508
0.0830296
0.152728
0.286874
0.284575
0.29227
0.301241
0.307514
0.313481
0.318005
0.321612
0.32435
0.326541
0.328244
0.329652
0.330832
0.331887
0.33286
0.333806
0.334751
0.335724
0.336744
0.337832
0.339006
0.340283
0.341686
0.343234
0.344949
0.346857
0.348981
0.351342
0.353958
0.356844
0.360008
0.363455
0.367177
0.371159
0.375373
0.379777
0.384313
0.38891
0.393475
0.397904
0.402066
0.405826
0.409016
0.411489
0.413041
0.413557
0.412732
0.410541
0.406369
0.400576
0.391553
0.381156
0.36443
0.348813
0.317773
0.299118
0.236088
0.22904
0.0835495
0.151955
0.289396
0.285787
0.292891
0.301564
0.307717
0.313641
0.31819
0.321825
0.324608
0.326838
0.32858
0.330018
0.331223
0.332293
0.333277
0.334227
0.335174
0.336147
0.337168
0.338256
0.33943
0.34071
0.342115
0.343667
0.345387
0.347299
0.349425
0.351788
0.354404
0.357287
0.360446
0.363884
0.367593
0.371557
0.375747
0.38012
0.38462
0.389173
0.393688
0.39806
0.402161
0.405857
0.408982
0.411391
0.412884
0.413344
0.412474
0.410242
0.40605
0.40023
0.391228
0.380805
0.364163
0.348478
0.317647
0.298778
0.236219
0.228595
0.0840938
0.15119
0.291923
0.286983
0.293508
0.301892
0.307925
0.313808
0.318382
0.322045
0.324873
0.327145
0.328928
0.330399
0.33163
0.33272
0.333717
0.334675
0.335626
0.336602
0.337623
0.338711
0.339887
0.341169
0.342578
0.344133
0.345857
0.347772
0.349902
0.352265
0.35488
0.357761
0.360914
0.364341
0.368036
0.37198
0.376143
0.380484
0.384944
0.38945
0.393912
0.398224
0.402261
0.405889
0.408947
0.41129
0.412722
0.413125
0.412211
0.409937
0.405727
0.399882
0.390902
0.380458
0.363902
0.348155
0.317535
0.298457
0.236373
0.228174
0.0846603
0.150437
0.294456
0.288162
0.294118
0.302223
0.308136
0.313982
0.31858
0.322273
0.325147
0.327461
0.329286
0.330792
0.332054
0.333166
0.334179
0.335149
0.336107
0.337086
0.33811
0.3392
0.340378
0.341662
0.343074
0.344633
0.34636
0.348279
0.350411
0.352776
0.35539
0.358266
0.361412
0.364828
0.368506
0.372428
0.376563
0.380868
0.385285
0.389742
0.394147
0.398397
0.402366
0.405924
0.408911
0.411185
0.412555
0.4129
0.411941
0.409626
0.4054
0.399532
0.390576
0.380114
0.363648
0.347844
0.317436
0.298157
0.236548
0.227779
0.0852463
0.149698
0.297
0.28932
0.29472
0.302557
0.308352
0.314163
0.318785
0.322509
0.325428
0.327785
0.329654
0.331198
0.332492
0.333629
0.334663
0.335646
0.336614
0.3376
0.338628
0.339722
0.340902
0.34219
0.343604
0.345167
0.346898
0.34882
0.350954
0.35332
0.355932
0.358804