/*--------------------------------*- C++ -*----------------------------------*\
| =========                 |                                                 |
| \\      /  F ield         | OpenFOAM: The Open Source CFD Toolbox           |
|  \\    /   O peration     | Version:  2.4.0                                 |
|   \\  /    A nd           | Web:      www.OpenFOAM.org                      |
|    \\/     M anipulation  |                                                 |
\*---------------------------------------------------------------------------*/
FoamFile
{
    version     2.0;
    format      ascii;
    class       volScalarField;
    location    "1.79";
    object      epsilon;
}
// * * * * * * * * * * * * * * * * * * * * * * * * * * * * * * * * * * * * * //

dimensions      [0 2 -3 0 0 0 0];

internalField   nonuniform List<scalar> 
6000
(
0.994992
0.381459
0.0488283
0.0053192
0.00248355
0.00309967
0.00505068
0.013121
0.0327521
0.0513381
0.0569887
0.0496367
0.0401948
0.0363532
0.0320652
0.068904
0.109703
0.127916
0.119798
0.095755
0.067911
0.0460188
0.0302475
0.0196971
0.0115497
0.00590338
0.00272681
0.00162463
0.00244326
0.003663
0.00490717
0.00609315
0.00722189
0.00833875
0.00950228
0.0107674
0.0121803
0.0137793
0.0155983
0.0176708
0.0200331
0.0227277
0.0258062
0.029334
0.0333954
0.0381022
0.0436048
0.0501092
0.0578996
0.0673728
0.079085
0.0938359
0.112759
0.137607
0.170756
0.216887
0.280094
0.379949
0.50302
0.779606
0.55824
0.354196
0.0225574
0.00545178
0.00111788
0.00162531
0.00310332
0.00714098
0.014221
0.0189063
0.0172095
0.0161159
0.0186241
0.0483202
0.0964915
0.066351
0.0397075
0.0268482
0.017709
0.0113329
0.00843165
0.00660712
0.00514885
0.00388159
0.00268639
0.00168676
0.00103933
0.000801451
0.000844822
0.000965246
0.00112528
0.00130859
0.00150837
0.00172521
0.00196427
0.00223266
0.00253787
0.00288693
0.0032863
0.00374198
0.00425997
0.00484674
0.00550984
0.00625864
0.00710522
0.00806564
0.00916174
0.0104236
0.0118934
0.0136298
0.0157164
0.0182715
0.0214675
0.0255516
0.0309098
0.0380768
0.0480755
0.0620021
0.0841706
0.11795
0.416754
0.410237
0.0300446
0.00370492
0.00104323
0.00151439
0.00306579
0.00662524
0.0130397
0.0183072
0.0161677
0.0155831
0.0275991
0.0751662
0.064491
0.0272821
0.0138109
0.00842057
0.00568911
0.00460799
0.00442173
0.00424664
0.00392799
0.00337839
0.00260716
0.00177335
0.00109922
0.00071579
0.000571367
0.000523743
0.000521939
0.000546109
0.000585785
0.000636377
0.000696849
0.000768112
0.000852034
0.000950866
0.00106694
0.00120248
0.00135957
0.00154009
0.0017458
0.00197843
0.00223989
0.00253257
0.00285972
0.00322608
0.00363865
0.00410781
0.00464886
0.0052837
0.00604508
0.00697675
0.00815499
0.00965119
0.0117091
0.0142614
0.0186267
0.0225874
0.367414
0.405126
0.0510009
0.00243777
0.00109629
0.0015721
0.00321586
0.00641168
0.0128888
0.0203425
0.0190261
0.020039
0.0413445
0.0736272
0.0362235
0.0133685
0.00703971
0.0048039
0.00410602
0.00410447
0.00433928
0.00446448
0.0043466
0.00388987
0.00310389
0.0021677
0.0013367
0.00079309
0.000548493
0.000436497
0.000386372
0.000368872
0.000368534
0.000377731
0.000393088
0.000413436
0.000438731
0.000469515
0.000506639
0.000551096
0.000603902
0.000666
0.000738191
0.000821099
0.000915177
0.00102076
0.00113819
0.001268
0.00141114
0.00156937
0.00174567
0.00194463
0.00217359
0.0024418
0.0027674
0.00315964
0.00368539
0.00426696
0.0053453
0.00581553
0.343075
0.375459
0.073359
0.0021782
0.00114049
0.00163339
0.00326612
0.00603134
0.0121074
0.0218333
0.0224654
0.0259966
0.0531213
0.0576711
0.021028
0.00815177
0.00492761
0.00408658
0.00408613
0.00442446
0.00481646
0.00505402
0.00499499
0.00453247
0.00367314
0.00262022
0.00165493
0.000963454
0.0006182
0.000445357
0.000359971
0.000320328
0.000303776
0.000298909
0.000300232
0.000305197
0.00031272
0.000322489
0.000334632
0.00034954
0.000367735
0.000389775
0.000416174
0.000447343
0.000483566
0.000524994
0.000571676
0.000623632
0.000680952
0.000743935
0.000813274
0.00089019
0.000976859
0.00107599
0.0011934
0.00133114
0.00151121
0.0017014
0.00206376
0.00218638
0.329503
0.339694
0.0965033
0.0034274
0.00117995
0.00165436
0.00315456
0.00550948
0.0105627
0.0217541
0.0256279
0.0323753
0.0582072
0.0411042
0.0134018
0.00593441
0.00432068
0.00411581
0.0044151
0.00490782
0.00539322
0.00569248
0.00565747
0.00516916
0.00422513
0.00305487
0.00199659
0.00119899
0.000751017
0.000504243
0.000376724
0.000314246
0.000284748
0.000271605
0.000266598
0.000265696
0.000266909
0.000269305
0.000272554
0.000276699
0.000282008
0.000288859
0.000297649
0.000308733
0.000322385
0.000338786
0.000358034
0.000380172
0.000405241
0.000433345
0.000464753
0.00049997
0.000539949
0.000585914
0.000640533
0.000704905
0.000789692
0.000880414
0.00105508
0.00114516
0.321323
0.305484
0.113682
0.00869807
0.00128078
0.00163646
0.00291693
0.00486431
0.00873295
0.0198345
0.0281394
0.038291
0.0559425
0.0287495
0.00945703
0.00498221
0.0042671
0.00438635
0.00484994
0.00544204
0.00599692
0.0063386
0.00631529
0.00579778
0.00476485
0.00345624
0.00230875
0.00146378
0.000933008
0.000603875
0.00042308
0.000331009
0.000285731
0.000263988
0.00025395
0.000249676
0.000248111
0.000247658
0.000247543
0.000247502
0.000247609
0.000248129
0.000249419
0.000251835
0.000255687
0.000261218
0.0002686
0.000277952
0.000289374
0.000302991
0.000319017
0.000337805
0.000359991
0.000386383
0.000418797
0.000457999
0.000511631
0.000570784
0.00068847
0.000775079
0.315887
0.275593
0.125604
0.0181846
0.00156627
0.00160942
0.0026376
0.00420219
0.00713829
0.0164807
0.0297269
0.0427036
0.0486569
0.0204542
0.00731576
0.00464083
0.00444131
0.0047577
0.00533768
0.0060113
0.00662266
0.00699046
0.00696674
0.00641963
0.00530559
0.0038467
0.00257111
0.00171491
0.00114034
0.000737111
0.0004958
0.000366224
0.000300081
0.000267041
0.000250861
0.000243192
0.000239651
0.000237847
0.000236473
0.0002349
0.000232963
0.000230801
0.000228722
0.000227098
0.000226287
0.000226593
0.000228256
0.000231462
0.000236365
0.000243126
0.000251954
0.000263156
0.00027725
0.000294903
0.000317575
0.000346113
0.000386587
0.00043332
0.000530438
0.00061598
0.31195
0.250618
0.132989
0.0302969
0.00228328
0.00161666
0.0024061
0.00365093
0.00595476
0.0127648
0.0299235
0.0441068
0.0393921
0.0150517
0.00611858
0.00461237
0.0047276
0.00519246
0.00587595
0.00662535
0.00728023
0.00765368
0.00761147
0.0070297
0.00584714
0.00425054
0.00280408
0.00192611
0.00134182
0.000890269
0.00059102
0.000418522
0.000326275
0.000278401
0.000253934
0.00024171
0.000235773
0.000232795
0.000230842
0.000228837
0.000226295
0.000223162
0.000219662
0.000216158
0.000213044
0.000210682
0.000209372
0.000209356
0.000210834
0.000213997
0.000219066
0.000226335
0.000236278
0.000249501
0.000267335
0.000290613
0.000325076
0.000365905
0.000454316
0.000538441
0.308948
0.230266
0.136548
0.0434917
0.00406614
0.00170617
0.00228331
0.00327842
0.00507165
0.00984366
0.027962
0.0414625
0.0306511
0.0115421
0.00546
0.00475432
0.00508642
0.00568775
0.00647749
0.00729992
0.00798226
0.00833559
0.00825055
0.00762246
0.00637992
0.00467108
0.00304183
0.00209972
0.00151311
0.00104447
0.000701128
0.000485601
0.000363552
0.000297503
0.000262358
0.000243969
0.000234633
0.000229985
0.000227401
0.000225284
0.000222758
0.000219498
0.000215578
0.000211313
0.000207115
0.000203391
0.000200494
0.000198713
0.000198289
0.000199437
0.000202395
0.000207453
0.000215065
0.00022581
0.000240957
0.000261341
0.000292517
0.000330173
0.000414409
0.000497088
0.306595
0.213925
0.137064
0.0559849
0.00836566
0.0019397
0.00229627
0.00309955
0.00448711
0.00797563
0.0235962
0.035507
0.0235081
0.00924926
0.00513401
0.00499908
0.00550819
0.00625311
0.00715895
0.00805132
0.00874115
0.0090436
0.00888621
0.00819449
0.00689377
0.00509619
0.00330507
0.00225717
0.00164752
0.00118195
0.000815279
0.000563104
0.000410378
0.000323803
0.000275891
0.000249731
0.000235811
0.000228688
0.000225026
0.000222685
0.000220343
0.000217332
0.000213512
0.000209097
0.000204485
0.000200116
0.00019639
0.00019364
0.000192141
0.000192134
0.000193866
0.000197631
0.000203871
0.000213152
0.000226706
0.000245376
0.000274632
0.000310429
0.000392387
0.000473615
0.304714
0.200922
0.135329
0.066817
0.0145131
0.00241443
0.00245139
0.00310001
0.00417247
0.00662516
0.0180104
0.0282704
0.0180982
0.00774612
0.00502672
0.00531636
0.00599576
0.0069022
0.00793708
0.00889473
0.00956818
0.00978471
0.00952143
0.00874449
0.00738143
0.00551112
0.00359278
0.002422
0.00175494
0.00129256
0.000921956
0.00064486
0.000464095
0.000356196
0.000294104
0.000258872
0.000239279
0.000228812
0.000223453
0.000220536
0.000218278
0.000215625
0.000212152
0.000207918
0.000203271
0.000198664
0.00019454
0.000191274
0.000189173
0.000188503
0.000189521
0.000192525
0.00019795
0.000206349
0.000218939
0.00023656
0.000264639
0.000299289
0.000379731
0.000459593
0.303187
0.190631
0.132071
0.0754496
0.0219532
0.00332714
0.00274839
0.00325936
0.00409325
0.00564905
0.0128834
0.0215696
0.0141722
0.00676679
0.0050713
0.00569488
0.00655703
0.00764917
0.00882706
0.00984325
0.0104728
0.010565
0.0101596
0.009273
0.00783903
0.00590491
0.00389354
0.00260557
0.00185221
0.00137628
0.0010122
0.000723916
0.000521096
0.000392953
0.000316181
0.000271061
0.00024497
0.000230402
0.000222709
0.000218756
0.000216331
0.000213978
0.00021094
0.000207062
0.000202596
0.000197989
0.000193715
0.000190191
0.000187762
0.000186714
0.000187321
0.000189882
0.000194829
0.000202707
0.000214716
0.000231697
0.000259043
0.000292971
0.000372222
0.000450798
0.301933
0.182517
0.127903
0.0817127
0.0299245
0.0051624
0.00320491
0.00356321
0.00422204
0.00507206
0.00925549
0.0162658
0.0113957
0.00614476
0.00522775
0.0061329
0.00720142
0.00850682
0.0098413
0.0109067
0.0114615
0.0113887
0.0108036
0.0097816
0.00826546
0.00627138
0.00419461
0.00280724
0.00195346
0.00144096
0.00108203
0.000793988
0.000577287
0.000431875
0.000340957
0.000285709
0.000252651
0.000233436
0.000222862
0.000217405
0.000214489
0.000212278
0.000209662
0.00020622
0.000202062
0.000197598
0.000193321
0.000189691
0.000187089
0.000185829
0.0001862
0.000188508
0.000193182
0.000200761
0.000212434
0.000229037
0.00025593
0.000289404
0.000367626
0.00044498
0.300896
0.176135
0.123308
0.0856921
0.0378303
0.00827883
0.0038717
0.00400817
0.00453482
0.00487347
0.00712097
0.0124633
0.00946876
0.00577463
0.00547224
0.00663316
0.00793791
0.00948535
0.0109883
0.0120905
0.012537
0.0122572
0.0114548
0.0102719
0.00866129
0.00660791
0.00448647
0.00301975
0.0020656
0.00149718
0.00113289
0.000850879
0.000628726
0.000470536
0.000367044
0.000302029
0.000261921
0.00023777
0.000223925
0.000216558
0.000212813
0.000210531
0.000208255
0.000205268
0.000201492
0.000197262
0.000193076
0.000189431
0.000186746
0.000185368
0.000185604
0.000187768
0.000192292
0.00019971
0.000211199
0.000227591
0.000254212
0.000287407
0.0003647
0.000440886
0.300034
0.171128
0.118642
0.0876363
0.0452191
0.012713
0.00485896
0.00460617
0.00501381
0.00497687
0.0060225
0.00990885
0.00815792
0.005589
0.00579098
0.00720003
0.00877382
0.0105915
0.0122719
0.0133952
0.013698
0.0131694
0.0121132
0.0107449
0.00902763
0.00691401
0.00476371
0.00323435
0.00218885
0.00155379
0.00117007
0.000893323
0.000672316
0.000506574
0.000392972
0.000319129
0.000272261
0.000243154
0.000225831
0.000216251
0.00021137
0.000208783
0.000206724
0.000204168
0.000200812
0.000196879
0.000192849
0.000189248
0.000186537
0.000185094
0.000185251
0.000187334
0.000191778
0.000199114
0.000210513
0.000226802
0.000253268
0.000286297
0.000362735
0.000437805
0.299313
0.167207
0.114151
0.0878841
0.0516901
0.0182227
0.0064054
0.00539206
0.00565398
0.00530362
0.00556074
0.00827727
0.00729318
0.00554451
0.00617629
0.0078379
0.00971416
0.0118281
0.0136908
0.0148166
0.0149394
0.0141212
0.0127769
0.0112008
0.00936549
0.00719011
0.00502416
0.0034435
0.00231947
0.0016157
0.00120016
0.00092289
0.00070637
0.000538018
0.000417346
0.000336106
0.0002831
0.00024926
0.000228441
0.00021647
0.000210208
0.00020709
0.000205099
0.000202918
0.000199994
0.000196402
0.000192579
0.000189067
0.000186366
0.000184892
0.000185002
0.000187037
0.00019144
0.000198741
0.000210105
0.000226355
0.000252741
0.000285676
0.000361322
0.000435325
0.298708
0.164144
0.109989
0.086809
0.05695
0.0243901
0.00875963
0.00644235
0.00646719
0.00579809
0.00549911
0.00729555
0.00675471
0.00561308
0.00662406
0.00855024
0.0107611
0.0131937
0.0152393
0.0163461
0.0162533
0.0151067
0.0134427
0.011639
0.00967562
0.00743696
0.00526757
0.00364182
0.00245235
0.00168403
0.00122881
0.000943043
0.000730827
0.000563573
0.000438986
0.000352125
0.000293876
0.000255733
0.000231564
0.000217156
0.000209346
0.000205499
0.00020342
0.000201535
0.000199032
0.000195811
0.000192235
0.000188849
0.000186188
0.000184705
0.000184786
0.000186794
0.000191176
0.000198467
0.000209828
0.000226077
0.000252428
0.000285315
0.000360224
0.000433209
0.298199
0.161758
0.106243
0.0847782
0.0608369
0.0307825
0.0120059
0.00787419
0.00748401
0.00642912
0.00570756
0.00676752
0.0064593
0.00577644
0.00713212
0.00933901
0.011914
0.0146831
0.0169075
0.0179721
0.0176292
0.0161186
0.0141067
0.0120584
0.00995846
0.00765538
0.00549461
0.00382591
0.00258265
0.00175731
0.00125958
0.000957837
0.000747036
0.000582785
0.000457062
0.000366492
0.000304082
0.000262223
0.000234988
0.000218211
0.000208773
0.000204043
0.000201727
0.000200043
0.000197933
0.0001951
0.000191805
0.000188577
0.000185981
0.000184506
0.000184573
0.000186562
0.000190936
0.00019823
0.000209605
0.000225874
0.000252217
0.000285083
0.000359302
0.00043132
0.297771
0.159907
0.10295
0.0821252
0.0633176
0.0369633
0.0160627
0.00981687
0.00875449
0.00718803
0.00610977
0.00656125
0.00634947
0.00602254
0.0076991
0.0102044
0.0131694
0.0162878
0.0186828
0.0196811
0.0190556
0.0171483
0.0147642
0.0124573
0.0102143
0.00784927
0.00570292
0.00399375
0.00270654
0.00183289
0.00129383
0.000970805
0.00075721
0.000596031
0.000471179
0.000378711
0.000313304
0.000268417
0.000238502
0.000219521
0.000208454
0.000202737
0.000200053
0.000198471
0.00019671
0.000194267
0.00019128
0.000188241
0.000185733
0.000184284
0.000184346
0.000186324
0.000190694
0.000197999
0.000209396
0.000225698
0.000252047
0.000284906
0.000358478
0.000429578
0.297408
0.158477
0.100109
0.0791334
0.0644684
0.0425426
0.0207641
0.0123777
0.0103485
0.00808938
0.00665753
0.00658996
0.00638564
0.00634323
0.00832368
0.0111447
0.014521
0.0179969
0.0205511
0.0214588
0.0205203
0.018187
0.0154105
0.0128343
0.0104431
0.00802512
0.00588786
0.00414426
0.00282129
0.00190791
0.00133128
0.00098435
0.000763767
0.000604325
0.00048138
0.000388513
0.000321242
0.000274059
0.00024191
0.000220963
0.000208336
0.000201583
0.000198424
0.000196844
0.000195378
0.000193317
0.000190658
0.000187836
0.00018544
0.000184032
0.000184098
0.00018607
0.00019044
0.000197758
0.000209181
0.000225521
0.000251885
0.000284745
0.000357707
0.000427936
0.297102
0.15738
0.0977001
0.0760291
0.0644471
0.0472135
0.0258722
0.01559
0.0123559
0.00917406
0.00731919
0.0067967
0.00654061
0.00673272
0.00900409
0.0121563
0.0159605
0.0197975
0.0224974
0.0232909
0.022011
0.0192258
0.0160407
0.0131877
0.0106448
0.00818501
0.00604942
0.00427699
0.00292514
0.00197984
0.00137073
0.000999652
0.000768811
0.000609014
0.00048809
0.000395862
0.000327724
0.000278961
0.000245052
0.000222422
0.00020836
0.000200567
0.000196856
0.000195188
0.000193955
0.000192258
0.000189939
0.000187357
0.000185097
0.000183746
0.000183826
0.000185798
0.000190169
0.000197502
0.000208952
0.000225331
0.000251713
0.000284577
0.000356962
0.000426368
0.296841
0.156546
0.0956876
0.0729821
0.0634633
0.0507711
0.0310914
0.0193778
0.0148878
0.0105134
0.00807418
0.00714415
0.0067957
0.0071865
0.00973778
0.0132335
0.0174775
0.0216754
0.024507
0.0251638
0.0235153
0.0202555
0.01665
0.0135159
0.0108196
0.00833065
0.00618779
0.00439175
0.00301708
0.00204673
0.00141062
0.0010169
0.000773833
0.000611478
0.000491979
0.000400929
0.000332706
0.000283009
0.000247804
0.000223797
0.000208461
0.000199669
0.00019536
0.000193523
0.000192459
0.000191099
0.000189124
0.000186804
0.0001847
0.000183424
0.000183529
0.000185505
0.00018988
0.000197227
0.000208704
0.000225124
0.000251524
0.000284392
0.00035623
0.000424857
0.296619
0.155919
0.09403
0.0701106
0.0617494
0.0531189
0.0361026
0.0236192
0.0179951
0.0122121
0.00891069
0.00760817
0.00713806
0.00770067
0.0105212
0.0143691
0.01906
0.0236159
0.0265653
0.0270641
0.0250211
0.0212669
0.0172338
0.0138175
0.0109682
0.00846323
0.00630309
0.0044885
0.00309656
0.00210717
0.00144942
0.00103562
0.000779663
0.000612893
0.000493824
0.000404032
0.000336248
0.000286158
0.000250084
0.000225004
0.000208582
0.000198862
0.000193937
0.000191868
0.000190909
0.000189851
0.000188218
0.000186175
0.000184249
0.000183064
0.000183205
0.000185191
0.000189572
0.000196933
0.000208437
0.000224895
0.000251313
0.000284184
0.000355502
0.000423395
0.29643
0.155456
0.0926836
0.0674895
0.0595361
0.0542634
0.0405983
0.0281418
0.0216613
0.0144084
0.00982632
0.00817375
0.00755873
0.00827136
0.0113495
0.0155541
0.0206946
0.0256032
0.0286575
0.0289782
0.0265154
0.0222508
0.0177874
0.0140913
0.0110957
0.00858042
0.00639531
0.00456734
0.00316339
0.00216027
0.00148583
0.00105506
0.000786571
0.000614113
0.000494369
0.000405575
0.0003385
0.000288423
0.00025185
0.000225986
0.00020867
0.000198117
0.000192583
0.000190235
0.000189322
0.000188526
0.000187225
0.00018547
0.000183741
0.000182665
0.000182854
0.000184857
0.000189246
0.000196622
0.00020815
0.000224645
0.000251079
0.000283953
0.000354776
0.000421975
0.296269
0.155122
0.0916058
0.0651585
0.0570341
0.0542982
0.0443156
0.0327286
0.0257964
0.0172648
0.0108349
0.00883238
0.00805135
0.00889442
0.0122168
0.0167778
0.0223662
0.0276204
0.0307684
0.0308914
0.0279841
0.0231975
0.018306
0.0143361
0.0112151
0.00867187
0.00646453
0.00462844
0.0032176
0.00220551
0.00151887
0.00107437
0.000794438
0.000615651
0.000494241
0.000405979
0.000339663
0.000289868
0.000253094
0.000226702
0.000208684
0.000197407
0.000191292
0.000188633
0.000187713
0.000187138
0.000186153
0.000184692
0.000183175
0.000182224
0.000182474
0.000184501
0.000188902
0.000196292
0.000207845
0.000224375
0.000250822
0.000283697
0.000354049
0.000420594
0.29613
0.154891
0.0907566
0.0631311
0.0544221
0.0533821
0.0470622
0.0371334
0.0303223
0.0208599
0.0119798
0.00958046
0.00861142
0.00956519
0.0131157
0.0180279
0.0240586
0.0296494
0.0328807
0.0327864
0.0294112
0.0240966
0.0187853
0.0145513
0.0113288
0.00873735
0.00651109
0.00467211
0.00325936
0.00224265
0.00154782
0.00109275
0.000802919
0.000617726
0.000493901
0.000405633
0.000339964
0.00029059
0.000253838
0.000227137
0.000208593
0.000196707
0.000190054
0.000187068
0.000186094
0.000185698
0.000185008
0.000183843
0.000182552
0.000181742
0.000182065
0.000184125
0.000188541
0.000195947
0.000207522
0.000224085
0.000250544
0.000283417
0.00035332
0.00041925
0.29601
0.15474
0.0900998
0.061402
0.0518415
0.0517138
0.048733
0.0411021
0.0348325
0.0251275
0.0133766
0.0104187
0.00923612
0.0102785
0.0140375
0.0192905
0.0257538
0.0316696
0.0349746
0.0346417
0.0307782
0.0249375
0.0192207
0.0147435
0.0114323
0.00877703
0.00653549
0.00469877
0.00328894
0.00227167
0.00157225
0.00110956
0.000811579
0.000620341
0.000493641
0.000404861
0.000339623
0.000290706
0.000254124
0.00022729
0.000208379
0.000195998
0.000188861
0.000185544
0.000184479
0.000184219
0.0001838
0.000182926
0.000181872
0.000181217
0.000181626
0.000183727
0.000188164
0.000195586
0.000207182
0.000223777
0.000250245
0.000283114
0.000352589
0.000417942
0.295907
0.154652
0.0896036
0.0599536
0.049396
0.0495074
0.0493143
0.0443987
0.0391665
0.029878
0.0152586
0.0113527
0.00992591
0.01103
0.0149713
0.0205494
0.0274313
0.0336572
0.0370251
0.0364304
0.0320634
0.0257085
0.0196083
0.0149344
0.0115076
0.00879086
0.0065383
0.0047089
0.00330673
0.0022927
0.00159191
0.0011243
0.00081998
0.000623361
0.000493609
0.000403904
0.000338843
0.000290339
0.000254009
0.000227174
0.000208031
0.000195262
0.000187701
0.00018406
0.000182875
0.000182712
0.000182536
0.000181947
0.000181135
0.00018065
0.000181157
0.000183308
0.00018777
0.000195211
0.000206828
0.000223451
0.000249927
0.00028279
0.000351858
0.000416669
0.295817
0.154614
0.0892401
0.058761
0.0471541
0.0469706
0.0488767
0.046831
0.0431317
0.0349106
0.017802
0.0123947
0.0106948
0.011823
0.0159007
0.0217843
0.0290675
0.0355831
0.0390008
0.0381182
0.0332422
0.0263976
0.0199615
0.0151141
0.0115522
0.00877908
0.00652023
0.00470311
0.00331314
0.00230596
0.00160673
0.00113663
0.000827732
0.000626582
0.00049384
0.000402926
0.00033779
0.000289604
0.000253557
0.000226813
0.000207549
0.00019449
0.000186566
0.000182618
0.000181291
0.000181188
0.000181227
0.00018091
0.000180345
0.000180039
0.000180657
0.000182867
0.00018736
0.000194822
0.00020646
0.00022311
0.000249591
0.000282447
0.000351127
0.000415429
0.295739
0.154614
0.0889856
0.0577958
0.0451549
0.0442891
0.0475594
0.0482715
0.0465294
0.0400847
0.021004
0.0135966
0.0115533
0.0126715
0.0168359
0.0229627
0.0306316
0.0374098
0.0408594
0.0396619
0.0342872
0.0269932
0.0203143
0.0152536
0.0115647
0.00874206
0.00648205
0.00468209
0.00330869
0.00231176
0.00161674
0.00114635
0.000834518
0.000629777
0.000494292
0.000402018
0.000336593
0.000288608
0.000252833
0.000226238
0.00020694
0.000193677
0.000185449
0.000181216
0.000179732
0.000179658
0.000179881
0.00017982
0.000179502
0.000179385
0.000180125
0.000182405
0.000186935
0.00019442
0.000206079
0.000222754
0.000249238
0.000282085
0.000350396
0.000414224
0.295671
0.154644
0.0888199
0.0570287
0.043414
0.0416155
0.0455475
0.0486709
0.0491738
0.0451194
0.0248745
0.0149975
0.0125032
0.0135727
0.0177884
0.0241199
0.0320769
0.0390827
0.0425434
0.0410079
0.035175
0.0275591
0.0206074
0.0153456
0.0115441
0.00868034
0.00642468
0.00464662
0.00329394
0.00231045
0.00162208
0.00115334
0.0008401
0.000632732
0.000494877
0.000401216
0.000335342
0.000287439
0.000251901
0.000225484
0.000206215
0.000192819
0.000184346
0.000179852
0.000178204
0.000178129
0.000178506
0.000178685
0.000178611
0.00017869
0.000179562
0.000181921
0.000186494
0.000194006
0.000205686
0.000222385
0.00024887
0.000281707
0.000349668
0.000413053
0.295612
0.154696
0.088726
0.0564315
0.0419295
0.0390659
0.0430478
0.0480613
0.0509136
0.0495275
0.0293369
0.0166537
0.0135473
0.0145236
0.0187524
0.025246
0.0334218
0.0405764
0.0439846
0.0421393
0.035949
0.0280298
0.0208225
0.0153866
0.0114901
0.00859459
0.00634908
0.00459753
0.00326948
0.00230246
0.00162294
0.0011576
0.000844315
0.00063526
0.00049549
0.000400516
0.000334095
0.000286167
0.000250817
0.000224585
0.00020539
0.00019192
0.000183253
0.000178526
0.000176709
0.000176609
0.000177111
0.00017751
0.000177674
0.000177954
0.000178968
0.000181414
0.000186038
0.000193581
0.000205283
0.000222004
0.000248489
0.000281314
0.000348942
0.000411916
0.29556
0.154764
0.0886896
0.0559778
0.0406878
0.0367199
0.0402657
0.0465492
0.0516516
0.0531567
0.0342394
0.0186322
0.0146906
0.0155203
0.0197219
0.0263288
0.0346501
0.0418783
0.0451862
0.0430647
0.0365726
0.0283769
0.0209513
0.0153743
0.0114026
0.00848564
0.00625633
0.00453575
0.00323598
0.0022882
0.00161957
0.00115916
0.000847066
0.00063721
0.000496021
0.000399888
0.000332882
0.000284847
0.000249631
0.000223576
0.000204482
0.000190985
0.000182169
0.000177235
0.000175252
0.000175106
0.000175705
0.000176303
0.000176696
0.000177179
0.000178343
0.000180886
0.000185567
0.000193144
0.000204869
0.000221613
0.000248096
0.000280908
0.000348221
0.000410813
0.295514
0.154843
0.0886988
0.0556441
0.039668
0.0346243
0.0373865
0.0442991
0.0513576
0.0558358
0.0393573
0.0209963
0.0159431
0.0165586
0.0206907
0.0273572
0.0357487
0.0429802
0.04615
0.0437791
0.0370211
0.0285858
0.0209887
0.0153077
0.0112818
0.0083545
0.00614758
0.00446224
0.00319412
0.00226814
0.00161222
0.00115813
0.000848311
0.000638473
0.00049637
0.000399289
0.000331714
0.000283516
0.000248384
0.000222489
0.000203509
0.000190019
0.000181093
0.000175979
0.000173833
0.000173624
0.000174294
0.000175068
0.000175681
0.000176366
0.000177687
0.000180335
0.00018508
0.000192697
0.000204447
0.000221213
0.000247692
0.000280491
0.000347505
0.000409745
0.295474
0.15493
0.0887435
0.0554095
0.0388453
0.0327995
0.0345631
0.041512
0.050074
0.057424
0.0444077
0.0237886
0.0173213
0.0176335
0.0216522
0.0283209
0.0367077
0.0438761
0.0468762
0.0442732
0.037278
0.0286483
0.0209327
0.0151867
0.0111286
0.00820237
0.00602407
0.00437799
0.00314461
0.00224276
0.00160121
0.00115464
0.000848055
0.000638972
0.000496452
0.000398668
0.000330586
0.000282199
0.000247109
0.000221352
0.000202492
0.000189032
0.000180028
0.000174759
0.000172456
0.000172169
0.000172885
0.000173814
0.000174633
0.00017552
0.000177002
0.000179762
0.000184579
0.000192239
0.000204017
0.000220804
0.000247279
0.000280065
0.000346797
0.000408713
0.295438
0.155022
0.0888154
0.0552562
0.0381942
0.0312453
0.0319099
0.0384006
0.0479124
0.0578403
0.0490752
0.0270137
0.0188486
0.018741
0.0225995
0.0292109
0.0375196
0.0445619
0.0473637
0.0445375
0.0373334
0.0285607
0.0207832
0.0150125
0.0109444
0.00803063
0.00588708
0.00428406
0.00308819
0.00221255
0.00158684
0.00114887
0.000846337
0.000638669
0.0004962
0.000397978
0.000329486
0.000280909
0.000245833
0.000220191
0.000201447
0.000188033
0.000178976
0.000173573
0.00017112
0.000170746
0.000171486
0.000172545
0.000173557
0.000174641
0.000176288
0.000179168
0.000184063
0.000191772
0.00020358
0.000220388
0.000246859
0.00027963
0.000346096
0.000407716
0.295407
0.155117
0.0889076
0.0551687
0.0376895
0.0299478
0.0295025
0.0351667
0.0450408
0.0570778
0.0530458
0.0306239
0.0205528
0.0198791
0.0235251
0.0300191
0.0381789
0.0450352
0.0476108
0.0445648
0.0371822
0.0283231
0.0205425
0.0147872
0.0107308
0.00784081
0.00573796
0.00418149
0.0030256
0.002178
0.00156943
0.00114098
0.000843226
0.000637553
0.000495569
0.000397179
0.000328398
0.000279655
0.000244575
0.000219026
0.00020039
0.000187032
0.00017794
0.000172423
0.000169827
0.000169357
0.0001701
0.000171269
0.000172457
0.000173733
0.000175547
0.000178553
0.000183533
0.000191295
0.000203136
0.000219965
0.000246432
0.000279189
0.000345405
0.000406755
0.295379
0.155212
0.0890142
0.0551339
0.037308
0.0288843
0.0273818
0.0319838
0.0416648
0.0552075
0.0560408
0.0345114
0.0224611
0.0210491
0.0244217
0.0307386
0.0386822
0.0452952
0.0476165
0.0443515
0.0368244
0.0279396
0.0202153
0.0145141
0.01049
0.00763459
0.0055781
0.00407135
0.00295759
0.00213962
0.00154931
0.00113117
0.000838812
0.000635636
0.000494533
0.000396239
0.000327305
0.000278439
0.000243349
0.000217877
0.000199338
0.000186037
0.000176925
0.000171309
0.000168579
0.000168005
0.000168733
0.00016999
0.000171339
0.000172799
0.000174781
0.000177918
0.000182988
0.000190809
0.000202685
0.000219538
0.000245999
0.000278743
0.000344724
0.000405831
0.295355
0.155305
0.0891307
0.0551407
0.037029
0.0280276
0.0255607
0.0289864
0.0380036
0.0523727
0.057849
0.038507
0.024593
0.0222571
0.0252823
0.0313629
0.0390271
0.0453423
0.0473814
0.0438979
0.0362643
0.0274178
0.0198083
0.0141975
0.0102246
0.00741375
0.00540889
0.00395471
0.00288492
0.00209791
0.00152681
0.00111965
0.0008332
0.000632954
0.000493081
0.000395135
0.000326191
0.00027726
0.000242166
0.000216757
0.000198304
0.000185059
0.000175934
0.000170233
0.000167375
0.000166694
0.000167391
0.000168714
0.000170206
0.000171843
0.000173992
0.000177263
0.00018243
0.000190314
0.000202229
0.000219105
0.000245563
0.000278294
0.000344055
0.000404946
0.295334
0.155397
0.0892532
0.0551798
0.0368341
0.0273497
0.024031
0.0262655
0.0342674
0.0487741
0.0583499
0.0423889
0.0269515
0.0235139
0.0261019
0.0318865
0.0392124
0.0451786
0.0469079
0.0432086
0.0355115
0.026769
0.0193303
0.0138424
0.00993728
0.00718014
0.00523173
0.00383262
0.00280833
0.00205336
0.00150225
0.00110662
0.000826511
0.000629557
0.000491223
0.000393857
0.000325048
0.000276117
0.000241034
0.000215679
0.000197299
0.000184104
0.000174973
0.000169195
0.000166218
0.000165424
0.000166076
0.000167446
0.000169065
0.000170867
0.000173181
0.00017659
0.000181858
0.000189811
0.000201768
0.000218669
0.000245124
0.000277842
0.000343399
0.000404098
0.295315
0.155487
0.0893787
0.0552435
0.0367074
0.0268232
0.0227711
0.0238721
0.0306376
0.0446493
0.0575263
0.0459013
0.0295143
0.0248338
0.026879
0.032305
0.0392378
0.0448076
0.0462015
0.0422925
0.0345797
0.0260079
0.0187918
0.0134542
0.00963095
0.00693564
0.00504801
0.0037061
0.00272854
0.00200648
0.00147595
0.0010923
0.000818872
0.000625512
0.00048898
0.000392403
0.000323869
0.00027501
0.000239959
0.000214653
0.000196333
0.000183182
0.000174045
0.000168199
0.000165106
0.000164199
0.000164792
0.000166191
0.000167918
0.000169876
0.000172351
0.000175899
0.000181274
0.0001893
0.000201302
0.000218231
0.000244682
0.000277389
0.000342758
0.00040329
0.295298
0.155573
0.0895048
0.0553254
0.0366357
0.0264228
0.0217518
0.0218226
0.0272544
0.0402472
0.0554644
0.0487805
0.0322265
0.026231
0.0276165
0.032616
0.0391043
0.0442344
0.0452704
0.0411634
0.0334878
0.0251522
0.0182044
0.013039
0.00930859
0.00668211
0.00485908
0.00357617
0.00264628
0.00195774
0.00144825
0.00107689
0.000810419
0.000620894
0.000486386
0.000390783
0.000322654
0.000273937
0.000238944
0.000213685
0.000195416
0.000182298
0.000173154
0.000167244
0.000164042
0.000163018
0.000163541
0.000164951
0.000166771
0.000168872
0.000171503
0.000175193
0.000180677
0.000188781
0.000200832
0.000217789
0.00024424
0.000276937
0.000342132
0.000402523
0.295284
0.155655
0.0896296
0.05542
0.0366073
0.0261262
0.0209408
0.0201081
0.0242113
0.0358041
0.052341
0.0507881
0.0349964
0.0277159
0.0283225
0.0328208
0.0388146
0.0434666
0.0441265
0.0398399
0.0322587
0.0242222
0.0175806
0.0126024
0.00897308
0.00642136
0.00466623
0.00344379
0.00256224
0.00190762
0.00141945
0.00106062
0.000801289
0.000615787
0.000483484
0.000389013
0.000321406
0.000272902
0.000237993
0.000212783
0.000194552
0.000181459
0.000172304
0.000166333
0.000163024
0.000161884
0.000162327
0.000163732
0.000165627
0.000167859
0.000170642
0.000174472
0.00018007
0.000188256
0.000200358
0.000217346
0.000243798
0.000276486
0.000341522
0.000401796
0.295271
0.155733
0.0897519
0.0555232
0.0366129
0.0259141
0.020306
0.0187026
0.0215573
0.0315226
0.0484002
0.0517428
0.0376954
0.0292892
0.0290099
0.0329253
0.0383744
0.042514