/*--------------------------------*- C++ -*----------------------------------*\
| =========                 |                                                 |
| \\      /  F ield         | OpenFOAM: The Open Source CFD Toolbox           |
|  \\    /   O peration     | Version:  2.4.0                                 |
|   \\  /    A nd           | Web:      www.OpenFOAM.org                      |
|    \\/     M anipulation  |                                                 |
\*---------------------------------------------------------------------------*/
FoamFile
{
    version     2.0;
    format      ascii;
    class       volScalarField;
    location    "6.06";
    object      p;
}
// * * * * * * * * * * * * * * * * * * * * * * * * * * * * * * * * * * * * * //

dimensions      [0 2 -2 0 0 0 0];

internalField   nonuniform List<scalar> 
6000
(
-0.124124
0.232699
0.189975
0.209841
0.202483
0.207276
0.204265
0.20622
0.204932
0.20566
0.205094
0.205333
0.205115
0.205207
0.205146
0.205213
0.205267
0.205437
0.205695
0.206101
0.206655
0.207395
0.208338
0.209503
0.210904
0.212562
0.214493
0.216713
0.219236
0.222077
0.225248
0.228757
0.232612
0.236813
0.241356
0.24623
0.251416
0.256888
0.262605
0.268527
0.274574
0.280707
0.286769
0.292767
0.298378
0.303768
0.308262
0.31241
0.314774
0.317026
0.315537
0.315434
0.30672
0.30502
0.281299
0.283424
0.223999
0.251364
0.0940707
0.219525
-0.0977847
0.229284
0.190049
0.209688
0.202504
0.207262
0.204277
0.206219
0.204945
0.205669
0.205108
0.205346
0.205131
0.205225
0.205168
0.205237
0.205291
0.205458
0.205713
0.206115
0.206664
0.207399
0.208337
0.209495
0.21089
0.212542
0.214465
0.216677
0.219192
0.222019
0.225187
0.228691
0.232538
0.236731
0.241266
0.246131
0.251306
0.256767
0.26247
0.268377
0.274406
0.280518
0.286555
0.292524
0.298102
0.303454
0.307912
0.312012
0.31433
0.316513
0.314968
0.314759
0.305985
0.304109
0.280345
0.282136
0.222805
0.249372
0.0926846
0.216091
-0.0808967
0.22583
0.190077
0.209597
0.202513
0.207256
0.204284
0.206226
0.204958
0.205686
0.205126
0.205368
0.205153
0.205255
0.205202
0.205276
0.205331
0.205498
0.20575
0.206149
0.206695
0.207426
0.208359
0.209511
0.210899
0.212543
0.214457
0.21666
0.219165
0.221989
0.225135
0.228623
0.232454
0.23663
0.241145
0.24599
0.251144
0.256581
0.262259
0.268138
0.274135
0.280214
0.286213
0.292143
0.297674
0.302978
0.307385
0.311434
0.313688
0.315811
0.314185
0.313907
0.305026
0.303066
0.279163
0.280829
0.221316
0.247614
0.0906865
0.213218
-0.068674
0.221977
0.190288
0.209513
0.202513
0.20725
0.204289
0.206236
0.204969
0.205707
0.205143
0.205393
0.205177
0.205286
0.205236
0.205316
0.205371
0.205538
0.205788
0.206185
0.206727
0.207454
0.208382
0.209528
0.210909
0.212544
0.214449
0.216641
0.219134
0.221944
0.225078
0.22855
0.232364
0.236522
0.241017
0.24584
0.25097
0.256382
0.262032
0.267882
0.273847
0.279891
0.285851
0.29174
0.297225
0.30248
0.306829
0.310823
0.313006
0.315068
0.313344
0.313005
0.303982
0.301971
0.277847
0.279487
0.219603
0.245892
0.0882922
0.21058
-0.0568668
0.217851
0.190671
0.209431
0.202512
0.207243
0.204294
0.206245
0.204979
0.205726
0.205159
0.205415
0.205199
0.205314
0.205266
0.205349
0.205405
0.205572
0.205819
0.206214
0.206753
0.207477
0.208399
0.209539
0.210913
0.21254
0.214436
0.216618
0.2191
0.221897
0.225019
0.228477
0.232276
0.236416
0.240893
0.245697
0.250806
0.256196
0.261821
0.267644
0.273579
0.279592
0.285516
0.291368
0.296809
0.302018
0.306311
0.31025
0.312359
0.31436
0.312535
0.312133
0.302958
0.300899
0.276525
0.278161
0.217838
0.2442
0.0858189
0.208132
-0.0452822
0.213615
0.19118
0.209335
0.202519
0.207231
0.204299
0.206254
0.204987
0.205742
0.205172
0.205434
0.205216
0.205337
0.205291
0.205377
0.205432
0.205599
0.205844
0.206237
0.206773
0.207493
0.208411
0.209545
0.210912
0.212531
0.214419
0.216591
0.219063
0.221849
0.22496
0.228405
0.23219
0.236316
0.240777
0.245564
0.250654
0.256024
0.261627
0.267427
0.273336
0.279321
0.285212
0.29103
0.296431
0.301597
0.305835
0.309722
0.311759
0.313699
0.311773
0.311307
0.301978
0.29987
0.275241
0.276874
0.216102
0.242546
0.0834007
0.205849
-0.0345417
0.209367
0.191719
0.209211
0.202538
0.207215
0.204304
0.20626
0.204994
0.205757
0.205183
0.205451
0.205232
0.205357
0.205311
0.2054
0.205455
0.205621
0.205865
0.206255
0.206788
0.207505
0.208417
0.209545
0.210906
0.212518
0.214398
0.216562
0.219025
0.221801
0.224901
0.228335
0.232107
0.23622
0.240667
0.245439
0.250513
0.255866
0.261449
0.267228
0.273114
0.279073
0.284935
0.290721
0.296085
0.301209
0.305396
0.309232
0.311199
0.31308
0.311054
0.310526
0.301046
0.298886
0.274007
0.275632
0.214419
0.240941
0.0810818
0.203731
-0.0247021
0.205182
0.192217
0.209069
0.202565
0.207196
0.20431
0.206265
0.205
0.205769
0.205192
0.205466
0.205245
0.205374
0.205328
0.205419
0.205473
0.205639
0.205881
0.206268
0.206799
0.207512
0.20842
0.209543
0.210897
0.212503
0.214376
0.216532
0.218986
0.221753
0.224843
0.228266
0.232028
0.236129
0.240564
0.245322
0.250382
0.255719
0.261285
0.267045
0.272909
0.278846
0.28468
0.290437
0.295765
0.300851
0.304988
0.308775
0.310675
0.312498
0.310376
0.309785
0.300157
0.297946
0.272821
0.274438
0.212795
0.239392
0.0788734
0.201766
-0.0155336
0.201122
0.192624
0.208923
0.202585
0.207178
0.204317
0.206269
0.205006
0.20578
0.205201
0.205479
0.205256
0.205389
0.205342
0.205434
0.205488
0.205654
0.205893
0.206279
0.206807
0.207516
0.20842
0.209537
0.210886
0.212485
0.214351
0.2165
0.218946
0.221704
0.224786
0.2282
0.231951
0.236042
0.240466
0.245212
0.250259
0.255582
0.261133
0.266877
0.272721
0.278637
0.284446
0.290175
0.29547
0.300519
0.304609
0.30835
0.310185
0.311952
0.309736
0.309084
0.299312
0.297049
0.271686
0.27329
0.211233
0.237898
0.0767799
0.19994
-0.00688136
0.197226
0.192918
0.208774
0.202602
0.207162
0.204326
0.206271
0.205012
0.20579
0.205208
0.205491
0.205265
0.205401
0.205353
0.205447
0.2055
0.205666
0.205903
0.206287
0.206812
0.207518
0.208417
0.20953
0.210873
0.212466
0.214325
0.216467
0.218906
0.221656
0.224729
0.228135
0.231878
0.235959
0.240373
0.245109
0.250145
0.255456
0.260993
0.266721
0.272548
0.278444
0.284231
0.289934
0.295198
0.300211
0.304257
0.307953
0.309727
0.311438
0.309132
0.30842
0.298508
0.296192
0.270599
0.272187
0.209734
0.236455
0.0748033
0.198235
0.00130711
0.193518
0.193093
0.208604
0.202639
0.207147
0.204337
0.206273
0.205018
0.205798
0.205215
0.205501
0.205273
0.205412
0.205362
0.205458
0.20551
0.205675
0.205911
0.206293
0.206815
0.207518
0.208412
0.20952
0.210858
0.212445
0.214298
0.216433
0.218865
0.221609
0.224675
0.228072
0.231807
0.23588
0.240286
0.245013
0.250038
0.255338
0.260863
0.266578
0.272389
0.278268
0.284033
0.289712
0.294946
0.299926
0.30393
0.307583
0.309297
0.310955
0.308562
0.30779
0.297744
0.295373
0.26956
0.271125
0.208299
0.235061
0.0729434
0.196636
0.00906052
0.19001
0.193153
0.20841
0.202707
0.207131
0.204353
0.206275
0.205025
0.205806
0.205221
0.205509
0.20528
0.205421
0.20537
0.205467
0.205518
0.205683
0.205917
0.206296
0.206816
0.207515
0.208405
0.209509
0.210841
0.212423
0.21427
0.2164
0.218825
0.221562
0.224621
0.228012
0.231739
0.235805
0.240203
0.244922
0.249939
0.255229
0.260743
0.266446
0.272243
0.278105
0.283851
0.289506
0.294714
0.299662
0.303626
0.307237
0.308893
0.3105
0.308022
0.307191
0.297016
0.29459
0.268566
0.270101
0.206926
0.233713
0.0711983
0.19513
0.0164141
0.186713
0.193106
0.208182
0.202807
0.207109
0.204373
0.206277
0.205033
0.205813
0.205227
0.205517
0.205287
0.205428
0.205377
0.205474
0.205524
0.205689
0.205921
0.206299
0.206815
0.207512
0.208398
0.209496
0.210824
0.212401
0.214243
0.216366
0.218786
0.221516
0.224569
0.227954
0.231675
0.235734
0.240125
0.244837
0.249846
0.255127
0.260632
0.266324
0.272108
0.277954
0.283682
0.289316
0.294498
0.299416
0.303342
0.306913
0.308514
0.31007
0.307511
0.306621
0.296323
0.293839
0.267617
0.269114
0.205615
0.232408
0.0695648
0.193704
0.0234028
0.183632
0.192959
0.207915
0.20294
0.207071
0.2044
0.20628
0.205043
0.20582
0.205233
0.205525
0.205292
0.205435
0.205383
0.20548
0.205529
0.205693
0.205924
0.2063
0.206814
0.207507
0.208389
0.209484
0.210807
0.212378
0.214215
0.216333
0.218747
0.221472
0.224519
0.227898
0.231613
0.235666
0.240051
0.244757
0.249759
0.255033
0.260529
0.266211
0.271983
0.277816
0.283527
0.28914
0.294297
0.299186
0.303076
0.306608
0.308156
0.309663
0.307027
0.306078
0.295662
0.293118
0.266709
0.26816
0.204364
0.231142
0.0680395
0.192346
0.0300545
0.180771
0.192725
0.207605
0.203087
0.207031
0.204428
0.206285
0.205054
0.205828
0.20524
0.205532
0.205298
0.205442
0.205388
0.205486
0.205534
0.205698
0.205927
0.206301
0.206812
0.207502
0.20838
0.209471
0.210789
0.212356
0.214188
0.216301
0.21871
0.221429
0.224471
0.227844
0.231554
0.235603
0.239982
0.244682
0.249678
0.254945
0.260433
0.266106
0.271867
0.277687
0.283382
0.288977
0.29411
0.298971
0.302826
0.306321
0.307819
0.309276
0.306566
0.305559
0.295032
0.292425
0.265841
0.267237
0.203171
0.229913
0.0666184
0.191047
0.0363908
0.178126
0.192416
0.20725
0.203234
0.206998
0.204455
0.206294
0.205068
0.205835
0.205248
0.205539
0.205304
0.205448
0.205393
0.205491
0.205538
0.205702
0.205929
0.206301
0.20681
0.207497
0.208372
0.209458
0.210772
0.212334
0.214161
0.216269
0.218673
0.221388
0.224425
0.227793
0.231499
0.235542
0.239917
0.244612
0.249602
0.254864
0.260345
0.26601
0.271761
0.277569
0.283249
0.288825
0.293936
0.29877
0.302592
0.30605
0.307499
0.308909
0.306128
0.305062
0.294429
0.291756
0.265011
0.266342
0.202035
0.228718
0.0652977
0.189798
0.0424303
0.175695
0.192044
0.206854
0.203373
0.206972
0.204481
0.206307
0.205085
0.205844
0.205256
0.205546
0.20531
0.205455
0.205398
0.205497
0.205543
0.205706
0.205932
0.206302
0.206808
0.207492
0.208363
0.209446
0.210756
0.212314
0.214136
0.21624
0.218639
0.221349
0.224381
0.227746
0.231447
0.235486
0.239856
0.244547
0.249533
0.254789
0.260263
0.265921
0.271663
0.277459
0.283125
0.288683
0.293773
0.298581
0.302372
0.305794
0.307196
0.308558
0.30571
0.304585
0.293852
0.291112
0.264216
0.265474
0.200953
0.227554
0.0640736
0.18859
0.0481895
0.173471
0.191623
0.206421
0.203498
0.206953
0.204511
0.206323
0.205108
0.205855
0.205267
0.205554
0.205317
0.205461
0.205404
0.205502
0.205548
0.20571
0.205935
0.206304
0.206807
0.207489
0.208356
0.209435
0.21074
0.212294
0.214112
0.216212
0.218607
0.221312
0.22434
0.227701
0.231398
0.235433
0.2398
0.244487
0.249468
0.25472
0.260188
0.265839
0.271572
0.277357
0.28301
0.288551
0.29362
0.298404
0.302163
0.305551
0.306908
0.308224
0.305311
0.304126
0.2933
0.290488
0.263456
0.26463
0.199924
0.226418
0.0629423
0.187416
0.0536834
0.171449
0.191164
0.205954
0.203605
0.20694
0.204553
0.20634
0.205135
0.205868
0.20528
0.205564
0.205325
0.205469
0.205411
0.205509
0.205554
0.205716
0.205939
0.206306
0.206807
0.207486
0.20835
0.209425
0.210727
0.212277
0.214091
0.216186
0.218577
0.221278
0.224302
0.227659
0.231353
0.235385
0.239748
0.244431
0.249409
0.254656
0.260119
0.265763
0.271488
0.277263
0.282903
0.288428
0.293478
0.298236
0.301967
0.30532
0.306634
0.307903
0.304929
0.303684
0.292771
0.289884
0.262728
0.263808
0.198947
0.225308
0.0619003
0.186271
0.0589256
0.16962
0.190679
0.205462
0.203689
0.206928
0.204612
0.20635
0.205168
0.205885
0.205296
0.205575
0.205335
0.205478
0.20542
0.205518
0.205562
0.205723
0.205945
0.20631
0.206809
0.207484
0.208345
0.209417
0.210715
0.212261
0.214071
0.216162
0.218549
0.221247
0.224268
0.227621
0.231312
0.235341
0.239701
0.244381
0.249355
0.254598
0.260056
0.265694
0.271411
0.277176
0.282804
0.288313
0.293344
0.298079
0.301781
0.3051
0.306373
0.307596
0.304563
0.303258
0.292263
0.289299
0.262031
0.263007
0.198019
0.224223
0.0609442
0.185147
0.0639285
0.167976
0.190179
0.204949
0.203749
0.206914
0.204689
0.206359
0.205205
0.205906
0.205316
0.205588
0.205347
0.205489
0.20543
0.205527
0.205571
0.205732
0.205952
0.206315
0.206812
0.207485
0.208343
0.209411
0.210706
0.212248
0.214054
0.216142
0.218525
0.221219
0.224237
0.227587
0.231274
0.235301
0.239658
0.244335
0.249306
0.254546
0.259999
0.265631
0.271341
0.277097
0.282713
0.288206
0.293218
0.29793
0.301604
0.30489
0.306123
0.3073
0.304212
0.302846
0.291776
0.28873
0.261364
0.262225
0.197139
0.22316
0.0600706
0.184041
0.0687038
0.166507
0.189672
0.204423
0.203782
0.206896
0.204778
0.206369
0.205248
0.205933
0.20534
0.205605
0.205363
0.205502
0.205442
0.20554
0.205583
0.205743
0.205962
0.206323
0.206818
0.207488
0.208343
0.209408
0.210699
0.212238
0.214041
0.216125
0.218504
0.221195
0.224209
0.227557
0.231242
0.235265
0.23962
0.244295
0.249263
0.254499
0.259948
0.265575
0.271277
0.277024
0.282628
0.288106
0.2931
0.297789
0.301436
0.304689
0.305884
0.307015
0.303874
0.302447
0.291307
0.288177
0.260725
0.261461
0.196306
0.222117
0.0592767
0.182947
0.0732625
0.165206
0.189168
0.203889
0.203789
0.206871
0.204879
0.206386
0.205291
0.205964
0.20537
0.205625
0.205381
0.205518
0.205458
0.205554
0.205597
0.205756
0.205974
0.206334
0.206826
0.207494
0.208346
0.209408
0.210696
0.212231
0.214031
0.216111
0.218487
0.221175
0.224186
0.227531
0.231213
0.235235
0.239587
0.244259
0.249225
0.254457
0.259903
0.265524
0.27122
0.276957
0.28255
0.288013
0.29299
0.297655
0.301277
0.304497
0.305655
0.306741
0.30355
0.302059
0.290856
0.287638
0.260113
0.260714
0.195518
0.221093
0.0585594
0.181861
0.0776151
0.164061
0.188671
0.203354
0.203771
0.206839
0.204988
0.206411
0.205338
0.206
0.205406
0.20565
0.205404
0.205537
0.205476
0.205572
0.205615
0.205773
0.20599
0.206348
0.206838
0.207504
0.208353
0.209412
0.210696
0.212228
0.214024
0.216101
0.218475
0.221159
0.224168
0.22751
0.23119
0.235209
0.23956
0.24423
0.249192
0.254422
0.259864
0.265479
0.271169
0.276897
0.282479
0.287927
0.292886
0.297529
0.301125
0.304313
0.305435
0.306475
0.303237
0.301683
0.290422
0.287112
0.259528
0.259982
0.194775
0.220086
0.0579161
0.18078
0.0817716
0.163064
0.188189
0.202824
0.20373
0.206798
0.205104
0.206444
0.205392
0.206039
0.20545
0.205681
0.205431
0.20556
0.205499
0.205594
0.205636
0.205794
0.206009
0.206366
0.206854
0.207517
0.208363
0.209419
0.210701
0.21223
0.214023
0.216096
0.218466
0.221148
0.224154
0.227494
0.231172
0.235189
0.239538
0.244206
0.249166
0.254393
0.25983
0.265441
0.271123
0.276842
0.282413
0.287847
0.292789
0.29741
0.300981
0.304136
0.305223
0.306218
0.302935
0.301318
0.290004
0.2866
0.258968
0.259265
0.194074
0.219095
0.0573441
0.1797
0.0857417
0.162205
0.187727
0.202303
0.20367
0.206748
0.205224
0.206485
0.205455
0.20608
0.2055
0.205718
0.205465
0.205588
0.205526
0.20562
0.205662
0.205818
0.206033
0.206388
0.206874
0.207535
0.208378
0.209431
0.21071
0.212236
0.214026
0.216096
0.218463
0.221143
0.224146
0.227484
0.23116
0.235175
0.239522
0.244187
0.249145
0.254369
0.259803
0.265408
0.271084
0.276794
0.282354
0.287773
0.292699
0.297296
0.300843
0.303966
0.30502
0.305969
0.302644
0.300962
0.289602
0.286098
0.258432
0.258562
0.193415
0.218118
0.0568411
0.178619
0.0895346
0.161475
0.187286
0.201794
0.203593
0.206691
0.205345
0.206534
0.205531
0.206125
0.205556
0.205761
0.205505
0.205621
0.205558
0.20565
0.205692
0.205848
0.206061
0.206415
0.206899
0.207558
0.208398
0.209449
0.210724
0.212247
0.214034
0.216101
0.218466
0.221142
0.224144
0.227479
0.231153
0.235167
0.239512
0.244175
0.249131
0.254352
0.259782
0.265382
0.271051
0.276752
0.282302
0.287706
0.292614
0.297189
0.300712
0.303803
0.304824
0.305728
0.302363
0.300615
0.289213
0.285608
0.25792
0.257871
0.192797
0.217154
0.0564048
0.177534
0.0931593
0.160866
0.186871
0.201303
0.203503
0.206628
0.205466
0.20659
0.205618
0.206176
0.205618
0.205812
0.205552
0.205661
0.205596
0.205686
0.205728
0.205883
0.206095
0.206447
0.206929
0.207586
0.208424
0.209472
0.210744
0.212264
0.214048
0.216113
0.218474
0.221148
0.224147
0.227481
0.231153
0.235165
0.239508
0.24417
0.249123
0.254341
0.259767
0.265362
0.271025
0.276717
0.282255
0.287644
0.292536
0.297088
0.300588
0.303646
0.304636
0.305493
0.302092
0.300276
0.288839
0.285129
0.257431
0.257193
0.192219
0.216203
0.056033
0.176442
0.0966241
0.160367
0.186484
0.200832
0.203404
0.206562
0.205586
0.206653
0.205718
0.206234
0.205687
0.205869
0.205607
0.205707
0.20564
0.205728
0.20577
0.205923
0.206135
0.206485
0.206966
0.20762
0.208456
0.2095
0.21077
0.212287
0.214068
0.21613
0.218489
0.221161
0.224158
0.227489
0.23116
0.23517
0.239511
0.244171
0.249122
0.254337
0.259759
0.265349
0.271005
0.276687
0.282214
0.287588
0.292463
0.296993
0.300469
0.303495
0.304454
0.305265
0.301829
0.299945
0.288478
0.284659
0.256964
0.256526
0.191679
0.215263
0.0557238
0.175341
0.0999374
0.159972
0.186126
0.200384
0.203299
0.206493
0.205704
0.206722
0.205831
0.206301
0.205762
0.205932
0.20567
0.205761
0.205691
0.205776
0.205818
0.20597
0.206181
0.206529
0.207008
0.20766
0.208494
0.209536
0.210803
0.212317
0.214095
0.216154
0.218511
0.22118
0.224175
0.227505
0.231174
0.235182
0.239522
0.24418
0.249128
0.25434
0.259758
0.265342
0.270991
0.276664
0.282179
0.287538
0.292396
0.296903
0.300356
0.303349
0.304279
0.305043
0.301574
0.299622
0.28813
0.284198
0.256518
0.255871
0.191177
0.214333
0.0554752
0.17423
0.103107
0.159672
0.185797
0.199959
0.203192
0.206425
0.20582
0.206797
0.205956
0.206378
0.205847
0.206003
0.205741
0.205823
0.20575
0.205831
0.205872
0.206024
0.206234
0.206581
0.207058
0.207708
0.208539
0.209579
0.210843
0.212355
0.21413
0.216186
0.21854
0.221207
0.2242
0.227528
0.231195
0.235202
0.23954
0.244196
0.249142
0.25435
0.259764
0.265342
0.270984
0.276647
0.282151
0.287494
0.292335
0.296819
0.300249
0.303209
0.30411
0.304827
0.301328
0.299306
0.287795
0.283747
0.256093
0.255226
0.190712
0.213413
0.0552854
0.173107
0.10614
0.15946
0.185498
0.199561
0.203084
0.206359
0.205935
0.206877
0.206092
0.206467
0.205942
0.206081
0.20582
0.205893
0.205817
0.205894
0.205934
0.206085
0.206294
0.20664
0.207115
0.207763
0.208592
0.209629
0.210891
0.2124
0.214172
0.216225
0.218577
0.221242
0.224233
0.227559
0.231225
0.23523
0.239566
0.24422
0.249163
0.254368
0.259777
0.26535
0.270984
0.276636
0.282129
0.287456
0.29228
0.29674
0.300147
0.303074
0.303947
0.304617
0.30109
0.298997
0.287471
0.283304
0.255688
0.254591
0.190283
0.212501
0.0551527
0.171971
0.109043
0.159328
0.185229
0.199188
0.20298
0.206299
0.20605
0.206964
0.206239
0.206568
0.206048
0.206167
0.205907
0.205971
0.205892
0.205965
0.206004
0.206154
0.206362
0.206706
0.207181
0.207826
0.208653
0.209688
0.210947
0.212453
0.214222
0.216273
0.218623
0.221286
0.224274
0.227599
0.231263
0.235266
0.2396
0.244252
0.249193
0.254394
0.259798
0.265364
0.27099
0.276633
0.282113
0.287424
0.292231
0.296667
0.300051
0.302944
0.30379
0.304413
0.300859
0.298694
0.287158
0.282869
0.255303
0.253965
0.18989
0.211598
0.0550756
0.17082
0.111824
0.159271
0.18499
0.198843
0.202881
0.206244
0.206166
0.207057
0.206395
0.206682
0.206168
0.206263
0.206004
0.206058
0.205977
0.206044
0.206083
0.20623
0.206439
0.206782
0.207254
0.207898
0.208723
0.209755
0.211012
0.212515
0.214282
0.21633
0.218677
0.221338
0.224325
0.227647
0.23131
0.235311
0.239643
0.244292
0.24923
0.254427
0.259827
0.265387
0.271005
0.276636
0.282104
0.287398
0.292187
0.296599
0.29996
0.302819
0.303638
0.304213
0.300635
0.298397
0.286857
0.282442
0.254937
0.253349
0.189532
0.210702
0.0550525
0.169652
0.114488
0.159283
0.184781
0.198525
0.202789
0.206198
0.206285
0.207157
0.206561
0.20681
0.206303
0.20637
0.206111
0.206154
0.20607
0.206133
0.20617
0.206316
0.206524
0.206866
0.207337
0.207979
0.208802
0.209832
0.211086
0.212586
0.21435
0.216396
0.218741
0.2214
0.224385
0.227706
0.231366
0.235366
0.239696
0.244342
0.249277
0.25447
0.259865
0.265417
0.271026
0.276647
0.282101
0.287378
0.292149
0.296537
0.299875
0.3027
0.303492
0.304019
0.300418
0.298107
0.286567
0.282022
0.25459
0.252742
0.189207
0.209813
0.055082
0.168468
0.117042
0.159356
0.1846
0.198233
0.202705
0.206162
0.206408
0.207266
0.206735
0.206951
0.206452
0.206491
0.206229
0.20626
0.206174
0.206231
0.206266
0.206411
0.206618
0.206959
0.20743
0.20807
0.208891
0.209918
0.21117
0.212668
0.214429
0.216473
0.218815
0.221472
0.224455
0.227774
0.231432
0.23543
0.239758
0.244402
0.249333
0.254521
0.25991
0.265455
0.271056
0.276664
0.282106
0.287365
0.292118
0.29648
0.299795
0.302585
0.303352
0.30383
0.300209
0.297822
0.286287
0.281611
0.254262
0.252144
0.188916
0.20893
0.0551628
0.167266
0.11949
0.159487
0.184448
0.197969
0.202632
0.206136
0.206535
0.207385
0.206919
0.207105
0.206618
0.206626
0.206359
0.206377
0.206288
0.206338
0.206373
0.206515
0.206722
0.207062
0.207532
0.208171
0.20899
0.210015
0.211265
0.21276
0.214518
0.216559
0.2189
0.221554
0.224535
0.227852
0.231509
0.235505
0.23983
0.244471
0.249398
0.254582
0.259965
0.265502
0.271093
0.27669
0.282117
0.287358
0.292092
0.296429
0.29972
0.302476
0.303218
0.303646
0.300006
0.297544
0.286018
0.281206
0.253952
0.251555
0.188658
0.208054
0.0552936
0.166046
0.121839
0.159669
0.184324
0.197731
0.20257
0.206122
0.206669
0.207516
0.207113
0.207272
0.206799
0.206776
0.206503
0.206506
0.206413
0.206457
0.206489
0.20663
0.206837
0.207175
0.207644
0.208282
0.209099
0.210123
0.21137
0.212863
0.214619
0.216657
0.218995
0.221648
0.224627
0.227942
0.231596
0.23559
0.239913
0.24455
0.249474
0.254653
0.260029
0.265558
0.271139
0.276723
0.282136
0.287358
0.292073
0.296383
0.299651
0.302371
0.303088
0.303467
0.29981
0.297271
0.28576
0.280809
0.25366
0.250974
0.188432
0.207183
0.0554733
0.164807
0.124092
0.159899
0.184227
0.197518
0.202519
0.20612
0.20681
0.207658
0.207317
0.207453
0.206997
0.206944
0.206664
0.206648
0.206549
0.206586
0.206617
0.206755
0.206961
0.207299
0.207768
0.208404
0.20922
0.210242
0.211487
0.212977
0.21473
0.216767
0.219103
0.221753
0.22473
0.228043
0.231695
0.235687
0.240007
0.244641
0.24956
0.254733
0.260103
0.265623
0.271194
0.276764
0.282162
0.287365
0.29206
0.296344
0.299588
0.302272
0.302965
0.303293
0.29962
0.297004
0.285511
0.28042
0.253386
0.250402
0.188238
0.206317
0.0557008
0.163548
0.126256
0.160172
0.184156
0.197332
0.20248
0.206131
0.206958
0.207814
0.207533
0.207648
0.20721
0.20713
0.206841
0.206805
0.2067
0.206728
0.206756
0.206891
0.207097
0.207435
0.207903
0.208538
0.209353
0.210373
0.211616
0.213104
0.214854
0.216888
0.219222
0.22187
0.224846
0.228156
0.231806
0.235795
0.240112
0.244742
0.249657
0.254824
0.260187
0.265697
0.271257
0.276813
0.282196
0.287379
0.292054
0.29631
0.299531
0.302178
0.302847
0.303124
0.299438
0.296743
0.285272
0.280037
0.253129
0.249838
0.188075
0.205457
0.0559749
0.162268
0.128333
0.160483
0.18411
0.197169
0.202454
0.206154
0.207114
0.207984
0.207761
0.207858
0.207439
0.207335
0.207037
0.206979
0.206864
0.206883
0.206907
0.207039
0.207245
0.207581
0.208049
0.208684
0.209497
0.210516
0.211757
0.213243
0.214991
0.217023
0.219354
0.222001
0.224974
0.228282
0.23193
0.235916
0.240229
0.244856
0.249765
0.254926
0.260281
0.265782
0.27133
0.276872
0.282238
0.2874
0.292055
0.296283
0.299479
0.302089
0.302734
0.30296
0.299262
0.296487
0.285043
0.279662
0.252889
0.249282
0.187942
0.204601
0.0562947
0.160969
0.130329
0.160829
0.18409
0.197031
0.20244
0.20619
0.207278
0.208166
0.208003
0.208085
0.207684
0.207558
0.207252
0.20717
0.207046
0.207052
0.207072
0.2072
0.207405
0.20774
0.208208
0.208842
0.209655
0.210672
0.211912
0.213395
0.215141
0.217171
0.2195
0.222144
0.225115
0.228421
0.232066
0.236049
0.240359
0.244981
0.249885
0.255039
0.260386
0.265876
0.271413
0.276939
0.282289
0.287429
0.292062
0.296262
0.299434
0.302006
0.302627
0.302802
0.299092
0.296238
0.284825
0.279294
0.252666
0.248735
0.18784
0.203751
0.0566594
0.159649
0.132246
0.161207
0.184093
0.196917
0.20244
0.206239
0.207451
0.208362
0.208258
0.208328
0.207946
0.2078
0.207488
0.207382
0.207244
0.207238
0.207252
0.207375
0.207578
0.207913
0.20838
0.209013
0.209826
0.210842
0.21208
0.213561
0.215305
0.217333
0.21966
0.222302
0.22527
0.228574
0.232216
0.236196
0.240502
0.245119
0.250018
0.255164
0.260502
0.265981
0.271505
0.277015
0.282348
0.287466
0.292077
0.296248
0.299394
0.301929
0.302526
0.302649
0.29893
0.295994
0.284616
0.278933
0.25246
0.248197
0.187768
0.202905
0.0570679
0.158308
0.134089
0.161613
0.184119
0.196826
0.202452
0.2063
0.207633
0.208572
0.208527
0.208589
0.208225
0.208061
0.207744
0.207615
0.207463
0.207441
0.207448
0.207565
0.207766
0.208098
0.208565
0.209198
0.21001
0.211025
0.212262
0.213741
0.215483
0.217509
0.219834
0.222473
0.22544
0.228741
0.23238
0.236357
0.240659
0.245271
0.250163
0.255302
0.26063
0.266098
0.271608
0.277101
0.282415
0.287511
0.292099
0.29624
0.299361
0.301857
0.302431
0.302501
0.298774
0.295757
0.284417
0.27858
0.252271
0.247667
0.187726
0.202063
0.0575196
0.156947
0.135861
0.162043
0.184168
0.196757
0.202478
0.206374
0.207823
0.208794
0.208808
0.208868
0.208522
0.208341
0.208022
0.207869
0.207703
0.207663
0.207661
0.207771
0.207968
0.208299
0.208765
0.209398
0.210209
0.211224
0.212459
0.213936
0.215677
0.2177
0.220023
0.22266
0.225624
0.228923
0.232559
0.236532
0.240829
0.245436
0.250321
0.255451
0.26077
0.266225
0.271721
0.277197
0.282492
0.287565
0.292129
0.296239
0.299334
0.301791
0.302342
0.302359
0.298625
0.295525
0.284227
0.278235
0.252099
0.247146
0.187712
0.201226
0.0580137
0.155564
0.137565
0.162496
0.184239
0.19671
0.202517
0.206461
0.208022
0.209028
0.209103
0.209165
0.208837
0.208641
0.20832
0.208147
0.207965
0.207907
0.207894
0.207995
0.208188
0.208516
0.208981
0.209612
0.210423
0.211437
0.212671
0.214147
0.215885
0.217907
0.220228
0.222863
0.225824
0.22912
0.232753
0.236722
0.241014
0.245615
0.250493
0.255614
0.260922
0.266364
0.271845
0.277303
0.282578
0.287626
0.292167
0.296246
0.299315
0.301731
0.302259
0.302223
0.298483
0.295301
0.284048
0.277897
0.251943
0.246633
0.187728
0.200394
0.0585495
0.154161
0.139204
0.162969
0.18433
0.196685
0.202569
0.20656
0.208229
0.209275
0.20941
0.20948
0.209172
0.208963
0.208639
0.208448
0.208251
0.208174
0.208148
0.208238
0.208425
0.208749
0.209213
0.209843
0.210653
0.211666
0.212899
0.214374
0.216111
0.21813
0.220449
0.223082
0.226041
0.229334
0.232963
0.236927
0.241215
0.245809
0.250679
0.255791
0.261087
0.266515
0.271981
0.277419
0.282674
0.287697
0.292213
0.29626
0.299302
0.301678
0.302183
0.302093
0.298348
0.295082
0.283879
0.277568
0.251804
0.24613
0.187772
0.199567
0.0591264
0.152737
0.14078
0.163458
0.184442
0.19668
0.202634
0.206671
0.208445
0.209532
0.209728
0.209811
0.209525
0.209306
0.208981
0.208772
0.208562
0.208464
0.208424
0.208503
0.208683
0.209002
0.209462
0.210091
0.2109
0.211913
0.213145
0.214618
0.216353
0.218371
0.220688
0.223318
0.226274
0.229564
0.23319
0.237149
0.241431
0.246018
0.25088
0.255981
0.261266
0.266679
0.272128
0.277547
0.28278
0.287777
0.292267
0.296281
0.299296
0.301631
0.302113
0.301969
0.29822
0.294871
0.28372
0.277247
0.251681
0.245637
0.187844
0.198744
0.0597437
0.151293
0.142298
0.163963
0.184573
0.196696
0.202713
0.206794
0.208669
0.209801
0.210057
0.210158
0.209897
0.209671
0.209344
0.20912
0.208898
0.208781
0.208725
0.20879
0.208961
0.209274
0.209731
0.210357
0.211165
0.212177
0.213408
0.214879
0.216613
0.218629
0.220944
0.223572
0.226525
0.229811
0.233433
0.237387
0.241663
0.246243
0.251096
0.256186
0.261458
0.266856
0.272287
0.277685
0.282897
0.287866
0.29233
0.296311
0.299297
0.301591
0.30205
0.301851
0.2981
0.294667
0.283571
0.276934
0.251575
0.245153
0.187945
0.197927
0.060401
0.149829
0.143758
0.16448
0.184723
0.196732
0.202804
0.206929
0.208901
0.210079
0.210396
0.210519
0.210286
0.210057
0.209731
0.209492
0.209259
0.209124
0.209053
0.209102
0.209263
0.209568
0.21002
0.210643
0.21145
0.21246
0.213689
0.21516
0.216892
0.218906
0.221219
0.223844
0.226795
0.230077
0.233694
0.237643
0.241912
0.246484
0.251327
0.256406
0.261664
0.267046
0.272459
0.277835
0.283023
0.287965
0.292402
0.296348
0.299306
0.301558
0.301994
0.30174
0.297987
0.29447
0.283432
0.27663
0.251485
0.244679
0.188073
0.197115
0.0610977
0.148344
0.145163
0.165008
0.184891
0.196787
0.202909
0.207076
0.209142
0.210368
0.210745
0.210894
0.210691
0.210464
0.21014
0.209888
0.209645
0.209494
0.209407
0.209441
0.20959
0.209885
0.210331
0.21095
0.211754
0.212763
0.213991
0.21546
0.21719
0.219203
0.221513
0.224136
0.227083
0.230361
0.233974
0.237917
0.242179
0.246742
0.251575
0.256642
0.261885
0.26725
0.272644
0.277997
0.283161
0.288074
0.292482
0.296394
0.299322
0.301532
0.301944
0.301636
0.297883
0.29428
0.283304
0.276336
0.251412
0.244215
0.18823
0.196308
0.0618334
0.146841
0.146517
0.165545
0.185075
0.19686
0.203028
0.207236
0.209391
0.210666
0.211103
0.21128
0.21111
0.210891
0.210572
0.210309
0.210058
0.209891
0.20979
0.209807
0.209943
0.210227
0.210666
0.21128
0.212081
0.213087
0.214313
0.21578
0.217509
0.219519
0.221827
0.224447
0.227391
0.230665
0.234273
0.238209
0.242464
0.247018
0.25184
0.256893
0.262121
0.267468
0.272842
0.278172
0.28331
0.288194
0.292573
0.296448
0.299347
0.301513
0.301903
0.301539
0.297786
0.294099
0.283187
0.276051
0.251355
0.243762
0.188414
0.195508
0.0626077
0.145318
0.147819
0.16609
0.185277
0.196952
0.203159
0.207407
0.209649
0.210974
0.21147
0.211679
0.211543
0.211336
0.211025
0.210755
0.210496
0.210316
0.210201
0.210203
0.210325
0.210597
0.211027
0.211635
0.212431
0.213434
0.214658
0.216123
0.217849
0.219857
0.222163
0.22478
0.22772
0.230989
0.234591
0.238521
0.242768
0.247312
0.252122
0.257161
0.262373
0.267701
0.273053
0.278358
0.283471
0.288324
0.292673
0.296512
0.29938
0.301502
0.301868
0.301449
0.297697
0.293925
0.283081
0.275776
0.251316
0.24332
0.188625
0.194713
0.0634202
0.143777
0.149074
0.166641
0.185494
0.197062
0.203303
0.207589
0.209915
0.21129
0.211846
0.212087
0.211988
0.211797
0.211499
0.211225
0.21096
0.210768
0.210642
0.210628
0.210736
0.210995
0.211415
0.212015
0.212806
0.213805
0.215026
0.216489
0.218213
0.220218
0.22252
0.225134
0.22807
0.231335
0.23493
0.238853
0.243091
0.247624
0.252422
0.257446
0.262641
0.267949
0.273279
0.278558
0.283644
0.288465
0.292783
0.296584
0.299421
0.3015
0.301842
0.301367
0.297617
0.29376
0.282985
0.275511
0.251293
0.24289
0.188863
0.193926
0.0642705
0.142218
0.150282
0.167197
0.185726
0.197188
0.20346
0.207784
0.21019
0.211616
0.212229
0.212506
0.212443
0.212272
0.21199
0.211718
0.21145
0.211248
0.211111
0.211084
0.211178
0.211424
0.211833
0.212423
0.213208
0.214201
0.215419
0.216879
0.2186
0.220602
0.222901
0.225511