/*--------------------------------*- C++ -*----------------------------------*\
| =========                 |                                                 |
| \\      /  F ield         | OpenFOAM: The Open Source CFD Toolbox           |
|  \\    /   O peration     | Version:  2.4.0                                 |
|   \\  /    A nd           | Web:      www.OpenFOAM.org                      |
|    \\/     M anipulation  |                                                 |
\*---------------------------------------------------------------------------*/
FoamFile
{
    version     2.0;
    format      ascii;
    class       volVectorField;
    location    "6.06";
    object      U;
}
// * * * * * * * * * * * * * * * * * * * * * * * * * * * * * * * * * * * * * //

dimensions      [0 1 -1 0 0 0 0];

internalField   nonuniform List<vector> 
6000
(
(0.513516 -0.043071 -6.49695e-18)
(-0.317796 0.0668561 0)
(0.11166 -0.0273542 9.75312e-18)
(0.0093145 -0.00185624 0)
(0.00585731 5.5754e-05 0)
(-0.0291963 0.00567696 0)
(-0.0148824 0.00319042 4.18202e-18)
(-0.0318874 0.00582567 1.05635e-23)
(-0.0309457 0.00581168 0)
(-0.0428875 0.0072699 0)
(-0.0474688 0.00790928 3.51828e-18)
(-0.0565143 0.00864619 -6.79649e-18)
(-0.0622265 0.0091407 0)
(-0.0700802 0.00960173 0)
(-0.0776279 0.0100968 -1.54922e-18)
(-0.0866693 0.0105226 0)
(-0.0956763 0.0108314 0)
(-0.104703 0.0109211 -1.44341e-18)
(-0.113084 0.0108038 -1.4164e-18)
(-0.120853 0.0104755 0)
(-0.127792 0.00996477 1.3746e-18)
(-0.133862 0.00929663 6.79711e-19)
(-0.139409 0.00852213 -6.7401e-19)
(-0.144407 0.00763175 0)
(-0.14882 0.00663768 0)
(-0.152606 0.00555134 0)
(-0.155714 0.0043871 3.34672e-19)
(-0.158092 0.00316039 -3.36374e-19)
(-0.159674 0.00189135 0)
(-0.160354 0.000602838 0)
(-0.159976 -0.000768086 4.34021e-20)
(-0.158609 -0.00209604 0)
(-0.156201 -0.00337574 3.59507e-19)
(-0.152679 -0.00458586 -3.67285e-19)
(-0.147971 -0.00569802 0)
(-0.141999 -0.00668222 0)
(-0.134691 -0.00750404 7.9542e-19)
(-0.125966 -0.00812999 0)
(-0.115756 -0.00851801 8.48337e-19)
(-0.103965 -0.00863443 0)
(-0.0905493 -0.00842356 0)
(-0.0753593 -0.00786024 1.89501e-18)
(-0.0584563 -0.00686216 -3.94242e-18)
(-0.0394741 -0.00542344 0)
(-0.0189304 -0.00344277 0)
(0.00434567 -0.000876897 2.22952e-18)
(0.0285065 0.00232338 0)
(0.0564569 0.00620407 0)
(0.084506 0.0108959 -4.98226e-18)
(0.118252 0.0163865 -5.17236e-18)
(0.149984 0.022893 -5.31954e-18)
(0.19147 0.0303717 -5.8882e-21)
(0.2258 0.0390491 5.563e-18)
(0.279124 0.0491281 0)
(0.312811 0.0602881 -9.47427e-21)
(0.387365 0.0743488 -5.901e-18)
(0.410509 0.0871871 4.93534e-18)
(0.530532 0.109553 5.87026e-18)
(0.517124 0.119316 1.74022e-20)
(0.759085 0.165584 0)
(0.726769 -0.108553 4.96721e-18)
(-0.209419 0.0626907 5.70248e-18)
(0.0917862 -0.0316484 -4.73136e-18)
(-0.0218046 0.00860017 -5.04917e-18)
(0.00487806 0.00144617 0)
(-0.0421602 0.00899939 0)
(-0.02404 0.00515568 -4.1147e-18)
(-0.0428617 0.00827271 7.89006e-18)
(-0.0417166 0.00826849 0)
(-0.0537636 0.00960135 0)
(-0.058487 0.0103028 -3.42239e-18)
(-0.0671128 0.0107995 3.29714e-18)
(-0.0730456 0.0113406 1.59012e-18)
(-0.080811 0.0117447 0)
(-0.0885119 0.0122945 1.49396e-18)
(-0.0972286 0.0126496 0)
(-0.105735 0.0128543 0)
(-0.113984 0.012774 0)
(-0.121565 0.0124904 0)
(-0.128538 0.0119925 0)
(-0.134841 0.0113311 1.25162e-22)
(-0.140542 0.010538 0)
(-0.145696 0.00964024 -6.38033e-19)
(-0.150255 0.00862038 0)
(-0.154183 0.00749164 0)
(-0.157436 0.00626512 3.14221e-19)
(-0.159965 0.00495592 -3.14365e-19)
(-0.161719 0.00357844 3.85125e-23)
(-0.162639 0.0021467 1.58574e-19)
(-0.162677 0.000675289 0)
(-0.161825 -0.000792617 -4.04355e-20)
(-0.159974 -0.00225571 -1.63931e-19)
(-0.157041 -0.00367841 -1.13109e-22)
(-0.152954 -0.00503359 3.39717e-19)
(-0.147638 -0.00629019 -3.46895e-19)
(-0.141017 -0.00741589 0)
(-0.133018 -0.00837286 0)
(-0.123558 -0.00912547 0)
(-0.11257 -0.00962665 0)
(-0.0999562 -0.00984187 0)
(-0.0856749 -0.00970744 -1.64795e-18)
(-0.0695729 -0.00920038 0)
(-0.0517149 -0.0082266 1.76829e-18)
(-0.031734 -0.00678322 1.83146e-18)
(-0.010115 -0.00475672 0)
(0.0142173 -0.00211849 0)
(0.0397546 0.00122725 0)
(0.0690097 0.005262 0)
(0.0987868 0.0102472 4.35359e-18)
(0.1341 0.0159969 0)
(0.168039 0.0230233 0)
(0.211418 0.0308572 -4.7471e-18)
(0.248686 0.0404232 -4.78124e-18)
(0.304296 0.050894 0)
(0.342123 0.0635657 -9.46964e-18)
(0.41923 0.0778637 0)
(0.450435 0.0938684 -8.28789e-18)
(0.571244 0.115496 -4.81907e-18)
(0.577394 0.132309 1.94456e-18)
(0.815067 0.174145 4.60485e-18)
(0.798659 -0.0913482 -3.36048e-19)
(-0.0780456 0.0481047 -5.32951e-18)
(0.0670384 -0.0277259 0)
(-0.0537315 0.0168158 5.00816e-18)
(0.00167828 0.00277128 0)
(-0.0466684 0.0104398 0)
(-0.027817 0.00625301 0)
(-0.0462303 0.00925947 -3.8416e-18)
(-0.0449467 0.0094625 0)
(-0.0564518 0.0105826 -3.45744e-18)
(-0.0609658 0.0113493 0)
(-0.0692713 0.0117004 0)
(-0.075085 0.0122829 -1.52204e-18)
(-0.0826201 0.0126811 0)
(-0.0900096 0.0132673 0)
(-0.0982693 0.0135884 0)
(-0.10628 0.0137319 0)
(-0.11405 0.013561 0)
(-0.121211 0.0131919 0)
(-0.127832 0.0126132 1.24685e-18)
(-0.133862 0.011883 -1.22322e-18)
(-0.139352 0.011028 0)
(-0.144287 0.0100669 -6.43395e-23)
(-0.148628 0.00898053 -5.88119e-19)
(-0.152338 0.00778236 0)
(-0.155373 0.00648276 -5.80849e-19)
(-0.157684 0.0050968 0)
(-0.159221 0.00363878 2.89998e-19)
(-0.159931 0.00212384 -1.4548e-19)
(-0.159764 0.000563442 0)
(-0.158685 -0.000986582 0)
(-0.156597 -0.00253392 1.49191e-19)
(-0.153423 -0.00404695 -1.13002e-22)
(-0.149091 -0.00549648 0)
(-0.143527 -0.00685044 6.25668e-19)
(-0.136655 -0.0080758 0)
(-0.128401 -0.0091337 6.52871e-19)
(-0.118684 -0.00998798 0)
(-0.107434 -0.01059 0)
(-0.0945562 -0.0109052 0)
(-0.0800072 -0.0108675 1.45449e-18)
(-0.063634 -0.0104544 0)
(-0.0454984 -0.0095687 0)
(-0.0252433 -0.00820747 -1.5943e-18)
(-0.00330938 -0.00625211 0)
(0.0212913 -0.00368626 0)
(0.0472861 -0.000380453 1.74171e-18)
(0.0768767 0.00358579 -1.79486e-18)
(0.107237 0.00857331 -1.8427e-18)
(0.142906 0.0142487 0)
(0.177623 0.0213569 0)
(0.221351 0.0290644 0)
(0.259736 0.0388759 3.95104e-18)
(0.315617 0.0490395 4.03721e-18)
(0.355181 0.0623157 3.87505e-18)
(0.432275 0.0757833 0)
(0.466227 0.093263 3.3331e-18)
(0.586306 0.112627 7.64589e-18)
(0.5971 0.132617 0)
(0.829832 0.167443 -3.53602e-18)
(0.836489 -0.0599334 -2.63412e-19)
(0.043716 0.039567 4.89872e-18)
(0.0473211 -0.0205489 -4.59656e-18)
(-0.074926 0.0221072 0)
(-0.00100771 0.00321436 0)
(-0.0483849 0.0113765 0)
(-0.0297117 0.00689608 0)
(-0.047465 0.00989257 0)
(-0.0461226 0.0102229 0)
(-0.05713 0.0112497 3.33649e-18)
(-0.0614898 0.0120464 3.17046e-18)
(-0.0695613 0.0123366 0)
(-0.0752758 0.0129485 0)
(-0.0826013 0.0133709 0)
(-0.0897057 0.0139931 1.35654e-18)
(-0.0975859 0.0143085 0)
(-0.105212 0.0144171 1.27238e-18)
(-0.112629 0.0141896 -1.23528e-18)
(-0.119485 0.0137617 0)
(-0.125848 0.0131267 -1.17268e-18)
(-0.13166 0.012346 0)
(-0.136958 0.0114421 -5.63471e-19)
(-0.141701 0.0104297 1.10956e-18)
(-0.145855 0.00928896 5.47786e-19)
(-0.149382 0.00803298 0)
(-0.152237 0.00667153 2.69309e-19)
(-0.154372 0.00521961 0)
(-0.155737 0.00369145 2.67706e-19)
(-0.15628 0.00210328 0)
(-0.155952 0.000474008 0)
(-0.154701 -0.00117039 0)
(-0.152441 -0.00280767 1.36427e-19)
(-0.149098 -0.00441499 -5.51802e-19)
(-0.144599 -0.00596357 0)
(-0.13887 -0.00742079 -2.84062e-19)
(-0.131837 -0.0087531 0)
(-0.123424 -0.00992091 -5.89818e-19)
(-0.113551 -0.0108875 0)
(-0.10215 -0.0116034 0)
(-0.0891233 -0.0120332 0)
(-0.0744285 -0.0121099 1.29569e-18)
(-0.0579134 -0.0118098 0)
(-0.0396355 -0.0110361 1.36666e-18)
(-0.0192486 -0.00978047 -1.40457e-18)
(0.00284864 -0.00792843 0)
(0.0275671 -0.0054631 -1.47916e-18)
(0.053803 -0.00224273 -3.03761e-18)
(0.0835206 0.00163134 1.55993e-18)
(0.114189 0.00655496 3.1854e-18)
(0.149958 0.0121416 -3.25391e-18)
(0.185099 0.0192237 -3.29604e-18)
(0.228862 0.026824 0)
(0.267893 0.036685 -3.34507e-18)
(0.323652 0.0466565 -3.3946e-18)
(0.364293 0.0601553 -3.2043e-18)
(0.440904 0.0731565 0)
(0.476709 0.0912478 0)
(0.595442 0.109381 -3.0857e-18)
(0.609831 0.130487 0)
(0.836737 0.160873 2.69839e-18)
(0.86151 -0.0344713 -2.46469e-19)
(0.153191 0.0356394 -8.9871e-20)
(0.054267 -0.0147662 4.55571e-18)
(-0.0862534 0.0249951 4.95477e-18)
(-0.00335411 0.00312759 0)
(-0.0490628 0.012108 -4.20722e-18)
(-0.0307295 0.00732899 0)
(-0.0478458 0.0103936 0)
(-0.0464354 0.0107934 0)
(-0.0570014 0.0117982 3.23138e-18)
(-0.0612248 0.0126046 -3.06079e-18)
(-0.0690975 0.0128733 0)
(-0.0747159 0.0135059 0)
(-0.0818408 0.0139614 0)
(-0.0886764 0.0146157 -1.29856e-18)
(-0.0962133 0.0149346 0)
(-0.103501 0.0150182 -1.21322e-18)
(-0.11061 0.0147478 1.17529e-18)
(-0.117201 0.014272 0)
(-0.123334 0.0135902 0)
(-0.128944 0.0127655 5.42589e-19)
(-0.134056 0.0118172 5.31537e-19)
(-0.138616 0.0107571 -1.04469e-18)
(-0.142594 0.00956542 -5.14788e-19)
(-0.145949 0.00825473 0)
(-0.148637 0.00683425 2.52131e-19)
(-0.15061 0.00531888 0)
(-0.151818 0.00372278 -2.49771e-19)
(-0.152211 0.00206227 1.24785e-19)
(-0.151736 0.000356968 0)
(-0.150335 -0.00137144 0)
(-0.147927 -0.00309863 -2.52715e-19)
(-0.144441 -0.00480121 2.55048e-19)
(-0.139805 -0.00645019 0)
(-0.133944 -0.00801257 -2.61353e-19)
(-0.126783 -0.00945434 0)
(-0.118248 -0.0107353 5.40286e-19)
(-0.108259 -0.0118182 0)
(-0.0967475 -0.0126528 0)
(-0.083616 -0.0132027 0)
(-0.068822 -0.0134009 -1.17767e-18)
(-0.0522142 -0.0132209 -1.20501e-18)
(-0.0338459 -0.0125686 -1.23588e-18)
(-0.0133814 -0.011428 1.54209e-21)
(0.00881958 -0.00969207 -1.29478e-18)
(0.0335985 -0.00733866 1.32601e-18)
(0.0599837 -0.00422463 2.70957e-18)
(0.0897494 -0.000454326 0)
(0.120609 0.0043745 -1.41134e-18)
(0.156387 0.00986453 2.87484e-18)
(0.191803 0.0168688 2.89932e-18)
(0.235497 0.0243699 0)
(0.274973 0.0341837 0)
(0.330497 0.0440191 0)
(0.37193 0.0575417 2.75606e-18)
(0.447951 0.0702628 0)
(0.485211 0.0885313 0)
(0.602523 0.105938 2.55405e-18)
(0.619948 0.127241 -9.22077e-19)
(0.841331 0.154533 -2.20529e-18)
(0.880293 -0.0137336 -2.28011e-19)
(0.250948 0.0348617 -4.51073e-18)
(0.0816183 -0.00990473 0)
(-0.0885135 0.0268306 -4.93263e-18)
(-0.00564685 0.00282307 -4.44014e-18)
(-0.0492433 0.0127156 2.79019e-22)
(-0.0312178 0.00762937 0)
(-0.0477652 0.0108198 0)
(-0.046258 0.0112473 0)
(-0.0564261 0.0122743 -3.14199e-18)
(-0.0605135 0.0130799 0)
(-0.0682047 0.013349 0)
(-0.073723 0.0139957 1.35103e-18)
(-0.0806514 0.0144851 0)
(-0.087227 0.0151662 0)
(-0.0944403 0.0154924 0)
(-0.101411 0.0155566 0)
(-0.108234 0.0152519 -1.12547e-18)
(-0.114576 0.0147353 0)
(-0.12049 0.0140128 1.06003e-18)
(-0.125904 0.0131484 -5.16656e-19)
(-0.130831 0.0121586 -5.05343e-19)
(-0.135211 0.0110532 9.91467e-19)
(-0.139015 0.00981303 9.75548e-19)
(-0.142202 0.00844991 0)
(-0.144729 0.00697256 -2.38192e-19)
(-0.146545 0.00539578 0)
(-0.147603 0.00373364 0)
(-0.147851 0.00200235 -2.3478e-19)
(-0.147235 0.000221149 0)
(-0.145694 -0.00158896 0)
(-0.143151 -0.00340471 2.36651e-19)
(-0.139536 -0.00520154 0)
(-0.134776 -0.00695018 0)
(-0.128798 -0.00861725 2.4371e-19)
(-0.121526 -0.0101683 0)
(-0.112888 -0.0115627 -5.02207e-19)
(-0.102803 -0.0127623 0)
(-0.0912018 -0.0137166 0)
(-0.0779884 -0.014388 0)
(-0.0631199 -0.0147096 0)
(-0.0464457 -0.0146519 1.11015e-18)
(-0.0280149 -0.014124 1.13392e-18)
(-0.00750175 -0.0131023 1.28887e-21)
(0.0147695 -0.0114875 1.18513e-18)
(0.0395777 -0.00925099 1.2076e-18)
(0.0660588 -0.00625328 -1.23297e-18)
(0.0958313 -0.0025923 0)
(0.126814 0.00212627 -1.27298e-18)
(0.162556 0.00751567 1.2918e-18)
(0.19816 0.0144153 -2.59441e-18)
(0.241737 0.0218213 0)
(0.281542 0.0315362 0)
(0.336791 0.0412656 -2.5825e-18)
(0.378847 0.0547026 -2.41023e-18)
(0.454258 0.0672471 2.44766e-18)
(0.492733 0.0854533 1.95068e-18)
(0.608656 0.102416 -2.21088e-18)
(0.628727 0.123438 7.87905e-19)
(0.844974 0.148462 0)
(0.895361 0.00501015 -2.04972e-19)
(0.337846 0.0365281 0)
(0.120464 -0.00464476 4.34842e-18)
(-0.0789677 0.0276367 4.8694e-18)
(-0.00785054 0.00258622 -5.04474e-22)
(-0.0491256 0.013213 4.10655e-18)
(-0.0313219 0.00783318 0)
(-0.047379 0.0111904 0)
(-0.0457433 0.0116169 0)
(-0.0555487 0.0126954 1.53378e-18)
(-0.0594941 0.0134958 1.44514e-18)
(-0.0670132 0.0137788 0)
(-0.072425 0.0144348 -1.31031e-18)
(-0.0791596 0.0149559 1.25715e-18)
(-0.0854806 0.0156587 0)
(-0.0923828 0.0159935 0)
(-0.0990493 0.0160427 0)
(-0.105595 0.0157097 -1.05993e-22)
(-0.111697 0.0151577 0)
(-0.117396 0.014399 -2.03454e-18)
(-0.122613 0.0134977 4.95138e-19)
(-0.127353 0.0124686 4.83529e-19)
(-0.131553 0.0113199 1.05125e-23)
(-0.135185 0.0100332 -4.65477e-19)
(-0.138205 0.00861947 0)
(-0.14057 0.0070871 0)
(-0.142232 0.00545072 0)
(-0.143141 0.00372431 1.11708e-19)
(-0.143247 0.00192389 2.22723e-19)
(-0.142493 6.81203e-05 0)
(-0.140816 -0.00182237 0)
(-0.138144 -0.00372504 -2.23683e-19)
(-0.134406 -0.00561459 -1.12522e-19)
(-0.129529 -0.00746144 0)
(-0.123443 -0.00923192 0)
(-0.116071 -0.0108911 0)
(-0.10734 -0.0123979 0)
(-0.0971694 -0.0137135 0)
(-0.0854923 -0.014787 0)
(-0.0722112 -0.0155796 0)
(-0.0572835 -0.0160247 0)
(-0.0405594 -0.0160897 0)
(-0.0220842 -0.0156872 -9.85759e-22)
(-0.0015409 -0.0147861 1.0784e-18)
(0.0207776 -0.0132947 0)
(0.0455942 -0.0111779 -2.23685e-18)
(0.072135 -0.00830175 -1.13686e-18)
(0.101888 -0.00475341 0)
(0.132948 -0.000153814 1.17145e-18)
(0.168627 0.00513189 -1.18559e-18)
(0.204358 0.0119115 2.37393e-18)
(0.247794 0.019223 -2.38132e-18)
(0.287845 0.0288094 0)
(0.342802 0.0384473 7.51268e-21)
(0.385364 0.0517359 2.17172e-18)
(0.460173 0.0641591 -4.38283e-18)
(0.499688 0.0821663 -1.33495e-20)
(0.614281 0.0988399 -1.93543e-18)
(0.636689 0.119323 6.53647e-19)
(0.848158 0.14261 1.58636e-18)
(0.907669 0.0223006 -9.70668e-19)
(0.414786 0.0400891 0)
(0.16666 0.00130736 9.93988e-21)
(-0.0574009 0.0278078 -3.28594e-21)
(-0.00940386 0.0026402 4.46829e-18)
(-0.0487812 0.0136085 4.08205e-18)
(-0.031107 0.00795917 0)
(-0.0467583 0.0115146 3.45255e-18)
(-0.0449651 0.0119196 0)
(-0.0544381 0.0130707 -1.50263e-18)
(-0.0582325 0.0138647 6.15008e-23)
(-0.0655852 0.014171 -1.34008e-18)
(-0.0708834 0.0148324 0)
(-0.0774263 0.015382 -2.44479e-18)
(-0.083497 0.0161016 0)
(-0.0900971 0.0164454 0)
(-0.0964666 0.0164828 0)
(-0.102742 0.0161267 1.04776e-18)
(-0.108604 0.0155435 0)
(-0.114088 0.0147519 9.81248e-19)
(-0.119106 0.0138162 -9.53997e-19)
(-0.123657 0.0127495 0)
(-0.127676 0.0115592 2.71887e-24)
(-0.131133 0.0102275 0)
(-0.133985 0.00876481 0)
(-0.136189 0.00717902 -2.17208e-19)
(-0.137695 0.00548463 0)
(-0.138455 0.00369554 -2.13649e-19)
(-0.138418 0.0018275 -1.06399e-19)
(-0.137526 -0.000101384 -2.65435e-20)
(-0.135716 -0.00207103 2.65531e-20)
(-0.132917 -0.00405909 1.06547e-19)
(-0.129059 -0.00603981 2.14184e-19)
(-0.124071 -0.00798336 0)
(-0.117881 -0.00985579 2.17849e-19)
(-0.110413 -0.0116217 0)
(-0.101596 -0.0132397 0)
(-0.0913486 -0.0146702 0)
(-0.0796037 -0.0158619 4.61064e-19)
(-0.0662646 -0.0167749 0)
(-0.0512884 -0.017343 0)
(-0.0345262 -0.0175305 9.74398e-19)
(-0.0160195 -0.0172534 -9.94133e-19)
(0.00454062 -0.0164739 0)
(0.0268884 -0.015107 0)
(0.051698 -0.0131114 1.04797e-18)
(0.0782708 -0.0103599 1.06399e-18)
(0.107986 -0.00692629 -1.07819e-18)
(0.139087 -0.00245106 0)
(0.174683 0.00272871 0)
(0.210495 0.00937854 0)
(0.253775 0.0165953 5.12096e-21)
(0.294009 0.0260342 0)
(0.348669 0.0355889 2.14362e-18)
(0.391644 0.048689 0)
(0.465868 0.0610247 1.99588e-18)
(0.506286 0.0787464 -1.56523e-18)
(0.619613 0.0952267 3.48921e-18)
(0.644097 0.11502 -5.85861e-19)
(0.851101 0.136948 -1.4195e-18)
(0.917704 0.0379329 1.7098e-19)
(0.482644 0.0450084 -3.9318e-18)
(0.217442 0.00791861 -4.10711e-18)
(-0.026833 0.0281245 -3.27635e-21)
(-0.00911741 0.00313923 -4.48268e-18)
(-0.0481932 0.0139306 -4.07724e-18)
(-0.0305974 0.00801862 0)
(-0.0459352 0.0117976 -3.41434e-18)
(-0.0439605 0.0121652 0)
(-0.0531294 0.0134058 -1.4771e-18)
(-0.0567631 0.0141932 -1.38513e-18)
(-0.0639529 0.0145304 1.31176e-18)
(-0.0691307 0.0151938 -1.24712e-18)
(-0.075484 0.0157682 1.1929e-18)
(-0.081308 0.0165 -1.14374e-18)
(-0.087613 0.0168529 1.09883e-18)
(-0.0936904 0.0168812 0)
(-0.0996968 0.0165061 0)
(-0.105319 0.0158954 0)
(-0.110587 0.0150738 4.7536e-19)
(-0.115403 0.0141055 4.61622e-19)
(-0.119762 0.0130028 0)
(-0.123596 0.0117723 -4.39692e-19)
(-0.126876 0.0103971 0)
(-0.129557 0.00888679 0)
(-0.131597 0.00724899 2.09236e-19)
(-0.132946 0.00549802 -2.07028e-19)
(-0.133555 0.00364766 1.02741e-19)
(-0.133373 0.00171336 0)
(-0.132342 -0.000287298 5.09791e-20)
(-0.130399 -0.00233478 -5.09575e-20)
(-0.127474 -0.00440673 0)
(-0.123498 -0.0064771 -1.02598e-19)
(-0.1184 -0.00851585 2.06507e-19)
(-0.112109 -0.0104887 -2.08419e-19)
(-0.10455 -0.01236 0)
(-0.0956509 -0.0140877 0)
(-0.0853311 -0.0156318 0)
(-0.0735247 -0.0169406 -4.39655e-19)
(-0.0601344 -0.0179728 0)
(-0.0451177 -0.0186631 0)
(-0.0283265 -0.0189724 -9.26593e-19)
(-0.00979819 -0.0188204 0)
(0.0107679 -0.0181629 9.59439e-19)
(0.0331301 -0.016921 -9.74527e-19)
(0.0579198 -0.0150475 0)
(0.0845023 -0.0124224 1.00301e-18)
(0.114164 -0.00910499 2.03325e-18)
(0.145279 -0.00475771 -1.02348e-18)
(0.180776 0.00031439 0)
(0.216632 0.00682773 0)
(0.259743 0.0139492 1.03125e-18)
(0.300108 0.0232275 0)
(0.354469 0.0327036 1.98421e-18)
(0.397783 0.0455877 0)
(0.471439 0.0578578 1.83145e-18)
(0.512646 0.0752347 1.42003e-18)
(0.624765 0.0915861 -1.59666e-18)
(0.651101 0.110594 0)
(0.853917 0.131455 1.26947e-18)
(0.925876 0.051913 2.64841e-19)
(0.542267 0.0508359 7.39879e-20)
(0.270642 0.0150758 4.0154e-18)
(0.0107531 0.0290737 -3.44313e-21)
(-0.00583807 0.00417023 -5.92747e-22)
(-0.0472373 0.014232 0)
(-0.0297889 0.00802048 0)
(-0.0449197 0.0120424 0)
(-0.0427464 0.01236 -1.55796e-18)
(-0.0516397 0.0137039 2.91255e-18)
(-0.0551035 0.0144855 0)
(-0.0621331 0.0148596 1.28821e-18)
(-0.0671841 0.0155222 -5.21029e-23)
(-0.0733499 0.0161179 -1.16795e-18)
(-0.0789309 0.0168576 -5.67363e-23)
(-0.0849472 0.0172191 -1.07301e-18)
(-0.0907358 0.0172405 0)
(-0.0964743 0.0168499 0)
(-0.101856 0.0162149 0)
(-0.106903 0.0153657 -4.6227e-19)
(-0.111514 0.0143666 0)
(-0.115677 0.0132293 4.36616e-19)
(-0.119323 0.0119599 4.2643e-19)
(-0.122422 0.0105424 -4.17824e-19)
(-0.124929 0.00898577 0)
(-0.126802 0.00729725 0)
(-0.12799 0.00549102 2.0022e-19)
(-0.128446 0.0035807 0)
(-0.128117 0.00158145 9.87331e-20)
(-0.126946 -0.000489719 -2.46027e-20)
(-0.124868 -0.00261368 2.45763e-20)
(-0.121817 -0.00476805 -9.84181e-20)
(-0.117723 -0.00692654 0)
(-0.112516 -0.00905895 -1.98844e-19)
(-0.106125 -0.0111308 0)
(-0.0984763 -0.0131058 0)
(-0.089498 -0.0149418 4.09735e-19)
(-0.0791097 -0.0165979 0)
(-0.0672461 -0.0180225 0)
(-0.0538101 -0.0191727 0)
(-0.0387594 -0.0199841 0)
(-0.0219464 -0.0204145 0)
(-0.00340471 -0.0203868 0)
(0.0171581 -0.0198512 -1.83279e-18)
(0.0395218 -0.0187345 9.30363e-19)
(0.0642805 -0.0169834 9.4294e-19)
(0.0908537 -0.0144857 -1.90981e-18)
(0.120449 -0.0112854 -9.66472e-19)
(0.151552 -0.00706851 9.72183e-19)
(0.186939 -0.00210554 -9.76323e-19)
(0.222807 0.00426649 0)
(0.265739 0.0112917 2.03383e-21)
(0.306192 0.0203999 -1.87653e-18)
(0.360251 0.0298 -1.86663e-18)
(0.40384 0.042448 -1.70236e-18)
(0.476945 0.0546669 -3.42036e-18)
(0.518843 0.0716562 -1.3229e-18)
(0.629808 0.0879241 1.46601e-18)
(0.657797 0.106084 4.55525e-19)
(0.85667 0.126112 -1.17244e-18)
(0.932556 0.0644435 -1.49132e-19)
(0.594457 0.0572278 3.75415e-18)
(0.324571 0.0226537 2.39155e-21)
(0.0545042 0.0307237 -3.82264e-21)
(0.00146974 0.00607352 4.41585e-18)
(-0.0456236 0.0145829 4.1226e-18)
(-0.0286494 0.00797609 -3.67851e-18)
(-0.0437048 0.0122515 1.68546e-18)
(-0.041326 0.0125078 -5.00693e-23)
(-0.049975 0.0139673 -1.43979e-18)
(-0.0532611 0.0147438 -1.3442e-18)
(-0.0601332 0.0151603 -1.26853e-18)
(-0.0650518 0.0158197 2.40421e-18)
(-0.0710329 0.0164331 -5.4331e-23)
(-0.0763747 0.0171766 1.09644e-18)
(-0.0821081 0.017546 0)
(-0.0876106 0.0175621 1.00829e-18)
(-0.0930812 0.0171592 0)
(-0.0982194 0.0165027 -9.33602e-19)
(-0.103043 0.0156283 -4.51055e-19)
(-0.107444 0.0145999 -4.37248e-19)
(-0.111407 0.0134292 -2.9289e-24)
(-0.11486 0.0121222 -4.15087e-19)
(-0.117775 0.0106636 4.06434e-19)
(-0.120105 0.00906184 0)
(-0.121807 0.00732382 -1.96671e-19)
(-0.122831 0.00546355 0)
(-0.123131 0.00349454 0)
(-0.122652 0.00143158 -9.57794e-20)
(-0.121337 -0.000708833 0)
(-0.119124 -0.0029079 0)
(-0.115945 -0.00514322 9.5318e-20)
(-0.111732 -0.00738831 0)
(-0.106415 -0.00961279 0)
(-0.0999256 -0.0117819 1.93724e-19)
(-0.0921879 -0.0138591 0)
(-0.0831322 -0.0158018 -3.95798e-19)
(-0.072678 -0.0175685 0)
(-0.0607607 -0.0191073 4.06508e-19)
(-0.0472833 -0.0203742 0)
(-0.0322038 -0.0213053 0)
(-0.0153752 -0.0218557 0)
(0.00317258 -0.0219514 0)
(0.0237237 -0.0215376 8.80631e-19)
(0.0460774 -0.0205455 0)
(0.0707948 -0.018917 -1.80935e-18)
(0.0973421 -0.0165472 9.15109e-19)
(0.126859 -0.0134646 -9.23445e-19)
(0.15793 -0.00937968 9.27379e-19)
(0.193194 -0.00452709 9.32678e-19)
(0.229045 0.00170011 0)
(0.271789 0.00862772 9.21948e-19)
(0.312292 0.0175587 2.67296e-18)
(0.366048 0.0268837 -1.76099e-18)
(0.409855 0.0392806 1.61066e-18)
(0.482425 0.0514578 1.61153e-18)
(0.524925 0.0680279 0)
(0.634786 0.0842446 -1.37623e-18)
(0.66425 0.101517 -8.40374e-19)
(0.8594 0.120905 0)
(0.938054 0.0757271 3.32156e-19)
(0.63997 0.0639182 0)
(0.377899 0.0305291 1.20829e-22)
(0.102597 0.0332396 -4.31879e-21)
(0.0155969 0.00843749 -4.33866e-18)
(-0.0427799 0.0150861 -8.32051e-18)
(-0.0271068 0.00790571 7.39207e-18)
(-0.0422676 0.0124269 -1.68241e-18)
(-0.0396918 0.0126114 1.53603e-18)
(-0.0481326 0.0141972 0)
(-0.0512359 0.0149694 -3.99448e-23)
(-0.0579543 0.0154332 0)
(-0.0627359 0.0160875 -2.36998e-18)
(-0.0685355 0.0167155 1.12877e-18)
(-0.0736426 0.0174588 0)
(-0.0790988 0.0178351 0)
(-0.0843178 0.0178474 -9.89122e-19)
(-0.0895203 0.0174349 0)
(-0.0944124 0.0167595 9.14282e-19)
(-0.0990088 0.0158617 4.41376e-19)
(-0.103195 0.0148055 -6.64133e-25)
(-0.106953 0.0136028 -4.15585e-19)
(-0.11021 0.0122592 -4.05308e-19)
(-0.112936 0.0107607 0)
(-0.115084 0.00911492 0)
(-0.116612 0.00732855 1.91734e-19)
(-0.117469 0.00541543 0)
(-0.117608 0.00338894 9.38175e-20)
(-0.116976 0.0012635 -9.32206e-20)
(-0.115516 -0.000944887 2.31969e-20)
(-0.113164 -0.0032177 -2.31477e-20)
(-0.109855 -0.00553248 9.26271e-20)
(-0.105522 -0.00786263 -9.28851e-20)
(-0.100096 -0.0101776 1.8671e-19)
(-0.0935066 -0.0124424 -1.88115e-19)
(-0.0856807 -0.0146201 0)
(-0.0765487 -0.0166678 0)
(-0.0660306 -0.0185434 0)
(-0.0540623 -0.0201948 -1.74781e-22)
(-0.0405472 -0.0215768 3.99727e-19)
(-0.0254434 -0.0226263 0)
(-0.00860474 -0.0232955 0)
(0.00994266 -0.0235135 0)
(0.0304744 -0.0232208 0)
(0.0528074 -0.0223529 0)
(0.077474 -0.0208467 7.43554e-22)
(0.10398 -0.0186047 0)
(0.133408 -0.0156402 1.77806e-18)
(0.164426 -0.0116884 -1.78355e-18)
(0.199556 -0.00694728 -8.93788e-19)
(0.235366 -0.000867577 0)
(0.277913 0.00596109 0)
(0.31843 0.0147093 -1.7002e-18)
(0.371881 0.0239592 4.37535e-21)
(0.415858 0.0360934 -1.52381e-18)
(0.487903 0.0482347 1.52162e-18)
(0.530929 0.0643617 1.15638e-18)
(0.639726 0.0805511 -1.28783e-18)
(0.670505 0.0969115 7.72956e-19)
(0.862134 0.115823 1.00814e-18)
(0.942622 0.0859133 1.31892e-19)
(0.679513 0.070698 -3.48405e-18)
(0.42961 0.0385871 -7.552e-18)
(0.153578 0.036676 -4.94593e-21)
(0.0366372 0.011231 4.2474e-18)
(-0.0376633 0.0158774 4.18933e-18)
(-0.0250227 0.00784866 -1.8621e-18)
(-0.0405657 0.0125722 0)
(-0.0378253 0.012673 0)
(-0.0461026 0.0143946 1.41864e-18)
(-0.0490221 0.0151632 1.31823e-18)
(-0.0555921 0.015679 0)
(-0.0602337 0.0163264 1.1709e-18)
(-0.065856 0.0169661 0)
(-0.0707334 0.0177056 0)
(-0.0759188 0.0180876 0)
(-0.080857 0.0180971 0)
(-0.0857912 0.0176773 9.33365e-19)
(-0.0904345 0.0169854 4.48842e-19)
(-0.0947997 0.0160662 -4.33044e-19)
(-0.0987677 0.0149836 1.69041e-24)
(-0.102316 0.0137499 0)
(-0.105372 0.0123709 3.96898e-19)
(-0.107905 0.0108335 0)
(-0.109867 0.00914485 0)
(-0.111216 0.00731125 1.87443e-19)
(-0.111902 0.00534644 -1.85084e-19)
(-0.111877 0.00326364 -9.16669e-20)
(-0.111089 0.00107693 9.10529e-20)
(-0.10948 -0.00119817 -4.52891e-20)
(-0.106987 -0.00354336 4.51756e-20)
(-0.103547 -0.00593614 -9.03641e-20)
(-0.0990917 -0.00834978 9.05834e-20)
(-0.093554 -0.0107536 -5.35766e-23)
(-0.0868647 -0.0131124 -1.83205e-19)
(-0.0789506 -0.0153889 0)
(-0.0697431 -0.0175399 0)
(-0.0591625 -0.0195227 0)
(-0.0471456 -0.021285 -7.6638e-19)
(-0.0335959 -0.0227804 -3.88824e-19)
(-0.0184718 -0.0239468 0)
(-0.00162814 -0.0247335 0)
(0.0169128 -0.0250725 -8.12802e-19)
(0.0374178 -0.0249001 0)
(0.0597203 -0.0241557 0)
(0.0843267 -0.0227712 1.6898e-18)
(0.110778 -0.0206569 -8.5224e-19)
(0.140106 -0.0178106 -1.71923e-18)
(0.171054 -0.0139926 1.02864e-21)
(0.206039 -0.00936389 1.72579e-18)
(0.241784 -0.00343366 8.52455e-19)
(0.284124 0.00329455 0)
(0.324626 0.0118557 8.17121e-19)
(0.377767 0.0210295 1.61248e-18)
(0.421868 0.0328921 1.46138e-18)
(0.493398 0.0450009 -1.45695e-18)
(0.536879 0.0606664 -1.10404e-18)
(0.644649 0.076846 1.22761e-18)
(0.676599 0.0922811 -3.62617e-19)
(0.864888 0.110856 -9.57732e-19)
(0.946467 0.0951239 1.24653e-19)
(0.71375 0.0774075 3.45412e-18)
(0.478949 0.0467171 3.6594e-21)
(0.206274 0.0409846 -5.65132e-21)
(0.0636867 0.0147296 0)
(-0.0286389 0.0168904 0)
(-0.0221481 0.00787291 2.53454e-22)
(-0.0385295 0.0126945 0)
(-0.0356955 0.012695 0)
(-0.0438674 0.0145604 4.86261e-23)
(-0.0466082 0.0153254 0)
(-0.0530382 0.0158978 0)
(-0.0575387 0.0165371 1.15962e-18)
(-0.0629892 0.0171858 0)
(-0.0676429 0.0179179 0)
(-0.0725641 0.0183044 0)
(-0.0772249 0.0183118 0)
(-0.0818909 0.0178869 2.05861e-23)
(-0.086283 0.0171804 -4.41694e-19)
(-0.0904134 0.0162417 8.51725e-19)
(-0.0941587 0.015134 3.14661e-24)
(-0.0974938 0.0138705 3.9994e-19)
(-0.100344 0.0124572 0)
(-0.10268 0.010882 3.8084e-19)
(-0.104452 0.00915143 0)
(-0.105618 0.00727167 -1.83774e-19)
(-0.106129 0.00525629 2.32593e-23)
(-0.105936 0.00311834 0)
(-0.104988 0.000871552 0)
(-0.103226 -0.00146901 4.36877e-24)
(-0.10059 -0.00388521 -4.84031e-24)
(-0.0970155 -0.0063545 4.41862e-20)
(-0.0924369 -0.00885009 0)
(-0.0867866 -0.0113411 -1.77935e-19)
(-0.0799963 -0.0137923 1.79095e-19)
(-0.0719939 -0.0161658 0)
(-0.0627112 -0.0184183 -3.64806e-19)
(-0.0520693 -0.0205064 0)
(-0.0400058 -0.022378 1.42456e-22)
(-0.0264243 -0.0239852 0)
(-0.0112837 -0.0252667 3.84792e-19)
(0.00556038 -0.0261696 3.90447e-19)
(0.0240888 -0.0266281 4.18891e-22)
(0.0445602 -0.026575 -8.02387e-19)
(0.0668228 -0.0259532 0)
(0.0913602 -0.0246897 -6.10279e-22)
(0.117744 -0.0227025 8.28916e-19)
(0.146961 -0.0199745 8.05334e-22)
(0.177823 -0.0162907 8.3601e-19)
(0.212651 -0.0117752 -1.0715e-21)
(0.24831 -0.00599591 -1.27083e-21)
(0.290434 0.000630311 0)
(0.330891 0.00900112 0)
(0.383717 0.0180973 0)
(0.427903 0.0296811 0)
(0.498924 0.0417587 0)
(0.542795 0.056949 1.04734e-18)
(0.649571 0.0731318 0)
(0.682559 0.0876358 0)
(0.867676 0.105993 -9.02956e-19)
(0.94976 0.103472 -4.86053e-19)
(0.7433 0.0839313 0)
(0.525372 0.0548125 5.15045e-21)
(0.259692 0.0460599 -6.37802e-21)
(0.0961413 0.0189846 0)
(-0.0143642 0.018174 2.07563e-18)
(-0.0180682 0.00806566 -1.90032e-18)
(-0.0360486 0.0128079 0)
(-0.0332566 0.012681 0)
(-0.0414002 0.0146957 -1.41168e-18)
(-0.0439765 0.0154565 0)
(-0.0502793 0.0160897 0)
(-0.0546402 0.0167198 -1.15081e-18)
(-0.059926 0.0173754 0)
(-0.0643632 0.0180968 -1.03833e-18)
(-0.0690283 0.0184863 0)
(-0.0734157 0.018492 0)
(-0.0778145 0.0180637 1.81949e-23)
(-0.0819535 0.0173448 0)
(-0.0858459 0.0163882 -4.19701e-19)
(-0.0893644 0.0152565 4.05768e-19)
(-0.0924819 0.0139644 -7.87404e-19)
(-0.0951232 0.0125178 3.8333e-19)
(-0.0972567 0.0109058 -3.74553e-19)
(-0.0988346 0.0091344 0)
(-0.0998138 0.00720956 -1.80566e-19)
(-0.100145 0.00514469 3.56353e-19)
(-0.0997812 0.00295273 0)
(-0.0986692 0.000647035 -4.37559e-20)
(-0.0967526 -0.00175774 2.1754e-20)
(-0.0939701 -0.00424359 -2.16857e-20)
(-0.0902589 -0.00678792 -4.33455e-20)
(-0.0855546 -0.00936388 0)
(-0.0797899 -0.0119405 -1.74366e-19)
(-0.0728978 -0.0144822 1.75452e-19)
(-0.0648065 -0.016951 0)
(-0.0554491 -0.0193033 3.57417e-19)
(-0.0447469 -0.0214949 0)
(-0.0326384 -0.0234738 3.66163e-19)
(-0.0190278 -0.025191 0)
(-0.00387407 -0.026586 -3.7654e-19)
(0.0129658 -0.0276036 -3.81863e-19)
(0.031476 -0.0281801 3.79354e-22)
(0.0519071 -0.0282452 7.84182e-19)
(0.0741208 -0.0277448 0)
(0.0985804 -0.0266015 -8.02086e-19)
(0.124885 -0.0247408 0)
(0.153981 -0.0221309 8.13812e-19)
(0.184741 -0.0185813 0)
(0.219401 -0.0141797 -8.14038e-19)
(0.254953 -0.00855252 -1.60483e-18)
(0.29685 -0.00202987 0)
(0.337236 0.0061479 0)
(0.389742 0.0151645 0)
(0.433973 0.026464 6.75558e-19)
(0.504491 0.0385104 0)
(0.548693 0.0532147 -5.77701e-21)
(0.654501 0.0694105 0)
(0.688407 0.0829833 3.12099e-19)
(0.870506 0.101229 8.68195e-19)
(0.952638 0.111062 0)
(0.768742 0.0901908 3.25454e-18)
(0.568519 0.0627736 3.60554e-18)
(0.312967 0.0517667 -7.07384e-21)
(0.133253 0.0239441 0)
(0.00551089 0.0198552 -2.04548e-18)
(-0.0121963 0.00852046 0)
(-0.0329477 0.0129374 1.71855e-18)
(-0.0304424 0.0126367 1.54306e-18)
(-0.0386637 0.0148019 1.41334e-18)
(-0.0411026 0.0155567 1.30303e-18)
(-0.0472971 0.0162548 1.21778e-18)
(-0.051524 0.0168748 0)
(-0.0566543 0.0175356 0)
(-0.060884 0.0182431 1.02957e-18)
(-0.0653018 0.0186341 0)
(-0.0694213 0.0186383 0)
(-0.0735545 0.018208 -8.96939e-19)
(-0.0774394 0.0174784 0)
(-0.0810911 0.0165054 -4.14448e-19)
(-0.0843795 0.0153512 0)
(-0.0872757 0.0140314 3.88347e-19)
(-0.0897038 0.0125526 -3.77944e-19)
(-0.0916316 0.0109048 0)
(-0.0930112 0.00909352 0)
(-0.0937996 0.00712462 1.77611e-23)
(-0.093948 0.00501134 -1.75414e-19)
(-0.0934089 0.0027665 0)
(-0.09213 0.000403054 4.30541e-20)
(-0.0900548 -0.00206468 2.13916e-20)
(-0.0871231 -0.00461882 -2.13182e-20)
(-0.083273 -0.00723673 0)
(-0.0784408 -0.00989151 0)
(-0.0725604 -0.012552 4.23899e-23)
(-0.0655653 -0.0151826 -4.51138e-23)
(-0.0573849 -0.0177449 0)
(-0.0479528 -0.020195 0)
(-0.0371913 -0.0224884 3.54796e-19)
(-0.0250396 -0.0245728 0)
(-0.0114024 -0.0263981 0)
(0.00376121 -0.0279048 0)
(0.0205924 -0.0290354 0)
(0.0390786 -0.0297283 7.58381e-19)
(0.0594629 -0.0299103 7.67757e-19)
(0.081619 -0.0295301 0)
(0.105992 -0.0285061 0)
(0.132205 -0.026771 7.90178e-19)
(0.16117 -0.0242789 0)
(0.191813 -0.0208634 0)