/*--------------------------------*- C++ -*----------------------------------*\
| =========                 |                                                 |
| \\      /  F ield         | OpenFOAM: The Open Source CFD Toolbox           |
|  \\    /   O peration     | Version:  2.4.0                                 |
|   \\  /    A nd           | Web:      www.OpenFOAM.org                      |
|    \\/     M anipulation  |                                                 |
\*---------------------------------------------------------------------------*/
FoamFile
{
    version     2.0;
    format      ascii;
    class       volScalarField;
    location    "3.13";
    object      epsilon;
}
// * * * * * * * * * * * * * * * * * * * * * * * * * * * * * * * * * * * * * //

dimensions      [0 2 -3 0 0 0 0];

internalField   nonuniform List<scalar> 
6000
(
54.1742
1.09686
0.0203839
0.134366
0.0725973
0.0865402
0.0619443
0.0580609
0.046715
0.0425838
0.0371672
0.0351355
0.0337587
0.0344264
0.0355058
0.0365162
0.035979
0.0338007
0.0307908
0.0288106
0.0295854
0.0349536
0.0474372
0.0704426
0.107317
0.159989
0.228121
0.309303
0.3997
0.494488
0.587779
0.672212
0.738483
0.775173
0.769152
0.709787
0.59352
0.431458
0.254232
0.108115
0.11418
0.292846
0.577476
0.938474
1.32963
1.70498
2.02837
2.28451
2.46913
2.61314
2.71999
2.88112
3.02745
3.44428
3.72904
4.96535
5.32881
9.27414
8.93399
22.0533
17.7233
0.975203
0.0254291
0.0741632
0.041849
0.0474936
0.0345473
0.031877
0.0258026
0.0233406
0.0203865
0.0191425
0.0182912
0.018448
0.0188085
0.0191114
0.0186769
0.0174866
0.0159573
0.0149934
0.0154405
0.0181586
0.0242002
0.0347583
0.0506922
0.072096
0.0982289
0.127802
0.159297
0.191092
0.221408
0.248138
0.268689
0.279816
0.27798
0.260006
0.224301
0.17276
0.11241
0.0571715
0.0672582
0.137777
0.237019
0.354433
0.477629
0.595279
0.698636
0.784157
0.850965
0.907759
0.956269
1.02344
1.09182
1.24742
1.37604
1.80879
2.00291
3.33003
3.41211
7.66209
7.13608
0.711052
0.0303505
0.0435151
0.0253047
0.0273663
0.0201709
0.0183419
0.0149321
0.0134243
0.0117512
0.0109903
0.0104786
0.0104953
0.010624
0.0107145
0.0104377
0.00980067
0.00903768
0.00863114
0.00905203
0.0107717
0.0143042
0.0201102
0.0283579
0.0388048
0.0508851
0.0639077
0.0772005
0.0901432
0.102121
0.112454
0.120325
0.124701
0.124612
0.118818
0.106503
0.0876187
0.0635522
0.0395317
0.0485481
0.0805346
0.120304
0.163817
0.207794
0.24953
0.286875
0.319046
0.345829
0.369706
0.391609
0.420428
0.452038
0.514929
0.575032
0.742201
0.844029
1.33924
1.4521
2.97303
3.42007
0.518195
0.0345704
0.0274429
0.0160734
0.0165166
0.0122868
0.0110154
0.00901593
0.00806934
0.00709307
0.00662998
0.00633315
0.00633061
0.00639682
0.00644141
0.00629712
0.00597752
0.00562573
0.00553026
0.00599635
0.00732784
0.00981521
0.0136445
0.0187751
0.024932
0.0317116
0.03871
0.0455904
0.0520832
0.0579519
0.0629531
0.0668013
0.0691761
0.0697317
0.0678966
0.063238
0.0554822
0.0447528
0.0335514
0.0404703
0.0566497
0.074915
0.0935473
0.111564
0.128322
0.143344
0.156608
0.168151
0.178628
0.188529
0.201113
0.215715
0.242645
0.271601
0.341667
0.395631
0.597323
0.679775
1.27085
1.89782
0.395511
0.0386801
0.0190376
0.0107981
0.0104483
0.0077999
0.00689062
0.00566711
0.00505917
0.00447684
0.00419952
0.00403842
0.00405191
0.00411216
0.00416206
0.00411188
0.00397607
0.00385287
0.00394179
0.00447064
0.00565972
0.00768805
0.0106181
0.0143357
0.018586
0.0230711
0.0275353
0.0317957
0.035729
0.0392452
0.0422613
0.0446718
0.0464619
0.0473943
0.0472065
0.0456513
0.0424653
0.0374171
0.0320746
0.0370241
0.0457607
0.0548964
0.0637894
0.0721721
0.0798724
0.086744
0.0928537
0.0982697
0.103095
0.107583
0.11306
0.11971
0.13162
0.145859
0.177221
0.206364
0.295007
0.348019
0.594997
1.19135
0.318415
0.0430032
0.0149664
0.00777762
0.00695784
0.00516826
0.00448989
0.00370693
0.00330755
0.00295524
0.0027952
0.00272011
0.00275553
0.00282539
0.00289165
0.00290383
0.00287796
0.0028926
0.00310585
0.00370337
0.00485512
0.00667326
0.00915325
0.0121521
0.015445
0.0188105
0.0220855
0.0251726
0.0280213
0.0306056
0.0329072
0.0349041
0.0366151
0.0378722
0.0385266
0.0384084
0.0372903
0.0348771
0.0323837
0.0357549
0.0405745
0.045222
0.0495584
0.0536316
0.05746
0.0609887
0.0642216
0.0671523
0.0696529
0.0718094
0.07419
0.0771323
0.0824214
0.0894868
0.104257
0.120372
0.162106
0.195031
0.305645
0.829174
0.268834
0.0475924
0.0135433
0.00613239
0.00492116
0.00359091
0.00305451
0.00252706
0.00225778
0.00204318
0.00195773
0.00193719
0.00199137
0.00207258
0.00215457
0.0022091
0.00225576
0.00236555
0.00267446
0.00334061
0.0044997
0.00621948
0.00845671
0.0110632
0.0138512
0.0166618
0.0193926
0.0219911
0.024435
0.0267165
0.0288327
0.0307851
0.0325582
0.0340371
0.0351235
0.0356935
0.0355628
0.0344708
0.0333895
0.0355472
0.0380984
0.0402774
0.0421585
0.0439233
0.0456996
0.0475161
0.0493619
0.0511987
0.0527677
0.0540156
0.0551391
0.0564234
0.0587138
0.0622063
0.0693946
0.0785514
0.0994722
0.119986
0.173134
0.628409
0.235883
0.052355
0.0138537
0.00541458
0.00374922
0.00263787
0.00218025
0.00180145
0.00161327
0.00148238
0.0014445
0.0014586
0.00152685
0.001618
0.00171404
0.0018011
0.00190306
0.00208748
0.00247569
0.00320649
0.00439158
0.00606932
0.00817761
0.0105794
0.0131263
0.0157046
0.0182436
0.0207032
0.0230613
0.0253055
0.0274307
0.0294337
0.0312761
0.0328821
0.0341828
0.0350862
0.0354424
0.0350431
0.0346229
0.0358474
0.0369713
0.0376639
0.0380849
0.0384587
0.0389621
0.0396868
0.0406565
0.0418464
0.0429776
0.043898
0.0445864
0.0452093
0.046166
0.0478678
0.0513978
0.0567369
0.0677919
0.0808875
0.108205
0.51021
0.21325
0.0571349
0.0153744
0.00537617
0.00313083
0.00207349
0.00164549
0.00134998
0.00121096
0.00113105
0.00112344
0.00115979
0.00123862
0.00133885
0.00144892
0.00156501
0.00171443
0.00196194
0.0024181
0.00320833
0.00442835
0.00609929
0.00815523
0.010479
0.0129548
0.015494
0.0180326
0.0205243
0.0229352
0.0252432
0.0274389
0.0295012
0.0313923
0.0330606
0.0344566
0.0355094
0.0360912
0.0360378
0.0358582
0.0363539
0.0365152
0.0362437
0.035731
0.0352056
0.0348562
0.0348058
0.0351131
0.0357892
0.0366024
0.0373636
0.03793
0.038345
0.0387574
0.0395814
0.041284
0.0444593
0.0505226
0.059136
0.0739913
0.437362
0.197245
0.0617611
0.017763
0.00588352
0.0029064
0.00176841
0.00132677
0.00107107
0.000959182
0.000909607
0.000921148
0.000972267
0.0010598
0.00116949
0.00129502
0.00143953
0.00163224
0.00193508
0.0024507
0.003296
0.00455744
0.00624908
0.00831094
0.0106467
0.0131615
0.0157734
0.0184107
0.0210128
0.0235324
0.0259382
0.028215
0.0303259
0.0322421
0.0339273
0.035344
0.0364346
0.0370837
0.0371569
0.036975
0.0368875
0.0363612
0.0354267
0.0342843
0.0331522
0.0322127
0.0315969
0.0313821
0.0316093
0.0321153
0.0327225
0.0332387
0.0336133
0.033841
0.0342569
0.0350393
0.0369533
0.0403442
0.0461575
0.0545475
0.390896
0.185657
0.0660792
0.0207647
0.00685722
0.00299974
0.001654
0.00115548
0.000907088
0.000805785
0.000772812
0.000796189
0.00085768
0.00095335
0.00107377
0.00121674
0.00138997
0.00162322
0.00197571
0.00254462
0.00344232
0.00475183
0.00648783
0.00860103
0.0110116
0.0136337
0.0163798
0.0191634
0.0219085
0.0245556
0.0270657
0.0294152
0.0315587
0.0334764
0.0351414
0.0365236
0.0375731
0.0381782
0.0382294
0.0379027
0.0373344
0.0362923
0.0348808
0.0332991
0.0317491
0.0303987
0.0293734
0.0287547
0.0285983
0.0288033
0.0292264
0.0296736
0.0300389
0.0302241
0.0304636
0.0307897
0.0319529
0.0338507
0.0378488
0.0426633
0.360491
0.17712
0.0699711
0.0241663
0.00824742
0.00337087
0.00169806
0.00109487
0.000825756
0.000721169
0.000694832
0.000724965
0.00079423
0.000898229
0.00103099
0.0011934
0.00139585
0.00166768
0.0020657
0.00268365
0.00363276
0.00499744
0.00679802
0.00899665
0.0115237
0.0142924
0.0172032
0.0201527
0.0230504
0.025826
0.0284348
0.0308405
0.032998
0.0348933
0.0365047
0.0378064
0.0387512
0.0392272
0.0391523
0.0385974
0.037619
0.0361728
0.0344064
0.032513
0.0306764
0.0290456
0.0277328
0.0268141
0.0263471
0.0262768
0.0264989
0.0268421
0.0271781
0.027359
0.0275266
0.0276335
0.0283426
0.0293804
0.0321655
0.0349055
0.340221
0.170761
0.0733654
0.0277776
0.010008
0.00399969
0.00189222
0.00112757
0.000809982
0.000688941
0.000661069
0.000694011
0.000769372
0.000882211
0.00102898
0.00121264
0.0014449
0.00175402
0.00219474
0.00285903
0.0038598
0.00528652
0.00716786
0.00947565
0.0121442
0.0150794
0.0181663
0.0212853
0.0243326
0.0272288
0.0299244
0.0323659
0.0345173
0.0363658
0.0378922
0.0390721
0.0398555
0.0401401
0.0398627
0.0390311
0.0376911
0.0359155
0.033878
0.0317638
0.0297373
0.0279263
0.0264249
0.0252973
0.0245948
0.0242914
0.0243179
0.0245342
0.024812
0.0249844
0.0251196
0.025126
0.0255563
0.0260896
0.0280454
0.0295449
0.32653
0.166001
0.0762368
0.0314262
0.0120849
0.00487856
0.00223659
0.00124894
0.000852215
0.00070075
0.000663642
0.000695818
0.000775941
0.000898152
0.00106046
0.00126707
0.00152992
0.00187575
0.00235739
0.00306646
0.00411973
0.00561427
0.00758793
0.0100194
0.0128418
0.0159497
0.0192126
0.0224951
0.025682
0.0286852
0.0314511
0.0339076
0.0360318
0.037809
0.0392202
0.0402406
0.0408124
0.0408591
0.0403236
0.0391876
0.0375189
0.0354651
0.0332161
0.0309484
0.0288066
0.0268954
0.0252875
0.024031
0.0231652
0.02268
0.0225339
0.0226184
0.0228176
0.0229654
0.0230778
0.0230397
0.0232966
0.0235338
0.0249135
0.0256591
0.317201
0.162442
0.0785997
0.0349624
0.014411
0.00600211
0.0027345
0.0014638
0.000951489
0.000753486
0.000698926
0.000726578
0.000810074
0.000942023
0.00112123
0.00135244
0.001647
0.00202963
0.00255135
0.00330435
0.0044109
0.00597718
0.00804991
0.0106117
0.0135907
0.0168684
0.0202992
0.0237333
0.0270453
0.0301389
0.0329536
0.0354064
0.0374822
0.0391641
0.0404312
0.0412549
0.0415777
0.0413492
0.0405155
0.0390598
0.0370853
0.0347889
0.032372
0.0300024
0.0278043
0.0258582
0.024213
0.0228975
0.0219353
0.0213226
0.021038
0.0210011
0.0211138
0.0212226
0.0213104
0.0212523
0.0213992
0.0214631
0.0224414
0.0227276
0.310812
0.159803
0.0804982
0.0382648
0.0169047
0.00735849
0.00339257
0.001781
0.00111198
0.000847837
0.000766255
0.00078498
0.00087011
0.00101186
0.00120913
0.00146663
0.00179439
0.00221464
0.00277632
0.00357276
0.00473277
0.00637236
0.00854619
0.0112381
0.0143692
0.0178073
0.0213928
0.0249628
0.0283828
0.0315484
0.03439
0.0368201
0.0388265
0.0403897
0.0414857
0.0420776
0.0421255
0.0415917
0.040432
0.038649
0.0363852
0.0338724
0.0313207
0.028889
0.0266817
0.024754
0.0231298
0.021816
0.0208182
0.0201315
0.0197479
0.0196105
0.0196402
0.0197023
0.0197615
0.0196923
0.0197682
0.0197322
0.0204303
0.0204409
0.306428
0.157873
0.081994
0.0412457
0.0194746
0.00892456
0.00421867
0.00220853
0.00134254
0.000987635
0.000867264
0.000871586
0.000955995
0.00110717
0.00132342
0.00160894
0.00197185
0.0024312
0.00303336
0.00387286
0.0050855
0.00679737
0.00906995
0.0118865
0.0151596
0.018744
0.0224676
0.0261554
0.0296647
0.0328831
0.0357298
0.0381181
0.0400348
0.0414573
0.0423535
0.0426904
0.0424421
0.0415799
0.040076
0.0379636
0.0354241
0.0327157
0.0300552
0.0275929
0.0254135
0.0235473
0.0219921
0.020732
0.0197521
0.0190418
0.0186006
0.0183897
0.0183486
0.0183635
0.0183919
0.0183143
0.0183428
0.0182512
0.0187544
0.0186054
0.303424
0.156495
0.0831572
0.0438525
0.0220258
0.0106632
0.00521567
0.00275577
0.00165358
0.00117965
0.00100563
0.00098853
0.00106898
0.00122863
0.00146446
0.00177973
0.00218011
0.00268075
0.00332446
0.00420658
0.00546981
0.00725027
0.00961534
0.0125464
0.0159475
0.0196607
0.0235035
0.0272893
0.0308683
0.03412
0.0369509
0.0392787
0.0410863
0.0423458
0.0430188
0.043085
0.0425235
0.0413163
0.0394578
0.0370184
0.0342164
0.0313309
0.0285837
0.0261161
0.0239935
0.0222219
0.0207739
0.0196101
0.0186944
0.0180062
0.0175477
0.0172934
0.0171993
0.0171727
0.0171713
0.017086
0.0170823
0.0169619
0.01733
0.0170954
0.301374
0.155546
0.0840576
0.0460658
0.0244688
0.0125235
0.00637799
0.00343266
0.00205394
0.00143367
0.00118702
0.00113941
0.00121149
0.00137791
0.00163343
0.0019801
0.00242059
0.00296536
0.00365227
0.00457643
0.00588697
0.0077299
0.0101778
0.0132097
0.0167215
0.0205439
0.0244853
0.0283486
0.0319772
0.0352429
0.0380376
0.0402874
0.0419677
0.0430398
0.0434772
0.0432601
0.0423727
0.0408098
0.0385931
0.0358338
0.0327842
0.0297404
0.026927
0.0244748
0.0224305
0.0207776
0.019465
0.0184307
0.017617
0.0169912
0.016553
0.0162857
0.0161597
0.0161018
0.0160749
0.0159827
0.0159569
0.015824
0.016099
0.0158262
0.299985
0.154929
0.0847592
0.0478942
0.026727
0.0144431
0.00768895
0.00424534
0.00255389
0.00175922
0.0014192
0.00132927
0.00138707
0.00155759
0.00183227
0.0022117
0.00269518
0.00328751
0.00401985
0.00498547
0.00633895
0.00823606
0.0107544
0.0138705
0.0174735
0.0213838
0.0254023
0.0293218
0.03298
0.0362403
0.03898
0.041135
0.0426647
0.0435383
0.0437299
0.0432199
0.0419979
0.0400742
0.0375019
0.0344343
0.0311556
0.0279749
0.0251159
0.0226971
0.0207467
0.0192278
0.0180686
0.017187
0.0165042
0.0159742
0.0155896
0.0153388
0.0152028
0.0151268
0.0150814
0.0149845
0.014944
0.0148086
0.0150202
0.014739
0.299054
0.154566
0.0853175
0.0493675
0.028743
0.0163534
0.00911935
0.00519349
0.00316299
0.00216512
0.00171172
0.00156472
0.0016004
0.00177117
0.00206363
0.00247671
0.003006
0.00364988
0.00443054
0.0054372
0.00682843
0.00876973
0.0113437
0.0145256
0.0181985
0.022174
0.0262473
0.0302017
0.0338692
0.0371026
0.0397725
0.0418093
0.0431776
0.0438442
0.0437822
0.0429724
0.0414109
0.0391265
0.0362067
0.032848
0.0293635
0.026071
0.0231887
0.0208199
0.0189741
0.0175966
0.0165992
0.0158829
0.0153504
0.0149418
0.0146392
0.0144313
0.0143074
0.0142279
0.0141728
0.0140748
0.0140254
0.013894
0.014063
0.013792
0.298441
0.154395
0.0857773
0.0505291
0.0304815
0.0181858
0.0106279
0.00626795
0.00388741
0.00266117
0.0020731
0.00185398
0.00185738
0.00202309
0.00233086
0.0027777
0.00335536
0.00405513
0.00488774
0.0059355
0.00735893
0.00933321
0.0119466
0.015174
0.0188942
0.0229115
0.0270168
0.0309844
0.0346414
0.0378264
0.0404039
0.0423123
0.043511
0.0439638
0.0436423
0.0425283
0.0406261
0.0379855
0.034732
0.0311053
0.027444
0.0240696
0.021189
0.0188864
0.0171522
0.0159168
0.0150802
0.0145315
0.0141588
0.0138888
0.0136901
0.013548
0.0134564
0.0133886
0.0133338
0.0132393
0.0131865
0.0130632
0.0132046
0.0129552
0.298046
0.154367
0.0861733
0.0514297
0.0319297
0.0198786
0.0121638
0.00744905
0.00472774
0.0032554
0.00251229
0.00220551
0.00216518
0.00231873
0.00263802
0.00311769
0.00374562
0.00450576
0.00539473
0.00648448
0.00793472
0.0099302
0.0125656
0.0158175
0.0195615
0.0235964
0.0277105
0.0316696
0.0352893
0.0384043
0.0408787
0.0426498
0.0436718
0.0439054
0.0433201
0.0418998
0.0396586
0.0366711
0.0331035
0.0292379
0.025435
0.0220136
0.0191626
0.016943
0.0153251
0.0142269
0.0135418
0.0131535
0.0129399
0.0128168
0.0127371
0.0126789
0.0126373
0.0125955
0.0125514
0.0124661
0.0124149
0.0123028
0.0124274
0.012206
0.2978
0.154441
0.0865308
0.0521209
0.0330948
0.0213825
0.0136707
0.00870616
0.00567692
0.00395238
0.00303744
0.00262744
0.00253199
0.0026645
0.00298996
0.00350013
0.00417919
0.00500397
0.00595443
0.00708826
0.00856073
0.0105657
0.0132055
0.0164602
0.0202039
0.0242319
0.0283251
0.0322493
0.035813
0.0388425
0.0412038
0.0428297
0.043669
0.0436788
0.0428268
0.0410998
0.0385245
0.0352036
0.0313469
0.027278
0.0233746
0.0199458
0.0171552
0.015036
0.0135374
0.0125677
0.0120188
0.0117747
0.0117104
0.0117333
0.0117798
0.0118182
0.0118412
0.0118383
0.011815
0.0117448
0.0117004
0.0116021
0.0117176
0.0115278
0.297654
0.154586
0.086867
0.0526514
0.0339994
0.0226648
0.0150923
0.00999878
0.0067186
0.00475129
0.00365435
0.0031272
0.00296529
0.0030684
0.00339229
0.00392897
0.00465848
0.00555148
0.00656911
0.00775066
0.00924226
0.011246
0.0138726
0.0171088
0.0208214
0.0248123
0.0288606
0.0327288
0.0362187
0.039149
0.0413877
0.0428611
0.0435123
0.0432944
0.0421738
0.0401413
0.0372394
0.033603
0.029488
0.0252576
0.0213004
0.0179073
0.0152097
0.0132085
0.0118316
0.0109795
0.0105467
0.0104242
0.010491
0.0106503
0.0108228
0.0109646
0.0110626
0.0111094
0.0111162
0.0110672
0.0110342
0.0109519
0.0110645
0.0109076
0.297576
0.154779
0.0871924
0.0530642
0.0346773
0.0237106
0.0163784
0.0112794
0.00782648
0.00564409
0.00436488
0.00371045
0.00347151
0.00353675
0.00385283
0.00440925
0.00518596
0.00614945
0.0072401
0.00847473
0.00998463
0.011978
0.014573
0.0177594
0.0214147
0.0253433
0.0293233
0.0331154
0.0365146
0.0393331
0.0414402
0.0427541
0.043212
0.042763
0.0413722
0.0390368
0.0358183
0.0318888
0.0275522
0.0232079
0.0192478
0.0159356
0.0133634
0.0114975
0.0102442
0.00949796
0.00915954
0.00913188
0.00930518
0.00958325
0.00987389
0.0101196
0.0102989
0.0104036
0.0104483
0.0104263
0.0104092
0.0103452
0.0104592
0.0103357
0.297541
0.155
0.0875129
0.0533952
0.0351674
0.0245221
0.0174893
0.0124979
0.00896495
0.0066141
0.0051652
0.00437971
0.0040555
0.00407476
0.00437625
0.00494698
0.00576724
0.00679843
0.00796747
0.00926227
0.0107926
0.0127633
0.0153047
0.0184178
0.0219906
0.0258324
0.0297218
0.0334181
0.0367097
0.0394052
0.0413716
0.0425191
0.0427785
0.0420945
0.0404325
0.0377977
0.0342758
0.0300803
0.0255644
0.0211588
0.0172493
0.0140629
0.011647
0.00993175
0.00880344
0.00815205
0.00788654
0.00792541
0.00817656
0.00854975
0.0089438
0.00928812
0.00955008
0.00971791
0.00980661
0.00981655
0.00981965
0.0097758
0.00989489
0.00980427
0.297533
0.155235
0.0878306
0.0536728
0.0355103
0.0251158
0.0183996
0.0136062
0.0100912
0.00763543
0.00604418
0.00513276
0.00471927
0.004686
0.00496627
0.00554499
0.00640375
0.00750109
0.00875151
0.0101122
0.0116641
0.0136033
0.0160735
0.019091
0.0225571
0.0262887
0.0300656
0.0336472
0.0368153
0.0393764
0.0411928
0.0421664
0.0422214
0.0412984
0.0393638
0.0364348
0.0326255
0.0281962
0.023549
0.0191387
0.0153338
0.0123153
0.0100825
0.00853048
0.00752767
0.00696142
0.00674971
0.00682819
0.00712726
0.00756774
0.00804491
0.00847676
0.00881835
0.00905112
0.00918802
0.00923389
0.00926074
0.00923887
0.00936593
0.00930738
0.297542
0.155474
0.0881455
0.0539181
0.0357442
0.0255189
0.0190998
0.0145637
0.0111591
0.00867361
0.0069823
0.00596112
0.00546061
0.00537127
0.00562479
0.00620493
0.00709579
0.00825562
0.0095887
0.0110212
0.0125984
0.0145009
0.016885
0.0197868
0.0231236
0.0267221
0.0303657
0.0338139
0.036843
0.0392578
0.0409141
0.0417056
0.0415494
0.0403826
0.0381744
0.0349576
0.0308808
0.0262551
0.0215298
0.0171739
0.0135255
0.0107122
0.00868369
0.00730312
0.00642502
0.00593587
0.00576245
0.00585736
0.00617581
0.00665411
0.00719017
0.00769378
0.00810757
0.00840382
0.00859083
0.00867536
0.00872885
0.00873047
0.00886783
0.00884026
0.29756
0.155711
0.0884561
0.0541462
0.035903
0.0257647
0.0195952
0.0153416
0.0121232
0.00968766
0.00795144
0.00684878
0.00627165
0.00612733
0.00635084
0.00692644
0.0078422
0.00905883
0.0104738
0.0119837
0.0135926
0.0154572
0.0177443
0.0205127
0.0236991
0.0271431
0.0306329
0.0339295
0.0368041
0.03906
0.0405454
0.0411453
0.04077
0.0393536
0.036871
0.0333749
0.0290547
0.024276
0.0195304
0.015288
0.0118439
0.00926591
0.00745583
0.00625028
0.00549442
0.00507583
0.00492939
0.00502274
0.0053358
0.00582334
0.00639211
0.00694813
0.00742284
0.00777791
0.00801458
0.0081391
0.00822126
0.00824755
0.00839704
0.00839916
0.297583
0.15594
0.0887605
0.0543667
0.0360148
0.0258889
0.019904
0.0159248
0.0129442
0.0106334
0.00891582
0.00777155
0.00713758
0.00694555
0.0071394
0.00770621
0.00863957
0.00990565
0.0113994
0.0129912
0.0146403
0.0164707
0.0186545
0.0212752
0.0242925
0.0275618
0.0308783
0.0340049
0.0367095
0.0387927
0.0400949
0.0404925
0.0398887
0.0382165
0.0354589
0.0316949
0.0271607
0.0222782
0.0175734
0.013502
0.0103032
0.00798212
0.00639724
0.00536545
0.00472755
0.00437418
0.00424729
0.00432683
0.00461507
0.00508639
0.00566183
0.0062488
0.00677007
0.00717632
0.00745993
0.00762424
0.00773613
0.00778778
0.00795079
0.00798114
0.297606
0.156159
0.0890566
0.0545853
0.0361017
0.025926
0.0200532
0.0163131
0.0135931
0.011468
0.00983431
0.00869743
0.00803594
0.00781078
0.00798016
0.00853678
0.0094814
0.0107885
0.0123556
0.0140322
0.0157315
0.0175362
0.0196158
0.0220788
0.0249112
0.0279871
0.0311115
0.0340498
0.0365683
0.038464
0.0395695
0.0397521
0.0389093
0.0369741
0.0339426
0.0299257
0.025213
0.0202819
0.0156808
0.0118336
0.00891255
0.0068607
0.00550071
0.00463718
0.00411137
0.00381867
0.00370709
0.0037659
0.00401582
0.00445017
0.00500824
0.00560407
0.00615544
0.00660274
0.00692838
0.0071307
0.00727236
0.00734954
0.00752699
0.00758388
0.297629
0.156365
0.0893426
0.0548048
0.0361797
0.025907
0.0200753
0.0165195
0.0140537
0.0121544
0.010664
0.0095881
0.00893665
0.00870056
0.00885648
0.00940548
0.0103571
0.0116967
0.0133296
0.0150915
0.0168515
0.0186433
0.0206242
0.0229245
0.0255596
0.028426
0.0313405
0.0340722
0.0363878
0.0380799
0.0389732
0.0389268
0.0378331
0.0356281
0.0323256
0.028076
0.0232272
0.018308
0.0138733
0.0102965
0.00767578
0.00589673
0.0047553
0.0040513
0.00363056
0.00339448
0.00329626
0.00333169
0.00353541
0.0039175
0.00443761
0.00502108
0.00558498
0.00606128
0.00642209
0.00665914
0.00682953
0.00693179
0.00712414
0.00720558
0.29765
0.156559
0.089617
0.0550256
0.0362598
0.0258577
0.0200041
0.0165676
0.0143245
0.0126659
0.0113644
0.0104018
0.00980309
0.00958513
0.00974471
0.0102935
0.0112508
0.0126154
0.014305
0.01615
0.0179806
0.019776
0.0216698
0.0238087
0.0262386
0.0288819
0.0315704
0.0340773
0.0361723
0.0376434
0.0383077
0.0380166
0.0366592
0.0341783
0.0306113
0.0261556
0.0212208
0.0163785
0.0121697
0.00890055
0.0065924
0.0050818
0.00414803
0.00359283
0.00326961
0.00308654
0.00300112
0.00301347
0.00316777
0.0034877
0.00395348
0.00450541
0.00506421
0.0055562
0.0059437
0.00621078
0.0064078
0.00653405
0.00674129
0.00684638
0.297669
0.156739
0.0898789
0.0552472
0.0363487
0.0257986
0.0198715
0.016488
0.0144174
0.0129886
0.0119024
0.011097
0.0105945
0.0104284
0.0106142
0.0111752
0.0121411
0.0135248
0.0152615
0.0171844
0.0190934
0.0209112
0.0227357
0.0247212
0.0269436
0.0293539
0.0318012
0.0340659
0.0359222
0.0371537
0.0375707
0.0370183
0.0353847
0.0326237
0.0288038
0.0241765
0.0192134
0.0145151
0.0105862
0.00765132
0.00565805
0.00440523
0.00366535
0.00324738
0.00301429
0.00288108
0.00280872
0.00280004
0.00290497
0.00315742
0.00355693
0.00406093
0.00459786
0.00509162
0.00549613
0.00578729
0.00600782
0.00615629
0.00637793
0.00650552
0.297686
0.156907
0.0901278
0.0554682
0.0364494
0.0257445
0.019706
0.0163139
0.0143554
0.0131233
0.0122558
0.0116374
0.0112694
0.01119
0.0114284
0.0120186
0.013
0.0144
0.0161741
0.0181674
0.0201595
0.0220188
0.0237969
0.0256444
0.0276631
0.029835
0.0320276
0.0340342
0.0356335
0.0366061
0.0367567
0.0359259
0.0340042
0.0309627
0.0269084
0.0221532
0.017227
0.0127395
0.00913558
0.00655028
0.00486547
0.00385528
0.00329416
0.00300215
0.00285254
0.00276667
0.00270808
0.0026812
0.00273877
0.00292181
0.00324708
0.0036899
0.00418969
0.00467136
0.00508238
0.00539065
0.00563063
0.00579891
0.00603396
0.00618267
0.297699
0.157063
0.0903636
0.0556871
0.036563
0.0257051
0.0195306
0.0160783
0.0141689
0.0130841
0.0124163
0.0119957
0.0117899
0.0118285
0.0121468
0.0127862
0.0137939
0.0152105
0.0170135
0.0190673
0.0211432
0.0230616
0.0248198
0.0265511
0.0283772
0.0303106
0.0322377
0.033972
0.0352965
0.035991
0.0358558
0.03473
0.0325113
0.0291943
0.024933
0.0201041
0.0152855
0.0110718
0.00782702
0.00559516
0.00420542
0.00342009
0.00302264
0.00284641
0.00277483
0.0027346
0.00269079
0.00264872
0.00266173
0.0027756
0.00302176
0.0033932
0.00384249
0.00429877
0.00470543
0.00502303
0.00527761
0.00546265
0.00570963
0.00587788
0.297711
0.157209
0.0905864
0.0559024
0.0366884
0.0256862
0.0193628
0.0158108
0.0138919
0.0128962
0.0123901
0.0121574
0.0121262
0.0123058
0.0127282
0.0134371
0.0144844
0.015921
0.0177461
0.0198488
0.0220046
0.023996
0.0257619
0.0274048
0.0290563
0.0307544
0.0324117
0.0338621
0.0348957
0.0352933
0.034854
0.033419
0.0308987
0.0273191
0.0228894
0.018051
0.0134139
0.00952967
0.00666538
0.00478058
0.00366754
0.00308841
0.00284065
0.00277171
0.00277424
0.00277889
0.00275115
0.0026968
0.00266797
0.00271389
0.00287827
0.00317067
0.00355812
0.00397667
0.00436807
0.00468673
0.00495036
0.00514855
0.00540555
0.00559149
0.29772
0.157344
0.0907969
0.0561128
0.036824
0.0256899
0.0192147
0.0155364
0.0135584
0.0125921
0.0121966
0.0121228
0.0122605
0.0125911
0.0131346
0.0139305
0.0150308
0.0164928
0.0183348
0.020474
0.0227011
0.0247736
0.026573
0.0281588
0.0296599
0.0311323
0.032521
0.0336797
0.0344087
0.0344929
0.0337338
0.0319794
0.0291597
0.0253411
0.020794
0.01602
0.0116374
0.00812702
0.00565139
0.00409882
0.00324123
0.00285012
0.00273993
0.00277189
0.00284631
0.00289612
0.00288598
0.00282201
0.00275338
0.00273274
0.00281387
0.00302156
0.00333772
0.00370733
0.00407289
0.00438405
0.00465067
0.00485791
0.00512257
0.00532418
0.297728
0.15747
0.0909956
0.0563172
0.0369675
0.0257163
0.0190938
0.0152741
0.0131992
0.0122076
0.0118657
0.0119068
0.0121895
0.0126655
0.013336
0.0142298
0.0153938
0.0168865
0.0187413
0.0209037
0.0231888
0.0253434
0.0271971
0.0287577
0.0301344
0.0314005
0.032528
0.0333921
0.0338068
0.0335647
0.0324745
0.0303971
0.0272902
0.023269
0.0186691
0.0140401
0.00997948
0.00687339
0.00478198
0.00354061
0.00291624
0.00269658
0.00271424
0.00284298
0.00298875
0.00308492
0.0030941
0.00302239
0.00291553
0.00282933
0.00282621
0.00294484
0.00318185
0.00349254
0.00382218
0.00411724
0.00438044
0.00459221
0.00486181
0.00507687
0.297734
0.157588
0.0911833
0.0565151
0.0371164
0.0257636
0.0190035
0.0150374
0.0128398
0.0117777
0.0114336
0.0115368
0.0119255
0.012525
0.0133143
0.0143069
0.0155391
0.0170655
0.0189285
0.0211
0.0234255
0.0256549
0.0275756
0.0291378
0.0304219
0.031507
0.0323869
0.0329595
0.0330555
0.03248
0.0310542
0.0286596
0.0252903
0.0211183
0.0165432
0.0121423
0.0084604
0.00577339
0.00405097
0.00309597
0.0026832
0.00262078
0.00275924
0.00298292
0.00320107
0.00334551
0.00337572
0.00329746
0.00315322
0.00300181
0.00291348
0.00293952
0.00309078
0.0033337
0.003618
0.00388847
0.00414164
0.00435313
0.00462464
0.00485074
0.297738
0.157699
0.0913608
0.056706
0.0372687
0.0258291
0.0189444
0.0148346
0.0125002
0.0113338
0.0109382
0.0110487
0.0114946
0.0121812
0.0130668
0.0141466
0.0154427
0.0170002
0.0188649
0.0210298
0.0233734
0.0256616
0.0276512
0.0292368
0.0304602
0.0313933
0.0320453
0.0323362
0.0321164
0.0312082
0.0294522
0.0267586
0.0231674
0.0189127
0.0144502
0.0103573
0.00709557
0.00482677
0.00344984
0.00275489
0.00253394
0.00261743
0.00287244
0.00319135
0.00348409
0.003679
0.00373167
0.0036474
0.0034658
0.00324891
0.00307426
0.00300467
0.00306458
0.00323192
0.00346216
0.00369984
0.0039363
0.00414248
0.00441261
0.00464721
0.297742
0.157803
0.0915289
0.0568898
0.0374225
0.0259099
0.0189148
0.0146697
0.0121938
0.0109015
0.0104154
0.010483
0.0109334
0.0116611
0.0126074
0.01375
0.0150944
0.0166729
0.018528
0.0206681
0.0230036
0.0253257
0.0273745
0.0289966
0.0301871
0.0309988
0.0314481
0.0314743
0.0309501
0.02972
0.0276517
0.0246931
0.0209383
0.0166849
0.0124284
0.00871306
0.00589447
0.00402895
0.00296869
0.00250789
0.00246173
0.00268298
0.003053
0.00346924
0.00383941
0.00408668
0.00416249
0.00407197
0.00385235
0.00356936
0.00330728
0.00313949
0.00310323
0.00318811
0.0033563
0.00355336
0.00376648
0.00396221
0.0042275
0.00446796
0.297744
0.157901
0.0916886
0.0570664
0.037576
0.0260027
0.0189119
0.0145431
0.0119289
0.0104999
0.00989638
0.00987939
0.0102847
0.0110032
0.0119658
0.0131353
0.0145016
0.0160816
0.0179098
0.0200031
0.0223001
0.0246229
0.0267097
0.0283691
0.0295471
0.0302666
0.030542
0.0303279
0.0295204
0.0279919
0.0256445
0.022473
0.0186317
0.0144765
0.0105173
0.00723222
0.00486022
0.00337191
0.00259703
0.00234647
0.00246141
0.00281551
0.00330151
0.0038184
0.00426873
0.00456919
0.00466759
0.0045696
0.00431089
0.00396122
0.00361099
0.00334305
0.00320666
0.00320305
0.00330193
0.00345096
0.00363427
0.00381439
0.00407126
0.00431487
0.297746
0.157994
0.0918405
0.0572361
0.0377281
0.0261046
0.0189319
0.0144531
0.0117089
0.0101416
0.00940522
0.0092737
0.00959202
0.0102533
0.0111841
0.0123375
0.0136898
0.0152428
0.0170198
0.0190398
0.0212639
0.0235472
0.0256394
0.0273235
0.0284986
0.0291507
0.0292826
0.0288593
0.0278006
0.0260112
0.0234355
0.0201229
0.0162893
0.0123355
0.00875442
0.00593006
0.0039899
0.00284522
0.00232453
0.00226343
0.00252944
0.0030147
0.0036197
0.00424101
0.00477311
0.00512567
0.00524437
0.00513666
0.0048377
0.00442135
0.00398317
0.00361412
0.00337464
0.00327745
0.0033005
0.00339459
0.00354185
0.00370124
0.00394609
0.00419008
0.297747
0.158083
0.0919855
0.0573992
0.0378779
0.0262131
0.0189713
0.0143964
0.0115339
0.00983343
0.00895892
0.00869478
0.00889522
0.00945878
0.0103124
0.0114043
0.0127012
0.0141918
0.0158871
0.0178031
0.0199169
0.0221153
0.02417
0.0258526
0.027022
0.0276241
0.0276422
0.0270465
0.0257794
0.0237821
0.0210476
0.0176842
0.013965
0.0103129
0.0071706
0.00481335
0.00327551
0.00243714
0.00214156
0.00225302
0.00266392
0.00328158
0.00400999
0.00473891
0.0053522
0.00575304
0.00588767
0.00576696
0.00542691
0.00494503
0.00442057
0.00395093
0.00360668
0.00341187
0.0033534
0.00338619
0.00349148
0.00362514
0.00385439
0.00409599
0.297748
0.158168
0.0921244
0.057556
0.0380247
0.026326
0.0190261
0.0143688
0.0114013
0.00957741
0.00856757
0.00816358
0.00822734
0.00866347
0.00940213
0.0103907
0.0115906
0.0129806
0.01456
0.0163389
0.0183038
0.0203692
0.0223365
0.0239795
0.0251273
0.0256872
0.0256186
0.0248912
0.023469
0.0213319
0.0185252
0.015216
0.0117213
0.00845698
0.0057872
0.0038804
0.00270528
0.00213561
0.0020397
0.00231114
0.00286452
0.00361832
0.00447501
0.00531293
0.00600349
0.00644539
0.00658929
0.00645159
0.00607037
0.00552576
0.00491869
0.00435092
0.0039019
0.00360674
0.00346201
0.00342776
0.00348554
0.00358867
0.00379884
0.00403527
0.297749
0.158249
0.0922578
0.0577071
0.0381682
0.0264414
0.0190931
0.0143659
0.011307
0.00937221
0.00823543
0.00769317
0.00761273
0.00790392
0.00850097
0.0093529
0.0104192
0.0116725
0.0131023
0.0147113
0.0164904
0.0183762
0.0202037
0.0217605
0.0228594
0.0233753
0.0232423
0.0224263
0.0209106
0.0187146
0.0159357
0.0127921
0.00962331
0.00680706
0.00461382
0.00312217
0.00226518
0.00192904
0.00201201
0.00243541
0.00313241
0.00402784
0.00501694
0.00596206
0.00672164
0.00719363
0.00733811
0.00717914
0.00675792
0.00615546
0.0054718
0.00481068
0.00425892