/*--------------------------------*- C++ -*----------------------------------*\
| =========                 |                                                 |
| \\      /  F ield         | OpenFOAM: The Open Source CFD Toolbox           |
|  \\    /   O peration     | Version:  2.4.0                                 |
|   \\  /    A nd           | Web:      www.OpenFOAM.org                      |
|    \\/     M anipulation  |                                                 |
\*---------------------------------------------------------------------------*/
FoamFile
{
    version     2.0;
    format      ascii;
    class       surfaceScalarField;
    location    "0.005";
    object      phi;
}
// * * * * * * * * * * * * * * * * * * * * * * * * * * * * * * * * * * * * * //

dimensions      [0 3 -1 0 0 0 0];

internalField   nonuniform List<scalar> 
26160
(
0.000635129
-9.59871e-07
0.000635596
-1.27008e-06
0.000635967
-1.08298e-06
0.000636296
-9.53576e-07
0.000636603
-8.53987e-07
0.000636892
-7.66362e-07
0.000637165
-6.88744e-07
0.000637423
-6.20101e-07
0.000637667
-5.59291e-07
-5.04853e-07
0.000637898
0.000597075
-1.01682e-06
0.000596996
-1.19033e-06
0.000596921
-1.00789e-06
0.000596827
-8.60034e-07
0.00059671
-7.36714e-07
0.000596569
-6.25514e-07
0.000596406
-5.25844e-07
0.000596223
-4.37562e-07
0.000596024
-3.5999e-07
-2.92917e-07
0.000595812
0.000561353
-1.11806e-06
0.000561549
-1.38624e-06
0.000561714
-1.17298e-06
0.000561868
-1.01344e-06
0.000562015
-8.84245e-07
0.00056216
-7.7028e-07
0.000562305
-6.70402e-07
0.000562451
-5.83895e-07
0.0005626
-5.09576e-07
-4.4665e-07
0.000562754
0.000527794
-1.284e-06
0.000527985
-1.57663e-06
0.000528149
-1.33681e-06
0.00052829
-1.15456e-06
0.000528412
-1.00698e-06
0.000528519
-8.76657e-07
0.000528611
-7.62162e-07
0.000528689
-6.62487e-07
0.000528756
-5.76024e-07
-5.01521e-07
0.00052881
0.000496213
-1.47799e-06
0.000496449
-1.81249e-06
0.000496647
-1.53527e-06
0.000496817
-1.32467e-06
0.000496964
-1.15381e-06
0.000497091
-1.00294e-06
0.000497199
-8.70442e-07
0.000497292
-7.5516e-07
0.000497371
-6.55243e-07
-5.69372e-07
0.000497439
0.000466534
-1.7084e-06
0.000466811
-2.08953e-06
0.000467044
-1.76844e-06
0.000467243
-1.52378e-06
0.000467414
-1.32483e-06
0.00046756
-1.14917e-06
0.000467685
-9.94992e-07
0.000467791
-8.60998e-07
0.000467881
-7.45024e-07
-6.45601e-07
0.000467957
0.000438635
-1.9754e-06
0.000438956
-2.41052e-06
0.000439226
-2.03819e-06
0.000439456
-1.75366e-06
0.000439652
-1.5218e-06
0.00043982
-1.31708e-06
0.000439963
-1.13754e-06
0.000440084
-9.817e-07
0.000440186
-8.47033e-07
-7.31912e-07
0.000440272
0.000412411
-2.28048e-06
0.000412778
-2.77751e-06
0.000413086
-2.34648e-06
0.000413349
-2.01623e-06
0.000413574
-1.74656e-06
0.000413765
-1.50843e-06
0.000413927
-1.29969e-06
0.000414064
-1.11868e-06
0.00041418
-9.62478e-07
-8.29298e-07
0.000414277
0.000387762
-2.62484e-06
0.000388176
-3.19205e-06
0.000388525
-2.69499e-06
0.000388822
-2.31327e-06
0.000389076
-2.00096e-06
0.000389293
-1.72501e-06
0.000389476
-1.48311e-06
0.000389631
-1.27346e-06
0.000389761
-1.09269e-06
-9.38905e-07
0.000389871
0.000364592
-3.00892e-06
0.000365055
-3.65484e-06
0.000365445
-3.08481e-06
0.000365778
-2.64628e-06
0.000366063
-2.28674e-06
0.000366307
-1.96869e-06
0.000366514
-1.68968e-06
0.000366688
-1.44779e-06
0.000366835
-1.23927e-06
-1.06215e-06
0.000366958
0.000342812
-3.43197e-06
0.000343322
-4.16524e-06
0.000343754
-3.51619e-06
0.000344124
-3.01627e-06
0.000344442
-2.60551e-06
0.000344715
-2.24143e-06
0.000344947
-1.92149e-06
0.000345143
-1.64378e-06
0.000345308
-1.40419e-06
-1.20085e-06
0.000345447
0.000322337
-3.89168e-06
0.000322892
-4.72092e-06
0.000323364
-3.98822e-06
0.000323772
-3.42364e-06
0.000324125
-2.95864e-06
0.000324429
-2.54525e-06
0.000324688
-2.18095e-06
0.000324908
-1.86396e-06
0.000325094
-1.58993e-06
-1.35735e-06
0.00032525
0.000303086
-4.38386e-06
0.000303682
-5.31747e-06
0.000304193
-4.4986e-06
0.000304637
-3.86796e-06
0.000305026
-3.34717e-06
0.000305363
-2.88227e-06
0.000305653
-2.47081e-06
0.0003059
-2.1114e-06
0.00030611
-1.79962e-06
-1.53466e-06
0.000306287
0.000284984
-4.90228e-06
0.000285615
-5.94815e-06
0.00028616
-5.04337e-06
0.00028664
-4.34778e-06
0.000287064
-3.77171e-06
0.000287436
-3.2546e-06
0.00028776
-2.79419e-06
0.000288038
-2.38974e-06
0.000288276
-2.03708e-06
-1.73661e-06
0.000288478
0.00026796
-5.43847e-06
0.000268616
-6.60374e-06
0.000269189
-5.61674e-06
0.000269702
-4.86047e-06
0.000270162
-4.23222e-06
0.000270572
-3.66424e-06
0.000270932
-3.1545e-06
0.000271246
-2.70327e-06
0.000271516
-2.307e-06
-1.96796e-06
0.000271747
0.000251946
-5.98187e-06
0.000252615
-7.27251e-06
0.000253209
-6.21096e-06
0.000253751
-5.40194e-06
0.000254246
-4.7278e-06
0.000254695
-4.11286e-06
0.000255096
-3.55532e-06
0.000255449
-3.05683e-06
0.000255757
-2.61485e-06
-2.23449e-06
0.000256024
0.00023688
-6.52e-06
0.000237548
-7.94046e-06
0.000238153
-6.81628e-06
0.000238718
-5.96648e-06
0.000239246
-5.25637e-06
0.000239735
-4.60151e-06
0.00024018
-4.00016e-06
0.000240579
-3.45563e-06
0.000240931
-2.96689e-06
-2.54302e-06
0.000241239
0.000222702
-7.03899e-06
0.000223353
-8.59171e-06
0.000223958
-7.42105e-06
0.000224538
-6.54656e-06
0.000225096
-5.81432e-06
0.000225625
-5.13017e-06
0.000226117
-4.49199e-06
0.000226566
-3.90496e-06
0.000226969
-3.36994e-06
-2.90132e-06
0.000227327
0.000209358
-7.5242e-06
0.000209975
-9.20915e-06
0.000210566
-8.01196e-06
0.000211152
-7.1327e-06
0.000211734
-6.39611e-06
0.000212301
-5.6972e-06
0.000212842
-5.03274e-06
0.000213346
-4.40967e-06
0.000213807
-3.83098e-06
-3.31791e-06
0.000214224
0.000196796
-7.96104e-06
0.000197362
-9.77521e-06
0.000197925
-8.57443e-06
0.000198505
-7.71346e-06
0.000199103
-6.99393e-06
0.000199705
-6.2988e-06
0.000200295
-5.62256e-06
0.000200858
-4.97347e-06
0.000201384
-4.35661e-06
-3.80164e-06
0.000201868
0.00018497
-8.33582e-06
0.000185468
-1.02729e-05
0.000185987
-9.09314e-06
0.000186549
-8.27561e-06
0.000187152
-7.59742e-06
0.000187782
-6.92838e-06
0.000188418
-6.25906e-06
0.000189043
-5.59811e-06
0.000189639
-4.95221e-06
-4.36097e-06
0.000190198
0.000173838
-8.63656e-06
0.000174251
-1.06866e-05
0.000174711
-9.55281e-06
0.00017524
-8.80441e-06
0.000175836
-8.19368e-06
0.000176484
-7.57611e-06
0.000177161
-6.93649e-06
0.000177845
-6.28233e-06
0.000178514
-5.62087e-06
-5.00301e-06
0.000179156
0.000163358
-8.85375e-06
0.000163674
-1.10031e-05
0.00016406
-9.93895e-06
0.00016454
-9.28427e-06
0.000165114
-8.76741e-06
0.000165767
-8.22875e-06
0.000166475
-7.64513e-06
0.000167214
-7.0209e-06
0.000167955
-6.36216e-06
-5.73206e-06
0.000168684
0.000153494
-8.98084e-06
0.000153704
-1.12127e-05
0.000154003
-1.02387e-05
0.000154419
-9.6995e-06
0.000154953
-9.30148e-06
0.000155594
-8.86979e-06
0.00015632
-8.371e-06
0.000157103
-7.80381e-06
0.000157911
-7.17092e-06
-6.54786e-06
0.000158727
0.000144213
-9.01452e-06
0.000144309
-1.1309e-05
0.000144512
-1.04416e-05
0.000144848
-1.00352e-05
0.000145324
-9.77774e-06
0.000145934
-9.47993e-06
0.000146659
-9.096e-06
0.000147471
-8.61605e-06
0.000148337
-8.03641e-06
-7.44382e-06
0.000149233
0.000135482
-8.95475e-06
0.000135463
-1.129e-05
0.000135561
-1.05402e-05
0.000135804
-1.02781e-05
0.000136205
-1.01781e-05
0.000136763
-1.0038e-05
0.000137465
-9.79862e-06
0.000138287
-9.43816e-06
0.000139194
-8.94266e-06
-8.40624e-06
0.000140156
0.000127271
-8.80446e-06
0.000127139
-1.1158e-05
0.000127129
-1.05304e-05
0.000127269
-1.04175e-05
0.000127576
-1.04855e-05
0.00012806
-1.0522e-05
0.000128716
-1.04549e-05
0.000129526
-1.02475e-05
0.000130454
-9.87117e-06
-9.41789e-06
0.000131466
0.000119552
-8.56906e-06
0.000119314
-1.09191e-05
0.000119195
-1.04113e-05
0.000119223
-1.04461e-05
0.000119423
-1.06852e-05
0.000119811
-1.09102e-05
0.000120395
-1.10389e-05
0.000121166
-1.10188e-05
0.000122102
-1.08069e-05
-1.04772e-05
0.000123161
0.000112298
-8.25539e-06
0.000111962
-1.05835e-05
0.000111736
-1.01853e-05
0.000111651
-1.03604e-05
0.000111731
-1.0766e-05
0.000112004
-1.11825e-05
0.000112489
-1.15239e-05
0.000113195
-1.17254e-05
0.000114153
-1.17642e-05
-1.16402e-05
0.000115316
0.00010548
-7.87056e-06
0.00010506
-1.01633e-05
0.000104729
-9.85461e-06
0.000104528
-1.01593e-05
0.000104483
-1.07209e-05
0.000104624
-1.13232e-05
0.000104979
-1.18787e-05
0.000105563
-1.23098e-05
0.000106472
-1.26726e-05
0.000107913
-1.30821e-05
0.000631902
5.74457e-06
0.000626456
5.19768e-06
0.000621585
4.6251e-06
0.000617319
4.0236e-06
0.000613685
3.39481e-06
0.00061071
2.73999e-06
0.00060842
2.05866e-06
0.000606847
1.34676e-06
0.000606042
5.84389e-07
0.000605988
-1.60856e-07
0.000606468
-6.88481e-07
0.000607517
-1.25046e-06
0.00060915
-1.82895e-06
0.000611372
-2.41146e-06
0.00061418
-2.98996e-06
0.000617561
-3.55765e-06
0.000621499
-4.10825e-06
0.000625972
-4.63581e-06
0.000630948
-5.13476e-06
-5.60092e-06
0.000636396
0.000591043
1.05136e-05
0.000586645
9.59615e-06
0.000582665
8.60532e-06
0.000579139
7.54915e-06
0.000576097
6.43658e-06
0.00057356
5.27699e-06
0.000571538
4.08087e-06
0.000570024
2.86117e-06
0.000568971
1.63735e-06
0.000568356
4.54138e-07
0.000568524
-8.56473e-07
0.000569439
-2.166e-06
0.000571038
-3.4276e-06
0.000573287
-4.66024e-06
0.000576161
-5.86413e-06
0.000579639
-7.03543e-06
0.000583699
-8.16895e-06
0.000588323
-9.25912e-06
0.000593488
-1.03004e-05
-1.12876e-05
0.000599175
0.000557567
1.57009e-05
0.000552879
1.42845e-05
0.000548701
1.27831e-05
0.000545047
1.12029e-05
0.00054193
9.55394e-06
0.000539361
7.84604e-06
0.000537352
6.08921e-06
0.000535919
4.29401e-06
0.000535086
2.47107e-06
0.000534911
6.28646e-07
0.000535272
-1.217e-06
0.000536164
-3.05822e-06
0.000537619
-4.88226e-06
0.000539636
-6.67728e-06
0.000542204
-8.43223e-06
0.000545305
-1.01362e-05
0.000548914
-1.17786e-05
0.000553004
-1.33488e-05
0.00055754
-1.48364e-05
-1.62321e-05
0.000562484
0.000524134
2.03769e-05
0.000519863
1.85562e-05
0.000516026
1.66198e-05
0.000512652
1.4577e-05
0.000509763
1.24427e-05
0.000507379
1.02303e-05
0.000505515
7.9533e-06
0.000504183
5.6258e-06
0.000503392
3.26208e-06
0.000503144
8.76669e-07
0.000503443
-1.51579e-06
0.000504285
-3.90073e-06
0.000505666
-6.26328e-06
0.000507578
-8.58876e-06
0.000510009
-1.08628e-05
0.000512944
-1.30715e-05
0.000516366
-1.52012e-05
0.000520256
-1.72388e-05
0.000524592
-1.91718e-05
-2.09896e-05
0.000529349
0.000493026
2.47892e-05
0.000489004
2.2578e-05
0.000485397
2.02268e-05
0.000482229
1.77459e-05
0.000479517
1.51538e-05
0.000477281
1.24669e-05
0.000475533
9.70155e-06
0.000474284
6.87469e-06
0.000473542
4.00378e-06
0.000473312
1.10651e-06
0.000473596
-1.79929e-06
0.000474391
-4.69574e-06
0.000475692
-7.56499e-06
0.000477493
-1.03894e-05
0.000479782
-1.31515e-05
0.000482544
-1.58342e-05
0.000485764
-1.84212e-05
0.000489422
-2.08964e-05
0.000493494
-2.32442e-05
-2.54521e-05
0.000497957
0.000463809
2.8937e-05
0.000460028
2.63587e-05
0.000456638
2.36175e-05
0.000453659
2.0724e-05
0.000451112
1.7701e-05
0.000449011
1.45677e-05
0.00044737
1.1343e-05
0.000446198
8.04662e-06
0.000445503
4.69894e-06
0.000445289
1.32054e-06
0.000445557
-2.0678e-06
0.000446307
-5.44523e-06
0.000447533
-8.79098e-06
0.000449228
-1.20845e-05
0.000451382
-1.53054e-05
0.000453982
-1.84339e-05
0.000457011
-2.14507e-05
0.000460452
-2.43373e-05
0.000464283
-2.70756e-05
-2.96507e-05
0.000468482
0.000436372
3.2837e-05
0.000432817
2.99134e-05
0.000429629
2.68054e-05
0.00042683
2.35235e-05
0.000424436
2.00949e-05
0.000422462
1.65417e-05
0.00042092
1.28849e-05
0.00041982
9.14699e-06
0.000419167
5.35096e-06
0.000418968
1.52015e-06
0.000419222
-2.3219e-06
0.000419928
-6.15158e-06
0.000421083
-9.94537e-06
0.000422678
-1.36799e-05
0.000424705
-1.73323e-05
0.000427151
-2.08801e-05
0.000430002
-2.43013e-05
0.000433239
-2.75749e-05
0.000436844
-3.06805e-05
-3.36011e-05
0.000440795
0.000410609
3.65047e-05
0.000407266
3.32564e-05
0.000404268
2.98036e-05
0.000401636
2.61558e-05
0.000399385
2.23455e-05
0.00039753
1.83972e-05
0.000396081
1.43339e-05
0.000395047
1.01807e-05
0.000394435
5.96298e-06
0.000394248
1.70675e-06
0.000394488
-2.56192e-06
0.000395154
-6.81685e-06
0.00039624
-1.10319e-05
0.000397742
-1.51813e-05
0.000399649
-1.92395e-05
0.00040195
-2.31815e-05
0.000404632
-2.69831e-05
0.000407678
-3.06209e-05
0.00041107
-3.40723e-05
-3.73177e-05
0.000414786
0.000386421
3.99547e-05
0.000383276
3.64011e-05
0.000380456
3.26242e-05
0.00037798
2.86317e-05
0.000375863
2.4462e-05
0.000374119
2.01418e-05
0.000372757
1.56961e-05
0.000371785
1.11522e-05
0.00037121
6.53796e-06
0.000371035
1.8817e-06
0.000371261
-2.78811e-06
0.000371887
-7.44289e-06
0.00037291
-1.20541e-05
0.000374322
-1.65936e-05
0.000376116
-2.10334e-05
0.00037828
-2.53462e-05
0.000380803
-2.95057e-05
0.000383668
-3.34862e-05
0.000386859
-3.72631e-05
-4.08136e-05
0.000390355
0.000363712
4.32008e-05
0.000360753
3.93599e-05
0.000358099
3.52783e-05
0.000355769
3.09611e-05
0.000353779
2.64527e-05
0.000352138
2.17826e-05
0.000350857
1.69771e-05
0.000349943
1.20657e-05
0.000349403
7.07864e-06
0.000349238
2.04626e-06
0.000349451
-3.00068e-06
0.000350039
-8.03136e-06
0.000351
-1.3015e-05
0.000352328
-1.79212e-05
0.000354014
-2.27199e-05
0.000356049
-2.73815e-05
0.000358421
-3.18777e-05
0.000361116
-3.61805e-05
0.000364116
-4.02638e-05
-4.41004e-05
0.000367403
0.000342392
4.62552e-05
0.000339608
4.21442e-05
0.00033711
3.77764e-05
0.000334918
3.31529e-05
0.000333045
2.83256e-05
0.000331501
2.33261e-05
0.000330296
1.81822e-05
0.000329437
1.29253e-05
0.000328928
7.58756e-06
0.000328773
2.20161e-06
0.000328972
-3.19981e-06
0.000329524
-8.58378e-06
0.000330427
-1.39175e-05
0.000331674
-1.91685e-05
0.000333259
-2.43045e-05
0.000335171
-2.92942e-05
0.0003374
-3.4107e-05
0.000339933
-3.87131e-05
0.000342754
-4.30852e-05
-4.71897e-05
0.000345844
0.000322377
4.9129e-05
0.000319757
4.47642e-05
0.000317405
4.01277e-05
0.000315343
3.52154e-05
0.000313581
3.00877e-05
0.000312128
2.47783e-05
0.000310995
1.9316e-05
0.000310186
1.37342e-05
0.000309706
8.06699e-06
0.000309559
2.34881e-06
0.000309745
-3.38564e-06
0.000310263
-9.10154e-06
0.000311109
-1.47642e-05
0.00031228
-2.03391e-05
0.000313768
-2.57922e-05
0.000315564
-3.10903e-05
0.000317658
-3.62008e-05
0.000320037
-4.10922e-05
0.000322688
-4.57362e-05
-5.00909e-05
0.000325589
0.000303584
5.18319e-05
0.000301119
4.72289e-05
0.000298907
4.23405e-05
0.000296966
3.71559e-05
0.000295309
3.17452e-05
0.000293943
2.61443e-05
0.000292876
2.03827e-05
0.000292115
1.44956e-05
0.000291663
8.51892e-06
0.000291523
2.48878e-06
0.000291695
-3.55834e-06
0.00029218
-9.58586e-06
0.000292973
-1.55573e-05
0.00029407
-2.14364e-05
0.000295465
-2.71874e-05
0.00029715
-3.27751e-05
0.000299115
-3.81656e-05
0.000301348
-4.3325e-05
0.000303836
-4.8225e-05
-5.28124e-05
0.000306558
0.000285938
5.43717e-05
0.000283621
4.95457e-05
0.00028154
4.44217e-05
0.000279715
3.89805e-05
0.000278157
3.33034e-05
0.000276873
2.74286e-05
0.00027587
2.13859e-05
0.000275153
1.52122e-05
0.000274727
8.94503e-06
0.000274593
2.62225e-06
0.000274753
-3.7181e-06
0.000275205
-1.00379e-05
0.000275947
-1.62989e-05
0.000276974
-2.24634e-05
0.00027828
-2.84938e-05
0.000279859
-3.43535e-05
0.0002817
-4.00066e-05
0.000283792
-4.54176e-05
0.000286126
-5.05587e-05
-5.5361e-05
0.000288675
0.000269364
5.67544e-05
0.000267189
5.17205e-05
0.000265234
4.6377e-05
0.00026352
4.06942e-05
0.000262057
3.47665e-05
0.000260851
2.86347e-05
0.000259909
2.23283e-05
0.000259235
1.58859e-05
0.000258833
9.34665e-06
0.000258706
2.74981e-06
0.000258853
-3.86511e-06
0.000259273
-1.04585e-05
0.000259965
-1.69907e-05
0.000260924
-2.34225e-05
0.000262145
-2.97147e-05
0.000263621
-3.58292e-05
0.000265343
-4.17286e-05
0.000267301
-4.73754e-05
0.000269485
-5.27432e-05
-5.77425e-05
0.000271867
0.000253794
5.89842e-05
0.000251757
5.37574e-05
0.000249924
4.82107e-05
0.000248317
4.23006e-05
0.000246946
3.61379e-05
0.000245815
2.97653e-05
0.000244931
2.32122e-05
0.000244299
1.65184e-05
0.000243921
9.72477e-06
0.000243799
2.87182e-06
0.000243933
-3.9996e-06
0.000244323
-1.08486e-05
0.000244967
-1.76342e-05
0.00024586
-2.43157e-05
0.000246998
-3.08527e-05
0.000248374
-3.72053e-05
0.00024998
-4.33351e-05
0.000251807
-4.92021e-05
0.000253847
-5.47829e-05
-5.99603e-05
0.000256065
0.000239161
6.10625e-05
0.00023726
5.56587e-05
0.000235545
4.99252e-05
0.000234044
4.38022e-05
0.000232762
3.74195e-05
0.000231705
3.08222e-05
0.000230878
2.40388e-05
0.000230286
1.71107e-05
0.000229931
1.00799e-05
0.000229814
2.98846e-06
0.000229937
-4.1218e-06
0.000230297
-1.12087e-05
0.000230893
-1.82303e-05
0.000231722
-2.51444e-05
0.000232778
-3.19094e-05
0.000234057
-3.84839e-05
0.00023555
-4.48284e-05
0.000237249
-5.09005e-05
0.000239146
-5.66807e-05
-6.20165e-05
0.000241203
0.000225401
6.29885e-05
0.000223636
5.74243e-05
0.000222039
5.15213e-05
0.000220642
4.51997e-05
0.00021945
3.86119e-05
0.000218466
3.1806e-05
0.000217696
2.48087e-05
0.000217144
1.7663e-05
0.000216811
1.04124e-05
0.0002167
3.09969e-06
0.00021681
-4.23196e-06
0.000217141
-1.15395e-05
0.00021769
-1.87797e-05
0.000218455
-2.59094e-05
0.000219432
-3.28858e-05
0.000220614
-3.96661e-05
0.000221995
-4.62097e-05
0.000223566
-5.24713e-05
0.000225323
-5.84379e-05
-6.39103e-05
0.000227217
0.000212454
6.47585e-05
0.000210826
5.90519e-05
0.00020935
5.29978e-05
0.000208058
4.64919e-05
0.000206955
3.97143e-05
0.000206045
3.2716e-05
0.000205332
2.55216e-05
0.00020482
1.81752e-05
0.000204511
1.07218e-05
0.000204405
3.20529e-06
0.000204504
-4.33033e-06
0.000204805
-1.1841e-05
0.000205308
-1.92826e-05
0.000206009
-2.66108e-05
0.000206905
-3.37818e-05
0.000207991
-4.07514e-05
0.000209259
-4.74782e-05
0.000210702
-5.39136e-05
0.000212317
-6.00534e-05
-6.56388e-05
0.000214046
0.000200261
6.63657e-05
0.000198776
6.05364e-05
0.000197423
5.43512e-05
0.000196239
4.76757e-05
0.000195229
4.07242e-05
0.000194395
3.35504e-05
0.00019374
2.61759e-05
0.000193269
1.86462e-05
0.000192983
1.10076e-05
0.000192884
3.30484e-06
0.000192971
-4.4171e-06
0.000193243
-1.21133e-05
0.000193699
-1.97385e-05
0.000194336
-2.72478e-05
0.00019515
-3.4596e-05
0.000196137
-4.1738e-05
0.00019729
-4.86316e-05
0.000198601
-5.52242e-05
0.000200071
-6.15238e-05
-6.7196e-05
0.000201628
0.000188764
6.78e-05
0.00018743
6.187e-05
0.000186206
5.55752e-05
0.000185136
4.87459e-05
0.000184223
4.16371e-05
0.000183468
3.43057e-05
0.000182874
2.67692e-05
0.000182446
1.90743e-05
0.000182185
1.12687e-05
0.000182092
3.39775e-06
0.000182168
-4.49241e-06
0.00018241
-1.23559e-05
0.000182818
-2.01466e-05
0.000183389
-2.78185e-05
0.000184119
-3.53257e-05
0.000185003
-4.26222e-05
0.000186037
-4.96652e-05
0.00018721
-5.63975e-05
0.000188529
-6.28431e-05
-6.85729e-05
0.000189906
0.000177908
6.90486e-05
0.000176736
6.30416e-05
0.00017565
5.66608e-05
0.000174702
4.96942e-05
0.000173893
4.24465e-05
0.000173221
3.4977e-05
0.000172693
2.72978e-05
0.00017231
1.9457e-05
0.000172075
1.15034e-05
0.00017199
3.48323e-06
0.000172054
-4.55628e-06
0.000172266
-1.25681e-05
0.000172624
-2.0505e-05
0.000173126
-2.83201e-05
0.000173767
-3.59668e-05
0.000174543
-4.33982e-05
0.000175449
-5.05717e-05
0.000176477
-5.74247e-05
0.000177636
-6.40021e-05
-6.97573e-05
0.00017882
0.000167637
7.00956e-05
0.000166641
6.40373e-05
0.000165707
5.75953e-05
0.000164891
5.051e-05
0.000164194
4.31436e-05
0.000163614
3.55575e-05
0.000163155
2.77566e-05
0.000162821
1.97907e-05
0.000162615
1.17095e-05
0.000162538
3.56027e-06
0.00016259
-4.60848e-06
0.000162771
-1.27484e-05
0.000163077
-2.08111e-05
0.000163505
-2.87484e-05
0.000164051
-3.65133e-05
0.000164711
-4.40582e-05
0.000165481
-5.13413e-05
0.00016635
-5.82941e-05
0.000167336
-6.49882e-05
-7.0734e-05
0.000168313
0.000157899
7.0924e-05
0.000157096
6.484e-05
0.000156329
5.83626e-05
0.00015566
5.11792e-05
0.000155086
4.37172e-05
0.000154605
3.60381e-05
0.000154223
2.81388e-05
0.000153944
2.00703e-05
0.000153769
1.18837e-05
0.000153702
3.62754e-06
0.000153742
-4.64845e-06
0.000153888
-1.28944e-05
0.000154137
-2.10604e-05
0.000154486
-2.90973e-05
0.00015493
-3.6957e-05
0.000155463
-4.45917e-05
0.000156083
-5.1961e-05
0.00015678
-5.89908e-05
0.000157577
-6.57853e-05
-7.14852e-05
0.000158328
0.000148639
7.15174e-05
0.000148049
6.543e-05
0.000147469
5.89424e-05
0.000146963
5.16851e-05
0.000146527
4.41538e-05
0.000146157
3.64076e-05
0.000145861
2.84349e-05
0.000145643
2.02888e-05
0.000145505
1.20217e-05
0.000145449
3.68332e-06
0.000145476
-4.67514e-06
0.000145584
-1.30023e-05
0.00014577
-2.12469e-05
0.000146031
-2.93583e-05
0.000146361
-3.72874e-05
0.000146756
-4.49859e-05
0.00014721
-5.24152e-05
0.000147716
-5.94971e-05
0.000148304
-6.6373e-05
-7.19919e-05
0.000148811
0.000139808
7.18658e-05
0.00013945
6.57874e-05
0.000139082
5.93107e-05
0.000138759
5.20085e-05
0.000138475
4.44373e-05
0.000138232
3.66511e-05
0.000138034
2.86324e-05
0.000137887
2.04366e-05
0.000137791
1.21172e-05
0.000137749
3.72533e-06
0.000137761
-4.68689e-06
0.000137825
-1.30667e-05
0.00013794
-2.13618e-05
0.000138102
-2.95203e-05
0.000138306
-3.74916e-05
0.000138547
-4.52266e-05
0.000138819
-5.26871e-05
0.000139116
-5.97942e-05
0.000139468
-6.67247e-05
-7.22344e-05
0.00013971
0.000131357
7.19741e-05
0.000131248
6.5897e-05
0.000131117
5.9442e-05
0.000130997
5.21281e-05
0.000130887
4.45475e-05
0.000130789
3.67486e-05
0.000130708
2.87136e-05
0.000130645
2.05e-05
0.0001306
1.21619e-05
0.000130575
3.75062e-06
0.000130569
-4.68107e-06
0.000130582
-1.30795e-05
0.000130612
-2.1392e-05
0.000130658
-2.9566e-05
0.000130716
-3.75497e-05
0.000130782
-4.52925e-05
0.000130849
-5.27543e-05
0.000130917
-5.9862e-05
0.000131002
-6.68095e-05
-7.22135e-05
0.000130981
0.000123252
7.18834e-05
0.000123394
6.5755e-05
0.000123535
5.93013e-05
0.000123649
5.20138e-05
0.000123736
4.44603e-05
0.000123806
3.66783e-05
0.00012386
2.86601e-05
0.000123895
2.0465e-05
0.00012391
1.21467e-05
0.000123904
3.75675e-06
0.000123875
-4.65198e-06
0.000123822
-1.30269e-05
0.000123746
-2.13159e-05
0.000123647
-2.94667e-05
0.000123525
-3.74278e-05
0.000123381
-4.51487e-05
0.000123213
-5.25861e-05
0.000123031
-5.96801e-05
0.000122813
-6.65918e-05
-7.19723e-05
0.000122572
0.000115486
7.17132e-05
0.000115776
6.54649e-05
0.000116167
5.89108e-05
0.00011654
5.16409e-05
0.000116873
4.41266e-05
0.000117167
3.63846e-05
0.000117406
2.84213e-05
0.000117579
2.02915e-05
0.000117682
1.20441e-05
0.00011771
3.72906e-06
0.000117664
-4.60637e-06
0.000117546
-1.29083e-05
0.000117359
-2.11294e-05
0.000117111
-2.92188e-05
0.00011681
-3.71263e-05
0.000116463
-4.48023e-05
0.000116076
-5.21985e-05
0.000115653
-5.92577e-05
0.000115064
-6.60028e-05
-7.14676e-05
0.00011456
0.000108317
7.13098e-05
0.00010896
6.48219e-05
0.000109744
5.81267e-05
0.00011036
5.10249e-05
0.000110859
4.36277e-05
0.000111284
3.59597e-05
0.000111624
2.80812e-05
0.000111868
2.00477e-05
0.000112008
1.19036e-05
0.000112042
3.69508e-06
0.000111965
-4.52938e-06
0.000111778
-1.27214e-05
0.000111483
-2.08345e-05
0.000111086
-2.88213e-05
0.000110594
-3.66347e-05
0.00011002
-4.42279e-05
0.000109374
-5.15523e-05
0.00010867
-5.85535e-05
0.000107803
-6.51364e-05
0.000107231
-7.0895e-05
0.000636499
-2.21567e-07
0.000636595
-2.15151e-07
0.000636683
-2.09257e-07
0.000636764
-2.03087e-07
0.000636837
-1.96434e-07
0.000636902
-1.89274e-07
0.000636959
-1.81593e-07
0.000637008
-1.73382e-07
0.000637049
-1.64625e-07
0.000637081
-1.55309e-07
0.000637104
-1.45424e-07
0.00063712
-1.34962e-07
0.000637126
-1.23924e-07
0.000637125
-1.12324e-07
0.000637115
-1.00194e-07
0.000637097
-8.74216e-08
0.000637071
-7.309e-08
0.000637039
-5.96348e-08
0.000636996
-4.16119e-08
0.000636942
-2.22565e-08
0.000636879
-2.58203e-09
0.000636807
1.73199e-08
0.000636715
4.92792e-08
0.000636618
6.81458e-08
0.000636531
7.08953e-08
0.000636444
8.52702e-08
0.000636354
1.02814e-07
0.000636262
1.21421e-07
0.000636167
1.40456e-07
0.000636071
1.5962e-07
0.000635974
1.78714e-07
0.000635876
1.9758e-07
0.00063578
2.16075e-07
0.000635685
2.34067e-07
0.000635592
2.51426e-07
0.000635502
2.68028e-07
0.000635416
2.83754e-07
0.000635334
2.98491e-07
0.000635257
3.12134e-07
0.000635186
3.24586e-07
0.00063512
3.3576e-07
0.00063506
3.45584e-07
0.000635007
3.53994e-07
0.000634959
3.60944e-07
0.000634919
3.66401e-07
0.000634884
3.70345e-07
0.000634855
3.72774e-07
0.000634833
3.73698e-07
0.000634815
3.73141e-07
0.000634803
3.71141e-07
0.000634795
3.67747e-07
0.000634792
3.63021e-07
0.000634792
3.57033e-07
0.000634796
3.49864e-07
0.000634802
3.416e-07
0.000634811
3.32335e-07
0.000634821
3.22166e-07
0.000634833
3.11197e-07
0.000634846
2.9953e-07
0.000634859
2.87273e-07
0.000634873
2.74529e-07
0.000634887
2.61405e-07
0.000634901
2.48002e-07
0.000634915
2.3442e-07
0.000634929
2.20755e-07
0.000634941
2.07099e-07
0.000634954
1.93539e-07
0.000634965
1.80154e-07
0.000634976
1.6702e-07
0.000634986
1.54204e-07
0.000634995
1.41768e-07
0.000635003
1.29765e-07
0.000635011
1.18242e-07
0.000635018
1.07238e-07
0.000635024
9.67834e-08
0.00063503
8.69024e-08
0.000635034
7.76103e-08
0.000635039
6.8915e-08
0.000635043
6.08167e-08
0.000635046
5.33074e-08
0.000635049
4.63715e-08
0.000635051
3.9985e-08
0.000635053
3.41154e-08
0.000635055
2.87207e-08
0.000635057
2.37485e-08
0.000635058
1.91337e-08
0.000635059
1.47962e-08
0.000635059
1.06361e-08
0.00063506
6.52952e-09
2.25785e-09
0.000599029
-7.52626e-08
0.000598894
-8.01968e-08
0.000598768
-8.3329e-08
0.00059865
-8.55681e-08
0.000598541
-8.69429e-08
0.000598439
-8.73155e-08
0.000598344
-8.66385e-08
0.000598255
-8.48684e-08
0.000598173
-8.19482e-08
0.000598095
-7.78124e-08
0.000598022
-7.23825e-08
0.000597953
-6.55594e-08
0.000597886
-5.72207e-08
0.000597821
-4.71939e-08
0.000597756
-3.56629e-08
0.000597696
-2.72583e-08
0.000597641
-1.77649e-08
0.000597588
-7.27602e-09
0.000597543
4.30126e-09
0.000597503
1.68321e-08
0.000597475
2.61584e-08
0.000597457
3.54667e-08
0.000597456
5.02588e-08
0.000597446
7.82091e-08
0.000597417
9.92996e-08
0.000597384
1.1831e-07
0.00059735
1.3666e-07
0.000597317
1.54766e-07
0.000597285
1.72745e-07
0.000597254
1.90591e-07
0.000597224
2.08237e-07
0.000597196
2.25585e-07
0.00059717
2.42519e-07
0.000597145
2.58917e-07
0.000597122
2.74657e-07
0.0005971
2.89618e-07
0.00059708
3.03688e-07
0.000597062
3.16759e-07
0.000597045
3.28738e-07
0.00059703
3.39538e-07
0.000597017
3.49086e-07
0.000597005
3.57322e-07
0.000596995
3.64198e-07
0.000596986
3.69679e-07
0.000596979
3.73742e-07
0.000596973
3.76379e-07
0.000596968
3.77591e-07
0.000596964
3.77395e-07
0.000596962
3.75818e-07
0.00059696
3.72897e-07
0.000596959
3.68682e-07
0.000596959
3.63231e-07
0.000596959
3.56611e-07
0.00059696
3.48897e-07
0.000596962
3.40172e-07
0.000596963
3.30523e-07
0.000596966
3.20043e-07
0.000596968
3.08827e-07
0.00059697
2.96975e-07
0.000596973
2.84585e-07
0.000596976
2.71759e-07
0.000596979
2.58594e-07
0.000596982
2.45188e-07
0.000596984
2.31636e-07
0.000596987
2.18028e-07
0.00059699
2.04453e-07
0.000596992
1.90992e-07
0.000596995
1.77722e-07
0.000596997
1.64713e-07
0.000596999
1.52032e-07
0.000597001
1.39735e-07
0.000597003
1.27875e-07
0.000597005
1.16495e-07
0.000597006
1.05633e-07
0.000597008
9.5318e-08
0.000597009
8.55721e-08
0.00059701
7.64101e-08
0.000597012
6.7839e-08
0.000597012
5.98584e-08
0.000597013
5.24603e-08
0.000597014
4.56285e-08
0.000597015
3.93394e-08
0.000597015
3.35605e-08
0.000597016
2.82504e-08
0.000597016
2.33572e-08
0.000597016
1.88168e-08
0.000597017
1.455e-08
0.000597017
1.04579e-08
0.000597017
6.41548e-09
2.21422e-09
0.000562532
-1.2234e-07
0.00056257
-1.18835e-07
0.000562602
-1.14877e-07
0.000562627
-1.10488e-07
0.000562645
-1.05622e-07
0.000562658
-1.00161e-07
0.000562666
-9.40471e-08
0.000562668
-8.7247e-08
0.000562666
-7.97409e-08
0.000562659
-7.153e-08
0.00056265
-6.26447e-08
0.000562637
-5.31542e-08
0.000562623
-4.31648e-08
0.000562609
-3.27655e-08
0.000562595
-2.21985e-08
0.000562577
-9.02052e-09
0.000562552
6.8753e-09
0.000562514
3.07037e-08
0.000562465
5.35658e-08
0.000562408
7.40586e-08
0.000562342
9.22375e-08
0.00056227
1.07644e-07
0.000562198
1.21708e-07
0.000562138
1.38212e-07
0.000562081
1.5614e-07
0.000562025
1.74647e-07
0.000561968
1.93333e-07
0.000561911
2.11942e-07
0.000561854
2.30283e-07
0.000561796
2.48197e-07
0.000561739
2.65542e-07
0.000561682
2.82188e-07
0.000561627
2.98014e-07
0.000561573
3.12909e-07
0.000561521
3.26768e-07
0.000561471
3.39502e-07
0.000561423
3.5103e-07
0.000561379
3.61285e-07
0.000561337
3.70215e-07
0.000561299
3.77778e-07
0.000561264
3.8395e-07
0.000561233
3.88717e-07
0.000561205
3.9208e-07
0.000561181
3.94052e-07
0.00056116
3.94657e-07
0.000561142
3.93927e-07
0.000561128
3.91905e-07
0.000561117
3.88642e-07
0.000561108
3.84193e-07
0.000561103
3.7862e-07
0.000561099
3.71991e-07
0.000561098
3.64374e-07
0.000561099
3.55843e-07
0.000561101
3.46474e-07
0.000561105
3.36344e-07
0.00056111
3.25532e-07
0.000561116
3.14116e-07
0.000561123
3.02178e-07
0.00056113
2.89798e-07
0.000561137
2.77056e-07
0.000561145
2.64032e-07
0.000561153
2.50805e-07
0.000561161
2.37453e-07
0.000561168
2.24051e-07
0.000561176
2.10673e-07
0.000561183
1.9739e-07
0.000561189
1.84269e-07
0.000561196
1.71374e-07
0.000561202
1.58764e-07
0.000561207
1.46495e-07
0.000561212
1.34616e-07
0.000561217
1.23172e-07
0.000561221
1.12201e-07
0.000561225
1.01735e-07
0.000561229
9.18e-08
0.000561232
8.24164e-08
0.000561235
7.35964e-08
0.000561237
6.5346e-08
0.000561239
5.7664e-08
0.000561241
5.05422e-08
0.000561243
4.39651e-08
0.000561244
3.79095e-08
0.000561246
3.23444e-08
0.000561247
2.72298e-08
0.000561247
2.25157e-08
0.000561248
1.81407e-08
0.000561249
1.40286e-08
0.000561249
1.00845e-08
0.000561249
6.18941e-09
2.13893e-09
0.000529349
-1.2192e-07
0.000529346
-1.16145e-07
0.000529341
-1.09767e-07
0.000529333
-1.02783e-07
0.000529323
-9.5112e-08
0.000529309
-8.66846e-08
0.000529293
-7.74485e-08
0.000529273
-6.73346e-08
0.000529249
-5.62359e-08
0.000529222
-4.39655e-08
0.000529189
-3.01034e-08
0.000529149
-1.34359e-08
0.000529102
4.42316e-09
0.000529053
1.62174e-08
0.000529001
2.95401e-08
0.000528947
4.46862e-08
0.000528893
6.15174e-08
0.000528844
7.99417e-08
0.000528798
9.96036e-08
0.000528752
1.19892e-07
0.000528704
1.40283e-07
0.000528651
1.60442e-07
0.000528592
1.80324e-07
0.00052853
2.00087e-07
0.000528467
2.19713e-07
0.000528402
2.39097e-07
0.000528338
2.58095e-07
0.000528273
2.76558e-07
0.000528209
2.94339e-07