/*--------------------------------*- C++ -*----------------------------------*\
| =========                 |                                                 |
| \\      /  F ield         | OpenFOAM: The Open Source CFD Toolbox           |
|  \\    /   O peration     | Version:  2.4.0                                 |
|   \\  /    A nd           | Web:      www.OpenFOAM.org                      |
|    \\/     M anipulation  |                                                 |
\*---------------------------------------------------------------------------*/
FoamFile
{
    version     2.0;
    format      ascii;
    class       volScalarField;
    location    "3.37";
    object      epsilon;
}
// * * * * * * * * * * * * * * * * * * * * * * * * * * * * * * * * * * * * * //

dimensions      [0 2 -3 0 0 0 0];

internalField   nonuniform List<scalar> 
6000
(
0.995166
0.38187
0.0488311
0.00572263
0.000806313
0.00306428
0.00162171
0.00314445
0.00382258
0.00702075
0.0119403
0.0198264
0.0295418
0.0412833
0.0551347
0.0726889
0.0904686
0.105749
0.0928213
0.0580796
0.0303774
0.0193032
0.047099
0.0919764
0.152044
0.212392
0.260229
0.296131
0.323282
0.344048
0.359743
0.371969
0.381046
0.387416
0.391527
0.393708
0.394128
0.392725
0.389056
0.382284
0.371312
0.363232
0.396928
0.42661
0.451286
0.471061
0.486842
0.499743
0.509806
0.514123
0.508901
0.493489
0.469968
0.446634
0.423369
0.416436
0.408801
0.457623
0.509234
0.739197
0.558276
0.355231
0.0228299
0.00519621
0.000388163
0.00092133
0.000798806
0.00133646
0.002039
0.00374469
0.0064201
0.0100466
0.0142998
0.019166
0.0249454
0.0323977
0.0406608
0.0482136
0.0405232
0.0271942
0.0175773
0.0138884
0.0455795
0.0743571
0.0870527
0.0983869
0.108682
0.116824
0.123101
0.127942
0.131835
0.135563
0.139043
0.142182
0.14514
0.148029
0.1509
0.153706
0.15626
0.158199
0.159028
0.160543
0.167755
0.172169
0.173741
0.172897
0.170424
0.167189
0.163676
0.162446
0.166066
0.17324
0.182879
0.189635
0.191967
0.182474
0.176013
0.162196
0.177339
0.189217
0.416727
0.411569
0.0305894
0.00376669
0.000321993
0.000558018
0.000656625
0.00105441
0.00176389
0.00319305
0.00537131
0.00817988
0.0114181
0.0151032
0.019528
0.0252106
0.0318776
0.0379916
0.0317589
0.0219225
0.0153606
0.015292
0.0495294
0.0646321
0.0684597
0.0748824
0.0810407
0.0858221
0.0894562
0.0923026
0.0947581
0.0972709
0.0997453
0.102202
0.10476
0.107506
0.110487
0.113686
0.116982
0.120111
0.122681
0.12523
0.128208
0.128673
0.126613
0.122461
0.116955
0.11088
0.104865
0.0999035
0.0973603
0.0971315
0.0992507
0.101884
0.104014
0.101094
0.0978386
0.0890547
0.0907742
0.0848411
0.367362
0.406329
0.0519729
0.00234135
0.000320417
0.000466062
0.000626643
0.000996666
0.00171106
0.00305424
0.00505737
0.00758638
0.0104484
0.0136737
0.0175575
0.0225701
0.0286211
0.0340751
0.0286386
0.0198711
0.0147273
0.0180858
0.0517797
0.0597251
0.0617187
0.0671161
0.0721689
0.0759966
0.0788683
0.0811364
0.0831453
0.0852051
0.0872632
0.0893871
0.0916864
0.0942458
0.0971207
0.100315
0.103742
0.107176
0.11027
0.112931
0.114517
0.113704
0.110478
0.10527
0.0988148
0.0918884
0.0851461
0.0791979
0.0748285
0.0720312
0.0708867
0.0706581
0.0708893
0.0690375
0.0668955
0.0609892
0.0600777
0.0532384
0.343014
0.376361
0.0744468
0.00182843
0.000347128
0.000445046
0.000631996
0.000999761
0.00172018
0.00303273
0.00496287
0.00736888
0.0100431
0.0130205
0.0166011
0.0212464
0.0269236
0.0319025
0.0270507
0.018642
0.0144678
0.0211635
0.0527945
0.0569243
0.0587745
0.0640589
0.06882
0.0723578
0.0749792
0.0770394
0.0788537
0.0806729
0.0824848
0.0843805
0.0864673
0.0888328
0.0915408
0.094612
0.0979821
0.10145
0.10469
0.107209
0.108127
0.10672
0.102965
0.0972858
0.0904094
0.0831113
0.0760506
0.0697216
0.0646261
0.0607848
0.0582175
0.0565277
0.0554533
0.0535124
0.0515241
0.0471086
0.0455021
0.0397948
0.329441
0.340289
0.0978064
0.00283245
0.00040776
0.000453358
0.000654081
0.00102604
0.00175232
0.00305568
0.00495636
0.00730443
0.00987195
0.0126913
0.016064
0.0204496
0.0258207
0.0303714
0.0260245
0.0176834
0.0143113
0.024085
0.0530249
0.0551603
0.0574484
0.0629901
0.0678099
0.0713447
0.0739316
0.0759325
0.0776498
0.0793097
0.0809344
0.0826294
0.0845027
0.0866452
0.0891292
0.0919892
0.0951787
0.0985143
0.101682
0.103937
0.104432
0.102683
0.0986567
0.0927589
0.0856998
0.0782438
0.0710413
0.0645374
0.0590951
0.0547431
0.0514591
0.0489768
0.0470951
0.0448903
0.0427788
0.0391387
0.0372978
0.0326561
0.321261
0.305822
0.114983
0.00812852
0.000548444
0.000481106
0.000687695
0.00106372
0.00179466
0.00309815
0.00499136
0.00731513
0.00981953
0.0125276
0.0157372
0.0199046
0.0249854
0.0291158
0.0252411
0.0168291
0.0141804
0.0266734
0.0527527
0.0539643
0.0569431
0.0629328
0.0680017
0.0716901
0.0743565
0.0763724
0.0780374
0.0795712
0.0810252
0.0825155
0.0841521
0.0860295
0.0882274
0.0907929
0.0936949
0.0967658
0.099696
0.101606
0.101765
0.0997847
0.0956214
0.0896571
0.0825721
0.0751057
0.0678876
0.0613323
0.0557255
0.0511026
0.0474186
0.0444694
0.0420755
0.0396253
0.0373389
0.0341112
0.0321694
0.028314
0.315829
0.275736
0.126787
0.0180387
0.000885916
0.000529668
0.000732707
0.00110919
0.00184257
0.00315
0.00504808
0.00736782
0.00983662
0.012462
0.0155331
0.0195
0.0242932
0.028021
0.0245613
0.0160427
0.0140611
0.0288637
0.0521572
0.0531074
0.0568993
0.0634468
0.0688829
0.0728222
0.0756368
0.0777093
0.0793432
0.0807615
0.0820415
0.0833084
0.0846749
0.0862388
0.0880867
0.0902772
0.092794
0.0954842
0.0980375
0.0995377
0.0993825
0.0972214
0.0930029
0.0870807
0.0800939
0.072742
0.0656211
0.0591177
0.0534668
0.048712
0.0447993
0.0415613
0.0388304
0.036183
0.0337341
0.0307309
0.0287333
0.0254361
0.311896
0.250624
0.134
0.030771
0.00170527
0.00060961
0.000792148
0.0011624
0.00189479
0.00320677
0.005117
0.0074465
0.00989967
0.0124634
0.0154132
0.0191904
0.023701
0.0270555
0.0239368
0.0153501
0.0139731
0.0306397
0.0513578
0.0524682
0.0571301
0.0643019
0.0701832
0.0744388
0.077446
0.0795996
0.0812114
0.0825129
0.0836055
0.084623
0.0856814
0.0868818
0.0883169
0.0900566
0.0920983
0.0943044
0.0963618
0.097398
0.0969191
0.0945953
0.090373
0.0845756
0.0777915
0.0706665
0.0637507
0.0573966
0.0518004
0.0470142
0.0429839
0.0395689
0.0366126
0.0338138
0.0312297
0.0283512
0.0263164
0.0234171
0.3089
0.23018
0.137362
0.044517
0.00377883
0.000747367
0.000872274
0.00122555
0.00195186
0.00326668
0.00519325
0.00754274
0.0099965
0.0125166
0.015361
0.0189606
0.0232027
0.0262238
0.0233622
0.0148134
0.0139681
0.0319967
0.0504379
0.051977
0.0575279
0.0653635
0.0717436
0.0763607
0.0795907
0.0818397
0.083431
0.0846076
0.0854942
0.0862332
0.0869446
0.0877325
0.0886958
0.0899151
0.0914011
0.0930318
0.0944942
0.0950198
0.0941917
0.0917043
0.0875086
0.0818984
0.0754049
0.0686083
0.0619998
0.05589
0.0504385
0.0457054
0.0416416
0.0381296
0.0350257
0.0321151
0.0294243
0.0266166
0.0245542
0.0219433
0.306552
0.213781
0.137679
0.057407
0.00844163
0.00100361
0.000983952
0.00130289
0.00201563
0.00332941
0.00527421
0.00765169
0.0101203
0.0126139
0.0153709
0.0188103
0.0228096
0.0255469
0.0228544
0.0145144
0.0141462
0.0329104
0.0494574
0.051591
0.0580256
0.0665467
0.0734619
0.0784722
0.0819453
0.0842976
0.0858654
0.0869053
0.0875647
0.0879954
0.0883218
0.0886518
0.0890896
0.0897267
0.0905869
0.0915642
0.0923548
0.092329
0.0911191
0.0884548
0.0842996
0.0789207
0.0727888
0.0664092
0.060203
0.0544286
0.0492073
0.0446044
0.0405785
0.0370333
0.0338415
0.0308532
0.028082
0.0253164
0.0232336
0.0208357
0.304676
0.200745
0.135756
0.0684535
0.0149513
0.00150462
0.00114579
0.00140121
0.00208927
0.00339572
0.00535857
0.00777027
0.0102668
0.0127516
0.0154419
0.0187457
0.02254
0.0250526
0.0224872
0.0144556
0.0145056
0.0334337
0.0484598
0.0512822
0.0585792
0.0677943
0.075268
0.0806932
0.0844227
0.0868816
0.0884202
0.0893095
0.0897198
0.0898132
0.0897195
0.0895503
0.0894158
0.0894182
0.0895935
0.0898516
0.0899223
0.0893077
0.0876821
0.08482
0.0807055
0.0755846
0.0698674
0.0639782
0.058259
0.0529052
0.0479956
0.0435961
0.0396727
0.03615
0.0329194
0.029884
0.0270564
0.0243186
0.0222215
0.0199844
0.303154
0.190441
0.132332
0.0771389
0.0227302
0.00253882
0.00139064
0.00153093
0.0021776
0.00346742
0.00544585
0.00789635
0.0104329
0.012927
0.0155748
0.0187752
0.0224134
0.024768
0.0223221
0.0146454
0.0149917
0.0336514
0.0474778
0.0510315
0.059158
0.0690655
0.0771113
0.0829652
0.0869591
0.089525
0.0910268
0.0917509
0.0918906
0.0916196
0.0910741
0.0903701
0.0896238
0.0889486
0.0883923
0.0878823
0.087208
0.0859736
0.0839009
0.0808166
0.0767325
0.0718798
0.0666114
0.0612688
0.0561079
0.0512515
0.0467303
0.0426038
0.0388437
0.0353942
0.0321681
0.0291139
0.0262518
0.023536
0.0214308
0.0193179
0.301905
0.182324
0.128025
0.0833307
0.0309132
0.0048179
0.0017791
0.00170819
0.00228766
0.00354757
0.00553637
0.0080283
0.0106157
0.0131377
0.0157701
0.0189056
0.0224462
0.0247161
0.0224044
0.0150875
0.0155574
0.0336429
0.0465356
0.0508252
0.0597403
0.0703302
0.0789535
0.0852435
0.0895058
0.0921766
0.0936333
0.0941775
0.0940266
0.0933668
0.0923419
0.0910734
0.0896837
0.0882982
0.0869758
0.0856707
0.0842423
0.0823667
0.0798217
0.0764908
0.0724192
0.0678302
0.0630254
0.0582661
0.0537189
0.0494255
0.0453631
0.0415754
0.0380361
0.0347076
0.0315256
0.0284792
0.0256031
0.022909
0.020802
0.0187873
0.300872
0.175949
0.123318
0.0871528
0.0389956
0.0086249
0.00242077
0.00195849
0.00242971
0.00364083
0.0056313
0.00816488
0.0108124
0.0133805
0.0160264
0.0191408
0.0226494
0.0249128
0.0227634
0.0157789
0.0161726
0.03348
0.045651
0.0506533
0.0603098
0.0715654
0.0807644
0.087493
0.0920243
0.0947966
0.0961994
0.0965498
0.09609
0.0950201
0.0934929
0.0916364
0.0895798
0.0874612
0.0853503
0.0832484
0.0810678
0.0785407
0.0755072
0.071909
0.0678277
0.0634852
0.0591404
0.0549804
0.0510837
0.0474047
0.0438632
0.0404753
0.0372113
0.0340492
0.0309482
0.0279354
0.0250648
0.0223955
0.0202933
0.0183585
0.300013
0.170953
0.118566
0.0888864
0.0464946
0.0138565
0.00351754
0.00232314
0.00261881
0.0037541
0.005733
0.00830534
0.01102
0.0136511
0.0163397
0.0194803
0.0230269
0.0253653
0.0234145
0.0167147
0.0168253
0.0332263
0.0448378
0.0505086
0.0608545
0.0727529
0.0825202
0.0896851
0.0944836
0.0973527
0.0986931
0.0988371
0.0980524
0.0965546
0.0945069
0.092045
0.0893058
0.086441
0.0835322
0.0806567
0.0777327
0.0745566
0.0710295
0.0671501
0.0630365
0.0589139
0.0550079
0.0514419
0.048212
0.0451826
0.0422139
0.03928
0.036342
0.0333894
0.0304046
0.0274503
0.0246038
0.0219647
0.0198742
0.0180077
0.299295
0.167046
0.114012
0.0888975
0.0529964
0.0200681
0.00546191
0.00287045
0.00287741
0.00389737
0.0058454
0.00844966
0.0112352
0.013944
0.0167034
0.0199183
0.0235752
0.0260722
0.0243622
0.0178926
0.0175217
0.0329371
0.0441059
0.0503857
0.061365
0.0738782
0.0842008
0.0917962
0.0968579
0.0998186
0.101089
0.101015
0.0998922
0.0979523
0.0953707
0.0922919
0.0888621
0.085247
0.081552
0.0779345
0.0742876
0.0704774
0.0664644
0.0622993
0.058134
0.0541989
0.0506957
0.0476976
0.0451291
0.042767
0.0404093
0.0379758
0.0354098
0.0327071
0.0298716
0.0270001
0.0241956
0.0215938
0.0195218
0.0177155
0.298694
0.163999
0.109808
0.0875816
0.0582095
0.0267579
0.00850871
0.00371289
0.0032395
0.00408512
0.00597467
0.00859891
0.011455
0.0142529
0.0171078
0.0204437
0.0242829
0.0270239
0.0256033
0.019315
0.0182842
0.03266
0.0434633
0.0502807
0.0618343
0.0749291
0.0857898
0.0938065
0.0991256
0.102172
0.103365
0.103065
0.101593
0.0992005
0.096076
0.092375
0.0882534
0.0838922
0.0794459
0.0751205
0.0707814
0.0663644
0.0618862
0.057443
0.0532135
0.0494319
0.0462839
0.0438082
0.0418733
0.0401779
0.0384532
0.0365565
0.0344027
0.031987
0.0293324
0.0265668
0.0238218
0.0212653
0.019219
0.0174675
0.298188
0.161629
0.106038
0.0853229
0.061982
0.0334542
0.0126369
0.00503399
0.00375736
0.00433823
0.00613005
0.00875581
0.0116768
0.0145708
0.017541
0.0210408
0.0251316
0.0282037
0.0271289
0.0209895
0.0191493
0.0324363
0.0429163
0.0501913
0.062257
0.0758957
0.0872731
0.095699
0.101268
0.104396
0.105505
0.10497
0.103142
0.10029
0.0966186
0.0922952
0.0874874
0.0823914
0.0772532
0.0722512
0.0672593
0.0622745
0.0573648
0.0526638
0.0483673
0.0447083
0.0418608
0.0398453
0.0384944
0.0374434
0.0363578
0.0350228
0.0333144
0.0312191
0.0287745
0.0261372
0.0234684
0.0209659
0.0189524
0.0172525
0.297761
0.159792
0.102733
0.0824662
0.0642953
0.0397222
0.0175856
0.00710945
0.00451211
0.00468722
0.00632509
0.00892545
0.0118992
0.0148906
0.0179897
0.0216894
0.0260964
0.0295886
0.0289266
0.0229269
0.0201646
0.0323023
0.0424706
0.0501166
0.0626291
0.0767697
0.0886383
0.0974589
0.103271
0.106473
0.107494
0.10672
0.10453
0.101216
0.0969969
0.0920559
0.0865732
0.0807722
0.0750019
0.0693595
0.0637615
0.0582574
0.0529619
0.0480363
0.0436822
0.0401215
0.037518
0.0358878
0.0350513
0.0346011
0.0341427
0.0333813
0.0321433
0.0303969
0.0281889
0.0257011
0.0231245
0.0206851
0.0187115
0.0170615
0.297401
0.158377
0.0998909
0.0793015
0.0652428
0.0451992
0.0230904
0.0101032
0.00562859
0.00517707
0.00657927
0.00911618
0.0121225
0.0152061
0.0184397
0.0223666
0.0271472
0.0311505
0.0309807
0.0251386
0.0213841
0.0322911
0.0421321
0.0500569
0.062948
0.077544
0.089875
0.0990736
0.105118
0.108391
0.109319
0.108303
0.105751
0.101973
0.0972112
0.0916619
0.0855209
0.0790689
0.0727127
0.0664736
0.0603218
0.0543549
0.0487292
0.0436246
0.0392345
0.0357585
0.0333454
0.0320184
0.0316097
0.0316963
0.031834
0.0316439
0.0308918
0.0295176
0.0275697
0.025251
0.0227819
0.0204146
0.018488
0.0168876
0.297095
0.157293
0.0974883
0.0760577
0.0650005
0.049616
0.0288287
0.0140027
0.00729678
0.00587473
0.00692055
0.00934078
0.0123494
0.0155122
0.0188773
0.0230481
0.02825
0.0328565
0.0332725
0.0276336
0.0228637
0.0324348
0.0419077
0.0500146
0.0632123
0.0782128
0.0909737
0.100531
0.106799
0.110137
0.110971
0.109712
0.106797
0.102561
0.0972631
0.0911187
0.0843401
0.0773155
0.0704046
0.0636168
0.0569676
0.0506
0.0447075
0.0394789
0.0350868
0.0316939
0.0294261
0.028319
0.0282391
0.0287803
0.0294638
0.0298271
0.0295663
0.028581
0.0269132
0.0247815
0.022434
0.020148
0.0182753
0.0167251
0.296836
0.156471
0.0954875
0.0729041
0.0637953
0.0528099
0.0344511
0.0186699
0.00968486
0.00687941
0.0073891
0.00961798
0.0125864
0.0158062
0.0192908
0.023707
0.0293676
0.0346693
0.0357794
0.0304161
0.0246561
0.0327663
0.0418058
0.049994
0.0634224
0.0787713
0.0919261
0.101822
0.108302
0.111701
0.112439
0.11094
0.107666
0.102978
0.0971549
0.0904322
0.0830626
0.0755222
0.0680935
0.0608077
0.0537197
0.0470169
0.0409258
0.0356353
0.0312845
0.0279859
0.0258307
0.0248656
0.0250099
0.0259078
0.0270687
0.0279518
0.0281762
0.0275896
0.0262179
0.0242888
0.0220763
0.0198803
0.0180683
0.0165695
0.296616
0.155854
0.0938448
0.0699562
0.0618745
0.0547263
0.0396159
0.0238744
0.0128828
0.00832461
0.00803981
0.00997593
0.0128455
0.0160888
0.0196714
0.0243152
0.0304619
0.0365476
0.0384743
0.0334836
0.0268059
0.0333206
0.0418378
0.0500025
0.0635802
0.0792157
0.0927248
0.102937
0.109618
0.113074
0.113717
0.111981
0.108355
0.103223
0.0968895
0.089608
0.08172
0.073698
0.0657928
0.0580604
0.0505929
0.0436218
0.0374025
0.0321154
0.0278554
0.024673
0.0226123
0.0217237
0.0219885
0.0231354
0.0246886
0.0260422
0.0267338
0.0265482
0.0254841
0.023771
0.0217051
0.0196074
0.0178625
0.016417
0.296427
0.155401
0.0925152
0.0672847
0.0594799
0.0554107
0.0440218
0.0293255
0.0168828
0.0103503
0.00894469
0.0104461
0.0131512
0.0163684
0.0200148
0.0248538
0.0314945
0.0384459
0.0413251
0.0368263
0.0293463
0.0341357
0.0420183
0.0500512
0.0636898
0.0795436
0.0933631
0.103866
0.110737
0.114247
0.114797
0.11283
0.10886
0.103297
0.09647
0.0886719
0.0803219
0.0718509
0.0635125
0.0553848
0.0475968
0.0404239
0.034146
0.0289273
0.0248094
0.0217726
0.0198033
0.0189425
0.0192338
0.0205178
0.0223652
0.0241251
0.025254
0.0254634
0.0247135
0.023227
0.0213181
0.0193266
0.0176548
0.0162647
0.296266
0.155076
0.0914547
0.064925
0.0568291
0.0549914
0.0474356
0.0347028
0.0215659
0.0130829
0.0101984
0.0110714
0.0135245
0.0166689
0.020323
0.0253101
0.0324294
0.0403154
0.0442933
0.0404269
0.0322965
0.0352521
0.0423662
0.0501573
0.0637579
0.0797533
0.0938348
0.104603
0.111651
0.115213
0.115673
0.113483
0.10918
0.103201
0.0959016
0.0876515
0.0788719
0.0699879
0.0612601
0.0527874
0.0447364
0.0374263
0.0311565
0.0260677
0.0221412
0.0192821
0.0174131
0.0165516
0.0167923
0.018105
0.02014
0.0222291
0.0237536
0.0243437
0.0239094
0.0226571
0.0209139
0.0190355
0.0174426
0.0161103
0.296128
0.154852
0.0906228
0.0628858
0.0541039
0.0536551
0.0497115
0.039684
0.026722
0.0165931
0.0119163
0.0119086
0.0139939
0.0170043
0.020622
0.0256788
0.0332345
0.0421047
0.0473343
0.0442604
0.0356607
0.0367103
0.0429058
0.0503457
0.0637945
0.0798447
0.0941345
0.105138
0.112351
0.115962
0.116337
0.113934
0.109312
0.102934
0.0952127
0.0865495
0.077374
0.0681147
0.0590409
0.0502718
0.0420132
0.0346274
0.0284281
0.0235248
0.0198331
0.0171823
0.0154302
0.0145589
0.0146945
0.0159387
0.0180522
0.0203833
0.022251
0.0231991
0.0230762
0.0220627
0.020492
0.0187329
0.0172239
0.0159518
0.296009
0.154707
0.0899826
0.0611577
0.0514452
0.0516214
0.0508001
0.0439715
0.0320782
0.0208581
0.0142217
0.0130314
0.014597
0.0173949
0.0209334
0.0259777
0.0338845
0.0437611
0.0503965
0.0482951
0.0394276
0.0385473
0.0436668
0.0506361
0.0638265
0.079819
0.0942572
0.105467
0.112831
0.116489
0.116785
0.114181
0.109256
0.102517
0.0944112
0.0853687
0.075832
0.0662357
0.0568583
0.0478395
0.0394262
0.0320224
0.0259504
0.0212804
0.0178591
0.0154423
0.0138265
0.0129517
0.0129527
0.0140498
0.0161366
0.0186162
0.0207651
0.0220405
0.0222194
0.0214456
0.0200525
0.0184178
0.0169972
0.0157879
0.295906
0.154625
0.0895019
0.0597194
0.0489534
0.0491172
0.0507457
0.0473179
0.0373274
0.0257491
0.0172207
0.0145303
0.0153823
0.0178675
0.0212722
0.0262508
0.0343634
0.0452328
0.053421
0.0524918
0.0435713
0.0407913
0.0446637
0.0510332
0.0638613
0.0797029
0.0942187
0.105584
0.113082
0.116786
0.11701
0.114222
0.109023
0.101955
0.0935
0.0841123
0.0742495
0.0643542
0.0547141
0.0454902
0.0369721
0.0296042
0.0237099
0.0193132
0.0161893
0.0140251
0.012563
0.0117008
0.0115611
0.0124556
0.0144214
0.0169545
0.0193155
0.0208798
0.0213453
0.020809
0.0195962
0.0180899
0.0167617
0.0156175
0.295817
0.154592
0.0891527
0.0585427
0.0466926
0.0463555
0.0496736
0.049549
0.0421544
0.0310439
0.0209659
0.0165085
0.0164105
0.0184571
0.0216592
0.0265292
0.0346926
0.0464716
0.0563423
0.0568043
0.0480531
0.0434566
0.0459051
0.0515496
0.0639078
0.0795049
0.0940258
0.105499
0.113108
0.116852
0.117014
0.114062
0.108618
0.101253
0.092482
0.0827831
0.0726294
0.0624726
0.052609
0.0432223
0.0346469
0.0273645
0.0216921
0.0176007
0.0147928
0.0128926
0.0115974
0.010767
0.0104981
0.0111595
0.012927
0.0154219
0.017921
0.0197295
0.0204611
0.0201562
0.0191245
0.0177495
0.0165168
0.0154398
0.295739
0.154596
0.088911
0.0575968
0.0446962
0.0435205
0.0477687
0.0505794
0.0462623
0.0364552
0.0254221
0.019069
0.0177555
0.0192074
0.0221216
0.02683
0.0349335
0.047436
0.0590886
0.0611788
0.0528244
0.0465379
0.0474027
0.0521999
0.063977
0.0792353
0.0936869
0.105221
0.112914
0.116693
0.1168
0.113706
0.108044
0.100414
0.0913604
0.0813841
0.0709746
0.0605925
0.050543
0.0410338
0.0324456
0.0252941
0.019882
0.0161205
0.0136401
0.0120092
0.0108886
0.010108
0.00973198
0.0101521
0.0116643
0.0140377
0.0165993
0.018602
0.0195743
0.0194913
0.0186393
0.0173971
0.0162624
0.0152545
0.295671
0.154629
0.0887568
0.0568507
0.0429742
0.0407585
0.0452505
0.0504179
0.0493983
0.0416621
0.0304496
0.0222917
0.0195018
0.0201723
0.0226937
0.0271762
0.0351607
0.0481038
0.0615834
0.0655526
0.0578295
0.0500046
0.0491758
0.0530001
0.064082
0.0789058
0.093212
0.104755
0.112507
0.116312
0.116375
0.113157
0.107306
0.0994421
0.0901383
0.0799184
0.0692874
0.0587153
0.0485154
0.0389219
0.0303631
0.0233842
0.0182649
0.0148517
0.0127049
0.0113435
0.0104009
0.00968391
0.00922581
0.00941395
0.0106355
0.0128163
0.0153666
0.0175097
0.0186928
0.018819
0.0181429
0.0170337
0.0159987
0.0150614
0.295612
0.154684
0.0886731
0.0562745
0.0415198
0.0381758
0.0423464
0.0491634
0.0513779
0.0463393
0.0358118
0.0262033
0.0217376
0.0214148
0.0234174
0.0275966
0.0353924
0.0485355
0.0637486
0.0698528
0.0630088
0.0538149
0.0512401
0.0539673
0.0642377
0.0785301
0.0926128
0.104113
0.111894
0.115717
0.115742
0.112421
0.106406
0.0983401
0.0888191
0.0783889
0.0675701
0.0568417
0.0465254
0.036884
0.0283944
0.0216259
0.016827
0.0137753
0.0119639
0.0108695
0.0101047
0.00946036
0.00894339
0.00891935
0.00983467
0.0117667
0.0142363
0.0164643
0.0178248
0.018144
0.0176379
0.0166607
0.0157261
0.0148607
0.29556
0.154754
0.0886455
0.0558412
0.0403148
0.0358403
0.0392701
0.0469887
0.0521032
0.0501857
0.0412011
0.0307475
0.024541
0.0230062
0.0243419
0.0281263
0.0356527
0.0488192
0.0655069
0.073995
0.0682648
0.0579208
0.0536049
0.0551186
0.0644606
0.0781233
0.0919026
0.103306
0.111084
0.114915
0.114908
0.111503
0.105351
0.0971125
0.0874065
0.0767985
0.0658247
0.0549723
0.044572
0.0349174
0.0265347
0.020011
0.0155553
0.0128743
0.0113976
0.0105658
0.00997643
0.00940971
0.00885241
0.00864033
0.00924952
0.0108927
0.0132197
0.0154768
0.0169782
0.0174716
0.0171275
0.0162798
0.0154455
0.0146527
0.295514
0.154836
0.0886623
0.0555266
0.0393347
0.0337875
0.0362034
0.0441176
0.0515736
0.0529497
0.0462742
0.0357683
0.0279583
0.02502
0.0255232
0.0288059
0.0359731
0.0490334
0.0668247
0.0778826
0.0734955
0.0622727
0.0562718
0.05647
0.0647685
0.0777023
0.0910963
0.102345
0.110089
0.113915
0.113882
0.110409
0.104145
0.0957639
0.0859043
0.0751504
0.0640531
0.0531077
0.042654
0.0330195
0.0247795
0.0185316
0.0144383
0.0121339
0.0109894
0.0104152
0.00999744
0.0095101
0.0089259
0.00854964
0.00886383
0.0101931
0.0123247
0.014557
0.016161
0.016807
0.016615
0.0158928
0.0151578
0.0144379
0.295474
0.154925
0.0887134
0.0553094
0.0385523
0.0320267
0.0332878
0.0407965
0.0498848
0.0544527
0.0506874
0.0410146
0.0319778
0.0275228
0.027022
0.0296816
0.0363908
0.0492042
0.0677542
0.0814067
0.0786243
0.0668256
0.0592333
0.0580353
0.06518
0.0772852
0.0902105
0.101245
0.108919
0.112726
0.11267
0.109146
0.102794
0.0942991
0.0843164
0.0734476
0.0622573
0.0512483
0.0407705
0.0311882
0.0231248
0.0171808
0.0134654
0.0115412
0.0107258
0.0104038
0.0101529
0.00974406
0.00914177
0.00862242
0.0086592
0.00966257
0.0115563
0.0137135
0.0153807
0.0161557
0.0161037
0.0155018
0.0148643
0.0142172
0.295439
0.155018
0.0887907
0.0551716
0.0379399
0.0305487
0.0306207
0.0372671
0.0472169
0.0546083
0.0541297
0.0461638
0.0365067
0.0305584
0.0288984
0.0308031
0.0369469
0.0493654
0.0683873
0.0844456
0.0835721
0.0715351
0.0624722
0.0598244
0.0657133
0.0768913
0.089263
0.100021
0.107587
0.11136
0.111282
0.107721
0.101305
0.0927233
0.0826473
0.0716934
0.0604393
0.0493947
0.0389207
0.0294217
0.021567
0.0159518
0.012627
0.0110854
0.0105958
0.0105205
0.0104305
0.0100969
0.00948162
0.00883666
0.00861665
0.00929291
0.0109169
0.0129531
0.0146443
0.0155232
0.0155974
0.0151093
0.0145665
0.0139913
0.295408
0.155113
0.0888872
0.0550978
0.0374714
0.0293322
0.0282588
0.0337432
0.0438116
0.0534328
0.0563509
0.0508577
0.0413594
0.0341273
0.031204
0.0322207
0.037685
0.0495568
0.0687695
0.0869523
0.088281
0.0763303
0.0659606
0.061842
0.0663857
0.0765404
0.0882732
0.0986918
0.10611
0.109829
0.109728
0.106142
0.0996831
0.0910422
0.0809014
0.0698912
0.0586012
0.0475474
0.037104
0.0277183
0.0201028
0.0148388
0.011915
0.0107573
0.0105903
0.0107561
0.0108194
0.0105554
0.00992918
0.00917277
0.00871751
0.00907354
0.010406
0.0122813
0.0139584
0.0149146
0.0151
0.0147178
0.014266
0.0137614
0.29538
0.155209
0.0889975
0.0550747
0.0371227
0.0283491
0.0262244
0.0303949
0.0399418
0.0510457
0.0571867
0.0547427
0.0462641
0.0381655
0.0339692
0.0339805
0.0386487
0.0498219
0.068941
0.0889194
0.0926775
0.0811407
0.069661
0.0640865
0.0672123
0.0762527
0.0872611
0.0972744
0.104501
0.108146
0.108019
0.10442
0.0979374
0.089262
0.0790836
0.0680445
0.056745
0.0457072
0.03532
0.026077
0.0187293
0.0138362
0.011322
0.0105492
0.0107022
0.0111027
0.0113097
0.0111068
0.0104692
0.00961283
0.0089438
0.00899249
0.0100207
0.0117017
0.0133287
0.014335
0.0146151
0.01433
0.0139647
0.0135288
0.295356
0.155303
0.0891168
0.0550916
0.0368729
0.0275688
0.0245139
0.0273415
0.0358799
0.0476573
0.0565762
0.0575072
0.0508868
0.0425294
0.0371866
0.0361158
0.0398775
0.0502054
0.0689477
0.0903527
0.096686
0.0858969
0.0735272
0.066549
0.068205
0.0760474
0.0862476
0.0957885
0.102779
0.106325
0.106167
0.102563
0.0960757
0.0873893
0.0771991
0.0661569
0.054873
0.0438748
0.0335687
0.0244967
0.0174439
0.0129391
0.0108416
0.0104551
0.0109256
0.011553
0.0118911
0.011738
0.0110864
0.0101399
0.00927829
0.00903696
0.00975646
0.0112167
0.01276
0.0137895
0.0141467
0.0139486
0.0136644
0.0132948
0.295335
0.155395
0.0892415
0.0551391
0.0367034
0.0269608
0.0231059
0.0246525
0.0318688
0.043544
0.0545719
0.0589142
0.0548684
0.0469925
0.0407944
0.0386366
0.0414014
0.0507507
0.0688382
0.0912677
0.100232
0.0905303
0.0775066
0.0692123
0.0693715
0.0759425
0.0852536
0.0942544
0.100961
0.104383
0.104186
0.100583
0.0941067
0.0854311
0.0752532
0.0642324
0.0529874
0.0420511
0.03185
0.0229771
0.0162444
0.0121431
0.0104686
0.0104701
0.0112554
0.0120999
0.0125534
0.012436
0.0117656
0.0107375
0.00970445
0.0091938
0.00960714
0.0108267
0.0122564
0.0132826
0.0136987
0.0135766
0.0133674
0.0130611
0.295316
0.155485
0.0893686
0.0552097
0.0365987
0.0264966
0.0219688
0.0223542
0.0281014
0.0390151
0.0513375
0.0588279
0.0578653
0.051259
0.0446622
0.0415161
0.0432327
0.0514898
0.0686605
0.0916888
0.103244
0.0949711
0.0815416
0.0720512
0.0707139
0.0759537
0.0842993
0.0926926
0.0990672
0.102335
0.102089
0.0984913
0.0920397
0.0833947
0.0732515
0.0622747
0.0510905
0.0402371
0.0301642
0.0215176
0.0151285
0.0114441
0.0101987
0.0105904
0.0116874
0.012736
0.0132857
0.0131872
0.012492
0.0113901
0.0102065
0.00944976
0.00956547
0.010531
0.0118211
0.0128183
0.0132749
0.0132169
0.0130759
0.0128292
0.2953
0.155571
0.0894959
0.0552971
0.0365455
0.0261508
0.0210665
0.0204402
0.0247099
0.0343756
0.0471313
0.0572307
0.0595899
0.0549911
0.0485872
0.0446776
0.0453566
0.0524347
0.0684569
0.0916474
0.105656
0.0991451
0.0855706
0.0750323
0.0722283
0.0760933
0.083404
0.0911238
0.0971158
0.100199
0.0998917
0.0962998
0.0898846
0.0812878
0.0711997
0.0602879
0.0491846
0.0384337
0.028512
0.0201183
0.0140944
0.0108387
0.0100284
0.0108133
0.0122172
0.0134536
0.0140764
0.0139783
0.0132511
0.0120827
0.0107695
0.00979183
0.00962344
0.0103279
0.0114566
0.0124007
0.0128789
0.0128727
0.0127923
0.012601
0.295285
0.155653
0.0896217
0.0553961
0.0365327
0.0259012
0.0203627
0.0188815
0.0217664
0.0298924
0.0422776
0.05423
0.0598449
0.0578474
0.0523023
0.0479849
0.0477209
0.0535791
0.0682594
0.0911792
0.107405
0.10297
0.0895291
0.0781144
0.0739033
0.0763695
0.082585
0.0895679
0.0951267
0.0979932
0.0976081
0.0940212
0.0876515
0.0791184
0.0691036
0.0582758
0.0472718
0.036642
0.0268941
0.0187792
0.0131403
0.010324
0.00995517
0.0111366
0.0128406
0.0142436
0.014914
0.014797
0.0140302
0.0128023
0.0113798
0.0102075
0.00977262
0.0102144
0.0111641
0.0120331
0.0125144
0.012547
0.012519
0.0123785
0.295272
0.155732
0.0897445
0.0555027
0.0365511
0.0257288
0.0198232
0.0176369
0.019291
0.02577
0.0371262
0.050051
0.0585498
0.0595232
0.0554981
0.0512404
0.0502271
0.0548866
0.0680828
0.0903209
0.108439
0.106354
0.0933475
0.0812489
0.0757197
0.076785
0.0818565
0.0880439
0.0931194
0.0957345
0.0952543
0.0916685
0.0853508
0.0768944
0.0669692
0.0562422
0.0453545
0.0348631
0.0253113
0.0175006
0.0122646
0.00989747
0.00997738
0.0115587
0.0135525
0.0150966
0.015787
0.0156324
0.0148189
0.0135378
0.0120254
0.0106851
0.0100045
0.010187
0.0109446
0.0117183
0.0121847
0.0122428
0.0122586
0.0121637
0.295261
0.155807
0.0898636
0.0556135
0.0365929
0.0256178
0.0194177
0.0166604
0.0172651
0.0221392
0.0320103
0.0450129
0.0557559
0.0597905
0.0578549
0.0541939
0.0527254
0.0562836
0.0679181
0.0891042
0.108714
0.109191
0.0969497
0.0843797
0.07765
0.0773364
0.0812294
0.0865685
0.0911121
0.0934407
0.0928457
0.0892547
0.082993
0.0746239
0.064802
0.054191
0.0434344
0.0330982
0.023765
0.0162827
0.011466
0.00955737
0.0100942
0.0120782
0.0143471
0.0160021
0.0166844
0.0164759
0.0156096
0.0142809
0.0126964
0.0112142
0.0103106
0.0102416
0.0107981
0.011459
0.0118932
0.0119634
0.0120138
0.0119589
0.295251
0.155877
0.0899782
0.055726
0.036652
0.0255551
0.0191199
0.0159067
0.0156451
0.0190591
0.0272081
0.039492
0.0516474
0.05853
0.0590816
0.0565618
0.0550172
0.0576547
0.0677258
0.0875507
0.108197
0.111366
0.100248
0.0874431
0.0796576
0.078013
0.0807094
0.085156
0.089122
0.091129
0.0903976
0.0867928
0.0805885
0.0723146
0.0626076
0.0521254
0.0415136
0.0313484
0.0222565
0.0151261
0.0107434
0.00930246
0.0103054
0.0126938
0.0152174
0.0169491
0.0175968
0.0173211
0.016398
0.0150266
0.0133853
0.0117856
0.0106831
0.0103737
0.0107242
0.0112573
0.011643
0.0117117
0.0117874
0.0117662
0.295242
0.155944
0.090088
0.0558383
0.0367233
0.0255298
0.0189078
0.0153342
0.0143753
0.0165297
0.0229173
0.0338729
0.046526
0.0557543
0.058954
0.0580567
0.056866
0.0588432
0.0674303
0.0856651
0.106864
0.112753
0.103142
0.0903661
0.0816964
0.0787957
0.0802968
0.083817
0.0871641
0.0888149
0.0879247
0.0842952
0.0781473
0.0699742
0.060391
0.0500486
0.0395936
0.0296151
0.0207873
0.0140312
0.0100957
0.00913217
0.0106116
0.0134034
0.0161552
0.0179263
0.0185161
0.0181649
0.017183
0.0157729
0.0140872
0.012392
0.0111146
0.0105789
0.0107219
0.0111149
0.011437
0.0114909
0.0115823
0.0115882
0.295234
0.156007
0.0901927
0.0559489
0.0368029
0.0255329
0.0187631
0.0149065
0.0133972
0.0145093
0.0192465
0.0285001
0.0407763
0.0516164
0.0573501
0.0584217
0.0580174
0.0596571
0.0669248
0.0834298
0.104698
0.113226
0.10551
0.0930645
0.0837101
0.0796563
0.079985
0.0825577
0.0852507
0.0865127
0.0854406
0.0817738
0.0756788
0.0676095
0.0581569
0.0479632
0.0376757
0.0278996
0.0193593
0.0129988
0.00952248
0.00904662
0.0110138
0.0142045
0.0171508
0.0189229
0.0194364
0.0190069
0.0179668
0.0165208
0.0147999
0.0130277
0.0115989
0.0108527
0.0107902
0.0110333
0.011278
0.0113041
0.0114014
0.0114275
0.295227
0.156066
0.0902922
0.0560568
0.0368874
0.0255573
0.0186709
0.0145933
0.0126553
0.0129329
0.0162234
0.023638
0.0348167
0.0464004
0.0542764
0.0574671
0.0582263
0.0598836
0.0660682
0.0807996
0.101683
0.11266