/*--------------------------------*- C++ -*----------------------------------*\
| =========                 |                                                 |
| \\      /  F ield         | OpenFOAM: The Open Source CFD Toolbox           |
|  \\    /   O peration     | Version:  2.4.0                                 |
|   \\  /    A nd           | Web:      www.OpenFOAM.org                      |
|    \\/     M anipulation  |                                                 |
\*---------------------------------------------------------------------------*/
FoamFile
{
    version     2.0;
    format      ascii;
    class       volVectorField;
    location    "950";
    object      U;
}
// * * * * * * * * * * * * * * * * * * * * * * * * * * * * * * * * * * * * * //

dimensions      [0 1 -1 0 0 0 0];

internalField   nonuniform List<vector> 
12032
(
(8.06609e-06 -0.987636 1.98134e-07)
(-2.23658e-06 -0.988481 -4.67283e-07)
(-2.84807e-06 -0.990825 -3.03794e-07)
(-6.97259e-07 -0.995916 -1.18055e-06)
(5.62661e-06 -1.00522 -3.60039e-06)
(2.00665e-05 -1.01926 -8.05007e-06)
(7.89206e-05 -1.03502 -9.66075e-06)
(0.000267688 -1.03847 1.54891e-05)
(0.000518117 -0.952085 0.00011831)
(0.00153802 -0.388162 0.000477634)
(3.60409e-05 -0.547111 0.0013307)
(-0.00072295 -0.991752 0.000409258)
(-0.000521829 -1.04134 2.00542e-05)
(-0.000157788 -1.03224 1.72082e-05)
(-4.94837e-05 -1.01625 1.03593e-05)
(-1.21378e-05 -1.00315 4.92262e-06)
(-8.5397e-07 -0.994846 2.24171e-06)
(2.12359e-06 -0.990464 1.06155e-06)
(2.12198e-06 -0.988532 2.29237e-07)
(-1.76107e-05 -0.987872 5.56199e-07)
(1.4007e-05 -0.987711 2.26459e-07)
(-6.09e-06 -0.988556 -4.85516e-07)
(-6.9362e-06 -0.990898 -3.2742e-07)
(2.44266e-07 -0.995998 -1.18436e-06)
(2.64762e-05 -1.00533 -3.58973e-06)
(9.58934e-05 -1.01945 -8.08869e-06)
(0.000297223 -1.03538 -9.62291e-06)
(0.000812625 -1.03931 1.54936e-05)
(0.00138525 -0.954248 0.000118708)
(0.00307729 -0.392484 0.000482643)
(-0.000546509 -0.552171 0.00135147)
(-0.00165501 -0.995035 0.0004112)
(-0.00111441 -1.0426 2.00142e-05)
(-0.000437817 -1.03278 1.72812e-05)
(-0.000160431 -1.0165 1.03505e-05)
(-4.89793e-05 -1.00328 4.93384e-06)
(-9.5329e-06 -0.99494 2.23613e-06)
(2.54126e-06 -0.990544 1.04219e-06)
(4.84279e-06 -0.988607 2.36366e-07)
(-4.1511e-05 -0.987947 5.39635e-07)
(-6.05138e-06 -0.987763 2.81771e-07)
(-6.08557e-06 -0.988609 -4.65171e-07)
(-2.51414e-06 -0.990955 -3.26897e-07)
(2.03561e-05 -0.996071 -1.18963e-06)
(8.5903e-05 -1.00545 -3.5669e-06)
(0.000250851 -1.01969 -8.0571e-06)
(0.000643357 -1.03589 -9.7223e-06)
(0.00149852 -1.04044 1.54923e-05)
(0.00233312 -0.956596 0.000119328)
(0.00475803 -0.393686 0.000490496)
(-0.00104861 -0.556798 0.00136771)
(-0.00268032 -0.997474 0.000412833)
(-0.00188706 -1.04393 1.99165e-05)
(-0.00085096 -1.03345 1.7242e-05)
(-0.00035421 -1.01681 1.04025e-05)
(-0.000135732 -1.00344 4.9513e-06)
(-4.26017e-05 -0.995033 2.21958e-06)
(-7.02441e-06 -0.990609 1.002e-06)
(3.04501e-06 -0.988663 2.47394e-07)
(-3.88267e-05 -0.987998 5.65487e-07)
(-6.4807e-05 -0.987781 2.64409e-07)
(-1.13497e-06 -0.988629 -4.25899e-07)
(1.44086e-05 -0.990988 -3.25503e-07)
(6.50441e-05 -0.996139 -1.1797e-06)
(0.000187735 -1.0056 -3.58187e-06)
(0.000465611 -1.02003 -7.98483e-06)
(0.00106104 -1.03664 -9.89985e-06)
(0.00221878 -1.04196 1.54831e-05)
(0.00321372 -0.959467 0.000120261)
(0.00583209 -0.394948 0.000500488)
(-0.00153573 -0.555195 0.0013992)
(-0.00347494 -1.00048 0.000414424)
(-0.00265653 -1.04566 2.01151e-05)
(-0.00131175 -1.03435 1.71398e-05)
(-0.000604507 -1.01726 1.04919e-05)
(-0.000261383 -1.00365 4.95871e-06)
(-9.98814e-05 -0.995131 2.22966e-06)
(-3.05647e-05 -0.990655 1.01517e-06)
(-5.10005e-06 -0.988689 2.62066e-07)
(4.48083e-06 -0.988018 6.16884e-07)
(-0.000171064 -0.987761 2.25884e-07)
(1.18166e-05 -0.988617 -4.02402e-07)
(4.635e-05 -0.991001 -3.2111e-07)
(0.000135932 -0.996212 -1.17627e-06)
(0.000332421 -1.0058 -3.60982e-06)
(0.000731995 -1.02049 -8.04097e-06)
(0.00152256 -1.03759 -9.8574e-06)
(0.0029281 -1.04379 1.5465e-05)
(0.0040314 -0.962638 0.000121577)
(0.00604836 -0.395989 0.000502397)
(-0.00236626 -0.550253 0.00144344)
(-0.00400072 -1.00395 0.000417353)
(-0.00323398 -1.04768 2.02097e-05)
(-0.00174146 -1.03543 1.7244e-05)
(-0.000883674 -1.01782 1.04716e-05)
(-0.000417666 -1.00391 4.94796e-06)
(-0.000181595 -0.995235 2.24399e-06)
(-6.97796e-05 -0.990684 1.03904e-06)
(-2.18414e-05 -0.988686 2.33162e-07)
(9.49207e-05 -0.988002 5.92773e-07)
(-0.000320955 -0.987709 2.16349e-07)
(3.41798e-05 -0.98858 -4.17813e-07)
(9.64006e-05 -0.991004 -3.14171e-07)
(0.000234882 -0.996301 -1.18683e-06)
(0.00051703 -1.00606 -3.59613e-06)
(0.00105167 -1.02107 -8.14755e-06)
(0.00203165 -1.03872 -9.74957e-06)
(0.00364911 -1.04582 1.54607e-05)
(0.00473382 -0.965913 0.000123035)
(0.00647097 -0.39035 0.00051682)
(-0.00315246 -0.550089 0.00147373)
(-0.00462364 -1.00726 0.000421132)
(-0.00376286 -1.04974 2.01006e-05)
(-0.00218485 -1.03665 1.74308e-05)
(-0.00119144 -1.01847 1.04022e-05)
(-0.000609713 -1.00422 4.92839e-06)
(-0.0002919 -0.995355 2.248e-06)
(-0.000128904 -0.990706 1.03828e-06)
(-4.94266e-05 -0.988659 1.84727e-07)
(0.000231469 -0.987957 5.40678e-07)
(-0.000499428 -0.987642 2.01792e-07)
(6.81128e-05 -0.988537 -4.51606e-07)
(0.000166804 -0.991017 -3.45682e-07)
(0.000364616 -0.996427 -1.19075e-06)
(0.000741102 -1.0064 -3.56782e-06)
(0.00142299 -1.02178 -8.12735e-06)
(0.00259849 -1.04004 -9.8869e-06)
(0.00444814 -1.04807 1.54601e-05)
(0.00549864 -0.969271 0.000124474)
(0.00713485 -0.386318 0.000536318)
(-0.00378574 -0.549871 0.00150241)
(-0.00536096 -1.01017 0.000424445)
(-0.00447693 -1.05184 2.03143e-05)
(-0.00271444 -1.03798 1.73979e-05)
(-0.00154692 -1.01921 1.04381e-05)
(-0.000841487 -1.0046 4.93568e-06)
(-0.000432719 -0.995513 2.23337e-06)
(-0.000207731 -0.990739 1.03823e-06)
(-8.83703e-05 -0.988626 2.05273e-07)
(0.000398957 -0.987897 5.67823e-07)
(-0.000679704 -0.987585 1.78996e-07)
(0.000113992 -0.988512 -4.6298e-07)
(0.000258465 -0.991067 -3.60933e-07)
(0.000525231 -0.99662 -1.18227e-06)
(0.00100535 -1.00685 -3.55244e-06)
(0.00183662 -1.02265 -8.05981e-06)
(0.00321253 -1.04158 -1.01056e-05)
(0.00530109 -1.05057 1.54219e-05)
(0.00638525 -0.972886 0.000126197)
(0.00863501 -0.380745 0.000555855)
(-0.00427994 -0.551538 0.00152223)
(-0.00637743 -1.0134 0.000427962)
(-0.00539832 -1.05419 2.06385e-05)
(-0.00332385 -1.03947 1.72733e-05)
(-0.00195538 -1.0201 1.05177e-05)
(-0.00110827 -1.00508 4.94933e-06)
(-0.000598721 -0.995736 2.20482e-06)
(-0.000305145 -0.990809 1.03802e-06)
(-0.000138093 -0.988613 2.38232e-07)
(0.000572577 -0.987848 5.69564e-07)
(-0.000830763 -0.987563 2.03848e-07)
(0.00017233 -0.988534 -4.31981e-07)
(0.000370773 -0.991184 -3.43461e-07)
(0.000715951 -0.99691 -1.16922e-06)
(0.00130637 -1.00743 -3.56638e-06)
(0.00228819 -1.0237 -8.02443e-06)
(0.00386591 -1.04335 -1.0071e-05)
(0.00618606 -1.05337 1.53472e-05)
(0.00726965 -0.976913 0.000128204)
(0.00968044 -0.375492 0.000576161)
(-0.0051244 -0.546038 0.00156304)
(-0.00728775 -1.01743 0.000432682)
(-0.00621706 -1.05691 2.06167e-05)
(-0.00392409 -1.04121 1.73814e-05)
(-0.00238829 -1.02117 1.05664e-05)
(-0.00140085 -1.00569 4.92869e-06)
(-0.000786633 -0.996051 2.19727e-06)
(-0.000418422 -0.990943 1.04144e-06)
(-0.000198442 -0.988647 2.55606e-07)
(0.000720174 -0.987835 5.074e-07)
(-0.000919564 -0.987606 2.62097e-07)
(0.000241816 -0.988627 -4.40831e-07)
(0.000502129 -0.991394 -3.1313e-07)
(0.000933056 -0.997325 -1.16017e-06)
(0.00164337 -1.00818 -3.60065e-06)
(0.00278185 -1.02496 -8.09405e-06)
(0.00456081 -1.04536 -9.94207e-06)
(0.00708951 -1.05645 1.54882e-05)
(0.0081228 -0.981191 0.000130506)
(0.0100599 -0.368779 0.00059428)
(-0.00623442 -0.5374 0.00161944)
(-0.00797208 -1.02187 0.0004378)
(-0.00695949 -1.05988 2.04762e-05)
(-0.00452364 -1.04318 1.75946e-05)
(-0.00283283 -1.02243 1.0516e-05)
(-0.00171058 -1.00645 4.88924e-06)
(-0.000993831 -0.996481 2.19454e-06)
(-0.000548125 -0.991169 1.01348e-06)
(-0.000269074 -0.988755 2.32597e-07)
(0.000807961 -0.987887 5.21763e-07)
(-0.000917996 -0.987736 2.4205e-07)
(0.000321417 -0.988818 -4.55679e-07)
(0.000649447 -0.991719 -3.01226e-07)
(0.00117172 -0.997884 -1.15575e-06)
(0.00200804 -1.00911 -3.57495e-06)
(0.00331614 -1.02645 -8.22438e-06)
(0.0053136 -1.04764 -1.01222e-05)
(0.00812476 -1.05983 1.58029e-05)
(0.00916392 -0.985666 0.000132929)
(0.0106784 -0.362282 0.000614207)
(-0.00759624 -0.533708 0.00165367)
(-0.00892677 -1.02628 0.000443768)
(-0.00774451 -1.063 2.0677e-05)
(-0.00516201 -1.04535 1.75442e-05)
(-0.00329985 -1.02386 1.04087e-05)
(-0.00204374 -1.00737 4.8652e-06)
(-0.0012206 -0.997046 2.18111e-06)
(-0.000691691 -0.991506 9.72204e-07)
(-0.00034813 -0.988957 1.8293e-07)
(0.000804494 -0.988029 5.63298e-07)
(-0.00080658 -0.987964 1.93972e-07)
(0.000409879 -0.989118 -4.15925e-07)
(0.000811995 -0.992172 -2.88446e-07)
(0.00143108 -0.9986 -1.15784e-06)
(0.00239683 -1.01023 -3.52072e-06)
(0.00388628 -1.02818 -8.16882e-06)
(0.00613217 -1.05024 -1.04189e-05)
(0.00929478 -1.0636 1.57929e-05)
(0.0103465 -0.990635 0.00013536)
(0.012578 -0.348491 0.000639992)
(-0.00879364 -0.533615 0.0016813)
(-0.0102463 -1.03069 0.000449053)
(-0.00880587 -1.06641 2.10122e-05)
(-0.00589606 -1.04775 1.73735e-05)
(-0.00381538 -1.0255 1.03401e-05)
(-0.0024052 -1.00846 4.83403e-06)
(-0.00146648 -0.997759 2.16797e-06)
(-0.000849062 -0.991969 9.50235e-07)
(-0.000434954 -0.989271 1.58485e-07)
(0.000688714 -0.988274 5.81176e-07)
(-0.000576966 -0.988297 1.7064e-07)
(0.000508665 -0.989532 -4.04341e-07)
(0.000992707 -0.992759 -3.02815e-07)
(0.00171854 -0.999483 -1.15497e-06)
(0.00282969 -1.01157 -3.4857e-06)
(0.00452363 -1.03021 -8.04468e-06)
(0.00707401 -1.05327 -1.03849e-05)
(0.0106767 -1.06802 1.57144e-05)
(0.01169 -0.996719 0.000137754)
(0.0143489 -0.33506 0.00067641)
(-0.0102312 -0.526592 0.00173496)
(-0.0116071 -1.03613 0.00045422)
(-0.0100892 -1.07041 2.09552e-05)
(-0.00673537 -1.05053 1.72454e-05)
(-0.00439015 -1.0274 1.03576e-05)
(-0.0028037 -1.00975 4.84288e-06)
(-0.0017363 -0.998634 2.15726e-06)
(-0.00102049 -0.992567 9.5642e-07)
(-0.000529335 -0.989702 1.25512e-07)
(0.000449252 -0.988628 5.59943e-07)
(-0.000229714 -0.988732 1.87138e-07)
(0.000618615 -0.990059 -3.94409e-07)
(0.00119472 -0.993485 -3.2946e-07)
(0.00204216 -1.00054 -1.15477e-06)
(0.003323 -1.01316 -3.49601e-06)
(0.0052682 -1.03259 -7.9699e-06)
(0.00820585 -1.05686 -1.02474e-05)
(0.0123899 -1.07342 1.57755e-05)
(0.013445 -1.00464 0.000140323)
(0.0163167 -0.320216 0.000709409)
(-0.0126153 -0.520279 0.00180708)
(-0.0132628 -1.04332 0.000460619)
(-0.0114877 -1.07525 2.07232e-05)
(-0.00767576 -1.05381 1.73227e-05)
(-0.00503325 -1.02964 1.04332e-05)
(-0.00324015 -1.01128 4.86568e-06)
(-0.00202829 -0.999677 2.13375e-06)
(-0.00120736 -0.993299 9.76019e-07)
(-0.00063259 -0.990248 1.4265e-07)
(9.00421e-05 -0.989089 5.1184e-07)
(0.000219903 -0.989262 2.35647e-07)
(0.000737931 -0.990691 -3.99748e-07)
(0.00141164 -0.994338 -3.33402e-07)
(0.00238679 -1.00177 -1.14902e-06)
(0.00384375 -1.01497 -3.54476e-06)
(0.00603593 -1.03529 -8.0186e-06)
(0.00935074 -1.06092 -1.01775e-05)
(0.0141398 -1.07954 1.58699e-05)
(0.0150816 -1.01379 0.000142835)
(0.0176048 -0.296341 0.000753363)
(-0.0156677 -0.509539 0.00191093)
(-0.0146732 -1.05141 0.000467554)
(-0.012711 -1.0806 2.06031e-05)
(-0.00854116 -1.05745 1.75027e-05)
(-0.00565375 -1.03213 1.04366e-05)
(-0.00367945 -1.01299 4.82806e-06)
(-0.00232852 -1.00087 2.10956e-06)
(-0.00140165 -0.99415 9.71387e-07)
(-0.000741266 -0.990897 1.76064e-07)
(-0.000372088 -0.989643 4.95168e-07)
(0.000746128 -0.989871 2.62645e-07)
(0.000858374 -0.991408 -4.08538e-07)
(0.00162621 -0.995288 -3.19113e-07)
(0.00271598 -1.00311 -1.14307e-06)
(0.00431148 -1.0169 -3.56006e-06)
(0.00665806 -1.03808 -8.13027e-06)
(0.0100988 -1.06492 -1.03308e-05)
(0.0148868 -1.08518 1.63245e-05)
(0.0151279 -1.02109 0.000145518)
(0.0164284 -0.252508 0.000806354)
(-0.0166569 -0.496087 0.00199761)
(-0.0147192 -1.05761 0.000475394)
(-0.0130055 -1.0853 2.0294e-05)
(-0.00903696 -1.06093 1.73363e-05)
(-0.00612573 -1.03463 1.02828e-05)
(-0.00406083 -1.01477 4.77092e-06)
(-0.00260984 -1.00214 2.10257e-06)
(-0.00159064 -0.995085 9.48144e-07)
(-0.000849527 -0.991624 1.90663e-07)
(-0.000905139 -0.99027 4.77217e-07)
(0.0013186 -0.990539 2.59941e-07)
(0.000978536 -0.992186 -4.15284e-07)
(0.00184019 -0.996303 -2.98223e-07)
(0.0030463 -1.00451 -1.1448e-06)
(0.00479859 -1.01889 -3.50631e-06)
(0.00735926 -1.0409 -8.13882e-06)
(0.0110821 -1.06888 -1.03415e-05)
(0.0159622 -1.09052 1.68321e-05)
(0.0146669 -1.02682 0.000148037)
(0.0134089 -0.174512 0.000862207)
(-0.0157269 -0.474423 0.00208416)
(-0.0144673 -1.06199 0.000482058)
(-0.0138143 -1.08954 1.99254e-05)
(-0.00978683 -1.06423 1.702e-05)
(-0.00667921 -1.03708 1.02366e-05)
(-0.0044607 -1.01656 4.77671e-06)
(-0.00288966 -1.00345 2.09612e-06)
(-0.0017746 -0.996067 9.1812e-07)
(-0.000954613 -0.9924 2.10623e-07)
(-0.0014745 -0.990947 4.57594e-07)
(0.00192958 -0.991256 2.25937e-07)
(0.00111862 -0.993023 -3.99974e-07)
(0.00210808 -0.997401 -2.87637e-07)
(0.00351669 -1.00606 -1.14744e-06)
(0.00563566 -1.02116 -3.40653e-06)
(0.00895656 -1.0444 -8.0881e-06)
(0.0143916 -1.07451 -1.03832e-05)
(0.0235318 -1.10017 1.66842e-05)
(0.0276288 -1.04473 0.000149093)
(0.0479515 -0.194505 0.000895697)
(-0.0352185 -0.508464 0.0021406)
(-0.0283992 -1.07622 0.000487326)
(-0.0201583 -1.0973 1.97738e-05)
(-0.0125039 -1.06885 1.69802e-05)
(-0.00796613 -1.04004 1.02775e-05)
(-0.0051324 -1.01856 4.76778e-06)
(-0.00326972 -1.00486 2.09385e-06)
(-0.00199553 -0.997102 9.26321e-07)
(-0.00107157 -0.993214 2.12002e-07)
(-0.0020615 -0.991657 4.35537e-07)
(0.00260553 -0.992042 2.17614e-07)
(0.00131911 -0.993964 -3.80995e-07)
(0.00251982 -0.998692 -2.93599e-07)
(0.00429806 -1.008 -1.15252e-06)
(0.00710736 -1.0243 -3.55157e-06)
(0.0117251 -1.04973 -8.47506e-06)
(0.0194963 -1.08401 -1.17213e-05)
(0.0327546 -1.11778 1.38226e-05)
(0.0732864 -1.07859 0.000143497)
(0.0814735 -0.476647 -0.00494892)
(-0.132716 -0.0949194 -0.00550354)
(-0.0746119 -1.10421 0.000488802)
(-0.0278693 -1.11148 1.58699e-05)
(-0.0165711 -1.07653 1.53976e-05)
(-0.0101268 -1.04441 9.57806e-06)
(-0.00627378 -1.0212 4.53499e-06)
(-0.00387838 -1.00655 2.00617e-06)
(-0.00231989 -0.998269 9.14349e-07)
(-0.0012318 -0.994096 2.23575e-07)
(-0.00267993 -0.99241 4.42338e-07)
(0.00339002 -0.992951 2.08463e-07)
(0.00159842 -0.995085 -3.62315e-07)
(0.00308824 -1.00031 -2.82898e-07)
(0.00534058 -1.01057 -1.09895e-06)
(0.00893192 -1.02862 -3.65306e-06)
(0.0147306 -1.05719 -9.03802e-06)
(0.0237409 -1.09691 -1.40799e-05)
(0.0460512 -1.13929 5.77244e-06)
(0.050047 -1.13406 -0.000374004)
(0.147169 -0.668641 -0.00316509)
(-0.0338396 0.211385 -0.0106862)
(-0.0778787 -1.16337 -0.000507929)
(-0.0375263 -1.12834 -8.05167e-06)
(-0.0197097 -1.08678 6.76274e-06)
(-0.0124458 -1.05042 6.18998e-06)
(-0.00769831 -1.02474 3.16887e-06)
(-0.00469683 -1.00872 1.46481e-06)
(-0.00276853 -0.999678 6.98253e-07)
(-0.00145363 -0.995105 1.35605e-07)
(-0.00336277 -0.993248 3.85527e-07)
(0.0042937 -0.994028 2.0654e-07)
(0.00190081 -0.996427 -3.14377e-07)
(0.00362949 -1.00225 -1.44842e-07)
(0.00611507 -1.01357 -5.11326e-07)
(0.00972051 -1.03329 -1.90015e-06)
(0.0147 -1.0642 -4.77267e-06)
(0.0208821 -1.10643 -8.88216e-06)
(0.0322205 -1.14939 -6.29159e-06)
(0.0534964 -1.16337 -0.000215811)
(0.0829862 -1.28693 -0.0137589)
(-0.0366505 -1.24034 -0.00179078)
(-0.0288236 -1.13738 -2.86148e-05)
(-0.0181498 -1.09485 -2.88629e-06)
(-0.0127072 -1.05628 1.49237e-06)
(-0.00843471 -1.02864 1.07505e-06)
(-0.00535545 -1.01124 5.95273e-07)
(-0.00321659 -1.00134 3.26933e-07)
(-0.00170164 -0.996284 -6.15705e-10)
(-0.00413191 -0.994212 2.2362e-07)
(0.0052665 -0.995276 2.04683e-07)
(0.00210919 -0.99793 -2.57311e-07)
(0.00385034 -1.00426 -1.91518e-08)
(0.00593858 -1.01623 -2.77689e-08)
(0.00793651 -1.03631 -5.67895e-08)
(0.00792631 -1.0658 1.31826e-07)
(-0.000315775 -1.10053 -2.02219e-06)
(-0.034246 -1.11814 -9.411e-06)
(-0.139647 -1.02916 -3.32721e-05)
(-0.153517 -0.603948 0.000585227)
(0.135576 -0.558239 0.00134011)
(0.107577 -1.0652 -5.04594e-05)
(0.022578 -1.11567 -1.81045e-05)
(-0.00228508 -1.09145 -3.9778e-06)
(-0.00772841 -1.05818 -3.87885e-07)
(-0.00720135 -1.03138 1.40587e-07)
(-0.00530224 -1.01357 1.34704e-07)
(-0.00343148 -1.00309 1.05132e-07)
(-0.00188552 -0.997601 -1.04573e-07)
(-0.00495857 -0.995314 1.68738e-07)
(0.00621605 -0.996628 1.94439e-07)
(0.00212999 -0.999441 -2.40991e-07)
(0.0036098 -1.00597 -1.50996e-08)
(0.00481208 -1.01779 -2.73595e-08)
(0.0045851 -1.03631 -9.49274e-08)
(-6.36416e-05 -1.06031 4.54772e-07)
(-0.0155182 -1.07972 -8.60578e-07)
(-0.0493732 -1.06454 -3.18347e-06)
(-0.0870588 -0.962868 -3.58683e-07)
(-0.0535006 -0.741821 1.86351e-05)
(0.0740111 -0.79077 9.98502e-06)
(0.0805598 -0.994466 -4.02735e-06)
(0.0399575 -1.07189 -3.01004e-06)
(0.0109597 -1.07572 -1.15145e-06)
(-0.00121182 -1.05436 -2.90967e-07)
(-0.00456628 -1.03175 6.65738e-08)
(-0.00445979 -1.01506 3.08035e-08)
(-0.0032803 -1.00463 3.35189e-08)
(-0.00192354 -0.998942 -1.54438e-07)
(-0.00577713 -0.996512 1.59914e-07)
(0.00704325 -0.997971 1.81395e-07)
(0.00193216 -1.00078 -2.08603e-07)
(0.00294707 -1.00708 -1.97268e-08)
(0.00308065 -1.01789 -3.05343e-08)
(0.000871255 -1.03344 -2.10128e-07)
(-0.00650907 -1.05039 4.18439e-07)
(-0.022607 -1.05663 -4.02036e-07)
(-0.0464098 -1.02869 -1.05276e-06)
(-0.060225 -0.946625 4.03336e-07)
(-0.0274666 -0.842688 4.26265e-06)
(0.0406122 -0.863771 1.39225e-06)
(0.0589799 -0.969342 -5.98243e-07)
(0.0407563 -1.0384 -4.33034e-07)
(0.0182633 -1.05633 -1.69634e-07)
(0.00449093 -1.04654 -1.32714e-07)
(-0.00145176 -1.02969 6.33075e-08)
(-0.0030577 -1.01536 3.42399e-08)
(-0.0027647 -1.0057 3.8262e-08)
(-0.00178041 -1.00016 -1.67256e-07)
(-0.00650855 -0.997719 1.67708e-07)
(0.00767156 -0.999179 1.63268e-07)
(0.00154313 -1.0018 -1.83787e-07)
(0.00199478 -1.00746 -1.96169e-08)
(0.00113913 -1.01663 -2.85212e-08)
(-0.00244401 -1.02861 -7.03616e-08)
(-0.0106934 -1.03907 1.97955e-07)
(-0.0244959 -1.03746 -5.17513e-07)
(-0.0394141 -1.00925 -2.67804e-07)
(-0.0420622 -0.951842 5.58701e-07)
(-0.0164783 -0.896682 1.40098e-06)
(0.0249577 -0.906896 -1.4587e-07)
(0.0429824 -0.966204 -3.08514e-07)
(0.0363142 -1.01785 -9.95918e-08)
(0.0210435 -1.03902 -1.80115e-08)
(0.00852309 -1.03698 1.86466e-08)
(0.00148052 -1.02583 6.83055e-08)
(-0.00140873 -1.01449 3.86169e-08)
(-0.00198121 -1.00617 2.64101e-08)
(-0.0014688 -1.00113 -1.51818e-07)
(-0.00708962 -0.998832 1.3291e-07)
(0.00805665 -1.00014 1.36675e-07)
(0.00102356 -1.00241 -1.34202e-07)
(0.00091107 -1.00714 -2.58368e-08)
(-0.000728096 -1.01434 -2.2006e-08)
(-0.00502811 -1.0228 -3.11317e-08)
(-0.0129667 -1.02842 -7.69778e-08)
(-0.0237741 -1.02337 -2.71346e-07)
(-0.0325657 -1.00013 -2.49757e-07)
(-0.0304479 -0.962214 -5.31932e-10)
(-0.0109393 -0.931245 3.61618e-07)
(0.0166899 -0.936526 -2.21085e-08)
(0.03203 -0.971131 -3.87053e-07)
(0.0310104 -1.00669 1.34523e-07)
(0.0212594 -1.02549 2.30851e-07)
(0.0109635 -1.02752 7.74713e-08)
(0.00389107 -1.02094 3.94143e-08)
(0.000241103 -1.01268 2.85219e-08)
(-0.00105221 -1.00602 2.12224e-08)
(-0.00103367 -1.00177 -1.13143e-07)
(-0.00747565 -0.999755 1.0575e-07)
(0.00815745 -1.00078 1.52369e-07)
(0.00043655 -1.00257 -1.43581e-07)
(-0.00018151 -1.00619 -2.69854e-08)
(-0.00235282 -1.01139 -4.1858e-08)
(-0.00684772 -1.01684 -2.88469e-08)
(-0.0138881 -1.01929 -5.40367e-08)
(-0.0219553 -1.01369 -1.71481e-07)
(-0.0268139 -0.996669 -2.34857e-07)
(-0.0228636 -0.972638 -1.30743e-07)
(-0.00779139 -0.954924 -1.1277e-07)
(0.0118986 -0.957749 -3.15693e-07)
(0.0245245 -0.978044 -2.93452e-08)
(0.0261515 -1.00122 1.96945e-07)
(0.0201941 -1.01564 1.00014e-07)
(0.0121782 -1.01909 1.38145e-08)
(0.00568586 -1.0157 3.21877e-08)
(0.00173219 -1.01021 4.91115e-08)
(-8.47128e-05 -1.00532 2.37114e-08)
(-0.000524528 -1.00202 -1.22561e-07)
(-0.00762161 -1.00041 1.16158e-07)
(0.00792834 -1.001 1.24688e-07)
(-0.000173048 -1.00225 -1.18991e-07)
(-0.00120945 -1.0047 -3.43052e-08)
(-0.00367163 -1.00801 -2.35369e-08)
(-0.0079936 -1.01113 -1.48237e-08)
(-0.0139176 -1.01184 -8.26173e-10)
(-0.0197303 -1.00729 -6.85886e-08)
(-0.0221221 -0.996256 -1.91113e-07)
(-0.0176653 -0.982121 -1.29155e-07)
(-0.00581723 -0.97238 -1.04134e-07)
(0.00886855 -0.973858 -3.22219e-07)
(0.0191976 -0.9852 3.53647e-08)
(0.0219587 -0.999094 1.79807e-07)
(0.0185395 -1.00873 1.07179e-07)
(0.0125304 -1.01194 -3.02289e-09)
(0.0069055 -1.01052 -1.29046e-08)
(0.00299309 -1.00727 4.00439e-08)
(0.000856392 -1.0041 1.89448e-08)
(2.12609e-05 -1.00183 -8.67604e-08)
(-0.00747913 -1.00069 7.67289e-08)
(0.00739266 -1.00076 8.99937e-08)
(-0.000756305 -1.00144 -8.31982e-08)
(-0.00211294 -1.00275 -4.55995e-08)
(-0.00467836 -1.00443 -4.05534e-08)
(-0.00861828 -1.00586 2.25051e-08)
(-0.0134094 -1.00589 7.34418e-08)
(-0.0174651 -1.0032 -1.20376e-08)
(-0.0183215 -0.997485 -1.11602e-07)
(-0.0139392 -0.990617 -1.15199e-07)
(-0.0044803 -0.986088 9.04444e-09)
(0.00681405 -0.986751 -1.61646e-07)
(0.015282 -0.99208 9.43045e-08)
(0.0184343 -0.998916 1.34269e-07)
(0.0166891 -1.00401 6.77392e-08)
(0.0123241 -1.00602 -5.49528e-08)
(0.00765066 -1.0056 -5.08404e-08)
(0.00399771 -1.00406 3.10667e-08)
(0.00171024 -1.00242 2.61634e-08)
(0.00055845 -1.0012 -8.6222e-08)
(-0.0070557 -1.00057 8.20655e-08)
(0.00688506 -1.00026 4.81294e-08)
(-0.00115716 -1.00046 -5.19817e-08)
(-0.00270407 -1.00084 -3.39512e-08)
(-0.0052778 -1.00131 -8.776e-09)
(-0.00888231 -1.00168 1.83543e-08)
(-0.0128943 -1.00163 5.56523e-08)
(-0.0158683 -1.00081 2.13936e-08)
(-0.0159105 -0.999191 -5.5975e-08)
(-0.0117123 -0.997314 -5.36464e-08)
(-0.00370684 -0.996107 4.58464e-08)
(0.00562406 -0.99628 3.08027e-08)
(0.0129172 -0.997708 8.17094e-08)
(0.0161498 -0.99959 6.13481e-08)
(0.0153356 -1.00105 -2.37329e-08)
(0.0120103 -1.00168 -5.10716e-08)
(0.00801509 -1.00162 -1.58957e-08)
(0.00461475 -1.00121 1.97047e-08)
(0.00227971 -1.00074 6.20587e-09)
(0.000933825 -1.00039 -5.11996e-08)
(-0.00663867 -1.0002 4.33824e-08)
(0.0562248 0.313215 -0.00578867)
(0.0774572 -1.25254 -0.0136514)
(0.150605 -0.651631 0.00672936)
(0.0410816 0.450647 0.0167378)
(0.0764832 -1.25284 0.0174086)
(-0.0756856 -1.10239 0.00116043)
(-0.0453112 -1.21053 -0.00432711)
(-0.0303564 0.22956 0.0148969)
(-0.0735333 -1.1018 0.00623982)
(-0.0452164 -1.20968 0.00639649)
(-0.176891 -0.681085 -0.00160146)
(0.0026505 -0.271845 0.00231581)
(0.0816463 -1.28726 0.0169648)
(-0.177338 -0.680431 0.00130283)
(0.00266376 -0.274158 -0.00267592)
(-0.016798 -1.21314 -0.00523853)
(0.0979756 -0.429522 0.00248503)
(0.208175 -0.851474 -0.00109752)
(-0.0171889 -1.21275 0.00743875)
(0.100087 -0.42943 -0.002763)
(0.208676 -0.851281 0.000449536)
(0.318222 -0.316676 -0.00994231)
(0.251878 -0.289109 -0.012379)
(0.0387962 -0.297849 0.000358571)
(0.257037 0.15631 -0.0190511)
(0.0566753 -0.194685 -0.00789322)
(0.262148 -0.37964 -0.00644521)
(-0.162807 0.262159 0.00225901)
(-0.0335102 0.277243 -0.000419153)
(-0.0326463 0.00339298 -0.0643587)
(-0.0243523 0.349927 0.00494751)
(-0.0425347 0.10907 -0.0478059)
(-0.181641 0.234974 -0.0022937)
(-0.115598 0.315549 0.0030719)
(-0.0167793 0.450511 0.0121644)
(-0.12433 0.086553 -0.000194436)
(-0.0199085 0.414146 0.00869411)
(-0.0457478 0.121647 -0.0434671)
(-0.0971656 0.349197 0.0108045)
(0.00671441 -0.0116979 0.0157995)
(0.0311512 0.201884 -0.00378316)
(0.174704 -0.200424 -0.019996)
(0.0334221 0.195192 0.00166023)
(0.126227 0.0212301 0.0263861)
(0.00786759 -0.0525548 -0.0142247)
(0.00708139 0.000458121 0.0101872)
(0.0233807 0.227973 0.00823317)
(0.181922 -0.203537 0.012243)
(0.0287564 0.208931 0.00625366)
(0.146984 0.0395928 0.0193171)
(0.00693358 -0.0129401 0.0162141)
(-0.129196 0.0287925 -0.0123454)
(-0.0157909 0.0305407 -0.104597)
(-0.00585558 -0.157972 0.000463709)
(-0.0276782 0.0853875 -0.0481559)
(-0.0246809 0.0984395 0.00436098)
(-0.0900541 -0.188154 -0.00344979)
(-0.119177 0.052787 -0.00669841)
(-0.0550008 0.0610321 0.0317764)
(-0.0114973 -0.170847 -0.00398715)
(-0.0312142 0.0880801 -0.0491089)
(-0.020595 0.140253 0.013075)
(-0.110251 -0.1831 -0.00107205)
(0.321125 -0.306103 0.0104729)
(0.240912 -0.276788 0.00910753)
(0.0411079 -0.285612 -0.00195091)
(0.201955 0.132443 -0.0310394)
(0.0600965 -0.186637 0.0016552)
(0.26297 -0.374907 0.0070926)
(-0.0599643 -0.832163 -0.00129242)
(-0.159702 -0.0697338 -0.00130579)
(-0.0809688 -0.910586 -0.000814383)
(-0.127951 -0.0768883 0.0111721)
(-0.0589994 -0.828207 0.0055979)
(-0.149759 -0.050621 0.00813988)
(-0.079803 -0.90685 0.00531188)
(0.0879669 -1.15922 -0.000615465)
(0.0583524 -1.15089 -0.000231537)
(0.0950496 -1.28491 -0.000411022)
(0.0501021 -1.13396 0.00018186)
(0.0877083 -1.15923 0.0010371)
(0.0584576 -1.15085 2.8964e-05)
(0.095209 -1.28525 0.00132892)
(-0.114809 -0.280227 0.00204056)
(-0.0359298 0.208426 0.0071552)
(-0.145306 -0.124016 -0.0121645)
(0.0152051 0.295283 -0.0104396)
(-0.154605 -0.128136 0.00620315)
(0.0169239 0.294784 0.00397256)
(-0.115079 -0.302593 -0.00635115)
(-0.0334595 -1.13599 -0.000766506)
(-0.0610512 -1.25183 -0.000837563)
(-0.0426887 -1.14961 -0.000771206)
(-0.0776171 -1.16328 0.00190998)
(-0.0334329 -1.13597 0.000823816)
(-0.0608916 -1.25181 0.00150853)
(-0.0427616 -1.14957 0.000694615)
(0.0940706 -1.30943 -7.2666e-05)
(-0.0143046 -1.12547 -0.000127688)
(-0.107229 -1.14216 6.43025e-05)
(0.0534477 -1.1634 -9.18502e-05)
(0.0940232 -1.30976 0.000536376)
(-0.0143065 -1.12552 9.56815e-05)
(-0.107305 -1.14197 -0.000278159)
(-0.166187 -0.173191 -0.0114181)
(0.0905407 -1.25794 0.00268574)
(-0.019954 -0.0204687 -0.0993839)
(-0.116049 -0.973155 -0.00811841)
(-0.0261773 0.0188588 -0.0674836)
(-0.12138 -0.951597 0.00236211)
(-0.142063 -0.319431 -0.00452618)
(0.0784634 -0.140378 -0.00899315)
(0.00694609 -0.250857 -0.00162568)
(0.00717267 -0.180239 0.00426473)
(0.0573571 -0.287863 -0.00973621)
(-0.0380506 -1.1635 -0.000874007)
(0.0730118 -1.14219 -0.00123687)
(0.0110331 -1.13694 -0.00094948)
(-0.0369166 -1.2403 0.00132863)
(-0.0381215 -1.1635 0.000670534)
(0.0731033 -1.14212 0.000775335)
(0.0110358 -1.13694 0.00073263)
(0.126919 -0.268017 0.00571764)
(0.0846761 -1.22559 0.00518261)
(0.102901 -1.11141 -0.0063753)
(-0.0514872 -0.00175477 -0.0566195)
(0.109591 -1.05407 -0.000372026)
(-0.0604737 0.0719567 -0.0394026)
(0.130578 -0.293243 -0.00379117)
(-0.0632315 0.15945 -0.0106588)
(0.0186602 0.00643504 -0.0091072)
(0.0117096 0.122156 -0.0195934)
(-0.0919211 0.0687521 -0.00052402)
(0.121626 -0.237276 0.00768928)
(0.0839911 -1.22605 -0.00330415)
(0.100573 -1.09427 0.0124222)
(-0.152992 0.0447235 -0.00385865)
(0.110005 -1.03096 0.00332367)
(-0.0634623 0.0793389 -0.0366131)
(0.11669 -0.243431 0.0141355)
(-0.0502633 0.356751 0.00288175)
(0.0120603 0.321153 0.00703056)
(0.0140527 0.314238 0.000607176)
(-0.0432727 0.364156 0.00770305)
(0.0664314 0.0421386 -0.0103466)
(0.0302856 -0.0363542 -0.0178392)
(0.0307449 0.0141286 -0.0173468)
(0.0718239 0.0209186 -0.0119353)
(-0.0559361 -0.842954 -0.00485796)
(-0.0472931 -1.20584 0.000155404)
(-0.0934733 -1.16428 0.00030291)
(0.182229 -0.652302 0.00929317)
(-0.0932719 -1.16019 0.00103327)
(0.243054 -0.0716674 -0.0421363)
(-0.0442714 -0.94769 -0.0297468)
(-0.0926024 -0.263078 0.00544975)
(-0.033622 0.221414 0.00046021)
(-0.124346 -0.123132 0.0167541)
(0.0131822 0.311768 0.0125549)
(-0.141918 -0.129301 -0.00226782)
(0.0153958 0.30496 0.00135684)
(-0.0905481 -0.264143 0.0140436)
(0.0576583 0.120591 -0.00560743)
(0.046134 0.120123 -0.000309553)
(0.0322208 0.113339 -0.0067205)
(0.0765953 0.123016 0.00191606)
(-0.0604443 -0.802705 -0.0059034)
(-0.0469334 -1.20406 0.00155891)
(-0.0916526 -1.16304 0.00688778)
(0.19251 -0.653982 0.00785415)
(-0.0928507 -1.15791 0.00287473)
(0.262305 -0.0136039 -0.0330714)
(-0.0440914 -1.00127 0.0264005)
(-0.021754 -0.049061 0.043209)
(-0.00213722 -0.189664 0.00349901)
(-0.0191663 0.01627 0.0564499)
(-0.0319693 -0.25887 0.00608503)
(-0.185569 -0.15377 -0.0025329)
(0.0891259 -1.25904 -0.00325723)
(-0.0610864 0.0108457 0.0303913)
(-0.117121 -0.970639 0.00617622)
(-0.0271612 0.0231978 -0.0665052)
(-0.121574 -0.949773 -0.00442881)
(-0.153784 -0.30535 0.000831249)
(-0.0140077 -0.000593271 0.0488368)
(-0.00898119 -0.106461 0.00349146)
(-0.0432209 0.0243866 0.020087)
(-0.0179961 -0.0763201 0.014563)
(0.203669 -0.825183 -0.00793121)
(-0.0172448 -1.20838 -8.36607e-05)
(0.229569 -0.799635 -0.00316428)
(0.114446 -1.06034 -0.00685701)
(0.324018 -0.395662 -0.0085458)
(0.116064 -1.05522 0.00151639)
(0.197039 -0.858002 -0.00365169)
(0.0661105 -0.0954865 0.0212929)
(0.00420013 -0.223026 0.00335539)
(0.00606243 -0.0683055 0.0107873)
(0.0546572 -0.265035 0.012655)
(0.205057 -0.820442 0.00600742)
(-0.0177804 -1.20678 0.0005432)
(0.217337 -0.800608 0.00958375)
(0.114901 -1.06012 0.00723736)
(0.345584 -0.399564 0.0105)
(0.116467 -1.05397 -0.00307691)
(0.19801 -0.856812 0.00360666)
(0.114246 0.0385097 0.000703881)
(0.0110276 0.0764085 0.0142409)
(0.00991007 -0.0970195 0.00659278)
(0.0836658 0.172303 0.0128597)
(0.173644 -0.260463 -0.00469144)
(0.220381 -0.251681 0.0188164)
(0.21914 -0.401702 -0.00915761)
(0.221908 -0.367106 -0.00796469)
(0.157365 -0.293774 -0.00455415)
(0.227757 -0.0895626 0.00269715)
(0.345129 0.0776524 0.0122944)
(0.237712 -0.167717 0.0144584)
(0.270499 -0.227823 -0.0101789)
(0.240001 0.208155 0.0131298)
(-0.0547294 0.22073 -0.00629972)
(0.011758 0.216982 -0.0147726)
(-0.053427 0.257144 -0.00825632)
(0.0105638 0.176716 -0.0152194)
(-0.131516 0.0866647 -0.0173353)
(-0.00268025 0.00889147 -0.167822)
(-0.0343105 0.0554757 -0.0608149)
(-0.143002 0.127495 -0.00839176)
(-0.138057 0.16523 -0.00710029)
(-0.00271962 0.0190553 -0.159434)
(-0.143267 0.0327295 -0.0155308)
(-0.12171 0.135441 -0.0189182)
(-0.125489 0.222691 -0.0098449)
(-0.00448988 0.0370233 -0.115526)
(-0.0359731 0.0694259 -0.0586346)
(-0.129218 0.203935 -0.0089929)
(-0.118498 0.165622 -0.0194714)
(-0.00280568 0.0204723 -0.154593)
(-0.053042 0.333098 -0.00169923)
(0.0111082 0.274046 -0.00987733)
(-0.0484011 0.316276 -0.00423168)
(0.0141582 0.289122 -0.0045505)
(-0.120506 0.257725 -0.00650179)
(-0.0328618 0.0304354 0.0173047)
(-0.0699654 0.153786 -0.0191785)
(-0.112512 0.308976 0.00393132)
(-0.114511 0.310269 -0.00106047)
(-0.0181989 0.0666908 -0.0224893)
(-0.135026 0.258814 0.00138041)