/*--------------------------------*- C++ -*----------------------------------*\
| =========                 |                                                 |
| \\      /  F ield         | OpenFOAM: The Open Source CFD Toolbox           |
|  \\    /   O peration     | Version:  2.4.0                                 |
|   \\  /    A nd           | Web:      www.OpenFOAM.org                      |
|    \\/     M anipulation  |                                                 |
\*---------------------------------------------------------------------------*/
FoamFile
{
    version     2.0;
    format      ascii;
    class       volVectorField;
    location    "1.4";
    object      U;
}
// * * * * * * * * * * * * * * * * * * * * * * * * * * * * * * * * * * * * * //

dimensions      [0 1 -1 0 0 0 0];

internalField   nonuniform List<vector> 
6000
(
(0.990441 -0.000273757 0)
(0.970231 0.0020497 0)
(0.948316 0.00334879 0)
(0.925587 0.00413663 0)
(0.903364 0.00452023 0)
(0.882322 0.00453154 0)
(0.862685 0.00428822 0)
(0.844553 0.00390126 0)
(0.82799 0.00344516 0)
(0.812998 0.00296863 0)
(0.79952 0.00250387 0)
(0.78746 0.00207086 0)
(0.7767 0.00168054 0)
(0.767117 0.00133769 0)
(0.758585 0.00104306 0)
(0.750981 0.00079488 0)
(0.744191 0.000589976 0)
(0.738106 0.000424415 0)
(0.732629 0.000293968 0)
(0.727671 0.000194365 0)
(0.723153 0.000121442 0)
(0.719006 7.12107e-05 0)
(0.715169 3.99053e-05 0)
(0.71159 2.40335e-05 0)
(0.708224 2.03975e-05 0)
(0.705034 2.61549e-05 0)
(0.701988 3.88078e-05 0)
(0.699061 5.61866e-05 0)
(0.696231 7.64547e-05 0)
(0.693481 9.81298e-05 0)
(0.690797 0.000120091 0)
(0.688166 0.000141569 0)
(0.685577 0.000162125 0)
(0.683019 0.000181626 0)
(0.68048 0.000200218 0)
(0.677948 0.00021831 0)
(0.675406 0.00023656 0)
(0.672834 0.000255876 0)
(0.670208 0.000277429 0)
(0.667496 0.000302683 0)
(0.664658 0.00033344 0)
(0.661643 0.000371917 0)
(0.658385 0.000420843 0)
(0.654801 0.000483609 0)
(0.650785 0.000564464 0)
(0.646201 0.000668782 0)
(0.640874 0.000803423 0)
(0.634582 0.00097721 0)
(0.627039 0.00120159 0)
(0.617877 0.00149154 0)
(0.606618 0.00186673 0)
(0.592643 0.00235334 0)
(0.575159 0.00298537 0)
(0.553081 0.00380954 0)
(0.525196 0.00487565 0)
(0.489303 0.00627161 0)
(0.444935 0.00794411 0)
(0.38419 0.010177 0)
(0.324562 0.0121529 0)
(0.186688 0.0111543 0)
(1.00417 0.00480515 0)
(1.01373 0.00718215 0)
(1.0207 0.00682435 0)
(1.02486 0.00641226 0)
(1.02687 0.00609189 0)
(1.02702 0.00572672 0)
(1.02543 0.0053509 0)
(1.02232 0.00499901 0)
(1.01792 0.00467253 0)
(1.01248 0.00436642 0)
(1.00623 0.00407884 0)
(0.999349 0.0038094 0)
(0.992003 0.00355768 0)
(0.984333 0.00332308 0)
(0.976458 0.00310483 0)
(0.968478 0.00290209 0)
(0.960477 0.00271393 0)
(0.952526 0.00253941 0)
(0.944682 0.00237758 0)
(0.936995 0.00222759 0)
(0.929502 0.00208863 0)
(0.922237 0.00196 0)
(0.915221 0.00184104 0)
(0.908473 0.00173119 0)
(0.902003 0.00162993 0)
(0.895815 0.00153673 0)
(0.889909 0.00145123 0)
(0.884279 0.00137325 0)
(0.878915 0.00130267 0)
(0.873806 0.0012394 0)
(0.868936 0.0011834 0)
(0.864288 0.00113467 0)
(0.859845 0.00109327 0)
(0.855586 0.00105933 0)
(0.851492 0.00103312 0)
(0.84754 0.0010151 0)
(0.843709 0.00100598 0)
(0.839975 0.00100682 0)
(0.836312 0.00101911 0)
(0.83269 0.00104493 0)
(0.829076 0.00108709 0)
(0.82543 0.0011493 0)
(0.821705 0.00123646 0)
(0.817844 0.00135497 0)
(0.813773 0.00151316 0)
(0.809402 0.00172185 0)
(0.804617 0.00199518 0)
(0.799269 0.00235161 0)
(0.793167 0.00281539 0)
(0.786064 0.00341857 0)
(0.777631 0.00420385 0)
(0.76743 0.00522839 0)
(0.75488 0.00656978 0)
(0.739136 0.00833154 0)
(0.71918 0.0106546 0)
(0.692962 0.0137117 0)
(0.659565 0.0177124 0)
(0.610235 0.02273 0)
(0.55867 0.0298411 0)
(0.427759 0.0303463 0)
(1.00036 0.00116234 0)
(1.00263 0.00202372 0)
(1.00544 0.00239372 0)
(1.00803 0.00304093 0)
(1.01052 0.00370471 0)
(1.013 0.00418587 0)
(1.01529 0.00451 0)
(1.01726 0.00472085 0)
(1.01884 0.00483323 0)
(1.02001 0.0048611 0)
(1.02076 0.00482369 0)
(1.02109 0.00473967 0)
(1.021 0.00462418 0)
(1.02051 0.00448883 0)
(1.01964 0.00434231 0)
(1.01841 0.00419092 0)
(1.01683 0.00403901 0)
(1.01492 0.0038895 0)
(1.0127 0.00374419 0)
(1.01019 0.00360414 0)
(1.00741 0.00346985 0)
(1.00437 0.00334157 0)
(1.00111 0.00321933 0)
(0.997629 0.00310297 0)
(0.993966 0.00299219 0)
(0.990139 0.00288653 0)
(0.986174 0.00278572 0)
(0.982097 0.0026896 0)
(0.977931 0.00259814 0)
(0.973701 0.0025114 0)
(0.969429 0.00242958 0)
(0.965136 0.00235299 0)
(0.960839 0.00228216 0)
(0.956555 0.00221781 0)
(0.952293 0.00216093 0)
(0.948061 0.00211283 0)
(0.943861 0.00207522 0)
(0.93969 0.00205031 0)
(0.935539 0.00204092 0)
(0.931393 0.00205064 0)
(0.927229 0.00208404 0)
(0.923015 0.00214696 0)
(0.918708 0.00224686 0)
(0.914255 0.0023933 0)
(0.909584 0.00259851 0)
(0.904605 0.00287832 0)
(0.899203 0.00325318 0)
(0.893234 0.00374978 0)
(0.886512 0.00440308 0)
(0.878801 0.00525924 0)
(0.869803 0.00637987 0)
(0.859131 0.00784754 0)
(0.846303 0.00977558 0)
(0.830654 0.0123158 0)
(0.811465 0.0156892 0)
(0.78728 0.0201535 0)
(0.757863 0.0262116 0)
(0.716518 0.0338229 0)
(0.675277 0.04592 0)
(0.572661 0.0508828 0)
(1.00025 0.00137449 0)
(1.00159 0.00317762 0)
(1.00312 0.00385962 0)
(1.00435 0.00422169 0)
(1.00551 0.0044898 0)
(1.00681 0.00462059 0)
(1.00821 0.00464384 0)
(1.00962 0.00461185 0)
(1.01101 0.00454652 0)
(1.01236 0.00445806 0)
(1.01365 0.0043568 0)
(1.01486 0.00425151 0)
(1.01598 0.00414779 0)
(1.017 0.00404885 0)
(1.0179 0.00395647 0)
(1.01869 0.0038715 0)
(1.01935 0.00379414 0)
(1.01989 0.00372409 0)
(1.02031 0.00366076 0)
(1.02059 0.00360332 0)
(1.02075 0.00355089 0)
(1.02077 0.00350255 0)
(1.02065 0.00345746 0)
(1.02039 0.00341473 0)
(1.01999 0.00337356 0)
(1.01945 0.00333331 0)
(1.01875 0.00329349 0)
(1.0179 0.00325378 0)
(1.0169 0.00321404 0)
(1.01573 0.00317432 0)
(1.01441 0.00313492 0)
(1.01293 0.00309641 0)
(1.01128 0.00305965 0)
(1.00947 0.00302584 0)
(1.0075 0.00299657 0)
(1.00537 0.00297387 0)
(1.00307 0.00296031 0)
(1.00061 0.00295911 0)
(0.997966 0.00297427 0)
(0.995146 0.00301086 0)
(0.992131 0.00307521 0)
(0.988902 0.00317533 0)
(0.985431 0.00332141 0)
(0.981678 0.00352638 0)
(0.977588 0.00380679 0)
(0.97309 0.00418383 0)
(0.968085 0.00468478 0)
(0.962447 0.00534498 0)
(0.956009 0.0062104 0)
(0.948555 0.00734118 0)
(0.939805 0.00881681 0)
(0.929396 0.0107426 0)
(0.916873 0.0132617 0)
(0.901618 0.0165622 0)
(0.882972 0.0209211 0)
(0.859683 0.0266424 0)
(0.831649 0.034415 0)
(0.793682 0.0440882 0)
(0.756548 0.0598305 0)
(0.673619 0.0690501 0)
(1.00018 0.00117351 0)
(1.00125 0.00265202 0)
(1.00255 0.00313695 0)
(1.00361 0.00339465 0)
(1.00455 0.00368378 0)
(1.00554 0.00390459 0)
(1.00659 0.00402484 0)
(1.00763 0.00408063 0)
(1.00866 0.00409623 0)
(1.00967 0.00408009 0)
(1.01068 0.00403963 0)
(1.01168 0.00398306 0)
(1.01266 0.00391701 0)
(1.01361 0.0038463 0)
(1.01453 0.00377451 0)
(1.01543 0.00370424 0)
(1.0163 0.0036373 0)
(1.01713 0.00357479 0)
(1.01793 0.00351731 0)
(1.0187 0.00346505 0)
(1.01942 0.00341795 0)
(1.02011 0.00337576 0)
(1.02075 0.00333809 0)
(1.02135 0.00330454 0)
(1.0219 0.00327473 0)
(1.0224 0.00324836 0)
(1.02285 0.00322518 0)
(1.02325 0.00320501 0)
(1.02358 0.00318782 0)
(1.02385 0.00317369 0)
(1.02405 0.00316291 0)
(1.02417 0.00315598 0)
(1.02421 0.00315368 0)
(1.02417 0.00315709 0)
(1.02403 0.00316773 0)
(1.02378 0.00318762 0)
(1.02341 0.00321942 0)
(1.02291 0.00326659 0)
(1.02226 0.00333361 0)
(1.02145 0.00342628 0)
(1.02044 0.00355202 0)
(1.01922 0.00372038 0)
(1.01773 0.0039436 0)
(1.01594 0.00423738 0)
(1.01379 0.00462189 0)
(1.01119 0.00512303 0)
(1.00805 0.00577422 0)
(1.00426 0.00661868 0)
(0.999644 0.00771252 0)
(0.994004 0.00912892 0)
(0.987077 0.0109641 0)
(0.978524 0.0133448 0)
(0.967919 0.0164414 0)
(0.954685 0.0204752 0)
(0.938193 0.0257679 0)
(0.917294 0.0326594 0)
(0.891808 0.0419387 0)
(0.857356 0.0533677 0)
(0.823026 0.0715926 0)
(0.752663 0.0838553 0)
(1.00014 0.000986939 0)
(1.00102 0.00234199 0)
(1.00218 0.00292823 0)
(1.00322 0.00327081 0)
(1.00413 0.00359505 0)
(1.00506 0.00382755 0)
(1.00603 0.0039415 0)
(1.00699 0.00398007 0)
(1.00792 0.00397617 0)
(1.00883 0.00394142 0)
(1.00972 0.00388359 0)
(1.01059 0.00381146 0)
(1.01145 0.00373254 0)
(1.01229 0.0036521 0)
(1.01311 0.00357368 0)
(1.01392 0.00349967 0)
(1.01471 0.0034315 0)
(1.01549 0.00336991 0)
(1.01626 0.00331508 0)
(1.01701 0.00326685 0)
(1.01776 0.00322483 0)
(1.01849 0.00318851 0)
(1.01921 0.00315731 0)
(1.01991 0.00313069 0)
(1.0206 0.00310819 0)
(1.02127 0.00308941 0)
(1.02193 0.00307405 0)
(1.02257 0.00306194 0)
(1.02318 0.00305309 0)
(1.02377 0.00304769 0)
(1.02434 0.00304619 0)
(1.02487 0.00304927 0)
(1.02538 0.00305797 0)
(1.02584 0.0030737 0)
(1.02626 0.00309836 0)
(1.02662 0.00313445 0)
(1.02693 0.00318518 0)
(1.02717 0.00325473 0)
(1.02732 0.00334843 0)
(1.02737 0.0034731 0)
(1.02731 0.00363747 0)
(1.02709 0.00385269 0)
(1.02671 0.00413301 0)
(1.0261 0.00449672 0)
(1.02523 0.00496726 0)
(1.02402 0.00557476 0)
(1.0224 0.0063581 0)
(1.02025 0.0073675 0)
(1.01745 0.00866817 0)
(1.01381 0.0103451 0)
(1.00912 0.0125097 0)
(1.00307 0.0153083 0)
(0.99529 0.0189368 0)
(0.985279 0.0236481 0)
(0.972467 0.0298061 0)
(0.955805 0.037791 0)
(0.935048 0.0484665 0)
(0.906306 0.0615588 0)
(0.876926 0.0818091 0)
(0.817779 0.0963833 0)
(1.00011 0.000842191 0)
(1.00084 0.00209722 0)
(1.00189 0.00272308 0)
(1.00289 0.00306789 0)
(1.00378 0.00335926 0)
(1.00468 0.00357136 0)
(1.00563 0.00368004 0)
(1.00656 0.00371977 0)
(1.00748 0.00372117 0)
(1.00836 0.00369494 0)
(1.00923 0.00364717 0)
(1.01007 0.00358548 0)
(1.0109 0.00351678 0)
(1.0117 0.00344593 0)
(1.01248 0.00337612 0)
(1.01324 0.00330956 0)
(1.01399 0.00324765 0)
(1.01473 0.00319118 0)
(1.01546 0.00314046 0)
(1.01617 0.00309551 0)
(1.01688 0.00305611 0)
(1.01758 0.00302192 0)
(1.01827 0.00299253 0)
(1.01896 0.00296758 0)
(1.01964 0.0029467 0)
(1.02031 0.00292963 0)
(1.02097 0.00291618 0)
(1.02163 0.0029063 0)
(1.02227 0.00290012 0)
(1.02291 0.00289794 0)
(1.02353 0.00290032 0)
(1.02413 0.00290809 0)
(1.02472 0.00292243 0)
(1.02528 0.00294494 0)
(1.02582 0.00297774 0)
(1.02632 0.0030236 0)
(1.02678 0.00308612 0)
(1.0272 0.00316992 0)
(1.02755 0.00328091 0)
(1.02783 0.00342668 0)
(1.02802 0.00361693 0)
(1.0281 0.00386406 0)
(1.02804 0.00418395 0)
(1.02781 0.00459696 0)
(1.02736 0.00512921 0)
(1.02664 0.00581431 0)
(1.02558 0.00669554 0)
(1.0241 0.00782887 0)
(1.02208 0.0092869 0)
(1.01938 0.0111641 0)
(1.01583 0.0135844 0)
(1.01121 0.0167099 0)
(1.00525 0.0207578 0)
(0.997564 0.0260079 0)
(0.987767 0.0328616 0)
(0.975058 0.0417423 0)
(0.959343 0.0535853 0)
(0.937347 0.0681464 0)
(0.914951 0.0901559 0)
(0.868818 0.10699 0)
(1.00009 0.000728813 0)
(1.00071 0.00188098 0)
(1.00166 0.00251236 0)
(1.00261 0.00285663 0)
(1.00348 0.00313202 0)
(1.00436 0.00334175 0)
(1.00529 0.0034588 0)
(1.00621 0.00350669 0)
(1.00711 0.00351445 0)
(1.00799 0.00349424 0)
(1.00885 0.00345227 0)
(1.00969 0.00339581 0)
(1.0105 0.00333168 0)
(1.01129 0.00326477 0)
(1.01207 0.00319833 0)
(1.01282 0.0031346 0)
(1.01356 0.00307508 0)
(1.01428 0.00302064 0)
(1.01499 0.00297168 0)
(1.01569 0.00292829 0)
(1.01638 0.0028903 0)
(1.01707 0.00285744 0)
(1.01774 0.00282936 0)
(1.01841 0.00280571 0)
(1.01907 0.00278619 0)
(1.01973 0.00277058 0)
(1.02038 0.00275875 0)
(1.02102 0.00275071 0)
(1.02165 0.00274665 0)
(1.02228 0.00274696 0)
(1.0229 0.00275229 0)
(1.0235 0.00276358 0)
(1.02409 0.00278216 0)
(1.02467 0.00280981 0)
(1.02522 0.00284888 0)
(1.02574 0.00290242 0)
(1.02623 0.00297438 0)
(1.02668 0.00306983 0)
(1.02708 0.00319526 0)
(1.02741 0.00335896 0)
(1.02766 0.00357154 0)
(1.02782 0.00384655 0)
(1.02785 0.0042013 0)
(1.02772 0.00465795 0)
(1.02739 0.00524489 0)
(1.02682 0.00599857 0)
(1.02594 0.00696583 0)
(1.02467 0.00820707 0)
(1.02291 0.00980036 0)
(1.02054 0.011847 0)
(1.01742 0.0144791 0)
(1.01335 0.0178693 0)
(1.00813 0.0222469 0)
(1.00148 0.0279074 0)
(0.993155 0.035273 0)
(0.982643 0.0447936 0)
(0.970124 0.0574486 0)
(0.953252 0.0730698 0)
(0.936933 0.0962779 0)
(0.904163 0.11548 0)
(1.00007 0.000636572 0)
(1.00061 0.00168643 0)
(1.00146 0.00230827 0)
(1.00237 0.00265444 0)
(1.00322 0.00291891 0)
(1.00409 0.00312325 0)
(1.00499 0.00324227 0)
(1.0059 0.00329259 0)
(1.00679 0.00330233 0)
(1.00766 0.00328528 0)
(1.00852 0.00324771 0)
(1.00935 0.00319614 0)
(1.01016 0.003137 0)
(1.01095 0.00307501 0)
(1.01172 0.0030133 0)
(1.01248 0.00295398 0)
(1.01321 0.00289849 0)
(1.01393 0.00284768 0)
(1.01464 0.00280197 0)
(1.01534 0.00276142 0)
(1.01602 0.00272594 0)
(1.0167 0.00269528 0)
(1.01737 0.00266916 0)
(1.01803 0.00264728 0)
(1.01869 0.00262941 0)
(1.01934 0.00261538 0)
(1.01998 0.00260515 0)
(1.02061 0.0025988 0)
(1.02124 0.00259659 0)
(1.02186 0.00259902 0)
(1.02247 0.00260684 0)
(1.02307 0.00262111 0)
(1.02366 0.00264331 0)
(1.02423 0.0026754 0)
(1.02477 0.00271996 0)
(1.0253 0.0027803 0)
(1.02579 0.00286073 0)
(1.02624 0.00296674 0)
(1.02665 0.00310537 0)
(1.027 0.0032856 0)
(1.02727 0.0035189 0)
(1.02745 0.0038199 0)
(1.02751 0.00420729 0)
(1.02742 0.00470495 0)
(1.02715 0.00534344 0)
(1.02664 0.00616187 0)
(1.02584 0.0072104 0)
(1.02467 0.00855348 0)
(1.02304 0.0102741 0)
(1.02084 0.0124792 0)
(1.01792 0.0153077 0)
(1.01413 0.0189392 0)
(1.00926 0.0236102 0)
(1.0031 0.0296224 0)
(0.995451 0.0374018 0)
(0.985962 0.0474014 0)
(0.974938 0.0605891 0)
(0.960904 0.0768773 0)
(0.947939 0.100552 0)
(0.925648 0.121933 0)
(1.00006 0.000559605 0)
(1.00052 0.00151227 0)
(1.0013 0.00211482 0)
(1.00216 0.00246017 0)
(1.003 0.00271329 0)
(1.00385 0.00290875 0)
(1.00473 0.0030269 0)
(1.00563 0.00307919 0)
(1.00651 0.00309151 0)
(1.00738 0.00307827 0)
(1.00823 0.00304558 0)
(1.00906 0.00299926 0)
(1.00987 0.00294529 0)
(1.01066 0.00288824 0)
(1.01143 0.00283112 0)
(1.01218 0.00277601 0)
(1.01291 0.00272428 0)
(1.01363 0.0026768 0)
(1.01434 0.00263401 0)
(1.01504 0.00259604 0)
(1.01572 0.00256281 0)
(1.0164 0.00253416 0)
(1.01707 0.00250984 0)
(1.01773 0.00248964 0)
(1.01838 0.00247335 0)
(1.01903 0.00246089 0)
(1.01967 0.00245226 0)
(1.0203 0.00244761 0)
(1.02093 0.00244728 0)
(1.02155 0.00245184 0)
(1.02215 0.00246214 0)
(1.02275 0.00247937 0)
(1.02333 0.00250512 0)
(1.0239 0.00254153 0)
(1.02445 0.00259138 0)
(1.02497 0.00265825 0)
(1.02547 0.00274678 0)
(1.02592 0.00286286 0)
(1.02634 0.00301406 0)
(1.02669 0.00321001 0)
(1.02698 0.003463 0)
(1.02717 0.00378871 0)
(1.02725 0.00420713 0)
(1.02719 0.00474378 0)
(1.02696 0.00543125 0)
(1.0265 0.00631123 0)
(1.02576 0.00743699 0)
(1.02468 0.00887683 0)
(1.02316 0.0107183 0)
(1.02109 0.0130739 0)
(1.01835 0.0160883 0)
(1.01478 0.0199476 0)
(1.0102 0.0248939 0)
(1.00442 0.0312323 0)
(0.997248 0.0393854 0)
(0.988418 0.0497984 0)
(0.978203 0.0633841 0)
(0.965712 0.080131 0)
(0.954087 0.103749 0)
(0.938138 0.126818 0)
(1.00005 0.000494162 0)
(1.00046 0.00135607 0)
(1.00117 0.00193158 0)
(1.00199 0.00227173 0)
(1.00281 0.00251315 0)
(1.00364 0.00269857 0)
(1.00451 0.00281463 0)
(1.00539 0.00286855 0)
(1.00626 0.00288321 0)
(1.00712 0.00287318 0)
(1.00797 0.0028447 0)
(1.00879 0.00280302 0)
(1.0096 0.00275372 0)
(1.01039 0.00270121 0)
(1.01116 0.00264844 0)
(1.01191 0.00259735 0)
(1.01265 0.00254931 0)
(1.01337 0.00250515 0)
(1.01408 0.00246534 0)
(1.01477 0.00243002 0)
(1.01546 0.00239918 0)
(1.01614 0.00237265 0)
(1.01681 0.00235028 0)
(1.01747 0.00233186 0)
(1.01812 0.00231727 0)
(1.01877 0.00230647 0)
(1.01941 0.00229952 0)
(1.02004 0.00229663 0)
(1.02066 0.00229821 0)
(1.02128 0.00230492 0)
(1.02189 0.00231768 0)
(1.02249 0.0023378 0)
(1.02307 0.00236701 0)
(1.02364 0.0024076 0)
(1.02419 0.00246255 0)
(1.02472 0.00253571 0)
(1.02521 0.00263199 0)
(1.02568 0.00275772 0)
(1.0261 0.00292093 0)
(1.02646 0.00313188 0)
(1.02676 0.00340364 0)
(1.02697 0.00375288 0)
(1.02708 0.00420083 0)
(1.02705 0.00477457 0)
(1.02685 0.00550861 0)
(1.02645 0.00644702 0)
(1.02578 0.00764607 0)
(1.02478 0.0091776 0)
(1.02336 0.0111335 0)
(1.02144 0.0136311 0)
(1.01888 0.0168209 0)
(1.01554 0.0208945 0)
(1.01125 0.0260991 0)
(1.00584 0.0327426 0)
(0.999143 0.0412418 0)
(0.990928 0.0520357 0)
(0.981405 0.0659624 0)
(0.970029 0.083091 0)
(0.959098 0.106453 0)
(0.946395 0.130651 0)
(1.00005 0.000437554 0)
(1.00041 0.0012151 0)
(1.00106 0.00175793 0)
(1.00184 0.00208869 0)
(1.00264 0.00231827 0)
(1.00346 0.0024931 0)
(1.00431 0.00260572 0)
(1.00518 0.00266034 0)
(1.00605 0.00267672 0)
(1.0069 0.00266932 0)
(1.00774 0.00264454 0)
(1.00856 0.0026072 0)
(1.00937 0.0025624 0)
(1.01016 0.00251434 0)
(1.01093 0.00246584 0)
(1.01168 0.00241876 0)
(1.01241 0.0023744 0)
(1.01314 0.00233357 0)
(1.01384 0.00229674 0)
(1.01454 0.00226408 0)
(1.01523 0.00223561 0)
(1.01591 0.00221122 0)
(1.01657 0.00219077 0)
(1.01724 0.00217414 0)
(1.01789 0.00216124 0)
(1.01854 0.00215208 0)
(1.01918 0.00214678 0)
(1.01981 0.00214561 0)
(1.02044 0.00214907 0)
(1.02105 0.00215786 0)
(1.02166 0.00217302 0)
(1.02226 0.00219593 0)
(1.02285 0.00222848 0)
(1.02342 0.0022731 0)
(1.02397 0.00233295 0)
(1.0245 0.00241212 0)
(1.025 0.00251582 0)
(1.02547 0.00265074 0)
(1.0259 0.00282538 0)
(1.02628 0.0030506 0)
(1.02659 0.00334019 0)
(1.02683 0.00371176 0)
(1.02696 0.0041877 0)
(1.02696 0.00479655 0)
(1.02681 0.00557463 0)
(1.02646 0.00656827 0)
(1.02586 0.00783647 0)
(1.02495 0.00945444 0)
(1.02365 0.011518 0)
(1.02188 0.0141491 0)
(1.0195 0.0175033 0)
(1.0164 0.0217773 0)
(1.01243 0.0272224 0)
(1.0074 0.0341489 0)
(1.0012 0.042967 0)
(0.993608 0.0541106 0)
(0.9848 0.0683425 0)
(0.974439 0.0858099 0)
(0.96425 0.108912 0)
(0.953281 0.133776 0)
(1.00004 0.000387796 0)
(1.00037 0.00108696 0)
(1.00097 0.0015933 0)
(1.00172 0.00191092 0)
(1.0025 0.00212824 0)
(1.0033 0.00229199 0)
(1.00413 0.00239986 0)
(1.00499 0.00245421 0)
(1.00585 0.00247181 0)
(1.0067 0.00246663 0)
(1.00754 0.00244521 0)
(1.00836 0.00241194 0)
(1.00916 0.00237144 0)
(1.00995 0.00232767 0)
(1.01072 0.00228332 0)
(1.01147 0.00224015 0)
(1.01221 0.0021994 0)
(1.01293 0.00216185 0)
(1.01364 0.00212798 0)
(1.01433 0.00209798 0)
(1.01502 0.00207188 0)
(1.0157 0.00204962 0)
(1.01637 0.00203111 0)
(1.01703 0.00201627 0)
(1.01768 0.00200506 0)
(1.01833 0.00199753 0)
(1.01897 0.00199388 0)
(1.01961 0.00199442 0)
(1.02023 0.00199971 0)
(1.02085 0.00201054 0)
(1.02146 0.00202802 0)
(1.02206 0.00205364 0)
(1.02265 0.00208939 0)
(1.02322 0.00213786 0)
(1.02378 0.00220238 0)
(1.02432 0.00228726 0)
(1.02483 0.00239801 0)
(1.0253 0.00254163 0)
(1.02574 0.00272709 0)
(1.02613 0.00296578 0)
(1.02646 0.0032722 0)
(1.02672 0.00366481 0)
(1.02688 0.00416711 0)
(1.02692 0.00480896 0)
(1.02682 0.00562843 0)
(1.02652 0.00667389 0)
(1.026 0.00800693 0)
(1.02519 0.00970581 0)
(1.02401 0.01187 0)
(1.02239 0.0146258 0)
(1.02021 0.018133 0)
(1.01737 0.0225931 0)
(1.01371 0.0282607 0)
(1.00909 0.0354478 0)
(1.00338 0.0445573 0)
(0.996427 0.0560181 0)
(0.98836 0.0705229 0)
(0.978974 0.0882821 0)
(0.969672 0.111176 0)
(0.959923 0.136382 0)
(1.00004 0.000343415 0)
(1.00034 0.000969605 0)
(1.00089 0.001437 0)
(1.00161 0.0017382 0)
(1.00237 0.00194256 0)
(1.00316 0.00209481 0)
(1.00398 0.00219686 0)
(1.00483 0.00225006 0)
(1.00568 0.00226843 0)
(1.00652 0.00226511 0)
(1.00736 0.00224669 0)
(1.00817 0.00221719 0)
(1.00898 0.00218078 0)
(1.00976 0.00214114 0)
(1.01053 0.00210082 0)
(1.01128 0.00206149 0)
(1.01202 0.0020243 0)
(1.01274 0.00199001 0)
(1.01345 0.00195909 0)
(1.01415 0.00193174 0)
(1.01484 0.00190802 0)
(1.01552 0.0018879 0)
(1.01619 0.00187134 0)
(1.01685 0.00185829 0)
(1.0175 0.00184876 0)
(1.01815 0.00184287 0)
(1.01879 0.00184084 0)
(1.01943 0.00184306 0)
(1.02006 0.00185014 0)
(1.02068 0.00186294 0)
(1.02129 0.00188265 0)
(1.02189 0.00191086 0)
(1.02248 0.00194966 0)
(1.02306 0.00200178 0)
(1.02362 0.00207073 0)
(1.02416 0.00216101 0)
(1.02467 0.00227839 0)
(1.02516 0.00243021 0)
(1.02561 0.00262583 0)
(1.02602 0.00287715 0)
(1.02637 0.00319933 0)
(1.02664 0.00361163 0)
(1.02683 0.00413854 0)
(1.02691 0.00481122 0)
(1.02686 0.00566927 0)
(1.02663 0.006763 0)
(1.02618 0.00815635 0)
(1.02547 0.00993041 0)
(1.02442 0.012188 0)
(1.02296 0.0150591 0)
(1.02099 0.0187077 0)
(1.01841 0.0233393 0)
(1.01508 0.0292113 0)
(1.01087 0.0366367 0)
(1.00567 0.0460109 0)
(0.999355 0.0577567 0)
(0.992035 0.0725046 0)
(0.983588 0.0905057 0)
(0.97523 0.113237 0)
(0.96657 0.138577 0)
(1.00003 0.000303298 0)
(1.00031 0.000861298 0)
(1.00083 0.00128831 0)
(1.00151 0.00157024 0)
(1.00226 0.00176079 0)
(1.00303 0.00190121 0)
(1.00385 0.00199657 0)
(1.00468 0.0020478 0)
(1.00553 0.00206645 0)
(1.00637 0.00206466 0)
(1.0072 0.0020489 0)
(1.00801 0.00202291 0)
(1.00881 0.00199039 0)
(1.0096 0.00195474 0)
(1.01037 0.00191835 0)
(1.01112 0.00188279 0)
(1.01186 0.00184912 0)
(1.01258 0.00181806 0)
(1.01329 0.00179007 0)
(1.01399 0.00176536 0)
(1.01468 0.00174402 0)
(1.01536 0.00172605 0)
(1.01603 0.00171143 0)
(1.01669 0.00170017 0)
(1.01734 0.00169233 0)
(1.01799 0.00168805 0)
(1.01863 0.00168762 0)
(1.01927 0.00169148 0)
(1.0199 0.0017003 0)
(1.02052 0.001715 0)
(1.02113 0.00173685 0)
(1.02174 0.00176753 0)
(1.02233 0.00180923 0)
(1.02291 0.0018648 0)
(1.02347 0.00193791 0)
(1.02402 0.00203326 0)
(1.02455 0.00215685 0)
(1.02504 0.00231632 0)
(1.0255 0.0025214 0)
(1.02593 0.00278449 0)
(1.02629 0.00312131 0)
(1.0266 0.00355188 0)
(1.02682 0.00410161 0)
(1.02694 0.00480282 0)
(1.02693 0.00569654 0)
(1.02677 0.00683484 0)
(1.0264 0.00828381 0)
(1.0258 0.0101271 0)
(1.02488 0.0124705 0)
(1.02359 0.0154475 0)
(1.02183 0.0192257 0)
(1.01951 0.024014 0)
(1.01652 0.0300721 0)
(1.01273 0.0377137 0)
(1.00805 0.0473267 0)
(1.00237 0.0593267 0)
(0.995797 0.0742902 0)
(0.988253 0.0924888 0)
(0.980826 0.115087 0)
(0.973198 0.140433 0)
(1.00003 0.000266596 0)
(1.00029 0.000760564 0)
(1.00078 0.00114642 0)
(1.00143 0.00140673 0)
(1.00216 0.00158254 0)
(1.00293 0.00171082 0)
(1.00373 0.00179877 0)
(1.00456 0.00184728 0)
(1.0054 0.00186576 0)
(1.00623 0.00186517 0)
(1.00706 0.00185178 0)
(1.00787 0.00182906 0)
(1.00867 0.00180026 0)
(1.00945 0.00176846 0)
(1.01022 0.00173591 0)
(1.01097 0.00170405 0)
(1.01171 0.00167385 0)
(1.01244 0.001646 0)
(1.01315 0.00162092 0)
(1.01385 0.00159886 0)
(1.01453 0.00157989 0)
(1.01521 0.00156406 0)
(1.01588 0.00155139 0)
(1.01655 0.00154192 0)
(1.0172 0.00153574 0)
(1.01785 0.00153306 0)
(1.0185 0.0015342 0)
(1.01913 0.00153967 0)
(1.01976 0.00155017 0)
(1.02038 0.00156671 0)
(1.021 0.0015906 0)
(1.0216 0.00162362 0)
(1.0222 0.00166805 0)
(1.02278 0.00172686 0)
(1.02335 0.00180386 0)
(1.02391 0.00190393 0)
(1.02444 0.00203328 0)
(1.02494 0.00219984 0)
(1.02542 0.00241368 0)
(1.02586 0.00268761 0)
(1.02624 0.00303792 0)
(1.02657 0.00348528 0)
(1.02683 0.00405596 0)
(1.02699 0.00478332 0)
(1.02703 0.00570969 0)
(1.02694 0.00688874 0)
(1.02666 0.00838847 0)
(1.02616 0.0102949 0)
(1.02538 0.0127164 0)
(1.02426 0.0157896 0)
(1.02273 0.0196853 0)
(1.02068 0.0246153 0)
(1.01803 0.0308413 0)
(1.01467 0.0386772 0)
(1.01051 0.048504 0)
(1.00547 0.0607294 0)
(0.999629 0.0758831 0)
(0.992956 0.094243 0)
(0.986421 0.116727 0)
(0.979756 0.142005 0)
(1.00003 0.000232643 0)
(1.00027 0.000666153 0)
(1.00073 0.00101057 0)
(1.00137 0.00124734 0)
(1.00208 0.00140746 0)
(1.00283 0.0015233 0)
(1.00363 0.00160327 0)
(1.00445 0.00164838 0)
(1.00528 0.00166624 0)
(1.00611 0.00166657 0)
(1.00693 0.00165529 0)
(1.00774 0.0016356 0)
(1.00854 0.00161035 0)
(1.00933 0.0015823 0)
(1.01009 0.00155349 0)
(1.01085 0.00152526 0)
(1.01158 0.0014985 0)
(1.01231 0.00147383 0)
(1.01302 0.00145166 0)
(1.01372 0.00143222 0)
(1.01441 0.00141563 0)
(1.01509 0.00140195 0)
(1.01576 0.00139122 0)
(1.01642 0.00138352 0)
(1.01708 0.001379 0)
(1.01773 0.0013779 0)
(1.01837 0.00138059 0)
(1.01901 0.00138762 0)
(1.01964 0.00139975 0)
(1.02027 0.00141803 0)
(1.02088 0.00144387 0)
(1.02149 0.00147909 0)
(1.02209 0.00152608 0)
(1.02268 0.00158791 0)
(1.02325 0.00166852 0)
(1.02381 0.00177295 0)
(1.02435 0.00190761 0)
(1.02487 0.00208067 0)
(1.02535 0.00230252 0)
(1.02581 0.00258635 0)
(1.02622 0.00294894 0)
(1.02657 0.00341157 0)
(1.02686 0.00400127 0)
(1.02706 0.00475233 0)
(1.02717 0.00570824 0)
(1.02714 0.00692409 0)
(1.02695 0.00846961 0)
(1.02656 0.0104328 0)
(1.02592 0.0129246 0)
(1.02498 0.0160841 0)
(1.02367 0.0200849 0)
(1.02191 0.0251416 0)
(1.01961 0.0315174 0)
(1.01668 0.039526 0)
(1.01304 0.0495424 0)
(1.00863 0.0619661 0)
(1.00352 0.0772869 0)
(0.99769 0.0957797 0)
(0.992005 0.118167 0)
(0.986225 0.143339 0)
(1.00003 0.000200912 0)
(1.00025 0.000577003 0)
(1.0007 0.000879973 0)
(1.00131 0.00109167 0)
(1.00201 0.00123522 0)
(1.00275 0.00133831 0)
(1.00354 0.00140983 0)
(1.00435 0.00145095 0)
(1.00518 0.00146778 0)
(1.00601 0.00146875 0)
(1.00683 0.00145936 0)
(1.00764 0.0014425 0)
(1.00843 0.00142065 0)
(1.00922 0.00139623 0)
(1.00998 0.00137109 0)
(1.01074 0.00134644 0)
(1.01147 0.00132307 0)
(1.0122 0.00130155 0)
(1.01291 0.00128228 0)
(1.01361 0.00126547 0)
(1.0143 0.00125124 0)
(1.01498 0.0012397 0)
(1.01565 0.0012309 0)
(1.01632 0.00122498 0)
(1.01697 0.0012221 0)
(1.01763 0.00122256 0)
(1.01827 0.00122676 0)
(1.01891 0.0012353 0)
(1.01954 0.001249 0)
(1.02017 0.00126896 0)
(1.02078 0.00129663 0)
(1.02139 0.00133392 0)
(1.022 0.00138329 0)
(1.02259 0.00144791 0)
(1.02317 0.00153184 0)
(1.02373 0.00164025 0)
(1.02428 0.00177974 0)
(1.02481 0.0019587 0)
(1.02531 0.00218779 0)
(1.02578 0.00248056 0)
(1.02621 0.0028542 0)
(1.02659 0.00333054 0)
(1.02691 0.00393726 0)
(1.02716 0.0047095 0)
(1.02732 0.00569175 0)
(1.02736 0.00694036 0)
(1.02726 0.00852656 0)
(1.02699 0.0105402 0)
(1.0265 0.0130941 0)
(1.02574 0.0163299 0)
(1.02465 0.0204235 0)
(1.02318 0.0255917 0)
(1.02123 0.0320991 0)
(1.01874 0.0402592 0)
(1.01563 0.0504416 0)
(1.01185 0.0630383 0)
(1.00746 0.0785051 0)
(1.00245 0.097109 0)
(0.997578 0.119415 0)
(0.992606 0.144468 0)
(1.00003 0.000170978 0)
(1.00024 0.000492201 0)
(1.00067 0.000753915 0)
(1.00126 0.000939325 0)
(1.00195 0.00106547 0)
(1.00268 0.00115553 0)
(1.00346 0.00121821 0)
(1.00427 0.00125484 0)
(1.00509 0.00127025 0)
(1.00592 0.00127163 0)
(1.00673 0.00126392 0)
(1.00754 0.00124972 0)
(1.00834 0.00123113 0)
(1.00912 0.00121025 0)
(1.00989 0.00118871 0)
(1.01064 0.00116758 0)
(1.01138 0.00114757 0)
(1.0121 0.00112919 0)
(1.01282 0.00111279 0)
(1.01352 0.00109859 0)
(1.01421 0.00108674 0)
(1.01489 0.00107732 0)
(1.01556 0.00107046 0)
(1.01623 0.00106629 0)
(1.01688 0.00106505 0)
(1.01754 0.00106703 0)
(1.01818 0.00107272 0)
(1.01882 0.00108273 0)
(1.01945 0.00109793 0)
(1.02008 0.00111947 0)
(1.0207 0.00114887 0)
(1.02131 0.00118808 0)
(1.02192 0.00123965 0)
(1.02251 0.00130682 0)
(1.0231 0.00139376 0)
(1.02367 0.00150578 0)
(1.02423 0.00164961 0)
(1.02476 0.00183386 0)
(1.02528 0.00206941 0)
(1.02577 0.00237011 0)
(1.02622 0.00275353 0)
(1.02663 0.00324197 0)
(1.02699 0.00386368 0)
(1.02728 0.00465451 0)
(1.0275 0.00565983 0)
(1.02761 0.00693708 0)
(1.02761 0.00855875 0)
(1.02745 0.0106162 0)
(1.0271 0.0132242 0)
(1.02653 0.016526 0)
(1.02568 0.0206998 0)
(1.02449 0.0259643 0)
(1.02291 0.0325852 0)
(1.02085 0.040876 0)
(1.01828 0.0512015 0)
(1.01512 0.0639473 0)
(1.01145 0.0795412 0)
(1.00723 0.0982396 0)
(1.00314 0.120482 0)
(0.998912 0.145422 0)
(1.00003 0.000142486 0)
(1.00023 0.000410957 0)
(1.00064 0.000631696 0)
(1.00122 0.000789888 0)
(1.0019 0.000897891 0)
(1.00263 0.000974649 0)
(1.0034 0.00102818 0)
(1.0042 0.00105988 0)
(1.00502 0.00107354 0)
(1.00584 0.00107512 0)
(1.00666 0.00106892 0)
(1.00746 0.00105722 0)
(1.00826 0.00104177 0)
(1.00904 0.00102434 0)
(1.00981 0.00100634 0)
(1.01056 0.000988693 0)
(1.0113 0.00097201 0)
(1.01203 0.000956741 0)
(1.01274 0.000943206 0)
(1.01344 0.000931616 0)
(1.01413 0.000922114 0)
(1.01481 0.000914823 0)
(1.01548 0.00090988 0)
(1.01615 0.000907464 0)
(1.01681 0.000907825 0)
(1.01746 0.000911319 0)
(1.01811 0.000918442 0)
(1.01875 0.00092987 0)
(1.01938 0.000946507 0)
(1.02001 0.000969549 0)
(1.02063 0.00100056 0)
(1.02125 0.00104155 0)
(1.02186 0.00109512 0)
(1.02246 0.00116461 0)
(1.02305 0.00125426 0)
(1.02362 0.00136949 0)
(1.02419 0.00151717 0)
(1.02474 0.00170606 0)
(1.02527 0.00194727 0)
(1.02577 0.00225488 0)
(1.02625 0.0026468 0)
(1.02669 0.00314568 0)
(1.02708 0.00378031 0)
(1.02742 0.00458709 0)
(1.02769 0.00561217 0)
(1.02788 0.00691384 0)
(1.02797 0.00856568 0)
(1.02793 0.0106603 0)
(1.02774 0.013314 0)
(1.02735 0.0166716 0)
(1.02674 0.020913 0)
(1.02584 0.0262585 0)
(1.02462 0.0329748 0)
(1.02301 0.0413754 0)
(1.02097 0.0518219 0)
(1.01844 0.0646942 0)
(1.01548 0.0803979 0)
(1.01203 0.0991789 0)
(1.0087 0.121376 0)
(1.00516 0.14622 0)
(1.00002 0.00011514 0)
(1.00022 0.000332581 0)
(1.00062 0.000512656 0)
(1.00119 0.000642921 0)
(1.00186 0.000732155 0)
(1.00258 0.000795355 0)
(1.00335 0.000839493 0)
(1.00414 0.000865911 0)
(1.00496 0.000877527 0)
(1.00578 0.00087912 0)
(1.00659 0.000874295 0)
(1.0074 0.000864959 0)
(1.00819 0.000852547 0)
(1.00898 0.000838497 0)
(1.00974 0.000823982 0)
(1.0105 0.000809774 0)
(1.01123 0.000796391 0)
(1.01196 0.000784216 0)
(1.01267 0.000773533 0)
(1.01337 0.00076454 0)
(1.01407 0.000757387 0)
(1.01475 0.000752213 0)
(1.01542 0.00074918 0)
(1.01609 0.000748495 0)
(1.01675 0.000750443 0)
(1.0174 0.000755415 0)
(1.01805 0.00076394 0)
(1.01869 0.000776733 0)
(1.01932 0.000794737 0)
(1.01995 0.000819186 0)
(1.02058 0.000851687 0)
(1.0212 0.000894305 0)
(1.02181 0.000949696 0)
(1.02241 0.00102125 0)
(1.02301 0.00111329 0)
(1.02359 0.00123133 0)
(1.02417 0.00138235 0)
(1.02473 0.00157525 0)
(1.02527 0.00182129 0)
(1.02579 0.00213478 0)
(1.02629 0.00253387 0)
(1.02676 0.00304154 0)
(1.02719 0.00368696 0)
(1.02758 0.00450703 0)
(1.02791 0.00554846 0)
(1.02818 0.00687029 0)
(1.02836 0.00854694 0)
(1.02844 0.010672 0)
(1.0284 0.0133629 0)
(1.0282 0.0167659 0)
(1.02783 0.0210622 0)
(1.02723 0.0264733 0)
(1.02637 0.033267 0)
(1.02521 0.041757 0)
(1.0237 0.0523026 0)
(1.0218 0.06528 0)
(1.01954 0.0810776 0)
(1.01686 0.0999327 0)
(1.01426 0.122106 0)
(1.01136 0.146882 0)
(1.00002 8.86853e-05 0)
(1.00022 0.000256456 0)
(1.00061 0.00039617 0)
(1.00116 0.000497982 0)
(1.00182 0.000567933 0)
(1.00254 0.000617352 0)
(1.00331 0.000651901 0)
(1.0041 0.00067276 0)
(1.00491 0.000682087 0)
(1.00573 0.000683539 0)
(1.00654 0.000679969 0)
(1.00735 0.000672898 0)
(1.00814 0.000663436 0)
(1.00892 0.000652704 0)