/*--------------------------------*- C++ -*----------------------------------*\
| =========                 |                                                 |
| \\      /  F ield         | OpenFOAM: The Open Source CFD Toolbox           |
|  \\    /   O peration     | Version:  2.4.0                                 |
|   \\  /    A nd           | Web:      www.OpenFOAM.org                      |
|    \\/     M anipulation  |                                                 |
\*---------------------------------------------------------------------------*/
FoamFile
{
    version     2.0;
    format      ascii;
    class       surfaceScalarField;
    location    "0.59";
    object      phi;
}
// * * * * * * * * * * * * * * * * * * * * * * * * * * * * * * * * * * * * * //

dimensions      [0 3 -1 0 0 0 0];

internalField   nonuniform List<scalar> 
11830
(
2.94679e-06
5.32098e-08
2.8769e-06
6.98928e-08
2.80965e-06
6.72435e-08
2.74329e-06
6.63688e-08
2.67869e-06
6.45909e-08
2.61758e-06
6.11186e-08
2.56085e-06
5.67254e-08
2.50881e-06
5.20373e-08
2.46151e-06
4.73053e-08
2.41883e-06
4.26763e-08
2.38056e-06
3.82708e-08
2.34639e-06
3.41709e-08
2.31597e-06
3.04182e-08
2.28895e-06
2.7025e-08
2.26496e-06
2.39844e-08
2.24368e-06
2.12785e-08
2.2248e-06
1.88845e-08
2.20802e-06
1.67803e-08
2.19307e-06
1.49481e-08
2.17969e-06
1.33757e-08
2.16764e-06
1.2055e-08
2.15666e-06
1.0978e-08
2.14653e-06
1.01309e-08
2.13704e-06
9.48891e-09
2.12803e-06
9.01521e-09
2.11936e-06
8.66313e-09
2.11098e-06
8.3827e-09
2.10285e-06
8.12988e-09
2.09498e-06
7.87306e-09
2.08738e-06
7.59598e-09
2.08009e-06
7.29624e-09
2.0731e-06
6.98074e-09
2.06644e-06
6.66028e-09
2.0601e-06
6.34545e-09
2.05405e-06
6.04491e-09
2.04829e-06
5.76598e-09
2.04277e-06
5.51667e-09
2.03746e-06
5.30841e-09
2.0323e-06
5.15871e-09
2.02721e-06
5.09353e-09
2.02206e-06
5.14912e-09
2.01669e-06
5.3733e-09
2.01086e-06
5.82636e-09
2.00428e-06
6.58163e-09
1.99655e-06
7.72666e-09
1.98719e-06
9.3663e-09
1.97556e-06
1.16286e-08
1.96088e-06
1.46757e-08
1.94216e-06
1.87205e-08
1.91811e-06
2.40507e-08
1.88705e-06
3.10644e-08
1.84673e-06
4.03222e-08
1.7941e-06
5.26248e-08
1.72497e-06
6.91281e-08
1.63351e-06
9.14597e-08
1.51166e-06
1.21857e-07
1.34934e-06
1.62316e-07
1.13472e-06
2.14622e-07
8.5358e-07
2.81138e-07
2.60611e-07
5.92969e-07
3.02862e-06
2.45862e-08
3.05191e-06
4.66056e-08
3.06774e-06
5.14101e-08
3.07746e-06
5.66553e-08
3.08094e-06
6.11126e-08
3.07874e-06
6.33191e-08
3.07162e-06
6.38377e-08
3.06034e-06
6.33208e-08
3.0456e-06
6.20488e-08
3.02807e-06
6.02052e-08
3.00836e-06
5.79751e-08
2.98702e-06
5.55169e-08
2.96449e-06
5.29475e-08
2.94116e-06
5.0348e-08
2.91738e-06
4.77716e-08
2.8934e-06
4.52516e-08
2.86948e-06
4.28074e-08
2.84581e-06
4.04509e-08
2.82257e-06
3.8191e-08
2.79991e-06
3.6037e-08
2.77796e-06
3.40003e-08
2.75685e-06
3.20924e-08
2.73666e-06
3.03219e-08
2.71745e-06
2.86918e-08
2.69927e-06
2.71963e-08
2.68211e-06
2.58214e-08
2.66595e-06
2.45457e-08
2.65073e-06
2.33462e-08
2.63641e-06
2.22024e-08
2.6229e-06
2.10997e-08
2.61017e-06
2.00306e-08
2.59815e-06
1.89944e-08
2.58682e-06
1.79956e-08
2.57612e-06
1.70417e-08
2.56603e-06
1.61412e-08
2.55649e-06
1.53028e-08
2.54747e-06
1.45339e-08
2.53894e-06
1.38416e-08
2.53086e-06
1.32358e-08
2.52322e-06
1.27354e-08
2.51599e-06
1.23781e-08
2.50913e-06
1.22297e-08
2.50257e-06
1.2391e-08
2.49615e-06
1.30004e-08
2.48965e-06
1.42315e-08
2.48272e-06
1.62909e-08
2.47493e-06
1.9418e-08
2.46571e-06
2.38966e-08
2.45435e-06
3.0079e-08
2.43997e-06
3.84287e-08
2.42145e-06
4.95879e-08
2.3973e-06
6.44747e-08
2.36547e-06
8.44496e-08
2.32308e-06
1.11519e-07
2.26568e-06
1.48866e-07
2.18679e-06
2.00745e-07
2.07382e-06
2.75283e-07
1.91526e-06
3.73186e-07
1.66159e-06
5.34809e-07
5.61066e-07
1.36113e-06
3.00532e-06
1.92658e-08
3.01285e-06
3.90792e-08
3.01981e-06
4.44432e-08
3.02758e-06
4.88864e-08
3.03534e-06
5.33518e-08
3.0425e-06
5.61625e-08
3.04882e-06
5.75151e-08
3.05413e-06
5.8014e-08
3.05827e-06
5.79128e-08
3.06115e-06
5.73185e-08
3.06277e-06
5.63587e-08
3.06313e-06
5.51576e-08
3.06226e-06
5.38119e-08
3.06022e-06
5.23901e-08
3.05705e-06
5.09392e-08
3.05282e-06
4.94897e-08
3.04756e-06
4.806e-08
3.04135e-06
4.66601e-08
3.03425e-06
4.52958e-08
3.02631e-06
4.39713e-08
3.01762e-06
4.26903e-08
3.00826e-06
4.14552e-08
2.99832e-06
4.02652e-08
2.9879e-06
3.9115e-08
2.9771e-06
3.79931e-08
2.96604e-06
3.6883e-08
2.95482e-06
3.5765e-08
2.94354e-06
3.46211e-08
2.93231e-06
3.34381e-08
2.9212e-06
3.22107e-08
2.91029e-06
3.09414e-08
2.89964e-06
2.964e-08
2.88931e-06
2.83226e-08
2.87934e-06
2.70095e-08
2.86976e-06
2.57237e-08
2.86058e-06
2.44889e-08
2.85178e-06
2.3327e-08
2.84337e-06
2.2257e-08
2.83531e-06
2.12972e-08
2.82757e-06
2.04731e-08
2.82012e-06
1.98309e-08
2.81289e-06
1.94534e-08
2.80581e-06
1.94735e-08
2.79873e-06
2.00814e-08
2.79144e-06
2.15237e-08
2.78363e-06
2.4099e-08
2.77489e-06
2.81558e-08
2.76469e-06
3.4102e-08
2.75233e-06
4.24318e-08
2.73698e-06
5.37767e-08
2.71758e-06
6.89873e-08
2.69281e-06
8.92522e-08
2.66095e-06
1.16305e-07
2.61983e-06
1.52637e-07
2.56644e-06
2.02256e-07
2.49705e-06
2.70135e-07
2.40448e-06
3.67854e-07
2.28335e-06
4.94315e-07
2.10035e-06
7.17816e-07
8.05835e-07
1.85558e-06
3.00342e-06
1.58459e-08
3.00771e-06
3.47896e-08
3.01095e-06
4.12028e-08
3.01456e-06
4.52796e-08
3.01853e-06
4.9382e-08
3.0226e-06
5.20888e-08
3.02675e-06
5.3368e-08
3.03093e-06
5.38361e-08
3.03504e-06
5.3797e-08
3.03901e-06
5.33505e-08
3.04277e-06
5.26007e-08
3.04627e-06
5.16582e-08
3.04947e-06
5.06096e-08
3.05235e-06
4.95137e-08
3.05487e-06
4.84101e-08
3.05704e-06
4.73241e-08
3.05883e-06
4.62705e-08
3.06023e-06
4.52574e-08
3.06124e-06
4.42889e-08
3.06184e-06
4.33676e-08
3.06204e-06
4.24951e-08
3.06182e-06
4.16715e-08
3.06119e-06
4.08932e-08
3.06016e-06
4.01519e-08
3.05872e-06
3.94331e-08
3.05688e-06
3.87168e-08
3.05467e-06
3.79798e-08
3.05209e-06
3.72e-08
3.04917e-06
3.63598e-08
3.04593e-06
3.54493e-08
3.0424e-06
3.44668e-08
3.03862e-06
3.34192e-08
3.03463e-06
3.23213e-08
3.03044e-06
3.11944e-08
3.0261e-06
3.00659e-08
3.02162e-06
2.89672e-08
3.01702e-06
2.79314e-08
3.01228e-06
2.69913e-08
3.0074e-06
2.61797e-08
3.00234e-06
2.55355e-08
2.99705e-06
2.51156e-08
2.99149e-06
2.50119e-08
2.9856e-06
2.53689e-08
2.97928e-06
2.63961e-08
2.97243e-06
2.83751e-08
2.96487e-06
3.16619e-08
2.95634e-06
3.66896e-08
2.94646e-06
4.3981e-08
2.93471e-06
5.41776e-08
2.92039e-06
6.80922e-08
2.90258e-06
8.67981e-08
2.88008e-06
1.11758e-07
2.85132e-06
1.45061e-07
2.81432e-06
1.89634e-07
2.76645e-06
2.50129e-07
2.70454e-06
3.32043e-07
2.6237e-06
4.48695e-07
2.52044e-06
5.97577e-07
2.38122e-06
8.57037e-07
1.00002e-06
2.18703e-06
3.00258e-06
1.3266e-08
3.00624e-06
3.11329e-08
3.00912e-06
3.83154e-08
3.01204e-06
4.23671e-08
3.01515e-06
4.62677e-08
3.01826e-06
4.89837e-08
3.02133e-06
5.02914e-08
3.02441e-06
5.07538e-08
3.02749e-06
5.07192e-08
3.03054e-06
5.03001e-08
3.03355e-06
4.95918e-08
3.03651e-06
4.87018e-08
3.0394e-06
4.77169e-08
3.04222e-06
4.66957e-08
3.04495e-06
4.56764e-08
3.04759e-06
4.46835e-08
3.05013e-06
4.37317e-08
3.05256e-06
4.28288e-08
3.05487e-06
4.19784e-08
3.05706e-06
4.11826e-08
3.05911e-06
4.04421e-08
3.06102e-06
3.97563e-08
3.0628e-06
3.91211e-08
3.06442e-06
3.85281e-08
3.06589e-06
3.79631e-08
3.0672e-06
3.74074e-08
3.06834e-06
3.68393e-08
3.0693e-06
3.62376e-08
3.07008e-06
3.55855e-08
3.07065e-06
3.48728e-08
3.07102e-06
3.4097e-08
3.07118e-06
3.32642e-08
3.07111e-06
3.23879e-08
3.07082e-06
3.14894e-08
3.07029e-06
3.05971e-08
3.06951e-06
2.9746e-08
3.06846e-06
2.89767e-08
3.06712e-06
2.83335e-08
3.06543e-06
2.78646e-08
3.06334e-06
2.7625e-08
3.06077e-06
2.76854e-08
3.05764e-06
2.81459e-08
3.05386e-06
2.91527e-08
3.04934e-06
3.09155e-08
3.04399e-06
3.37218e-08
3.0377e-06
3.79496e-08
3.03031e-06
4.40803e-08
3.02158e-06
5.27183e-08
3.01113e-06
6.46225e-08
2.99846e-06
8.07603e-08
2.98286e-06
1.02397e-07
2.9634e-06
1.31227e-07
2.93883e-06
1.69621e-07
2.90762e-06
2.20845e-07
2.86775e-06
2.90003e-07
2.81675e-06
3.83043e-07
2.75124e-06
5.14207e-07
2.66739e-06
6.81429e-07
2.5618e-06
9.62619e-07
1.15577e-06
2.40606e-06
3.00198e-06
1.12874e-08
3.00526e-06
2.78519e-08
3.00808e-06
3.54901e-08
3.01084e-06
3.96165e-08
3.01376e-06
4.3341e-08
3.01668e-06
4.60612e-08
3.01954e-06
4.7439e-08
3.02235e-06
4.79454e-08
3.02511e-06
4.7953e-08
3.02782e-06
4.75891e-08
3.03047e-06
4.69399e-08
3.03307e-06
4.61067e-08
3.03561e-06
4.51758e-08
3.0381e-06
4.42058e-08
3.04054e-06
4.32352e-08
3.04294e-06
4.22892e-08
3.04528e-06
4.13832e-08
3.04759e-06
4.0526e-08
3.04984e-06
3.97222e-08
3.05205e-06
3.89741e-08
3.05421e-06
3.82826e-08
3.05632e-06
3.76471e-08
3.05838e-06
3.70636e-08
3.06038e-06
3.65242e-08
3.06233e-06
3.60163e-08
3.06421e-06
3.55227e-08
3.06603e-06
3.5024e-08
3.06777e-06
3.45016e-08
3.06941e-06
3.39406e-08
3.07095e-06
3.33323e-08
3.07237e-06
3.26758e-08
3.07366e-06
3.19775e-08
3.07479e-06
3.1252e-08
3.07576e-06
3.05214e-08
3.07654e-06
2.98153e-08
3.07712e-06
2.91719e-08
3.07746e-06
2.86371e-08
3.07753e-06
2.82652e-08
3.07727e-06
2.81179e-08
3.07663e-06
2.82674e-08
3.07551e-06
2.88013e-08
3.07383e-06
2.98335e-08
3.07146e-06
3.15184e-08
3.06831e-06
3.40692e-08
3.06425e-06
3.77779e-08
3.05917e-06
4.30355e-08
3.05289e-06
5.03552e-08
3.04521e-06
6.03995e-08
3.03582e-06
7.40168e-08
3.02428e-06
9.22966e-08
3.01002e-06
1.16658e-07
2.99227e-06
1.48976e-07
2.97006e-06
1.9183e-07
2.9422e-06
2.487e-07
2.90729e-06
3.2492e-07
2.86369e-06
4.26638e-07
2.80974e-06
5.68156e-07
2.7424e-06
7.48776e-07
2.66434e-06
1.04068e-06
1.27864e-06
2.54146e-06
3.00156e-06
9.72678e-09
3.00449e-06
2.49211e-08
3.00722e-06
3.27651e-08
3.00985e-06
3.69807e-08
3.01266e-06
4.05308e-08
3.01551e-06
4.32101e-08
3.01831e-06
4.46435e-08
3.02106e-06
4.51987e-08
3.02376e-06
4.52536e-08
3.02639e-06
4.4952e-08
3.02896e-06
4.43725e-08
3.03146e-06
4.3608e-08
3.03389e-06
4.27424e-08
3.03626e-06
4.18336e-08
3.03858e-06
4.09193e-08
3.04084e-06
4.00245e-08
3.04306e-06
3.91653e-08
3.04524e-06
3.83511e-08
3.04737e-06
3.75872e-08
3.04947e-06
3.68763e-08
3.05153e-06
3.62197e-08
3.05356e-06
3.56169e-08
3.05556e-06
3.50645e-08
3.05753e-06
3.45554e-08
3.05947e-06
3.40781e-08
3.06137e-06
3.36175e-08
3.06324e-06
3.31567e-08
3.06506e-06
3.26795e-08
3.06683e-06
3.21734e-08
3.06853e-06
3.16316e-08
3.07015e-06
3.10547e-08
3.07168e-06
3.04509e-08
3.0731e-06
2.98359e-08
3.07438e-06
2.92332e-08
3.07552e-06
2.86743e-08
3.0765e-06
2.82001e-08
3.07727e-06
2.78613e-08
3.07782e-06
2.77198e-08
3.07809e-06
2.78493e-08
3.07802e-06
2.83371e-08
3.07753e-06
2.92882e-08
3.07653e-06
3.08332e-08
3.07491e-06
3.31408e-08
3.07254e-06
3.64356e-08
3.0693e-06
4.10203e-08
3.06503e-06
4.73023e-08
3.05956e-06
5.58237e-08
3.05267e-06
6.72955e-08
3.04404e-06
8.26404e-08
3.03329e-06
1.0305e-07
3.01988e-06
1.30072e-07
3.00312e-06
1.65735e-07
2.98217e-06
2.1278e-07
2.95602e-06
2.74847e-07
2.92358e-06
3.5736e-07
2.88369e-06
4.66528e-07
2.83581e-06
6.16039e-07
2.7779e-06
8.06681e-07
2.71706e-06
1.10152e-06
1.37499e-06
2.62071e-06
3.00126e-06
8.46454e-09
3.00387e-06
2.23156e-08
3.00648e-06
3.01578e-08
3.00902e-06
3.44368e-08
3.01173e-06
3.78207e-08
3.01452e-06
4.04234e-08
3.01727e-06
4.18898e-08
3.01998e-06
4.24882e-08
3.02265e-06
4.25854e-08
3.02526e-06
4.23404e-08
3.0278e-06
4.18278e-08
3.03028e-06
4.11321e-08
3.03269e-06
4.03332e-08
3.03503e-06
3.94883e-08
3.03732e-06
3.86339e-08
3.03955e-06
3.77947e-08
3.04173e-06
3.69866e-08
3.04386e-06
3.62194e-08
3.04595e-06
3.54987e-08
3.048e-06
3.48277e-08
3.05001e-06
3.42076e-08
3.05199e-06
3.36382e-08
3.05394e-06
3.31164e-08
3.05586e-06
3.26357e-08
3.05775e-06
3.21862e-08
3.05961e-06
3.17544e-08
3.06144e-06
3.13257e-08
3.06324e-06
3.08861e-08
3.06498e-06
3.04253e-08
3.06668e-06
2.99386e-08
3.0683e-06
2.94282e-08
3.06985e-06
2.89038e-08
3.0713e-06
2.83824e-08
3.07265e-06
2.78893e-08
3.07386e-06
2.7458e-08
3.07493e-06
2.71318e-08
3.07583e-06
2.69659e-08
3.07652e-06
2.70286e-08
3.07696e-06
2.74034e-08
3.07711e-06
2.81909e-08
3.07689e-06
2.95122e-08
3.0762e-06
3.15151e-08
3.07496e-06
3.43853e-08
3.07303e-06
3.83635e-08
3.07028e-06
4.37693e-08
3.06656e-06
5.10306e-08
3.06166e-06
6.07198e-08
3.05536e-06
7.35935e-08
3.04736e-06
9.06401e-08
3.03727e-06
1.1314e-07
3.02459e-06
1.42756e-07
3.00868e-06
1.81645e-07
2.98877e-06
2.32691e-07
2.96395e-06
2.99659e-07
2.93331e-06
3.88009e-07
2.89586e-06
5.03973e-07
2.85156e-06
6.60336e-07
2.79893e-06
8.59318e-07
2.74684e-06
1.15361e-06
1.45187e-06
2.66996e-06
3.00104e-06
7.42173e-09
3.00336e-06
1.99977e-08
3.00584e-06
2.76737e-08
3.00831e-06
3.19721e-08
3.01093e-06
3.52003e-08
3.01365e-06
3.77019e-08
3.01636e-06
3.91777e-08
3.01904e-06
3.98112e-08
3.02168e-06
3.99443e-08
3.02427e-06
3.97483e-08
3.0268e-06
3.9297e-08
3.02927e-06
3.86663e-08
3.03167e-06
3.79319e-08
3.03401e-06
3.71495e-08
3.03629e-06
3.63549e-08
3.03851e-06
3.55716e-08
3.04068e-06
3.48156e-08
3.04281e-06
3.40969e-08
3.04488e-06
3.34212e-08
3.04692e-06
3.27917e-08
3.04892e-06
3.221e-08
3.05088e-06
3.16758e-08
3.05281e-06
3.11864e-08
3.05471e-06
3.07361e-08
3.05658e-06
3.03158e-08
3.05842e-06
2.99141e-08
3.06023e-06
2.95181e-08
3.062e-06
2.9116e-08
3.06372e-06
2.86996e-08
3.0654e-06
2.82659e-08
3.06701e-06
2.78187e-08
3.06854e-06
2.73691e-08
3.06999e-06
2.69357e-08
3.07133e-06
2.65451e-08
3.07256e-06
2.62329e-08
3.07364e-06
2.60451e-08
3.07457e-06
2.60404e-08
3.0753e-06
2.6293e-08
3.07581e-06
2.68948e-08
3.07605e-06
2.79578e-08
3.07594e-06
2.96173e-08
3.07542e-06
3.20379e-08
3.07438e-06
3.54226e-08
3.07271e-06
4.00307e-08
3.07028e-06
4.62016e-08
3.06692e-06
5.43874e-08
3.06245e-06
6.51921e-08
3.05663e-06
7.94163e-08
3.04916e-06
9.81091e-08
3.03967e-06
1.22632e-07
3.02768e-06
1.54745e-07
3.0126e-06
1.96724e-07
2.99372e-06
2.51568e-07
2.97023e-06
3.23151e-07
2.94131e-06
4.16929e-07
2.90614e-06
5.39145e-07
2.86485e-06
7.01625e-07
2.81633e-06
9.07842e-07
2.76913e-06
1.2008e-06
1.51478e-06
2.70622e-06
3.00088e-06
6.54315e-09
3.00295e-06
1.79269e-08
3.00531e-06
2.53144e-08
3.0077e-06
2.95807e-08
3.01024e-06
3.26605e-08
3.0129e-06
3.50439e-08
3.01557e-06
3.65065e-08
3.01822e-06
3.7165e-08
3.02083e-06
3.73281e-08
3.02341e-06
3.71743e-08
3.02592e-06
3.67785e-08
3.02838e-06
3.6209e-08
3.03078e-06
3.55363e-08
3.03311e-06
3.48144e-08
3.03539e-06
3.40781e-08
3.03761e-06
3.33501e-08
3.03978e-06
3.26459e-08
3.0419e-06
3.19756e-08
3.04398e-06
3.1345e-08
3.04601e-06
3.07576e-08
3.04801e-06
3.02148e-08
3.04997e-06
2.97166e-08
3.05189e-06
2.92605e-08
3.05379e-06
2.88417e-08
3.05565e-06
2.84521e-08
3.05748e-06
2.80816e-08
3.05928e-06
2.77194e-08
3.06104e-06
2.73557e-08
3.06276e-06
2.6984e-08
3.06442e-06
2.66031e-08
3.06602e-06
2.62182e-08
3.06755e-06
2.58418e-08
3.06899e-06
2.54939e-08
3.07033e-06
2.52025e-08
3.07156e-06
2.50052e-08
3.07265e-06
2.49503e-08
3.07359e-06
2.51002e-08
3.07435e-06
2.55341e-08
3.0749e-06
2.63511e-08
3.07518e-06
2.76734e-08
3.07515e-06
2.96491e-08
3.07473e-06
3.24576e-08
3.07383e-06
3.63195e-08
3.07235e-06
4.15129e-08
3.07015e-06
4.83987e-08
3.06709e-06
5.74547e-08
3.06296e-06
6.93173e-08
3.05755e-06
8.483e-08
3.05056e-06
1.05099e-07
3.04163e-06
1.31557e-07
3.03032e-06
1.66056e-07
3.01607e-06
2.10971e-07
2.99824e-06
2.694e-07
2.97609e-06
3.45302e-07
2.94892e-06
4.44105e-07
2.91603e-06
5.72035e-07
2.87766e-06
7.39992e-07
2.83311e-06
9.52394e-07
2.78978e-06
1.24413e-06
1.56729e-06
2.73727e-06
3.00075e-06
5.78921e-09
3.00261e-06
1.60661e-08
3.00485e-06
2.30779e-08
3.00717e-06
2.7259e-08
3.00964e-06
3.01923e-08
3.01224e-06
3.24462e-08
3.01487e-06
3.38751e-08
3.01749e-06
3.45479e-08
3.02008e-06
3.47352e-08
3.02264e-06
3.46176e-08
3.02514e-06
3.42719e-08
3.02759e-06
3.37596e-08
3.02998e-06
3.31459e-08
3.03232e-06
3.24824e-08
3.03459e-06
3.18029e-08
3.03681e-06
3.11292e-08
3.03898e-06
3.04763e-08
3.0411e-06
2.9854e-08
3.04318e-06
2.92684e-08
3.04521e-06
2.87229e-08
3.04721e-06
2.82192e-08
3.04917e-06
2.77572e-08
3.05109e-06
2.7335e-08
3.05299e-06
2.69481e-08
3.05485e-06
2.65898e-08
3.05668e-06
2.62514e-08
3.05848e-06
2.59237e-08
3.06023e-06
2.55987e-08
3.06195e-06
2.52718e-08
3.06361e-06
2.49434e-08
3.0652e-06
2.46201e-08
3.06673e-06
2.43156e-08
3.06817e-06
2.40512e-08
3.06952e-06
2.38564e-08
3.07075e-06
2.37706e-08
3.07186e-06
2.38444e-08
3.07282e-06
2.41435e-08
3.0736e-06
2.47517e-08
3.07417e-06
2.57746e-08
3.0745e-06
2.73432e-08
3.07454e-06
2.96168e-08
3.07421e-06
3.27888e-08
3.07343e-06
3.70963e-08
3.07211e-06
4.28362e-08
3.07011e-06
5.03912e-08
3.0673e-06
6.02652e-08
3.06349e-06
7.31271e-08
3.05846e-06
8.98619e-08
3.05193e-06
1.11628e-07
3.04356e-06
1.39927e-07
3.03293e-06
1.76686e-07
3.01953e-06
2.24373e-07
3.00276e-06
2.86166e-07
2.98197e-06
3.66091e-07
2.95655e-06
4.69526e-07
2.92595e-06
6.02644e-07
2.89045e-06
7.75488e-07
2.84978e-06
9.93064e-07
2.8102e-06
1.28372e-06
1.61165e-06
2.76583e-06
3.00066e-06
5.13123e-09
3.00234e-06
1.43823e-08
3.00446e-06
2.09586e-08
3.00672e-06
2.50041e-08
3.00912e-06
2.77879e-08
3.01166e-06
2.99046e-08
3.01425e-06
3.12823e-08
3.01684e-06
3.19581e-08
3.01942e-06
3.21639e-08
3.02196e-06
3.20771e-08
3.02445e-06
3.17763e-08
3.02689e-06
3.13175e-08
3.02928e-06
3.07601e-08
3.03161e-06
3.01532e-08
3.03388e-06
2.95291e-08
3.0361e-06
2.89087e-08
3.03827e-06
2.83064e-08
3.0404e-06
2.77318e-08
3.04247e-06
2.7191e-08
3.04451e-06
2.66873e-08
3.0465e-06
2.62226e-08
3.04847e-06
2.57969e-08
3.05039e-06
2.54087e-08
3.05229e-06
2.50543e-08
3.05415e-06
2.47277e-08
3.05598e-06
2.44218e-08
3.05777e-06
2.41289e-08
3.05953e-06
2.38429e-08
3.06124e-06
2.35607e-08
3.0629e-06
2.32843e-08
3.0645e-06
2.30215e-08
3.06602e-06
2.27874e-08
3.06747e-06
2.26045e-08
3.06882e-06
2.25036e-08
3.07007e-06
2.25259e-08
3.07119e-06
2.27242e-08
3.07217e-06
2.31672e-08
3.07297e-06
2.39428e-08
3.07359e-06
2.51626e-08
3.07396e-06
2.69649e-08
3.07406e-06
2.95196e-08
3.07382e-06
3.30328e-08
3.07316e-06
3.77569e-08
3.07199e-06
4.40071e-08
3.07019e-06
5.21878e-08
3.06763e-06
6.28289e-08
3.06412e-06
7.66311e-08
3.05947e-06
9.45185e-08
3.05339e-06
1.17699e-07
3.04559e-06
1.47734e-07
3.03565e-06
1.86623e-07
3.02311e-06
2.36909e-07
3.00744e-06
3.01842e-07
2.98804e-06
3.85492e-07
2.96438e-06
4.93178e-07
2.93604e-06
6.30985e-07
2.90336e-06
8.08174e-07
2.8664e-06
1.03002e-06
2.83051e-06
1.31961e-06
1.64941e-06
2.79274e-06
3.00058e-06
4.54812e-09
3.00212e-06
1.28471e-08
3.00413e-06
1.8949e-08
3.00632e-06
2.28132e-08
3.00867e-06
2.54406e-08
3.01116e-06
2.74148e-08
3.01371e-06
2.87264e-08
3.01628e-06
2.93941e-08
3.01883e-06
2.96126e-08
3.02135e-06
2.95516e-08
3.02384e-06
2.92912e-08
3.02627e-06
2.88824e-08
3.02865e-06
2.83788e-08
3.03098e-06
2.78264e-08
3.03325e-06
2.72564e-08
3.03547e-06
2.66885e-08
3.03764e-06
2.61362e-08
3.03977e-06
2.56089e-08
3.04185e-06
2.51126e-08
3.04388e-06
2.46506e-08
3.04588e-06
2.42248e-08
3.04784e-06
2.38356e-08
3.04977e-06
2.34816e-08
3.05166e-06
2.31598e-08
3.05353e-06
2.28653e-08
3.05535e-06
2.25921e-08
3.05715e-06
2.23343e-08
3.05891e-06
2.20873e-08
3.06062e-06
2.18495e-08
3.06228e-06
2.16244e-08
3.06388e-06
2.14211e-08
3.06541e-06
2.12558e-08
3.06686e-06
2.11522e-08
3.06822e-06
2.11425e-08
3.06948e-06
2.12693e-08
3.07061e-06
2.15877e-08
3.07161e-06
2.2169e-08
3.07245e-06
2.31051e-08
3.0731e-06
2.45123e-08
3.07353e-06
2.65362e-08
3.07369e-06
2.93555e-08
3.07354e-06
3.3188e-08
3.073e-06
3.83006e-08
3.07198e-06
4.50261e-08
3.07037e-06
5.379e-08
3.06806e-06
6.51474e-08
3.06486e-06
7.98295e-08
3.06058e-06
9.87976e-08
3.05497e-06
1.23305e-07
3.04774e-06
1.54968e-07
3.03851e-06
1.95848e-07
3.02686e-06
2.48557e-07
3.01231e-06
3.164e-07
2.99432e-06
4.03481e-07
2.97245e-06
5.15047e-07
2.94636e-06
6.57074e-07
2.91642e-06
8.3811e-07
2.88297e-06
1.06347e-06
2.85063e-06
1.35196e-06
1.68174e-06
2.81829e-06
3.00052e-06
4.02412e-09
3.00193e-06
1.14366e-08
3.00384e-06
1.704e-08
3.00597e-06
2.06832e-08
3.00827e-06
2.31446e-08
3.01071e-06
2.49722e-08
3.01323e-06
2.62055e-08
3.01577e-06
2.68544e-08
3.01831e-06
2.70797e-08
3.02082e-06
2.70402e-08
3.02329e-06
2.68158e-08
3.02572e-06
2.64536e-08
3.0281e-06
2.60014e-08
3.03042e-06
2.5502e-08
3.03269e-06
2.49848e-08
3.03491e-06
2.44684e-08
3.03709e-06
2.39656e-08
3.03921e-06
2.34852e-08
3.04129e-06
2.30331e-08
3.04333e-06
2.26127e-08
3.04533e-06
2.22258e-08
3.04729e-06
2.1873e-08
3.04922e-06
2.15533e-08
3.05111e-06
2.12644e-08
3.05297e-06
2.10022e-08
3.0548e-06
2.07621e-08
3.0566e-06
2.05395e-08
3.05836e-06
2.03313e-08
3.06007e-06
2.01376e-08
3.06173e-06
1.99631e-08
3.06333e-06
1.98181e-08
3.06487e-06
1.97199e-08
3.06633e-06
1.96934e-08
3.0677e-06
1.97719e-08
3.06897e-06
1.99997e-08
3.07012e-06
2.04336e-08
3.07114e-06
2.11476e-08
3.07201e-06
2.22366e-08
3.0727e-06
2.38218e-08
3.07318e-06
2.60547e-08
3.07342e-06
2.9122e-08
3.07335e-06
3.32522e-08
3.07293e-06
3.87256e-08
3.07206e-06
4.58918e-08
3.07065e-06
5.51965e-08
3.06858e-06
6.72191e-08
3.06569e-06
8.27196e-08
3.0618e-06
1.02694e-07
3.05666e-06
1.28438e-07
3.05002e-06
1.61615e-07
3.04152e-06
2.04344e-07
3.03078e-06
2.59293e-07
3.01737e-06
3.29814e-07
3.00082e-06
4.20033e-07
2.98074e-06
5.35122e-07
2.95689e-06
6.80929e-07
2.92964e-06
8.65358e-07
2.89951e-06
1.0936e-06
2.87051e-06
1.38096e-06
1.70955e-06
2.8427e-06
3.00048e-06
3.54728e-09
3.00178e-06
1.01304e-08
3.0036e-06
1.52216e-08
3.00567e-06
1.86108e-08
3.00792e-06
2.0895e-08
3.01032e-06
2.25722e-08
3.01281e-06
2.37173e-08
3.01533e-06
2.43373e-08
3.01784e-06
2.45638e-08
3.02034e-06
2.45417e-08
3.02281e-06
2.43495e-08
3.02523e-06
2.40307e-08
3.02761e-06
2.36277e-08
3.02993e-06
2.31796e-08
3.0322e-06
2.2714e-08
3.03442e-06
2.22484e-08
3.03659e-06
2.17944e-08
3.03871e-06
2.13607e-08
3.0408e-06
2.09526e-08
3.04283e-06
2.05735e-08
3.04483e-06
2.02255e-08
3.0468e-06
1.99091e-08
3.04873e-06
1.96239e-08
3.05062e-06
1.9368e-08
3.05249e-06
1.91383e-08
3.05432e-06
1.89315e-08
3.05611e-06
1.87441e-08
3.05787e-06
1.85746e-08
3.05958e-06
1.84245e-08
3.06125e-06
1.82998e-08
3.06285e-06
1.82119e-08
3.06439e-06
1.81791e-08
3.06586e-06
1.82274e-08
3.06724e-06
1.83913e-08
3.06852e-06
1.87162e-08
3.0697e-06
1.9261e-08
3.07074e-06
2.01016e-08
3.07164e-06
2.13362e-08
3.07238e-06
2.30896e-08
3.07291e-06
2.55187e-08
3.07322e-06
2.88173e-08
3.07325e-06
3.32236e-08
3.07294e-06
3.90303e-08
3.07223e-06
4.66026e-08
3.07102e-06
5.64056e-08
3.0692e-06
6.90417e-08
3.06662e-06
8.5298e-08
3.06311e-06
1.06203e-07
3.05846e-06
1.33088e-07
3.05241e-06
1.67663e-07
3.04467e-06
2.12092e-07
3.03486e-06
2.69095e-07
3.02262e-06
3.42061e-07
3.00752e-06
4.35129e-07
2.98925e-06
5.53394e-07
2.96761e-06
7.02568e-07
2.94299e-06
8.89977e-07
2.916e-06
1.1206e-06
2.89013e-06
1.40683e-06
1.73356e-06
2.86613e-06
3.00044e-06
3.10833e-09
3.00166e-06
8.9112e-09
3.0034e-06
1.34841e-08
3.00541e-06
1.65918e-08
3.00762e-06
1.8687e-08
3.00998e-06
2.02104e-08
3.01244e-06
2.12591e-08
3.01494e-06
2.18413e-08
3.01744e-06
2.20633e-08
3.01993e-06
2.20549e-08
3.02238e-06
2.18915e-08
3.0248e-06
2.16132e-08
3.02717e-06
2.12573e-08
3.02949e-06
2.08591e-08
3.03176e-06
2.04441e-08
3.03398e-06
2.00284e-08
3.03615e-06
1.96228e-08
3.03828e-06
1.92353e-08
3.04036e-06
1.88709e-08
3.0424e-06
1.85332e-08
3.0444e-06
1.82239e-08
3.04637e-06
1.7944e-08
3.0483e-06
1.76932e-08
3.0502e-06
1.74704e-08
3.05206e-06
1.72735e-08
3.05389e-06
1.70999e-08
3.05569e-06
1.69477e-08
3.05745e-06
1.68168e-08
3.05916e-06
1.67098e-08
3.06083e-06
1.6634e-08
3.06244e-06
1.66019e-08
3.06398e-06
1.66328e-08
3.06546e-06
1.67535e-08
3.06685e-06
1.69998e-08
3.06815e-06
1.74181e-08
3.06934e-06
1.80689e-08
3.07041e-06
1.90303e-08
3.07134e-06
2.04027e-08
3.07212e-06
2.23143e-08
3.07271e-06
2.49266e-08
3.07309e-06
2.84399e-08
3.07321e-06
3.31006e-08
3.07303e-06
3.9213e-08
3.07247e-06
4.71569e-08
3.07146e-06
5.74155e-08
3.06989e-06
7.06127e-08
3.06763e-06
8.75607e-08
3.06452e-06
1.09317e-07
3.06036e-06
1.37247e-07
3.05492e-06
1.73098e-07
3.04794e-06
2.19077e-07
3.03909e-06
2.77945e-07
3.02803e-06
3.53122e-07
3.0144e-06
4.48751e-07
2.99794e-06
5.69856e-07
2.9785e-06
7.22011e-07
2.95645e-06
9.1203e-07
2.93244e-06
1.14461e-06
2.9095e-06
1.42977e-06
1.75432e-06
2.88873e-06
3.00041e-06
2.69998e-09
3.00156e-06
7.76454e-09
3.00322e-06
1.18177e-08
3.00519e-06
1.46219e-08
3.00736e-06
1.65165e-08
3.00969e-06
1.78824e-08
3.01212e-06
1.88282e-08
3.0146e-06
1.93647e-08
3.01708e-06
1.95769e-08
3.01956e-06
1.95788e-08
3.02201e-06
1.94411e-08
3.02442e-06
1.92008e-08
3.02679e-06
1.88901e-08
3.02911e-06
1.85403e-08
3.03138e-06
1.81749e-08
3.0336e-06
1.78084e-08
3.03577e-06
1.74507e-08
3.0379e-06
1.71091e-08
3.03998e-06
1.67883e-08
3.04202e-06
1.64917e-08
3.04402e-06
1.62211e-08
3.04599e-06
1.59776e-08
3.04792e-06
1.57613e-08
3.04982e-06
1.55717e-08
3.05169e-06
1.54075e-08
3.05352e-06
1.52672e-08
3.05532e-06
1.51502e-08
3.05708e-06
1.50574e-08
3.05879e-06
1.4993e-08
3.06046e-06
1.49653e-08
3.06208e-06
1.49877e-08
3.06363e-06
1.50805e-08
3.06511e-06
1.52713e-08
3.06651e-06
1.55969e-08
3.06783e-06
1.61048e-08
3.06904e-06
1.68569e-08
3.07014e-06
1.79327e-08
3.0711e-06
1.9435e-08
3.07192e-06
2.14948e-08
3.07257e-06
2.42774e-08
3.07302e-06
2.79883e-08
3.07324e-06
3.28817e-08
3.07318e-06
3.92722e-08
3.07279e-06
4.75532e-08
3.07198e-06
5.82244e-08
3.07066e-06
7.19297e-08
3.06872e-06
8.95043e-08
3.066e-06
1.12032e-07
3.06234e-06
1.40907e-07
3.05753e-06
1.7791e-07
3.05132e-06
2.25285e-07
3.04344e-06
2.85826e-07
3.03359e-06
3.62977e-07
3.02145e-06
4.60886e-07
3.0068e-06
5.84506e-07
2.98953e-06
7.39279e-07
2.96999e-06
9.31573e-07
2.94882e-06
1.16578e-06
2.92862e-06
1.44997e-06
1.7723e-06
2.91064e-06
3.00038e-06
2.31638e-09
3.00147e-06
6.67798e-09
3.00308e-06
1.02128e-08
3.005e-06
1.26962e-08
3.00714e-06
1.43791e-08
3.00944e-06
1.55841e-08
3.01184e-06
1.64218e-08
3.0143e-06
1.69055e-08
3.01678e-06
1.71029e-08
3.01924e-06
1.7112e-08
3.02169e-06
1.69975e-08
3.02409e-06
1.67928e-08
3.02646e-06
1.65255e-08
3.02878e-06
1.62231e-08
3.03104e-06
1.59063e-08
3.03326e-06
1.55884e-08
3.03544e-06
1.52782e-08
3.03756e-06
1.49821e-08
3.03965e-06
1.47047e-08
3.04169e-06
1.4449e-08
3.04369e-06
1.4217e-08
3.04566e-06
1.40099e-08
3.0476e-06
1.38282e-08
3.0495e-06
1.36718e-08
3.05136e-06
1.35403e-08
3.0532e-06
1.34333e-08
3.055e-06
1.33512e-08
3.05676e-06
1.32964e-08
3.05848e-06
1.32739e-08
3.06015e-06
1.32932e-08
3.06177e-06
1.33689e-08
3.06333e-06
1.35218e-08
3.06482e-06
1.37803e-08
3.06623e-06
1.41821e-08
3.06756e-06
1.47758e-08
3.06879e-06
1.56241e-08
3.06992e-06
1.68082e-08
3.07092e-06
1.84325e-08
3.07178e-06
2.06302e-08
3.07249e-06
2.35698e-08
3.07302e-06
2.74614e-08
3.07334e-06
3.25658e-08
3.0734e-06
3.92068e-08
3.07316e-06
4.77901e-08
3.07256e-06
5.88308e-08
3.0715e-06
7.29907e-08
3.06987e-06
9.11257e-08
3.06756e-06
1.14342e-07
3.06441e-06
1.44061e-07
3.06023e-06
1.8209e-07
3.05481e-06
2.30702e-07
3.04792e-06
2.92722e-07
3.03928e-06
3.71613e-07
3.02865e-06
4.71521e-07
3.01581e-06
5.9734e-07
3.0007e-06
7.54393e-07
2.98361e-06
9.48661e-07
2.96515e-06
1.18424e-06
2.94752e-06
1.4676e-06
1.78785e-06
2.93197e-06
3.00036e-06
1.95275e-09
3.0014e-06
5.64086e-09
3.00295e-06
8.66049e-09
3.00484e-06
1.08094e-08
3.00695e-06
1.22708e-08
3.00922e-06
1.33115e-08
3.01161e-06
1.40367e-08
3.01405e-06
1.44618e-08
3.01651e-06
1.464e-08
3.01897e-06
1.46535e-08
3.02141e-06
1.456e-08
3.02381e-06
1.43888e-08
3.02617e-06
1.41634e-08
3.02849e-06
1.39071e-08
3.03076e-06
1.36382e-08
3.03298e-06
1.33683e-08
3.03515e-06
1.31052e-08
3.03728e-06
1.28544e-08
3.03936e-06
1.26201e-08
3.04141e-06
1.24053e-08
3.04341e-06
1.22118e-08
3.04538e-06
1.2041e-08
3.04732e-06
1.18937e-08
3.04922e-06
1.17706e-08
3.05109e-06
1.16718e-08
3.05292e-06
1.1598e-08
3.05472e-06
1.15506e-08
3.05648e-06
1.15332e-08
3.05821e-06
1.15521e-08
3.05988e-06
1.16175e-08
3.06151e-06
1.1745e-08
3.06307e-06
1.19562e-08
3.06457e-06
1.22801e-08
3.066e-06
1.27551e-08
3.06734e-06
1.34305e-08
3.0686e-06
1.43702e-08
3.06975e-06
1.56563e-08
3.07079e-06
1.73945e-08
3.0717e-06
1.97198e-08
3.07247e-06
2.28031e-08
3.07307e-06
2.68583e-08
3.07348e-06
3.21519e-08
3.07367e-06
3.90158e-08
3.0736e-06
4.78667e-08
3.07319e-06
5.92334e-08
3.07239e-06
7.3794e-08
3.07109e-06
9.24223e-08
3.06919e-06
1.16244e-07
3.06655e-06
1.46703e-07
3.06301e-06
1.85628e-07
3.05839e-06
2.35318e-07
3.0525e-06
2.98621e-07
3.04509e-06
3.79016e-07
3.03597e-06
4.80648e-07
3.02495e-06
6.08358e-07
3.01197e-06
7.6737e-07
2.99729e-06
9.63342e-07
2.98143e-06
1.2001e-06
2.96622e-06
1.4828e-06
1.80127e-06
2.95281e-06
3.00035e-06
1.6051e-09
3.00134e-06
4.64389e-09
3.00285e-06
7.15228e-09
3.00471e-06
8.9564e-09
3.00679e-06
1.01876e-08
3.00904e-06
1.10606e-08
3.01141e-06
1.167e-08
3.01384e-06
1.20316e-08
3.01629e-06
1.21866e-08
3.01874e-06
1.22021e-08
3.02117e-06
1.21276e-08
3.02357e-06
1.19882e-08
3.02593e-06
1.18033e-08
3.02825e-06
1.15923e-08
3.03052e-06
1.13706e-08
3.03274e-06
1.11482e-08
3.03491e-06
1.09317e-08
3.03704e-06
1.0726e-08
3.03912e-06
1.05347e-08
3.04117e-06
1.03606e-08
3.04318e-06
1.02054e-08
3.04515e-06
1.00709e-08
3.04708e-06
9.95809e-09
3.04898e-06
9.86808e-09
3.05085e-06
9.80192e-09
3.05269e-06
9.76111e-09
3.05449e-06
9.74826e-09
3.05626e-06
9.76788e-09
3.05798e-06
9.82735e-09
3.05966e-06
9.93792e-09
3.06129e-06
1.01158e-08
3.06286e-06
1.03834e-08
3.06437e-06
1.07703e-08
3.06581e-06
1.13154e-08
3.06718e-06
1.20687e-08
3.06845e-06
1.30947e-08
3.06963e-06
1.44764e-08
3.07071e-06
1.63204e-08
3.07166e-06
1.8763e-08
3.07249e-06
2.19767e-08
3.07317e-06
2.61784e-08
3.07368e-06
3.16394e-08
3.074e-06
3.86986e-08
3.07408e-06
4.77823e-08
3.07388e-06
5.94315e-08
3.07334e-06
7.43383e-08
3.07237e-06
9.3392e-08
3.07088e-06
1.17735e-07
3.06875e-06
1.48828e-07
3.06586e-06
1.88519e-07
3.06206e-06
2.39126e-07
3.05716e-06
3.03514e-07
3.051e-06
3.85175e-07
3.0434e-06
4.88256e-07
3.03419e-06
6.17559e-07
3.02334e-06
7.78225e-07
3.01102e-06
9.75657e-07
2.99767e-06
1.21345e-06
2.98476e-06
1.49571e-06
1.81278e-06
2.97325e-06
3.00034e-06
1.27002e-09
3.0013e-06
3.67891e-09
3.00277e-06
5.68004e-09
3.0046e-06
7.13155e-09
3.00666e-06
8.12536e-09
3.00889e-06
8.82779e-09
3.01124e-06
9.31864e-09
3.01366e-06
9.61275e-09
3.01611e-06
9.74117e-09
3.01855e-06
9.75668e-09
3.02098e-06
9.69949e-09
3.02338e-06
9.59048e-09
3.02574e-06
9.44495e-09
3.02805e-06
9.27838e-09
3.03032e-06
9.10335e-09
3.03254e-06
8.92805e-09
3.03471e-06
8.75788e-09
3.03684e-06
8.59696e-09
3.03893e-06
8.4485e-09
3.04097e-06
8.31492e-09
3.04298e-06
8.1981e-09
3.04495e-06
8.0997e-09
3.04689e-06
8.02125e-09
3.04879e-06
7.9643e-09