/*--------------------------------*- C++ -*----------------------------------*\
| =========                 |                                                 |
| \\      /  F ield         | OpenFOAM: The Open Source CFD Toolbox           |
|  \\    /   O peration     | Version:  2.4.0                                 |
|   \\  /    A nd           | Web:      www.OpenFOAM.org                      |
|    \\/     M anipulation  |                                                 |
\*---------------------------------------------------------------------------*/
FoamFile
{
    version     2.0;
    format      ascii;
    class       volScalarField;
    location    "1750";
    object      omega;
}
// * * * * * * * * * * * * * * * * * * * * * * * * * * * * * * * * * * * * * //

dimensions      [0 0 -1 0 0 0 0];

internalField   nonuniform List<scalar> 
48900
(
141364
145609
147521
147899
147397
146440
145279
144060
142872
141759
140742
139827
139018
138306
137684
137140
136670
136264
135916
135619
135368
135156
134978
134830
134708
134607
134525
134458
134405
134364
134334
134314
134304
134308
134328
134354
16811.3
28137.5
35482.3
40049.5
42808.8
44437.7
45396.1
45976
46387.7
46839.4
47453.4
48126.5
48780
49386.8
49927.7
50392
50772.7
51071.2
51289.1
51433.6
51510.8
51529.7
51499.1
51424.4
51314.3
51172.8
51007.4
50819.5
50615.1
50394.5
50163.2
49916.2
49653.5
49397.1
49144.4
48845.7
2463
4868.3
7243.63
9446.16
11403.5
13077.8
14484.3
15661.1
16650.8
17500
18265.2
18984.6
19664.2
20299.9
20887.3
21426.6
21917.8
22363.9
22766
23125.8
23439.1
23711
23947.8
24157.9
24343.7
24509.6
24654.6
24780.4
24884.4
24969.3
25032.8
25076.2
25095
25086.6
25042
24984.8
804.069
1396.47
2050.15
2738.25
3440.38
4132.36
4797.21
5425.3
6012.02
6557.13
7063.45
7534.75
7974.15
8383.35
8763.61
9116.29
9442.93
9745.13
10024.9
10287.7
10543.2
10794.2
11038.8
11274.8
11500.1
11714.3
11916.4
12107.1
12285.7
12452
12604.9
12743.5
12865.1
12965.7
13039.9
13081.8
474.984
679.278
911.337
1162.06
1426.49
1698.76
1973.6
2246.84
2515
2775.25
3025.77
3265.37
3493.44
3709.58
3913.61
4105.47
4285.31
4453.48
4610.64
4759.03
4902.56
5042.81
5179.36
5311.45
5438.58
5560.48
5677.07
5788.29
5894.09
5994.32
6088.66
6176.56
6257.92
6332.98
6401.71
6461.49
376.004
462.281
564.114
675.801
794.609
918.292
1044.93
1172.96
1301
1427.74
1552.15
1673.38
1790.77
1903.82
2012.13
2115.43
2213.54
2306.4
2394.04
2476.71
2554.91
2629.14
2699.79
2767.11
2831.3
2892.51
2950.85
3006.39
3059.16
3109.13
3156.2
3200.16
3241.03
3278.99
3314.16
3345.77
339.247
378.836
428.757
485.25
546.253
610.347
676.466
743.796
811.648
879.405
946.535
1012.59
1077.19
1140.03
1200.86
1259.48
1315.74
1369.53
1420.81
1469.59
1515.93
1559.93
1601.73
1641.44
1679.19
1715.06
1749.15
1781.52
1812.2
1841.22
1868.56
1894.15
1917.91
1939.74
1959.57
1977.16
324.36
342.716
368.049
398.25
431.859
467.829
505.394
543.991
583.172
622.56
661.841
700.747
739.054
776.575
813.155
848.666
883.008
916.105
947.909
978.394
1007.56
1035.42
1062.01
1087.38
1111.56
1134.6
1156.54
1177.41
1197.24
1216.05
1233.83
1250.56
1266.23
1280.78
1294.2
1306.33
318.171
326.392
339.048
355.243
374.12
394.959
417.194
440.394
464.219
488.396
512.7
536.943
560.971
584.657
607.894
630.593
652.685
674.114
694.84
714.837
734.089
752.594
770.356
787.385
803.697
819.31
834.24
848.501
862.107
875.066
887.38
899.046
910.057
920.397
930.059
938.929
315.6
319.002
324.996
333.38
343.776
355.77
368.986
383.108
397.878
413.083
428.547
444.126
459.701
475.171
490.456
505.487
520.21
534.58
548.564
562.137
575.282
587.988
600.251
612.07
623.447
634.389
644.899
654.985
664.652
673.902
682.737
691.158
699.161
706.743
713.9
720.533
314.544
315.718
318.287
322.329
327.759
334.4
342.045
350.493
359.563
369.097
378.959
389.035
399.23
409.461
419.663
429.779
439.762
449.575
459.189
468.579
477.728
486.622
495.253
503.616
511.707
519.526
527.073
534.347
541.352
548.086
554.55
560.743
566.665
572.315
577.688
582.699
314.114
314.296
315.176
316.886
319.469
322.89
327.065
331.892
337.262
343.07
349.221
355.63
362.222
368.931
375.704
382.493
389.259
395.968
402.594
409.114
415.51
421.769
427.88
433.835
439.628
445.255
450.713
456
461.115
466.055
470.821
475.41
479.821
484.055
488.105
491.9
313.939
313.696
313.781
314.3
315.322
316.871
318.935
321.479
324.451
327.795
331.451
335.363
339.478
343.748
348.129
352.586
357.084
361.596
366.098
370.569
374.994
379.357
383.649
387.859
391.981
396.008
399.937
403.763
407.484
411.096
414.597
417.987
421.262
424.422
427.46
430.32
313.866
313.444
313.173
313.115
313.325
313.84
314.675
315.831
317.294
319.04
321.04
323.262
325.674
328.243
330.941
333.738
336.612
339.537
342.497
345.472
348.449
351.414
354.357
357.269
360.142
362.969
365.746
368.468
371.131
373.731
376.266
378.733
381.129
383.454
385.702
387.827
313.836
313.349
312.942
312.649
312.509
312.55
312.793
313.249
313.919
314.797
315.87
317.123
318.536
320.09
321.765
323.543
325.404
327.332
329.311
331.328
333.37
335.427
337.488
339.546
341.594
343.624
345.632
347.613
349.563
351.478
353.356
355.193
356.987
358.735
360.433
362.041
313.821
313.304
312.834
312.431
312.118
311.914
311.839
311.904
312.116
312.477
312.984
313.63
314.406
315.3
316.302
317.397
318.574
319.821
321.125
322.476
323.864
325.28
326.717
328.166
329.622
331.079
332.532
333.976
335.408
336.824
338.22
339.594
340.943
342.265
343.555
344.781
313.811
313.278
312.775
312.313
311.905
311.562
311.298
311.122
311.041
311.062
311.185
311.409
311.731
312.147
312.649
313.231
313.885
314.603
315.377
316.201
317.065
317.964
318.892
319.843
320.81
321.791
322.779
323.772
324.765
325.755
326.74
327.717
328.683
329.636
330.571
331.463
313.804
313.261
312.741
312.249
311.79
311.372
311.002
310.686
310.43
310.24
310.118
310.065
310.082
310.168
310.319
310.533
310.805
311.132
311.508
311.929
312.389
312.885
313.412
313.965
314.541
315.136
315.746
316.368
316.999
317.636
318.277
318.92
319.562
320.2
320.832
321.438
313.798
313.25
312.72
312.211
311.727
311.269
310.842
310.45
310.096
309.783
309.514
309.292
309.116
308.988
308.907
308.871
308.881
308.932
309.024
309.153
309.316
309.511
309.736
309.986
310.26
310.554
310.867
311.195
311.537
311.891
312.253
312.623
312.998
313.377
313.756
314.124
313.794
313.241
312.705
312.188
311.689
311.211
310.755
310.323
309.916
309.536
309.185
308.864
308.575
308.317
308.092
307.899
307.738
307.609
307.509
307.439
307.396
307.379
307.388
307.419
307.471
307.543
307.633
307.739
307.86
307.995
308.141
308.297
308.462
308.634
308.812
308.987
313.79
313.234
312.694
312.171
311.664
311.176
310.704
310.251
309.817
309.402
309.007
308.633
308.281
307.95
307.641
307.355
307.092
306.85
306.631
306.434
306.257
306.101
305.964
305.846
305.746
305.663
305.596
305.543
305.505
305.479
305.466
305.463
305.47
305.486
305.509
305.537
313.787
313.228
312.684
312.157
311.646
311.151
310.671
310.207
309.759
309.325
308.908
308.506
308.12
307.75
307.397
307.059
306.737
306.432
306.143
305.87
305.612
305.37
305.143
304.931
304.733
304.549
304.377
304.219
304.073
303.938
303.814
303.7
303.596
303.5
303.413
303.334
313.784
313.223
312.677
312.147
311.632
311.132
310.647
310.176
309.72
309.277
308.847
308.431
308.028
307.638
307.26
306.895
306.543
306.203
305.876
305.561
305.258
304.967
304.687
304.419
304.163
303.917
303.683
303.458
303.244
303.04
302.845
302.659
302.481
302.312
302.151
301.999
313.782
313.219
312.67
312.138
311.62
311.116
310.628
310.152
309.691
309.242
308.806
308.382
307.969
307.568
307.178
306.799
306.431
306.073
305.726
305.389
305.061
304.744
304.436
304.138
303.848
303.569
303.298
303.035
302.782
302.536
302.299
302.069
301.847
301.633
301.425
301.228
313.78
313.215
312.665
312.13
311.61
311.104
310.612
310.133
309.668
309.215
308.774
308.345
307.927
307.52
307.123
306.736
306.359
305.992
305.634
305.285
304.945
304.614
304.291
303.977
303.671
303.373
303.082
302.799
302.524
302.256
301.995
301.741
301.494
301.253
301.02
300.796
313.778
313.212
312.661
312.124
311.601
311.093
310.598
310.117
309.649
309.193
308.749
308.316
307.894
307.482
307.081
306.69
306.308
305.935
305.571
305.216
304.869
304.531
304.2
303.877
303.562
303.254
302.954
302.66
302.374
302.094
301.82
301.553
301.293
301.038
300.79
300.552
313.777
313.21
312.657
312.118
311.594
311.084
310.587
310.104
309.633
309.174
308.727
308.291
307.867
307.452
307.048
306.653
306.267
305.891
305.523
305.164
304.813
304.47
304.135
303.808
303.487
303.174
302.868
302.569
302.276
301.99
301.71
301.437
301.169
300.907
300.652
300.406
313.776
313.208
312.654
312.114
311.588
311.076
310.578
310.092
309.619
309.159
308.709
308.271
307.844
307.427
307.02
306.623
306.234
305.855
305.485
305.123
304.769
304.423
304.085
303.754
303.431
303.115
302.805
302.502
302.206
301.917
301.633
301.356
301.084
300.818
300.559
300.31
313.775
313.206
312.651
312.11
311.584
311.07
310.57
310.083
309.608
309.146
308.694
308.254
307.825
307.406
306.997
306.597
306.207
305.826
305.453
305.089
304.733
304.385
304.044
303.711
303.385
303.067
302.755
302.45
302.152
301.859
301.574
301.294
301.02
300.752
300.49
300.238
313.774
313.205
312.649
312.107
311.58
311.065
310.564
310.075
309.599
309.135
308.682
308.24
307.809
307.388
306.977
306.576
306.184
305.801
305.426
305.06
304.702
304.353
304.01
303.676
303.348
303.028
302.714
302.407
302.107
301.813
301.526
301.244
300.969
300.699
300.436
300.182
313.774
313.204
312.647
312.105
311.577
311.061
310.559
310.069
309.592
309.126
308.672
308.229
307.796
307.374
306.962
306.559
306.165
305.78
305.404
305.037
304.678
304.326
303.982
303.646
303.317
302.995
302.68
302.372
302.071
301.776
301.487
301.204
300.927
300.656
300.392
300.137
313.773
313.203
312.646
312.103
311.574
311.058
310.555
310.064
309.586
309.119
308.664
308.22
307.786
307.362
306.949
306.545
306.15
305.764
305.387
305.018
304.657
304.305
303.96
303.622
303.292
302.969
302.653
302.344
302.041
301.745
301.455
301.171
300.893
300.621
300.356
300.101
313.773
313.202
312.645
312.102
311.572
311.056
310.552
310.061
309.582
309.114
308.658
308.213
307.778
307.354
306.939
306.534
306.138
305.751
305.373
305.003
304.641
304.288
303.942
303.603
303.272
302.948
302.631
302.321
302.018
301.721
301.43
301.145
300.867
300.594
300.328
300.072
313.773
313.202
312.645
312.101
311.571
311.054
310.55
310.058
309.579
309.111
308.654
308.208
307.772
307.347
306.932
306.526
306.129
305.742
305.363
304.992
304.63
304.275
303.929
303.589
303.258
302.933
302.615
302.305
302
301.703
301.411
301.126
300.847
300.574
300.307
300.051
313.773
313.202
312.645
312.101
311.571
311.054
310.549
310.057
309.577
309.109
308.651
308.205
307.769
307.343
306.928
306.521
306.124
305.736
305.356
304.985
304.622
304.267
303.92
303.58
303.248
302.923
302.605
302.294
301.989
301.691
301.399
301.114
300.834
300.561
300.293
300.037
313.773
313.202
312.645
312.101
311.571
311.054
310.549
310.057
309.577
309.108
308.651
308.204
307.768
307.342
306.926
306.519
306.122
305.733
305.354
304.982
304.619
304.264
303.916
303.576
303.244
302.919
302.6
302.289
301.984
301.686
301.394
301.108
300.828
300.555
300.287
300.03
313.773
313.202
312.645
312.102
311.572
311.055
310.55
310.058
309.578
309.109
308.652
308.205
307.769
307.343
306.927
306.52
306.123
305.734
305.354
304.983
304.62
304.264
303.917
303.577
303.244
302.919
302.6
302.289
301.984
301.686
301.394
301.108
300.828
300.555
300.287
300.031
313.773
313.203
312.646
312.103
311.573
311.056
310.552
310.06
309.58
309.112
308.654
308.208
307.772
307.346
306.93
306.523
306.126
305.738
305.358
304.987
304.623
304.268
303.921
303.581
303.248
302.923
302.605
302.294
301.989
301.691
301.399
301.113
300.834
300.56
300.293
300.036
313.774
313.203
312.647
312.104
311.575
311.058
310.554
310.063
309.583
309.115
308.658
308.212
307.776
307.351
306.935
306.529
306.132
305.744
305.364
304.993
304.63
304.275
303.928
303.589
303.257
302.932
302.614
302.303
301.998
301.7
301.409
301.124
300.845
300.571
300.305
300.049
313.774
313.204
312.648
312.106
311.577
311.061
310.557
310.066
309.587
309.12
308.663
308.218
307.783
307.358
306.942
306.537
306.14
305.752
305.373
305.003
304.64
304.286
303.94
303.601
303.269
302.945
302.627
302.317
302.013
301.716
301.426
301.141
300.863
300.591
300.325
300.07
313.775
313.205
312.65
312.108
311.58
311.064
310.561
310.071
309.593
309.126
308.67
308.225
307.791
307.367
306.952
306.547
306.151
305.764
305.386
305.017
304.655
304.302
303.956
303.619
303.288
302.965
302.65
302.341
302.039
301.744
301.455
301.172
300.896
300.627
300.363
300.111
313.776
313.207
312.652
312.111
311.583
311.068
310.567
310.077
309.6
309.134
308.679
308.235
307.802
307.379
306.965
306.561
306.167
305.782
305.405
305.038
304.679
304.328
303.985
303.65
303.323
303.003
302.691
302.387
302.089
301.799
301.515
301.238
300.968
300.705
300.448
300.202
313.776
313.208
312.654
312.114
311.587
311.074
310.573
310.085
309.609
309.144
308.691
308.249
307.817
307.396
306.985
306.585
306.194
305.812
305.44
305.078
304.724
304.38
304.044
303.717
303.398
303.089
302.787
302.493
302.208
301.93
301.661
301.398
301.143
300.896
300.656
300.427
313.778
313.21
312.657
312.118
311.593
311.081
310.582
310.095
309.621
309.159
308.709
308.271
307.844
307.428
307.024
306.631
306.25
305.879
305.519
305.171
304.833
304.506
304.19
303.884
303.589
303.304
303.029
302.764
302.509
302.263
302.027
301.8
301.581
301.372
301.171
300.982
313.779
313.213
312.662
312.124
311.6
311.091
310.594
310.112
309.643
309.187
308.745
308.317
307.904
307.504
307.119
306.748
306.392
306.051
305.725
305.414
305.118
304.836
304.569
304.316
304.077
303.852
303.64
303.442
303.256
303.082
302.919
302.769
302.629
302.499
302.38
302.273
313.781
313.217
312.667
312.132
311.612
311.108
310.619
310.147
309.692
309.255
308.838
308.441
308.064
307.709
307.376
307.066
306.778
306.513
306.271
306.051
305.854
305.678
305.523
305.388
305.273
305.176
305.097
305.036
304.99
304.96
304.945
304.942
304.953
304.975
305.009
305.053
313.784
313.222
312.676
312.147
311.637
311.148
310.681
310.241
309.829
309.448
309.1
308.788
308.511
308.273
308.071
307.908
307.782
307.693
307.639
307.62
307.633
307.677
307.75
307.851
307.978
308.128
308.301
308.493
308.705
308.933
309.176
309.434
309.704
309.984
310.275
310.571
313.788
313.231
312.695
312.184
311.705
311.263
310.866
310.52
310.23
310.001
309.837
309.738
309.705
309.738
309.834
309.993
310.209
310.481
310.805
311.176
311.591
312.046
312.537
313.06
313.613
314.19
314.79
315.41
316.045
316.695
317.357
318.028
318.707
319.391
320.078
320.76
313.795
313.254
312.749
312.298
311.915
311.617
311.419
311.331
311.359
311.506
311.773
312.156
312.651
313.251
313.948
314.735
315.602
316.542
317.545
318.605
319.713
320.863
322.047
323.261
324.499
325.755
327.025
328.305
329.591
330.881
332.17
333.458
334.74
336.015
337.28
338.521
313.815
313.323
312.925
312.661
312.568
312.674
312.996
313.542
314.308
315.285
316.461
317.818
319.338
321.003
322.793
324.69
326.679
328.745
330.871
333.048
335.262
337.504
339.764
342.036
344.311
346.585
348.851
351.104
353.342
355.56
357.756
359.927
362.071
364.186
366.268
368.296
313.881
313.556
313.499
313.791
314.488
315.611
317.156
319.099
321.404
324.03
326.934
330.074
333.411
336.908
340.533
344.258
348.057
351.909
355.793
359.694
363.597
367.491
371.364
375.21
379.019
382.787
386.507
390.176
393.791
397.347
400.845
404.281
407.654
410.964
414.206
417.353
314.107
314.341
315.303
317.096
319.735
323.166
327.299
332.032
337.261
342.893
348.842
355.036
361.411
367.915
374.503
381.136
387.783
394.417
401.017
407.564
414.044
420.443
426.753
432.966
439.075
445.076
450.965
456.739
462.396
467.937
473.359
478.663
483.85
488.92
493.871
498.667
314.897
316.874
320.631
326.108
333.088
341.305
350.497
360.433
370.923
381.812
392.973
404.307
415.731
427.179
438.598
449.943
461.18
472.28
483.221
493.984
504.556
514.928
525.092
535.043
544.778
554.296
563.596
572.678
581.544
590.196
598.637
606.87
614.897
622.724
630.35
637.734
317.591
324.648
335.487
349.325
365.402
383.088
401.889
421.438
441.461
461.75
482.146
502.524
522.787
542.857
562.673
582.185
601.355
620.154
638.56
656.56
674.145
691.312
708.06
724.392
740.311
755.822
770.931
785.646
799.973
813.92
827.497
840.711
853.571
866.088
878.266
890.063
326.572
347.703
375.663
408.034
443.251
480.261
518.331
556.958
595.781
634.532
673.001
711.026
748.478
785.254
821.276
856.48
890.826
924.292
956.868
988.56
1019.38
1049.35
1078.48
1106.81
1134.34
1161.11
1187.14
1212.43
1237.02
1260.92
1284.16
1306.75
1328.71
1350.07
1370.84
1390.98
356.744
417.13
488.261
565.215
645.568
727.751
810.6
893.339
975.388
1056.29
1135.69
1213.3
1288.9
1362.34
1433.51
1502.36
1568.91
1633.24
1695.45
1755.66
1814.01
1870.59
1925.51
1978.82
2030.59
2080.89
2129.74
2177.21
2223.34
2268.17
2311.74
2354.1
2395.29
2435.35
2474.33
2512.22
468.785
656.195
859.576
1070.36
1284.67
1499.01
1710.32
1916.76
2116.92
2309.76
2494.59
2671.01
2838.85
2998.13
3149.17
3292.58
3429.33
3560.51
3687.13
3809.96
3929.5
4045.9
4159.17
4269.35
4376.47
4480.58
4581.73
4679.98
4775.39
4868.04
4957.98
5045.29
5130.05
5212.35
5292.25
5369.78
1044.61
1817.32
2591.03
3347.86
4075.06
4758.14
5388.45
5964.41
6486.48
6957.2
7380.3
7760.1
8100.96
8407.2
8683.23
8934.12
9165.63
9383.91
9594.77
9803.23
10012.7
10222.5
10431
10636.5
10837.8
11033.9
11224.2
11408
11585.3
11755.7
11919.3
12075.8
12225.5
12368.4
12504.7
12634.2
6296.64
10901.5
14553.7
17433.1
19657.4
21341.5
22600.7
23536
24227.9
24739.2
25117.7
25398.7
25608.2
25765.2
25884.1
25976
26051.5
26122.3
26202.3
26303.3
26430.4
26579.5
26744.9
26919.8
27100
27280.5
27459.3
27633
27800.9
27960.6
28112.5
28254.8
28388.6
28512.4
28627.8
28733.5
71643.3
74450.8
76458.3
77778
78563.8
78959
79075.5
78999.1
78792.8
78502.2
78159.2
77786.7
77400.2
77011
76626.5
76252
75891
75545.9
75217.6
74906.7
74613
74336.8
74076.5
73831.8
73601.2
73384.3
73179.8
72987.7
72806.4
72636.3
72475.6
72325
72182.8
72049.5
71923.5
71805.6
45809.9
9972
9976.43
9980.9
9985.41
9989.97
9994.59
9999.25
10004
10008.8
10013.7
10018.7
10023.8
10028.9
10034.2
10039.8
10045.7
10051.7
10057.7
10063.7
10069.7
10075.7
10081.7
10087.6
10093.4
10099.2
10104.9
10110.5
10116
10121.5
10126.8
10132.1
10137.3
10142.3
10147.3
10152.3
10157.2
10162.1
10166.9
10171.7
10176.4
10181
10185.6
10190.2
10194.8
10199.3
10203.8
10208.4
10212.9
10217.5
10222.2
10226.9
10231.7
10236.6
10241.6
10246.6
10251.8
10257
10262.4
10267.8
10273.4
10279
10284.6
10290.4
10296.2
10302.1
10308
10314
10320.1
10326.3
10332.5
10338.9
10345.3
10351.8
10358.5
10365.3
10372.2
10379.3
10386.5
10393.8
10401.3
10408.9
10416.5
10424.2
10432
10439.7
10447.4
10455
10462.6
10470.2
10477.7
10485.2
10492.5
10499.9
10507.2
10514.5
10521.7
10529
10536.4
10543.7
10551.2
10558.6
10566.1
10573.6
10581.5
10590
10599
10607.6
10615.7
10623.5
10630.7
10636.9
10642.8
10661.7
10703.7
10763.5
10836.4
10917.3
11000.5
11083.2
11164.1
11242.4
11318
11390.7
11460.8
11528.3
11593.5
11656.6
11717.8
11777.2
11835.1
11891.5
11946.7
12000.8
12053.9
12106
12157.3
12207.9
12257.8
12307.1
12355.8
12404.1
12451.9
12499.3
12546.2
12592.9
12639.2
12685.2
12731
12776.5
12821.7
12866.7
12911.5
12956.2
13000.6
13044.8
13088.9
13132.8
13176.5
13220
13263.4
13306.6
13349.7
13392.6
13435.4
13478.1
13520.7
13563.1
13605.4
13647.6
13689.6
13731.5
13773.3
13814.9
13856.4
13897.7
13938.9
13979.9
14020.7
14061.4
14101.9
14142.1
14182.2
14222.1
14261.8
14301.2
14340.5
14379.4
14418.1
14456.6
14494.7
14532.6
14570.2
14607.5
14644.5
14681.2
14717.5
14753.5
14789.3
14824.7
14859.8
14894.7
14929.3
14963.8
14998.2
15032.6
15066.7
15100.3
15133.4
15166
15198.1
15229.8
15260.9
15291.5
15321.5
15351
15380
15408.4
15436.1
15463.2
15489.7
15515.6
15540.7
15565
15588.5
15611.3
15633.3
15654.5
15674.9
15694.5
15713.3
15731.3
15748.4
15764.6
15780
15794.4
15808
15820.6
15832.4
15843.1
15852.9
15861.8
15869.7
15876.6
15882.5
15887.4
15891.3
15894.2
15896.1
15897
15896.8
15895.6
15893.4
15890.2
15886
15880.8
15874.5
15867.3
15859.1
15849.9
15839.7
15828.6
15816.6
15803.7
15789.9
15775.2
15759.7
15743.3
15726.2
15708.3
15689.7
15670.4
15650.4
15629.9
15608.7
15587
15564.8
15542.2
15519.2
15495.8
15472.1
15448.2
15424.1
15399.9
15375.6
15351.3
15327.1
15303.1
15279.2
15255.7
15232.4
15209.7
15187.4
15165.7
15144.7
15124.4
15104.9
15086.4
15068.8
15052.3
15036.9
15022.7
15009.8
14998.3
14988.1
14979.5
14972.3
14966.6
14962.5
14960.1
14959.2
14960
14962.8
14968.4
14976.4
14986.4
14998.3
15012.2
15028
15045.7
15065.2
15086.6
15109.7
15134.4
15160.7
15188.6
15217.8
15248.4
15280.2
15313.1
15347
15381.8
15417.3
15453.5
15490.3
15527.4
15564.9
15602.6
15640.4
15678.1
15715.8
15753.2
15790.2
15826.9
15863.1
15898.4
15933.4
15968.4
16002.6
16036.2
16069.3
16101.8
16134
16166.1
16198.4
16230.8
16263.8
16294.5
16318.6
16330.9
45809.9
7928.77
3229.75
2335.84
2146.19
2086.21
2028.45
1941.31
1815.02
1677.94
1613.93
1570.37
1537.93
1514.29
1497.17
1485.4
1478.08
1474.48
1473.99
1476.11
1480.44
1486.64
1494.43
1503.59
1513.9
1525.22
1537.41
1550.34
1563.92
1578.07
1592.71
1607.78
1623.24
1639.04
1655.19
1672.38
1699.06
1737.36
1783.38
1831.13
1879.32
1926.76
1972.98
2017.28
2059.05
2097.75
2132.92
2164.1
2190.91
2212.98
2229.99
2241.66
2247.78
2248.23
2242.98
2232.09
2215.73
2194.16
2167.87
2137.56
2103.85
2067.28
2028.28
1987.23
1944.76
1906.81
1880.99
1862.7
1846.44
1829.78
1813.01
1796.43
1780.35
1765.03
1750.77
1737.88
1726.68
1717.49
1710.58
1706.16
1704.34
1705.16
1708.59
1714.55
1722.81
1733.12
1745.12
1758.45
1772.85
1788.22
1804.53
1821.65
1837.94
1854.64
1872.62
1892.76
1919.02
1956.26
2001.42
2056.03
2123.95
2209.7
2315.76
2430.77
2546.52
2694.84
2983.13
3329.71
3699.95
4056.84
4374.91
4636.99
4828.92
4945.15
4991.1
4981.3
4926.09
4835.23
4723.68
4606.99
4494.52
4390.39
4296.26
4212.51
4138.81
4074.5
4018.75
3970.68
3929.45
3894.25
3864.35
3839.09
3817.89
3800.23
3785.66
3773.78
3764.25
3756.77
3751.09
3746.97
3744.21
3742.66
3742.18
3742.63
3743.92
3745.95
3748.63
3751.89
3755.67
3759.91
3764.56
3769.56
3774.88
3780.48
3786.31
3792.35
3798.55
3804.88
3811.3
3817.76
3824.27
3830.91
3837.66
3844.51
3851.42
3858.38
3865.39
3872.43
3879.48
3886.55
3893.61
3900.67
3907.7
3914.71
3921.69
3928.62
3935.51
3942.34
3949.11
3955.82
3962.46
3969.03
3975.51
3981.92
3988.24
3994.48
4000.64
4006.71
4012.69
4018.59
4024.41
4030.16
4035.84
4041.47
4047.05
4052.6
4058.14
4063.69
4069.3
4075
4080.81
4086.79
4092.93
4099.9
4108.05
4117.12
4126.1
4134.93
4143.63
4152.19
4160.61
4168.89
4177.01
4184.98
4192.8
4200.45
4207.92
4215.22
4222.33
4229.23
4235.91
4242.35
4248.49
4254.28
4259.64
4264.75
4269.65
4274.32
4278.76
4282.97
4286.95
4290.7
4294.21
4297.48
4300.5
4303.28
4305.8
4308.08
4310.1
4311.86
4313.37
4314.61
4315.59
4316.31
4316.75
4316.94
4316.85
4316.49
4315.86
4314.96
4313.78
4312.34
4310.62
4308.63
4306.37
4303.85
4301.05
4297.99
4294.67
4291.08
4287.24
4283.15
4278.8
4274.22
4269.38
4264.32
4259.02
4253.5
4247.77
4241.82
4235.68
4229.34
4222.81
4216.11
4209.25
4202.24
4195.08
4187.79
4180.39
4172.89
4165.3
4157.63
4149.91
4142.15
4134.37
4126.59
4118.82
4111.08
4103.4
4095.8
4088.29
4080.91
4073.67
4066.59
4059.7
4053.03
4046.59
4040.41
4034.51
4028.92
4023.66
4018.74
4014.2
4010.05
4006.31
4002.99
4000.12
3997.7
3995.77
3994.36
3993.54
3993.47
3994.59
3998.25
4005.41
4012.99
4020.83
4028.88
4037.12
4045.5
4053.97
4062.5
4071.03
4079.53
4087.97
4096.3
4104.5
4112.53
4120.34
4127.92
4135.24
4142.28
4149.02
4155.48
4161.63
4167.47
4172.98
4178.17
4183.03
4187.55
4191.8
4195.71
4199.29
4202.52
4205.29
4208.12
4213
4220.03
4226.95
4233.72
4240.34
4246.78
4253.03
4258.99
4264.46
4269.12
4272.44
4274.69
4278.91
4311.95
45809.9
7847.56
2713.51
1463.41
1078.38
927.621
833.427
744.228
669.737
633.054
614.198
602.463
593.423
585.399
577.805
570.533
563.656
557.292
551.55
546.521
542.267
538.826
536.216
534.435
533.469
533.293
533.876
535.184
537.18
539.828
543.092
546.936
551.328
556.238
561.65
567.61
574.429
582.455
592.203
606.714
624.673
645.15
667.748
692.03
717.539
743.81
770.379
796.765
822.483
847.051
869.998
890.878
909.275
924.82
937.201
946.169
951.548
953.233
951.193
945.477
936.197
923.513
907.612
888.713
867.083
843.248
817.901
791.574
767.042
745.644
725.756
707.007
689.568
673.677
659.676
647.971
638.99
633.111
630.624
631.693
636.343
644.484
655.945
670.526
688.027
708.249
730.938
755.756
783.055
813.198
846.647
884.622
930.266
983.705
1046.18
1118.36
1202.7
1301.71
1420.16
1571.25
1757.25
1950.23
2143.17
2322.54
2480.8
2620.19
2748.51
2862.81
2960.78
3038.37
3092.77
3122.57
3128.26
3111.77
3070.48
3007.03
2925.88
2833.79
2739.23
2649.17
2567.28
2494.74
2431.54
2377.06
2330.47
2290.84
2257.27
2228.93
2205.09
2185.09
2168.4
2154.53
2143.07
2133.68
2126.07
2119.99
2115.23
2111.6
2108.97
2107.19
2106.15
2105.75
2105.93
2106.6
2107.71
2109.2
2111.03
2113.15
2115.53
2118.15
2120.96
2123.95
2127.09
2130.37
2133.76
2137.24
2140.81
2144.44
2148.12
2151.86
2155.63
2159.44
2163.29
2167.15
2171.03
2174.92
2178.81
2182.7
2186.57
2190.43
2194.27
2198.08
2201.87
2205.62
2209.34
2213.02
2216.66
2220.26
2223.82
2227.33
2230.79
2234.2
2237.56
2240.88
2244.15
2247.38
2250.56
2253.69
2256.79
2259.86
2262.9
2265.91
2268.91
2271.89
2274.89
2277.89
2280.93
2284.01
2287.16
2290.39
2293.71
2297.33
2301.43
2305.65
2309.94
2314.23
2318.44
2322.56
2326.59
2330.53
2334.39
2338.14
2341.81
2345.37
2348.84
2352.2
2355.46
2358.61
2361.65
2364.57
2367.37
2370.04
2372.58
2374.98
2377.25
2379.41
2381.45
2383.37
2385.17
2386.86
2388.43
2389.88
2391.21
2392.41
2393.5
2394.45
2395.29
2395.99
2396.57
2397.02
2397.34
2397.53
2397.59
2397.52
2397.32
2396.99
2396.53
2395.94
2395.21
2394.35
2393.36
2392.24
2390.99
2389.61
2388.1
2386.46
2384.7
2382.81
2380.79
2378.66
2376.4
2374.03
2371.54
2368.94
2366.23
2363.41
2360.49
2357.47
2354.36
2351.16
2347.87
2344.5
2341.05
2337.54
2333.96
2330.32
2326.63
2322.9
2319.14
2315.34
2311.53
2307.7
2303.88
2300.06
2296.26
2292.48
2288.75
2285.06
2281.43
2277.87
2274.4
2271.01
2267.74
2264.58
2261.55
2258.66
2255.92
2253.35
2250.95
2248.73
2246.72
2244.9
2243.31
2241.94
2240.81
2239.92
2239.29
2238.93
2238.87
2239.14
2239.81
2241.01
2242.99
2246.4
2250.83
2255.46
2260.18
2264.94
2269.73
2274.52
2279.28
2283.99
2288.62
2293.15
2297.57
2301.85
2305.97
2309.93
2313.7
2317.27
2320.64
2323.8
2326.74
2329.47
2332
2334.31
2336.42
2338.32
2340.02
2341.53
2342.88
2344.05
2345.06
2345.88
2347.43
2349.49
2352.03
2354.94
2357.79
2360.56
2363.23
2365.77
2368.14
2370.25
2371.96
2373.12
2373.66
2374.4
2378.63
2401.28
45810
7874.04
2685.26
1330.77
853.642
658.233
566.454
525.261
509.28
502.491
496.831
489.215
479.252
467.523
454.785
441.682
428.696
416.16
404.302
393.268
383.142
373.966
365.749
358.478
352.125
346.652
342.016
338.172
335.072
332.673
330.93
329.803
329.254
329.247
329.754
330.756
332.259
334.299
336.974
340.585
345.747
352.388
360.442
369.827
380.444
392.168
404.857
418.335
432.403
446.832
461.371
475.747
489.674
502.858
515.008
525.847
535.117
542.593
548.087
551.456
552.606
551.487
548.1
542.495
534.774
525.108
513.735
500.963
487.278
473.329
460.507
449.202
439.415
431.243
425.119
421.426
420.465
422.443
427.472
435.601
446.841
461.203
478.717
499.516
523.794
551.824
584.051
621.253
663.942
713.056
769.217
833.648
908.659
997.859
1109.38
1231.57
1365.82
1508.68
1652.16
1788.38
1911.18
2014.62
2098.21
2163.99
2214.79
2254.08
2284.51
2306.01
2317.47
2317.68
2305.63
2280.83
2243.25
2193.65
2134.17
2068.66
2001.37
1936.07
1875.52
1821.19
1773.51
1732.3
1697.05
1667.12
1641.86
1620.64
1602.87
1588.05
1575.74
1565.58
1557.24
1550.45
1544.99
1540.66
1537.3
1534.78
1532.98
1531.8
1531.16
1530.98
1531.21
1531.79
1532.69
1533.85
1535.25
1536.85
1538.63
1540.58
1542.66
1544.85
1547.16
1549.55
1552.02
1554.55
1557.14
1559.77
1562.44
1565.14
1567.87
1570.61
1573.37
1576.14
1578.91
1581.68
1584.45
1587.22
1589.97
1592.7
1595.42
1598.12
1600.8
1603.45
1606.08
1608.67
1611.24
1613.78
1616.28
1618.76
1621.2
1623.61
1625.98
1628.32
1630.63
1632.91
1635.16
1637.38
1639.58
1641.75
1643.9
1646.04
1648.16
1650.27
1652.38
1654.5
1656.62
1658.76
1660.92
1663.11
1665.35
1667.64
1670.11
1672.71
1675.35
1677.99
1680.6
1683.16
1685.66
1688.09
1690.47
1692.77
1695.02
1697.19
1699.3
1701.34
1703.31
1705.22
1707.04
1708.8
1710.48
1712.09
1713.62
1715.07
1716.44
1717.73
1718.95
1720.09
1721.15
1722.14
1723.05
1723.89
1724.65
1725.33
1725.93
1726.46
1726.9
1727.27
1727.55
1727.75
1727.87
1727.91
1727.87
1727.74
1727.53
1727.24
1726.87
1726.41
1725.87
1725.24
1724.53
1723.74
1722.87
1721.92
1720.88
1719.76
1718.57
1717.29
1715.94
1714.51
1713.01
1711.44
1709.79
1708.07
1706.29
1704.44
1702.53
1700.56
1698.53
1696.45
1694.32
1692.14
1689.92
1687.65
1685.36
1683.03
1680.67
1678.3
1675.9
1673.5
1671.09
1668.69
1666.29
1663.9
1661.53
1659.2
1656.89
1654.63
1652.41
1650.25
1648.16
1646.14
1644.19
1642.33
1640.57
1638.91
1637.36
1635.92
1634.61
1633.44
1632.4
1631.5
1630.76
1630.17
1629.74
1629.49
1629.41
1629.51
1629.8
1630.3
1631.03
1632.01
1633.3
1634.97
1637.14
1640.08
1643.39
1646.8
1650.23
1653.67
1657.1
1660.49
1663.83
1667.1
1670.28
1673.37
1676.35
1679.2
1681.92
1684.5
1686.94
1689.22
1691.34
1693.3
1695.1
1696.75
1698.25
1699.59
1700.79
1701.85
1702.78
1703.59
1704.29
1704.87
1705.45
1706.37
1707.56
1708.94
1710.46
1712.05
1713.61
1715.09
1716.49
1717.77
1718.9
1719.82
1720.44
1720.72
1720.77
1721.41
1725.22
1740.77
45810
7898.53
2716.42
1348.41
858.741
665.955
592.366
565.032
551.674
538.777
522.254
502.396
480.894
459.077
437.852
417.691
398.82
381.34
365.285
350.642
337.368
325.397
314.652
305.053
296.518
288.967
282.323
276.517
271.483
267.162
263.501
260.453
257.973
256.024
254.573
253.591
253.06
252.972
253.339
254.219
255.743
258.072
261.205
265.142
269.872
275.374
281.614
288.543
296.095
304.185
312.711
321.55
330.558
339.578
348.436
356.951
364.937
372.211
378.6
383.948
388.122
391.021
392.579
392.772
391.624
389.216
385.692
381.271
376.264
371.087
366.278
362.395
360.007
359.619
361.43
365.635
372.392
381.829
394.06
409.23
427.541
449.268
474.739
504.362
538.721
578.497
624.174
676.906
738.433
812.687
897.498
992.447
1098.35
1213.66
1332.21
1445.09
1547.49
1636.52
1709.46
1766.28
1808.87
1839.38
1860.34