/*--------------------------------*- C++ -*----------------------------------*\
| =========                 |                                                 |
| \\      /  F ield         | OpenFOAM: The Open Source CFD Toolbox           |
|  \\    /   O peration     | Version:  2.4.0                                 |
|   \\  /    A nd           | Web:      www.OpenFOAM.org                      |
|    \\/     M anipulation  |                                                 |
\*---------------------------------------------------------------------------*/
FoamFile
{
    version     2.0;
    format      ascii;
    class       volScalarField;
    location    "0.07";
    object      p;
}
// * * * * * * * * * * * * * * * * * * * * * * * * * * * * * * * * * * * * * //

dimensions      [0 2 -2 0 0 0 0];

internalField   nonuniform List<scalar> 
2320
(
4.26544
4.265
4.26548
4.26597
4.2641
4.26337
4.26473
4.26396
4.26104
4.25968
4.25904
4.25712
4.25242
4.24857
4.24151
4.23747
4.22263
4.21781
4.18688
4.17512
4.26546
4.26501
4.2655
4.266
4.26413
4.26341
4.26478
4.26403
4.26113
4.2598
4.25918
4.25733
4.25264
4.24896
4.24182
4.23827
4.22295
4.21966
4.18719
4.17892
4.26548
4.26504
4.26553
4.26604
4.26419
4.26349
4.26488
4.26416
4.26131
4.26005
4.25949
4.25776
4.2531
4.24973
4.24247
4.23975
4.22367
4.22294
4.18801
4.18573
4.26552
4.26509
4.26558
4.26611
4.26427
4.2636
4.26502
4.26436
4.26157
4.2604
4.25994
4.25838
4.25382
4.25081
4.24351
4.24169
4.22494
4.22697
4.18965
4.19424
4.26557
4.26515
4.26565
4.26619
4.26438
4.26375
4.26522
4.26462
4.26192
4.26086
4.26055
4.25918
4.25484
4.25217
4.24506
4.24382
4.22696
4.23099
4.19238
4.20298
4.26563
4.26522
4.26573
4.2663
4.26451
4.26393
4.26545
4.26493
4.26234
4.26141
4.2613
4.26013
4.25617
4.25372
4.24725
4.24591
4.22999
4.23429
4.19639
4.21049
4.2657
4.2653
4.26582
4.26642
4.26465
4.26413
4.26571
4.26528
4.26283
4.26203
4.26221
4.26119
4.25788
4.2554
4.25029
4.2478
4.2344
4.23627
4.20185
4.21573
4.26578
4.26539
4.26593
4.26655
4.26483
4.26436
4.26602
4.26568
4.26338
4.26271
4.26325
4.26229
4.25996
4.25714
4.25449
4.24955
4.24084
4.23675
4.20906
4.21735
4.26584
4.26549
4.26601
4.2667
4.26496
4.26462
4.26631
4.2661
4.26399
4.26342
4.26441
4.26336
4.26236
4.25878
4.26012
4.25136
4.25038
4.23641
4.21893
4.21423
4.26595
4.26559
4.26618
4.26685
4.26525
4.26486
4.26673
4.26655
4.26463
4.26421
4.26565
4.26439
4.26505
4.26
4.26747
4.25248
4.26518
4.23609
4.23552
4.20739
4.266
4.26571
4.26616
4.26702
4.26522
4.26516
4.26691
4.267
4.26529
4.2649
4.26704
4.26489
4.26788
4.26059
4.27525
4.25314
4.28353
4.23646
4.26141
4.19917
4.26614
4.26582
4.2665
4.26718
4.26576
4.26537
4.26756
4.26741
4.26603
4.26576
4.26834
4.26642
4.27068
4.26066
4.28228
4.25325
4.30162
4.24044
4.29294
4.18954
4.26614
4.26594
4.26643
4.26735
4.26551
4.26573
4.26745
4.26791
4.2666
4.2665
4.26977
4.26686
4.27337
4.26022
4.28745
4.25235
4.31687
4.24769
4.31923
4.18485
4.26632
4.26601
4.26675
4.26743
4.26618
4.26578
4.26846
4.26803
4.26753
4.26723
4.27094
4.26847
4.27551
4.26092
4.29161
4.25056
4.32865
4.25495
4.33824
4.19869
4.26628
4.26614
4.26662
4.26766
4.26581
4.26626
4.26793
4.26876
4.26774
4.26835
4.27223
4.26956
4.27837
4.26278
4.29632
4.2526
4.33587
4.25886
4.34894
4.23378
4.26647
4.26614
4.26696
4.2676
4.26659
4.266
4.26924
4.26845
4.26902
4.26873
4.27328
4.27188
4.2808
4.26846
4.3025
4.2577
4.34155
4.25719
4.3536
4.26671
4.2664
4.26629
4.2668
4.26787
4.26612
4.2666
4.26846
4.26943
4.26869
4.27005
4.27396
4.2739
4.28333
4.27259
4.30874
4.26287
4.34447
4.25452
4.36418
4.29194
4.26657
4.26624
4.26711
4.26771
4.26685
4.26616
4.26969
4.26875
4.26975
4.2702
4.27482
4.27566
4.2846
4.27716
4.31194
4.26526
4.34853
4.25777
4.40461
4.35635
4.26651
4.26634
4.26698
4.26792
4.26651
4.26659
4.26919
4.26976
4.2694
4.27062
4.27412
4.27582
4.28366
4.27818
4.31343
4.26606
4.35258
4.2713
4.4624
4.44122
4.26657
4.2663
4.26711
4.26781
4.26681
4.26636
4.26965
4.26918
4.26981
4.2709
4.27434
4.2766
4.2842
4.27976
4.3147
4.26793
4.3579
4.28413
4.49025
4.48766
4.12039
4.08064
4.0107
3.9317
3.82786
3.70517
3.57104
3.43097
4.11971
4.08581
4.01
3.93586
3.82911
3.70469
3.57038
3.42968
4.11863
4.09534
4.00785
3.94634
3.82992
3.70393
3.56933
3.42682
4.11757
4.10753
4.00461
3.96465
3.8271
3.70367
3.56805
3.42182
4.11705
4.12012
4.00106
3.98906
3.81787
3.70658
3.56634
3.4136
4.11657
4.13073
3.99803
4.0158
3.80109
3.717
3.5615
3.40188
4.11825
4.13755
3.99587
4.03901
3.77795
3.73632
3.54863
3.38725
4.12204
4.13972
3.99452
4.05012
3.75015
3.76345
3.52458
3.37286
4.12784
4.13726
3.9944
4.04059
3.71989
3.79456
3.48807
3.36269
4.13447
4.12974
3.99478
4.01155
3.69114
3.8234
3.44247
3.35846
4.14185
4.11844
3.98584
3.97356
3.67269
3.84178
3.39525
3.35812
4.15727
4.10808
3.95623
3.93298
3.67283
3.83699
3.36085
3.35543
4.18427
4.10897
3.91525
3.88989
3.68295
3.78567
3.33979
3.34595
4.22739
4.13401
3.92532
3.85918
3.70333
3.67247
3.30421
3.33327
4.26499
4.17962
4.03157
3.91016
3.75266
3.53947
3.21998
3.31829
4.31524
4.24438
4.19201
4.01596
3.83202
3.51878
3.1176
3.26448
4.3937
4.36533
4.3027
4.09607
3.89799
3.59977
3.10975
3.09317
4.60076
4.47708
4.37402
4.14223
3.96158
3.64198
3.20125
2.80337
4.71197
4.50911
4.43332
4.13168
4.0339
3.54129
3.36241
2.36721
4.82871
4.54437
4.46553
4.19246
4.10966
3.5441
3.55132
1.80561
3.2879
3.14729
3.0131
2.89277
2.78414
2.6905
2.60562
2.53371
2.46764
2.4062
2.35123
2.29236
2.24488
2.18674
2.14508
2.08735
2.04807
1.98167
1.93458
1.86465
1.8113
1.74633
1.64335
1.59769
1.38732
1.40169
0.989573
1.07399
3.28548
3.14424
3.00978
2.88953
2.78067
2.68791
2.6027
2.53183
2.46416
2.4044
2.34805
2.29283
2.24548
2.18898
2.14342
2.08724
2.03842
1.98222
1.93204
1.87315
1.80881
1.7466
1.66064
1.58098
1.44018
1.37276
1.12933
0.840589
3.28057
3.13805
3.00327
2.88249
2.77408
2.68145
2.59877
2.52681
2.46172
2.4001
2.34809
2.29105
2.24689
2.18851
2.14509
2.08603
2.04252
1.98168
1.939
1.86939
1.8201
1.74647
1.66579
1.60692
1.45749
1.39132
1.20134
0.993798
3.27285
3.12887
2.99296
2.87199
2.76383
2.6745
2.59179
2.52309
2.45591
2.3998
2.34379
2.29219
2.24214
2.19068
2.14299
2.09046
2.04035
1.98744
1.93305
1.87719
1.81436
1.75437
1.68389
1.60181
1.51956
1.39826
1.25157
1.0959
3.26222
3.11623
2.97883
2.85682
2.75054
2.66182
2.58422
2.51476
2.45211
2.39426
2.34393
2.28896
2.24164
2.18865
2.1427
2.09002
2.04233
1.98866
1.93846
1.87764
1.82852
1.75673
1.6931
1.61866
1.52084
1.4359
1.3888
1.21465
3.24874
3.09979
2.9592
2.83741
2.73385
2.65063
2.57324
2.50648
2.44238
2.39026
2.33745
2.28785
2.23984
2.18869
2.14324
2.09089
2.04426
1.99055
1.94062
1.88488
1.82362
1.76951
1.70598
1.63255
1.57857
1.48045
1.3928
1.32725
3.23271
3.07795
2.93349
2.8128
2.71535
2.63502
2.56121
2.4947
2.43617
2.38405
2.33512
2.28573
2.23755
2.19031
2.14184
2.09515
2.04421
1.99516
1.94458
1.88903
1.84517
1.77285
1.72575
1.65508
1.58928
1.51845
1.4832
1.38362
3.21356
3.04709
2.89991
2.78446
2.69365
2.61804
2.54573
2.48189
2.42419
2.37752
2.32987
2.28199
2.23584
2.18624
2.14282
2.09232
2.04745
1.99716
1.94667
1.89654
1.83815
1.79253
1.72991
1.67339
1.62551
1.55883
1.51572
1.48578
3.18792
3.00438
2.85743
2.75159
2.67079
2.59738
2.52758
2.46717
2.41566
2.37076
2.32563
2.28003
2.2334
2.18948
2.14281
2.09797
2.04959
2.00105
1.95514
1.90076
1.85911
1.79548
1.75192
1.6955
1.64076
1.60508
1.56369
1.53309
3.14497
2.9478
2.80805
2.71466
2.63918
2.57322
2.50658
2.44185
2.40017
2.36124
2.31949
2.2746
2.2314
2.18519
2.14332
2.09615
2.05089
2.00449
1.95325
1.90878
1.85452
1.81135
1.76103
1.71214
1.67589
1.62574
1.60296
1.58993
3.08045
2.87668
2.75239
2.67309
2.60855
2.55302
2.49149
2.4483
2.39529
2.35576
2.31526
2.2728
2.22942
2.18782
2.14456
2.10054
2.05598
2.00811
1.96473
1.91393
1.871
1.81932
1.77522
1.73376
1.6908
1.66615
1.64032
1.62732
2.99371
2.79524
2.69324
2.62399
2.56942
2.50361
2.45007
2.39935
2.37263
2.34278
2.30722
2.26649
2.22656
2.18478
2.14411
2.10045
2.05508
2.01167
1.96304
1.91955
1.87286
1.82825
1.78875
1.74704
1.71667
1.68642
1.67065
1.67026
2.8824
2.71481
2.63145
2.58306
2.53773
2.51002
2.45673
2.41225
2.37039
2.33844
2.30392
2.26509
2.22588
2.18704
2.14692
2.10431
2.06163
2.01587
1.97237
1.92638
1.88191
1.84139
1.79894
1.76471
1.73313
1.71157
1.69952
1.69788
2.74658
2.63994
2.56376
2.49989
2.47476
2.43929
2.39978
2.36662
2.34678
2.32537
2.29518
2.25871
2.22232
2.1849
2.14616
2.10518
2.06155
2.01896
1.97379
1.92978
1.88829
1.84495
1.81036
1.77685
1.74957
1.7316
1.72165
1.72582
2.59281
2.55788
2.51772
2.49141
2.4656
2.44014
2.41011
2.37854
2.34611
2.32236
2.29311
2.25807
2.22287
2.18735
2.14982
2.10923
2.06734
2.02365
1.98004
1.93701
1.89454
1.85717
1.81929
1.78815
1.76459
1.74727
1.74174
1.74626
2.42234
2.456
2.3708
2.34603
2.37387
2.385
2.36738
2.34057
2.32822
2.31251
2.2864
2.2536
2.22051
2.1868
2.15069
2.11163
2.06975
2.02695
1.98341
1.94002
1.89948
1.86013
1.8268
1.79829
1.77504
1.76181
1.75702
1.7625
2.19453
2.39923
2.34528
2.36487
2.39622
2.39058
2.35856
2.33368
2.3222
2.30945
2.28538
2.25332
2.22075
2.18809
2.15327
2.11501
2.0738
2.03091
1.98741
1.9448
1.9041
1.86675
1.83343
1.80553
1.78524
1.77221
1.7688
1.77615
1.69857
2.10017
2.06245
2.23259
2.34091
2.34739
2.32682
2.31277
2.31024
2.30225
2.28069
2.25152
2.22132
2.19128
2.15828
2.12084
2.07929
2.03562
1.99148
1.94825
1.90762
1.87029
1.83782
1.81153
1.79167
1.78016
1.77806
1.7849
1.54766
2.13536
1.96005
2.24603
2.36818
2.34952
2.3095
2.29448
2.29897
2.29762
2.27962
2.25199
2.22259
2.19275
2.1599
2.12256
2.08116
2.03751
1.99334
1.95032
1.90986
1.87311
1.84147
1.81525
1.79637
1.78558
1.78362
1.79126
0.238889
1.93674
1.866
2.22883
2.32259
2.32668
2.3079
2.2984
2.30176
2.30081
2.28481
2.25868
2.22963
2.19935
2.16571
2.12741
2.08499
2.04037
1.99552
1.95198
1.91132
1.87453
1.84262
1.81715
1.79863
1.78811
1.78657
1.79417
-0.375123
-1.37926
-0.185256
0.494049
0.849722
1.19328
1.65597
1.66711
0.240794
-0.370877
0.352586
0.900661
1.15741
1.41388
1.78906
1.89978
0.799391
0.338605
0.6422
1.11991
1.36953
1.62346
2.01418
2.11151
1.01172
0.769966
0.963936
1.31924
1.506
1.73658
2.10612
2.25567
1.15202
1.0844
1.15872
1.39112
1.58007
1.76219
2.12132
2.28498
1.29153
1.20896
1.34595
1.57094
1.69138
1.80897
2.00264
2.21063
1.37091
1.41238
1.48024
1.55323
1.78512
1.99295
2.11754
2.18353
1.46545
1.46364
1.56365
1.73403
1.90699
2.02233
2.10696
2.15105
1.52911
1.57598
1.64951
1.73027
1.87065
1.9776
2.06143
2.06298
1.58782
1.62749
1.70396
1.81586
1.97591
2.09888
2.1175
2.00311
1.64725
1.68156
1.74343
1.82738
1.90941
1.97652
2.04735
2.08643
1.67917
1.71835
1.77839
1.84868
1.94764
2.0408
2.08877
2.06627
1.71822
1.75099
1.79951
1.869
1.93366
1.9677
2.00495
2.03918
1.74224
1.77428
1.8224
1.87609
1.93629
2.00102
2.04365
2.05685
1.76354
1.79479
1.8361
1.88528
1.93813
1.96854
1.98762
2.00017
1.78102
1.80902
1.84787
1.89243
1.93546
1.97548
2.00808
2.0207
1.79285
1.82072
1.8571
1.89591
1.9371
1.96728
1.98101
1.98569
1.80244
1.82911
1.86254
1.90025
1.93559
1.96373
1.98532
1.99206
1.80836
1.83407
1.867
1.90169
1.93535
1.96229
1.97702
1.97888
1.81124
1.83685
1.86862
1.90283
1.93541
1.96053
1.97623
1.97932
2.13897
2.49267
2.53636
2.39316
2.1948
1.9093
1.69179
1.58743
1.52084
1.43448
1.32559
1.20323
1.06162
0.920542
0.75912
0.608584
0.43029
0.28263
0.0599819
-0.117522
2.41118
2.50548
2.49418
2.31338
2.1263
1.88988
1.70189
1.59911
1.52166
1.42953
1.31716
1.19468
1.05489
0.915382
0.756179
0.604872
0.432417
0.278117
0.109669
-0.0460295
2.38639
2.47187
2.45136
2.27323
2.10965
1.89588
1.70984
1.60144
1.51926
1.42557
1.31462
1.19301
1.05288
0.913133
0.755942
0.604711
0.435207
0.281909
0.12869
-0.0301477
2.47414
2.4188
2.38532
2.2117
2.05865
1.87142
1.7018
1.59832
1.51645
1.42102
1.30859
1.18583
1.04818
0.908988
0.755065
0.601519
0.439443
0.284928
0.144135
-0.000417077
2.38817
2.36664
2.32752
2.17368
2.03802
1.87451
1.71209
1.6044
1.5154
1.41652
1.30433
1.18264
1.04578
0.906029
0.755228
0.600795
0.444304
0.290161
0.158228
0.0175045
2.3825
2.32534
2.27406
2.13434
2.00803
1.85814
1.70159
1.59487
1.50931
1.41089
1.29917
1.17674
1.04204
0.902567
0.754896
0.600358
0.44784
0.295891
0.167071
0.0314633
2.27942
2.25472
2.20721
2.09281
1.9808
1.84731
1.70313
1.59791
1.50759
1.4066
1.29475
1.17263
1.03953
0.899894
0.75515
0.601083
0.452079
0.301837
0.174863
0.0422324
2.32167
2.29013
2.20506
2.08201
1.96797
1.84038
1.69917
1.59085
1.50119
1.40047
1.28952
1.16754
1.03615
0.897376
0.754712
0.602141
0.455103
0.307633
0.181131
0.049923
2.12164
2.14582
2.09514
2.01612
1.93061
1.82158
1.69115
1.58539
1.49632
1.39565
1.28506
1.16327
1.03354
0.895366
0.755071
0.603819
0.458614
0.313315
0.186425
0.0556774
2.01257
2.12603
2.13814
2.04237
1.94082
1.82395
1.69299
1.58472
1.49192
1.39019
1.28
1.1587
1.03035
0.893481
0.754381
0.605575
0.461439
0.31853
0.19085
0.0597661
2.0581
2.03473
2.04005
1.98503
1.90283
1.8017
1.68036
1.57506
1.48504
1.38441
1.2751
1.15452
1.02797
0.892056
0.75459
0.607674
0.464768
0.323383
0.194761
0.0628794
2.01932
1.9563
1.95568
1.93763
1.87887
1.78986
1.67788
1.5727
1.48058
1.37914
1.27011
1.15033
1.02459
0.890537
0.754118
0.609754
0.467414
0.327621
0.197899
0.0650481
2.07475
2.05768
2.01065
1.95192
1.87522
1.78162
1.67131
1.56728
1.47425
1.37336
1.26548
1.14637
1.02198
0.889466
0.754435
0.612086
0.470657
0.331699
0.200908
0.0667734
2.02312
1.96285
1.91139
1.87376
1.82684
1.75658
1.65919
1.5588
1.4682
1.3673
1.25967
1.14231
1.01891
0.888201
0.754165
0.61404
0.473452
0.335034
0.203042
0.0679535
2.0109
2.00433
1.97554
1.92065
1.8493
1.76261
1.66107
1.56095
1.46423
1.36274
1.25558
1.13873
1.01642
0.887462
0.75475
0.616492
0.476773
0.338608
0.205318
0.0688929
2.00237
1.9654
1.91204
1.85938
1.80374
1.73468
1.644
1.54642
1.45568
1.3554
1.24932
1.13452
1.01334
0.88615
0.75463
0.618189
0.479476
0.341386
0.207019
0.0695424
1.97909
1.96027
1.93107
1.8855
1.82203
1.74261
1.64897
1.55175
1.4542
1.3522
1.24604
1.13165
1.01139
0.885862
0.755653
0.620669
0.482771
0.344345
0.208274
0.0699531
1.98073
1.95504
1.9132
1.85683
1.79351
1.72069
1.6325
1.53681
1.44409
1.34381
1.23895
1.12677
1.00799
0.884294
0.755702
0.6223
0.48561
0.347544
0.210338
0.0702791
1.9686
1.94472
1.90844
1.86125
1.79967
1.72425
1.63621
1.54131
1.44381
1.34198
1.23696
1.12505
1.00692
0.884444
0.756889
0.624309
0.48775
0.349005
0.210438
0.070329
1.96834
1.94351
1.90499
1.85174
1.7858
1.70984
1.6235
1.52957
1.43347
1.33247
1.22873
1.11894
1.00299
0.882911
0.757687
0.627269
0.492147
0.353282
0.212525
0.0703572
0.00851573
0.00796029
0.00827301
0.0070048
0.00744239
0.00619672
0.00662021
0.00604144
0.0255525
0.0240348
0.0246314
0.0212364
0.0221085
0.018729
0.0197094
0.0180976
0.0427345
0.0402792
0.0409612
0.0355782
0.0366187
0.0312408
0.0326169
0.0300043
0.0601528
0.0567043
0.0573406
0.0499426
0.0510288
0.0436025
0.045343
0.0416679
0.0779169
0.0733701
0.0737986
0.0643103
0.0653121
0.0557305
0.0578198
0.0529894
0.0961572
0.0903368
0.0903394
0.0786438
0.0794216
0.0675175
0.0699588
0.0638543
0.115029
0.107683
0.106923
0.0929246
0.0932544
0.0788421
0.0816243
0.0741306
0.134728
0.125495
0.123466
0.107123
0.106651
0.0895503
0.0926309
0.0836917
0.15549
0.14386
0.139846
0.12122
0.119361
0.0994297
0.102735
0.0923951
0.177589
0.162875
0.155931
0.135194
0.131045
0.108245
0.111617
0.100146
0.201317
0.18264
0.171674
0.149001
0.14131
0.115811
0.118988
0.106822
0.22688
0.203247
0.187184
0.162366
0.149768
0.122145
0.124654
0.112302
0.254279
0.224757
0.202735
0.174387
0.156097
0.12753
0.128623
0.116507
0.283184
0.247236
0.21852
0.18319
0.160053
0.13223
0.131185
0.119439
0.312837
0.270914
0.234275
0.186651
0.161835
0.135873
0.132816
0.121171
0.341847
0.2958
0.248644
0.184524
0.16296
0.137256
0.133782
0.121762
0.36771
0.319619
0.257752
0.17987
0.166164
0.135061
0.133702
0.120895
0.386963
0.336465
0.25509
0.176013
0.171652
0.128879
0.131595
0.117607
0.397391
0.342618
0.237116
0.170898
0.174187
0.119496
0.126501
0.110699
0.400799
0.343491
0.212573
0.158383
0.167621
0.107319
0.11804
0.0997258
0.400685
0.343655
0.195918
0.135897
0.148708
0.0906931
0.105575
0.0852048
0.396056
0.336561
0.183297
0.103022
0.116152
0.0669563
0.0869505
0.0677587
0.385381
0.308329
0.155722
0.0567989
0.0714635
0.0357049
0.060451
0.0476077
0.285689
0.245447
0.0971315
0.00118069
0.0196443
-0.000982958
0.0281883
0.0250386
0.301965
0.146712
0.000150145
-0.0561448
-0.0372297
-0.0412321
-0.00532907
0.000763765
0.0171071
-0.0339773
-0.145109
-0.131221
-0.107806
-0.0848362
-0.0386028
-0.0236881
-0.0734959
-0.258288
-0.346721
-0.256093
-0.202977
-0.135578
-0.0715006
-0.0456421
-0.461606
-0.62509
-0.639161
-0.444462
-0.320732
-0.199696
-0.0988281
-0.0619083
-0.891556
-1.18802
-1.02547
-0.689355
-0.451099
-0.270896
-0.115779
-0.0689919
-1.14257
-1.62677
-1.49323
-0.969587
-0.585352
-0.329576
-0.122297
-0.061664
-1.77698
-2.33701
-1.96999
-1.22579
-0.70233
-0.363293
-0.112854
-0.0345834
-2.15693
-2.8303
-2.3729
-1.41855
-0.786358
-0.37151
-0.0746743
0.0138074
-2.44737
-3.22673
-2.83781
-1.6355
-0.828623
-0.343792
0.000155882
0.0865152
-2.72375
-3.64214
-3.29935
-1.77076
-0.798396
-0.264572
0.115413
0.19438
-2.75421
-3.78232
-3.43432
-1.71995
-0.685838
-0.133187
0.269208
0.34172
-2.58159
-3.7623
-3.3197
-1.57264
-0.519865
0.0289365
0.456486
0.524502
-2.17857
-3.28227
-3.04349
-1.37133
-0.27899
0.24497
0.672516
0.721539
-1.51485
-2.8355
-2.41687
-1.01131
0.0188253
0.524554
0.922226
0.893888
-0.80203
-1.54498
-1.28398
-0.508638
0.277095
0.798328
1.19092
1.02269
-0.47321
-2.25726
-0.557741
-0.0261499
0.519048
0.995661
1.44537
1.14712
4.86027
4.69474
4.52952
4.31144
4.22408
3.75936
3.77378
2.48907
4.89417
4.70987
4.63166
4.38915
4.30902
3.91899
3.94922
3.05999
4.87692
4.75091
4.67167
4.45403
4.39749
4.06409
4.08763
3.4566
4.88744
4.77731
4.70652
4.52984
4.47559
4.19794
4.20122
3.77424
4.87938
4.77182
4.75051
4.59062
4.53446
4.31225
4.28819
3.94951
4.88238
4.81038
4.77972
4.63723
4.5979
4.40444
4.375
4.15165
4.896
4.82599
4.80681
4.68752
4.64291
4.48786
4.45605
4.24825
4.9052
4.85107
4.83456
4.72945
4.69435
4.56148
4.5222
4.38099
4.93224
4.87638
4.86258
4.76892
4.73774
4.62343
4.59283
4.45281
4.95231
4.90037
4.89076
4.80955
4.77717
4.6815
4.6439
4.54394
4.98043
4.9302
4.91963
4.84608
4.8214
4.73438
4.70936
4.60423
5.0079
4.95919
4.95006
4.88353
4.85716
4.78237
4.75394
4.67194
5.03859
4.98954
4.98081
4.91992
4.89972
4.82911
4.80933
4.72503
5.06967
5.02134
5.01351
4.95523
4.93466
4.87235
4.84897
4.78162
5.1031
5.05324
5.0464
4.99123
4.97574
4.91404
4.89871
4.83044
5.13674
5.08649
5.08063
5.02607
5.01081
4.95439
4.93514
4.87865
5.17139
5.12056
5.11484
5.06173
5.05032
4.99335
4.98255
4.92243
5.20712
5.15478
5.15022
5.09669
5.08594
5.0319
5.01886
4.96526
5.24288
5.18991
5.18542
5.13209
5.12387
5.06956
5.06231
5.0053
5.27999
5.22487
5.22148
5.167
5.1598
5.10678
5.0989
5.04598
5.31701
5.26042
5.25733
5.20202
5.19648
5.14337
5.13838
5.08433
5.35521
5.29582
5.29362
5.23662
5.23218
5.17942
5.17484
5.12319
5.39343
5.33133
5.32976
5.27093
5.26779
5.21483
5.21174
5.1604
5.43213
5.36645
5.36599
5.30459
5.30266
5.24949
5.24716
5.19758
5.47028
5.40096
5.40196
5.33751
5.33694
5.28323
5.28192
5.23366
5.5076
5.43432
5.43755
5.36937
5.37027
5.31579
5.31536
5.2692
5.54401
5.46675
5.47256
5.40003
5.40245
5.34677
5.34722
5.30352
5.58106
5.49969
5.50752
5.4298
5.43344
5.37593
5.37698
5.3363
5.6206
5.53551
5.54343
5.45984
5.46378
5.40349
5.4045
5.36682
5.66434
5.57526
5.5812
5.4913
5.49405
5.42999
5.42976
5.39455
5.7148
5.61804
5.62185
5.52426
5.52458
5.4557
5.45241
5.41875
5.77426
5.66569
5.66602
5.55954
5.5566
5.48139
5.47239
5.43895
5.8448
5.71402
5.7228
5.59922
5.5918
5.50959
5.49201
5.45618
5.92372
5.7709
5.78316
5.64615
5.63315
5.54222
5.51497
5.47303
6.00841
5.833
5.84397
5.69704
5.67475
5.57729
5.54156
5.49099
6.10041
5.89727
5.9019
5.74709
5.71239
5.6105
5.56668
5.50709
6.20298
5.96416
5.9585
5.79923
5.74903
5.64283
5.58764
5.51945
6.32126
6.03735
6.01877
5.86057
5.79157
5.68102
5.60952
5.5267
6.4985
6.1482
6.09517
5.9403
5.84991
5.73723
5.65182
5.51135
6.78092
6.31885
6.18449
6.03296
5.9202
5.80804
5.71524
5.45375
)
;

boundaryField
{
    wall
    {
        type            zeroGradient;
    }
    inlet1
    {
        type            zeroGradient;
    }
    inlet2
    {
        type            zeroGradient;
    }
    outlet1
    {
        type            fixedValue;
        value           uniform 0;
    }
    outlet2
    {
        type            outletInlet;
        outletValue     uniform 0;
        value           uniform 0;
    }
    defaultFaces
    {
        type            empty;
    }
}


// ************************************************************************* //
