/*--------------------------------*- C++ -*----------------------------------*\
| =========                 |                                                 |
| \\      /  F ield         | OpenFOAM: The Open Source CFD Toolbox           |
|  \\    /   O peration     | Version:  2.4.0                                 |
|   \\  /    A nd           | Web:      www.OpenFOAM.org                      |
|    \\/     M anipulation  |                                                 |
\*---------------------------------------------------------------------------*/
FoamFile
{
    version     2.0;
    format      ascii;
    class       surfaceScalarField;
    location    "5";
    object      phi;
}
// * * * * * * * * * * * * * * * * * * * * * * * * * * * * * * * * * * * * * //

dimensions      [0 3 -1 0 0 0 0];

internalField   nonuniform List<scalar> 
19800
(
0.000183365
1.42319e-05
0.000190683
-2.92866e-06
0.000198519
-2.79246e-06
0.000208158
-8.57278e-06
0.000214324
-4.34988e-06
0.000218721
-2.84343e-06
0.000222127
-1.94083e-06
0.000222008
1.38342e-06
0.000219689
3.37372e-06
0.000217202
3.57544e-06
0.000215124
2.97726e-06
0.000213344
2.20592e-06
0.000212112
1.57386e-06
0.000211288
1.07315e-06
0.000210794
6.93016e-07
0.000210497
4.71687e-07
0.000210233
4.07136e-07
0.000209799
5.59898e-07
0.000208919
9.88349e-07
2.19521e-06
0.000206818
0.000185578
3.17908e-05
0.000188563
-6.54996e-07
0.000194206
-2.83889e-06
0.000202263
-1.53988e-05
0.000208281
-8.34828e-06
0.000213138
-6.00117e-06
0.000218322
-5.39149e-06
0.000219991
1.1531e-06
0.000218158
6.55122e-06
0.000215202
7.793e-06
0.000211905
7.32884e-06
0.000208362
6.23031e-06
0.000205016
5.34227e-06
0.000201856
4.50431e-06
0.00019896
3.83334e-06
0.000196344
3.27418e-06
0.000194067
2.85291e-06
0.000192132
2.63114e-06
0.000190557
2.68746e-06
3.08477e-06
0.00018977
0.000191639
4.72413e-05
0.000191706
3.32295e-06
0.000195049
-1.95337e-06
0.000200216
-1.90678e-05
0.00020491
-1.11256e-05
0.000208358
-7.81718e-06
0.000213967
-9.49943e-06
0.000217499
-1.15066e-06
0.000216782
8.29103e-06
0.000214513
1.10465e-05
0.000211586
1.10833e-05
0.000208305
9.91419e-06
0.00020519
8.79397e-06
0.000202262
7.66423e-06
0.000199585
6.71363e-06
0.000197148
5.88141e-06
0.000194951
5.19721e-06
0.000193041
4.6737e-06
0.000191495
4.34598e-06
4.16859e-06
0.000190515
0.000196476
6.39723e-05
0.000193733
1.15167e-05
0.000196461
2.90817e-07
0.000199316
-2.01566e-05
0.000202743
-1.22812e-05
0.000204418
-7.65637e-06
0.00020946
-1.26999e-05
0.00021434
-4.41336e-06
0.000214733
9.31063e-06
0.000213168
1.39068e-05
0.000210728
1.44595e-05
0.000207865
1.33036e-05
0.000205086
1.19355e-05
0.000202474
1.0556e-05
0.000200094
9.2979e-06
0.000197955
8.20519e-06
0.000196065
7.23066e-06
0.000194463
6.4103e-06
0.000193202
5.71789e-06
5.11369e-06
0.000192357
0.000200639
8.07634e-05
0.000195565
2.03892e-05
0.000199149
-1.0941e-07
0.000199373
-1.86089e-05
0.00020214
-1.30104e-05
0.000203217
-7.08767e-06
0.000207274
-1.52884e-05
0.000212623
-8.56289e-06
0.000214107
8.84016e-06
0.000213138
1.5738e-05
0.000211083
1.72091e-05
0.000208521
1.62303e-05
0.000205973
1.47769e-05
0.000203567
1.31639e-05
0.000201396
1.16521e-05
0.000199471
1.02755e-05
0.000197813
9.02755e-06
0.000196437
7.89907e-06
0.000195381
6.88462e-06
5.93426e-06
0.00019465
0.000205606
9.92546e-05
0.000198971
3.24787e-05
0.00020271
3.8187e-07
0.000200222
-1.38063e-05
0.000202412
-1.26272e-05
0.000202848
-5.55513e-06
0.000204778
-1.53539e-05
0.000209987
-1.18571e-05
0.000212964
7.35921e-06
0.000212826
1.71385e-05
0.000211309
1.95605e-05
0.000209156
1.88829e-05
0.000206901
1.73694e-05
0.00020474
1.55631e-05
0.000202794
1.37912e-05
0.0002011
1.21198e-05
0.000199679
1.05872e-05
0.000198532
9.15924e-06
0.000197665
7.85444e-06
6.63071e-06
0.000197058
0.000213378
0.000114476
0.000206365
4.24781e-05
0.000206647
2.47664e-06
0.000200799
-5.94484e-06
0.000202508
-1.22474e-05
0.000203084
-4.53829e-06
0.000202891
-1.38204e-05
0.000207753
-1.53442e-05
0.000212722
3.28061e-06
0.000213454
1.7234e-05
0.000212444
2.10669e-05
0.000210637
2.10545e-05
0.000208595
1.96287e-05
0.000206598
1.77615e-05
0.000204782
1.57507e-05
0.000203225
1.38226e-05
0.000201932
1.19927e-05
0.000200911
1.02973e-05
0.000200135
8.7171e-06
7.26855e-06
0.000199592
0.00022142
0.00012891
0.000213765
5.47932e-05
0.000210637
9.3405e-06
0.000202308
5.13512e-06
0.000202806
-9.86324e-06
0.000203121
-2.7405e-06
0.000200911
-9.64894e-06
0.000204587
-1.6919e-05
0.000210976
-1.50174e-06
0.000212857
1.654e-05
0.000212581
2.21083e-05
0.000211298
2.27971e-05
0.000209648
2.15956e-05
0.000207954
1.96737e-05
0.000206395
1.74866e-05
0.000205057
1.53053e-05
0.000203966
1.32128e-05
0.000203108
1.12533e-05
0.000202477
9.44796e-06
7.79785e-06
0.000202031
0.000229871
0.000139846
0.000221633
6.51088e-05
0.000215168
1.76141e-05
0.000204046
1.81648e-05
0.00020258
-6.26685e-06
0.000203613
-2.15263e-06
0.000201597
-6.39899e-06
0.000203532
-1.76162e-05
0.000209266
-6.29691e-06
0.000212036
1.44362e-05
0.000212445
2.21569e-05
0.000211716
2.38125e-05
0.00021053
2.30115e-05
0.000209223
2.11465e-05
0.000208002
1.8868e-05
0.000206953
1.64829e-05
0.000206107
1.41785e-05
0.000205457
1.20048e-05
0.000204992
1.00104e-05
8.20069e-06
0.000204668
0.000238003
0.000150349
0.000229131
7.78758e-05
0.000220216
2.99639e-05
0.0002063
3.50377e-05
0.000202037
1.18128e-06
0.000203379
-1.20609e-06
0.000201003
-1.8669e-06
0.000200821
-1.53292e-05
0.000205927
-9.71095e-06
0.00021008
1.14335e-05
0.000211481
2.14658e-05
0.000211545
2.42088e-05
0.000211002
2.38535e-05
0.000210238
2.21439e-05
0.000209465
1.98147e-05
0.000208798
1.73088e-05
0.000208269
1.48316e-05
0.000207885
1.24955e-05
0.000207624
1.03549e-05
8.45637e-06
0.000207473
0.000246076
0.000158117
0.00023655
8.89525e-05
0.000225038
4.30202e-05
0.000208783
5.31274e-05
0.000201912
1.00434e-05
0.00020364
-1.36117e-06
0.00020194
1.13872e-06
0.000199726
-1.20115e-05
0.000203722
-1.27889e-05
0.000209285
6.46287e-06
0.000211494
1.96605e-05
0.0002122
2.37809e-05
0.000212204
2.40727e-05
0.000211907
2.2625e-05
0.000211533
2.03555e-05
0.000211199
1.77908e-05
0.000210942
1.52106e-05
0.000210777
1.27598e-05
0.000210737
1.05397e-05
8.54443e-06
0.000210717
0.00025354
0.000166599
0.000242514
0.000103394
0.000228502
6.03598e-05
0.000212692
7.20613e-05
0.000203813
2.21094e-05
0.000203679
1.28597e-06
0.000202059
5.07592e-06
0.000198281
-6.18599e-06
0.000201156
-1.40221e-05
0.000208121
6.23597e-07
0.00021139
1.70743e-05
0.000212893
2.27437e-05
0.000213536
2.37465e-05
0.000213765
2.2642e-05
0.000213824
2.0502e-05
0.00021384
1.79461e-05
0.000213862
1.53165e-05
0.000213967
1.28107e-05
0.000214115
1.05172e-05
8.50296e-06
0.00021427
0.000260975
0.000173447
0.000247845
0.000117739
0.000230692
7.89054e-05
0.000215806
8.85964e-05
0.000205787
3.3842e-05
0.000204636
3.87998e-06
0.00020448
6.42027e-06
0.000201143
-1.87207e-06
0.000202013
-1.41485e-05
0.000208097
-4.90086e-06
0.000212126
1.34023e-05
0.000214303
2.0862e-05
0.000215511
2.27649e-05
0.000216218
2.21487e-05
0.00021667
2.02353e-05
0.000216998
1.77772e-05
0.000217288
1.51782e-05
0.000217605
1.26497e-05
0.000217968
1.03625e-05
8.313e-06
0.000218232
0.000268151
0.000181702
0.000251846
0.000137207
0.000230945
0.000103225
0.000218229
0.000104646
0.000207805
4.72481e-05
0.000205054
9.40741e-06
0.000205937
7.92463e-06
0.000203523
2.4255e-06
0.000202688
-1.18548e-05
0.000207631
-8.78448e-06
0.000212826
8.89976e-06
0.000215869
1.82781e-05
0.000217739
2.12438e-05
0.000218962
2.11899e-05
0.000219825
1.96034e-05
0.000220484
1.73094e-05
0.000221022
1.47794e-05
0.000221586
1.23098e-05
0.000222121
1.00501e-05
8.00585e-06
0.000222573
0.000275499
0.000188824
0.000254945
0.000158843
0.000228974
0.000130532
0.000218814
0.000116302
0.000209193
5.82406e-05
0.000206241
1.38042e-05
0.000209305
5.91988e-06
0.000207792
4.73965e-06
0.000204809
-8.27225e-06
0.000208151
-1.16313e-05
0.000214662
2.73769e-06
0.000218445
1.47866e-05
0.00022085
1.90882e-05
0.000222493
1.97752e-05
0.00022369
1.86147e-05
0.000224594
1.65716e-05
0.000225344
1.41958e-05
0.000226123
1.18418e-05
0.000226767
9.58338e-06
7.64645e-06
0.000227374
0.000282869
0.000197652
0.000257047
0.000187766
0.00022601
0.000165215
0.000219306
0.000126405
0.000212225
6.81479e-05
0.000208545
2.02614e-05
0.000211787
5.01999e-06
0.000211191
7.04784e-06
0.000207981
-3.79339e-06
0.000209809
-1.25206e-05
0.000216578
-3.35999e-06
0.000221238
1.05914e-05
0.000224252
1.6431e-05
0.000226351
1.79667e-05
0.00022789
1.73212e-05
0.000229054
1.5589e-05
0.00023007
1.34316e-05
0.000230942
1.11796e-05
0.000231832
9.07742e-06
7.12887e-06
0.000232425
0.000290634
0.000205394
0.000264776
0.000214556
0.000232916
0.000198021
0.000224144
0.000136184
0.000218384
7.48655e-05
0.000214595
2.50719e-05
0.000216882
3.66643e-06
0.000217114
7.41858e-06
0.000214791
-9.70649e-07
0.000214232
-1.15893e-05
0.000219019
-7.79651e-06
0.000224446
5.44212e-06
0.00022807
1.30738e-05
0.000230634
1.56417e-05
0.000232517
1.56473e-05
0.000233969
1.4345e-05
0.000235168
1.24492e-05
0.000236283
1.04036e-05
0.000237197
8.39074e-06
6.59617e-06
0.000237939
0.000298645
0.000214659
0.000277507
0.000238819
0.000249201
0.000229485
0.000234462
0.000153899
0.000226433
8.55314e-05
0.000220608
3.34058e-05
0.000220892
5.58051e-06
0.000221934
7.94211e-06
0.000220303
1.74347e-06
0.000218187
-8.6658e-06
0.000221353
-1.03558e-05
0.000227617
-3.55667e-07
0.000232027
9.01548e-06
0.000235143
1.28281e-05
0.000237445
1.35998e-05
0.000239185
1.28001e-05
0.000240635
1.12773e-05
0.000241889
9.46346e-06
0.000242924
7.62046e-06
5.97858e-06
0.000243706
0.000307066
0.000222596
0.000289592
0.000257107
0.000264924
0.000254593
0.000246847
0.000172411
0.00023653
9.64989e-05
0.000228454
4.22009e-05
0.000226982
7.74318e-06
0.000228761
6.65835e-06
0.000227381
3.49504e-06
0.000224994
-5.96079e-06
0.000225952
-1.10157e-05
0.000231276
-5.39738e-06
0.000236395
4.15875e-06
0.000240051
9.4191e-06
0.000242742
1.11192e-05
0.000244805
1.09571e-05
0.000246541
9.86192e-06
0.000247928
8.32684e-06
0.000249061
6.79349e-06
5.29198e-06
0.000249867
0.00031573
0.00023194
0.000300843
0.000275158
0.000279238
0.000278981
0.000260066
0.000194055
0.000247792
0.000111215
0.000237869
5.42796e-05
0.00023406
1.35249e-05
0.000235549
6.56699e-06
0.000234516
5.49582e-06
0.000232626
-3.37589e-06
0.000231781
-9.62964e-06
0.000235127
-8.31226e-06
0.000240616
-9.74822e-07
0.000244933
5.40144e-06
0.000248132
8.1566e-06
0.000250627
8.73567e-06
0.000252569
8.16505e-06
0.0002542
7.10308e-06
0.000255284
5.82221e-06
4.59352e-06
0.000256273
0.000324759
0.000239815
0.000311815
0.000288723
0.000292772
0.000298148
0.000273913
0.000213017
0.000260678
0.000124738
0.000250672
6.47123e-05
0.000244917
1.97371e-05
0.00024484
7.02407e-06
0.000243552
7.08323e-06
0.000241525
-1.07421e-06
0.000239959
-7.80367e-06
0.00024097
-9.05319e-06
0.000245209
-4.95364e-06
0.000250036
8.1223e-07
0.000253833
4.59627e-06
0.000256701
6.12506e-06
0.000258937
6.272e-06
0.000260589
5.70149e-06
0.000261887
4.77563e-06
3.72101e-06
0.000262896
0.000334043
0.000248957
0.000322603
0.000303331
0.000305705
0.000317501
0.000287723
0.000233039
0.000273795
0.000140782
0.00026312
7.72282e-05
0.000255322
2.92045e-05
0.000253782
9.83575e-06
0.00025244
9.30542e-06
0.000250393
1.60869e-06
0.000248861
-5.78519e-06
0.000248644
-8.43952e-06
0.000250884
-6.85434e-06
0.000254874
-2.88179e-06
0.000258792
9.1331e-07
0.000262059
3.14857e-06
0.000264677
3.99825e-06
0.000266716
3.93168e-06
0.000268296
3.38601e-06
2.65025e-06
0.000269545
0.000343669
0.000256489
0.000333438
0.000313922
0.000318427
0.000332362
0.000301859
0.000249264
0.000287942
0.000154786
0.000276916
8.84335e-05
0.000267546
3.88979e-05
0.000264544
1.31136e-05
0.000263037
1.10836e-05
0.000260753
4.13969e-06
0.000259053
-3.83384e-06
0.000258634
-7.769e-06
0.000259671
-7.63899e-06
0.000262085
-5.06589e-06
0.000265245
-2.01226e-06
0.000268442
2.92392e-07
0.000271179
1.51756e-06
0.000273457
1.94984e-06
0.000275203
1.78651e-06
1.46058e-06
0.000276578
0.000353568
0.000265244
0.000344386
0.000326215
0.000330922
0.000347947
0.00031557
0.000266344
0.000301645
0.000170517
0.000290037
0.000101631
0.000278944
5.14252e-05
0.000274572
1.86368e-05
0.000273418
1.3081e-05
0.000271081
7.07156e-06
0.000269253
-1.53986e-06
0.000268635
-6.78053e-06
0.000269297
-7.97118e-06
0.000271061
-6.57097e-06
0.000273563
-4.23024e-06
0.000276246
-2.1301e-06
0.000278884
-7.16337e-07
0.000280959
-3.32556e-08
0.000282813
2.28869e-07
1.62161e-07
0.000284125
0.000363797
0.000272297
0.000355505
0.000334593
0.000343563
0.000359533
0.000329544
0.000279966
0.000315891
0.000184063
0.000304313
0.000113289
0.00029285
6.30852e-05
0.000287066
2.46596e-05
0.000285578
1.48098e-05
0.000282946
9.9565e-06
0.000280689
9.62522e-07
0.000279623
-5.45667e-06
0.000279793
-7.90336e-06
0.000281012
-7.55148e-06
0.000282985
-5.92242e-06
0.000285297
-4.12501e-06
0.000287545
-2.7027e-06
0.000289537
-1.80015e-06
0.0002912
-1.30488e-06
-1.08244e-06
0.000292603
0.000374316
0.00028051
0.000366864
0.000344996
0.000356287
0.000371873
0.000342891
0.000294743
0.000328982
0.000199474
0.000317651
0.000126006
0.000307347
7.46362e-05
0.000300323
3.27033e-05
0.000297605
1.83362e-05
0.000294666
1.34754e-05
0.00029204
4.03723e-06
0.00029058
-3.63144e-06
0.000290371
-7.38033e-06
0.000291197
-8.12213e-06
0.000292782
-7.2367e-06
0.000294797
-5.78848e-06
0.000296804
-4.4505e-06
0.000298657
-3.44288e-06
0.000300249
-2.75511e-06
-2.3187e-06
0.000301623
0.000385167
0.000286928
0.000378486
0.000351396
0.000369562
0.000380126
0.000357384
0.000306326
0.00034331
0.000213342
0.000331668
0.000137637
0.000322036
8.44089e-05
0.000313933
4.09869e-05
0.000310019
2.24956e-05
0.00030682
1.69178e-05
0.00030391
7.20564e-06
0.00030212
-1.58951e-06
0.000301566
-6.59605e-06
0.000302049
-8.36529e-06
0.00030332
-8.22084e-06
0.000305043
-7.18653e-06
0.000306821
-5.98463e-06
0.000308537
-4.93282e-06
0.000310028
-4.11657e-06
-3.49826e-06
0.000311355
0.000396318
0.000294493
0.00039036
0.000359842
0.000382814
0.000389068
0.000371825
0.000318386
0.000357928
0.000228434
0.000345694
0.000151071
0.000335905
9.52597e-05
0.000326773
5.10338e-05
0.000321936
2.80824e-05
0.000318727
2.06977e-05
0.000315709
1.06509e-05
0.000313708
7.6973e-07
0.000312928
-5.52182e-06
0.000313167
-8.37313e-06
0.000314196
-8.96012e-06
0.000315717
-8.36567e-06
0.000317352
-7.36558e-06
0.000318935
-6.31779e-06
0.000320374
-5.40262e-06
-4.64002e-06
0.000321639
0.000407798
0.000300189
0.000402505
0.000364552
0.000396152
0.000394745
0.000386392
0.00032751
0.000373457
0.000241096
0.000361119
0.000163343
0.0003509
0.000105557
0.000340599
6.14907e-05
0.00033481
3.40993e-05
0.000331775
2.39754e-05
0.000328646
1.40342e-05
0.000326366
3.29633e-06
0.000325255
-4.18693e-06
0.000325188
-8.07642e-06
0.000325986
-9.42912e-06
0.00032723
-9.3576e-06
0.000328677
-8.54127e-06
0.000330124
-7.59003e-06
0.000331442
-6.58569e-06
-5.71823e-06
0.000332659
0.000419578
0.000306972
0.000414856
0.000371114
0.000409245
0.000401334
0.000400299
0.000337293
0.000388468
0.00025387
0.000376423
0.000176391
0.000365858
0.000117019
0.000355143
7.30026e-05
0.000348479
4.14426e-05
0.000345199
2.77843e-05
0.000341953
1.76904e-05
0.0003394
6.18942e-06
0.000337976
-2.50695e-06
0.000337684
-7.50572e-06
0.000338176
-9.68065e-06
0.000339314
-1.0091e-05
0.00034048
-9.62888e-06
0.000341898
-8.7008e-06
0.000343034
-7.72418e-06
-6.7082e-06
0.000344285
0.000431704
0.000311899
0.000427506
0.000374318
0.000422626
0.000405381
0.000414534
0.000344801
0.000403943
0.000264152
0.000392463
0.000187779
0.000381818
0.000127685
0.000371538
8.34186e-05
0.000364155
4.90147e-05
0.000360001
3.21729e-05
0.000356432
2.14989e-05
0.000353502
9.34919e-06
0.000351701
-4.69009e-07
0.000351054
-6.58706e-06
0.000351314
-9.61699e-06
0.000352086
-1.06224e-05
0.000353161
-1.04572e-05
0.000354279
-9.70236e-06
0.000355447
-8.70325e-06
-7.64739e-06
0.000356464
0.00044412
0.000317845
0.000440318
0.00037934
0.000435878
0.000410505
0.000428382
0.000352956
0.000418832
0.000274484
0.000408032
0.000199385
0.000397605
0.000138884
0.000387794
9.38927e-05
0.000379898
5.75004e-05
0.000374981
3.75615e-05
0.000371103
2.57573e-05
0.000367891
1.28707e-05
0.000365786
1.88771e-06
0.000364832
-5.35067e-06
0.000364833
-9.27325e-06
0.000365383
-1.09172e-05
0.000366258
-1.1125e-05
0.000367253
-1.05537e-05
0.000368308
-9.60472e-06
-8.50382e-06
0.000369276
0.000456904
0.000322012
0.000453498
0.000381695
0.000449572
0.00041364
0.000442765
0.000359255
0.000433968
0.000282989
0.000423732
0.00020951
0.000413846
0.000148763
0.000404712
0.000103126
0.00039643
6.5945e-05
0.000390839
4.33622e-05
0.000386691
3.01235e-05
0.00038319
1.65906e-05
0.000380754
4.5527e-06
0.000379522
-3.80334e-06
0.000379178
-8.68618e-06
0.000379466
-1.09443e-05
0.000380131
-1.16102e-05
0.000380934
-1.12407e-05
0.000381891
-1.03896e-05
-9.27535e-06
0.00038274
0.000469987
0.0003272
0.000466835
0.000385888
0.000463215
0.000417899
0.000457102
0.000365959
0.000448939
0.000291836
0.000439046
0.000220066
0.000429359
0.0001591
0.000420522
0.00011252
0.000411724
7.52287e-05
0.000405673
4.98274e-05
0.000401689
3.44491e-05
0.000398213
2.03249e-05
0.000395728
7.29919e-06
0.000394291
-2.12687e-06
0.000393867
-7.88906e-06
0.000393887
-1.08849e-05
0.00039448
-1.19212e-05
0.000395087
-1.1846e-05
0.000396004
-1.10609e-05
-9.99744e-06
0.000396718
0.000483465
0.000330734
0.000480574
0.000387909
0.000477289
0.000420582
0.000471935
0.000370902
0.000464501
0.000299037
0.000455004
0.000229438
0.000445267
0.000168826
0.000436471
0.000121378
0.000427654
8.41866e-05
0.000421352
5.6308e-05
0.000417382
3.86111e-05
0.000413974
2.39424e-05
0.000411412
1.01235e-05
0.00040988
-3.07411e-07
0.000409181
-6.96758e-06
0.000409121
-1.05999e-05
0.000409417
-1.21156e-05
0.000410021
-1.22769e-05
0.000410669
-1.16509e-05
-1.06077e-05
0.00041145
0.000497238
0.000335364
0.00049443
0.00039188
0.000491261
0.000424552
0.000486379
0.00037643
0.000479519
0.000306512
0.000470687
0.000238853
0.000461207
0.000178828
0.000452487
0.000130568
0.000444174
9.2885e-05
0.000437767
6.30645e-05
0.000433475
4.31909e-05
0.000430069
2.75855e-05
0.000427446
1.29958e-05
0.000425829
1.63471e-06
0.000424995
-5.90395e-06
0.000424767
-1.0191e-05
0.000424932
-1.216e-05
0.000425407
-1.26072e-05
0.000425965
-1.21283e-05
-1.1151e-05
0.000426651
0.000511425
0.000338415
0.000508705
0.000394065
0.000505684
0.000427194
0.000501105
0.00038074
0.000494669
0.000312771
0.000486599
0.000246815
0.000477653
0.000187753
0.000469204
0.000139057
0.000461455
0.000100746
0.000455136
6.95273e-05
0.000450602
4.78984e-05
0.000447093
3.12845e-05
0.000444416
1.595e-05
0.000442601
3.64866e-06
0.000441596
-4.66844e-06
0.000441195
-9.64342e-06
0.000441173
-1.20502e-05
0.000441527
-1.28051e-05
0.000441929
-1.24918e-05
-1.15959e-05
0.000442545
0.00052594
0.000342597
0.000523204
0.000398297
0.000520239
0.000431151
0.000515858
0.000385844
0.000509736
0.00031947
0.000502337
0.000254722
0.000494017
0.000196497
0.000485995
0.000147448
0.000478736
0.00010831
0.000472566
7.59772e-05
0.000467941
5.27437e-05
0.000464441
3.49937e-05
0.000461663
1.89323e-05
0.000459846
5.79062e-06
0.000458617
-3.3901e-06
0.000458149
-8.93976e-06
0.000457934
-1.1851e-05
0.000458204
-1.28735e-05
0.000458464
-1.2771e-05
-1.19461e-05
0.000459017
0.000540908
0.000345227
0.000538217
0.000400718
0.000535356
0.000433807
0.000531128
0.000389931
0.000525281
0.000325177
0.000518381
0.000261547
0.000510666
0.000204176
0.000503245
0.000154899
0.000496596
0.000115035
0.0004906
8.20887e-05
0.000485935
5.7553e-05
0.000482451
3.87011e-05
0.000479676
2.19355e-05
0.000477673
7.97713e-06
0.000476403
-1.93245e-06
0.000475669
-8.1354e-06
0.000475432
-1.1479e-05
0.000475427
-1.28391e-05
0.000475717
-1.29138e-05
-1.22169e-05
0.000476019
0.000556235
0.000348974
0.000553548
0.000405021
0.000550771
0.000437676
0.000546715
0.000394716
0.000541216
0.000331222
0.00053472
0.000268463
0.000527436
0.000211804
0.000520283
0.000162321
0.000513897
0.000121658
0.000507931
8.82545e-05
0.000503383
6.22875e-05
0.000500147
4.21227e-05
0.00049758
2.47916e-05
0.000495639
1.01086e-05
0.000494336
-4.87064e-07
0.000493557
-7.26946e-06
0.000493242
-1.10569e-05
0.000493162
-1.272e-05
0.000493369
-1.2997e-05
-1.2412e-05
0.000493605
0.000572042
0.000351055
0.00056943
0.000407507
0.000566765
0.000440226
0.000562875
0.000398507
0.000557729
0.000336276
0.000551684
0.000274438
0.000544882
0.000218571
0.000537986
0.000169228
0.000531798
0.000127892
0.000526031
9.41169e-05
0.000521642
6.67932e-05
0.00051867
4.53193e-05
0.000516217
2.7388e-05
0.000514323
1.21972e-05
0.000512989
9.48712e-07
0.000512121
-6.34508e-06
0.000511739
-1.05612e-05
0.000511537
-1.25189e-05
0.000511684
-1.29963e-05
-1.25348e-05
0.000511807
0.00058826
0.000354145
0.000585707
0.000411537
0.000583168
0.000443769
0.000579472
0.00040289
0.00057459
0.000341639
0.000568872
0.00028051
0.000562606
0.000225098
0.000556132
0.000175901
0.000550216
0.000133981
0.000544894
9.95666e-05
0.000540757
7.10659e-05
0.000537746
4.8474e-05
0.000535478
2.9933e-05
0.000533508
1.41739e-05
0.000532218
2.43388e-06
0.000531228
-5.40568e-06
0.000530806
-9.98275e-06
0.000530497
-1.2259e-05
0.000530572
-1.29163e-05
-1.25985e-05
0.000530605
0.000605006
0.000355608
0.000602571
0.000413717
0.000600163
0.000446059
0.000596629
0.000406344
0.000591966
0.00034624
0.000586547
0.000285874
0.000580828
0.000230793
0.000574904
0.000181826
0.000569421
0.000139498
0.000564632
0.000104417
0.000560761
7.50925e-05
0.000557795
5.16104e-05
0.000555445
3.2419e-05
0.000553531
1.62363e-05
0.000552056
3.94106e-06
0.000551091
-4.34599e-06
0.000550434
-9.33448e-06
0.000550165
-1.18824e-05
0.000549999
-1.27616e-05
-1.25667e-05
0.000550098
0.000622223
0.000357693
0.000619924
0.000417141
0.000617658
0.000449185
0.000614316
0.000410302
0.000609851
0.000351144
0.000604661
0.000291371
0.000599287
0.000236379
0.000593855
0.000187418
0.000588903
0.00014457
0.000584652
0.000108779
0.00058101
7.88466e-05
0.00057814
5.47248e-05
0.000575812
3.48977e-05
0.000573867
1.82871e-05
0.000572361
5.49927e-06
0.000571328
-3.24743e-06
0.000570602
-8.60791e-06
0.000570257
-1.14464e-05
0.00057002
-1.253e-05
-1.24798e-05
0.000570043
0.000640023
0.000358128
0.000637882
0.00041895
0.000635683
0.000451249
0.000632444
0.000413498
0.000628171
0.000355386
0.000623298
0.00029623
0.000618269
0.000241408
0.000613218
0.00019248
0.000608544
0.000149298
0.000604572
0.000112792
0.00060126
8.23435e-05
0.000598499
5.75897e-05
0.000596313
3.72506e-05
0.000594458
2.02084e-05
0.000592981
7.00554e-06
0.000591972
-2.16513e-06
0.000591198
-7.86417e-06
0.000590836
-1.09708e-05
0.000590523
-1.22526e-05
-1.23384e-05
0.000590521
0.000658378
0.00035892
0.000656368
0.000421869
0.000654234
0.000454143
0.000651075
0.000417251
0.000646974
0.00035991
0.000642395
0.000301114
0.000637676
0.00024633
0.000632964
0.000197366
0.000628495
0.000153846
0.000624784
0.000116624
0.000621658
8.55805e-05
0.000619216
6.02866e-05
0.000617109
3.93455e-05
0.00061547
2.20201e-05
0.000614019
8.38403e-06
0.000613091
-1.11246e-06
0.000612302
-7.14574e-06
0.000611924
-1.04787e-05
0.000611582
-1.19584e-05
-1.21652e-05
0.000611529
0.000677444
0.000358023
0.000675544
0.000423459
0.000673423
0.00045618
0.000670245
0.000420432
0.000666266
0.000363923
0.000661927
0.000305491
0.000657522
0.000250795
0.000653218
0.000201712
0.000649117
0.000158042
0.000645641
0.000120239
0.000642808
8.85719e-05
0.000640527
6.27214e-05
0.00063868
4.13201e-05
0.000637063
2.36717e-05
0.000635788
9.73177e-06
0.000634759
-1.0291e-07
0.000634087
-6.39399e-06
0.000633543
-9.96525e-06
0.0006333
-1.16045e-05
-1.19491e-05
0.000633065
0.000697232
0.000357012
0.000695454
0.000426109
0.000693331
0.000459074
0.000690134
0.000424245
0.000686221
0.000368293
0.000682034
0.000310014
0.00067786
0.00025521
0.000673942
0.000205833
0.000670212
0.000161903
0.000666996
0.000123599
0.000664435
9.14104e-05
0.000662357
6.49754e-05
0.000660706
4.31091e-05
0.000659216
2.52126e-05
0.000658028
1.10022e-05
0.000657021
8.93594e-07
0.000656359
-5.64493e-06
0.000655789
-9.42338e-06
0.000655517
-1.12274e-05
-1.16953e-05
0.000655244
0.000717674
0.000354108
0.00071607
0.000427537
0.000713834
0.000461312
0.000710573
0.000427589
0.000706713
0.000372253
0.000702688
0.000314154
0.000698762
0.000259256
0.000695174
0.000209533
0.000691855
0.000165362
0.000689035
0.000126633
0.000686709
9.3969e-05
0.000684852
6.70216e-05
0.000683398
4.47293e-05
0.000682034
2.66356e-05
0.000680907
1.2229e-05
0.000679912
1.89043e-06
0.000679241
-4.86823e-06
0.000678639
-8.83873e-06
0.000678339
-1.07992e-05
-1.13909e-05
0.000678023
0.000738519
0.000351124
0.000737203
0.000429883
0.000734947
0.000464439
0.000731695
0.000431512
0.000727904
0.000376563
0.000724015
0.000318424
0.000720308
0.000263269
0.000716975
0.000213098
0.000713962
0.000168561
0.000711383
0.000129423
0.000709314
9.63292e-05
0.000707665
6.88815e-05
0.000706341
4.62055e-05
0.000705143
2.79108e-05
0.000704114
1.33549e-05
0.000703182
2.82789e-06
0.000702541
-4.12312e-06
0.000701947
-8.26429e-06
0.000701638
-1.03698e-05
-1.10747e-05
0.000701307
0.000759775
0.000346524
0.000758751
0.000430906
0.000756481
0.000466821
0.000753251
0.000434899
0.000749575
0.000380413
0.000745903
0.000322283
0.000742488
0.00026686
0.000739442
0.000216339
0.000736718
0.000171459
0.000734434
0.000131971
0.000732603
9.83635e-05
0.000731155
7.05515e-05
0.000729938
4.75635e-05
0.000728838
2.90803e-05
0.000727916
1.43912e-05
0.000727027
3.71529e-06
0.000726435
-3.39799e-06
0.000725833
-7.6868e-06
0.000725542
-9.9188e-06
-1.07315e-05
0.000725176
0.000781422
0.000342219
0.000780727
0.000432783
0.000778592
0.000469922
0.000775485
0.000438741
0.000771953
0.000384507
0.000768469
0.000326194
0.000765297
0.000270393
0.000762492
0.000219399
0.000760113
0.000174093
0.000758045
0.000134254
0.000756524
0.000100232
0.000755162
7.19884e-05
0.00075416
4.88184e-05
0.000753118
3.01126e-05
0.00075233
1.53648e-05
0.000751476
4.5375e-06
0.00075093
-2.69352e-06
0.000750344
-7.12839e-06
0.000750041
-9.4674e-06
-1.03872e-05
0.000749679
0.00080352
0.000336474
0.000803095
0.00043332
0.000801085
0.000472112
0.000798117
0.000441919
0.000794789
0.000388061
0.000791571
0.000329649
0.000788682
0.000273518
0.000786199
0.000222135
0.000784142
0.000176431
0.000782431
0.000136252
0.000781059
0.00010184
0.000779977
7.33115e-05
0.000779008
4.99002e-05
0.000778193
3.1083e-05
0.000777351
1.62493e-05
0.000776679
5.34595e-06
0.000776008
-2.00983e-06
0.000775581
-6.5431e-06
0.000775114
-8.99636e-06
-9.99948e-06
0.000774905
0.000826088
0.000331307
0.000825965
0.000434693
0.000824211
0.000474843
0.000821477
0.000445408
0.000818372
0.000391738
0.000815389
0.000333095
0.000812762
0.000276519
0.000810565
0.00022466
0.000808812
0.000178486
0.0008074
0.000138018
0.00080625
0.000103265
0.000805336
7.44453e-05
0.000804506
5.08746e-05
0.000803799
3.19473e-05
0.000803025
1.70776e-05
0.000802416
6.10462e-06
0.000801763
-1.34315e-06
0.000801358
-5.9762e-06
0.000800889
-8.52486e-06
-9.61614e-06
0.00080067
0.00084917
0.000324791
0.00084928
0.000434675
0.000847749
0.00047655
0.000845256
0.000448117
0.000842441
0.000394803
0.000839768
0.000336019
0.000837463
0.000279123
0.000835578
0.000226829
0.000834183
0.000180194
0.000833044
0.000139426
0.000832147
0.000104428
0.000831443
7.53654e-05
0.000830746
5.17053e-05
0.000830152
3.27148e-05
0.000829437
1.78522e-05
0.000828878
6.83813e-06
0.000828236
-6.73579e-07
0.000827849
-5.38681e-06
0.00082736
-8.02067e-06
-9.19217e-06
0.000827156
0.0008728
0.000319034
0.000873197
0.000435445
0.000872003
0.000478665
0.000869835
0.000450999
0.000867315
0.000397869
0.000864936
0.000338866
0.000862903
0.000281519
0.000861321
0.000228733
0.000860147
0.000181668
0.000859336
0.000140593
0.000858598
0.000105316
0.000858138
7.61208e-05
0.000857537
5.23802e-05
0.000857082
3.34056e-05
0.00085642
1.85475e-05
0.000855931
7.53375e-06
0.00085532
-4.48622e-08
0.000854944
-4.82034e-06
0.000854474
-7.54197e-06
-8.78302e-06
0.000854245
0.000896998
0.000311991
0.000897624
0.000434839
0.000896719
0.000479701
0.00089488
0.000453031
0.00089273
0.00040026
0.000890715
0.000341146
0.000889046
0.00028349
0.000887784
0.000230344
0.000886889
0.000182852
0.000886242
0.000141509
0.000885755
0.000106088
0.000885339
7.67132e-05
0.000884966
5.29683e-05
0.000884505
3.39786e-05
0.000884055
1.91828e-05
0.0008835
8.16441e-06
0.000883083
5.72427e-07
0.000882578
-4.26074e-06
0.000882301
-7.03403e-06
-8.34906e-06
0.000881912
0.000921818
0.000305882
0.00092274
0.000435005
0.00092223
0.00048105
0.000920786
0.000455112
0.000919002
0.000402555
0.000917337
0.000343234
0.000915997
0.00028522
0.000915
0.000231666
0.000914353
0.000183856
0.000913901
0.000142266
0.00091354
0.000106694
0.000913246
7.72171e-05
0.000912987
5.34405e-05
0.000912615
3.44725e-05
0.000912271
1.97349e-05
0.000911769
8.73398e-06
0.000911424
1.12684e-06
0.000910949
-3.74881e-06
0.000910699
-6.5772e-06
-7.94961e-06
0.000910326
0.000947257
0.000298554
0.000948424
0.000433819
0.000948256
0.000481306
0.000947217
0.000456322
0.000945858
0.000404116
0.000944615
0.000344769
0.000943644
0.000286498
0.00094298
0.000232588
0.000942575
0.000184529
0.000942312
0.000142747
0.000942158
0.000107125
0.000941954
7.75798e-05
0.000941821
5.38298e-05
0.000941524
3.49024e-05
0.000941259
2.02436e-05
0.000940824
9.28574e-06
0.000940529
1.68263e-06
0.000940091
-3.21647e-06
0.000939886
-6.08678e-06
-7.51325e-06
0.000939524
0.00097339
0.000292291
0.000974872
0.000433291
0.000975146
0.000481761
0.000974552
0.000457454
0.000973625
0.0004055
0.000972764
0.000346003
0.000972132
0.000287392
0.000971759
0.000233262
0.000971598
0.00018493
0.000971519
0.000143013
0.000971496
0.000107379
0.000971426
7.78432e-05
0.000971356
5.41455e-05
0.000971147
3.52923e-05
0.000970935
2.07317e-05
0.000970561
9.81862e-06
0.000970303
2.22652e-06
0.000969917
-2.70801e-06
0.000969721
-5.62006e-06
-7.10662e-06
0.000969403
0.00100019
0.000284835
0.00100195
0.000431465
0.00100262
0.000481135
0.00100249
0.000457705
0.00100203
0.000406135
0.00100162
0.000346649
0.00100141
0.00028793
0.00100135
0.000233496
0.00100144
0.000185043
0.00100161
0.000143073
0.00100171
0.000107461
0.00100178
7.79979e-05
0.00100175