/*--------------------------------*- C++ -*----------------------------------*\
| =========                 |                                                 |
| \\      /  F ield         | OpenFOAM: The Open Source CFD Toolbox           |
|  \\    /   O peration     | Version:  2.4.0                                 |
|   \\  /    A nd           | Web:      www.OpenFOAM.org                      |
|    \\/     M anipulation  |                                                 |
\*---------------------------------------------------------------------------*/
FoamFile
{
    version     2.0;
    format      ascii;
    class       volScalarField;
    location    "3.24";
    object      p;
}
// * * * * * * * * * * * * * * * * * * * * * * * * * * * * * * * * * * * * * //

dimensions      [0 2 -2 0 0 0 0];

internalField   nonuniform List<scalar> 
6000
(
0.0431854
0.272344
0.269292
0.292632
0.298082
0.305775
0.308824
0.312451
0.3144
0.316494
0.317893
0.319289
0.320375
0.321443
0.322424
0.323475
0.324593
0.325825
0.327114
0.328401
0.32959
0.330599
0.331371
0.331918
0.332342
0.332827
0.333615
0.334961
0.337121
0.340334
0.344824
0.350796
0.358429
0.367859
0.379155
0.39227
0.406968
0.422766
0.438905
0.454412
0.468096
0.478601
0.485132
0.487247
0.484814
0.478179
0.467927
0.454868
0.439548
0.422762
0.404204
0.385108
0.36275
0.341613
0.310827
0.289068
0.235529
0.223163
0.102988
0.140045
0.0582047
0.270559
0.269335
0.292483
0.297999
0.305688
0.308767
0.312398
0.314361
0.316459
0.317867
0.319268
0.320359
0.321431
0.322413
0.323463
0.324579
0.325808
0.327097
0.328389
0.329587
0.330608
0.331393
0.331952
0.332384
0.332875
0.333662
0.335006
0.337162
0.340371
0.344856
0.350826
0.358458
0.367889
0.379185
0.392291
0.406977
0.422756
0.438862
0.454319
0.467952
0.47847
0.484992
0.48708
0.484611
0.477938
0.467651
0.454555
0.4392
0.42241
0.40385
0.384721
0.362353
0.341118
0.310346
0.288346
0.234942
0.22198
0.102302
0.137966
0.0720493
0.268483
0.269432
0.292365
0.297927
0.305621
0.308718
0.312356
0.314328
0.31643
0.317844
0.319249
0.320345
0.321419
0.322402
0.32345
0.324563
0.325791
0.327081
0.328378
0.329586
0.330621
0.331421
0.331993
0.332434
0.332927
0.333712
0.33505
0.337198
0.340397
0.344873
0.350834
0.358456
0.367878
0.379163
0.392255
0.406922
0.422669
0.438728
0.454121
0.467676
0.47822
0.484761
0.486847
0.484361
0.477664
0.467355
0.454245
0.438887
0.422077
0.403503
0.384352
0.361962
0.340669
0.309866
0.287717
0.234323
0.220944
0.101488
0.136121
0.083518
0.266306
0.269571
0.292275
0.297873
0.305566
0.308676
0.31232
0.314299
0.316405
0.317824
0.319233
0.320331
0.321408
0.32239
0.323436
0.324546
0.325772
0.327065
0.328368
0.329587
0.330637
0.331453
0.332038
0.332485
0.332977
0.333756
0.335083
0.337218
0.340402
0.344863
0.350806
0.358411
0.367812
0.379074
0.392139
0.40677
0.422471
0.438473
0.453796
0.467266
0.477814
0.484398
0.486515
0.484039
0.477339
0.467022
0.453906
0.438545
0.421728
0.403148
0.383983
0.361575
0.340236
0.309402
0.287128
0.233722
0.220001
0.100685
0.134578
0.0935054
0.264133
0.269733
0.292207
0.297836
0.30552
0.30864
0.312287
0.314272
0.316382
0.317805
0.319217
0.320319
0.321396
0.322378
0.323421
0.324528
0.325752
0.327047
0.328358
0.329591
0.330658
0.331491
0.332089
0.33254
0.333028
0.333796
0.335108
0.337223
0.340386
0.344824
0.350741
0.358316
0.367682
0.378904
0.391923
0.4065
0.422144
0.43809
0.453354
0.466751
0.477249
0.483864
0.486022
0.48358
0.476902
0.466599
0.453495
0.438147
0.421334
0.40276
0.38359
0.361173
0.339796
0.308936
0.286545
0.233129
0.219094
0.0998997
0.133231
0.102576
0.262033
0.269903
0.292163
0.297814
0.305482
0.308611
0.312258
0.314249
0.316361
0.317788
0.319203
0.320307
0.321385
0.322365
0.323404
0.324507
0.32573
0.327028
0.328349
0.329598
0.330685
0.331537
0.332147
0.332601
0.333082
0.333835
0.335126
0.337217
0.340353
0.344758
0.350637
0.358169
0.367486
0.378652
0.39161
0.406125
0.421711
0.437615
0.452842
0.466181
0.476584
0.483186
0.485365
0.482957
0.476317
0.46605
0.452978
0.437659
0.420875
0.402322
0.383161
0.360745
0.339339
0.308458
0.285961
0.232533
0.218205
0.0991235
0.132018
0.1109
0.260047
0.270075
0.292139
0.297806
0.305451
0.308588
0.312234
0.314228
0.316342
0.317772
0.319189
0.320296
0.321374
0.322352
0.323386
0.324484
0.325705
0.327007
0.32834
0.329608
0.330719
0.331591
0.332213
0.332667
0.333137
0.333872
0.335139
0.337201
0.340301
0.344666
0.3505
0.357978
0.367235
0.378336
0.391227
0.405681
0.421221
0.437101
0.452308
0.465592
0.475886
0.482435
0.484597
0.482201
0.475592
0.465368
0.452344
0.437074
0.420338
0.401824
0.382689
0.360286
0.338864
0.307967
0.285375
0.23193
0.217332
0.0983513
0.130922
0.118565
0.258196
0.270249
0.292116
0.297822
0.305428
0.308571
0.312213
0.31421
0.316325
0.317758
0.319177
0.320285
0.321363
0.322337
0.323366
0.324459
0.325678
0.326985
0.328333
0.329623
0.330759
0.331652
0.332283
0.332734
0.333191
0.333903
0.335142
0.337171
0.340232
0.344552
0.350333
0.357752
0.366946
0.377981
0.39081
0.405211
0.420716
0.436583
0.451776
0.465004
0.475196
0.48167
0.483783
0.481367
0.474769
0.464579
0.451607
0.436396
0.419722
0.401264
0.382171
0.359795
0.33837
0.307461
0.284788
0.231318
0.216478
0.0975809
0.129933
0.12567
0.256494
0.270422
0.292102
0.29785
0.305414
0.30856
0.312196
0.314196
0.31631
0.317745
0.319167
0.320276
0.321353
0.322322
0.323344
0.324431
0.325648
0.326963
0.328327
0.329643
0.330805
0.331717
0.332356
0.332801
0.33324
0.333927
0.335135
0.337127
0.340146
0.344418
0.350145
0.357505
0.366636
0.377609
0.390381
0.404737
0.420216
0.436072
0.451248
0.464422
0.474527
0.48092
0.482964
0.480505
0.473892
0.463719
0.45079
0.43564
0.419035
0.400645
0.38161
0.359273
0.337859
0.306945
0.284203
0.2307
0.215644
0.0968105
0.129038
0.132312
0.254945
0.270591
0.292092
0.297888
0.305408
0.308556
0.312183
0.314184
0.316298
0.317735
0.319157
0.320268
0.321342
0.322307
0.323322
0.324401
0.325617
0.32694
0.328324
0.329666
0.330855
0.331785
0.332428
0.332864
0.333282
0.333941
0.335116
0.33707
0.340046
0.344268
0.349941
0.357244
0.366315
0.37723
0.389951
0.404267
0.419722
0.435567
0.450722
0.463844
0.473877
0.480192
0.482158
0.479639
0.472994
0.46282
0.449921
0.434825
0.418292
0.399977
0.38101
0.358724
0.337335
0.306421
0.283623
0.23008
0.214832
0.0960395
0.128228
0.138571
0.253555
0.270753
0.29208
0.297937
0.305409
0.308558
0.312175
0.314176
0.316288
0.317726
0.31915
0.320261
0.321333
0.322292
0.323298
0.324371
0.325586
0.326919
0.328324
0.329693
0.330908
0.331855
0.3325
0.332923
0.333318
0.333947
0.335087
0.337002
0.339934
0.344108
0.349728
0.356974
0.365988
0.376849
0.389521
0.4038
0.419233
0.435062
0.450193
0.463268
0.47324
0.479479
0.481365
0.478777
0.472087
0.461899
0.449019
0.43397
0.417506
0.399269
0.380379
0.358154
0.336802
0.305895
0.283053
0.229462
0.214047
0.0952706
0.127495
0.144507
0.252325
0.270903
0.292064
0.297996
0.305418
0.308567
0.31217
0.314171
0.31628
0.31772
0.319144
0.320255
0.321325
0.322277
0.323275
0.32434
0.325554
0.326898
0.328325
0.329723
0.330964
0.331926
0.332571
0.332978
0.333349
0.333947
0.335051
0.336926
0.339814
0.34394
0.349508
0.356699
0.365658
0.376466
0.389091
0.403334
0.418743
0.434554
0.449658
0.462689
0.472607
0.478773
0.480577
0.477917
0.471175
0.460965
0.448096
0.433088
0.416689
0.398532
0.379725
0.357569
0.336264
0.305371
0.282497
0.228854
0.213295
0.0945086
0.126836
0.150168
0.251256
0.271039
0.292041
0.298061
0.305431
0.308582
0.31217
0.31417
0.316275
0.317715
0.31914
0.320252
0.321318
0.322264
0.323251
0.324309
0.325523
0.326878
0.328328
0.329755
0.331022
0.331998
0.332641
0.333032
0.333376
0.333942
0.335011
0.336846
0.33969
0.343769
0.349285
0.356421
0.365325
0.376081
0.38866
0.402867
0.418249
0.43404
0.449113
0.462104
0.471971
0.478064
0.479786
0.477051
0.470255
0.460018
0.447156
0.432185
0.41585
0.397774
0.379053
0.356974
0.335726
0.304854
0.281961
0.228262
0.212581
0.0937601
0.126247
0.155591
0.250347
0.271161
0.29201
0.298132
0.30545
0.308603
0.312174
0.314172
0.316273
0.317713
0.319138
0.32025
0.321313
0.322252
0.323229
0.324278
0.325492
0.326859
0.328333
0.32979
0.331083
0.332072
0.332711
0.333085
0.333402
0.333936
0.334969
0.336764
0.339565
0.343595
0.349059
0.356141
0.364991
0.375695
0.388228
0.402397
0.41775
0.433517
0.448557
0.461507
0.471324
0.477343
0.478983
0.476172
0.469319
0.459055
0.446199
0.431266
0.414994
0.397
0.37837
0.356373
0.335191
0.304348
0.281446
0.227691
0.211909
0.0930312
0.125728
0.160805
0.249598
0.271268
0.291968
0.298205
0.305473
0.308629
0.312182
0.314178
0.316273
0.317714
0.319139
0.32025
0.32131
0.322241
0.323208
0.324249
0.325462
0.326842
0.32834
0.329827
0.331146
0.332148
0.332783
0.333139
0.33343
0.333932
0.334928
0.336683
0.33944
0.343422
0.348834
0.355862
0.364658
0.375309
0.387795
0.401924
0.417246
0.432984
0.447988
0.460895
0.47066
0.476604
0.478158
0.47527
0.468361
0.458071
0.445222
0.430329
0.414124
0.396215
0.37768
0.355771
0.334662
0.303855
0.280956
0.227143
0.211281
0.0923273
0.125278
0.165831
0.249005
0.271365
0.291914
0.29828
0.305499
0.308661
0.312194
0.314188
0.316277
0.317717
0.319142
0.320253
0.32131
0.322233
0.323189
0.32422
0.325433
0.326825
0.328348
0.329866
0.331211
0.332225
0.332856
0.333195
0.333459
0.33393
0.33489
0.336605
0.339318
0.343251
0.348611
0.355584
0.364325
0.374923
0.38736
0.401447
0.416735
0.43244
0.447403
0.460264
0.469974
0.475838
0.477304
0.474338
0.467374
0.45706
0.444223
0.429374
0.41324
0.395421
0.376985
0.355171
0.334143
0.303378
0.280492
0.226623
0.210701
0.0916523
0.124894
0.170687
0.248563
0.271456
0.291847
0.298353
0.305527
0.308698
0.312209
0.314201
0.316283
0.317723
0.319147
0.320259
0.321311
0.322226
0.323172
0.324194
0.325406
0.32681
0.328358
0.329907
0.331278
0.332305
0.332933
0.333254
0.333493
0.333932
0.334857
0.336532
0.3392
0.343084
0.348392
0.35531
0.363996
0.374539
0.386926
0.400969
0.416219
0.431884
0.446803
0.459612
0.469259
0.475039
0.476414
0.473369
0.466351
0.456018
0.443197
0.428399
0.412342
0.394619
0.376289
0.354576
0.333636
0.30292
0.280056
0.226133
0.210168
0.0910091
0.124575
0.175387
0.248269
0.271545
0.291768
0.298423
0.305556
0.30874
0.312228
0.314218
0.316292
0.317732
0.319155
0.320266
0.321315
0.322223
0.323157
0.324169
0.32538
0.326796
0.328369
0.329949
0.331347
0.332388
0.333012
0.333318
0.333532
0.33394
0.334829
0.336464
0.339088
0.342923
0.348177
0.355041
0.36367
0.374159
0.386494
0.40049
0.415697
0.431318
0.446185
0.458936
0.468513
0.474201
0.475482
0.472355
0.465285
0.454938
0.442141
0.4274
0.411428
0.39381
0.375592
0.353987
0.333142
0.302482
0.279649
0.225674
0.209684
0.0903996
0.124318
0.17994
0.248114
0.271638
0.291677
0.298488
0.305584
0.308786
0.312251
0.314239
0.316304
0.317743
0.319165
0.320276
0.321322
0.322222
0.323145
0.324147
0.325356
0.326784
0.328382
0.329993
0.331418
0.332472
0.333095
0.333387
0.333577
0.333955
0.334809
0.336404
0.338983
0.342769
0.34797
0.354778
0.363351
0.373783
0.386065
0.400011
0.415171
0.430742
0.445548
0.458234
0.467731
0.47332
0.4745
0.471292
0.464172
0.453815
0.441049
0.426375
0.410497
0.392992
0.374894
0.353406
0.332663
0.302066
0.279273
0.225249
0.209248
0.089825
0.124121
0.184356
0.248093
0.271741
0.291577
0.298547
0.305612
0.308836
0.312277
0.314263
0.316319
0.317757
0.319177
0.320289
0.321332
0.322224
0.323136
0.324129
0.325335
0.326774
0.328397
0.330039
0.331491
0.33256
0.333183
0.333461
0.333629
0.333978
0.334798
0.336353
0.338887
0.342624
0.347771
0.354524
0.36304
0.373415
0.38564
0.399534
0.414641
0.430155
0.444893
0.457502
0.46691
0.47239
0.473464
0.470172
0.463006
0.452645
0.439918
0.425321
0.409548
0.392164
0.374196
0.352832
0.3322
0.301673
0.278929
0.224857
0.208862
0.0892861
0.123981
0.188642
0.248197
0.271858
0.29147
0.298597
0.305637
0.308889
0.312306
0.314291
0.316337
0.317774
0.319192
0.320305
0.321345
0.32223
0.323131
0.324113
0.325317
0.326766
0.328413
0.330086
0.331565
0.332649
0.333274
0.333541
0.333689
0.33401
0.334795
0.336311
0.338801
0.342488
0.347583
0.35428
0.362738
0.373055
0.385223
0.399061
0.41411
0.429558
0.444219
0.45674
0.466045
0.471406
0.472368
0.468991
0.461781
0.451423
0.438745
0.424235
0.408577
0.391327
0.373497
0.352267
0.331753
0.301304
0.278616
0.224501
0.208524
0.0887832
0.123896
0.192803
0.248419
0.271996
0.29136
0.298638
0.305658
0.308945
0.312338
0.314323
0.316358
0.317794
0.31921
0.320323
0.32136
0.32224
0.323131
0.324103
0.325303
0.326761
0.328431
0.330135
0.331641
0.332742
0.333369
0.333627
0.333756
0.334051
0.334803
0.336281
0.338726
0.342364
0.347406
0.354047
0.362448
0.372706
0.384815
0.398593
0.413579
0.428953
0.443525
0.455945
0.465134
0.470366
0.471209
0.467745
0.460493
0.450145
0.437526
0.423115
0.407583
0.390478
0.372798
0.351711
0.331324
0.300959
0.278336
0.224181
0.208235
0.0883163
0.123865
0.196846
0.24875
0.272157
0.291251
0.298671
0.305676
0.309002
0.312373
0.314359
0.316382
0.317817
0.31923
0.320344
0.321379
0.322254
0.323135
0.324097
0.325292
0.326759
0.328452
0.330185
0.331718
0.332837
0.333469
0.33372
0.333832
0.334102
0.334822
0.336262
0.338664
0.342253
0.347243
0.353829
0.362171
0.37237
0.384418
0.398132
0.413048
0.428339
0.442811
0.455116
0.464174
0.469264
0.469981
0.466428
0.459139
0.448809
0.436258
0.421958
0.406566
0.389617
0.372098
0.351163
0.330912
0.300639
0.27809
0.223897
0.207995
0.087885
0.123886
0.200776
0.249183
0.272345
0.291146
0.298696
0.305689
0.30906
0.31241
0.3144
0.31641
0.317843
0.319253
0.320367
0.321402
0.322272
0.323144
0.324096
0.325287
0.326761
0.328475
0.330237
0.331797
0.332934
0.333573
0.333819
0.333916
0.334163
0.334853
0.336256
0.338615
0.342157
0.347095
0.353626
0.361911
0.372049
0.384034
0.397681
0.41252
0.427718
0.442077
0.45425
0.463162
0.468099
0.468681
0.465037
0.457714
0.447411
0.43494
0.420763
0.405523
0.388743
0.371395
0.350624
0.330518
0.300344
0.277877
0.22365
0.207803
0.0874889
0.123956
0.204597
0.249709
0.272562
0.291049
0.298714
0.305697
0.309119
0.31245
0.314444
0.316442
0.317873
0.319279
0.320394
0.321428
0.322294
0.323159
0.324101
0.325287
0.326767
0.3285
0.33029
0.331878
0.333035
0.333682
0.333925
0.334009
0.334235
0.334896
0.336263
0.338581
0.342076
0.346963
0.35344
0.361667
0.371744
0.383665
0.39724
0.411996
0.42709
0.441321
0.453348
0.462097
0.466866
0.467307
0.463571
0.456217
0.445948
0.433569
0.419529
0.404454
0.387856
0.370691
0.350093
0.330142
0.300075
0.277699
0.223439
0.20766
0.0871273
0.124075
0.208315
0.250321
0.272809
0.290964
0.298727
0.305701
0.309177
0.312493
0.314493
0.316477
0.317907
0.319308
0.320424
0.321457
0.322322
0.323179
0.324113
0.325294
0.326778
0.328528
0.330345
0.331961
0.333138
0.333795
0.334037
0.334112
0.334318
0.334952
0.336285
0.338562
0.342012
0.34685
0.353274
0.361443
0.371459
0.383312
0.396812
0.411477
0.426457
0.440545
0.452406
0.460975
0.465564
0.465856
0.462025
0.454646
0.444421
0.432144
0.418253
0.403357
0.386953
0.369985
0.349569
0.329784
0.299831
0.277554
0.223266
0.207565
0.0867994
0.124243
0.211934
0.251011
0.273088
0.290893
0.298737
0.305701
0.309235
0.312539
0.314547
0.316518
0.317946
0.319341
0.320458
0.32149
0.322354
0.323206
0.324133
0.325308
0.326795
0.32856
0.330403
0.332046
0.333244
0.333913
0.334157
0.334223
0.334412
0.335022
0.336322
0.338561
0.341968
0.346757
0.353128
0.361241
0.371195
0.38298
0.396399
0.410965
0.425817
0.439747
0.451425
0.459796
0.464191
0.464326
0.460401
0.453001
0.442827
0.430665
0.416936
0.402233
0.386037
0.369276
0.349054
0.329444
0.299612
0.277444
0.223128
0.207518
0.0865039
0.124458
0.215458
0.251773
0.273397
0.29084
0.298746
0.305697
0.309292
0.312587
0.314605
0.316563
0.317989
0.319378
0.320495
0.321527
0.322391
0.323239
0.32416
0.325329
0.326818
0.328597
0.330463
0.332132
0.333353
0.334035
0.334284
0.334345
0.334519
0.335105
0.336376
0.338578
0.341943
0.346686
0.353006
0.361062
0.370954
0.382668
0.396003
0.410461
0.425173
0.438927
0.450403
0.458558
0.462747
0.462719
0.458698
0.451282
0.441168
0.429133
0.415579
0.401081
0.385105
0.368565
0.348547
0.329122
0.299419
0.277369
0.223028
0.207518
0.0862399
0.124719
0.218893
0.252601
0.273737
0.290807
0.298755
0.305692
0.309349
0.312637
0.314668
0.316614
0.318039
0.319421
0.320538
0.321569
0.322434
0.323279
0.324195
0.325359
0.326848
0.328638
0.330525
0.332221
0.333465
0.334163
0.334418
0.334476
0.334639
0.335204
0.336446
0.338614
0.341939
0.346637
0.352908
0.360909
0.370738
0.38238
0.395625
0.409967
0.424525
0.438085
0.44934
0.457262
0.461233
0.461035
0.456919
0.449491
0.439447
0.427548
0.414182
0.399903
0.384159
0.367851
0.348048
0.328819
0.29925
0.277329
0.222962
0.207566
0.0860064
0.125027
0.222244
0.253487
0.274107
0.290794
0.298769
0.305686
0.309405
0.31269
0.314737
0.316671
0.318094
0.319469
0.320585
0.321616
0.322482
0.323326
0.324238
0.325397
0.326886
0.328685
0.330592
0.332313
0.33358
0.334296
0.33456
0.334619
0.334772
0.335319
0.336535
0.338671
0.341958
0.346614
0.352836
0.360783
0.370551
0.382117
0.395268
0.409483
0.423873
0.437222
0.448236
0.455909
0.459649
0.459278
0.455067
0.447632
0.437666
0.425915
0.412747
0.398699
0.383199
0.367136
0.347556
0.328534
0.299107
0.277324
0.222933
0.207662
0.085802
0.125379
0.225513
0.254427
0.274506
0.290804
0.298787
0.305681
0.309461
0.312747
0.314811
0.316735
0.318157
0.319524
0.320639
0.321668
0.322537
0.323381
0.324291
0.325446
0.326934
0.328739
0.330662
0.332407
0.333698
0.334433
0.33471
0.334772
0.334918
0.33545
0.336644
0.33875
0.342002
0.346617
0.352793
0.360688
0.370392
0.381882
0.394933
0.409012
0.423218
0.436337
0.447091
0.454498
0.457999
0.45745
0.453147
0.445711
0.435831
0.424237
0.411278
0.397472
0.382226
0.366419
0.347072
0.328268
0.298987
0.277353
0.222937
0.207805
0.0856253
0.125776
0.228707
0.255415
0.274932
0.290837
0.298813
0.305679
0.309519
0.312807
0.314892
0.316806
0.318228
0.319586
0.3207
0.321727
0.322598
0.323444
0.324354
0.325505
0.326991
0.3288
0.330737
0.332503
0.33382
0.334577
0.334868
0.334936
0.335079
0.335599
0.336772
0.338852
0.342072
0.346649
0.352781
0.360624
0.370266
0.381677
0.394621
0.408554
0.422561
0.435431
0.445906
0.453033
0.456286
0.455558
0.451165
0.443734
0.433946
0.422518
0.409778
0.396224
0.381243
0.365702
0.346596
0.328021
0.298892
0.277418
0.222976
0.207995
0.0854748
0.126217
0.23183
0.256446
0.275383
0.290892
0.298847
0.305681
0.309579
0.312871
0.314978
0.316886
0.318308
0.319657
0.320768
0.321794
0.322668
0.323516
0.324426
0.325576
0.327059
0.32887
0.330818
0.332604
0.333945
0.334725
0.335034
0.335111
0.335254
0.335765
0.336922
0.338978
0.342168
0.346711
0.352801
0.360594
0.370174
0.381504
0.394336
0.40811
0.421902
0.434505
0.444683
0.451518
0.454517
0.453608
0.449128
0.441708
0.432021
0.420767
0.408252
0.394959
0.38025
0.364986
0.346129
0.327793
0.298821
0.277518
0.223048
0.208232
0.085349
0.126703
0.234886
0.257515
0.275858
0.29097
0.29889
0.305689
0.309641
0.312941
0.315072
0.316975
0.318397
0.319737
0.320846
0.321869
0.322745
0.323596
0.324509
0.325658
0.327139
0.32895
0.330906
0.332709
0.334074
0.334879
0.335208
0.335298
0.335445
0.33595
0.337094
0.33913
0.342294
0.346804
0.352856
0.3606
0.370118
0.381364
0.394077
0.407682
0.421242
0.433559
0.443424
0.449955
0.452695
0.451607
0.447044
0.439642
0.430062
0.418988
0.406707
0.393681
0.379251
0.364272
0.34567
0.327584
0.298773
0.277653
0.223152
0.208515
0.0852462
0.127232
0.237879
0.258618
0.276356
0.291071
0.298945
0.305704
0.309708
0.313016
0.315173
0.317073
0.318498
0.319828
0.320934
0.321954
0.322833
0.323687
0.324604
0.325753
0.327231
0.329041
0.331002
0.332819
0.334207
0.335038
0.335391
0.335497
0.335651
0.336155
0.337289
0.339309
0.342451
0.346932
0.352947
0.360645
0.370102
0.381261
0.393848
0.40727
0.420582
0.432594
0.442132
0.448349
0.450827
0.449562
0.444921
0.437544
0.428078
0.417191
0.405147
0.392395
0.378249
0.363562
0.345221
0.327395
0.298748
0.277823
0.223287
0.208846
0.0851646
0.127806
0.240815
0.259752
0.276873
0.291193
0.299011
0.305727
0.30978
0.313098
0.315283
0.317182
0.31861
0.319932
0.321034
0.32205
0.322931
0.323789
0.324711
0.325861
0.327337
0.329144
0.331107
0.332936
0.334345
0.335203
0.335582
0.335708
0.335874
0.33638
0.337509
0.339517
0.34264
0.347096
0.353077
0.360731
0.370126
0.381196
0.39365
0.406875
0.419922
0.431613
0.44081
0.446707
0.448922
0.447481
0.442769
0.435423
0.426077
0.415383
0.403581
0.391107
0.377247
0.362859
0.344783
0.327225
0.298745
0.278028
0.223453
0.209222
0.0851025
0.128424
0.243696
0.260911
0.27741
0.291337
0.299088
0.305759
0.309858
0.313187
0.315402
0.317302
0.318734
0.320049
0.321148
0.322159
0.323042
0.323904
0.324831
0.325983
0.327458
0.329261
0.331223
0.333061
0.33449
0.335375
0.335782
0.335931
0.336113
0.336627
0.337755
0.339754
0.342862
0.347297
0.353249
0.36086
0.370194
0.381172
0.393483
0.406499
0.419263
0.430618
0.439462
0.445033
0.446985
0.445374
0.440596
0.433288
0.424069
0.413573
0.402015
0.38982
0.376249
0.362164
0.344356
0.327076
0.298764
0.278267
0.223647
0.209645
0.085058
0.129086
0.246528
0.262094
0.277963
0.2915
0.299177
0.305801
0.309943
0.313285
0.315531
0.317435
0.318873
0.32018
0.321276
0.322282
0.323166
0.324032
0.324965
0.326121
0.327594
0.329392
0.331352
0.333196
0.334642
0.335555
0.335992
0.336168
0.336369
0.336895
0.338027
0.340023
0.343121
0.347539
0.353464
0.361036
0.370309
0.381189
0.393349
0.406142
0.418607
0.42961
0.438093
0.443333
0.445023
0.443247
0.438412
0.431149
0.422063
0.411767
0.400456
0.388542
0.375259
0.36148
0.343941
0.326947
0.298805
0.27854
0.223869
0.210113
0.0850292
0.129792
0.249314
0.263296
0.278531
0.291682
0.299278
0.305852
0.310035
0.313392
0.31567
0.317581
0.319026
0.320328
0.32142
0.322421
0.323306
0.324176
0.325115
0.326275
0.327747
0.32954
0.331495
0.333342
0.334804
0.335743
0.336212
0.336418
0.336644
0.337186
0.338327
0.340325
0.343418
0.347823
0.353725
0.36126
0.370471
0.381252
0.39325
0.405804
0.417954
0.428593
0.436706
0.441614
0.443046
0.44111
0.436224
0.429014
0.420066
0.409975
0.398911
0.387277
0.374282
0.36081
0.343541
0.326839
0.298866
0.278846
0.224117
0.210625
0.0850143
0.130541
0.252058
0.264515
0.279112
0.291883
0.29939
0.305915
0.310136
0.313509
0.31582
0.317741
0.319196
0.320493
0.321582
0.322579
0.323464
0.324337
0.325283
0.326446
0.327918
0.329705
0.331655
0.333502
0.334978
0.335942
0.336444
0.336684
0.336938
0.337502
0.338657
0.340661
0.343755
0.348151
0.354036
0.361535
0.370685
0.38136
0.393186
0.405486
0.417306
0.42757
0.435307
0.439882
0.441058
0.43897
0.434043
0.426893
0.418089
0.408204
0.397386
0.386031
0.37332
0.360156
0.343155
0.326752
0.298947
0.279185
0.22439
0.211182
0.0850114
0.131334
0.254765
0.265747
0.279706
0.2921
0.299513
0.305987
0.310245
0.313635
0.315982
0.317915
0.319382
0.320676
0.321763
0.322755
0.323641
0.324517
0.325469
0.326637
0.328109
0.32989
0.331832
0.333678
0.335165
0.336154
0.33669
0.336966
0.337253
0.337844
0.339018
0.341035
0.344134
0.348528
0.354398
0.361865
0.370953
0.381515
0.393158
0.405189
0.416666
0.426544
0.433901
0.438143
0.439069
0.436837
0.431876
0.424795
0.416139
0.406462
0.395888
0.384809
0.372378
0.359521
0.342785
0.326686
0.299048
0.279556
0.224686
0.211782
0.0850186
0.132171
0.257438
0.266991
0.280309
0.292332
0.299647
0.30607
0.310363
0.313772
0.316155
0.318104
0.319585
0.32088
0.321966
0.322954
0.32384
0.324719
0.325676
0.326848
0.32832
0.330094
0.332029
0.333873
0.335369
0.336382
0.336952
0.337267
0.337591
0.338213
0.339412
0.341448
0.344558
0.348955
0.354815
0.362253
0.371276
0.381719
0.393165
0.404913
0.416034
0.425519
0.432492
0.436403
0.437085
0.434718
0.429734
0.422729
0.414224
0.404756
0.394422
0.383616
0.371459
0.358906
0.342432
0.326642
0.299167
0.279958
0.225005
0.212424
0.0850342
0.133049
0.26008
0.268242
0.280921
0.292579
0.299792
0.306164
0.310489
0.313919
0.316341
0.318309
0.319806
0.321103
0.32219
0.323175
0.324062
0.324943
0.325906
0.327082
0.328553
0.330322
0.332247
0.334087
0.335592
0.336628
0.337234
0.337589
0.337954
0.338613
0.339843
0.341903
0.345031
0.349436
0.355291
0.3627
0.371656
0.381972
0.393209
0.40466
0.415412
0.424497
0.431084
0.434668
0.435113
0.432621
0.427625
0.420703
0.412353
0.403092
0.392995
0.382456
0.370566
0.358315
0.342098
0.326618
0.299305
0.28039
0.225343
0.213107
0.0850563
0.133969
0.262696
0.269499
0.281541
0.29284
0.299946
0.306267
0.310624
0.314076
0.316538
0.318528
0.320046
0.321348
0.322438
0.323421
0.324309
0.325194
0.326162
0.327341
0.328812
0.330573
0.332489
0.334325
0.335837
0.336896
0.337538
0.337936
0.338345
0.339045
0.340313
0.342404
0.345555
0.349974
0.355827
0.36321
0.372096
0.382274
0.393288
0.404428
0.414803
0.423482
0.429682
0.432942
0.43316
0.430555
0.425557
0.418726
0.410533
0.401477
0.391611
0.381332
0.369703
0.357748
0.341782
0.326617
0.29946
0.28085
0.225701
0.21383
0.0850835
0.13493
0.265288
0.270759
0.282166
0.293113
0.300109
0.306381
0.310768
0.314243
0.316747
0.318763
0.320303
0.321615
0.32271
0.323693
0.324583
0.325471
0.326445
0.327628
0.329097
0.330851
0.332757
0.334588
0.336107
0.337189
0.337867
0.338311
0.338768
0.339515
0.340825
0.342953
0.346134
0.350573
0.356429
0.363785
0.372595
0.382626
0.393403
0.40422
0.414207
0.422475
0.42829
0.431232
0.431233
0.428528
0.423538
0.416805
0.408771
0.399916
0.390273
0.380247
0.36887
0.357207
0.341486
0.326636
0.299632
0.281338
0.226077
0.21459
0.0851141
0.135929
0.267861
0.27202
0.282796
0.293397
0.300281
0.306504
0.310921
0.314421
0.316967
0.319012
0.320579
0.321903
0.323007
0.323993
0.324886
0.325779
0.326758
0.327943
0.329411
0.331157
0.333054
0.334879
0.336405
0.33751
0.338226
0.338718
0.339227
0.340025
0.341384
0.343556
0.346773
0.351237
0.357098
0.364426
0.373155
0.383026
0.393553
0.404034
0.413626
0.421481
0.426912
0.429544
0.42934
0.426547
0.421578
0.414948
0.407071
0.398413
0.388987
0.379205
0.368071
0.356693
0.341211
0.326675
0.299819
0.281851
0.226468
0.215386
0.0851469
0.136965
0.270418
0.273279
0.283429
0.293692
0.300461
0.306636
0.311082
0.314608
0.317198
0.319275
0.320872
0.322212
0.323328
0.32432
0.325219
0.326117
0.327102
0.328291
0.329756
0.331495
0.33338
0.3352
0.336734
0.337863
0.338619
0.33916
0.339725
0.340581
0.341993
0.344216
0.347475
0.351969
0.357838
0.365136
0.373774
0.383473
0.393737
0.403872
0.413062
0.420501
0.425551
0.427882
0.427486
0.424621
0.419682
0.41316
0.40544
0.396973
0.387753
0.378207
0.367307
0.356207
0.340956
0.326735
0.300022
0.282387
0.226873
0.216215
0.0851807
0.138037
0.272962
0.274534
0.284063
0.293995
0.300649
0.306776
0.311251
0.314805
0.31744
0.319552
0.321182
0.322543
0.323674
0.324675
0.325583
0.326488
0.32748
0.328673
0.330136
0.331865
0.33374
0.335555
0.337097
0.338252
0.339049
0.339644
0.340268
0.341185
0.342659
0.344937
0.348245
0.352773
0.35865
0.365913
0.37445
0.383965
0.393954
0.403732
0.412515
0.419538
0.424212
0.426252
0.425679
0.422756
0.417858
0.411448
0.403882
0.395597
0.386575
0.377255
0.366579
0.355751
0.340722
0.326815
0.300238
0.282946
0.227291
0.217076
0.0852145
0.139141
0.275496
0.275784
0.284697
0.294307
0.300843
0.306925
0.311428
0.31501
0.317692
0.319842
0.321508
0.322894
0.324045
0.325058
0.325978
0.326892
0.327893
0.32909
0.330551
0.332272
0.334137
0.335946
0.337496
0.338678
0.33952
0.340171
0.34086
0.341844
0.343384
0.345724
0.349086
0.35365
0.359536
0.366757
0.375183
0.3845
0.394201
0.403615
0.411985
0.418593
0.422898
0.424659
0.423925
0.420958
0.416112
0.409816
0.402398
0.394289
0.385453
0.37635
0.365886
0.355323
0.340509
0.326914
0.300467
0.283525
0.227721
0.217966
0.0852473
0.140275
0.278024
0.277024
0.285331
0.294627
0.301045
0.307083
0.311613
0.315225
0.317954
0.320144
0.321849
0.323263
0.324438
0.325469
0.326403
0.327331
0.328342
0.329545
0.331005
0.332717
0.334571
0.336376
0.337936
0.339147
0.340035
0.340747
0.341505
0.342561
0.344173
0.346581
0.350001
0.354604
0.360494
0.367666
0.375969
0.385076
0.394478
0.403519
0.411474
0.417668
0.421612
0.423109
0.42223
0.419235
0.414447
0.408266
0.400992
0.393049
0.384388
0.375491
0.365231
0.354924
0.340317
0.327031
0.300708
0.284122
0.22816
0.218881
0.0852787
0.141436
0.28055
0.278254
0.285962
0.294952
0.301252
0.307248
0.311806
0.315448
0.318226
0.320458
0.322205
0.323651
0.324853
0.325905
0.326859
0.327802
0.328827
0.330037
0.331498
0.333203
0.335047
0.336847
0.338419
0.339661
0.340599
0.341375
0.342206
0.34334
0.34503
0.347511
0.350991
0.355633
0.361522
0.368636
0.376805
0.385689
0.394782
0.403445
0.410983
0.416766
0.420358
0.421606
0.4206
0.41759
0.412868
0.406802
0.399664
0.391877
0.383381
0.374679
0.364612
0.354554
0.340146
0.327166
0.300961
0.284735
0.228607
0.219821
0.0853082
0.142622
0.283076
0.27947
0.286589
0.295283
0.301464
0.30742
0.312005
0.31568
0.318506
0.320783
0.322573
0.324056
0.325289
0.326367
0.327343
0.328307
0.329348
0.330569
0.332031
0.33373
0.335565
0.337363
0.338948
0.340222
0.341213
0.342058
0.342967
0.344185
0.345957
0.348515
0.352058
0.356736
0.362618
0.369664
0.377685
0.386336
0.395112
0.403391
0.41051
0.415887
0.419139
0.420155
0.419039
0.416028
0.411378
0.405424
0.398415
0.390772
0.382429
0.373913
0.364028
0.354213
0.339995
0.327317
0.301224
0.285363
0.229062
0.220781
0.085336
0.143828
0.285606
0.280672
0.287212
0.295619
0.301681
0.3076
0.312212
0.315919
0.318795
0.321117
0.322954
0.324476
0.325745
0.326852
0.327856
0.328843
0.329904
0.331138
0.332604
0.3343
0.336128
0.337925
0.339524
0.340835
0.341881
0.342798
0.343791
0.345097
0.346956
0.349594
0.353199
0.35791
0.363778
0.370743
0.378607
0.387014
0.395465
0.403356
0.410058
0.415035
0.417959
0.41876
0.417552
0.414552
0.409978
0.404133
0.397243
0.389734
0.381533
0.373191
0.363481
0.3539
0.339863
0.327485
0.301497
0.286004
0.229523
0.22176
0.0853622
0.145051
0.288143
0.281855
0.287828
0.295958
0.301902
0.307786
0.312426
0.316166
0.319092
0.321462
0.323347
0.32491
0.326218
0.327359
0.328394
0.329409
0.330494
0.331744
0.333218
0.334912
0.336736
0.338534
0.340151
0.341499
0.342605
0.343598
0.344678
0.346076
0.348026
0.350745
0.354412
0.35915
0.364994
0.37187
0.379565
0.38772
0.395841
0.40334
0.409625
0.41421
0.416821
0.417424
0.416142
0.413165
0.408669
0.402927
0.396148
0.388761
0.38069
0.372514
0.362967
0.353613
0.339752
0.327668
0.30178
0.286656
0.22999
0.222755
0.0853875
0.146289
0.290691
0.283018
0.288436
0.296299
0.302128
0.307978
0.312647
0.316421
0.319397
0.321816
0.323751
0.325358
0.326707
0.327885
0.328955
0.330002
0.331115
0.332384
0.333869
0.335566
0.337388
0.339191
0.340827
0.342216
0.343384
0.344457