/*--------------------------------*- C++ -*----------------------------------*\
| =========                 |                                                 |
| \\      /  F ield         | OpenFOAM: The Open Source CFD Toolbox           |
|  \\    /   O peration     | Version:  2.4.0                                 |
|   \\  /    A nd           | Web:      www.OpenFOAM.org                      |
|    \\/     M anipulation  |                                                 |
\*---------------------------------------------------------------------------*/
FoamFile
{
    version     2.0;
    format      ascii;
    class       volScalarField;
    location    "4.78";
    object      k;
}
// * * * * * * * * * * * * * * * * * * * * * * * * * * * * * * * * * * * * * //

dimensions      [0 2 -2 0 0 0 0];

internalField   nonuniform List<scalar> 
6000
(
0.0117122
0.00656266
0.00175503
0.00044496
0.000122656
0.000319207
0.000253348
0.000404454
0.000470867
0.000630837
0.000769522
0.000938119
0.00108054
0.00121065
0.00129998
0.00135095
0.00135742
0.00135371
0.00142454
0.00166633
0.00206474
0.00255013
0.00301869
0.00344936
0.00384527
0.00421249
0.00455548
0.00487703
0.0051788
0.00546201
0.00572432
0.00596641
0.00618816
0.00638944
0.00657018
0.00673058
0.00687083
0.00699171
0.00709354
0.00717801
0.00724479
0.00729743
0.00733321
0.00735958
0.00736956
0.00737294
0.0074946
0.00771006
0.00790117
0.00818578
0.00840306
0.00881213
0.00905179
0.00968265
0.00991729
0.0109619
0.0111265
0.0130164
0.0130425
0.0175593
0.0120372
0.0117114
0.0020894
0.000676047
0.000137493
0.00028185
0.00038117
0.000540669
0.000716967
0.00095435
0.00120305
0.00148307
0.0017456
0.00199847
0.00220631
0.00235706
0.00243145
0.00247156
0.00261583
0.00305076
0.00378636
0.00467037
0.00555412
0.00638586
0.00716355
0.00789519
0.00858795
0.00924681
0.00987521
0.0104679
0.0110277
0.0115554
0.0120506
0.0125129
0.0129419
0.0133375
0.0137002
0.0140309
0.0143305
0.0146018
0.0148454
0.0150668
0.0152649
0.0154495
0.0156166
0.0157793
0.0159618
0.0161681
0.0163635
0.0166045
0.0168169
0.0171311
0.0173633
0.0178022
0.0180426
0.0186916
0.0189133
0.0199393
0.0203411
0.0227916
0.011568
0.0151654
0.0028827
0.000648275
0.000188006
0.000335207
0.000483239
0.000677567
0.000909358
0.00120891
0.00152938
0.0018829
0.00221547
0.00252865
0.002786
0.0029742
0.00307831
0.00315058
0.0033612
0.00392955
0.00486202
0.00596449
0.00706565
0.00810515
0.00907909
0.00999607
0.0108643
0.0116896
0.0124759
0.0132192
0.0139219
0.0145844
0.0152064
0.0157871
0.0163261
0.0168234
0.017279
0.0176943
0.0180704
0.0184102
0.0187152
0.0189909
0.0192379
0.0194655
0.0196742
0.0198729
0.0200821
0.0203058
0.0205294
0.0207829
0.0210319
0.0213508
0.0216388
0.0220655
0.0223988
0.0229981
0.0233962
0.0242876
0.0250337
0.0272474
0.0114637
0.016071
0.00401179
0.000532738
0.000236684
0.000386548
0.000561299
0.000786237
0.00105838
0.00140585
0.00178002
0.00218629
0.00256789
0.0029213
0.00321196
0.00342756
0.00355764
0.0036629
0.00393162
0.00459648
0.00565958
0.00690661
0.00815442
0.00933632
0.0104458
0.011491
0.0124806
0.0134209
0.0143161
0.0151633
0.0159645
0.0167198
0.0174287
0.0180904
0.0187044
0.0192703
0.0197883
0.0202597
0.0206857
0.0210692
0.0214124
0.0217207
0.0219962
0.0222472
0.0224779
0.0226929
0.0229153
0.0231465
0.0233855
0.0236435
0.0239152
0.0242336
0.0245608
0.0249768
0.0253827
0.0259479
0.0264892
0.0272952
0.0283622
0.0303705
0.0113762
0.0157664
0.00532572
0.000483591
0.000281072
0.000431178
0.000626049
0.000877398
0.00118264
0.00156976
0.00198808
0.00243738
0.00285899
0.00324556
0.00356462
0.00380545
0.00396128
0.0040994
0.00441784
0.00515587
0.00631508
0.00767145
0.00903353
0.0103284
0.0115462
0.0126945
0.0137818
0.0148148
0.015798
0.016729
0.0176096
0.0184398
0.019219
0.0199462
0.0206206
0.0212418
0.0218099
0.0223259
0.0227912
0.0232088
0.0235811
0.0239135
0.0242092
0.0244759
0.0247204
0.0249441
0.025173
0.0254056
0.0256515
0.0259081
0.0261918
0.0265049
0.0268575
0.0272606
0.0277196
0.0282545
0.0289074
0.0296437
0.0309542
0.032772
0.0113033
0.0149414
0.00672866
0.000608908
0.00032364
0.000470793
0.000682585
0.000957131
0.00129094
0.00171229
0.00216893
0.00265584
0.00311289
0.00352966
0.00387555
0.00414139
0.00432377
0.00449419
0.00485526
0.00564974
0.00688268
0.00832685
0.00978408
0.0111749
0.0124857
0.0137227
0.0148945
0.0160079
0.0170674
0.0180711
0.0190209
0.0199164
0.020757
0.0215413
0.0222685
0.0229379
0.0235495
0.0241041
0.0246032
0.0250496
0.0254461
0.025798
0.0261095
0.0263879
0.0266409
0.0268693
0.0271003
0.0273306
0.0275774
0.0278285
0.0281167
0.028421
0.0287885
0.0291772
0.0296744
0.0301816
0.0309218
0.0315989
0.0330961
0.0347303
0.0112435
0.013942
0.00776366
0.00114052
0.000372669
0.00050732
0.000733736
0.00102884
0.00138794
0.00183958
0.00233057
0.00285165
0.00334162
0.0037874
0.00415997
0.00445156
0.00466152
0.00486358
0.0052613
0.00609929
0.00738943
0.00890605
0.0104453
0.0119205
0.0133142
0.0146308
0.0158786
0.0170644
0.0181928
0.0192623
0.0202747
0.0212296
0.022126
0.0229624
0.0237378
0.0244511
0.0251022
0.0256918
0.0262212
0.0266933
0.0271111
0.0274796
0.0278041
0.0280911
0.0283493
0.0285795
0.0288096
0.0290346
0.0292779
0.0295205
0.0298072
0.0301001
0.0304743
0.0308476
0.0313711
0.0318528
0.0326608
0.0332867
0.0349266
0.0363838
0.0111887
0.0129397
0.00846436
0.00207457
0.000449047
0.00054289
0.000781439
0.00109473
0.00147649
0.00195533
0.00247769
0.0030306
0.00355202
0.00402651
0.00442635
0.0047449
0.00498358
0.00521668
0.00564603
0.00651701
0.00785115
0.00942812
0.0110392
0.0125905
0.0140596
0.0154491
0.0167669
0.0180197
0.0192117
0.0203423
0.0214129
0.0224231
0.0233715
0.0242567
0.025077
0.0258315
0.0265195
0.0271417
0.0276992
0.0281948
0.0286318
0.029015
0.0293504
0.0296436
0.0299046
0.0301345
0.0303613
0.0305788
0.030815
0.0310467
0.031327
0.0316062
0.0319806
0.0323371
0.0328773
0.033335
0.034195
0.0347756
0.0365232
0.0378095
0.011136
0.0120146
0.0088804
0.00319955
0.000598103
0.000580484
0.000827355
0.00115644
0.00155856
0.002062
0.00261336
0.00319637
0.00374837
0.00425175
0.00467987
0.00502687
0.00529551
0.00555918
0.00601592
0.00691111
0.00827816
0.00990529
0.0115799
0.0132003
0.014739
0.0161965
0.0175796
0.0188952
0.0201471
0.0213352
0.0224607
0.0235232
0.024521
0.0254524
0.0263155
0.027109
0.0278321
0.0284851
0.0290692
0.0295868
0.0300414
0.0304379
0.0307826
0.0310801
0.0313423
0.03157
0.0317913
0.0319996
0.0322258
0.0324442
0.0327142
0.0329775
0.0333466
0.0336851
0.034234
0.0346683
0.0355674
0.0361069
0.0379333
0.039055
0.0110858
0.0111982
0.00905985
0.00433757
0.000908356
0.000625229
0.000873263
0.00121543
0.0016357
0.00216142
0.00273978
0.00335151
0.00393354
0.00446629
0.0049239
0.00530103
0.00560097
0.0058949
0.00637547
0.00728744
0.00867778
0.0103461
0.0120768
0.0137605
0.015364
0.0168852
0.0183301
0.0197051
0.0210138
0.0222565
0.0234345
0.0245469
0.025592
0.0265677
0.0274719
0.0283029
0.0290597
0.0297423
0.0303517
0.0308902
0.0313613
0.0317699
0.0321224
0.0324228
0.0326847
0.0329088
0.0331229
0.0333202
0.0335339
0.033737
0.0339933
0.0342386
0.0345976
0.0349167
0.0354674
0.0358786
0.0368055
0.037307
0.0391882
0.0401517
0.0110393
0.0104972
0.00905256
0.00534283
0.00148605
0.00068703
0.000921466
0.00127319
0.00170927
0.00225513
0.00285864
0.00349792
0.00410962
0.00467233
0.0051608
0.00556983
0.0059025
0.00622658
0.00672803
0.00765044
0.00905558
0.0107568
0.0125371
0.0142787
0.0159428
0.017524
0.0190274
0.0204592
0.021822
0.023117
0.0243453
0.0255057
0.0265964
0.0276149
0.0285589
0.0294262
0.0302155
0.0309266
0.0315604
0.0321188
0.0326056
0.0330253
0.033384
0.0336864
0.0339468
0.0341661
0.0343714
0.0345563
0.0347553
0.0349412
0.0351807
0.0354062
0.035751
0.036049
0.0365957
0.0369835
0.0379286
0.038394
0.0403095
0.0411216
0.010997
0.00990559
0.00890712
0.00615941
0.00223643
0.000785248
0.000975378
0.00133145
0.00178063
0.00234447
0.00297137
0.00363712
0.0042782
0.0048715
0.00539221
0.00583498
0.0062019
0.00655624
0.00707618
0.00800366
0.00941598
0.0111426
0.012966
0.0147606
0.0164812
0.0181193
0.0196785
0.0211644
0.0225791
0.0239244
0.0252011
0.0264079
0.0275427
0.0286027
0.0295852
0.0304878
0.0313087
0.0320475
0.0327048
0.0332824
0.033784
0.0342138
0.0345777
0.0348814
0.0351392
0.0353524
0.0355475
0.0357187
0.0359011
0.0360681
0.0362882
0.0364918
0.0368188
0.037094
0.0376315
0.0379953
0.03895
0.0393807
0.0413131
0.0419805
0.010959
0.00941219
0.00866733
0.00676755
0.00306694
0.000959425
0.00104059
0.00139245
0.00185126
0.00243081
0.00307929
0.00377044
0.00444056
0.00506506
0.0056194
0.00609776
0.00650053
0.00688547
0.00742206
0.00835002
0.00976271
0.0115074
0.0133679
0.0152108
0.0169842
0.018676
0.0202882
0.0218259
0.0232906
0.0246843
0.0260077
0.0272594
0.0284369
0.0295372
0.0305572
0.0314941
0.0323458
0.0331115
0.0337916
0.0343877
0.0349034
0.035342
0.0357106
0.0360147
0.0362692
0.0364752
0.036659
0.0368151
0.0369793
0.0371256
0.037324
0.0375039
0.0378098
0.0380605
0.0385841
0.0389231
0.0398799
0.0402765
0.0422109
0.0427406
0.010925
0.00900402
0.00837001
0.00717239
0.00387972
0.00129091
0.00112677
0.00145928
0.00192291
0.00251559
0.00318369
0.00389909
0.00459787
0.00525406
0.00584331
0.0063591
0.00679942
0.00721555
0.00776741
0.00869205
0.0100989
0.0118549
0.0137464
0.0156329
0.0174554
0.019198
0.0208607
0.022448
0.0239606
0.025401
0.0267695
0.0280647
0.0292836
0.0304231
0.0314795
0.0324498
0.0333314
0.0341233
0.0348256
0.0354396
0.0359685
0.0364151
0.0367877
0.0370918
0.037342
0.03754
0.0377112
0.0378511
0.0379956
0.0381198
0.0382943
0.0384487
0.0387306
0.0389551
0.0394606
0.0397735
0.0407257
0.0410886
0.043012
0.0434113
0.010895
0.00866836
0.00804436
0.00739356
0.00463096
0.00181066
0.00125051
0.00153649
0.00199779
0.00260047
0.00328592
0.00402431
0.00475117
0.00543942
0.00606474
0.00661974
0.00709935
0.00754751
0.00811378
0.00903194
0.0104275
0.0121882
0.0141049
0.0160301
0.0178981
0.0196885
0.0213993
0.0230338
0.0245925
0.0260778
0.0274899
0.028827
0.0300862
0.0312636
0.0323555
0.0333583
0.0342692
0.0350865
0.0358103
0.0364415
0.0369824
0.0374367
0.0378129
0.0381163
0.0383615
0.0385506
0.0387083
0.0388309
0.0389543
0.039055
0.0392036
0.0393308
0.0395861
0.0397825
0.0402662
0.0405519
0.0414933
0.0418223
0.043724
0.044
0.0108685
0.00839357
0.00771232
0.00745824
0.00528552
0.00248348
0.00143988
0.001631
0.00207882
0.00268743
0.0033875
0.00414737
0.00490156
0.00562201
0.00628438
0.00688025
0.00740096
0.00788223
0.00846252
0.00937171
0.010751
0.0125102
0.0144462
0.0164055
0.0183151
0.0201502
0.0219065
0.0235862
0.025189
0.0267174
0.0281715
0.0295492
0.0308472
0.0320615
0.0331878
0.0342222
0.0351615
0.0360035
0.0367483
0.0373955
0.0379479
0.0384095
0.0387888
0.039091
0.0393306
0.0395099
0.0396533
0.0397576
0.0398587
0.0399345
0.0400556
0.0401538
0.04038
0.0405467
0.0410052
0.0412621
0.0421874
0.0424823
0.0443528
0.044513
0.0108453
0.00816943
0.00738946
0.00739681
0.0058182
0.00323263
0.00174325
0.00175358
0.00217003
0.00277896
0.00349019
0.0042697
0.00505016
0.00580274
0.00650289
0.00714113
0.00770476
0.00822048
0.00881485
0.00971316
0.0110719
0.0128236
0.0147731
0.0167615
0.0187089
0.0205857
0.0223849
0.0241073
0.0257523
0.0273221
0.0288166
0.0302333
0.0315688
0.0328188
0.0339785
0.0350435
0.0360103
0.0368764
0.0376411
0.0383033
0.0388668
0.0393354
0.0397174
0.0400179
0.0402512
0.04042
0.0405482
0.0406334
0.0407111
0.0407607
0.0408527
0.0409205
0.0411155
0.0412507
0.0416807
0.0419076
0.0428117
0.0430719
0.0449035
0.0449552
0.0108249
0.00798714
0.00708606
0.00723968
0.00621528
0.00398828
0.00218999
0.00192081
0.00227716
0.00287826
0.00359611
0.00439296
0.00519827
0.00598255
0.00672092
0.00740286
0.00801117
0.00856291
0.00917188
0.010058
0.0113922
0.0131308
0.015088
0.0171006
0.0190818
0.020997
0.0228365
0.0245994
0.0262844
0.0278937
0.0294268
0.0308811
0.0322527
0.033537
0.034729
0.0358237
0.0368171
0.0377063
0.0384896
0.0391664
0.0397406
0.0402158
0.0406
0.0408982
0.0411247
0.0412825
0.0413948
0.04146
0.0415133
0.0415357
0.0415972
0.041633
0.0417948
0.0418968
0.0422956
0.0424909
0.0433693
0.0435944
0.0453802
0.0453308
0.0108072
0.00783932
0.00680826
0.00701523
0.00647401
0.00469677
0.00276632
0.0021574
0.00240845
0.00298959
0.00370787
0.00451907
0.00534732
0.00616255
0.00693922
0.00766588
0.00832057
0.00891009
0.00953464
0.0104078
0.0117143
0.0134344
0.0153935
0.0174253
0.0194361
0.0213864
0.0232632
0.0250641
0.026787
0.0284339
0.0300038
0.0314939
0.0329002
0.0342175
0.0354405
0.0365638
0.0375828
0.0384938
0.0392947
0.0399858
0.0405702
0.0410515
0.0414375
0.0417332
0.0419524
0.0420985
0.0421942
0.0422387
0.0422668
0.0422608
0.0422905
0.0422931
0.0424198
0.0424871
0.042852
0.0430143
0.0438629
0.0440522
0.0457865
0.0456435
0.0107918
0.00771976
0.00655909
0.00674844
0.00660087
0.00531825
0.0034254
0.00249506
0.00257586
0.00311865
0.00382882
0.0046504
0.00549905
0.00634398
0.00715862
0.00793071
0.00863334
0.00926255
0.00990406
0.0107642
0.0120402
0.0137366
0.0156919
0.0177376
0.0197738
0.0217556
0.0236668
0.0255032
0.0272617
0.0289441
0.0305489
0.0320731
0.0335124
0.0348613
0.036114
0.0372647
0.0383079
0.0392392
0.0400573
0.040762
0.0413563
0.0418434
0.0422308
0.0425233
0.0427348
0.0428687
0.0429473
0.0429703
0.0429724
0.0429373
0.042934
0.0429021
0.042992
0.0430231
0.0433517
0.0434795
0.0442947
0.0444475
0.0461258
0.0458964
0.0107784
0.00762335
0.0063393
0.00646017
0.00660942
0.00582548
0.00411728
0.00295324
0.00279651
0.00327317
0.00396321
0.00478982
0.0056555
0.00652833
0.00738011
0.00819793
0.00894982
0.00962074
0.010281
0.0111285
0.0123718
0.0140399
0.0159856
0.01804
0.020097
0.0221066
0.0240492
0.0259182
0.0277099
0.0294256
0.0310633
0.0326197
0.0340903
0.0354692
0.0367502
0.0379268
0.0389924
0.0399433
0.0407779
0.0414958
0.0420994
0.0425917
0.04298
0.0432691
0.0434724
0.0435936
0.0436546
0.0436556
0.043631
0.0435658
0.0435286
0.043461
0.0435127
0.0435061
0.0437963
0.0438881
0.0446666
0.0447824
0.0464008
0.0460921
0.0107668
0.00754585
0.00614816
0.00616697
0.00651799
0.00620257
0.00479512
0.0035234
0.00309387
0.00346353
0.00411662
0.00494091
0.00581918
0.00671741
0.00760489
0.00846825
0.00927042
0.00998509
0.0106663
0.011502
0.0127111
0.0143465
0.016277
0.0183346
0.0204078
0.0224412
0.0244118
0.0263106
0.0281329
0.0298796
0.031548
0.0331347
0.0346347
0.036042
0.0373497
0.0385497
0.0396367
0.0406064
0.0414568
0.0421872
0.0427996
0.0432967
0.0436856
0.0439708
0.0441655
0.0442736
0.0443165
0.044295
0.0442431
0.0441471
0.0440751
0.0439707
0.0439829
0.0439374
0.0441871
0.0442417
0.0449803
0.0450585
0.0466139
0.0462332
0.0107568
0.00748379
0.00598395
0.00588124
0.00634744
0.00644387
0.00541801
0.00417267
0.00349009
0.00370338
0.0042963
0.00510812
0.00599309
0.00691334
0.00783441
0.00874252
0.00959559
0.010356
0.0110607
0.0118862
0.0130599
0.0146586
0.0165685
0.0186237
0.0207082
0.0227613
0.0247565
0.0266819
0.0285321
0.0303072
0.032004
0.0336188
0.0351464
0.0365802
0.0379118
0.0391341
0.0402413
0.0412289
0.0420943
0.0428365
0.0434571
0.0439586
0.0443475
0.0446285
0.0448142
0.0449088
0.0449332
0.0448888
0.0448092
0.0446817
0.0445741
0.0444321
0.0444035
0.0443178
0.0445253
0.0445413
0.0452373
0.0452776
0.0467675
0.0463217
0.0107481
0.0074343
0.00584438
0.00561169
0.0061191
0.00655274
0.00595252
0.00485775
0.0039921
0.00401057
0.0045117
0.00529699
0.00618095
0.00711871
0.00807042
0.00902182
0.00992587
0.0107337
0.0114646
0.0122821
0.01342
0.0149786
0.0168623
0.0189095
0.0210002
0.0230687
0.0250847
0.0270336
0.0289087
0.0307097
0.0324324
0.034073
0.035626
0.0370832
0.038437
0.0396801
0.0408064
0.0418108
0.0426905
0.0434437
0.0440719
0.0445772
0.0449658
0.0452421
0.0454185
0.0454993
0.0455049
0.0454372
0.0453293
0.0451699
0.045026
0.0448455
0.0447752
0.0446482
0.0448118
0.0447881
0.0454391
0.045441
0.0468637
0.0463595
0.0107405
0.00739506
0.00572692
0.00536386
0.00585325
0.00653996
0.0063738
0.00553388
0.00458746
0.00440107
0.00477599
0.00551438
0.00638727
0.00733661
0.00831503
0.00930743
0.0102619
0.0111187
0.0118788
0.0126908
0.0137932
0.0153085
0.0171609
0.0191943
0.0212859
0.0233652
0.0253981
0.027367
0.0292638
0.0310879
0.0328339
0.0344978
0.0360728
0.0375514
0.0389258
0.0401883
0.0413323
0.0423525
0.0432453
0.0440088
0.0446439
0.0451524
0.0455402
0.0458115
0.0459783
0.0460451
0.0460316
0.0459402
0.0458039
0.045612
0.0454313
0.0452117
0.0450986
0.0449293
0.0450476
0.0449831
0.045587
0.0455501
0.0469042
0.0463484
0.010734
0.00736415
0.00562897
0.00514078
0.00556788
0.00642194
0.00666617
0.0061597
0.00524775
0.00488243
0.00510272
0.00577058
0.00661758
0.00757072
0.00857077
0.00960091
0.0106044
0.0115113
0.0123035
0.0131133
0.0141812
0.0156505
0.0174665
0.0194804
0.0215674
0.0236526
0.0256982
0.0276835
0.0295988
0.031443
0.033209
0.0348927
0.0364875
0.0379854
0.0393785
0.0406588
0.0418191
0.0428537
0.0437587
0.0445316
0.045173
0.0456841
0.0460707
0.0463367
0.0464936
0.0465459
0.0465132
0.046398
0.0462328
0.0460082
0.0457902
0.0455309
0.0453742
0.0451618
0.0452336
0.0451272
0.0456821
0.0456063
0.046891
0.0462899
0.0107283
0.00734002
0.00554804
0.00494353
0.00527801
0.00621871
0.00682333
0.00669969
0.00593476
0.00545083
0.00550329
0.0060749
0.00688007
0.00782632
0.00884061
0.00990414
0.0109545
0.0119117
0.012739
0.0135503
0.0145853
0.0160068
0.0177815
0.01977
0.0218467
0.0239328
0.0259866
0.0279846
0.0299148
0.0317748
0.0335577
0.0352586
0.0368706
0.0383857
0.0397955
0.0410917
0.0422669
0.0433147
0.0442307
0.045012
0.0456589
0.0461721
0.046557
0.0468172
0.046964
0.0470018
0.0469496
0.0468103
0.0466162
0.0463586
0.046103
0.0458034
0.0456027
0.0453464
0.0453704
0.0452214
0.0457256
0.0456108
0.0468255
0.0461855
0.0107234
0.00732138
0.00548178
0.00477179
0.00499543
0.00595197
0.0068479
0.00712571
0.00660685
0.0060891
0.0059845
0.00643688
0.00718192
0.00810941
0.00912977
0.0102193
0.0113131
0.0123203
0.0131854
0.0140023
0.0150069
0.0163793
0.0181081
0.0200653
0.0221259
0.0242076
0.0262648
0.0282705
0.0302117
0.0320842
0.0338808
0.035596
0.0372227
0.0387525
0.040177
0.0414873
0.0426756
0.0437351
0.0446609
0.0454498
0.0461014
0.046616
0.0469988
0.0472529
0.0473893
0.0474124
0.0473407
0.0471773
0.0469541
0.0466634
0.0463699
0.0460298
0.0457843
0.0454836
0.0454589
0.0452665
0.0457185
0.0455649
0.0467094
0.0460364
0.0107191
0.00730719
0.00542806
0.00462427
0.00472872
0.00564321
0.00675039
0.00741804
0.00722349
0.00676848
0.0065449
0.00686462
0.00753068
0.00842547
0.00944252
0.0105511
0.0116819
0.0127374
0.0136426
0.0144695
0.015447
0.0167698
0.0184483
0.020368
0.0224064
0.0244781
0.0265336
0.0285426
0.0304909
0.0323722
0.0341792
0.0359057
0.0375442
0.0390863
0.0405231
0.0418455
0.0430452
0.0441149
0.0450494
0.0458447
0.0465001
0.0470156
0.0473957
0.0476434
0.0477692
0.0477774
0.0476862
0.0474986
0.0472464
0.0469224
0.0465909
0.04621
0.0459195
0.0455738
0.0454997
0.0452633
0.0456619
0.0454695
0.0465441
0.0458441
0.0107153
0.00729659
0.00538496
0.00449912
0.00448354
0.00531229
0.00654765
0.00756616
0.00774823
0.00745264
0.00717244
0.0073624
0.00793334
0.00878019
0.00978304
0.0109024
0.0120641
0.0131644
0.0141105
0.0149516
0.0159056
0.0171787
0.0188033
0.0206798
0.02269
0.0247459
0.0267944
0.0288022
0.0307533
0.0326397
0.0344536
0.0361881
0.0378356
0.0393873
0.040834
0.0421664
0.0433756
0.0444539
0.0453956
0.0461963
0.0468547
0.0473704
0.0477474
0.0479884
0.0481035
0.0480967
0.0479859
0.0477742
0.047493
0.0471358
0.0467664
0.0463446
0.0460086
0.0456177
0.0454934
0.0452126
0.0455568
0.0453259
0.046331
0.0456095
0.0107121
0.00728887
0.00535082
0.00439414
0.00426309
0.0049763
0.00626082
0.00756893
0.00815094
0.00810206
0.00784432
0.00792813
0.00839498
0.00917899
0.0101556
0.0112762
0.0124615
0.0136021
0.0145889
0.0154478
0.0163823
0.0176067
0.0191743
0.0210025
0.0229784
0.0250127
0.0270489
0.0290506
0.0310001
0.0328876
0.0347046
0.0364438
0.0380972
0.0396557
0.0411098
0.0424498
0.0436666
0.0447519
0.0456994
0.0465044
0.0471649
0.04768
0.0480535
0.0482875
0.0483916
0.0483699
0.0482395
0.0480039
0.0476938
0.0473036
0.0468962
0.0464335
0.0460521
0.0456156
0.0454407
0.0451151
0.0454041
0.0451351
0.0460713
0.0453338
0.0107092
0.00728347
0.00532418
0.00430705
0.0040686
0.00464902
0.00591326
0.00743424
0.00840948
0.00867775
0.00852908
0.00855129
0.00891699
0.00962612
0.010564
0.0116754
0.012876
0.0140513
0.0150776
0.0159575
0.0168766
0.0180538
0.0195624
0.0213375
0.0232732
0.02528
0.0272982
0.0292889
0.0312322
0.0331166
0.0349329
0.0366733
0.0383292
0.0398915
0.0413504
0.0426957
0.043918
0.0450085
0.0459604
0.0467684
0.0474301
0.0479441
0.0483135
0.0485402
0.0486334
0.0485967
0.0484469
0.0481874
0.0478487
0.0474256
0.0469805
0.0464771
0.0460501
0.0455681
0.0453422
0.0449716
0.0452048
0.0448982
0.0457664
0.0450181
0.0107068
0.0072799
0.00530375
0.00423559
0.00389983
0.00434065
0.00552838
0.00717786
0.00851097
0.00914422
0.00918986
0.00921229
0.00949519
0.0101235
0.0110114
0.0121027
0.0133093
0.0145126
0.0155762
0.0164795
0.0173876
0.01852
0.0199682
0.0216858
0.0235756
0.0255491
0.0275437
0.0295181
0.0314504
0.0333273
0.035139
0.0368767
0.0385318
0.0400948
0.0415556
0.0429038
0.0441294
0.0452233
0.0461782
0.046988
0.0476499
0.0481621
0.048527
0.0487462
0.0488282
0.0487766
0.0486076
0.0483246
0.0479576
0.047502
0.0470194
0.0464754
0.0460031
0.0454755
0.0451985
0.0447828
0.0449598
0.0446162
0.0454173
0.0446633
0.0107046
0.00727778
0.00528848
0.00417761
0.00375549
0.00405804
0.00512791
0.00682174
0.00845252
0.00947182
0.00978783
0.00988342
0.0101183
0.0106695
0.0114992
0.0125598
0.0137627
0.0149865
0.0160841
0.0170124
0.0179139
0.0190045
0.0203918
0.0220483
0.0238868
0.025821
0.0277862
0.029739
0.0316554
0.0335203
0.035323
0.0370543
0.038705
0.0402655
0.0417253
0.0430738
0.0443006
0.045396
0.0463521
0.0471625
0.0478238
0.0483334
0.0486934
0.0489049
0.0489758
0.0489094
0.0487215
0.0484152
0.0480203
0.0475325
0.0470129
0.0464287
0.0459113
0.0453383
0.0450101
0.0445494
0.0446699
0.0442901
0.0450254
0.0442703
0.0107027
0.00727679
0.00527741
0.00413114
0.00363369
0.00380502
0.0047305
0.00639177
0.00824135
0.00963878
0.0102853
0.0105309
0.0107675
0.0112572
0.012026
0.0130471
0.0142369
0.015473
0.0166002
0.0175544
0.0184535
0.0195059
0.0208327
0.0224251
0.0242074
0.0260966
0.0280266
0.0299523
0.0318476
0.0336959
0.0354853
0.0372061
0.0388487
0.0404033
0.0418592
0.0432053
0.0444309
0.0455259
0.0464817
0.0472915
0.0479511
0.0484576
0.0488123
0.0490158
0.0490756
0.0489946
0.048788
0.048459
0.0480366
0.0475173
0.0469611
0.0463372
0.045775
0.045157
0.0447777
0.0442722
0.0443361
0.0439209
0.0445916
0.0438401
0.010701
0.00727668
0.00526978
0.00409442
0.00353215
0.00358303
0.0043509
0.00591531
0.00789399
0.00963285
0.0106485
0.0111178
0.0114167
0.0118737
0.012587
0.0135632
0.0147311
0.0159714
0.0171233
0.0181033
0.0190038
0.0200221
0.0212897
0.0228159
0.0245375
0.0263762
0.0282651
0.0301583
0.0320273
0.0338541
0.0356257
0.0373319
0.0389627
0.0405079
0.0419567
0.0432977
0.0445198
0.0456124
0.0465664
0.0473742
0.0480313
0.0485339
0.0488829
0.0490784
0.0491272
0.0490318
0.0488069
0.0484556
0.0480063
0.047456
0.046864
0.0462009
0.0455944
0.0449318
0.0445017
0.0439518
0.0439593
0.0435096
0.0441171
0.0433735
0.0106995
0.00727723
0.00526491
0.00406588
0.0034485
0.00339164
0.00399967
0.00541882
0.00743471
0.00945241
0.0108497
0.0116066
0.0120343
0.0124999
0.0131725
0.0141036
0.0152432
0.0164799
0.017651
0.018656
0.0195614
0.0205503
0.0217609
0.0232196
0.0248767
0.0266597
0.028502
0.030357
0.0321945
0.0339948
0.035744
0.0374313
0.0390463
0.0405787
0.0420172
0.0433504
0.0445666
0.0456547
0.0466053
0.04741
0.0480635
0.0485618
0.0489047
0.0490921
0.0491299
0.0490205
0.0487778
0.0484048
0.0479293
0.0473488
0.0467215
0.0460201
0.0453699
0.0446634
0.0441828
0.043589
0.0435403
0.0430572
0.043603
0.0428714
0.0106983
0.00727828
0.00526224
0.00404414
0.00338039
0.00322917
0.00368337
0.0049258
0.00689316
0.00910683
0.01087
0.0119619
0.0125851
0.0131103
0.0137677
0.0146603
0.0157687
0.0169954
0.0181803
0.0192089
0.0201224
0.0210867
0.0222434
0.0236344
0.0252238
0.0269462
0.0287365
0.0305479
0.0323486
0.0341174
0.0358397
0.0375037
0.039099
0.0406149
0.04204
0.0433625
0.0445704
0.0456521
0.0465975
0.0473979
0.048047
0.0485403
0.048877
0.0490562
0.0490833
0.0489603
0.0487003
0.0483062
0.0478053
0.0471954
0.0465337
0.0457948
0.0451017
0.0443519
0.0438215
0.0431843
0.0430799
0.0425646
0.0430502
0.0423346
0.0106971
0.0072797
0.0052613
0.00402802
0.00332562
0.00309313
0.0034051
0.00445532
0.00630155
0.00861599
0.0107003
0.0121533
0.0130327
0.0136746
0.0143523
0.0152213
0.0163002
0.0175128
0.0187066
0.0197573
0.0206817
0.0216264
0.0227331
0.0240574
0.0255769
0.0272345
0.0289678
0.0307302
0.0324888
0.0342212
0.0359118
0.0375482
0.0391198
0.0406155
0.042024
0.0433329
0.0445301
0.0456034
0.0465422
0.047337
0.047981
0.0484687
0.0487989
0.04897
0.0489867
0.0488505
0.0485739
0.0481596
0.0476342
0.0469957
0.0463007
0.0455251
0.0447901
0.0439979
0.0434183
0.0427387
0.0425791
0.0420328
0.0424598
0.0417639
0.0106961
0.00728137
0.00526171
0.0040165
0.00328216
0.00298065
0.00316516
0.00402132
0.00569159
0.00800866
0.0103434
0.0121577
0.0133421
0.0141593
0.014901
0.0157696
0.016827
0.0180247
0.0192241
0.0202953
0.0212332
0.0221636
0.0232252
0.0244845
0.0259331
0.0275223
0.029194
0.0309024
0.0326138
0.0343048
0.035959
0.0375636
0.0391074
0.0405794
0.0419679
0.0432605
0.0444446
0.0455076
0.0464382
0.0472262
0.0478643
0.0483461
0.0486697
0.0488328
0.0488396
0.0486907
0.0483983
0.0479646
0.0474156
0.0467497
0.0460223
0.0452112
0.0444353
0.0436017
0.0429738
0.0422526
0.0420386
0.0414627
0.0418328
0.0411601
0.0106952
0.00728321
0.00526314
0.00400869
0.0032482
0.00288876
0.00296186
0.00363251
0.00509176
0.00731991
0.00981401
0.0119613
0.0134822
0.0145297
0.0153843
0.0162839
0.0173345
0.0185211
0.0197247
0.0208156
0.0217695
0.0226912
0.0237131
0.0249106
0.0262882
0.0278065
0.0294125
0.0310622
0.0327216
0.0343665
0.0359797
0.037548
0.0390601
0.0405048
0.0418702
0.0431437
0.0443124
0.0453632
0.0462841
0.0470645
0.0476959
0.0481715
0.0484885
0.0486439
0.048641
0.0484803
0.0481728
0.0477208
0.0471493
0.0464571
0.0456986
0.0448533
0.0440375
0.0431638
0.0424885
0.0417268
0.0414593
0.0408552
0.0411702
0.040524
0.0106945
0.00728516
0.00526533
0.00400386
0.00322215
0.00281457
0.00279222
0.00329292
0.00452523
0.00658774
0.0091384
0.011562
0.0134282
0.014752
0.0157703
0.016739
0.0178043
0.0189885
0.0201982
0.0213092
0.0222821
0.0232008
0.0241893
0.0253293
0.0266369
0.0280828
0.02962
0.0312068
0.0328096
0.0344037
0.0359715
0.0374995
0.038976
0.0403898
0.041729
0.0429808
0.0441319
0.0451687
0.0460787
0.0468503
0.0474746
0.0479438
0.0482542
0.0484023
0.0483905
0.0482186
0.0478971
0.0474277
0.046835
0.0461178
0.0453296
0.0444513
0.0435971
0.0426844
0.041963
0.041162
0.040842
0.0402113
0.0404729
0.0398563
0.0106938
0.00728717
0.00526808
0.0040014
0.00320261
0.00275537
0.00265259
0.00300277
0.00400863
0.0058494
0.00835236
0.0109702
0.0131642
0.0147961
0.016026
0.017106
0.0182142
0.0194107
0.0206319
0.0217651
0.0227606
0.0236826
0.0246448
0.0257325
0.0269729
0.0283458
0.0298118
0.0313322
0.0328743
0.0344135
0.0359318
0.0374154
0.0388527
0.0402323
0.0415423
0.0427699
0.0439012
0.0449224
0.0458202
0.0465824
0.047199
0.0476617
0.0479658
0.0481071
0.048087
0.047905
0.0475705
0.0470851
0.0464724
0.0457318
0.0449152
0.0440055
0.0431142
0.0421641
0.0413979
0.0405589
0.0401877
0.039532
0.0397419
0.0391579
0.0106932
0.00728919
0.0052712
0.00400077
0.00318839
0.00270876
0.00253907
0.00275951
0.00355188
0.00513787
0.00749818
0.0102095
0.0126855
0.0146374
0.0161198
0.0173547
0.018539
0.0197677
0.0210101
0.0221704
0.0231932
0.0241253
0.0250691
0.0261112
0.027288
0.0285889
0.0299824
0.0314336
0.0329116
0.0343921
0.035857
0.0372926
0.0386871
0.0400294
0.0413076
0.0425084
0.0436182
0.0446222
0.0455069
0.0462589
0.0468678
0.047324
0.0476222
0.0477572
0.0477299
0.0475387
0.0471925
0.0466925
0.0460613
0.0452987
0.0444553
0.0435159
0.0425892
0.0416032
0.0407935
0.0399182
0.039497
0.038818
0.0389782
0.0384294
0.0106927
0.0072912
0.00527458
0.00400156
0.00317848
0.0026726
0.00244785
0.0025589
0.00315878
0.00447913
0.00662045
0.00931588
0.0120004
0.0142603
0.0160234
0.0174542
0.018751
0.020037
0.0213149
0.0225099
0.0235663
0.0245162
0.0254502
0.0264543
0.0275728
0.0288041
0.0301249
0.0315053
0.0329164
0.0343349
0.0357431
0.0371273
0.038476
0.0397781
0.0410218
0.0421939
0.0432803
0.0442661
0.0451366
0.0458782
0.0464791
0.0469293
0.0472221
0.0473517
0.047318
0.047119
0.0467624
0.0462493
0.0456013
0.0448184
0.04395
0.0429826
0.0420222
0.0410021
0.0401506
0.0392405
0.0387709
0.0380704
0.0381826
0.0376717
0.0106922
0.00729318
0.0052781
0.00400341
0.003172
0.00264501
0.00237538
0.00239579
0.00282826
0.00389072
0.00576148
0.00833439
0.0111314
0.01366
0.0157145
0.0173756
0.0188217
0.0201936
0.0215255
0.0227662
0.0238644
0.0248409
0.0257747
0.0267498
0.0278166
0.028982
0.0302313
0.0315401
0.0328825
0.0342365
0.0355851
0.036915
0.0382151
0.0394745
0.0406816
0.0418232
0.0428849
0.0438514
0.0447073
0.0454382
0.0460314
0.0464759
0.0467641
0.0468894
0.0468506
0.046645
0.0462797
0.0457551
0.045092
0.0442907
0.0433993
0.0424057
0.0414135
0.0403612
0.0394697
0.0385266
0.0380102
0.0372901
0.0373563
0.0368855
0.0106918
0.0072951
0.00528169
0.00400604
0.00316824
0.00262442
0.0023185
0.00226484
0.00255587
0.0033816
0.00495705
0.00731568
0.0101148
0.0128449
0.0151795
0.0170937
0.0187229
0.0202115
0.0216192
0.0229197
0.0240702
0.0250834
0.0260277
0.0269839
0.0280071
0.0291118
0.0302924
0.0315301
0.0328028
0.0340905
0.0353774
0.0366508
0.0379
0.0391147
0.0402834
0.041393
0.0424289
0.0433754
0.0442164
0.0449367
0.0455226
0.0459621
0.0462468
0.0463689
0.0463265
0.046116
0.0457436
0.0452094
0.0445332
0.0437154
0.0428029
0.0417854
0.0407634
0.0396808
0.0387512
0.0377771
0.0372158
0.0364781
0.0365001
0.0360717
0.0106915
0.00729696
0.00528528
0.00400922
0.0031666
0.00260948
0.00227444
0.00216093
0.00233517
0.00295319
0.00423328
0.00631035
0.00899874
0.0118385
0.0144158
0.0165897
0.0184291
0.0200644
0.0215722
0.0229495
0.0241648
0.0252263
0.026193
0.0271416
0.0281307
0.0291816
0.0302975
0.0314659
0.0326692
0.0338899
0.0351136
0.0363287
0.0375254
0.0386937
0.0398227
0.0408993
0.0419088
0.042835
0.0436613
0.0443713
0.0449507
0.0453863
0.0456686
0.0457891