/*--------------------------------*- C++ -*----------------------------------*\
| =========                 |                                                 |
| \\      /  F ield         | OpenFOAM: The Open Source CFD Toolbox           |
|  \\    /   O peration     | Version:  2.4.0                                 |
|   \\  /    A nd           | Web:      www.OpenFOAM.org                      |
|    \\/     M anipulation  |                                                 |
\*---------------------------------------------------------------------------*/
FoamFile
{
    version     2.0;
    format      ascii;
    class       volScalarField;
    location    "0.37";
    object      k;
}
// * * * * * * * * * * * * * * * * * * * * * * * * * * * * * * * * * * * * * //

dimensions      [0 2 -2 0 0 0 0];

internalField   nonuniform List<scalar> 
6000
(
0.00510096
0.00645279
0.0077127
0.00881058
0.00970891
0.0103986
0.0108912
0.0112113
0.0113901
0.0114598
0.0114505
0.0113884
0.0112951
0.0111877
0.0110781
0.0109741
0.0108796
0.0107955
0.0107208
0.0106541
0.0105938
0.0105391
0.0104897
0.0104455
0.010407
0.0103744
0.0103477
0.0103266
0.0103106
0.0102989
0.0102907
0.010285
0.010281
0.0102779
0.0102753
0.0102727
0.0102697
0.0102662
0.0102617
0.010256
0.0102488
0.0102396
0.0102277
0.0102124
0.0101928
0.0101675
0.0101349
0.0100928
0.0100386
0.00996868
0.00987823
0.00976108
0.00960895
0.0094105
0.00915043
0.00880587
0.00834883
0.00772402
0.00693296
0.00571288
0.0035494
0.00344487
0.00340551
0.00341535
0.0034585
0.00352199
0.00359789
0.00368205
0.0037724
0.0038679
0.00396781
0.00407113
0.00417624
0.0042808
0.00438196
0.00447666
0.00456206
0.00463581
0.00469623
0.00474222
0.00477313
0.00478873
0.00478921
0.00477542
0.00474904
0.00471277
0.00467009
0.00462493
0.00458101
0.00454134
0.00450785
0.0044813
0.00446152
0.00444764
0.0044385
0.00443295
0.00442999
0.00442891
0.00442926
0.00443082
0.00443352
0.00443747
0.00444286
0.00445004
0.00445945
0.00447173
0.00448771
0.00450853
0.00453572
0.00457135
0.00461831
0.00468071
0.00476457
0.00487908
0.00503893
0.00526862
0.00561203
0.00614671
0.00700794
0.00912907
0.00348321
0.00325647
0.00306425
0.00290017
0.00275851
0.00263412
0.00252315
0.00242327
0.00233325
0.00225257
0.0021811
0.00211884
0.00206576
0.00202165
0.00198616
0.00195869
0.00193842
0.0019243
0.00191512
0.0019096
0.00190653
0.00190482
0.00190352
0.00190183
0.00189901
0.0018945
0.00188797
0.00187942
0.00186922
0.00185807
0.00184681
0.00183626
0.00182701
0.00181939
0.00181348
0.00180912
0.00180609
0.00180414
0.00180305
0.00180267
0.0018029
0.00180371
0.00180514
0.00180726
0.0018102
0.00181417
0.00181947
0.00182653
0.00183596
0.00184865
0.00186593
0.00188981
0.00192348
0.00197217
0.00204499
0.0021583
0.00234475
0.00266323
0.00326597
0.00451664
0.00347969
0.00324256
0.00303442
0.00285067
0.00268757
0.0025419
0.00241087
0.00229216
0.0021839
0.0020846
0.00199312
0.00190857
0.00183029
0.00175778
0.00169066
0.00162866
0.00157156
0.00151919
0.00147141
0.00142807
0.00138904
0.00135421
0.00132347
0.00129668
0.00127361
0.00125394
0.00123728
0.00122317
0.0012112
0.00120101
0.00119236
0.00118508
0.00117902
0.0011741
0.00117019
0.00116718
0.00116493
0.00116331
0.00116221
0.00116154
0.00116124
0.00116126
0.00116159
0.00116222
0.0011632
0.00116459
0.00116647
0.00116899
0.00117236
0.00117687
0.00118297
0.00119134
0.00120306
0.00121996
0.00124533
0.00128544
0.00135395
0.00147855
0.00174779
0.0023115
0.00347951
0.00324163
0.00303199
0.00284603
0.00268015
0.00253139
0.00239731
0.00227586
0.00216532
0.00206425
0.00197146
0.00188592
0.00180681
0.00173341
0.00166515
0.00160157
0.00154231
0.00148708
0.00143568
0.001388
0.00134397
0.00130357
0.00126683
0.00123378
0.00120442
0.00117872
0.00115655
0.00113773
0.00112199
0.001109
0.00109841
0.00108988
0.00108308
0.00107771
0.00107353
0.00107031
0.00106787
0.00106605
0.00106473
0.00106378
0.00106314
0.00106273
0.00106252
0.00106245
0.00106253
0.00106275
0.00106312
0.00106367
0.00106445
0.00106555
0.0010671
0.00106934
0.00107262
0.00107759
0.0010854
0.00109825
0.00112093
0.0011644
0.00126406
0.00150005
0.0034795
0.00324152
0.00303169
0.00284547
0.00267924
0.00253007
0.00239558
0.00227374
0.00216292
0.00206169
0.0019689
0.00188353
0.00180474
0.00173181
0.00166414
0.00160122
0.00154264
0.00148808
0.00143731
0.00139015
0.00134649
0.0013063
0.00126955
0.00123625
0.00120638
0.00117992
0.0011568
0.00113689
0.00112
0.00110589
0.00109429
0.00108488
0.00107735
0.00107141
0.00106679
0.00106324
0.00106054
0.00105853
0.00105704
0.00105596
0.00105519
0.00105464
0.00105427
0.00105403
0.00105388
0.00105381
0.0010538
0.00105385
0.00105399
0.00105423
0.00105464
0.0010553
0.00105639
0.0010582
0.00106125
0.00106648
0.00107573
0.00109348
0.00113085
0.00123066
0.00347949
0.00324148
0.00303159
0.00284531
0.00267901
0.00252978
0.0023952
0.00227331
0.00216244
0.0020612
0.00196844
0.00188316
0.00180451
0.00173178
0.00166438
0.00160178
0.00154357
0.00148943
0.00143909
0.0013924
0.00134921
0.00130947
0.00127313
0.00124017
0.00121057
0.00118427
0.0011612
0.00114122
0.00112417
0.00110982
0.00109794
0.00108824
0.00108044
0.00107426
0.00106943
0.00106572
0.0010629
0.00106079
0.00105923
0.00105809
0.00105728
0.0010567
0.00105629
0.00105601
0.00105583
0.00105571
0.00105564
0.00105562
0.00105566
0.00105577
0.00105599
0.00105639
0.0010571
0.00105833
0.00106043
0.00106405
0.0010702
0.00108124
0.00110011
0.00114926
0.00347949
0.00324145
0.00303152
0.0028452
0.00267887
0.0025296
0.00239499
0.00227307
0.00216217
0.00206093
0.00196816
0.0018829
0.00180428
0.00173161
0.00166427
0.00160177
0.00154368
0.00148968
0.00143951
0.00139299
0.00134999
0.00131045
0.00127432
0.00124155
0.00121212
0.00118597
0.00116301
0.0011431
0.00112608
0.00111172
0.00109979
0.00109003
0.00108217
0.00107592
0.00107103
0.00106726
0.0010644
0.00106225
0.00106067
0.00105952
0.00105869
0.00105811
0.0010577
0.00105742
0.00105723
0.00105712
0.00105706
0.00105705
0.00105709
0.00105721
0.00105745
0.00105786
0.00105858
0.00105979
0.00106185
0.00106529
0.00107098
0.00108068
0.00109522
0.00112726
0.00347949
0.00324143
0.00303147
0.00284512
0.00267876
0.00252946
0.00239483
0.00227288
0.00216197
0.0020607
0.00196793
0.00188265
0.00180404
0.00173137
0.00166404
0.00160156
0.0015435
0.00148953
0.00143941
0.00139295
0.00135002
0.00131054
0.00127448
0.00124179
0.00121244
0.00118636
0.00116345
0.00114359
0.0011266
0.00111227
0.00110036
0.0010906
0.00108272
0.00107646
0.00107156
0.00106779
0.00106491
0.00106276
0.00106118
0.00106002
0.00105919
0.0010586
0.0010582
0.00105792
0.00105774
0.00105763
0.00105758
0.00105758
0.00105764
0.00105778
0.00105804
0.00105848
0.00105924
0.00106051
0.00106261
0.0010661
0.00107179
0.00108124
0.00109507
0.00112144
0.00347949
0.00324142
0.00303143
0.00284505
0.00267866
0.00252934
0.00239469
0.00227272
0.00216179
0.00206051
0.00196773
0.00188244
0.00180382
0.00173114
0.00166382
0.00160133
0.00154328
0.00148932
0.00143921
0.00139276
0.00134985
0.0013104
0.00127436
0.0012417
0.00121238
0.00118633
0.00116346
0.00114363
0.00112666
0.00111235
0.00110046
0.00109071
0.00108284
0.00107659
0.00107169
0.00106792
0.00106505
0.0010629
0.00106131
0.00106015
0.00105932
0.00105874
0.00105833
0.00105806
0.00105788
0.00105777
0.00105772
0.00105773
0.0010578
0.00105795
0.00105822
0.00105868
0.00105945
0.00106074
0.00106287
0.00106636
0.00107201
0.00108126
0.00109487
0.00111879
0.00347949
0.00324141
0.0030314
0.002845
0.00267859
0.00252924
0.00239457
0.00227258
0.00216164
0.00206035
0.00196755
0.00188225
0.00180362
0.00173094
0.00166361
0.00160112
0.00154307
0.00148911
0.001439
0.00139256
0.00134966
0.00131022
0.0012742
0.00124156
0.00121225
0.00118622
0.00116337
0.00114356
0.00112661
0.00111232
0.00110043
0.0010907
0.00108285
0.0010766
0.00107171
0.00106794
0.00106507
0.00106292
0.00106134
0.00106018
0.00105935
0.00105877
0.00105836
0.00105809
0.00105791
0.00105781
0.00105776
0.00105777
0.00105784
0.00105799
0.00105826
0.00105873
0.00105951
0.00106079
0.00106291
0.00106636
0.00107189
0.00108084
0.00109407
0.00111617
0.00347949
0.0032414
0.00303137
0.00284495
0.00267852
0.00252916
0.00239447
0.00227247
0.00216151
0.00206021
0.0019674
0.00188209
0.00180345
0.00173076
0.00166343
0.00160094
0.00154288
0.00148893
0.00143882
0.00139238
0.00134949
0.00131006
0.00127404
0.00124141
0.00121212
0.0011861
0.00116326
0.00114347
0.00112654
0.00111226
0.00110039
0.00109067
0.00108282
0.00107659
0.0010717
0.00106793
0.00106507
0.00106292
0.00106134
0.00106019
0.00105936
0.00105878
0.00105837
0.0010581
0.00105792
0.00105781
0.00105777
0.00105778
0.00105785
0.001058
0.00105827
0.00105874
0.00105951
0.00106079
0.00106287
0.00106626
0.00107164
0.00108023
0.0010929
0.00111327
0.00347949
0.00324139
0.00303135
0.00284491
0.00267847
0.00252909
0.00239438
0.00227237
0.00216139
0.00206008
0.00196726
0.00188195
0.0018033
0.00173061
0.00166327
0.00160078
0.00154272
0.00148876
0.00143866
0.00139222
0.00134933
0.00130991
0.00127391
0.00124128
0.001212
0.001186
0.00116317
0.00114339
0.00112647
0.00111221
0.00110035
0.00109063
0.0010828
0.00107657
0.00107169
0.00106792
0.00106506
0.00106292
0.00106134
0.00106018
0.00105936
0.00105878
0.00105837
0.0010581
0.00105792
0.00105782
0.00105777
0.00105778
0.00105785
0.001058
0.00105827
0.00105874
0.00105951
0.00106077
0.00106282
0.00106613
0.00107136
0.00107958
0.00109161
0.0011103
0.00347948
0.00324138
0.00303134
0.00284488
0.00267842
0.00252903
0.00239431
0.00227228
0.0021613
0.00205997
0.00196715
0.00188183
0.00180317
0.00173048
0.00166313
0.00160064
0.00154258
0.00148862
0.00143852
0.00139209
0.0013492
0.00130978
0.00127378
0.00124117
0.0012119
0.0011859
0.00116309
0.00114332
0.00112641
0.00111216
0.00110031
0.0010906
0.00108277
0.00107655
0.00107168
0.00106792
0.00106506
0.00106292
0.00106133
0.00106018
0.00105936
0.00105878
0.00105837
0.0010581
0.00105792
0.00105782
0.00105777
0.00105778
0.00105785
0.001058
0.00105827
0.00105873
0.0010595
0.00106075
0.00106277
0.00106601
0.00107108
0.00107894
0.00109034
0.00110748
0.00347948
0.00324138
0.00303132
0.00284485
0.00267838
0.00252897
0.00239424
0.0022722
0.00216121
0.00205988
0.00196705
0.00188172
0.00180306
0.00173036
0.00166301
0.00160051
0.00154245
0.0014885
0.0014384
0.00139197
0.00134908
0.00130967
0.00127368
0.00124107
0.00121181
0.00118582
0.00116302
0.00114326
0.00112636
0.00111211
0.00110027
0.00109058
0.00108275
0.00107654
0.00107167
0.00106791
0.00106505
0.00106291
0.00106133
0.00106018
0.00105936
0.00105877
0.00105837
0.0010581
0.00105792
0.00105782
0.00105777
0.00105778
0.00105785
0.001058
0.00105827
0.00105873
0.00105949
0.00106072
0.00106272
0.00106589
0.00107081
0.00107835
0.00108915
0.00110492
0.00347948
0.00324138
0.00303131
0.00284483
0.00267835
0.00252893
0.00239419
0.00227214
0.00216114
0.0020598
0.00196696
0.00188163
0.00180296
0.00173026
0.00166291
0.00160041
0.00154235
0.00148839
0.00143829
0.00139186
0.00134898
0.00130957
0.00127359
0.00124099
0.00121173
0.00118575
0.00116295
0.0011432
0.00112631
0.00111208
0.00110024
0.00109056
0.00108274
0.00107652
0.00107166
0.0010679
0.00106505
0.00106291
0.00106133
0.00106018
0.00105936
0.00105877
0.00105837
0.0010581
0.00105792
0.00105782
0.00105777
0.00105778
0.00105785
0.001058
0.00105827
0.00105873
0.00105948
0.0010607
0.00106267
0.00106577
0.00107057
0.00107781
0.00108808
0.00110266
0.00347948
0.00324137
0.0030313
0.00284481
0.00267832
0.00252889
0.00239414
0.00227209
0.00216108
0.00205973
0.00196688
0.00188155
0.00180288
0.00173017
0.00166282
0.00160031
0.00154225
0.0014883
0.0014382
0.00139177
0.00134889
0.00130949
0.00127351
0.00124091
0.00121166
0.00118569
0.0011629
0.00114316
0.00112628
0.00111204
0.00110022
0.00109054
0.00108272
0.00107651
0.00107165
0.0010679
0.00106504
0.00106291
0.00106133
0.00106018
0.00105936
0.00105877
0.00105837
0.0010581
0.00105792
0.00105782
0.00105777
0.00105778
0.00105785
0.001058
0.00105827
0.00105872
0.00105947
0.00106068
0.00106262
0.00106567
0.00107035
0.00107733
0.00108712
0.00110068
0.00347948
0.00324137
0.00303129
0.0028448
0.00267829
0.00252886
0.0023941
0.00227204
0.00216102
0.00205967
0.00196682
0.00188148
0.00180281
0.00173009
0.00166274
0.00160023
0.00154217
0.00148822
0.00143812
0.00139169
0.00134882
0.00130942
0.00127344
0.00124085
0.0012116
0.00118564
0.00116285
0.00114312
0.00112624
0.00111202
0.0011002
0.00109052
0.00108271
0.0010765
0.00107164
0.00106789
0.00106504
0.0010629
0.00106133
0.00106018
0.00105936
0.00105877
0.00105837
0.0010581
0.00105792
0.00105782
0.00105777
0.00105778
0.00105785
0.001058
0.00105827
0.00105872
0.00105946
0.00106067
0.00106258
0.00106558
0.00107015
0.0010769
0.00108628
0.00109897
0.00347948
0.00324137
0.00303129
0.00284479
0.00267827
0.00252883
0.00239407
0.002272
0.00216098
0.00205962
0.00196676
0.00188142
0.00180274
0.00173003
0.00166267
0.00160017
0.0015421
0.00148815
0.00143805
0.00139163
0.00134875
0.00130935
0.00127338
0.00124079
0.00121155
0.00118559
0.00116282
0.00114308
0.00112621
0.00111199
0.00110018
0.0010905
0.0010827
0.00107649
0.00107164
0.00106789
0.00106504
0.0010629
0.00106133
0.00106018
0.00105935
0.00105877
0.00105837
0.0010581
0.00105792
0.00105782
0.00105777
0.00105778
0.00105785
0.001058
0.00105826
0.00105872
0.00105946
0.00106065
0.00106255
0.0010655
0.00106998
0.00107653
0.00108555
0.00109752
0.00347948
0.00324137
0.00303128
0.00284478
0.00267826
0.00252881
0.00239404
0.00227196
0.00216094
0.00205958
0.00196672
0.00188137
0.00180269
0.00172997
0.00166262
0.00160011
0.00154204
0.00148809
0.00143799
0.00139157
0.0013487
0.0013093
0.00127333
0.00124075
0.00121151
0.00118556
0.00116278
0.00114305
0.00112619
0.00111197
0.00110016
0.00109049
0.00108269
0.00107649
0.00107163
0.00106788
0.00106504
0.0010629
0.00106132
0.00106018
0.00105935
0.00105877
0.00105837
0.0010581
0.00105792
0.00105782
0.00105777
0.00105778
0.00105785
0.001058
0.00105826
0.00105871
0.00105945
0.00106064
0.00106251
0.00106543
0.00106983
0.00107622
0.00108492
0.00109629
0.00347948
0.00324137
0.00303128
0.00284477
0.00267825
0.00252879
0.00239402
0.00227194
0.00216091
0.00205954
0.00196668
0.00188133
0.00180265
0.00172993
0.00166257
0.00160006
0.001542
0.00148804
0.00143795
0.00139152
0.00134866
0.00130926
0.00127329
0.00124071
0.00121148
0.00118553
0.00116276
0.00114303
0.00112617
0.00111196
0.00110015
0.00109048
0.00108268
0.00107648
0.00107163
0.00106788
0.00106503
0.0010629
0.00106132
0.00106018
0.00105935
0.00105877
0.00105837
0.0010581
0.00105792
0.00105782
0.00105777
0.00105778
0.00105785
0.001058
0.00105826
0.00105871
0.00105944
0.00106062
0.00106249
0.00106537
0.0010697
0.00107595
0.0010844
0.00109527
0.00347948
0.00324137
0.00303128
0.00284476
0.00267823
0.00252878
0.002394
0.00227192
0.00216088
0.00205952
0.00196665
0.0018813
0.00180261
0.0017299
0.00166253
0.00160003
0.00154196
0.001488
0.00143791
0.00139149
0.00134862
0.00130923
0.00127326
0.00124068
0.00121145
0.0011855
0.00116273
0.00114301
0.00112615
0.00111195
0.00110014
0.00109047
0.00108268
0.00107648
0.00107162
0.00106788
0.00106503
0.0010629
0.00106132
0.00106018
0.00105935
0.00105877
0.00105837
0.0010581
0.00105792
0.00105782
0.00105777
0.00105778
0.00105785
0.001058
0.00105826
0.00105871
0.00105944
0.00106061
0.00106246
0.00106532
0.0010696
0.00107573
0.00108397
0.00109444
0.00347948
0.00324137
0.00303127
0.00284476
0.00267823
0.00252877
0.00239399
0.0022719
0.00216087
0.0020595
0.00196663
0.00188127
0.00180259
0.00172987
0.00166251
0.0016
0.00154193
0.00148798
0.00143788
0.00139146
0.0013486
0.0013092
0.00127324
0.00124066
0.00121143
0.00118548
0.00116272
0.001143
0.00112614
0.00111194
0.00110013
0.00109047
0.00108267
0.00107647
0.00107162
0.00106788
0.00106503
0.0010629
0.00106132
0.00106018
0.00105935
0.00105877
0.00105837
0.0010581
0.00105792
0.00105782
0.00105777
0.00105778
0.00105785
0.001058
0.00105826
0.00105871
0.00105944
0.0010606
0.00106245
0.00106529
0.00106952
0.00107557
0.00108364
0.0010938
0.00347948
0.00324137
0.00303127
0.00284475
0.00267822
0.00252876
0.00239398
0.00227189
0.00216085
0.00205948
0.00196661
0.00188126
0.00180257
0.00172985
0.00166249
0.00159998
0.00154191
0.00148796
0.00143786
0.00139144
0.00134858
0.00130919
0.00127322
0.00124065
0.00121142
0.00118547
0.00116271
0.00114299
0.00112614
0.00111193
0.00110013
0.00109046
0.00108267
0.00107647
0.00107162
0.00106788
0.00106503
0.0010629
0.00106132
0.00106018
0.00105935
0.00105877
0.00105837
0.0010581
0.00105792
0.00105782
0.00105777
0.00105778
0.00105785
0.001058
0.00105826
0.00105871
0.00105943
0.0010606
0.00106243
0.00106526
0.00106946
0.00107545
0.00108341
0.00109333
0.00347948
0.00324137
0.00303127
0.00284475
0.00267822
0.00252876
0.00239397
0.00227189
0.00216085
0.00205948
0.00196661
0.00188125
0.00180257
0.00172984
0.00166248
0.00159997
0.00154191
0.00148795
0.00143785
0.00139144
0.00134857
0.00130918
0.00127321
0.00124064
0.00121141
0.00118547
0.0011627
0.00114299
0.00112613
0.00111193
0.00110013
0.00109046
0.00108267
0.00107647
0.00107162
0.00106788
0.00106503
0.0010629
0.00106132
0.00106018
0.00105935
0.00105877
0.00105837
0.0010581
0.00105792
0.00105782
0.00105777
0.00105778
0.00105785
0.001058
0.00105826
0.0010587
0.00105943
0.00106059
0.00106243
0.00106524
0.00106943
0.00107538
0.00108326
0.00109302
0.00347948
0.00324137
0.00303127
0.00284475
0.00267822
0.00252876
0.00239397
0.00227189
0.00216085
0.00205948
0.00196661
0.00188125
0.00180257
0.00172984
0.00166248
0.00159997
0.00154191
0.00148795
0.00143785
0.00139144
0.00134857
0.00130918
0.00127321
0.00124064
0.00121141
0.00118547
0.0011627
0.00114299
0.00112613
0.00111193
0.00110013
0.00109046
0.00108267
0.00107647
0.00107162
0.00106788
0.00106503
0.0010629
0.00106132
0.00106018
0.00105935
0.00105877
0.00105837
0.0010581
0.00105792
0.00105782
0.00105777
0.00105778
0.00105785
0.001058
0.00105826
0.0010587
0.00105943
0.00106059
0.00106242
0.00106524
0.00106942
0.00107536
0.00108321
0.00109288
0.00347948
0.00324137
0.00303127
0.00284475
0.00267822
0.00252876
0.00239398
0.00227189
0.00216085
0.00205948
0.00196661
0.00188126
0.00180257
0.00172985
0.00166249
0.00159998
0.00154191
0.00148796
0.00143786
0.00139144
0.00134858
0.00130919
0.00127322
0.00124065
0.00121142
0.00118547
0.00116271
0.00114299
0.00112614
0.00111193
0.00110013
0.00109046
0.00108267
0.00107647
0.00107162
0.00106788
0.00106503
0.0010629
0.00106132
0.00106018
0.00105935
0.00105877
0.00105837
0.0010581
0.00105792
0.00105782
0.00105777
0.00105778
0.00105785
0.001058
0.00105826
0.0010587
0.00105943
0.00106059
0.00106243
0.00106525
0.00106944
0.00107539
0.00108325
0.0010929
0.00347948
0.00324137
0.00303127
0.00284476
0.00267823
0.00252877
0.00239399
0.0022719
0.00216087
0.0020595
0.00196663
0.00188127
0.00180259
0.00172987
0.00166251
0.0016
0.00154193
0.00148798
0.00143788
0.00139146
0.0013486
0.0013092
0.00127324
0.00124066
0.00121143
0.00118549
0.00116272
0.001143
0.00112614
0.00111194
0.00110013
0.00109047
0.00108267
0.00107648
0.00107162
0.00106788
0.00106503
0.0010629
0.00106132
0.00106018
0.00105935
0.00105877
0.00105837
0.0010581
0.00105792
0.00105782
0.00105777
0.00105778
0.00105785
0.001058
0.00105826
0.0010587
0.00105943
0.00106059
0.00106243
0.00106526
0.00106948
0.00107547
0.00108338
0.00109309
0.00347948
0.00324137
0.00303128
0.00284476
0.00267823
0.00252878
0.002394
0.00227192
0.00216088
0.00205952
0.00196665
0.0018813
0.00180262
0.0017299
0.00166253
0.00160003
0.00154196
0.00148801
0.00143791
0.00139149
0.00134862
0.00130923
0.00127326
0.00124068
0.00121145
0.0011855
0.00116274
0.00114301
0.00112616
0.00111195
0.00110014
0.00109048
0.00108268
0.00107648
0.00107162
0.00106788
0.00106503
0.0010629
0.00106132
0.00106018
0.00105935
0.00105877
0.00105837
0.0010581
0.00105792
0.00105782
0.00105777
0.00105778
0.00105785
0.00105799
0.00105826
0.0010587
0.00105943
0.0010606
0.00106244
0.00106529
0.00106954
0.0010756
0.00108361
0.00109345
0.00347948
0.00324137
0.00303128
0.00284477
0.00267825
0.00252879
0.00239402
0.00227194
0.00216091
0.00205954
0.00196668
0.00188133
0.00180265
0.00172993
0.00166257
0.00160006
0.001542
0.00148804
0.00143795
0.00139153
0.00134866
0.00130926
0.00127329
0.00124071
0.00121148
0.00118553
0.00116276
0.00114303
0.00112617
0.00111196
0.00110015
0.00109048
0.00108268
0.00107648
0.00107163
0.00106788
0.00106503
0.0010629
0.00106132
0.00106018
0.00105935
0.00105877
0.00105837
0.0010581
0.00105792
0.00105782
0.00105777
0.00105778
0.00105785
0.00105799
0.00105826
0.0010587
0.00105943
0.0010606
0.00106246
0.00106533
0.00106963
0.00107579
0.00108394
0.001094
0.00347948
0.00324137
0.00303128
0.00284478
0.00267826
0.00252881
0.00239404
0.00227196
0.00216094
0.00205958
0.00196672
0.00188137
0.00180269
0.00172997
0.00166262
0.00160011
0.00154204
0.00148809
0.00143799
0.00139157
0.0013487
0.00130931
0.00127333
0.00124075
0.00121152
0.00118556
0.00116279
0.00114306
0.00112619
0.00111198
0.00110017
0.00109049
0.00108269
0.00107649
0.00107163
0.00106788
0.00106504
0.0010629
0.00106133
0.00106018
0.00105936
0.00105877
0.00105837
0.0010581
0.00105792
0.00105782
0.00105777
0.00105778
0.00105785
0.00105799
0.00105826
0.0010587
0.00105943
0.00106061
0.00106248
0.00106539
0.00106975
0.00107603
0.00108438
0.00109474
0.00347948
0.00324137
0.00303129
0.00284479
0.00267827
0.00252883
0.00239407
0.002272
0.00216098
0.00205962
0.00196676
0.00188142
0.00180274
0.00173003
0.00166267
0.00160017
0.0015421
0.00148815
0.00143805
0.00139163
0.00134876
0.00130936
0.00127338
0.0012408
0.00121156
0.0011856
0.00116282
0.00114309
0.00112622
0.001112
0.00110018
0.00109051
0.0010827
0.0010765
0.00107164
0.00106789
0.00106504
0.0010629
0.00106133
0.00106018
0.00105936
0.00105877
0.00105837
0.0010581
0.00105792
0.00105782
0.00105777
0.00105778
0.00105785
0.00105799
0.00105826
0.00105871
0.00105944
0.00106062
0.00106251
0.00106545
0.00106989
0.00107633
0.00108493
0.0010957
0.00347948
0.00324137
0.00303129
0.0028448
0.00267829
0.00252886
0.0023941
0.00227204
0.00216102
0.00205967
0.00196682
0.00188148
0.00180281
0.00173009
0.00166274
0.00160024
0.00154217
0.00148822
0.00143812
0.00139169
0.00134882
0.00130942
0.00127344
0.00124085
0.00121161
0.00118564
0.00116286
0.00114312
0.00112625
0.00111202
0.0011002
0.00109052
0.00108271
0.0010765
0.00107164
0.00106789
0.00106504
0.0010629
0.00106133
0.00106018
0.00105936
0.00105877
0.00105837
0.0010581
0.00105792
0.00105782
0.00105777
0.00105778
0.00105785
0.00105799
0.00105826
0.00105871
0.00105944
0.00106063
0.00106254
0.00106552
0.00107006
0.00107669
0.0010856
0.00109691
0.00347948
0.00324137
0.0030313
0.00284481
0.00267832
0.00252889
0.00239414
0.00227209
0.00216108
0.00205973
0.00196688
0.00188155
0.00180288
0.00173017
0.00166282
0.00160032
0.00154225
0.0014883
0.0014382
0.00139177
0.0013489
0.00130949
0.00127351
0.00124092
0.00121167
0.0011857
0.00116291
0.00114316
0.00112628
0.00111205
0.00110023
0.00109054
0.00108273
0.00107651
0.00107165
0.0010679
0.00106504
0.00106291
0.00106133
0.00106018
0.00105936
0.00105878
0.00105837
0.0010581
0.00105792
0.00105782
0.00105777
0.00105778
0.00105785
0.00105799
0.00105826
0.00105871
0.00105945
0.00106065
0.00106257
0.00106561
0.00107025
0.00107712
0.0010864
0.00109839
0.00347948
0.00324138
0.00303131
0.00284483
0.00267835
0.00252893
0.00239419
0.00227214
0.00216114
0.0020598
0.00196696
0.00188163
0.00180296
0.00173026
0.00166291
0.00160041
0.00154235
0.00148839
0.00143829
0.00139186
0.00134898
0.00130958
0.00127359
0.00124099
0.00121173
0.00118576
0.00116296
0.00114321
0.00112632
0.00111208
0.00110025
0.00109056
0.00108274
0.00107653
0.00107166
0.0010679
0.00106505
0.00106291
0.00106133
0.00106018
0.00105936
0.00105878
0.00105837
0.0010581
0.00105792
0.00105782
0.00105777
0.00105778
0.00105785
0.00105799
0.00105826
0.00105871
0.00105945
0.00106066
0.00106261
0.0010657
0.00107047
0.00107761
0.00108734
0.00110019
0.00347948
0.00324138
0.00303132
0.00284485
0.00267838
0.00252897
0.00239424
0.00227221
0.00216121
0.00205988
0.00196705
0.00188172
0.00180306
0.00173036
0.00166301
0.00160052
0.00154245
0.0014885
0.0014384
0.00139197
0.00134909
0.00130967
0.00127368
0.00124108
0.00121181
0.00118583
0.00116302
0.00114326
0.00112637
0.00111212
0.00110028
0.00109058
0.00108276
0.00107654
0.00107167
0.00106791
0.00106505
0.00106291
0.00106133
0.00106018
0.00105936
0.00105878
0.00105837
0.0010581
0.00105792
0.00105782
0.00105777
0.00105778
0.00105785
0.00105799
0.00105826
0.00105871
0.00105946
0.00106067
0.00106265
0.00106581
0.00107072
0.00107818
0.00108843
0.00110238
0.00347948
0.00324138
0.00303134
0.00284488
0.00267842
0.00252903
0.00239431
0.00227228
0.0021613
0.00205997
0.00196715
0.00188183
0.00180317
0.00173048
0.00166313
0.00160064
0.00154258
0.00148862
0.00143852
0.00139209
0.0013492
0.00130979
0.00127379
0.00124118
0.0012119
0.00118591
0.0011631
0.00114333
0.00112642
0.00111216
0.00110032
0.00109061
0.00108278
0.00107655
0.00107168
0.00106792
0.00106506
0.00106292
0.00106134
0.00106018
0.00105936
0.00105878
0.00105837
0.0010581
0.00105792
0.00105782
0.00105777
0.00105778
0.00105785
0.00105799
0.00105826
0.00105871
0.00105946
0.00106069
0.00106269
0.00106592
0.00107099
0.00107883
0.0010897
0.00110502
0.00347949
0.00324139
0.00303135
0.00284491
0.00267847
0.00252909
0.00239438
0.00227237
0.00216139
0.00206008
0.00196726
0.00188195
0.0018033
0.00173061
0.00166327
0.00160078
0.00154272
0.00148877
0.00143866
0.00139223
0.00134934
0.00130991
0.00127391
0.00124129
0.00121201
0.001186
0.00116318
0.0011434
0.00112648
0.00111221
0.00110036
0.00109064
0.0010828
0.00107657
0.00107169
0.00106793
0.00106506
0.00106292
0.00106134
0.00106019
0.00105936
0.00105878
0.00105837
0.0010581
0.00105792
0.00105782
0.00105777
0.00105778
0.00105785
0.00105799
0.00105826
0.00105871
0.00105947
0.00106071
0.00106274
0.00106605
0.0010713
0.00107957
0.00109115
0.00110823
0.00347949
0.0032414
0.00303137
0.00284495
0.00267852
0.00252916
0.00239447
0.00227247
0.00216151
0.00206021
0.0019674
0.00188209
0.00180345
0.00173077
0.00166343
0.00160094
0.00154288
0.00148893
0.00143882
0.00139238
0.00134949
0.00131006
0.00127405
0.00124142
0.00121213
0.00118611
0.00116327
0.00114348
0.00112655
0.00111227
0.0011004
0.00109068
0.00108283
0.00107659
0.0010717
0.00106793
0.00106507
0.00106292
0.00106134
0.00106019
0.00105936
0.00105878
0.00105837
0.0010581
0.00105792
0.00105782
0.00105777
0.00105778
0.00105784
0.00105799
0.00105826
0.00105871
0.00105947
0.00106072
0.00106279
0.00106618
0.00107162
0.00108041
0.00109282
0.00111214
0.00347949
0.00324141
0.0030314
0.002845
0.00267859
0.00252924
0.00239457
0.00227258
0.00216164
0.00206035
0.00196755
0.00188225
0.00180362
0.00173094
0.00166361
0.00160112
0.00154307
0.00148911
0.00143901
0.00139256
0.00134966
0.00131023
0.0012742
0.00124156
0.00121226
0.00118623
0.00116338
0.00114357
0.00112662
0.00111233
0.00110044
0.00109071
0.00108285
0.00107661
0.00107171
0.00106794
0.00106507
0.00106292
0.00106134
0.00106018
0.00105936
0.00105877
0.00105837
0.00105809
0.00105792
0.00105781
0.00105776
0.00105777
0.00105784
0.00105799
0.00105826
0.00105871
0.00105947
0.00106074
0.00106283
0.00106631
0.00107198
0.00108134
0.00109472
0.00111696
0.00347949
0.00324142
0.00303143
0.00284505
0.00267866
0.00252934
0.00239469
0.00227272
0.00216179
0.00206051
0.00196773
0.00188244
0.00180382
0.00173114
0.00166382
0.00160133
0.00154328
0.00148932
0.00143921
0.00139276
0.00134985
0.0013104
0.00127437
0.00124171
0.00121239
0.00118634
0.00116347
0.00114364
0.00112668
0.00111237
0.00110047
0.00109072
0.00108285
0.0010766
0.0010717
0.00106792
0.00106505
0.0010629
0.00106131
0.00106016
0.00105933
0.00105875
0.00105834
0.00105807
0.00105789
0.00105778
0.00105774
0.00105774
0.00105781
0.00105796
0.00105823
0.00105869
0.00105945
0.00106073
0.00106286
0.00106643
0.00107233
0.00108236
0.00109688
0.00112295
0.00347949
0.00324143
0.00303147
0.00284512
0.00267876
0.00252946
0.00239483
0.00227288
0.00216197
0.0020607
0.00196793
0.00188265
0.00180404
0.00173137
0.00166405
0.00160156
0.0015435
0.00148954
0.00143941
0.00139295
0.00135002
0.00131055
0.00127449
0.0012418
0.00121245
0.00118637
0.00116347
0.00114361
0.00112662
0.00111229
0.00110037
0.00109061
0.00108274
0.00107648
0.00107157
0.00106779
0.00106492
0.00106277
0.00106119
0.00106003
0.0010592
0.00105862
0.00105821
0.00105794
0.00105776
0.00105766
0.00105761
0.00105762
0.00105769
0.00105784
0.00105811
0.00105857
0.00105934
0.00106063
0.00106279
0.00106647
0.00107263
0.00108342
0.00109929
0.00113048
0.00347949
0.00324145
0.00303152
0.0028452
0.00267887
0.0025296
0.00239499
0.00227307
0.00216217
0.00206093
0.00196816
0.0018829
0.00180428
0.00173161
0.00166427
0.00160177
0.00154368
0.00148968
0.00143951
0.00139299
0.00135
0.00131046
0.00127433
0.00124157
0.00121214
0.00118599
0.00116303
0.00114313
0.0011261
0.00111175
0.00109982
0.00109006
0.00108219
0.00107594
0.00107105
0.00106728
0.00106442
0.00106228
0.0010607
0.00105955
0.00105873
0.00105814
0.00105774
0.00105747
0.00105729
0.00105719
0.00105714
0.00105715
0.00105723
0.00105738
0.00105765
0.00105812
0.0010589
0.0010602
0.00106241
0.00106619
0.00107265
0.0010843
0.00110182
0.00113998
0.00347949
0.00324148
0.00303159
0.00284531
0.00267901
0.00252978
0.0023952
0.00227331
0.00216244
0.0020612
0.00196844
0.00188316
0.00180451
0.00173179
0.00166438
0.00160178
0.00154357
0.00148943
0.0014391
0.0013924
0.00134922
0.00130948
0.00127315
0.0012402
0.0012106
0.00118431
0.00116124
0.00114127
0.00112422
0.00110988
0.00109799
0.00108829
0.00108049
0.00107431
0.00106948
0.00106577
0.00106295
0.00106084
0.00105928
0.00105815
0.00105734
0.00105676
0.00105637
0.0010561
0.00105592
0.00105582
0.00105578
0.00105579
0.00105586
0.00105601
0.00105629
0.00105676
0.00105754
0.00105887
0.00106111
0.00106498
0.00107175
0.00108431
0.00110389
0.00115165
0.0034795
0.00324152
0.00303169
0.00284547
0.00267924
0.00253007
0.00239558
0.00227374
0.00216292
0.00206169
0.0019689
0.00188353
0.00180474
0.00173181
0.00166414
0.00160122
0.00154265
0.00148809
0.00143732
0.00139016
0.00134651
0.00130632
0.00126958
0.00123629
0.00120643
0.00117998
0.00115687
0.00113696
0.00112008
0.00110597
0.00109437
0.00108495
0.00107742
0.00107148
0.00106685
0.00106329
0.00106059
0.00105857
0.00105707
0.00105598
0.0010552
0.00105464
0.00105425