/*--------------------------------*- C++ -*----------------------------------*\
| =========                 |                                                 |
| \\      /  F ield         | OpenFOAM: The Open Source CFD Toolbox           |
|  \\    /   O peration     | Version:  2.4.0                                 |
|   \\  /    A nd           | Web:      www.OpenFOAM.org                      |
|    \\/     M anipulation  |                                                 |
\*---------------------------------------------------------------------------*/
FoamFile
{
    version     2.0;
    format      ascii;
    class       surfaceScalarField;
    location    "55";
    object      phi;
}
// * * * * * * * * * * * * * * * * * * * * * * * * * * * * * * * * * * * * * //

dimensions      [0 3 -1 0 0 0 0];

internalField   nonuniform List<scalar> 
19800
(
0.000178772
1.35995e-05
0.000160029
1.87444e-05
0.000142383
1.76464e-05
0.000128879
1.35018e-05
0.000118592
1.02871e-05
0.000110882
7.70958e-06
0.000104958
5.9233e-06
0.000100406
4.55163e-06
9.68765e-05
3.52958e-06
9.41527e-05
2.72325e-06
9.20611e-05
2.09117e-06
9.04745e-05
1.58642e-06
8.92895e-05
1.18488e-06
8.84238e-05
8.65641e-07
8.78111e-05
6.12596e-07
8.74011e-05
4.09982e-07
8.716e-05
2.41119e-07
8.70644e-05
9.56779e-08
8.70579e-05
6.60248e-09
3.91159e-07
8.66668e-05
0.000185457
2.5853e-05
0.000167495
3.6709e-05
0.000149964
3.51781e-05
0.000136175
2.72889e-05
0.00012557
2.08911e-05
0.000117535
1.57435e-05
0.000111334
1.21245e-05
0.000106526
9.35922e-06
0.000102766
7.28862e-06
9.98266e-05
5.66191e-06
9.75338e-05
4.38336e-06
9.57587e-05
3.36132e-06
9.44005e-05
2.54288e-06
9.33811e-05
1.88505e-06
9.26401e-05
1.35356e-06
9.21334e-05
9.16733e-07
9.18296e-05
5.44984e-07
9.1696e-05
2.29327e-07
9.16756e-05
2.70685e-08
1.71049e-07
9.18958e-05
0.000192278
3.67637e-05
0.0001753
5.36875e-05
0.000158089
5.239e-05
0.000144158
4.12182e-05
0.0001333
3.17491e-05
0.000124977
2.4066e-05
0.000118507
1.85941e-05
0.000113446
1.442e-05
0.00010945
1.12838e-05
0.000106286
8.82535e-06
0.000103779
6.88966e-06
0.000101801
5.33942e-06
0.000100253
4.09037e-06
9.90625e-05
3.07552e-06
9.81748e-05
2.24113e-06
9.7551e-05
1.54057e-06
9.71588e-05
9.37171e-07
9.696e-05
4.28122e-07
9.69117e-05
7.54322e-08
2.07776e-08
9.70619e-05
0.00019924
4.63516e-05
0.000183437
6.94938e-05
0.000166755
6.90733e-05
0.000152824
5.51471e-05
0.000141787
4.27846e-05
0.000133217
3.26358e-05
0.000126497
2.53132e-05
0.000121191
1.97258e-05
0.000116961
1.55137e-05
0.00011357
1.22156e-05
0.000110844
9.61499e-06
0.000108655
7.52777e-06
0.000106909
5.83687e-06
0.000105534
4.44996e-06
0.000104481
3.29451e-06
0.000103709
2.31203e-06
0.000103181
1.46531e-06
0.000102849
7.59988e-07
0.000102669
2.56238e-07
4.18745e-08
0.000102647
0.000206354
5.46104e-05
0.000191895
8.39538e-05
0.000175944
8.50242e-05
0.000162159
6.89305e-05
0.000151029
5.39147e-05
0.000142259
4.1406e-05
0.000135314
3.22574e-05
0.000129776
2.52634e-05
0.000125317
1.99719e-05
0.000121702
1.58301e-05
0.000118758
1.25587e-05
0.000116358
9.9277e-06
0.000114408
7.78614e-06
0.000112841
6.01688e-06
0.000111606
4.53006e-06
0.000110658
3.25928e-06
0.000109954
2.16954e-06
0.000109442
1.27191e-06
0.000109081
6.17462e-07
2.55652e-07
0.000108867
0.000213614
6.15676e-05
0.000200643
9.6928e-05
0.000185618
0.00010005
0.000172131
8.24159e-05
0.000160999
6.50456e-05
0.000152084
5.03202e-05
0.000144947
3.93947e-05
0.000139196
3.10132e-05
0.000134521
2.46461e-05
0.000130691
1.96599e-05
0.000127534
1.57145e-05
0.000124927
1.25347e-05
0.000122777
9.93649e-06
0.000121015
7.77891e-06
0.000119588
5.95721e-06
0.000118448
4.39939e-06
0.000117545
3.07191e-06
0.000116832
1.98502e-06
0.000116275
1.17514e-06
6.6347e-07
0.000115867
0.000221008
6.72388e-05
0.000209642
0.000108294
0.000195728
0.000113964
0.000182694
9.54486e-05
0.000171663
7.60765e-05
0.000162668
5.93149e-05
0.000155377
4.6686e-05
0.000149439
3.69497e-05
0.000144566
2.95187e-05
0.000140534
2.36915e-05
0.000137177
1.90709e-05
0.000134372
1.53392e-05
0.000132028
1.22805e-05
0.000130075
9.73199e-06
0.000128456
7.57616e-06
0.00012712
5.73575e-06
0.000126016
4.17577e-06
0.000125101
2.8996e-06
0.00012435
1.92668e-06
1.25821e-06
0.000123755
0.000228523
7.16887e-05
0.000218848
0.000117974
0.000206215
0.000126597
0.000193796
0.000107867
0.000182976
8.68952e-05
0.000173975
6.83156e-05
0.000166577
5.40834e-05
0.000160486
4.30403e-05
0.000155438
3.45657e-05
0.000151223
2.79058e-05
0.000147682
2.2612e-05
0.000144693
1.83273e-05
0.000142168
1.48064e-05
0.000140033
1.18667e-05
0.00013823
9.37905e-06
0.000136705
7.26047e-06
0.000135411
5.47077e-06
0.000134308
4.00249e-06
0.000133376
2.85845e-06
2.02612e-06
0.000132608
0.000236144
7.49686e-05
0.00022821
0.000125909
0.000217017
0.00013779
0.000205373
0.000119511
0.000194886
9.73821e-05
0.000185961
7.72396e-05
0.000178514
6.15308e-05
0.000172308
4.92451e-05
0.000167116
3.97573e-05
0.000162742
3.2279e-05
0.000159036
2.63172e-05
0.000155883
2.14809e-05
0.000153191
1.74979e-05
0.000150889
1.41681e-05
0.000148917
1.13513e-05
0.00014722
8.95742e-06
0.000145753
6.93797e-06
0.000144483
5.27294e-06
0.000143391
3.95036e-06
2.9484e-06
0.000142469
0.000243856
7.7185e-05
0.000237678
0.000132091
0.00022806
0.000147408
0.000217354
0.000130217
0.000207329
0.000107407
0.000198576
8.59922e-05
0.000191144
6.89616e-05
0.000184873
5.55162e-05
0.000179572
4.50573e-05
0.000175068
3.67819e-05
0.000171223
3.01622e-05
0.000167925
2.47788e-05
0.000165087
2.03361e-05
0.000162637
1.66183e-05
0.000160514
1.34745e-05
0.000158665
1.08061e-05
0.000157049
8.55465e-06
0.000155634
6.68736e-06
0.000154405
5.17985e-06
4.00365e-06
0.00015335
0.000251646
7.84247e-05
0.000247199
0.000136538
0.000239269
0.000155337
0.000229661
0.000139826
0.000220234
0.000116833
0.000211757
9.44699e-05
0.000204417
7.63005e-05
0.000198136
6.17973e-05
0.00019277
5.04225e-05
0.000188171
4.13798e-05
0.000184215
3.4118e-05
0.000180798
2.81958e-05
0.000177836
2.32983e-05
0.000175258
1.91957e-05
0.000173006
1.57269e-05
0.000171028
1.27837e-05
0.000169286
1.02972e-05
0.000167751
8.22222e-06
0.000166406
6.52441e-06
5.17063e-06
0.000165239
0.000259505
7.88278e-05
0.000256724
0.000139323
0.000250563
0.000161498
0.000242204
0.000148185
0.00023352
0.000125517
0.000225432
0.000102558
0.000218271
8.34607e-05
0.000212044
6.8023e-05
0.000206664
5.58024e-05
0.000202011
4.60323e-05
0.000197977
3.81512e-05
0.00019447
3.17037e-05
0.000191408
2.63595e-05
0.000188727
2.18771e-05
0.000186368
1.80858e-05
0.000184284
1.48675e-05
0.000182439
1.21427e-05
0.000180805
9.85569e-06
0.000179366
7.96379e-06
6.42996e-06
0.000178107
0.000267428
7.85048e-05
0.000266208
0.000140542
0.000261859
0.000165847
0.000254889
0.000155154
0.000247094
0.000133313
0.000239518
0.000110133
0.000232632
9.03463e-05
0.000226535
7.41189e-05
0.000221198
6.11387e-05
0.000216537
5.06927e-05
0.000212465
4.22235e-05
0.000208899
3.52698e-05
0.000205767
2.94912e-05
0.000203007
2.46369e-05
0.000200566
2.05271e-05
0.000198398
1.70347e-05
0.000196471
1.407e-05
0.000194758
1.15684e-05
0.000193242
9.48009e-06
7.76506e-06
0.000191907
0.000275418
7.76087e-05
0.000275615
0.000140349
0.000273077
0.000168386
0.000267615
0.000160616
0.000260853
0.000140075
0.00025392
0.000117065
0.000247415
9.68512e-05
0.000241532
8.00013e-05
0.000236305
6.63651e-05
0.000231689
5.53079e-05
0.000227621
4.62914e-05
0.000224033
3.8858e-05
0.000220861
3.26626e-05
0.000218051
2.74478e-05
0.000215551
2.30264e-05
0.000213323
1.9263e-05
0.000211334
1.60593e-05
0.000209559
1.33428e-05
0.000207981
1.10581e-05
9.16212e-06
0.000206584
0.000283484
7.62496e-05
0.00028492
0.00013891
0.00028414
0.000169165
0.000280277
0.000164479
0.000274687
0.000145666
0.000268532
0.00012322
0.000262521
0.000102862
0.000256944
8.55775e-05
0.000251901
7.14072e-05
0.000247391
5.98175e-05
0.000243377
5.03056e-05
0.000239807
4.24274e-05
0.000236631
3.58389e-05
0.000233798
3.028e-05
0.000231267
2.55578e-05
0.000229
2.15301e-05
0.000226968
1.80916e-05
0.000225147
1.5163e-05
0.000223521
1.26845e-05
1.06095e-05
0.000222073
0.000291645
7.45618e-05
0.000294114
0.000136444
0.000294983
0.000168298
0.000292771
0.000166692
0.000288476
0.00014996
0.000283234
0.000128462
0.000277838
0.000108257
0.000272668
9.07467e-05
0.000267892
7.61826e-05
0.000263554
6.41546e-05
0.000259648
5.42114e-05
0.000256143
4.59326e-05
0.000252999
3.89825e-05
0.000250178
3.31016e-05
0.000247641
2.80943e-05
0.000245358
2.38135e-05
0.000243301
2.01482e-05
0.00024145
1.70142e-05
0.000239787
1.4347e-05
1.20974e-05
0.000238299
0.000299926
7.26249e-05
0.000303207
0.00013316
0.000305558
0.000165946
0.000304996
0.000167254
0.000302099
0.000152858
0.000297897
0.000132663
0.00029324
0.000112914
0.000288584
9.5402e-05
0.000284164
8.06017e-05
0.000280073
6.82451e-05
0.000276337
5.79474e-05
0.000272946
4.93231e-05
0.000269877
4.20511e-05
0.000267101
3.58776e-05
0.000264588
3.06069e-05
0.000262313
2.60894e-05
0.000260251
2.22102e-05
0.000258383
1.88809e-05
0.000256697
1.60338e-05
1.3616e-05
0.000255178
0.000308354
7.05317e-05
0.000312228
0.000129288
0.00031584
0.000162335
0.000316868
0.000166226
0.000315432
0.000154294
0.000312387
0.000135708
0.000308589
0.000116712
0.000304558
9.94324e-05
0.00030059
8.45692e-05
0.000296826
7.20087e-05
0.000293326
6.14471e-05
0.000290106
5.25434e-05
0.000287158
4.49988e-05
0.000284466
3.85697e-05
0.000282008
3.30641e-05
0.000279766
2.83322e-05
0.000277719
2.42569e-05
0.000275852
2.07472e-05
0.000274154
1.7732e-05
1.51555e-05
0.000272614
0.000316955
6.83226e-05
0.000321223
0.000125017
0.000325833
0.000157723
0.000328322
0.000163736
0.000328363
0.000154253
0.000326565
0.000137504
0.00032374
0.000119536
0.000320444
0.000102727
0.000317027
8.79859e-05
0.000313675
7.53601e-05
0.000310484
6.46379e-05
0.000307495
5.55327e-05
0.000304718
4.77749e-05
0.000302152
4.11361e-05
0.000299784
3.54315e-05
0.000297603
3.05138e-05
0.000295593
2.62658e-05
0.000293745
2.25951e-05
0.000292049
1.94276e-05
1.67048e-05
0.0002905
0.00032575
6.60534e-05
0.00033025
0.000120519
0.000335577
0.000152397
0.000339327
0.000159987
0.000340796
0.000152784
0.000340299
0.000138002
0.000338541
0.000121293
0.000336086
0.000105182
0.000333318
9.07526e-05
0.000330467
7.8211e-05
0.000327661
6.74437e-05
0.000324968
5.82262e-05
0.000322418
5.03245e-05
0.000320023
4.35308e-05
0.000317783
3.7671e-05
0.000315694
3.2603e-05
0.000313748
2.82117e-05
0.000311939
2.44038e-05
0.000310262
2.11041e-05
1.82505e-05
0.000308716
0.000334759
6.37387e-05
0.000339371
0.000115904
0.000345147
0.000146619
0.000349897
0.000155235
0.00035267
0.00015001
0.000353471
0.0001372
0.000352846
0.000121917
0.000351321
0.000106706
0.000349297
9.27755e-05
0.000347035
8.0473e-05
0.000344693
6.97855e-05
0.000342364
6.05549e-05
0.000340099
5.25888e-05
0.000337926
4.57039e-05
0.000335856
3.97407e-05
0.000333894
3.4565e-05
0.00033204
3.00654e-05
0.000330293
2.61499e-05
0.000328655
2.2742e-05
1.97769e-05
0.000327129
0.000343996
6.14127e-05
0.000348643
0.000111258
0.000354639
0.000140625
0.000360097
0.000149777
0.000363973
0.000146135
0.000366001
0.000135171
0.000366527
0.000121391
0.000365995
0.000107237
0.000364795
9.39747e-05
0.000363203
8.20642e-05
0.000361402
7.15859e-05
0.000359508
6.24492e-05
0.00035759
5.45063e-05
0.000355692
4.76022e-05
0.000353837
4.15951e-05
0.000352041
3.63611e-05
0.000350311
3.17946e-05
0.000348655
2.7806e-05
0.000347079
2.43183e-05
2.12646e-05
0.000345591
0.000353475
5.90768e-05
0.000358108
0.000106621
0.000364159
0.000134572
0.00037004
0.000143895
0.000374755
0.00014142
0.00037786
0.000132064
0.000379491
0.000119759
0.000379973
0.000106754
0.000379652
9.42952e-05
0.000378799
8.29162e-05
0.000377611
7.2774e-05
0.000376218
6.38413e-05
0.000374709
5.60149e-05
0.000373141
4.91704e-05
0.000371551
4.31855e-05
0.000369962
3.79489e-05
0.000368394
3.33627e-05
0.000366859
2.93404e-05
0.000365371
2.58063e-05
2.26909e-05
0.000363944
0.000363205
5.67539e-05
0.000367795
0.000102032
0.000373801
0.000128566
0.00037987
0.000137826
0.000385135
0.000136154
0.000389095
0.000128104
0.000391709
0.000117144
0.000393167
0.000105295
0.000393739
9.37231e-05
0.000393668
8.29866e-05
0.000393147
7.32948e-05
0.000392316
6.4672e-05
0.000391274
5.70565e-05
0.000390091
5.03537e-05
0.000388814
4.44619e-05
0.000387479
3.92839e-05
0.000386111
3.47299e-05
0.000384733
3.07186e-05
0.000383363
2.71751e-05
2.4029e-05
0.000382026
0.000373197
5.44408e-05
0.000377723
9.75035e-05
0.000383631
0.000122656
0.000389727
0.000131729
0.000395284
0.000130596
0.000399833
0.000123553
0.000403237
0.000113739
0.000405562
0.000102969
0.000406984
9.23006e-05
0.000407696
8.22736e-05
0.000407871
7.312e-05
0.000407643
6.48993e-05
0.000407116
5.75829e-05
0.000406367
5.11026e-05
0.000405452
4.53763e-05
0.000404415
4.03204e-05
0.00040329
3.58546e-05
0.000402106
3.19024e-05
0.00040089
2.8391e-05
2.52485e-05
0.000399671
0.00038346
5.21561e-05
0.000387906
9.30574e-05
0.000393694
0.000116868
0.000399727
0.000125695
0.000405383
0.000124939
0.00041027
0.000118666
0.000414227
0.00010978
0.000417242
9.99527e-05
0.000419405
9.01367e-05
0.000420848
8.08304e-05
0.000421704
7.22633e-05
0.000422092
6.4511e-05
0.000422108
5.75661e-05
0.00042183
5.13803e-05
0.000421318
4.58878e-05
0.000420621
4.1017e-05
0.00041978
3.66959e-05
0.000418829
3.28534e-05
0.000417801
2.94182e-05
2.63167e-05
0.000416733
0.000394001
4.98953e-05
0.000398357
8.86981e-05
0.00040401
0.000111213
0.000409942
0.000119762
0.000415585
0.000119295
0.000420616
0.000113634
0.000424898
0.000105497
0.000428392
9.64577e-05
0.000431132
8.73958e-05
0.000433193
7.87687e-05
0.000434666
7.07899e-05
0.00043564
6.35362e-05
0.000436196
5.70094e-05
0.000436404
5.11726e-05
0.00043632
4.59708e-05
0.000435995
4.13415e-05
0.000435472
3.72191e-05
0.000434789
3.35361e-05
0.000433985
3.02218e-05
2.72004e-05
0.000433101
0.000404831
4.76732e-05
0.000409086
8.44423e-05
0.000414597
0.000105702
0.000420409
0.000113949
0.000425987
0.000113717
0.000431047
0.000108573
0.000435481
0.000101061
0.000439258
9.268e-05
0.00044239
8.42633e-05
0.000444917
7.62411e-05
0.000446894
6.88127e-05
0.00044838
6.20498e-05
0.000449434
5.59553e-05
0.00045011
5.04967e-05
0.000450456
4.56242e-05
0.000450517
4.128e-05
0.000450334
3.7402e-05
0.000449946
3.39236e-05
0.000449395
3.0773e-05
2.787e-05
0.000448725
0.000415958
4.54845e-05
0.000420106
8.02907e-05
0.000425465
0.00010034
0.00043115
0.000108263
0.00043664
0.000108224
0.000441674
0.000103538
0.00044616
9.65745e-05
0.000450078
8.87605e-05
0.000453443
8.08978e-05
0.000456281
7.34023e-05
0.000458627
6.64663e-05
0.000460517
6.01585e-05
0.000461991
5.44812e-05
0.000463084
4.94031e-05
0.000463832
4.48757e-05
0.000464269
4.08428e-05
0.000464429
3.72416e-05
0.000464348
3.40043e-05
0.000464067
3.10541e-05
2.83043e-05
0.000463632
0.000427391
4.33407e-05
0.000431427
7.62544e-05
0.000436628
9.51384e-05
0.000442175
0.000102715
0.00044757
0.000102829
0.000452554
9.8553e-05
0.000457041
9.20863e-05
0.00046102
8.47807e-05
0.00046451
7.74076e-05
0.000467537
7.03744e-05
0.00047013
6.3873e-05
0.000472314
5.79736e-05
0.000474114
5.26809e-05
0.000475552
4.79648e-05
0.00047665
4.37781e-05
0.000477428
4.00637e-05
0.000477912
3.67571e-05
0.000478132
3.37847e-05
0.000478123
3.10626e-05
2.8494e-05
0.000477933
0.000439141
4.1236e-05
0.000443062
7.23303e-05
0.0004481
9.00976e-05
0.0004535
9.73121e-05
0.000458788
9.75397e-05
0.000463711
9.36289e-05
0.000468178
8.7618e-05
0.000472178
8.07794e-05
0.000475733
7.3852e-05
0.000478872
6.72346e-05
0.000481624
6.11209e-05
0.000484011
5.55863e-05
0.00048605
5.06407e-05
0.000487757
4.62583e-05
0.00048914
4.23942e-05
0.000490212
3.89917e-05
0.000490986
3.59828e-05
0.000491483
3.32869e-05
0.000491736
3.08096e-05
2.84423e-05
0.000491788
0.000451217
3.91788e-05
0.000455022
6.85245e-05
0.000459894
8.52237e-05
0.00046514
9.20655e-05
0.00047031
9.23688e-05
0.000475159
8.87786e-05
0.000479592
8.31839e-05
0.000483594
7.67774e-05
0.000487183
7.02624e-05
0.00049039
6.40268e-05
0.000493245
5.82655e-05
0.000495771
5.30599e-05
0.000497984
4.84272e-05
0.000499893
4.43484e-05
0.000501503
4.07836e-05
0.000502817
3.76775e-05
0.00050384
3.49592e-05
0.000504587
3.25404e-05
0.000505081
3.0315e-05
2.81607e-05
0.000505363
0.000463628
3.71634e-05
0.000467317
6.48312e-05
0.000472025
8.05127e-05
0.00047711
8.69785e-05
0.000482151
8.73258e-05
0.000486914
8.40146e-05
0.000491299
7.87971e-05
0.000495286
7.27897e-05
0.000498889
6.66584e-05
0.000502138
6.07776e-05
0.000505061
5.53414e-05
0.000507684
5.04366e-05
0.000510023
4.60882e-05
0.000512085
4.22855e-05
0.000513873
3.89954e-05
0.000515385
3.61655e-05
0.00051662
3.37239e-05
0.000517585
3.15747e-05
0.0005183
2.96002e-05
2.7664e-05
0.000518797
0.000476383
3.51967e-05
0.00047996
6.12532e-05
0.000484506
7.5965e-05
0.000489427
8.2056e-05
0.000494331
8.24212e-05
0.000498993
7.93511e-05
0.000503315
7.44737e-05
0.000507271
6.88331e-05
0.000510871
6.30583e-05
0.000514139
5.75084e-05
0.000517106
5.23746e-05
0.000519794
4.77476e-05
0.000522223
4.36595e-05
0.000524399
4.01083e-05
0.000526326
3.70683e-05
0.000527998
3.44927e-05
0.000529413
3.23087e-05
0.000530572
3.04158e-05
0.000531487
2.86851e-05
2.69674e-05
0.000532183
0.000489493
3.32737e-05
0.000492959
5.77838e-05
0.000497348
7.1573e-05
0.000502106
7.72953e-05
0.000506866
7.76594e-05
0.000511417
7.47989e-05
0.000515661
7.02284e-05
0.000519569
6.49247e-05
0.000523145
5.9481e-05
0.000526413
5.42402e-05
0.000529398
4.9389e-05
0.000532125
4.50201e-05
0.000534612
4.11718e-05
0.00053687
3.78494e-05
0.000538902
3.50357e-05
0.000540705
3.26897e-05
0.000542272
3.07413e-05
0.000543601
2.90866e-05
0.000544698
2.75886e-05
2.60858e-05
0.000545579
0.000502968
3.13999e-05
0.000506326
5.44241e-05
0.000510563
6.7334e-05
0.000515161
7.26955e-05
0.000519775
7.30438e-05
0.000524206
7.0367e-05
0.000528359
6.60748e-05
0.000532201
6.10815e-05
0.000535735
5.5946e-05
0.00053898
5.09948e-05
0.00054196
4.64087e-05
0.000544699
4.22809e-05
0.000547216
3.86538e-05
0.000549526
3.55393e-05
0.000551633
3.29279e-05
0.000553537
3.07857e-05
0.00055523
2.90477e-05
0.000556707
2.76097e-05
0.000557966
2.63295e-05
2.50352e-05
0.000559016
0.000516817
2.95711e-05
0.000520069
5.1168e-05
0.000524161
6.32397e-05
0.000528603
6.82504e-05
0.000533072
6.85729e-05
0.000537379
6.60592e-05
0.00054143
6.20221e-05
0.000545194
5.73172e-05
0.000548668
5.24707e-05
0.00055187
4.77926e-05
0.000554821
4.34568e-05
0.000557546
3.95556e-05
0.000560065
3.61335e-05
0.000562396
3.32078e-05
0.000564549
3.07751e-05
0.000566524
2.88104e-05
0.000568316
2.72553e-05
0.000569915
2.60098e-05
0.000571316
2.49291e-05
2.38335e-05
0.000572517
0.00053105
2.77921e-05
0.0005342
4.80162e-05
0.000538151
5.92865e-05
0.000542444
6.39562e-05
0.00054677
6.42451e-05
0.000550951
6.18777e-05
0.000554895
5.80767e-05
0.000558569
5.36421e-05
0.00056197
4.9069e-05
0.000565111
4.46508e-05
0.000568014
4.05539e-05
0.000570701
3.68677e-05
0.000573196
3.36376e-05
0.00057552
3.08834e-05
0.000577686
2.86082e-05
0.000579702
2.67946e-05
0.000581562
2.53945e-05
0.000583257
2.43147e-05
0.000584774
2.34125e-05
2.25023e-05
0.000586105
0.00054568
2.60597e-05
0.000548729
4.49637e-05
0.000552545
5.54675e-05
0.000556693
5.98063e-05
0.00056088
6.00559e-05
0.000564935
5.78213e-05
0.000568769
5.42409e-05
0.000572348
5.00623e-05
0.000575666
4.57505e-05
0.000578734
4.15824e-05
0.000581571
3.77159e-05
0.000584201
3.42366e-05
0.00058665
3.11884e-05
0.00058894
2.85927e-05
0.000591091
2.64565e-05
0.000593115
2.47706e-05
0.000595011
2.34978e-05
0.00059677
2.2556e-05
0.000598374
2.18082e-05
2.10668e-05
0.000599809
0.000560715
2.43776e-05
0.000563666
4.2011e-05
0.000567352
5.17796e-05
0.000571359
5.57969e-05
0.000575411
5.60024e-05
0.000579342
5.38889e-05
0.000583066
5.05158e-05
0.000586547
4.65812e-05
0.000589775
4.2521e-05
0.000592761
3.85956e-05
0.000595523
3.49538e-05
0.000598083
3.1676e-05
0.000600467
2.88035e-05
0.000602702
2.63573e-05
0.000604812
2.43465e-05
0.000606813
2.27689e-05
0.000608712
2.15987e-05
0.0006105
2.07675e-05
0.00061216
2.01483e-05
1.95557e-05
0.000613671
0.000576169
2.27437e-05
0.000579022
3.91547e-05
0.000582581
4.82177e-05
0.000586453
5.19229e-05
0.000590373
5.20803e-05
0.000594183
5.0078e-05
0.000597797
4.69008e-05
0.000601177
4.31998e-05
0.000604314
3.9383e-05
0.000607215
3.56945e-05
0.000609894
3.22734e-05
0.000612375
2.91941e-05
0.000614684
2.64945e-05
0.000616848
2.41928e-05
0.000618895
2.22992e-05
0.000620847
2.0816e-05
0.000622717
1.97285e-05
0.000624501
1.8983e-05
0.000626183
1.84665e-05
1.8e-05
0.000627738
0.000592052
2.11607e-05
0.000594809
3.63951e-05
0.000598245
4.47799e-05
0.000601984
4.81814e-05
0.000605775
4.82874e-05
0.000609465
4.63869e-05
0.00061297
4.33951e-05
0.00061625
3.99184e-05
0.000619295
3.63377e-05
0.000622108
3.28808e-05
0.000624703
2.96771e-05
0.000627102
2.67947e-05
0.000629329
2.42667e-05
0.000631412
2.21086e-05
0.000633382
2.03288e-05
0.000635265
1.89327e-05
0.00063708
1.79137e-05
0.000638829
1.72335e-05
0.0006405
1.67953e-05
1.64315e-05
0.000642069
0.000608376
1.96275e-05
0.000611038
3.373e-05
0.000614353
4.14627e-05
0.000617962
4.45694e-05
0.000621627
4.46211e-05
0.000625198
4.28142e-05
0.000628594
3.99982e-05
0.000631774
3.67369e-05
0.000634726
3.3385e-05
0.000637451
3.01547e-05
0.000639963
2.71652e-05
0.000642278
2.44782e-05
0.000644422
2.21221e-05
0.000646422
2.01083e-05
0.000648307
1.8443e-05
0.000650108
1.71317e-05
0.000651848
1.6174e-05
0.000653536
1.55444e-05
0.000655168
1.5164e-05
1.48801e-05
0.000656719
0.000625154
1.81459e-05
0.000627721
3.11597e-05
0.000630917
3.82649e-05
0.000634399
4.10852e-05
0.000637938
4.10802e-05
0.000641391
3.93594e-05
0.000644678
3.671e-05
0.000647759
3.36555e-05
0.000650617
3.05253e-05
0.000653256
2.75159e-05
0.000655683
2.47369e-05
0.000657917
2.22435e-05
0.000659979
2.00593e-05
0.000661895
1.81916e-05
0.000663694
1.66436e-05
0.000665406
1.54191e-05
0.000667059
1.4521e-05
0.000668669
1.39338e-05
0.000670237
1.35957e-05
1.3372e-05
0.000671745
0.000642398
1.67154e-05
0.000644871
2.86829e-05
0.000647949
3.51848e-05
0.000651305
3.77271e-05
0.000654719
3.7664e-05
0.000658055
3.60224e-05
0.000661232
3.35311e-05
0.000664212
3.06749e-05
0.000666977
2.77589e-05
0.000669528
2.49645e-05
0.000671872
2.23916e-05
0.000674026
2.00893e-05
0.000676008
1.80761e-05
0.000677843
1.63562e-05
0.000679558
1.49285e-05
0.000681182
1.37952e-05
0.000682743
1.29591e-05
0.000684265
1.24121e-05
0.000685753
1.21068e-05
1.19275e-05
0.000687198
0.000660121
1.53372e-05
0.000662501
2.62999e-05
0.000665461
3.22216e-05
0.000668692
3.44945e-05
0.000671982
3.43721e-05
0.000675199
3.28037e-05
0.000678267
3.04623e-05
0.000681144
2.77961e-05
0.000683815
2.50868e-05
0.000686278
2.25008e-05
0.00068854
2.01289e-05
0.000690614
1.80138e-05
0.00069252
1.61703e-05
0.000694277
1.45983e-05
0.000695911
1.32943e-05
0.000697449
1.22565e-05
0.00069892
1.14875e-05
0.000700349
1.09824e-05
0.00070175
1.0706e-05
1.05604e-05
0.000703117
0.000678336
1.40115e-05
0.000680623
2.40102e-05
0.000683467
2.93746e-05
0.000686573
3.13871e-05
0.000689738
3.12049e-05
0.000692836
2.9704e-05
0.000695792
2.7505e-05
0.000698566
2.50208e-05
0.000701142
2.25104e-05
0.000703516
2.0126e-05
0.000705695
1.79491e-05
0.000707691
1.60169e-05
0.00070952
1.43399e-05
0.000711203
1.29153e-05
0.00071276
1.17362e-05
0.000714219
1.07983e-05
0.000715604
1.01015e-05
0.000716943
9.64291e-06
0.000718253
9.39564e-06
9.27809e-06
0.000719536
0.000697058
1.27385e-05
0.000699251
2.18136e-05
0.00070198
2.66433e-05
0.00070496
2.84043e-05
0.000708
2.81626e-05
0.000710978
2.67245e-05
0.000713821
2.46607e-05
0.00071649
2.23506e-05
0.000718969
2.00314e-05
0.000721252
1.78412e-05
0.000723348
1.58529e-05
0.000725265
1.40981e-05
0.000727021
1.25838e-05
0.000728631
1.13044e-05
0.000730116
1.02505e-05
0.0007315
9.41496e-06
0.000732805
8.79532e-06
0.000734059
8.38858e-06
0.000735281
8.17356e-06
8.08217e-06
0.000736477
0.0007163
1.15193e-05
0.0007184
1.97106e-05
0.000721013
2.40279e-05
0.000723868
2.55467e-05
0.000726783
2.52461e-05
0.000729639
2.38664e-05
0.000732368
2.19311e-05
0.00073493
1.97874e-05
0.000737309
1.76514e-05
0.000739501
1.56479e-05
0.000741511
1.38414e-05
0.000743351
1.2258e-05
0.000745032
1.09015e-05
0.000746572
9.764e-06
0.000747988
8.83393e-06
0.000749301
8.10183e-06
0.000750533
7.56283e-06
0.000751709
7.21296e-06
0.000752847
7.03458e-06
6.97034e-06
0.000753959
0.000736076
1.03531e-05
0.000738083
1.77003e-05
0.00074058
2.15277e-05
0.000743311
2.28141e-05
0.000746099
2.24558e-05
0.000748833
2.11308e-05
0.000751445
1.93176e-05
0.000753898
1.73328e-05
0.000756176
1.53722e-05
0.000758276
1.35478e-05
0.0007602
1.19156e-05
0.00076196
1.04971e-05
0.000763568
9.29284e-06
0.000765039
8.29291e-06
0.000766388
7.48406e-06
0.000767635
6.85496e-06
0.000768799
6.39855e-06
0.000769902
6.10954e-06
0.000770964
5.97229e-06
5.93777e-06
0.000771996
0.000756403
9.24167e-06
0.000758316
1.5784e-05
0.000760698
1.91435e-05
0.000763303
2.02072e-05
0.000765964
1.97929e-05
0.000768574
1.85191e-05
0.000771068
1.68219e-05
0.000773411
1.49885e-05
0.000775587
1.31955e-05
0.000777591
1.15421e-05
0.000779429
1.00769e-05
0.000781109
8.8162e-06
0.000782643
7.75809e-06
0.000784045
6.89053e-06
0.000785329
6.19932e-06
0.000786513
5.67135e-06
0.000787613
5.29799e-06
0.00078865
5.07244e-06
0.000789641
4.98019e-06
4.97847e-06
0.000790601
0.000777294
8.18344e-06
0.000779114
1.39602e-05
0.00078138
1.68744e-05
0.000783859
1.77257e-05
0.000786392
1.72574e-05
0.000788878
1.60321e-05
0.000791253
1.44451e-05
0.000793484
1.27559e-05
0.000795556
1.11225e-05
0.000797465
9.63232e-06
0.000799214
8.32615e-06
0.000800814
7.21624e-06
0.000802274
6.29737e-06
0.000803607
5.55678e-06
0.000804827
4.97849e-06
0.00080595
4.54893e-06
0.000806989
4.25756e-06
0.000807965
4.09678e-06
0.000808892
4.05226e-06
4.0863e-06
0.000809785
0.000798766
7.18072e-06
0.000800493
1.22305e-05
0.000802643
1.47215e-05
0.000804996
1.53706e-05
0.000807401
1.48505e-05
0.000809761
1.36708e-05
0.000812016
1.21884e-05
0.000814135
1.06362e-05
0.000816101
9.15454e-06
0.000817913
7.81939e-06
0.000819574
6.66451e-06
0.000821091
5.6976e-06
0.000822477
4.91133e-06
0.000823742
4.2913e-06
0.000824899
3.82108e-06
0.000825961
3.48597e-06
0.000826944
3.27476e-06
0.000827861
3.17855e-06
0.00082873
3.18352e-06
3.25548e-06
0.00082956
0.000820835
6.23112e-06
0.000822469
1.05931e-05
0.000824504
1.26834e-05
0.00082673
1.31411e-05
0.000829007
1.25721e-05
0.00083124
1.14357e-05
0.000833374
1.00525e-05
0.000835379
8.63023e-06
0.00083724
7.29246e-06
0.000838954
6.10416e-06
0.000840525
5.09254e-06
0.00084196
4.26097e-06
0.000843271
3.60011e-06
0.000844467
3.09427e-06
0.000845562
2.72651e-06
0.000846565
2.48156e-06
0.000847492
2.34756e-06
0.000848355
2.31483e-06
0.000849169
2.36976e-06
2.48108e-06
0.000849943
0.000843518
5.33738e-06
0.000845058
9.04964e-06
0.000846978
1.07613e-05
0.000849079
1.10381e-05
0.000851226
1.04229e-05
0.000853332
9.32749e-06
0.000855345
8.03812e-06
0.000857236
6.73874e-06
0.00085899
5.53683e-06
0.000860605
4.48741e-06
0.000862086
3.61064e-06
0.000863439
2.90682e-06
0.000864675
2.36391e-06
0.000865803
1.96572e-06
0.000866834
1.69451e-06
0.00086778
1.53496e-06
0.000868653
1.47458e-06
0.000869464
1.50334e-06
0.000870226
1.60774e-06
1.75897e-06
0.000870947
0.000866831
4.49633e-06
0.000868279
7.59773e-06
0.000870083
8.95352e-06
0.000872058
9.06054e-06
0.000874077
8.40235e-06
0.000876056
7.34602e-06
0.000877947
6.14541e-06
0.000879723
4.96195e-06
0.00088137
3.88819e-06
0.000882887
2.96909e-06
0.000884277
2.21945e-06
0.000885548
1.63511e-06
0.000886708
1.20308e-06
0.000887768
9.05496e-07
0.000888737
7.25021e-07
0.000889625
6.45571e-07
0.000890445
6.54937e-07
0.000891205
7.42391e-07
0.000891918
8.95001e-07
1.08581e-06
0.00089259
0.000890792
3.71106e-06
0.000892148
6.23909e-06
0.000893838
7.26096e-06
0.000895687
7.20888e-06
0.000897577
6.51077e-06
0.00089943
5.49151e-06
0.000901199
4.37453e-06
0.00090286
3.30005e-06
0.0009044
2.3465e-06
0.000905818
1.54975e-06
0.000907118
9.18712e-07
0.000908306
4.46262e-07
0.000909391
1.17351e-07
0.000910382
-8.6236e-08
0.000911289
-1.8241e-07
0.000912121
-1.86912e-07
0.000912887
-1.12335e-07
0.000913599
3.07725e-08
0.000914264
2.29525e-07
4.59005e-07
0.00091489
0.00091542
2.97766e-06
0.000916684
4.97081e-06
0.00091826
5.6814e-06
0.000919985
5.48162e-06
0.000921746
4.74708e-06
0.000923473
3.7633e-06
0.00092512
2.72508e-06
0.000926666
1.75288e-06
0.000928099
9.11675e-07
0.000929419
2.29213e-07
0.000930628
-2.91215e-07
0.000931733
-6.59578e-07
0.000932742
-8.92719e-07
0.000933665
-1.00936e-06
0.000934509
-1.02755e-06
0.000935285
-9.62852e-07
0.000935999
-8.27788e-07
0.000936663
-6.32806e-07
0.000937282
-3.90402e-07
-1.23822e-07
0.000937865
0.000940732
2.2995e-06
0.000941906
3.79454e-06
0.000943369
4.2156e-06
0.00094497
3.87886e-06
0.000946604
3.11117e-06
0.000948204
2.1611e-06
0.000949731
1.19674e-06
0.000951162
3.19988e-07
0.000952489
-4.16146e-07
0.000953709
-9.92788e-07
0.000954828
-1.41071e-06
0.000955851
-1.68318e-06
0.000956785
-1.82783e-06
0.000957639
-1.86433e-06
0.000958421
-1.81055e-06
0.00095914
-1.68213e-06
0.000959803
-1.49129e-06
0.000960419
-1.24842e-06
0.000960993
-9.65467e-07
-6.64065e-07
0.000961533
0.000966749
1.67198e-06
0.000967833
2.70687e-06
0.000969184
2.86088e-06
0.000970662
2.39857e-06
0.000972169
1.60146e-06
0.000973645
6.83682e-07
0.000975051
-2.11402e-07
0.000976369
-9.99352e-07
0.00097759
-1.63876e-06
0.000978713
-2.11724e-06
0.000979742
-2.44093e-06
0.000980683
-2.62469e-06
0.000981542
-2.68831e-06
0.000982329
-2.65113e-06
0.000983049
-2.5317e-06
0.000983712
-2.3449e-06
0.000984322
-2.1032e-06
0.00098489
-1.81636e-06
0.00098542
-1.49613e-06
-1.16241e-06
0.000985918
0.000993489
1.09861e-06
0.000994484
1.70924e-06
0.000995725
1.61755e-06
0.000997081
1.04041e-06
0.000998463
2.17147e-07
0.000999815
-6.69988e-07
0.0010011
-1.50093e-06
0.00100231
-2.20666e-06
0.00100343
-2.75653e-06
0.00100445
-3.14497e-06
0.00100539
-3.38192e-06
0.00100625
-3.4849e-06
0.00100704
-3.4744e-06
0.00100775
-3.37051e-06
0.00100841
-3.19134e-06
0.00100902
-2.95188e-06
0.00100958
-2.664e-06
0.0010101
-2.33747e-06
0.00101059
-1.98323e-06
-1.61996e-06
0.00101104
0.00102097
5.74318e-07
0.00102188
7.97778e-07
0.00102301
4.82493e-07
0.00102425
-1.98271e-07
0.00102551