/*--------------------------------*- C++ -*----------------------------------*\
| =========                 |                                                 |
| \\      /  F ield         | OpenFOAM: The Open Source CFD Toolbox           |
|  \\    /   O peration     | Version:  2.4.0                                 |
|   \\  /    A nd           | Web:      www.OpenFOAM.org                      |
|    \\/     M anipulation  |                                                 |
\*---------------------------------------------------------------------------*/
FoamFile
{
    version     2.0;
    format      ascii;
    class       volScalarField;
    location    "140";
    object      k;
}
// * * * * * * * * * * * * * * * * * * * * * * * * * * * * * * * * * * * * * //

dimensions      [0 2 -2 0 0 0 0];

internalField   nonuniform List<scalar> 
6000
(
0.0139096
0.00610091
0.00168748
0.00124693
0.00113163
0.00105603
0.000964297
0.00102138
0.00135822
0.00180827
0.00222799
0.0025789
0.00286983
0.00313648
0.00328735
0.00332601
0.003269
0.00313063
0.00290806
0.00257371
0.00205726
0.00208773
0.00212372
0.00215445
0.00216347
0.00212477
0.00201101
0.0018175
0.00157946
0.00135893
0.00141124
0.00100131
0.00196838
0.00283076
0.0033349
0.00356969
0.00361129
0.00351871
0.00333811
0.003119
0.00288173
0.00264219
0.00241579
0.00222354
0.00204686
0.00186028
0.00166578
0.00146417
0.00124874
0.000926182
0.00109309
0.00134416
0.00167495
0.0020991
0.00262439
0.0032912
0.00408373
0.00518692
0.00629229
0.00879621
0.0107997
0.00614274
0.00349989
0.00184599
0.00152627
0.0015048
0.00141725
0.00131459
0.00140365
0.00166816
0.00200513
0.0023785
0.00277952
0.00320397
0.00363946
0.00407736
0.00447832
0.00480252
0.00498384
0.00485734
0.00407294
0.00365644
0.00323958
0.00284051
0.00247809
0.00215245
0.00184625
0.00155853
0.00130057
0.00113407
0.00146486
0.00161388
0.00164846
0.00177535
0.00184944
0.00191751
0.00198591
0.00205646
0.00212379
0.00217529
0.00221249
0.00223728
0.00225227
0.00225999
0.00226091
0.00225459
0.00224212
0.00222274
0.00217272
0.00193474
0.00189091
0.00190112
0.00193268
0.00197837
0.00204052
0.00212165
0.00223978
0.00238869
0.00266439
0.00278679
0.0105283
0.00643305
0.00416781
0.00283858
0.00218668
0.00204272
0.00191427
0.00177877
0.0018534
0.00214648
0.00254557
0.00299248
0.00346406
0.00394723
0.00443655
0.00490949
0.00532933
0.00564587
0.00577609
0.00539183
0.00464167
0.00412732
0.00361055
0.00312255
0.00268911
0.00231427
0.00197539
0.00166729
0.00140594
0.0013213
0.00208963
0.00176823
0.00168502
0.00180023
0.00195598
0.00212863
0.00229328
0.00243799
0.00255159
0.00263773
0.00270014
0.00274229
0.00276778
0.00277966
0.00278042
0.0027718
0.00275383
0.00272205
0.0026172
0.00233332
0.00225713
0.00221555
0.00218853
0.00216841
0.00215598
0.00214789
0.00215716
0.00216639
0.00224525
0.00222001
0.0106768
0.00664182
0.00447813
0.00352131
0.00289779
0.00257759
0.00240768
0.0022639
0.00234552
0.00266147
0.00308323
0.00353767
0.00399761
0.00445209
0.00490162
0.00532418
0.00568835
0.00593801
0.00597079
0.00544472
0.00480357
0.00426792
0.00372518
0.00321651
0.00277183
0.00239705
0.00206897
0.00178224
0.00156723
0.0016634
0.00255827
0.00190284
0.00188213
0.00206013
0.0022817
0.00250299
0.00269729
0.00285464
0.00297097
0.00305404
0.0031091
0.00314077
0.00315337
0.00315046
0.00313481
0.00310815
0.00306856
0.00300495
0.00281728
0.00254672
0.00245582
0.00238902
0.00233633
0.0022917
0.00225628
0.00222533
0.00221233
0.00219539
0.00224768
0.00222238
0.0107878
0.00678351
0.00463502
0.00386988
0.00362161
0.00314682
0.0029204
0.00276359
0.00283644
0.00314526
0.0035506
0.00397024
0.004377
0.00476439
0.00513898
0.00548398
0.00577159
0.0059433
0.00587904
0.0053312
0.00479072
0.00426874
0.00373208
0.00322914
0.00279372
0.00243516
0.00213404
0.00189137
0.00176747
0.00212797
0.00280036
0.00205629
0.00211824
0.00234434
0.00260408
0.0028481
0.00305191
0.00320691
0.00331484
0.00338509
0.00342424
0.00343797
0.00343123
0.00340802
0.00337096
0.00332116
0.003254
0.00314745
0.00288539
0.00265761
0.00255999
0.00247951
0.00241321
0.00235674
0.0023119
0.00227343
0.00225654
0.00223439
0.00229582
0.0022678
0.0108522
0.00688309
0.00471878
0.0040125
0.00421704
0.00375954
0.00346161
0.00327951
0.00332298
0.0035961
0.00395495
0.00431168
0.00464085
0.00494145
0.00522695
0.00548942
0.00570219
0.00580607
0.00567298
0.00517191
0.00470865
0.00421343
0.00369618
0.00320915
0.00278984
0.00245298
0.00218718
0.00200613
0.00201808
0.00267672
0.00287827
0.00221222
0.00234491
0.00261019
0.00289768
0.00315464
0.00335919
0.00350422
0.00359717
0.00364876
0.0036669
0.00365829
0.00362842
0.00358167
0.00352021
0.00344418
0.00334571
0.00318696
0.00288369
0.00270256
0.00260251
0.00251461
0.00244088
0.00237845
0.0023297
0.00228924
0.00227378
0.00225238
0.00232866
0.00229516
0.0108881
0.00695386
0.00476561
0.00404053
0.00458183
0.00439612
0.00403308
0.00381258
0.00380769
0.0040208
0.00430976
0.00458396
0.00482083
0.00502575
0.00522035
0.00540659
0.00555714
0.0056118
0.00544492
0.00501444
0.0046085
0.00414316
0.00364971
0.00318149
0.0027793
0.00246523
0.00224027
0.00213781
0.00232965
0.003209
0.00286848
0.00235911
0.00255081
0.00285295
0.00316248
0.00342616
0.0036257
0.0037563
0.00383037
0.00385994
0.0038542
0.00382078
0.00376566
0.00369348
0.00360584
0.00350169
0.00336911
0.00315115
0.0028522
0.00270551
0.00260446
0.00251235
0.00243436
0.00236882
0.00231856
0.00227836
0.00226578
0.00224731
0.00233665
0.00229854
0.0109053
0.00700408
0.00479347
0.00401004
0.00472071
0.00499467
0.00463134
0.00436292
0.00429396
0.00442715
0.00462807
0.00480611
0.00494246
0.00504961
0.00515805
0.00527905
0.00538315
0.0054079
0.00523621
0.00487552
0.00451288
0.00407665
0.00360759
0.00315824
0.00277221
0.0024806
0.00230147
0.0022962
0.00270344
0.00360682
0.00283138
0.00249294
0.00273744
0.00307454
0.00340118
0.0036673
0.00385895
0.00397262
0.00402609
0.00403219
0.00400128
0.00394192
0.00386053
0.00376195
0.00364715
0.00351374
0.00334449
0.00307194
0.00281094
0.00268332
0.00258101
0.00248597
0.00240505
0.00233751
0.00228651
0.00224714
0.00223725
0.00222224
0.00232073
0.00227996
0.01091
0.00703991
0.00481173
0.0039538
0.004697
0.00547148
0.0052453
0.00493
0.00478522
0.00482288
0.00492202
0.00499484
0.00502693
0.00503802
0.00506745
0.00513423
0.00520617
0.00521757
0.00506042
0.00475963
0.00443069
0.00402129
0.0035757
0.00314448
0.00277348
0.00250417
0.00237671
0.00248985
0.00312814
0.00382007
0.00279943
0.00261446
0.0029088
0.00327758
0.00361731
0.00388353
0.00406593
0.0041629
0.00419563
0.00417805
0.00412172
0.00403609
0.00392804
0.00380261
0.00366016
0.00349672
0.00328802
0.00298227
0.00276751
0.00264804
0.00254337
0.0024455
0.00236188
0.00229243
0.00224047
0.00220154
0.0021933
0.00218129
0.00228455
0.00224292
0.0109068
0.00706591
0.00482534
0.00389009
0.00456958
0.00577337
0.00584947
0.00551201
0.00528462
0.00521545
0.0052029
0.00516504
0.00509202
0.00501031
0.0049674
0.00498788
0.00503796
0.00504878
0.00491744
0.00466693
0.00436467
0.00397919
0.00355556
0.00314169
0.00278513
0.00253888
0.00247065
0.00272558
0.00358168
0.00386718
0.0027781
0.00272666
0.00306835
0.00346491
0.00381525
0.00408122
0.00425496
0.00433663
0.00434938
0.00430856
0.00422701
0.00411518
0.0039804
0.00382793
0.00365754
0.00346333
0.00321225
0.0029059
0.00272652
0.00260812
0.00249973
0.00239848
0.00231178
0.00223991
0.00218627
0.00214687
0.00213879
0.00212865
0.00223248
0.00219119
0.010899
0.00708522
0.00483695
0.0038286
0.00438536
0.00589607
0.00639945
0.00610408
0.00579465
0.00561176
0.00548115
0.00533001
0.00515283
0.00498154
0.00487046
0.00484777
0.00488106
0.00490054
0.00480246
0.00459521
0.00431486
0.00395021
0.00354681
0.0031497
0.0028077
0.00258652
0.0025873
0.00300719
0.00402419
0.00378899
0.0027686
0.0028329
0.00321884
0.00363979
0.00400001
0.00426711
0.00443416
0.00450231
0.00449613
0.00443269
0.00432622
0.00418829
0.00402676
0.0038471
0.0036486
0.00342254
0.00313152
0.0028527
0.00269111
0.0025692
0.00245574
0.00235034
0.00225988
0.00218487
0.00212863
0.00208761
0.00207808
0.00206833
0.00216893
0.00212852
0.0108884
0.00709996
0.00484793
0.00377402
0.00417804
0.00586246
0.00684795
0.00669524
0.00631652
0.00601787
0.00576612
0.00550154
0.00522231
0.0049638
0.00478523
0.00471689
0.00473283
0.0047674
0.00470898
0.00454168
0.00428027
0.00393344
0.00354838
0.00316767
0.00284106
0.00264827
0.0027302
0.00333261
0.0043996
0.00363513
0.00277142
0.00293598
0.00336265
0.00380583
0.0041769
0.00444768
0.00461054
0.0046669
0.0046427
0.00455703
0.00442576
0.00426169
0.00407332
0.00386624
0.00363934
0.00337996
0.00306419
0.00281986
0.00266298
0.00253464
0.00241497
0.00230463
0.00220974
0.00213086
0.00207114
0.00202739
0.00201491
0.00200398
0.00209819
0.00205861
0.0108765
0.00711158
0.00485898
0.00372822
0.0039699
0.00570556
0.00716419
0.0072633
0.00684906
0.00643854
0.00606587
0.00568984
0.00531162
0.00496725
0.00471835
0.00459613
0.0045886
0.00464244
0.00463052
0.00450337
0.00425963
0.00392784
0.00355915
0.00319457
0.00288481
0.00272509
0.00290228
0.00369215
0.00465114
0.003453
0.00278667
0.00303802
0.00350209
0.00396687
0.00435103
0.00462864
0.00478971
0.00483556
0.00479377
0.00468587
0.00452959
0.0043391
0.00412361
0.00388877
0.00363287
0.00333849
0.00302242
0.00280247
0.00264262
0.00250609
0.00237938
0.00226344
0.00216357
0.00208023
0.00201631
0.00196892
0.00195228
0.00193873
0.00202413
0.0019849
0.0108641
0.00712108
0.0048704
0.00369152
0.00377438
0.00546091
0.00733733
0.00777737
0.00738687
0.0068767
0.0063868
0.0059034
0.00543027
0.00500089
0.00467589
0.00448621
0.00444389
0.00451906
0.00456131
0.00447729
0.00425167
0.00393252
0.00357809
0.00322944
0.00293847
0.00281793
0.00310545
0.00406813
0.00474226
0.00328216
0.00281389
0.00314059
0.00363951
0.00412668
0.00452697
0.00481455
0.00497573
0.00501168
0.00495215
0.00482155
0.00463968
0.00442222
0.00417913
0.003916
0.00363014
0.00330391
0.00300723
0.00279668
0.00262971
0.002484
0.0023497
0.00222771
0.00212245
0.00203426
0.00196569
0.00191403
0.00189237
0.00187507
0.00195006
0.00191047
0.0108516
0.00712914
0.0048823
0.00366341
0.00359866
0.00516175
0.00736816
0.0082095
0.00791732
0.00733258
0.00673323
0.00614862
0.00558599
0.00507274
0.00466407
0.00438902
0.00429602
0.00439191
0.00449628
0.00446059
0.00425526
0.00394683
0.00360439
0.00327139
0.00300153
0.00292753
0.00333977
0.00443629
0.00468945
0.0031372
0.00285241
0.00324497
0.00377732
0.00428882
0.00470853
0.00500871
0.00517124
0.00519713
0.0051191
0.00496485
0.00475651
0.00451127
0.00423991
0.0039478
0.00363077
0.00328629
0.00301109
0.00279969
0.00262344
0.00246807
0.00232589
0.00219756
0.0020867
0.00199344
0.00191998
0.00186371
0.00183659
0.00181478
0.00187855
0.00183787
0.0108394
0.00713621
0.00489467
0.00364301
0.00344569
0.00483636
0.00726731
0.00854097
0.00841884
0.00780236
0.00710695
0.00642943
0.00578423
0.0051895
0.00468927
0.00430801
0.00414489
0.00425729
0.004431
0.0044505
0.00426937
0.00397037
0.00363747
0.00331964
0.00307341
0.00305395
0.00360258
0.00477051
0.00452738
0.00302147
0.00290154
0.00335235
0.00391793
0.00445646
0.00489875
0.00521351
0.00537769
0.00539259
0.00529474
0.00511555
0.00487959
0.00460561
0.00430515
0.00398312
0.00363384
0.00329144
0.00302726
0.00280938
0.00262281
0.00245759
0.00230742
0.00217262
0.00205608
0.0019577
0.0018793
0.00181832
0.00178562
0.00175893
0.0018114
0.00176899
0.0108277
0.00714262
0.00490745
0.00362933
0.00331578
0.00450692
0.00705282
0.00875843
0.00886937
0.00827591
0.00750647
0.00674683
0.00602746
0.00535555
0.00475693
0.00424786
0.00399319
0.00411311
0.00436173
0.00444437
0.004293
0.00400292
0.00367696
0.00337354
0.00315347
0.00319727
0.00388795
0.00504166
0.00429454
0.00293512
0.00296062
0.00346393
0.00406367
0.00463231
0.00509998
0.0054306
0.00559556
0.00559786
0.00547846
0.00527276
0.00500788
0.00470405
0.00437357
0.00402043
0.00364508
0.0033158
0.00305141
0.00282418
0.0026268
0.00245172
0.00229356
0.00215227
0.00203007
0.00192661
0.00184337
0.00177775
0.0017396
0.00170798
0.00174959
0.00170504
0.0108166
0.00714857
0.00492056
0.00362134
0.00320769
0.00418954
0.00674735
0.0088539
0.0092532
0.00873395
0.00792607
0.00709839
0.00631444
0.00557163
0.0048698
0.00421336
0.0038461
0.0039603
0.00428467
0.0044396
0.00432515
0.00404438
0.00372267
0.00343249
0.00324102
0.00335699
0.00418587
0.00522566
0.00402601
0.00287676
0.0030291
0.00358097
0.00421672
0.00481864
0.00531386
0.00566076
0.00582463
0.00581219
0.00566919
0.00543521
0.00514004
0.00480523
0.00444366
0.00405824
0.00367221
0.00335215
0.00308088
0.00284285
0.00263447
0.00244964
0.00228353
0.00213578
0.00200799
0.00189957
0.00181166
0.0017416
0.00169828
0.0016619
0.00169345
0.00164658
0.0108062
0.00715423
0.0049339
0.00361812
0.00311939
0.00389486
0.00637551
0.00882559
0.00955666
0.00915645
0.008354
0.0074777
0.00663976
0.00583358
0.00502577
0.00420775
0.00371049
0.00380124
0.00419716
0.00443372
0.00436477
0.00409476
0.0037746
0.00349601
0.00333528
0.00353182
0.00448301
0.00529967
0.00375486
0.00284435
0.00310663
0.00370481
0.00437911
0.00501722
0.00554138
0.00590392
0.00606418
0.0060344
0.00586557
0.0056015
0.00527465
0.00490768
0.00451392
0.00409867
0.00371648
0.00339564
0.00311403
0.00286446
0.00264505
0.00245057
0.00227661
0.00212246
0.00198919
0.00187596
0.00178356
0.00170929
0.00166115
0.00162034
0.0016428
0.00159362
0.0107965
0.00715967
0.00494739
0.00361882
0.00304851
0.00362902
0.00596154
0.00867806
0.00976733
0.00953179
0.00876851
0.00787334
0.00699345
0.00613148
0.00521629
0.00423105
0.00359375
0.00364
0.00409743
0.0044244
0.00441068
0.00415408
0.0038329
0.0035637
0.00343543
0.00371957
0.00476274
0.00525379
0.0035061
0.0028354
0.0031931
0.00383687
0.00455266
0.00522945
0.00578299
0.00615936
0.00631314
0.00626312
0.00606609
0.00577009
0.00541025
0.00500993
0.00458298
0.00414968
0.00377227
0.00344346
0.00314975
0.00288826
0.00265787
0.00245387
0.00227215
0.00211168
0.00197303
0.00185514
0.00175846
0.00168024
0.00162766
0.0015828
0.00159716
0.00154582
0.0107874
0.00716497
0.00496093
0.00362271
0.00299268
0.00339472
0.00552763
0.00842165
0.00987535
0.00984771
0.00915354
0.00826575
0.0073606
0.00644935
0.00542589
0.00427898
0.00350502
0.00348084
0.00398466
0.00440938
0.00446163
0.00422236
0.00389786
0.00363526
0.00354054
0.00391685
0.00500812
0.005097
0.00329666
0.00284739
0.00328865
0.00397858
0.00473899
0.00545632
0.00603885
0.00642637
0.00657019
0.00649678
0.00626917
0.00593945
0.00554539
0.00511054
0.00465165
0.00421535
0.0038347
0.00349398
0.00318727
0.00291368
0.00267236
0.00245898
0.0022696
0.0021029
0.00195899
0.00183658
0.00173582
0.00165388
0.00159722
0.00154867
0.0015559
0.00150263
0.010779
0.00717017
0.00497446
0.00362917
0.00294964
0.00319219
0.00509274
0.00807137
0.00987451
0.010092
0.0094978
0.00863502
0.00771878
0.00676505
0.00563292
0.00435025
0.00345088
0.00332713
0.00385888
0.00438661
0.00451623
0.00429957
0.00396988
0.00371048
0.00364954
0.00411903
0.00520299
0.00486121
0.00312751
0.00287809
0.00339367
0.00413142
0.00493952
0.00569853
0.00630877
0.00670429
0.00683376
0.00673367
0.00647312
0.006108
0.0056786
0.00520819
0.0047282
0.00429151
0.0039008
0.00354618
0.003226
0.00294024
0.00268808
0.00246543
0.00226849
0.00209565
0.00194659
0.0018198
0.00171515
0.0016297
0.00156928
0.00151742
0.00151835
0.00146341
0.0107712
0.00717529
0.0049879
0.00363766
0.00291734
0.00301999
0.00467206
0.00764554
0.00976298
0.0102534
0.00978964
0.00896918
0.00804869
0.00705348
0.00582663
0.0044422
0.00342394
0.00318208
0.00372088
0.00435416
0.00457297
0.0043856
0.00404947
0.0037893
0.00376115
0.00432009
0.00533496
0.00457698
0.0029971
0.00292558
0.00350881
0.00429688
0.00515544
0.00595639
0.00659218
0.00699192
0.00710208
0.00697196
0.00667623
0.00627415
0.00580834
0.00530463
0.00481712
0.00437359
0.0039689
0.00359938
0.00326548
0.00296752
0.00270462
0.00247284
0.00226844
0.00208955
0.00193545
0.00180442
0.00169603
0.00160728
0.00154338
0.00148851
0.00148389
0.00142753
0.0107641
0.00718034
0.00500121
0.00364772
0.00289397
0.00287572
0.00427682
0.0071643
0.00954367
0.0103225
0.0100176
0.00925683
0.0083383
0.00730292
0.00600055
0.00454133
0.0034165
0.00304821
0.00357204
0.00431037
0.00463023
0.00448022
0.00413717
0.00387183
0.00387409
0.00451305
0.00539413
0.00427202
0.00290284
0.00298839
0.00363497
0.00447641
0.00538771
0.00622987
0.00688805
0.00728731
0.0073731
0.00720964
0.00687666
0.0064363
0.00593305
0.00540866
0.00491493
0.00445868
0.00403798
0.00365303
0.00330531
0.00299519
0.00272165
0.00248087
0.00226912
0.00208427
0.00192525
0.00179009
0.00167812
0.00158626
0.00151913
0.00146153
0.00145196
0.00139442
0.0107575
0.00718533
0.00501434
0.003659
0.00287797
0.00275648
0.00391454
0.00664813
0.00922406
0.010293
0.0101713
0.00948759
0.00857825
0.00750758
0.00615075
0.0046372
0.00342122
0.00292681
0.00341415
0.00425379
0.0046863
0.00458309
0.00423358
0.00395832
0.00398724
0.00468992
0.00537724
0.00396865
0.00284175
0.00306549
0.00377322
0.00467144
0.005637
0.0065185
0.00719493
0.0075876
0.00764453
0.00744454
0.00707254
0.00659284
0.00605763
0.00552276
0.00501758
0.00454506
0.00410733
0.00370674
0.00334516
0.00302292
0.00273887
0.00248922
0.00227024
0.00207954
0.0019157
0.00177655
0.00166114
0.00156632
0.00149619
0.00143609
0.00142211
0.0013636
0.0107514
0.00719027
0.00502724
0.00367117
0.002868
0.00265921
0.00358948
0.00611658
0.00881576
0.0101617
0.0102418
0.00965244
0.00876156
0.00766488
0.00627364
0.00472176
0.00343104
0.00281775
0.00324928
0.00418328
0.00473942
0.0046937
0.00433932
0.00404916
0.00409965
0.00484277
0.00528327
0.0036859
0.00281085
0.0031563
0.00392487
0.00488327
0.00590364
0.0068214
0.00751093
0.00789001
0.00791372
0.00767426
0.00726184
0.00674375
0.00619013
0.00564351
0.00512233
0.00463168
0.00417645
0.00376011
0.0033847
0.00305044
0.00275601
0.00249764
0.00227155
0.00207511
0.00190657
0.00176355
0.00164485
0.00154722
0.00147429
0.00141191
0.00139397
0.00133466
0.0107459
0.00719514
0.0050399
0.00368399
0.00286294
0.0025809
0.00330323
0.00558726
0.00833369
0.00992942
0.0102226
0.00974394
0.00888319
0.00777345
0.00636551
0.00478867
0.00343952
0.00271961
0.00307961
0.00409799
0.00478774
0.00481139
0.00445496
0.00414489
0.00421045
0.0049637
0.00511786
0.00343652
0.00280727
0.00326071
0.00409136
0.00511308
0.00618756
0.00713713
0.00783352
0.00819187
0.00817763
0.00789612
0.00744234
0.00689841
0.00632976
0.00576747
0.00522753
0.00471782
0.0042449
0.00381282
0.00342365
0.00307748
0.00277282
0.00250588
0.00227283
0.00207078
0.00189766
0.0017509
0.00162904
0.00152876
0.0014532
0.00138874
0.00136721
0.00130727
0.0107408
0.00719995
0.00505228
0.00369725
0.00286183
0.00251875
0.0030553
0.00507506
0.0077951
0.00960105
0.0101098
0.00975648
0.00893953
0.007832
0.00642271
0.00483284
0.00344097
0.00263003
0.00290732
0.00399745
0.00482944
0.00493534
0.00458104
0.00424618
0.00431817
0.00504603
0.00489235
0.0032298
0.00282843
0.00337905
0.00427432
0.00536186
0.00648822
0.00746363
0.00815928
0.00848937
0.00843273
0.00810714
0.00762183
0.0070589
0.00647339
0.00589228
0.0053321
0.00480293
0.0043123
0.00386455
0.00346174
0.00310381
0.00278908
0.00251375
0.00227387
0.00206634
0.00188879
0.00173842
0.00161355
0.00151074
0.00143274
0.00136636
0.00134158
0.00128117
0.0107361
0.00720468
0.00506437
0.00371077
0.00286389
0.00247024
0.00284376
0.00459178
0.00721847
0.00918516
0.00990288
0.0096864
0.00892808
0.007839
0.00644183
0.00485017
0.00343058
0.00254608
0.00273448
0.00388155
0.00486267
0.00506453
0.00471803
0.00435382
0.00442102
0.00508527
0.0046276
0.0030669
0.00287223
0.00351214
0.00447556
0.00563042
0.00680464
0.00779813
0.00848376
0.00877769
0.00867495
0.00831343
0.00780426
0.00722306
0.00661826
0.00601638
0.00543528
0.00488654
0.00437828
0.003915
0.0034987
0.00312918
0.00280458
0.00252103
0.00227451
0.00206165
0.0018798
0.00172596
0.00159821
0.00149303
0.00141275
0.00134462
0.00131689
0.00125612
0.0107318
0.00720934
0.00507614
0.00372441
0.00286847
0.00243311
0.00266573
0.00414598
0.0066224
0.00869372
0.00960427
0.00953221
0.00884728
0.00779273
0.0064199
0.00483739
0.0034045
0.00246468
0.00256295
0.00375058
0.00488568
0.00519784
0.00486629
0.00446872
0.00451783
0.00507938
0.00434568
0.0029453
0.00293708
0.00366129
0.00469716
0.00591947
0.00713549
0.00813703
0.00880123
0.00905157
0.00890823
0.00851906
0.00798898
0.0073883
0.00676238
0.00613872
0.00553647
0.00496825
0.00444252
0.00396389
0.0035343
0.00315338
0.00281912
0.00252756
0.00227456
0.00205654
0.00187054
0.00171338
0.0015829
0.00147549
0.00139309
0.00132336
0.00129295
0.00123195
0.010728
0.00721392
0.0050876
0.00373806
0.00287502
0.00240541
0.00251781
0.0037431
0.0060246
0.00814144
0.00921994
0.00929472
0.00869656
0.00769162
0.0063545
0.00479207
0.0033598
0.00238296
0.00239437
0.00360526
0.00489677
0.00533395
0.00502607
0.00459179
0.00460853
0.0050296
0.00406435
0.00286216
0.00302201
0.00382853
0.00494178
0.0062301
0.00747917
0.00847497
0.00910527
0.00931256
0.00913687
0.00872445
0.00817401
0.00755248
0.00690437
0.00625851
0.00563516
0.00504764
0.00450468
0.00401094
0.00356828
0.0031762
0.00283252
0.00253317
0.00227389
0.00205087
0.0018609
0.00170057
0.00156751
0.00145801
0.00137364
0.00130246
0.00126963
0.00120851
0.0107244
0.0072184
0.00509872
0.00375164
0.0028831
0.00238548
0.00239641
0.00338577
0.00544099
0.00754496
0.00875891
0.00897714
0.00847655
0.00753464
0.00624392
0.00471255
0.00329448
0.00229841
0.0022301
0.00344669
0.0048944
0.00547146
0.00519747
0.00472397
0.00469355
0.00493846
0.00379776
0.00281481
0.00312686
0.00401686
0.0052131
0.0065643
0.00782652
0.00880551
0.00939739
0.00956498
0.00936219
0.00892848
0.00835732
0.00771397
0.00704318
0.00637511
0.00573087
0.00512435
0.00456444
0.00405587
0.00360042
0.00319744
0.00284458
0.00253769
0.00227235
0.00204453
0.00185075
0.00168742
0.00155193
0.00144049
0.0013543
0.00128183
0.0012468
0.00118568
0.0107212
0.00722279
0.0051095
0.00376506
0.00289234
0.0023719
0.00229798
0.00307426
0.00488502
0.00692189
0.00823303
0.00858515
0.0081893
0.00732167
0.00608738
0.00459809
0.00320744
0.00220914
0.00207127
0.00327641
0.00487717
0.00560886
0.00538046
0.00486612
0.0047709
0.00481042
0.00355646
0.00280092
0.00325254
0.00423111
0.00551611
0.00691101
0.00817421
0.00912764
0.00967929
0.00981085
0.00958399
0.00912957
0.00853721
0.00787152
0.007178
0.00648795
0.00582317
0.00519799
0.00462148
0.00409841
0.00363048
0.0032169
0.00285515
0.00254097
0.0022698
0.00203739
0.00184
0.00167383
0.00153607
0.00142284
0.001335
0.00126137
0.00122435
0.00116334
0.0107182
0.00722708
0.00511995
0.00377828
0.00290244
0.00236348
0.00221918
0.00280703
0.00436728
0.00628987
0.00765641
0.00812685
0.00783853
0.00705381
0.0058851
0.00444883
0.00309849
0.0021139
0.00191874
0.0030963
0.00484391
0.00574454
0.00557484
0.00501888
0.00483784
0.00465318
0.00334754
0.0028188
0.00340153
0.0044784
0.00584339
0.0072668
0.00852009
0.00944096
0.00995227
0.0100508
0.00980134
0.00932621
0.0087123
0.00802416
0.00730814
0.00659649
0.00591161
0.00526821
0.00467551
0.00413831
0.00365824
0.00323438
0.00286405
0.00254287
0.00226613
0.00202934
0.00182854
0.00165972
0.00151986
0.00140498
0.00131565
0.001241
0.00120221
0.00114142
0.0107155
0.00723126
0.00513005
0.00379123
0.00291316
0.00235921
0.00215696
0.00258118
0.00389524
0.00566563
0.00704478
0.00761257
0.00742984
0.00673368
0.00563858
0.004266
0.00296837
0.0020122
0.00177321
0.00290861
0.00479367
0.00587687
0.00578027
0.00518259
0.00489395
0.00447402
0.00317619
0.00286773
0.00357861
0.00476084
0.00618893
0.00762883
0.00886237
0.00974546
0.0102172
0.0102848
0.0100131
0.00951704
0.00888145
0.00817106
0.00743296
0.00670023
0.00599578
0.00533466
0.00472622
0.0041753
0.00368348
0.00324971
0.00287114
0.00254326
0.00226121
0.00202029
0.00181628
0.001645
0.00150322
0.00138686
0.00129618
0.00122067
0.0011803
0.00111982
0.0107131
0.00723533
0.00513982
0.0038039
0.0029243
0.00235826
0.00210859
0.00239296
0.00347341
0.00506419
0.00641473
0.00705464
0.00697071
0.00636556
0.00535063
0.00405186
0.00281872
0.00190421
0.00163523
0.00271583
0.00472578
0.00600416
0.00599627
0.00535748
0.00493939
0.00428196
0.00304512
0.00294843
0.00379135
0.0050729
0.00655016
0.00799449
0.00919968
0.0100413
0.0104745
0.0105121
0.0102181
0.00970089
0.00904373
0.00831149
0.00755189
0.0067987
0.00607527
0.00539697
0.0047733
0.00420914
0.003706
0.00326271
0.00287626
0.00254201
0.00225495
0.00201014
0.00180316
0.00162962
0.00148609
0.00136841
0.00127655
0.00120031
0.00115855
0.0010985
0.0107109
0.00723928
0.00514924
0.00381624
0.00293569
0.00235996
0.00207168
0.0022382
0.0031035
0.00449815
0.0057829
0.00646691
0.00647054
0.00595551
0.0050256
0.0038099
0.00265208
0.00179084
0.00150527
0.00252066
0.00463985
0.00612471
0.00622224
0.00554376
0.00497222
0.00408737
0.00295565
0.0030638
0.00404362
0.00541026
0.00692435
0.00836138
0.0095309
0.0103286
0.0107242
0.0107321
0.0104152
0.00987678
0.00919833
0.0084448
0.00766439
0.00689142
0.00614968
0.00545481
0.00481646
0.00423957
0.00372557
0.0032732
0.00287926
0.002539
0.00224723
0.00199882
0.00178909
0.0016135
0.00146842
0.00134959
0.00125671
0.00117988
0.00113691
0.00107738
0.0107089
0.00724312
0.00515832
0.00382825
0.00294721
0.00236373
0.00204418
0.00211262
0.00278488
0.00397726
0.00516507
0.00586426
0.00594043
0.00551137
0.00466932
0.00354475
0.00247186
0.0016736
0.00138377
0.00232591
0.00453579
0.00623681
0.00645754
0.0057417
0.00498757
0.0038998
0.00290905
0.00321952
0.00433322
0.00577096
0.00730867
0.00872738
0.00985515
0.0106074
0.0109659
0.0109437
0.0106036
0.0100439
0.00934453
0.00857039
0.00776993
0.00697795
0.0062186
0.00550783
0.00485542
0.00426635
0.00374201
0.00328101
0.00288001
0.00253411
0.00223796
0.00198623
0.00177402
0.0015966
0.00145016
0.00133035
0.00123661
0.00115933
0.00111534
0.00105643
0.010707
0.00724684
0.00516707
0.0038399
0.00295875
0.00236912
0.00202435
0.00201202
0.00251507
0.00350817
0.00457545
0.00526184
0.00539284
0.0050426
0.00428915
0.00326225
0.00228226
0.00155452
0.00127114
0.00213441
0.00441383
0.00633874
0.00670145
0.00595139
0.00498846
0.00372794
0.00290781
0.00342287
0.00465576
0.00615258
0.00770034
0.0090906
0.0101717
0.0108774
0.0111987
0.0111462
0.0107824
0.0102014
0.0094817
0.00868769
0.00786801
0.00705784
0.00628167
0.00555571
0.0048899
0.00428925
0.00375512
0.00328598
0.00287837
0.00252724
0.00222706
0.00197231
0.00175788
0.00157886
0.00143126
0.00131065
0.00121622
0.00113864
0.00109379
0.00103561
0.0107054
0.00725043
0.00517549
0.00385118
0.00297023
0.00237574
0.00201072
0.00193253
0.00229025
0.00309446
0.00402592
0.0046744
0.00484112
0.0045601
0.00389383
0.00296925
0.00208808
0.00143603
0.00116776
0.00194887
0.00427449
0.00642873
0.00695326
0.00617272
0.00497903
0.00358023
0.00295655
0.00367474
0.00500993
0.00655229
0.00809663
0.00944936
0.0104798
0.0111382
0.0114219
0.0113386
0.0109507
0.0103487
0.00960925
0.00879618
0.00795816
0.00713067
0.0063385
0.00559812
0.00491962
0.00430804
0.00376469
0.00328796
0.00287422
0.00251828
0.00221445
0.001957
0.00174063
0.00156025
0.0014117
0.00129048
0.00119551
0.00111778
0.00107224
0.00101489
0.0107039
0.0072539
0.00518358
0.0038621
0.00298157
0.00238328
0.00200206
0.00187062
0.00210581
0.00273688
0.00352555
0.00411549
0.00429887
0.00407575
0.00349328
0.00267347
0.00189452
0.00132071
0.00107399
0.00177178
0.00411859
0.00650494
0.00721234
0.00640595
0.00496317
0.00346531
0.00306358
0.00397281
0.00539395
0.00696704
0.00849493
0.00980217
0.0107788
0.0113893
0.011635
0.0115204
0.0111081
0.0104852
0.00972664
0.00889535
0.00803992
0.00719602
0.00638873
0.00563475
0.0049443
0.00432249
0.00377056
0.0032868
0.00286744
0.00250714
0.00220004
0.00194024
0.00172222
0.00154073
0.00139145
0.00126979
0.00117448
0.00109673
0.00105066
0.000994235
0.0107025
0.00725725
0.00519135
0.00387263
0.00299273
0.0023915
0.00199736
0.0018232
0.00195673
0.00243377
0.00308029
0.00359668
0.00377923
0.00360191
0.00309811
0.00238305
0.00170686
0.00121113
0.000990063
0.00160534
0.00394723
0.00656547
0.00747808
0.00665254
0.00494667
0.0033933
0.00323507
0.0043151
0.00580543
0.00739362
0.00889281
0.0101477
0.011068
0.0116299
0.0118373
0.0116908
0.0112538
0.0106104
0.00983337
0.00898474
0.00811284
0.0072535
0.006432
0.00566529
0.0049637
0.00433238
0.00377254
0.00328236
0.00285791
0.00249373
0.00218378
0.00192197
0.00170261
0.00152027
0.00137049
0.00124859
0.00115309
0.00107548
0.00102904
0.000973636
0.0107013
0.00726047
0.0051988
0.00388279
0.00300366
0.00240018
0.00199579
0.00178757
0.00183801
0.00218159
0.00269293
0.0031269
0.003294
0.00315065
0.00271911
0.00210608
0.00153009
0.00110963
0.000916081
0.00145132
0.0037618
0.00660825
0.00774963
0.00691527
0.00493844
0.00337625
0.00347418
0.0046997
0.00624142
0.00782877
0.009288
0.0104847
0.0113467
0.0118596
0.0120282
0.0118492
0.0113874
0.0107238
0.00992897
0.0090639
0.00817652
0.00730271
0.00646798
0.00568944
0.00497755
0.00433751
0.00377047
0.0032745
0.00284554
0.00247797
0.0021656
0.00190217
0.00168177
0.00149886
0.0013488
0.00122685
0.00113134
0.00105401
0.00100737
0.00095308
0.0107002
0.00726356
0.00520594
0.00389257
0.00301432
0.00240917
0.00199666
0.00176148
0.00174483
0.00197553
0.00236334
0.00271208
0.00285292
0.00273292
0.00236636
0.00184991
0.00136843
0.00101805
0.000851939
0.00131101
0.00356393
0.006631
0.00802584
0.00719762
0.00495086
0.00342828
0.00378177
0.00512423
0.00669852
0.00826931
0.00967837
0.010812
0.0116141
0.0120775
0.0122067
0.011995
0.0115084
0.0108249
0.010013
0.0091324
0.00823054
0.0073433
0.00649633
0.00570692
0.00498563
0.00433768
0.00376419
0.00326311
0.00283023
0.0024598
0.00214546
0.00188078
0.00165968
0.00147647
0.00132637
0.00120458
0.00110923
0.00103233
0.000985642
0.00093256
0.0106992
0.00726653
0.00521278
0.00390197
0.00302471
0.00241833
0.00199943
0.001743
0.00167284
0.00181004
0.00208889
0.00235485
0.00246289
0.00235759
0.00204832
0.00162046
0.00122504
0.00093762
0.0007973
0.0011852
0.00335551
0.00663123
0.00830524
0.0075029
0.00499967
0.00356446
0.00415667
0.00558576
0.007173
0.00871213
0.010062
0.0111285
0.0118695
0.0122829
0.0123719
0.0121276
0.0116163
0.0109133
0.0100851
0.00918985
0.00827453
0.00737491
0.00651674
0.00571745
0.0049877
0.00433271
0.00375354
0.00324805
0.00281189
0.00243914
0.00212331