/*--------------------------------*- C++ -*----------------------------------*\
| =========                 |                                                 |
| \\      /  F ield         | OpenFOAM: The Open Source CFD Toolbox           |
|  \\    /   O peration     | Version:  2.4.0                                 |
|   \\  /    A nd           | Web:      www.OpenFOAM.org                      |
|    \\/     M anipulation  |                                                 |
\*---------------------------------------------------------------------------*/
FoamFile
{
    version     2.0;
    format      ascii;
    class       surfaceScalarField;
    location    "7.31";
    object      phi;
}
// * * * * * * * * * * * * * * * * * * * * * * * * * * * * * * * * * * * * * //

dimensions      [0 3 -1 0 0 0 0];

internalField   nonuniform List<scalar> 
11840
(
7.85112e-07
9.21489e-06
-2.03291e-08
8.05441e-07
-4.80753e-08
2.77461e-08
-7.30514e-08
2.49761e-08
-8.37744e-08
1.0723e-08
-8.51704e-08
1.396e-09
-8.91248e-08
3.95443e-09
-8.8628e-08
-4.96848e-10
-9.10113e-08
2.38331e-09
-9.15456e-08
5.3428e-10
-9.42659e-08
2.72029e-09
-9.67777e-08
2.51188e-09
-1.01165e-07
4.38718e-09
-1.06319e-07
5.15441e-09
-1.13228e-07
6.90902e-09
-1.21401e-07
8.17305e-09
-1.31289e-07
9.88794e-09
-1.42691e-07
1.14016e-08
-1.55801e-07
1.31098e-08
-1.70521e-07
1.47201e-08
-1.86884e-07
1.6363e-08
-2.04759e-07
1.78754e-08
-2.24016e-07
1.92563e-08
-2.44393e-07
2.03778e-08
-2.65572e-07
2.11787e-08
-2.87135e-07
2.15626e-08
-3.08595e-07
2.14608e-08
-3.29373e-07
2.07776e-08
-3.48791e-07
1.94179e-08
-3.66086e-07
1.72949e-08
-3.80426e-07
1.43405e-08
-3.90925e-07
1.0499e-08
-3.96674e-07
5.74866e-09
-3.96814e-07
1.3956e-10
-3.9043e-07
-6.38363e-09
-3.76755e-07
-1.36748e-08
-3.55128e-07
-2.16267e-08
-3.24965e-07
-3.01636e-08
-2.85948e-07
-3.90167e-08
-2.37772e-07
-4.81758e-08
-1.8068e-07
-5.70923e-08
-1.14914e-07
-6.57659e-08
-4.20184e-08
-7.28957e-08
3.43903e-08
-7.64087e-08
1.08488e-07
-7.40977e-08
1.8291e-07
-7.44216e-08
2.54715e-07
-7.18057e-08
3.28212e-07
-7.34966e-08
3.94935e-07
-6.67236e-08
4.65886e-07
-7.0951e-08
5.21693e-07
-5.58064e-08
5.90343e-07
-6.86498e-08
6.27135e-07
-3.67922e-08
6.99499e-07
-7.23642e-08
7.05097e-07
-5.5982e-09
7.98132e-07
-9.30345e-08
7.53555e-07
4.45767e-08
9.06547e-07
-1.52992e-07
7.86979e-07
1.19568e-07
-3.98711e-07
1.9181e-06
1.72968e-05
1.0218e-07
2.62136e-06
-7.43377e-08
2.04264e-07
-1.77888e-07
1.28526e-07
-2.09728e-07
4.25635e-08
-2.27244e-07
1.89113e-08
-2.3769e-07
1.44006e-08
-2.42552e-07
4.36474e-09
-2.48745e-07
8.57655e-09
-2.53318e-07
5.1073e-09
-2.607e-07
1.01024e-08
-2.69183e-07
1.09952e-08
-2.81282e-07
1.6486e-08
-2.96224e-07
2.00967e-08
-3.15238e-07
2.59229e-08
-3.37965e-07
3.08992e-08
-3.64954e-07
3.68777e-08
-3.96035e-07
4.24825e-08
-4.31399e-07
4.84738e-08
-4.70874e-07
5.41952e-08
-5.14346e-07
5.98344e-08
-5.61429e-07
6.4959e-08
-6.11622e-07
6.94491e-08
-6.64155e-07
7.29107e-08
-7.18069e-07
7.5093e-08
-7.72196e-07
7.5689e-08
-8.25189e-07
7.44543e-08
-8.75494e-07
7.10821e-08
-9.21343e-07
6.52674e-08
-9.60793e-07
5.67449e-08
-9.91768e-07
4.53154e-08
-1.0121e-06
3.08319e-08
-1.01962e-06
1.32664e-08
-1.01216e-06
-7.31984e-09
-9.87767e-07
-3.07767e-08
-9.44566e-07
-5.68757e-08
-8.81008e-07
-8.51841e-08
-7.95779e-07
-1.15393e-07
-6.8804e-07
-1.46756e-07
-5.57198e-07
-1.79018e-07
-4.03606e-07
-2.10684e-07
-2.28453e-07
-2.40919e-07
-3.55644e-08
-2.65784e-07
1.61965e-07
-2.73938e-07
3.53543e-07
-2.65675e-07
5.43831e-07
-2.6471e-07
7.2921e-07
-2.57185e-07
9.13224e-07
-2.57511e-07
1.08586e-06
-2.39361e-07
1.2576e-06
-2.42691e-07
1.40691e-06
-2.05111e-07
1.56277e-06
-2.24516e-07
1.6769e-06
-1.50922e-07
1.82146e-06
-2.16925e-07
1.88646e-06
-7.05916e-08
2.03945e-06
-2.46024e-07
2.03844e-06
4.55829e-08
2.25528e-06
-3.69833e-07
2.17428e-06
2.00572e-07
-1.0431e-06
2.91716e-06
2.43796e-05
3.96463e-07
5.14206e-06
-4.05404e-08
6.41267e-07
-2.39369e-07
3.27355e-07
-3.0247e-07
1.05664e-07
-3.44183e-07
6.06248e-08
-3.64177e-07
3.43944e-08
-3.7812e-07
1.8308e-08
-3.89393e-07
1.98497e-08
-3.99741e-07
1.54553e-08
-4.12271e-07
2.26325e-08
-4.27337e-07
2.6061e-08
-4.47043e-07
3.61923e-08
-4.71585e-07
4.46383e-08
-5.02036e-07
5.63738e-08
-5.38435e-07
6.72979e-08
-5.81236e-07
7.96795e-08
-6.30381e-07
9.16273e-08
-6.8594e-07
1.04033e-07
-7.4766e-07
1.15915e-07
-8.1519e-07
1.27364e-07
-8.87848e-07
1.37617e-07
-9.6469e-07
1.46291e-07
-1.0444e-06
1.52622e-07
-1.12535e-06
1.56046e-07
-1.20563e-06
1.5596e-07
-1.28303e-06
1.51856e-07
-1.35508e-06
1.43137e-07
-1.41903e-06
1.29216e-07
-1.4719e-06
1.09609e-07
-1.51055e-06
8.3973e-08
-1.53181e-06
5.20884e-08
-1.53251e-06
1.39678e-08
-1.50963e-06
-3.02011e-08
-1.46043e-06
-7.9973e-08
-1.38247e-06
-1.34835e-07
-1.27378e-06
-1.93878e-07
-1.13286e-06
-2.56316e-07
-9.58928e-07
-3.20686e-07
-7.51913e-07
-3.86033e-07
-5.13163e-07
-4.49433e-07
-2.46133e-07
-5.0795e-07
4.17696e-08
-5.53687e-07
3.33317e-07
-5.65486e-07
6.20159e-07
-5.52517e-07
9.06808e-07
-5.51359e-07
1.18925e-06
-5.39627e-07
1.46741e-06
-5.35666e-07
1.73294e-06
-5.049e-07
1.9906e-06
-5.00344e-07
2.2245e-06
-4.39012e-07
2.45291e-06
-4.52928e-07
2.64164e-06
-3.39655e-07
2.8409e-06
-4.16184e-07
2.97256e-06
-2.02254e-07
3.15855e-06
-4.32009e-07
3.22506e-06
-2.09274e-08
3.45485e-06
-5.99625e-07
3.46974e-06
1.85684e-07
-1.77261e-06
3.80889e-06
3.05707e-05
8.13205e-07
8.13775e-06
5.2435e-08
1.40204e-06
-2.53314e-07
6.33103e-07
-3.61941e-07
2.14292e-07
-4.33778e-07
1.32461e-07
-4.68298e-07
6.8915e-08
-4.94013e-07
4.40224e-08
-5.12558e-07
3.83951e-08
-5.29902e-07
3.27988e-08
-5.48485e-07
4.12156e-08
-5.7046e-07
4.80367e-08
-5.97809e-07
6.35405e-08
-6.31551e-07
7.83809e-08
-6.72726e-07
9.75489e-08
-7.21685e-07
1.16257e-07
-7.78811e-07
1.36805e-07
-8.44081e-07
1.56898e-07
-9.17416e-07
1.77367e-07
-9.98402e-07
1.96902e-07
-1.08639e-06
2.15356e-07
-1.18034e-06
2.31564e-07
-1.27881e-06
2.44756e-07
-1.37989e-06
2.53701e-07
-1.48127e-06
2.57432e-07
-1.5803e-06
2.54989e-07
-1.67399e-06
2.4555e-07
-1.75905e-06
2.28193e-07
-1.83187e-06
2.02035e-07
-1.88865e-06
1.66389e-07
-1.92549e-06
1.20819e-07
-1.93852e-06
6.51163e-08
-1.92399e-06
-5.59907e-10
-1.87847e-06
-7.5721e-08
-1.79897e-06
-1.5948e-07
-1.68299e-06
-2.50817e-07
-1.52873e-06
-3.48133e-07
-1.33516e-06
-4.49886e-07
-1.10225e-06
-5.53592e-07
-8.31176e-07
-6.57111e-07
-5.24971e-07
-7.55638e-07
-1.89583e-07
-8.43337e-07
1.64919e-07
-9.08189e-07
5.24249e-07
-9.24816e-07
8.85058e-07
-9.13326e-07
1.24921e-06
-9.1551e-07
1.61178e-06
-9.02199e-07
1.96915e-06
-8.93039e-07
2.31389e-06
-8.4964e-07
2.64568e-06
-8.32127e-07
2.95275e-06
-7.46087e-07
3.24495e-06
-7.45128e-07
3.49823e-06
-5.92931e-07
3.74702e-06
-6.64972e-07
3.93502e-06
-3.90256e-07
4.15345e-06
-6.5044e-07
4.27345e-06
-1.40929e-07
4.51917e-06
-8.45347e-07
4.61083e-06
9.40266e-08
-2.53132e-06
4.61529e-06
3.59554e-05
1.32414e-06
1.14289e-05
2.12437e-07
2.51374e-06
-2.1854e-07
1.06408e-06
-3.86945e-07
3.82698e-07
-4.95199e-07
2.40715e-07
-5.49336e-07
1.23052e-07
-5.89685e-07
8.4371e-08
-6.17738e-07
6.64477e-08
-6.43361e-07
5.84225e-08
-6.6889e-07
6.67446e-08
-6.98093e-07
7.72395e-08
-7.33052e-07
9.84994e-08
-7.75514e-07
1.20843e-07
-8.26566e-07
1.48601e-07
-8.86801e-07
1.76492e-07
-9.5653e-07
2.06534e-07
-1.0357e-06
2.36066e-07
-1.12403e-06
2.65695e-07
-1.22086e-06
2.9374e-07
-1.32521e-06
3.197e-07
-1.43557e-06
3.41926e-07
-1.54998e-06
3.59161e-07
-1.66591e-06
3.69637e-07
-1.78041e-06
3.7193e-07
-1.89012e-06
3.64702e-07
-1.99139e-06
3.46822e-07
-2.08027e-06
3.17064e-07
-2.15253e-06
2.74303e-07
-2.20389e-06
2.17741e-07
-2.23004e-06
1.46969e-07
-2.22685e-06
6.19308e-08
-2.19052e-06
-3.68861e-08
-2.11774e-06
-1.485e-07
-2.00579e-06
-2.71431e-07
-1.85266e-06
-4.03953e-07
-1.65719e-06
-5.43604e-07
-1.41919e-06
-6.87886e-07
-1.13964e-06
-8.3314e-07
-8.20942e-07
-9.75808e-07
-4.67414e-07
-1.10917e-06
-8.62909e-08
-1.22446e-06
3.11996e-07
-1.30648e-06
7.18595e-07
-1.33141e-06
1.134e-06
-1.32873e-06
1.55675e-06
-1.33826e-06
1.98146e-06
-1.32691e-06
2.40196e-06
-1.31353e-06
2.81153e-06
-1.25922e-06
3.20552e-06
-1.22612e-06
3.57539e-06
-1.11596e-06
3.92347e-06
-1.09321e-06
4.23384e-06
-9.03297e-07
4.5277e-06
-9.58839e-07
4.76549e-06
-6.28048e-07
5.0153e-06
-9.00246e-07
5.17956e-06
-3.05184e-07
5.44257e-06
-1.10836e-06
5.59345e-06
-5.68511e-08
-3.27981e-06
5.34675e-06
4.06087e-05
1.90183e-06
1.48738e-05
4.4763e-07
3.96794e-06
-1.33896e-07
1.64561e-06
-3.76314e-07
6.25116e-07
-5.27615e-07
3.92016e-07
-6.06597e-07
2.02034e-07
-6.64633e-07
1.42407e-07
-7.04488e-07
1.06302e-07
-7.39749e-07
9.3684e-08
-7.73117e-07
1.00113e-07
-8.09856e-07
1.13979e-07
-8.52335e-07
1.40978e-07
-9.0295e-07
1.71457e-07
-9.62899e-07
2.08551e-07
-1.03295e-06
2.46544e-07
-1.11334e-06
2.86919e-07
-1.20389e-06
3.26621e-07
-1.30409e-06
3.65891e-07
-1.41297e-06
4.0262e-07
-1.52911e-06
4.35845e-07
-1.65056e-06
4.63369e-07
-1.77478e-06
4.83382e-07
-1.89869e-06
4.93548e-07
-2.01875e-06
4.91988e-07
-2.13107e-06
4.77024e-07
-2.23152e-06
4.47279e-07
-2.31578e-06
4.01323e-07
-2.37939e-06
3.37905e-07
-2.41791e-06
2.56265e-07
-2.42712e-06
1.56182e-07
-2.4031e-06
3.7911e-08
-2.34243e-06
-9.75593e-08
-2.24227e-06
-2.48661e-07
-2.10044e-06
-4.13254e-07
-1.91558e-06
-5.8882e-07
-1.68718e-06
-7.71998e-07
-1.41576e-06
-9.59306e-07
-1.10296e-06
-1.14594e-06
-7.51832e-07
-1.32694e-06
-3.6716e-07
-1.49384e-06
4.36706e-08
-1.63529e-06
4.71204e-07
-1.73401e-06
9.11066e-07
-1.77128e-06
1.36537e-06
-1.78304e-06
1.82999e-06
-1.80288e-06
2.2995e-06
-1.79642e-06
2.76638e-06
-1.78041e-06
3.22485e-06
-1.71768e-06
3.66725e-06
-1.66852e-06
4.08786e-06
-1.53658e-06
4.48262e-06
-1.48796e-06
4.84273e-06
-1.26341e-06
5.17688e-06
-1.29299e-06
5.46068e-06
-9.11844e-07
5.74019e-06
-1.17976e-06
5.94518e-06
-5.10171e-07
6.22471e-06
-1.38789e-06
6.42341e-06
-2.55551e-07
-3.99124e-06
6.0088e-06
4.45999e-05
2.52337e-06
1.83592e-05
7.56387e-07
5.73493e-06
-2.61007e-09
2.4046e-06
-3.28869e-07
9.51375e-07
-5.30112e-07
5.93259e-07
-6.39346e-07
3.11268e-07
-7.18329e-07
2.2139e-07
-7.72366e-07
1.60339e-07
-8.1871e-07
1.40028e-07
-8.60825e-07
1.42228e-07
-9.0541e-07
1.58563e-07
-9.55264e-07
1.90832e-07
-1.01339e-06
2.29581e-07
-1.08113e-06
2.76291e-07
-1.15938e-06
3.24795e-07
-1.24827e-06
3.75806e-07
-1.34746e-06
4.25819e-07
-1.45615e-06
4.74576e-07
-1.57301e-06
5.19484e-07
-1.69621e-06
5.59038e-07
-1.8233e-06
5.90465e-07
-1.9513e-06
6.11378e-07
-2.07665e-06
6.18905e-07
-2.19544e-06
6.10772e-07
-2.30348e-06
5.85062e-07
-2.39647e-06
5.4027e-07
-2.47003e-06
4.7489e-07
-2.51982e-06
3.87692e-07
-2.54164e-06
2.78087e-07
-2.53162e-06
1.46163e-07
-2.48631e-06
-7.40523e-09
-2.40277e-06
-1.81091e-07
-2.27868e-06
-3.72761e-07
-2.11231e-06
-5.79621e-07
-1.90275e-06
-7.98375e-07
-1.64994e-06
-1.02481e-06
-1.35473e-06
-1.25451e-06
-1.01905e-06
-1.48162e-06
-6.46164e-07
-1.69982e-06
-2.40855e-07
-1.89915e-06
1.89881e-07
-2.06603e-06
6.37952e-07
-2.18208e-06
1.10173e-06
-2.23506e-06
1.58341e-06
-2.26471e-06
2.07705e-06
-2.29653e-06
2.57732e-06
-2.29669e-06
3.07613e-06
-2.27922e-06
3.56857e-06
-2.21012e-06
4.04538e-06
-2.14533e-06
4.50324e-06
-1.99444e-06
4.93347e-06
-1.91819e-06
5.33351e-06
-1.66344e-06
5.70097e-06
-1.66045e-06
6.02584e-06
-1.23672e-06
6.33175e-06
-1.48567e-06
6.57642e-06
-7.5484e-07
6.86988e-06
-1.68135e-06
7.11071e-06
-4.96384e-07
-4.64819e-06
6.60526e-06
4.79946e-05
3.16978e-06
2.17947e-05
1.13507e-06
7.76964e-06
1.93082e-07
3.34659e-06
-2.43342e-07
1.3878e-06
-5.01658e-07
8.51575e-07
-6.46761e-07
4.56371e-07
-7.50173e-07
3.24802e-07
-8.20886e-07
2.31052e-07
-8.79862e-07
1.99005e-07
-9.31668e-07
1.94034e-07
-9.84424e-07
2.11319e-07
-1.04148e-06
2.47884e-07
-1.1064e-06
2.94507e-07
-1.18073e-06
3.5062e-07
-1.26545e-06
4.09513e-07
-1.36056e-06
4.70921e-07
-1.46556e-06
5.30813e-07
-1.57931e-06
5.88324e-07
-1.70016e-06
6.40335e-07
-1.82589e-06
6.84765e-07
-1.95369e-06
7.18272e-07
-2.08025e-06
7.37931e-07
-2.20175e-06
7.40414e-07
-2.31413e-06
7.23152e-07
-2.41319e-06
6.84114e-07
-2.4947e-06
6.21785e-07
-2.55451e-06
5.34699e-07
-2.58856e-06
4.21744e-07
-2.59305e-06
2.82575e-07
-2.56453e-06
1.17637e-07
-2.49998e-06
-7.19552e-08
-2.39687e-06
-2.84202e-07
-2.25317e-06
-5.16453e-07
-2.06751e-06
-7.65285e-07
-1.83922e-06
-1.02667e-06
-1.56842e-06
-1.2956e-06
-1.25616e-06
-1.56677e-06
-9.0443e-07
-1.83336e-06
-5.16496e-07
-2.08776e-06
-9.69693e-08
-2.31867e-06
3.47735e-07
-2.51073e-06
8.10851e-07
-2.6452e-06
1.2921e-06
-2.7163e-06
1.79294e-06
-2.76556e-06
2.3064e-06
-2.80999e-06
2.8272e-06
-2.81748e-06
3.34707e-06
-2.7991e-06
3.86177e-06
-2.72481e-06
4.36132e-06
-2.64488e-06
4.84419e-06
-2.47731e-06
5.29887e-06
-2.37287e-06
5.7277e-06
-2.09227e-06
6.11981e-06
-2.05256e-06
6.47787e-06
-1.59478e-06
6.80469e-06
-1.81249e-06
7.08604e-06
-1.03619e-06
7.38923e-06
-1.98453e-06
7.66861e-06
-7.75773e-07
-5.24047e-06
7.13972e-06
5.08549e-05
3.82519e-06
2.51093e-05
1.57688e-06
1.00179e-05
4.37968e-07
4.4855e-06
-1.17814e-07
1.94358e-06
-4.41068e-07
1.17483e-06
-6.2791e-07
6.43213e-07
-7.5946e-07
4.56352e-07
-8.4949e-07
3.21081e-07
-9.22776e-07
2.72292e-07
-9.85278e-07
2.56536e-07
-1.04657e-06
2.7261e-07
-1.11064e-06
3.11951e-07
-1.18164e-06
3.65513e-07
-1.26132e-06
4.30303e-07
-1.35076e-06
4.98951e-07
-1.44986e-06
5.70018e-07
-1.55792e-06
6.38873e-07
-1.67356e-06
7.03964e-07
-1.79486e-06
7.61633e-07
-1.91931e-06
8.09223e-07
-2.04391e-06
8.42872e-07
-2.16517e-06
8.59191e-07
-2.27925e-06
8.54491e-07
-2.38212e-06
8.26015e-07
-2.46972e-06
7.71719e-07
-2.53809e-06
6.90159e-07
-2.58337e-06
5.79974e-07
-2.60183e-06
4.40211e-07
-2.59005e-06
2.7079e-07
-2.54492e-06
7.2509e-08
-2.46375e-06
-1.53123e-07
-2.34425e-06
-4.03701e-07
-2.18462e-06
-6.76087e-07
-1.98365e-06
-9.66254e-07
-1.74084e-06
-1.26948e-06
-1.45642e-06
-1.58002e-06
-1.13148e-06
-1.89171e-06
-7.68028e-07
-2.19681e-06
-3.69257e-07
-2.48653e-06
6.04503e-08
-2.74838e-06
5.15303e-07
-2.96558e-06
9.8968e-07
-3.11957e-06
1.48371e-06
-3.21034e-06
1.99785e-06
-3.27969e-06
2.52458e-06
-3.33671e-06
3.05866e-06
-3.35157e-06
3.59188e-06
-3.33232e-06
4.12038e-06
-3.25332e-06
4.634e-06
-3.1585e-06
5.1324e-06
-2.9757e-06
5.60248e-06
-2.84295e-06
6.05012e-06
-2.53991e-06
6.45855e-06
-2.46099e-06
6.84056e-06
-1.97679e-06
7.18185e-06
-2.15378e-06
7.49362e-06
-1.34796e-06
7.8015e-06
-2.29241e-06
8.11453e-06
-1.08881e-06
-5.76404e-06
7.61599e-06
5.32389e-05
4.47647e-06
2.82488e-05
2.07303e-06
1.24214e-05
7.37651e-07
5.82089e-06
4.98065e-08
2.63143e-06
-3.47018e-07
1.57165e-06
-5.81744e-07
8.77938e-07
-7.45366e-07
6.19975e-07
-8.5753e-07
4.33244e-07
-9.46956e-07
3.61718e-07
-1.02126e-06
3.30835e-07
-1.09152e-06
3.42877e-07
-1.16247e-06
3.82895e-07
-1.23887e-06
4.41919e-07
-1.32274e-06
5.14168e-07
-1.41527e-06
5.9148e-07
-1.51631e-06
6.7106e-07
-1.62505e-06
7.47615e-07
-1.73994e-06
8.18847e-07
-1.85887e-06
8.80569e-07
-1.97922e-06
9.29574e-07
-2.0979e-06
9.6155e-07
-2.21142e-06
9.72713e-07
-2.31604e-06
9.59104e-07
-2.40787e-06
9.17854e-07
-2.48313e-06
8.4697e-07
-2.53809e-06
7.45123e-07
-2.56919e-06
6.11078e-07
-2.57303e-06
4.44048e-07
-2.54645e-06
2.44209e-07
-2.48663e-06
1.26898e-08
-2.39108e-06
-2.48672e-07
-2.25768e-06
-5.37107e-07
-2.08476e-06
-8.48999e-07
-1.87128e-06
-1.17974e-06
-1.6168e-06
-1.52395e-06
-1.32164e-06
-1.87519e-06
-9.86898e-07
-2.22645e-06
-6.14559e-07
-2.56915e-06
-2.07733e-07
-2.89335e-06
2.29452e-07
-3.18557e-06
6.91799e-07
-3.42793e-06
1.17461e-06
-3.60238e-06
1.67788e-06
-3.71361e-06
2.20098e-06
-3.8028e-06
2.73621e-06
-3.87194e-06
3.27841e-06
-3.89376e-06
3.81947e-06
-3.87337e-06
4.35579e-06
-3.78964e-06
4.87727e-06
-3.67998e-06
5.38432e-06
-3.48275e-06
5.86305e-06
-3.32168e-06
6.32171e-06
-2.99857e-06
6.73968e-06
-2.87896e-06
7.13723e-06
-2.37434e-06
7.48704e-06
-2.50359e-06
7.82139e-06
-1.68231e-06
8.12927e-06
-2.60029e-06
8.46886e-06
-1.4284e-06
-6.2201e-06
8.03813e-06
5.52008e-05
5.11287e-06
3.1174e-05
2.61341e-06
1.49208e-05
1.09171e-06
7.34259e-06
2.60825e-07
3.46231e-06
-2.18069e-07
2.05055e-06
-5.07091e-07
1.16696e-06
-7.06936e-07
8.1982e-07
-8.44257e-07
5.70565e-07
-9.5183e-07
4.69292e-07
-1.03917e-06
4.18172e-07
-1.11898e-06
4.22686e-07
-1.19677e-06
4.60692e-07
-1.27803e-06
5.23177e-07
-1.36508e-06
6.01216e-07
-1.45932e-06
6.85723e-07
-1.56063e-06
7.72369e-07
-1.66817e-06
8.55148e-07
-1.78029e-06
9.30968e-07
-1.89485e-06
9.95134e-07
-2.0092e-06
1.04392e-06
-2.12027e-06
1.07262e-06
-2.22468e-06
1.07713e-06
-2.31885e-06
1.05327e-06
-2.39912e-06
9.98123e-07
-2.46192e-06
9.09767e-07
-2.5038e-06
7.87004e-07
-2.52145e-06
6.28728e-07
-2.51171e-06
4.3431e-07
-2.47167e-06
2.04167e-07
-2.3987e-06
-6.02802e-08
-2.29045e-06
-3.56915e-07
-2.14493e-06
-6.82626e-07
-1.96062e-06
-1.03331e-06
-1.73655e-06
-1.40382e-06
-1.47237e-06
-1.78813e-06
-1.16842e-06
-2.17914e-06
-8.25852e-07
-2.56902e-06
-4.46593e-07
-2.94841e-06
-3.36627e-08
-3.30628e-06
4.09062e-07
-3.62829e-06
8.76913e-07
-3.89578e-06
1.3659e-06
-4.09137e-06
1.87562e-06
-4.22333e-06
2.4044e-06
-4.33157e-06
2.94458e-06
-4.41212e-06
3.49107e-06
-4.44026e-06
4.03595e-06
-4.41825e-06
4.57579e-06
-4.32948e-06
5.10065e-06
-4.20485e-06
5.61142e-06
-3.99352e-06
6.0939e-06
-3.80416e-06
6.55785e-06
-3.46252e-06
6.98023e-06
-3.30134e-06
7.38659e-06
-2.78069e-06
7.74015e-06
-2.85716e-06
8.08957e-06
-2.03172e-06
8.39386e-06
-2.90458e-06
8.75195e-06
-1.78649e-06
-6.61341e-06
8.41037e-06
5.67904e-05
5.72589e-06
3.38585e-05
3.18723e-06
1.74595e-05
1.4982e-06
9.03162e-06
5.18216e-07
4.44229e-06
-5.28482e-08
2.62161e-06
-4.02659e-07
1.51677e-06
-6.43075e-07
1.06024e-06
-8.08811e-07
7.36301e-07
-9.36747e-07
5.97227e-07
-1.03854e-06
5.1997e-07
-1.12864e-06
5.12778e-07
-1.21344e-06
5.45494e-07
-1.29921e-06
6.0895e-07
-1.3887e-06
6.90708e-07
-1.48361e-06
7.80635e-07
-1.58393e-06
8.7269e-07
-1.68889e-06
9.60101e-07
-1.79685e-06
1.03893e-06
-1.90571e-06
1.104e-06
-2.01287e-06
1.15107e-06
-2.11537e-06
1.17512e-06
-2.20999e-06
1.17175e-06
-2.29333e-06
1.13661e-06
-2.36194e-06
1.06674e-06
-2.4125e-06
9.60323e-07
-2.44178e-06
8.16284e-07
-2.44669e-06
6.33638e-07
-2.42428e-06
4.11903e-07
-2.37183e-06
1.51716e-07
-2.28687e-06
-1.45247e-07
-2.16715e-06
-4.76628e-07
-2.01081e-06
-8.38968e-07
-1.81643e-06
-1.22769e-06
-1.58313e-06
-1.63712e-06
-1.31064e-06
-2.06062e-06
-9.99325e-07
-2.49045e-06
-6.50341e-07
-2.91801e-06
-2.65601e-07
-3.33315e-06
1.51982e-07
-3.72387e-06
5.98769e-07
-4.07508e-06
1.07054e-06
-4.36755e-06
1.56384e-06
-4.58467e-06
2.07773e-06
-4.73722e-06
2.60961e-06
-4.86346e-06
3.15198e-06
-4.95449e-06
3.69987e-06
-4.98814e-06
4.24553e-06
-4.96391e-06
4.78568e-06
-4.86963e-06
5.31063e-06
-4.7298e-06
5.82153e-06
-4.50441e-06
6.30416e-06
-4.28679e-06
6.76921e-06
-3.92758e-06
7.19222e-06
-3.72434e-06
7.60232e-06
-3.19079e-06
7.95606e-06
-3.2109e-06
8.31427e-06
-2.38993e-06
8.61249e-06
-3.2028e-06
8.98148e-06
-2.15548e-06
-6.95034e-06
8.73701e-06
5.80534e-05
6.30904e-06
3.62865e-05
3.78361e-06
1.99849e-05
1.95358e-06
1.08616e-05
8.23155e-07
5.57272e-06
1.51264e-07
3.2935e-06
-2.67024e-07
1.93506e-06
-5.52539e-07
1.34575e-06
-7.50213e-07
9.33974e-07
-9.00957e-07
7.47971e-07
-1.01887e-06
6.37879e-07
-1.12021e-06
6.14125e-07
-1.21241e-06
6.37693e-07
-1.30262e-06
6.9916e-07
-1.39412e-06
7.82204e-07
-1.48901e-06
8.75524e-07
-1.58749e-06
9.71171e-07
-1.68894e-06
1.06155e-06
-1.79183e-06
1.14183e-06
-1.89416e-06
1.20633e-06
-1.99343e-06
1.25034e-06
-2.08685e-06
1.26854e-06
-2.17135e-06
1.25625e-06
-2.24376e-06
1.20901e-06
-2.30083e-06
1.12381e-06
-2.33944e-06
9.98936e-07
-2.35658e-06
8.33427e-07
-2.34936e-06
6.2641e-07
-2.31499e-06
3.77537e-07
-2.25093e-06
8.76529e-08
-2.15482e-06
-2.4136e-07
-2.02453e-06
-6.06914e-07
-1.85831e-06
-1.00519e-06
-1.65483e-06
-1.43116e-06
-1.41331e-06
-1.87863e-06
-1.13353e-06
-2.3404e-06
-8.15902e-07
-2.80808e-06
-4.61584e-07
-3.27233e-06
-7.24694e-08
-3.72226e-06
3.48632e-07
-4.14497e-06
7.98295e-07
-4.52474e-06
1.27267e-06
-4.84193e-06
1.76869e-06
-5.08069e-06
2.28484e-06
-5.25337e-06
2.81775e-06
-5.39636e-06
3.36013e-06
-5.49688e-06
3.90711e-06
-5.53512e-06
4.4512e-06
-5.50801e-06
4.98919e-06
-5.40762e-06
5.5117e-06
-5.25231e-06
6.02001e-06
-5.01272e-06
6.50007e-06
-4.76685e-06
6.96314e-06
-4.39065e-06
7.38394e-06
-4.14514e-06
7.79402e-06
-3.60087e-06
8.14529e-06
-3.56217e-06
8.50738e-06
-2.75202e-06
8.79792e-06
-3.49334e-06
9.17143e-06
-2.52899e-06
-7.23741e-06
9.02226e-06
5.90312e-05
6.85762e-06
3.84511e-05
4.392e-06
2.24506e-05
2.45284e-06
1.28008e-05
1.17618e-06
6.84939e-06
3.95361e-07
4.07432e-06
-9.84072e-08
2.42883e-06
-4.33914e-07
1.68126e-06
-6.67334e-07
1.16739e-06
-8.43587e-07
9.24224e-07
-9.79525e-07
7.73817e-07
-1.09337e-06
7.27968e-07
-1.19363e-06
7.37955e-07
-1.28849e-06
7.94022e-07
-1.38186e-06
8.75573e-07
-1.47636e-06
9.70026e-07
-1.5725e-06
1.06731e-06
-1.66989e-06
1.15894e-06
-1.76716e-06
1.2391e-06
-1.86246e-06
1.30163e-06
-1.95346e-06
1.34134e-06
-2.03752e-06
1.3526e-06
-2.11179e-06
1.33053e-06
-2.17328e-06
1.2705e-06
-2.21897e-06
1.1695e-06
-2.24593e-06
1.02589e-06
-2.25133e-06
8.38825e-07
-2.23244e-06
6.07524e-07
-2.18666e-06
3.31763e-07
-2.11159e-06
1.25763e-08
-2.00496e-06
-3.47983e-07
-1.86478e-06
-7.47101e-07
-1.68938e-06
-1.18059e-06
-1.47755e-06
-1.64299e-06
-1.22857e-06
-2.12761e-06
-9.42293e-07
-2.62668e-06
-6.19164e-07
-3.13121e-06
-2.60363e-07
-3.63113e-06
1.32239e-07
-4.11487e-06
5.55933e-07
-4.56866e-06
1.00748e-06
-4.97628e-06
1.48332e-06
-5.31777e-06
1.98067e-06
-5.57804e-06
2.49746e-06
-5.77016e-06
3.02968e-06
-5.92858e-06
3.57028e-06
-6.03747e-06
4.1145e-06
-6.07935e-06
4.65511e-06
-6.04861e-06
5.18896e-06
-5.94148e-06
5.70701e-06
-5.77036e-06
6.21062e-06
-5.51633e-06
6.68602e-06
-5.24225e-06
7.14473e-06
-4.84937e-06
7.56117e-06
-4.56158e-06
7.96839e-06
-4.00809e-06
8.31519e-06
-3.90897e-06
8.67744e-06
-3.11428e-06
8.95923e-06
-3.77513e-06
9.33221e-06
-2.90196e-06
-7.48057e-06
9.27024e-06
5.97609e-05
7.36851e-06
4.03529e-05
5.00256e-06
2.48165e-05
2.98967e-06
1.48137e-05
1.57672e-06
8.26233e-06
6.81255e-07
4.96979e-06
1.0507e-07
3.00501e-06
-2.85617e-07
2.07195e-06
-5.58879e-07
1.44066e-06
-7.636e-07
1.12894e-06
-9.19774e-07
9.29991e-07
-1.04764e-06
8.55839e-07
-1.15693e-06
8.47243e-07
-1.25695e-06
8.94042e-07
-1.35236e-06
9.70977e-07
-1.4464e-06
1.06407e-06
-1.53997e-06
1.16089e-06
-1.63301e-06
1.25198e-06
-1.72435e-06
1.33045e-06
-1.81236e-06
1.38963e-06
-1.89487e-06
1.42385e-06
-1.96947e-06
1.4272e-06
-2.03349e-06
1.39455e-06
-2.08415e-06
1.32116e-06
-2.11862e-06
1.20398e-06
-2.13417e-06
1.04144e-06
-2.12815e-06
8.328e-07
-2.09798e-06
5.77358e-07
-2.04122e-06
2.75006e-07
-1.95559e-06
-7.30569e-08
-1.83894e-06
-4.64634e-07
-1.68937e-06
-8.96673e-07
-1.50534e-06
-1.36463e-06
-1.28573e-06
-1.8626e-06
-1.02989e-06
-2.38344e-06
-7.37751e-07
-2.91883e-06
-4.09788e-07
-3.45917e-06
-4.72053e-08
-3.99371e-06
3.48149e-07
-4.51022e-06
7.73655e-07
-4.99417e-06
1.22622e-06
-5.42885e-06
1.70253e-06
-5.79409e-06
2.19998e-06
-6.07549e-06
2.71601e-06
-6.28618e-06
3.24608e-06
-6.45866e-06
3.78339e-06
-6.57478e-06
4.32331e-06
-6.61926e-06
4.85884e-06
-6.58415e-06
5.38694e-06
-6.46958e-06
5.89888e-06
-6.2823e-06
6.39608e-06
-6.01352e-06
6.8651e-06
-5.71127e-06
7.3176e-06
-5.30187e-06
7.72796e-06
-4.97195e-06
8.13016e-06
-4.41028e-06
8.47095e-06
-4.24976e-06
8.8305e-06
-3.47383e-06
9.10282e-06
-4.04745e-06
9.47141e-06
-3.27055e-06
-7.68488e-06
9.48489e-06
6.0276e-05
7.83994e-06
4.19978e-05
5.60638e-06
2.70501e-05
3.55672e-06
1.68634e-05
2.02302e-06
9.79604e-06
1.01039e-06
5.98242e-06
3.45459e-07
3.66994e-06
-1.05945e-07
2.52335e-06
-4.2338e-07
1.75809e-06
-6.59767e-07
1.36533e-06
-8.38681e-07
1.10891e-06
-9.82411e-07
9.99568e-07
-1.10199e-06
9.66823e-07
-1.20797e-06
1.00002e-06
-1.30584e-06
1.06885e-06
-1.39959e-06
1.15782e-06
-1.49062e-06
1.25191e-06
-1.57922e-06
1.34058e-06
-1.66453e-06
1.41575e-06
-1.74513e-06
1.47024e-06
-1.81909e-06
1.4978e-06
-1.88419e-06
1.4923e-06
-1.938e-06
1.44835e-06
-1.97793e-06
1.36109e-06
-2.00135e-06
1.2274e-06
-2.00572e-06
1.0458e-06
-1.98854e-06
8.15619e-07
-1.9474e-06
5.36218e-07
-1.88e-06
2.07604e-07
-1.78417e-06
-1.68888e-07
-1.65787e-06
-5.90929e-07
-1.49932e-06
-1.05522e-06
-1.3071e-06
-1.55685e-06
-1.08017e-06
-2.08953e-06
-8.17978e-07
-2.64563e-06
-5.20491e-07
-3.21631e-06
-1.8825e-07
-3.79141e-06
1.77526e-07
-4.35949e-06
5.75006e-07
-4.9077e-06
1.00164e-06
-5.4208e-06
1.45446e-06
-5.88167e-06
1.93035e-06
-6.26997e-06
2.42679e-06
-6.57194e-06
2.94082e-06
-6.80021e-06
3.46749e-06
-6.98533e-06
4.00022e-06
-7.10751e-06
4.5345e-06
-7.15354e-06
5.06361e-06
-7.11326e-06
5.58458e-06
-6.99054e-06
6.08902e-06
-6.78674e-06
6.57836e-06
-6.50287e-06
7.03958e-06
-6.17249e-06
7.48435e-06
-5.74664e-06
7.88724e-06
-5.37484e-06
8.28269e-06
-4.80573e-06
8.61623e-06
-4.5833e-06
8.97087e-06
-3.82847e-06
9.23319e-06
-4.30977e-06
9.59448e-06
-3.63184e-06
-7.85453e-06
9.66995e-06
6.06061e-05
8.2713e-06
4.33964e-05
6.19567e-06
2.91257e-05
4.14601e-06
1.8913e-05
2.51198e-06
1.14301e-05
1.38356e-06
7.11084e-06
6.24821e-07
4.42868e-06
1.07027e-07
3.04114e-06
-2.59208e-07
2.12432e-06
-5.30656e-07
1.63678e-06
-7.35101e-07
1.31335e-06
-8.96817e-07
1.16128e-06
-1.02826e-06
1.09826e-06
-1.14127e-06
1.11303e-06
-1.2423e-06
1.16987e-06
-1.33617e-06
1.2517e-06
-1.42486e-06
1.3406e-06
-1.50912e-06
1.42484e-06
-1.58843e-06
1.49506e-06
-1.66164e-06
1.54345e-06
-1.72706e-06
1.56323e-06
-1.78273e-06
1.54797e-06
-1.8264e-06
1.49203e-06
-1.85573e-06
1.39042e-06
-1.86826e-06
1.23994e-06
-1.86164e-06
1.03918e-06
-1.83353e-06
7.87512e-07
-1.78167e-06
4.84361e-07
-1.7039e-06
1.29834e-07
-1.59817e-06
-2.74622e-07
-1.46254e-06
-7.26555e-07
-1.29536e-06
-1.2224e-06
-1.09531e-06
-1.75691e-06
-8.61454e-07
-2.32339e-06
-5.93313e-07
-2.91377e-06
-2.90928e-07
-3.5187e-06
4.51125e-08
-4.12745e-06
4.13572e-07
-4.72795e-06
8.12627e-07
-5.30675e-06
1.23978e-06
-5.84796e-06
1.69217e-06
-6.33405e-06
2.16681e-06
-6.74461e-06
2.66126e-06
-7.06639e-06
3.17219e-06
-7.31114e-06
3.69435e-06
-7.50749e-06
4.22137e-06
-7.63453e-06
4.74886e-06
-7.68103e-06
5.27036e-06
-7.63476e-06
5.78299e-06
-7.50317e-06
6.27871e-06
-7.28246e-06
6.75896e-06
-6.98312e-06
7.21116e-06
-6.62469e-06
7.64691e-06
-6.18238e-06
8.04113e-06
-5.76906e-06
8.42843e-06
-5.19303e-06
8.7537e-06
-4.90857e-06
9.10169e-06
-4.17647e-06
9.35357e-06
-4.56164e-06
9.70535e-06
-3.98362e-06
-7.99298e-06
9.82892e-06
6.07772e-05
8.66288e-06
4.45625e-05
6.76384e-06
3.10247e-05
4.74921e-06
2.09276e-05
3.03926e-06
1.314e-05
1.80071e-06
8.34939e-06
9.44837e-07
5.28456e-06
3.55212e-07
3.63077e-06
-6.45278e-08
2.54406e-06
-3.74647e-07
1.9469e-06
-6.0767e-07
1.54637e-06
-7.89771e-07
1.34338e-06
-9.34934e-07
1.24343e-06
-1.05634e-06
1.23443e-06
-1.16146e-06
1.275e-06
-1.25608e-06
1.34631e-06
-1.34283e-06
1.42734e-06
-1.42301e-06
1.50502e-06
-1.49648e-06
1.56853e-06
-1.56242e-06
1.60939e-06
-1.61942e-06
1.62023e-06
-1.66575e-06
1.59429e-06
-1.69941e-06
1.5257e-06
-1.71827e-06
1.40927e-06
-1.72009e-06
1.24175e-06
-1.70266e-06
1.02175e-06
-1.66383e-06
7.48686e-07
-1.60148e-06
4.22011e-07
-1.51359e-06
4.1936e-08
-1.3982e-06
-3.90007e-07
-1.25352e-06
-8.7124e-07
-1.07799e-06
-1.39792e-06
-8.70425e-07
-1.96447e-06
-6.29978e-07
-2.56383e-06
-3.56254e-07
-3.1875e-06
-4.93616e-08
-3.82559e-06
2.90059e-07
-4.46687e-06
6.60749e-07
-5.09864e-06
1.06088e-06
-5.70689e-06
1.488e-06
-6.27508e-06
1.93931e-06
-6.78537e-06
2.41196e-06
-7.21726e-06
2.90351e-06
-7.55794e-06
3.41035e-06
-7.81798e-06
3.92701e-06
-8.02415e-06
4.44731e-06
-8.15483e-06
4.96697e-06
-8.2007e-06
5.47981e-06
-8.1476e-06
5.98303e-06
-8.00639e-06
6.46895e-06
-7.76838e-06
6.93903e-06
-7.45319e-06
7.38113e-06
-7.06679e-06
7.80673e-06
-6.60799e-06
8.19125e-06
-6.15357e-06
8.56921e-06
-5.571e-06
8.88532e-06
-5.22468e-06
9.22525e-06
-4.5164e-06
9.4663e-06
-4.8027e-06
9.80691e-06
-4.32423e-06
-8.10306e-06
9.96506e-06
6.08121e-05
9.01575e-06
4.55118e-05
7.30554e-06
3.27349e-05
5.35798e-06
2.28752e-05
3.59937e-06
1.48986e-05
2.26078e-06
9.68798e-06
1.30674e-06
6.23859e-06
6.40427e-07
4.29708e-06
1.62586e-07
3.0219e-06
-1.89966e-07
2.29945e-06
-4.5482e-07
1.81123e-06
-6.59943e-07
1.54851e-06
-8.20973e-07
1.40446e-06
-9.52405e-07
1.36586e-06
-1.06282e-06
1.38542e-06
-1.15902e-06
1.44252e-06
-1.24441e-06
1.51273e-06
-1.32092e-06
1.58153e-06
-1.38884e-06
1.63645e-06
-1.44773e-06
1.66829e-06
-1.49649e-06
1.66898e-06
-1.53365e-06
1.63145e-06
-1.55747e-06
1.54952e-06
-1.56603e-06
1.41784e-06
-1.5573e-06
1.23302e-06
-1.52926e-06
9.93718e-07
-1.47992e-06
6.99342e-07
-1.40729e-06
3.4938e-07
-1.30948e-06
-5.58735e-08
-1.18467e-06
-5.14816e-07
-1.03117e-06
-1.02474e-06
-8.47571e-07
-1.58152e-06
-6.3277e-07
-2.17927e-06
-3.86034e-07
-2.81057e-06
-1.07053e-07
-3.46648e-06
2.03996e-07
-4.13664e-06
5.46418e-07
-4.8093e-06
9.18927e-07
-5.47115e-06
1.31968e-06
-6.10764e-06
1.74625e-06
-6.70164e-06
2.1959e-06
-7.23502e-06
2.66585e-06
-7.68721e-06
3.15366e-06
-8.04576e-06
3.65551e-06
-8.31983e-06
4.16577e-06
-8.53441e-06
4.67843e-06
-8.66749e-06
5.18934e-06
-8.7116e-06
5.69256e-06
-8.65082e-06
6.18541e-06
-8.49924e-06
6.66055e-06
-8.24352e-06
7.11945e-06
-7.9121e-06
7.55047e-06
-7.4978e-06
7.96494e-06
-7.02246e-06
8.33881e-06
-6.52745e-06
8.70642e-06
-5.9386e-06
9.01257e-06
-5.53083e-06
9.34326e-06
-4.84708e-06
9.57314e-06
-5.03258e-06
9.90127e-06
-4.65236e-06
-8.18707e-06
1.00814e-05
6.07307e-05
9.33159e-06
4.62616e-05
7.81667e-06
3.42499e-05
5.96432e-06
2.47276e-05
4.18584e-06
1.66771e-05
2.76153e-06
1.11123e-05
1.71116e-06
7.28896e-06
9.64439e-07
5.04381e-06
4.24197e-07
3.56215e-06
2.52311e-08
2.69842e-06
-2.74817e-07
2.11127e-06
-5.05788e-07
1.77948e-06
-6.85086e-07
1.58375e-06
-8.28442e-07
1.50922e-06
-9.45592e-07
1.50257e-06
-1.04444e-06
1.54137e-06
-1.12924e-06
1.59753e-06
-1.20263e-06
1.65491e-06
-1.26542e-06
1.69924e-06
-1.31759e-06
1.72046e-06
-1.35837e-06
1.70976e-06
-1.3866e-06
1.65968e-06
-1.40079e-06
1.56371e-06
-1.39926e-06
1.41631e-06
-1.38018e-06
1.21395e-06
-1.34174e-06
9.55274e-07
-1.28208e-06
6.39686e-07
-1.19938e-06
2.66677e-07
-1.09187e-06
-1.63384e-07
-9.5785e-07
-6.48833e-07
-7.95767e-07
-1.18682e-06
-6.04332e-07
-1.77296e-06
-3.82561e-07
-2.40105e-06
-1.29818e-07
-3.06331e-06
1.54119e-07
-3.75042e-06
4.69001e-07
-4.45152e-06
8.14077e-07
-5.15437e-06
1.18802e-06
-5.84509e-06
1.58896e-06
-6.50858e-06
2.01449e-06
-7.12717e-06
2.46192e-06
-7.68244e-06