/*--------------------------------*- C++ -*----------------------------------*\
| =========                 |                                                 |
| \\      /  F ield         | OpenFOAM: The Open Source CFD Toolbox           |
|  \\    /   O peration     | Version:  2.4.0                                 |
|   \\  /    A nd           | Web:      www.OpenFOAM.org                      |
|    \\/     M anipulation  |                                                 |
\*---------------------------------------------------------------------------*/
FoamFile
{
    version     2.0;
    format      ascii;
    class       volScalarField;
    location    "1";
    object      k;
}
// * * * * * * * * * * * * * * * * * * * * * * * * * * * * * * * * * * * * * //

dimensions      [0 2 -2 0 0 0 0];

internalField   nonuniform List<scalar> 
5625
(
0.0107764
0.00649534
0.00357152
0.0025827
0.00238302
0.00217253
0.00212322
0.00207893
0.00207442
0.00207033
0.00209749
0.0021932
0.00233958
0.00251202
0.00268844
0.00283308
0.00293737
0.00300431
0.00302978
0.00299444
0.00292139
0.0028284
0.00272515
0.0026405
0.00266176
0.00274939
0.00281887
0.00285447
0.00284642
0.00280114
0.00270792
0.00257013
0.0024161
0.0022633
0.00213227
0.00203454
0.00197087
0.00193445
0.00191818
0.00191431
0.00191634
0.0019235
0.00193885
0.00195312
0.00197587
0.00199437
0.00202458
0.00204713
0.00208518
0.00211307
0.00216061
0.00219561
0.00225472
0.00229825
0.00237091
0.00242486
0.00251452
0.00258144
0.00269242
0.00277677
0.00291559
0.00302372
0.00319797
0.00334006
0.00356227
0.00375304
0.00404171
0.00430395
0.00468815
0.00506079
0.00558923
0.00614326
0.00688084
0.00809513
0.00734544
0.0102418
0.0126505
0.00961273
0.00675631
0.0054519
0.00467222
0.00437456
0.00416747
0.00402419
0.00385933
0.00371158
0.00363818
0.00366701
0.00379833
0.0040138
0.00428479
0.00458607
0.00487059
0.00512957
0.00531381
0.00542768
0.00549116
0.00551286
0.00550667
0.00549942
0.00547969
0.00542956
0.00533259
0.0051618
0.00490637
0.00458598
0.00421092
0.00380412
0.00339521
0.00301465
0.0026868
0.00242369
0.00222484
0.00207927
0.0019762
0.0018999
0.00184848
0.0018047
0.00177967
0.00174933
0.00174081
0.00171898
0.00171729
0.00170604
0.0017086
0.00170526
0.00171192
0.00171584
0.00172626
0.0017341
0.00175181
0.00176315
0.00179058
0.0018061
0.00184409
0.00186444
0.00191261
0.00194056
0.0020019
0.00204019
0.00211858
0.00217146
0.00227803
0.00235161
0.00250302
0.00260534
0.002834
0.00297441
0.00323851
0.00458999
0.00987565
0.0140449
0.0126045
0.00974435
0.00774572
0.00651478
0.00599902
0.00570679
0.0055324
0.00534281
0.00515758
0.00500723
0.00495757
0.00500641
0.00515601
0.00538821
0.00568387
0.00599228
0.00628536
0.00652136
0.0066722
0.00675473
0.00678938
0.00678411
0.00676021
0.00671886
0.00664701
0.0065195
0.00630512
0.00600444
0.00562055
0.00516483
0.00466232
0.00414624
0.00365206
0.00321128
0.00284363
0.0025554
0.00233797
0.00218056
0.00206367
0.00198276
0.00191651
0.00187544
0.00183234
0.00181343
0.00178334
0.00177309
0.00175502
0.00174965
0.00174018
0.00174116
0.00173844
0.00174376
0.00174339
0.0017543
0.00175695
0.00177407
0.00178038
0.00180442
0.00181587
0.00184292
0.0018715
0.00189749
0.00194525
0.00197601
0.00204541
0.00208837
0.00218691
0.00225478
0.00238739
0.00253502
0.00270217
0.00312443
0.00409539
0.00955528
0.0140321
0.0141597
0.0121527
0.00981669
0.00818425
0.00742082
0.0070201
0.00680624
0.0065972
0.00638496
0.00618095
0.00604401
0.00600742
0.00606963
0.00622747
0.00647632
0.00675681
0.00703741
0.00727333
0.00742801
0.00751147
0.00754389
0.00753346
0.00750149
0.00745461
0.00737984
0.00724993
0.007032
0.0067224
0.00631693
0.00582648
0.00527673
0.00470288
0.00414339
0.0036338
0.00319878
0.00284964
0.0025815
0.00238448
0.00223881
0.00213661
0.00205656
0.00200413
0.0019557
0.00192943
0.00189788
0.00188432
0.00186424
0.00185652
0.00184533
0.00184467
0.00184161
0.00184623
0.00184536
0.00185582
0.00185785
0.00187436
0.00188027
0.00190369
0.00191639
0.00194262
0.00197406
0.0019993
0.00205366
0.00208504
0.0021653
0.00221126
0.00232818
0.00240579
0.00257432
0.00274741
0.0029854
0.00386712
0.00418067
0.00927167
0.013626
0.0150757
0.0139726
0.0117791
0.0098418
0.00881203
0.00827636
0.00800779
0.0077753
0.00753731
0.00728431
0.00706885
0.00693336
0.00690258
0.00696897
0.00714349
0.00736483
0.00759885
0.00779993
0.00792974
0.00799615
0.00801621
0.00799722
0.00796169
0.00791806
0.00785398
0.00773953
0.0075397
0.00724207
0.0068382
0.00633673
0.00576316
0.00515412
0.00455062
0.00399166
0.00350605
0.00310927
0.00280018
0.0025702
0.00240043
0.00228019
0.00218891
0.00212702
0.00207461
0.00204268
0.00201032
0.00199397
0.00197397
0.00196513
0.00195336
0.00195203
0.0019496
0.00195417
0.00195417
0.00196514
0.00196867
0.00198686
0.00199449
0.00202107
0.00203486
0.00206867
0.00209863
0.002137
0.00219054
0.00223802
0.00232315
0.00239106
0.00251825
0.00263675
0.00282175
0.00306235
0.00336475
0.00454181
0.00452777
0.00901692
0.0128415
0.0154292
0.0152351
0.0135859
0.0115051
0.010225
0.00953405
0.00919476
0.00893295
0.00866983
0.00837298
0.00808607
0.00785534
0.00771988
0.00768767
0.00776491
0.00789925
0.00805421
0.00818621
0.00826125
0.00828975
0.00828146
0.0082488
0.00821192
0.00817971
0.00814098
0.00805796
0.0078928
0.00762415
0.00723981
0.00674491
0.00616405
0.00553488
0.00490086
0.0043043
0.00377798
0.00334133
0.00299687
0.00273767
0.00254607
0.00240941
0.00230772
0.00223738
0.00218107
0.00214442
0.00211112
0.00209224
0.00207253
0.00206255
0.00205126
0.00204949
0.00204768
0.00205214
0.00205343
0.00206524
0.00207057
0.00209075
0.00210068
0.00213073
0.00214697
0.00218802
0.00221752
0.00227037
0.00232199
0.00239036
0.00247531
0.0025727
0.0027041
0.00286811
0.00306616
0.00338023
0.00374009
0.00510647
0.00496585
0.00878578
0.0119757
0.0153229
0.0160997
0.0150917
0.0131382
0.0116655
0.0108135
0.0103902
0.0100937
0.00980726
0.00947398
0.00912462
0.00880574
0.00856384
0.00842208
0.00838794
0.00841043
0.00845493
0.00848255
0.00847286
0.00843337
0.0083842
0.0083354
0.00829701
0.00827693
0.00826833
0.00823076
0.00811855
0.00789516
0.00754608
0.00707302
0.00649884
0.00586185
0.0052078
0.00458242
0.00402252
0.00355148
0.00317551
0.0028896
0.00267757
0.00252543
0.00241368
0.00233545
0.00227513
0.00223431
0.00219985
0.00217874
0.00215914
0.00214815
0.0021376
0.00213564
0.00213439
0.00213892
0.00214148
0.00215443
0.00216156
0.00218389
0.00219623
0.00222978
0.00224907
0.00229648
0.0023275
0.00239288
0.00244439
0.00253291
0.00261787
0.00274491
0.00288043
0.00308777
0.00330046
0.00368619
0.00409802
0.00560522
0.00540013
0.00857379
0.0111127
0.0149203
0.0165649
0.0162406
0.0146864
0.0131157
0.0121176
0.0116027
0.0112667
0.0109591
0.0105975
0.0101967
0.00979968
0.00945752
0.00920255
0.00904219
0.00893408
0.00884118
0.00873297
0.00860183
0.00847122
0.00836952
0.00829366
0.00825046
0.00824379
0.00827091
0.00828154
0.00822499
0.00806737
0.00776933
0.00733233
0.00677774
0.00614408
0.00547918
0.00483237
0.00424472
0.00374367
0.00333921
0.00302855
0.00279713
0.00263016
0.00250849
0.00242273
0.00235826
0.00231363
0.00227783
0.00225474
0.00223504
0.00222323
0.00221339
0.00221144
0.00221071
0.0022155
0.00221928
0.00223349
0.0022424
0.00226698
0.00228173
0.0023188
0.0023413
0.00239456
0.00242872
0.00250433
0.00255807
0.0026644
0.0027514
0.00290598
0.00304722
0.0032947
0.00352488
0.00397808
0.00443781
0.00605601
0.00580676
0.00837774
0.0103127
0.0142
0.0165953
0.0170755
0.0160405
0.0145415
0.0134375
0.0128323
0.0124542
0.0121276
0.0117456
0.0113055
0.0108429
0.0104093
0.010043
0.00975222
0.0094992
0.0092462
0.00897118
0.0086838
0.00843138
0.00824929
0.00813411
0.00808079
0.00808479
0.008149
0.00822669
0.00823387
0.00814228
0.00791629
0.00752917
0.00700659
0.00638691
0.0057198
0.00505826
0.00444795
0.00392068
0.00349031
0.00315655
0.00290658
0.00272531
0.00259383
0.00250076
0.00243203
0.00238382
0.00234653
0.00232169
0.0023017
0.00228922
0.00228005
0.0022782
0.00227798
0.00228317
0.00228815
0.00230371
0.00231438
0.00234124
0.00235839
0.00239897
0.0024247
0.0024835
0.00252167
0.00260607
0.00266393
0.00278558
0.00287696
0.00305634
0.00320542
0.00348995
0.00374056
0.00425605
0.00476064
0.00646901
0.00618262
0.00819474
0.00967519
0.013255
0.0163456
0.0176115
0.0171288
0.0158996
0.0147541
0.0140726
0.0136532
0.0133101
0.0129155
0.0124479
0.0119334
0.0114203
0.0109488
0.0105284
0.0101229
0.00969441
0.00922832
0.00875223
0.00833899
0.00804829
0.00787675
0.00780483
0.0078144
0.00791176
0.00806395
0.00815353
0.0081351
0.00798487
0.00766737
0.00718893
0.00659364
0.00593274
0.00526287
0.0046346
0.0040845
0.00363054
0.00327515
0.00300741
0.00281228
0.00267106
0.00257087
0.00249777
0.00244615
0.00240726
0.00238083
0.00236045
0.00234741
0.00233884
0.00233716
0.00233745
0.00234316
0.00234932
0.00236626
0.00237872
0.0024078
0.00242737
0.0024714
0.00250036
0.00256448
0.00260693
0.00269948
0.00276278
0.00289751
0.00299544
0.0031969
0.00335592
0.0036747
0.00394783
0.00452103
0.00506783
0.00685069
0.00652994
0.00802223
0.00915644
0.0122395
0.015758
0.0177918
0.0179398
0.017127
0.0160397
0.0153111
0.0148566
0.0145009
0.0141005
0.0136165
0.0130637
0.0124839
0.0119159
0.01137
0.01081
0.0101987
0.00952698
0.00883698
0.00822537
0.00779235
0.00754185
0.00743941
0.00744778
0.0075691
0.00779862
0.00798305
0.00805304
0.00798245
0.00774718
0.00732705
0.00676648
0.00612008
0.00544813
0.0048064
0.00423661
0.0037612
0.00338554
0.00310075
0.00289217
0.00274132
0.00263412
0.00255661
0.0025017
0.00246112
0.00243323
0.00241236
0.00239887
0.00239084
0.00238942
0.00239018
0.00239645
0.00240381
0.00242214
0.00243646
0.0024676
0.00248969
0.002537
0.00256923
0.00263849
0.00268527
0.0027856
0.00285477
0.00300156
0.00310752
0.0033285
0.00349949
0.00384981
0.00414613
0.00477451
0.00536047
0.00720542
0.00685179
0.00785832
0.00872826
0.0112522
0.0149128
0.0176474
0.0185032
0.018141
0.0172594
0.0165294
0.016054
0.0156915
0.0152918
0.014801
0.014222
0.0135877
0.0129327
0.0122668
0.0115535
0.0107583
0.00987699
0.00896067
0.00812112
0.00750969
0.00715153
0.00700246
0.00700149
0.00713421
0.00743551
0.00772443
0.00790061
0.00791402
0.00776705
0.00742282
0.00690696
0.00628333
0.00561545
0.00496463
0.00437818
0.00388329
0.00348865
0.00318752
0.00296588
0.00280552
0.00269143
0.00260946
0.00255134
0.00250902
0.00247975
0.00245836
0.00244449
0.00243694
0.00243583
0.00243704
0.00244389
0.00245252
0.00247216
0.0024885
0.00252138
0.00254628
0.00259644
0.00263213
0.00270626
0.00275739
0.00286524
0.00294038
0.00309864
0.00321316
0.00345239
0.00363632
0.00401623
0.00433562
0.00501713
0.00563931
0.00753633
0.00715095
0.0077016
0.00837
0.0103428
0.0139178
0.0172067
0.0187643
0.0189246
0.0183649
0.0177033
0.017231
0.0168711
0.0164789
0.0159893
0.0153944
0.0147161
0.0139825
0.0132016
0.0123374
0.0113606
0.0102741
0.00913403
0.00806224
0.00723141
0.00673136
0.00651418
0.00649361
0.00662434
0.00698105
0.00738157
0.00767511
0.00779311
0.0077277
0.00747346
0.00701616
0.00642362
0.00576593
0.0051103
0.00451009
0.00399764
0.00358522
0.00326845
0.00303412
0.00286438
0.0027435
0.00265707
0.00259581
0.00255171
0.00252114
0.00249918
0.00248499
0.0024779
0.0024771
0.00247877
0.00248619
0.00249621
0.00251696
0.00253542
0.00256987
0.00259772
0.00265043
0.00268986
0.0027683
0.00282392
0.00293902
0.0030201
0.0031894
0.0033126
0.00356928
0.00376642
0.00417474
0.00451662
0.0052492
0.00590489
0.00784574
0.00742972
0.00755093
0.00806575
0.00957152
0.0128235
0.0164536
0.0186964
0.0194842
0.0192932
0.0188035
0.0183694
0.0180265
0.0176497
0.0171684
0.0165655
0.0158517
0.0150464
0.0141543
0.0131413
0.0119865
0.0107036
0.00935415
0.00805942
0.00698991
0.00631243
0.00599841
0.00594447
0.00606022
0.00644596
0.00695918
0.00737913
0.00761837
0.00763908
0.0074775
0.00709531
0.00654182
0.00590044
0.0052442
0.00463305
0.00410487
0.00367586
0.00334412
0.00309749
0.00291853
0.00279095
0.00270005
0.00263571
0.00258982
0.002558
0.00253545
0.002521
0.00251433
0.00251384
0.00251595
0.00252398
0.0025354
0.00255716
0.00257775
0.00261369
0.00264451
0.00269956
0.00274286
0.0028252
0.00288544
0.00300738
0.00309435
0.00327435
0.00340618
0.00367966
0.00388997
0.00432581
0.00468943
0.00547096
0.00615761
0.00813547
0.00768992
0.00740546
0.00780312
0.00894683
0.0117048
0.015485
0.0183598
0.019765
0.0200269
0.0197892
0.0194467
0.019142
0.0187909
0.0183246
0.0177201
0.0169771
0.0161053
0.0151053
0.0139453
0.0126157
0.0111461
0.00960757
0.00811298
0.00681908
0.0059326
0.00548524
0.00537746
0.00546688
0.00584687
0.00646335
0.00701595
0.00738689
0.00751436
0.00743268
0.00714183
0.00663853
0.00601967
0.00536698
0.00474765
0.00420553
0.00376104
0.003415
0.00315647
0.00296845
0.00283428
0.00273894
0.00267157
0.00262387
0.00259084
0.0025677
0.00255302
0.00254676
0.00254655
0.0025491
0.00255775
0.00257056
0.00259329
0.00261595
0.00265333
0.00268706
0.00274432
0.00279152
0.00287744
0.00294251
0.00307066
0.00316351
0.00335389
0.00349419
0.00378389
0.00400718
0.0044697
0.00485427
0.00568255
0.00639779
0.00840694
0.00793305
0.00726448
0.00757254
0.00843717
0.0106485
0.0143701
0.0176895
0.0197347
0.020544
0.0206183
0.0204371
0.0201992
0.0198878
0.0194438
0.0188429
0.0180757
0.0171415
0.0160365
0.014732
0.0132308
0.0115829
0.00987547
0.00821586
0.00675084
0.00563226
0.00501377
0.00482036
0.00487355
0.00520963
0.00590168
0.00658963
0.00710121
0.00735216
0.00734937
0.00715164
0.00671452
0.00612422
0.0054792
0.00485438
0.00430005
0.00384119
0.00348151
0.00321145
0.00301456
0.00287392
0.00277417
0.00270382
0.00265431
0.00262011
0.00259637
0.0025815
0.00257562
0.00257567
0.00257865
0.00258794
0.00260208
0.00262577
0.00265042
0.00268921
0.00272576
0.00278513
0.00283616
0.00292542
0.00299538
0.00312927
0.00322796
0.00342835
0.00357691
0.00388225
0.00411825
0.00460662
0.00501132
0.00588411
0.00662573
0.00866133
0.00816031
0.00712735
0.00736677
0.00801775
0.00971055
0.0131708
0.0167719
0.0194486
0.020797
0.021274
0.0213027
0.0211766
0.0209238
0.0205115
0.0199191
0.0191321
0.0181391
0.0169322
0.0154867
0.0138176
0.0119978
0.0101373
0.00834652
0.00674737
0.0054515
0.00462952
0.0043073
0.00431182
0.00457502
0.00528286
0.00610495
0.00676418
0.00714937
0.00724028
0.00712206
0.00676986
0.00621459
0.00558133
0.00495364
0.00438879
0.00391662
0.00354396
0.00326277
0.00305722
0.00291023
0.00280612
0.00273284
0.00268153
0.00264619
0.00262185
0.00260682
0.00260131
0.00260157
0.00260498
0.00261493
0.00263034
0.00265497
0.00268151
0.00272168
0.00276094
0.00282233
0.00287709
0.00296949
0.00304432
0.00318353
0.00328804
0.00349797
0.00365455
0.00397499
0.00422335
0.00473672
0.00516072
0.00607577
0.00684167
0.00889963
0.00837273
0.00699343
0.00718024
0.00766873
0.0089503
0.0119278
0.0156594
0.0188345
0.020764
0.0217117
0.022025
0.0220461
0.0218786
0.0215124
0.0209343
0.0201316
0.0190834
0.0177788
0.0161971
0.0143639
0.0123764
0.0103733
0.00847758
0.0067849
0.0053841
0.00436755
0.00387945
0.00380773
0.00398603
0.0046323
0.00556892
0.00637883
0.00690718
0.00710849
0.00705976
0.00679798
0.00629122
0.00567378
0.00504579
0.00447206
0.00398763
0.00360264
0.00331072
0.00309673
0.00294351
0.0028351
0.00275895
0.00270586
0.00266941
0.00264448
0.0026293
0.00262412
0.00262459
0.00262842
0.00263903
0.00265563
0.0026812
0.00270952
0.00275104
0.00279289
0.00285622
0.00291457
0.00300994
0.00308956
0.00323373
0.00334409
0.00356293
0.00372734
0.00406232
0.00432266
0.0048601
0.00530257
0.00625763
0.00704586
0.00912269
0.00857117
0.00686241
0.00700858
0.00737412
0.00833353
0.0107424
0.0144131
0.0179468
0.0204797
0.0219005
0.0225647
0.0227914
0.0227281
0.0224282
0.0218737
0.0210603
0.0199613
0.0185636
0.0168515
0.014859
0.0127058
0.0105658
0.00857717
0.00683262
0.00537328
0.00424245
0.0035711
0.00338386
0.00347873
0.0039917
0.00499118
0.00594878
0.00662774
0.00695224
0.00697392
0.00679669
0.00635544
0.00575694
0.00513113
0.0045501
0.00405445
0.00365777
0.00335553
0.00313333
0.00297403
0.0028614
0.00278242
0.00272758
0.00269004
0.00266454
0.00264923
0.00264436
0.00264502
0.00264925
0.00266052
0.00267824
0.00270474
0.00273473
0.00277758
0.00282186
0.00288707
0.00294886
0.00304703
0.0031313
0.00328012
0.00339633
0.00362345
0.00379545
0.0041444
0.00441631
0.00497687
0.00543698
0.00642981
0.00723854
0.00933123
0.00875639
0.00673403
0.0068485
0.0071214
0.0078319
0.00967617
0.0131
0.0168374
0.0198706
0.0218276
0.0228893
0.0233798
0.0234582
0.0232346
0.0227225
0.0219044
0.0207597
0.0192745
0.0174388
0.0152922
0.0129748
0.0106951
0.00862063
0.00685273
0.00537825
0.00419768
0.00338648
0.00305765
0.00307356
0.00342178
0.00438003
0.00547909
0.00631337
0.00676896
0.00687528
0.0067653
0.00640449
0.00583105
0.00520994
0.00462316
0.00411727
0.00370956
0.0033974
0.00316725
0.00300202
0.00288525
0.00280351
0.00274695
0.00270836
0.00268228
0.00266687
0.00266227
0.00266312
0.00266772
0.00267964
0.00269841
0.00272581
0.00275739
0.00280151
0.00284809
0.00291511
0.00298016
0.003081
0.00316975
0.00332292
0.00344489
0.00367976
0.00385906
0.00422141
0.00450443
0.00508711
0.005564
0.0065924
0.00741991
0.00952591
0.00892902
0.00660807
0.00669752
0.00690075
0.00742153
0.0087931
0.0117639
0.0155551
0.0189805
0.0214968
0.0229696
0.0237769
0.0240508
0.0239106
0.0234616
0.0226497
0.0214657
0.0198994
0.0179471
0.0156531
0.0131728
0.0107517
0.008619
0.00683851
0.00537517
0.00418373
0.00329958
0.0028338
0.00276502
0.00296663
0.00376811
0.00497728
0.00596673
0.00656038
0.00676376
0.00671127
0.00643394
0.00589653
0.00528246
0.0046914
0.00417626
0.00375815
0.00343651
0.00319866
0.00302767
0.00290687
0.00282244
0.00276419
0.00272457
0.00269794
0.00268242
0.00267807
0.0026791
0.00268406
0.00269663
0.00271637
0.00274465
0.0027777
0.00282305
0.00287179
0.00294054
0.00300867
0.00311204
0.00320507
0.00336233
0.00348991
0.00373205
0.00391835
0.00429346
0.00458712
0.0051909
0.00568372
0.00674551
0.0075902
0.0097073
0.00908966
0.00648432
0.00655398
0.00670476
0.00708256
0.00808957
0.0104867
0.0141592
0.0178498
0.0208415
0.0228143
0.0239533
0.0244775
0.02444
0.0240688
0.0232816
0.0220662
0.0204256
0.0183645
0.0159306
0.0132828
0.0107487
0.00854191
0.00676165
0.00533628
0.00417279
0.00326158
0.00269857
0.00253366
0.00262889
0.00320901
0.00445208
0.00559137
0.00632813
0.0066387
0.00664086
0.00644042
0.00595493
0.00534894
0.004755
0.00423156
0.0038037
0.003473
0.00322774
0.00305117
0.00292644
0.00283939
0.00277949
0.00273888
0.00271172
0.00269611
0.00269198
0.00269316
0.00269848
0.00271166
0.00273232
0.00276144
0.00279586
0.00284241
0.00289316
0.00296356
0.00303459
0.00314036
0.00323745
0.00339854
0.00353153
0.0037805
0.00397346
0.00436071
0.00466451
0.0052883
0.0057962
0.00688924
0.00774959
0.00987593
0.00923881
0.00636261
0.00641658
0.00652773
0.00679886
0.00752808
0.0093443
0.0127194
0.0165209
0.0199091
0.0223792
0.0238939
0.0247052
0.0248118
0.0245187
0.0237826
0.022547
0.0208402
0.0186782
0.0161073
0.0133177
0.0106611
0.00839293
0.00662343
0.00525238
0.00414187
0.00324192
0.00262217
0.00236721
0.00238822
0.00276363
0.00390563
0.0051918
0.00607411
0.00649786
0.00656222
0.00642424
0.00600483
0.00540949
0.00481407
0.00428327
0.00384631
0.00350699
0.00325461
0.00307265
0.00294412
0.00285454
0.00279304
0.00275146
0.00272379
0.00270809
0.00270416
0.0027055
0.00271115
0.00272493
0.00274643
0.00277636
0.00281205
0.00285973
0.00291236
0.00298433
0.00305807
0.0031661
0.00326703
0.00343172
0.00356988
0.00382524
0.00402452
0.00442327
0.00473668
0.00537938
0.00590149
0.00702368
0.0078983
0.0100323
0.00937693
0.00624277
0.00628396
0.00636529
0.0065576
0.00707784
0.00840704
0.0112844
0.0150467
0.0187244
0.0216367
0.0235949
0.0247022
0.0250096
0.0247918
0.0241295
0.0228936
0.0211297
0.018871
0.0161789
0.0132612
0.0104903
0.00817635
0.00642855
0.00512306
0.00408204
0.00321905
0.00257693
0.00225086
0.00221633
0.00243623
0.00337635
0.00477495
0.00580067
0.00634192
0.00647769
0.00638985
0.00604259
0.00546407
0.00486874
0.0043315
0.00388607
0.00353859
0.0032794
0.00309226
0.00296007
0.00286803
0.00280499
0.00276248
0.00273432
0.00271854
0.00271479
0.00271627
0.00272223
0.00273658
0.00275887
0.00278957
0.00282644
0.0028752
0.00292956
0.00300302
0.00307928
0.00318944
0.00329397
0.00346201
0.00360509
0.00386642
0.00407168
0.00448124
0.00480373
0.00546421
0.00599966
0.00714893
0.00803649
0.0101767
0.00950444
0.00612466
0.0061552
0.00621394
0.00634863
0.0067138
0.00766994
0.00994149
0.0134933
0.0173237
0.0206196
0.0229877
0.024482
0.0250094
0.0248715
0.0242984
0.0230914
0.0212799
0.0189363
0.0161405
0.0131016
0.010237
0.00789878
0.00618572
0.00495345
0.00399261
0.00318458
0.00254459
0.0021712
0.00208533
0.00220539
0.00290258
0.00434708
0.00551041
0.00617202
0.00638702
0.00634199
0.0060662
0.0055131
0.00491913
0.00437633
0.00392307
0.00356788
0.0033022
0.00311012
0.0029744
0.00288
0.00281548
0.00277208
0.00274345
0.00272759
0.00272401
0.00272562
0.00273188
0.00274678
0.00276978
0.00280121
0.00283917
0.00288894
0.00294491
0.00301976
0.00309836
0.00321051
0.00331841
0.00348957
0.00363727
0.00390417
0.00411506
0.00453474
0.00486573
0.00554285
0.00609076
0.00726508
0.00816435
0.0103097
0.00962171
0.00600815
0.00602972
0.00607101
0.00616385
0.00641574
0.00709079
0.00876555
0.0119386
0.0157585
0.0193468
0.0220994
0.02397
0.0248152
0.0247609
0.0242713
0.0231241
0.0212768
0.0188618
0.0159706
0.0128346
0.00990327
0.00756841
0.00590464
0.00475165
0.00387736
0.00313597
0.00251581
0.00211335
0.00198389
0.0020417
0.00252783
0.00390269
0.00520597
0.00598946
0.00628992
0.0062843
0.00607292
0.00555839
0.00496543
0.00441781
0.00395736
0.00359494
0.00332312
0.00312631
0.00298723
0.00289059
0.00282465
0.00278039
0.00275132
0.00273539
0.00273196
0.00273369
0.00274023
0.00275564
0.00277931
0.00281142
0.00285038
0.0029011
0.00295853
0.00303469
0.00311544
0.00322946
0.00334046
0.00351452
0.00366655
0.00393859
0.00415476
0.00458386
0.00492278
0.00561536
0.00617484
0.00737221
0.00828205
0.0104315
0.00972906
0.00589313
0.00590713
0.00593446
0.00599708
0.00616751
0.00663442
0.00782734
0.0104348
0.014092
0.0178515
0.0209401
0.0231664
0.024358
0.0244325
0.0240412
0.0229803
0.0211084
0.0186321
0.0156613
0.012456
0.0094932
0.00719362
0.00559727
0.00452607
0.00374245
0.00307364
0.00248605
0.00206904
0.00190274
0.00192209
0.00225215
0.0034635
0.00489157
0.00579584
0.00618517
0.00622138
0.00606375
0.00559902
0.00500768
0.004456
0.00398899
0.00361983
0.00334222
0.00314094
0.00299867
0.00289988
0.00283259
0.00278753
0.00275804
0.00274205
0.00273875
0.0027406
0.0027474
0.0027633
0.00278757
0.00282032
0.00286019
0.0029118
0.00297057
0.00304794
0.00313065
0.00324639
0.00336026
0.00353699
0.00369303
0.0039698
0.00419091
0.00462867
0.00497494
0.00568181
0.00625196
0.00747042
0.00838973
0.0105425
0.0098268
0.00577951
0.00578718
0.00580296
0.0058435
0.0059563
0.00627202
0.00710395
0.00907889
0.0124005
0.016183
0.0195291
0.0220825
0.0236277
0.0238737
0.0235624
0.0226152
0.020757
0.0182376
0.0152066
0.0119641
0.00901292
0.00678268
0.00527127
0.00428827
0.00359597
0.0030001
0.00245301
0.0020331
0.00183634
0.00183064
0.00205017
0.00305462
0.00457286
0.00559312
0.00607266
0.00615624
0.00604109
0.00563236
0.00504573
0.00449093
0.00401801
0.0036426
0.00335957
0.00315409
0.00300881
0.002908
0.00283943
0.00279361
0.00276373
0.00274769
0.00274451
0.00274647
0.00275351
0.00276986
0.00279468
0.00282802
0.00286872
0.00292115
0.00298113
0.00305962
0.00314412
0.00326143
0.00337791
0.00355709
0.00371682
0.0039979
0.00422362
0.00466926
0.00502228
0.00574225
0.00632216
0.00755979
0.00848754
0.010643
0.0099152
0.00566713
0.00566964
0.00567569
0.0056996
0.00577199
0.00598022
0.00654698
0.00794022
0.0107678
0.0144075
0.0179016
0.0207286
0.0226258
0.0230866
0.0228463
0.0220101
0.0202173
0.0176713
0.0146041
0.0113615
0.00847137
0.00633933
0.00493455
0.00405321
0.00344515
0.00291866
0.00241582
0.00200224
0.0017825
0.00175509
0.00190115
0.00269202
0.00425392
0.00538328
0.00595338
0.00608863
0.00600851
0.00565728
0.00507944
0.0045226
0.00404443
0.00366329
0.00337522
0.00316582
0.00301772
0.00291501
0.00284525
0.00279873
0.00276848
0.00275239
0.00274933
0.00275139
0.00275865
0.00277542
0.00280075
0.00283463
0.00287608
0.00292924
0.00299032
0.00306983
0.00315593
0.00327469
0.00339353
0.00357492
0.00373802
0.00402299
0.004253
0.00470568
0.00506487
0.00579673
0.00638551
0.00764039
0.00857562
0.0107331
0.0099945
0.00555658
0.00555318
0.00555137
0.00556342
0.00560764
0.00574075
0.00611662
0.0070753
0.00925384
0.0126012
0.0161097
0.0191287
0.0213535
0.0220679
0.0218942
0.0211625
0.0194798
0.0169302
0.0138558
0.0106566
0.00787854
0.00587565
0.00460114
0.00382539
0.00329448
0.00283259
0.00237477
0.00197391
0.00173796
0.00169092
0.00178811
0.00239368
0.00393017
0.00516796
0.0058282
0.00601859
0.00596841
0.00567327
0.0051089
0.00455103
0.00406828
0.00368193
0.00338923
0.0031762
0.00302548
0.00292101
0.00285014
0.00280296
0.00277239
0.00275626
0.0027533
0.00275545
0.00276293
0.00278009
0.00280587
0.00284023
0.00288235
0.00293619
0.00299824
0.00307866
0.0031662
0.00328625
0.0034072
0.00359059
0.00375671
0.00404516
0.0042791
0.00473802
0.00510278
0.00584532
0.00644204
0.00771229
0.00865409
0.0108132
0.0100649
0.00544723
0.00543978
0.00542785
0.00543255
0.00545772
0.00553947
0.00578096
0.00642253
0.00795948
0.0108558
0.0142243
0.0173236
0.0198236
0.0208209
0.0207128
0.0200802
0.0185356
0.0160151
0.0129701
0.00986408
0.00724765
0.0054115
0.00428016
0.00360639
0.0031479
0.00274498
0.00233067
0.00194664
0.00170039
0.00163563
0.00169943
0.00216542
0.00360427
0.00494875
0.00569802
0.00594622
0.0059225
0.00567926
0.005135
0.00457629
0.00408957
0.00369855
0.00340163
0.00318527
0.00303215
0.00292606
0.00285417
0.0028064
0.00277553
0.00275937
0.00275651
0.00275874
0.00276641
0.00278393
0.00281011
0.00284492
0.00288763
0.00294207
0.00300498
0.00308621
0.00317501
0.00329621
0.00341903
0.00360418
0.00377299
0.00406449
0.00430197
0.00476636
0.00513606
0.00588806
0.0064918
0.00777557
0.00872306
0.0108834
0.0101266
0.00533887
0.00532933
0.00530645
0.00530437
0.00531741
0.0053653
0.00551476
0.00593063
0.00696436
0.00923449
0.0123293
0.0153735
0.0180643
0.0193569
0.0193167
0.0187793
0.0173886
0.0149348
0.0119628
0.00900512
0.00659824
0.00495976
0.00397711
0.00340163
0.00300932
0.00265838
0.00228448
0.00191957
0.00166754
0.00158758
0.00162801
0.00198848
0.00329235
0.00472825
0.00556388
0.00587151
0.00587231
0.00567449
0.00515903
0.0045985
0.00410833
0.00371316
0.00341245
0.00319308
0.00303778
0.00293023
0.00285742
0.0028091
0.00277797
0.00276179
0.00275902
0.00276133
0.00276919
0.00278703
0.00281356
0.00284876
0.00289199
0.00294695
0.00301061
0.00309256
0.00318244
0.00330465
0.00342908
0.00361576
0.00378691
0.00408106
0.00432166
0.00479078
0.00516477
0.005925
0.00653483
0.00783027
0.00878263
0.0109439
0.0101797
0.00523143
0.00522033
0.00518994
0.00517724
0.00518311
0.00520958
0.0052981
0.00555779
0.00623158
0.00784
0.0105206
0.0133592
0.0161227
0.017696
0.0177326
0.0172853
0.0160555
0.0137076
0.0108591
0.00810731
0.00595303
0.00453119
0.00369777
0.00321468
0.00288092
0.00257452
0.00223704
0.00189215
0.00163811
0.00154519
0.00156896
0.00184949
0.00300266
0.00450925
0.00542691
0.00579389
0.00582014
0.00566033
0.00517952
0.00461765
0.00412456
0.00372578
0.00342172
0.00319968
0.00304243
0.00293356
0.00285992
0.00281114
0.00277978
0.0027636
0.00276091
0.00276329
0.00277131
0.00278944
0.00281629
0.00285182
0.00289549
0.00295091
0.0030152
0.00309776
0.00318857
0.00331163
0.00343743
0.00362541
0.00379855
0.00409495
0.00433822
0.00481132
0.00518897
0.00595616
0.00657117
0.00787646
0.00883287
0.0109948
0.0102245
0.00512486
0.00511263
0.00507811
0.00505225
0.00505264
0.00506552
0.00511515
0.00527042
0.00569402
0.00673369
0.00889079
0.0113801
0.0140686
0.0158692
0.0160077
0.0156308
0.0145626
0.0123646
0.00969396
0.00720391
0.005335
0.00413687
0.00344643
0.003047
0.0027636
0.00249446
0.00218902
0.00186406
0.00161112
0.00150723
0.00151889
0.00173847
0.00273913
0.00429433
0.00528836
0.00571372
0.00576726
0.0056382
0.00519536
0.00463366
0.00413825
0.00373641
0.00342945
0.00320508
0.00304613
0.0029361
0.00286175
0.00281255
0.002781
0.00276483
0.00276223
0.00276467
0.00277284
0.00279123
0.00281834
0.00285416
0.0028982
0.00295401
0.00301881
0.00310188
0.00319345
0.00331722
0.00344414
0.0036332
0.00380796
0.0041062
0.00435169
0.00482805
0.00520869
0.0059816
0.00660084
0.00791417
0.00887387
0.0110363
0.0102609
0.00501908
0.0050061
0.00497006
0.00493221
0.00492306
0.0049286
0.00495466
0.0050426
0.00529766
0.00594638
0.00749321
0.0095394
0.0119937
0.013932
0.0141855
0.0138689
0.0129459
0.0109546
0.00851174
0.00633123
0.00476536
0.00378558
0.00322554
0.00289877
0.00265735
0.00241868
0.00214083
0.00183521
0.00158559
0.00147283
0.00147553
0.00164831
0.00250303
0.00408558
0.00514941
0.00563141
0.00571366
0.00561006
0.00520601
0.00464645
0.00414941
0.00374507
0.00343567
0.00320932
0.00304891
0.00293789
0.00286293
0.00281339
0.00278169
0.00276554
0.00276302
0.00276552
0.00277382
0.00279243
0.00281976
0.00285582
0.00290016
0.00295627
0.0030215
0.00310497
0.00319713
0.00332145
0.00344925
0.00363915
0.00381519
0.00411487
0.0043621
0.004841
0.00522397
0.00600134
0.00662388
0.00794346
0.00890569
0.0110685
0.0102891
0.00491403
0.00490059
0.00486468
0.00481799
0.00479574
0.00479602
0.00480785
0.00485419
0.00499984
0.00538859
0.00639842
0.00794046
0.0100086
0.0119608
0.0123227
0.0120614
0.0112722
0.00952434
0.0073626
0.00552457
0.00426105
0.00348253
0.00303548
0.00276912
0.00256157
0.00234724
0.00209275
0.00180549
0.00156091
0.00144126
0.00143719
0.00157381
0.00229503
0.00388353
0.0050111
0.00554763
0.0056593
0.00557723
0.00521127
0.00465593
0.00415801
0.00375174
0.00344038
0.0032124
0.0030508
0.00293896
0.0028635
0.00281369
0.00278189
0.00276577
0.00276332
0.00276588
0.00277428
0.00279309
0.00282059
0.00285685
0.00290142
0.00295776
0.00302329
0.00310706
0.00319966
0.00332439
0.00345282
0.00364333
0.00382029
0.00412099
0.00436948
0.00485019
0.00523484
0.0060154
0.0066403
0.00796433
0.00892836
0.0110914
0.0103093
0.00480967
0.00479599
0.00476103
0.00470903
0.00467413
0.00466458
0.00466908
0.00469122
0.00476852
0.00498994
0.00559622
0.00665444
0.00822859
0.0100519
0.0104898
0.0102805
0.00961889
0.00813273
0.00629713