/*--------------------------------*- C++ -*----------------------------------*\
| =========                 |                                                 |
| \\      /  F ield         | OpenFOAM: The Open Source CFD Toolbox           |
|  \\    /   O peration     | Version:  2.4.0                                 |
|   \\  /    A nd           | Web:      www.OpenFOAM.org                      |
|    \\/     M anipulation  |                                                 |
\*---------------------------------------------------------------------------*/
FoamFile
{
    version     2.0;
    format      ascii;
    class       volScalarField;
    location    "0.27";
    object      p;
}
// * * * * * * * * * * * * * * * * * * * * * * * * * * * * * * * * * * * * * //

dimensions      [0 2 -2 0 0 0 0];

internalField   nonuniform List<scalar> 
6000
(
0.263142
0.257726
0.255229
0.254354
0.25346
0.252354
0.251251
0.25023
0.24928
0.248391
0.24757
0.246822
0.246137
0.245489
0.244853
0.24421
0.243554
0.242888
0.242221
0.241564
0.240923
0.240302
0.2397
0.239112
0.238531
0.237954
0.237377
0.2368
0.236223
0.235649
0.235079
0.234517
0.233963
0.233422
0.232898
0.232393
0.231916
0.231473
0.231074
0.230732
0.230463
0.230288
0.230234
0.230335
0.230636
0.231193
0.232081
0.233391
0.235246
0.2378
0.241252
0.245859
0.251954
0.259967
0.270471
0.28417
0.302051
0.324729
0.353755
0.383296
0.259203
0.256943
0.255183
0.254352
0.253531
0.252505
0.25144
0.250433
0.249484
0.248587
0.247748
0.246972
0.246253
0.245571
0.244907
0.244244
0.243576
0.242904
0.242235
0.241576
0.240933
0.24031
0.239705
0.239114
0.238532
0.237954
0.237376
0.236799
0.236222
0.235648
0.235078
0.234515
0.233962
0.23342
0.232895
0.23239
0.231912
0.231468
0.231067
0.230723
0.230452
0.230274
0.230215
0.230311
0.230605
0.231154
0.232029
0.233325
0.23516
0.237688
0.241105
0.245665
0.251694
0.259613
0.269978
0.28346
0.301026
0.323234
0.3521
0.381189
0.259051
0.257437
0.255497
0.254383
0.253499
0.252472
0.251398
0.250386
0.249442
0.248552
0.247719
0.246947
0.246229
0.245549
0.244887
0.244228
0.243565
0.242898
0.242233
0.241577
0.240936
0.240313
0.239708
0.239117
0.238534
0.237955
0.237377
0.236799
0.236222
0.235647
0.235077
0.234514
0.23396
0.233418
0.232892
0.232386
0.231907
0.231461
0.231059
0.230713
0.230438
0.230256
0.230192
0.230281
0.230567
0.231104
0.231965
0.233241
0.23505
0.237544
0.240914
0.245409
0.251345
0.259126
0.269277
0.282409
0.299392
0.320597
0.348073
0.375561
0.258399
0.257002
0.255257
0.25418
0.253357
0.2524
0.251372
0.250391
0.249473
0.248601
0.247778
0.247008
0.246287
0.245599
0.244928
0.244261
0.243593
0.242924
0.242258
0.241602
0.24096
0.240334
0.239725
0.239129
0.238542
0.237959
0.237379
0.236799
0.236221
0.235646
0.235076
0.234512
0.233957
0.233415
0.232888
0.232381
0.231899
0.231452
0.231047
0.230697
0.230417
0.230229
0.230158
0.230237
0.23051
0.23103
0.23187
0.233118
0.23489
0.237335
0.24064
0.245046
0.250859
0.258462
0.268345
0.281058
0.297356
0.31744
0.342989
0.368133
0.257842
0.256757
0.255256
0.254179
0.253337
0.252399
0.25139
0.250416
0.249502
0.248634
0.247811
0.247036
0.246308
0.245612
0.244936
0.244266
0.243597
0.242929
0.242266
0.241612
0.240971
0.240345
0.239735
0.239136
0.238547
0.237962
0.23738
0.236799
0.236221
0.235645
0.235074
0.234509
0.233954
0.23341
0.232882
0.232373
0.23189
0.231439
0.231031
0.230677
0.230392
0.230196
0.230115
0.230182
0.230439
0.230939
0.231751
0.232964
0.234691
0.237075
0.2403
0.244598
0.250262
0.257653
0.267226
0.279469
0.295023
0.313957
0.337484
0.360079
0.257374
0.256518
0.25519
0.254111
0.253257
0.25235
0.251371
0.250415
0.249513
0.248654
0.247836
0.247063
0.246332
0.245633
0.244953
0.24428
0.24361
0.242942
0.242279
0.241625
0.240984
0.240358
0.239745
0.239145
0.238552
0.237966
0.237382
0.2368
0.23622
0.235643
0.235071
0.234506
0.23395
0.233405
0.232875
0.232364
0.231879
0.231425
0.231012
0.230652
0.23036
0.230156
0.230063
0.230115
0.230352
0.230827
0.231607
0.232778
0.234449
0.236761
0.239891
0.24406
0.249549
0.256697
0.26592
0.277647
0.292408
0.310161
0.33167
0.351724
0.25697
0.256277
0.2551
0.254048
0.253196
0.252316
0.251365
0.250425
0.249531
0.248679
0.247865
0.247091
0.246357
0.245654
0.244968
0.244292
0.24362
0.242952
0.24229
0.241636
0.240995
0.240368
0.239754
0.239151
0.238557
0.237968
0.237383
0.236799
0.236219
0.235641
0.235069
0.234503
0.233945
0.233399
0.232867
0.232354
0.231865
0.231408
0.23099
0.230624
0.230324
0.230108
0.230002
0.230037
0.230251
0.230697
0.231439
0.232561
0.234168
0.236397
0.239416
0.243439
0.248729
0.255604
0.264441
0.275611
0.28954
0.306083
0.325619
0.343244
0.256618
0.256044
0.255001
0.253989
0.25314
0.25228
0.251355
0.250429
0.249544
0.248699
0.247888
0.247115
0.246379
0.245671
0.244982
0.244304
0.24363
0.242962
0.2423
0.241647
0.241006
0.240377
0.239762
0.239158
0.238561
0.237971
0.237384
0.236799
0.236217
0.235639
0.235066
0.234498
0.23394
0.233392
0.232858
0.232342
0.23185
0.231388
0.230965
0.230591
0.230282
0.230055
0.229933
0.229948
0.230137
0.230549
0.231248
0.232314
0.23385
0.235984
0.23888
0.242739
0.247809
0.254384
0.262803
0.273384
0.286453
0.301776
0.319415
0.334784
0.256309
0.255825
0.254896
0.25393
0.253086
0.252243
0.251342
0.250432
0.249556
0.248717
0.24791
0.247138
0.246399
0.245688
0.244996
0.244315
0.24364
0.242972
0.24231
0.241657
0.241015
0.240386
0.23977
0.239164
0.238565
0.237973
0.237384
0.236799
0.236216
0.235637
0.235062
0.234494
0.233933
0.233384
0.232848
0.232329
0.231833
0.231366
0.230937
0.230555
0.230235
0.229995
0.229856
0.229849
0.230009
0.230384
0.231036
0.23204
0.233496
0.235526
0.238285
0.241964
0.246794
0.253046
0.261021
0.270984
0.283176
0.297285
0.313123
0.326431
0.256036
0.25562
0.254789
0.25387
0.253036
0.252208
0.251328
0.250433
0.249566
0.248733
0.24793
0.247158
0.246418
0.245704
0.245009
0.244326
0.24365
0.242981
0.242319
0.241666
0.241024
0.240395
0.239777
0.239169
0.238569
0.237975
0.237385
0.236798
0.236214
0.235634
0.235058
0.234489
0.233927
0.233375
0.232836
0.232315
0.231815
0.231342
0.230906
0.230515
0.230184
0.229929
0.229772
0.229739
0.229868
0.230203
0.230802
0.231739
0.233107
0.235023
0.237634
0.241117
0.24569
0.251596
0.259103
0.268429
0.279733
0.292646
0.306788
0.318226
0.255793
0.255431
0.254682
0.25381
0.252989
0.252174
0.251313
0.250434
0.249575
0.248747
0.247947
0.247176
0.246435
0.245719
0.245021
0.244336
0.243659
0.242989
0.242327
0.241674
0.241033
0.240402
0.239783
0.239174
0.238572
0.237977
0.237385
0.236797
0.236212
0.235631
0.235054
0.234483
0.23392
0.233366
0.232824
0.232299
0.231794
0.231316
0.230872
0.230472
0.230129
0.229858
0.22968
0.229621
0.229716
0.230007
0.230549
0.231413
0.232686
0.234479
0.236929
0.240204
0.244501
0.250042
0.257062
0.265732
0.276147
0.287888
0.300443
0.310193
0.255578
0.255258
0.254578
0.253751
0.252944
0.252142
0.251298
0.250433
0.249582
0.248759
0.247963
0.247193
0.246451
0.245733
0.245033
0.244346
0.243667
0.242997
0.242335
0.241682
0.24104
0.240409
0.239789
0.239178
0.238575
0.237978
0.237385
0.236796
0.23621
0.235628
0.23505
0.234477
0.233912
0.233355
0.232811
0.232282
0.231773
0.231288
0.230836
0.230426
0.230069
0.229781
0.22958
0.229493
0.229551
0.229795
0.230277
0.231062
0.232233
0.233894
0.236174
0.239226
0.243233
0.248392
0.254907
0.26291
0.272436
0.283037
0.294108
0.302337
0.255386
0.2551
0.254477
0.253693
0.252903
0.252112
0.251283
0.250431
0.249589
0.248771
0.247977
0.247208
0.246465
0.245746
0.245044
0.244355
0.243675
0.243005
0.242342
0.241689
0.241047
0.240415
0.239794
0.239182
0.238578
0.23798
0.237385
0.236795
0.236208
0.235624
0.235045
0.234471
0.233903
0.233345
0.232797
0.232264
0.231749
0.231258
0.230798
0.230376
0.230005
0.229698
0.229475
0.229357
0.229376
0.22957
0.229986
0.230687
0.231751
0.233273
0.235371
0.238189
0.241891
0.246653
0.252648
0.259974
0.268619
0.278113
0.287801
0.294659
0.255216
0.254956
0.254383
0.253636
0.252863
0.252083
0.251269
0.250429
0.249594
0.24878
0.247989
0.247222
0.246479
0.245757
0.245054
0.244363
0.243683
0.243012
0.242349
0.241696
0.241053
0.240421
0.239799
0.239186
0.23858
0.237981
0.237385
0.236794
0.236205
0.23562
0.23504
0.234464
0.233894
0.233333
0.232782
0.232245
0.231725
0.231226
0.230757
0.230324
0.229937
0.229611
0.229363
0.229213
0.229191
0.229331
0.229679
0.230292
0.231241
0.232616
0.234525
0.237097
0.240481
0.244832
0.250295
0.256937
0.264709
0.273132
0.281528
0.287149
0.255065
0.254827
0.254294
0.253583
0.252827
0.252057
0.251254
0.250426
0.249599
0.248789
0.248001
0.247234
0.24649
0.245768
0.245063
0.244371
0.24369
0.243018
0.242355
0.241702
0.241059
0.240426
0.239803
0.239189
0.238582
0.237981
0.237385
0.236792
0.236202
0.235616
0.235034
0.234457
0.233885
0.233321
0.232767
0.232225
0.231699
0.231193
0.230714
0.230268
0.229866
0.22952
0.229245
0.229062
0.228996
0.22908
0.229356
0.229876
0.230705
0.231926
0.233637
0.235954
0.239008
0.242937
0.247857
0.253812
0.260721
0.268108
0.275297
0.279796
0.254932
0.254711
0.254213
0.253532
0.252793
0.252033
0.251241
0.250423
0.249602
0.248796
0.24801
0.247245
0.246501
0.245777
0.245071
0.244378
0.243696
0.243024
0.242361
0.241707
0.241064
0.240431
0.239807
0.239192
0.238584
0.237982
0.237384
0.23679
0.2362
0.235612
0.235028
0.234449
0.233875
0.233308
0.23275
0.232204
0.231671
0.231158
0.230669
0.23021
0.229792
0.229424
0.229122
0.228903
0.228792
0.228817
0.229018
0.229441
0.230146
0.231207
0.232711
0.234763
0.237479
0.240973
0.245343
0.250607
0.256665
0.263049
0.269107
0.272586
0.254815
0.254609
0.254139
0.253486
0.252762
0.252011
0.251229
0.250419
0.249605
0.248803
0.248019
0.247254
0.24651
0.245786
0.245078
0.244384
0.243702
0.243029
0.242366
0.241712
0.241069
0.240435
0.23981
0.239194
0.238585
0.237982
0.237383
0.236788
0.236196
0.235608
0.235022
0.234441
0.233865
0.233295
0.232733
0.232182
0.231643
0.231122
0.230622
0.23015
0.229714
0.229324
0.228994
0.228738
0.22858
0.228544
0.228667
0.22899
0.229565
0.23046
0.231751
0.23353
0.235897
0.238949
0.242762
0.247334
0.252551
0.257965
0.262958
0.265502
0.254713
0.254519
0.254073
0.253443
0.252734
0.251992
0.251217
0.250416
0.249607
0.248808
0.248026
0.247263
0.246519
0.245793
0.245085
0.24439
0.243707
0.243034
0.24237
0.241716
0.241072
0.240438
0.239813
0.239196
0.238586
0.237982
0.237382
0.236786
0.236193
0.235603
0.235016
0.234433
0.233854
0.233281
0.232716
0.232159
0.231614
0.231084
0.230574
0.230088
0.229634
0.229221
0.228861
0.228568
0.22836
0.228262
0.228304
0.228523
0.228965
0.229688
0.230761
0.23226
0.23427
0.236872
0.24012
0.244
0.248388
0.25286
0.256846
0.258529
0.254626
0.254441
0.254015
0.253405
0.252709
0.251975
0.251207
0.250412
0.249609
0.248813
0.248033
0.24727
0.246526
0.2458
0.245091
0.244395
0.243711
0.243038
0.242374
0.24172
0.241076
0.240441
0.239815
0.239198
0.238587
0.237982
0.237381
0.236784
0.236189
0.235598
0.23501
0.234425
0.233843
0.233267
0.232697
0.232135
0.231584
0.231045
0.230524
0.230024
0.229552
0.229115
0.228724
0.228392
0.228134
0.227972
0.22793
0.228042
0.228348
0.228895
0.229743
0.230955
0.232602
0.234746
0.237426
0.240614
0.244182
0.247737
0.250766
0.251648
0.254553
0.254375
0.253965
0.253373
0.252688
0.25196
0.251198
0.250409
0.24961
0.248817
0.248038
0.247276
0.246532
0.245806
0.245096
0.244399
0.243715
0.243041
0.242377
0.241723
0.241078
0.240443
0.239817
0.239199
0.238587
0.237981
0.237379
0.236781
0.236186
0.235593
0.235003
0.234416
0.233832
0.233253
0.232679
0.232111
0.231553
0.231006
0.230473
0.229958
0.229467
0.229006
0.228584
0.228212
0.227903
0.227674
0.227547
0.22755
0.227715
0.228083
0.228701
0.229621
0.230899
0.23258
0.234687
0.237183
0.23994
0.242599
0.244713
0.244842
0.254492
0.254321
0.253923
0.253345
0.25267
0.251947
0.251191
0.250407
0.249611
0.24882
0.248042
0.247281
0.246537
0.24581
0.2451
0.244403
0.243718
0.243044
0.24238
0.241725
0.241081
0.240445
0.239818
0.239199
0.238587
0.23798
0.237378
0.236778
0.236182
0.235588
0.234996
0.234407
0.233821
0.233238
0.23266
0.232087
0.231521
0.230965
0.23042
0.229891
0.229381
0.228895
0.228442
0.228028
0.227666
0.22737
0.227156
0.227048
0.22707
0.227255
0.227639
0.228263
0.229166
0.230379
0.231911
0.233714
0.235667
0.237447
0.238677
0.238093
0.254444
0.254278
0.25389
0.253322
0.252655
0.251937
0.251184
0.250404
0.249612
0.248822
0.248046
0.247285
0.246541
0.245814
0.245103
0.244406
0.243721
0.243046
0.242382
0.241727
0.241082
0.240446
0.239819
0.2392
0.238587
0.237979
0.237376
0.236776
0.236178
0.235583
0.234989
0.234398
0.233809
0.233223
0.23264
0.232062
0.231489
0.230924
0.230367
0.229823
0.229293
0.228782
0.228296
0.227841
0.227426
0.227061
0.226759
0.226537
0.226414
0.226414
0.226562
0.226885
0.227409
0.22815
0.229102
0.230212
0.231366
0.232281
0.232651
0.231382
0.254409
0.254246
0.253865
0.253305
0.252644
0.25193
0.25118
0.250403
0.249612
0.248824
0.248048
0.247288
0.246544
0.245817
0.245105
0.244408
0.243722
0.243048
0.242383
0.241729
0.241083
0.240447
0.239819
0.239199
0.238586
0.237978
0.237373
0.236772
0.236174
0.235577
0.234982
0.234389
0.233797
0.233208
0.232621
0.232037
0.231457
0.230882
0.230314
0.229754
0.229204
0.228668
0.228149
0.227652
0.227182
0.226748
0.226357
0.22602
0.225751
0.225563
0.225471
0.225491
0.225633
0.225899
0.226269
0.226685
0.227043
0.227099
0.226627
0.22469
0.254385
0.254224
0.253848
0.253294
0.252636
0.251925
0.251177
0.250401
0.249613
0.248825
0.24805
0.247289
0.246546
0.245818
0.245107
0.244409
0.243724
0.243049
0.242384
0.241729
0.241084
0.240447
0.239819
0.239199
0.238585
0.237976
0.237371
0.236769
0.23617
0.235572
0.234975
0.23438
0.233785
0.233192
0.232601
0.232011
0.231424
0.23084
0.230259
0.229684
0.229114
0.228552
0.228001
0.227461
0.226937
0.226432
0.225951
0.225499
0.225082
0.224704
0.224372
0.224086
0.223844
0.223631
0.223417
0.223138
0.222699
0.221901
0.220593
0.217999
0.254373
0.254213
0.25384
0.253288
0.252633
0.251922
0.251175
0.250401
0.249613
0.248826
0.248051
0.24729
0.246546
0.245819
0.245107
0.24441
0.243724
0.243049
0.242384
0.241729
0.241084
0.240447
0.239819
0.239198
0.238584
0.237974
0.237369
0.236766
0.236165
0.235566
0.234968
0.23437
0.233773
0.233177
0.232581
0.231986
0.231391
0.230797
0.230205
0.229614
0.229024
0.228436
0.227851
0.227269
0.22669
0.226115
0.225544
0.224975
0.224409
0.223842
0.223267
0.222675
0.222047
0.221354
0.220554
0.219576
0.218338
0.216683
0.214541
0.211288
0.254373
0.254213
0.25384
0.253288
0.252633
0.251922
0.251175
0.250401
0.249613
0.248826
0.248051
0.24729
0.246546
0.245819
0.245107
0.24441
0.243724
0.243049
0.242384
0.241729
0.241083
0.240446
0.239818
0.239197
0.238582
0.237972
0.237366
0.236763
0.236161
0.23556
0.234961
0.234361
0.233761
0.233161
0.232561
0.23196
0.231358
0.230755
0.23015
0.229543
0.228934
0.22832
0.227702
0.227077
0.226443
0.225797
0.225135
0.224451
0.223736
0.222979
0.222162
0.221262
0.220247
0.219073
0.217684
0.216005
0.213963
0.211444
0.208459
0.204539
0.254385
0.254224
0.253848
0.253294
0.252636
0.251925
0.251177
0.250401
0.249612
0.248825
0.24805
0.247289
0.246545
0.245818
0.245106
0.244409
0.243723
0.243048
0.242383
0.241728
0.241082
0.240445
0.239816
0.239195
0.23858
0.23797
0.237363
0.236759
0.236156
0.235555
0.234953
0.234351
0.233749
0.233146
0.232541
0.231934
0.231325
0.230713
0.230096
0.229473
0.228843
0.228204
0.227553
0.226885
0.226196
0.22548
0.224728
0.223928
0.223065
0.222117
0.221058
0.219852
0.21845
0.216794
0.214814
0.21243
0.209576
0.206181
0.202336
0.197731
0.254408
0.254246
0.253865
0.253305
0.252644
0.25193
0.25118
0.250403
0.249612
0.248824
0.248048
0.247287
0.246543
0.245816
0.245105
0.244407
0.243721
0.243047
0.242382
0.241726
0.24108
0.240443
0.239815
0.239193
0.238578
0.237967
0.23736
0.236755
0.236152
0.235549
0.234946
0.234342
0.233737
0.23313
0.232521
0.231909
0.231292
0.23067
0.230041
0.229403
0.228754
0.228089
0.227404
0.226694
0.225951
0.225165
0.224323
0.223408
0.222397
0.221261
0.219961
0.218449
0.216661
0.214524
0.211952
0.208856
0.20518
0.200892
0.196161
0.190842
0.254444
0.254278
0.25389
0.253322
0.252655
0.251937
0.251184
0.250404
0.249612
0.248822
0.248045
0.247284
0.24654
0.245813
0.245102
0.244405
0.243719
0.243044
0.24238
0.241724
0.241078
0.240441
0.239812
0.239191
0.238575
0.237965
0.237357
0.236752
0.236147
0.235543
0.234939
0.234333
0.233725
0.233115
0.232502
0.231884
0.23126
0.230629
0.229988
0.229334
0.228665
0.227975
0.227258
0.226506
0.225709
0.224854
0.223922
0.222893
0.221736
0.220413
0.218874
0.217058
0.214887
0.212269
0.209102
0.205291
0.200779
0.195573
0.189921
0.183849
0.254492
0.254321
0.253923
0.253345
0.25267
0.251947
0.25119
0.250406
0.249611
0.24882
0.248042
0.24728
0.246536
0.245809
0.245098
0.244401
0.243716
0.243042
0.242377
0.241721
0.241075
0.240438
0.23981
0.239188
0.238573
0.237962
0.237354
0.236748
0.236143
0.235538
0.234931
0.234324
0.233714
0.2331
0.232482
0.231859
0.231228
0.230587
0.229935
0.229266
0.228577
0.227862
0.227113
0.22632
0.225469
0.224546
0.223527
0.222385
0.221083
0.219575
0.217801
0.215684
0.213132
0.210034
0.206273
0.201739
0.196376
0.190225
0.183606
0.176729
0.254552
0.254375
0.253965
0.253372
0.252688
0.25196
0.251198
0.250409
0.24961
0.248816
0.248037
0.247275
0.246531
0.245804
0.245094
0.244398
0.243713
0.243038
0.242374
0.241718
0.241072
0.240435
0.239806
0.239185
0.23857
0.237959
0.237351
0.236744
0.236138
0.235532
0.234924
0.234315
0.233702
0.233085
0.232463
0.231834
0.231196
0.230547
0.229883
0.229199
0.228491
0.227751
0.226971
0.226137
0.225234
0.224244
0.223139
0.221886
0.220442
0.218752
0.216745
0.214331
0.211401
0.207828
0.203472
0.198208
0.191975
0.184844
0.177201
0.169458
0.254626
0.254441
0.254015
0.253405
0.252709
0.251974
0.251207
0.250412
0.249609
0.248813
0.248032
0.247269
0.246525
0.245799
0.245089
0.244393
0.243709
0.243034
0.24237
0.241714
0.241068
0.240431
0.239803
0.239182
0.238566
0.237955
0.237347
0.23674
0.236134
0.235526
0.234917
0.234306
0.233691
0.233071
0.232445
0.23181
0.231166
0.230507
0.229832
0.229134
0.228407
0.227643
0.226831
0.225958
0.225004
0.223948
0.222758
0.221397
0.219815
0.217946
0.21571
0.213004
0.209702
0.205656
0.200706
0.194705
0.187582
0.17943
0.170696
0.162008
0.254713
0.254519
0.254073
0.253443
0.252734
0.251991
0.251217
0.250415
0.249607
0.248808
0.248026
0.247262
0.246517
0.245792
0.245083
0.244388
0.243704
0.24303
0.242365
0.24171
0.241064
0.240427
0.239799
0.239178
0.238563
0.237952
0.237344
0.236736
0.236129
0.235521
0.234911
0.234297
0.23368
0.233057
0.232426
0.231787
0.231136
0.230469
0.229782
0.22907
0.228325
0.227538
0.226696
0.225783
0.22478
0.223659
0.222388
0.220921
0.219203
0.21716
0.214701
0.211708
0.208039
0.203526
0.197982
0.191239
0.183203
0.173984
0.164076
0.154352
0.254815
0.254609
0.254139
0.253486
0.252762
0.252011
0.251228
0.250419
0.249604
0.248802
0.248018
0.247253
0.246509
0.245784
0.245076
0.244382
0.243698
0.243025
0.24236
0.241705
0.241059
0.240422
0.239795
0.239174
0.238559
0.237948
0.23734
0.236733
0.236125
0.235516
0.234904
0.234289
0.233669
0.233043
0.232409
0.231764
0.231106
0.230431
0.229734
0.229008
0.228245
0.227435
0.226564
0.225614
0.224562
0.22338
0.222028
0.220459
0.218609
0.216397
0.21372
0.210447
0.206419
0.201444
0.19531
0.187818
0.178844
0.168508
0.157329
0.146459
0.254932
0.254711
0.254213
0.253532
0.252793
0.252033
0.251241
0.250422
0.249602
0.248796
0.248009
0.247244
0.2465
0.245776
0.245069
0.244375
0.243692
0.243019
0.242355
0.241699
0.241054
0.240417
0.23979
0.23917
0.238555
0.237945
0.237336
0.236729
0.23612
0.23551
0.234897
0.234281
0.233659
0.23303
0.232392
0.231742
0.231078
0.230395
0.229688
0.228948
0.228169
0.227336
0.226437
0.225451
0.224352
0.22311
0.221681
0.220013
0.218035
0.215659
0.212771
0.209227
0.204847
0.199419
0.192698
0.184452
0.174516
0.163006
0.150444
0.138299
0.255065
0.254827
0.254294
0.253583
0.252827
0.252057
0.251254
0.250426
0.249598
0.248788
0.248
0.247233
0.246489
0.245766
0.24506
0.244368
0.243686
0.243013
0.242348
0.241693
0.241048
0.240412
0.239784
0.239165
0.238551
0.237941
0.237333
0.236725
0.236116
0.235505
0.234891
0.234273
0.233649
0.233017
0.232375
0.231721
0.231051
0.230361
0.229643
0.228891
0.228095
0.227242
0.226315
0.225294
0.224151
0.22285
0.221348
0.219584
0.217484
0.21495
0.211858
0.208051
0.20333
0.197458
0.190156
0.181153
0.170229
0.157483
0.143408
0.129838
0.255216
0.254956
0.254382
0.253636
0.252863
0.252083
0.251268
0.250428
0.249594
0.24878
0.247988
0.247221
0.246477
0.245755
0.245051
0.24436
0.243678
0.243006
0.242342
0.241687
0.241041
0.240405
0.239779
0.23916
0.238546
0.237937
0.237329
0.236721
0.236112
0.2355
0.234885
0.234265
0.233639
0.233005
0.23236
0.231701
0.231026
0.230327
0.2296
0.228836
0.228024
0.227151
0.226198
0.225144
0.223958
0.222603
0.221029
0.219175
0.216957
0.214272
0.210985
0.206924
0.201873
0.195568
0.187695
0.177933
0.165996
0.151949
0.136211
0.121039
0.255386
0.255099
0.254477
0.253692
0.252902
0.252111
0.251283
0.250431
0.249588
0.24877
0.247976
0.247207
0.246464
0.245743
0.245041
0.244351
0.243671
0.242998
0.242334
0.241679
0.241034
0.240398
0.239772
0.239154
0.238542
0.237933
0.237325
0.236717
0.236108
0.235496
0.23488
0.234258
0.23363
0.232993
0.232345
0.231682
0.231001
0.230296
0.22956
0.228784
0.227957
0.227065
0.226088
0.225002
0.223775
0.222368
0.220727
0.218786
0.216457
0.213627
0.210154
0.20585
0.200482
0.193758
0.185324
0.174807
0.161832
0.146416
0.128846
0.111865
0.255578
0.255258
0.254577
0.253751
0.252944
0.252142
0.251298
0.250432
0.249582
0.248759
0.247962
0.247192
0.246449
0.24573
0.24503
0.244342
0.243662
0.242991
0.242327
0.241671
0.241026
0.240391
0.239766
0.239148
0.238537
0.237929
0.237322
0.236714
0.236104
0.235491
0.234874
0.234251
0.233621
0.232982
0.232331
0.231664
0.230978
0.230266
0.229522
0.228735
0.227894
0.226984
0.225983
0.224867
0.223603
0.222146
0.220442
0.218419
0.215984
0.213019
0.209369
0.204835
0.199164
0.192036
0.183056
0.171788
0.157756
0.140902
0.121305
0.102278
0.255793
0.255431
0.254682
0.25381
0.252988
0.252174
0.251313
0.250433
0.249574
0.248746
0.247946
0.247175
0.246433
0.245717
0.245018
0.244332
0.243654
0.242982
0.242318
0.241663
0.241018
0.240383
0.239759
0.239142
0.238532
0.237924
0.237318
0.23671
0.236101
0.235487
0.234869
0.234245
0.233613
0.232972
0.232318
0.231648
0.230956
0.230238
0.229486
0.228689
0.227835
0.226908
0.225886
0.224742
0.223441
0.221938
0.220175
0.218075
0.215542
0.212449
0.208633
0.203882
0.197924
0.190411
0.180901
0.168896
0.153791
0.13543
0.113589
0.0922343
0.256035
0.25562
0.254789
0.25387
0.253036
0.252208
0.251327
0.250433
0.249565
0.248732
0.247928
0.247156
0.246416
0.245702
0.245006
0.244321
0.243644
0.242973
0.242309
0.241654
0.241009
0.240375
0.239751
0.239136
0.238526
0.23792
0.237314
0.236707
0.236097
0.235483
0.234864
0.234239
0.233606
0.232962
0.232306
0.231632
0.230936
0.230213
0.229453
0.228647
0.22778
0.226837
0.225795
0.224626
0.223292
0.221746
0.219927
0.217757
0.215132
0.21192
0.207949
0.202996
0.196767
0.18889
0.178874
0.166147
0.14996
0.130028
0.105703
0.0816913
0.256309
0.255825
0.254896
0.25393
0.253086
0.252243
0.251341
0.250431
0.249555
0.248716
0.247909
0.247136
0.246397
0.245686
0.244993
0.24431
0.243635
0.242964
0.2423
0.241644
0.240999
0.240366
0.239743
0.239129
0.238521
0.237916
0.237311
0.236704
0.236094
0.23548
0.23486
0.234234
0.233599
0.232954
0.232295
0.231618
0.230918
0.230189
0.229422
0.228607
0.22773
0.226773
0.225712
0.224519
0.223154
0.221569
0.2197
0.217464
0.214755
0.211434
0.207321
0.202179
0.195701
0.187482
0.176986
0.163562
0.146296
0.124734
0.0976619
0.0706011
0.256618
0.256044
0.255
0.253989
0.253139
0.25228
0.251354
0.250428
0.249543
0.248698
0.247887
0.247113
0.246376
0.245668
0.244979
0.244299
0.243624
0.242954
0.24229
0.241634
0.240989
0.240356
0.239734
0.239122
0.238515
0.237911
0.237307
0.236701
0.236091
0.235476
0.234856
0.234229
0.233593
0.232946
0.232284
0.231605
0.230901
0.230168
0.229395
0.228572
0.227685
0.226714
0.225637
0.224422
0.223029
0.221409
0.219494
0.217199
0.214413
0.210993
0.20675
0.201437
0.194729
0.186196
0.17525
0.161163
0.142832
0.119594
0.0894944
0.0589064
0.25697
0.256277
0.2551
0.254048
0.253195
0.252315
0.251365
0.250424
0.24953
0.248678
0.247863
0.247089
0.246355
0.245651
0.244964
0.244287
0.243614
0.242944
0.242279
0.241623
0.240978
0.240345
0.239725
0.239114
0.238509
0.237907
0.237304
0.236698
0.236088
0.235473
0.234853
0.234225
0.233587
0.232939
0.232275
0.231593
0.230886
0.230148
0.22937
0.22854
0.227644
0.226662
0.225569
0.224335
0.222918
0.221265
0.219309
0.216961
0.214107
0.210598
0.206239
0.200772
0.193857
0.185038
0.173681
0.158972
0.139608
0.114668
0.0812511
0.0465294
0.257373
0.256518
0.25519
0.254111
0.253257
0.252349
0.251371
0.250415
0.249512
0.248653
0.247835
0.247061
0.24633
0.24563
0.244949
0.244275
0.243604
0.242934
0.242269
0.241612
0.240966
0.240335
0.239716
0.239107
0.238504
0.237903
0.237301
0.236695
0.236086
0.235471
0.23485
0.234221
0.233583
0.232933
0.232267
0.231583
0.230873
0.230132
0.229349
0.228512
0.227608
0.226616
0.22551
0.224259
0.22282
0.22114
0.219148
0.216753
0.213839
0.210252
0.20579
0.200188
0.19309
0.184018
0.17229
0.157014
0.13667
0.110026
0.073016
0.0333756
0.257842
0.256757
0.255255
0.254178
0.253336
0.252399
0.251389
0.250416
0.249502
0.248633
0.247809
0.247034
0.246305
0.245609
0.244932
0.244261
0.24359
0.242921
0.242255
0.241598
0.240952
0.240322
0.239704
0.239098
0.238497
0.237898
0.237297
0.236693
0.236083
0.235468
0.234847
0.234217
0.233578
0.232927
0.232261
0.231574
0.230862
0.230117
0.22933
0.228489
0.227577
0.226576
0.22546
0.224194
0.222737
0.221032
0.21901
0.216576
0.21361
0.209956
0.205407
0.19969
0.192435
0.183143
0.171094
0.155315
0.134075
0.105766
0.0649267
0.0193539
0.258399
0.257001
0.255257
0.25418
0.253356
0.252399
0.251372
0.250391
0.249472
0.2486
0.247777
0.247007
0.246284
0.245596
0.244924
0.244256
0.243586
0.242915
0.242247
0.241587
0.240941
0.24031
0.239695
0.23909
0.238491
0.237894
0.237295
0.236691
0.236082
0.235467
0.234845
0.234215
0.233575
0.232923
0.232255
0.231567
0.230853
0.230105
0.229315
0.228469
0.227553
0.226544
0.225418
0.224141
0.222669
0.220945
0.218897
0.216431
0.213424
0.209715
0.205095
0.199283
0.191899
0.182428
0.170113
0.15391
0.131893
0.102016
0.0572144
0.00431774
0.259051
0.257437
0.255497
0.254382
0.253499
0.252472
0.251398
0.250386
0.249441
0.248551
0.247717
0.246945
0.246227
0.245546
0.244883
0.244223
0.243558
0.24289
0.242222
0.241563
0.240917
0.240289
0.239677
0.239077
0.238482
0.237888
0.237291
0.236689
0.23608
0.235465
0.234843
0.234213
0.233572
0.23292
0.232251
0.231562
0.230846
0.230096
0.229303
0.228454
0.227533
0.22652
0.225387
0.2241
0.222616
0.220878
0.21881
0.216319
0.21328
0.20953
0.204855
0.19897
0.191488
0.181878
0.169357
0.152822
0.130186
0.0989275
0.0502302
-0.0121777
0.259203
0.256943
0.255183
0.254352
0.253531
0.252504
0.25144
0.250432
0.249483
0.248586
0.247746
0.24697
0.24625
0.245568
0.244902
0.244238
0.243569
0.242895
0.242224
0.241561
0.240914
0.240286
0.239674
0.239074
0.23848
0.237887
0.23729
0.236688
0.23608
0.235464
0.234842
0.234211
0.233571
0.232917
0.232248
0.231558
0.230841
0.23009
0.229295
0.228444
0.22752
0.226502
0.225364
0.224071
0.222579
0.220829
0.218748
0.21624
0.213177
0.209397
0.204683
0.198746
0.191194
0.181485
0.168817
0.152041
0.128973
0.09662
0.0446189
-0.0304921
0.263142
0.257726
0.255228
0.254354
0.253459
0.252354
0.251251
0.25023
0.249279
0.24839
0.247569
0.24682
0.246134
0.245486
0.244849
0.244205
0.243547
0.242879
0.24221
0.241549
0.240904
0.240278
0.239669
0.239071
0.238479
0.237887
0.237291
0.236688
0.236079
0.235464
0.234842
0.234211
0.23357
0.232916
0.232246
0.231556
0.230839
0.230087
0.229291
0.228439
0.227514
0.226494
0.225354
0.224058
0.222562
0.220808
0.218721
0.216204
0.213132
0.209338
0.204607
0.198646
0.191062
0.181307
0.168572
0.151683
0.128408
0.0955361
0.0415984
-0.0442031
0.462206
0.338687
0.261961
0.233702
0.216016
0.19747
0.18138
0.170266
0.163027
0.158034
0.154411
0.15205
0.15094
0.151123
0.152848
0.156835
0.164302
0.179116
0.17892
0.14877
0.12992
0.121828
0.11555
0.10786
0.09879
0.0880896
0.0742666
0.0546244
0.0249055
-0.0239398
-0.11189
-0.308148
-0.78234
-0.86574
-0.393218
-0.352319
-0.198408
-0.0902743
-0.0227239
0.00458598
0.012371
0.0147224
0.0156627
0.0156627
0.0151209
0.0144228
0.0136517
0.0127349
0.0116361
0.0103774
0.00898041
0.00759716
0.00633547
0.00525336
0.00430106
0.00346743
0.00279072
0.00226925
0.00226291
0.000459378
0.451276
0.331679
0.256557
0.230451
0.213756
0.195569
0.179865
0.169128
0.162259
0.157545
0.154087
0.151853
0.150842
0.151102
0.152879
0.156899
0.164251
0.176263
0.173952
0.146416
0.128525
0.120845
0.114716
0.106998
0.0978464
0.086988
0.0728388
0.0526019
0.0218002
-0.0289401
-0.119988
-0.305395
-0.654758
-0.766392
-0.422345
-0.364504
-0.215345
-0.101041
-0.0296559
0.00106698
0.0106752
0.0137735
0.0150653
0.0152897
0.0148918
0.014286
0.0135863
0.0127445
0.0117149
0.0104875
0.00910971
0.00774657
0.00647767
0.00537007
0.00439515
0.00353827
0.00283992
0.00224332
0.00211589
0.000430193
0.432601
0.32637
0.254588
0.229077
0.212683
0.194754
0.179361
0.168916
0.16219
0.157313
0.153932
0.15176
0.150793
0.15108
0.152858
0.15678
0.163486
0.172927
0.169825
0.14573
0.128394
0.12061
0.114446
0.106694
0.0975066
0.0865831
0.0722958
0.0518103
0.0205783
-0.0306232
-0.120545
-0.286005
-0.556105
-0.668602
-0.433242
-0.363196
-0.224486
-0.108228
-0.0346595
-0.00171157
0.00926011
0.012973
0.0145652
0.0149728
0.0146789
0.0141285
0.0134667
0.0126565
0.0116532
0.0104527
0.00911488
0.00776103
0.00651049
0.00539946
0.00442261
0.00355965
0.00284629
0.00221547
0.00197723
0.000500836
0.412869
0.321002
0.25205
0.226377
0.210394
0.193001
0.178027
0.167849
0.161278
0.156828
0.153608
0.151538
0.150642
0.150966
0.152727
0.156457
0.162428
0.169722
0.165853
0.144276
0.127592
0.119806
0.113735
0.106084
0.0969473
0.0860179
0.0716501
0.0509929
0.0195198
-0.0316466
-0.118468
-0.267253
-0.47629
-0.587873
-0.42957
-0.354555
-0.228702
-0.113964
-0.0396955
-0.00504261
0.00740128
0.0119322
0.0139502
0.0146079
0.0144552
0.0139772
0.0133581
0.0125825
0.0116169
0.0104623
0.00917054
0.0078439
0.00660563
0.00548197
0.0044924
0.00361145
0.00287255
0.00220308
0.00185628
0.00054247
0.394563
0.315166
0.249346
0.223689
0.20828
0.191548
0.177046
0.167222
0.160966
0.156578
0.153373