/*--------------------------------*- C++ -*----------------------------------*\
| =========                 |                                                 |
| \\      /  F ield         | OpenFOAM: The Open Source CFD Toolbox           |
|  \\    /   O peration     | Version:  2.4.0                                 |
|   \\  /    A nd           | Web:      www.OpenFOAM.org                      |
|    \\/     M anipulation  |                                                 |
\*---------------------------------------------------------------------------*/
FoamFile
{
    version     2.0;
    format      ascii;
    class       volScalarField;
    location    "20";
    object      k;
}
// * * * * * * * * * * * * * * * * * * * * * * * * * * * * * * * * * * * * * //

dimensions      [0 2 -2 0 0 0 0];

internalField   nonuniform List<scalar> 
6000
(
0.0139225
0.00624278
0.00203212
0.00236939
0.00277799
0.00280102
0.00260191
0.00235398
0.00208604
0.00182534
0.00157185
0.00135705
0.00122836
0.00120504
0.00124443
0.00130942
0.00135548
0.00139421
0.00142405
0.00145401
0.00147997
0.00150438
0.00152587
0.00154632
0.00156525
0.00158339
0.00160109
0.00161928
0.00163843
0.00165878
0.0016808
0.00170486
0.00173147
0.00176058
0.00179401
0.00183159
0.00187359
0.0019199
0.00197127
0.00202823
0.00209187
0.0021624
0.00224103
0.00232921
0.0024291
0.00254197
0.00266974
0.00281549
0.00298292
0.00317544
0.00339752
0.00365867
0.00396957
0.00434504
0.004801
0.00536595
0.00605423
0.00696541
0.00795526
0.009962
0.0108064
0.00618506
0.00401632
0.00436412
0.00445563
0.00430847
0.00410711
0.00392478
0.00376203
0.00359611
0.00339023
0.0031427
0.00295749
0.00286206
0.0028006
0.002688
0.0025573
0.00243528
0.00232016
0.00221363
0.00211414
0.00202366
0.00194089
0.00186589
0.00179737
0.00173565
0.00167983
0.00162958
0.00158423
0.00154388
0.0015083
0.00147738
0.00145093
0.001429
0.00141155
0.00139828
0.00138903
0.00138385
0.00138292
0.00138631
0.00139433
0.00140732
0.00142562
0.00144918
0.00147843
0.00151389
0.00155659
0.00160705
0.00166648
0.00173644
0.0018188
0.00191531
0.00202879
0.00216312
0.00232533
0.00252081
0.00276444
0.00305022
0.00345005
0.00366266
0.0105289
0.00646853
0.00487806
0.0062168
0.00622068
0.00571868
0.00527377
0.00494196
0.00468425
0.00441345
0.00405652
0.00368127
0.003407
0.00319804
0.00302996
0.00287188
0.0027249
0.00258747
0.00245729
0.002333
0.00221517
0.00210431
0.00200109
0.00190522
0.00181688
0.00173566
0.00166136
0.00159327
0.00153124
0.00147479
0.00142382
0.00137781
0.00133671
0.00130015
0.00126805
0.00123997
0.00121591
0.00119566
0.00117936
0.00116682
0.00115829
0.00115377
0.0011535
0.00115732
0.0011655
0.00117819
0.00119598
0.0012191
0.00124822
0.00128401
0.00132763
0.00137973
0.00144143
0.00151423
0.00160126
0.00170499
0.00183246
0.0019808
0.0021908
0.00232036
0.0106749
0.00669498
0.00542597
0.00757572
0.0077231
0.00675021
0.00596886
0.00544844
0.00506852
0.0046783
0.00421554
0.00380164
0.00348553
0.00323031
0.00302166
0.00284166
0.00268164
0.00253373
0.00239533
0.00226407
0.00214084
0.00202522
0.00191798
0.00181848
0.00172711
0.00164308
0.00156632
0.00149598
0.00143201
0.00137376
0.00132109
0.00127337
0.00123054
0.0011921
0.00115794
0.00112762
0.00110114
0.00107826
0.00105907
0.00104334
0.00103124
0.00102271
0.00101791
0.00101674
0.00101942
0.00102606
0.00103706
0.00105266
0.00107332
0.00109957
0.0011322
0.00117193
0.00121947
0.001276
0.00134323
0.0014236
0.00152055
0.00163674
0.00179298
0.00195758
0.0107847
0.00685543
0.00576478
0.0083445
0.00886727
0.00746643
0.00629641
0.00555253
0.00501966
0.00452099
0.00402848
0.00361724
0.00329489
0.00303029
0.00281322
0.00262918
0.0024683
0.0023217
0.00218695
0.00206122
0.0019451
0.00183747
0.00173874
0.00164784
0.00156496
0.0014891
0.0014201
0.00135707
0.00129993
0.001248
0.00120112
0.00115871
0.00112066
0.00108651
0.00105616
0.00102923
0.00100572
0.000985421
0.000968389
0.000954467
0.00094378
0.000936283
0.000932131
0.000931303
0.000934005
0.000940371
0.000950748
0.000965414
0.00098482
0.00100948
0.00104011
0.00107752
0.00112247
0.00117621
0.00124025
0.00131729
0.00141025
0.00152347
0.00167597
0.00186427
0.0108484
0.00696794
0.00593423
0.00854893
0.0094566
0.00787817
0.00633843
0.00535454
0.0046748
0.00411625
0.00363161
0.00324732
0.00294592
0.00269841
0.00249537
0.00232409
0.00217605
0.00204328
0.00192343
0.00181351
0.00171345
0.00162184
0.00153858
0.00146249
0.00139343
0.00133046
0.00127329
0.00122115
0.0011739
0.00113097
0.00109221
0.00105713
0.00102566
0.000997436
0.000972377
0.000950212
0.000930954
0.000914452
0.000900769
0.000889817
0.000881717
0.000876471
0.000874242
0.000875079
0.0008792
0.000886779
0.000898156
0.000913657
0.000933761
0.000959003
0.000990137
0.00102803
0.00107361
0.00112825
0.00119367
0.0012727
0.00136892
0.00148635
0.0016487
0.00184958
0.0108836
0.00704481
0.00597189
0.00831184
0.0094125
0.00795202
0.00617349
0.00498881
0.00420818
0.00362757
0.00317536
0.00283325
0.00256891
0.00235336
0.00217668
0.00202785
0.00190014
0.00178711
0.00168648
0.00159543
0.00151334
0.00143876
0.00137129
0.00130985
0.00125412
0.00120329
0.00115707
0.00111485
0.00107647
0.00104151
0.00100984
0.000981128
0.000955307
0.000932137
0.000911576
0.000893451
0.00087779
0.000864509
0.000853678
0.000845272
0.000839416
0.00083616
0.000835675
0.000838069
0.00084357
0.000852387
0.000864873
0.000881392
0.000902458
0.000928631
0.000960725
0.000999648
0.0010465
0.00110275
0.0011704
0.00125235
0.00135299
0.00147548
0.00164888
0.00185614
0.0108999
0.00709513
0.00591746
0.00778779
0.00886441
0.00765721
0.00586169
0.00456993
0.00373986
0.00317019
0.00276392
0.00247001
0.00224738
0.00206733
0.00191951
0.00179466
0.0016876
0.00159349
0.0015103
0.00143559
0.00136849
0.0013077
0.0012527
0.00120258
0.00115697
0.00111524
0.00107711
0.00104214
0.00101019
0.000980944
0.000954324
0.000930105
0.000908252
0.000888614
0.000871181
0.000855856
0.000842682
0.000831623
0.00082276
0.000816113
0.000811809
0.000809933
0.000810668
0.000814154
0.000820632
0.000830336
0.000843631
0.000860915
0.000882722
0.000909636
0.000942531
0.000982346
0.00103031
0.00108796
0.00115758
0.00124204
0.00134648
0.00147314
0.00165531
0.00186544
0.0109036
0.00712641
0.00580776
0.00712457
0.00800795
0.00706716
0.00544027
0.00415542
0.00333004
0.00279458
0.00243829
0.00219096
0.00200708
0.00185908
0.00173676
0.00163255
0.00154257
0.0014634
0.0013934
0.00133061
0.00127417
0.00122298
0.00117651
0.00113401
0.00109515
0.00105942
0.00102659
0.000996325
0.000968514
0.000942937
0.000919537
0.000898165
0.000878817
0.000861396
0.000845921
0.000832341
0.000820712
0.00081103
0.000803386
0.000797824
0.000794478
0.000793453
0.000794937
0.000799094
0.00080617
0.000816416
0.000830208
0.000847964
0.000870234
0.000897619
0.000931039
0.000971461
0.00102021
0.00107886
0.0011499
0.00123618
0.0013434
0.00147301
0.0016611
0.00187212
0.0108995
0.00714452
0.00567271
0.00643749
0.00703481
0.00630129
0.00494123
0.0037631
0.00299022
0.002504
0.00219639
0.00199041
0.00183947
0.00171784
0.00161595
0.00152779
0.0014506
0.0013821
0.00132115
0.00126628
0.00121676
0.00117167
0.00113055
0.00109279
0.00105808
0.00102602
0.000996414
0.000968992
0.000943677
0.000920295
0.000898817
0.000879139
0.000861272
0.000845158
0.000830832
0.000818271
0.000807542
0.000798661
0.000791722
0.000786787
0.000783992
0.000783456
0.000785368
0.000789905
0.000797315
0.00080786
0.000821923
0.000839938
0.000862458
0.000890101
0.000923814
0.000964589
0.00101381
0.0010731
0.00114505
0.00123252
0.00134156
0.00147306
0.00166464
0.00187537
0.0108909
0.00715386
0.00553396
0.0058016
0.00609052
0.00548547
0.00440274
0.00339374
0.00270829
0.00228073
0.00201896
0.00184872
0.00172511
0.0016246
0.00153861
0.00146251
0.00139455
0.0013334
0.00127842
0.00122858
0.00118332
0.00114192
0.00110399
0.00106902
0.00103675
0.00100683
0.000979088
0.000953311
0.000929433
0.000907312
0.000886935
0.000868221
0.000851196
0.000835821
0.000822142
0.000810152
0.000799926
0.000791489
0.000784942
0.000780354
0.000777864
0.000777596
0.000779743
0.000784486
0.000792076
0.000802776
0.000816978
0.00083512
0.000857763
0.000885529
0.000919379
0.000960335
0.00100981
0.00106945
0.00114194
0.00123011
0.00134023
0.00147281
0.0016661
0.00187593
0.0108799
0.00715767
0.00540536
0.00525612
0.00526191
0.00472057
0.00386865
0.00304938
0.00246887
0.00210438
0.00188548
0.00174636
0.00164568
0.0015623
0.00148882
0.00142191
0.00136071
0.00130468
0.00125365
0.00120698
0.00116432
0.00112511
0.00108904
0.00105568
0.00102479
0.000996079
0.000969396
0.000944543
0.000921472
0.000900058
0.000880296
0.000862119
0.000845561
0.000830594
0.000817271
0.000805594
0.000795641
0.000787446
0.000781111
0.00077671
0.000774386
0.000774264
0.000776539
0.000781394
0.000789079
0.00079986
0.000814132
0.000832336
0.000855034
0.000882852
0.000916754
0.000957787
0.00100738
0.00106719
0.00113996
0.00122849
0.00133919
0.0014723
0.00166615
0.00187472
0.0108676
0.00715839
0.0052945
0.00481371
0.00458461
0.00406694
0.00339061
0.00273905
0.00226272
0.00196027
0.00178088
0.00166908
0.00158797
0.00151886
0.00145556
0.0013959
0.00133984
0.00128752
0.00123921
0.00119461
0.00115358
0.00111568
0.0010807
0.00104825
0.00101815
0.000990111
0.000964019
0.000939683
0.000917063
0.000896043
0.000876624
0.000858746
0.000842447
0.000827705
0.000814577
0.000803071
0.000793266
0.000785201
0.000778981
0.000774683
0.000772449
0.000772409
0.000774757
0.000779677
0.000787416
0.000798244
0.000812555
0.000830792
0.000853515
0.000881352
0.000915264
0.000956322
0.00100596
0.00106584
0.00113873
0.00122741
0.00133836
0.00147166
0.00166535
0.0018725
0.0108548
0.00715777
0.00520434
0.00447054
0.00405952
0.0035453
0.00298816
0.00247035
0.00208596
0.00183989
0.00169583
0.00160794
0.00154374
0.00148679
0.00143203
0.00137831
0.00132636
0.00127688
0.00123055
0.00118738
0.00114739
0.00111031
0.00107597
0.00104405
0.0010144
0.000986746
0.000960988
0.000936945
0.000914581
0.000893786
0.000874563
0.000856856
0.000840705
0.000826092
0.000813075
0.000801664
0.000791942
0.00078395
0.000777794
0.000773553
0.000771373
0.000771382
0.000773774
0.000778735
0.00078651
0.000797369
0.000811707
0.000829968
0.000852704
0.000880546
0.000914453
0.000955511
0.00100516
0.00106505
0.00113796
0.00122667
0.00133768
0.00147096
0.00166411
0.00186973
0.0108422
0.00715701
0.00513484
0.00421418
0.00366878
0.00314974
0.0026671
0.00224753
0.00193722
0.00173882
0.00162507
0.00155777
0.0015082
0.00146176
0.00141435
0.00136568
0.00131713
0.00126993
0.00122512
0.00118298
0.00114371
0.00110715
0.0010732
0.0010416
0.0010122
0.000984767
0.0009592
0.000935326
0.000913112
0.000892451
0.000873347
0.000855743
0.000839683
0.000825148
0.000812199
0.000800847
0.000791176
0.000783227
0.000777111
0.000772906
0.000770759
0.000770801
0.000773226
0.000778217
0.000786019
0.000796903
0.000811264
0.000829547
0.000852292
0.000880134
0.000914031
0.000955081
0.00100471
0.0010646
0.00113748
0.00122615
0.0013371
0.00147024
0.00166264
0.00186671
0.01083
0.00715686
0.00508416
0.0040292
0.00338771
0.00286156
0.00242433
0.00207055
0.00181518
0.00165447
0.0015656
0.00151561
0.00147861
0.00144132
0.00140034
0.00135606
0.00131044
0.00126515
0.00122156
0.0011802
0.00114145
0.00110523
0.00107152
0.00104009
0.00101084
0.000983528
0.00095807
0.000934294
0.000912171
0.000891593
0.000872565
0.000855029
0.00083903
0.000824548
0.000811646
0.000800333
0.000790696
0.000782778
0.000776689
0.000772509
0.000770388
0.000770455
0.000772905
0.00077792
0.000785746
0.000796653
0.000811036
0.000829338
0.000852092
0.000879934
0.000913819
0.000954857
0.00100447
0.00106433
0.00113716
0.00122575
0.00133659
0.00146953
0.00166109
0.00186358
0.0108184
0.00715772
0.00504961
0.00390036
0.0031916
0.00265831
0.00224749
0.00193495
0.00171764
0.00158494
0.00151552
0.00147969
0.00145337
0.00142407
0.00138878
0.0013484
0.00130536
0.00126172
0.00121916
0.00117842
0.00114004
0.00110404
0.00107048
0.00103914
0.00100996
0.000982706
0.000957304
0.000933582
0.000911512
0.000890987
0.000872009
0.000854521
0.000838565
0.000824123
0.000811256
0.000799973
0.000790363
0.000782468
0.000776401
0.000772242
0.000770141
0.00077023
0.000772702
0.00077774
0.000785588
0.000796518
0.000810922
0.000829242
0.000852003
0.000879846
0.00091372
0.000954745
0.00100434
0.00106416
0.00113693
0.00122542
0.00133611
0.00146883
0.0016595
0.00186044
0.0108077
0.00715971
0.00502827
0.00381426
0.003059
0.00251923
0.00212281
0.00183444
0.0016417
0.00152846
0.00147347
0.00144883
0.00143146
0.00140913
0.00137893
0.00134208
0.00130136
0.0012592
0.00121752
0.00117729
0.00113919
0.00110334
0.00106985
0.00103854
0.00100938
0.000982144
0.00095676
0.000933061
0.000911018
0.000890525
0.000871581
0.000854126
0.000838203
0.000823791
0.000810952
0.000799694
0.000790105
0.000782231
0.000776182
0.000772041
0.000769959
0.000770067
0.00077256
0.000777618
0.000785486
0.000796438
0.000810863
0.0008292
0.00085197
0.000879813
0.000913677
0.000954689
0.00100426
0.00106404
0.00113675
0.00122514
0.00133567
0.00146814
0.00165794
0.00185733
0.0107978
0.00716283
0.00501737
0.00375984
0.00297267
0.00242714
0.00203795
0.00176251
0.0015842
0.00148336
0.00143834
0.00142219
0.00141219
0.00139592
0.00137032
0.0013367
0.00129812
0.0012573
0.00121642
0.00117662
0.00113874
0.00110298
0.00106951
0.0010382
0.00100902
0.000981765
0.000956371
0.000932672
0.000910638
0.000890158
0.000871234
0.000853802
0.000837903
0.000823516
0.000810699
0.000799461
0.000789892
0.000782034
0.000776002
0.000771877
0.000769813
0.00076994
0.000772452
0.00077753
0.000785417
0.00079639
0.000810835
0.000829189
0.000851967
0.00087981
0.000913665
0.000954664
0.00100422
0.00106395
0.00113659
0.00122489
0.00133524
0.00146746
0.0016564
0.00185428
0.0107888
0.00716694
0.00501442
0.0037284
0.00291939
0.00236873
0.00198259
0.00171294
0.00154189
0.00144792
0.00140913
0.00139911
0.00139506
0.00138407
0.00136262
0.001332
0.00129543
0.00125587
0.00121571
0.0011763
0.00113858
0.00110288
0.0010694
0.00103805
0.00100882
0.000981529
0.000956106
0.000932387
0.000910344
0.000889866
0.000870951
0.000853532
0.00083765
0.00082328
0.000810481
0.000799261
0.000789707
0.000781864
0.000775847
0.000771737
0.000769689
0.000769833
0.000772363
0.00077746
0.000785365
0.000796358
0.000810821
0.000829191
0.000851977
0.000879822
0.000913667
0.000954653
0.00100418
0.00106388
0.00113646
0.00122465
0.00133483
0.00146679
0.00165492
0.0018513
0.0107806
0.0071719
0.00501737
0.00371329
0.00288934
0.00233406
0.00194836
0.00168012
0.00151159
0.00142047
0.00138494
0.00137901
0.00137968
0.00137326
0.00135561
0.00132781
0.00129315
0.00125478
0.0012153
0.00117624
0.00113867
0.00110299
0.00106947
0.00103806
0.00100877
0.000981414
0.000955943
0.00093219
0.000910126
0.000889637
0.000870721
0.000853308
0.000837436
0.000823078
0.000810293
0.000799086
0.000789546
0.000781716
0.000775712
0.000771616
0.000769583
0.000769743
0.000772291
0.000777405
0.000785328
0.000796339
0.00081082
0.000829205
0.000851998
0.000879843
0.000913679
0.000954652
0.00100416
0.00106382
0.00113633
0.00122443
0.00133444
0.00146614
0.00165347
0.00184841
0.0107732
0.00717751
0.00502453
0.00370957
0.00287535
0.00231593
0.00192907
0.00165973
0.00149068
0.00139953
0.00136493
0.00136144
0.00136577
0.00136332
0.00134915
0.00132399
0.00129116
0.00125394
0.00121512
0.00117639
0.00113894
0.00110326
0.00106969
0.0010382
0.00100883
0.000981401
0.000955869
0.000932069
0.000909973
0.000889465
0.000870539
0.000853124
0.000837256
0.000822907
0.000810132
0.000798935
0.000789405
0.000781586
0.000775593
0.00077151
0.00076949
0.000769667
0.000772231
0.000777361
0.0007853
0.000796328
0.000810826
0.000829224
0.000852023
0.000879869
0.000913695
0.000954654
0.00100414
0.00106376
0.00113621
0.00122422
0.00133406
0.00146551
0.00165208
0.0018456
0.0107665
0.0071836
0.00503461
0.00371359
0.00287231
0.00230916
0.00192025
0.00164892
0.00147711
0.00138381
0.00134838
0.00134599
0.00135308
0.00135407
0.00134311
0.00132048
0.00128941
0.00125331
0.00121512
0.0011767
0.00113935
0.00110367
0.00107004
0.00103846
0.00100899
0.000981476
0.000955872
0.000932016
0.000909878
0.000889343
0.0008704
0.000852979
0.00083711
0.000822764
0.000809995
0.000798806
0.000789284
0.000781474
0.000775491
0.000771419
0.000769413
0.000769604
0.000772183
0.00077733
0.000785284
0.000796328
0.000810842
0.000829251
0.000852055
0.0008799
0.000913716
0.00095466
0.00100412
0.00106371
0.0011361
0.00122402
0.00133369
0.0014649
0.00165072
0.00184288
0.0107605
0.00719002
0.00504659
0.00372277
0.00287661
0.00231008
0.00191864
0.00164482
0.00146892
0.00137213
0.00133464
0.00133234
0.00134145
0.00134543
0.00133743
0.0013172
0.00128784
0.00125283
0.00121526
0.00117714
0.00113989
0.00110419
0.00107048
0.0010388
0.00100923
0.000981625
0.000955941
0.000932022
0.000909836
0.000889266
0.000870302
0.000852867
0.000836993
0.000822648
0.000809882
0.000798697
0.000789181
0.000781378
0.000775404
0.000771342
0.000769348
0.000769553
0.000772146
0.000777307
0.000785275
0.000796334
0.000810862
0.000829281
0.00085209
0.000879933
0.000913739
0.000954666
0.0010041
0.00106365
0.00113599
0.00122382
0.00133334
0.00146431
0.00164942
0.00184024
0.010755
0.00719663
0.00505974
0.00373524
0.00288571
0.00231613
0.00192188
0.00164494
0.00146447
0.00136351
0.00132319
0.00132023
0.00133076
0.00133732
0.00133205
0.00131412
0.00128642
0.00125248
0.00121552
0.00117768
0.00114053
0.00110481
0.00107101
0.00103923
0.00100955
0.00098184
0.000956069
0.000932079
0.000909839
0.00088923
0.000870239
0.000852788
0.000836905
0.000822556
0.00080979
0.000798609
0.000789097
0.000781299
0.000775332
0.00077128
0.000769297
0.000769515
0.000772122
0.000777296
0.000785278
0.000796351
0.000810891
0.000829319
0.00085213
0.000879971
0.000913766
0.000954676
0.00100408
0.0010636
0.00113589
0.00122363
0.001333
0.00146373
0.00164815
0.0018377
0.0107501
0.00720332
0.0050735
0.00374971
0.00289784
0.00232553
0.00192837
0.00164809
0.00146286
0.00135737
0.00131371
0.00130949
0.00132092
0.00132969
0.00132695
0.00131121
0.00128512
0.00125222
0.00121586
0.00117831
0.00114125
0.0011055
0.00107162
0.00103972
0.00100992
0.000982109
0.000956247
0.000932183
0.000909884
0.000889231
0.000870209
0.000852738
0.000836843
0.000822488
0.00080972
0.000798539
0.00078903
0.000781236
0.000775275
0.000771231
0.000769259
0.000769488
0.000772108
0.000777294
0.000785289
0.000796374
0.000810924
0.00082936
0.000852172
0.00088001
0.000913794
0.000954687
0.00100406
0.00106356
0.00113579
0.00122345
0.00133267
0.00146318
0.00164693
0.00183523
0.0107457
0.00720999
0.00508748
0.00376527
0.00291179
0.00233703
0.00193703
0.00165351
0.00146348
0.00135325
0.00130591
0.00129998
0.00131186
0.00132251
0.00132209
0.00130844
0.00128391
0.00125205
0.00121628
0.00117901
0.00114203
0.00110625
0.00107228
0.00104027
0.00101035
0.000982427
0.00095647
0.000932327
0.000909966
0.000889266
0.00087021
0.000852716
0.000836806
0.000822442
0.00080967
0.000798488
0.00078898
0.000781189
0.000775233
0.000771197
0.000769234
0.000769475
0.000772106
0.000777303
0.00078531
0.000796407
0.000810966
0.000829407
0.00085222
0.000880053
0.000913825
0.000954701
0.00100405
0.00106351
0.00113569
0.00122327
0.00133235
0.00146264
0.00164574
0.00183285
0.0107417
0.00721658
0.0051014
0.00378131
0.00292674
0.00234977
0.00194709
0.00166041
0.00146578
0.00135082
0.00129958
0.00129158
0.00130351
0.00131573
0.00131745
0.00130578
0.00128278
0.00125193
0.00121675
0.00117976
0.00114287
0.00110706
0.00107299
0.00104086
0.00101082
0.000982787
0.000956731
0.000932506
0.00091008
0.000889331
0.000870238
0.000852718
0.000836792
0.000822418
0.00080964
0.000798454
0.000788945
0.000781156
0.000775204
0.000771175
0.000769221
0.000769472
0.000772114
0.000777321
0.000785338
0.000796445
0.000811012
0.000829456
0.000852269
0.000880097
0.000913858
0.000954716
0.00100404
0.00106346
0.00113559
0.00122311
0.00133205
0.00146212
0.0016446
0.00183055
0.0107381
0.00722303
0.00511507
0.0037974
0.00294211
0.00236319
0.001958
0.00166837
0.00146937
0.00134976
0.00129452
0.00128417
0.00129582
0.00130933
0.00131299
0.00130322
0.0012817
0.00125185
0.00121725
0.00118056
0.00114375
0.0011079
0.00107374
0.00104149
0.00101133
0.000983184
0.000957027
0.000932718
0.000910225
0.000889423
0.000870291
0.000852744
0.000836799
0.000822413
0.000809628
0.000798438
0.000788928
0.000781139
0.000775191
0.000771167
0.000769222
0.000769482
0.000772133
0.000777349
0.000785376
0.000796492
0.000811065
0.000829512
0.000852322
0.000880144
0.000913894
0.000954734
0.00100402
0.00106342
0.0011355
0.00122295
0.00133177
0.00146163
0.0016435
0.00182834
0.0107348
0.0072293
0.00512835
0.00381326
0.00295753
0.00237686
0.00196937
0.00167701
0.00147391
0.0013498
0.00129054
0.00127764
0.00128872
0.00130326
0.0013087
0.00130073
0.00128066
0.00125179
0.00121778
0.00118137
0.00114465
0.00110878
0.00107453
0.00104216
0.00101188
0.000983611
0.000957353
0.000932958
0.000910396
0.00088954
0.000870369
0.000852792
0.000836827
0.000822427
0.000809633
0.000798438
0.000788925
0.000781136
0.00077519
0.000771172
0.000769234
0.000769503
0.000772162
0.000777386
0.000785421
0.000796544
0.000811122
0.000829569
0.000852377
0.000880192
0.000913929
0.000954751
0.00100401
0.00106337
0.00113541
0.00122279
0.00133149
0.00146115
0.00164245
0.00182621
0.0107319
0.00723535
0.00514116
0.00382872
0.00297273
0.00239051
0.00198091
0.00168602
0.00147909
0.0013507
0.00128747
0.00127189
0.00128216
0.00129749
0.00130454
0.00129829
0.00127962
0.00125174
0.00121832
0.0011822
0.00114558
0.00110968
0.00107534
0.00104286
0.00101245
0.000984066
0.000957704
0.000933223
0.000910591
0.00088968
0.000870467
0.000852861
0.000836874
0.00082246
0.000809656
0.000798455
0.000788938
0.000781149
0.000775205
0.000771191
0.00076926
0.000769536
0.000772202
0.000777433
0.000785475
0.000796605
0.000811185
0.000829631
0.000852434
0.000880242
0.000913967
0.000954769
0.001004
0.00106333
0.00113531
0.00122264
0.00133122
0.00146068
0.00164143
0.00182417
0.0107292
0.00724116
0.00515345
0.00384364
0.00298756
0.00240395
0.00199241
0.00169522
0.00148477
0.00135232
0.00128521
0.00126685
0.00127609
0.00129199
0.0013005
0.00129589
0.00127859
0.00125168
0.00121885
0.00118304
0.00114652
0.0011106
0.00107617
0.00104357
0.00101304
0.000984543
0.000958078
0.00093351
0.000910807
0.00088984
0.000870585
0.000852947
0.000836939
0.000822509
0.000809695
0.000798486
0.000788965
0.000781174
0.000775232
0.000771223
0.000769297
0.00076958
0.000772252
0.000777487
0.000785534
0.000796669
0.000811251
0.000829693
0.000852492
0.000880291
0.000914003
0.000954787
0.00100398
0.00106328
0.00113522
0.00122249
0.00133096
0.00146024
0.00164047
0.00182221
0.0107268
0.00724672
0.00516518
0.00385797
0.0030019
0.00241707
0.00200376
0.00170447
0.00149081
0.00135454
0.00128364
0.00126242
0.00127045
0.00128672
0.00129655
0.00129349
0.00127753
0.00125159
0.00121936
0.00118386
0.00114745
0.00111152
0.00107702
0.0010443
0.00101365
0.000985039
0.000958472
0.000933816
0.000911042
0.000890019
0.000870721
0.000853051
0.00083702
0.000822575
0.000809749
0.000798533
0.000789007
0.000781215
0.000775274
0.000771268
0.000769348
0.000769636
0.000772312
0.000777551
0.000785603
0.000796741
0.000811322
0.00082976
0.000852551
0.000880342
0.00091404
0.000954804
0.00100397
0.00106323
0.00113513
0.00122234
0.00133071
0.00145981
0.00163954
0.00182034
0.0107245
0.00725201
0.00517633
0.00387166
0.0030157
0.00242978
0.00201487
0.00171367
0.00149715
0.00135725
0.00128266
0.00125855
0.00126521
0.00128167
0.00129267
0.00129108
0.00127644
0.00125146
0.00121984
0.00118467
0.00114838
0.00111245
0.00107787
0.00104505
0.00101428
0.000985551
0.000958881
0.000934139
0.000911293
0.000890214
0.000870872
0.000853171
0.000837116
0.000822655
0.000809817
0.000798593
0.000789062
0.000781268
0.000775327
0.000771325
0.000769408
0.0007697
0.00077238
0.000777622
0.000785676
0.000796816
0.000811394
0.000829827
0.00085261
0.000880391
0.000914075
0.000954818
0.00100396
0.00106318
0.00113504
0.00122219
0.00133047
0.00145939
0.00163866
0.00181854
0.0107225
0.00725704
0.00518691
0.00388469
0.0030289
0.00244203
0.00202567
0.00172273
0.00150374
0.00136033
0.00128216
0.00125514
0.00126031
0.0012768
0.00128884
0.00128865
0.00127529
0.00125128
0.00122028
0.00118545
0.0011493
0.00111337
0.00107872
0.0010458
0.00101491
0.000986075
0.000959304
0.000934475
0.000911558
0.000890423
0.000871038
0.000853305
0.000837227
0.000822748
0.000809899
0.000798666
0.00078913
0.000781334
0.000775394
0.000771394
0.000769481
0.000769776
0.000772458
0.000777701
0.000785758
0.000796897
0.000811471
0.000829896
0.00085267
0.000880439
0.000914109
0.000954832
0.00100394
0.00106313
0.00113494
0.00122205
0.00133023
0.001459
0.00163782
0.00181684
0.0107206
0.00726179
0.00519692
0.00389706
0.0030415
0.00245379
0.00203613
0.00173159
0.00151039
0.00136368
0.00128207
0.00125217
0.00125574
0.00127209
0.00128505
0.00128618
0.00127408
0.00125104
0.00122067
0.00118619
0.00115019
0.00111429
0.00107958
0.00104655
0.00101556
0.000986609
0.000959738
0.000934824
0.000911836
0.000890644
0.000871216
0.000853451
0.00083735
0.000822854
0.000809993
0.000798751
0.000789209
0.00078141
0.000775471
0.000771472
0.000769562
0.000769859
0.000772542
0.000777785
0.000785843
0.00079698
0.000811549
0.000829964
0.000852727
0.000880485
0.000914141
0.000954841
0.00100393
0.00106308
0.00113485
0.00122191
0.00133
0.00145862
0.00163703
0.00181521
0.0107189
0.00726627
0.00520637
0.00390876
0.00305348
0.00246504
0.00204621
0.00174023
0.001517
0.00136723
0.00128233
0.00124957
0.00125145
0.00126753
0.00128127
0.00128366
0.0012728
0.00125073
0.00122101
0.0011869
0.00115106
0.00111518
0.00108042
0.00104731
0.00101621
0.00098715
0.000960182
0.000935183
0.000912125
0.000890878
0.000871406
0.000853609
0.000837485
0.000822972
0.000810098
0.000798848
0.0007893
0.000781499
0.000775559
0.000771562
0.000769654
0.000769952
0.000772634
0.000777877
0.000785935
0.000797069
0.000811629
0.000830033
0.000852784
0.000880529
0.00091417
0.000954848
0.0010039
0.00106302
0.00113476
0.00122176
0.00132977
0.00145826
0.00163627
0.00181367
0.0107173
0.00727049
0.00521526
0.00391982
0.00306485
0.00247577
0.00205589
0.00174862
0.0015236
0.00137098
0.00128293
0.00124734
0.00124743
0.00126309
0.0012775
0.00128108
0.00127143
0.00125033
0.00122128
0.00118755
0.0011519
0.00111607
0.00108126
0.00104806
0.00101686
0.000987698
0.000960633
0.000935551
0.000912423
0.000891121
0.000871607
0.000853777
0.00083763
0.0008231
0.000810213
0.000798954
0.000789401
0.000781596
0.000775656
0.000771659
0.000769752
0.00077005
0.00077273
0.000777972
0.000786028
0.000797157
0.000811708
0.0008301
0.000852838
0.00088057
0.000914194
0.000954851
0.00100388
0.00106297
0.00113466
0.00122162
0.00132956
0.00145792
0.00163557
0.00181222
0.0107158
0.00727445
0.00522363
0.00393025
0.00307562
0.00248599
0.00206517
0.00175673
0.00153013
0.00137485
0.00128379
0.00124539
0.00124363
0.00125875
0.00127373
0.00127843
0.00126997
0.00124985
0.00122148
0.00118816
0.0011527
0.00111692
0.00108209
0.00104881
0.00101751
0.000988248
0.00096109
0.000935926
0.00091273
0.000891373
0.000871817
0.000853956
0.000837785
0.000823238
0.000810338
0.00079907
0.000789511
0.000781704
0.000775762
0.000771766
0.000769858
0.000770155
0.000772833
0.000778073
0.000786127
0.000797249
0.000811789
0.000830167
0.00085289
0.000880608
0.000914216
0.000954851
0.00100385
0.00106291
0.00113456
0.00122148
0.00132935
0.00145759
0.00163491
0.00181085
0.0107144
0.00727815
0.00523148
0.00394006
0.00308579
0.00249569
0.00207403
0.00176454
0.00153651
0.00137879
0.00128484
0.00124369
0.00124002
0.0012545
0.00126994
0.0012757
0.00126841
0.00124928
0.00122161
0.00118871
0.00115347
0.00111776
0.0010829
0.00104956
0.00101816
0.000988801
0.000961551
0.000936307
0.000913044
0.000891633
0.000872035
0.000854143
0.000837949
0.000823384
0.000810472
0.000799195
0.00078963
0.000781818
0.000775875
0.000771878
0.00076997
0.000770264
0.000772938
0.000778175
0.000786225
0.000797339
0.000811867
0.00083023
0.000852938
0.000880643
0.000914234
0.000954848
0.00100382
0.00106285
0.00113446
0.00122134
0.00132914
0.00145729
0.0016343
0.00180956
0.0107131
0.0072816
0.00523883
0.00394928
0.00309539
0.00250488
0.00208247
0.00177203
0.00154271
0.00138271
0.00128602
0.00124217
0.00123656
0.00125031
0.00126612
0.00127289
0.00126676
0.00124861
0.00122165
0.00118921
0.00115419
0.00111857
0.0010837
0.00105029
0.00101881
0.000989354
0.000962015
0.000936692
0.000913364
0.0008919
0.000872261
0.000854339
0.000838122
0.00082354
0.000810615
0.000799328
0.000789757
0.000781942
0.000775997
0.000771999
0.000770088
0.000770379
0.000773048
0.000778283
0.000786326
0.00079743
0.000811944
0.000830291
0.000852984
0.000880676
0.00091425
0.000954843
0.00100379
0.00106279
0.00113437
0.0012212
0.00132895
0.001457
0.00163373
0.00180837
0.0107119
0.00728482
0.00524571
0.00395793
0.00310442
0.00251356
0.00209048
0.00177918
0.00154868
0.00138657
0.00128728
0.0012408
0.00123323
0.00124617
0.00126228
0.00127
0.00126499
0.00124785
0.00122162
0.00118964
0.00115487
0.00111934
0.00108448
0.00105101
0.00101945
0.000989906
0.000962481
0.000937082
0.000913689
0.000892173
0.000872494
0.000854542
0.000838302
0.000823704
0.000810766
0.000799469
0.000789891
0.000782072
0.000776125
0.000772125
0.000770211
0.000770497
0.00077316
0.000778391
0.000786427
0.000797519
0.000812018
0.000830347
0.000853026
0.000880705
0.000914263
0.000954834
0.00100376
0.00106273
0.00113427
0.00122107
0.00132876
0.00145673
0.00163322
0.00180725
0.0107108
0.0072878
0.00525213
0.00396603
0.0031129
0.00252175
0.00209806
0.00178598
0.0015544
0.00139032
0.00128857
0.00123954
0.00123001
0.00124208
0.00125839
0.00126702
0.00126312
0.00124698
0.00122149
0.00119
0.00115551
0.00112009
0.00108523
0.00105172
0.00102008
0.000990456
0.000962947
0.000937474
0.000914019
0.000892452
0.000872734
0.000854752
0.000838491
0.000823875
0.000810924
0.000799619
0.000790034
0.000782211
0.000776261
0.000772259
0.000770341
0.000770621
0.000773278
0.000778503
0.00078653
0.000797609
0.000812091
0.000830401
0.000853064
0.000880731
0.000914275
0.000954824
0.00100372
0.00106267
0.00113417
0.00122093
0.00132858
0.00145649
0.00163275
0.00180624
0.0107098
0.00729057
0.00525812
0.00397361
0.00312086
0.00252946
0.00210523
0.00179243