/*--------------------------------*- C++ -*----------------------------------*\
| =========                 |                                                 |
| \\      /  F ield         | OpenFOAM: The Open Source CFD Toolbox           |
|  \\    /   O peration     | Version:  2.4.0                                 |
|   \\  /    A nd           | Web:      www.OpenFOAM.org                      |
|    \\/     M anipulation  |                                                 |
\*---------------------------------------------------------------------------*/
FoamFile
{
    version     2.0;
    format      ascii;
    class       volScalarField;
    location    "2.1";
    object      epsilon;
}
// * * * * * * * * * * * * * * * * * * * * * * * * * * * * * * * * * * * * * //

dimensions      [0 2 -3 0 0 0 0];

internalField   nonuniform List<scalar> 
6000
(
1.43555
0.15398
0.00812719
0.00917026
0.00601428
0.00566139
0.00363985
0.00300646
0.00245425
0.00655367
0.0119229
0.0134527
0.0126802
0.00992517
0.00594996
0.0117781
0.0301853
0.054568
0.0774397
0.0927068
0.0982703
0.0966698
0.085813
0.0699237
0.0518885
0.0381586
0.0277738
0.0204899
0.0137577
0.00744852
0.00461293
0.00225695
0.0014772
0.00230318
0.00332327
0.00529013
0.00653221
0.00876343
0.0100943
0.0123966
0.0139763
0.0166377
0.0187542
0.022209
0.0251818
0.0299608
0.0343016
0.0412704
0.0478299
0.0584574
0.0687022
0.085677
0.102393
0.131261
0.160103
0.213302
0.26768
0.377819
0.491531
0.805716
0.543542
0.160355
0.0125226
0.00253874
0.00191631
0.00162996
0.00130025
0.00129786
0.00175878
0.00351082
0.00416255
0.00357958
0.003389
0.00448173
0.00797889
0.0136914
0.0187711
0.0209291
0.0211125
0.0200969
0.0178608
0.014813
0.0114144
0.00847379
0.00665167
0.00533899
0.00439097
0.00358698
0.00267067
0.00172868
0.0012914
0.000900562
0.000747379
0.000801482
0.000902963
0.0010999
0.0012934
0.00155162
0.00179711
0.00211737
0.00245367
0.00285757
0.00331595
0.00385501
0.00450054
0.00525421
0.00618827
0.00727053
0.00865797
0.0102603
0.012401
0.0148676
0.0183236
0.0223062
0.0282986
0.035142
0.0465359
0.0601206
0.083928
0.117814
0.392307
0.154345
0.0246241
0.00261878
0.00144511
0.00108185
0.000933074
0.0010568
0.00175583
0.00342789
0.00446195
0.00393755
0.00418512
0.00720319
0.0106769
0.011238
0.0094727
0.00826824
0.00717112
0.00609636
0.00516329
0.00442577
0.00386443
0.00347809
0.00325573
0.00307505
0.00290044
0.00277169
0.00230889
0.00158891
0.00129907
0.000898057
0.000693486
0.000569571
0.000509543
0.00049239
0.000506304
0.000534807
0.000579472
0.000634465
0.000703675
0.000782952
0.00088129
0.000994562
0.00113929
0.00130811
0.00152451
0.00177638
0.00210111
0.00248191
0.00298064
0.00356826
0.00435194
0.00527653
0.00655853
0.00807229
0.0103264
0.0130266
0.0174386
0.0224162
0.350165
0.155726
0.0379511
0.00484363
0.00168061
0.00108883
0.000899582
0.000993401
0.00166971
0.00325889
0.00503451
0.00509904
0.00636479
0.00966293
0.00964281
0.00701632
0.00533018
0.00447646
0.00378144
0.00333069
0.0030755
0.00296065
0.00293962
0.00299698
0.00305494
0.00310284
0.00313686
0.00314467
0.00274891
0.00196488
0.00163758
0.00108996
0.000773884
0.000562914
0.000450833
0.000380159
0.000347479
0.000330442
0.000330694
0.00033539
0.00034751
0.000362935
0.000384852
0.000411935
0.000448208
0.000491725
0.000548715
0.000617085
0.000706036
0.00081325
0.000952878
0.00112119
0.00133993
0.00160171
0.00194622
0.00235605
0.00291766
0.00357556
0.00455759
0.00543903
0.339224
0.156775
0.048725
0.00915942
0.00234752
0.00130511
0.000998473
0.000993525
0.0014797
0.00273007
0.00511178
0.00602756
0.00826301
0.00944202
0.00698866
0.00458121
0.00362662
0.00318648
0.00285811
0.0027093
0.0026744
0.0027948
0.00297255
0.003172
0.00335108
0.00352025
0.00363101
0.0036697
0.0032751
0.002451
0.00207595
0.00138206
0.000949309
0.000646705
0.000472352
0.000370892
0.000317302
0.000283243
0.000266278
0.000256454
0.000253503
0.000254114
0.000257994
0.000263938
0.000273083
0.000285361
0.000302619
0.000324328
0.000353275
0.000389184
0.000436316
0.000494193
0.000569203
0.00065995
0.000777276
0.000917326
0.00110232
0.00131555
0.0016157
0.001913
0.336091
0.156458
0.0573616
0.0145958
0.00353763
0.00170433
0.00119413
0.00106873
0.00131072
0.00204759
0.00448034
0.00638895
0.00853793
0.00781815
0.00477046
0.00336157
0.00295495
0.00277136
0.00263967
0.0026041
0.00269395
0.00292839
0.0032119
0.00346595
0.003709
0.00394205
0.00407548
0.00410366
0.00369876
0.00292171
0.00252963
0.00173389
0.00120084
0.000797565
0.000549037
0.000403136
0.000322791
0.000277127
0.000251153
0.000235034
0.000225246
0.00022026
0.000217304
0.000217029
0.000218246
0.000221107
0.000225995
0.0002332
0.000243713
0.000257563
0.000276209
0.000299749
0.000331047
0.000368817
0.000419336
0.000478567
0.000560009
0.000650661
0.000781026
0.000959058
0.334967
0.155419
0.0640957
0.0204399
0.00542606
0.00231308
0.00149971
0.00122757
0.00125366
0.00154304
0.0033557
0.00587989
0.00750215
0.00548724
0.00342151
0.00280385
0.00274087
0.00268735
0.00264738
0.00266751
0.00286053
0.00318574
0.00350943
0.00378654
0.00406183
0.00431876
0.00445472
0.00442894
0.00400163
0.00329697
0.00291787
0.00207947
0.00149656
0.00100104
0.000671407
0.000469229
0.000353532
0.000289046
0.00025225
0.000231579
0.000218098
0.00021052
0.000204419
0.000201527
0.00019884
0.000198431
0.000199071
0.000201151
0.000204933
0.00021066
0.000218923
0.000229996
0.000245812
0.000264534
0.000292403
0.000323421
0.000371981
0.000421992
0.000501398
0.000648176
0.33446
0.153578
0.0691068
0.026174
0.00809851
0.00318748
0.00193791
0.00147482
0.00132759
0.00132123
0.00223609
0.00453844
0.00544638
0.00380995
0.002744
0.00259864
0.00271446
0.00271812
0.00272616
0.00285398
0.00313858
0.00350044
0.00385875
0.0041607
0.00444981
0.00470184
0.00483212
0.00471018
0.00423489
0.00357118
0.00319483
0.00235483
0.0017846
0.00123003
0.000831823
0.000566255
0.000406591
0.000316095
0.000264543
0.000236129
0.00021841
0.000208903
0.000201189
0.00019718
0.000192696
0.000190985
0.000188946
0.000189247
0.000190284
0.000192514
0.000196215
0.000201799
0.000210285
0.000221073
0.000238586
0.000258028
0.000291656
0.000326022
0.000385417
0.000518663
0.334221
0.151599
0.0726682
0.0315203
0.011427
0.00439946
0.00252635
0.00183424
0.00152501
0.00128447
0.00155288
0.00312902
0.00373622
0.00281298
0.0023832
0.00259195
0.00275358
0.00281323
0.00290436
0.00313469
0.0034929
0.00391629
0.00432133
0.00465469
0.00494181
0.00516004
0.00527369
0.00503108
0.0044877
0.00380129
0.00337543
0.00253623
0.00201785
0.00144705
0.00101202
0.000688373
0.000481973
0.000357832
0.000286902
0.000247209
0.000223618
0.000210806
0.000201356
0.000196598
0.000191321
0.000189218
0.000185975
0.000185284
0.000184783
0.000185654
0.000187276
0.000190157
0.000194909
0.000201988
0.000214395
0.000228433
0.000255387
0.000282397
0.000333573
0.000459717
0.334161
0.149705
0.0750203
0.0362884
0.0151784
0.00603021
0.00329085
0.00231214
0.00185306
0.00141085
0.00129017
0.00214437
0.00261375
0.00229124
0.00226923
0.00263116
0.00285693
0.00298024
0.00315881
0.00350423
0.00397728
0.00449982
0.00497232
0.00533917
0.00559454
0.00574676
0.00581506
0.00543466
0.00482348
0.0040571
0.00351118
0.00264655
0.00217648
0.00162081
0.00118708
0.000822561
0.000576372
0.00041431
0.000320298
0.000264789
0.000232907
0.000215213
0.000203536
0.000197635
0.000191661
0.000189247
0.000185579
0.000184536
0.000183126
0.000183524
0.000184056
0.000185537
0.000188443
0.00019361
0.000203039
0.000214347
0.000237253
0.000260703
0.00030748
0.000429224
0.334206
0.147928
0.0764077
0.0403581
0.0191275
0.00811633
0.00426614
0.00291874
0.00230012
0.00167446
0.00125457
0.0015932
0.00200586
0.00200239
0.00229394
0.00273027
0.0030125
0.00319929
0.00350094
0.00401527
0.00466534
0.00532626
0.00588559
0.00625304
0.00644843
0.00651519
0.00646582
0.00592291
0.00524175
0.00437969
0.00365363
0.00272856
0.00227148
0.00173802
0.00133518
0.000952058
0.000681392
0.000483296
0.000365041
0.00028974
0.000246819
0.00022202
0.000207125
0.000199465
0.000192787
0.000190082
0.000186237
0.000184969
0.000183003
0.000183223
0.000183168
0.000184088
0.000186124
0.000190144
0.000197782
0.000207574
0.000228207
0.000249625
0.000293932
0.000412382
0.334338
0.146359
0.0769415
0.0436571
0.0230756
0.0106348
0.00549027
0.00366815
0.00285507
0.00207583
0.00138724
0.00135878
0.0017329
0.0019554
0.0023791
0.00287592
0.00320172
0.00348236
0.00396966
0.00473654
0.00563498
0.00647066
0.00708006
0.0074284
0.00757838
0.00747408
0.00724265
0.0064956
0.0057011
0.00476745
0.00383366
0.00282365
0.00232933
0.00180344
0.00144488
0.00106264
0.000785324
0.000559577
0.000419147
0.000322333
0.000266184
0.000231859
0.000212349
0.00020193
0.000194255
0.000191059
0.000187168
0.000185866
0.000183555
0.000183652
0.00018332
0.000183984
0.000185563
0.000188929
0.000195508
0.000204441
0.000223732
0.000243928
0.00028666
0.000402378
0.334574
0.145064
0.0768561
0.0461553
0.0268362
0.0135109
0.0070029
0.00457765
0.00352349
0.00260469
0.00163231
0.00136618
0.0016707
0.00200345
0.00252507
0.00304857
0.00342862
0.00385047
0.00461294
0.00573414
0.00694751
0.00797406
0.00860034
0.00890794
0.00896349
0.00862788
0.00817772
0.00717489
0.00617708
0.00518649
0.00405714
0.00295392
0.00237841
0.00183561
0.00151256
0.00114663
0.000877113
0.000635734
0.000478344
0.000361397
0.000291287
0.000245456
0.000219772
0.000205303
0.000196072
0.000192028
0.000188066
0.00018677
0.000184298
0.000184341
0.000184004
0.000184485
0.00018571
0.000188675
0.000194686
0.000203132
0.000221615
0.00024104
0.000282667
0.000395992
0.334868
0.144033
0.0765218
0.0479195
0.0302507
0.0166423
0.0088214
0.00566734
0.00431544
0.00324503
0.00199311
0.0015279
0.00172194
0.00213912
0.0026928
0.00324865
0.00370228
0.00432985
0.00547575
0.00705496
0.00864857
0.00982997
0.0104672
0.0107301
0.0105624
0.00997925
0.00927645
0.00798656
0.00669055
0.0055965
0.00431746
0.00311911
0.00244098
0.00185493
0.00154218
0.00120315
0.000949714
0.000704265
0.000537152
0.000404162
0.000321283
0.000263126
0.000229978
0.000210037
0.000198468
0.000193051
0.00018887
0.000187527
0.000185015
0.000185047
0.000184841
0.000185143
0.000186136
0.000188876
0.00019455
0.000202709
0.000220703
0.000239627
0.000280423
0.00039159
0.335196
0.143292
0.0758283
0.0489549
0.0331787
0.0199051
0.0109427
0.00695864
0.00524449
0.00399863
0.00246397
0.00180191
0.0018815
0.00233471
0.00287881
0.00347851
0.00403494
0.00494692
0.00658754
0.00871006
0.0107245
0.0120529
0.0126916
0.0128627
0.0123728
0.0115007
0.0105209
0.00892941
0.00728194
0.00598047
0.00460446
0.00330587
0.00252588
0.00187652
0.00155218
0.0012326
0.00100113
0.000760058
0.000590247
0.000446807
0.000354115
0.000284401
0.000243242
0.000216591
0.000201774
0.000194295
0.000189632
0.00018811
0.000185621
0.000185669
0.000185636
0.000185781
0.000186658
0.000189278
0.000194716
0.000202683
0.000220379
0.000238968
0.00027911
0.000388298
0.335543
0.14282
0.0749708
0.0493624
0.0355401
0.0231653
0.0133429
0.00847
0.0063263
0.00487497
0.003044
0.00214866
0.00212877
0.00254501
0.00308598
0.00374135
0.00443985
0.00572309
0.00795692
0.0106793
0.0131256
0.0146138
0.0152832
0.0152682
0.0143948
0.0131625
0.0118782
0.00997205
0.00796818
0.00635871
0.00489944
0.00350295
0.00262892
0.00191032
0.00155536
0.00124258
0.00103229
0.000801318
0.000634019
0.00048556
0.000386892
0.000307875
0.000259242
0.00022522
0.000206327
0.00019598
0.000190459
0.000188545
0.000186092
0.000186167
0.000186303
0.000186362
0.000187183
0.000189718
0.000194989
0.000202821
0.000220323
0.000238672
0.000278277
0.000385641
0.335885
0.142637
0.0740738
0.0492756
0.0372604
0.0262895
0.0159814
0.0102133
0.00757707
0.00588531
0.00374452
0.00254454
0.00241571
0.00276627
0.00331738
0.00404084
0.00492897
0.00667055
0.00957285
0.0129243
0.0158009
0.017473
0.0182001
0.0179158
0.0166147
0.0149411
0.0133153
0.0110738
0.00872907
0.0067665
0.0051793
0.00370482
0.00273965
0.00195904
0.00155828
0.00124361
0.00104501
0.000828909
0.000667208
0.000517807
0.000416707
0.000331458
0.000276934
0.000235771
0.000212322
0.00019833
0.000191489
0.000188883
0.000186435
0.00018653
0.000186812
0.000186872
0.000187662
0.00019012
0.000195264
0.000202998
0.000220364
0.000238532
0.000277679
0.000383345
0.33621
0.142692
0.0732
0.0489345
0.0383855
0.0291301
0.0188019
0.0121916
0.00901183
0.00704589
0.00457362
0.00299252
0.00273002
0.00300111
0.00357527
0.00438059
0.00551078
0.00778984
0.0114087
0.0153968
0.0186959
0.020572
0.0213659
0.0207939
0.0190132
0.0168187
0.0148078
0.0122056
0.00952665
0.00721674
0.00543225
0.00390723
0.00284704
0.00201987
0.00156591
0.00123904
0.00104691
0.000844224
0.000690405
0.000542591
0.00044151
0.000353002
0.000294763
0.000247602
0.000219687
0.000201506
0.000192874
0.000189193
0.000186665
0.000186762
0.000187173
0.000187285
0.000188065
0.000190458
0.000195491
0.000203148
0.000220413
0.000238434
0.000277174
0.000381253
0.336506
0.142892
0.0724155
0.0482222
0.0389276
0.031558
0.0217259
0.0143968
0.0106425
0.00837415
0.00554429
0.00350492
0.00306824
0.00325387
0.00386102
0.00476353
0.00618883
0.00906997
0.0134272
0.0180438
0.0217536
0.0238441
0.0247094
0.0238683
0.0215677
0.0187805
0.0163387
0.0133562
0.0103289
0.00769002
0.00566477
0.00410205
0.00294476
0.00208672
0.00158259
0.00123094
0.00104175
0.000849189
0.000705113
0.000560341
0.000460515
0.000370952
0.000311117
0.000259702
0.00022802
0.000205525
0.000194733
0.000189556
0.000186801
0.000186846
0.000187381
0.000187589
0.000188383
0.00019072
0.000195649
0.000203234
0.000220423
0.000238316
0.000276684
0.00037927
0.336762
0.143306
0.0717703
0.0473051
0.0388614
0.0334543
0.0246495
0.0168107
0.0124757
0.00988731
0.00667233
0.00410074
0.00343198
0.00352886
0.00417524
0.00519143
0.00696123
0.0104906
0.015586
0.0208118
0.024918
0.0272231
0.0281615
0.0270895
0.0242509
0.020812
0.0178943
0.0145241
0.0111182
0.008155
0.00589014
0.00427663
0.00303286
0.00215235
0.00160907
0.00122618
0.00103062
0.000847996
0.000712136
0.00057215
0.000474005
0.000384659
0.000324793
0.000270967
0.000236652
0.000210215
0.000197103
0.000190058
0.000186894
0.000186809
0.000187449
0.000187768
0.000188605
0.0001909
0.000195729
0.000203253
0.000220371
0.000238146
0.000276164
0.000377337
0.336972
0.143855
0.0713054
0.04627
0.0385088
0.034796
0.0274549
0.0194026
0.0145109
0.0116009
0.00797475
0.004804
0.00382603
0.00382987
0.00451791
0.00566444
0.00782099
0.0120254
0.0178417
0.0236496
0.0281358
0.0306464
0.0316563
0.0304007
0.0270297
0.0228963
0.0194597
0.0157073
0.011888
0.00858925
0.00611312
0.00441894
0.00311467
0.00221154
0.00164217
0.00122703
0.0010169
0.000841079
0.000713395
0.000579211
0.000482925
0.000394296
0.000335211
0.000280506
0.000244816
0.000215226
0.000199915
0.000190749
0.000186994
0.000186651
0.0001874
0.000187821
0.000188714
0.000190988
0.000195742
0.000203196
0.000220238
0.000237903
0.000275589
0.000375418
0.337133
0.14451
0.0710014
0.0451906
0.0377382
0.0354292
0.0300271
0.0221302
0.0167383
0.0135265
0.0094686
0.00564261
0.00425639
0.00416086
0.00488836
0.00618093
0.00875693
0.013645
0.0201529
0.0265105
0.031358
0.0340577
0.0351327
0.0337422
0.029866
0.0250139
0.0210182
0.0168967
0.0126353
0.00898472
0.00632524
0.00452438
0.00319177
0.0022623
0.00167736
0.00123408
0.00100362
0.000829702
0.000710324
0.000582059
0.000488366
0.000400589
0.000342426
0.000287819
0.000251839
0.000220102
0.000202987
0.000191639
0.000187122
0.000186381
0.00018722
0.000187759
0.000188732
0.000191004
0.000195683
0.00020306
0.000220019
0.000237579
0.000274944
0.000373492
0.337247
0.14523
0.0709614
0.0441465
0.0366803
0.0353624
0.0321026
0.0249504
0.0191378
0.0156684
0.0111705
0.00664286
0.00473768
0.00452402
0.00528528
0.00673733
0.00975469
0.0153194
0.0224817
0.0293532
0.0345408
0.0374075
0.0385361
0.0370566
0.032719
0.0271424
0.0225513
0.0180747
0.0133572
0.00934399
0.00651272
0.00459805
0.00326129
0.00230478
0.00170984
0.0012472
0.000992885
0.000815785
0.000703008
0.000581932
0.000490955
0.000404377
0.000346915
0.000292857
0.000257273
0.000224389
0.00020605
0.000192683
0.000187302
0.000186016
0.000186911
0.000187565
0.000188638
0.000190928
0.000195548
0.000202846
0.000219714
0.00023717
0.000274222
0.000371545
0.337313
0.145989
0.0710495
0.0431807
0.0354393
0.0349383
0.0335047
0.0277841
0.021674
0.0180194
0.0130968
0.00782959
0.00529005
0.00492179
0.00570675
0.00732806
0.0107977
0.0170197
0.0247951
0.0321421
0.0376465
0.0406539
0.0418188
0.0402904
0.0355474
0.0292571
0.0240408
0.0192186
0.0140496
0.00967352
0.00666536
0.00464891
0.00331116
0.00233999
0.00173533
0.00126438
0.000986879
0.000801302
0.000692298
0.000579027
0.000491458
0.000406279
0.000349099
0.000295496
0.000260904
0.000227759
0.000208812
0.000193782
0.000187529
0.00018557
0.000186477
0.000187229
0.000188415
0.00019075
0.000195341
0.000202557
0.000219324
0.000236675
0.00027342
0.000369568
0.337331
0.14676
0.0712888
0.042328
0.0341047
0.0340185
0.0341981
0.0303573
0.024293
0.0205545
0.0152651
0.0092204
0.005942
0.00535903
0.00615035
0.00794558
0.0118678
0.0187186
0.027064
0.0348475
0.0406434
0.0437631
0.0449412
0.0433965
0.0383112
0.0313324
0.0254704
0.0203038
0.0147071
0.0099793
0.00678078
0.00467785
0.00333265
0.00236901
0.00174978
0.00128254
0.000986107
0.000788034
0.000679316
0.000573419
0.000490307
0.000406888
0.000349904
0.000296481
0.000262574
0.000229882
0.000211008
0.000194798
0.000187767
0.000185049
0.000185921
0.00018674
0.000188055
0.000190458
0.000195064
0.000202198
0.000218851
0.000236094
0.000272535
0.000367556
0.337322
0.147514
0.0717265
0.0416203
0.0327501
0.0328197
0.0341926
0.0322766
0.026944
0.0232228
0.0176879
0.0108366
0.00671917
0.00584798
0.00661133
0.00858021
0.0129459
0.0203906
0.0292636
0.0374446
0.043506
0.0467092
0.0478711
0.0463345
0.0409738
0.0333428
0.0268269
0.0213081
0.0153217
0.0102624
0.00686205
0.0046899
0.00333911
0.00239165
0.00175626
0.00129966
0.000989172
0.000777166
0.000665266
0.000565531
0.000487381
0.00040662
0.000349976
0.000296665
0.000263014
0.000230695
0.000212347
0.000195525
0.000187927
0.000184443
0.000185236
0.000186092
0.000187552
0.000190044
0.000194711
0.000201771
0.0002183
0.000235431
0.000271568
0.000365504
0.337292
0.148235
0.0722951
0.0410756
0.0314272
0.0314645
0.0338169
0.0335366
0.0294767
0.0259413
0.0203639
0.0127043
0.00764661
0.00639695
0.00709317
0.00921896
0.0140117
0.0220117
0.0313723
0.0399126
0.046214
0.0494735
0.0505839
0.049071
0.0435032
0.0352636
0.0281
0.0222143
0.0158844
0.0105171
0.00690756
0.00468905
0.00332836
0.00240122
0.00175875
0.00131465
0.000995591
0.000769235
0.000651275
0.000555887
0.000482791
0.000405465
0.000349391
0.000296206
0.000262723
0.000230774
0.000212805
0.000195806
0.000187947
0.000183732
0.000184411
0.000185281
0.000186898
0.000189502
0.000194282
0.000201277
0.000217677
0.000234687
0.000270521
0.000363412
0.337235
0.148901
0.0729815
0.0406948
0.0301669
0.0299991
0.0328557
0.0343703
0.0316285
0.0285963
0.0232695
0.0148509
0.00875223
0.00701511
0.00760214
0.00985155
0.0150423
0.0235593
0.0333712
0.0422338
0.0487523
0.052044
0.053062
0.0515791
0.0458727
0.0370721
0.0292823
0.0230117
0.0163837
0.0107315
0.00692652
0.00466219
0.00328692
0.00240259
0.00175963
0.00132246
0.0010034
0.000765401
0.000638366
0.000545042
0.0004767
0.000403448
0.000348297
0.000295232
0.000261641
0.000230163
0.000212714
0.000195763
0.000187757
0.000182889
0.000183435
0.000184308
0.000186085
0.000188824
0.000193768
0.000200715
0.000216987
0.00023387
0.000269396
0.000361277
0.337168
0.149501
0.0737535
0.0404939
0.0290071
0.0284618
0.0312794
0.0346974
0.0332891
0.0310611
0.0263451
0.0173071
0.0100675
0.00771397
0.00814739
0.0104682
0.0160158
0.0250105
0.0352437
0.0443926
0.0511098
0.0544132
0.0552946
0.0538381
0.0480606
0.0387481
0.0303674
0.0236967
0.0168101
0.010892
0.00692336
0.00461805
0.00323352
0.00238973
0.00175723
0.00132456
0.00101067
0.000765323
0.000627406
0.000533579
0.000469287
0.000400585
0.000346861
0.000294106
0.000260163
0.000228953
0.000211972
0.000195225
0.000187266
0.000181885
0.000182303
0.000183169
0.000185114
0.000187997
0.000193163
0.000200078
0.000216238
0.000232986
0.0002682
0.000359099
0.337101
0.150023
0.0745773
0.0405155
0.0279839
0.0268936
0.0293656
0.0344928
0.0344062
0.0332455
0.0294529
0.020114
0.011627
0.00850789
0.00874073
0.0110628
0.0169113
0.026343
0.0369739
0.0463766
0.0532775
0.056576
0.0572764
0.0558333
0.0500499
0.0402748
0.0313501
0.024269
0.0171563
0.0109792
0.00687965
0.00454805
0.00317213
0.00235861
0.00175258
0.0013237
0.00101617
0.000768171
0.000618841
0.000522096
0.0004608
0.000396882
0.000345123
0.000293034
0.000258627
0.000227471
0.000210663
0.000194185
0.000186396
0.000180688
0.00018101
0.000181858
0.000183982
0.000187006
0.000192455
0.000199362
0.000215436
0.000232045
0.000266942
0.000356882
0.337042
0.150465
0.0754304
0.0406467
0.0271219
0.0253376
0.0274549
0.0336629
0.0351361
0.0350338
0.0324177
0.0232532
0.0134639
0.00941558
0.00939459
0.0116346
0.0177091
0.0275358
0.0385458
0.0481767
0.0552491
0.0585267
0.0590078
0.0575549
0.0518271
0.0416385
0.0322273
0.0247313
0.017416
0.0110139
0.0068074
0.00445698
0.00309962
0.0023157
0.0017443
0.00131897
0.00101782
0.000773131
0.000612737
0.000511272
0.000451543
0.000392267
0.000343004
0.000292119
0.000257287
0.000225958
0.000209
0.000192725
0.000185141
0.000179281
0.000179543
0.000180381
0.000182692
0.000185842
0.000191633
0.000198559
0.000214587
0.000231056
0.000265631
0.000354632
0.336999
0.150825
0.0762772
0.0409479
0.0264336
0.0238317
0.0255652
0.0319815
0.0352391
0.0365186
0.035071
0.0266483
0.0156051
0.0104659
0.0101048
0.0121971
0.018393
0.028572
0.03994
0.0497833
0.0570218
0.0602583
0.0604936
0.059002
0.0533785
0.042827
0.0329951
0.0250881
0.017571
0.0110057
0.0067036
0.00434203
0.00301629
0.00226346
0.00173006
0.00131293
0.00101672
0.000778854
0.000609521
0.000501948
0.00044183
0.00038662
0.000340323
0.000291371
0.000256308
0.000224616
0.000207194
0.000190982
0.00018356
0.000177673
0.0001779
0.000178744
0.000181248
0.0001845
0.000190685
0.000197658
0.000213692
0.000230024
0.00026428
0.000352356
0.336982
0.151103
0.0770934
0.0413968
0.0259537
0.0224321
0.0237435
0.0297593
0.0348665
0.0376181
0.0373759
0.0301747
0.0180741
0.0116872
0.010876
0.0127634
0.0189523
0.0294391
0.0411345
0.051185
0.0585866
0.0617682
0.0617502
0.0601829
0.0546825
0.0438311
0.0336485
0.0253454
0.0176355
0.0109195
0.00657326
0.00420635
0.00292299
0.00220416
0.00170885
0.00130695
0.00101284
0.000783543
0.00060914
0.00049496
0.000432077
0.00037997
0.000336919
0.000290538
0.000255633
0.000223543
0.000205439
0.000189116
0.000181755
0.000175896
0.000176098
0.000176956
0.000179654
0.000182995
0.000189583
0.000196643
0.000212749
0.000228956
0.000262898
0.000350067
0.336992
0.15132
0.0778517
0.0419742
0.0256303
0.0211471
0.022018
0.027168
0.0338686
0.0381566
0.039383
0.0336051
0.0209137
0.0131129
0.0117167
0.0133478
0.0193827
0.0301299
0.0421055
0.0523683
0.0599346
0.0630526
0.0627948
0.0611073
0.0557238
0.0446456
0.0341826
0.0255023
0.0176427
0.010792
0.00642132
0.00405418
0.00282001
0.00213882
0.00168157
0.00130014
0.00100799
0.000785278
0.000610395
0.000490456
0.000422929
0.000372647
0.000332787
0.000289388
0.000255064
0.000222698
0.000203833
0.00018726
0.00017984
0.000174
0.000174171
0.000175036
0.000177909
0.000181351
0.000188306
0.000195491
0.00021175
0.000227849
0.000261494
0.000347778
0.337021
0.151479
0.078537
0.0426302
0.0255618
0.0200294
0.0204279
0.0243484
0.0321148
0.0380364
0.0410384
0.0367417
0.0241559
0.0147814
0.0126389
0.0139664
0.0196889
0.0306365
0.0428339
0.0533172
0.0610559
0.0641086
0.0636345
0.0617899
0.0564948
0.0452673
0.0345932
0.0255739
0.0175263
0.0106132
0.00625143
0.00389054
0.00270809
0.00206829
0.00164954
0.00129113
0.00100361
0.000785121
0.00061245
0.000488264
0.000415062
0.000365208
0.000328156
0.000287796
0.000254382
0.000221945
0.000202354
0.000185468
0.0001779
0.000172037
0.000172163
0.000173016
0.000176028
0.000179561
0.000186861
0.000194193
0.000210677
0.000226695
0.000260069
0.000345504
0.337082
0.151596
0.0791308
0.0433479
0.0256281
0.0190423
0.0190405
0.0218919
0.0295039
0.0373299
0.042245
0.0394958
0.0277155
0.0167294
0.0136575
0.0146371
0.0198983
0.0309368
0.0433074
0.0540137
0.0619395
0.0649322
0.0642711
0.0622451
0.0569917
0.0456903
0.0348746
0.0255898
0.0173271
0.0103863
0.00606321
0.00372084
0.00258858
0.00199382
0.00161351
0.0012797
0.000999707
0.000783565
0.000614291
0.000487839
0.000408983
0.000358223
0.000323283
0.000285733
0.00025343
0.000221164
0.000200962
0.000183757
0.000175989
0.000170051
0.000170117
0.000170931
0.000174028
0.000177638
0.000185252
0.000192741
0.000209511
0.000225482
0.000258622
0.000343257
0.337171
0.151686
0.0796244
0.0441011
0.0258223
0.0182759
0.0176585
0.0197463
0.0264196
0.0357869
0.0428774
0.0417812
0.0314767
0.0189862
0.0147901
0.0153794
0.0200632
0.0309946
0.0435161
0.0544405
0.0625733
0.0655182
0.0647019
0.062479
0.057212
0.0458968
0.0350115
0.0255152
0.0170581
0.0101122
0.00585171
0.00355024
0.00246436
0.00191656
0.00157401
0.00126623
0.000995595
0.000781598
0.000615172
0.000488285
0.000404792
0.000352101
0.000318297
0.000283246
0.000252184
0.000220318
0.000199648
0.000182145
0.000174144
0.000168075
0.000168064
0.000168818
0.000171934
0.000175602
0.000183486
0.000191134
0.000208233
0.000224195
0.000257145
0.000341044
0.33728
0.151767
0.0800135
0.0448504
0.0261941
0.0177818
0.0163838
0.0178412
0.0231553
0.0334151
0.042773
0.0436186
0.0352399
0.0215704
0.0160593
0.0162112
0.0202178
0.030875
0.0434703
0.0545817
0.0629447
0.0658596
0.0649211
0.0625103
0.0572018
0.0459324
0.0350417
0.0253646
0.0167296
0.00979819
0.005611
0.00338137
0.00233922
0.00183765
0.00153186
0.00125089
0.000990918
0.00077967
0.000615343
0.000489024
0.000402169
0.000346966
0.000313312
0.000280422
0.000250697
0.000219426
0.000198427
0.000180651
0.000172395
0.000166142
0.000166023
0.000166708
0.000169771
0.000173473
0.000181578
0.000189378
0.000206831
0.000222818
0.000255626
0.000338869
0.337405
0.151856
0.0802923
0.0455649
0.0266757
0.01747
0.0152391
0.0161511
0.0202682
0.0300923
0.041939
0.0451029
0.0386863
0.0245287
0.0175088
0.017116
0.0204085
0.0305524
0.0432205
0.0544628
0.0630413
0.0659487
0.0649209
0.0623371
0.0569408
0.0457762
0.034936
0.0251395
0.0163481
0.0094518
0.00534085
0.00321248
0.00221644
0.00175846
0.00148792
0.00123371
0.000985703
0.000777648
0.000615135
0.000489678
0.000400734
0.000342849
0.000308501
0.000277338
0.00024899
0.000218495
0.000197317
0.000179302
0.000170771
0.000164283
0.000164013
0.000164624
0.000167564
0.000171273
0.000179545
0.000187484
0.000205295
0.000221339
0.000254052
0.000336727
0.337537
0.151969
0.0804855
0.0462254
0.0272164
0.0174585
0.0143052
0.0147079
0.0177277
0.0261447
0.0400464
0.0460445
0.0415713
0.0279182
0.0191916
0.0180715
0.0206752
0.0300266
0.0426986
0.0540747
0.0628844
0.0657981
0.0647024
0.0619574
0.0564337
0.0454303
0.0346866
0.0248372
0.0159144
0.00907558
0.00505041
0.00303905
0.00209708
0.00168032
0.00144298
0.0012149
0.000979914
0.000775466
0.00061471
0.000489997
0.000400234
0.000339767
0.000304058
0.000274103
0.00024708
0.000217506
0.000196301
0.000178099
0.000169286
0.000162529
0.000162049
0.000162583
0.000165342
0.000169025
0.000177403
0.000185467
0.000203625
0.00021975
0.000252409
0.000334612
0.337666
0.152119
0.0805981
0.0468129
0.0278158
0.0175453
0.0135063
0.0135282
0.0155458
0.0222077
0.0368823
0.0462324
0.0438122
0.0315955
0.0211446
0.019092
0.0210347
0.0293588
0.0419491
0.0533691
0.0624424
0.0653811
0.0642378
0.0613659
0.0556887
0.0449043
0.0343013
0.0244536
0.0154264
0.00866855
0.00475048
0.00285801
0.00198006
0.00160398
0.00139771
0.00119472
0.000973488
0.000773145
0.000614164
0.000490024
0.000400283
0.000337644
0.000300127
0.000270867
0.000245037
0.000216444
0.000195335
0.000177013
0.00016792
0.000160896
0.000160149
0.000160599
0.000163132
0.000166757
0.000175178
0.000183346
0.000201825
0.000218045
0.000250687
0.00033251
0.337786
0.152303
0.0806514
0.0473
0.028445
0.0177687
0.012972
0.0124355
0.0137325
0.0188403
0.0325596
0.0456817
0.0453779
0.0353664
0.0233912
0.0201976
0.0215018
0.028594
0.0409922
0.0523851
0.06169
0.0646818
0.0635242
0.0605601
0.0547178
0.0442022
0.0337885
0.0239835
0.0148801
0.00823198
0.00444469
0.00267137
0.00186558
0.00153009
0.00135274
0.00117344
0.000966375
0.000770743
0.000613493
0.000489933
0.000400475
0.000336374
0.000296792
0.000267765
0.00024295
0.000215325
0.000194385
0.000176007
0.00016663
0.000159387
0.000158322
0.000158681
0.000160955
0.000164497
0.0001729
0.000181145
0.000199902
0.000216227
0.000248875
0.00033041
0.337889
0.152529
0.0806594
0.0476893
0.0290626
0.0181589
0.0126475
0.0114615
0.0122103
0.0159596
0.0274611
0.0440822
0.0464744
0.0388582
0.0259426
0.021412
0.0220903
0.0278255
0.0398125
0.051132
0.0606476
0.0637093
0.0625571
0.0595362
0.053531
0.0433316
0.0331593
0.0234216
0.0142734
0.00776813
0.00413606
0.002484
0.00175497
0.00145952
0.00130871
0.00115138
0.000958577
0.000768292
0.00061271
0.000489847
0.000400643
0.000335685
0.000294128
0.000264876
0.000240891
0.000214184
0.000193439
0.000175052
0.000165382
0.00015798
0.000156581
0.000156835
0.000158825
0.00016227
0.000170601
0.000178891
0.000197866
0.000214298
0.000246969
0.000328296
0.337969
0.152798
0.0806589
0.0479626
0.0296514
0.0186039
0.0126243
0.0106864
0.0109753
0.013524
0.0222147
0.0409574
0.0469486
0.0417231
0.0288841
0.0227724
0.0228057
0.0272147
0.0383736
0.0496219
0.0593202
0.0624641
0.0613341
0.0582909
0.0521411
0.0423016
0.0324277
0.0227647
0.0136083
0.00728042
0.00383087
0.0023001
0.00164971
0.00139316
0.00126633
0.00112893
0.000950151
0.00076578
0.000611868
0.000489793
0.000400695
0.000335293
0.00029217
0.000262302
0.00023892
0.000213055
0.000192501
0.000174137
0.00016417
0.000156646
0.000154926
0.000155056
0.000156767
0.000160103
0.000168307
0.000176607
0.000195732
0.000212265
0.000244968
0.000326157
0.338021
0.153097
0.0806696
0.0481275
0.0301792
0.019102
0.0127069
0.0100637
0.0100258
0.0115658
0.0179673
0.0361518
0.0466488
0.0437305
0.0321913
0.0243596
0.0235663
0.0268217
0.0367713
0.0478779
0.0577185
0.0609516
0.0598579
0.0568242
0.0505632
0.041124
0.0316093
0.022014
0.0128922
0.00677492
0.00353463
0.00212478
0.0015521
0.00133215
0.00122625
0.00110653
0.000941192