/*--------------------------------*- C++ -*----------------------------------*\
| =========                 |                                                 |
| \\      /  F ield         | OpenFOAM: The Open Source CFD Toolbox           |
|  \\    /   O peration     | Version:  2.4.0                                 |
|   \\  /    A nd           | Web:      www.OpenFOAM.org                      |
|    \\/     M anipulation  |                                                 |
\*---------------------------------------------------------------------------*/
FoamFile
{
    version     2.0;
    format      ascii;
    class       volScalarField;
    location    "5.56";
    object      k;
}
// * * * * * * * * * * * * * * * * * * * * * * * * * * * * * * * * * * * * * //

dimensions      [0 2 -2 0 0 0 0];

internalField   nonuniform List<scalar> 
6000
(
0.0117122
0.0065627
0.0017551
0.00044498
0.000122648
0.000318139
0.000252601
0.000399896
0.00045368
0.000588095
0.000688342
0.00081096
0.00090598
0.000999483
0.00108306
0.00118494
0.00131722
0.00148899
0.00168813
0.00190178
0.00212661
0.0023616
0.0025917
0.00281674
0.00303644
0.0032508
0.0034598
0.00366353
0.00386207
0.00405626
0.00424566
0.00442947
0.00460769
0.00478003
0.00494611
0.00510553
0.00525774
0.00540233
0.00553838
0.00566576
0.00578272
0.00589006
0.00598452
0.00606761
0.00613407
0.00633963
0.00658846
0.00686985
0.0071299
0.00745689
0.00772739
0.00814148
0.00841752
0.00900722
0.00927211
0.0102239
0.0104272
0.0121718
0.0122711
0.0164628
0.0120372
0.0117112
0.00208943
0.000675948
0.000136805
0.000278511
0.000371799
0.000518375
0.000668057
0.000860562
0.00104837
0.0012554
0.00144189
0.0016246
0.00179609
0.00199318
0.00224395
0.00257081
0.00296055
0.00338777
0.00382905
0.00427228
0.00471044
0.00514283
0.00556894
0.00598897
0.00640327
0.00681246
0.00721722
0.00761854
0.00801329
0.00840403
0.00879119
0.00917486
0.009555
0.00993154
0.0103041
0.0106725
0.011036
0.0113942
0.0117455
0.0120902
0.012425
0.0127504
0.0130618
0.0133818
0.0136933
0.0140034
0.0142859
0.0145851
0.0148369
0.0151492
0.0153721
0.0157535
0.0159549
0.0165146
0.0166902
0.0176597
0.0180605
0.0204271
0.011568
0.0151653
0.0028827
0.000648075
0.000186805
0.000330303
0.00046979
0.000646793
0.000843585
0.00108496
0.00132679
0.00158716
0.00182544
0.00205705
0.00227946
0.0025352
0.00285997
0.00327831
0.00377363
0.00431411
0.00487089
0.00542882
0.00598074
0.00652509
0.00706114
0.00758901
0.0081091
0.0086221
0.0091288
0.00963019
0.0101241
0.0106125
0.0110959
0.0115745
0.0120482
0.0125169
0.0129805
0.0134386
0.0138903
0.0143355
0.0147722
0.0152007
0.0156181
0.0160238
0.0164139
0.016795
0.0171627
0.0175186
0.0178494
0.0181799
0.0184748
0.0188005
0.0190702
0.0194415
0.0197124
0.0202303
0.0205497
0.021414
0.0220741
0.0243164
0.0114637
0.0160709
0.00401173
0.000532364
0.000234992
0.000380452
0.000544876
0.000749214
0.000979853
0.00125857
0.00154033
0.00183892
0.00211479
0.00238228
0.00264359
0.00294403
0.00332337
0.00380637
0.00437475
0.00499339
0.00563062
0.00626923
0.00690122
0.00752427
0.00813742
0.00874065
0.00933436
0.00991927
0.0104962
0.0110662
0.0116276
0.0121819
0.0127297
0.0132712
0.0138064
0.0143351
0.0148572
0.0153723
0.0158797
0.016379
0.0168685
0.0173479
0.0178153
0.0182697
0.018705
0.0191241
0.0195281
0.0199133
0.0202762
0.0206272
0.0209529
0.0212885
0.0215955
0.021963
0.0222943
0.0227894
0.0232345
0.0240401
0.0249856
0.0271021
0.0113763
0.0157664
0.00532551
0.000482924
0.000278875
0.000423939
0.000607001
0.000834949
0.00109335
0.001403
0.00171774
0.00204795
0.00235535
0.00265349
0.00294814
0.00328615
0.00370987
0.00424419
0.00487024
0.00555096
0.0062527
0.00695646
0.00765326
0.0083401
0.00901572
0.00967996
0.0103331
0.010976
0.0116094
0.0122342
0.0128491
0.0134556
0.014054
0.0146445
0.0152272
0.015802
0.0163687
0.0169269
0.0174759
0.0180152
0.0185435
0.0190601
0.019564
0.0200532
0.0205193
0.020965
0.0213941
0.0217993
0.0221841
0.0225484
0.0228953
0.0232362
0.0235702
0.0239331
0.0243114
0.0247881
0.0253337
0.0260952
0.0272747
0.0292616
0.0113034
0.0149416
0.00672841
0.000607784
0.00032092
0.000462357
0.000661069
0.000909768
0.00119229
0.00152892
0.00187262
0.00223096
0.0025668
0.00289298
0.00321779
0.00358895
0.00405055
0.00462795
0.00530241
0.00603578
0.00679277
0.00755275
0.00830571
0.00904792
0.00977781
0.010495
0.0111998
0.0118928
0.0125751
0.013247
0.0139077
0.0145585
0.0151996
0.0158314
0.0164538
0.0170668
0.0176701
0.0182634
0.018846
0.0194174
0.0199765
0.0205223
0.0210545
0.0215701
0.0220586
0.0225238
0.0229711
0.0233903
0.0237903
0.024163
0.0245244
0.0248675
0.0252208
0.0255784
0.025993
0.0264541
0.0270809
0.0278076
0.0291692
0.0310321
0.0112435
0.0139421
0.00776347
0.00113896
0.000369403
0.000497603
0.000709839
0.000976977
0.00128111
0.00164199
0.00201207
0.00239647
0.00275902
0.00311178
0.00346476
0.00386598
0.00436086
0.00497552
0.00569203
0.00647164
0.00727773
0.00808806
0.00889153
0.0096837
0.0104626
0.0112277
0.011979
0.0127173
0.0134435
0.0141575
0.0148591
0.0155492
0.0162282
0.0168961
0.0175531
0.0181991
0.0188338
0.0194569
0.0200677
0.0206659
0.0212502
0.0218198
0.0223749
0.0229103
0.0234156
0.0238954
0.0243557
0.0247847
0.0251949
0.0255726
0.0259433
0.0262864
0.0266529
0.0270049
0.0274474
0.0278953
0.0285883
0.0292869
0.0307925
0.032535
0.0111888
0.0129398
0.0084642
0.0020729
0.000445239
0.00053178
0.000755206
0.00103872
0.00136252
0.00174559
0.00214026
0.00254941
0.00293768
0.00331617
0.003696
0.00412502
0.00464968
0.00529719
0.00605092
0.00687203
0.0077227
0.00857916
0.00942916
0.0102675
0.0110918
0.0119012
0.0126956
0.0134757
0.0142425
0.0149952
0.0157342
0.0164601
0.0171733
0.0178739
0.0185618
0.0192371
0.0198993
0.0205483
0.0211835
0.0218042
0.0224097
0.022999
0.0235728
0.0241225
0.0246407
0.0251312
0.0256005
0.0260357
0.0264522
0.0268322
0.0272081
0.0275493
0.0279244
0.0282704
0.0287341
0.0291705
0.0299179
0.0305937
0.0322134
0.0338388
0.011136
0.0120147
0.00888029
0.00319799
0.000593935
0.000567827
0.00079879
0.0010966
0.00143841
0.00184203
0.00225993
0.00269295
0.00310635
0.00351014
0.00391591
0.004371
0.00492267
0.00559948
0.00638659
0.00724542
0.00813717
0.00903651
0.00993003
0.0108117
0.0116787
0.0125298
0.0133648
0.0141842
0.0149889
0.015778
0.0165517
0.0173109
0.0180556
0.0187861
0.0195022
0.0202038
0.0208906
0.0215624
0.0222187
0.0228589
0.0234822
0.0240878
0.0246765
0.0252363
0.025764
0.0262619
0.0267369
0.0271756
0.0275951
0.0279748
0.0283527
0.0286904
0.0290702
0.0294096
0.0298891
0.0303154
0.0311075
0.0317643
0.0334742
0.0349856
0.0110858
0.0111983
0.00905978
0.00433624
0.000904312
0.0006108
0.000842323
0.00115203
0.00151026
0.00193299
0.00237305
0.0028293
0.00326751
0.00369639
0.00412751
0.00460733
0.00518376
0.00588694
0.00670421
0.00759762
0.00852753
0.00946713
0.0104018
0.0113245
0.0122321
0.0131229
0.0139965
0.0148533
0.0156941
0.0165174
0.017324
0.0181143
0.0188886
0.0196467
0.0203886
0.0211143
0.0218233
0.0225154
0.0231902
0.0238469
0.0244853
0.0251043
0.0257041
0.0262707
0.0268051
0.0273075
0.0277853
0.0282248
0.0286445
0.0290219
0.0293988
0.0297314
0.0301126
0.030445
0.0309358
0.0313528
0.0321816
0.0328224
0.0346027
0.0360036
0.0110393
0.0104973
0.00905253
0.00534171
0.00148275
0.000670509
0.000888046
0.00120644
0.00157936
0.00201987
0.00248114
0.00296013
0.00342299
0.0038769
0.004333
0.00483654
0.00543587
0.00616291
0.00700755
0.00793283
0.00889841
0.00987604
0.0108498
0.0118118
0.0127583
0.0136872
0.0145979
0.0154904
0.0163656
0.0172218
0.0180595
0.0188794
0.0196813
0.0204653
0.0212312
0.0219789
0.022708
0.0234182
0.0241091
0.0247801
0.0254309
0.0260608
0.0266679
0.0272389
0.0277772
0.0282815
0.0287595
0.0291975
0.0296149
0.0299878
0.0303613
0.0306874
0.0310672
0.0313917
0.0318901
0.0322984
0.033157
0.033784
0.0356181
0.0369123
0.010997
0.00990572
0.00890714
0.00615849
0.00223386
0.0007663
0.000939312
0.00126151
0.00164701
0.00210395
0.0025855
0.00308681
0.00357422
0.00405324
0.00453413
0.00506059
0.00568129
0.00643004
0.00729958
0.00825428
0.00925331
0.010267
0.0112781
0.0122779
0.0132618
0.0142274
0.0151738
0.0161009
0.0170092
0.0178968
0.0187644
0.0196123
0.0204405
0.0212488
0.0220371
0.022805
0.0235523
0.0242786
0.0249835
0.0256666
0.0263276
0.0269657
0.0275767
0.0281499
0.0286896
0.0291934
0.0296693
0.0301035
0.0305162
0.0308828
0.0312506
0.0315687
0.0319446
0.0322607
0.0327633
0.0331633
0.0340457
0.0346605
0.0365343
0.0377261
0.010959
0.00941231
0.00866739
0.00676681
0.00306498
0.000938133
0.00100165
0.00131939
0.0017146
0.00218648
0.00268734
0.00321055
0.00372243
0.0042267
0.0047323
0.00528112
0.00592191
0.00669046
0.00758269
0.00856458
0.00959502
0.010643
0.01169
0.012726
0.0137461
0.0147472
0.0157282
0.0166887
0.017629
0.0185469
0.0194431
0.0203179
0.021171
0.0220022
0.0228113
0.0235979
0.0243616
0.0251022
0.0258193
0.0265123
0.0271814
0.0278249
0.0284371
0.0290104
0.0295491
0.0300502
0.0305215
0.03095
0.0313558
0.0317144
0.0320743
0.0323831
0.032753
0.0330598
0.0335636
0.0339554
0.0348565
0.0354603
0.0373619
0.0384556
0.010925
0.00900413
0.00837011
0.00717182
0.00387814
0.00126884
0.00108476
0.0013831
0.00178383
0.00226883
0.00278786
0.00333249
0.00386876
0.00439843
0.00492876
0.00549953
0.00615936
0.00694605
0.00785893
0.00886592
0.00992586
0.0110065
0.0120878
0.0131589
0.0142139
0.0152496
0.0162641
0.017257
0.0182282
0.0191754
0.0200991
0.0209996
0.0218764
0.0227292
0.0235577
0.0243615
0.0251402
0.0258933
0.0266207
0.0273218
0.0279968
0.0286425
0.0292539
0.0298252
0.0303608
0.0308569
0.0313216
0.0317422
0.0321392
0.032488
0.0328381
0.0331362
0.033498
0.0337947
0.0342973
0.0346809
0.035596
0.0361897
0.0381088
0.0391093
0.010895
0.00866846
0.00804448
0.00739314
0.00462959
0.00178989
0.00120545
0.00145712
0.00185683
0.00235258
0.00288834
0.0034538
0.00401427
0.00456949
0.00512467
0.00571712
0.00639511
0.00719846
0.0081301
0.00916021
0.0102478
0.0113594
0.0124736
0.0135786
0.0146676
0.0157367
0.0167839
0.0178082
0.0188094
0.0197848
0.0207351
0.0216602
0.0225596
0.0234328
0.0242794
0.025099
0.025891
0.0266551
0.027391
0.0280983
0.028777
0.029422
0.0300307
0.0305981
0.0311283
0.0316174
0.0320735
0.0324843
0.0328704
0.0332077
0.0335464
0.0338324
0.0341844
0.0344701
0.0349691
0.0353443
0.0362694
0.0368535
0.0387814
0.0396937
0.0108685
0.00839367
0.00771247
0.00745797
0.00528429
0.00246509
0.00139247
0.00154832
0.00193646
0.00243964
0.00299025
0.00357571
0.00416008
0.00474095
0.0053211
0.00593509
0.00663053
0.00744922
0.00839785
0.00944919
0.0105626
0.0117036
0.0128495
0.0139871
0.0151089
0.0162105
0.0172894
0.0183442
0.0193745
0.0203773
0.0213531
0.0223019
0.0232227
0.0241151
0.0249787
0.0258126
0.0266165
0.0273899
0.0281327
0.0288443
0.029524
0.0301663
0.0307704
0.0313319
0.0318546
0.0323346
0.03278
0.0331792
0.0335527
0.0338768
0.0342023
0.0344749
0.0348154
0.0350894
0.0355827
0.0359492
0.0368807
0.0374555
0.0393848
0.0402141
0.0108453
0.00816951
0.00738962
0.00739666
0.00581711
0.00321664
0.00169565
0.00166757
0.0020267
0.00253244
0.00309528
0.00369964
0.00430738
0.00491392
0.00551916
0.00615462
0.00686694
0.0076998
0.00866375
0.00973446
0.0108719
0.0120407
0.0132168
0.0143859
0.0155395
0.0166727
0.0177823
0.0188668
0.0199252
0.0209545
0.0219549
0.0229262
0.0238675
0.024778
0.0256571
0.0265042
0.0273185
0.0280996
0.0288475
0.0295616
0.0302395
0.0308773
0.031475
0.0320286
0.0325419
0.0330108
0.0334436
0.0338293
0.0341884
0.0344978
0.0348084
0.0350665
0.0353939
0.0356553
0.036141
0.0364986
0.0374331
0.037999
0.0399232
0.040675
0.0108249
0.00798722
0.00708622
0.00723964
0.00621435
0.00397447
0.00214459
0.00183177
0.00213324
0.00263417
0.00320554
0.00382723
0.00445751
0.00508958
0.00572
0.00637692
0.00710566
0.00795161
0.00892931
0.0100176
0.0111773
0.0123723
0.0135772
0.0147765
0.0159608
0.0171245
0.018264
0.0193773
0.0204628
0.0215177
0.0225417
0.0235346
0.0244952
0.0254226
0.0263161
0.0271749
0.0279982
0.0287856
0.029537
0.0302509
0.0309249
0.0315566
0.0321461
0.0326898
0.0331916
0.0336476
0.0340659
0.0344363
0.0347794
0.0350725
0.0353668
0.0356091
0.0359221
0.0361699
0.0366464
0.0369945
0.0379292
0.0384863
0.0404003
0.04108
0.0108072
0.00783938
0.00680843
0.00701528
0.00647325
0.00468493
0.00272422
0.00206642
0.00226437
0.00274904
0.00332364
0.00396042
0.00461201
0.00526926
0.00592483
0.00660321
0.007348
0.00820608
0.009196
0.0103
0.0114802
0.0126997
0.0139319
0.0151601
0.0163741
0.0175673
0.0187357
0.0198769
0.0209886
0.022068
0.0231146
0.0241281
0.0251069
0.0260501
0.0269567
0.0278259
0.0286568
0.0294488
0.0302018
0.0309131
0.0315816
0.0322053
0.0327848
0.0333168
0.0338052
0.0342463
0.0346484
0.0350017
0.0353271
0.0356025
0.0358791
0.0361044
0.0364015
0.036635
0.0371008
0.037439
0.0383713
0.0389196
0.0408188
0.0414322
0.0107918
0.00771982
0.00655925
0.00674856
0.0066003
0.00530818
0.00338655
0.00240433
0.00243219
0.00288279
0.00345292
0.00410162
0.00477268
0.00545444
0.00613499
0.00683482
0.00759534
0.00846466
0.00946533
0.0105832
0.011782
0.0130243
0.0142823
0.0155382
0.0167805
0.0180021
0.0191983
0.0203665
0.0215033
0.0226063
0.0236746
0.0247076
0.0257035
0.0266612
0.0275797
0.0284579
0.0292949
0.0300899
0.0308421
0.031549
0.0322103
0.0328244
0.033392
0.0339105
0.0343835
0.0348078
0.0351919
0.0355266
0.0358326
0.0360888
0.0363463
0.0365535
0.0368337
0.0370521
0.0375056
0.0378335
0.0387609
0.0393006
0.0411814
0.0417342
0.0107784
0.0076234
0.00633946
0.00646035
0.00660904
0.005817
0.00408159
0.00286512
0.00265412
0.00304318
0.00359769
0.00425375
0.00494168
0.00564685
0.00635195
0.00707313
0.00784908
0.00872883
0.00973881
0.0108688
0.0120842
0.0133475
0.0146298
0.0159118
0.0171812
0.01843
0.019653
0.0208471
0.0220079
0.0231334
0.0242222
0.0252737
0.0262855
0.0272565
0.0281855
0.0290713
0.029913
0.030709
0.0314582
0.0321591
0.0328116
0.0334143
0.0339683
0.0344713
0.0349272
0.0353329
0.0356972
0.0360116
0.0362967
0.0365324
0.0367695
0.0369576
0.0372196
0.0374221
0.0378622
0.0381794
0.0390998
0.0396309
0.0414904
0.0419882
0.0107668
0.0075459
0.00614831
0.00616719
0.0065178
0.00619554
0.00476256
0.00343928
0.00295419
0.00324067
0.00376353
0.00442046
0.00512158
0.00584849
0.0065774
0.00731969
0.00811076
0.00900013
0.010018
0.0111583
0.0123884
0.0136707
0.0149754
0.016282
0.0175772
0.018852
0.0201005
0.0213193
0.022503
0.02365
0.0247581
0.0258268
0.0268533
0.0278363
0.0287745
0.0296666
0.0305111
0.0313058
0.0320505
0.0327437
0.0333858
0.0339753
0.034514
0.0349997
0.0354366
0.035822
0.0361648
0.0364573
0.0367202
0.036934
0.0371495
0.0373174
0.0375602
0.0377461
0.0381716
0.0384777
0.0393892
0.0399119
0.0417475
0.0421962
0.0107568
0.00748382
0.00598408
0.00588149
0.00634741
0.00643816
0.0053886
0.00409332
0.00335444
0.00348901
0.00395774
0.0046063
0.00531553
0.00606173
0.00681321
0.00757616
0.00838196
0.00928018
0.0103045
0.0114532
0.0126958
0.0139952
0.0153205
0.0166501
0.0179694
0.0192688
0.0205417
0.0217838
0.0229893
0.0241564
0.0252827
0.0263674
0.0274072
0.0284009
0.0293469
0.0302436
0.0310886
0.0318805
0.0326191
0.0333031
0.033933
0.0345077
0.0350292
0.0354958
0.0359119
0.0362753
0.036595
0.0368641
0.0371033
0.037294
0.0374868
0.0376336
0.0378562
0.0380249
0.0384347
0.0387292
0.0396302
0.0401446
0.0419546
0.0423598
0.0107481
0.00743433
0.0058445
0.00561195
0.00611923
0.0065482
0.00592631
0.00478354
0.00386159
0.00380576
0.00418969
0.00481688
0.00552729
0.0062893
0.00706154
0.00784437
0.0086644
0.00957068
0.0106001
0.0117551
0.0130082
0.0143225
0.0156664
0.017017
0.0183589
0.0196814
0.0209771
0.0222412
0.0234671
0.0246532
0.0257962
0.0268956
0.0279474
0.0289504
0.0299027
0.0308016
0.0316455
0.0324331
0.033164
0.0338371
0.0344531
0.0350114
0.0355139
0.0359597
0.0363533
0.0366929
0.036988
0.0372322
0.0374464
0.0376128
0.0377818
0.0379066
0.0381083
0.038259
0.0386523
0.0389349
0.0398238
0.0403301
0.0421132
0.0424807
0.0107405
0.00739509
0.00572703
0.00536412
0.0058535
0.00653646
0.00635079
0.00546503
0.00446267
0.00420697
0.0044718
0.00505908
0.00576142
0.00653444
0.00732484
0.00812636
0.00895992
0.00987339
0.0109064
0.0120659
0.013327
0.0146539
0.0160142
0.017384
0.0187466
0.0200905
0.0214076
0.0226922
0.023937
0.0251406
0.026299
0.0274116
0.0284739
0.0294845
0.0304408
0.0313404
0.0321817
0.0329634
0.0336849
0.0343456
0.0349461
0.0354861
0.0359679
0.0363912
0.0367606
0.0370749
0.0373438
0.0375617
0.0377495
0.0378906
0.0380348
0.0381368
0.0383167
0.0384491
0.0388249
0.0390953
0.0399709
0.0404693
0.0422245
0.04256
0.010734
0.00736418
0.00562907
0.00514103
0.00556822
0.00641935
0.00664632
0.00609642
0.00512885
0.00469947
0.00481832
0.00534196
0.00602336
0.00680088
0.00760589
0.00842434
0.00927049
0.0101902
0.0112252
0.012387
0.0136539
0.0149908
0.0163652
0.017752
0.0191334
0.0204968
0.0218337
0.023137
0.0243992
0.0256188
0.0267909
0.0279153
0.0289862
0.0300024
0.0309611
0.0318599
0.032697
0.0334711
0.0341817
0.0348282
0.0354114
0.0359315
0.036391
0.03679
0.0371335
0.0374209
0.0376622
0.0378525
0.0380128
0.0381275
0.038246
0.0383245
0.0384819
0.0385955
0.0389532
0.0392112
0.0400723
0.0405631
0.0422899
0.0425991
0.0107283
0.00734004
0.00554813
0.00494377
0.00527842
0.0062169
0.00680652
0.00664216
0.00582189
0.00527857
0.00523986
0.00567596
0.00632067
0.0070929
0.00790781
0.00874072
0.00959816
0.010523
0.0115585
0.0127205
0.0139904
0.0153348
0.0167207
0.0181221
0.0195202
0.0209012
0.0222559
0.0235761
0.0248539
0.026088
0.0272721
0.0284058
0.0294837
0.0305037
0.0314632
0.0323595
0.0331908
0.0339557
0.0346537
0.0352843
0.0358487
0.0363471
0.0367827
0.0371557
0.0374718
0.0377308
0.0379431
0.0381044
0.0382362
0.0383234
0.0384155
0.0384698
0.0386042
0.0386985
0.0390375
0.0392829
0.0401286
0.0406123
0.0423104
0.0425988
0.0107234
0.0073214
0.00548186
0.00477201
0.00499588
0.00595081
0.00683396
0.00707408
0.00650028
0.00592646
0.00574197
0.00606985
0.00666101
0.00741704
0.00823415
0.00907809
0.00994512
0.0108738
0.0119081
0.0130679
0.0143382
0.0156873
0.0170819
0.0184954
0.0199077
0.0213041
0.0226748
0.0240098
0.0253014
0.0265473
0.0277417
0.0288829
0.0299659
0.0309882
0.0319467
0.0328389
0.0336627
0.0344166
0.0351004
0.0357135
0.0362573
0.0367324
0.0371423
0.0374878
0.0377749
0.0380041
0.038186
0.0383173
0.0384194
0.0384784
0.0385433
0.0385729
0.0386838
0.0387586
0.0390784
0.0393111
0.0401406
0.0406177
0.0422872
0.0425601
0.0107191
0.0073072
0.00542812
0.00462448
0.00472918
0.00564258
0.00673912
0.00737237
0.00712363
0.00661425
0.00632178
0.00653042
0.00705126
0.00777844
0.0085899
0.00944013
0.0103138
0.0112447
0.012276
0.0134312
0.014699
0.0160496
0.0174501
0.0188729
0.0202969
0.0217062
0.0230901
0.0244377
0.025741
0.0269967
0.0281993
0.0293463
0.0304326
0.0314553
0.0324111
0.0332974
0.0341119
0.0348532
0.0355209
0.0361148
0.0366364
0.0370866
0.0374692
0.0377857
0.0380423
0.0382402
0.0383906
0.0384907
0.0385623
0.0385922
0.0386293
0.0386338
0.0387207
0.0387758
0.0390762
0.0392961
0.0401087
0.0405798
0.042221
0.042484
0.0107153
0.0072966
0.00538502
0.00449931
0.00448399
0.00531207
0.00653877
0.0075264
0.0076556
0.00730594
0.00696613
0.00706027
0.00749727
0.00818218
0.0089789
0.00982963
0.0107068
0.0116377
0.012664
0.0138121
0.0150743
0.0164232
0.0178262
0.0192552
0.0206879
0.0221075
0.0235022
0.0248599
0.0261725
0.0274361
0.0286448
0.0297955
0.0308832
0.0319043
0.0328556
0.0337341
0.0345376
0.0352645
0.0359145
0.0364875
0.0369851
0.0374088
0.0377626
0.0380485
0.0382733
0.0384387
0.0385563
0.0386242
0.0386644
0.0386646
0.0386734
0.0386525
0.0387152
0.0387505
0.0390311
0.0392384
0.0400336
0.0404993
0.0421128
0.0423711
0.0107121
0.00728888
0.00535087
0.00439431
0.00426353
0.00497639
0.00625404
0.00753492
0.00806607
0.00796256
0.00765179
0.00765548
0.00800251
0.00863266
0.00940479
0.0102493
0.011126
0.0120546
0.0130736
0.014212
0.0154654
0.0168091
0.0182111
0.019643
0.0210814
0.0225083
0.0239112
0.0252764
0.026596
0.0278651
0.0290778
0.0302301
0.031317
0.0323346
0.0332794
0.0341483
0.0349388
0.0356495
0.03628
0.0368304
0.0373025
0.0376981
0.0380215
0.0382754
0.038467
0.0385987
0.0386825
0.0387173
0.0387254
0.0386954
0.0386755
0.0386288
0.0386672
0.0386827
0.0389434
0.0391383
0.0399158
0.0403768
0.0419634
0.0422222
0.0107092
0.00728348
0.00532422
0.0043072
0.00406902
0.00464932
0.00590827
0.0074057
0.0083328
0.00854562
0.00834759
0.00830408
0.00856644
0.00913268
0.00987059
0.0107016
0.0115733
0.0124966
0.0135061
0.0146319
0.0158734
0.0172083
0.0186058
0.020037
0.0214777
0.0229089
0.024317
0.0256871
0.0270111
0.0282833
0.0294975
0.0306492
0.0317332
0.0327452
0.0336815
0.0345387
0.0353145
0.0360072
0.0366164
0.0371425
0.0375874
0.0379533
0.038245
0.0384655
0.0386227
0.0387195
0.0387686
0.0387695
0.0387447
0.0386841
0.0386352
0.0385627
0.0385768
0.0385727
0.0388134
0.0389961
0.0397558
0.040213
0.0417735
0.0420378
0.0107068
0.00727991
0.00530379
0.00423572
0.00390021
0.0043411
0.00552488
0.00715442
0.00844274
0.00902001
0.00901742
0.00898578
0.00918291
0.00968239
0.010378
0.0111883
0.01205
0.0129648
0.0139622
0.0150728
0.0162991
0.0176216
0.0190107
0.0204376
0.0218773
0.0233095
0.0247196
0.0260917
0.0274173
0.02869
0.0299033
0.031052
0.0321308
0.033135
0.0340607
0.0349042
0.0356633
0.0363361
0.0369223
0.0374224
0.0378386
0.0381733
0.0384318
0.0386177
0.0387392
0.0388002
0.0388137
0.03878
0.038722
0.0386303
0.0385523
0.038454
0.0384439
0.0384204
0.0386413
0.0388122
0.0395541
0.0400083
0.0415438
0.0418186
0.0107046
0.00727779
0.00528851
0.00417772
0.00375584
0.00405856
0.0051256
0.00680292
0.00839284
0.00935627
0.0096234
0.00967298
0.0098391
0.010278
0.0109269
0.0117099
0.0125568
0.0134598
0.0144425
0.0155351
0.0167429
0.0180494
0.0194263
0.0208451
0.02228
0.0237097
0.0251185
0.0264896
0.0278139
0.0290844
0.0302941
0.0314375
0.0325086
0.0335028
0.0344156
0.0352435
0.0359838
0.0366349
0.0371964
0.0376688
0.0380547
0.0383568
0.0385807
0.0387307
0.0388156
0.0388398
0.0388169
0.0387481
0.0386564
0.0385336
0.0384264
0.0383026
0.0382684
0.0382259
0.0384274
0.0385869
0.039311
0.0397634
0.0412751
0.0415652
0.0107027
0.0072768
0.00527744
0.00413124
0.00363399
0.00380558
0.00472912
0.00637704
0.00819009
0.00953266
0.0101287
0.0103327
0.0105153
0.0109109
0.0115138
0.0122653
0.0130932
0.0139811
0.0149467
0.0160188
0.0172049
0.0184917
0.0198526
0.0212593
0.0226856
0.0241093
0.0255133
0.0268802
0.0282002
0.0294656
0.030669
0.0318043
0.0328653
0.0338471
0.0347449
0.0355549
0.0362746
0.036902
0.0374369
0.03788
0.0382341
0.0385022
0.0386904
0.0388034
0.0388507
0.0388373
0.0387774
0.038673
0.0385475
0.0383934
0.0382572
0.0381081
0.0380503
0.0379893
0.0381716
0.0383205
0.039027
0.0394786
0.0409679
0.0412779
0.010701
0.00727668
0.0052698
0.00409451
0.00353242
0.00358359
0.00435021
0.00590411
0.00785083
0.00953681
0.0105
0.0109292
0.0111855
0.0115667
0.012132
0.0128512
0.0136571
0.0145274
0.0154737
0.0165229
0.0176845
0.0189481
0.0202891
0.0216798
0.0230936
0.0245076
0.0259031
0.0272623
0.0285749
0.0298322
0.0310264
0.0321509
0.0331994
0.0341662
0.0350467
0.0358368
0.0365337
0.0371356
0.0376423
0.0380545
0.0383753
0.0386081
0.0387593
0.0388344
0.0388432
0.0387915
0.0386942
0.0385539
0.0383944
0.0382092
0.0380442
0.0378703
0.0377893
0.0377106
0.0378743
0.0380133
0.0387027
0.0391546
0.0406228
0.0409574
0.0106995
0.00727724
0.00526493
0.00406595
0.00344873
0.00339218
0.00399947
0.00541056
0.00739913
0.00936689
0.0107103
0.011426
0.0118188
0.0122252
0.01277
0.0134611
0.0142445
0.0150957
0.0160211
0.0170456
0.0181803
0.0194174
0.0207348
0.0221055
0.0235029
0.0249034
0.0262867
0.0276348
0.0289366
0.0301827
0.0313648
0.0324758
0.033509
0.0344585
0.0353193
0.0360873
0.0367595
0.0373339
0.0378106
0.0381904
0.0384765
0.0386727
0.038786
0.0388221
0.0387917
0.0387013
0.0385661
0.0383898
0.0381963
0.0379803
0.037787
0.0375888
0.0374855
0.0373897
0.0375356
0.0376655
0.0383382
0.0387919
0.0402404
0.040604
0.0106983
0.00727829
0.00526225
0.0040442
0.00338059
0.00322966
0.00368351
0.00491991
0.0068645
0.00903204
0.0107406
0.011789
0.0123812
0.0128612
0.0134116
0.014085
0.0148488
0.0156812
0.0165854
0.0175841
0.0186898
0.0198977
0.021188
0.022535
0.0239121
0.0252952
0.0266625
0.027996
0.0292835
0.0305153
0.0316823
0.0327769
0.0337921
0.0347218
0.0355606
0.0363042
0.0369496
0.0374949
0.0379399
0.0382857
0.0385359
0.0386944
0.0387686
0.0387652
0.0386949
0.0385653
0.0383921
0.0381798
0.0379526
0.0377061
0.037485
0.0372635
0.0371385
0.0370268
0.0371556
0.0372775
0.0379342
0.0383909
0.0398214
0.0402182
0.0106971
0.0072797
0.00526131
0.00402807
0.00332579
0.00309357
0.00340544
0.00445131
0.00627901
0.00855184
0.0105818
0.0119886
0.0128378
0.0134449
0.0140355
0.0147088
0.0154605
0.0162771
0.0171611
0.018134
0.0192096
0.0203861
0.0216462
0.0229659
0.0243189
0.0256808
0.0270284
0.0283436
0.0296136
0.0308277
0.0319765
0.0330519
0.0340465
0.0349538
0.0357682
0.0364854
0.037102
0.0376163
0.038028
0.0383385
0.0385513
0.0386712
0.0387056
0.0386618
0.0385513
0.0383822
0.0381709
0.0379228
0.0376622
0.0373859
0.0371379
0.0368938
0.0367483
0.0366217
0.0367345
0.0368494
0.0374909
0.0379521
0.0393661
0.0398004
0.0106961
0.00728137
0.00526172
0.00401654
0.00328231
0.00298105
0.00316561
0.00401873
0.00567431
0.00795477
0.0102367
0.012002
0.0131548
0.013944
0.0146164
0.0153143
0.0160665
0.0168735
0.0177406
0.0186892
0.0197347
0.0208783
0.0221059
0.0233951
0.0247205
0.0260575
0.0273817
0.0286752
0.0299242
0.0311175
0.0322451
0.0332983
0.0342695
0.0351519
0.0359397
0.0366282
0.0372142
0.0376956
0.0380726
0.0383464
0.0385209
0.038601
0.0385949
0.0385103
0.0383592
0.0381506
0.0379013
0.0376178
0.0373244
0.037019
0.0367449
0.0364795
0.0363146
0.0361744
0.0362723
0.0363816
0.0370088
0.037476
0.0388752
0.0393509
0.0106952
0.00728322
0.00526315
0.00400872
0.00324833
0.00288911
0.00296236
0.00363096
0.00507887
0.00727564
0.00971963
0.0118158
0.0133022
0.0143253
0.0151255
0.0158792
0.0166504
0.0174581
0.0183142
0.0192417
0.0202585
0.021369
0.0225624
0.0238186
0.0251133
0.0264219
0.0277193
0.0289876
0.0302123
0.0313815
0.0324849
0.0335131
0.0344583
0.0353133
0.0360722
0.03673
0.0372834
0.0377305
0.0380712
0.038307
0.0384422
0.0384819
0.0384347
0.0383089
0.0381171
0.0378691
0.0375821
0.0372636
0.0369381
0.0366046
0.0363056
0.0360202
0.0358372
0.0356849
0.0357692
0.0358743
0.0364883
0.0369631
0.0383492
0.0388703
0.0106945
0.00728517
0.00526534
0.00400389
0.00322225
0.00281486
0.00279272
0.00329211
0.00451589
0.00655222
0.00905653
0.0114279
0.0132562
0.0145563
0.0155316
0.0163778
0.017192
0.0180151
0.0188694
0.0197816
0.0207727
0.0218512
0.0230098
0.0242312
0.0254927
0.0267696
0.0280371
0.029277
0.0304743
0.0316164
0.0326925
0.0336931
0.0346097
0.0354349
0.0361627
0.0367878
0.0373069
0.037718
0.0380212
0.0382181
0.038313
0.0383117
0.0382229
0.0380557
0.0378233
0.037536
0.0372119
0.0368591
0.0365024
0.036142
0.0358194
0.0355154
0.0353159
0.0351532
0.0352253
0.0353278
0.0359299
0.0364139
0.0377886
0.0383587
0.0106938
0.00728717
0.00526808
0.00400142
0.0032027
0.00275563
0.00265307
0.00300245
0.00400208
0.0058216
0.00828285
0.0108487
0.0130012
0.014608
0.0158032
0.0167819
0.017668
0.0185259
0.0193911
0.0202963
0.0212671
0.0223161
0.0234406
0.0246265
0.0258529
0.0270957
0.0283305
0.0295391
0.030706
0.0318181
0.0328643
0.0338345
0.0347201
0.0355133
0.0362078
0.0367984
0.0372816
0.0376554
0.0379198
0.0380768
0.0381308
0.038088
0.0379575
0.0377489
0.037476
0.03715
0.0367893
0.0364032
0.0360165
0.0356304
0.0352857
0.0349648
0.0347505
0.0345792
0.0346408
0.0347424
0.0353338
0.035829
0.037194
0.0378167
0.0106932
0.0072892
0.00527121
0.00400079
0.00318846
0.00270898
0.0025395
0.00275951
0.00354744
0.00511665
0.0074405
0.0101016
0.012533
0.0144572
0.0159099
0.0170617
0.0180525
0.0189689
0.0198614
0.020771
0.021729
0.0227534
0.023846
0.0249967
0.0261871
0.027394
0.0285939
0.0297686
0.0309025
0.0319821
0.0329958
0.0339332
0.0347855
0.0355446
0.036204
0.0367584
0.0372042
0.0375394
0.0377641
0.0378804
0.0378931
0.0378084
0.0376361
0.0373864
0.0370734
0.0367093
0.036313
0.0358946
0.0354792
0.035069
0.0347038
0.034368
0.0341408
0.0339629
0.0340159
0.0341184
0.0347006
0.0352087
0.0365657
0.0372446
0.0106927
0.0072912
0.00527459
0.00400157
0.00317854
0.00267277
0.00244823
0.00255908
0.00315589
0.00446335
0.00657376
0.00922185
0.01186
0.0140888
0.0158248
0.0171874
0.0183179
0.01932
0.0202599
0.0211885
0.022144
0.0231504
0.0242152
0.0253325
0.0264872
0.0276574
0.0288208
0.0299597
0.0310584
0.0321032
0.0330821
0.0339847
0.0348016
0.0355247
0.0361474
0.0366641
0.0370713
0.0373668
0.0375511
0.0376262
0.0375971
0.0374706
0.0372568
0.0369662
0.0366139
0.0362126
0.0357816
0.0353323
0.0348896
0.0344571
0.0340734
0.0337246
0.0334866
0.0333043
0.0333506
0.0334562
0.0340308
0.0345536
0.0359045
0.0366427
0.0106922
0.00729318
0.00527811
0.00400342
0.00317205
0.00264516
0.00237572
0.00239607
0.00282647
0.00387929
0.00572464
0.00825441
0.0110044
0.0134984
0.0155265
0.0171312
0.0184358
0.0195534
0.0205641
0.0215293
0.0224953
0.0234929
0.0245358
0.0256233
0.0267438
0.0278774
0.0290037
0.0301055
0.0311674
0.0321756
0.033118
0.0339838
0.0347636
0.0354492
0.0360337
0.0365115
0.0368791
0.0371343
0.0372775
0.0373111
0.0372403
0.0370721
0.036817
0.0364864
0.0360955
0.035658
0.0351938
0.034715
0.0342469
0.0337939
0.0333938
0.0330343
0.0327879
0.0326035
0.0326453
0.032756
0.0333247
0.0338644
0.0352108
0.0360115
0.0106918
0.0072951
0.00528169
0.00400605
0.00316828
0.00262455
0.00231879
0.00226517
0.00255484
0.00337354
0.00492874
0.00724934
0.0100023
0.012695
0.0150023
0.016869
0.0183789
0.0196424
0.0207496
0.021772
0.0227642
0.0237647
0.0247938
0.0258566
0.0269461
0.0280446
0.0291341
0.0301984
0.0312225
0.0321928
0.0330973
0.033925
0.0346665
0.0353133
0.0358585
0.0362965
0.0366237
0.036838
0.03694
0.036932
0.0368197
0.0366102
0.0363147
0.0359448
0.0355165
0.0350442
0.0345482
0.0340418
0.03355
0.0330788
0.0326646
0.0322969
0.0320444
0.0318605
0.0319001
0.0320182
0.032583
0.0331415
0.0344851
0.0353513
0.0106915
0.00729696
0.00528528
0.00400924
0.00316663
0.00260958
0.00227468
0.00216125
0.00233464
0.00294765
0.0042121
0.0062568
0.00890144
0.0117018
0.0142502
0.0163831
0.0181224
0.0195607
0.0207913
0.0218935
0.0229302
0.0239476
0.0249734
0.0260188
0.0270819
0.0281482
0.0292024
0.0302296
0.0312158
0.0321478
0.0330135
0.0338023
0.0345045
0.0351117
0.0356169
0.0360146
0.036301
0.0364744
0.0365351
0.0364859