/*--------------------------------*- C++ -*----------------------------------*\
| =========                 |                                                 |
| \\      /  F ield         | OpenFOAM: The Open Source CFD Toolbox           |
|  \\    /   O peration     | Version:  2.4.0                                 |
|   \\  /    A nd           | Web:      www.OpenFOAM.org                      |
|    \\/     M anipulation  |                                                 |
\*---------------------------------------------------------------------------*/
FoamFile
{
    version     2.0;
    format      ascii;
    class       volVectorField;
    location    "5.56";
    object      U;
}
// * * * * * * * * * * * * * * * * * * * * * * * * * * * * * * * * * * * * * //

dimensions      [0 1 -1 0 0 0 0];

internalField   nonuniform List<vector> 
6000
(
(0.513517 -0.0430713 -6.28046e-18)
(-0.317788 0.0668545 0)
(0.11164 -0.0273494 9.9541e-18)
(0.00929459 -0.00185075 0)
(0.00578898 7.23237e-05 0)
(-0.0293031 0.00569932 0)
(-0.0149658 0.00320772 4.26147e-18)
(-0.0320351 0.00585874 4.82419e-24)
(-0.0314229 0.00592141 0)
(-0.0441132 0.007526 0)
(-0.0499366 0.00836517 3.5821e-18)
(-0.0600339 0.00920807 -6.91781e-18)
(-0.0658287 0.0096072 0)
(-0.0721772 0.00973999 0)
(-0.0772015 0.00987751 -1.57892e-18)
(-0.084139 0.0101252 0)
(-0.0926543 0.010512 0)
(-0.102666 0.0108056 -1.47344e-18)
(-0.112464 0.0108484 -1.44542e-18)
(-0.121319 0.0105783 0)
(-0.128812 0.0100724 1.40178e-18)
(-0.13519 0.00939892 6.93068e-19)
(-0.140803 0.00860396 -6.87286e-19)
(-0.145696 0.00768727 0)
(-0.149871 0.00666584 0)
(-0.153317 0.00555455 0)
(-0.156007 0.00437052 3.41774e-19)
(-0.157905 0.0031313 -3.43702e-19)
(-0.158947 0.00185549 0)
(-0.159024 0.000544768 0)
(-0.158066 -0.00080597 4.44182e-20)
(-0.156132 -0.00210739 0)
(-0.153146 -0.00335553 3.68228e-19)
(-0.149039 -0.00452543 -3.76313e-19)
(-0.143735 -0.00558837 0)
(-0.137152 -0.00651407 0)
(-0.12921 -0.00726706 8.15535e-19)
(-0.119816 -0.00781321 0)
(-0.108892 -0.00810775 8.70176e-19)
(-0.0963226 -0.00811648 0)
(-0.0820635 -0.00777842 0)
(-0.0659311 -0.00706883 1.94595e-18)
(-0.0480276 -0.00590022 -4.05037e-18)
(-0.0278945 -0.00426065 0)
(-0.006215 -0.00205238 0)
(0.0182328 0.000762362 2.29143e-18)
(0.0436586 0.0042458 0)
(0.0729215 0.00841805 0)
(0.102171 0.0134426 -5.11796e-18)
(0.137103 0.0192416 -5.31216e-18)
(0.169662 0.026088 -5.45782e-18)
(0.21196 0.0338229 -6.26359e-21)
(0.246371 0.0427897 5.69122e-18)
(0.299935 0.0529793 0)
(0.332598 0.0643328 -9.88165e-21)
(0.406847 0.0782968 -6.02399e-18)
(0.426901 0.0907301 4.98833e-18)
(0.54652 0.112975 6.00538e-18)
(0.529272 0.122331 1.73719e-20)
(0.770988 0.16818 0)
(0.72677 -0.108554 4.77294e-18)
(-0.209414 0.0626901 5.80066e-18)
(0.0917681 -0.0316429 -4.82885e-18)
(-0.0218134 0.00860467 -5.14363e-18)
(0.00477551 0.0014725 0)
(-0.042189 0.00900196 0)
(-0.0240136 0.0051556 -4.19114e-18)
(-0.0428754 0.00829856 8.03378e-18)
(-0.0421427 0.00841844 0)
(-0.055014 0.00993991 0)
(-0.0609411 0.0108421 -3.47992e-18)
(-0.0703175 0.0113424 3.35054e-18)
(-0.075918 0.0116258 1.61543e-18)
(-0.0819407 0.011587 0)
(-0.0873546 0.0118103 1.52049e-18)
(-0.094599 0.0121666 0)
(-0.103197 0.0126375 0)
(-0.112588 0.0128337 0)
(-0.121372 0.0126759 0)
(-0.129145 0.0121768 0)
(-0.135854 0.0114776 1.37579e-22)
(-0.141712 0.0106447 0)
(-0.146821 0.00970077 -6.49507e-19)
(-0.151192 0.00863594 0)
(-0.154821 0.00746635 0)
(-0.157692 0.00620514 3.19885e-19)
(-0.159776 0.00486895 -3.20135e-19)
(-0.161038 0.00347286 4.7882e-23)
(-0.161437 0.00203369 1.6161e-19)
(-0.160951 0.000575429 0)
(-0.159551 -0.000892053 -4.12418e-20)
(-0.157128 -0.00233059 -1.67254e-19)
(-0.153617 -0.00371994 -1.2746e-22)
(-0.148944 -0.00503251 3.468e-19)
(-0.143033 -0.00623738 -3.54177e-19)
(-0.135801 -0.00730247 0)
(-0.127166 -0.00818911 0)
(-0.117033 -0.00886144 0)
(-0.105324 -0.00926956 0)
(-0.0919222 -0.00937849 0)
(-0.0767839 -0.00911881 -1.68373e-18)
(-0.0597228 -0.00846691 0)
(-0.0408412 -0.00732401 1.80778e-18)
(-0.0196954 -0.00567855 1.87286e-18)
(0.00309924 -0.00341769 0)
(0.0286929 -0.000526109 0)
(0.0555683 0.00311905 0)
(0.0862061 0.00746819 0)
(0.117253 0.0128208 4.45299e-18)
(0.153819 0.0189138 0)
(0.188656 0.0263344 0)
(0.2329 0.0344623 -4.84709e-18)
(0.270315 0.0443898 -4.87196e-18)
(0.326185 0.0549899 0)
(0.363051 0.0679315 -9.60669e-18)
(0.439711 0.082072 0)
(0.468979 0.0982315 -8.34944e-18)
(0.588388 0.119253 -4.90852e-18)
(0.591901 0.136103 1.9139e-18)
(0.827494 0.176826 4.73694e-18)
(0.79866 -0.0913488 -3.3605e-19)
(-0.0780408 0.0481048 -5.42127e-18)
(0.0670274 -0.0277219 0)
(-0.0537211 0.0168187 5.1017e-18)
(0.00159918 0.00279218 0)
(-0.0466475 0.0104273 0)
(-0.0277541 0.00624383 0)
(-0.0462028 0.00929772 -3.90918e-18)
(-0.0453112 0.00965082 0)
(-0.0575666 0.0109812 -3.51394e-18)
(-0.0631378 0.0119224 0)
(-0.0720694 0.0121978 0)
(-0.0775558 0.0124165 -1.5424e-18)
(-0.0835706 0.0123233 0)
(-0.0890083 0.012636 0)
(-0.0960435 0.013093 0)
(-0.10415 0.0136182 0)
(-0.112881 0.0137522 0)
(-0.121056 0.013473 0)
(-0.128371 0.012849 1.2719e-18)
(-0.134769 0.0120479 -1.24597e-18)
(-0.140386 0.011128 0)
(-0.14526 0.0101027 -6.08624e-23)
(-0.149405 0.00895828 -5.97359e-19)
(-0.152813 0.00770966 0)
(-0.155467 0.00636839 -5.89698e-19)
(-0.157337 0.00495057 0)
(-0.15839 0.00347084 2.9449e-19)
(-0.158588 0.00194513 -1.47773e-19)
(-0.157899 0.000398265 0)
(-0.156275 -0.00114562 0)
(-0.153625 -0.0026701 1.51656e-19)
(-0.149883 -0.00415001 -1.27841e-22)
(-0.144977 -0.00555721 0)
(-0.138828 -0.00686019 6.36303e-19)
(-0.131355 -0.00802653 0)
(-0.122475 -0.00901676 6.63979e-19)
(-0.112094 -0.00979469 0)
(-0.100131 -0.0103089 0)
(-0.0864711 -0.0105241 0)
(-0.071069 -0.0103683 1.47921e-18)
(-0.05374 -0.0098178 0)
(-0.0345792 -0.0087703 0)
(-0.0131641 -0.00721307 -1.62183e-18)
(0.00995997 -0.00502422 0)
(0.0358647 -0.00220889 0)
(0.0632132 0.00139835 1.7727e-18)
(0.0941993 0.00568545 -1.82679e-18)
(0.125843 0.0110551 -1.87497e-18)
(0.162774 0.0170892 0)
(0.198405 0.0246217 0)
(0.243002 0.0326426 0)
(0.281552 0.0428628 4.00588e-18)
(0.337683 0.0531653 4.0926e-18)
(0.376311 0.0667745 3.91296e-18)
(0.452922 0.0800574 0)
(0.484864 0.0978298 3.3442e-18)
(0.6036 0.116469 7.74998e-18)
(0.611725 0.136656 0)
(0.842212 0.170142 -3.61494e-18)
(0.83649 -0.059934 -2.63413e-19)
(0.0437208 0.0395672 4.98599e-18)
(0.0473187 -0.0205472 -4.69101e-18)
(-0.0748959 0.0221077 0)
(-0.00106572 0.00323138 0)
(-0.0483511 0.0113571 0)
(-0.0296512 0.00688649 0)
(-0.0474335 0.00994715 0)
(-0.0464386 0.0104464 0)
(-0.0581046 0.0116992 3.38816e-18)
(-0.063391 0.0126475 3.21492e-18)
(-0.0720215 0.0128006 0)
(-0.0774776 0.0129668 0)
(-0.0835178 0.0128561 0)
(-0.088947 0.0132454 1.37552e-18)
(-0.0957472 0.0138009 0)
(-0.103403 0.0143832 1.30036e-18)
(-0.111602 0.0144883 -1.26425e-18)
(-0.119324 0.0141271 0)
(-0.126305 0.0134108 -1.19692e-18)
(-0.132455 0.0125288 0)
(-0.137863 0.0115368 -5.7292e-19)
(-0.142538 0.0104431 1.12655e-18)
(-0.146495 0.00923164 5.55605e-19)
(-0.149722 0.00791576 0)
(-0.1522 0.00650568 2.72858e-19)
(-0.153901 0.005017 0)
(-0.154791 0.00346422 2.71186e-19)
(-0.154832 0.00186412 0)
(-0.153986 0.000236875 0)
(-0.152198 -0.00139358 0)
(-0.149388 -0.0030079 1.38276e-19)
(-0.145489 -0.00458239 -5.5938e-19)
(-0.140428 -0.00608922 0)
(-0.134129 -0.00749669 -2.88013e-19)
(-0.126507 -0.00877219 0)
(-0.117481 -0.00987581 -5.97967e-19)
(-0.106956 -0.0107709 0)
(-0.0948524 -0.0114053 0)
(-0.0810536 -0.0117427 0)
(-0.065514 -0.0117103 1.31277e-18)
(-0.0480508 -0.0112815 0)
(-0.0287509 -0.0103552 1.38436e-18)
(-0.00721184 -0.00891142 -1.42236e-18)
(0.0160844 -0.0068307 0)
(0.0421241 -0.00411928 -1.49879e-18)
(0.0697164 -0.000597123 -3.07808e-18)
(0.100831 0.00360339 1.58063e-18)
(0.132785 0.00892124 3.22624e-18)
(0.169815 0.0148825 -3.29431e-18)
(0.205872 0.0224145 -3.33391e-18)
(0.250497 0.0303515 0)
(0.289697 0.0406606 -3.37593e-18)
(0.345691 0.0507892 -3.42554e-18)
(0.385406 0.0646755 -3.22077e-18)
(0.46151 0.0774808 0)
(0.495277 0.0959112 0)
(0.612673 0.113284 -3.11393e-18)
(0.624394 0.134691 0)
(0.848963 0.163562 2.74624e-18)
(0.86151 -0.034472 -2.46471e-19)
(0.153196 0.0356394 -8.98721e-20)
(0.0542716 -0.014767 4.64932e-18)
(-0.0862058 0.0249945 5.04712e-18)
(-0.00339901 0.00314238 0)
(-0.0490297 0.0120857 -4.28281e-18)
(-0.0306847 0.00732153 0)
(-0.0478177 0.0104637 0)
(-0.0467031 0.0110473 0)
(-0.0578335 0.0122906 3.27936e-18)
(-0.0628676 0.01323 -3.10045e-18)
(-0.0712555 0.0133113 0)
(-0.0767022 0.01343 0)
(-0.0827661 0.0133153 0)
(-0.0881679 0.0137679 -1.31514e-18)
(-0.0947298 0.014412 0)
(-0.101966 0.0150471 -1.24049e-18)
(-0.109692 0.0151361 1.20396e-18)
(-0.117017 0.0147108 0)
(-0.123701 0.0139176 0)
(-0.129621 0.0129641 5.52787e-19)
(-0.13483 0.0119057 5.40309e-19)
(-0.139319 0.0107479 -1.05998e-18)
(-0.143099 0.00947321 -5.21603e-19)
(-0.146159 0.00809336 0)
(-0.148477 0.0066174 2.55059e-19)
(-0.150024 0.00506041 0)
(-0.150766 0.00343656 -2.5255e-19)
(-0.150667 0.00176253 1.26172e-19)
(-0.149682 5.69094e-05 0)
(-0.147754 -0.00165834 0)
(-0.14481 -0.00336289 -2.55554e-19)
(-0.140783 -0.00503295 2.57943e-19)
(-0.135598 -0.00664087 0)
(-0.129181 -0.00815493 -2.64319e-19)
(-0.121447 -0.00954238 0)
(-0.112314 -0.010763 5.46293e-19)
(-0.101686 -0.0117797 0)
(-0.0894852 -0.0125397 0)
(-0.0755941 -0.0130056 0)
(-0.0599661 -0.0131042 -1.18973e-18)
(-0.0424205 -0.0128053 -1.21694e-18)
(-0.0230361 -0.0120102 -1.24795e-18)
(-0.00142817 -0.0106905 1.69749e-21)
(0.0219766 -0.00873236 -1.30546e-18)
(0.0480824 -0.00613742 1.33873e-18)
(0.0758222 -0.00272196 2.73504e-18)
(0.106983 0.00137997 0)
(0.139126 0.0066139 -1.42369e-18)
(0.17616 0.0124949 2.89881e-18)
(0.212491 0.0199729 2.92064e-18)
(0.257036 0.0278359 0)
(0.296681 0.0381332 0)
(0.352425 0.04815 0)
(0.392934 0.0621059 2.75898e-18)
(0.468431 0.0746328 0)
(0.503635 0.0932897 0)
(0.619608 0.109905 2.56775e-18)
(0.634375 0.131583 -8.94266e-19)
(0.853353 0.157218 -2.23487e-18)
(0.880293 -0.0137345 -2.28013e-19)
(0.250953 0.0348614 -4.59264e-18)
(0.0816271 -0.00990824 0)
(-0.0884565 0.0268304 -5.02459e-18)
(-0.00567991 0.00283593 -4.52352e-18)
(-0.0492146 0.0126921 2.80944e-22)
(-0.0311919 0.00762455 0)
(-0.04774 0.0109025 0)
(-0.046474 0.0115253 0)
(-0.0571136 0.0128011 -3.18684e-18)
(-0.0619065 0.0137255 0)
(-0.0700805 0.0137669 0)
(-0.0755181 0.0138437 1.36164e-18)
(-0.081598 0.0137305 0)
(-0.0869584 0.0142323 0)
(-0.0932836 0.0149514 0)
(-0.100122 0.0156326 0)
(-0.107406 0.015713 -1.15376e-18)
(-0.114362 0.0152366 0)
(-0.120763 0.0143784 1.08321e-18)
(-0.126459 0.0133605 -5.26462e-19)
(-0.131471 0.0122401 -5.13594e-19)
(-0.135778 0.0110214 1.00548e-18)
(-0.139387 0.00968635 9.87683e-19)
(-0.142285 0.0082451 0)
(-0.144448 0.00670563 -2.40662e-19)
(-0.145848 0.0050825 0)
(-0.146451 0.00338948 0)
(-0.146217 0.00164283 -2.36995e-19)
(-0.145102 -0.000139858 0)
(-0.143047 -0.00193815 0)
(-0.139982 -0.00373165 2.38838e-19)
(-0.13584 -0.00549631 0)
(-0.130548 -0.00720463 0)
(-0.124029 -0.0088249 2.45957e-19)
(-0.116201 -0.0103243 0)
(-0.106981 -0.0116624 -5.06665e-19)
(-0.0962725 -0.0128015 0)
(-0.0839977 -0.0136885 0)
(-0.0700392 -0.0142845 0)
(-0.0543493 -0.0145165 0)
(-0.0367493 -0.0143502 1.11823e-18)
(-0.0173102 -0.0136901 1.14169e-18)
(0.00433705 -0.012499 1.42368e-21)
(0.0278131 -0.0106697 1.19146e-18)
(0.0539478 -0.00819713 1.21501e-18)
(0.0817795 -0.00489876 -1.2404e-18)
(0.112943 -0.000901283 0)
(0.145206 0.0042325 -1.27932e-18)
(0.182198 0.0100294 1.29761e-18)
(0.218713 0.0174253 -2.60333e-18)
(0.263132 0.0252197 0)
(0.303103 0.0354509 0)
(0.358556 0.0453895 -2.58521e-18)
(0.39969 0.0592997 -2.40318e-18)
(0.474562 0.0716606 2.44698e-18)
(0.510968 0.0902995 1.93183e-18)
(0.625549 0.106446 -2.21453e-18)
(0.642976 0.127901 7.61043e-19)
(0.856763 0.151149 0)
(0.895361 0.00500919 -2.04974e-19)
(0.337852 0.0365274 0)
(0.120473 -0.00464978 4.43709e-18)
(-0.078916 0.0276385 4.9604e-18)
(-0.00786815 0.002597 -5.05284e-22)
(-0.0491006 0.0131894 4.18004e-18)
(-0.0313139 0.00783069 0)
(-0.0473537 0.0112823 0)
(-0.0459047 0.0119128 0)
(-0.0560908 0.0132486 1.55489e-18)
(-0.0606438 0.0141577 1.46152e-18)
(-0.068619 0.0141818 0)
(-0.0740401 0.0142228 -1.31929e-18)
(-0.0801265 0.0141129 1.26647e-18)
(-0.0854347 0.0146508 0)
(-0.091527 0.0154308 0)
(-0.097984 0.0161511 0)
(-0.104848 0.0162283 -1.11781e-22)
(-0.111448 0.0157114 0)
(-0.117573 0.0147976 -2.07985e-18)
(-0.123043 0.0137212 5.04603e-19)
(-0.127859 0.0125424 4.91343e-19)
(-0.131984 0.0112656 9.49183e-24)
(-0.135424 0.00987264 -4.70945e-19)
(-0.138161 0.00837216 0)
(-0.140172 0.00677125 0)
(-0.141427 0.00508395 0)
(-0.141893 0.00332361 1.1262e-19)
(-0.141528 0.00150591 2.24492e-19)
(-0.140287 -0.000352465 0)
(-0.13811 -0.00223214 0)
(-0.134931 -0.00411291 -2.25354e-19)
(-0.130683 -0.00597063 -1.13358e-19)
(-0.125292 -0.00777796 0)
(-0.118683 -0.00950325 0)
(-0.110772 -0.0111136 0)
(-0.101476 -0.0125683 0)
(-0.0907009 -0.0138293 0)
(-0.0783669 -0.0148432 0)
(-0.0643567 -0.0155694 0)
(-0.0486221 -0.0159354 0)
(-0.0309859 -0.0159027 0)
(-0.0115116 -0.0153789 -1.09584e-21)
(0.0101556 -0.0143188 1.08231e-18)
(0.0336769 -0.0126216 0)
(0.0598162 -0.0102745 -2.24414e-18)
(0.0877019 -0.00709891 -1.14011e-18)
(0.118841 -0.00320953 0)
(0.151177 0.0018149 1.17366e-18)
(0.188098 0.00752467 -1.18716e-18)
(0.224737 0.0148224 2.37436e-18)
(0.269005 0.0225494 -2.38015e-18)
(0.309219 0.0326833 0)
(0.364368 0.0425603 7.71084e-21)
(0.406007 0.0563584 2.15792e-18)
(0.480264 0.068614 -4.36656e-18)
(0.517705 0.0870932 -1.35627e-20)
(0.630951 0.102933 -1.93231e-18)
(0.650731 0.123898 6.27337e-19)
(0.859695 0.145302 1.59712e-18)
(0.907669 0.0222996 -8.17779e-19)
(0.414791 0.0400881 0)
(0.166669 0.00130121 9.94401e-21)
(-0.0573619 0.0278124 -3.28851e-21)
(-0.00940307 0.00264878 4.5523e-18)
(-0.0487568 0.0135852 4.155e-18)
(-0.0311141 0.00795833 0)
(-0.0467295 0.0116121 3.50941e-18)
(-0.0450696 0.0122272 0)
(-0.0548354 0.0136427 -1.52255e-18)
(-0.0591449 0.014539 7.24479e-23)
(-0.066929 0.0145639 -1.35066e-18)
(-0.0723224 0.014575 0)
(-0.0784052 0.0144686 -2.46152e-18)
(-0.0836529 0.0150304 0)
(-0.0895178 0.015858 0)
(-0.095609 0.0166105 0)
(-0.102069 0.0166887 1.07496e-18)
(-0.108321 0.0161401 0)
(-0.114169 0.0151788 1.00335e-18)
(-0.119413 0.0140489 -9.72277e-19)
(-0.124028 0.0128151 0)
(-0.127971 0.0114827 2.62313e-24)
(-0.131241 0.0100339 0)
(-0.133817 0.00847612 0)
(-0.135676 0.00681558 -2.19009e-19)
(-0.136786 0.00506585 0)
(-0.137115 0.00323986 -2.1513e-19)
(-0.13662 0.00135263 -1.07097e-19)
(-0.135255 -0.000580017 -2.67036e-20)
(-0.13296 -0.00253956 2.67105e-20)
(-0.129671 -0.00450599 1.07173e-19)
(-0.12532 -0.00645521 2.15422e-19)
(-0.119836 -0.00836007 0)
(-0.113142 -0.010189 2.1904e-19)
(-0.105155 -0.011909 0)
(-0.0957929 -0.0134794 0)
(-0.0849597 -0.0148614 0)
(-0.0725765 -0.0160014 4.62954e-19)
(-0.0585259 -0.0168573 0)
(-0.0427588 -0.0173573 0)
(-0.0250996 -0.0174583 9.76975e-19)
(-0.00560445 -0.0170715 -9.96154e-19)
(0.0160681 -0.0161439 0)
(0.0396143 -0.0145806 0)
(0.0657401 -0.012361 1.04872e-18)
(0.0936512 -0.0093115 1.0643e-18)
(0.124746 -0.00553262 -1.07781e-18)
(0.15712 -0.000623317 0)
(0.193952 0.00499709 0)
(0.230667 0.0121863 0)
(0.27477 0.0198463 5.36765e-21)
(0.315163 0.029863 0)
(0.370004 0.0396877 2.13173e-18)
(0.412056 0.0533317 0)
(0.485718 0.0655189 1.98207e-18)
(0.52406 0.0837481 -1.53911e-18)
(0.636037 0.0993827 3.47238e-18)
(0.657911 0.119701 -5.60324e-19)
(0.862372 0.139649 -1.42438e-18)
(0.917704 0.0379317 1.70983e-19)
(0.48265 0.0450071 -4.00913e-18)
(0.217452 0.00791171 -4.19069e-18)
(-0.0268042 0.0281309 -3.27966e-21)
(-0.00910448 0.00314561 -4.56735e-18)
(-0.0481644 0.0139079 -4.14994e-18)
(-0.0306155 0.00801857 0)
(-0.0458996 0.0118973 -3.46983e-18)
(-0.044007 0.0124788 0)
(-0.0533838 0.0139896 -1.49596e-18)
(-0.0574442 0.0148765 -1.39905e-18)
(-0.0650406 0.0149173 1.32129e-18)
(-0.0703931 0.0149041 -1.25408e-18)
(-0.0764622 0.014801 1.20064e-18)
(-0.0816425 0.0153758 -1.15598e-18)
(-0.0872866 0.0162383 1.11775e-18)
(-0.0930263 0.0170164 0)
(-0.0990956 0.0170985 0)
(-0.105004 0.016526 0)
(-0.110574 0.0155242 4.86125e-19)
(-0.115587 0.0143456 4.70449e-19)
(-0.119999 0.0130597 0)
(-0.123756 0.0116741 -4.45339e-19)
(-0.126854 0.0101714 0)
(-0.129267 0.00855796 0)
(-0.130973 0.0068394 2.10783e-19)
(-0.131937 0.00502882 -2.08363e-19)
(-0.132128 0.00313867 1.03338e-19)
(-0.131502 0.00118335 0)
(-0.130013 -0.000822191 5.12186e-20)
(-0.127601 -0.00286013 -5.11882e-20)
(-0.124204 -0.00491066 0)
(-0.119754 -0.00694984 -1.03035e-19)
(-0.11418 -0.00895073 2.07348e-19)
(-0.107405 -0.0108819 -2.09228e-19)
(-0.0993473 -0.0127102 0)
(-0.0899239 -0.014395 0)
(-0.0790393 -0.0158968 0)
(-0.0666146 -0.0171621 -4.40699e-19)
(-0.0525321 -0.0181471 0)
(-0.0367422 -0.0187805 0)
(-0.0190703 -0.0190152 -9.27338e-19)
(0.000434298 -0.0187654 0)
(0.0221003 -0.0179714 9.58267e-19)
(0.0456543 -0.0165431 -9.72842e-19)
(0.071752 -0.014452 0)
(0.0996654 -0.0115309 1.00076e-18)
(0.1307 -0.00786417 2.02759e-18)
(0.163082 -0.00307388 -1.01965e-18)
(0.19981 0.00245537 0)
(0.236565 0.00952903 0)
(0.280491 0.0171216 1.02483e-18)
(0.321013 0.0270073 0)
(0.375544 0.0367857 1.9671e-18)
(0.417936 0.0502462 0)
(0.491023 0.0623895 1.81314e-18)
(0.530154 0.0803067 1.39122e-18)
(0.640924 0.0958035 -1.5841e-18)
(0.66467 0.115376 0)
(0.864911 0.134165 1.27046e-18)
(0.925876 0.0519117 1.16567e-19)
(0.542272 0.0508343 7.39866e-20)
(0.270653 0.0150684 4.09688e-18)
(0.0107768 0.0290804 -3.44682e-21)
(-0.00582372 0.00417594 -5.939e-22)
(-0.0471979 0.0142094 0)
(-0.0298136 0.00802033 0)
(-0.0448742 0.0121412 0)
(-0.0427347 0.0126742 -1.58058e-18)
(-0.0517544 0.0142932 2.94829e-18)
(-0.0555596 0.0151743 0)
(-0.0629694 0.0152442 1.29688e-18)
(-0.0682668 0.0152123 -4.65018e-23)
(-0.0743121 0.0151121 -1.17528e-18)
(-0.0794195 0.0156898 -4.24568e-23)
(-0.0848502 0.0165755 -1.09141e-18)
(-0.0902524 0.0173726 0)
(-0.0959423 0.0174607 0)
(-0.10151 0.0168709 0)
(-0.1068 0.0158351 -4.72732e-19)
(-0.111577 0.0146121 0)
(-0.115783 0.0132772 4.43377e-19)
(-0.119351 0.0118404 4.31729e-19)
(-0.122272 0.0102856 -4.21978e-19)
(-0.124521 0.00861814 0)
(-0.12607 0.00684306 0)
(-0.126887 0.00497307 2.01323e-19)
(-0.126938 0.00302018 0)
(-0.126181 0.000998134 9.91325e-20)
(-0.124566 -0.00107893 -2.46881e-20)
(-0.122038 -0.00319379 2.46559e-20)
(-0.118532 -0.00532687 -9.87167e-20)
(-0.113985 -0.00745447 0)
(-0.108322 -0.00954983 -1.99373e-19)
(-0.101469 -0.0115817 0)
(-0.0933433 -0.0135169 0)
(-0.083863 -0.0153147 4.10413e-19)
(-0.072932 -0.0169351 0)
(-0.0604717 -0.0183246 0)
(-0.0463642 -0.0194377 0)
(-0.0305592 -0.0202038 0)
(-0.0128834 -0.020572 0)
(0.00662079 -0.0204589 0)
(0.0282697 -0.019799 -1.82738e-18)
(0.0518168 -0.0185063 9.27132e-19)
(0.0778736 -0.0165445 9.3938e-19)
(0.10577 -0.013753 -1.90153e-18)
(0.136731 -0.0101998 -9.61674e-19)
(0.169097 -0.00553121 9.66403e-19)
(0.205708 -9.46223e-05 -9.69604e-19)
(0.24247 0.00685842 0)
(0.286211 0.0143829 2.12784e-21)
(0.326818 0.0241276 -1.85504e-18)
(0.38104 0.0338627 -1.84554e-18)
(0.423708 0.0471187 -1.67527e-18)
(0.49624 0.0592344 -3.37645e-18)
(0.536065 0.0767949 -1.29219e-18)
(0.645684 0.0922018 1.45039e-18)
(0.671105 0.110964 4.30782e-19)
(0.867377 0.128834 -1.16983e-18)
(0.932555 0.0644421 -1.49135e-19)
(0.594462 0.0572258 3.82943e-18)
(0.324582 0.022646 2.39535e-21)
(0.0545251 0.0307302 -3.82652e-21)
(0.00148598 0.00607768 4.50022e-18)
(-0.0455666 0.0145599 4.19566e-18)
(-0.0286755 0.00797502 -3.74107e-18)
(-0.0436466 0.0123466 1.71205e-18)
(-0.0412572 0.0128175 -5.78547e-23)
(-0.0499544 0.0145559 -1.45675e-18)
(-0.0534993 0.0154347 -1.35625e-18)
(-0.0607224 0.0155457 -1.27649e-18)
(-0.0659504 0.0155002 2.41605e-18)
(-0.0719618 0.0154028 -4.42712e-23)
(-0.0769917 0.0159744 1.10807e-18)
(-0.0822171 0.0168723 0)
(-0.0872956 0.0176819 1.03147e-18)
(-0.0926173 0.0177774 0)
(-0.097848 0.017176 -9.573e-19)
(-0.102854 0.0161121 -4.61218e-19)
(-0.107391 0.0148489 -4.45482e-19)
(-0.111385 0.0134678 2.80389e-25)
(-0.11476 0.011982 -4.20067e-19)
(-0.117502 0.0103768 4.10251e-19)
(-0.119582 0.00865682 0)
(-0.120972 0.00682665 -1.97809e-19)
(-0.121639 0.00489863 0)
(-0.121547 0.00288436 0)
(-0.120656 0.000796912 -9.60596e-20)
(-0.118915 -0.0013503 0)
(-0.116269 -0.0035406 0)
(-0.112655 -0.00575469 9.54907e-20)
(-0.108009 -0.00796912 0)
(-0.102259 -0.0101574 0)
(-0.0953298 -0.0122883 1.93923e-19)
(-0.0871386 -0.0143289 0)
(-0.0776044 -0.0162382 -3.95914e-19)
(-0.066631 -0.0179759 0)
(-0.05414 -0.0194884 4.06198e-19)
(-0.0400133 -0.0207285 0)
(-0.0242 -0.0216264 0)
(-0.0065279 -0.0221274 0)
(0.0129671 -0.0221507 0)
(0.0345894 -0.021625 8.76681e-19)
(0.0581161 -0.0204681 0)
(0.0841206 -0.0186358 -1.79933e-18)
(0.111982 -0.0159749 9.09443e-19)
(0.142858 -0.0125361 -9.16909e-19)
(0.175185 -0.0079912 9.19806e-19)
(0.211667 -0.00264864 9.24321e-19)
(0.24841 0.00418001 0)
(0.291956 0.0116353 9.11472e-19)
(0.332612 0.0212314 2.6358e-18)
(0.386524 0.030925 -1.73637e-18)
(0.429414 0.0439604 1.58084e-18)
(0.501408 0.0560593 1.58651e-18)
(0.541844 0.07323 0)
(0.650363 0.0885817 -1.35773e-18)
(0.677283 0.106493 -7.91657e-19)
(0.869812 0.123642 0)
(0.938053 0.0757256 4.77385e-19)
(0.639975 0.0639159 0)
(0.37791 0.0305212 1.24544e-22)
(0.102616 0.0332457 -4.32295e-21)
(0.0156133 0.00843987 -4.4218e-18)
(-0.0427003 0.0150626 -8.46816e-18)
(-0.0271289 0.00790301 7.51689e-18)
(-0.0421941 0.0125158 -1.70853e-18)
(-0.0395679 0.0129121 1.55718e-18)
(-0.0479825 0.0147796 0)
(-0.0512641 0.0156591 -4.82146e-23)
(-0.0583007 0.0158221 0)
(-0.063445 0.0157682 -2.38113e-18)
(-0.069413 0.0156736 1.13572e-18)
(-0.0743616 0.0162312 0)
(-0.0793903 0.0171312 0)
(-0.0841592 0.0179468 -1.01168e-18)
(-0.0891236 0.0180503 0)
(-0.0940197 0.0174421 9.37304e-19)
(-0.0987391 0.0163555 4.51233e-19)
(-0.103031 0.0150561 -4.90669e-24)
(-0.106808 0.0136318 -4.21762e-19)
(-0.109985 0.012099 -4.10003e-19)
(-0.112544 0.0104451 0)
(-0.114452 0.00867401 0)
(-0.11568 0.00679012 1.92706e-19)
(-0.116193 0.0048054 0)
(-0.115956 0.00273108 9.40931e-20)
(-0.114928 0.000579535 -9.33959e-20)
(-0.113059 -0.00163646 2.32273e-20)
(-0.110294 -0.00390072 -2.31701e-20)
(-0.106571 -0.00619425 9.26904e-20)
(-0.101826 -0.00849391 -9.29239e-20)
(-0.0959888 -0.0107734 1.86735e-19)
(-0.0889837 -0.0130019 -1.88084e-19)
(-0.0807286 -0.0151461 0)
(-0.0711428 -0.0171654 0)
(-0.0601303 -0.0190189 0)
(-0.0476127 -0.0206529 -1.9721e-22)
(-0.0334719 -0.0220188 3.98666e-19)
(-0.0176562 -0.0230474 0)
(5.33903e-06 -0.0236806 0)
(0.019483 -0.0238395 0)
(0.0410695 -0.023448 0)
(0.0645636 -0.0224268 0)
(0.0905049 -0.0207242 8.26225e-22)
(0.118315 -0.0181943 0)
(0.149094 -0.0148706 1.76242e-18)
(0.181363 -0.0104508 -1.76574e-18)
(0.217706 -0.00520349 -8.83909e-19)
(0.254403 0.00149789 0)
(0.297748 0.0088826 0)
(0.338417 0.0183244 -1.67252e-18)
(0.39202 0.0279767 4.46282e-21)
(0.435083 0.0407793 -1.49136e-18)
(0.506554 0.0528685 1.49401e-18)
(0.547525 0.0696242 1.12231e-18)
(0.65499 0.0849462 -1.26724e-18)
(0.683252 0.101981 7.24731e-19)
(0.872243 0.118575 1.00104e-18)
(0.942621 0.0859117 1.31896e-19)
(0.679518 0.0706954 -3.55777e-18)
(0.429622 0.0385789 -7.70521e-18)
(0.153597 0.0366815 -4.9502e-21)
(0.036656 0.0112297 4.32899e-18)
(-0.0375638 0.0158542 4.26424e-18)
(-0.0250359 0.00784378 -1.89341e-18)
(-0.0404745 0.0126529 0)
(-0.0376492 0.0129606 0)
(-0.04583 0.0149654 1.43405e-18)
(-0.0488493 0.0158483 1.32877e-18)
(-0.0557008 0.0160732 0)
(-0.060748 0.0160159 1.17621e-18)
(-0.0666636 0.0159247 0)
(-0.0715278 0.0164613 0)
(-0.0763688 0.017354 0)
(-0.0808424 0.0181693 0)
(-0.0854607 0.0182807 9.57066e-19)
(-0.0900254 0.0176699 4.60018e-19)
(-0.0944557 0.0165654 -4.42607e-19)
(-0.0984979 0.0152338 -2.75667e-24)
(-0.102053 0.013769 0)
(-0.105028 0.0121914 4.01329e-19)
(-0.1074 0.0104903 0)
(-0.109131 0.00866961 0)
(-0.110193 0.00673333 1.8827e-19)
(-0.110549 0.00469322 -1.85659e-19)
(-0.110164 0.00256013 -9.1863e-20)
(-0.108997 0.000345798 9.11361e-20)
(-0.106997 -0.00193761 -4.53062e-20)
(-0.10411 -0.00427435 4.51753e-20)
(-0.100277 -0.00664575 -9.03348e-20)
(-0.0954328 -0.009029 9.05276e-20)
(-0.0895073 -0.0113981 -5.6071e-23)
(-0.0824267 -0.0137223 -1.82971e-19)
(-0.0741088 -0.0159686 0)
(-0.0644734 -0.0180962 0)
(-0.0534243 -0.0200639 0)
(-0.0408837 -0.0218179 -7.63944e-19)
(-0.0267333 -0.0233083 -3.87367e-19)
(-0.0109207 -0.0244664 0)
(0.00672389 -0.0252309 0)
(0.0261762 -0.0255247 -8.07544e-19)
(0.0477186 -0.025267 0)
(0.0711683 -0.0243812 0)
(0.097036 -0.0228081 1.67538e-18)
(0.124781 -0.0204094 -8.44169e-19)
(0.155451 -0.0172014 -1.7014e-18)
(0.187644 -0.0129077 1.10591e-21)
(0.223836 -0.00775673 1.70372e-18)
(0.260465 -0.00118484 8.39936e-19)
(0.303599 0.00612788 0)
(0.344252 0.0154108 8.02078e-19)
(0.397544 0.0250211 1.58253e-18)
(0.440738 0.0375814 1.42689e-18)
(0.511697 0.049665 -1.42702e-18)
(0.553136 0.0659865 -1.06874e-18)
(0.659587 0.081298 1.20482e-18)
(0.689046 0.0974425 -3.38736e-19)
(0.874687 0.113623 -9.48435e-19)
(0.946467 0.0951222 1.24656e-19)
(0.713754 0.0774045 3.52721e-18)
(0.47896 0.0467088 3.65572e-21)
(0.206293 0.0409893 -5.65553e-21)
(0.0637071 0.0147248 0)
(-0.0285376 0.0168694 0)
(-0.0221489 0.0078653 2.58517e-22)
(-0.0384187 0.0127653 0)
(-0.0354712 0.0129661 0)
(-0.0434803 0.0151148 5.89596e-23)
(-0.0462445 0.0160025 0)
(-0.0529149 0.0162987 0)
(-0.0578533 0.0162428 1.16469e-18)
(-0.0637083 0.0161561 0)
(-0.0684857 0.0166658 0)
(-0.0731486 0.0175425 0)
(-0.0773413 0.0183513 0)
(-0.0816254 0.0184699 1.4958e-23)
(-0.0858625 0.0178599 -4.5254e-19)
(-0.0900018 0.016742 8.70271e-19)
(-0.0937895 0.0153819 -1.51179e-24)
(-0.0971177 0.0138793 4.0562e-19)
(-0.099887 0.0122589 0)
(-0.102067 0.0105124 3.83853e-19)
(-0.103618 0.00864346 0)
(-0.104509 0.0066561 -1.84473e-19)
(-0.104705 0.00456186 2.2243e-23)
(-0.104169 0.00237127 0)
(-0.102859 9.54521e-05 0)
(-0.100726 -0.00225399 4.29216e-24)
(-0.0977156 -0.00466173 -4.80382e-24)
(-0.0937699 -0.00710943 4.41318e-20)
(-0.088825 -0.00957463 0)
(-0.082811 -0.0120316 -1.77603e-19)
(-0.0756549 -0.0144499 1.78697e-19)
(-0.0672748 -0.0167964 0)
(-0.0575911 -0.0190307 -3.63671e-19)
(-0.0465078 -0.0211108 0)
(-0.0339474 -0.0229834 1.62237e-22)
(-0.0197914 -0.0245967 0)
(-0.00398699 -0.0258831 3.82613e-19)
(0.0136344 -0.0267779 3.87858e-19)
(0.0330537 -0.0272055 4.80608e-22)
(0.0545437 -0.027081 -7.9578e-19)
(0.077938 -0.0263302 0)
(0.103722 -0.0248863 -6.78086e-22)
(0.131388 -0.0226188 8.20073e-19)
(0.161938 -0.0195268 8.72349e-22)
(0.194037 -0.0153599 8.25045e-19)
(0.230067 -0.0103064 -1.13426e-21)
(0.266607 -0.00386573 -1.33674e-21)
(0.309522 0.00337341 0)
(0.350131 0.0124938 0)
(0.403109 0.022061 0)
(0.446393 0.0343712 0)
(0.516851 0.0464515 0)
(0.558695 0.062324 1.01073e-18)
(0.664167 0.0776391 0)
(0.694695 0.0928866 0)
(0.877156 0.108779 -8.92414e-19)
(0.949759 0.10347 -5.57306e-19)
(0.743304 0.0839281 0)
(0.525383 0.0548039 5.14672e-21)
(0.259712 0.0460637 -6.38205e-21)
(0.0961644 0.0189771 0)
(-0.0142771 0.0181555 2.1137e-18)
(-0.0180571 0.00805481 -1.93253e-18)
(-0.0359169 0.0128675 0)
(-0.0329892 0.0129324 0)
(-0.0409083 0.0152292 -1.42591e-18)
(-0.0434336 0.0161221 0)
(-0.0499311 0.016498 0)
(-0.0547513 0.0164482 -1.15566e-18)
(-0.0605387 0.0163674 0)
(-0.0652278 0.0168452 -1.04936e-18)
(-0.0697226 0.0176984 0)
(-0.0736497 0.0184943 0)
(-0.0776119 0.018619 1.27297e-23)
(-0.0815262 0.0180124 0)
(-0.0853734 0.0168853 -4.28696e-19)
(-0.0889029 0.0155002 4.12946e-19)
(-0.0920002 0.0139627 -7.98318e-19)
(-0.0945585 0.0123015 3.87318e-19)
(-0.0965424 0.0105111 -3.77352e-19)
(-0.0979093 0.00859534 0)
(-0.0986271 0.00655819 -1.81156e-19)
(-0.0986586 0.00441108 3.57012e-19)
(-0.0979676 0.00216425 0)
(-0.0965117 -0.000171774 -4.37284e-20)
(-0.0942424 -0.00258589 2.17278e-20)
(-0.0911067 -0.00506314 -2.16497e-20)
(-0.0870465 -0.00758556 -4.32575e-20)
(-0.0819993 -0.010131 0)
(-0.0758958 -0.0126741 -1.73893e-19)
(-0.0686638 -0.0151847 1.74912e-19)
(-0.0602219 -0.0176297 0)
(-0.0504911 -0.0199688 3.56012e-19)
(-0.0393757 -0.0221597 0)
(-0.0267984 -0.024149 3.64328e-19)
(-0.0126408 -0.0258838 0)
(0.00315068 -0.027297 -3.74076e-19)
(0.0207429 -0.0283209 -3.79001e-19)
(0.0401218 -0.0288814 4.37235e-22)
(0.0615512 -0.0288894 7.771e-19)
(0.0848794 -0.028273 0)
(0.11057 -0.0269577 -7.9349e-19)
(0.138143 -0.0248213 0)
(0.168563 -0.0218456 8.03301e-19)
(0.200552 -0.0178059 0)
(0.236409 -0.0128508 -8.01191e-19)
(0.272839 -0.00654279 -1.57601e-18)
(0.315525 0.000621136 0)
(0.356064 0.00957603 0)
(0.408724 0.0190983 0)
(0.452061 0.0311524 6.5643e-19)
(0.522027 0.0432299 0)
(0.564218 0.0586419 -5.85564e-21)
(0.668743 0.0739716 0)
(0.700219 0.0883217 2.88302e-19)
(0.879661 0.104033 8.5589e-19)
(0.952638 0.11106 0)
(0.768745 0.0901872 3.32663e-18)
(0.56853 0.0627648 3.6789e-18)
(0.312987 0.0517696 -7.07755e-21)
(0.13328 0.0239346 0)
(0.00558251 0.0198392 -2.08338e-18)
(-0.0121785 0.00850588 0)
(-0.0327949 0.0129847 1.74444e-18)
(-0.0301379 0.0128659 1.56273e-18)
(-0.0380779 0.0153105 1.42721e-18)
(-0.0403938 0.0162075 1.31196e-18)
(-0.0467327 0.0166706 1.22337e-18)
(-0.0514289 0.0166314 0)
(-0.0571437 0.0165586 0)
(-0.061744 0.0170005 1.04044e-18)
(-0.0660812 0.017823 0)
(-0.0697584 0.0186001 0)
(-0.0734122 0.0187291 -9.18629e-19)
(-0.0770096 0.018128 0)
(-0.0805647 0.0169952 -4.23185e-19)
(-0.083833 0.0155886 0)
(-0.0866954 0.0140188 3.93602e-19)
(-0.0890388 0.0123189 -3.8174e-19)
(-0.0908226 0.0104863 0)
(-0.0920016 0.00852502 0)
(-0.0925419 0.00643936 1.60143e-23)
(-0.0924056 0.00424063 -1.75646e-19)
(-0.0915564 0.0019388 0)
(-0.0899516 -0.000456166 4.30003e-20)
(-0.0875433 -0.00293358 2.1352e-20)
(-0.0842794 -0.00547888 -2.12686e-20)
(-0.0801027 -0.00807443 0)
(-0.0749515 -0.0106985 0)
(-0.0687575 -0.013326 4.36103e-23)
(-0.0614491 -0.015927 -4.75962e-23)
(-0.0529457 -0.0184686 0)
(-0.0431688 -0.0209107 0)
(-0.032023 -0.0232105 3.52946e-19)
(-0.0194316 -0.0253149 0)
(-0.0052761 -0.0271696 0)
(0.0104978 -0.0287079 0)
(0.028055 -0.0298598 0)
(0.0473861 -0.0305518 7.51594e-19)
(0.0687469 -0.0306916 7.60204e-19)
(0.0919987 -0.0302086 0)
(0.117585 -0.0290216 0)
(0.145053 -0.0270158 7.80058e-19)
(0.175331 -0.0241566 0)
(0.207195 -0.0202444 0)
(0.242867 -0.0153886 -7.80109e-19)