/*--------------------------------*- C++ -*----------------------------------*\
| =========                 |                                                 |
| \\      /  F ield         | OpenFOAM: The Open Source CFD Toolbox           |
|  \\    /   O peration     | Version:  2.4.0                                 |
|   \\  /    A nd           | Web:      www.OpenFOAM.org                      |
|    \\/     M anipulation  |                                                 |
\*---------------------------------------------------------------------------*/
FoamFile
{
    version     2.0;
    format      ascii;
    class       volVectorField;
    location    "1.39";
    object      UMean;
}
// * * * * * * * * * * * * * * * * * * * * * * * * * * * * * * * * * * * * * //

dimensions      [0 1 -1 0 0 0 0];

internalField   nonuniform List<vector> 
2320
(
(0.803235 0.00112862 0)
(1.12194 -0.00105517 0)
(0.788198 -0.00309544 0)
(1.13358 -0.0051113 0)
(0.780956 -0.00286233 0)
(1.14104 -0.00448871 0)
(0.770849 -0.0039912 0)
(1.14862 -0.00840045 0)
(0.766993 -0.00540061 0)
(1.15444 -0.00806256 0)
(0.759331 -0.00548405 0)
(1.16277 -0.0101499 0)
(0.753238 -0.00804339 0)
(1.17563 -0.0114925 0)
(0.742577 -0.0126552 0)
(1.1972 -0.0160978 0)
(0.742379 -0.0152103 0)
(1.21991 -0.0259736 0)
(0.762413 -0.020166 0)
(1.25642 -0.0342355 0)
(0.936388 0.00088564 0)
(0.986024 0.0021161 0)
(0.94212 0.00142525 0)
(0.990022 2.45385e-05 0)
(0.943232 0.00386082 0)
(0.993009 -0.000547705 0)
(0.944947 0.00575249 0)
(0.998528 0.000240856 0)
(0.949893 0.00745203 0)
(1.00102 1.05757e-05 0)
(0.956906 0.00802111 0)
(1.00802 -0.00116338 0)
(0.960397 0.0104285 0)
(1.01027 -0.00135697 0)
(0.97031 0.0134566 0)
(1.01544 -0.00581203 0)
(0.990638 0.0168747 0)
(1.02522 -0.0109506 0)
(1.0178 0.0179078 0)
(1.06075 -0.0136306 0)
(0.979698 0.00615628 0)
(0.939339 -0.00529759 0)
(0.988124 0.00454468 0)
(0.940065 -0.00917789 0)
(0.99068 0.00551907 0)
(0.940552 -0.0105554 0)
(0.996055 0.00605083 0)
(0.943831 -0.0139819 0)
(1.00258 0.00533521 0)
(0.946839 -0.0166329 0)
(1.01086 0.00754963 0)
(0.945236 -0.0178746 0)
(1.0203 0.00930548 0)
(0.944591 -0.0245697 0)
(1.03019 0.00836179 0)
(0.945035 -0.0355766 0)
(1.04333 0.00814809 0)
(0.953862 -0.0486933 0)
(1.06657 -0.00182063 0)
(0.984738 -0.06859 0)
(0.995358 0.00638687 0)
(0.92385 -0.00620145 0)
(1.00214 0.00701591 0)
(0.924483 -0.00924499 0)
(1.00892 0.00793579 0)
(0.926422 -0.0108597 0)
(1.01774 0.00970043 0)
(0.927182 -0.0142049 0)
(1.02426 0.0120202 0)
(0.930919 -0.0162272 0)
(1.03162 0.0157 0)
(0.934675 -0.0201694 0)
(1.04266 0.019686 0)
(0.945216 -0.0247472 0)
(1.05422 0.0239556 0)
(0.959731 -0.0348865 0)
(1.07367 0.0238584 0)
(0.986959 -0.0497202 0)
(1.10398 0.0152049 0)
(1.02681 -0.0699672 0)
(0.990006 0.0127641 0)
(0.92934 -0.0132608 0)
(0.994215 0.0118674 0)
(0.929843 -0.0186427 0)
(0.999748 0.0127329 0)
(0.930678 -0.0199096 0)
(1.00229 0.0149115 0)
(0.929346 -0.0234699 0)
(1.00564 0.0158377 0)
(0.930583 -0.0271382 0)
(1.01162 0.0181727 0)
(0.932156 -0.0322649 0)
(1.01845 0.0203321 0)
(0.934329 -0.0408346 0)
(1.02752 0.0202279 0)
(0.944434 -0.056272 0)
(1.03803 0.0181331 0)
(0.963364 -0.0774409 0)
(1.05461 0.0070457 0)
(1.00042 -0.109911 0)
(0.993448 0.011374 0)
(0.92994 -0.0135203 0)
(0.99801 0.00876044 0)
(0.927536 -0.0182709 0)
(0.999467 0.00905482 0)
(0.928647 -0.0194836 0)
(1.00382 0.0121568 0)
(0.93511 -0.0240253 0)
(1.01079 0.012885 0)
(0.937941 -0.0288513 0)
(1.01881 0.0178375 0)
(0.93999 -0.0332891 0)
(1.03012 0.0207879 0)
(0.944049 -0.0412294 0)
(1.04553 0.0230984 0)
(0.948271 -0.0568531 0)
(1.06988 0.0202959 0)
(0.959548 -0.0790561 0)
(1.10249 0.00578093 0)
(0.984271 -0.110305 0)
(0.970091 0.0175075 0)
(0.955934 -0.018139 0)
(0.97525 0.0188868 0)
(0.954318 -0.021956 0)
(0.975836 0.0185223 0)
(0.952959 -0.0259526 0)
(0.984705 0.0197254 0)
(0.96316 -0.0306598 0)
(0.992242 0.0234335 0)
(0.965971 -0.0353266 0)
(0.998703 0.0269115 0)
(0.97391 -0.0430907 0)
(1.00852 0.0302162 0)
(0.982364 -0.0540242 0)
(1.02183 0.0310259 0)
(0.993077 -0.0735729 0)
(1.04229 0.0272985 0)
(1.0066 -0.0995725 0)
(1.07721 0.0106469 0)
(1.02697 -0.140881 0)
(0.962086 0.0117441 0)
(0.965674 -0.0162045 0)
(0.971218 0.0110644 0)
(0.968363 -0.0197074 0)
(0.980785 0.00888536 0)
(0.970657 -0.0246925 0)
(0.989858 0.00767352 0)
(0.970839 -0.0293047 0)
(0.998378 0.0112983 0)
(0.974026 -0.0339249 0)
(1.00957 0.0136079 0)
(0.977698 -0.0408447 0)
(1.02173 0.0158931 0)
(0.985175 -0.0520214 0)
(1.03572 0.0176417 0)
(0.99369 -0.0726103 0)
(1.05112 0.0141485 0)
(1.00792 -0.103636 0)
(1.07665 0.000292897 0)
(1.02537 -0.151049 0)
(0.951649 0.0188301 0)
(0.978099 -0.0239149 0)
(0.959744 0.0194924 0)
(0.983453 -0.0278226 0)
(0.969682 0.0191468 0)
(0.987058 -0.0321096 0)
(0.978366 0.0205116 0)
(0.989699 -0.0354301 0)
(0.988503 0.0228142 0)
(0.99531 -0.0408504 0)
(0.998016 0.0256563 0)
(1.00054 -0.0463487 0)
(1.00601 0.0260188 0)
(1.00916 -0.0568094 0)
(1.01532 0.0251273 0)
(1.02054 -0.0761622 0)
(1.02714 0.017023 0)
(1.03402 -0.108648 0)
(1.04937 -0.00191567 0)
(1.05124 -0.16513 0)
(0.944272 0.00846789 0)
(0.984727 -0.0157327 0)
(0.949514 0.00492517 0)
(0.987126 -0.0206186 0)
(0.957223 0.00263875 0)
(0.991403 -0.0232466 0)
(0.966732 0.00198102 0)
(0.999133 -0.0265391 0)
(0.979464 0.00192654 0)
(1.00587 -0.0301764 0)
(0.987048 0.00355702 0)
(1.01013 -0.0354081 0)
(0.996986 0.0020076 0)
(1.01309 -0.0454645 0)
(1.00417 0.00106495 0)
(1.02285 -0.0641146 0)
(1.00945 -0.00365671 0)
(1.03338 -0.0983586 0)
(1.00916 -0.0146987 0)
(1.04957 -0.163262 0)
(0.944965 0.0183158 0)
(0.987934 -0.0257695 0)
(0.944743 0.0156548 0)
(0.989027 -0.0317318 0)
(0.948648 0.014009 0)
(0.991778 -0.0365738 0)
(0.961132 0.0126516 0)
(0.999445 -0.0399291 0)
(0.973074 0.0145842 0)
(1.00189 -0.0419648 0)
(0.977457 0.0175298 0)
(1.00377 -0.0467858 0)
(0.97885 0.0180319 0)
(1.00318 -0.0549216 0)
(0.983605 0.0111776 0)
(1.00666 -0.0709057 0)
(0.989212 -6.55852e-05 0)
(1.00435 -0.0993203 0)
(1.00229 -0.0267033 0)
(0.994809 -0.153874 0)
(0.95691 0.00228984 0)
(0.974988 -0.0076956 0)
(0.954849 -0.00169121 0)
(0.983258 -0.0141459 0)
(0.953172 -0.00527794 0)
(0.995463 -0.0196825 0)
(0.959754 -0.00972128 0)
(1.00595 -0.0198065 0)
(0.962554 -0.00958557 0)
(1.01352 -0.019173 0)
(0.962918 -0.0100228 0)
(1.02147 -0.0213407 0)
(0.955616 -0.0126079 0)
(1.0327 -0.0292092 0)
(0.948246 -0.0193901 0)
(1.04445 -0.041808 0)
(0.931516 -0.0256441 0)
(1.05309 -0.0743235 0)
(0.909304 -0.033359 0)
(1.05274 -0.153954 0)
(0.985093 0.0161148 0)
(0.944412 -0.0227244 0)
(0.990508 0.00943237 0)
(0.945881 -0.0315369 0)
(0.992752 0.00604433 0)
(0.956976 -0.0380537 0)
(0.99711 0.00348002 0)
(0.967581 -0.0392072 0)
(1.00083 0.00619916 0)
(0.976684 -0.0386793 0)
(1.00275 0.00896921 0)
(0.982461 -0.0402713 0)
(0.996918 0.00663836 0)
(0.989714 -0.0487813 0)
(0.9867 -0.00345475 0)
(1.0041 -0.0587742 0)
(0.964762 -0.0159933 0)
(1.0216 -0.0849946 0)
(0.905792 -0.0369461 0)
(1.04142 -0.166931 0)
(0.982614 -0.00218354 0)
(0.945363 -0.00312619 0)
(0.985673 -0.00980012 0)
(0.942591 -0.00936449 0)
(0.987925 -0.0176035 0)
(0.951809 -0.0144312 0)
(0.996024 -0.0237682 0)
(0.963325 -0.0114202 0)
(1.00511 -0.0251453 0)
(0.969795 -0.00737005 0)
(1.00807 -0.026199 0)
(0.966968 -0.00291827 0)
(1.00403 -0.0313151 0)
(0.965398 -0.00364222 0)
(1.004 -0.0457898 0)
(0.973589 -0.00222731 0)
(0.9986 -0.0634822 0)
(0.980486 -0.00523044 0)
(0.962484 -0.0819119 0)
(0.981012 -0.0376359 0)
(0.995479 0.0163582 0)
(0.934327 -0.0226722 0)
(0.999212 0.0105348 0)
(0.932137 -0.0318434 0)
(1.00309 0.00229246 0)
(0.944245 -0.0422401 0)
(1.0142 -0.00167392 0)
(0.959975 -0.0437668 0)
(1.02531 0.00222685 0)
(0.965469 -0.0399411 0)
(1.02801 0.00928509 0)
(0.960165 -0.0409358 0)
(1.0292 0.00602906 0)
(0.958559 -0.0532935 0)
(1.03071 -0.00847536 0)
(0.969791 -0.0584973 0)
(1.02154 -0.0237752 0)
(0.98849 -0.0622581 0)
(0.985035 -0.0473588 0)
(1.01274 -0.104558 0)
(0.985768 -0.00647927 0)
(0.943394 0.00160951 0)
(0.989333 -0.0151299 0)
(0.940185 -0.00582371 0)
(0.996835 -0.0301647 0)
(0.950006 -0.0142456 0)
(1.01179 -0.0387451 0)
(0.964668 -0.00869489 0)
(1.01753 -0.0377498 0)
(0.968534 0.00368474 0)
(1.017 -0.0329229 0)
(0.95786 0.0106134 0)
(1.0206 -0.0407491 0)
(0.932057 0.0118206 0)
(1.02955 -0.0660279 0)
(0.916096 0.0255388 0)
(1.03632 -0.102843 0)
(0.907149 0.0518461 0)
(1.0199 -0.138084 0)
(0.910001 0.109606 0)
(0.974094 0.0165316 0)
(0.958097 -0.0243575 0)
(0.974816 0.0118451 0)
(0.957387 -0.0377584 0)
(0.982153 -0.00174608 0)
(0.964573 -0.0519571 0)
(0.99205 -0.00704946 0)
(0.966578 -0.0494134 0)
(0.996734 0.000139319 0)
(0.967908 -0.0421739 0)
(1.00257 0.0126206 0)
(0.95802 -0.0471012 0)
(1.00573 0.0204683 0)
(0.930761 -0.066098 0)
(1.02451 0.00951601 0)
(0.908877 -0.0731924 0)
(1.03703 -0.00608131 0)
(0.857834 -0.0620148 0)
(1.03723 -0.0659298 0)
(0.839839 -0.0469269 0)
(0.963436 -0.0115199 0)
(0.968025 0.00794889 0)
(0.961794 -0.019929 0)
(0.969461 -0.00385962 0)
(0.963877 -0.0373687 0)
(0.966421 -0.0131002 0)
(0.950886 -0.0423346 0)
(0.958347 -0.00520884 0)
(0.94871 -0.0427808 0)
(0.954723 0.0123669 0)
(0.950841 -0.032801 0)
(0.951937 0.0191266 0)
(0.946733 -0.029934 0)
(0.961139 0.00849091 0)
(0.946888 -0.0582098 0)
(0.959274 0.0212513 0)
(0.951963 -0.0855025 0)
(0.911478 0.0739007 0)
(0.934438 -0.13106 0)
(0.775323 0.270313 0)
(0.970913 0.0146696 0)
(0.958616 -0.0214551 0)
(0.968693 0.0085515 0)
(0.952349 -0.0387217 0)
(0.948657 -0.00337682 0)
(0.910016 -0.046382 0)
(0.90478 -0.00530083 0)
(0.877706 -0.0497293 0)
(0.869272 -0.00174979 0)
(0.849151 -0.0442661 0)
(0.85813 0.00771721 0)
(0.826415 -0.0457849 0)
(0.856367 0.0109282 0)
(0.835819 -0.070778 0)
(0.804089 0.0133963 0)
(0.834812 -0.0861242 0)
(0.754782 0.0276483 0)
(0.838147 -0.0857995 0)
(0.826037 -0.028068 0)
(0.623804 -0.0277424 0)
(0.95066 -0.0138383 0)
(0.976385 0.0138468 0)
(0.940204 -0.0196117 0)
(0.946128 0.011774 0)
(0.88533 -0.0160942 0)
(0.900929 0.0136238 0)
(0.81831 -0.0234048 0)
(0.837091 0.0186999 0)
(0.750504 -0.0259772 0)
(0.772465 0.0273063 0)
(0.713131 -0.0214773 0)
(0.734555 0.0289853 0)
(0.678535 -0.0307047 0)
(0.684543 0.0384553 0)
(0.604747 -0.0494521 0)
(0.610164 0.0481489 0)
(0.506096 -0.0726482 0)
(0.532131 0.0482671 0)
(0.372127 0.0150535 0)
(0.538204 0.317443 0)
(0.792991 -0.0309724 0)
(1.32099 -0.0503435 0)
(0.86448 -0.0440346 0)
(1.43217 -0.0522946 0)
(0.967453 -0.0474644 0)
(1.56946 -0.0699139 0)
(1.1412 -0.0628412 0)
(1.74941 -0.0851573 0)
(1.06186 0.0166836 0)
(1.13259 -0.0205177 0)
(1.12117 0.00612404 0)
(1.24133 -0.0269341 0)
(1.22753 -0.0176811 0)
(1.38083 -0.0381835 0)
(1.38303 -0.0252133 0)
(1.56282 -0.0490116 0)
(1.11356 -0.024471 0)
(1.06311 -0.0924117 0)
(1.18095 -0.0583508 0)
(1.19856 -0.109735 0)
(1.27145 -0.0889302 0)
(1.35882 -0.134092 0)
(1.4075 -0.121822 0)
(1.54981 -0.174923 0)
(1.15445 -0.00756281 0)
(1.08574 -0.0899211 0)
(1.22965 -0.0455005 0)
(1.18032 -0.104597 0)
(1.34271 -0.0965793 0)
(1.3231 -0.127696 0)
(1.50431 -0.134754 0)
(1.52571 -0.168968 0)
(1.0823 -0.0221075 0)
(1.07603 -0.148816 0)
(1.14473 -0.074297 0)
(1.20472 -0.180255 0)
(1.26616 -0.140041 0)
(1.35614 -0.210294 0)
(1.45967 -0.207771 0)
(1.51581 -0.261414 0)
(1.1503 -0.0298759 0)
(1.04611 -0.149427 0)
(1.21413 -0.0929081 0)
(1.17893 -0.189014 0)
(1.29578 -0.165931 0)
(1.36326 -0.231687 0)
(1.41326 -0.230552 0)
(1.55822 -0.286333 0)
(1.13386 -0.0345746 0)
(1.06948 -0.192204 0)
(1.21237 -0.116166 0)
(1.16765 -0.240035 0)
(1.31608 -0.214359 0)
(1.2996 -0.276173 0)
(1.4554 -0.297603 0)
(1.55077 -0.361458 0)
(1.12474 -0.0404696 0)
(1.05545 -0.208319 0)
(1.20703 -0.124064 0)
(1.1579 -0.258483 0)
(1.25908 -0.215227 0)
(1.32547 -0.31548 0)
(1.48863 -0.355473 0)
(1.55349 -0.397175 0)
(1.10064 -0.048294 0)
(1.06829 -0.245457 0)
(1.21336 -0.149106 0)
(1.07781 -0.280446 0)
(1.30353 -0.266928 0)
(1.37302 -0.401313 0)
(1.49081 -0.406064 0)
(1.59406 -0.477482 0)
(1.00828 -0.048334 0)
(1.09428 -0.272371 0)
(1.06229 -0.11758 0)
(1.11608 -0.346236 0)
(1.3827 -0.344339 0)
(1.36073 -0.438173 0)
(1.50833 -0.452581 0)
(1.57938 -0.51267 0)
(1.04338 -0.0902157 0)
(1.01287 -0.261181 0)
(1.05006 -0.14249 0)
(1.22305 -0.451765 0)
(1.39344 -0.368972 0)
(1.34009 -0.484583 0)
(1.51083 -0.491293 0)
(1.52859 -0.553017 0)
(0.938446 -0.0691418 0)
(0.992356 -0.257622 0)
(1.14979 -0.230499 0)
(1.24924 -0.503728 0)
(1.37538 -0.384425 0)
(1.31883 -0.532605 0)
(1.50209 -0.520362 0)
(1.43746 -0.559484 0)
(0.779881 -0.0930803 0)
(1.07093 -0.359212 0)
(1.16205 -0.309881 0)
(1.25879 -0.549308 0)
(1.33791 -0.39639 0)
(1.30907 -0.587572 0)
(1.44935 -0.514847 0)
(1.31805 -0.56156 0)
(0.847383 -0.105655 0)
(1.11073 -0.404599 0)
(1.18303 -0.366918 0)
(1.24092 -0.556116 0)
(1.28786 -0.401252 0)
(1.28217 -0.618709 0)
(1.35142 -0.484018 0)
(1.24678 -0.589934 0)
(0.833039 -0.199568 0)
(1.12991 -0.486879 0)
(1.16975 -0.429292 0)
(1.19078 -0.564088 0)
(1.24542 -0.427495 0)
(1.23036 -0.638576 0)
(1.25919 -0.452139 0)
(1.18695 -0.640445 0)
(0.90044 -0.205301 0)
(1.11977 -0.489818 0)
(1.15294 -0.448486 0)
(1.13857 -0.545499 0)
(1.20735 -0.443351 0)
(1.15185 -0.623768 0)
(1.16302 -0.420281 0)
(1.15567 -0.699758 0)
(0.875409 -0.379498 0)
(1.09328 -0.557951 0)
(1.0815 -0.498808 0)
(1.0801 -0.553308 0)
(1.13062 -0.470301 0)
(1.06077 -0.612256 0)
(1.10475 -0.433197 0)
(1.10547 -0.757039 0)
(0.900546 -0.382112 0)
(1.05182 -0.508771 0)
(1.02662 -0.482432 0)
(1.03545 -0.524584 0)
(1.0673 -0.468499 0)
(0.989466 -0.583938 0)
(1.04998 -0.439745 0)
(1.01508 -0.761009 0)
(0.84285 -0.622622 0)
(0.992626 -0.60384 0)
(0.939121 -0.544094 0)
(0.969931 -0.548441 0)
(0.967149 -0.492612 0)
(0.896863 -0.572265 0)
(0.968936 -0.483525 0)
(0.898511 -0.751708 0)
(0.845772 -0.588052 0)
(0.933157 -0.501545 0)
(0.865583 -0.490868 0)
(0.892998 -0.491761 0)
(0.85438 -0.464068 0)
(0.809659 -0.532647 0)
(0.829479 -0.470469 0)
(0.671424 -0.63145 0)
(1.34794 -0.0771795 0)
(1.97683 -0.104266 0)
(1.61962 -0.0873426 0)
(2.2541 -0.116621 0)
(1.964 -0.0856195 0)
(2.57702 -0.107982 0)
(2.33861 -0.0785784 0)
(2.92733 -0.102598 0)
(2.73799 -0.0704786 0)
(3.27471 -0.0908366 0)
(3.11443 -0.0601562 0)
(3.5868 -0.0767808 0)
(3.42735 -0.0476084 0)
(3.82308 -0.059724 0)
(3.63816 -0.0320176 0)
(3.95007 -0.041626 0)
(3.71906 -0.0156332 0)
(3.94883 -0.0249241 0)
(3.6597 -0.000684361 0)
(3.82077 -0.0119497 0)
(3.46911 0.00979505 0)
(3.59073 -0.00456544 0)
(3.17886 0.0144308 0)
(3.29599 -0.00529392 0)
(2.83826 0.0120975 0)
(2.99008 -0.0158992 0)
(2.51499 0.00207729 0)
(2.74524 -0.0504568 0)
(1.58757 -0.0331103 0)
(1.79369 -0.0637733 0)
(1.84164 -0.046682 0)
(2.07337 -0.084423 0)
(2.12898 -0.072154 0)
(2.39649 -0.104165 0)
(2.46332 -0.091161 0)
(2.76223 -0.117546 0)
(2.81828 -0.0989007 0)
(3.13896 -0.113879 0)
(3.16479 -0.089261 0)
(3.48125 -0.092299 0)
(3.45962 -0.0635653 0)
(3.74196 -0.0534527 0)
(3.65889 -0.0233336 0)
(3.8849 -0.00396246 0)
(3.73216 0.0256025 0)
(3.89106 0.0479983 0)
(3.66562 0.0757534 0)
(3.76108 0.0951651 0)
(3.46962 0.118208 0)
(3.51617 0.130418 0)
(3.17752 0.147857 0)
(3.19491 0.148983 0)
(2.83444 0.160391 0)
(2.84728 0.142866 0)
(2.49554 0.154666 0)
(2.5164 0.100509 0)
(1.60345 -0.152552 0)
(1.79327 -0.219213 0)
(1.8514 -0.184817 0)
(2.08717 -0.253337 0)
(2.16133 -0.214129 0)
(2.41729 -0.271907 0)
(2.5225 -0.234889 0)
(2.78536 -0.28073 0)
(2.89913 -0.239542 0)
(3.1619 -0.267274 0)
(3.25396 -0.216234 0)
(3.5063 -0.225284 0)
(3.54373 -0.165937 0)
(3.7721 -0.157233 0)
(3.73317 -0.0941119 0)
(3.91886 -0.0725749 0)
(3.79786 -0.0114123 0)
(3.92608 0.0150833 0)
(3.72474 0.0705842 0)
(3.79334 0.0919125 0)
(3.52553 0.139152 0)
(3.5439 0.144692 0)
(3.23084 0.184218 0)
(3.21711 0.165359 0)
(2.88889 0.20318 0)
(2.86208 0.146307 0)
(2.55221 0.197075 0)
(2.52947 0.0794153 0)
(1.69643 -0.172548 0)
(1.7806 -0.214669 0)
(1.92095 -0.206418 0)
(2.08337 -0.263075 0)
(2.20229 -0.245302 0)
(2.43489 -0.305474 0)
(2.54578 -0.280258 0)
(2.81015 -0.3234 0)
(2.92928 -0.289146 0)
(3.17974 -0.306831 0)
(3.3003 -0.259392 0)
(3.50981 -0.251787 0)
(3.60379 -0.188597 0)
(3.76405 -0.163092 0)
(3.80131 -0.0849001 0)
(3.90492 -0.0500495 0)
(3.86911 0.0341115 0)
(3.90847 0.070741 0)
(3.79707 0.152271 0)
(3.77194 0.179082 0)
(3.59452 0.251154 0)
(3.51793 0.258607 0)
(3.29459 0.31649 0)
(3.18567 0.296536 0)
(2.94309 0.340261 0)
(2.83115 0.285753 0)
(2.59037 0.318893 0)
(2.51526 0.223735 0)
(1.69249 -0.264544 0)
(1.73581 -0.316713 0)
(1.95765 -0.323073 0)
(2.03736 -0.383584 0)
(2.26011 -0.377035 0)
(2.4056 -0.441085 0)
(2.59535 -0.413296 0)
(2.80296 -0.468834 0)
(2.95922 -0.419961 0)
(3.18539 -0.447512 0)
(3.32036 -0.380299 0)
(3.51286 -0.371602 0)
(3.62783 -0.289631 0)
(3.75809 -0.250783 0)
(3.829 -0.156196 0)
(3.89492 -0.101935 0)
(3.89799 -0.0020179 0)
(3.89955 0.0540687 0)
(3.82666 0.149621 0)
(3.7669 0.194273 0)
(3.62597 0.27612 0)
(3.51348 0.298133 0)
(3.32602 0.360034 0)
(3.17591 0.347322 0)
(2.96431 0.389556 0)
(2.81235 0.335769 0)
(2.59409 0.356327 0)
(2.48111 0.268581 0)
(1.64152 -0.298809 0)
(1.78437 -0.3503 0)
(1.95038 -0.377917 0)
(2.06684 -0.418834 0)
(2.28807 -0.447313 0)
(2.39908 -0.48205 0)
(2.63118 -0.493007 0)
(2.77688 -0.518184 0)
(2.9719 -0.493253 0)
(3.15459 -0.499265 0)
(3.29112 -0.435348 0)
(3.48127 -0.414488 0)
(3.56657 -0.321628 0)
(3.72185 -0.270856 0)
(3.75515 -0.16067 0)
(3.85323 -0.0914789 0)
(3.81816 0.0276778 0)
(3.85864 0.0977205 0)
(3.75169 0.212535 0)
(3.73778 0.268651 0)
(3.57001 0.368937 0)
(3.50665 0.396575 0)
(3.29262 0.47263 0)
(3.19682 0.462156 0)
(2.94436 0.506617 0)
(2.84984 0.456559 0)
(2.57194 0.465021 0)
(2.51097 0.382798 0)
(1.66503 -0.376985 0)
(1.83634 -0.455472 0)
(1.93833 -0.467471 0)
(2.11077 -0.53512 0)
(2.2427 -0.549117 0)
(2.39501 -0.601535 0)
(2.57694 -0.609168 0)
(2.71548 -0.632372 0)
(2.90142 -0.612755 0)
(3.04866 -0.602282 0)
(3.18612 -0.543319 0)
(3.3517 -0.503549 0)
(3.42206 -0.406674 0)
(3.58095 -0.340452 0)
(3.58252 -0.2179 0)
(3.6883 -0.130512 0)
(3.6332 0.00153951 0)
(3.67945 0.0892586 0)
(3.57447 0.216471 0)
(3.5676 0.2865 0)
(3.41976 0.398049 0)
(3.37398 0.436963 0)
(3.17868 0.519312 0)
(3.12093 0.520992 0)
(2.8697 0.564524 0)
(2.82657 0.523998 0)
(2.52704 0.525864 0)
(2.51606 0.446026 0)
(1.73075 -0.453478 0)
(1.81202 -0.493045 0)
(1.94065 -0.527587 0)
(2.0566 -0.57162 0)
(2.17869 -0.603372 0)
(2.33392 -0.652719 0)
(2.47289 -0.664982 0)
(2.61193 -0.684812 0)
(2.77103 -0.667604 0)
(2.88253 -0.64692 0)
(3.03076 -0.590669 0)
(3.13809 -0.538177 0)
(3.24374 -0.44056 0)
(3.32466 -0.3552 0)
(3.35123 -0.218909 0)
(3.39251 -0.116655 0)
(3.36935 0.0285195 0)
(3.3666 0.128896 0)
(3.30862 0.264578 0)
(3.27281 0.348089 0)
(3.17582 0.460581 0)
(3.12601 0.514627 0)
(2.97765 0.591001 0)
(2.93538 0.610058 0)
(2.73361 0.642757 0)
(2.70088 0.617152 0)
(2.4635 0.605975 0)
(2.42963 0.536498 0)
(1.70786 -0.509906 0)
(1.76437 -0.551063 0)
(1.88084 -0.586884 0)
(1.96737 -0.641705 0)
(2.1166 -0.692515 0)
(2.22517 -0.740299 0)
(2.35032 -0.754016 0)
(2.46582 -0.775502 0)
(2.58109 -0.752831 0)
(2.67361 -0.728252 0)
(2.79978 -0.673203 0)
(2.87589 -0.611603 0)
(2.95133 -0.499524 0)
(2.97748 -0.394245 0)
(2.99185 -0.2487 0)
(3.00316 -0.134817 0)
(2.97494 0.0189011 0)
(2.97474 0.124759 0)
(2.91786 0.268402 0)
(2.90778 0.361081 0)
(2.81329 0.476284 0)
(2.80494 0.541158 0)
(2.66982 0.618213 0)
(2.66714 0.647934 0)
(2.50619 0.681731 0)
(2.4868 0.666352 0)
(2.32783 0.652974 0)
(2.27016 0.58728 0)
(1.64814 -0.539879 0)
(1.70439 -0.579072 0)
(1.80554 -0.630388 0)
(1.9123 -0.692683 0)
(2.01793 -0.742683 0)
(2.08872 -0.773938 0)
(2.18838 -0.7943 0)
(2.25216 -0.804489 0)
(2.33107 -0.778355 0)
(2.40218 -0.75571 0)
(2.49797 -0.699666 0)
(2.50774 -0.612786 0)
(2.55131 -0.488721 0)
(2.52844 -0.373045 0)
(2.53633 -0.225535 0)
(2.51981 -0.103055 0)
(2.49858 0.047984 0)
(2.50657 0.155716 0)
(2.4552 0.300638 0)
(2.47641 0.397274 0)
(2.38608 0.514407 0)
(2.41865 0.582883 0)
(2.30259 0.661454 0)
(2.33308 0.690549 0)
(2.21454 0.726933 0)
(2.22364 0.704556 0)
(2.12067 0.715726 0)
(2.07347 0.645565 0)
(1.57727 -0.569358 0)
(1.62861 -0.624192 0)
(1.74983 -0.688581 0)
(1.8091 -0.745111 0)
(1.86928 -0.784754 0)
(1.90812 -0.819315 0)
(1.95613 -0.837946 0)
(1.97558 -0.842155 0)
(2.02297 -0.824698 0)
(2.07633 -0.805479 0)
(2.07836 -0.726019 0)
(2.06803 -0.626787 0)
(2.05939 -0.502647 0)
(2.02225 -0.382356 0)
(2.00538 -0.234406 0)
(1.98981 -0.111728 0)
(1.95719 0.0333829 0)
(1.98024 0.149396 0)
(1.91734 0.295859 0)
(1.98777 0.394576 0)
(1.89122 0.509755 0)
(1.97762 0.585937 0)
(1.87174 0.663069 0)
(1.9526 0.700514 0)
(1.85056 0.740296 0)
(1.90749 0.708006 0)
(1.85262 0.719286 0)
(1.86479 0.654118 0)
(1.48937 -0.583752 0)
(1.58097 -0.665074 0)
(1.66182 -0.721119 0)
(1.6756 -0.757968 0)
(1.69389 -0.796557 0)
(1.6747 -0.814775 0)
(1.67764 -0.829545 0)
(1.65101 -0.837578 0)
(1.68935 -0.827419 0)
(1.6382 -0.783082 0)
(1.62056 -0.693686 0)
(1.54947 -0.592257 0)
(1.52279 -0.466845 0)
(1.43845 -0.340558 0)
(1.43968 -0.205616 0)
(1.39202 -0.0805489 0)
(1.37957 0.0537979 0)
(1.37527 0.170256 0)
(1.35481 0.31203 0)
(1.40982 0.411501 0)
(1.36253 0.52068 0)
(1.46009 0.596327 0)
(1.41313 0.668818 0)
(1.50951 0.703984 0)
(1.48402 0.747539 0)
(1.52751 0.720235 0)
(1.5299 0.743468 0)
(1.59066 0.67539 0)
(1.4541 -0.628632 0)
(1.51686 -0.710368 0)
(1.5558 -0.735217 0)
(1.50199 -0.760676 0)
(1.44919 -0.783351 0)
(1.39419 -0.801319 0)
(1.34136 -0.829748 0)
(1.30377 -0.843156 0)
(1.24064 -0.815095 0)
(1.18121 -0.765472 0)
(1.07834 -0.673021 0)
(1.00231 -0.567278 0)
(0.893729 -0.440812 0)
(0.848642 -0.335443 0)
(0.787067 -0.20497 0)
(0.764743 -0.0758247 0)
(0.730015 0.0497853 0)
(0.747943 0.157176 0)
(0.74333 0.287693 0)
(0.807259 0.389944 0)
(0.797449 0.492517 0)
(0.905817 0.563027 0)
(0.908679 0.639865 0)
(1.01068 0.67958 0)
(1.06063 0.715841 0)
(1.14043 0.673038 0)
(1.20522 0.696757 0)
(1.2508 0.65321 0)
(1.41192 -0.672877 0)
(1.43266 -0.718471 0)
(1.39124 -0.707559 0)
(1.25194 -0.715628 0)
(1.18334 -0.742851 0)
(1.06361 -0.760739 0)
(0.987659 -0.787797 0)
(0.852588 -0.784442 0)
(0.793521 -0.76568 0)
(0.632463 -0.699391 0)
(0.532587 -0.602022 0)
(0.386967 -0.496672 0)
(0.306182 -0.390272 0)
(0.190814 -0.28257 0)
(0.148193 -0.161386 0)
(0.0933514 -0.0505388 0)
(0.10444 0.0612724 0)
(0.0692235 0.173502 0)
(0.124844 0.2869 0)
(0.181837 0.379704 0)
(0.223606 0.479739 0)
(0.326821 0.544321 0)
(0.392966 0.607212 0)
(0.52819 0.639281 0)
(0.608137 0.690333 0)
(0.712195 0.660111 0)
(0.830867 0.680718 0)
(0.933777 0.612566 0)
(1.36934 -0.702106 0)
(1.29948 -0.698314 0)
(1.16067 -0.64139 0)
(0.995713 -0.663478 0)
(0.850963 -0.679143 0)
(0.706847 -0.696587 0)
(0.544631 -0.72783 0)
(0.421963 -0.742582 0)
(0.229206 -0.701061 0)
(0.0813195 -0.632871 0)
(-0.0892178 -0.544522 0)
(-0.221674 -0.448515 0)
(-0.362841 -0.340315 0)
(-0.439912 -0.258182 0)
(-0.530141 -0.147597 0)
(-0.541399 -0.0457442 0)
(-0.583469 0.0603514 0)
(-0.552549 0.143438 0)
(-0.514512 0.247621 0)
(-0.439956 0.342551 0)
(-0.37173 0.425601 0)
(-0.227967 0.476564 0)
(-0.149353 0.545663 0)
(0.00991431 0.577173 0)
(0.147867 0.609839 0)
(0.312794 0.559897 0)
(0.454253 0.598599 0)
(0.559323 0.553341 0)
(1.29214 -0.699695 0)
(1.08895 -0.619624 0)
(0.905633 -0.544862 0)
(0.654934 -0.565482 0)
(0.524267 -0.595258 0)
(0.30259 -0.615702 0)
(0.158493 -0.64136 0)
(-0.117317 -0.623159 0)
(-0.261851 -0.598733 0)
(-0.5169 -0.536537 0)
(-0.64561 -0.448708 0)
(-0.870598 -0.35894 0)
(-0.949502 -0.276427 0)
(-1.10547 -0.192877 0)
(-1.14491 -0.106647 0)
(-1.20174 -0.019119 0)
(-1.19008 0.0709953 0)
(-1.1893 0.146291 0)
(-1.10571 0.232262 0)
(-1.04738 0.308436 0)
(-0.905668 0.382162 0)
(-0.793981 0.431398 0)
(-0.645313 0.487516 0)
(-0.470528 0.503152 0)
(-0.265332 0.538056 0)
(-0.137898 0.514991 0)
(0.0776414 0.549025 0)
(0.211988 0.481549 0)
(1.14309 -0.636858 0)
(0.837486 -0.508303 0)
(0.608134 -0.432503 0)
(0.37028 -0.490979 0)
(0.152769 -0.498689 0)
(-0.0570979 -0.512517 0)
(-0.346059 -0.531336 0)
(-0.562725 -0.532464 0)
(-0.857838 -0.492549 0)
(-1.05912 -0.445628 0)
(-1.27906 -0.364389 0)
(-1.43749 -0.300166 0)
(-1.58515 -0.223188 0)
(-1.69124 -0.160171 0)
(-1.77093 -0.0898138 0)
(-1.78822 -0.0256069 0)
(-1.80849 0.0526697 0)
(-1.75253 0.10867 0)
(-1.70246 0.180321 0)
(-1.59036 0.235857 0)
(-1.45223 0.304002 0)
(-1.30414 0.341297 0)
(-1.13574 0.380677 0)
(-0.929198 0.388106 0)
(-0.729708 0.431783 0)
(-0.553558 0.393543 0)
(-0.275896 0.421755 0)
(-0.155846 0.375446 0)
(0.966642 -0.528985 0)
(0.540228 -0.366505 0)
(0.33039 -0.285957 0)
(-0.0181799 -0.335361 0)
(-0.189554 -0.373068 0)
(-0.50642 -0.368242 0)
(-0.724731 -0.383744 0)
(-1.09894 -0.371616 0)
(-1.30607 -0.355313 0)
(-1.64698 -0.317555 0)
(-1.79005 -0.257874 0)
(-2.04749 -0.202218 0)
(-2.12494 -0.148041 0)
(-2.29459 -0.0997152 0)
(-2.29492 -0.0530524 0)
(-2.39289 0.00268237 0)
(-2.32728 0.0540755 0)
(-2.32001 0.0970827 0)
(-2.20831 0.148039 0)
(-2.12556 0.188716 0)
(-1.93526 0.243002 0)
(-1.80074 0.269552 0)
(-1.55867 0.294584 0)
(-1.38742 0.308922 0)
(-1.12152 0.331475 0)
(-0.944642 0.301994 0)
(-0.640568 0.334325 0)
(-0.536432 0.296074 0)
(0.708486 -0.317674 0)
(0.216075 -0.202628 0)
(0.0298679 -0.173861 0)
(-0.27823 -0.2494 0)
(-0.574074 -0.244679 0)
(-0.878986 -0.259868 0)
(-1.17035 -0.250555 0)
(-1.50534 -0.252605 0)
(-1.78315 -0.226073 0)
(-2.08966 -0.216945 0)
(-2.30279 -0.167425 0)
(-2.5145 -0.141256 0)
(-2.64222 -0.101431 0)
(-2.76588 -0.0740737 0)
(-2.81668 -0.0380571 0)
(-2.86506 -0.0154062 0)
(-2.8225 0.019255 0)
(-2.79311 0.0481518 0)
(-2.68958 0.0801903 0)
(-2.57651 0.100614 0)
(-2.39586 0.137141 0)
(-2.22016 0.145648 0)
(-1.98749 0.169555 0)
(-1.78088 0.17168 0)
(-1.50963 0.188173 0)
(-1.3103 0.166194 0)
(-0.996918 0.190984 0)
(-0.856131 0.155528 0)
(0.439793 -0.21386 0)
(-0.248602 -0.0401826 0)
(-0.0988588 -0.0160922 0)
(-0.616936 -0.0375785 0)
(-0.719245 -0.0666646 0)
(-1.23468 -0.0660055 0)
(-1.41062 -0.070939 0)
(-1.90382 -0.0594068 0)
(-2.05735 -0.0580812 0)
(-2.49417 -0.0550878 0)
(-2.62112 -0.0447003 0)
(-2.93514 -0.0317714 0)
(-2.97654 -0.0224839 0)
(-3.19409 -0.0085571 0)
(-3.13872 0.000184803 0)
(-3.27541 0.00796574 0)
(-3.15475 0.0197266 0)
(-3.20144 0.0327501 0)
(-2.99121 0.0397523 0)
(-2.96668 0.0476144 0)
(-2.68788 0.058848 0)
(-2.59515 0.0643491 0)
(-2.26646 0.071766 0)
(-2.12644 0.0728854 0)
(-1.77871 0.0768294 0)
(-1.63426 0.0692641 0)
(-1.274 0.080491 0)
(-1.15209 0.0705098 0)
(2.30177 0.0160625 0)
(2.28819 -0.26846 0)
(1.86733 -0.316802 0)
(1.65965 -0.497809 0)
(1.45966 -0.644197 0)
(1.2423 -0.91675 0)
(0.714603 -0.902961 0)
(-0.0383961 -0.719577 0)
(2.24151 0.132474 0)
(2.14178 -0.0362672 0)
(1.8031 -0.118115 0)
(1.728 -0.34603 0)
(1.42929 -0.459527 0)
(1.1724 -0.671495 0)
(0.816288 -0.62224 0)
(0.772782 -0.758039 0)
(2.28129 0.155748 0)
(2.25681 -0.00613858 0)
(2.13497 -0.0782941 0)
(1.95933 -0.261475 0)
(1.67953 -0.343724 0)
(1.41943 -0.593212 0)
(1.17295 -0.644271 0)
(0.326378 -0.247628 0)
(2.25895 0.238115 0)
(2.26311 0.0809364 0)
(1.90075 0.0256608 0)
(1.86606 -0.14016 0)
(1.42329 -0.198331 0)
(1.37493 -0.384087 0)
(0.432964 -0.158765 0)
(0.27804 -0.205618 0)
(2.2589 0.25522 0)
(2.21515 0.159421 0)
(1.96064 0.10115 0)
(2.03178 -0.0489324 0)
(1.67866 -0.0761793 0)
(1.67036 -0.163022 0)
(1.14363 -0.0442975 0)
(1.11141 -0.284746 0)
(2.23522 0.351121 0)
(2.19169 0.25179 0)
(1.96331 0.162544 0)
(1.85605 0.0338145 0)
(1.5337 0.0118387 0)
(1.47342 -0.109081 0)
(1.17016 0.071397 0)
(1.11144 -0.0147587 0)
(2.2067 0.410372 0)
(2.20839 0.291128 0)
(1.95935 0.24851 0)
(1.89462 0.127471 0)
(1.74427 0.104165 0)
(1.63197 -0.0123722 0)
(1.47133 0.123771 0)
(1.33761 -0.0443354 0)
(2.18711 0.502326 0)
(2.14386 0.371786 0)
(1.9106 0.344417 0)
(1.8801 0.161849 0)
(1.6334 0.186916 0)
(1.48703 0.0495928 0)
(1.30837 0.203388 0)
(1.23756 0.121841 0)
(2.13112 0.539728 0)
(2.03855 0.433572 0)
(1.8758 0.388321 0)
(1.8162 0.239778 0)
(1.61998 0.26736 0)
(1.63147 0.121083 0)
(1.45757 0.219393 0)
(1.46881 0.113332 0)
(1.99047 0.607728 0)
(1.92108 0.492983 0)
(1.83485 0.457837 0)
(1.7046 0.314615 0)
(1.60074 0.311963 0)
(1.52196 0.178418 0)
(1.35432 0.263385 0)
(1.38625 0.19243 0)
(1.77465 0.626496 0)
(1.76914 0.51699 0)
(1.71128 0.495462 0)
(1.63192 0.335843 0)
(1.57172 0.330618 0)
(1.47309 0.226077 0)
(1.42642 0.266742 0)
(1.38997 0.227123 0)
(1.56724 0.641492 0)
(1.59114 0.534351 0)
(1.55042 0.547441 0)
(1.53993 0.397016 0)
(1.46737 0.406195 0)
(1.45509 0.274933 0)
(1.36262 0.291226 0)
(1.3807 0.242298 0)
(1.30376 0.626937 0)
(1.33872 0.511931 0)
(1.39681 0.510304 0)
(1.3895 0.36303 0)
(1.38193 0.38272 0)
(1.38819 0.279186 0)
(1.33415 0.295937 0)
(1.38047 0.257679 0)
(1.03531 0.604985 0)
(1.0825 0.504426 0)
(1.17832 0.542369 0)
(1.20476 0.389845 0)
(1.2592 0.412467 0)
(1.28498 0.288423 0)
(1.26333 0.297263 0)
(1.32369 0.255455 0)
(0.721608 0.547642 0)
(0.810411 0.416322 0)
(0.95792 0.454093 0)
(1.00703 0.309106 0)
(1.09328 0.378754 0)
(1.15572 0.257921 0)
(1.16824 0.283847 0)
(1.2507 0.225488 0)
(0.450637 0.486951 0)
(0.48672 0.398265 0)
(0.701262 0.453336 0)
(0.750595 0.301553 0)
(0.915673 0.353931 0)
(0.967369 0.226221 0)
(1.04231 0.278254 0)
(1.13825 0.21664 0)
(0.121696 0.393146 0)
(0.177766 0.287456 0)
(0.460048 0.317228 0)
(0.48561 0.199166 0)
(0.689062 0.293322 0)
(0.722257 0.163369 0)
(0.840268 0.216645 0)
(0.934028 0.139168 0)
(-0.155902 0.299237 0)
(-0.158101 0.25771 0)
(0.186373 0.292871 0)
(0.137526 0.188677 0)
(0.503371 0.242741 0)
(0.477585 0.140578 0)
(0.668307 0.202934 0)
(0.709661 0.129595 0)
(-0.473218 0.168722 0)
(-0.494567 0.141013 0)
(0.00204238 0.12845 0)
(-0.123238 0.0505321 0)
(0.236368 0.118714 0)
(0.160331 0.0648273 0)
(0.442607 0.109423 0)
(0.454769 0.0370506 0)
(-0.760747 0.081188 0)
(-0.752516 0.0726197 0)
(-0.243538 0.0842792 0)
(-0.432384 0.0997129 0)
(0.120984 0.0940849 0)
(-0.0464311 0.0400956 0)
(0.332369 0.07277 0)
(0.325684 0.040146 0)
(-0.642613 -0.433292 0)
(0.366519 0.15905 0)
(0.594261 0.4323 0)
(0.735842 0.471782 5.30106e-18)
(1.15096 0.63868 4.25653e-19)
(1.30195 0.524419 0)
(1.7235 0.482165 3.39341e-18)
(1.4933 0.34624 1.94253e-19)
(1.69812 0.345397 2.52613e-18)
(1.48582 0.27538 2.4299e-18)
(1.78975 0.306311 0)
(1.55925 0.245583 2.03994e-18)
(1.90851 0.291847 -8.56994e-20)
(1.67418 0.237997 1.67703e-18)
(2.03096 0.292729 2.04413e-20)
(1.82325 0.241954 -2.25478e-20)