/*--------------------------------*- C++ -*----------------------------------*\
| =========                 |                                                 |
| \\      /  F ield         | OpenFOAM: The Open Source CFD Toolbox           |
|  \\    /   O peration     | Version:  2.4.0                                 |
|   \\  /    A nd           | Web:      www.OpenFOAM.org                      |
|    \\/     M anipulation  |                                                 |
\*---------------------------------------------------------------------------*/
FoamFile
{
    version     2.0;
    format      ascii;
    class       volVectorField;
    location    "85";
    object      U;
}
// * * * * * * * * * * * * * * * * * * * * * * * * * * * * * * * * * * * * * //

dimensions      [0 1 -1 0 0 0 0];

internalField   nonuniform List<vector> 
6000
(
(0.715716 -0.0491629 -4.80672e-17)
(0.240561 -0.0445793 0)
(0.00331602 -0.00438274 2.02067e-16)
(-0.0771284 0.0169976 0)
(-0.0913783 0.0192371 0)
(-0.123591 0.0255089 0)
(-0.147587 0.0266971 9.24237e-17)
(-0.124918 0.0152029 1.224e-19)
(-0.0180921 -0.0108505 0)
(0.107032 -0.0291221 0)
(0.195983 -0.0360798 8.41364e-17)
(0.251328 -0.0383635 -1.51127e-16)
(0.268625 -0.0358182 0)
(0.246268 -0.0305159 0)
(0.214288 -0.0266531 -4.40876e-17)
(0.2204 -0.0216728 0)
(-0.00146999 0.0183838 0)
(-0.195691 0.0356912 -2.53045e-17)
(-0.322658 0.0397202 -1.43308e-17)
(-0.41656 0.0406113 0)
(-0.485914 0.0393347 5.49885e-18)
(-0.535877 0.0364813 1.88705e-18)
(-0.568937 0.0324133 -1.54731e-18)
(-0.58638 0.027496 0)
(-0.589567 0.0221082 0)
(-0.580313 0.0165649 0)
(-0.560306 0.0110988 1.89599e-18)
(-0.531915 0.00599449 -2.50129e-18)
(-0.497357 0.00142614 0)
(-0.458522 -0.00249915 0)
(-0.417041 -0.00572789 6.18742e-19)
(-0.374182 -0.00824315 0)
(-0.330904 -0.0100415 7.17743e-18)
(-0.287904 -0.0111453 -8.50723e-18)
(-0.246085 -0.0116191 0)
(-0.205692 -0.0115604 0)
(-0.166818 -0.0109917 2.75621e-17)
(-0.129449 -0.00996858 0)
(-0.0933927 -0.00855247 3.80221e-17)
(-0.0583629 -0.00693913 0)
(-0.0232334 -0.00484302 0)
(0.0122276 -0.00143069 1.19917e-16)
(0.0409525 0.00189828 -2.1599e-16)
(0.0684972 0.00528657 0)
(0.0948588 0.00889066 0)
(0.120457 0.0127335 8.33049e-17)
(0.145543 0.016861 0)
(0.170467 0.0212988 0)
(0.195504 0.0260966 -1.35767e-16)
(0.220991 0.0313001 -1.27164e-16)
(0.247235 0.0369768 -1.1887e-16)
(0.274684 0.0432053 -4.9342e-20)
(0.303664 0.0500813 1.02566e-16)
(0.334949 0.0577392 0)
(0.368368 0.0662839 -7.32492e-20)
(0.406995 0.0760906 -7.59917e-17)
(0.445387 0.0868908 6.54298e-17)
(0.504599 0.100897 5.37401e-17)
(0.533206 0.113448 1.17998e-19)
(0.708373 0.145657 0)
(0.742187 -0.124376 2.59239e-17)
(0.340983 -0.0611287 1.97048e-17)
(0.0926811 -0.00655882 -4.87101e-17)
(-0.0466334 0.0171258 -6.44587e-17)
(-0.089191 0.0211675 0)
(-0.123107 0.028043 0)
(-0.140418 0.0286891 -4.40779e-17)
(-0.10747 0.0124427 7.71067e-17)
(0.0107207 -0.0193712 0)
(0.124902 -0.0384085 0)
(0.214324 -0.0457139 -4.32983e-17)
(0.271136 -0.0467375 4.4795e-17)
(0.291689 -0.0409086 2.49064e-17)
(0.269954 -0.0307885 0)
(0.236885 -0.0227598 2.81481e-17)
(0.177779 -0.0058343 0)
(-0.098424 0.0403753 0)
(-0.275247 0.052017 0)
(-0.401013 0.0553288 0)
(-0.492071 0.055369 0)
(-0.556795 0.052966 -2.62363e-20)
(-0.600415 0.0486377 0)
(-0.625815 0.0426597 -1.21287e-18)
(-0.634709 0.0354535 0)
(-0.628857 0.0275844 0)
(-0.610536 0.0196089 1.09767e-18)
(-0.582746 0.012058 -1.46515e-18)
(-0.547721 0.00523179 8.18204e-21)
(-0.507541 -0.000697651 1.18254e-18)
(-0.463979 -0.00564398 0)
(-0.418568 -0.00959233 -4.33874e-19)
(-0.372494 -0.0125748 -2.03831e-18)
(-0.326683 -0.0146213 -3.86812e-21)
(-0.281745 -0.0158058 5.415e-18)
(-0.238119 -0.0162083 -6.12703e-18)
(-0.195984 -0.0159569 0)
(-0.155403 -0.0150776 0)
(-0.116283 -0.0136454 0)
(-0.0783838 -0.0117371 0)
(-0.0411379 -0.00962111 0)
(-0.00286316 -0.00668656 -4.22447e-17)
(0.0311627 -0.00292274 0)
(0.0619757 0.00109129 4.36958e-17)
(0.0918113 0.0051705 4.3423e-17)
(0.120836 0.00956308 0)
(0.149417 0.0142932 0)
(0.177823 0.0194352 0)
(0.206395 0.0250142 0)
(0.235428 0.031106 8.06361e-17)
(0.265263 0.0377621 0)
(0.296236 0.0450787 0)
(0.328813 0.0531505 -7.27916e-17)
(0.36338 0.0621117 -6.92719e-17)
(0.400728 0.072118 0)
(0.440873 0.0833482 -1.20756e-16)
(0.486693 0.0961664 0)
(0.533744 0.110538 -9.61745e-17)
(0.600788 0.128299 -3.96349e-17)
(0.642302 0.145195 2.85317e-17)
(0.814688 0.180247 2.00055e-17)
(0.765126 -0.118299 -1.26488e-18)
(0.410425 -0.0589477 -1.45037e-17)
(0.165365 -0.00920128 0)
(0.00293423 0.014383 4.24725e-17)
(-0.0731325 0.0210107 0)
(-0.110613 0.0268429 0)
(-0.124906 0.0248988 0)
(-0.0880602 0.00407617 -2.35111e-17)
(0.0240422 -0.0289545 0)
(0.130044 -0.046583 -2.58105e-17)
(0.216146 -0.051849 0)
(0.270236 -0.050098 0)
(0.288779 -0.0406782 -1.78451e-17)
(0.266886 -0.0263073 0)
(0.229423 -0.0103318 0)
(0.0948799 0.024101 0)
(-0.163845 0.0650245 0)
(-0.322141 0.0699382 0)
(-0.435399 0.0684874 0)
(-0.5153 0.0644515 5.25656e-18)
(-0.570334 0.0586641 -3.5243e-18)
(-0.605928 0.0515739 0)
(-0.624995 0.0432918 1.67264e-20)
(-0.629083 0.0341692 -1.05275e-18)
(-0.619729 0.0247978 0)
(-0.599173 0.0157608 -1.74006e-18)
(-0.569725 0.00745797 0)
(-0.533486 0.000144311 1.45722e-18)
(-0.492447 -0.00604654 -9.0327e-19)
(-0.448312 -0.0110655 0)
(-0.402563 -0.0149383 0)
(-0.356342 -0.017739 1.49417e-18)
(-0.310542 -0.0195292 -2.93103e-21)
(-0.265733 -0.0204148 0)
(-0.222285 -0.0204898 8.54581e-18)
(-0.180339 -0.019908 0)
(-0.139923 -0.0186952 1.02525e-17)
(-0.100891 -0.0169517 0)
(-0.0629348 -0.0147999 0)
(-0.0252072 -0.0124074 0)
(0.0121963 -0.00893105 2.60659e-17)
(0.0448848 -0.00482928 0)
(0.0760245 -0.000551548 0)
(0.106295 0.00377908 -2.69862e-17)
(0.135898 0.00841924 0)
(0.165187 0.0133891 0)
(0.194449 0.0187754 2.73452e-17)
(0.224032 0.0246004 -2.73057e-17)
(0.254254 0.0309519 -2.71593e-17)
(0.285475 0.0378822 0)
(0.318066 0.0455014 0)
(0.352517 0.0539072 0)
(0.38927 0.0632547 5.01499e-17)
(0.429146 0.0736942 4.80513e-17)
(0.472299 0.0854761 4.54717e-17)
(0.521494 0.0988257 0)
(0.572984 0.114197 3.76831e-17)
(0.643778 0.131985 6.30887e-17)
(0.694136 0.151936 0)
(0.859879 0.180069 -1.61544e-17)
(0.784035 -0.0985099 -9.00528e-19)
(0.461536 -0.0542264 1.16011e-17)
(0.226246 -0.00984711 -2.53252e-17)
(0.0576392 0.012124 0)
(-0.0498586 0.0208427 0)
(-0.0952509 0.0255443 0)
(-0.108747 0.0207611 0)
(-0.0705198 -0.00448606 0)
(0.0305784 -0.0382506 0)
(0.129848 -0.0543412 2.00513e-17)
(0.212586 -0.0571765 2.19002e-17)
(0.26401 -0.0524723 0)
(0.27985 -0.0396554 0)
(0.255528 -0.0207074 0)
(0.205989 0.00547575 1.63158e-17)
(0.0124906 0.05629 0)
(-0.209343 0.0875582 1.13942e-17)
(-0.347877 0.0853722 -8.87196e-18)
(-0.447368 0.0790946 0)
(-0.517605 0.0714627 -4.29154e-18)
(-0.566258 0.0629903 0)
(-0.59783 0.0538413 -9.70817e-19)
(-0.614388 0.0438446 1.60749e-18)
(-0.616851 0.0332218 8.70028e-19)
(-0.606379 0.022552 0)
(-0.58505 0.0124584 7.13764e-19)
(-0.555023 0.00334475 0)
(-0.518372 -0.0045423 1.1906e-18)
(-0.477071 -0.0110903 0)
(-0.432806 -0.0162769 0)
(-0.387045 -0.0201598 0)
(-0.340911 -0.0228486 1.22004e-18)
(-0.295278 -0.0244385 -5.55328e-18)
(-0.25069 -0.0250718 0)
(-0.207493 -0.0248647 -3.44801e-18)
(-0.1658 -0.023993 0)
(-0.125608 -0.0224888 -8.19863e-18)
(-0.0867282 -0.0204968 0)
(-0.048761 -0.0181968 0)
(-0.0106855 -0.0154983 0)
(0.0246193 -0.011658 2.02119e-17)
(0.0567075 -0.00721954 0)
(0.0877177 -0.00269457 2.05283e-17)
(0.117921 0.00186246 -2.05973e-17)
(0.147529 0.00670318 0)
(0.176877 0.011848 -2.06207e-17)
(0.20626 0.017391 -4.11482e-17)
(0.236023 0.0233545 2.04743e-17)
(0.266494 0.0298327 4.06014e-17)
(0.298036 0.0368783 -4.0094e-17)
(0.331031 0.0446072 -3.94112e-17)
(0.365975 0.0531169 0)
(0.403329 0.0625696 -3.73551e-17)
(0.443919 0.07311 -3.58221e-17)
(0.487959 0.085014 -3.38285e-17)
(0.538147 0.0984352 0)
(0.591065 0.114047 0)
(0.662841 0.131473 -2.36887e-17)
(0.716503 0.152519 0)
(0.877185 0.176245 1.19152e-17)
(0.799241 -0.0806308 -7.44465e-19)
(0.50194 -0.0490423 -1.08005e-19)
(0.278374 -0.0087954 2.14318e-17)
(0.10999 0.0113473 2.75392e-17)
(-0.0176788 0.0205645 0)
(-0.077209 0.024433 -1.88806e-17)
(-0.0920709 0.0167588 0)
(-0.054593 -0.0123546 0)
(0.0337557 -0.0466697 0)
(0.126422 -0.0616192 1.74204e-17)
(0.20591 -0.0621058 -1.91152e-17)
(0.255145 -0.0543876 0)
(0.268426 -0.0380394 0)
(0.240051 -0.0136599 0)
(0.167222 0.0247827 -1.35631e-17)
(-0.0568359 0.0861252 0)
(-0.240643 0.106622 -9.40588e-18)
(-0.361235 0.0982893 7.37153e-18)
(-0.449408 0.0878553 0)
(-0.513012 0.0772433 0)
(-0.557931 0.0665641 1.164e-18)
(-0.587399 0.0556741 8.28771e-19)
(-0.602723 0.0441443 -1.37199e-18)
(-0.604376 0.0321007 -7.44176e-19)
(-0.593282 0.0201542 0)
(-0.571481 0.00901031 6.28845e-19)
(-0.541091 -0.000916347 0)
(-0.50418 -0.00938108 -1.07719e-18)
(-0.462718 -0.0162889 6.67781e-19)
(-0.418385 -0.0216438 0)
(-0.372641 -0.0255356 0)
(-0.326594 -0.0281085 -2.20451e-18)
(-0.281105 -0.0294934 2.50361e-18)
(-0.236701 -0.0298687 0)
(-0.193713 -0.0293762 -3.09285e-18)
(-0.152227 -0.0282084 0)
(-0.112217 -0.0264098 7.31708e-18)
(-0.0734573 -0.0241898 0)
(-0.0354385 -0.0217304 0)
(0.00225554 -0.0186594 0)
(0.0358237 -0.0144574 -1.7596e-17)
(0.0674794 -0.00975274 -1.76609e-17)
(0.0982207 -0.00501378 -1.76746e-17)
(0.128199 -0.000258764 3.70545e-21)
(0.157626 0.00475025 -1.75229e-17)
(0.186827 0.0100347 1.73969e-17)
(0.216099 0.0156926 3.44518e-17)
(0.245786 0.0217472 0)
(0.276217 0.0282963 -1.67549e-17)
(0.307757 0.0353931 3.28639e-17)
(0.340793 0.043156 3.20742e-17)
(0.375822 0.0516819 0)
(0.413311 0.0611348 0)
(0.454084 0.0716567 0)
(0.498384 0.0835277 2.67247e-17)
(0.548862 0.0968738 0)
(0.602267 0.112436 0)
(0.674247 0.129499 1.81409e-17)
(0.72928 0.150707 -1.29897e-17)
(0.886502 0.171684 -9.13475e-18)
(0.812116 -0.0652481 -6.51078e-19)
(0.535756 -0.0432406 -9.05902e-18)
(0.323836 -0.0065341 0)
(0.15914 0.0118296 -2.39989e-17)
(0.0208548 0.0203648 -2.13448e-17)
(-0.0556784 0.0234649 3.63163e-21)
(-0.0743574 0.0129425 0)
(-0.0394915 -0.0194083 0)
(0.0355422 -0.0540164 0)
(0.121045 -0.0682563 -1.60259e-17)
(0.197121 -0.066634 0)
(0.244468 -0.055934 0)
(0.255223 -0.0357429 1.16774e-17)
(0.220741 -0.00470454 0)
(0.114246 0.0479604 0)
(-0.108277 0.111375 0)
(-0.261844 0.122574 0)
(-0.367323 0.109266 -6.15235e-18)
(-0.446796 0.0954341 0)
(-0.505769 0.0823818 2.98509e-18)
(-0.54821 0.0698278 -1.02985e-18)
(-0.576326 0.057374 -7.21898e-19)
(-0.590889 0.0443937 1.24531e-18)
(-0.592043 0.0309585 1.40061e-18)
(-0.580527 0.0177374 0)
(-0.558379 0.00554108 -6.01875e-19)
(-0.527714 -0.00519929 0)
(-0.490603 -0.0142416 0)
(-0.449019 -0.0215081 -1.27946e-18)
(-0.404639 -0.0270301 0)
(-0.358918 -0.0309299 0)
(-0.312953 -0.033386 2.10909e-18)
(-0.267593 -0.0345665 0)
(-0.223351 -0.0346858 0)
(-0.180543 -0.0339113 2.94774e-18)
(-0.139237 -0.0324468 0)
(-0.0993847 -0.0303623 -6.9472e-18)
(-0.0607259 -0.0279476 0)
(-0.0226133 -0.0252596 0)
(0.0138883 -0.0217819 0)
(0.0463359 -0.0172372 0)
(0.0775932 -0.0123172 1.6289e-17)
(0.108008 -0.00738731 1.62137e-17)
(0.137694 -0.00245466 2.9503e-21)
(0.166865 0.00270147 1.59053e-17)
(0.195835 0.00810391 1.56874e-17)
(0.224904 0.0138524 -1.54421e-17)
(0.254411 0.0199723 0)
(0.284691 0.0265632 -1.48077e-17)
(0.316108 0.0336797 1.44176e-17)
(0.349051 0.0414411 -2.79298e-17)
(0.384018 0.0499445 0)
(0.421479 0.0593533 0)
(0.462258 0.0698101 -2.41846e-17)
(0.506611 0.0815878 -2.24572e-17)
(0.557159 0.0948126 2.03759e-17)
(0.61076 0.110207 1.78429e-17)
(0.682732 0.126975 -1.48336e-17)
(0.738527 0.147879 1.03368e-17)
(0.893087 0.167127 0)
(0.823618 -0.0510357 -5.75245e-19)
(0.565124 -0.0369214 0)
(0.364069 -0.00351337 1.69293e-17)
(0.204888 0.013215 2.15038e-17)
(0.0623844 0.0205776 4.55396e-22)
(-0.0293446 0.0225332 1.6666e-17)
(-0.0550117 0.00931627 0)
(-0.0246078 -0.0257231 0)
(0.0374684 -0.0604819 0)
(0.114728 -0.0742672 7.56531e-18)
(0.186912 -0.0708132 8.41538e-18)
(0.232466 -0.0571493 0)
(0.240433 -0.0326133 -1.12954e-17)
(0.197037 0.00626125 1.08768e-17)
(0.0573347 0.0727283 0)
(-0.14651 0.132647 0)
(-0.275758 0.135981 0)
(-0.368881 0.118753 6.08845e-20)
(-0.441624 0.102199 0)
(-0.497119 0.0871112 -5.34552e-18)
(-0.537707 0.0728951 9.21266e-19)
(-0.564829 0.0589823 6.86257e-19)
(-0.578862 0.044601 -1.88172e-20)
(-0.579653 0.0297932 -6.87043e-19)
(-0.567769 0.0152979 0)
(-0.545307 0.00205121 0)
(-0.514388 -0.00949886 0)
(-0.477094 -0.0191139 5.05298e-19)
(-0.435406 -0.0267338 1.26512e-18)
(-0.390996 -0.0324177 0)
(-0.345314 -0.0363206 0)
(-0.299446 -0.0386559 -2.08758e-18)
(-0.254228 -0.0396313 -1.18325e-18)
(-0.210158 -0.0394963 0)
(-0.167539 -0.0384403 0)
(-0.126418 -0.0366769 0)
(-0.0867327 -0.0343254 0)
(-0.0481803 -0.0317393 0)
(-0.0101125 -0.0287214 0)
(0.0246902 -0.0248396 0)
(0.0564859 -0.0199923 0)
(0.0873377 -0.0148819 0)
(0.117386 -0.00977566 -1.96144e-21)
(0.146738 -0.0046793 1.52954e-17)
(0.175605 0.000609736 0)
(0.204294 0.00611597 -2.95638e-17)
(0.233105 0.0119394 -1.44674e-17)
(0.262377 0.0181082 0)
(0.292446 0.0247229 1.37275e-17)
(0.323676 0.03184 -1.32849e-17)
(0.356459 0.0395788 2.55709e-17)
(0.391293 0.0480375 -2.44187e-17)
(0.428653 0.0573775 0)
(0.469358 0.0677437 2.77015e-20)
(0.513682 0.0793963 1.99424e-17)
(0.564214 0.0924774 -3.58311e-17)
(0.617901 0.107641 -4.30415e-20)
(0.689799 0.124163 -1.27092e-17)
(0.746126 0.144508 8.59829e-18)
(0.898437 0.16265 6.19427e-18)
(0.834163 -0.0375776 -5.02865e-18)
(0.591228 -0.0303579 0)
(0.400115 -2.36067e-05 -8.56386e-20)
(0.247339 0.0152467 -3.45632e-20)
(0.10439 0.0213565 1.89065e-17)
(0.00211971 0.0216905 1.62495e-17)
(-0.0333092 0.00592071 0)
(-0.00921323 -0.0314116 1.37298e-17)
(0.040472 -0.0661979 0)
(0.108298 -0.0796867 -7.2544e-18)
(0.175812 -0.0746997 1.83537e-21)
(0.219487 -0.0580286 -9.24489e-18)
(0.224063 -0.0284961 0)
(0.168114 0.0192022 -2.02952e-17)
(0.00266755 0.0975431 0)
(-0.174719 0.150448 0)
(-0.284287 0.147306 0)
(-0.36738 0.127067 4.71959e-18)
(-0.434762 0.108351 0)
(-0.487457 0.0915297 2.47563e-18)
(-0.52652 0.0758023 -1.74405e-18)
(-0.552819 0.0605062 0)
(-0.5664 0.0447606 -2.03797e-20)
(-0.566841 0.0285919 0)
(-0.554555 0.0128202 0)
(-0.53175 -0.00147261 -5.82604e-19)
(-0.50056 -0.013825 0)
(-0.463085 -0.024004 -1.01889e-18)
(-0.421306 -0.0319678 -6.38065e-19)
(-0.376893 -0.0378039 -1.92852e-19)
(-0.331286 -0.0417009 2.27837e-19)
(-0.285553 -0.0439091 1.05422e-18)
(-0.240517 -0.0446776 2.39131e-18)
(-0.19666 -0.0442879 0)
(-0.154268 -0.0429455 2.94569e-18)
(-0.113372 -0.0408821 0)
(-0.073893 -0.0382939 0)
(-0.0354728 -0.0355203 0)
(0.00200305 -0.0320951 7.73917e-18)
(0.0352896 -0.0278136 0)
(0.0665547 -0.0227159 0)
(0.0969677 -0.017428 1.53914e-17)
(0.126606 -0.0121553 -1.52087e-17)
(0.155579 -0.00690564 0)
(0.184098 -0.00149413 0)
(0.212462 0.00410557 1.43535e-17)
(0.240969 0.0099927 1.399e-17)
(0.26996 0.0161988 -1.35824e-17)
(0.29977 0.0228246 0)
(0.330765 0.0299288 0)
(0.36334 0.0376306 0)
(0.397992 0.0460295 1.91941e-20)
(0.435202 0.0552845 0)
(0.475785 0.0655439 2.01134e-17)
(0.52003 0.077052 0)
(0.570501 0.0899759 1.63799e-17)
(0.624221 0.104874 -1.40178e-17)
(0.696015 0.121179 2.28248e-17)
(0.752754 0.140828 -7.58995e-18)
(0.903065 0.158257 -5.53545e-18)
(0.843938 -0.0248507 4.59959e-19)
(0.614806 -0.0237295 -7.20161e-18)
(0.43275 0.00376344 -1.45723e-17)
(0.286715 0.0177431 -3.73183e-20)
(0.145963 0.022644 -1.80931e-17)
(0.0372513 0.021007 -1.59723e-17)
(-0.00829711 0.002783 0)
(0.00730277 -0.0364469 -1.36705e-17)
(0.0451241 -0.071221 0)
(0.102417 -0.084522 -6.99771e-18)
(0.164231 -0.078308 -7.96704e-18)
(0.205785 -0.058515 9.20731e-18)
(0.205981 -0.0232751 -1.09745e-17)
(0.133153 0.0343444 9.51337e-18)
(-0.0454237 0.120902 -7.96094e-18)
(-0.195152 0.165256 6.46481e-18)
(-0.288727 0.156926 0)
(-0.363641 0.134443 0)
(-0.426602 0.114014 0)
(-0.476904 0.0956882 1.1424e-18)
(-0.5146 0.0785606 8.42839e-19)
(-0.54011 0.0619367 0)
(-0.553209 0.0448528 -5.66687e-19)
(-0.553223 0.0273317 0)
(-0.540455 0.0102825 0)
(-0.517253 -0.00504741 5.96111e-19)
(-0.485771 -0.0181889 -7.92632e-19)
(-0.448116 -0.0289174 5.18015e-19)
(-0.406271 -0.0372101 0)
(-0.361892 -0.0431838 3.92624e-19)
(-0.316407 -0.0470625 -4.64339e-19)
(-0.270865 -0.0491362 0)
(-0.226071 -0.0496949 -1.22186e-18)
(-0.182485 -0.049045 2.73397e-18)
(-0.140378 -0.0474064 -3.02006e-18)
(-0.0997651 -0.0450512 0)
(-0.0605491 -0.0422619 0)
(-0.0222882 -0.0392216 0)
(0.0138745 -0.0353562 -7.86613e-18)
(0.0460526 -0.0307047 0)
(0.0767865 -0.0253922 0)
(0.106711 -0.019935 -1.54419e-17)
(0.135887 -0.0145042 0)
(0.164431 -0.00911019 1.49344e-17)
(0.192553 -0.00358518 -1.46047e-17)
(0.220543 0.0020992 0)
(0.2487 0.00804059 1.38238e-17)
(0.277362 0.0142742 2.67533e-17)
(0.306865 0.0209002 -1.28812e-17)
(0.337578 0.0279804 0)
(0.369897 0.0356332 0)
(0.404322 0.0439598 1.11207e-17)
(0.441337 0.0531166 0)
(0.481756 0.063256 1.91701e-17)
(0.525883 0.0746048 0)
(0.576255 0.0873601 1.53703e-17)
(0.62997 0.101971 1.30155e-17)
(0.701638 0.118073 -1.0565e-17)
(0.758711 0.136953 0)
(0.907191 0.153926 5.02008e-18)
(0.853059 -0.0128375 2.85816e-18)
(0.636359 -0.0171175 2.83847e-20)
(0.462559 0.00773852 1.36247e-17)
(0.323273 0.0205639 -3.92133e-20)
(0.186504 0.0243279 1.0765e-20)
(0.0746556 0.0205833 0)
(0.0202969 -0.000178065 0)
(0.0254749 -0.0407356 0)
(0.0517203 -0.0755508 -6.14285e-18)
(0.0975932 -0.0887532 1.35467e-17)
(0.15249 -0.081595 0)
(0.191533 -0.0585233 9.29171e-18)
(0.185928 -0.0169156 -6.39374e-21)
(0.0918426 0.0522597 -8.82323e-18)
(-0.0838713 0.141189 2.04655e-20)
(-0.209429 0.177531 -5.91167e-18)
(-0.289973 0.165156 0)
(-0.358143 0.141057 0)
(-0.417333 0.119267 0)
(-0.465478 0.0996127 -1.11e-18)
(-0.501844 0.0811675 0)
(-0.526507 0.0632558 5.94651e-19)
(-0.53902 0.0448539 5.33811e-19)
(-0.538486 0.0259891 -6.62805e-19)
(-0.525163 0.00766775 0)
(-0.501525 -0.00868372 0)
(-0.469744 -0.0225955 8.10668e-19)
(-0.431928 -0.0338539 0)
(-0.390052 -0.0424561 6.56765e-19)
(-0.345753 -0.0485492 -2.00255e-19)
(-0.300445 -0.0523961 2.37217e-19)
(-0.255152 -0.0543281 -1.09951e-18)
(-0.21066 -0.0546715 0)
(-0.167407 -0.0537493 -2.8139e-18)
(-0.125647 -0.0518059 0)
(-0.0853823 -0.0491846 0)
(-0.0464826 -0.0462075 7.39199e-18)
(-0.00857286 -0.0427805 0)
(0.0257856 -0.0384922 0)
(0.0572054 -0.0335138 0)
(0.087373 -0.0280042 0)
(0.116753 -0.0223839 0)
(0.145412 -0.0168022 0)
(0.173472 -0.011272 -3.02237e-17)
(0.201143 -0.00564159 1.47494e-17)
(0.228709 0.000119492 1.43374e-17)
(0.256464 0.00610667 -2.77768e-17)
(0.284746 0.0123588 -1.33985e-17)
(0.313893 0.0189755 1.28616e-17)
(0.344274 0.0260213 -1.22713e-17)
(0.376288 0.0336139 0)
(0.410436 0.0418565 8.79068e-21)
(0.447208 0.0509028 -2.03546e-17)
(0.487419 0.0609095 -1.87029e-17)
(0.531384 0.0720859 -1.68185e-17)
(0.581619 0.084661 -2.95745e-17)
(0.635294 0.0989669 -1.24284e-17)
(0.706811 0.114873 9.95552e-18)
(0.764152 0.132943 6.36614e-18)
(0.910927 0.14964 -4.72682e-18)
(0.861611 -0.00148888 -3.79756e-19)
(0.656239 -0.0105625 6.55908e-18)
(0.489994 0.0118264 -7.36119e-20)
(0.357273 0.0236007 -4.03529e-20)
(0.22563 0.0263066 1.69604e-17)
(0.113296 0.0204707 1.57773e-17)
(0.0520796 -0.00279985 -1.84512e-17)
(0.0456674 -0.0443386 6.86003e-18)
(0.0603547 -0.0791557 5.84708e-21)
(0.0941886 -0.0923437 -6.55823e-18)
(0.140852 -0.0844659 -7.72937e-18)
(0.176829 -0.0579836 -9.44124e-18)
(0.16357 -0.00947257 2.14328e-17)
(0.0490008 0.0713462 -5.88094e-21)
(-0.113941 0.158582 6.5332e-18)
(-0.218759 0.187686 0)
(-0.288658 0.172253 4.4571e-18)
(-0.351185 0.147041 0)
(-0.407052 0.124162 -2.7836e-18)
(-0.453155 0.103314 -1.0451e-18)
(-0.488151 0.0836127 -7.68735e-19)
(-0.511859 0.064443 -2.32531e-20)
(-0.523657 0.0447421 -5.48006e-19)
(-0.522446 0.0245445 6.8909e-19)
(-0.508551 0.00496917 0)
(-0.484471 -0.0123829 -5.97734e-19)
(-0.452413 -0.027042 0)
(-0.414474 -0.0388074 0)
(-0.372613 -0.047697 -6.68755e-19)
(-0.328445 -0.0538912 0)
(-0.283367 -0.0576948 0)
(-0.238378 -0.0594786 1.12493e-18)
(-0.19424 -0.0595958 0)
(-0.151372 -0.0583846 0)
(-0.110013 -0.0561411 3.21868e-18)
(-0.0701502 -0.0532928 0)
(-0.0316021 -0.0500796 -7.69953e-18)
(0.0053487 -0.0461846 0)
(0.0381354 -0.0414949 8.16823e-18)
(0.0688728 -0.0362376 0)
(0.0984345 -0.0305396 0)
(0.12722 -0.0247606 0)
(0.15531 -0.0190341 0)
(0.182836 -0.0133748 1.54251e-17)
(0.210006 -0.00764607 0)
(0.237095 -0.00181529 -2.91904e-17)
(0.264398 0.00421021 1.41118e-17)
(0.292249 0.0104729 -1.35755e-17)
(0.320989 0.0170715 1.29962e-17)
(0.350984 0.0240733 1.23751e-17)
(0.382641 0.0315953 0)
(0.41646 0.0397428 1.09524e-17)
(0.452938 0.0486665 3.04213e-17)
(0.492889 0.058528 -1.85037e-17)
(0.536646 0.0695188 1.65816e-17)
(0.586701 0.0819013 1.44738e-17)
(0.640295 0.0958877 0)
(0.711628 0.111596 -9.61654e-18)
(0.769177 0.128835 -1.21138e-17)
(0.914345 0.145383 0)
(0.869654 0.00924575 -1.20795e-18)
(0.674702 -0.00409128 0)
(0.515405 0.0159739 -6.95287e-20)
(0.38896 0.0267718 -4.08429e-20)
(0.263105 0.0284959 -1.64981e-17)
(0.152294 0.020664 -3.17403e-17)
(0.0859478 -0.0049571 3.78566e-17)
(0.0679148 -0.047221 -6.98182e-18)
(0.0709897 -0.0819946 5.82155e-18)
(0.0924391 -0.0952487 0)
(0.129556 -0.086795 -1.03791e-20)
(0.161675 -0.0568945 0)
(0.138566 -0.0010023 -2.11638e-17)
(0.007947 0.0905912 7.82243e-18)
(-0.136829 0.173264 0)
(-0.224058 0.196068 0)
(-0.28524 0.178424 -4.20446e-18)
(-0.342956 0.152492 0)
(-0.395805 0.12873 2.7128e-18)
(-0.439909 0.106794 1.03273e-18)
(-0.473453 0.0858839 2.31143e-20)
(-0.496088 0.0654817 -5.85114e-19)
(-0.507072 0.0445064 -5.08639e-19)
(-0.505138 0.0229963 0)
(-0.490646 0.00218898 0)
(-0.466154 -0.016139 6.08696e-19)
(-0.433869 -0.0315202 0)
(-0.395862 -0.0437682 5.33394e-19)
(-0.354072 -0.0529235 -6.72607e-19)
(-0.310089 -0.0592036 2.05553e-19)
(-0.265291 -0.0629558 -2.44984e-19)
(-0.220651 -0.0645826 1.14414e-18)
(-0.17691 -0.0644558 -1.313e-18)
(-0.134467 -0.0629439 2.97036e-18)
(-0.0935533 -0.0604281 -3.31819e-18)
(-0.0541247 -0.0573779 0)
(-0.0159375 -0.0538006 0)
(0.0192923 -0.0494417 0)
(0.0510147 -0.044384 -9.04164e-22)
(0.0810808 -0.0388749 8.32579e-18)
(0.110009 -0.0329928 0)
(0.138164 -0.0270578 0)
(0.165646 -0.0211911 0)
(0.192597 -0.0154086 0)
(0.219223 -0.00958722 0)
(0.245793 -0.00369245 4.73675e-21)
(0.2726 0.00236529 0)
(0.299974 0.00863201 2.77528e-17)
(0.328257 0.015205 -2.65212e-17)
(0.357819 0.0221546 -1.25885e-17)
(0.389065 0.0295966 0)
(0.422503 0.0376384 0)
(0.458632 0.046428 -2.04377e-17)
(0.49827 0.0561317 2.14035e-20)
(0.541766 0.066924 -1.65208e-17)
(0.591589 0.0791003 1.4325e-17)
(0.645056 0.0927539 1.18239e-17)
(0.716165 0.108257 -9.35967e-18)
(0.77386 0.124656 1.16712e-17)
(0.917498 0.141149 4.29761e-18)
(0.877234 0.0194086 3.20334e-19)
(0.691936 0.00227749 -6.08764e-18)
(0.539068 0.0201442 -2.36382e-17)
(0.418559 0.0300176 -4.0794e-20)
(0.298803 0.0308287 1.61062e-17)
(0.190951 0.0211407 1.6033e-17)
(0.121176 -0.00658216 -9.72676e-18)
(0.0920422 -0.049344 0)
(0.0835119 -0.0840303 0)
(0.0924737 -0.0974194 6.14266e-18)
(0.118837 -0.0884477 7.52352e-18)
(0.146013 -0.055323 0)
(0.110647 0.00868309 1.04627e-17)
(-0.0288231 0.109067 0)
(-0.153595 0.185486 0)
(-0.226037 0.202977 0)
(-0.280052 0.18383 0)
(-0.333585 0.157477 3.21608e-18)
(-0.383619 0.132991 1.28018e-18)
(-0.42572 0.110051 -9.7606e-19)
(-0.457723 0.0879713 2.38503e-20)
(-0.479189 0.0663626 0)
(-0.4893 0.0441455 5.19693e-19)
(-0.486628 0.0213501 0)
(-0.471569 -0.000663746 0)
(-0.446722 -0.0199407 5.95275e-19)
(-0.414275 -0.0360179 -8.14275e-19)
(-0.376267 -0.0487244 -5.37817e-19)
(-0.33461 -0.0581269 6.78225e-19)
(-0.290868 -0.0644826 -4.14424e-19)
(-0.246402 -0.0681767 4.95093e-19)
(-0.202152 -0.069632 -1.16021e-18)
(-0.158844 -0.0692412 1.33592e-18)
(-0.116863 -0.0674363 -1.71822e-21)
(-0.0764283 -0.0646923 -3.40187e-18)
(-0.0374435 -0.0614041 0)
(-2.74214e-05 -0.0573472 0)
(0.033429 -0.0525611 0)
(0.0643716 -0.0471795 -1.68861e-17)
(0.0937745 -0.0414294 -8.47861e-18)
(0.122058 -0.0353649 0)
(0.149567 -0.0292753 0)
(0.176421 -0.0232717 -1.65664e-17)
(0.202772 -0.0173702 0)
(0.228825 -0.0114604 0)
(0.254844 -0.00550581 3.07401e-17)
(0.281121 0.000579772 -1.48363e-17)
(0.307982 0.00684564 -2.8503e-17)
(0.335771 0.0133874 6.93742e-21)
(0.364855 0.0202782 2.58022e-17)
(0.395646 0.0276324 1.21296e-17)
(0.428652 0.0355595 0)
(0.464381 0.0442047 1.03983e-17)
(0.50365 0.0537386 1.88319e-17)
(0.546829 0.0643198 1.6683e-17)
(0.596365 0.0762755 -1.43894e-17)
(0.649651 0.0895837 -1.1795e-17)
(0.720486 0.104871 9.27921e-18)
(0.778265 0.120428 -5.70819e-18)
(0.920433 0.136932 -4.21705e-18)
(0.884387 0.0290359 2.96101e-19)
(0.708087 0.0085312 5.91134e-18)
(0.561203 0.0243116 6.14417e-20)
(0.44627 0.0332952 -4.03032e-20)
(0.33267 0.0332538 0)
(0.22873 0.0218716 0)
(0.156927 -0.00762163 8.85673e-21)
(0.117737 -0.0506817 0)
(0.0977686 -0.0852384 0)
(0.094338 -0.0988075 8.6979e-21)
(0.108939 -0.0893108 0)
(0.129825 -0.0533596 0)
(0.0790802 0.020722 1.01917e-17)
(-0.0589516 0.125287 0)
(-0.165147 0.195541 0)
(-0.225256 0.208663 0)
(-0.273338 0.188597 0)
(-0.323161 0.162049 -5.43524e-20)
(-0.370516 0.136957 -1.26073e-18)
(-0.410592 0.113083 1.91286e-18)
(-0.440977 0.0898698 2.43935e-20)
(-0.461211 0.0670839 5.18867e-19)
(-0.470429 0.0436651 0)
(-0.467039 0.0196153 6.21746e-19)
(-0.451465 -0.00357725 0)
(-0.426332 -0.0237751 -5.98992e-19)
(-0.393798 -0.040522 8.91564e-21)
(-0.35586 -0.0536647 0)
(-0.314404 -0.0633008 0)
(-0.270963 -0.0697258 5.76528e-22)
(-0.226878 -0.0733517 -4.55712e-22)
(-0.183063 -0.0746146 5.8383e-19)
(-0.140226 -0.0739502 0)
(-0.0987449 -0.071887 -3.0805e-18)
(-0.0588145 -0.0689424 3.47088e-18)
(-0.0202599 -0.0652931 0)
(0.0156425 -0.0607451 -8.18955e-18)
(0.0478582 -0.0555668 0)
(0.0780968 -0.0498942 1.67312e-21)
(0.106848 -0.0439084 0)
(0.13449 -0.0376619 8.61156e-18)
(0.161356 -0.0314183 8.5761e-18)
(0.187578 -0.0252798 4.59963e-21)
(0.213319 -0.0192624 -1.66635e-17)
(0.238787 -0.013267 0)
(0.26424 -0.00725544 -5.84349e-21)
(0.289967 -0.00114479 1.52786e-17)
(0.316294 0.00511716 6.83793e-21)
(0.343561 0.0116241 1.40069e-17)
(0.372138 0.0184515 -7.98533e-21)
(0.402439 0.0257123 -8.63535e-21)
(0.434972 0.0335177 0)
(0.470254 0.0420099 0)
(0.509104 0.0513635 0)
(0.551912 0.061722 0)
(0.601103 0.0734429 0)
(0.654151 0.086394 1.18237e-17)
(0.724655 0.10145 0)
(0.782452 0.116169 0)
(0.923192 0.132731 -4.11506e-18)
(0.891143 0.0381602 -1.95641e-19)
(0.723269 0.0146618 0)
(0.581988 0.0284587 5.74905e-20)
(0.472272 0.0365752 -3.946e-20)
(0.364705 0.0357339 0)
(0.265241 0.0228306 8.20171e-18)
(0.192499 -0.00805137 -1.03509e-17)
(0.144606 -0.0512276 0)
(0.113586 -0.0856103 0)
(0.0980181 -0.0993664 -5.7378e-18)
(0.100119 -0.08931 0)
(0.113002 -0.0510362 0)
(0.0470456 0.0339098 -9.88147e-18)
(-0.0828149 0.13932 0)
(-0.172263 0.203722 -4.93508e-18)
(-0.222156 0.213341 0)
(-0.26528 0.192824 0)
(-0.311749 0.166244 -5.30542e-20)
(-0.356517 0.140637 0)
(-0.394542 0.115889 -9.36793e-19)
(-0.423254 0.0915788 6.95657e-19)
(-0.442224 0.0676492 -1.01443e-18)
(-0.450561 0.0430738 4.45585e-19)
(-0.44649 0.0178027 -6.28962e-19)
(-0.430461 -0.00653907 0)
(-0.405116 -0.0276287 -5.77494e-19)
(-0.372572 -0.0450192 1.60653e-18)
(-0.334778 -0.0585796 0)
(-0.293593 -0.0684405 -3.35577e-19)
(-0.250514 -0.0749283 2.07305e-19)
(-0.206865 -0.0784687 -2.48894e-19)
(-0.163529 -0.0795197 -5.86281e-19)
(-0.12121 -0.0785959 0)
(-0.080269 -0.0763221 -3.10843e-18)
(-0.0408585 -0.0731406 3.51722e-18)
(-0.00298877 -0.0689994 0)
(0.0310959 -0.0640226 8.12071e-18)
(0.0625015 -0.0584873 0)
(0.0920677 -0.0525381 8.53056e-18)
(0.120179 -0.0463203 0)
(0.147193 -0.0398924 -8.71711e-18)
(0.173425 -0.0334951 -8.71862e-18)
(0.199025 -0.0272234 5.34507e-21)
(0.224162 -0.0210923 1.70573e-17)
(0.249047 -0.0150133 0)
(0.273932 -0.00894637 -1.62558e-17)
(0.299105 -0.0028121 0)
(0.324888 0.00344437 1.51171e-17)
(0.351622 0.00991458 0)
(0.379677 0.0166762 -1.36783e-17)
(0.409465 0.0238402 -2.56832e-17)
(0.441499 0.0315192 0)
(0.4763 0.0398523 0)
(0.514688 0.0490173 0)
(0.557076 0.0591435 8.66034e-18)
(0.605866 0.0706162 0)
(0.658619 0.0831997 -2.66698e-20)
(0.72873 0.0980088 0)
(0.786478 0.111896 5.57422e-18)
(0.925816 0.128545 4.10624e-18)
(0.897525 0.0468111 0)
(0.737574 0.0206638 5.65098e-18)
(0.601567 0.0325729 1.06631e-17)
(0.496721 0.0398374 -3.8337e-20)
(0.394948 0.038243 0)
(0.300213 0.0239981 -8.26725e-18)
(0.227345 -0.00788051 0)
(0.172239 -0.0509936 8.33919e-18)
(0.13078 -0.0851546 5.58099e-18)
(0.103461 -0.0990537 5.57383e-18)
(0.0926399 -0.0883987 7.201e-18)
(0.0953516 -0.0482456 1.21471e-17)
(0.0168253 0.0475062 0)
(-0.101012 0.151277 0)
(-0.175601 0.210298 4.69184e-18)
(-0.217086 0.217188 0)
(-0.256016 0.196584 0)
(-0.299398 0.170091 -2.91572e-18)
(-0.341644 0.144037 0)
(-0.3776 0.118469 -8.79097e-19)
(-0.404605 0.0931016 0)
(-0.422304 0.0680654 4.934e-19)
(-0.429785 0.0423806 -4.4837e-19)
(-0.425073 0.0159214 0)
(-0.408651 -0.00953806 0)
(-0.383167 -0.031489 1.11296e-20)
(-0.35069 -0.0494983 -7.94729e-19)
(-0.313117 -0.063462 0)
(-0.272273 -0.0735416 3.34103e-19)
(-0.22962 -0.08008 2.05432e-19)
(-0.18646 -0.0835125 -2.47535e-19)
(-0.143655 -0.084346 0)
(-0.101905 -0.0832031 0)
(-0.0615436 -0.0807427 2.62183e-21)
(-0.0226588 -0.0772052 -2.1878e-21)
(0.0138183 -0.0725616 0)
(0.0465949 -0.0671922 0)
(0.0772718 -0.0613366 8.27319e-18)
(0.106177 -0.0551186 0)
(0.133657 -0.0486728 0)
(0.160053 -0.0420647 0)
(0.185668 -0.0355147 0)
(0.210661 -0.0291113 1.75739e-17)
(0.235208 -0.0228687 1.7381e-17)
(0.259521 -0.0167077 0)
(0.283848 -0.0105865 0)
(0.308474 -0.0044293 1.61503e-17)
(0.333718 0.00182117 0)
(0.35992 0.0082542 0)
(0.387448 0.0149492 -1.40914e-17)
(0.416717 0.0220152 1.32454e-17)
(0.448237 0.0295655 0)
(0.482537 0.037736 0)
(0.520435 0.0467065 0)
(0.562365 0.0565933 -8.90464e-18)
(0.610705 0.0678062 7.57416e-18)
(0.663108 0.0800137 -2.44112e-17)
(0.732763 0.0945578 0)
(0.790396 0.107624 -5.61077e-18)
(0.928347 0.124375 -4.063e-18)
(0.903556 0.0550158 0)
(0.751076 0.0265337 -5.53108e-18)
(0.620059 0.0366457 0)
(0.519757 0.0430693 -1.9178e-17)
(0.423462 0.0407645 0)
(0.333479 0.0253601 -8.30706e-18)
(0.261063 -0.0071433 0)
(0.200239 -0.0500075 -8.96862e-18)
(0.149166 -0.0838937 -5.61599e-18)
(0.110592 -0.097836 -5.40287e-18)
(0.0867513 -0.0865475 -7.02926e-18)