/*--------------------------------*- C++ -*----------------------------------*\
| =========                 |                                                 |
| \\      /  F ield         | OpenFOAM: The Open Source CFD Toolbox           |
|  \\    /   O peration     | Version:  2.4.0                                 |
|   \\  /    A nd           | Web:      www.OpenFOAM.org                      |
|    \\/     M anipulation  |                                                 |
\*---------------------------------------------------------------------------*/
FoamFile
{
    version     2.0;
    format      ascii;
    class       surfaceScalarField;
    location    "1.02";
    object      phi;
}
// * * * * * * * * * * * * * * * * * * * * * * * * * * * * * * * * * * * * * //

dimensions      [0 3 -1 0 0 0 0];

internalField   nonuniform List<scalar> 
11840
(
7.86381e-07
9.21362e-06
-1.84146e-08
8.04796e-07
-4.68886e-08
2.8474e-08
-7.35578e-08
2.66692e-08
-8.8301e-08
1.47432e-08
-9.29136e-08
4.61259e-09
-8.35477e-08
-9.36592e-09
-4.28827e-08
-4.0665e-08
-1.03568e-10
-4.27791e-08
-3.16784e-09
3.06427e-09
-9.96908e-08
9.6523e-08
-3.13223e-07
2.13532e-07
-6.14756e-07
3.01533e-07
-9.16773e-07
3.02017e-07
-1.11461e-06
1.97836e-07
-1.14471e-06
3.01013e-08
-1.01861e-06
-1.26096e-07
-8.01652e-07
-2.16962e-07
-5.65322e-07
-2.3633e-07
-3.55588e-07
-2.09733e-07
-1.89811e-07
-1.65777e-07
-6.63187e-08
-1.23492e-07
2.47143e-08
-9.1033e-08
9.48739e-08
-7.01596e-08
1.52702e-07
-5.78284e-08
2.05226e-07
-5.25233e-08
2.56805e-07
-5.15795e-08
3.09324e-07
-5.25189e-08
3.62527e-07
-5.32027e-08
4.14633e-07
-5.21062e-08
4.6325e-07
-4.86168e-08
5.06367e-07
-4.31169e-08
5.4303e-07
-3.66635e-08
5.73433e-07
-3.04034e-08
5.98539e-07
-2.51051e-08
6.19567e-07
-2.10283e-08
6.37632e-07
-1.80648e-08
6.53586e-07
-1.5954e-08
6.68021e-07
-1.44349e-08
6.81331e-07
-1.33105e-08
6.93782e-07
-1.24506e-08
7.05559e-07
-1.17773e-08
7.16796e-07
-1.12368e-08
7.27603e-07
-1.0807e-08
7.38046e-07
-1.04434e-08
7.48224e-07
-1.01777e-08
7.58121e-07
-9.89689e-09
7.67936e-07
-9.81512e-09
7.77396e-07
-9.46045e-09
7.87182e-07
-9.78549e-09
7.96007e-07
-8.82495e-09
8.06564e-07
-1.0557e-08
8.13634e-07
-7.07026e-09
8.27523e-07
-1.38893e-08
8.28873e-07
-1.34918e-09
8.54384e-07
-2.55115e-08
8.38496e-07
1.58882e-08
9.03246e-07
-6.47505e-08
8.41012e-07
6.22343e-08
-2.48868e-07
1.92148e-06
1.72921e-05
1.08773e-07
2.6175e-06
-6.982e-08
2.07067e-07
-1.77864e-07
1.34713e-07
-2.20072e-07
5.69516e-08
-2.43133e-07
2.7673e-08
-2.15949e-07
-3.65495e-08
-1.2421e-07
-1.32404e-07
-4.4456e-08
-1.22533e-07
-1.02701e-07
6.13095e-08
-4.0922e-07
4.03042e-07
-9.73107e-07
7.77419e-07
-1.67648e-06
1.0049e-06
-2.30412e-06
9.29664e-07
-2.65003e-06
5.43742e-07
-2.6236e-06
3.66774e-09
-2.27714e-06
-4.72555e-07
-1.75579e-06
-7.38311e-07
-1.20397e-06
-7.88152e-07
-7.12807e-07
-7.00893e-07
-3.16912e-07
-5.61672e-07
-1.56522e-08
-4.24752e-07
2.16952e-07
-3.23637e-07
3.98494e-07
-2.51701e-07
5.52148e-07
-2.11483e-07
6.93021e-07
-1.93397e-07
8.2979e-07
-1.88348e-07
9.65458e-07
-1.88187e-07
1.09859e-06
-1.86337e-07
1.22505e-06
-1.78562e-07
1.34007e-06
-1.63636e-07
1.44023e-06
-1.43275e-07
1.52449e-06
-1.20925e-07
1.59408e-06
-9.99966e-08
1.65157e-06
-8.25922e-08
1.69981e-06
-6.92686e-08
1.74128e-06
-5.95396e-08
1.77786e-06
-5.25302e-08
1.81084e-06
-4.74124e-08
1.8411e-06
-4.35721e-08
1.86925e-06
-4.06052e-08
1.89574e-06
-3.8264e-08
1.92089e-06
-3.63844e-08
1.94496e-06
-3.48759e-08
1.96815e-06
-3.36345e-08
1.99064e-06
-3.26749e-08
2.01256e-06
-3.18137e-08
2.03409e-06
-3.13403e-08
2.05519e-06
-3.05666e-08
2.07628e-06
-3.08757e-08
2.09679e-06
-2.93369e-08
2.11819e-06
-3.19512e-08
2.13775e-06
-2.66276e-08
2.1614e-06
-3.75436e-08
2.17797e-06
-1.79184e-08
2.21091e-06
-5.84535e-08
2.21779e-06
9.00578e-09
2.29281e-06
-1.39767e-07
2.26249e-06
9.25561e-08
-6.36605e-07
2.92247e-06
2.43697e-05
4.06317e-07
5.13366e-06
-3.12531e-08
6.44638e-07
-2.37207e-07
3.40667e-07
-3.15592e-07
1.35336e-07
-3.63031e-07
7.51113e-08
-3.25042e-07
-7.45381e-08
-2.05788e-07
-2.51658e-07
-1.23769e-07
-2.04552e-07
-2.71987e-07
2.09527e-07
-7.90161e-07
9.21216e-07
-1.65197e-06
1.63922e-06
-2.64475e-06
1.99769e-06
-3.455e-06
1.73991e-06
-3.82626e-06
9.15006e-07
-3.67795e-06
-1.44646e-07
-3.1146e-06
-1.0359e-06
-2.33991e-06
-1.513e-06
-1.54276e-06
-1.58531e-06
-8.38123e-07
-1.40553e-06
-2.67943e-07
-1.13185e-06
1.74643e-07
-8.67338e-07
5.17359e-07
-6.66353e-07
7.9427e-07
-5.28612e-07
1.03352e-06
-4.50735e-07
1.2545e-06
-4.14377e-07
1.46769e-06
-4.01537e-07
1.67596e-06
-3.96454e-07
1.87656e-06
-3.86942e-07
2.06372e-06
-3.65721e-07
2.23146e-06
-3.31372e-07
2.37598e-06
-2.878e-07
2.49681e-06
-2.41748e-07
2.59632e-06
-1.99508e-07
2.67846e-06
-1.64729e-07
2.74734e-06
-1.38156e-07
2.80647e-06
-1.18666e-07
2.85844e-06
-1.04503e-07
2.90509e-06
-9.40567e-08
2.94766e-06
-8.61453e-08
2.98705e-06
-7.99942e-08
3.0239e-06
-7.51195e-08
3.05873e-06
-7.12068e-08
3.09191e-06
-6.80583e-08
3.12378e-06
-6.55071e-08
3.1546e-06
-6.34945e-08
3.18463e-06
-6.18379e-08
3.214e-06
-6.07155e-08
3.24301e-06
-5.95775e-08
3.27162e-06
-5.94843e-08
3.30034e-06
-5.80591e-08
3.32867e-06
-6.02831e-08
3.3579e-06
-5.58516e-08
3.38651e-06
-6.61587e-08
3.41752e-06
-4.8922e-08
3.44932e-06
-9.02576e-08
3.48461e-06
-2.62859e-08
3.54725e-06
-2.02408e-07
3.57691e-06
6.2905e-08
-1.05681e-06
3.81592e-06
3.05537e-05
8.26962e-07
8.12261e-06
6.52805e-08
1.40632e-06
-2.47363e-07
6.5331e-07
-3.74646e-07
2.6262e-07
-4.5141e-07
1.51875e-07
-4.13353e-07
-1.12595e-07
-2.87178e-07
-3.77833e-07
-2.30068e-07
-2.61661e-07
-4.84968e-07
4.64427e-07
-1.19815e-06
1.6344e-06
-2.29134e-06
2.73242e-06
-3.46406e-06
3.17041e-06
-4.33888e-06
2.61473e-06
-4.65128e-06
1.22741e-06
-4.35534e-06
-4.40589e-07
-3.60203e-06
-1.78921e-06
-2.63111e-06
-2.48392e-06
-1.65276e-06
-2.56365e-06
-7.91829e-07
-2.26646e-06
-9.33416e-08
-1.83034e-06
4.58282e-07
-1.41896e-06
8.92827e-07
-1.1009e-06
1.25155e-06
-8.87332e-07
1.56623e-06
-7.6542e-07
1.85821e-06
-7.06356e-07
2.13833e-06
-6.81661e-07
2.40875e-06
-6.66866e-07
2.66551e-06
-6.43709e-07
2.90179e-06
-6.01993e-07
3.11107e-06
-5.40653e-07
3.28977e-06
-4.66507e-07
3.43823e-06
-3.90209e-07
3.55999e-06
-3.21262e-07
3.66015e-06
-2.64891e-07
3.74386e-06
-2.21864e-07
3.81538e-06
-1.90185e-07
3.87788e-06
-1.67003e-07
3.93359e-06
-1.4977e-07
3.98407e-06
-1.36628e-07
4.03044e-06
-1.26362e-07
4.07352e-06
-1.18202e-07
4.11397e-06
-1.11654e-07
4.1523e-06
-1.06384e-07
4.18894e-06
-1.02151e-07
4.22424e-06
-9.87943e-08
4.25856e-06
-9.61571e-08
4.29207e-06
-9.42227e-08
4.32522e-06
-9.27316e-08
4.35782e-06
-9.20804e-08
4.39089e-06
-9.11378e-08
4.42306e-06
-9.24448e-08
4.45753e-06
-9.03268e-08
4.48919e-06
-9.78198e-08
4.52823e-06
-8.79584e-08
4.56013e-06
-1.22163e-07
4.6119e-06
-7.80564e-08
4.66836e-06
-2.58859e-07
4.74029e-06
-9.0309e-09
-1.47534e-06
4.62376e-06
3.593e-05
1.34194e-06
1.14044e-05
2.3153e-07
2.51673e-06
-2.07155e-07
1.092e-06
-3.96121e-07
4.51585e-07
-5.08253e-07
2.64008e-07
-4.8134e-07
-1.39509e-07
-3.66041e-07
-4.93132e-07
-3.528e-07
-2.74903e-07
-7.18248e-07
8.29875e-07
-1.59701e-06
2.51316e-06
-2.85057e-06
3.98598e-06
-4.10688e-06
4.42672e-06
-4.95997e-06
3.46781e-06
-5.16812e-06
1.43556e-06
-4.72758e-06
-8.81128e-07
-3.82198e-06
-2.69481e-06
-2.70731e-06
-3.59859e-06
-1.60006e-06
-3.6709e-06
-6.2725e-07
-3.23928e-06
1.68897e-07
-2.62649e-06
8.02819e-07
-2.05288e-06
1.31287e-06
-1.61095e-06
1.74126e-06
-1.31572e-06
2.12144e-06
-1.1456e-06
2.47533e-06
-1.06025e-06
2.8134e-06
-1.01973e-06
3.13678e-06
-9.90251e-07
3.44045e-06
-9.47379e-07
3.71678e-06
-8.78323e-07
3.95909e-06
-7.82958e-07
4.16423e-06
-6.71645e-07
4.33343e-06
-5.59413e-07
4.47134e-06
-4.59175e-07
4.58414e-06
-3.77683e-07
4.6778e-06
-3.15529e-07
4.75724e-06
-2.69629e-07
4.82609e-06
-2.35854e-07
4.88691e-06
-2.1059e-07
4.94151e-06
-1.91224e-07
4.99119e-06
-1.76043e-07
5.03695e-06
-1.63956e-07
5.07955e-06
-1.54257e-07
5.11962e-06
-1.46456e-07
5.15769e-06
-1.40226e-07
5.19419e-06
-1.35289e-07
5.22955e-06
-1.31513e-07
5.26399e-06
-1.28664e-07
5.29806e-06
-1.268e-07
5.33155e-06
-1.25576e-07
5.36568e-06
-1.25265e-07
5.39884e-06
-1.25607e-07
5.43485e-06
-1.26335e-07
5.46751e-06
-1.30483e-07
5.50942e-06
-1.29862e-07
5.54159e-06
-1.54333e-07
5.60043e-06
-1.36898e-07
5.65445e-06
-3.12881e-07
5.75272e-06
-1.07303e-07
-1.86986e-06
5.35638e-06
4.05736e-05
1.92364e-06
1.48372e-05
4.73317e-07
3.96705e-06
-1.15543e-07
1.68086e-06
-3.79002e-07
7.15044e-07
-5.3337e-07
4.18375e-07
-5.28721e-07
-1.44157e-07
-4.389e-07
-5.82953e-07
-4.80956e-07
-2.32847e-07
-9.5073e-07
1.29965e-06
-1.95796e-06
3.52039e-06
-3.30398e-06
5.332e-06
-4.56753e-06
5.69026e-06
-5.34508e-06
4.24536e-06
-5.43467e-06
1.52515e-06
-4.86957e-06
-1.44623e-06
-3.8502e-06
-3.71417e-06
-2.63493e-06
-4.81386e-06
-1.43871e-06
-4.86713e-06
-3.87312e-07
-4.29067e-06
4.80199e-07
-3.494e-06
1.1795e-06
-2.75218e-06
1.75101e-06
-2.18247e-06
2.23772e-06
-1.80243e-06
2.67374e-06
-1.58161e-06
3.08093e-06
-1.46744e-06
3.46898e-06
-1.40778e-06
3.83791e-06
-1.35918e-06
4.18153e-06
-1.291e-06
4.49143e-06
-1.18822e-06
4.76075e-06
-1.05228e-06
4.98678e-06
-8.97681e-07
5.17167e-06
-7.44297e-07
5.32112e-06
-6.08632e-07
5.44233e-06
-4.98889e-07
5.54208e-06
-4.15281e-07
5.62586e-06
-3.53407e-07
5.69769e-06
-3.07687e-07
5.76043e-06
-2.73326e-07
5.81609e-06
-2.46886e-07
5.86616e-06
-2.26111e-07
5.91176e-06
-2.09551e-07
5.95377e-06
-1.96268e-07
5.99291e-06
-1.85598e-07
6.02979e-06
-1.77108e-07
6.0649e-06
-1.70401e-07
6.09874e-06
-1.65349e-07
6.13159e-06
-1.6152e-07
6.16404e-06
-1.59242e-07
6.19596e-06
-1.57502e-07
6.22853e-06
-1.57837e-07
6.26035e-06
-1.57422e-07
6.29501e-06
-1.61e-07
6.32676e-06
-1.62228e-07
6.36773e-06
-1.70828e-07
6.39954e-06
-1.86149e-07
6.45882e-06
-1.96178e-07
6.51192e-06
-3.6598e-07
6.62384e-06
-2.19224e-07
-2.22749e-06
6.01929e-06
4.45543e-05
2.54901e-06
1.83075e-05
7.89207e-07
5.72685e-06
2.78716e-08
2.44219e-06
-3.22317e-07
1.06523e-06
-5.26291e-07
6.22349e-07
-5.54541e-07
-1.15907e-07
-5.01545e-07
-6.35949e-07
-6.03832e-07
-1.30559e-07
-1.16437e-06
1.86019e-06
-2.26006e-06
4.61608e-06
-3.63926e-06
6.71121e-06
-4.85579e-06
6.90679e-06
-5.53168e-06
4.92125e-06
-5.50911e-06
1.50258e-06
-4.84648e-06
-2.10887e-06
-3.74749e-06
-4.81316e-06
-2.46507e-06
-6.09628e-06
-1.20942e-06
-6.12277e-06
-1.04254e-07
-5.39584e-06
8.16043e-07
-4.41429e-06
1.56557e-06
-3.50171e-06
2.18575e-06
-2.80264e-06
2.71988e-06
-2.33656e-06
3.20236e-06
-2.0641e-06
3.65478e-06
-1.91986e-06
4.08598e-06
-1.83899e-06
4.49471e-06
-1.7679e-06
4.87343e-06
-1.66972e-06
5.21271e-06
-1.5275e-06
5.50522e-06
-1.34479e-06
5.74854e-06
-1.141e-06
5.94564e-06
-9.4139e-07
6.10332e-06
-7.66314e-07
6.22981e-06
-6.25381e-07
6.33272e-06
-5.18195e-07
6.4181e-06
-4.3879e-07
6.49036e-06
-3.79945e-07
6.55261e-06
-3.35571e-07
6.60706e-06
-3.01334e-07
6.65534e-06
-2.74393e-07
6.6987e-06
-2.52911e-07
6.73812e-06
-2.3569e-07
6.77439e-06
-2.21874e-07
6.8082e-06
-2.1091e-07
6.84007e-06
-2.02279e-07
6.87056e-06
-1.95836e-07
6.90002e-06
-1.90979e-07
6.92901e-06
-1.88236e-07
6.95757e-06
-1.86055e-07
6.98671e-06
-1.86977e-07
7.0154e-06
-1.8611e-07
7.04667e-06
-1.92274e-07
7.07588e-06
-1.91438e-07
7.11332e-06
-2.08268e-07
7.14378e-06
-2.16607e-07
7.19922e-06
-2.51621e-07
7.25141e-06
-4.18167e-07
7.36753e-06
-3.35345e-07
-2.54233e-06
6.61632e-06
4.7938e-05
3.19893e-06
2.17249e-05
1.17534e-06
7.75044e-06
2.30292e-07
3.38724e-06
-2.24989e-07
1.52051e-06
-4.86235e-07
8.83595e-07
-5.5729e-07
-4.48523e-08
-5.49431e-07
-6.43808e-07
-7.11626e-07
3.16353e-08
-1.3447e-06
2.49326e-06
-2.4899e-06
5.76128e-06
-3.85464e-06
8.07595e-06
-4.99046e-06
8.04262e-06
-5.55894e-06
5.48973e-06
-5.4418e-06
1.38544e-06
-4.70909e-06
-2.84158e-06
-3.55835e-06
-5.9639e-06
-2.23373e-06
-7.42089e-06
-9.40185e-07
-7.41632e-06
2.02584e-07
-6.53861e-06
1.15857e-06
-5.37028e-06
1.94473e-06
-4.28786e-06
2.60138e-06
-3.45929e-06
3.17223e-06
-2.90741e-06
3.69196e-06
-2.58382e-06
4.18196e-06
-2.40986e-06
4.65031e-06
-2.30733e-06
5.09439e-06
-2.21199e-06
5.50505e-06
-2.08038e-06
5.87133e-06
-1.89378e-06
6.18501e-06
-1.65847e-06
6.4436e-06
-1.39959e-06
6.65078e-06
-1.14857e-06
6.81449e-06
-9.30021e-07
6.94408e-06
-7.54972e-07
7.04807e-06
-6.22181e-07
7.1331e-06
-5.23824e-07
7.20397e-06
-4.50815e-07
7.26404e-06
-3.95639e-07
7.3157e-06
-3.52995e-07
7.36073e-06
-3.19417e-07
7.40047e-06
-2.9265e-07
7.43599e-06
-2.71209e-07
7.46815e-06
-2.54033e-07
7.49766e-06
-2.4043e-07
7.52514e-06
-2.29754e-07
7.55113e-06
-2.21824e-07
7.57605e-06
-2.15897e-07
7.60044e-06
-2.12629e-07
7.62446e-06
-2.10074e-07
7.64897e-06
-2.11485e-07
7.67332e-06
-2.10468e-07
7.69989e-06
-2.1884e-07
7.72535e-06
-2.16901e-07
7.75767e-06
-2.40581e-07
7.78571e-06
-2.44645e-07
7.83481e-06
-3.00727e-07
7.8853e-06
-4.68653e-07
7.99899e-06
-4.49035e-07
-2.81317e-06
7.15106e-06
5.07869e-05
3.85743e-06
2.50185e-05
1.62472e-06
9.98315e-06
4.8628e-07
4.52567e-06
-8.53009e-08
2.0921e-06
-4.12107e-07
1.2104e-06
-5.35044e-07
7.80839e-08
-5.78036e-07
-6.00816e-07
-7.95897e-07
2.49497e-07
-1.481e-06
3.17836e-06
-2.64064e-06
6.92092e-06
-3.95568e-06
9.39099e-06
-4.99401e-06
9.08095e-06
-5.46236e-06
5.95808e-06
-5.27233e-06
1.19541e-06
-4.49365e-06
-3.62025e-06
-3.31231e-06
-7.14525e-06
-1.96345e-06
-8.76975e-06
-6.47604e-07
-8.73217e-06
5.17865e-07
-7.70408e-06
1.49711e-06
-6.34953e-06
2.30708e-06
-5.09783e-06
2.98836e-06
-4.14057e-06
3.58527e-06
-3.50431e-06
4.13301e-06
-3.13157e-06
4.6531e-06
-2.92995e-06
5.15301e-06
-2.80725e-06
5.62878e-06
-2.68776e-06
6.06927e-06
-2.52087e-06
6.46146e-06
-2.28597e-06
6.79561e-06
-1.99263e-06
7.06872e-06
-1.6727e-06
7.28496e-06
-1.36481e-06
7.45341e-06
-1.09848e-06
7.58471e-06
-8.86271e-07
7.68839e-06
-7.2586e-07
7.77179e-06
-6.07217e-07
7.84009e-06
-5.19119e-07
7.89691e-06
-4.52463e-07
7.94482e-06
-4.00905e-07
7.98571e-06
-3.60308e-07
8.02104e-06
-3.27975e-07
8.05194e-06
-3.02106e-07
8.07932e-06
-2.81414e-07
8.10393e-06
-2.65049e-07
8.12642e-06
-2.52239e-07
8.14734e-06
-2.42745e-07
8.16715e-06
-2.35708e-07
8.18637e-06
-2.3185e-07
8.20526e-06
-2.28961e-07
8.22452e-06
-2.30743e-07
8.24388e-06
-2.29826e-07
8.26504e-06
-2.40001e-07
8.28597e-06
-2.37839e-07
8.31232e-06
-2.6693e-07
8.33704e-06
-2.69365e-07
8.37857e-06
-3.42249e-07
8.42629e-06
-5.1638e-07
8.53314e-06
-5.55887e-07
-3.04153e-06
7.62734e-06
5.31596e-05
4.51128e-06
2.81345e-05
2.12832e-06
1.23661e-05
7.98041e-07
5.85596e-06
9.82273e-08
2.79191e-06
-3.02552e-07
1.61118e-06
-4.85616e-07
2.61147e-07
-5.83147e-07
-5.03285e-07
-8.49857e-07
5.16207e-07
-1.5662e-06
3.8947e-06
-2.71064e-06
8.06536e-06
-3.95231e-06
1.06327e-05
-4.88888e-06
1.00175e-05
-5.27127e-06
6.34046e-06
-5.0292e-06
9.53338e-07
-4.22321e-06
-4.42624e-06
-3.02611e-06
-8.34234e-06
-1.66561e-06
-1.01303e-05
-3.39435e-07
-1.00583e-05
8.36874e-07
-8.88039e-06
1.82708e-06
-7.33974e-06
2.64862e-06
-5.91937e-06
3.34291e-06
-4.83486e-06
3.95523e-06
-4.11664e-06
4.52169e-06
-3.69802e-06
5.06426e-06
-3.47252e-06
5.59016e-06
-3.33315e-06
6.09414e-06
-3.19173e-06
6.56281e-06
-2.98954e-06
6.98052e-06
-2.70368e-06
7.33531e-06
-2.34742e-06
7.62307e-06
-1.96045e-06
7.84817e-06
-1.58991e-06
8.02083e-06
-1.27114e-06
8.15307e-06
-1.01851e-06
8.25562e-06
-8.28408e-07
8.3366e-06
-6.88195e-07
8.40166e-06
-5.84179e-07
8.45466e-06
-5.05466e-07
8.49833e-06
-4.44579e-07
8.53469e-06
-3.96669e-07
8.56528e-06
-3.58562e-07
8.5913e-06
-3.28123e-07
8.6137e-06
-3.03814e-07
8.63326e-06
-2.84612e-07
8.65063e-06
-2.69611e-07
8.66638e-06
-2.58493e-07
8.68099e-06
-2.50313e-07
8.69493e-06
-2.45797e-07
8.70856e-06
-2.42586e-07
8.72242e-06
-2.44609e-07
8.73656e-06
-2.43966e-07
8.75212e-06
-2.55553e-07
8.76816e-06
-2.53881e-07
8.78828e-06
-2.87052e-07
8.80906e-06
-2.9014e-07
8.84259e-06
-3.75787e-07
8.88657e-06
-5.60357e-07
8.98385e-06
-6.5317e-07
-3.2304e-06
8.04927e-06
5.51103e-05
5.14967e-06
3.10342e-05
2.67579e-06
1.484e-05
1.16483e-06
7.36692e-06
3.27538e-07
3.6292e-06
-1.56062e-07
2.09478e-06
-4.06675e-07
5.1176e-07
-5.61057e-07
-3.48903e-07
-8.68502e-07
8.23653e-07
-1.59643e-06
4.62263e-06
-2.70212e-06
9.17105e-06
-3.85654e-06
1.17871e-05
-4.69528e-06
1.08563e-05
-5.00777e-06
6.65296e-06
-4.7305e-06
6.76069e-07
-3.90991e-06
-5.24683e-06
-2.70698e-06
-9.54528e-06
-1.34408e-06
-1.14931e-05
-1.71763e-08
-1.13853e-05
1.15893e-06
-1.00565e-05
2.14859e-06
-8.3294e-06
2.97006e-06
-6.74084e-06
3.6661e-06
-5.5309e-06
4.28332e-06
-4.73386e-06
4.85908e-06
-4.27379e-06
5.4163e-06
-4.02974e-06
5.96232e-06
-3.87917e-06
6.49078e-06
-3.72019e-06
6.98592e-06
-3.48469e-06
7.42894e-06
-3.1467e-06
7.80493e-06
-2.72341e-06
8.10801e-06
-2.26353e-06
8.34236e-06
-1.82425e-06
8.5192e-06
-1.44798e-06
8.65208e-06
-1.1514e-06
8.7531e-06
-9.29419e-07
8.83127e-06
-7.66374e-07
8.89278e-06
-6.45687e-07
8.94175e-06
-5.54435e-07
8.98106e-06
-4.8389e-07
9.01284e-06
-4.28446e-07
9.03871e-06
-3.84429e-07
9.05992e-06
-3.49339e-07
9.07748e-06
-3.2137e-07
9.09217e-06
-2.99299e-07
9.10464e-06
-2.82081e-07
9.11545e-06
-2.69306e-07
9.12509e-06
-2.59952e-07
9.13401e-06
-2.54716e-07
9.14259e-06
-2.51169e-07
9.15128e-06
-2.53302e-07
9.16034e-06
-2.53029e-07
9.17046e-06
-2.65668e-07
9.18159e-06
-2.65009e-07
9.19563e-06
-3.01097e-07
9.21214e-06
-3.06645e-07
9.23785e-06
-4.01499e-07
9.27731e-06
-5.99822e-07
9.36353e-06
-7.39389e-07
-3.38334e-06
8.42111e-06
5.66892e-05
5.76404e-06
3.36912e-05
3.25612e-06
1.73479e-05
1.58438e-06
9.03866e-06
6.04494e-07
4.60909e-06
2.87201e-08
2.67056e-06
-2.95824e-07
8.36304e-07
-5.08652e-07
-1.36075e-07
-8.48572e-07
1.16357e-06
-1.57054e-06
5.3446e-06
-2.61984e-06
1.02203e-05
-3.68067e-06
1.28479e-05
-4.42985e-06
1.16054e-05
-4.68687e-06
6.90997e-06
-4.38598e-06
3.75178e-07
-3.55868e-06
-6.07414e-06
-2.35674e-06
-1.07472e-05
-9.98878e-07
-1.2851e-05
3.20221e-07
-1.27044e-05
1.48619e-06
-1.12225e-05
2.4648e-06
-9.30801e-06
3.27541e-06
-7.55145e-06
3.96251e-06
-6.21801e-06
4.57441e-06
-5.34575e-06
5.15012e-06
-4.8495e-06
5.71393e-06
-4.59355e-06
6.27375e-06
-4.43898e-06
6.82242e-06
-4.26886e-06
7.34184e-06
-4.0041e-06
7.80968e-06
-3.61455e-06
8.20744e-06
-3.12117e-06
8.52674e-06
-2.58283e-06
8.77104e-06
-2.06855e-06
8.9524e-06
-1.62935e-06
9.08597e-06
-1.28496e-06
9.18533e-06
-1.02878e-06
9.26059e-06
-8.41632e-07
9.31849e-06
-7.03593e-07
9.36346e-06
-5.99403e-07
9.39852e-06
-5.18951e-07
9.4259e-06
-4.55824e-07
9.44729e-06
-4.0582e-07
9.46401e-06
-3.66056e-07
9.47707e-06
-3.3443e-07
9.48727e-06
-3.09503e-07
9.49527e-06
-2.90078e-07
9.5016e-06
-2.75636e-07
9.50674e-06
-2.65093e-07
9.51111e-06
-2.59083e-07
9.51511e-06
-2.55172e-07
9.51909e-06
-2.57285e-07
9.52348e-06
-2.57414e-07
9.52859e-06
-2.70782e-07
9.53506e-06
-2.71474e-07
9.54346e-06
-3.095e-07
9.55565e-06
-3.18832e-07
9.57404e-06
-4.19893e-07
9.60851e-06
-6.34293e-07
9.68306e-06
-8.13937e-07
-3.50405e-06
8.74717e-06
5.7942e-05
6.34791e-06
3.60905e-05
3.85822e-06
1.98376e-05
2.05278e-06
1.08441e-05
9.3012e-07
5.73175e-06
2.55319e-07
3.34536e-06
-1.50568e-07
1.24219e-06
-4.23409e-07
1.36766e-07
-7.88395e-07
1.52856e-06
-1.48955e-06
6.04576e-06
-2.47002e-06
1.12008e-05
-3.43617e-06
1.38141e-05
-4.10527e-06
1.22745e-05
-4.31766e-06
7.12236e-06
-3.99998e-06
5.74932e-08
-3.17077e-06
-6.90334e-06
-1.97505e-06
-1.19429e-05
-6.2872e-07
-1.41973e-05
6.74779e-07
-1.40079e-05
1.82215e-06
-1.23698e-05
2.78039e-06
-1.02662e-05
3.57042e-06
-8.34148e-06
4.23875e-06
-6.88635e-06
4.83567e-06
-5.94267e-06
5.40222e-06
-5.41605e-06
5.96446e-06
-5.15579e-06
6.53132e-06
-5.00584e-06
7.09529e-06
-4.83283e-06
7.63609e-06
-4.54491e-06
8.12771e-06
-4.10617e-06
8.54748e-06
-3.54095e-06
8.88383e-06
-2.91918e-06
9.13891e-06
-2.32363e-06
9.32535e-06
-1.81578e-06
9.45983e-06
-1.41945e-06
9.55763e-06
-1.12657e-06
9.63002e-06
-9.14027e-07
9.68444e-06
-7.58007e-07
9.72559e-06
-6.40561e-07
9.75667e-06
-5.50027e-07
9.77997e-06
-4.79128e-07
9.79727e-06
-4.23116e-07
9.80992e-06
-3.78702e-07
9.81895e-06
-3.43467e-07
9.82518e-06
-3.15735e-07
9.82925e-06
-2.94144e-07
9.83167e-06
-2.78055e-07
9.8329e-06
-2.66324e-07
9.83332e-06
-2.59503e-07
9.83334e-06
-2.55191e-07
9.83322e-06
-2.57168e-07
9.83349e-06
-2.5768e-07
9.8342e-06
-2.71495e-07
9.83645e-06
-2.73722e-07
9.83983e-06
-3.12883e-07
9.84787e-06
-3.26874e-07
9.85967e-06
-4.31694e-07
9.88894e-06
-6.63554e-07
9.95183e-06
-8.76836e-07
-3.59604e-06
9.03172e-06
5.89103e-05
6.89658e-06
3.82256e-05
4.47137e-06
2.22628e-05
2.56465e-06
1.27508e-05
1.3045e-06
6.99189e-06
5.23854e-07
4.12601e-06
3.20242e-08
1.73402e-06
-3.033e-07
4.7209e-07
-6.87611e-07
1.91287e-06
-1.356e-06
6.71414e-06
-2.25949e-06
1.21043e-05
-3.13298e-06
1.46876e-05
-3.73051e-06
1.28721e-05
-3.90522e-06
7.29708e-06
-3.57418e-06
-2.73552e-07
-2.74617e-06
-7.73135e-06
-1.56106e-06
-1.3128e-05
-2.31984e-07
-1.55264e-05
1.04894e-06
-1.52888e-05
2.1704e-06
-1.34913e-05
3.10032e-06
-1.11962e-05
3.86136e-06
-9.10252e-06
4.50218e-06
-7.52717e-06
5.07529e-06
-6.51578e-06
5.62405e-06
-5.96481e-06
6.17664e-06
-5.70838e-06
6.74349e-06
-5.5727e-06
7.31722e-06
-5.40655e-06
7.87574e-06
-5.10342e-06
8.38935e-06
-4.61978e-06
8.83085e-06
-3.98245e-06
9.1848e-06
-3.27313e-06
9.45145e-06
-2.59028e-06
9.64357e-06
-2.00791e-06
9.77935e-06
-1.55522e-06
9.87578e-06
-1.223e-06
9.94547e-06
-9.83724e-07
9.9966e-06
-8.09139e-07
1.00342e-05
-6.78191e-07
1.00617e-05
-5.77468e-07
1.00813e-05
-4.98763e-07
1.0095e-05
-4.36765e-07
1.0104e-05
-3.87764e-07
1.01096e-05
-3.49005e-07
1.01124e-05
-3.18552e-07
1.01131e-05
-2.94866e-07
1.01122e-05
-2.77174e-07
1.01102e-05
-2.64275e-07
1.01073e-05
-2.56622e-07
1.0104e-05
-2.51877e-07
1.01004e-05
-2.53617e-07
1.00972e-05
-2.54463e-07
1.00942e-05
-2.68485e-07
1.00928e-05
-2.72302e-07
1.00918e-05
-3.11957e-07
1.00961e-05
-3.311e-07
1.01021e-05
-4.37738e-07
1.01262e-05
-6.87598e-07
1.01779e-05
-9.28543e-07
-3.66252e-06
9.27891e-06
5.96314e-05
7.40698e-06
4.00976e-05
5.0856e-06
2.45842e-05
3.11329e-06
1.47231e-05
1.72663e-06
8.37855e-06
8.36411e-07
5.01623e-06
2.52733e-07
2.3177e-06
-1.46617e-07
8.7144e-07
-5.46842e-07
2.3131e-06
-1.17346e-06
7.34076e-06
-1.99505e-06
1.29259e-05
-2.77922e-06
1.54717e-05
-3.3117e-06
1.34046e-05
-3.45237e-06
7.43775e-06
-3.10932e-06
-6.16603e-07
-2.28469e-06
-8.55598e-06
-1.11413e-06
-1.42986e-05
1.91679e-07
-1.68322e-05
1.44443e-06
-1.65415e-05
2.53386e-06
-1.45807e-05
3.42895e-06
-1.20913e-05
4.15402e-06
-9.82759e-06
4.75988e-06
-8.13303e-06
5.30139e-06
-7.05729e-06
5.82442e-06
-6.48784e-06
6.35962e-06
-6.24358e-06
6.91934e-06
-6.13241e-06
7.49684e-06
-5.98405e-06
8.06869e-06
-5.67527e-06
8.60173e-06
-5.15282e-06
9.06401e-06
-4.44473e-06
9.43571e-06
-3.64483e-06
9.7145e-06
-2.86907e-06
9.91291e-06
-2.20631e-06
1.00504e-05
-1.6927e-06
1.01457e-05
-1.31833e-06
1.02129e-05
-1.05094e-06
1.0261e-05
-8.57249e-07
1.02955e-05
-7.1262e-07
1.03197e-05
-6.01662e-07
1.03361e-05
-5.15166e-07
1.03465e-05
-4.47241e-07
1.03525e-05
-3.93745e-07
1.03551e-05
-3.51573e-07
1.03551e-05
-3.18509e-07
1.0353e-05
-2.92822e-07
1.03494e-05
-2.73594e-07
1.03447e-05
-2.59562e-07
1.03392e-05
-2.51078e-07
1.03332e-05
-2.45873e-07
1.03268e-05
-2.47296e-07
1.03208e-05
-2.48407e-07
1.03147e-05
-2.62437e-07
1.03102e-05
-2.67809e-07
1.03058e-05
-3.07462e-07
1.03066e-05
-3.31932e-07
1.03077e-05
-4.389e-07
1.03267e-05
-7.06571e-07
1.0368e-05
-9.698e-07
-3.70636e-06
9.49271e-06
6.01387e-05
7.87738e-06
4.17129e-05
5.69191e-06
2.67697e-05
3.69102e-06
1.6724e-05
2.19423e-06
9.87534e-06
1.19403e-06
6.01642e-06
5.15689e-07
2.99604e-06
4.82596e-08
1.33887e-06
-3.67306e-07
2.72866e-06
-9.4605e-07
7.9195e-06
-1.68307e-06
1.36629e-05
-2.3814e-06
1.61701e-05
-2.85307e-06
1.38762e-05
-2.96094e-06
7.54563e-06
-2.60602e-06
-9.71524e-07
-1.78642e-06
-9.37559e-06
-6.34072e-07
-1.5451e-05
6.43267e-07
-1.81096e-05
1.86232e-06
-1.77606e-05
2.9145e-06
-1.56329e-05
3.76955e-06
-1.29463e-05
4.45316e-06
-1.05112e-05
5.01802e-06
-8.69789e-06
5.52134e-06
-7.56061e-06
6.01162e-06
-6.97812e-06
6.52222e-06
-6.75418e-06
7.06779e-06
-6.67799e-06
7.64281e-06
-6.55906e-06
8.22305e-06
-6.25552e-06
8.77226e-06
-5.70203e-06
9.25371e-06
-4.92618e-06
9.64279e-06
-4.03391e-06
9.93404e-06
-3.16032e-06
1.01392e-05
-2.41146e-06
1.02788e-05
-1.83228e-06
1.03733e-05
-1.41284e-06
1.04383e-05
-1.11593e-06
1.04836e-05
-9.02612e-07
1.05152e-05
-7.44183e-07
1.05365e-05
-6.23005e-07
1.05501e-05
-5.28775e-07
1.05579e-05
-4.5501e-07
1.05613e-05
-3.97135e-07
1.05614e-05
-3.5168e-07
1.0559e-05
-3.16132e-07
1.05548e-05
-2.88554e-07
1.0549e-05
-2.67873e-07
1.05422e-05
-2.52762e-07
1.05346e-05
-2.4346e-07
1.05265e-05
-2.37779e-07
1.05181e-05
-2.38824e-07
1.05098e-05
-2.40122e-07
1.05013e-05
-2.54004e-07
1.04944e-05
-2.60826e-07
1.0487e-05
-3.00109e-07
1.04849e-05
-3.29828e-07
1.0482e-05
-4.36035e-07
1.04962e-05
-7.20713e-07
1.05279e-05
-1.00152e-06
-3.73006e-06
9.6769e-06
6.04618e-05
8.30724e-06
4.30825e-05
6.28247e-06
2.87944e-05
4.28951e-06
1.8717e-05
2.70367e-06
1.14612e-05
1.59694e-06
7.12315e-06
8.22214e-07
3.77076e-06
2.81944e-07
1.87914e-06
-1.50277e-07
3.16088e-06
-6.78092e-07
8.44732e-06
-1.32932e-06
1.43141e-05
-1.94467e-06
1.67854e-05
-2.35777e-06
1.42893e-05
-2.43247e-06
7.62032e-06
-2.0651e-06
-1.33889e-06
-1.25183e-06
-1.01889e-05
-1.17407e-07
-1.65854e-05
1.12241e-06
-1.93494e-05
2.3028e-06
-1.8941e-05
3.31319e-06
-1.66433e-05
4.12412e-06
-1.37572e-05
4.76217e-06
-1.11492e-05
5.28145e-06
-9.21718e-06
5.7413e-06
-8.02046e-06
6.19286e-06
-7.42968e-06
6.67235e-06
-7.23367e-06
7.19713e-06
-7.20277e-06
7.76337e-06
-7.1253e-06
8.3467e-06
-6.83885e-06
8.90824e-06
-6.26357e-06
9.40664e-06
-5.42458e-06
9.81222e-06
-4.43949e-06
1.01159e-05
-3.46398e-06
1.03281e-05
-2.62365e-06
1.04701e-05
-1.97428e-06
1.0564e-05
-1.5068e-06
1.0627e-05
-1.17893e-06
1.06699e-05
-9.45496e-07
1.06989e-05
-7.73207e-07
1.07178e-05
-6.41876e-07
1.0729e-05
-5.40008e-07
1.07345e-05
-4.60516e-07
1.07358e-05
-3.98392e-07
1.07339e-05
-3.49795e-07
1.07297e-05
-3.11903e-07
1.07237e-05
-2.82556e-07
1.07163e-05
-2.60517e-07
1.0708e-05
-2.44387e-07
1.06988e-05
-2.34296e-07
1.06891e-05
-2.28131e-07
1.06791e-05
-2.28754e-07
1.06691e-05
-2.30162e-07
1.06589e-05
-2.43772e-07
1.065e-05
-2.51898e-07
1.06404e-05
-2.90548e-07
1.06358e-05
-3.25244e-07
1.06297e-05
-4.2994e-07
1.06393e-05
-7.30309e-07
1.06625e-05
-1.0247e-06
-3.73576e-06
9.835e-06
6.06268e-05
8.69693e-06
4.42206e-05
6.8507e-06
3.06407e-05
4.90017e-06
2.06675e-05
3.25007e-06
1.31113e-05
2.0444e-06
8.32883e-06
1.17346e-06
4.6417e-06
5.56648e-07
2.49596e-06
1.03007e-07
3.61452e-06
-3.73826e-07
8.92415e-06
-9.3897e-07
1.48793e-05
-1.47332e-06
1.73198e-05
-1.82848e-06
1.46445e-05
-1.86859e-06
7.66043e-06
-1.48775e-06
-1.71974e-06
-6.81628e-07
-1.0995e-05
4.21649e-07
-1.76887e-05
1.62823e-06
-2.0556e-05
2.76532e-06
-2.00781e-05
3.72983e-06
-1.76078e-05
4.49344e-06
-1.45209e-05
5.08307e-06
-1.17389e-05
5.5536e-06
-9.68771e-06
5.96605e-06
-8.4329e-06
6.37405e-06
-7.83769e-06
6.81681e-06
-7.67643e-06
7.31465e-06
-7.7006e-06
7.86599e-06
-7.67664e-06
8.44694e-06
-7.4198e-06
9.01655e-06
-6.83318e-06
9.52914e-06
-5.93717e-06
9.94986e-06
-4.86021e-06
1.02655e-05
-3.77965e-06
1.04849e-05
-2.84297e-06
1.06295e-05
-2.11893e-06
1.07232e-05
-1.60044e-06
1.07844e-05
-1.24015e-06
1.0825e-05
-9.86145e-07
1.08518e-05
-7.99987e-07
1.08685e-05
-6.58624e-07
1.08778e-05
-5.49251e-07
1.08814e-05
-4.64163e-07
1.0881e-05
-3.97932e-07
1.08775e-05
-3.46342e-07
1.08719e-05
-3.0625e-07
1.08646e-05
-2.75261e-07
1.0856e-05
-2.51965e-07
1.08465e-05
-2.34888e-07
1.08363e-05
-2.24045e-07
1.08255e-05
-2.17397e-07
1.08144e-05
-2.17568e-07
1.08032e-05
-2.19011e-07
1.07917e-05
-2.32255e-07
1.07813e-05
-2.4151e-07
1.07701e-05
-2.79351e-07
1.07635e-05
-3.18609e-07
1.07549e-05
-4.21324e-07
1.07602e-05
-7.35665e-07
1.07758e-05
-1.04032e-06
-3.72529e-06
9.9703e-06
6.06565e-05
9.04762e-06
4.51433e-05
7.3913e-06
3.2297e-05
5.51447e-06
2.25443e-05
3.8274e-06
1.47984e-05
2.53452e-06
9.6217e-06
1.56997e-06
5.60625e-06
8.73429e-07
3.1925e-06
3.9129e-07
4.09666e-06
-3.73823e-08
9.35282e-06
-5.1671e-07
1.53586e-05
-9.71075e-07
1.77741e-05
-1.26768e-06
1.49411e-05
-1.27118e-06
7.66393e-06
-8.75509e-07
-2.11541e-06
-6.95627e-08
-1.18009e-05
9.95106e-07
-1.87533e-05
2.15966e-06
-2.17205e-05
3.24878e-06
-2.11672e-05
4.16357e-06
-1.85226e-05
4.87728e-06
-1.52346e-05
5.41665e-06
-1.22782e-05
5.83651e-06
-1.01076e-05
6.19893e-06
-8.79532e-06
6.55975e-06
-8.1985e-06
6.9611e-06
-8.07778e-06
7.42653e-06
-8.16604e-06
7.95718e-06
-8.20729e-06
8.53027e-06
-7.99289e-06
9.10346e-06
-7.40636e-06
9.62709e-06
-6.4608e-06
1.00612e-05
-5.29428e-06
1.03881e-05
-4.10661e-06
1.06144e-05
-3.0693e-06
1.07619e-05
-2.26635e-06
1.08553e-05
-1.69393e-06
1.0915e-05
-1.29978e-06
1.09536e-05
-1.02477e-06
1.09784e-05
-8.24781e-07
1.09933e-05
-6.73554e-07
1.10009e-05
-5.56843e-07
1.10031e-05
-4.66312e-07
1.10012e-05
-3.96122e-07
1.09966e-05
-3.41692e-07
1.09899e-05
-2.99546e-07
1.09817e-05
-2.67045e-07
1.09723e-05
-2.42599e-07
1.09621e-05
-2.24649e-07
1.09511e-05
-2.13098e-07
1.09397e-05
-2.05975e-07
1.09278e-05
-2.05677e-07
1.09159e-05
-2.07084e-07
1.09035e-05
-2.19891e-07
1.08921e-05
-2.30088e-07
1.08798e-05
-2.67005e-07
1.08715e-05
-3.10317e-07
1.08609e-05
-4.10797e-07
1.08624e-05
-7.37093e-07
1.08714e-05
-1.04935e-06
-3.70025e-06
1.00858e-05
6.05707e-05
9.36105e-06
4.58681e-05
7.90025e-06
3.37578e-05
6.12425e-06
2.43203e-05
4.42871e-06
1.64939e-05
3.06424e-06
1.09862e-05
2.01146e-06
6.65903e-06
1.23334e-06
3.97062e-06
7.15249e-07
4.61475e-06
3.28845e-07
9.73923e-06
-6.81071e-08
1.57556e-05
-4.41577e-07
1.81476e-05
-6.78027e-07
1.51775e-05
-6.42412e-07
7.62831e-06
-2.28775e-07
-2.52904e-06
5.5569e-07
-1.25854e-05
1.59698e-06
-1.97946e-05
2.71514e-06
-2.28387e-05
3.75163e-06
-2.22037e-05
4.61304e-06
-1.9384e-05
5.27465e-06
-1.58962e-05
5.76267e-06
-1.27663e-05
6.13102e-06
-1.04759e-05
6.44199e-06
-9.1063e-06
6.75316e-06
-8.50967e-06
7.10944e-06
-8.43407e-06
7.53777e-06
-8.59436e-06
8.04241e-06
-8.71193e-06
8.60237e-06
-8.55285e-06
9.17453e-06
-7.97853e-06
9.70579e-06
-6.99206e-06
1.01511e-05
-5.73959e-06
1.04883e-05
-4.4438e-06
1.07213e-05
-3.30228e-06
1.08714e-05
-2.41651e-06
1.09648e-05
-1.78734e-06
1.1023e-05
-1.35793e-06
1.10598e-05
-1.06153e-06
1.10828e-05
-8.47805e-07
1.10962e-05
-6.86928e-07
1.11024e-05
-5.63078e-07
1.11034e-05
-4.67272e-07
1.11005e-05
-3.9328e-07
1.1095e-05
-3.36161e-07
1.10875e-05
-2.92108e-07