/*--------------------------------*- C++ -*----------------------------------*\
| =========                 |                                                 |
| \\      /  F ield         | OpenFOAM: The Open Source CFD Toolbox           |
|  \\    /   O peration     | Version:  2.4.0                                 |
|   \\  /    A nd           | Web:      www.OpenFOAM.org                      |
|    \\/     M anipulation  |                                                 |
\*---------------------------------------------------------------------------*/
FoamFile
{
    version     2.0;
    format      ascii;
    class       volScalarField;
    location    "0.7";
    object      Ux;
}
// * * * * * * * * * * * * * * * * * * * * * * * * * * * * * * * * * * * * * //

dimensions      [0 1 -1 0 0 0 0];

internalField   nonuniform List<scalar> 
1600
(
6.05596e-05
0.000156043
0.000157009
6.64329e-06
-0.000303461
-0.000756905
-0.00132921
-0.0019934
-0.00272223
-0.00348941
-0.00427019
-0.00504169
-0.00578304
-0.00647548
-0.00710237
-0.0076492
-0.00810365
-0.00845557
-0.00869703
-0.00882238
-0.00882834
-0.00871406
-0.00848121
-0.00813409
-0.00767973
-0.00712791
-0.00649119
-0.00578493
-0.00502718
-0.00423854
-0.00344194
-0.00266235
-0.00192628
-0.00126125
-0.000694842
-0.000253318
4.08095e-05
0.000174402
0.000160424
6.02917e-05
5.87051e-05
7.25806e-05
-0.000178549
-0.000773128
-0.00172565
-0.00300955
-0.00457624
-0.00636629
-0.00831591
-0.0103608
-0.0124388
-0.0144908
-0.0164623
-0.0183038
-0.0199708
-0.0214246
-0.0226322
-0.0235663
-0.0242058
-0.0245357
-0.0245477
-0.0242398
-0.023617
-0.0226913
-0.0214819
-0.0200152
-0.0183248
-0.0164516
-0.014443
-0.0123527
-0.0102398
-0.00816768
-0.0062025
-0.00441103
-0.00285773
-0.00160035
-0.000683385
-0.000126981
9.20324e-05
6.1773e-05
1.14629e-05
-0.000171997
-0.000804434
-0.001932
-0.00355559
-0.00563922
-0.00811806
-0.0109106
-0.0139272
-0.0170758
-0.0202658
-0.0234101
-0.0264275
-0.0292434
-0.031791
-0.0340114
-0.0358544
-0.0372789
-0.0382529
-0.0387537
-0.0387688
-0.0382958
-0.0373424
-0.0359274
-0.0340801
-0.0318407
-0.0292604
-0.0264005
-0.0233321
-0.0201353
-0.0168975
-0.0137117
-0.0106737
-0.00787909
-0.00541834
-0.00337099
-0.00179674
-0.000723522
-0.000138955
1.7676e-05
-4.54307e-05
-0.000464612
-0.00153617
-0.00324344
-0.0055573
-0.00842675
-0.0117708
-0.0154893
-0.0194727
-0.0236073
-0.0277804
-0.0318829
-0.0358126
-0.0394749
-0.0427846
-0.045667
-0.0480577
-0.0499043
-0.0511657
-0.0518133
-0.0518313
-0.0512165
-0.0499794
-0.048144
-0.0457481
-0.0428431
-0.039494
-0.0357789
-0.0317879
-0.0276218
-0.0233904
-0.0192097
-0.0151989
-0.0114758
-0.0081518
-0.00532489
-0.00307055
-0.00143067
-0.000420293
-3.67137e-05
-0.00010054
-0.000761595
-0.002291
-0.0045959
-0.00760677
-0.0112515
-0.0154305
-0.0200253
-0.0249085
-0.0299485
-0.0350146
-0.0399801
-0.0447256
-0.0491407
-0.0531258
-0.0565928
-0.0594664
-0.0616848
-0.0631998
-0.0639779
-0.0640003
-0.0632637
-0.0617802
-0.0595781
-0.0567018
-0.0532116
-0.0491837
-0.0447094
-0.0398937
-0.0348543
-0.0297189
-0.0246225
-0.0197032
-0.015098
-0.0109371
-0.00733715
-0.00439234
-0.00216482
-0.000707639
-8.96739e-05
-0.000150809
-0.00104646
-0.0030312
-0.00593356
-0.00963841
-0.0140479
-0.0190404
-0.0244784
-0.0302169
-0.0361079
-0.042005
-0.0477669
-0.0532602
-0.0583615
-0.0629594
-0.0669555
-0.0702656
-0.0728202
-0.0745656
-0.0754641
-0.0754946
-0.0746532
-0.0729533
-0.0704264
-0.0671217
-0.0631065
-0.0584656
-0.0533007
-0.0477291
-0.041882
-0.0359023
-0.0299408
-0.0241529
-0.0186935
-0.0137114
-0.00934381
-0.00570695
-0.00288826
-0.000984204
-0.000137978
-0.000196139
-0.00131483
-0.00374293
-0.00723318
-0.0116232
-0.0167863
-0.0225764
-0.0288351
-0.035399
-0.0421046
-0.0487909
-0.0553037
-0.0614975
-0.0672383
-0.0724052
-0.0768915
-0.0806056
-0.0834724
-0.0854334
-0.0864475
-0.0864915
-0.0855607
-0.0836693
-0.0808507
-0.0771577
-0.0726625
-0.0674568
-0.0616502
-0.05537
-0.048759
-0.0419729
-0.0351774
-0.0285441
-0.0222457
-0.016451
-0.0113197
-0.00699333
-0.00358811
-0.00124582
-0.0001815
-0.00023746
-0.00156793
-0.00442512
-0.00849054
-0.013555
-0.019461
-0.0260364
-0.0330998
-0.0404693
-0.047965
-0.0554122
-0.0626446
-0.0695064
-0.0758545
-0.08156
-0.0865094
-0.0906058
-0.0937692
-0.0959372
-0.097066
-0.0971306
-0.0961251
-0.0940637
-0.0909808
-0.0869314
-0.0819912
-0.0762565
-0.0698435
-0.0628876
-0.0555413
-0.0479724
-0.0403604
-0.0328932
-0.0257622
-0.0191576
-0.013264
-0.00825077
-0.0042651
-0.00149432
-0.000221256
-0.00027591
-0.00180908
-0.00508269
-0.00971131
-0.01544
-0.0220798
-0.0294308
-0.0372879
-0.0454491
-0.0537181
-0.0619067
-0.069837
-0.0773438
-0.0842762
-0.0904988
-0.0958928
-0.100357
-0.103807
-0.106178
-0.107424
-0.107518
-0.106452
-0.104241
-0.100918
-0.096539
-0.0911823
-0.0849472
-0.0779547
-0.0703466
-0.0622843
-0.0539465
-0.0455267
-0.0372292
-0.0292653
-0.0218484
-0.01519
-0.00948951
-0.00492667
-0.00173397
-0.000258542
-0.000312545
-0.00204218
-0.00572292
-0.0109057
-0.0172908
-0.0246575
-0.0327771
-0.0414196
-0.0503625
-0.0593926
-0.0683079
-0.0769195
-0.0850538
-0.0925529
-0.0992763
-0.105101
-0.109922
-0.113653
-0.116226
-0.117594
-0.117727
-0.116616
-0.114275
-0.110735
-0.106052
-0.100305
-0.0935943
-0.0860448
-0.0778035
-0.0690393
-0.0599414
-0.0507169
-0.0415876
-0.0327853
-0.0245488
-0.0171183
-0.0107251
-0.00558312
-0.00196984
-0.00029462
-0.000348266
-0.002271
-0.00635369
-0.0120854
-0.0191224
-0.0272116
-0.0360949
-0.0455167
-0.0552331
-0.0650136
-0.0746426
-0.083921
-0.092667
-0.100717
-0.107927
-0.11417
-0.119339
-0.123346
-0.126123
-0.127618
-0.127802
-0.126663
-0.124211
-0.120478
-0.115517
-0.109406
-0.102245
-0.0941612
-0.0853047
-0.0758513
-0.0660001
-0.0559718
-0.0460057
-0.036356
-0.0272878
-0.0190725
-0.0119754
-0.00624572
-0.00220703
-0.000330633
-0.000383824
-0.00249898
-0.00698256
-0.0132622
-0.0209499
-0.0297598
-0.0394036
-0.0495992
-0.0600807
-0.0706005
-0.0809296
-0.0908587
-0.100199
-0.108784
-0.116463
-0.123111
-0.128619
-0.132898
-0.135878
-0.137508
-0.137754
-0.136604
-0.134066
-0.130166
-0.124956
-0.11851
-0.110928
-0.102335
-0.0928839
-0.0827562
-0.0721598
-0.0613285
-0.0505197
-0.0400108
-0.0300953
-0.0210773
-0.0132585
-0.00692574
-0.00245045
-0.000367597
-0.000419846
-0.00272917
-0.00761652
-0.0144471
-0.0227877
-0.0323186
-0.0427204
-0.0536837
-0.0649205
-0.0761657
-0.0871773
-0.0977372
-0.107651
-0.116747
-0.124877
-0.131913
-0.137747
-0.14229
-0.145472
-0.147242
-0.147564
-0.146424
-0.143824
-0.139789
-0.134364
-0.127618
-0.119649
-0.110578
-0.10056
-0.0897782
-0.0784489
-0.0668183
-0.055162
-0.0437814
-0.0329996
-0.0231563
-0.014592
-0.00763403
-0.00270468
-0.000406423
-0.000456864
-0.00296427
-0.00826185
-0.0156501
-0.0246486
-0.0349023
-0.0460594
-0.0577824
-0.0697609
-0.0817124
-0.0933829
-0.104546
-0.115004
-0.124584
-0.133136
-0.140536
-0.146676
-0.151472
-0.154852
-0.156767
-0.157179
-0.15607
-0.153439
-0.149304
-0.143704
-0.136703
-0.12839
-0.118883
-0.108334
-0.096927
-0.0848846
-0.0724643
-0.0599592
-0.0476952
-0.0360271
-0.0253321
-0.0159929
-0.00838089
-0.00297405
-0.00044795
-0.000495354
-0.00320673
-0.00892437
-0.0168803
-0.0265441
-0.0375231
-0.0494314
-0.0619026
-0.0746033
-0.0872345
-0.0995311
-0.111261
-0.122223
-0.132245
-0.141182
-0.148912
-0.155333
-0.160362
-0.163932
-0.165993
-0.166507
-0.165453
-0.162825
-0.158633
-0.152909
-0.145706
-0.137105
-0.127216
-0.116185
-0.104195
-0.0914709
-0.0782793
-0.0649305
-0.0517752
-0.0392007
-0.027625
-0.0174767
-0.00917608
-0.00326266
-0.000492969
-0.000535769
-0.00345893
-0.00960962
-0.0181464
-0.0284845
-0.0401909
-0.0528435
-0.0660457
-0.0794412
-0.092715
-0.105592
-0.117837
-0.12925
-0.139661
-0.148931
-0.156945
-0.163608
-0.168843
-0.172587
-0.174792
-0.17542
-0.174447
-0.17186
-0.167662
-0.161873
-0.154536
-0.145717
-0.135517
-0.124071
-0.111555
-0.0981952
-0.0842639
-0.0700865
-0.056038
-0.0425399
-0.0300536
-0.0190584
-0.010029
-0.00357453
-0.000542263
-0.000578582
-0.00372332
-0.0103233
-0.0194568
-0.0304796
-0.0429143
-0.0562997
-0.070208
-0.0842596
-0.0981251
-0.111522
-0.124214
-0.136005
-0.146732
-0.156267
-0.164503
-0.171356
-0.176757
-0.180651
-0.182992
-0.183744
-0.182878
-0.180376
-0.176231
-0.17045
-0.163061
-0.154114
-0.143693
-0.131918
-0.118956
-0.105026
-0.0904039
-0.0754271
-0.0604936
-0.04606
-0.0326344
-0.0207518
-0.0109489
-0.00391368
-0.000596639
-0.000624332
-0.00400267
-0.0110717
-0.0208208
-0.0325393
-0.0457005
-0.0598011
-0.0743798
-0.0890348
-0.103423
-0.11726
-0.130309
-0.142383
-0.153332
-0.163041
-0.171418
-0.178392
-0.183906
-0.187914
-0.190376
-0.191256
-0.190525
-0.188157
-0.184134
-0.178447
-0.171106
-0.16214
-0.151611
-0.139621
-0.126317
-0.111909
-0.0966677
-0.0809397
-0.0651439
-0.049772
-0.0353819
-0.0225707
-0.0119452
-0.00428436
-0.000656966
-0.000673686
-0.00430036
-0.0118624
-0.0222492
-0.0346749
-0.048557
-0.063346
-0.078546
-0.0937331
-0.108555
-0.122724
-0.136014
-0.14825
-0.159301
-0.169069
-0.177482
-0.184488
-0.190044
-0.194117
-0.196674
-0.197685
-0.197116
-0.194935
-0.191111
-0.185618
-0.178444
-0.169593
-0.159099
-0.147035
-0.133527
-0.118762
-0.103003
-0.0865974
-0.0699814
-0.0536816
-0.0383087
-0.0245282
-0.0130276
-0.00469118
-0.000724228
-0.000727518
-0.00462072
-0.0127049
-0.0237555
-0.0368997
-0.0514916
-0.0669308
-0.0826851
-0.0983101
-0.113446
-0.127812
-0.141195
-0.153441
-0.164441
-0.174123
-0.182442
-0.189365
-0.194873
-0.198946
-0.201563
-0.202697
-0.202316
-0.200379
-0.196842
-0.191659
-0.184792
-0.176216
-0.16593
-0.153972
-0.140433
-0.125472
-0.109332
-0.0923552
-0.0749879
-0.0577894
-0.0414257
-0.0266383
-0.0142071
-0.00513944
-0.000799592
-0.000787017
-0.00496958
-0.0136121
-0.0253572
-0.0392308
-0.0545139
-0.0705495
-0.0867683
-0.102708
-0.118007
-0.132397
-0.145687
-0.15775
-0.168512
-0.177931
-0.185993
-0.192696
-0.198042
-0.202032
-0.204658
-0.205902
-0.20573
-0.204097
-0.200943
-0.196202
-0.189805
-0.181692
-0.171822
-0.160188
-0.146836
-0.131886
-0.115549
-0.0981469
-0.0801315
-0.0620891
-0.0447422
-0.0289157
-0.0154963
-0.00563548
-0.00088449
-0.000853832
-0.00535485
-0.0146008
-0.0270774
-0.0416903
-0.0576355
-0.0741935
-0.0907576
-0.106851
-0.122121
-0.136318
-0.149284
-0.160932
-0.171226
-0.180166
-0.187777
-0.19409
-0.199136
-0.202941
-0.205512
-0.20684
-0.206896
-0.205627
-0.202959
-0.198805
-0.193063
-0.185632
-0.176423
-0.165377
-0.152483
-0.137804
-0.121506
-0.103879
-0.0853635
-0.0665664
-0.0482655
-0.031377
-0.0169101
-0.0061872
-0.000980758
-0.000930284
-0.00578749
-0.0156942
-0.0289469
-0.0443068
-0.0608701
-0.0778495
-0.0946016
-0.110644
-0.125639
-0.139374
-0.151735
-0.162684
-0.172236
-0.180443
-0.187372
-0.193096
-0.197679
-0.201174
-0.203608
-0.204985
-0.205279
-0.204433
-0.202362
-0.198952
-0.194069
-0.187569
-0.179308
-0.169162
-0.157051
-0.142968
-0.127013
-0.109424
-0.0906134
-0.0711964
-0.0520012
-0.0340415
-0.0184675
-0.0068048
-0.00109082
-0.00101968
-0.00628273
-0.0169238
-0.0310067
-0.0471164
-0.0642329
-0.0814954
-0.0982291
-0.113956
-0.128372
-0.141314
-0.152728
-0.16264
-0.171129
-0.178305
-0.184286
-0.189191
-0.193123
-0.196163
-0.198362
-0.199738
-0.200273
-0.199906
-0.198541
-0.196042
-0.192243
-0.18695
-0.17996
-0.171077
-0.160138
-0.147048
-0.131817
-0.114608
-0.0957816
-0.0759399
-0.0559519
-0.0369323
-0.0201927
-0.00750192
-0.001218
-0.00112677
-0.00686186
-0.0183325
-0.0333103
-0.0501636
-0.0677372
-0.085094
-0.101538
-0.116613
-0.13007
-0.141815
-0.151875
-0.160356
-0.16741
-0.173215
-0.177949
-0.181778
-0.184847
-0.187268
-0.189118
-0.190432
-0.191198
-0.191359
-0.190809
-0.189392
-0.18691
-0.183122
-0.177763
-0.170557
-0.161245
-0.149623
-0.135589
-0.119199
-0.100728
-0.0807367
-0.0601153
-0.0400779
-0.0221181
-0.00829717
-0.00136692
-0.00125852
-0.0075549
-0.0199783
-0.0359269
-0.0535001
-0.0713877
-0.0885795
-0.104376
-0.118372
-0.130399
-0.140463
-0.148691
-0.155286
-0.160487
-0.164545
-0.167702
-0.170177
-0.172154
-0.173779
-0.175153
-0.176329
-0.177307
-0.178034
-0.178398
-0.178231
-0.177303
-0.175334
-0.171993
-0.166922
-0.159756
-0.150164
-0.137902
-0.122883
-0.105256
-0.0854952
-0.0644805
-0.043513
-0.0242869
-0.00921672
-0.00154433
-0.00142529
-0.00840459
-0.0219402
-0.0389438
-0.0571804
-0.0751675
-0.0918359
-0.106515
-0.11889
-0.128911
-0.136718
-0.142562
-0.146761
-0.149649
-0.151558
-0.152793
-0.153622
-0.15427
-0.154914
-0.155678
-0.156632
-0.15779
-0.159106
-0.16047
-0.161704
-0.16256
-0.162721
-0.1618
-0.159356
-0.154912
-0.147997
-0.138196
-0.125236
-0.109085
-0.0900746
-0.0690195
-0.0472784
-0.026758
-0.0102981
-0.00176026
-0.00164295
-0.00947261
-0.0243247
-0.0424672
-0.0612511
-0.079014
-0.0946612
-0.107605
-0.117675
-0.124995
-0.129873
-0.132713
-0.133958
-0.134049
-0.133394
-0.13236
-0.131259
-0.130349
-0.129832
-0.129851
-0.130494
-0.131789
-0.1337
-0.136124
-0.138885
-0.141727
-0.14431
-0.146202
-0.14689
-0.145789
-0.142274
-0.135739
-0.125678
-0.111815
-0.0942556
-0.0736716
-0.0514195
-0.0296116
-0.0115962
-0.00203022
-0.00193659
-0.0108495
-0.027275
-0.0466188
-0.0657271
-0.0827743
-0.0967072
-0.107104
-0.11402
-0.117811
-0.118996
-0.118155
-0.115867
-0.112675
-0.109058
-0.105433
-0.102145
-0.0994735
-0.0976364
-0.096791
-0.0970367
-0.0984144
-0.100903
-0.104415
-0.108788
-0.113771
-0.119021
-0.124083
-0.12839
-0.131261
-0.131927
-0.129569
-0.123412
-0.112859
-0.0976907
-0.0783131
-0.055977
-0.0329561
-0.0131934
-0.00237906
-0.00234736
-0.0126706
-0.0309803
-0.0515198
-0.0705435
-0.0861283
-0.0973844
-0.104182
-0.106902
-0.106207
-0.102862
-0.0976389
-0.0912515
-0.0843289
-0.0774067
-0.070929
-0.0652559
-0.0606729
-0.0573997
-0.0555969
-0.0553702
-0.0567719
-0.0597983
-0.0643841
-0.0703921
-0.0775997
-0.0856813
-0.0941893
-0.102535
-0.109975
-0.115613
-0.118427
-0.117339
-0.111361
-0.0998231
-0.0827014
-0.0609646
-0.0369342
-0.0152148
-0.00284812
-0.00294528
-0.0151412
-0.0356818
-0.0572497
-0.0754606
-0.0884542
-0.095709
-0.0975637
-0.0948521
-0.0886062
-0.079869
-0.0695964
-0.0586148
-0.0476124
-0.0371466
-0.0276612
-0.0195039
-0.0129439
-0.00818558
-0.00537963
-0.00462995
-0.00599656
-0.00949438
-0.0150874
-0.0226778
-0.0320898
-0.0430475
-0.0551467
-0.0678234
-0.0803213
-0.0916662
-0.100663
-0.105937
-0.106051
-0.0997524
-0.0863693
-0.0663158
-0.0417228
-0.0178536
-0.00350861
-0.00385306
-0.0185751
-0.0416594
-0.0637432
-0.0798798
-0.0885994
-0.0900685
-0.0853234
-0.0757784
-0.0628846
-0.0479533
-0.0320887
-0.0161802
-0.000923321
0.0131494
0.0256353
0.0362322
0.0447141
0.0509118
0.0546994
0.0559849
0.0547055
0.0508283
0.0443545
0.0353304
0.0238645
0.0101523
-0.00548949
-0.0225793
-0.0404185
-0.0580359
-0.0741411
-0.087111
-0.0950533
-0.0960181
-0.088434
-0.071764
-0.0475074
-0.0214069
-0.00448637
-0.0052893
-0.0234439
-0.0491598
-0.0705566
-0.0824978
-0.0844991
-0.0778678
-0.0645928
-0.0467608
-0.0262306
-0.00451518
0.0172189
0.0381046
0.0575144
0.0750026
0.0902563
0.103056
0.113248
0.120717
0.125378
0.127161
0.126007
0.121866
0.114703
0.104505
0.0912952
0.0751603
0.0562857
0.035006
0.0118734
-0.0122567
-0.0361295
-0.0580016
-0.0756054
-0.0862596
-0.0872531
-0.0765859
-0.0543863
-0.0263181
-0.00600544
-0.00763786
-0.0304099
-0.0581536
-0.0763527
-0.0806683
-0.072562
-0.0550294
-0.0312061
-0.00382946
0.0249613
0.0536086
0.0810316
0.106509
0.129577
0.149948
0.167448
0.181978
0.193478
0.201908
0.207232
0.209413
0.2084
0.204134
0.196542
0.185549
0.171085
0.153109
0.131637
0.106797
0.0789002
0.0485478
0.0167734
-0.0147832
-0.043702
-0.0667027
-0.079826
-0.0790669
-0.0620845
-0.0331874
-0.0084547
-0.0115153
-0.040195
-0.0676327
-0.0778077
-0.0692706
-0.0467391
-0.0153457
0.0206753
0.0581975
0.0951068
0.130071
0.162303
0.19138
0.2171
0.2394
0.258288
0.273808
0.286009
0.294933
0.300603
0.303017
0.302139
0.297903
0.290209
0.278923
0.263884
0.24492
0.221861
0.194588
0.163091
0.127578
0.0886416
0.0475
0.00631905
-0.0314384
-0.0607954
-0.0754275
-0.0691847
-0.0425773
-0.0124368
-0.0176309
-0.0527432
-0.0737189
-0.0673867
-0.0388408
0.00273521
0.0501983
0.0988044
0.145675
0.189239
0.228753
0.263963
0.294879
0.321644
0.344454
0.363515
0.379014
0.391109
0.399919
0.405521
0.407944
0.407174
0.403144
0.395733
0.384767
0.370014
0.351186
0.327943
0.299915
0.26674
0.228137
0.184059
0.13494
0.0821194
0.0284532
-0.0209095
-0.0577681
-0.0711898
-0.0540305
-0.0185606
-0.0256741
-0.0642379
-0.0651038
-0.0291752
0.0271753
0.0906969
0.153794
0.212643
0.265654
0.312446
0.353224
0.388433
0.418583
0.444167
0.465623
0.483321
0.497565
0.50859
0.516571
0.521621
0.523798
0.523101
0.519471
0.512782
0.502845
0.489387
0.472052
0.450384
0.42382
0.39169
0.353236
0.307688
0.254431
0.19338
0.125699
0.0550571
-0.0104683
-0.0561863
-0.0629138
-0.0261558
-0.029223
-0.058303
-0.0132825
0.0679738
0.155669
0.237772
0.310197
0.372235
0.424681
0.468801
0.505852
0.536932
0.562947
0.584623
0.602534
0.61713
0.628759
0.637679
0.644081
0.648089
0.649768
0.649129
0.646123
0.640641
0.632505
0.621454
0.607132
0.58906
0.566606
0.538948
0.505029
0.463518
0.412807
0.351131
0.277039
0.190557
0.0953692
0.00382265
-0.0518375
-0.0278781
0.0108431
0.0250453
0.148316
0.278984
0.384826
0.468031
0.533527
0.585246
0.626434
0.659594
0.686542
0.708588
0.726682
0.741524
0.753631
0.763388
0.771083
0.776928
0.781072
0.783615
0.784611
0.784072
0.781967
0.778217
0.772692
0.765199
0.755464
0.743109
0.727615
0.708268
0.684079
0.65366
0.615049
0.565477
0.501207
0.417568
0.308684
0.171224
0.0382229
0.0165522
0.302075
0.400777
0.563265
0.681048
0.751356
0.796431
0.827698
0.850357
0.867364
0.880515
0.890906
0.899234
0.90596
0.911404
0.915793
0.919292
0.922018
0.924059
0.925476
0.926309
0.92658
0.926293
0.925438
0.923985
0.921882
0.919053
0.915388
0.910733
0.904872
0.897494
0.888149
0.876158
0.860445
0.839234
0.809529
0.766
0.696964
0.578696
0.411356
0.306789
)
;

boundaryField
{
    movingWall
    {
        type            calculated;
        value           uniform 1;
    }
    fixedWalls
    {
        type            calculated;
        value           uniform 0;
    }
    frontAndBack
    {
        type            empty;
    }
}


// ************************************************************************* //
