/*--------------------------------*- C++ -*----------------------------------*\
| =========                 |                                                 |
| \\      /  F ield         | OpenFOAM: The Open Source CFD Toolbox           |
|  \\    /   O peration     | Version:  2.4.0                                 |
|   \\  /    A nd           | Web:      www.OpenFOAM.org                      |
|    \\/     M anipulation  |                                                 |
\*---------------------------------------------------------------------------*/
FoamFile
{
    version     2.0;
    format      ascii;
    class       volScalarField;
    location    "6.01";
    object      nut;
}
// * * * * * * * * * * * * * * * * * * * * * * * * * * * * * * * * * * * * * //

dimensions      [0 2 -1 0 0 0 0];

internalField   nonuniform List<scalar> 
6000
(
1.24054e-05
1.01559e-05
5.68837e-06
3.07724e-06
1.72198e-06
2.93331e-06
2.74227e-06
3.61783e-06
3.99836e-06
4.71295e-06
5.25162e-06
5.87764e-06
6.42e-06
7.00722e-06
7.60729e-06
8.27585e-06
8.98378e-06
9.71932e-06
1.04521e-05
1.11719e-05
1.18783e-05
1.26021e-05
1.32932e-05
1.39515e-05
1.45755e-05
1.5164e-05
1.57156e-05
1.62294e-05
1.67041e-05
1.71387e-05
1.7534e-05
1.78856e-05
1.81928e-05
1.8454e-05
1.86679e-05
1.88334e-05
1.89491e-05
1.90143e-05
1.90277e-05
1.89896e-05
1.88981e-05
1.87554e-05
1.85576e-05
1.83099e-05
1.80079e-05
1.77134e-05
1.75932e-05
1.74623e-05
1.72532e-05
1.70675e-05
1.67621e-05
1.65448e-05
1.61258e-05
1.59207e-05
1.53558e-05
1.524e-05
1.44729e-05
1.45879e-05
1.35594e-05
1.43925e-05
2.33582e-05
3.47715e-05
1.72172e-05
7.92184e-06
4.39628e-06
7.12013e-06
1.2949e-05
1.55586e-05
2.01422e-05
2.47094e-05
2.93563e-05
3.47045e-05
3.94995e-05
4.46349e-05
4.96252e-05
5.53972e-05
6.18082e-05
6.8946e-05
7.63808e-05
8.39068e-05
9.11926e-05
9.79764e-05
0.000104557
0.000110978
0.000117229
0.000123305
0.000129201
0.000134915
0.000140447
0.000145792
0.000150718
0.000155358
0.000159763
0.000163922
0.000167823
0.000171454
0.000174799
0.000177847
0.000180579
0.000182987
0.000185044
0.000186753
0.000188071
0.000189005
0.000189437
0.000188377
0.000183745
0.000178353
0.000172463
0.000165866
0.000158805
0.000151138
0.000142966
0.000134456
0.00012523
0.000116233
0.000105338
9.68551e-05
8.46628e-05
7.97404e-05
2.89001e-05
5.03074e-05
2.44432e-05
9.96442e-06
1.00571e-05
1.67193e-05
2.80163e-05
3.51487e-05
4.45907e-05
5.52035e-05
6.55163e-05
7.73876e-05
8.79152e-05
9.89459e-05
0.000109693
0.000122018
0.000135753
0.000150986
0.000166862
0.000182918
0.00019857
0.000213518
0.000228066
0.000242264
0.000256075
0.000269481
0.000282458
0.000294992
0.000307065
0.000318651
0.000329352
0.000339467
0.000349021
0.000357989
0.00036634
0.000374045
0.000381068
0.000387381
0.00039294
0.000397729
0.000401688
0.000404818
0.00040703
0.000408309
0.000408304
0.000405654
0.000397773
0.000388424
0.000377788
0.000365935
0.000352675
0.000338593
0.000322686
0.00030688
0.000288215
0.000271568
0.000249328
0.0002336
0.000207174
0.000202582
3.21952e-05
5.72124e-05
2.78321e-05
1.0825e-05
1.64126e-05
2.75448e-05
4.29189e-05
5.51648e-05
6.94113e-05
8.60037e-05
0.000102118
0.000120207
0.000136464
0.000153136
0.000169521
0.00018806
0.00020872
0.000231532
0.000255348
0.000279463
0.000303137
0.00032605
0.000348395
0.000370194
0.000391385
0.000411926
0.000431772
0.000450893
0.000469251
0.000486793
0.0005031
0.000518504
0.000533013
0.000546586
0.000559176
0.000570735
0.000581209
0.000590556
0.000598711
0.000605645
0.000611275
0.000615591
0.000618466
0.000619833
0.000619112
0.000615121
0.000605365
0.000593557
0.000579728
0.000564293
0.00054658
0.000527896
0.000506202
0.000484976
0.000459065
0.000436597
0.000405652
0.000384299
0.00034873
0.000344774
3.39567e-05
5.94436e-05
3.42453e-05
1.15582e-05
2.17806e-05
3.72468e-05
5.61233e-05
7.33177e-05
9.22788e-05
0.000114377
0.000136063
0.000159845
0.000181553
0.000203495
0.000225222
0.000249516
0.000276551
0.000306287
0.000337377
0.000368908
0.00040002
0.000430349
0.000459965
0.000488848
0.000516906
0.000544074
0.000570287
0.000595497
0.000619649
0.000642672
0.000664167
0.000684457
0.000703533
0.000721344
0.000737826
0.00075292
0.000766556
0.000778678
0.000789207
0.0007981
0.000805258
0.000810654
0.000814131
0.000815547
0.000814194
0.000809248
0.000798423
0.000785053
0.000769069
0.000751113
0.000730219
0.000708112
0.000682185
0.000656744
0.000625522
0.000598288
0.000561117
0.000534821
0.000493549
0.000489275
3.49043e-05
5.90432e-05
4.16092e-05
1.19343e-05
2.47757e-05
4.50561e-05
6.71869e-05
8.91054e-05
0.000112639
0.000139779
0.000166699
0.000195683
0.000222512
0.000249394
0.000276167
0.000305811
0.000338707
0.000374761
0.00041249
0.000450805
0.000488749
0.000525897
0.000562199
0.00059759
0.000631949
0.000665184
0.000697214
0.000727973
0.000757394
0.000785392
0.000811604
0.000836327
0.00085954
0.000881183
0.000901183
0.000919467
0.000935956
0.000950582
0.000963257
0.000973926
0.000982477
0.000988865
0.000992907
0.000994369
0.000992587
0.000987008
0.000975619
0.000961272
0.000943853
0.00092411
0.000900964
0.00087628
0.000847299
0.000818527
0.000783498
0.000752278
0.000710812
0.000680042
0.000635284
0.000629666
3.5415e-05
5.72018e-05
4.71294e-05
1.44759e-05
2.41916e-05
5.06664e-05
7.59598e-05
0.000102456
0.000130395
0.000162184
0.000193982
0.000227737
0.000259363
0.000290895
0.000322448
0.000357089
0.000395392
0.000437223
0.000481011
0.000525525
0.000569723
0.000613106
0.000655524
0.000696861
0.000736965
0.000775723
0.000813034
0.000848819
0.000883
0.000915483
0.000945947
0.000974654
0.00100158
0.00102666
0.0010498
0.00107093
0.00108997
0.00110683
0.00112142
0.00113368
0.00114349
0.00115078
0.00115535
0.00115687
0.00115487
0.0011489
0.00113728
0.00112235
0.00110402
0.00108302
0.00105832
0.00103171
0.00100057
0.000969175
0.000931493
0.000896949
0.000852654
0.000817863
0.000771221
0.000763337
3.56743e-05
5.46499e-05
5.0814e-05
2.14989e-05
2.12392e-05
5.38284e-05
8.23678e-05
0.000113386
0.000145568
0.000181686
0.000218026
0.000256179
0.000292299
0.000328226
0.000364317
0.000403651
0.000446961
0.000494087
0.000543414
0.000593592
0.000643505
0.000692584
0.000740584
0.00078734
0.000832672
0.000876443
0.000918535
0.000958859
0.000997327
0.00103384
0.00106811
0.00110039
0.00113062
0.00115875
0.00118469
0.00120835
0.00122964
0.00124848
0.00126477
0.00127844
0.00128937
0.00129747
0.00130251
0.00130414
0.00130207
0.00129591
0.00128426
0.00126904
0.00125016
0.00122831
0.00120258
0.00117455
0.00114195
0.00110852
0.00106907
0.0010318
0.000985785
0.000947446
0.00090007
0.000889239
3.57842e-05
5.18364e-05
5.29295e-05
2.99279e-05
1.91239e-05
5.42543e-05
8.63535e-05
0.000121917
0.0001582
0.000198397
0.000238975
0.000281209
0.000321547
0.00036164
0.000402049
0.000445805
0.000493769
0.000545766
0.000600163
0.000655521
0.00071066
0.000764938
0.00081803
0.000869724
0.00091981
0.000968129
0.00101455
0.00105896
0.00110129
0.00114141
0.00117909
0.00121454
0.00124772
0.00127856
0.00130697
0.00133286
0.00135613
0.00137671
0.0013945
0.00140941
0.00142132
0.00143013
0.00143559
0.00143736
0.00143535
0.00142912
0.00141759
0.00140226
0.00138311
0.00136073
0.00133436
0.00130532
0.0012718
0.00123683
0.00119631
0.00115684
0.00110995
0.00106855
0.00102127
0.00100705
3.58063e-05
4.90319e-05
5.37489e-05
3.7992e-05
1.96201e-05
5.16633e-05
8.7871e-05
0.000128048
0.000168324
0.000212409
0.000256964
0.00030301
0.000347317
0.000391369
0.000435891
0.000483827
0.000536132
0.000592624
0.000651673
0.000711775
0.000771695
0.000830724
0.000888465
0.000944658
0.00099907
0.00105152
0.00110185
0.00114996
0.00119575
0.0012391
0.00127983
0.00131811
0.0013539
0.00138714
0.00141772
0.00144556
0.00147058
0.00149268
0.00151176
0.00152775
0.00154051
0.00154994
0.00155576
0.00155774
0.00155583
0.00154964
0.00153831
0.00152301
0.00150379
0.0014811
0.00145441
0.0014247
0.00139066
0.00135458
0.00131351
0.00127234
0.00122522
0.00118125
0.00113464
0.00111679
3.57786e-05
4.63908e-05
5.35458e-05
4.46861e-05
2.34085e-05
4.62382e-05
8.69102e-05
0.000131764
0.000175954
0.000223794
0.000272106
0.00032174
0.000369794
0.000417615
0.00046606
0.000517956
0.000574322
0.000634974
0.000698302
0.000762757
0.000827057
0.000890432
0.000952421
0.00101272
0.00107107
0.00112727
0.00118114
0.00123259
0.00128151
0.00132775
0.0013712
0.00141199
0.0014501
0.00148545
0.00151795
0.0015475
0.00157403
0.00159745
0.00161766
0.00163457
0.00164807
0.00165802
0.00166416
0.00166637
0.00166461
0.0016585
0.00164742
0.00163225
0.00161309
0.00159028
0.00156348
0.00153337
0.00149915
0.00146231
0.00142112
0.00137869
0.00133183
0.00128576
0.00124024
0.00121868
3.57236e-05
4.39925e-05
5.25791e-05
4.98024e-05
2.99404e-05
3.9665e-05
8.35542e-05
0.000133046
0.000181092
0.000232597
0.000284491
0.000337529
0.000389136
0.000440551
0.000492738
0.00054839
0.000608567
0.00067308
0.000740356
0.000808812
0.000877133
0.00094449
0.00101037
0.00107442
0.00113637
0.00119598
0.00125307
0.00130753
0.00135926
0.0014081
0.00145398
0.00149702
0.00153718
0.00157439
0.00160857
0.00163962
0.00166747
0.00169202
0.00171319
0.00173089
0.00174501
0.00175539
0.00176182
0.00176426
0.00176266
0.00175667
0.00174586
0.00173087
0.00171188
0.00168907
0.00166235
0.00163205
0.00159789
0.00156061
0.00151963
0.00147633
0.0014301
0.00138239
0.00133825
0.00131302
3.5655e-05
4.18688e-05
5.10796e-05
5.33562e-05
3.70605e-05
3.42548e-05
7.80652e-05
0.000131896
0.000183735
0.00023885
0.000294189
0.000350484
0.000405473
0.000460322
0.000516079
0.000575298
0.000639057
0.000707167
0.000778092
0.000850235
0.000922253
0.000993268
0.00106272
0.00113021
0.00119545
0.00125817
0.00131819
0.00137538
0.00142965
0.00148082
0.00152887
0.00157391
0.00161589
0.00165475
0.0016904
0.00172276
0.00175174
0.00177727
0.00179926
0.00181763
0.00183225
0.00184298
0.00184968
0.00185233
0.00185088
0.00184503
0.00183448
0.00181971
0.00180094
0.00177824
0.00175171
0.00172142
0.00168751
0.00165005
0.00160952
0.00156571
0.0015204
0.00147148
0.00142892
0.00140014
3.55811e-05
4.00221e-05
4.92424e-05
5.54849e-05
4.36466e-05
3.17647e-05
7.09816e-05
0.000128375
0.000183893
0.000242575
0.000301252
0.000360691
0.000418918
0.00047705
0.000536214
0.00059882
0.000665954
0.00073742
0.00081173
0.000887279
0.000962705
0.00103709
0.00110982
0.00118047
0.00124872
0.00131429
0.00137698
0.00143665
0.00149323
0.00154649
0.00159649
0.00164332
0.00168692
0.00172723
0.00176417
0.00179766
0.00182763
0.001854
0.00187667
0.00189559
0.00191062
0.00192163
0.00192857
0.00193139
0.00193008
0.00192436
0.00191407
0.00189953
0.00188101
0.00185849
0.00183225
0.0018021
0.00176859
0.00173117
0.0016913
0.00164728
0.00160312
0.00155338
0.00151254
0.00148041
3.5507e-05
3.84378e-05
4.72252e-05
5.6383e-05
4.93225e-05
3.44874e-05
6.33784e-05
0.000122655
0.000181605
0.000243794
0.000305725
0.000368224
0.000429563
0.000490844
0.000553255
0.000619079
0.000689393
0.000764
0.000841456
0.00092016
0.000998735
0.00107622
0.00115198
0.00122555
0.00129657
0.00136476
0.00142989
0.00149182
0.00155047
0.00160563
0.0016574
0.00170582
0.00175086
0.00179246
0.00183053
0.00186501
0.00189582
0.00192289
0.00194614
0.0019655
0.00198085
0.0019921
0.00199922
0.00200218
0.00200098
0.00199538
0.00198532
0.001971
0.00195275
0.00193047
0.00190458
0.00187467
0.00184168
0.00180449
0.00176542
0.00172147
0.00167864
0.00162843
0.00158939
0.00155416
3.54358e-05
3.70928e-05
4.51499e-05
5.62649e-05
5.391e-05
4.01904e-05
5.66739e-05
0.000115089
0.000176972
0.000242549
0.000307653
0.000373147
0.000437492
0.000501797
0.000567305
0.000636181
0.000709494
0.000787043
0.00086743
0.000949063
0.00103056
0.00111092
0.00118948
0.00126574
0.00133932
0.00140992
0.00147729
0.00154128
0.00160182
0.00165871
0.00171206
0.00176192
0.00180824
0.00185098
0.00189005
0.00192538
0.00195691
0.00198458
0.0020083
0.00202801
0.0020436
0.00205503
0.0020623
0.00206535
0.00206423
0.00205873
0.00204886
0.00203475
0.00201678
0.00199476
0.00196926
0.00193968
0.00190728
0.00187047
0.00183233
0.00178869
0.00174731
0.00169698
0.00165979
0.00162174
3.53691e-05
3.59598e-05
4.31067e-05
5.53451e-05
5.73312e-05
4.69157e-05
5.21224e-05
0.00010627
0.00017019
0.000238914
0.000307089
0.000375522
0.000442781
0.000509996
0.000578454
0.000650223
0.000726363
0.00080667
0.000889793
0.000974153
0.00105836
0.00114139
0.00122254
0.0013013
0.00137725
0.00145008
0.00151951
0.0015854
0.00164767
0.00170613
0.00176092
0.00181207
0.00185954
0.00190329
0.00194323
0.00197931
0.00201145
0.00203961
0.00206372
0.00208369
0.00209947
0.00211103
0.00211838
0.00212149
0.0021204
0.00211497
0.00210526
0.00209134
0.00207363
0.00205189
0.0020268
0.00199762
0.00196587
0.00192957
0.00189245
0.00184932
0.00180949
0.00175933
0.00172402
0.00168346
3.53077e-05
3.50116e-05
4.11589e-05
5.38252e-05
5.95866e-05
5.34805e-05
5.19634e-05
9.71221e-05
0.000161589
0.000233023
0.000304112
0.000375421
0.00044551
0.000515527
0.000586794
0.000661297
0.000740096
0.00082299
0.00090867
0.000995573
0.0010823
0.00116782
0.00125139
0.00133247
0.00141063
0.00148552
0.00155687
0.0016245
0.00168834
0.00174824
0.00180434
0.00185666
0.00190517
0.00194982
0.00199053
0.00202725
0.00205992
0.00208848
0.00211288
0.00213305
0.00214896
0.0021606
0.00216798
0.0021711
0.00217002
0.00216463
0.00215503
0.00214128
0.0021238
0.00210234
0.00207767
0.00204894
0.00201788
0.00198219
0.00194615
0.00190372
0.00186551
0.00181579
0.00178237
0.00173962
3.52519e-05
3.42221e-05
3.93472e-05
5.18867e-05
6.07375e-05
5.92713e-05
5.54062e-05
8.87695e-05
0.000151666
0.000225091
0.000298838
0.000372932
0.000445762
0.000518479
0.000592416
0.000669497
0.000750791
0.000836107
0.000924176
0.00101345
0.00110254
0.00119038
0.0012762
0.00135945
0.00143967
0.00151648
0.0015896
0.00165885
0.00172414
0.00178537
0.00184267
0.00189605
0.0019455
0.00199094
0.00203233
0.00206961
0.00210272
0.00213162
0.00215624
0.00217655
0.00219254
0.0022042
0.00221157
0.00221465
0.00221354
0.00220814
0.00219862
0.002185
0.00216774
0.00214656
0.0021223
0.00209404
0.00206369
0.0020287
0.00199379
0.00195221
0.00191567
0.00186664
0.00183511
0.0017905
3.52018e-05
3.35674e-05
3.76954e-05
4.96868e-05
6.08904e-05
6.39747e-05
6.07437e-05
8.26831e-05
0.000141106
0.000215444
0.000291438
0.00036817
0.000443638
0.000518948
0.000595417
0.000674918
0.000758545
0.000846122
0.000936421
0.00102792
0.00111921
0.00120922
0.00129715
0.00138243
0.00146457
0.00154319
0.00161796
0.00168871
0.00175534
0.00181779
0.00187619
0.00193056
0.00198084
0.00202701
0.002069
0.00210676
0.00214024
0.0021694
0.00219419
0.00221459
0.0022306
0.00224223
0.00224955
0.00225256
0.00225137
0.00224594
0.00223645
0.00222292
0.00220584
0.00218492
0.00216107
0.0021333
0.00210368
0.00206945
0.0020357
0.0019951
0.00196027
0.00191214
0.0018825
0.00183637
3.51571e-05
3.30266e-05
3.62136e-05
4.73568e-05
6.01818e-05
6.74487e-05
6.65994e-05
8.05293e-05
0.000130764
0.000204536
0.000282157
0.000361291
0.000439258
0.000517046
0.000595905
0.000677668
0.00076346
0.000853138
0.000945513
0.00103908
0.00113243
0.00122447
0.00131439
0.00140157
0.00148552
0.00156583
0.00164216
0.0017143
0.00178217
0.00184577
0.00190519
0.00196044
0.0020115
0.00205832
0.00210084
0.00213902
0.00217281
0.00220217
0.00222708
0.00224751
0.00226351
0.00227507
0.00228229
0.00228518
0.00228389
0.00227838
0.00226888
0.00225541
0.00223848
0.0022178
0.00219434
0.00216706
0.00213818
0.00210475
0.00207218
0.00203267
0.00199958
0.00195253
0.00192477
0.00187746
3.51175e-05
3.25813e-05
3.49023e-05
4.50022e-05
5.87654e-05
6.96602e-05
7.21661e-05
8.20346e-05
0.000121649
0.000192946
0.000271328
0.000352502
0.000432775
0.000512905
0.000594005
0.000677863
0.000765651
0.000857266
0.000951563
0.00104705
0.00114233
0.00123628
0.00132806
0.00141703
0.00150269
0.00158459
0.00166237
0.00173582
0.00180486
0.00186952
0.00192988
0.00198596
0.00203772
0.00208513
0.00212813
0.00216666
0.00220071
0.00223023
0.0022552
0.00227564
0.00229157
0.00230304
0.00231012
0.00231286
0.00231141
0.00230579
0.00229625
0.0022828
0.00226598
0.00224552
0.00222242
0.00219564
0.00216748
0.00213489
0.00210352
0.00206518
0.00203384
0.00198806
0.00196217
0.001914
3.50825e-05
3.22158e-05
3.37555e-05
4.2704e-05
5.68003e-05
7.06516e-05
7.69577e-05
8.57579e-05
0.000115675
0.000181364
0.00025938
0.000342072
0.000424378
0.000506679
0.000589859
0.000675639
0.000765243
0.000858626
0.000954688
0.00105196
0.00114903
0.00124477
0.00133829
0.00142896
0.00151623
0.00159963
0.00167879
0.00175345
0.00182358
0.00188924
0.00195049
0.00200734
0.00205974
0.00210769
0.0021511
0.00218996
0.00222421
0.00225384
0.00227885
0.00229925
0.00231509
0.00232641
0.00233331
0.00233587
0.00233424
0.00232847
0.00231884
0.00230538
0.00228864
0.00226837
0.00224561
0.00221932
0.00219186
0.00216014
0.00212996
0.00209288
0.00206329
0.00201893
0.0019949
0.00194621
3.50517e-05
3.19167e-05
3.27626e-05
4.05212e-05
5.44417e-05
7.05195e-05
8.06844e-05
9.0448e-05
0.000113377
0.000170909
0.000246834
0.000330335
0.000414303
0.000498555
0.000583631
0.000671147
0.000762381
0.000857352
0.000955015
0.00105393
0.00115266
0.00125006
0.00134523
0.00143749
0.00152628
0.0016111
0.00169155
0.00176737
0.00183853
0.00190513
0.00196721
0.00202477
0.00207777
0.0021262
0.00217
0.00220911
0.00224353
0.00227324
0.00229825
0.00231858
0.0023343
0.00234544
0.00235215
0.00235448
0.00235265
0.0023467
0.00233694
0.00232343
0.00230674
0.00228662
0.00226418
0.00223835
0.00221159
0.00218074
0.00215175
0.00211598
0.00208814
0.00204533
0.00202316
0.00197428
3.50247e-05
3.16726e-05
3.19106e-05
3.84936e-05
5.18331e-05
6.93991e-05
8.3189e-05
9.51928e-05
0.000114085
0.000162913
0.000234383
0.000317694
0.000402832
0.000488753
0.000575513
0.000664564
0.000757226
0.000853596
0.000952684
0.00105308
0.00115334
0.00125229
0.00134899
0.00144275
0.00153297
0.00161915
0.00170082
0.00177772
0.00184986
0.00191735
0.0019802
0.00203843
0.00209199
0.00214087
0.00218499
0.00222434
0.00225889
0.00228865
0.00231363
0.00233387
0.00234943
0.00236037
0.00236685
0.00236894
0.00236686
0.0023607
0.00235078
0.00233719
0.00232051
0.00230052
0.00227836
0.00225299
0.0022269
0.00219693
0.00216912
0.00213471
0.00210861
0.00206747
0.00204714
0.00199839
3.5001e-05
3.14742e-05
3.11855e-05
3.66451e-05
4.91014e-05
6.7451e-05
8.44138e-05
9.93715e-05
0.000116762
0.000157836
0.000223197
0.000304676
0.000390295
0.000477526
0.000565721
0.000656085
0.000749961
0.000847524
0.000947849
0.00104956
0.00115121
0.00125158
0.00134971
0.00144487
0.00153645
0.0016239
0.00170673
0.00178465
0.00185772
0.00192604
0.00198963
0.00204849
0.00210256
0.00215184
0.00219626
0.00223581
0.00227047
0.00230026
0.00232519
0.0023453
0.00236068
0.0023714
0.00237762
0.00237944
0.0023771
0.0023707
0.00236059
0.00234688
0.00233018
0.0023103
0.00228838
0.00226345
0.002238
0.00220892
0.00218226
0.00214925
0.00212487
0.00208551
0.00206703
0.00201871
3.49803e-05
3.13133e-05
3.0573e-05
3.49866e-05
4.63538e-05
6.48486e-05
8.43798e-05
0.000102578
0.000120386
0.000155557
0.000213991
0.000292142
0.000377165
0.000465161
0.000554497
0.00064593
0.000740789
0.000839324
0.000940683
0.00104354
0.00114642
0.00124808
0.00134753
0.001444
0.00153685
0.00162549
0.00170941
0.00178829
0.00186224
0.00193137
0.00199565
0.00205508
0.00210962
0.00215927
0.00220396
0.00224369
0.00227844
0.00230822
0.00233308
0.00235305
0.00236823
0.00237872
0.00238466
0.00238619
0.00238355
0.00237689
0.00236657
0.00235271
0.00233596
0.00231615
0.00229446
0.00226994
0.00224511
0.0022169
0.00219137
0.00215978
0.00213712
0.00209962
0.00208299
0.0020354
3.49623e-05
3.11835e-05
3.0059e-05
3.35193e-05
4.36764e-05
6.17679e-05
8.31712e-05
0.000104564
0.000124119
0.000155511
0.00020719
0.000280701
0.000364063
0.00045214
0.000542107
0.000634337
0.000729932
0.000829203
0.000931373
0.00103517
0.00113912
0.00124193
0.00134258
0.00144025
0.00153429
0.00162405
0.00170899
0.00178878
0.00186357
0.00193343
0.00199836
0.00205833
0.00211332
0.00216331
0.00220825
0.00224812
0.00228294
0.00231271
0.00233747
0.00235729
0.00237225
0.00238248
0.00238813
0.00238935
0.0023864
0.00237945
0.00236889
0.00235486
0.00233803
0.00231827
0.00229677
0.00227263
0.00224839
0.00222105
0.00219663
0.00216648
0.00214551
0.00210996
0.00209517
0.00204861
3.49465e-05
3.10791e-05
2.96306e-05
3.2237e-05
4.11343e-05
5.83775e-05
8.09212e-05
0.0001052
0.000127327
0.000156918
0.000202833
0.000270858
0.000351483
0.000438864
0.000528973
0.000621647
0.000717657
0.000817382
0.000920123
0.00102465
0.00112948
0.00123329
0.001335
0.00143378
0.0015289
0.0016197
0.00170558
0.00178622
0.0018618
0.00193236
0.00199789
0.00205838
0.00211378
0.00216409
0.00220925
0.00224925
0.00228412
0.00231385
0.00233851
0.00235815
0.00237289
0.00238283
0.00238817
0.00238907
0.0023858
0.00237854
0.00236772
0.0023535
0.00233656
0.00231682
0.00229549
0.00227172
0.00224804
0.00222155
0.00219821
0.00216951
0.0021502
0.00211667
0.00210373
0.00205848
3.49327e-05
3.09956e-05
2.92758e-05
3.11285e-05
3.87732e-05
5.48317e-05
7.77985e-05
0.000104456
0.000129559
0.000158981
0.0002006
0.000262929
0.000339883
0.00042573
0.000515421
0.000608143
0.000704251
0.000804141
0.000907183
0.0010122
0.0011177
0.00122233
0.00132495
0.0014247
0.0015208
0.00161255
0.0016993
0.00178073
0.00185705
0.00192827
0.00199438
0.00205534
0.00211113
0.00216172
0.00220708
0.0022472
0.00228209
0.00231178
0.00233631
0.00235576
0.00237026
0.00237992
0.00238494
0.0023855
0.00238189
0.00237432
0.00236321
0.00234878
0.00233172
0.00231198
0.00229078
0.00226736
0.00224421
0.00221855
0.00219626
0.00216902
0.00215135
0.0021199
0.00210881
0.00206513
3.49206e-05
3.09291e-05
2.8984e-05
3.01798e-05
3.66217e-05
5.12644e-05
7.39938e-05
0.000102381
0.000130514
0.000160995
0.000199923
0.000256973
0.00032962
0.000413114
0.000501783
0.000594113
0.00068998
0.000789729
0.000892785
0.000998027
0.00110397
0.00120921
0.00131259
0.00141317
0.00151014
0.00160275
0.00169027
0.00177244
0.00184944
0.00192128
0.00198792
0.00204933
0.00210547
0.00215632
0.00220186
0.00224207
0.00227697
0.0023066
0.00233099
0.00235025
0.00236449
0.00237385
0.00237855
0.00237876
0.0023748
0.0023669
0.0023555
0.00234085
0.00232363
0.00230388
0.00228279
0.00225969
0.00223705
0.0022122
0.00219094
0.00216515
0.00214908
0.00211977
0.00211054
0.0020687
3.49101e-05
3.08766e-05
2.87456e-05
2.93752e-05
3.46936e-05
4.77864e-05
6.97061e-05
9.90913e-05
0.000130018
0.000162384
0.000200131
0.000252796
0.000320901
0.000401341
0.000488372
0.000579842
0.000675108
0.000774397
0.000877166
0.000982356
0.00108849
0.00119414
0.00129809
0.00139934
0.00149705
0.00159041
0.00167861
0.00176146
0.0018391
0.0019115
0.00197863
0.00204044
0.00209691
0.002148
0.00219369
0.00223398
0.00226887
0.00229841
0.00232266
0.00234171
0.00235569
0.00236475
0.00236911
0.00236897
0.00236465
0.00235642
0.00234472
0.00232982
0.00231245
0.00229266
0.00227167
0.00224886
0.0022267
0.00220264
0.00218238
0.00215804
0.00214355
0.0021164
0.00210905
0.0020693
3.49009e-05
3.08355e-05
2.85522e-05
2.86985e-05
3.29912e-05
4.44837e-05
6.51306e-05
9.47572e-05
0.000128003
0.000162712
0.000200552
0.000249995
0.000313748
0.000390647
0.000475466
0.000565598
0.000659893
0.000758395
0.000860568
0.000965412
0.00107147
0.00117729
0.00128161
0.00138337
0.00148168
0.00157567
0.00166446
0.00174792
0.00182613
0.00189904
0.00196661
0.00202879
0.00208555
0.00213685
0.00218266
0.002223
0.00225787
0.00228732
0.00231141
0.00233024
0.00234396
0.00235271
0.00235673
0.00235623
0.00235156
0.00234297
0.00233097
0.00231582
0.00229828
0.00227844
0.00225753
0.002235
0.0022133
0.00219001
0.00217071
0.00214781
0.00213486
0.00210993
0.00210446
0.00206703
3.48929e-05
3.08035e-05
2.83965e-05
2.81341e-05
3.15078e-05
4.1418e-05
6.04479e-05
8.95871e-05
0.000124498
0.000161672
0.000200587
0.000248043
0.000307996
0.000381144
0.000463281
0.000551619
0.000644571
0.000741957
0.000843222
0.000947421
0.00105312
0.00115887
0.00126334
0.00136543
0.00146419
0.00155868
0.00164794
0.00173194
0.00181064
0.001884
0.00195196
0.00201447
0.00207147
0.00212295
0.00216887
0.00220924
0.00224407
0.00227341
0.00229733
0.00231593
0.00232937
0.00233781
0.00234149
0.00234064
0.0023356
0.00232668
0.00231436
0.00229896
0.00228124
0.00226134
0.00224049
0.00221823
0.00219696
0.00217442
0.00215605
0.00213458
0.00212315
0.00210047
0.00209688
0.002062
3.48858e-05
3.07789e-05
2.82723e-05
2.76669e-05
3.02305e-05
3.86288e-05
5.5816e-05
8.38121e-05
0.000119614
0.000159074
0.000199733
0.000246365
0.00030332
0.000372809
0.000451949
0.000538093
0.000629348
0.000725299
0.000825349
0.0009286
0.00103366
0.00113907
0.00124346
0.00134568
0.00144471
0.00153955
0.00162919
0.00171362
0.00179274
0.00186649
0.00193479
0.00199757
0.00205478
0.0021064
0.00215239
0.00219276
0.00222753
0.00225675
0.00228049
0.00229887
0.00231203
0.00232015
0.00232349
0.00232228
0.00231688
0.00230762
0.00229498
0.00227934
0.00226143
0.00224146
0.00222067
0.00219866
0.0021778
0.002156
0.00213853
0.00211847
0.00210853
0.00208811
0.00208642
0.0020543
3.48797e-05
3.07602e-05
2.81741e-05
2.72832e-05
2.91426e-05
3.6136e-05
5.13649e-05
7.76706e-05
0.000113532
0.000154843
0.000197601
0.000244403
0.000299285
0.00036548
0.000441503
0.000525143
0.000614389
0.000708606
0.000807147
0.000909153
0.00101328
0.00111808
0.00122215
0.00132428
0.0014234
0.00151844
0.00160834
0.00169309
0.00177255
0.00184661
0.00191517
0.00197817
0.00203555
0.00208728
0.00213331
0.00217366
0.00220835
0.00223743
0.00226098
0.00227911
0.00229199
0.0022998
0.00230279
0.00230123
0.00229548
0.00228587
0.00227294
0.00225704
0.00223895
0.00221891
0.00219816
0.0021764
0.00215593
0.00213485
0.00211826
0.0020996
0.0020911
0.00207298
0.00207318
0.00204404
3.48743e-05
3.07464e-05
2.80974e-05
2.69707e-05
2.82251e-05
3.39433e-05
4.71939e-05
7.13922e-05
0.00010649
0.000149005
0.000193913
0.000241654
0.000295402
0.000358872
0.000431864
0.00051282
0.000599802
0.000692023
0.000788784
0.000889262
0.000992174
0.00109609
0.00119958
0.00130139
0.00140041
0.00149547
0.0015855
0.00167046
0.00175015
0.00182444
0.00189321
0.00195637
0.00201387
0.00206565
0.0021117
0.002152
0.00218658
0.0022155
0.00223885
0.00225673
0.00226933
0.00227682
0.00227948
0.00227757
0.00227147
0.00226153
0.00224829
0.00223215
0.00221388
0.00219378
0.00217307
0.00215154
0.00213146
0.00211108
0.00209534
0.00207806
0.00207098
0.00205516
0.00205728
0.00203129
3.48695e-05
3.07364e-05
2.80383e-05
2.67183e-05
2.74587e-05
3.20421e-05
4.33716e-05
6.51849e-05
9.87597e-05
0.000141682
0.000188507
0.000237699
0.000291173
0.000352615
0.000422854
0.000501085
0.000585634
0.000675647
0.000770391
0.000869082
0.000970502
0.00107326
0.00117591
0.00127718
0.00137588
0.00147079
0.0015608
0.00164585
0.00172567
0.00180009
0.00186899
0.00193225
0.00198981
0.00204161
0.00208762
0.00212784
0.0021623
0.00219104
0.00221417
0.0022318
0.0022441
0.00225128
0.0022536
0.00225135
0.00224491
0.00223465
0.00222112
0.00220474
0.00218631
0.00216614
0.00214548
0.00212418
0.00210447
0.00208478
0.00206987
0.00205395
0.00204826
0.00203476
0.00203879
0.00201614
3.48654e-05
3.07294e-05
2.79935e-05
2.65163e-05
2.6824e-05
3.04149e-05
3.99383e-05
5.92242e-05
9.0633e-05
0.000133082
0.00018133
0.000232211
0.000286129
0.000346287
0.000414202
0.000489817
0.000571863
0.00065952
0.000752057
0.000848733
0.000948408
0.00104974
0.0011513
0.00125178
0.00134995
0.0014445
0.00153436
0.00161936
0.00169919
0.00177366
0.00184259
0.00190588
0.00196344
0.00201521
0.00206115
0.00210125
0.00213555
0.00216411
0.002187
0.00220437
0.00221638
0.00222324
0.00222523
0.00222265
0.00221588
0.00220531
0.0021915
0.0021749
0.00215631
0.00213609
0.00211547
0.00209441
0.00207506
0.00205605
0.00204194
0.00202738
0.00202304
0.00201187
0.00201781
0.00199867
3.48617e-05
3.07248e-05
2.79603e-05
2.63563e-05
2.6303e-05
2.90385e-05
3.69099e-05
5.36472e-05
8.23973e-05
0.000123483
0.000172441
0.000224966
0.000279858
0.000339448
0.000405572
0.000478817
0.000558396
0.000643623
0.000733817
0.000828293
0.000926
0.00102566
0.00112588
0.00122533
0.00132274
0.00141674
0.00150628
0.00159109
0.00167082
0.00174522
0.00181411
0.00187735
0.00193484
0.00198652
0.00203234
0.00207229
0.00210641
0.00213475
0.00215739
0.00217449
0.0021862
0.00219275
0.00219442
0.00219151
0.00218442
0.00217356
0.00215949
0.00214268
0.00212395
0.00210369
0.00208313
0.0020623
0.00204332
0.00202498
0.00201166
0.00199843
0.00199541
0.00198657
0.00199444
0.00197896
3.48586e-05
3.07221e-05
2.79363e-05
2.6231e-05
2.5879e-05
2.78867e-05
3.4282e-05
4.85502e-05
7.43168e-05
0.000113211
0.000162007
0.000215854
0.000272024
0.000331676
0.000396588
0.000467818
0.000545072
0.00062788
0.000715658
0.000807798
0.000903351
0.00100112
0.00109976
0.00119795
0.00129439
0.00138763
0.00147669
0.00156116
0.00164064
0.00171486
0.0017836
0.00184671
0.00190407
0.0019556
0.00200125
0.00204102
0.00207492
0.00210302
0.0021254
0.00214221
0.00215362
0.00215986
0.00216121
0.00215799
0.0021506
0.00213946
0.00212515
0.00210815
0.00208929
0.00206901
0.00204852
0.00202794
0.00200932
0.00199165
0.0019791
0.00196719
0.00196547
0.00195897
0.00196874
0.00195708
3.48558e-05
3.07209e-05
2.79198e-05
2.61341e-05
2.55371e-05
2.69325e-05
3.20351e-05
4.39901e-05
6.6617e-05
0.00010262
0.000150288
0.000204877
0.00026238
0.000322585
0.000386859
0.000456504
0.000531672
0.000612154
0.000697511
0.000787235
0.000880491
0.000976187
0.00107304
0.00116973
0.00126499
0.00135728
0.00144568
0.00152964
0.00160874
0.00168266
0.00175116
0.00181405
0.00187119
0.00192251
0.00196795
0.00200748
0.00204113
0.00206896
0.00209107
0.00210758
0.00211869
0.00212461
0.00212566
0.00212213
0.00211446
0.00210306
0.00208853
0.00207137
0.0020524
0.00203211
0.00201171
0.00199139
0.00197314
0.00195614
0.00194435
0.00193375
0.00193329
0.00192913
0.00194082
0.0019331
3.48533e-05
3.07208e-05
2.79091e-05
2.60604e-05
2.5264e-05
2.61494e-05
3.01396e-05
3.99892e-05
5.94726e-05
9.20605e-05
0.00013763
0.000192158
0.000250783
0.000311854
0.000376005
0.000444532
0.000517927
0.000596256
0.000679256
0.000766542
0.000857411
0.000950881
0.00104575
0.00114076
0.00123461
0.00132578
0.00141333
0.00149663
0.00157521
0.0016487
0.00171684
0.00177941
0.00183627
0.00188731
0.00193247
0.00197173
0.0020051
0.00203263
0.00205444
0.00207064
0.00208144
0.00208706
0.0020878
0.00208399
0.00207604
0.00206441
0.00204968
0.00203238
0.00201333
0.00199306
0.00197277