/*--------------------------------*- C++ -*----------------------------------*\
| =========                 |                                                 |
| \\      /  F ield         | OpenFOAM: The Open Source CFD Toolbox           |
|  \\    /   O peration     | Version:  2.4.0                                 |
|   \\  /    A nd           | Web:      www.OpenFOAM.org                      |
|    \\/     M anipulation  |                                                 |
\*---------------------------------------------------------------------------*/
FoamFile
{
    version     2.0;
    format      ascii;
    class       volScalarField;
    location    "0.45";
    object      pPrime2Mean;
}
// * * * * * * * * * * * * * * * * * * * * * * * * * * * * * * * * * * * * * //

dimensions      [0 4 -4 0 0 0 0];

internalField   nonuniform List<scalar> 
2320
(
3783.9
3687.83
3587.43
3488.43
3390.8
3294.64
3199.81
3106.51
3014.54
2924.16
2835.11
2747.74
2661.7
2577.5
2494.63
2413.84
2334.36
2257.21
2181.35
2107.97
3783.9
3687.84
3587.44
3488.43
3390.8
3294.63
3199.81
3106.5
3014.53
2924.14
2835.07
2747.69
2661.64
2577.42
2494.53
2413.71
2334.23
2257.06
2181.23
2107.85
3783.9
3687.84
3587.45
3488.44
3390.8
3294.62
3199.79
3106.47
3014.5
2924.09
2835.01
2747.6
2661.52
2577.26
2494.35
2413.46
2333.95
2256.71
2180.86
2107.47
3783.9
3687.81
3587.42
3488.4
3390.76
3294.58
3199.74
3106.41
3014.42
2923.98
2834.88
2747.44
2661.33
2577.02
2494.07
2413.11
2333.56
2256.24
2180.39
2106.95
3783.88
3687.8
3587.42
3488.39
3390.73
3294.53
3199.69
3106.34
3014.33
2923.87
2834.75
2747.26
2661.1
2576.71
2493.7
2412.62
2333.01
2255.59
2179.72
2106.26
3783.88
3687.8
3587.42
3488.38
3390.71
3294.49
3199.65
3106.26
3014.24
2923.73
2834.59
2747.02
2660.82
2576.32
2493.25
2412.04
2332.36
2254.8
2178.9
2105.37
3783.86
3687.78
3587.4
3488.35
3390.66
3294.43
3199.58
3106.18
3014.14
2923.59
2834.41
2746.76
2660.51
2575.89
2492.74
2411.34
2331.56
2253.81
2177.85
2104.24
3783.83
3687.74
3587.36
3488.29
3390.61
3294.35
3199.49
3106.06
3014.01
2923.41
2834.2
2746.48
2660.18
2575.41
2492.16
2410.57
2330.66
2252.67
2176.65
2102.89
3783.8
3687.7
3587.3
3488.23
3390.55
3294.29
3199.41
3105.97
3013.89
2923.26
2834
2746.2
2659.81
2574.92
2491.54
2409.73
2329.66
2251.37
2175.22
2101.25
3783.77
3687.65
3587.26
3488.18
3390.5
3294.21
3199.34
3105.85
3013.77
2923.07
2833.81
2745.91
2659.46
2574.39
2490.9
2408.83
2328.57
2249.93
2173.63
2099.37
3783.72
3687.61
3587.22
3488.14
3390.45
3294.16
3199.27
3105.78
3013.66
2922.94
2833.6
2745.63
2659.07
2573.87
2490.19
2407.88
2327.35
2248.32
2171.73
2097.18
3783.7
3687.56
3587.17
3488.07
3390.39
3294.09
3199.19
3105.66
3013.56
2922.76
2833.41
2745.33
2658.7
2573.3
2489.48
2406.87
2326.05
2246.56
2169.59
2094.53
3783.66
3687.52
3587.13
3488.02
3390.33
3294.02
3199.11
3105.57
3013.44
2922.63
2833.21
2745.06
2658.31
2572.79
2488.72
2405.83
2324.6
2244.62
2167.12
2091.5
3783.64
3687.48
3587.1
3487.98
3390.3
3293.95
3199.06
3105.48
3013.36
2922.49
2833.05
2744.79
2657.95
2572.24
2488.01
2404.79
2323.14
2242.58
2164.29
2088.03
3783.6
3687.46
3587.07
3487.95
3390.25
3293.9
3198.99
3105.42
3013.27
2922.39
2832.89
2744.58
2657.6
2571.77
2487.27
2403.78
2321.57
2240.35
2161.09
2083.6
3783.59
3687.44
3587.06
3487.91
3390.22
3293.84
3198.95
3105.36
3013.22
2922.31
2832.76
2744.38
2657.29
2571.34
2486.65
2402.87
2320.15
2238.17
2157.51
2078.68
3783.57
3687.43
3587.05
3487.89
3390.18
3293.79
3198.89
3105.33
3013.19
2922.27
2832.71
2744.26
2657.08
2570.98
2486.16
2402.1
2318.86
2236.12
2153.94
2072.52
3783.56
3687.4
3587.03
3487.85
3390.13
3293.73
3198.84
3105.29
3013.15
2922.3
2832.64
2744.21
2656.87
2570.7
2485.73
2401.51
2317.87
2234.33
2150.53
2066.18
3783.55
3687.39
3587
3487.82
3390.09
3293.67
3198.84
3105.29
3013.18
2922.33
2832.71
2744.2
2656.85
2570.5
2485.63
2401.07
2317.18
2232.99
2147.98
2059.36
3783.55
3687.38
3586.99
3487.8
3390.04
3293.58
3198.68
3105.16
3013.02
2922.18
2832.51
2744.04
2656.65
2570.39
2485.35
2400.89
2316.79
2232.15
2146.17
2054.65
2035.84
1966.09
1897.5
1830.6
1764.98
1700.32
1636.7
1573.89
2035.75
1966.04
1897.45
1830.63
1765.07
1700.51
1636.93
1574.16
2035.41
1965.73
1897.24
1830.55
1765.05
1700.61
1637.08
1574.32
2034.98
1965.34
1896.96
1830.48
1765.1
1700.82
1637.41
1574.74
2034.35
1964.86
1896.65
1830.41
1765.19
1701.11
1637.8
1575.19
2033.59
1964.21
1896.21
1830.3
1765.28
1701.5
1638.36
1575.86
2032.54
1963.37
1895.69
1830.11
1765.43
1702
1639.07
1576.69
2031.36
1962.31
1895.06
1829.91
1765.66
1702.6
1639.96
1577.74
2029.86
1960.98
1894.23
1829.65
1765.96
1703.4
1641.07
1579.05
2028.16
1959.43
1893.19
1829.16
1766.29
1704.4
1642.46
1580.68
2026.07
1957.61
1892.13
1828.7
1766.71
1705.64
1644.22
1582.65
2023.45
1955.21
1890.74
1828.15
1767.27
1707.17
1646.39
1585.03
2020.38
1952.26
1888.92
1827.52
1768.02
1709.03
1649.05
1587.94
2016.5
1948.59
1886.58
1826.78
1769.01
1711.34
1652.34
1591.51
2011.86
1944.14
1883.65
1825.9
1770.25
1714.27
1656.45
1595.93
2005.66
1938.6
1880.04
1824.84
1771.77
1717.91
1661.68
1601.46
1997.25
1931.58
1875.65
1823.6
1773.6
1722.41
1668.37
1608.53
1985.33
1922.51
1870.39
1822.18
1775.77
1727.92
1676.89
1617.89
1969.17
1911.12
1864.32
1820.65
1778.34
1734.54
1687.68
1630.93
1945.63
1897.28
1857.71
1819.49
1781.53
1742.33
1701.07
1650.8
1512.06
1451.03
1391.07
1332.19
1274.74
1218.8
1164.46
1111.77
1060.75
1011.28
963.155
916.065
869.674
823.587
777.629
731.629
685.723
640.128
595.258
551.478
509.147
468.359
429.229
391.453
354.828
318.779
282.375
244.146
1512.34
1451.35
1391.38
1332.46
1275
1219.03
1164.68
1112
1061.03
1011.61
963.55
916.49
870.143
824.076
778.118
732.077
686.131
640.472
595.547
551.735
509.361
468.605
429.453
391.788
355.279
319.495
283.715
246.868
1512.41
1451.41
1391.42
1332.57
1275.12
1219.16
1164.86
1112.26
1061.37
1012.07
964.085
917.168
870.89
824.889
778.921
732.866
686.843
641.098
596.073
552.159
509.74
468.956
429.848
392.278
356.006
320.646
285.826
251.264
1512.85
1451.84
1391.78
1332.91
1275.45
1219.5
1165.29
1112.77
1062.04
1012.9
965.136
918.372
872.223
826.305
780.324
734.178
687.998
642.082
596.863
552.81
510.266
469.469
430.415
393.022
357.059
322.279
288.501
255.896
1513.31
1452.27
1392.18
1333.31
1275.83
1219.92
1165.8
1113.41
1062.9
1013.97
966.498
919.954
874.024
828.177
782.173
735.929
689.581
643.431
597.97
553.691
510.994
470.129
431.118
393.909
358.303
324.134
291.374
260.354
1514
1452.94
1392.79
1333.88
1276.39
1220.53
1166.54
1114.35
1064.13
1015.54
968.462
922.235
876.538
830.793
784.775
738.37
691.697
645.224
599.395
554.856
511.916
470.968
431.982
394.97
359.721
326.182
294.327
264.581
1514.86
1453.76
1393.53
1334.58
1277.06
1221.28
1167.41
1115.49
1065.59
1017.43
970.747
924.874
879.475
833.815
787.748
741.121
694.16
647.273
601.077
556.155
512.996
471.896
432.951
396.094
361.244
328.247
297.215
268.44
1515.94
1454.76
1394.44
1335.4
1277.83
1222.14
1168.41
1116.82
1067.32
1019.7
973.465
928.031
882.963
837.453
791.367
744.423
697.059
649.652
603.038
557.675
514.22
472.923
433.978
397.281
362.781
330.313
299.974
271.965
1517.27
1455.93
1395.48
1336.3
1278.69
1223.07
1169.55
1118.36
1069.4
1022.4
976.666
931.717
886.869
841.472
795.232
747.995
700.164
652.244
605.137
559.321
515.529
474.025
435.027
398.48
364.293
332.309
302.546
275.16
1518.84
1457.29
1396.65
1337.3
1279.68
1224.12
1170.86
1120.13
1071.76
1025.33
980.09
935.536
890.872
845.588
799.149
751.51
703.208
654.842
607.288
560.942
516.859
475.15
436.08
399.656
365.749
334.188
304.917
278.028
1520.65
1458.87
1397.96
1338.41
1280.75
1225.26
1172.27
1121.95
1074.19
1028.22
983.337
939.024
894.501
849.263
802.638
754.707
705.827
657.1
609.217
562.42
518.057
476.165
437.047
400.763
367.123
335.927
307.073
280.581
1522.8
1460.69
1399.45
1339.65
1281.85
1226.4
1173.55
1123.65
1076.41
1030.83
986.202
942.052
897.636
852.273
805.459
757.327
708.018
658.941
610.66
563.642
519.155
477.047
437.922
401.759
368.377
337.495
309.004
282.831
1525.34
1462.79
1401.11
1340.95
1282.98
1227.41
1174.62
1125.08
1078.2
1032.78
988.265
944.189
899.733
854.356
807.526
758.874
709.263
660.319
611.629
564.386
519.904
477.75
438.669
402.648
369.483
338.9
310.708
284.793
1528.39
1465.2
1402.89
1342.29
1284.04
1228.21
1175.34
1126
1079.3
1034.08
989.43
945.296
900.852
855.284
808.598
759.855
709.802
660.825
612.104
564.903
520.314
478.198
439.262
403.416
370.468
340.139
312.191
286.489
1532
1467.88
1404.75
1343.61
1285.03
1228.78
1175.73
1126.34
1079.63
1034.33
989.652
945.329
900.884
855.349
808.501
759.618
709.781
660.761
611.991
565.021
520.459
478.49
439.708
404.048
371.311
341.213
313.462
287.927
1536.23
1470.82
1406.52
1344.68
1285.62
1229
1175.63
1126.02
1079.3
1033.78
988.67
944.523
899.93
854.543
807.745
758.752
709.09
660.22
611.552
564.793
520.336
478.608
440.007
404.571
372.023
342.118
314.519
289.123
1541.13
1473.81
1408.15
1345.56
1286.04
1228.92
1175.38
1125.32
1078.29
1032.76
987.539
943.207
898.662
853.321
806.442
757.533
708.145
659.355
610.912
564.407
520.063
478.599
440.197
405
372.603
342.878
315.374
290.093
1546.52
1476.5
1409.23
1346.01
1286
1228.61
1174.77
1124.46
1077.02
1031.23
985.894
941.662
897.091
851.828
804.904
756.225
707.014
658.326
610.21
563.882
519.657
478.5
440.3
405.344
373.037
343.447
316.01
290.818
1552.2
1479.13
1410.12
1346.19
1285.71
1228.18
1174.32
1123.64
1076.05
1029.95
984.602
940.346
895.838
850.514
803.537
755.066
706.057
657.485
609.558
563.323
519.345
478.408
440.366
405.583
373.347
343.852
316.443
291.314
1556.35
1480.17
1410.54
1346.19
1285.41
1227.81
1173.85
1123.13
1075.33
1029.16
983.724
939.454
895.018
849.646
802.624
754.383
705.457
656.942
609.123
562.989
519.144
478.327
440.371
405.712
373.492
344.041
316.648
291.554
196.945
179.147
165.23
155.269
147.239
141.349
137.354
136.487
209.247
187.726
172.673
161.341
152.465
145.79
141.169
138.767
218.655
196.018
179.707
167.309
157.593
150.228
144.94
140.741
226.152
203.476
186.329
172.926
162.203
153.737
147.843
142.454
232.473
209.921
192.126
177.971
166.607
157.406
149.943
143.299
237.92
215.647
197.573
182.833
170.69
160.735
152.309
144.492
242.661
220.622
202.213
186.891
174.103
163.413
154.185
145.635
246.841
224.996
206.418
190.759
177.529
166.155
156.159
146.683
250.512
228.85
210.149
194.087
180.237
168.231
157.641
147.899
253.753
232.234
213.426
197.095
182.93
170.507
159.347
149.05
256.598
235.193
216.302
199.735
185.167
172.256
160.664
150.03
259.083
237.755
218.79
202.019
187.173
173.961
162.029
151.053
261.234
239.963
220.941
204.007
188.929
175.394
163.14
151.871
263.074
241.844
222.772
205.707
190.411
176.64
164.16
152.667
264.632
243.425
224.304
207.141
191.674
177.71
165.009
153.323
265.91
244.731
225.566
208.315
192.705
178.589
165.724
153.899
266.94
245.772
226.572
209.272
193.534
179.303
166.299
154.372
267.698
246.553
227.316
209.953
194.153
179.841
166.738
154.749
268.204
247.058
227.824
210.45
194.567
180.2
167.042
155.013
268.434
247.319
228.082
210.669
194.771
180.386
167.188
155.148
140.359
139.743
135.841
130.138
124.631
116.513
103.774
91.3508
82.0229
71.7238
60.8357
49.7716
38.9823
28.9668
20.1654
12.978
7.53818
3.83919
1.63953
0.265406
139.813
138.304
134.168
128.561
123.287
115.423
102.943
90.6913
81.3825
71.1566
60.3694
49.4164
38.729
28.8
20.0709
12.9288
7.51693
3.81735
1.60141
0.230463
139.076
137.174
132.882
127.156
121.832
114.091
101.906
89.8442
80.5508
70.4112
59.7527
48.9448
38.393
28.5835
19.9518
12.8733
7.49476
3.79746
1.57006
0.221113
139.392
136.398
131.701
125.877
120.411
112.711
100.793
88.9579
79.7095
69.6626
59.1331
48.4672
38.0571
28.368
19.839
12.8225
7.47961
3.78455
1.54578
0.211542
139.04
135.856
130.858
124.848
119.184
111.456
99.78
88.1279
78.8915
68.9259
58.5196
47.9953
37.7248
28.1593
19.7337
12.7812
7.47267
3.77892
1.52817
0.205333
139.601
135.494
130.03
123.837
117.948
110.142
98.7011
87.2579
78.0628
68.1854
57.9045
47.5201
37.3939
27.9553
19.6336
12.748
7.47124
3.77909
1.51433
0.200613
139.624
135.036
129.253
122.914
116.81
108.923
97.6981
86.4286
77.255
67.4589
57.298
47.0532
37.0702
27.7595
19.5412
12.7227
7.47735
3.78491
1.50432
0.19685
139.896
135.012
128.875
122.16
115.749
107.734
96.703
85.6041
76.4533
66.7367
56.6952
46.5904
36.7505
27.5697
19.4542
12.7056
7.4892
3.79545
1.4969
0.193565
140.396
134.633
128.108
121.225
114.605
106.527
95.6907
84.7756
75.6486
66.0186
56.0982
46.1329
36.4367
27.3866
19.3751
12.6956
7.50752
3.81038
1.49211
0.190694
140.914
134.512
127.697
120.577
113.69
105.476
94.7877
84.0149
74.8893
65.3274
55.5199
45.6894
36.1331
27.2138
19.3057
12.6944
7.53237
3.82947
1.48924
0.188092
141.573
134.555
127.194
119.737
112.595
104.308
93.809
83.2143
74.1106
64.6271
54.9385
45.2448
35.8325
27.0449
19.2424
12.6985
7.5622
3.85206
1.48816
0.185727
142.048
134.511
126.725
119.001
111.633
103.283
92.9583
82.5071
73.3954
63.9717
54.3884
44.8266
35.5503
26.8916
19.1919
12.7131
7.5997
3.87908
1.48901
0.18364
142.51
134.524
126.404
118.387
110.744
102.271
92.0794
81.7663
72.6619
63.3047
53.8297
44.401
35.2665
26.741
19.1457
12.7315
7.64049
3.90858
1.491
0.181687
142.947
134.469
125.987
117.696
109.819
101.284
91.2582
81.0919
71.9844
62.6831
53.3043
44.0036
35.0061
26.6092
19.114
12.761
7.68948
3.94296
1.49507
0.180004
143.291
134.388
125.633
117.118
109.024
100.401
90.4995
80.442
71.319
62.0684
52.7866
43.6093
34.7491
26.4822
19.0882
12.7955
7.74168
3.97924
1.49987
0.178417
143.606
134.321
125.304
116.534
108.211
99.5065
89.7513
79.8224
70.6871
61.4844
52.2939
43.2362
34.5103
26.3702
19.0759
12.8409
7.80164
4.02004
1.50663
0.177065
143.849
134.226
124.98
115.998
107.484
98.7041
89.0735
79.2456
70.0864
60.9246
51.8177
42.8767
34.2826
26.2687
19.073
12.8932
7.86599
4.06315
1.51418
0.175821
144.036
134.13
124.69
115.512
106.8
97.9289
88.421
78.6974
69.513
60.3875
51.3584
42.5315
34.0687
26.1801
19.082
12.9558
7.93708
4.10986
1.52326
0.174754
144.146
134.017
124.398
115.059
106.173
97.2161
87.8199
78.1871
68.9743
59.8789
50.9218
42.2047
33.8706
26.1061
19.1035
13.0282
8.01348
4.15883
1.53306
0.173769
144.194
133.902
124.205
114.763
105.735
96.6894
87.3565
77.8024
68.5685
59.4865
50.5799
41.9469
33.7164
26.0537
19.1292
13.0936
8.07896
4.19922
1.54184
0.173052
1.07047
0.516403
1.18884
0.882693
0.238164
0.0944416
0.0460167
0.0442081
1.01339
1.30963
1.92439
1.81517
0.836562
0.64045
0.419507
0.395423
2.05381
2.04058
2.6558
2.74963
1.92638
1.59369
1.16509
1.08397
2.72202
3.32173
4.1499
4.38136
3.50572
2.92997
2.28062
2.10346
4.24687
5.17499
5.81149
6.29188
5.42633
4.61578
3.73984
3.44586
6.07059
7.18461
8.04155
8.47575
7.60773
6.61674
5.51828
5.09532
8.34345
9.76897
10.4445
10.9024
10.0469
8.88394
7.57419
7.02925
10.8581
12.3767
13.1024
13.513
12.6754
11.3715
9.87255
9.21318
13.6228
15.2671
15.9064
16.2633
15.4276
14.0265
12.3613
11.6091
16.526
18.0975
18.6197
19.0684
18.2671
16.7961
15.0099
14.1785
19.5221
21.0107
21.4925
21.8976
21.1175
19.6593
17.7754
16.8878
22.5502
23.9007
24.13
24.7729
24.0203
22.5886
20.6471
19.7094
25.6229
26.9164
27.1812
27.7383
26.9447
25.5866
23.604
22.6295
28.7443
29.9804
29.9251
30.726
29.9285
28.6365
26.6449
25.6354
31.9134
33.1271
33.1472
33.9038
33.019
31.7375
29.7509
28.7198
35.1519
36.321
36.1551
36.9774
36.1811
34.8863
32.9339
31.8757
38.4494
39.6128
39.5252
40.3342
39.4606
38.1026
36.1749
35.0938
41.8257
42.9773
42.8099
43.596
42.7969
41.3836
39.4741
38.3659
45.2534
46.4389
46.3545
47.0814
46.2991
44.7378
42.8226
41.6874
48.7571
49.9832
49.8611
50.6334
49.8237
48.1525
46.2187
45.0524
52.2888
53.5556
53.5788
54.2349
53.4279
51.6141
49.648
48.4619
55.8521
57.16
57.2362
57.8873
57.0389
55.1095
53.1163
51.9204
59.4425
60.7179
60.9693
61.5321
60.6378
58.6127
56.6255
55.4351
63.0612
64.2881
64.6848
65.0865
64.2305
62.1548
60.1922
59.0188
66.7594
67.8367
68.3453
68.7223
67.8395
65.7468
63.8266
62.6874
70.583
71.5144
72.1198
72.3032
71.4802
69.4298
67.5564
66.4584
74.6091
75.2823
75.943
76.0811
75.2755
73.2402
71.4028
70.352
78.9274
79.3748
80.087
80.0368
79.1883
77.2093
75.3988
74.3868
83.6398
83.778
84.5179
84.2382
83.3556
81.3644
79.5501
78.5735
88.8241
88.6878
89.3681
88.8568
87.7211
85.71
83.8778
82.921
94.5181
94.1899
94.7258
93.9151
92.3972
90.2624
88.3768
87.4288
100.735
100.332
100.576
99.3852
97.279
94.9959
93.0483
92.094
107.41
107.116
106.931
105.21
102.431
99.9313
97.8733
96.9047
114.524
114.241
113.371
111.271
107.817
105.006
102.823
101.838
122.264
122.081
120.31
117.879
113.411
110.188
107.874
106.871
130.832
130.312
127.756
124.124
119.006
115.445
113
111.974
140.394
138.986
134.818
129.894
124.595
120.749
118.141
117.098
151.396
148.115
142.458
135.993
130.244
126.072
123.264
122.156
163.756
158.066
150.057
142.375
135.971
131.371
128.236
127.07
179.014
169.814
157.566
148.871
141.662
136.458
133.012
131.89
1912.85
1886.23
1854.45
1821.54
1788.34
1754.26
1719.89
1686.9
1889.8
1876.57
1852.81
1825.25
1796.66
1767.47
1738.67
1714.21
1873.89
1867.42
1850.18
1827.8
1803.62
1778.65
1754.45
1735.69
1862.63
1859.62
1847.2
1829.29
1809.06
1787.86
1767.57
1752.89
1854.39
1853.23
1844.28
1830.05
1813.28
1795.38
1778.43
1766.8
1848.32
1848.1
1841.62
1830.33
1816.5
1801.49
1787.4
1778.12
1843.72
1844.02
1839.28
1830.33
1818.95
1806.46
1794.8
1787.34
1840.26
1840.78
1837.29
1830.17
1820.84
1810.49
1800.88
1794.89
1837.58
1838.21
1835.62
1829.96
1822.31
1813.77
1805.88
1801.04
1835.55
1836.18
1834.24
1829.72
1823.48
1816.44
1809.98
1806.09
1833.94
1834.56
1833.11
1829.49
1824.42
1818.63
1813.35
1810.21
1832.73
1833.28
1832.19
1829.29
1825.17
1820.42
1816.12
1813.58
1831.76
1832.27
1831.44
1829.12
1825.78
1821.88
1818.4
1816.36
1831.03
1831.47
1830.85
1828.98
1826.27
1823.09
1820.26
1818.6
1830.45
1830.84
1830.37
1828.87
1826.68
1824.09
1821.81
1820.49
1830.02
1830.34
1830
1828.79
1827.02
1824.91
1823.07
1821.98
1829.67
1829.97
1829.71
1828.74
1827.32
1825.59
1824.12
1823.27
1829.43
1829.67
1829.49
1828.71
1827.56
1826.16
1824.97
1824.26
1829.24
1829.46
1829.33
1828.7
1827.78
1826.64
1825.7
1825.14
1829.12
1829.29
1829.21
1828.7
1827.96
1827.03
1826.27
1825.82
1829.03
1829.18
1829.13
1828.72
1828.13
1827.37
1826.79
1826.4
1828.99
1829.11
1829.08
1828.74
1828.27
1827.66
1827.19
1826.9
1828.96
1829.07
1829.06
1828.78
1828.41
1827.91
1827.55
1827.28
1828.98
1829.05
1829.06
1828.83
1828.54
1828.12
1827.84
1827.64
1829
1829.06
1829.08
1828.88
1828.66
1828.31
1828.09
1827.91
1829.05
1829.08
1829.12
1828.94
1828.77
1828.47
1828.31
1828.16
1829.11
1829.12
1829.17
1829.01
1828.88
1828.62
1828.5
1828.37
1829.2
1829.18
1829.24
1829.07
1828.98
1828.75
1828.66
1828.55
1829.28
1829.24
1829.31
1829.15
1829.08
1828.87
1828.81
1828.7
1829.39
1829.32
1829.39
1829.22
1829.18
1828.99
1828.95
1828.84
1829.51
1829.4
1829.48
1829.31
1829.28
1829.1
1829.07
1828.96
1829.66
1829.5
1829.58
1829.4
1829.38
1829.21
1829.18
1829.08
1829.82
1829.61
1829.68
1829.5
1829.47
1829.32
1829.29
1829.18
1830.02
1829.74
1829.78
1829.59
1829.56
1829.42
1829.39
1829.28
1830.25
1829.88
1829.9
1829.71
1829.65
1829.52
1829.49
1829.38
1830.53
1830.05
1830.03
1829.83
1829.75
1829.63
1829.58
1829.49
1830.9
1830.23
1830.2
1829.98
1829.86
1829.75
1829.69
1829.61
1831.52
1830.5
1830.39
1830.14
1829.99
1829.88
1829.82
1829.72
1832.58
1830.92
1830.62
1830.34
1830.14
1830.02
1829.97
1829.92
1834.31
1831.53
1830.82
1830.5
1830.31
1830.18
1830.09
1830.36
)
;

boundaryField
{
    wall
    {
        type            calculated;
        value           nonuniform List<scalar> 
312
(
3783.55
3687.38
3586.99
3487.8
3390.04
3293.58
3198.68
3105.16
3013.02
2922.18
2832.51
2744.04
2656.65
2570.39
2485.35
2400.89
2316.79
2232.15
2146.17
2054.65
1912.85
1889.8
1873.89
1862.63
1854.39
1848.32
1843.72
1840.26
1837.58
1835.55
1833.94
1832.73
1831.76
1831.03
1830.45
1830.02
1829.67
1829.43
1829.24
1829.12
1829.03
1828.99
1828.96
1828.98
1829
1829.05
1829.11
1829.2
1829.28
1829.39
1829.51
1829.66
1829.82
1830.02
1830.25
1830.53
1830.9
1831.52
1832.58
1834.31
1686.9
1714.21
1735.69
1752.89
1766.8
1778.12
1787.34
1794.89
1801.04
1806.09
1810.21
1813.58
1816.36
1818.6
1820.49
1821.98
1823.27
1824.26
1825.14
1825.82
1826.4
1826.9
1827.28
1827.64
1827.91
1828.16
1828.37
1828.55
1828.7
1828.84
1828.96
1829.08
1829.18
1829.28
1829.38
1829.49
1829.61
1829.72
1829.92
1830.36
1556.35
1480.17
1410.54
1346.19
1285.41
1227.81
1173.85
1123.13
1075.33
1029.16
983.724
939.454
895.018
849.646
802.624
754.383
705.457
656.942
609.123
562.989
519.144
478.327
440.371
405.712
373.492
344.041
316.648
291.554
268.434
247.319
228.082
210.669
194.771
180.386
167.188
155.148
144.194
133.902
124.205
114.763
105.735
96.6894
87.3565
77.8024
68.5685
59.4865
50.5799
41.9469
33.7164
26.0537
19.1292
13.0936
8.07896
4.19922
1.54184
0.173052
140.359
139.743
135.841
130.138
124.631
116.513
103.774
91.3508
82.0229
71.7238
60.8357
49.7716
38.9823
28.9668
20.1654
12.978
7.53818
3.83919
1.63953
0.265406
0.0442081
0.395423
1.08397
2.10346
3.44586
5.09532
7.02925
9.21318
11.6091
14.1785
16.8878
19.7094
22.6295
25.6354
28.7198
31.8757
35.0938
38.3659
41.6874
45.0524
48.4619
51.9204
55.4351
59.0188
62.6874
66.4584
70.352
74.3868
78.5735
82.921
87.4288
92.094
96.9047
101.838
106.871
111.974
117.098
122.156
127.07
131.89
1.07047
1.01339
2.05381
2.72202
4.24687
6.07059
8.34345
10.8581
13.6228
16.526
19.5221
22.5502
25.6229
28.7443
31.9134
35.1519
38.4494
41.8257
45.2534
48.7571
52.2888
55.8521
59.4425
63.0612
66.7594
70.583
74.6091
78.9274
83.6398
88.8241
94.5181
100.735
107.41
114.524
122.264
130.832
140.394
151.396
163.756
179.014
1512.06
1451.03
1391.07
1332.19
1274.74
1218.8
1164.46
1111.77
1060.75
1011.28
963.155
916.065
869.674
823.587
777.629
731.629
685.723
640.128
595.258
551.478
509.147
468.359
429.229
391.453
354.828
318.779
282.375
244.146
2035.84
1966.09
1897.5
1830.6
1764.98
1700.32
1636.7
1573.89
3783.9
3687.83
3587.43
3488.43
3390.8
3294.64
3199.81
3106.51
3014.54
2924.16
2835.11
2747.74
2661.7
2577.5
2494.63
2413.84
2334.36
2257.21
2181.35
2107.97
)
;
    }
    inlet1
    {
        type            calculated;
        value           nonuniform List<scalar> 
20
(
3783.9
3783.9
3783.9
3783.9
3783.88
3783.88
3783.86
3783.83
3783.8
3783.77
3783.72
3783.7
3783.66
3783.64
3783.6
3783.59
3783.57
3783.56
3783.55
3783.55
)
;
    }
    inlet2
    {
        type            calculated;
        value           nonuniform List<scalar> 8(1834.31 1831.53 1830.82 1830.5 1830.31 1830.18 1830.09 1830.36);
    }
    outlet1
    {
        type            calculated;
        value           uniform 0;
    }
    outlet2
    {
        type            calculated;
        value           nonuniform List<scalar> 8(1.00735 0 1.188 0.829696 0.0949156 0 0 0);
    }
    defaultFaces
    {
        type            empty;
    }
}


// ************************************************************************* //
