/*--------------------------------*- C++ -*----------------------------------*\
| =========                 |                                                 |
| \\      /  F ield         | OpenFOAM: The Open Source CFD Toolbox           |
|  \\    /   O peration     | Version:  2.4.0                                 |
|   \\  /    A nd           | Web:      www.OpenFOAM.org                      |
|    \\/     M anipulation  |                                                 |
\*---------------------------------------------------------------------------*/
FoamFile
{
    version     2.0;
    format      ascii;
    class       volScalarField;
    location    "100";
    object      sigmayz;
}
// * * * * * * * * * * * * * * * * * * * * * * * * * * * * * * * * * * * * * //

dimensions      [1 -1 -2 0 0 0 0];

internalField   nonuniform List<scalar> 
1000
(
-3.77384e-15
7.72085e-14
6.69831e-14
-1.8414e-14
5.47502e-14
6.9942e-15
-4.33468e-14
-5.7742e-14
0
-1.62197e-15
5.22102e-14
3.2185e-14
3.24449e-14
-1.59116e-14
-5.59821e-14
1.06911e-14
4.71126e-14
-3.87043e-14
5.29733e-15
-1.6472e-14
2.27366e-14
1.25934e-14
2.42997e-16
6.26786e-15
-5.46631e-14
-5.29629e-14
-2.1555e-14
1.9943e-14
4.14124e-15
-1.51076e-14
-3.70752e-15
-3.26514e-14
-4.5051e-16
0
5.70486e-14
2.66997e-15
-4.24814e-14
4.2507e-14
4.83168e-15
3.10689e-14
4.65539e-14
-5.54292e-14
-2.31507e-15
-1.65414e-15
0
8.70218e-14
5.88267e-14
3.91209e-14
-1.00809e-14
-3.03035e-14
1.95408e-15
2.90636e-14
2.58335e-14
0
-4.13521e-14
2.00525e-17
6.55944e-14
2.84366e-14
-3.25793e-15
-1.58715e-14
-2.0621e-15
4.64311e-14
0
-4.20973e-14
-4.93323e-17
-5.56455e-14
4.56047e-15
-5.50806e-15
4.64178e-15
1.42945e-16
-1.60739e-15
2.40671e-14
-2.5302e-14
-2.81211e-14
7.74089e-17
-4.9559e-17
-1.58655e-14
-1.9058e-14
-3.88259e-15
1.98949e-15
-1.43737e-14
6.19832e-15
-1.36796e-14
1.23366e-14
6.38208e-15
1.98945e-14
0
0
-5.06439e-15
-1.20307e-14
1.30865e-14
4.01446e-15
-1.18524e-14
4.10766e-15
3.63139e-15
0
0
-3.61994e-15
-1.06054e-15
-2.57029e-16
-7.03777e-14
-4.05097e-14
0
1.90459e-14
1.18261e-14
-1.14253e-14
-7.90508e-15
2.97284e-16
9.73052e-15
6.09058e-15
-4.95762e-14
6.45869e-16
-3.82238e-14
-8.06693e-15
4.81584e-15
-8.9028e-15
-9.86527e-15
-9.14355e-15
2.0208e-16
3.09916e-16
-3.64457e-14
6.17354e-14
2.61273e-16
-5.31399e-14
-3.59705e-14
-1.46296e-14
-1.58072e-14
4.52889e-16
-1.39974e-14
-9.02893e-15
-5.75268e-14
-1.77766e-14
5.46848e-15
1.72564e-14
6.47385e-16
3.64903e-15
-1.886e-14
1.25078e-14
6.10678e-15
1.29886e-14
-3.32587e-14
-4.98939e-15
-4.18905e-14
1.25222e-14
2.62642e-14
3.02369e-14
2.9169e-14
-1.24861e-15
2.39345e-14
-1.24137e-14
7.29838e-14
-3.27657e-15
3.01865e-14
-2.17391e-14
3.24401e-14
-2.77111e-14
2.39314e-14
-1.31282e-15
-1.51682e-15
-3.14492e-14
1.24896e-13
4.92388e-14
8.72738e-14
-2.42753e-14
1.54319e-14
-2.38431e-14
-4.48913e-15
0
-2.29994e-14
2.59446e-14
2.28722e-14
-2.09413e-14
-4.78706e-14
7.36949e-14
-1.1349e-13
3.75223e-14
-4.41567e-15
0
-8.8117e-16
-2.12073e-15
0
2.37255e-14
-1.5883e-13
3.58589e-14
1.50935e-14
2.46737e-14
0
0
0
2.821e-14
3.76487e-14
4.90161e-14
-4.9263e-14
-7.84966e-14
1.02593e-13
0
-4.09834e-14
0
-1.23253e-15
-1.4433e-14
3.06146e-15
5.64705e-15
-3.37913e-16
-4.22952e-19
-5.39627e-15
-1.75109e-16
0
0
4.0207e-15
-3.24305e-15
7.0038e-15
-9.19692e-16
8.74502e-16
-1.7922e-15
-6.35815e-16
1.73424e-15
-7.24438e-16
-2.19444e-17
-6.15787e-15
-8.25072e-16
1.0518e-14
1.01038e-14
2.7259e-15
7.007e-15
8.77791e-17
-4.57819e-15
5.58874e-15
-1.53225e-15
-9.87691e-17
-2.50866e-15
7.42792e-15
-3.73652e-15
-1.59837e-15
0
-1.57342e-15
-4.56787e-15
1.55053e-16
-8.34951e-16
-1.61654e-15
9.57262e-15
-2.28145e-15
6.05459e-15
-1.98336e-15
-2.89594e-15
9.70666e-15
-6.39668e-15
-1.34717e-15
2.66309e-15
1.68573e-16
-2.68463e-15
5.90469e-15
-1.94595e-15
-7.56208e-15
-2.88677e-15
2.16971e-15
3.14343e-15
-4.16491e-15
-4.1475e-15
9.58719e-15
5.96078e-15
-1.74679e-14
-5.07001e-15
1.94075e-15
-8.59216e-15
4.28111e-15
2.41078e-15
-2.08612e-14
-3.90518e-15
-1.56011e-15
5.01778e-15
1.13228e-14
7.97201e-15
-3.59139e-15
3.89795e-15
3.01436e-15
-3.99315e-15
3.36157e-16
6.74328e-15
-4.21885e-15
-1.01939e-14
4.2608e-15
-2.26443e-14
2.81424e-15
5.42149e-15
1.57227e-14
1.21407e-14
1.01279e-14
-5.3475e-15
-2.03082e-14
-5.69478e-15
6.78716e-15
9.2994e-15
-9.03442e-15
1.19758e-14
6.0739e-15
-4.73572e-15
8.69565e-15
2.38589e-14
-9.58205e-15
-2.84903e-14
7.23038e-15
3.89242e-15
-1.34206e-14
-7.78124e-15
-7.09154e-16
5.02261e-17
1.5868e-14
1.71061e-14
5.73684e-15
-1.9165e-14
-8.85867e-15
2.27428e-14
-4.6745e-15
-2.7778e-14
-6.83743e-15
-6.30822e-15
-4.71946e-15
1.8881e-14
1.01844e-14
1.27601e-14
-4.57998e-15
-9.08816e-15
0
0
-2.33902e-14
0
-1.33446e-14
-1.99401e-14
1.75135e-14
1.16093e-14
-1.00796e-14
5.15656e-15
1.29032e-14
3.7039e-15
4.25003e-15
1.33198e-14
-2.99815e-14
-3.00278e-14
1.14916e-14
1.28576e-14
-4.72613e-15
-6.59908e-15
-2.41157e-14
-3.73029e-15
7.13199e-16
-5.57192e-15
-1.02248e-14
1.78261e-14
-1.00577e-14
-8.06199e-15
-8.82394e-15
0
5.1132e-15
3.00621e-14
1.24639e-14
-1.43634e-14
-9.81455e-16
0
1.08843e-14
1.42851e-14
2.51617e-16
5.94089e-15
-3.87539e-15
-1.15627e-14
2.6936e-14
4.16745e-14
-9.69398e-15
-1.35135e-14
-1.13504e-14
1.35315e-14
-2.74306e-14
-3.96934e-15
-1.30534e-14
-9.32834e-16
2.51981e-14
4.33663e-15
0
7.9729e-15
-2.52996e-14
-4.21522e-14
3.99651e-14
-4.72645e-15
1.34767e-14
-1.34517e-14
-2.89281e-14
-1.16549e-15
4.15424e-14
-5.1843e-16
-2.30451e-14
-8.09738e-16
1.47394e-14
-2.8276e-14
1.36029e-14
-1.28003e-14
8.26449e-17
-1.41583e-14
9.89497e-15
7.12322e-18
-9.9048e-15
-3.72468e-15
-2.36361e-14
-2.04332e-14
-7.51125e-15
1.74815e-14
-3.76094e-14
-2.39577e-14
-2.07507e-14
5.9039e-15
4.10295e-14
-1.09557e-15
2.03031e-14
-1.84776e-14
0
-7.18202e-15
6.41015e-15
-5.11424e-16
-9.64413e-15
2.73776e-16
-3.34499e-15
-2.78751e-15
2.00907e-14
0
-1.1625e-14
2.26434e-28
7.96075e-29
2.36208e-28
1.95276e-28
-7.55463e-15
0
7.15949e-15
-3.90642e-29
-7.33614e-15
7.62745e-15
1.02609e-28
-8.62623e-15
-6.48572e-29
1.02466e-14
1.13421e-14
-7.26689e-29
-8.62892e-29
-1.35306e-15
-1.55569e-14
-2.73434e-14
0
-3.66891e-15
-1.67919e-14
-2.11324e-14
-3.14496e-14
8.07967e-15
-1.99915e-14
-9.25099e-15
-1.70631e-14
-1.56816e-14
-7.18186e-15
-1.31167e-14
-1.19507e-14
-1.07816e-14
-4.96454e-15
-4.56485e-15
-4.2681e-15
7.64247e-14
1.48756e-14
-3.98935e-14
5.40197e-28
8.08692e-15
0
1.22536e-14
-1.82369e-14
5.13239e-28
1.73397e-14
-9.40611e-15
-5.71782e-29
-3.70021e-28
7.45275e-15
-2.02644e-28
-2.09377e-14
1.90186e-28
1.89945e-14
-5.11673e-15
-4.90946e-15
2.83777e-14
2.79408e-14
2.801e-14
3.38157e-29
3.78336e-14
1.94904e-15
1.87945e-15
2.29038e-14
9.51416e-15
1.94946e-14
1.89883e-14
-5.29384e-16
6.91468e-15
7.67767e-15
2.46516e-14
6.65378e-15
2.59233e-30
2.43031e-14
1.12406e-14
1.09817e-14
8.73951e-16
-1.3469e-14
-1.31428e-14
0
1.18265e-14
2.36179e-14
-2.26283e-14
-1.0406e-14
1.01358e-14
1.01138e-14
1.63204e-28
8.94314e-15
0
-7.85804e-15
0
6.9337e-15
-1.20356e-14
8.71787e-29
4.1794e-29
-1.0135e-29
1.72269e-14
1.2787e-14
-1.32585e-14
3.50187e-28
3.89484e-31
1.19829e-14
1.1551e-14
-1.09383e-14
0
2.05666e-14
-3.17764e-28
-1.55153e-15
1.06781e-14
7.99673e-15
-1.12935e-14
7.17383e-15
1.23428e-14
1.30403e-14
-4.45303e-29
-1.47045e-28
1.1983e-14
1.21369e-14
1.21658e-14
0
1.18689e-14
0
1.122e-14
0
0
0
9.43452e-15
0
0
8.09753e-15
0
0
0
6.90766e-15
6.81277e-15
6.84586e-15
-2.73273e-14
0
-1.15859e-14
0
-1.13896e-14
-1.11614e-14
0
0
0
-9.74559e-15
-9.33626e-15
-8.92914e-15
0
0
0
-7.54105e-15
0
-7.16075e-15
-7.10375e-15
-7.16842e-15
-5.96127e-14
-1.09585e-14
7.29745e-30
1.14607e-29
1.28344e-14
-2.33187e-14
-2.28386e-14
0
1.19542e-14
2.27921e-15
2.29028e-29
-2.06772e-14
-1.19056e-14
-8.20338e-15
1.23033e-14
-7.67342e-15
5.43143e-29
1.34157e-14
5.1373e-29
-4.82557e-29
1.32428e-14
5.35462e-29
-1.32621e-14
0
1.29517e-14
1.27569e-14
-1.2565e-14
-1.23929e-14
1.22544e-14
-2.94769e-28
-1.25578e-28
2.18821e-29
5.83083e-29
3.71212e-28
-3.15544e-29
6.14126e-29
-1.31126e-14
-5.19204e-29
-1.4724e-28
-5.25819e-29
-4.16815e-14
-1.48078e-28
-7.0617e-29
9.34045e-29
1.30335e-14
-1.28948e-14
-1.27492e-14
0
1.2501e-14
1.24229e-14
-6.04241e-29
-1.23999e-14
-1.24635e-14
8.64143e-29
1.27452e-14
-2.87736e-30
2.93394e-30
1.35028e-14
-1.47915e-28
-5.36731e-29
1.28731e-14
-9.5135e-15
-1.31455e-14
0
1.30865e-14
2.25547e-14
-2.23436e-14
-3.14135e-14
1.26984e-14
8.96296e-15
1.17904e-28
8.56941e-15
-1.67518e-14
-8.19534e-15
-1.60727e-14
7.90811e-15
-1.32867e-14
0
-9.45256e-29
0
1.33882e-14
9.11169e-15
-1.30802e-14
2.39415e-29
3.18229e-29
9.20587e-15
3.51223e-14
-1.29188e-14
-2.57025e-14
2.15687e-14
-1.7773e-28
2.12523e-14
1.28375e-14
8.16748e-15
-1.30324e-14
-1.84034e-14
1.33377e-14
1.35135e-14
4.70362e-29
-4.76819e-29
-4.32025e-29
8.74625e-15
1.22559e-28
0
-1.21493e-28
-8.88094e-15
8.83701e-15
1.75384e-14
0
-8.58066e-15
-1.19112e-28
-8.35488e-15
1.64825e-14
8.1347e-15
1.60832e-14
-7.96905e-15
0
1.09867e-28
2.97628e-28
1.71378e-29
1.29148e-16
4.38769e-29
-4.70147e-29
2.82405e-29
1.31158e-14
-1.31253e-14
-1.31064e-14
0
1.30398e-14
1.30149e-14
-1.91413e-28
-1.30203e-14
-1.30577e-14
0
1.31981e-14
6.25418e-30
-1.06298e-28
1.34852e-14
3.73352e-29
7.79213e-30
8.01404e-15
0
8.04103e-29
0
-2.43278e-29
-3.27829e-29
0
0
0
-1.01777e-28
9.87258e-30
-5.6244e-29
0
0
0
-5.50065e-29
0
2.87926e-28
5.51139e-29
5.56003e-29
-2.3728e-14
4.6979e-15
1.61693e-29
-2.61304e-29
1.30507e-14
-2.12198e-14
-2.12597e-14
0
1.31012e-14
4.95103e-15
-1.00289e-29
-2.1221e-14
-1.31582e-14
-8.04496e-15
1.32774e-14
-7.99697e-15
-3.59643e-29
1.34495e-14
-1.12922e-28
-1.79329e-30
4.58678e-15
-7.65691e-15
-4.95975e-15
0
2.09056e-14
1.30572e-14
-2.1093e-14
-1.30955e-14
1.30968e-14
-2.67601e-28
8.05615e-15
-2.91679e-30
-5.52158e-29
-8.02482e-15
-5.50415e-29
6.4482e-29
-1.34151e-14
7.98916e-15
8.00281e-15
8.06676e-15
-6.1876e-15
-4.12177e-15
-4.20851e-15
0
4.31168e-15
4.33721e-15
-4.35155e-15
-4.35896e-15
4.36319e-15
-5.04693e-29
3.0106e-29
8.20607e-30
1.83519e-29
4.87458e-29
1.83292e-29
4.90292e-29
-4.48009e-15
0
0
0
1.34376e-14
-3.35364e-15
-1.42081e-14
0
-3.99784e-15
-3.89574e-14
1.69202e-14
2.27233e-14
5.5472e-15
-1.45788e-14
8.22348e-15
4.28232e-14
0
3.09724e-14
-1.98737e-15
-2.9645e-14
-3.21906e-14
1.89456e-14
-3.85799e-14
3.90482e-14
-1.52916e-14
5.54202e-16
-9.42191e-15
3.09413e-14
4.38434e-14
0
1.68041e-14
3.52883e-14
-5.73964e-15
-1.5312e-14
-7.18131e-15
-1.97269e-14
-2.10647e-14
-2.74544e-14
6.05989e-15
-1.22765e-14
3.45112e-14
6.21215e-14
-9.44806e-16
3.90447e-14
-2.6147e-17
1.61008e-14
-5.53442e-15
-1.49314e-14
-3.69966e-14
-5.66188e-14
-6.8044e-14
3.17064e-14
2.93697e-14
-4.86946e-14
6.51373e-15
-1.31089e-14
2.37569e-14
4.27538e-15
3.27832e-14
3.97844e-15
-2.72656e-14
-5.78762e-14
2.9141e-14
0
2.18057e-15
-2.69138e-14
4.89509e-16
-4.26212e-16
7.73862e-15
1.37246e-14
3.55747e-14
-2.94613e-14
-1.14101e-14
4.7633e-14
-8.00745e-15
2.66552e-14
3.02965e-16
9.72246e-15
-1.86566e-14
-2.49057e-14
1.08974e-14
-1.3565e-14
-7.88446e-14
-1.28976e-14
1.72651e-14
2.51626e-14
0
6.21103e-15
2.87888e-14
-2.10016e-14
1.26745e-14
1.72309e-15
-2.75476e-15
-9.3414e-14
2.77367e-14
2.37659e-14
1.2047e-14
-1.21622e-14
1.21641e-14
2.76123e-14
3.33372e-14
-2.71519e-14
3.9637e-14
2.34334e-14
-4.70292e-14
-2.38311e-14
-2.26322e-15
4.30473e-17
-2.10188e-14
3.23865e-14
3.12486e-14
3.0837e-14
-3.74988e-14
1.12606e-14
-2.04119e-14
-2.35688e-14
-3.75212e-17
-5.4315e-15
-3.07337e-14
1.14975e-15
1.80193e-14
-6.74115e-16
-4.83468e-15
1.19321e-14
2.90639e-14
9.75717e-15
9.90524e-15
5.21955e-15
-1.06443e-14
-3.07013e-14
1.78304e-14
2.06508e-14
-3.7886e-14
-9.01115e-15
-9.70337e-15
-9.75453e-15
3.55324e-15
4.69532e-15
3.03209e-14
2.03084e-14
0
-1.06284e-14
-2.10786e-14
1.32762e-14
-3.47052e-17
-2.04927e-15
-3.27094e-14
2.01293e-14
-1.7133e-15
3.28166e-14
5.3246e-14
1.01632e-14
-4.54437e-14
-4.88587e-14
9.66506e-15
5.85145e-15
1.23091e-14
-2.26756e-14
-8.24466e-15
-1.96373e-14
3.56579e-14
3.69735e-14
-4.72186e-15
8.21083e-16
4.3221e-16
-1.33812e-14
2.9255e-14
-3.96844e-14
-5.55944e-15
-9.57907e-15
0
3.74892e-14
8.4745e-15
-2.87892e-14
-8.8752e-15
2.79066e-14
-1.25378e-14
-4.55492e-16
-2.00189e-14
-2.61723e-16
-7.74435e-15
0
2.09029e-14
-2.00713e-15
-1.15773e-15
7.52815e-15
8.79528e-15
3.14345e-14
-5.42093e-15
-6.38377e-15
0
8.91714e-15
-3.51046e-16
-1.07845e-14
2.91852e-15
-5.83027e-15
0
2.93925e-15
4.68339e-15
-2.98607e-15
-2.42259e-15
0
9.18021e-15
-2.37183e-15
)
;

boundaryField
{
    left
    {
        type            symmetryPlane;
    }
    right
    {
        type            calculated;
        value           nonuniform List<scalar> 
30
(
-8.25072e-16
9.57262e-15
5.96078e-15
-1.01939e-14
-2.84903e-14
1.27601e-14
1.28576e-14
1.42851e-14
-4.21522e-14
-3.72468e-15
-2.78751e-15
-8.62892e-29
-4.2681e-15
-4.90946e-15
1.09817e-14
-1.0135e-29
-1.47045e-28
6.84586e-15
-7.16842e-15
-4.82557e-29
-5.25819e-29
-5.36731e-29
0
-4.76819e-29
1.71378e-29
7.79213e-30
5.56003e-29
-1.79329e-30
8.06676e-15
0
)
;
    }
    down
    {
        type            symmetryPlane;
    }
    up
    {
        type            calculated;
        value           nonuniform List<scalar> 
30
(
-1.6738e-18
3.31471e-18
0
-1.51243e-18
2.4278e-19
1.25874e-18
-2.38607e-18
0
5.45952e-18
4.99403e-18
-3.05937e-18
-4.42495e-18
-4.6107e-18
0
4.95903e-18
5.12027e-18
-5.27761e-18
-5.43791e-18
5.61044e-18
-8.18957e-32
4.15698e-32
-4.29738e-33
-6.22115e-33
4.22799e-32
-7.48278e-33
5.02888e-32
-1.01818e-17
0
0
0
)
;
    }
    hole
    {
        type            calculated;
        value           nonuniform List<scalar> 
20
(
-4.74505e-14
5.66549e-14
6.90944e-14
-5.40182e-15
1.12412e-13
1.36005e-14
-9.17164e-15
-2.97747e-14
-3.59133e-14
-3.0847e-16
-7.04331e-14
-4.85834e-14
-3.41852e-14
-5.27781e-14
-3.40485e-14
4.41415e-14
1.10664e-13
5.39423e-14
0
3.88362e-14
)
;
    }
    frontAndBack
    {
        type            empty;
    }
}


// ************************************************************************* //
