/*--------------------------------*- C++ -*----------------------------------*\
| =========                 |                                                 |
| \\      /  F ield         | OpenFOAM: The Open Source CFD Toolbox           |
|  \\    /   O peration     | Version:  2.4.0                                 |
|   \\  /    A nd           | Web:      www.OpenFOAM.org                      |
|    \\/     M anipulation  |                                                 |
\*---------------------------------------------------------------------------*/
FoamFile
{
    version     2.0;
    format      ascii;
    class       volScalarField;
    location    "5.84";
    object      nut;
}
// * * * * * * * * * * * * * * * * * * * * * * * * * * * * * * * * * * * * * //

dimensions      [0 2 -1 0 0 0 0];

internalField   nonuniform List<scalar> 
6000
(
4.7015e-05
1.44418e-05
4.24739e-06
8.77716e-06
7.78857e-06
8.9255e-06
8.56563e-06
8.93772e-06
8.81099e-06
9.01701e-06
9.05375e-06
9.28173e-06
9.49141e-06
9.83804e-06
1.0231e-05
1.07292e-05
1.12903e-05
1.19319e-05
1.26317e-05
1.33901e-05
1.41921e-05
1.50305e-05
1.58914e-05
1.67629e-05
1.76303e-05
1.84799e-05
1.92975e-05
2.00686e-05
2.07772e-05
2.1407e-05
2.19407e-05
2.23605e-05
2.26483e-05
2.2785e-05
2.27521e-05
2.2532e-05
2.21092e-05
2.14687e-05
2.06021e-05
1.95038e-05
1.81908e-05
1.66895e-05
1.50776e-05
1.42823e-05
1.60017e-05
1.77932e-05
1.95292e-05
2.13459e-05
2.29525e-05
2.47101e-05
2.59859e-05
2.7694e-05
2.84016e-05
3.02691e-05
3.00311e-05
3.26064e-05
3.07175e-05
3.51442e-05
3.0579e-05
3.82539e-05
2.94897e-05
9.50755e-06
3.16502e-06
7.01526e-06
6.32247e-06
7.01621e-06
6.77344e-06
7.00618e-06
6.93252e-06
7.07789e-06
7.1319e-06
7.3199e-06
7.5168e-06
7.81639e-06
8.16567e-06
8.5971e-06
9.08556e-06
9.63806e-06
1.02403e-05
1.08896e-05
1.15759e-05
1.22927e-05
1.30312e-05
1.37838e-05
1.45422e-05
1.52997e-05
1.60498e-05
1.67871e-05
1.75066e-05
1.82044e-05
1.88781e-05
1.95275e-05
2.01558e-05
2.07683e-05
2.13769e-05
2.20042e-05
2.26879e-05
2.34895e-05
2.45084e-05
2.59106e-05
2.79617e-05
3.10869e-05
3.57213e-05
3.84631e-05
3.35084e-05
2.96563e-05
2.69979e-05
2.51448e-05
2.39451e-05
2.31838e-05
2.2676e-05
2.24958e-05
2.22044e-05
2.24216e-05
2.19823e-05
2.26998e-05
2.16803e-05
2.33598e-05
2.11802e-05
2.44057e-05
2.14309e-05
8.16043e-06
2.81346e-06
5.88992e-06
5.32636e-06
5.68158e-06
5.49643e-06
5.63002e-06
5.59078e-06
5.70403e-06
5.78536e-06
5.9742e-06
6.20237e-06
6.5256e-06
6.91751e-06
7.39524e-06
7.9469e-06
8.57437e-06
9.27037e-06
1.00316e-05
1.08522e-05
1.17279e-05
1.26542e-05
1.36276e-05
1.46463e-05
1.571e-05
1.68208e-05
1.7983e-05
1.92043e-05
2.04966e-05
2.18774e-05
2.33728e-05
2.50197e-05
2.68617e-05
2.89626e-05
3.14233e-05
3.43891e-05
3.80806e-05
4.28256e-05
4.914e-05
5.77681e-05
6.97763e-05
8.57194e-05
9.39779e-05
7.76612e-05
6.33407e-05
5.23104e-05
4.35873e-05
3.72087e-05
3.21085e-05
2.84902e-05
2.54541e-05
2.33615e-05
2.15035e-05
2.02142e-05
1.91263e-05
1.81512e-05
1.77892e-05
1.66629e-05
1.71964e-05
1.78746e-05
7.96956e-06
2.98747e-06
5.26062e-06
4.70351e-06
4.76711e-06
4.59273e-06
4.64835e-06
4.63084e-06
4.73281e-06
4.8548e-06
5.08295e-06
5.39033e-06
5.81131e-06
6.3418e-06
6.99304e-06
7.76713e-06
8.66701e-06
9.69509e-06
1.08519e-05
1.21395e-05
1.3559e-05
1.51141e-05
1.68098e-05
1.86545e-05
2.066e-05
2.28428e-05
2.52254e-05
2.78374e-05
3.07182e-05
3.392e-05
3.75131e-05
4.15931e-05
4.62321e-05
5.15867e-05
5.78641e-05
6.53455e-05
7.44324e-05
8.56734e-05
9.98603e-05
0.000117978
0.000141184
0.000168895
0.000181496
0.000154749
0.000128217
0.000105715
8.64489e-05
7.12727e-05
5.84299e-05
4.8825e-05
4.04247e-05
3.4544e-05
2.89651e-05
2.54896e-05
2.16645e-05
1.97195e-05
1.70562e-05
1.59612e-05
1.44297e-05
1.67546e-05
8.44523e-06
3.53497e-06
5.03882e-06
4.40545e-06
4.18428e-06
3.97835e-06
3.96348e-06
3.95852e-06
4.0663e-06
4.24757e-06
4.55834e-06
5.00626e-06
5.61887e-06
6.41658e-06
7.41582e-06
8.63917e-06
1.01003e-05
1.18189e-05
1.38081e-05
1.60852e-05
1.86652e-05
2.15673e-05
2.48127e-05
2.84281e-05
3.2445e-05
3.69027e-05
4.1849e-05
4.73425e-05
5.3455e-05
6.02753e-05
6.79159e-05
7.64919e-05
8.60473e-05
9.68131e-05
0.000109035
0.000123028
0.000139222
0.000158161
0.000180585
0.00020729
0.00023902
0.000273555
0.000287785
0.000256134
0.00022104
0.000188526
0.000158487
0.000132841
0.000109755
9.11565e-05
7.42569e-05
6.15768e-05
4.94796e-05
4.14122e-05
3.27695e-05
2.81468e-05
2.18966e-05
1.96133e-05
1.57866e-05
1.71085e-05
9.39798e-06
4.3916e-06
5.14698e-06
4.41004e-06
3.88838e-06
3.60763e-06
3.5186e-06
3.51876e-06
3.64836e-06
3.91509e-06
4.36346e-06
5.03733e-06
5.97319e-06
7.22534e-06
8.83012e-06
1.08425e-05
1.32997e-05
1.62494e-05
1.97268e-05
2.37725e-05
2.84213e-05
3.37125e-05
3.96858e-05
4.63849e-05
5.38564e-05
6.21537e-05
7.13362e-05
8.14693e-05
9.26258e-05
0.000104888
0.000118363
0.000133004
0.000148827
0.000166036
0.000184806
0.000205362
0.000228024
0.000253188
0.000281402
0.0003132
0.000348925
0.000385101
0.000399194
0.000367749
0.000329324
0.000291059
0.000253473
0.000219086
0.000186389
0.000158045
0.000131216
0.000109395
8.83064e-05
7.27829e-05
5.67407e-05
4.68671e-05
3.49319e-05
2.95854e-05
2.25452e-05
1.83893e-05
1.07093e-05
5.51643e-06
5.50497e-06
4.69453e-06
3.86406e-06
3.46213e-06
3.28562e-06
3.28383e-06
3.45217e-06
3.84088e-06
4.501e-06
5.52239e-06
6.96961e-06
8.94574e-06
1.15233e-05
1.48015e-05
1.88506e-05
2.37504e-05
2.95592e-05
3.63365e-05
4.41298e-05
5.2986e-05
6.29457e-05
7.40463e-05
8.63202e-05
9.97999e-05
0.000114515
0.00013049
0.000147743
0.000166294
0.000186158
0.000207011
0.000228913
0.000251972
0.000276258
0.000301886
0.00032906
0.000358038
0.000389212
0.000422953
0.000459272
0.000494101
0.000507427
0.000479177
0.000441385
0.000401401
0.000360185
0.000320346
0.000280796
0.000244369
0.000208658
0.000177451
0.00014678
0.000121982
9.68847e-05
7.91317e-05
5.95397e-05
4.86165e-05
3.72661e-05
2.02058e-05
1.22753e-05
6.86629e-06
6.06034e-06
5.20476e-06
4.10913e-06
3.54235e-06
3.25782e-06
3.24663e-06
3.47324e-06
4.03384e-06
5.00616e-06
6.54272e-06
8.75702e-06
1.18147e-05
1.58344e-05
2.09602e-05
2.72907e-05
3.49245e-05
4.39258e-05
5.43503e-05
6.62323e-05
7.95966e-05
9.44519e-05
0.000110793
0.0001286
0.000147848
0.000168501
0.000190509
0.00021381
0.000238337
0.00026392
0.000290107
0.000316982
0.000344565
0.000372847
0.000401862
0.000431734
0.000462626
0.000494829
0.000528627
0.000563683
0.000595983
0.000608524
0.000584745
0.000549891
0.000510954
0.000469158
0.000426929
0.00038356
0.00034166
0.000299412
0.000260316
0.000221256
0.000187159
0.000152976
0.000125833
9.76954e-05
7.8862e-05
6.25694e-05
2.2247e-05
1.39955e-05
8.38919e-06
6.80572e-06
5.85855e-06
4.60978e-06
3.85607e-06
3.44313e-06
3.41539e-06
3.72394e-06
4.52148e-06
5.93568e-06
8.20084e-06
1.14954e-05
1.60498e-05
2.20225e-05
2.95833e-05
3.88354e-05
4.98655e-05
6.2713e-05
7.73987e-05
9.39139e-05
0.000112232
0.000132303
0.000154055
0.000177396
0.000202231
0.000228453
0.000255934
0.000284541
0.000314142
0.00034431
0.000374689
0.000405326
0.00043618
0.000467188
0.000498333
0.000529683
0.000561336
0.000593516
0.000626438
0.000659461
0.000689014
0.000700962
0.000681915
0.000651086
0.000614795
0.000574392
0.000532023
0.000487272
0.000442375
0.000396048
0.000351251
0.000305803
0.000263745
0.000221647
0.000185144
0.00014877
0.000120773
9.96142e-05
2.42783e-05
1.57758e-05
1.00261e-05
7.74391e-06
6.59815e-06
5.31593e-06
4.39893e-06
3.85277e-06
3.80552e-06
4.2249e-06
5.33741e-06
7.34545e-06
1.05791e-05
1.52849e-05
2.17411e-05
3.01203e-05
4.05824e-05
5.32017e-05
6.8019e-05
8.50227e-05
0.000104176
0.000125411
0.000148636
0.000173736
0.000200566
0.000228968
0.000258782
0.000289841
0.000321961
0.000354953
0.000388622
0.000422337
0.000455917
0.000489345
0.000522534
0.000555386
0.000587848
0.000619948
0.00065174
0.000683398
0.000715033
0.000745875
0.000772868
0.000784434
0.000769855
0.000743379
0.000710518
0.000672638
0.000631596
0.00058717
0.000541227
0.000492874
0.000444524
0.000394746
0.000346663
0.000298331
0.000253675
0.000210118
0.000173055
0.000147565
2.61483e-05
1.75357e-05
1.17162e-05
8.86116e-06
7.41726e-06
6.14746e-06
5.13467e-06
4.48261e-06
4.42455e-06
4.98913e-06
6.499e-06
9.25476e-06
1.36848e-05
2.00906e-05
2.87638e-05
3.98555e-05
5.34778e-05
6.96485e-05
8.83412e-05
0.000109482
0.000132971
0.00015868
0.000186456
0.000216121
0.000247471
0.000280288
0.000314365
0.000349492
0.000385441
0.000421988
0.000458836
0.00049532
0.000531353
0.000566866
0.000601742
0.000635856
0.000669128
0.000701562
0.000733173
0.000764105
0.000794309
0.000823103
0.000847862
0.000859206
0.000848593
0.000826364
0.000797196
0.000762389
0.000723545
0.00068055
0.000634959
0.000586125
0.000536021
0.000483701
0.000431568
0.000378726
0.000327708
0.00027831
0.000233327
0.000204132
2.77811e-05
1.9213e-05
1.34022e-05
1.01242e-05
8.33853e-06
7.04068e-06
5.99793e-06
5.29627e-06
5.25289e-06
6.00023e-06
7.97958e-06
1.16095e-05
1.7407e-05
2.57043e-05
3.67672e-05
5.06928e-05
6.75184e-05
8.71932e-05
0.000109618
0.00013466
0.000162161
0.000191939
0.00022379
0.000257484
0.000292763
0.000329367
0.00036705
0.000405573
0.000444677
0.000484113
0.000523456
0.00056213
0.00060007
0.000637169
0.000673285
0.000708274
0.000742037
0.000774559
0.000805831
0.000835946
0.000864747
0.000891707
0.000914565
0.000925784
0.000918557
0.000900239
0.000874712
0.000843161
0.000806965
0.000766062
0.000721761
0.000673546
0.000623073
0.00056964
0.000515196
0.000459396
0.000403912
0.000350034
0.000298821
0.00026644
2.91563e-05
2.07652e-05
1.50352e-05
1.14875e-05
9.37692e-06
7.97967e-06
6.92769e-06
6.23022e-06
6.23536e-06
7.19798e-06
9.6919e-06
1.42675e-05
2.15156e-05
3.17741e-05
4.52507e-05
6.1968e-05
8.18776e-05
0.00010486
0.000130748
0.000159357
0.000190481
0.000223894
0.000259346
0.000296563
0.000335246
0.000375095
0.000415839
0.000457216
0.00049894
0.000540758
0.000582083
0.000622516
0.000661962
0.000700286
0.000737324
0.00077292
0.000806963
0.000839423
0.000870275
0.000899525
0.000927031
0.000952373
0.000973624
0.000984754
0.000980334
0.000965485
0.00094337
0.000915029
0.000881654
0.000843193
0.000800774
0.000753921
0.000704091
0.000650639
0.000595293
0.000537844
0.000479625
0.000422525
0.000366887
0.000331698
3.02873e-05
2.21682e-05
1.65772e-05
1.29009e-05
1.05283e-05
8.98129e-06
7.89722e-06
7.22449e-06
7.29881e-06
8.4892e-06
1.15014e-05
1.70245e-05
2.57105e-05
3.78861e-05
5.36823e-05
7.3039e-05
9.58208e-05
0.000121845
0.000150885
0.000182714
0.000217083
0.000253728
0.00029236
0.000332668
0.000374316
0.00041697
0.000460337
0.000504138
0.000548067
0.000591841
0.000634796
0.000676664
0.000717316
0.000756593
0.00079432
0.000830328
0.000864499
0.000896797
0.000927168
0.000955547
0.000981875
0.00100579
0.00102567
0.0010367
0.00103455
0.0010227
0.00100367
0.000978362
0.000947802
0.000911925
0.000871725
0.000826715
0.000778234
0.000725572
0.000670411
0.000612378
0.00055288
0.000493663
0.000435266
0.000397545
3.12037e-05
2.34127e-05
1.8002e-05
1.43154e-05
1.17714e-05
1.00646e-05
8.91295e-06
8.25039e-06
8.3857e-06
9.78304e-06
1.32683e-05
1.96702e-05
2.96975e-05
4.36593e-05
6.16044e-05
8.33891e-05
0.000108794
0.000137582
0.00016947
0.000204194
0.000241471
0.000280999
0.000322456
0.000365496
0.00040975
0.000454854
0.000500494
0.00054638
0.000592185
0.000637578
0.0006819
0.00072495
0.000766574
0.000806596
0.000844828
0.000881099
0.000915282
0.000947342
0.000977165
0.0010047
0.00102995
0.0010526
0.00107128
0.00108219
0.00108183
0.0010725
0.0010562
0.00103367
0.00100581
0.000972517
0.000934696
0.000891817
0.000845155
0.000793867
0.0007397
0.000681925
0.000622311
0.000561925
0.000502178
0.000462164
3.19396e-05
2.45008e-05
1.92943e-05
1.56879e-05
1.30736e-05
1.12352e-05
9.9933e-06
9.31201e-06
9.47444e-06
1.10247e-05
1.48923e-05
2.20441e-05
3.32508e-05
4.88093e-05
6.8689e-05
9.26657e-05
0.00012044
0.000151722
0.000186179
0.000223511
0.000263402
0.000305518
0.000349503
0.00039498
0.000441548
0.000488813
0.000536443
0.000584139
0.000631558
0.000678305
0.000723782
0.00076781
0.000810218
0.000850814
0.000889405
0.000925815
0.000959916
0.000991659
0.00102089
0.00104762
0.00107186
0.00109336
0.00111099
0.0011217
0.00112271
0.00111547
0.00110154
0.0010815
0.00105616
0.00102537
0.00098997
0.000949374
0.000904825
0.000855319
0.000802727
0.000745868
0.000687034
0.000626277
0.000566313
0.000524241
3.25279e-05
2.54415e-05
2.04481e-05
1.69837e-05
1.43964e-05
1.24831e-05
1.11532e-05
1.04294e-05
1.05752e-05
1.22049e-05
1.63332e-05
2.40633e-05
3.62421e-05
5.31699e-05
7.47464e-05
0.000100672
0.000130567
0.000164093
0.000200866
0.000240553
0.000282805
0.000327256
0.000373519
0.000421185
0.000469824
0.00051901
0.000568396
0.000617676
0.000666493
0.00071438
0.000760835
0.000805673
0.000848707
0.000889736
0.000928562
0.000965007
0.000998944
0.00103027
0.00105889
0.00108484
0.00110813
0.00112857
0.00114523
0.0011557
0.00115772
0.00115217
0.00114025
0.00112242
0.00109938
0.00107096
0.00103794
0.000999677
0.000957408
0.000909957
0.000859346
0.000803906
0.000746526
0.000686062
0.000626757
0.000582883
3.29974e-05
2.62483e-05
2.14653e-05
1.81775e-05
1.57002e-05
1.37857e-05
1.23952e-05
1.16205e-05
1.17165e-05
1.33474e-05
1.76039e-05
2.57188e-05
3.86352e-05
5.66819e-05
7.97041e-05
0.000107333
0.000139108
0.000174645
0.000213504
0.00025532
0.000299709
0.000346274
0.000394599
0.000444242
0.000494744
0.000545648
0.00059659
0.000647261
0.000697282
0.000746145
0.000793428
0.000838932
0.000882457
0.000923797
0.000962749
0.000999139
0.00103281
0.00106367
0.00109166
0.00111683
0.00113922
0.00115866
0.00117442
0.00118456
0.0011873
0.00118308
0.00117285
0.00115694
0.00113598
0.00110977
0.00107903
0.0010431
0.00100318
0.000957959
0.000909599
0.000855956
0.000800523
0.000740901
0.000682919
0.000637524
3.33723e-05
2.69363e-05
2.23526e-05
1.92536e-05
1.69485e-05
1.51119e-05
1.37096e-05
1.28945e-05
1.29296e-05
1.44905e-05
1.87497e-05
2.70541e-05
4.0463e-05
5.93661e-05
8.35751e-05
0.000112662
0.000146083
0.000183408
0.000224138
0.000267874
0.000314199
0.000362682
0.000412876
0.00046431
0.000516493
0.000568937
0.000621261
0.000673156
0.000724204
0.000773911
0.000821889
0.000867932
0.000911831
0.000953373
0.000992357
0.00102859
0.0010619
0.00109225
0.0011196
0.001144
0.0011655
0.00118399
0.00119888
0.00120864
0.00121183
0.00120865
0.00119981
0.00118556
0.00116645
0.00114227
0.0011137
0.00108003
0.00104248
0.000999586
0.000953647
0.000902081
0.000848946
0.000790616
0.000734447
0.000687835
3.36719e-05
2.75209e-05
2.31206e-05
2.02051e-05
1.81105e-05
1.64256e-05
1.50751e-05
1.42495e-05
1.42308e-05
1.56847e-05
1.9829e-05
2.81415e-05
4.18014e-05
6.12956e-05
8.64287e-05
0.000116728
0.000151563
0.000190463
0.000232858
0.000278319
0.000326391
0.00037661
0.000428498
0.000481553
0.000535254
0.000589078
0.000642626
0.000695597
0.000747521
0.00079795
0.000846506
0.000892974
0.00093714
0.000978787
0.00101771
0.00105367
0.00108657
0.00111637
0.00114305
0.00116667
0.00118731
0.00120488
0.00121893
0.00122824
0.00123167
0.00122926
0.00122155
0.00120871
0.00119124
0.00116891
0.00114237
0.00111089
0.00107568
0.00103515
0.000991722
0.000942436
0.000891841
0.000835167
0.00078117
0.000733659
3.3912e-05
2.80167e-05
2.37816e-05
2.10323e-05
1.91632e-05
1.76902e-05
1.6462e-05
1.56724e-05
1.56232e-05
1.69724e-05
2.09043e-05
2.90634e-05
4.2748e-05
6.25731e-05
8.83673e-05
0.000119633
0.000155651
0.000195914
0.000239776
0.000286773
0.000336412
0.000388195
0.000441612
0.00049613
0.000551199
0.000606253
0.000660883
0.000714792
0.000767458
0.0008185
0.000867525
0.000914314
0.00095865
0.00100031
0.00103904
0.00107467
0.00110711
0.00113633
0.00116232
0.00118515
0.00120492
0.00122159
0.00123481
0.00124362
0.00124711
0.00124525
0.00123843
0.00122679
0.00121076
0.00119011
0.00116547
0.00113608
0.00110313
0.00106497
0.0010241
0.000977232
0.000929336
0.000874613
0.000823044
0.000774961
3.41047e-05
2.84367e-05
2.43485e-05
2.1741e-05
2.00921e-05
1.88718e-05
1.7835e-05
1.71403e-05
1.7099e-05
1.83622e-05
2.20613e-05
2.99006e-05
4.34067e-05
6.33144e-05
8.95105e-05
0.000121498
0.000158469
0.000199885
0.000245015
0.000293362
0.000344393
0.000397574
0.000452361
0.000508192
0.000564484
0.000620631
0.000676204
0.000730923
0.000784213
0.000835764
0.000885156
0.000932171
0.000976581
0.00101812
0.00105659
0.00109184
0.00112377
0.00115236
0.00117763
0.00119967
0.00121857
0.00123435
0.00124674
0.00125499
0.00125842
0.00125691
0.00125079
0.00124015
0.00122538
0.00120625
0.00118336
0.00115595
0.00112519
0.00108939
0.00105107
0.00100671
0.000961612
0.000909075
0.000860111
0.000811788
3.42598e-05
2.87925e-05
2.48341e-05
2.23412e-05
2.08908e-05
1.9942e-05
1.91559e-05
1.86219e-05
1.864e-05
1.9851e-05
2.33325e-05
3.07738e-05
4.38793e-05
6.36386e-05
8.99848e-05
0.000122452
0.000160143
0.000202502
0.000248704
0.000298216
0.000350465
0.000404879
0.000460881
0.000517877
0.000575254
0.000632358
0.000688745
0.000744147
0.000797956
0.000849918
0.000899581
0.000946716
0.000991074
0.00103243
0.00107057
0.00110537
0.00113675
0.00116468
0.00118921
0.00121043
0.00122846
0.00124335
0.00125492
0.00126258
0.0012658
0.00126449
0.0012589
0.00124909
0.00123542
0.00121767
0.0011964
0.00117087
0.00114221
0.00110872
0.00107293
0.00103113
0.000988878
0.000938715
0.000892477
0.000844239
3.43849e-05
2.90943e-05
2.52501e-05
2.28448e-05
2.15605e-05
2.08802e-05
2.03878e-05
2.00796e-05
2.02184e-05
2.14241e-05
2.47214e-05
3.17604e-05
4.43137e-05
6.36618e-05
8.99168e-05
0.000122624
0.000160805
0.000203897
0.00025097
0.000301462
0.000354755
0.000410239
0.000467301
0.000525315
0.00058364
0.000641569
0.000698641
0.000754611
0.000808837
0.000861113
0.000910923
0.000958067
0.0010023
0.00104339
0.00108116
0.00111546
0.00114623
0.00117348
0.00119723
0.00121762
0.00123477
0.00124877
0.0012595
0.00126654
0.00126948
0.00126823
0.00126303
0.0012539
0.00124119
0.00122468
0.00120491
0.00118115
0.00115451
0.00112326
0.00108996
0.00105076
0.00101136
0.000963719
0.000920285
0.00087245
3.4486e-05
2.93504e-05
2.56073e-05
2.32649e-05
2.21081e-05
2.16741e-05
2.14976e-05
2.14727e-05
2.17982e-05
2.30567e-05
2.62179e-05
3.28751e-05
4.48336e-05
6.35629e-05
8.94299e-05
0.000122145
0.000160585
0.000204199
0.000251943
0.000303227
0.000357388
0.000413774
0.00047174
0.000530627
0.000589764
0.000648385
0.000706014
0.000762445
0.000816979
0.000869422
0.000919292
0.000966364
0.0010104
0.00105116
0.00108849
0.00112224
0.00115238
0.00117889
0.00120185
0.00122138
0.00123765
0.00125075
0.00126065
0.00126702
0.0012696
0.00126832
0.00126337
0.00125481
0.00124293
0.00122755
0.00120917
0.00118708
0.00116237
0.00113332
0.00110244
0.00106584
0.0010293
0.000984287
0.000943703
0.000896578
3.45679e-05
2.9568e-05
2.59149e-05
2.36147e-05
2.2545e-05
2.23201e-05
2.24592e-05
2.27606e-05
2.33372e-05
2.47137e-05
2.77994e-05
3.4116e-05
4.54702e-05
6.34823e-05
8.87556e-05
0.000121139
0.00015961
0.000203536
0.000251747
0.000303635
0.000358484
0.000415606
0.000474317
0.000533926
0.000593736
0.000652916
0.000710975
0.000767703
0.000822445
0.000874965
0.000924808
0.000971732
0.00101549
0.00105587
0.0010927
0.00112586
0.0011553
0.00118105
0.00120319
0.00122184
0.00123721
0.00124943
0.00125849
0.00126418
0.00126633
0.00126492
0.00126015
0.00125203
0.00124089
0.00122653
0.00120944
0.00118894
0.00116607
0.00113915
0.00111064
0.00107662
0.00104291
0.00100062
0.000962911
0.000916789
3.46343e-05
2.9753e-05
2.61807e-05
2.39064e-05
2.28853e-05
2.28222e-05
2.32553e-05
2.39059e-05
2.47899e-05
2.63525e-05
2.94319e-05
3.54661e-05
4.62353e-05
6.34688e-05
8.79973e-05
0.000119839
0.000158087
0.000202031
0.000250507
0.000302805
0.000358162
0.000415847
0.000475142
0.00053532
0.000595624
0.000655208
0.000713574
0.000770492
0.000825341
0.000877849
0.00092758
0.000974277
0.0010177
0.00105762
0.0010939
0.00112641
0.00115513
0.00118008
0.00120136
0.00121913
0.00123359
0.0012449
0.00125312
0.00125811
0.0012598
0.0012582
0.00125351
0.00124576
0.00123527
0.00122184
0.00120596
0.00118697
0.00116586
0.00114101
0.00111481
0.00108335
0.00105242
0.00101293
0.000978095
0.000933257
3.46882e-05
2.99107e-05
2.64116e-05
2.41509e-05
2.31443e-05
2.31909e-05
2.38779e-05
2.48781e-05
2.61109e-05
2.79241e-05
3.10712e-05
3.6894e-05
4.71216e-05
6.35509e-05
8.72187e-05
0.000118333
0.000156132
0.000199865
0.000248376
0.000300868
0.000356529
0.000414586
0.000474286
0.000534865
0.000595511
0.000655355
0.000713908
0.000770909
0.000825765
0.000878168
0.000927703
0.000974096
0.0010171
0.00105652
0.00109218
0.001124
0.00115195
0.00117607
0.00119648
0.00121334
0.00122688
0.00123728
0.00124465
0.00124894
0.00125013
0.00124828
0.00124361
0.00123617
0.00122624
0.00121369
0.00119893
0.00118138
0.00116197
0.00113913
0.00111516
0.00108625
0.00105806
0.0010214
0.000989444
0.000946151
3.4732e-05
3.0045e-05
2.66128e-05
2.43579e-05
2.33375e-05
2.34415e-05
2.43285e-05
2.56555e-05
2.72585e-05
2.93771e-05
3.26653e-05
3.83556e-05
4.81046e-05
6.37358e-05
8.64632e-05
0.000116694
0.000153836
0.000197135
0.000245456
0.000297927
0.000353686
0.000411921
0.000471844
0.000532657
0.000593488
0.000653446
0.000712069
0.000769043
0.000823803
0.000876011
0.000925263
0.000971276
0.0010138
0.00105264
0.00108765
0.00111872
0.00114586
0.00116912
0.00118862
0.00120456
0.00121716
0.00122666
0.00123318
0.00123675
0.00123742
0.00123529
0.0012306
0.0012234
0.00121399
0.00120223
0.00118855
0.00117238
0.0011546
0.00113371
0.00111193
0.00108553
0.00106002
0.00102623
0.000997141
0.000955643
3.47677e-05
3.01596e-05
2.67889e-05
2.45352e-05
2.34793e-05
2.35921e-05
2.4617e-05
2.62274e-05
2.81983e-05
3.06609e-05
3.4157e-05
3.97969e-05
4.91438e-05
6.40109e-05
8.57535e-05
0.000114974
0.000151272
0.00019393
0.000241841
0.000294076
0.000349727
0.000407946
0.000467908
0.000528784
0.000589642
0.000649568
0.000708142
0.00076498
0.000819539
0.000871458
0.000920342
0.000965896
0.00100787
0.00104608
0.00108036
0.00111065
0.00113694
0.00115931
0.00117788
0.00119287
0.00120453
0.00121311
0.00121879
0.00122164
0.00122177
0.00121934
0.00121458
0.00120759
0.00119864
0.00118765
0.00117499
0.00116014
0.00114394
0.00112496
0.0011053
0.00108138
0.00105851
0.00102761
0.00100137
0.000961894
3.47966e-05
3.02575e-05
2.69436e-05
2.46893e-05
2.35829e-05
2.3662e-05
2.47601e-05
2.65937e-05
2.89059e-05
3.17298e-05
3.54877e-05
4.1156e-05
5.01855e-05
6.43447e-05
8.50908e-05
0.000113209
0.000148501
0.000190322
0.000237612
0.0002894
0.000344742
0.000402749
0.000462566
0.000523332
0.000584055
0.000643815
0.000702209
0.000758796
0.000813049
0.000864585
0.000913012
0.000958029
0.000999388
0.00103689
0.00107041
0.00109986
0.00112527
0.0011467
0.00116432
0.00117835
0.00118906
0.00119672
0.00120155
0.00120368
0.00120327
0.00120052
0.00119567
0.00118886
0.00118035
0.00117007
0.00115839
0.00114484
0.00113017
0.00111306
0.00109547
0.00107399
0.0010537
0.00102571
0.00100229
0.000965063
3.48202e-05
3.03411e-05
2.70798e-05
2.48251e-05
2.36592e-05
2.36705e-05
2.47792e-05
2.67648e-05
2.93691e-05
3.25467e-05
3.66018e-05
4.23677e-05
5.1166e-05
6.46895e-05
8.44562e-05
0.000111411
0.000145564
0.000186372
0.00023284
0.000283979
0.000338809
0.000396411
0.000455898
0.00051638
0.000576802
0.000636263
0.000694345
0.000750566
0.000804406
0.000855462
0.000903345
0.000947745
0.000988414
0.00102516
0.00105785
0.00108642
0.0011109
0.00113137
0.00114801
0.00116106
0.00117081
0.00117756
0.00118155
0.00118296
0.00118201
0.00117892
0.00117397
0.00116731
0.00115922
0.00114964
0.00113892
0.00112662
0.00111345
0.00109817
0.00108261
0.00106353
0.00104578
0.00102071
0.00100009
0.000965302
3.48393e-05
3.04126e-05
2.72001e-05
2.49465e-05
2.37175e-05
2.36352e-05
2.46981e-05
2.676e-05
2.95886e-05
3.30868e-05
3.74507e-05
4.33675e-05
5.20154e-05
6.49844e-05
8.38122e-05
0.000109575
0.000142482
0.000182122
0.000227584
0.000277877
0.000332
0.000389006
0.00044798
0.000508004
0.000567957
0.000626985
0.000684624
0.000740362
0.000793678
0.000844156
0.000891404
0.000935107
0.000975014
0.00101093
0.00104274
0.00107039
0.0010939
0.00111338
0.00112903
0.00114108
0.00114986
0.00115569
0.00115884
0.00115954
0.00115805
0.00115463
0.00114958
0.00114307
0.00113538
0.00112648
0.00111669
0.00110563
0.00109392
0.00108044
0.00106687
0.00105017
0.00103491
0.00101276
0.000994916
0.000962755
3.48548e-05
3.04737e-05
2.73064e-05
2.50563e-05
2.37646e-05
2.35719e-05
2.45417e-05
2.66049e-05
2.95773e-05
3.33392e-05
3.79971e-05
4.40965e-05
5.26627e-05
6.51598e-05
8.31061e-05
0.000107674
0.000139261
0.000177601
0.000221887
0.000271149
0.000324377
0.000380599
0.000438878
0.000498271
0.000557588
0.000616051
0.000673114
0.000728247
0.000780931
0.00083073
0.000877252
0.000920177
0.000959251
0.000994284
0.00102516
0.00105183
0.00107434
0.0010928
0.00110742
0.00111847
0.00112627
0.00113118
0.0011335
0.00113351
0.00113148
0.00112774
0.00112258
0.00111622
0.00110892
0.0011007
0.00109183
0.00108199
0.00107173
0.00106003
0.00104841
0.00103406
0.00102124
0.00100201
0.000986923
0.000957561
3.48674e-05
3.05261e-05
2.74005e-05
2.51564e-05
2.38059e-05
2.34938e-05
2.43335e-05
2.63293e-05
2.93591e-05
3.33082e-05
3.82184e-05
4.45063e-05
5.30408e-05
6.51425e-05
8.22746e-05
0.000105669
0.000135886
0.000172818
0.000215776
0.000263836
0.000315988
0.000371246
0.000428653
0.000487244
0.000545779
0.000603525
0.000659877
0.000714286
0.000766223
0.000815244
0.000860949
0.000903013
0.00094118
0.000975263
0.00100515
0.0010308
0.00105227
0.00106968
0.00108325
0.00109328
0.0011001
0.00110409
0.0011056
0.00110492
0.00110238
0.00109831
0.00109306
0.00108685
0.00107996
0.00107241
0.00106446
0.00105584
0.00104701
0.00103706
0.00102737
0.00101535
0.00100492
0.000988607
0.000976258
0.000949851
3.48776e-05
3.0571e-05
2.74838e-05
2.52484e-05
2.38449e-05
2.34113e-05
2.4095e-05
2.59644e-05
2.89658e-05
3.30124e-05
3.81091e-05
4.45632e-05
5.30922e-05
6.48614e-05
8.12481e-05
0.000103505
0.000132329
0.000167768
0.000209268
0.000255967
0.000306873
0.000360992
0.000417354
0.000474976
0.000532582
0.000589464
0.000644972
0.000698534
0.000749613
0.000797753
0.000842548
0.000883669
0.000920857
0.000953927
0.000982769
0.00100736
0.00102774
0.00104408
0.00105659
0.00106558
0.00107142
0.0010745
0.0010752
0.00107385
0.00107081
0.00106644
0.00106111
0.00105506
0.00104858
0.00104171
0.00103469
0.00102727
0.00101988
0.00101167
0.00100388
0.000994171
0.000986096
0.000972698
0.000963061
0.000939751
3.48859e-05
3.06095e-05
2.75577e-05
2.53333e-05
2.3884e-05
2.33322e-05
2.38443e-05
2.55406e-05
2.84345e-05
3.24829e-05
3.76809e-05
4.42516e-05
5.27739e-05
6.42538e-05
7.99577e-05
0.000101123
0.000128551
0.000162435
0.000202364
0.000247558
0.000297058
0.000349874
0.000405025
0.000461514
0.000518047
0.000573921
0.000628451
0.000681044
0.000731154
0.00077831
0.000822104
0.000862199
0.000898336
0.000930329
0.000958074
0.000981551
0.00100083
0.00101606
0.00102749
0.00103544
0.0010403
0.00104247
0.00104237
0.00104037
0.00103685
0.0010322
0.00102681
0.00102095
0.00101489
0.00100871
0.00100262
0.000996423
0.00099045
0.000983986
0.000978077
0.000970656
0.000964904
0.000954412
0.000947467
0.000927383
3.48925e-05
3.06426e-05
2.76232e-05
2.54118e-05
2.39245e-05
2.32618e-05
2.35964e-05
2.50859e-05
2.78042e-05
3.17604e-05
3.69619e-05
4.35758e-05
5.20618e-05
6.32709e-05
7.83413e-05
9.84633e-05
0.000124503
0.00015679
0.000195055
0.000238616
0.000286563
0.000337918
0.000391697
0.000446895
0.000502215
0.00055694
0.000610362
0.000661865
0.000710894
0.000756965
0.000799666
0.000838654
0.000873667
0.000904522
0.000931119
0.000953443
0.000971573
0.000985676
0.000996009
0.00100291
0.00100679
0.00100807
0.00100719
0.00100455
0.00100058
0.000995683
0.000990255
0.000984593
0.000978979
0.000973508
0.000968371
0.000963392
0.000958847
0.000954119
0.000950081
0.000944932
0.000941472
0.000933877
0.000929604
0.000912862
3.48978e-05
3.06711e-05
2.76813e-05
2.54844e-05
2.39667e-05
2.32034e-05
2.33622e-05
2.46243e-05
2.71132e-05
3.08912e-05
3.59942e-05
4.25598e-05
5.09534e-05
6.18827e-05
7.63496e-05
9.54698e-05
0.000120141
0.000150803
0.000187327
0.00022914
0.000275397
0.000325142
0.000377398
0.000431153
0.00048512
0.000538561
0.000590747
0.000641041
0.000688878
0.000733766
0.000775282
0.000813083
0.000846902
0.000876559
0.000901956
0.000923088
0.00094004
0.000952993
0.000962218
0.000968069
0.000970966
0.000971368
0.000969731
0.00096649
0.00096209
0.000956966
0.00095153
0.000946098
0.000940953
0.000936212
0.000932038
0.000928295
0.000925184
0.00092219
0.000920015
0.000917123
0.000915928
0.00091122
0.0009096
0.000896301
3.49021e-05
3.06958e-05
2.7733e-05
2.55516e-05
2.40108e-05
2.31585e-05
2.31497e-05
2.41756e-05
2.63967e-05
2.99238e-05
3.483e-05
4.12459e-05
4.94688e-05
6.00826e-05
7.39527e-05
9.21004e-05
0.000115422
0.000144442
0.000179162
0.000219127
0.000263566
0.000311562
0.000362149
0.000414313
0.000466795
0.00051882
0.000569643
0.000618613
0.000665151
0.000708756
0.000749
0.000785535
0.000818092
0.000846493
0.000870643
0.000890544
0.000906291
0.000918076
0.000926183
0.000930983
0.000932914
0.000932452
0.000930081
0.000926263
0.000921468
0.000916151
0.000910739
0.000905567
0.000900918
0.000896929
0.000893737
0.000891244
0.000889575
0.000888318
0.000887998
0.000887351
0.000888395
0.000886562
0.000887576
0.000877809
3.49056e-05
3.07171e-05
2.77789e-05
2.56137e-05
2.40564e-05
2.31276e-05
2.29634e-05
2.37544e-05
2.56848e-05
2.89049e-05
3.3527e-05
3.96905e-05
4.765e-05
5.78886e-05
7.1144e-05
8.83316e-05
0.000110318
0.000137685
0.000170549
0.000208574
0.000251078
0.000297192
0.000345969
0.000396401
0.000447268
0.000497748
0.000547087
0.000594619
0.000639754
0.000681981
0.000720867
0.00075606
0.00078729
0.000814378
0.000837237
0.000855873
0.000870391
0.000880994
0.000887981
0.000891735
0.000892713
0.00089141
0.000888333
0.000883972
0.000878816
0.000873343
0.00086799
0.00086311
0.000858987
0.000855774
0.000853586
0.000852357
0.000852141
0.000852622
0.000854152
0.000855738
0.000858997
0.000860024
0.000863652
0.000857492
3.49083e-05
3.07356e-05
2.78198e-05
2.5671e-05
2.41029e-05
2.311e-05
2.28057e-05
2.33712e-05
2.5002e-05
2.78769e-05
3.21437e-05
3.79597e-05
4.55573e-05
5.53435e-05
6.79435e-05
8.41638e-05
0.00010482
0.000130522
0.000161486
0.000197489
0.000237946
0.00028205
0.000328881
0.000377454
0.000426569
0.000475379
0.000523115
0.000569098
0.000612728
0.000653485
0.000690931
0.000724709