/*--------------------------------*- C++ -*----------------------------------*\
| =========                 |                                                 |
| \\      /  F ield         | OpenFOAM: The Open Source CFD Toolbox           |
|  \\    /   O peration     | Version:  2.4.0                                 |
|   \\  /    A nd           | Web:      www.OpenFOAM.org                      |
|    \\/     M anipulation  |                                                 |
\*---------------------------------------------------------------------------*/
FoamFile
{
    version     2.0;
    format      ascii;
    class       volScalarField;
    location    "0.18";
    object      nut;
}
// * * * * * * * * * * * * * * * * * * * * * * * * * * * * * * * * * * * * * //

dimensions      [0 2 -1 0 0 0 0];

internalField   nonuniform List<scalar> 
6000
(
2.40581e-05
2.7059e-05
2.95836e-05
3.16218e-05
3.3203e-05
3.43832e-05
3.52344e-05
3.58341e-05
3.62544e-05
3.65537e-05
3.67726e-05
3.69358e-05
3.70579e-05
3.71476e-05
3.72121e-05
3.72574e-05
3.72889e-05
3.73103e-05
3.73246e-05
3.73339e-05
3.73396e-05
3.7343e-05
3.73449e-05
3.73458e-05
3.73462e-05
3.73463e-05
3.73462e-05
3.73459e-05
3.73455e-05
3.7345e-05
3.73443e-05
3.73433e-05
3.73422e-05
3.73406e-05
3.73387e-05
3.73361e-05
3.73328e-05
3.73285e-05
3.7323e-05
3.73158e-05
3.73065e-05
3.72945e-05
3.7279e-05
3.72588e-05
3.72328e-05
3.71991e-05
3.71554e-05
3.70988e-05
3.70253e-05
3.69298e-05
3.68057e-05
3.66437e-05
3.64315e-05
3.61521e-05
3.57806e-05
3.52788e-05
3.45875e-05
3.35924e-05
3.2148e-05
2.95154e-05
4.52359e-05
3.94909e-05
3.47004e-05
3.10473e-05
2.84659e-05
2.67504e-05
2.56553e-05
2.49625e-05
2.45008e-05
2.41472e-05
2.38257e-05
2.35037e-05
2.31814e-05
2.28763e-05
2.26073e-05
2.23859e-05
2.22143e-05
2.20877e-05
2.19983e-05
2.19374e-05
2.18973e-05
2.18715e-05
2.18555e-05
2.18458e-05
2.184e-05
2.18366e-05
2.18346e-05
2.18336e-05
2.1833e-05
2.18327e-05
2.18325e-05
2.18325e-05
2.18325e-05
2.18325e-05
2.18325e-05
2.18326e-05
2.18328e-05
2.18329e-05
2.18332e-05
2.18335e-05
2.1834e-05
2.18347e-05
2.18357e-05
2.18372e-05
2.18393e-05
2.18425e-05
2.18473e-05
2.18547e-05
2.1866e-05
2.18837e-05
2.19113e-05
2.19549e-05
2.2024e-05
2.21345e-05
2.23142e-05
2.26127e-05
2.31355e-05
2.40987e-05
2.59629e-05
3.12591e-05
4.98374e-05
4.86972e-05
4.71962e-05
4.53331e-05
4.31958e-05
4.09566e-05
3.87915e-05
3.68269e-05
3.51289e-05
3.37189e-05
3.25958e-05
3.17496e-05
3.1161e-05
3.07964e-05
3.06057e-05
3.05289e-05
3.05098e-05
3.05076e-05
3.05017e-05
3.04876e-05
3.04689e-05
3.04506e-05
3.04356e-05
3.04248e-05
3.04175e-05
3.04128e-05
3.04097e-05
3.04074e-05
3.04054e-05
3.04033e-05
3.04009e-05
3.03979e-05
3.03942e-05
3.03893e-05
3.03831e-05
3.0375e-05
3.03645e-05
3.0351e-05
3.03335e-05
3.03109e-05
3.02817e-05
3.02441e-05
3.01955e-05
3.01329e-05
3.00522e-05
2.99485e-05
2.98153e-05
2.96445e-05
2.94263e-05
2.91482e-05
2.87951e-05
2.83489e-05
2.77883e-05
2.70884e-05
2.62211e-05
2.51611e-05
2.38867e-05
2.25424e-05
2.13703e-05
2.25053e-05
5.00841e-05
4.95487e-05
4.90012e-05
4.84131e-05
4.77628e-05
4.70481e-05
4.62891e-05
4.55217e-05
4.4788e-05
4.41289e-05
4.35804e-05
4.31711e-05
4.29165e-05
4.28115e-05
4.28279e-05
4.29214e-05
4.30451e-05
4.31629e-05
4.32554e-05
4.33183e-05
4.33563e-05
4.3377e-05
4.33873e-05
4.33921e-05
4.33941e-05
4.33948e-05
4.33947e-05
4.33943e-05
4.33936e-05
4.33926e-05
4.33912e-05
4.33894e-05
4.33871e-05
4.3384e-05
4.33801e-05
4.3375e-05
4.33684e-05
4.33598e-05
4.33487e-05
4.33343e-05
4.33156e-05
4.32915e-05
4.32601e-05
4.32194e-05
4.31666e-05
4.30979e-05
4.30084e-05
4.28915e-05
4.27384e-05
4.25371e-05
4.22712e-05
4.19173e-05
4.1442e-05
4.07949e-05
3.98965e-05
3.86207e-05
3.67187e-05
3.39415e-05
2.93859e-05
2.55932e-05
5.00958e-05
4.96033e-05
4.91481e-05
4.87212e-05
4.8316e-05
4.79297e-05
4.7566e-05
4.72351e-05
4.69519e-05
4.67323e-05
4.65893e-05
4.6529e-05
4.65484e-05
4.66341e-05
4.67638e-05
4.69116e-05
4.70545e-05
4.71766e-05
4.7271e-05
4.73381e-05
4.73823e-05
4.74097e-05
4.74258e-05
4.74347e-05
4.74395e-05
4.74418e-05
4.74429e-05
4.74433e-05
4.74433e-05
4.74432e-05
4.74428e-05
4.74423e-05
4.74417e-05
4.74409e-05
4.74398e-05
4.74384e-05
4.74365e-05
4.74342e-05
4.74311e-05
4.74272e-05
4.7422e-05
4.74153e-05
4.74066e-05
4.73953e-05
4.73806e-05
4.73613e-05
4.73361e-05
4.73028e-05
4.72588e-05
4.72001e-05
4.7121e-05
4.7013e-05
4.68628e-05
4.66483e-05
4.633e-05
4.58337e-05
4.49852e-05
4.34571e-05
3.99424e-05
3.46176e-05
5.00963e-05
4.96063e-05
4.91578e-05
4.87457e-05
4.83672e-05
4.8023e-05
4.77181e-05
4.74618e-05
4.72663e-05
4.71428e-05
4.70973e-05
4.71277e-05
4.72221e-05
4.73612e-05
4.75216e-05
4.76816e-05
4.78246e-05
4.79416e-05
4.80301e-05
4.80926e-05
4.81342e-05
4.81602e-05
4.81757e-05
4.81845e-05
4.81891e-05
4.81915e-05
4.81926e-05
4.81931e-05
4.81932e-05
4.81932e-05
4.81931e-05
4.8193e-05
4.81929e-05
4.81927e-05
4.81925e-05
4.81922e-05
4.81918e-05
4.81914e-05
4.81907e-05
4.81899e-05
4.81889e-05
4.81876e-05
4.81858e-05
4.81836e-05
4.81806e-05
4.81768e-05
4.81719e-05
4.81655e-05
4.81572e-05
4.81462e-05
4.81317e-05
4.81122e-05
4.80853e-05
4.80468e-05
4.79878e-05
4.78886e-05
4.76926e-05
4.72543e-05
4.58523e-05
4.25465e-05
5.00963e-05
4.96063e-05
4.91581e-05
4.87471e-05
4.83709e-05
4.80311e-05
4.7733e-05
4.74866e-05
4.73038e-05
4.71955e-05
4.71667e-05
4.72134e-05
4.73222e-05
4.74718e-05
4.76384e-05
4.78008e-05
4.79437e-05
4.80592e-05
4.81459e-05
4.82068e-05
4.82472e-05
4.82726e-05
4.82876e-05
4.82961e-05
4.83006e-05
4.83029e-05
4.83039e-05
4.83044e-05
4.83045e-05
4.83046e-05
4.83046e-05
4.83045e-05
4.83045e-05
4.83045e-05
4.83044e-05
4.83044e-05
4.83043e-05
4.83042e-05
4.83041e-05
4.8304e-05
4.83038e-05
4.83036e-05
4.83034e-05
4.83031e-05
4.83027e-05
4.83023e-05
4.83019e-05
4.83015e-05
4.83013e-05
4.83014e-05
4.83022e-05
4.83043e-05
4.83088e-05
4.83173e-05
4.8332e-05
4.83549e-05
4.83815e-05
4.83807e-05
4.80801e-05
4.68287e-05
5.00962e-05
4.96061e-05
4.91579e-05
4.87468e-05
4.83707e-05
4.80311e-05
4.77337e-05
4.74883e-05
4.73071e-05
4.72009e-05
4.71746e-05
4.7224e-05
4.73351e-05
4.74864e-05
4.76542e-05
4.7817e-05
4.79598e-05
4.80749e-05
4.81612e-05
4.82219e-05
4.8262e-05
4.82871e-05
4.83021e-05
4.83105e-05
4.83149e-05
4.83172e-05
4.83182e-05
4.83186e-05
4.83188e-05
4.83188e-05
4.83188e-05
4.83188e-05
4.83188e-05
4.83188e-05
4.83188e-05
4.83188e-05
4.83187e-05
4.83187e-05
4.83187e-05
4.83187e-05
4.83187e-05
4.83187e-05
4.83187e-05
4.83188e-05
4.83189e-05
4.83191e-05
4.83195e-05
4.83202e-05
4.83214e-05
4.83236e-05
4.83274e-05
4.83339e-05
4.8345e-05
4.83639e-05
4.83957e-05
4.84492e-05
4.85365e-05
4.86708e-05
4.87779e-05
4.86052e-05
5.00962e-05
4.96061e-05
4.91577e-05
4.87465e-05
4.83703e-05
4.80306e-05
4.77331e-05
4.74879e-05
4.73069e-05
4.72011e-05
4.71752e-05
4.72251e-05
4.73366e-05
4.74884e-05
4.76563e-05
4.78192e-05
4.79619e-05
4.80769e-05
4.81631e-05
4.82237e-05
4.82637e-05
4.82888e-05
4.83037e-05
4.83121e-05
4.83166e-05
4.83188e-05
4.83198e-05
4.83203e-05
4.83204e-05
4.83205e-05
4.83205e-05
4.83204e-05
4.83204e-05
4.83204e-05
4.83204e-05
4.83204e-05
4.83204e-05
4.83204e-05
4.83204e-05
4.83204e-05
4.83204e-05
4.83204e-05
4.83205e-05
4.83206e-05
4.83208e-05
4.83211e-05
4.83216e-05
4.83225e-05
4.83239e-05
4.83265e-05
4.83308e-05
4.8338e-05
4.83502e-05
4.83709e-05
4.8406e-05
4.84654e-05
4.85652e-05
4.87319e-05
4.89625e-05
4.9219e-05
5.00962e-05
4.9606e-05
4.91575e-05
4.87462e-05
4.83699e-05
4.80301e-05
4.77326e-05
4.74873e-05
4.73065e-05
4.72007e-05
4.71751e-05
4.72252e-05
4.73369e-05
4.74888e-05
4.76568e-05
4.78196e-05
4.79623e-05
4.80773e-05
4.81634e-05
4.82239e-05
4.8264e-05
4.8289e-05
4.83039e-05
4.83123e-05
4.83167e-05
4.8319e-05
4.832e-05
4.83204e-05
4.83206e-05
4.83206e-05
4.83206e-05
4.83206e-05
4.83206e-05
4.83206e-05
4.83206e-05
4.83206e-05
4.83206e-05
4.83206e-05
4.83206e-05
4.83206e-05
4.83206e-05
4.83206e-05
4.83207e-05
4.83208e-05
4.8321e-05
4.83213e-05
4.83218e-05
4.83227e-05
4.83242e-05
4.83267e-05
4.83311e-05
4.83384e-05
4.83507e-05
4.83715e-05
4.84067e-05
4.84661e-05
4.8566e-05
4.87343e-05
4.89899e-05
4.93768e-05
5.00962e-05
4.96059e-05
4.91574e-05
4.8746e-05
4.83696e-05
4.80297e-05
4.77322e-05
4.74869e-05
4.7306e-05
4.72004e-05
4.71749e-05
4.72252e-05
4.7337e-05
4.7489e-05
4.76571e-05
4.78199e-05
4.79626e-05
4.80775e-05
4.81636e-05
4.8224e-05
4.8264e-05
4.82891e-05
4.83039e-05
4.83123e-05
4.83168e-05
4.8319e-05
4.832e-05
4.83204e-05
4.83206e-05
4.83206e-05
4.83206e-05
4.83206e-05
4.83206e-05
4.83206e-05
4.83206e-05
4.83206e-05
4.83206e-05
4.83206e-05
4.83206e-05
4.83206e-05
4.83206e-05
4.83206e-05
4.83207e-05
4.83208e-05
4.8321e-05
4.83213e-05
4.83218e-05
4.83227e-05
4.83242e-05
4.83267e-05
4.8331e-05
4.83383e-05
4.83505e-05
4.83711e-05
4.84058e-05
4.8464e-05
4.8561e-05
4.87227e-05
4.89724e-05
4.93741e-05
5.00962e-05
4.96059e-05
4.91573e-05
4.87458e-05
4.83694e-05
4.80294e-05
4.77318e-05
4.74865e-05
4.73057e-05
4.72002e-05
4.71748e-05
4.72252e-05
4.73372e-05
4.74892e-05
4.76573e-05
4.78202e-05
4.79628e-05
4.80776e-05
4.81637e-05
4.82241e-05
4.82641e-05
4.82891e-05
4.83039e-05
4.83123e-05
4.83168e-05
4.8319e-05
4.832e-05
4.83204e-05
4.83206e-05
4.83206e-05
4.83206e-05
4.83206e-05
4.83206e-05
4.83206e-05
4.83206e-05
4.83206e-05
4.83206e-05
4.83206e-05
4.83206e-05
4.83206e-05
4.83206e-05
4.83206e-05
4.83207e-05
4.83208e-05
4.83209e-05
4.83212e-05
4.83217e-05
4.83226e-05
4.83241e-05
4.83266e-05
4.83309e-05
4.83381e-05
4.83503e-05
4.83706e-05
4.84047e-05
4.84615e-05
4.85551e-05
4.87086e-05
4.89442e-05
4.93221e-05
5.00962e-05
4.96059e-05
4.91572e-05
4.87457e-05
4.83691e-05
4.80291e-05
4.77315e-05
4.74862e-05
4.73054e-05
4.72e-05
4.71747e-05
4.72252e-05
4.73373e-05
4.74894e-05
4.76575e-05
4.78204e-05
4.79629e-05
4.80778e-05
4.81638e-05
4.82241e-05
4.82641e-05
4.82891e-05
4.8304e-05
4.83123e-05
4.83168e-05
4.8319e-05
4.832e-05
4.83204e-05
4.83206e-05
4.83206e-05
4.83206e-05
4.83206e-05
4.83206e-05
4.83206e-05
4.83206e-05
4.83206e-05
4.83206e-05
4.83206e-05
4.83206e-05
4.83206e-05
4.83206e-05
4.83206e-05
4.83207e-05
4.83208e-05
4.83209e-05
4.83212e-05
4.83217e-05
4.83226e-05
4.83241e-05
4.83266e-05
4.83308e-05
4.8338e-05
4.835e-05
4.83701e-05
4.84036e-05
4.8459e-05
4.85492e-05
4.86948e-05
4.89152e-05
4.92602e-05
5.00962e-05
4.96059e-05
4.91571e-05
4.87455e-05
4.8369e-05
4.80289e-05
4.77312e-05
4.74859e-05
4.73052e-05
4.71998e-05
4.71746e-05
4.72252e-05
4.73374e-05
4.74896e-05
4.76577e-05
4.78205e-05
4.79631e-05
4.80779e-05
4.81638e-05
4.82242e-05
4.82641e-05
4.82891e-05
4.8304e-05
4.83123e-05
4.83168e-05
4.8319e-05
4.832e-05
4.83204e-05
4.83206e-05
4.83206e-05
4.83206e-05
4.83206e-05
4.83206e-05
4.83206e-05
4.83206e-05
4.83206e-05
4.83206e-05
4.83206e-05
4.83206e-05
4.83206e-05
4.83206e-05
4.83206e-05
4.83207e-05
4.83207e-05
4.83209e-05
4.83212e-05
4.83217e-05
4.83226e-05
4.8324e-05
4.83265e-05
4.83307e-05
4.83378e-05
4.83498e-05
4.83696e-05
4.84026e-05
4.84566e-05
4.85437e-05
4.86821e-05
4.88882e-05
4.92012e-05
5.00962e-05
4.96058e-05
4.91571e-05
4.87454e-05
4.83688e-05
4.80287e-05
4.7731e-05
4.74856e-05
4.73049e-05
4.71996e-05
4.71745e-05
4.72252e-05
4.73375e-05
4.74897e-05
4.76579e-05
4.78207e-05
4.79632e-05
4.8078e-05
4.81639e-05
4.82242e-05
4.82642e-05
4.82891e-05
4.8304e-05
4.83123e-05
4.83168e-05
4.8319e-05
4.832e-05
4.83204e-05
4.83206e-05
4.83206e-05
4.83206e-05
4.83206e-05
4.83206e-05
4.83206e-05
4.83206e-05
4.83206e-05
4.83206e-05
4.83206e-05
4.83206e-05
4.83206e-05
4.83206e-05
4.83206e-05
4.83206e-05
4.83207e-05
4.83209e-05
4.83212e-05
4.83217e-05
4.83225e-05
4.8324e-05
4.83265e-05
4.83306e-05
4.83377e-05
4.83495e-05
4.83692e-05
4.84015e-05
4.84543e-05
4.85386e-05
4.86705e-05
4.88639e-05
4.91486e-05
5.00962e-05
4.96058e-05
4.9157e-05
4.87453e-05
4.83687e-05
4.80285e-05
4.77308e-05
4.74854e-05
4.73048e-05
4.71995e-05
4.71745e-05
4.72253e-05
4.73376e-05
4.74899e-05
4.7658e-05
4.78209e-05
4.79634e-05
4.80781e-05
4.8164e-05
4.82243e-05
4.82642e-05
4.82892e-05
4.8304e-05
4.83123e-05
4.83168e-05
4.8319e-05
4.832e-05
4.83204e-05
4.83206e-05
4.83206e-05
4.83206e-05
4.83206e-05
4.83206e-05
4.83206e-05
4.83206e-05
4.83206e-05
4.83206e-05
4.83206e-05
4.83206e-05
4.83206e-05
4.83206e-05
4.83206e-05
4.83206e-05
4.83207e-05
4.83209e-05
4.83212e-05
4.83216e-05
4.83225e-05
4.83239e-05
4.83264e-05
4.83306e-05
4.83376e-05
4.83493e-05
4.83687e-05
4.84006e-05
4.84522e-05
4.85339e-05
4.866e-05
4.88422e-05
4.91029e-05
5.00962e-05
4.96058e-05
4.9157e-05
4.87453e-05
4.83686e-05
4.80284e-05
4.77306e-05
4.74853e-05
4.73046e-05
4.71994e-05
4.71744e-05
4.72253e-05
4.73377e-05
4.749e-05
4.76582e-05
4.7821e-05
4.79635e-05
4.80782e-05
4.81641e-05
4.82243e-05
4.82642e-05
4.82892e-05
4.8304e-05
4.83123e-05
4.83168e-05
4.8319e-05
4.832e-05
4.83204e-05
4.83206e-05
4.83206e-05
4.83206e-05
4.83206e-05
4.83206e-05
4.83206e-05
4.83206e-05
4.83206e-05
4.83206e-05
4.83206e-05
4.83206e-05
4.83206e-05
4.83206e-05
4.83206e-05
4.83206e-05
4.83207e-05
4.83209e-05
4.83211e-05
4.83216e-05
4.83225e-05
4.83239e-05
4.83263e-05
4.83305e-05
4.83374e-05
4.83491e-05
4.83683e-05
4.83997e-05
4.84503e-05
4.85297e-05
4.86506e-05
4.88231e-05
4.90635e-05
5.00962e-05
4.96058e-05
4.9157e-05
4.87452e-05
4.83685e-05
4.80283e-05
4.77305e-05
4.74851e-05
4.73045e-05
4.71993e-05
4.71744e-05
4.72253e-05
4.73377e-05
4.74901e-05
4.76583e-05
4.78211e-05
4.79636e-05
4.80783e-05
4.81641e-05
4.82244e-05
4.82642e-05
4.82892e-05
4.8304e-05
4.83123e-05
4.83168e-05
4.8319e-05
4.832e-05
4.83204e-05
4.83206e-05
4.83206e-05
4.83206e-05
4.83206e-05
4.83206e-05
4.83206e-05
4.83206e-05
4.83206e-05
4.83206e-05
4.83206e-05
4.83206e-05
4.83206e-05
4.83206e-05
4.83206e-05
4.83206e-05
4.83207e-05
4.83209e-05
4.83211e-05
4.83216e-05
4.83224e-05
4.83239e-05
4.83263e-05
4.83304e-05
4.83373e-05
4.83488e-05
4.83679e-05
4.83989e-05
4.84486e-05
4.85259e-05
4.86424e-05
4.88064e-05
4.90298e-05
5.00962e-05
4.96058e-05
4.9157e-05
4.87452e-05
4.83684e-05
4.80282e-05
4.77303e-05
4.7485e-05
4.73044e-05
4.71992e-05
4.71743e-05
4.72253e-05
4.73378e-05
4.74902e-05
4.76584e-05
4.78212e-05
4.79637e-05
4.80783e-05
4.81642e-05
4.82244e-05
4.82643e-05
4.82892e-05
4.8304e-05
4.83123e-05
4.83168e-05
4.8319e-05
4.832e-05
4.83204e-05
4.83206e-05
4.83206e-05
4.83206e-05
4.83206e-05
4.83206e-05
4.83206e-05
4.83206e-05
4.83206e-05
4.83206e-05
4.83206e-05
4.83206e-05
4.83206e-05
4.83206e-05
4.83206e-05
4.83206e-05
4.83207e-05
4.83208e-05
4.83211e-05
4.83216e-05
4.83224e-05
4.83238e-05
4.83262e-05
4.83303e-05
4.83372e-05
4.83487e-05
4.83675e-05
4.83982e-05
4.8447e-05
4.85225e-05
4.86351e-05
4.87919e-05
4.90012e-05
5.00962e-05
4.96058e-05
4.91569e-05
4.87451e-05
4.83683e-05
4.80281e-05
4.77303e-05
4.74849e-05
4.73043e-05
4.71992e-05
4.71743e-05
4.72253e-05
4.73379e-05
4.74903e-05
4.76585e-05
4.78213e-05
4.79638e-05
4.80784e-05
4.81642e-05
4.82244e-05
4.82643e-05
4.82892e-05
4.8304e-05
4.83123e-05
4.83168e-05
4.8319e-05
4.832e-05
4.83204e-05
4.83206e-05
4.83206e-05
4.83206e-05
4.83206e-05
4.83206e-05
4.83206e-05
4.83206e-05
4.83206e-05
4.83206e-05
4.83206e-05
4.83205e-05
4.83205e-05
4.83206e-05
4.83206e-05
4.83206e-05
4.83207e-05
4.83208e-05
4.83211e-05
4.83216e-05
4.83224e-05
4.83238e-05
4.83262e-05
4.83303e-05
4.83371e-05
4.83485e-05
4.83672e-05
4.83976e-05
4.84457e-05
4.85196e-05
4.86289e-05
4.87795e-05
4.8977e-05
5.00962e-05
4.96058e-05
4.91569e-05
4.87451e-05
4.83683e-05
4.8028e-05
4.77302e-05
4.74848e-05
4.73042e-05
4.71991e-05
4.71743e-05
4.72253e-05
4.73379e-05
4.74903e-05
4.76586e-05
4.78214e-05
4.79638e-05
4.80784e-05
4.81642e-05
4.82245e-05
4.82643e-05
4.82892e-05
4.8304e-05
4.83124e-05
4.83168e-05
4.8319e-05
4.832e-05
4.83205e-05
4.83206e-05
4.83206e-05
4.83206e-05
4.83206e-05
4.83206e-05
4.83206e-05
4.83206e-05
4.83206e-05
4.83206e-05
4.83206e-05
4.83205e-05
4.83205e-05
4.83205e-05
4.83206e-05
4.83206e-05
4.83207e-05
4.83208e-05
4.83211e-05
4.83215e-05
4.83224e-05
4.83238e-05
4.83262e-05
4.83302e-05
4.8337e-05
4.83483e-05
4.83669e-05
4.8397e-05
4.84445e-05
4.85171e-05
4.86236e-05
4.87691e-05
4.89569e-05
5.00962e-05
4.96058e-05
4.91569e-05
4.87451e-05
4.83683e-05
4.8028e-05
4.77301e-05
4.74848e-05
4.73042e-05
4.71991e-05
4.71743e-05
4.72254e-05
4.73379e-05
4.74904e-05
4.76586e-05
4.78214e-05
4.79639e-05
4.80785e-05
4.81643e-05
4.82245e-05
4.82643e-05
4.82892e-05
4.8304e-05
4.83124e-05
4.83168e-05
4.8319e-05
4.832e-05
4.83205e-05
4.83206e-05
4.83206e-05
4.83206e-05
4.83206e-05
4.83206e-05
4.83206e-05
4.83206e-05
4.83206e-05
4.83206e-05
4.83205e-05
4.83205e-05
4.83205e-05
4.83205e-05
4.83206e-05
4.83206e-05
4.83207e-05
4.83208e-05
4.83211e-05
4.83215e-05
4.83223e-05
4.83237e-05
4.83261e-05
4.83302e-05
4.83369e-05
4.83482e-05
4.83667e-05
4.83965e-05
4.84435e-05
4.85151e-05
4.86193e-05
4.87605e-05
4.89405e-05
5.00962e-05
4.96058e-05
4.91569e-05
4.87451e-05
4.83682e-05
4.80279e-05
4.77301e-05
4.74847e-05
4.73041e-05
4.7199e-05
4.71743e-05
4.72254e-05
4.7338e-05
4.74904e-05
4.76587e-05
4.78215e-05
4.79639e-05
4.80785e-05
4.81643e-05
4.82245e-05
4.82643e-05
4.82892e-05
4.8304e-05
4.83124e-05
4.83168e-05
4.8319e-05
4.832e-05
4.83205e-05
4.83206e-05
4.83206e-05
4.83206e-05
4.83206e-05
4.83206e-05
4.83206e-05
4.83206e-05
4.83206e-05
4.83206e-05
4.83205e-05
4.83205e-05
4.83205e-05
4.83205e-05
4.83206e-05
4.83206e-05
4.83207e-05
4.83208e-05
4.83211e-05
4.83215e-05
4.83223e-05
4.83237e-05
4.83261e-05
4.83301e-05
4.83369e-05
4.83481e-05
4.83665e-05
4.83962e-05
4.84428e-05
4.85134e-05
4.86159e-05
4.87538e-05
4.89275e-05
5.00962e-05
4.96058e-05
4.91569e-05
4.8745e-05
4.83682e-05
4.80279e-05
4.773e-05
4.74847e-05
4.73041e-05
4.7199e-05
4.71743e-05
4.72254e-05
4.7338e-05
4.74905e-05
4.76587e-05
4.78215e-05
4.79639e-05
4.80785e-05
4.81643e-05
4.82245e-05
4.82643e-05
4.82892e-05
4.8304e-05
4.83124e-05
4.83168e-05
4.8319e-05
4.832e-05
4.83205e-05
4.83206e-05
4.83206e-05
4.83206e-05
4.83206e-05
4.83206e-05
4.83206e-05
4.83206e-05
4.83206e-05
4.83206e-05
4.83205e-05
4.83205e-05
4.83205e-05
4.83205e-05
4.83206e-05
4.83206e-05
4.83207e-05
4.83208e-05
4.8321e-05
4.83215e-05
4.83223e-05
4.83237e-05
4.83261e-05
4.83301e-05
4.83368e-05
4.8348e-05
4.83664e-05
4.83959e-05
4.84422e-05
4.85122e-05
4.86134e-05
4.87488e-05
4.89177e-05
5.00962e-05
4.96058e-05
4.91569e-05
4.8745e-05
4.83682e-05
4.80279e-05
4.773e-05
4.74847e-05
4.73041e-05
4.7199e-05
4.71743e-05
4.72254e-05
4.7338e-05
4.74905e-05
4.76587e-05
4.78215e-05
4.79639e-05
4.80785e-05
4.81643e-05
4.82245e-05
4.82643e-05
4.82892e-05
4.8304e-05
4.83124e-05
4.83168e-05
4.8319e-05
4.832e-05
4.83204e-05
4.83206e-05
4.83206e-05
4.83206e-05
4.83206e-05
4.83206e-05
4.83206e-05
4.83206e-05
4.83206e-05
4.83206e-05
4.83205e-05
4.83205e-05
4.83205e-05
4.83205e-05
4.83206e-05
4.83206e-05
4.83207e-05
4.83208e-05
4.8321e-05
4.83215e-05
4.83223e-05
4.83237e-05
4.8326e-05
4.833e-05
4.83368e-05
4.8348e-05
4.83663e-05
4.83957e-05
4.84418e-05
4.85115e-05
4.86118e-05
4.87455e-05
4.8911e-05
5.00962e-05
4.96058e-05
4.91569e-05
4.8745e-05
4.83682e-05
4.80279e-05
4.773e-05
4.74847e-05
4.73041e-05
4.7199e-05
4.71742e-05
4.72253e-05
4.73379e-05
4.74904e-05
4.76586e-05
4.78214e-05
4.79638e-05
4.80784e-05
4.81642e-05
4.82244e-05
4.82642e-05
4.82892e-05
4.8304e-05
4.83123e-05
4.83168e-05
4.8319e-05
4.832e-05
4.83204e-05
4.83206e-05
4.83206e-05
4.83206e-05
4.83206e-05
4.83206e-05
4.83206e-05
4.83206e-05
4.83206e-05
4.83206e-05
4.83205e-05
4.83205e-05
4.83205e-05
4.83205e-05
4.83205e-05
4.83206e-05
4.83207e-05
4.83208e-05
4.8321e-05
4.83215e-05
4.83223e-05
4.83237e-05
4.8326e-05
4.833e-05
4.83367e-05
4.83479e-05
4.83662e-05
4.83956e-05
4.84417e-05
4.85112e-05
4.86111e-05
4.87438e-05
4.89073e-05
5.00962e-05
4.96058e-05
4.91569e-05
4.8745e-05
4.83682e-05
4.80279e-05
4.773e-05
4.74847e-05
4.73041e-05
4.7199e-05
4.71742e-05
4.72253e-05
4.73378e-05
4.74902e-05
4.76584e-05
4.78212e-05
4.79636e-05
4.80782e-05
4.8164e-05
4.82243e-05
4.82642e-05
4.82891e-05
4.8304e-05
4.83123e-05
4.83168e-05
4.8319e-05
4.832e-05
4.83204e-05
4.83206e-05
4.83206e-05
4.83206e-05
4.83206e-05
4.83206e-05
4.83206e-05
4.83206e-05
4.83206e-05
4.83206e-05
4.83205e-05
4.83205e-05
4.83205e-05
4.83205e-05
4.83205e-05
4.83206e-05
4.83206e-05
4.83208e-05
4.8321e-05
4.83215e-05
4.83223e-05
4.83236e-05
4.8326e-05
4.833e-05
4.83367e-05
4.83479e-05
4.83662e-05
4.83956e-05
4.84417e-05
4.85113e-05
4.86112e-05
4.87439e-05
4.89066e-05
5.00962e-05
4.96058e-05
4.91569e-05
4.87451e-05
4.83682e-05
4.80279e-05
4.77301e-05
4.74847e-05
4.73041e-05
4.7199e-05
4.71742e-05
4.72252e-05
4.73377e-05
4.74901e-05
4.76583e-05
4.7821e-05
4.79634e-05
4.8078e-05
4.81639e-05
4.82242e-05
4.82641e-05
4.82891e-05
4.83039e-05
4.83123e-05
4.83167e-05
4.8319e-05
4.832e-05
4.83204e-05
4.83206e-05
4.83206e-05
4.83206e-05
4.83206e-05
4.83206e-05
4.83206e-05
4.83206e-05
4.83206e-05
4.83206e-05
4.83205e-05
4.83205e-05
4.83205e-05
4.83205e-05
4.83205e-05
4.83206e-05
4.83206e-05
4.83208e-05
4.8321e-05
4.83215e-05
4.83223e-05
4.83236e-05
4.8326e-05
4.833e-05
4.83367e-05
4.83479e-05
4.83662e-05
4.83957e-05
4.8442e-05
4.85119e-05
4.86123e-05
4.87456e-05
4.89089e-05
5.00962e-05
4.96058e-05
4.91569e-05
4.87451e-05
4.83683e-05
4.8028e-05
4.77301e-05
4.74847e-05
4.73041e-05
4.7199e-05
4.71741e-05
4.72251e-05
4.73376e-05
4.74899e-05
4.76581e-05
4.78208e-05
4.79632e-05
4.80779e-05
4.81637e-05
4.8224e-05
4.8264e-05
4.8289e-05
4.83039e-05
4.83122e-05
4.83167e-05
4.8319e-05
4.832e-05
4.83204e-05
4.83206e-05
4.83206e-05
4.83206e-05
4.83206e-05
4.83206e-05
4.83206e-05
4.83206e-05
4.83206e-05
4.83206e-05
4.83205e-05
4.83205e-05
4.83205e-05
4.83205e-05
4.83205e-05
4.83206e-05
4.83206e-05
4.83208e-05
4.8321e-05
4.83215e-05
4.83223e-05
4.83236e-05
4.8326e-05
4.833e-05
4.83367e-05
4.83479e-05
4.83663e-05
4.83959e-05
4.84424e-05
4.85129e-05
4.86144e-05
4.87491e-05
4.89143e-05
5.00962e-05
4.96058e-05
4.91569e-05
4.87451e-05
4.83683e-05
4.8028e-05
4.77302e-05
4.74848e-05
4.73042e-05
4.7199e-05
4.71741e-05
4.7225e-05
4.73374e-05
4.74897e-05
4.76579e-05
4.78206e-05
4.7963e-05
4.80777e-05
4.81636e-05
4.82239e-05
4.82639e-05
4.82889e-05
4.83038e-05
4.83122e-05
4.83167e-05
4.83189e-05
4.832e-05
4.83204e-05
4.83206e-05
4.83206e-05
4.83206e-05
4.83206e-05
4.83206e-05
4.83206e-05
4.83206e-05
4.83206e-05
4.83206e-05
4.83205e-05
4.83205e-05
4.83205e-05
4.83205e-05
4.83205e-05
4.83206e-05
4.83206e-05
4.83208e-05
4.8321e-05
4.83215e-05
4.83223e-05
4.83236e-05
4.8326e-05
4.833e-05
4.83367e-05
4.8348e-05
4.83664e-05
4.83962e-05
4.84431e-05
4.85144e-05
4.86174e-05
4.87544e-05
4.89229e-05
5.00962e-05
4.96058e-05
4.91569e-05
4.87451e-05
4.83683e-05
4.80281e-05
4.77302e-05
4.74849e-05
4.73042e-05
4.7199e-05
4.71741e-05
4.7225e-05
4.73373e-05
4.74895e-05
4.76576e-05
4.78203e-05
4.79628e-05
4.80775e-05
4.81634e-05
4.82238e-05
4.82638e-05
4.82888e-05
4.83038e-05
4.83122e-05
4.83167e-05
4.83189e-05
4.832e-05
4.83204e-05
4.83206e-05
4.83206e-05
4.83206e-05
4.83206e-05
4.83206e-05
4.83206e-05
4.83206e-05
4.83206e-05
4.83206e-05
4.83205e-05
4.83205e-05
4.83205e-05
4.83205e-05
4.83205e-05
4.83206e-05
4.83206e-05
4.83208e-05
4.8321e-05
4.83215e-05
4.83223e-05
4.83236e-05
4.8326e-05
4.833e-05
4.83368e-05
4.8348e-05
4.83666e-05
4.83966e-05
4.8444e-05
4.85163e-05
4.86214e-05
4.87616e-05
4.89351e-05
5.00962e-05
4.96058e-05
4.9157e-05
4.87452e-05
4.83684e-05
4.80282e-05
4.77303e-05
4.7485e-05
4.73043e-05
4.71991e-05
4.71741e-05
4.72249e-05
4.73372e-05
4.74893e-05
4.76574e-05
4.78201e-05
4.79625e-05
4.80772e-05
4.81632e-05
4.82236e-05
4.82637e-05
4.82888e-05
4.83037e-05
4.83121e-05
4.83166e-05
4.83189e-05
4.832e-05
4.83204e-05
4.83206e-05
4.83206e-05
4.83206e-05
4.83206e-05
4.83206e-05
4.83206e-05
4.83206e-05
4.83206e-05
4.83206e-05
4.83205e-05
4.83205e-05
4.83205e-05
4.83205e-05
4.83205e-05
4.83206e-05
4.83206e-05
4.83208e-05
4.8321e-05
4.83215e-05
4.83223e-05
4.83237e-05
4.8326e-05
4.833e-05
4.83368e-05
4.83481e-05
4.83668e-05
4.8397e-05
4.84451e-05
4.85187e-05
4.86264e-05
4.87708e-05
4.89511e-05
5.00962e-05
4.96058e-05
4.9157e-05
4.87452e-05
4.83685e-05
4.80283e-05
4.77305e-05
4.74851e-05
4.73044e-05
4.71991e-05
4.71741e-05
4.72248e-05
4.7337e-05
4.74891e-05
4.76571e-05
4.78198e-05
4.79623e-05
4.8077e-05
4.8163e-05
4.82235e-05
4.82636e-05
4.82887e-05
4.83037e-05
4.83121e-05
4.83166e-05
4.83189e-05
4.832e-05
4.83204e-05
4.83206e-05
4.83206e-05
4.83206e-05
4.83206e-05
4.83206e-05
4.83206e-05
4.83206e-05
4.83206e-05
4.83206e-05
4.83205e-05
4.83205e-05
4.83205e-05
4.83205e-05
4.83206e-05
4.83206e-05
4.83207e-05
4.83208e-05
4.8321e-05
4.83215e-05
4.83223e-05
4.83237e-05
4.8326e-05
4.83301e-05
4.83369e-05
4.83482e-05
4.8367e-05
4.83976e-05
4.84464e-05
4.85216e-05
4.86326e-05
4.87821e-05
4.89713e-05
5.00962e-05
4.96058e-05
4.9157e-05
4.87453e-05
4.83686e-05
4.80284e-05
4.77306e-05
4.74852e-05
4.73045e-05
4.71992e-05
4.71741e-05
4.72247e-05
4.73369e-05
4.74889e-05
4.76569e-05
4.78196e-05
4.7962e-05
4.80768e-05
4.81629e-05
4.82234e-05
4.82635e-05
4.82886e-05
4.83036e-05
4.83121e-05
4.83166e-05
4.83189e-05
4.832e-05
4.83204e-05
4.83206e-05
4.83206e-05
4.83206e-05
4.83206e-05
4.83206e-05
4.83206e-05
4.83206e-05
4.83206e-05
4.83206e-05
4.83205e-05
4.83205e-05
4.83205e-05
4.83205e-05
4.83206e-05
4.83206e-05
4.83207e-05
4.83208e-05
4.8321e-05
4.83215e-05
4.83223e-05
4.83237e-05
4.83261e-05
4.83301e-05
4.83369e-05
4.83483e-05
4.83673e-05
4.83982e-05
4.8448e-05
4.8525e-05
4.86399e-05
4.87958e-05
4.89964e-05
5.00962e-05
4.96058e-05
4.9157e-05
4.87453e-05
4.83687e-05
4.80285e-05
4.77308e-05
4.74854e-05
4.73047e-05
4.71993e-05
4.71741e-05
4.72246e-05
4.73367e-05
4.74887e-05
4.76566e-05
4.78193e-05
4.79618e-05
4.80766e-05
4.81627e-05
4.82233e-05
4.82634e-05
4.82886e-05
4.83036e-05
4.83121e-05
4.83166e-05
4.83189e-05
4.832e-05
4.83204e-05
4.83206e-05
4.83206e-05
4.83206e-05
4.83206e-05
4.83206e-05
4.83206e-05
4.83206e-05
4.83206e-05
4.83206e-05
4.83205e-05
4.83205e-05
4.83205e-05
4.83205e-05
4.83206e-05
4.83206e-05
4.83207e-05
4.83208e-05
4.83211e-05
4.83215e-05
4.83223e-05
4.83237e-05
4.83261e-05
4.83301e-05
4.8337e-05
4.83485e-05
4.83676e-05
4.8399e-05
4.84497e-05
4.85289e-05
4.86485e-05
4.88119e-05
4.90271e-05
5.00962e-05
4.96058e-05
4.91571e-05
4.87454e-05
4.83688e-05
4.80287e-05
4.77309e-05
4.74856e-05
4.73048e-05
4.71994e-05
4.71741e-05
4.72246e-05
4.73365e-05
4.74884e-05
4.76563e-05
4.7819e-05
4.79615e-05
4.80764e-05
4.81625e-05
4.82231e-05
4.82633e-05
4.82885e-05
4.83036e-05
4.8312e-05
4.83166e-05
4.83189e-05
4.83199e-05
4.83204e-05
4.83206e-05
4.83206e-05
4.83206e-05
4.83206e-05
4.83206e-05
4.83206e-05
4.83206e-05
4.83206e-05
4.83206e-05
4.83205e-05
4.83205e-05
4.83205e-05
4.83205e-05
4.83206e-05
4.83206e-05
4.83207e-05
4.83208e-05
4.83211e-05
4.83215e-05
4.83223e-05
4.83237e-05
4.83261e-05
4.83302e-05
4.83371e-05
4.83486e-05
4.83679e-05
4.83998e-05
4.84516e-05
4.85333e-05
4.86585e-05
4.88309e-05
4.90643e-05
5.00962e-05
4.96059e-05
4.91571e-05
4.87455e-05
4.8369e-05
4.80289e-05
4.77312e-05
4.74858e-05
4.7305e-05
4.71995e-05
4.71741e-05
4.72245e-05
4.73363e-05
4.74881e-05
4.7656e-05
4.78187e-05
4.79612e-05
4.80762e-05
4.81624e-05
4.8223e-05
4.82632e-05
4.82885e-05
4.83035e-05
4.8312e-05
4.83166e-05
4.83189e-05
4.83199e-05
4.83204e-05
4.83206e-05
4.83206e-05
4.83206e-05
4.83206e-05
4.83206e-05
4.83206e-05
4.83206e-05
4.83206e-05
4.83206e-05
4.83205e-05
4.83205e-05
4.83205e-05
4.83205e-05
4.83206e-05
4.83206e-05
4.83207e-05
4.83208e-05
4.83211e-05
4.83215e-05
4.83223e-05
4.83237e-05
4.83261e-05
4.83302e-05
4.83372e-05
4.83488e-05
4.83683e-05
4.84006e-05
4.84537e-05
4.85382e-05
4.86698e-05
4.88528e-05
4.91095e-05
5.00962e-05
4.96059e-05
4.91572e-05
4.87457e-05
4.83691e-05
4.80291e-05
4.77314e-05
4.74861e-05
4.73053e-05
4.71997e-05
4.71742e-05
4.72244e-05
4.73361e-05
4.74879e-05
4.76557e-05
4.78184e-05
4.7961e-05
4.80759e-05
4.81622e-05
4.82229e-05
4.82632e-05
4.82884e-05
4.83035e-05
4.8312e-05
4.83166e-05
4.83189e-05
4.83199e-05
4.83204e-05
4.83206e-05
4.83206e-05
4.83206e-05
4.83206e-05
4.83206e-05
4.83206e-05
4.83206e-05
4.83206e-05
4.83206e-05
4.83206e-05
4.83205e-05
4.83205e-05
4.83206e-05
4.83206e-05
4.83206e-05
4.83207e-05
4.83208e-05
4.83211e-05
4.83215e-05
4.83224e-05
4.83238e-05
4.83262e-05
4.83303e-05
4.83372e-05
4.8349e-05
4.83687e-05
4.84016e-05
4.8456e-05
4.85436e-05
4.86828e-05
4.88781e-05
4.91644e-05
5.00962e-05
4.96059e-05
4.91573e-05
4.87458e-05
4.83694e-05
4.80294e-05
4.77318e-05
4.74864e-05
4.73056e-05
4.71999e-05
4.71743e-05
4.72243e-05
4.73359e-05
4.74876e-05
4.76554e-05
4.7818e-05
4.79607e-05
4.80757e-05
4.81621e-05
4.82228e-05
4.82631e-05
4.82884e-05
4.83035e-05
4.8312e-05
4.83166e-05
4.83189e-05
4.83199e-05
4.83204e-05
4.83206e-05
4.83206e-05
4.83206e-05
4.83206e-05
4.83206e-05
4.83206e-05
4.83206e-05
4.83206e-05
4.83206e-05
4.83206e-05
4.83205e-05
4.83205e-05
4.83206e-05
4.83206e-05
4.83206e-05
4.83207e-05
4.83208e-05
4.83211e-05
4.83216e-05
4.83224e-05
4.83238e-05
4.83262e-05
4.83304e-05
4.83374e-05
4.83492e-05
4.83691e-05
4.84026e-05
4.84585e-05
4.85495e-05
4.86975e-05
4.89072e-05
4.92313e-05
5.00962e-05
4.96059e-05
4.91574e-05
4.8746e-05
4.83696e-05
4.80297e-05
4.77321e-05
4.74868e-05
4.73059e-05
4.72001e-05
4.71744e-05
4.72243e-05
4.73357e-05
4.74873e-05
4.7655e-05
4.78177e-05
4.79604e-05
4.80755e-05
4.81619e-05
4.82227e-05
4.8263e-05
4.82884e-05
4.83035e-05
4.8312e-05
4.83166e-05
4.83189e-05
4.83199e-05
4.83204e-05
4.83206e-05
4.83206e-05
4.83206e-05
4.83206e-05
4.83206e-05
4.83206e-05
4.83206e-05
4.83206e-05
4.83206e-05
4.83206e-05
4.83206e-05
4.83206e-05
4.83206e-05
4.83206e-05
4.83206e-05
4.83207e-05
4.83208e-05
4.83211e-05
4.83216e-05
4.83224e-05
4.83238e-05
4.83263e-05
4.83304e-05
4.83375e-05
4.83494e-05
4.83696e-05
4.84036e-05
4.84611e-05
4.85559e-05
4.8714e-05
4.89406e-05
4.93135e-05
5.00962e-05
4.9606e-05
4.91575e-05
4.87462e-05
4.83699e-05
4.80301e-05
4.77326e-05
4.74873e-05
4.73063e-05
4.72004e-05
4.71745e-05
4.72242e-05
4.73355e-05
4.74869e-05
4.76546e-05
4.78173e-05
4.79601e-05
4.80753e-05
4.81617e-05
4.82226e-05
4.8263e-05
4.82883e-05
4.83034e-05
4.8312e-05
4.83165e-05
4.83188e-05
4.83199e-05
4.83204e-05
4.83206e-05
4.83206e-05
4.83206e-05
4.83206e-05
4.83206e-05
4.83206e-05
4.83206e-05
4.83206e-05
4.83205e-05
4.83205e-05
4.83205e-05
4.83205e-05
4.83205e-05
4.83206e-05
4.83206e-05
4.83207e-05
4.83208e-05
4.83211e-05
4.83216e-05
4.83224e-05
4.83239e-05
4.83263e-05
4.83305e-05
4.83376e-05