/*--------------------------------*- C++ -*----------------------------------*\
| =========                 |                                                 |
| \\      /  F ield         | OpenFOAM: The Open Source CFD Toolbox           |
|  \\    /   O peration     | Version:  2.4.0                                 |
|   \\  /    A nd           | Web:      www.OpenFOAM.org                      |
|    \\/     M anipulation  |                                                 |
\*---------------------------------------------------------------------------*/
FoamFile
{
    version     2.0;
    format      ascii;
    class       volScalarField;
    location    "7.32";
    object      k;
}
// * * * * * * * * * * * * * * * * * * * * * * * * * * * * * * * * * * * * * //

dimensions      [0 2 -2 0 0 0 0];

internalField   nonuniform List<scalar> 
6000
(
0.168224
0.0132714
0.000978365
0.00362168
0.00250563
0.00292586
0.0024211
0.00239026
0.00212333
0.00204712
0.00191112
0.00186946
0.00182697
0.0018415
0.001875
0.00194879
0.00204755
0.00217936
0.00233829
0.0025275
0.00274459
0.00299015
0.00326213
0.00355883
0.00387669
0.0042116
0.00455817
0.00491002
0.00525913
0.00559595
0.00590952
0.00618744
0.00641629
0.00658188
0.00666909
0.00666402
0.00655453
0.00633009
0.00598596
0.00552193
0.0049527
0.00430134
0.00362155
0.00293724
0.00385319
0.00511569
0.00662695
0.00853321
0.0106592
0.0133922
0.0161245
0.0200355
0.023211
0.0292243
0.0322046
0.0428515
0.043505
0.065909
0.0587377
0.110147
0.0762046
0.0101514
0.00094439
0.00240534
0.00171405
0.00192193
0.00160818
0.00156856
0.00140036
0.00134331
0.00125664
0.00122586
0.00119791
0.00120418
0.0012235
0.0012669
0.00132579
0.00140399
0.00149807
0.00160929
0.00173611
0.00187856
0.00203537
0.00220552
0.00238719
0.00257841
0.00277675
0.00297947
0.00318325
0.00338427
0.00357827
0.00376058
0.0039263
0.00407021
0.00418705
0.00427215
0.00432187
0.00433359
0.00430751
0.00424649
0.00416044
0.00406363
0.0039797
0.00389194
0.00434165
0.00490747
0.00557053
0.00639781
0.00732576
0.00851443
0.0097275
0.0114387
0.012903
0.0155299
0.0170486
0.0216309
0.0224779
0.0318849
0.030116
0.0510393
0.0412217
0.00803011
0.00097324
0.00168811
0.00122335
0.0013129
0.00110708
0.00106674
0.000956781
0.000914448
0.000858815
0.00083824
0.000822583
0.000829139
0.000845983
0.000878954
0.000923289
0.000980927
0.00105004
0.0011313
0.00122397
0.00132816
0.00144335
0.0015692
0.00170501
0.00185009
0.0020036
0.00216468
0.00233227
0.00250521
0.00268233
0.00286245
0.00304452
0.00322742
0.00341004
0.00359186
0.00377325
0.00395547
0.00414139
0.00433555
0.00454542
0.00477901
0.0050398
0.00527015
0.00554701
0.00580987
0.00608005
0.00639451
0.00674529
0.0071987
0.00767953
0.00837141
0.00900484
0.0101235
0.0108743
0.0128733
0.0135235
0.0176165
0.0175154
0.0264332
0.0260623
0.00677426
0.0010706
0.0012668
0.000916186
0.000934283
0.000789841
0.000751108
0.000676431
0.000645255
0.000610106
0.000598703
0.000593683
0.000604713
0.000625064
0.000657953
0.000700882
0.000755043
0.000819714
0.000895527
0.000982466
0.00108095
0.00119116
0.00131334
0.00144763
0.0015942
0.0017532
0.00192484
0.00210928
0.00230672
0.00251743
0.00274184
0.00298054
0.00323367
0.00350112
0.00378378
0.00408288
0.00440016
0.00473806
0.00509962
0.00548835
0.00590571
0.00634186
0.00671827
0.00698622
0.00717548
0.00731586
0.00742822
0.00752675
0.007638
0.00775653
0.00794551
0.00813489
0.00851274
0.00880413
0.00958897
0.00995584
0.0116886
0.0119676
0.015879
0.0187963
0.00609219
0.00123203
0.00103246
0.000726693
0.000696144
0.000585648
0.000548372
0.000495409
0.000472687
0.000451771
0.000448686
0.000453342
0.000471217
0.00049859
0.0005374
0.000586565
0.000647098
0.000719088
0.000803404
0.000900637
0.00101164
0.00113714
0.00127794
0.00143477
0.00160837
0.00179947
0.00200883
0.00223719
0.00248523
0.00275369
0.00304333
0.003355
0.00368733
0.00404046
0.00441472
0.00481038
0.00522785
0.00566772
0.00613068
0.00661729
0.00712547
0.00763905
0.00807994
0.00839789
0.00861653
0.00876126
0.00884176
0.00887547
0.00886922
0.008842
0.00880613
0.00877144
0.00878032
0.00879329
0.00896743
0.00907738
0.00967816
0.00990502
0.0116475
0.015049
0.00576629
0.00144805
0.000925002
0.000616969
0.000547556
0.000453854
0.000416795
0.000377171
0.000360864
0.000350404
0.00035507
0.000368976
0.000395286
0.000432065
0.000480679
0.000540985
0.00061409
0.00070071
0.000802041
0.000919177
0.00105336
0.00120575
0.00137751
0.0015697
0.00178333
0.00201932
0.00227855
0.00256175
0.00286951
0.0032023
0.00356045
0.00394366
0.00434876
0.00477574
0.00522379
0.0056919
0.00617907
0.00668443
0.00720722
0.00774688
0.00830049
0.00884777
0.00932316
0.00969646
0.00996949
0.010162
0.0102773
0.0103315
0.0103211
0.0102709
0.0101702
0.0100564
0.00991115
0.00978549
0.0096644
0.00959661
0.00963747
0.00971351
0.010494
0.0130163
0.00565589
0.00170744
0.00090982
0.000565118
0.000458952
0.000370453
0.000331858
0.000300125
0.000288663
0.000286319
0.000298411
0.000321491
0.000357432
0.000405376
0.000466473
0.000541221
0.000630921
0.000736762
0.000860238
0.0010028
0.00116597
0.00135113
0.0015596
0.00179251
0.00205084
0.00233542
0.00264693
0.00298578
0.00335212
0.00374586
0.00416667
0.00461206
0.00507856
0.00556556
0.00607128
0.00659372
0.00713094
0.00768121
0.00824305
0.00881572
0.00939614
0.00995985
0.0104589
0.0108767
0.011199
0.0114411
0.0116026
0.0116991
0.011722
0.0116979
0.0116053
0.0114913
0.0113103
0.0111469
0.0109133
0.0107639
0.0105494
0.0105116
0.0108634
0.011878
0.00567207
0.00199804
0.000965341
0.000558985
0.000412977
0.000320994
0.0002788
0.000251167
0.000243271
0.000247534
0.000266868
0.000299225
0.000345724
0.00040614
0.00048156
0.00057291
0.000681677
0.000809369
0.000957694
0.00112831
0.00132285
0.00154278
0.00178939
0.00206372
0.00236657
0.00269852
0.00305993
0.00345081
0.00387079
0.0043192
0.00479509
0.00529324
0.00581149
0.00634817
0.00690075
0.00746654
0.00804293
0.00862766
0.00921886
0.00981593
0.0104144
0.0109881
0.0115051
0.0119547
0.0123142
0.0125952
0.0127954
0.0129302
0.0129888
0.0129992
0.0129348
0.0128481
0.0126802
0.0125313
0.0122793
0.0121223
0.0118207
0.0117441
0.0119071
0.0112304
0.00575859
0.00230721
0.00107758
0.00059082
0.000399571
0.000296738
0.0002486
0.000222182
0.000216724
0.000226531
0.000252973
0.000294749
0.000352484
0.000426279
0.000517195
0.000626403
0.000755528
0.000906259
0.00108043
0.00127978
0.00150598
0.00176047
0.00204443
0.00235876
0.00270403
0.00308054
0.00348831
0.00392693
0.00439556
0.00489299
0.0054171
0.00596164
0.00652489
0.00710441
0.00769706
0.00829961
0.00890892
0.00952237
0.0101378
0.0107549
0.0113656
0.0119467
0.0124769
0.0129476
0.0133324
0.0136406
0.0138682
0.014031
0.0141168
0.0141555
0.0141176
0.0140599
0.0139165
0.0137979
0.0135636
0.013436
0.0131285
0.0130724
0.0131503
0.0108621
0.00587999
0.00262248
0.0012355
0.000655839
0.000413269
0.00029251
0.000235747
0.000208098
0.00020398
0.000218476
0.000251861
0.000303141
0.000372543
0.000460263
0.000567303
0.000694945
0.000844884
0.0010189
0.0012189
0.00144666
0.00170384
0.00199182
0.00231168
0.00266414
0.00304952
0.00346782
0.00391877
0.00440154
0.00491485
0.00545703
0.00602433
0.0066107
0.00721427
0.00783195
0.00846008
0.00909498
0.00973305
0.0103714
0.0110076
0.0116413
0.0122597
0.0128464
0.0133857
0.0138689
0.0142692
0.0145943
0.014839
0.0150195
0.015123
0.0151806
0.0151616
0.0151261
0.0150043
0.0149146
0.0147056
0.014617
0.0143336
0.0143268
0.0143589
0.010657
0.00601446
0.00293241
0.00142895
0.000750658
0.000451381
0.000305474
0.000236968
0.000205774
0.000201833
0.000220212
0.000260283
0.000321043
0.000402313
0.000504206
0.000627607
0.000773808
0.000944537
0.00114162
0.00136701
0.00162252
0.00190978
0.00223011
0.00258447
0.00297337
0.00339691
0.00385479
0.00434638
0.00487052
0.00542547
0.00600927
0.00661591
0.00724072
0.00788111
0.00853343
0.00919355
0.00985739
0.010521
0.0111812
0.0118354
0.0124817
0.0131048
0.0136951
0.0142396
0.0147283
0.0151364
0.01547
0.0157235
0.0159131
0.0160259
0.0160939
0.0160859
0.0160644
0.0159577
0.0158902
0.0157034
0.0156513
0.0153975
0.0154464
0.015445
0.0105489
0.0061491
0.00322743
0.00164781
0.000872882
0.000512016
0.00033442
0.000250492
0.000213354
0.000208285
0.000229684
0.000276055
0.000346139
0.000439293
0.000555395
0.000695159
0.000859822
0.00105112
0.00127091
0.0015212
0.00180381
0.00212035
0.00247208
0.00285981
0.00328383
0.00374398
0.00423965
0.0047699
0.0053332
0.0059274
0.00654989
0.00719325
0.00785374
0.00852809
0.00921212
0.00990129
0.0105912
0.0112774
0.0119567
0.0126263
0.0132805
0.0139065
0.0144982
0.0150439
0.0155327
0.0159424
0.016278
0.0165336
0.0167254
0.0168407
0.016912
0.0169083
0.0168939
0.0167957
0.0167434
0.0165731
0.0165509
0.0163233
0.0164241
0.0163915
0.0104986
0.00627688
0.00350042
0.00188192
0.00101971
0.000593774
0.000379371
0.000275617
0.00022989
0.000222177
0.000245603
0.000297742
0.000376865
0.000481779
0.000612006
0.000768032
0.000950993
0.00116262
0.00140481
0.00167958
0.00198879
0.00233402
0.0027164
0.00313659
0.00359467
0.00409017
0.00462217
0.00518942
0.00579005
0.00642149
0.00708009
0.00775801
0.00845177
0.00915753
0.00987067
0.0105862
0.0112995
0.0120057
0.0127015
0.0133831
0.0140413
0.0146685
0.0152591
0.0158024
0.016287
0.0166931
0.0170254
0.0172778
0.0174663
0.0175788
0.017648
0.0176433
0.0176301
0.0175353
0.0174918
0.0173325
0.0173335
0.0171265
0.0172721
0.0172077
0.0104827
0.00639444
0.00374686
0.00212138
0.00118743
0.000695781
0.000440441
0.000312442
0.000255102
0.000242966
0.000267246
0.000324457
0.000412215
0.000528675
0.000672887
0.000845057
0.00104618
0.00127797
0.00154231
0.00184128
0.00217673
0.00255017
0.00296263
0.00341455
0.00390578
0.00443555
0.0050026
0.0056054
0.00624173
0.00690868
0.00760105
0.0083115
0.0090363
0.00977112
0.0105109
0.0112504
0.0119844
0.0127081
0.0134178
0.0141067
0.0147668
0.0153929
0.01598
0.0165177
0.0169943
0.0173927
0.0177174
0.0179622
0.0181432
0.0182486
0.0183113
0.0183014
0.0182851
0.0181893
0.0181497
0.0179969
0.0180151
0.0178234
0.0180061
0.0179093
0.010487
0.00650068
0.0039647
0.00235716
0.00137123
0.000817088
0.000517538
0.000361726
0.000289244
0.000270585
0.000294321
0.000355737
0.000451611
0.000579336
0.000737378
0.000925596
0.00114479
0.00139664
0.001683
0.00200599
0.00236741
0.00276869
0.00321071
0.00369373
0.00421729
0.00478035
0.00538127
0.00601826
0.00668878
0.00738963
0.00811354
0.00885455
0.00960824
0.0103699
0.0111339
0.0118948
0.0126471
0.0133856
0.0141059
0.0147982
0.0154581
0.016081
0.0166621
0.017191
0.0176565
0.0180439
0.0183573
0.0185911
0.018761
0.018856
0.0189088
0.0188905
0.0188675
0.0187675
0.018728
0.018578
0.0186088
0.0184277
0.0186407
0.0185114
0.0105025
0.00659577
0.00415389
0.00258163
0.00156529
0.000956038
0.000610609
0.000424314
0.000333018
0.000305363
0.000326888
0.000391446
0.000494794
0.000633447
0.000805158
0.00100936
0.00124659
0.00151847
0.00182679
0.00217365
0.00256082
0.00298962
0.00346076
0.00397425
0.00452937
0.00512475
0.0057584
0.00642827
0.0071315
0.00786429
0.00861794
0.00938757
0.010168
0.0109542
0.0117401
0.0125199
0.013288
0.0140389
0.0147651
0.0154584
0.0161159
0.0167333
0.0173058
0.0178233
0.0182749
0.0186482
0.0189475
0.0191674
0.0193234
0.0194052
0.0194455
0.0194163
0.0193838
0.0192772
0.0192347
0.0190848
0.0191241
0.0189504
0.0191874
0.0190262
0.0105238
0.0066805
0.00431592
0.00278895
0.0017632
0.00111
0.000719595
0.000500587
0.000387528
0.000347967
0.000365303
0.000431717
0.000541753
0.000690929
0.000876134
0.00109628
0.00135156
0.00164348
0.00197372
0.00234436
0.00275709
0.00321309
0.00371289
0.00425623
0.00484212
0.00546887
0.00613409
0.00683552
0.00756999
0.00833269
0.00911434
0.00991062
0.0107157
0.0115241
0.0123296
0.0131258
0.0139072
0.0146666
0.0153951
0.0160873
0.0167401
0.0173497
0.0179113
0.0184147
0.01885
0.0192067
0.0194894
0.0196928
0.0198327
0.0198992
0.0199248
0.0198827
0.0198388
0.0197236
0.0196757
0.0195239
0.0195686
0.0193996
0.0196553
0.0194635
0.0105474
0.00675592
0.00445328
0.00297525
0.00195843
0.0012753
0.000843803
0.000590834
0.000453878
0.000399379
0.000410192
0.00047691
0.000592669
0.000751873
0.000950364
0.00118643
0.00145978
0.00177177
0.00212392
0.00251825
0.00295633
0.00343921
0.00396718
0.00453974
0.00515558
0.00581271
0.00650833
0.00723996
0.0080042
0.00879473
0.00960256
0.0104235
0.011251
0.0120793
0.0129019
0.0137121
0.0145038
0.0152672
0.0159958
0.0166845
0.0173304
0.0179298
0.018478
0.018965
0.0193817
0.0197197
0.0199836
0.0201686
0.0202904
0.0203399
0.0203491
0.0202927
0.0202358
0.0201106
0.0200555
0.0199004
0.0199477
0.0197816
0.0200515
0.0198309
0.0105712
0.0068231
0.00456899
0.00313853
0.00214492
0.00144731
0.000981675
0.00069526
0.000532714
0.00046087
0.000462434
0.000527598
0.000647891
0.000816499
0.00102801
0.00127995
0.00157139
0.00190352
0.00227755
0.00269546
0.00315868
0.00366807
0.0042237
0.0048248
0.00546972
0.00615619
0.00688097
0.00764141
0.00843392
0.00925015
0.0100822
0.0109257
0.0117734
0.0126192
0.0134564
0.014278
0.0150754
0.0158401
0.0165664
0.0172493
0.017886
0.0184728
0.0190053
0.0194736
0.0198698
0.0201871
0.0204303
0.0205953
0.0206974
0.0207285
0.0207201
0.0206482
0.0205771
0.0204411
0.0203774
0.0202179
0.0202658
0.0201013
0.0203813
0.0201344
0.0105941
0.00688304
0.00466622
0.00327849
0.00231754
0.00162076
0.00113066
0.000813479
0.00062458
0.000533601
0.000523152
0.000584556
0.00070792
0.000885139
0.00110931
0.00137704
0.0016866
0.00203889
0.00243478
0.00287614
0.00336424
0.00389974
0.00448247
0.00511136
0.00578445
0.00649916
0.00725179
0.00803957
0.00885853
0.0096985
0.0105528
0.0114167
0.0122822
0.0131432
0.0139924
0.0148212
0.015621
0.0163845
0.017106
0.0177807
0.0184057
0.0189777
0.0194922
0.0199398
0.0203137
0.0206085
0.0208293
0.0209728
0.021054
0.0210656
0.0210387
0.0209505
0.0208645
0.0207169
0.0206438
0.0204791
0.0205259
0.0203623
0.0206491
0.0203786
0.0106153
0.0069366
0.00474804
0.00339612
0.00247249
0.00179013
0.00128719
0.000944321
0.000729726
0.00061842
0.000593697
0.000648765
0.000773412
0.000958227
0.00119457
0.00147796
0.00180561
0.00217808
0.00259576
0.00306042
0.00357312
0.00413427
0.00474348
0.00539935
0.00609959
0.00684139
0.0076205
0.00843408
0.00927738
0.0101392
0.0110137
0.0118957
0.0127767
0.0136501
0.0145076
0.0153399
0.0161396
0.0168994
0.0176136
0.0182776
0.0188886
0.0194433
0.0199376
0.0203625
0.0207124
0.0209832
0.0211803
0.021301
0.0213603
0.0213516
0.0213055
0.0212006
0.0210992
0.0209397
0.0208564
0.0206863
0.0207306
0.0205674
0.0208582
0.0205674
0.0106345
0.00698453
0.00481726
0.00349339
0.00260742
0.00195019
0.00144688
0.00108568
0.000847804
0.000715886
0.000675414
0.0007214
0.000845182
0.0010363
0.00128414
0.00158295
0.00192862
0.00232127
0.00276066
0.00324842
0.00378536
0.00437167
0.00500665
0.00568864
0.00641496
0.00718258
0.00798671
0.00882448
0.00968992
0.0105717
0.0114641
0.0123619
0.0132558
0.014138
0.0149999
0.0158331
0.01663
0.0173834
0.0180878
0.0187385
0.0193331
0.0198683
0.0203403
0.0207407
0.0210649
0.0213102
0.0214824
0.0215794
0.0216159
0.0215864
0.0215207
0.0213988
0.0212818
0.0211104
0.0210166
0.020841
0.0208818
0.0207191
0.0210114
0.0207037
0.0106516
0.00702745
0.00487629
0.00357281
0.00272144
0.00209637
0.00160476
0.00123447
0.000977688
0.000826101
0.000769152
0.000804075
0.000924206
0.00111999
0.00137843
0.00169231
0.00205584
0.00246862
0.00292959
0.00344021
0.004001
0.00461189
0.0052719
0.00597904
0.00673027
0.0075224
0.00835
0.00921029
0.0100955
0.0109951
0.0119031
0.0128142
0.013717
0.0146045
0.0154682
0.0162995
0.017091
0.0178353
0.0185272
0.0191622
0.0197378
0.0202512
0.0206988
0.0210729
0.02137
0.0215886
0.0217347
0.0218071
0.0218204
0.0217697
0.0216842
0.0215454
0.0214128
0.0212297
0.0211254
0.0209445
0.0209811
0.020819
0.0211109
0.02079
0.0106666
0.00706586
0.00492716
0.00363714
0.00281495
0.00222522
0.00175571
0.00138671
0.00111733
0.000948528
0.000875274
0.000898016
0.00101208
0.00121004
0.0014779
0.00180632
0.00218746
0.00262026
0.00310263
0.00363582
0.00422001
0.00485485
0.00553905
0.0062703
0.00704518
0.00786041
0.00870983
0.00959071
0.0104935
0.0114086
0.0123297
0.0132498
0.0141586
0.0150486
0.0159112
0.0167379
0.017521
0.0182536
0.0189303
0.0195469
0.0201011
0.0205904
0.0210116
0.0213577
0.0216264
0.0218171
0.0219363
0.0219834
0.021973
0.021901
0.0217959
0.0216404
0.0214925
0.021298
0.0211834
0.0209976
0.0210296
0.0208687
0.0211587
0.0208285
0.0106796
0.00710022
0.00497152
0.00368914
0.0028894
0.00233456
0.00189494
0.00153772
0.00126371
0.00108182
0.000993595
0.00100369
0.00111029
0.00130796
0.00158303
0.00192525
0.00232361
0.00277626
0.00327979
0.00383521
0.0044423
0.00510038
0.00580786
0.0065621
0.00735927
0.00819608
0.00906559
0.00996469
0.0108829
0.0118104
0.0127411
0.0136674
0.0145794
0.015469
0.0163275
0.0171466
0.0179186
0.0186365
0.0192953
0.0198909
0.0204213
0.0208843
0.0212772
0.0215938
0.0218327
0.0219944
0.0220859
0.0221073
0.022073
0.0219797
0.0218552
0.0216835
0.0215209
0.0213158
0.0211913
0.0210012
0.0210284
0.0208694
0.0211565
0.020821
0.0106909
0.00713092
0.00501065
0.00373137
0.00294695
0.00242356
0.00201837
0.00168249
0.00141289
0.00122369
0.0011232
0.00112109
0.00121928
0.00141509
0.00169553
0.00204932
0.00246436
0.00293657
0.00346096
0.00403822
0.00466765
0.00534821
0.00607799
0.006854
0.007672
0.00852881
0.00941657
0.0103309
0.0112611
0.0121984
0.0131358
0.0140656
0.0149778
0.015864
0.0167156
0.0175241
0.018282
0.0189824
0.0196205
0.0201926
0.0206967
0.0211312
0.0214939
0.0217794
0.0219874
0.0221192
0.0221824
0.0221778
0.0221195
0.0220052
0.0218618
0.0216745
0.021498
0.0212831
0.0211493
0.0209559
0.0209783
0.0208222
0.0211056
0.0207689
0.0107005
0.0071583
0.00504553
0.00376607
0.00299018
0.00249264
0.00212302
0.00181609
0.00156019
0.00137088
0.00126231
0.00124954
0.00133906
0.00153167
0.00181596
0.00218008
0.00261044
0.00310106
0.00364593
0.00424458
0.00489572
0.00559793
0.00634894
0.00714542
0.00798269
0.00885679
0.00976048
0.0106871
0.011627
0.0125713
0.0135126
0.0144429
0.0153523
0.0162321
0.0170737
0.0178686
0.0186094
0.0192895
0.0199041
0.0204499
0.0209254
0.0213293
0.0216599
0.0219129
0.0220889
0.0221902
0.0222245
0.0221936
0.0221116
0.0219767
0.021815
0.0216131
0.0214236
0.0212
0.0210579
0.0208621
0.0208801
0.020728
0.0210075
0.0206738
0.0107087
0.00718268
0.00507691
0.00379513
0.00302182
0.0025433
0.0022072
0.00193412
0.00170056
0.00151922
0.00140814
0.00138755
0.00146903
0.00165753
0.00194423
0.00231729
0.00276193
0.00327016
0.00383479
0.00445403
0.00512592
0.0058486
0.00661941
0.00743471
0.00828933
0.00917869
0.0100959
0.0110322
0.011979
0.0129275
0.0138699
0.0147977
0.0157012
0.0165716
0.0174
0.0181782
0.0188989
0.0195556
0.0201441
0.0206611
0.0211056
0.0214767
0.0217736
0.0219928
0.0221358
0.0222058
0.022211
0.0221539
0.0220484
0.0218934
0.0217144
0.0214989
0.0212976
0.0210667
0.0209173
0.0207204
0.0207345
0.0205878
0.0208632
0.0205367
0.0107156
0.00720434
0.00510534
0.00382007
0.00304448
0.00257776
0.00227058
0.00203314
0.00182891
0.00166382
0.00155696
0.00153268
0.0016078
0.00179197
0.00207984
0.00246044
0.00291815
0.00344306
0.00402659
0.00466555
0.00535717
0.00609907
0.00688821
0.00772058
0.00859059
0.0094931
0.0104211
0.0113645
0.0123156
0.0132655
0.0142059
0.0151282
0.0160226
0.0168803
0.0176925
0.0184509
0.0191483
0.0197789
0.0203383
0.0208239
0.0212351
0.0215716
0.0218331
0.0220173
0.0221265
0.0221646
0.0221406
0.0220574
0.0219289
0.0217548
0.0215594
0.0213316
0.0211198
0.020883
0.0207276
0.0205311
0.0205421
0.0204023
0.020674
0.0203588
0.0107215
0.00722356
0.00513121
0.00384205
0.00306056
0.00259871
0.00231403
0.00211093
0.00194063
0.00179941
0.00170413
0.00168149
0.00175308
0.00193353
0.00222175
0.00260853
0.00307803
0.00361857
0.00422006
0.00487778
0.00558804
0.00634788
0.00715381
0.00800148
0.00888485
0.00979835
0.0107342
0.0116822
0.0126348
0.0135831
0.0145185
0.0154322
0.0163144
0.0171562
0.0179489
0.0186843
0.0193556
0.019957
0.0204847
0.0209365
0.0213122
0.0216121
0.0218367
0.0219847
0.0220594
0.0220654
0.022012
0.0219031
0.0217523
0.0215599
0.0213495
0.0211108
0.0208901
0.020649
0.0204892
0.0202946
0.0203036
0.0201724
0.0204409
0.0201413
0.0107263
0.00724059
0.00515485
0.00386193
0.00307212
0.00260904
0.0023395
0.00216667
0.00203204
0.00192078
0.0018444
0.00182959
0.0019016
0.00207988
0.00236823
0.00276005
0.00324003
0.00379504
0.00441346
0.00508893
0.00581672
0.00659316
0.00741432
0.00827548
0.00917013
0.0100924
0.0110333
0.0119833
0.0129346
0.0138783
0.0148056
0.0157074
0.0165742
0.0173969
0.0181669
0.0188762
0.0195183
0.0200877
0.020581
0.0209965
0.0213346
0.0215961
0.0217825
0.0218934
0.021933
0.0219067
0.0218242
0.02169
0.0215177
0.0213083
0.0210842
0.0208363
0.0206085
0.020365
0.0202024
0.0200115
0.0200196
0.0198988
0.020165
0.019885
0.0107304
0.00725566
0.00517647
0.00388031
0.00308082
0.00261153
0.00234962
0.00220094
0.00210069
0.00202322
0.00197224
0.00197179
0.0020491
0.00222777
0.00251672
0.0029128
0.00340202
0.00397029
0.00460454
0.00529671
0.00604087
0.00683259
0.0076674
0.00854021
0.00944406
0.0103728
0.011316
0.0122652
0.0132123
0.0141484
0.0150645
0.0159513
0.0167994
0.0175997
0.0183438
0.019024
0.0196339
0.0201685
0.0206249
0.0210018
0.0213002
0.0215218
0.0216687
0.0217417
0.0217458
0.0216872
0.0215759
0.0214172
0.0212245
0.0209994
0.0207632
0.0205079
0.0202748
0.0200309
0.0198674
0.0196822
0.0196908
0.0195824
0.0198473
0.019591
0.0107337
0.007269
0.00519627
0.00389758
0.00308794
0.00260872
0.00234744
0.00221549
0.00214561
0.00210299
0.00208233
0.00210246
0.00219047
0.00237297
0.00266379
0.00306379
0.00356118
0.00414151
0.00479045
0.00549822
0.0062576
0.00706327
0.00791019
0.00879283
0.00970378
0.0106362
0.0115793
0.0125251
0.0134652
0.0143906
0.0152923
0.0161609
0.0169871
0.0177619
0.018477
0.019125
0.0196998
0.0201969
0.0206138
0.0209501
0.0212071
0.0213872
0.0214936
0.0215282
0.0214966
0.0214058
0.0212663
0.021084
0.0208722
0.0206328
0.0203863
0.0201256
0.0198893
0.0196472
0.0194848
0.0193073
0.019318
0.019224
0.019489
0.0192603
0.0107365
0.0072808
0.0052144
0.003914
0.00309442
0.00260281
0.00233613
0.00221304
0.00216731
0.00215774
0.00217002
0.0022159
0.00232003
0.0025104
0.00280509
0.00320922
0.00371395
0.00430519
0.00496766
0.00568993
0.00646339
0.00728172
0.00813922
0.00902991
0.00994592
0.0108795
0.0118201
0.0127596
0.0136898
0.0146016
0.0154858
0.0163331
0.0171343
0.0178804
0.0185634
0.0191762
0.0197131
0.0201702
0.0205455
0.020839
0.0210529
0.0211905
0.0212556
0.0212512
0.021184
0.0210615
0.0208946
0.0206898
0.0204602
0.0202084
0.0199535
0.0196895
0.0194522
0.0192142
0.019055
0.0188875
0.0189021
0.0188246
0.019091
0.0188938
0.0107388
0.00729126
0.005231
0.00392969
0.00310088
0.00259555
0.00231868
0.00219688
0.00216768
0.00218667
0.00223184
0.00230687
0.00243189
0.00263439
0.00293549
0.0033445
0.00385602
0.00445709
0.00513193
0.00586758
0.00665401
0.00748374
0.00835038
0.00924742
0.0101665
0.0110988
0.0120343
0.0129651
0.0138826
0.0147778
0.0156415
0.0164644
0.0172374
0.0179518
0.0185997
0.0191746
0.0196711
0.0200858
0.0204173
0.0206663
0.0208358
0.0209297
0.020953
0.0209096
0.020807
0.0206535
0.0204602
0.0202342
0.0199885
0.0197261
0.0194649
0.0191999
0.0189639
0.0187325
0.0185789
0.0184236
0.0184439
0.0183851
0.0186547
0.0184927
0.0107407
0.00730053
0.00524619
0.00394473
0.0031077
0.00258826
0.00229779
0.00217055
0.00214968
0.00219062
0.00226584
0.0023711
0.00252048
0.002739
0.00304932
0.00346433
0.00398238
0.00459231
0.00527833
0.00602623
0.00682451
0.00766446
0.00853886
0.00944064
0.0103609
0.0112897
0.0122178
0.0131372
0.0140393
0.0149151
0.0157553
0.0165508
0.0172927
0.0179725
0.0185827
0.019117
0.0195706
0.0199408
0.0202267
0.0204297
0.0205537
0.0206033
0.0205844
0.0205022
0.0203648
0.0201811
0.0199627
0.0197171
0.0194571
0.0191862
0.018921
0.0186573
0.0184253
0.0182028
0.0180572
0.0179165
0.0179445
0.0179068
0.0181813
0.0180579
0.0107422
0.00730876
0.0052601
0.00395913
0.00311506
0.00258187
0.00227566
0.00213752
0.00211701
0.00217191
0.00227183
0.00240577
0.00258103
0.00281849
0.00314064
0.00356297
0.00408747
0.00470532
0.00540131
0.00616026
0.00696925
0.00781828
0.00869917
0.0096042
0.0105236
0.011447
0.0123656
0.0132712
0.0141553
0.0150089
0.0158229
0.0165883
0.0172963
0.0179388
0.0185087
0.019
0.0194087
0.0197323
0.0199711
0.020127
0.0202046
0.0202096
0.0201486
0.020028
0.0198566
0.0196441
0.019402
0.0191388
0.0188665
0.0185893
0.0183225
0.0180628
0.0178371
0.0176262
0.017491
0.0173674
0.0174052
0.0173909
0.017672
0.0175907
0.0107434
0.00731609
0.00527284
0.00397291
0.00312301
0.00257698
0.00225405
0.00210094
0.00207365
0.00213402
0.00225136
0.00240982
0.00261014
0.00286791
0.00320377
0.00363456
0.00416545
0.00479024
0.00549484
0.0062635
0.007082
0.00793897
0.00882513
0.00973204
0.0106489
0.011565
0.0124721
0.0133618
0.0142255
0.0150545
0.0158397
0.0165724
0.017244
0.0178467
0.0183739
0.0188202
0.019182
0.0194577
0.0196481
0.0197561
0.019787
0.0197473
0.0196447
0.0194865
0.0192824
0.0190425
0.0187787
0.0184997
0.0182175
0.0179364
0.0176706
0.0174173
0.0172007
0.0170041
0.0168818
0.0167777
0.0168274
0.0168387
0.0171285
0.0170923
0.0107444
0.00732265
0.00528452
0.00398606
0.00313152
0.00257388
0.00223421
0.00206349
0.00202357
0.00208122
0.00220756
0.00238411
0.00260617
0.00288359
0.0032338
0.00367359
0.00421052
0.00484108
0.00555269
0.00632948
0.0071561
0.00801977
0.00891003
0.00981755
0.0107303
0.0116377
0.0125314
0.0134031
0.0142444
0.0150465
0.0158006
0.0164983
0.0171312
0.0176921
0.0181747
0.0185742
0.0188876
0.0191142
0.0192555
0.0193151
0.0192992
0.0192153
0.0190719
0.0188775
0.0186422
0.0183768
0.0180934
0.017801
0.0175113
0.017229
0.0169667
0.0167226
0.0165177
0.0163379
0.0162311
0.016149
0.0162128
0.0162519
0.0165523
0.0165641
0.0107452
0.00732852
0.00529523
0.00399857
0.00314047
0.00257266
0.00221694
0.00202729
0.0019704
0.00201808
0.00214471
0.00233137
0.0025695
0.00286363
0.00322711
0.00367539
0.00421744
0.00485214
0.00556874
0.00635167
0.0071847
0.00805364
0.00894673
0.00985363
0.010761
0.0116583
0.0125371
0.0133891
0.014206
0.0149793
0.0157004
0.016361
0.0169534
0.0174706
0.017907
0.0182584
0.0185225
0.0186993
0.018791
0.0188024
0.0187403
0.0186131
0.0184303
0.0182012
0.0179367
0.017648
0.0173475
0.0170443
0.0167498
0.0164689
0.0162128
0.0159806
0.0157901
0.0156298
0.015541
0.0154831
0.0155633
0.0156322
0.0159452
0.0160076
0.0107458
0.00733381
0.00530508
0.00401045
0.00314976
0.00257325
0.00220269
0.00199386
0.00191721
0.00194908
0.00206783
0.00225584
0.00250258
0.00280824
0.00318192
0.00363674
0.004182
0.00481852
0.00553746
0.00632393
0.00716112
0.00803353
0.00892798
0.00983298
0.0107338
0.0116197
0.0124823
0.0133133
0.0141043
0.0148472
0.0155336
0.0161556
0.016706
0.0171782
0.0175672
0.0178696
0.0180838
0.0182106
0.0182531
0.0182168
0.0181095
0.0179405
0.01772
0.0174585
0.0171672
0.016858
0.016543
0.0162319
0.0159354
0.0156587
0.0154117
0.0151941
0.0150206
0.0148822
0.0148137
0.0147824
0.0148809
0.0149817
0.0153092
0.0154243
0.0107463
0.0073386
0.00531415
0.00402171
0.00315925
0.00257549
0.0021916
0.00196422
0.0018664
0.00187827
0.00198215
0.00216287
0.00240968
0.00271985
0.00309864
0.00355631
0.00410162
0.00473664
0.0054544
0.00624099
0.00707935
0.00795282
0.00884676
0.00974837
0.0106415
0.011515
0.0123603
0.013169
0.013933
0.0146442
0.0152947
0.015877
0.0163843
0.0168107
0.0171518
0.0174049
0.0175692
0.0176463
0.0176404
0.0175577
0.0174068
0.017198
0.0169424
0.016651
0.0163358
0.016009
0.0156827
0.0153668
0.0150714
0.0148018
0.0145667
0.0143661
0.0142122
0.0140981
0.0140523
0.0140495
0.0141684
0.0143028
0.0146465
0.0148163
0.0107467
0.00734295
0.00532253
0.00403236
0.00316883
0.00257915
0.00218358
0.0019389
0.00181972
0.00180901
0.00189264
0.00205835
0.0022965
0.00260294
0.00298001
0.00343511
0.0039758
0.0046048
0.00531676
0.00609899
0.00693456
0.00780584
0.00869674
0.00959304
0.0104772
0.0113373
0.0121643
0.0129499
0.013686
0.0143647
0.0149785
0.0155204
0.0159841
0.0163644
0.0166575
0.0168615
0.0169766
0.0170052
0.0169522
0.016825
0.0166329
0.016387
0.0160992
0.0157812
0.0154456
0.0151046
0.0147704
0.014453
0.0141617
0.0139022
0.0136817
0.0135008
0.0133687
0.013281
0.0132599
0.0132875
0.0134285
0.013598
0.0139597
0.0141854
0.010747
0.00734693
0.0053303
0.00404243
0.00317839
0.002584
0.00217842
0.00191806
0.00177827
0.00174391
0.00180365
0.00194812
0.00216953
0.00246365
0.00283099
0.00327659
0.00380652
0.00442365
0.00512396
0.00589614
0.00672373
0.00758846
0.00847289
0.0093613
0.0102348
0.0110803
0.0118882
0.0126499
0.0133575
0.0140033
0.0145802
0.0150815
0.0155017
0.0158361
0.0160818
0.0162378
0.0163049
0.0162867
0.0161889
0.0160198
0.0157895
0.0155099
0.0151935
0.0148527
0.0145005
0.0141492
0.0138109
0.0134954
0.0132117
0.0129651
0.0127618
0.0126028
0.0124948
0.0124352
0.0124406
0.0125
0.0126647
0.0128704
0.0132514
0.0135341
0.0107473
0.0073506
0.00533752
0.00405196
0.00318783
0.00258978
0.00217581
0.00190159
0.00174261
0.00168474
0.0017187
0.0018375
0.00203545
0.00230916
0.00265841
0.00308657
0.00359838
0.00419654
0.00487811
0.00563324
0.00644629
0.00729877
0.00817211
0.00904908
0.00990967
0.0107389
0.0115267
0.0122639
0.0129427
0.0135555
0.0140955
0.0145567
0.0149339
0.0152234
0.0154231
0.0155326
0.015554
0.0154915
0.0153519
0.0151442
0.0148795
0.0145702
0.0142295
0.0138705
0.013506
0.0131487
0.0128103
0.0125004
0.0122274
0.0119967
0.011813
0.011678
0.0115957
0.0115658
0.011599
0.0116911
0.0118808
0.0121233
0.012525
0.0128648
0.0107475
0.00735399
0.00534426
0.00406097
0.00319711
0.00259629
0.00217539
0.00188919
0.00171284
0.00163259
0.00164035
0.00173092
0.00190053
0.00214701
0.00247029
0.00287285
0.00335847
0.00392963
0.0045843
0.00531415
0.00610472
0.00693779
0.00779398
0.00865472
0.00949912
0.01031
0.0110762
0.0117883
0.012438
0.0130179
0.0135216
0.0139434
0.014279
0.0145252
0.0146808
0.0147463
0.0147248
0.0146213
0.0144437
0.0142017
0.0139072
0.0135732
0.0132133
0.0128409
0.0124691
0.0121104
0.0117761
0.0114756
0.0112166
0.0110043
0.0108424
0.010733
0.0106778
0.0106784
0.0107403
0.0108658
0.0110811
0.0113606
0.0117837
0.0121805
0.0107476
0.00735716
0.00535058
0.0040695
0.00320616
0.00260331
0.0021768
0.00188044
0.00168876
0.00158788
0.00157025
0.00163177
0.00177012
0.00198438
0.00227507
0.00264448
0.00309586
0.00363163