/*--------------------------------*- C++ -*----------------------------------*\
| =========                 |                                                 |
| \\      /  F ield         | OpenFOAM: The Open Source CFD Toolbox           |
|  \\    /   O peration     | Version:  2.4.0                                 |
|   \\  /    A nd           | Web:      www.OpenFOAM.org                      |
|    \\/     M anipulation  |                                                 |
\*---------------------------------------------------------------------------*/
FoamFile
{
    version     2.0;
    format      ascii;
    class       volScalarField;
    location    "2.9";
    object      p;
}
// * * * * * * * * * * * * * * * * * * * * * * * * * * * * * * * * * * * * * //

dimensions      [0 2 -2 0 0 0 0];

internalField   nonuniform List<scalar> 
5625
(
0.181535
0.200522
0.241166
0.267402
0.28773
0.303448
0.316091
0.326411
0.33501
0.342267
0.348491
0.353887
0.35863
0.362836
0.366613
0.370027
0.373149
0.376017
0.378683
0.381166
0.383504
0.38571
0.387818
0.389834
0.39179
0.393679
0.395519
0.39728
0.398966
0.400539
0.402024
0.403409
0.404779
0.406177
0.407745
0.409539
0.411692
0.414163
0.416953
0.419804
0.422563
0.424847
0.426528
0.427238
0.427077
0.425884
0.424088
0.421685
0.419517
0.417376
0.41651
0.416176
0.417582
0.419343
0.422695
0.425518
0.429226
0.431313
0.433536
0.433173
0.432564
0.428624
0.424426
0.416207
0.407921
0.394668
0.381591
0.362052
0.342801
0.314521
0.286469
0.244524
0.202749
0.135755
0.0707971
0.190571
0.202681
0.2416
0.267391
0.287593
0.30329
0.315934
0.326262
0.334872
0.34214
0.348375
0.35378
0.358533
0.362747
0.366531
0.369951
0.373079
0.375953
0.378624
0.381111
0.383454
0.385664
0.387775
0.389794
0.391753
0.393645
0.395488
0.397253
0.398943
0.400521
0.40201
0.403403
0.404777
0.406175
0.407739
0.409525
0.411665
0.414128
0.416911
0.419759
0.422519
0.424812
0.426501
0.427226
0.427079
0.425891
0.424106
0.42171
0.419537
0.417396
0.416512
0.416166
0.417562
0.419312
0.42264
0.425448
0.429125
0.431193
0.433384
0.432987
0.432323
0.428329
0.424062
0.415773
0.407405
0.394118
0.380939
0.361372
0.341985
0.313628
0.285407
0.243326
0.20128
0.134052
0.0683662
0.196071
0.204416
0.241949
0.267424
0.287528
0.303193
0.315829
0.326159
0.334773
0.342048
0.34829
0.353703
0.358462
0.362682
0.366472
0.369897
0.373029
0.375907
0.378582
0.381073
0.383419
0.385631
0.387744
0.389765
0.391725
0.393619
0.395465
0.397233
0.398928
0.40051
0.402004
0.403399
0.404772
0.406166
0.407723
0.409495
0.411628
0.414083
0.416866
0.41972
0.422492
0.424803
0.426509
0.427251
0.427118
0.425929
0.424139
0.421727
0.419537
0.41738
0.416481
0.416117
0.417513
0.419256
0.422582
0.425382
0.429051
0.431096
0.433263
0.432836
0.432141
0.428106
0.423797
0.415455
0.407034
0.393651
0.380406
0.360693
0.341227
0.312743
0.284367
0.242127
0.199832
0.132341
0.0659556
0.19858
0.205904
0.242226
0.267454
0.287478
0.303119
0.315749
0.32608
0.334698
0.341978
0.348225
0.353642
0.358405
0.362629
0.366423
0.369851
0.372987
0.375868
0.378545
0.381039
0.383387
0.385602
0.387716
0.389739
0.3917
0.393595
0.395442
0.397214
0.398914
0.400503
0.402001
0.403396
0.404765
0.40615
0.407697
0.409454
0.411578
0.414028
0.416818
0.419687
0.422484
0.424821
0.426552
0.427312
0.42719
0.425991
0.424184
0.421739
0.41952
0.41733
0.416415
0.416031
0.417431
0.419176
0.422511
0.425312
0.428982
0.431012
0.433163
0.432702
0.431975
0.427894
0.42354
0.41514
0.406665
0.393209
0.379896
0.360097
0.340539
0.3119
0.283408
0.240958
0.198439
0.130747
0.0639667
0.200272
0.207463
0.242507
0.267476
0.287427
0.303054
0.315681
0.326014
0.334636
0.341919
0.34817
0.35359
0.358357
0.362584
0.366381
0.369812
0.372951
0.375834
0.378513
0.381009
0.383359
0.385575
0.387691
0.389714
0.391676
0.393573
0.395424
0.3972
0.398905
0.400499
0.402
0.403394
0.404757
0.40613
0.407652
0.409401
0.411515
0.413961
0.416765
0.419656
0.422488
0.424861
0.426625
0.427407
0.427288
0.426077
0.424241
0.421748
0.419483
0.41726
0.416314
0.415916
0.417318
0.419068
0.422418
0.425224
0.428899
0.430918
0.433053
0.432559
0.431799
0.427668
0.423269
0.414807
0.406278
0.39275
0.379372
0.359484
0.339838
0.311084
0.282464
0.239853
0.197131
0.129337
0.0621346
0.202002
0.209106
0.242808
0.267483
0.287365
0.302988
0.315619
0.325957
0.334583
0.341871
0.348125
0.353548
0.358318
0.362547
0.366346
0.369779
0.37292
0.375805
0.378486
0.380983
0.383335
0.385551
0.387668
0.389691
0.391655
0.393554
0.395408
0.397188
0.3989
0.400499
0.402003
0.403394
0.404748
0.406105
0.407609
0.409337
0.411439
0.413883
0.416706
0.419625
0.422502
0.424921
0.426725
0.427531
0.427417
0.426184
0.424309
0.421756
0.419436
0.417167
0.416188
0.415774
0.417178
0.418933
0.422299
0.425114
0.428794
0.430804
0.432923
0.432397
0.431602
0.427421
0.422979
0.414455
0.405876
0.392274
0.378835
0.358854
0.339129
0.310256
0.281521
0.238763
0.195845
0.128005
0.0604242
0.203845
0.210769
0.243127
0.267469
0.287279
0.302909
0.315552
0.325901
0.334536
0.341829
0.348088
0.353514
0.358286
0.362518
0.366318
0.369753
0.372895
0.375781
0.378463
0.380962
0.383315
0.385532
0.387649
0.389672
0.391637
0.393537
0.395394
0.39718
0.398898
0.400502
0.402008
0.403395
0.404738
0.406079
0.40756
0.409265
0.411354
0.413799
0.416638
0.419596
0.422525
0.424997
0.42685
0.427682
0.427572
0.426309
0.424386
0.421763
0.41938
0.417057
0.416044
0.415609
0.417014
0.418776
0.422155
0.424979
0.428662
0.430663
0.432766
0.432207
0.43138
0.427149
0.422667
0.414079
0.405456
0.391777
0.378285
0.35821
0.338415
0.309421
0.28058
0.237679
0.194581
0.126746
0.0588405
0.205731
0.212423
0.243464
0.267433
0.287159
0.302804
0.315469
0.325839
0.334487
0.34179
0.348055
0.353486
0.358261
0.362494
0.366296
0.369732
0.372875
0.375762
0.378446
0.380945
0.383299
0.385516
0.387633
0.389656
0.391621
0.393522
0.395384
0.397174
0.398899
0.400508
0.402017
0.403399
0.40473
0.406052
0.407507
0.409188
0.411262
0.413707
0.416567
0.419567
0.422556
0.425088
0.426993
0.427854
0.427745
0.426448
0.424471
0.42177
0.419321
0.41694
0.415889
0.415431
0.416834
0.4186
0.421988
0.424819
0.428503
0.430493
0.432579
0.431987
0.431129
0.426847
0.422328
0.413678
0.405014
0.39126
0.377722
0.357551
0.337694
0.308579
0.279644
0.236607
0.193342
0.125559
0.0573759
0.207614
0.214058
0.24382
0.267376
0.287
0.302663
0.315361
0.32576
0.33443
0.341748
0.348022
0.353459
0.358239
0.362475
0.366279
0.369716
0.37286
0.375748
0.378432
0.380932
0.383286
0.385504
0.387621
0.389643
0.391608
0.393511
0.395376
0.397172
0.398903
0.400517
0.402028
0.403404
0.404723
0.406014
0.407453
0.409108
0.411166
0.413612
0.416495
0.419539
0.422591
0.425188
0.42715
0.42804
0.427932
0.426596
0.424561
0.421781
0.419262
0.416823
0.41573
0.415248
0.416644
0.418412
0.421803
0.424638
0.428318
0.430294
0.432361
0.431733
0.430847
0.426513
0.421962
0.413249
0.404552
0.390721
0.377144
0.356879
0.336967
0.307734
0.278712
0.235549
0.192128
0.124443
0.0560192
0.209462
0.215664
0.244193
0.267304
0.286802
0.30248
0.315218
0.325656
0.334357
0.341696
0.347985
0.353431
0.358217
0.362458
0.366265
0.369704
0.372849
0.375738
0.378423
0.380922
0.383278
0.385495
0.387612
0.389634
0.391599
0.393503
0.395372
0.397172
0.398909
0.400528
0.402041
0.403412
0.404718
0.405988
0.407401
0.409029
0.411072
0.413517
0.416423
0.419512
0.422628
0.425291
0.427311
0.428231
0.428123
0.426749
0.424655
0.421796
0.419207
0.416707
0.415576
0.415069
0.416452
0.418218
0.421606
0.42444
0.42811
0.430067
0.432114
0.431448
0.430534
0.426148
0.421569
0.412793
0.404068
0.390163
0.376553
0.356195
0.336236
0.306887
0.277786
0.23451
0.190939
0.123393
0.0547612
0.211251
0.21723
0.244581
0.267222
0.286569
0.302253
0.315034
0.32552
0.33426
0.341627
0.347937
0.353397
0.358193
0.362439
0.366251
0.369692
0.37284
0.37573
0.378416
0.380916
0.383272
0.385489
0.387607
0.389627
0.391593
0.393497
0.395369
0.397173
0.398917
0.40054
0.402056
0.403421
0.404716
0.405965
0.407354
0.408955
0.410983
0.413426
0.416353
0.419486
0.422665
0.425392
0.42747
0.428418
0.428309
0.426899
0.42475
0.421817
0.419162
0.416606
0.415435
0.414901
0.416267
0.418025
0.421403
0.424228
0.427882
0.429815
0.431838
0.431131
0.430191
0.425753
0.421149
0.412312
0.403564
0.389586
0.37595
0.355501
0.335502
0.306043
0.276867
0.233491
0.189776
0.122402
0.0535938
0.212964
0.218747
0.244979
0.267136
0.286308
0.301985
0.314809
0.325348
0.334134
0.341537
0.347874
0.353353
0.358162
0.362417
0.366235
0.36968
0.372832
0.375723
0.378411
0.380912
0.383269
0.385486
0.387604
0.389624
0.39159
0.393495
0.395369
0.397177
0.398926
0.400553
0.40207
0.403431
0.404715
0.405947
0.407313
0.408891
0.410903
0.413344
0.41629
0.419461
0.422698
0.425485
0.427617
0.428593
0.428485
0.427042
0.424843
0.421844
0.41913
0.416523
0.415313
0.414752
0.416096
0.417841
0.421199
0.424008
0.427639
0.429541
0.431537
0.430786
0.42982
0.425329
0.420704
0.411807
0.403042
0.388994
0.375336
0.354801
0.334765
0.305202
0.275956
0.232494
0.188639
0.121467
0.0525098
0.214592
0.220206
0.245384
0.267053
0.286027
0.301682
0.314543
0.325137
0.333975
0.341421
0.34779
0.353293
0.35812
0.362387
0.366214
0.369665
0.372821
0.375715
0.378406
0.380908
0.383266
0.385484
0.387603
0.389622
0.39159
0.393494
0.395371
0.397181
0.398935
0.400564
0.402084
0.403441
0.404716
0.405933
0.407281
0.408838
0.410837
0.413274
0.416236
0.419439
0.422726
0.425565
0.427745
0.428746
0.428643
0.427171
0.424931
0.421876
0.419115
0.416462
0.415216
0.414629
0.415946
0.41767
0.421001
0.423785
0.427385
0.42925
0.431214
0.430416
0.429423
0.424879
0.420236
0.411282
0.402503
0.388388
0.374714
0.354096
0.334028
0.304369
0.275055
0.231521
0.18753
0.120584
0.0515027
0.21613
0.221604
0.245792
0.266975
0.285735
0.301351
0.314241
0.324889
0.333783
0.341276
0.347683
0.353215
0.358064
0.362347
0.366186
0.369645
0.372807
0.375705
0.3784
0.380903
0.383264
0.385482
0.387603
0.389623
0.391591
0.393496
0.395374
0.397186
0.398943
0.400574
0.402095
0.40345
0.40472
0.405925
0.407258
0.408798
0.410787
0.41322
0.416193
0.41942
0.422747
0.425628
0.427849
0.42887
0.428774
0.427281
0.42501
0.421912
0.419117
0.416426
0.415148
0.414534
0.415821
0.41752
0.420813
0.423563
0.427123
0.428944
0.430872
0.430023
0.429003
0.424407
0.419748
0.410739
0.40195
0.387772
0.374084
0.353391
0.333293
0.303546
0.274165
0.230573
0.186451
0.11975
0.0505668
0.217581
0.222937
0.2462
0.266907
0.285441
0.301002
0.313911
0.324608
0.333558
0.341102
0.347552
0.353117
0.357991
0.362293
0.366147
0.369617
0.372788
0.375691
0.37839
0.380897
0.383261
0.38548
0.387603
0.389624
0.391593
0.393498
0.395378
0.39719
0.398949
0.400582
0.402104
0.403455
0.404726
0.405922
0.407246
0.408774
0.410756
0.413184
0.416165
0.419407
0.422761
0.42567
0.427922
0.428959
0.428871
0.427365
0.425078
0.421949
0.419131
0.416418
0.415111
0.414473
0.415725
0.417392
0.420641
0.423348
0.426859
0.428628
0.430513
0.429611
0.428563
0.423916
0.419242
0.410181
0.401384
0.387149
0.37345
0.352686
0.33256
0.302734
0.273288
0.229652
0.185402
0.118961
0.049697
0.218945
0.224206
0.246605
0.26685
0.285152
0.300644
0.313561
0.324302
0.333305
0.3409
0.347396
0.352997
0.357901
0.362226
0.366097
0.36958
0.372761
0.375672
0.378377
0.380887
0.383255
0.385477
0.387602
0.389624
0.391596
0.393501
0.395382
0.397194
0.398954
0.400586
0.40211
0.403462
0.404732
0.405924
0.407245
0.408767
0.410744
0.413168
0.416151
0.419398
0.422767
0.42569
0.427962
0.429008
0.42893
0.427408
0.42513
0.421988
0.419161
0.416434
0.415107
0.414447
0.415662
0.417291
0.420486
0.423141
0.426595
0.428305
0.430143
0.429184
0.428107
0.423409
0.418721
0.409613
0.40081
0.386522
0.372813
0.351986
0.331834
0.301937
0.272427
0.22876
0.184385
0.118215
0.0488888
0.220226
0.22541
0.247005
0.266807
0.284873
0.300286
0.313201
0.323977
0.33303
0.340676
0.347217
0.352857
0.357793
0.362143
0.366034
0.369532
0.372725
0.375645
0.378357
0.380873
0.383245
0.385471
0.387599
0.389624
0.391598
0.393503
0.395385
0.397196
0.398957
0.400588
0.402113
0.403468
0.404738
0.405931
0.407254
0.408775
0.410752
0.413171
0.416152
0.419394
0.422765
0.425686
0.427966
0.429015
0.428949
0.427432
0.425164
0.422028
0.419204
0.416475
0.415136
0.414455
0.415631
0.417217
0.420351
0.422945
0.426334
0.427978
0.429764
0.428747
0.427637
0.422891
0.418189
0.409037
0.400229
0.385894
0.372177
0.351293
0.331115
0.301156
0.271583
0.227896
0.183402
0.117509
0.0481383
0.221428
0.226551
0.247399
0.266777
0.284609
0.299934
0.312837
0.323642
0.33274
0.340434
0.34702
0.3527
0.357669
0.362045
0.365958
0.369473
0.37268
0.37561
0.378331
0.380853
0.383232
0.385461
0.387594
0.389621
0.391598
0.393504
0.395387
0.397196
0.398956
0.400586
0.402112
0.403471
0.404745
0.405943
0.407274
0.408798
0.410778
0.413192
0.416167
0.419394
0.422753
0.425659
0.427935
0.42898
0.428925
0.427421
0.425157
0.422057
0.419258
0.41654
0.415196
0.414498
0.415634
0.417171
0.420238
0.422762
0.426079
0.427651
0.429379
0.428301
0.427158
0.422365
0.41765
0.408458
0.399646
0.385268
0.371545
0.35061
0.330407
0.300394
0.270759
0.227064
0.182454
0.116843
0.0474419
0.222553
0.22763
0.247784
0.26676
0.284362
0.299594
0.312478
0.323304
0.332441
0.340179
0.346809
0.352527
0.35753
0.361934
0.36587
0.369403
0.372626
0.375567
0.378299
0.380828
0.383213
0.385447
0.387586
0.389616
0.391596
0.393503
0.395387
0.397194
0.398953
0.40058
0.402108
0.403463
0.404753
0.40596
0.407303
0.408836
0.410822
0.413231
0.416193
0.419396
0.422731
0.425607
0.427868
0.428902
0.42886
0.427376
0.425152
0.422089
0.419322
0.416625
0.415284
0.414574
0.415669
0.417153
0.420147
0.422595
0.425832
0.427326
0.428993
0.427852
0.426674
0.421835
0.417107
0.407879
0.399064
0.384649
0.370918
0.34994
0.329712
0.299654
0.269958
0.226263
0.181542
0.116215
0.0467964
0.223604
0.228647
0.248159
0.266756
0.284135
0.299271
0.312129
0.32297
0.332141
0.339919
0.34659
0.352345
0.357381
0.361812
0.365773
0.369324
0.372563
0.375517
0.378259
0.380797
0.383189
0.385429
0.387573
0.389608
0.391592
0.3935
0.395384
0.397188
0.398946
0.400571
0.402101
0.403461
0.404762
0.405981
0.407342
0.408887
0.410881
0.413283
0.416229
0.419399
0.422697
0.425533
0.427767
0.428785
0.428755
0.427298
0.425127
0.422111
0.419391
0.416728
0.415399
0.414678
0.415733
0.417161
0.420077
0.422442
0.425594
0.427005
0.428607
0.427402
0.426188
0.421306
0.416564
0.407304
0.398486
0.384039
0.370302
0.349285
0.329034
0.298937
0.269181
0.225495
0.180669
0.115623
0.0461989
0.224586
0.229603
0.248523
0.266762
0.283926
0.298965
0.311795
0.322645
0.331844
0.339658
0.346366
0.352156
0.357224
0.361683
0.365667
0.369238
0.372493
0.37546
0.378214
0.38076
0.383161
0.385407
0.387558
0.389596
0.391584
0.393493
0.395378
0.397179
0.398935
0.400558
0.402091
0.403458
0.404771
0.406007
0.407389
0.408949
0.410953
0.413347
0.416272
0.4194
0.422653
0.425436
0.427635
0.428632
0.428615
0.427191
0.425081
0.422125
0.419465
0.416848
0.415537
0.41481
0.415824
0.417193
0.420027
0.422304
0.425367
0.426692
0.428225
0.426956
0.425704
0.420781
0.416026
0.406736
0.397916
0.383441
0.369699
0.348649
0.328374
0.298246
0.268432
0.224761
0.179836
0.115067
0.045647
0.225499
0.2305
0.248873
0.266777
0.283736
0.29868
0.311477
0.322332
0.331555
0.339401
0.346144
0.351967
0.357064
0.361549
0.365556
0.369146
0.372417
0.375398
0.378163
0.380719
0.383128
0.385381
0.387538
0.389581
0.391574
0.393484
0.395369
0.397167
0.398922
0.400542
0.402079
0.403453
0.404782
0.406038
0.407444
0.409021
0.411036
0.41342
0.41632
0.419399
0.422597
0.425319
0.427476
0.428448
0.428445
0.427059
0.425016
0.422132
0.419543
0.41698
0.415694
0.414964
0.415939
0.417247
0.419996
0.422182
0.425151
0.426389
0.42785
0.426517
0.425227
0.420264
0.415495
0.406181
0.397357
0.38286
0.369111
0.348034
0.327736
0.297582
0.267711
0.224063
0.179044
0.114545
0.0451381
0.226347
0.231338
0.249209
0.2668
0.283564
0.298415
0.311179
0.322035
0.331278
0.339153
0.345926
0.351779
0.356905
0.361414
0.365442
0.369051
0.372339
0.375332
0.378109
0.380674
0.383092
0.385351
0.387516
0.389564
0.391561
0.393472
0.395357
0.397153
0.398905
0.400524
0.402065
0.403448
0.404795
0.406072
0.407504
0.409101
0.411127
0.4135
0.41637
0.419394
0.42253
0.425184
0.427295
0.428239
0.42825
0.426906
0.424937
0.422134
0.419624
0.417122
0.415866
0.415136
0.416073
0.41732
0.419982
0.422074
0.424948
0.426096
0.427485
0.426089
0.424759
0.419759
0.414977
0.40564
0.396814
0.382298
0.368543
0.347443
0.327122
0.296949
0.267023
0.223401
0.178293
0.114058
0.0446702
0.227132
0.232118
0.249528
0.266829
0.283409
0.29817
0.3109
0.321756
0.331016
0.338915
0.345716
0.351597
0.356748
0.36128
0.365329
0.368955
0.372258
0.375264
0.378053
0.380627
0.383053
0.38532
0.387491
0.389544
0.391545
0.393458
0.395343
0.397136
0.398887
0.400504
0.402051
0.403442
0.404808
0.406109
0.40757
0.409186
0.411223
0.413582
0.41642
0.419385
0.422454
0.425035
0.427095
0.42801
0.428036
0.426737
0.424847
0.422131
0.419707
0.417272
0.41605
0.415322
0.416222
0.417407
0.419983
0.42198
0.424758
0.425816
0.427133
0.425674
0.424305
0.41927
0.414475
0.405118
0.39629
0.381757
0.367997
0.346878
0.326535
0.296347
0.266369
0.222777
0.177587
0.113605
0.0442412
0.227855
0.23284
0.24983
0.266862
0.283271
0.297945
0.310642
0.321495
0.330769
0.338691
0.345517
0.351422
0.356597
0.36115
0.365219
0.368861
0.372178
0.375196
0.377996
0.380578
0.383014
0.385287
0.387465
0.389523
0.391528
0.393442
0.395327
0.397117
0.398866
0.400482
0.402035
0.403437
0.404824
0.406149
0.407638
0.409275
0.411321
0.413666
0.416468
0.419371
0.422371
0.424876
0.426883
0.427769
0.427809
0.426559
0.424749
0.422126
0.419791
0.417426
0.416241
0.415517
0.416382
0.417505
0.419996
0.421898
0.424581
0.42555
0.426795
0.425275
0.423868
0.4188
0.413992
0.404618
0.395787
0.381242
0.367476
0.346342
0.325978
0.295778
0.26575
0.222192
0.176924
0.113184
0.0438494
0.228519
0.233506
0.250114
0.266898
0.283147
0.29774
0.310404
0.321254
0.33054
0.338481
0.34533
0.351257
0.356454
0.361026
0.365112
0.368769
0.372101
0.37513
0.37794
0.380531
0.382974
0.385253
0.387438
0.3895
0.39151
0.393424
0.39531
0.397097
0.398845
0.400461
0.40202
0.403432
0.40484
0.406189
0.407707
0.409363
0.41142
0.413748
0.416514
0.419353
0.422282
0.424711
0.426665
0.427522
0.427577
0.426375
0.424647
0.422118
0.419874
0.417581
0.416436
0.415717
0.416549
0.417611
0.420018
0.421827
0.424417
0.425299
0.426474
0.424896
0.423451
0.418353
0.413531
0.404144
0.39531
0.380754
0.366982
0.345837
0.325453
0.295245
0.26517
0.221647
0.176308
0.112796
0.0434931
0.229124
0.234116
0.250378
0.266936
0.283036
0.297554
0.310187
0.321032
0.330328
0.338287
0.345156
0.351104
0.35632
0.36091
0.365012
0.368683
0.372026
0.375066
0.377886
0.380484
0.382935
0.38522
0.387411
0.389477
0.391491
0.393406
0.395292
0.397076
0.398824
0.400439
0.402005
0.403428
0.404857
0.40623
0.407775
0.409451
0.411515
0.413827
0.416556
0.419332
0.422191
0.424545
0.426446
0.427275
0.427345
0.426192
0.424545
0.422108
0.419955
0.417734
0.416629
0.415916
0.416717
0.417722
0.420047
0.421766
0.424266
0.425065
0.426172
0.424538
0.423058
0.417931
0.413097
0.403697
0.39486
0.380296
0.366519
0.345365
0.324961
0.294749
0.26463
0.221142
0.175737
0.112441
0.0431708
0.229672
0.23467
0.250622
0.266975
0.282939
0.297385
0.309989
0.32083
0.330135
0.338109
0.344995
0.350962
0.356195
0.360801
0.364918
0.368601
0.371957
0.375006
0.377834
0.38044
0.382898
0.385189
0.387385
0.389455
0.391473
0.393388
0.395275
0.397056
0.398803
0.400418
0.40199
0.403425
0.404873
0.406269
0.407841
0.409534
0.411606
0.4139
0.416594
0.419309
0.422099
0.424381
0.426231
0.427034
0.427118
0.426013
0.424444
0.422098
0.420033
0.417882
0.416817
0.416111
0.416883
0.417832
0.420081
0.421715
0.424128
0.424848
0.425891
0.424205
0.42269
0.417538
0.412691
0.40328
0.394441
0.379871
0.366089
0.344928
0.324506
0.294291
0.264131
0.220678
0.175214
0.112118
0.042881
0.230164
0.23517
0.250845
0.267012
0.282854
0.297235
0.309811
0.320647
0.329959
0.337947
0.34485
0.350832
0.356082
0.360702
0.364832
0.368527
0.371892
0.37495
0.377786
0.380398
0.382863
0.385159
0.387361
0.389434
0.391455
0.393371
0.395257
0.397036
0.398784
0.400398
0.401977
0.403422
0.40489
0.406307
0.407903
0.409613
0.41169
0.413968
0.416627
0.419284
0.422009
0.424223
0.426025
0.426804
0.426902
0.425842
0.424348
0.422088
0.420106
0.418023
0.416996
0.416297
0.417043
0.41794
0.420118
0.421671
0.424004
0.42465
0.425632
0.423898
0.422351
0.417175
0.412317
0.402897
0.394055
0.379481
0.365693
0.344528
0.324088
0.293873
0.263675
0.220256
0.174739
0.111826
0.0426226
0.230602
0.235616
0.251046
0.267048
0.282779
0.297102
0.309652
0.320483
0.329802
0.337802
0.344719
0.350716
0.35598
0.360613
0.364754
0.368459
0.371834
0.374899
0.377742
0.38036
0.38283
0.385131
0.387338
0.389414
0.391438
0.393354
0.395241
0.397018
0.398765
0.40038
0.401965
0.40342
0.404905
0.406341
0.407961
0.409684
0.411767
0.414029
0.416656
0.419258
0.421924
0.424076
0.425834
0.42659
0.426701
0.425684
0.424258
0.422079
0.420175
0.418154
0.417163
0.416471
0.417193
0.418043
0.420155
0.421634
0.423893
0.424471
0.425398
0.423619
0.422042
0.416844
0.411976
0.402548
0.393704
0.379126
0.365335
0.344165
0.32371
0.293496
0.263263
0.219877
0.174312
0.111566
0.0423944
0.230986
0.236008
0.251224
0.267082
0.282715
0.296985
0.309513
0.32034
0.329664
0.337674
0.344603
0.350613
0.355889
0.360533
0.364685
0.368399
0.371781
0.374853
0.377703
0.380326
0.382801
0.385106
0.387317
0.389396
0.391422
0.393339
0.395226
0.397001
0.398749
0.400364
0.401955
0.403418
0.404919
0.406373
0.408013
0.409749
0.411836
0.414083
0.41668
0.419233
0.421845
0.42394
0.425659
0.426395
0.426518
0.425539
0.424176
0.42207
0.420237
0.418273
0.417315
0.416631
0.417331
0.418138
0.42019
0.421602
0.423795
0.424312
0.425188
0.42337
0.421766
0.416549
0.411671
0.402237
0.39339
0.37881
0.365014
0.343842
0.323373
0.293161
0.262897
0.219542
0.173934
0.111337
0.0421953
0.231317
0.236347
0.25138
0.267113
0.282661
0.296885
0.309393
0.320215
0.329544
0.337562
0.344503
0.350524
0.35581
0.360464
0.364624
0.368346
0.371736
0.374814
0.377669
0.380296
0.382776
0.385084
0.387298
0.389379
0.391408
0.393325
0.395213
0.396987
0.398734
0.40035
0.401946
0.403417
0.404932
0.406401
0.408059
0.409805
0.411896
0.414129
0.4167
0.41921
0.421773
0.42382
0.425503
0.426222
0.426355
0.425411
0.424103
0.422062
0.420292
0.418379
0.417451
0.416772
0.417455
0.418224
0.420224
0.421577
0.42371
0.424173
0.425005
0.423151
0.421523
0.41629
0.411403
0.401964
0.393115
0.378533
0.364733
0.34356
0.323079
0.292868
0.262578
0.21925
0.173606
0.111139
0.0420246
0.231596
0.236633
0.251513
0.26714
0.282616
0.296801
0.309292
0.32011
0.329442
0.337468
0.344417
0.350448
0.355743
0.360405
0.364573
0.368301
0.371697
0.37478
0.37764
0.380271
0.382754
0.385065
0.387282
0.389365
0.391396
0.393313
0.395201
0.396974
0.398721
0.400337
0.401938
0.403416
0.404943
0.406426
0.408098
0.409853
0.411946
0.414168
0.416716
0.419189
0.421712
0.423716
0.425369
0.426073
0.426216
0.425301
0.42404
0.422055
0.420339
0.41847
0.417568
0.416895
0.417561
0.418298
0.420253
0.421555
0.423639
0.424055
0.424848
0.422964
0.421316
0.416069
0.411174
0.40173
0.39288
0.378297
0.364494
0.34332
0.322828
0.29262
0.262306
0.219003
0.173328
0.110971
0.0418814
0.231824
0.236867
0.251621
0.267163
0.28258
0.296733
0.309209
0.320024
0.329359
0.337391
0.344348
0.350385
0.355688
0.360357
0.364531
0.368264
0.371665
0.374752
0.377615
0.38025
0.382736
0.385049
0.387269
0.389354
0.391386
0.393303
0.395192
0.396963
0.398711
0.400327
0.401932
0.403415
0.404952
0.406446
0.40813
0.409892
0.411987
0.4142
0.416728
0.419171
0.42166
0.423629
0.425258
0.42595
0.4261
0.42521
0.423988
0.422049
0.420378
0.418545
0.417664
0.416996
0.41765
0.41836
0.420279
0.421539
0.42358
0.423957
0.424719
0.42281
0.421145
0.415886
0.410986
0.401538
0.392686
0.378102
0.364296
0.343122
0.322621
0.292415
0.262083
0.218799
0.173099
0.110835
0.0417652
0.232
0.237048
0.251706
0.267181
0.282552
0.29668
0.309145
0.319957
0.329294
0.337331
0.344293
0.350337
0.355645
0.360319
0.364498
0.368236
0.37164
0.37473
0.377597
0.380233
0.382722
0.385037
0.387259
0.389345
0.391378
0.393296
0.395184
0.396955
0.398703
0.40032
0.401927
0.403415
0.404959
0.406461
0.408155
0.409923
0.412019
0.414224
0.416737
0.419157
0.421619
0.423561
0.425171
0.425854
0.42601
0.425139
0.423948
0.422044
0.420409
0.418605
0.417741
0.417076
0.41772
0.418409
0.420299
0.421526
0.423534
0.423881
0.424618
0.42269
0.421011
0.415743
0.410838
0.401388
0.392534
0.37795
0.364142
0.342967
0.32246
0.292256
0.261909
0.218641
0.172922
0.110728
0.0416753
0.232126
0.237177
0.251767
0.267194
0.282532
0.296642
0.309099
0.319909
0.329248
0.337288
0.344254
0.350302
0.355615
0.360292
0.364475
0.368215
0.371622
0.374714
0.377583
0.380221
0.382712
0.385028
0.387252
0.389338
0.391373
0.39329
0.395179
0.396949
0.398697
0.400314
0.401923
0.403415
0.404964
0.406472
0.408173
0.409944
0.412042
0.414241
0.416744
0.419146
0.421589
0.423512
0.425108
0.425785
0.425945
0.425087
0.423919
0.422041
0.420431
0.418647
0.417795
0.417134
0.417771
0.418445
0.420313
0.421517
0.423501
0.423827
0.424546
0.422604
0.420915
0.415641
0.410732
0.40128
0.392425
0.377841
0.364031
0.342857
0.322344
0.292142
0.261784
0.218528
0.172795
0.110653
0.0416113
0.232201
0.237255
0.251804
0.267202
0.28252
0.296619
0.309071
0.31988
0.32922
0.337262
0.344231
0.350281
0.355596
0.360276
0.364461
0.368203
0.371611
0.374705
0.377575
0.380214
0.382706
0.385023
0.387247
0.389334
0.391369
0.393287
0.395175
0.396945
0.398694
0.400311
0.401921
0.403415
0.404968
0.406479
0.408184
0.409957
0.412055
0.414251
0.416748
0.41914
0.421572
0.423483
0.42507
0.425743
0.425905
0.425057
0.423901
0.422039
0.420444
0.418673
0.417828
0.417168
0.417801
0.418466
0.420322
0.421511
0.423482
0.423794
0.424502
0.422552
0.420857
0.415579
0.410668
0.401215
0.39236
0.377776
0.363965
0.34279
0.322274
0.292073
0.261709
0.21846
0.172718
0.110607
0.0415731
0.232226
0.237281
0.251816
0.267205
0.282517
0.296612
0.309062
0.319871
0.329211
0.337254
0.344223
0.350274
0.35559
0.360271
0.364456
0.368198
0.371608
0.374702
0.377572
0.380212
0.382704
0.385021
0.387246
0.389333
0.391368
0.393285
0.395174
0.396944
0.398692
0.40031
0.401921
0.403415
0.404969
0.406481
0.408187
0.409962
0.41206
0.414255
0.416749
0.419137
0.421566
0.423473
0.425058
0.425729
0.425893
0.425046
0.423895
0.422039
0.420449
0.418681
0.417839
0.41718
0.417811
0.418473
0.420325
0.421509
0.423475
0.423783
0.424487
0.422534
0.420838
0.415558
0.410647
0.401193
0.392338
0.377754
0.363943
0.342768
0.322251
0.29205
0.261684
0.218438
0.172693
0.110592
0.0415603
0.232201
0.237255
0.251804
0.267202
0.28252
0.296619
0.309071
0.31988
0.32922
0.337262
0.344231
0.350281
0.355596
0.360276
0.36446
0.368203
0.371611
0.374705
0.377575
0.380214
0.382706
0.385023
0.387247
0.389334
0.391369
0.393287
0.395175
0.396945
0.398694
0.400311
0.401922
0.403415
0.404968
0.406479
0.408184
0.409958
0.412056
0.414251
0.416748
0.41914
0.421572
0.423483
0.42507
0.425743
0.425906
0.425057
0.423901
0.422039
0.420444
0.418673
0.417828
0.417168
0.417801
0.418466
0.420321
0.421511
0.423481
0.423794
0.424502
0.422551
0.420857
0.415579
0.410668
0.401215
0.39236
0.377776
0.363965
0.34279
0.322275
0.292073
0.261709
0.21846
0.172718
0.110607
0.041573
0.232126
0.237177
0.251767
0.267194
0.282532
0.296642
0.309099
0.319909
0.329248
0.337288
0.344254
0.350302
0.355615
0.360292
0.364475
0.368215
0.371622
0.374714
0.377583
0.380221
0.382712
0.385028
0.387252
0.389338
0.391373
0.39329
0.395179
0.396949
0.398697
0.400314
0.401924
0.403415
0.404965
0.406472
0.408173
0.409945
0.412042
0.414241
0.416744
0.419146
0.421589
0.423513
0.425108
0.425785
0.425945
0.425088
0.423919
0.422042
0.420431
0.418647
0.417795
0.417133
0.41777
0.418444
0.420312
0.421516
0.4235
0.423826
0.424545
0.422603
0.420915
0.415641
0.410732
0.40128
0.392426
0.377842
0.364032
0.342857
0.322344
0.292142
0.261784
0.218528
0.172794
0.110652
0.0416112
0.232
0.237048
0.251706
0.267181
0.282552
0.29668
0.309145
0.319957
0.329294
0.337331
0.344293
0.350337
0.355645
0.360319
0.364498
0.368235
0.37164
0.37473
0.377597
0.380233
0.382722
0.385037
0.387259
0.389345
0.391378
0.393296
0.395184
0.396955
0.398703
0.40032
0.401927
0.403415
0.404959
0.406461
0.408155
0.409923
0.412019
0.414224
0.416738
0.419157
0.421619
0.423562
0.425171
0.425854
0.42601
0.425139
0.423949
0.422045
0.420409
0.418605
0.41774
0.417076
0.41772
0.418408
0.420297
0.421524
0.423533
0.42388
0.424617
0.422689
0.421011
0.415743
0.410838
0.401389
0.392535
0.377951
0.364143
0.342968
0.32246
0.292256
0.261909
0.218641
0.172921
0.110728
0.041675
0.231824
0.236867
0.251621
0.267163
0.282579
0.296733
0.309209
0.320023
0.329359
0.337391
0.344348
0.350385
0.355688
0.360357
0.364531
0.368264
0.371665
0.374752
0.377615
0.38025
0.382736
0.385049
0.387269
0.389354
0.391386
0.393303
0.395192
0.396963
0.398711
0.400328
0.401932
0.403416
0.404952
0.406446
0.40813
0.409892
0.411987
0.4142
0.416728
0.419171
0.42166
0.42363
0.425258
0.425951
0.426101
0.425211
0.423989
0.42205
0.420379
0.418546
0.417664
0.416996
0.417649
0.418359
0.420277
0.421537
0.423578
0.423956
0.424718
0.422809
0.421144
0.415886
0.410986
0.401539
0.392687
0.378104
0.364298
0.343123
0.322622
0.292416
0.262083
0.218799
0.173099
0.110834
0.0417649
0.231596
0.236633
0.251513
0.26714
0.282616
0.296801
0.309291
0.32011
0.329442
0.337468
0.344417
0.350448
0.355743
0.360405
0.364573
0.368301
0.371697
0.37478
0.37764
0.380271
0.382754
0.385065
0.387283
0.389365
0.391396
0.393313
0.395201
0.396974
0.398722
0.400338
0.401938
0.403416
0.404943
0.406426
0.408098
0.409853
0.411946
0.414168
0.416716
0.419189
0.421712
0.423716
0.42537
0.426074
0.426217
0.425302
0.424042
0.422056
0.42034
0.41847
0.417567
0.416894
0.41756
0.418296
0.420251
0.421553
0.423636
0.424053
0.424846
0.422963
0.421315
0.416069
0.411175
0.401732
0.392882
0.378299
0.364495
0.343321
0.322829
0.29262
0.262306
0.219002
0.173327
0.110971
0.0418811
0.231317
0.236347
0.25138
0.267113
0.282661
0.296885
0.309393
0.320215
0.329544
0.337562
0.344503
0.350523
0.35581
0.360464
0.364624
0.368346
0.371735
0.374814
0.377669
0.380296
0.382776
0.385084
0.387298
0.389379
0.391408
0.393325
0.395213
0.396987
0.398734
0.40035
0.401946
0.403417
0.404932
0.406402
0.408059
0.409806
0.411896
0.41413
0.4167
0.41921
0.421774
0.423821
0.425504
0.426223
0.426357
0.425413
0.424105
0.422063