/*--------------------------------*- C++ -*----------------------------------*\
| =========                 |                                                 |
| \\      /  F ield         | OpenFOAM: The Open Source CFD Toolbox           |
|  \\    /   O peration     | Version:  2.4.0                                 |
|   \\  /    A nd           | Web:      www.OpenFOAM.org                      |
|    \\/     M anipulation  |                                                 |
\*---------------------------------------------------------------------------*/
FoamFile
{
    version     2.0;
    format      ascii;
    class       volVectorField;
    location    "7.2";
    object      U;
}
// * * * * * * * * * * * * * * * * * * * * * * * * * * * * * * * * * * * * * //

dimensions      [0 1 -1 0 0 0 0];

internalField   nonuniform List<vector> 
6000
(
(0.513511 -0.0430699 -6.56301e-18)
(-0.317813 0.0668596 0)
(0.111732 -0.0273712 9.6919e-18)
(0.00941956 -0.00188313 0)
(0.00613236 -9.29246e-06 0)
(-0.028788 0.00558788 0)
(-0.0142375 0.00305384 4.15969e-18)
(-0.0309295 0.00563367 2.46134e-23)
(-0.0290937 0.00543889 0)
(-0.040012 0.00674542 0)
(-0.0438228 0.007315 3.50195e-18)
(-0.0531461 0.0081887 -6.76393e-18)
(-0.0599956 0.00890553 0)
(-0.0691582 0.00955416 0)
(-0.0774131 0.0100997 -1.53965e-18)
(-0.0863583 0.0104697 0)
(-0.0948133 0.0106987 0)
(-0.103266 0.0107422 -1.43432e-18)
(-0.111291 0.0106237 -1.40756e-18)
(-0.118984 0.0103265 0)
(-0.126116 0.00986325 1.36569e-18)
(-0.132596 0.00923799 6.75092e-19)
(-0.138452 0.0084884 -6.69123e-19)
(-0.143853 0.00762985 0)
(-0.148731 0.00666325 0)
(-0.153038 0.00559774 0)
(-0.156708 0.00444621 3.31358e-19)
(-0.159682 0.00322268 -3.3277e-19)
(-0.161888 0.00194381 0)
(-0.163234 0.000627661 0)
(-0.16358 -0.000719776 4.283e-20)
(-0.162821 -0.00210508 0)
(-0.161027 -0.0034333 3.54221e-19)
(-0.158108 -0.00470088 -3.61641e-19)
(-0.153984 -0.0058792 0)
(-0.148575 -0.00693768 0)
(-0.141799 -0.00784123 7.82084e-19)
(-0.133571 -0.00855511 0)
(-0.123815 -0.00903634 8.33868e-19)
(-0.112432 -0.00924938 0)
(-0.099368 -0.0091377 0)
(-0.0844775 -0.00867375 1.8639e-18)
(-0.0678003 -0.00777352 -3.87964e-18)
(-0.0489992 -0.0064326 0)
(-0.0285191 -0.00453635 0)
(-0.00523055 -0.00205788 2.20018e-18)
(0.018952 0.00106029 0)
(0.0470431 0.00488832 0)
(0.0751594 0.00951114 -4.93278e-18)
(0.109135 0.0149622 -5.12528e-18)
(0.140988 0.0214095 -5.27528e-18)
(0.182772 0.0288713 -5.82373e-21)
(0.217251 0.0374915 5.52458e-18)
(0.270915 0.0475817 0)
(0.304767 0.0586711 -9.3714e-21)
(0.379675 0.0727743 -5.86621e-18)
(0.403211 0.0856333 4.91294e-18)
(0.523524 0.108029 5.83345e-18)
(0.510622 0.117783 1.73337e-20)
(0.752812 0.16415 0)
(0.726764 -0.108551 5.02649e-18)
(-0.209423 0.0626891 5.67256e-18)
(0.0918462 -0.0316677 -4.70167e-18)
(-0.0217543 0.00857695 -5.01999e-18)
(0.00535445 0.0013294 0)
(-0.0419363 0.00894868 0)
(-0.0235731 0.00502376 -4.09725e-18)
(-0.0421319 0.00807456 7.85949e-18)
(-0.039991 0.00783535 0)
(-0.0511342 0.00905807 0)
(-0.0553115 0.0097745 -3.41381e-18)
(-0.0644909 0.0105159 3.28847e-18)
(-0.0715543 0.0113034 1.5849e-18)
(-0.080368 0.0118237 0)
(-0.0884355 0.0123194 1.48611e-18)
(-0.096869 0.0125516 0)
(-0.104858 0.0126704 0)
(-0.112698 0.0125741 0)
(-0.120108 0.0123254 0)
(-0.12713 0.0118873 0)
(-0.133646 0.011288 1.34993e-22)
(-0.139659 0.0105375 0)
(-0.145166 0.00967312 -6.34824e-19)
(-0.150162 0.00869323 0)
(-0.154577 0.00759779 0)
(-0.158361 0.006396 3.12151e-19)
(-0.161452 0.00510203 -3.12058e-19)
(-0.163792 0.00373005 2.88463e-23)
(-0.165317 0.00229563 1.5716e-19)
(-0.16596 0.000815354 0)
(-0.165683 -0.000684596 -4.0009e-20)
(-0.164448 -0.00219169 -1.62072e-19)
(-0.162125 -0.00366409 -1.01287e-22)
(-0.158636 -0.00507996 3.35351e-19)
(-0.153901 -0.00640721 -3.42231e-19)
(-0.147837 -0.00761293 0)
(-0.140363 -0.00865853 0)
(-0.131394 -0.00950702 0)
(-0.120852 -0.0101103 0)
(-0.108639 -0.0104318 0)
(-0.0947005 -0.0104067 -1.62378e-18)
(-0.0788883 -0.0100099 0)
(-0.061247 -0.00914407 1.74354e-18)
(-0.0414331 -0.00780977 1.80682e-18)
(-0.0198801 -0.00587926 0)
(0.00445747 -0.00333448 0)
(0.0299961 -7.8502e-05 0)
(0.0593619 0.00389289 0)
(0.089206 0.00880169 4.31247e-18)
(0.124719 0.0145036 0)
(0.158777 0.0214639 0)
(0.202418 0.0292757 -4.71282e-18)
(0.239828 0.0387762 -4.74994e-18)
(0.295737 0.0492563 0)
(0.33371 0.0618459 -9.41891e-18)
(0.411151 0.0761969 0)
(0.44244 0.0920916 -8.25281e-18)
(0.56372 0.113845 -4.79171e-18)
(0.569946 0.1305 1.94285e-18)
(0.808141 0.172559 4.57052e-18)
(0.798656 -0.0913466 -3.36047e-19)
(-0.0780446 0.0481006 -5.30154e-18)
(0.0670687 -0.0277387 0)
(-0.0537716 0.016799 4.9798e-18)
(0.00207211 0.00266782 0)
(-0.046608 0.0104228 0)
(-0.0275039 0.00613399 0)
(-0.0456881 0.00904229 -3.8332e-18)
(-0.0434957 0.00900472 0)
(-0.0542122 0.0100461 -3.45596e-18)
(-0.0582722 0.0109021 0)
(-0.0670607 0.0115473 0)
(-0.0738277 0.0123723 -1.52095e-18)
(-0.0822154 0.0128242 0)
(-0.0898813 0.0132876 0)
(-0.0978865 0.0134513 0)
(-0.105464 0.0135138 0)
(-0.112901 0.0133505 0)
(-0.119929 0.0130401 0)
(-0.126602 0.0125379 1.24307e-18)
(-0.132816 0.0118788 -1.21998e-18)
(-0.138585 0.0110721 0)
(-0.14387 0.0101519 -7.42311e-23)
(-0.148637 0.00911123 -5.86457e-19)
(-0.152821 0.00795053 0)
(-0.156372 0.0066788 -5.78651e-19)
(-0.159229 0.00531043 0)
(-0.161335 0.00385951 2.88482e-19)
(-0.162629 0.00234185 -1.446e-19)
(-0.16305 0.000773889 0)
(-0.16255 -0.000817445 0)
(-0.161066 -0.00240435 1.4792e-19)
(-0.15849 -0.00396724 -9.94787e-23)
(-0.154745 -0.00547852 0)
(-0.149751 -0.00690499 6.18916e-19)
(-0.143426 -0.00821292 0)
(-0.13569 -0.00936263 6.45126e-19)
(-0.126454 -0.0103166 0)
(-0.115645 -0.0110251 0)
(-0.103161 -0.0114516 0)
(-0.0889495 -0.0115284 1.43626e-18)
(-0.0728612 -0.0112312 0)
(-0.0549396 -0.0104592 0)
(-0.0348463 -0.00921322 -1.57578e-18)
(-0.012986 -0.00736176 0)
(0.0116069 -0.00489265 0)
(0.0375925 -0.00168015 1.72416e-18)
(0.0672794 0.00221784 -1.778e-18)
(0.0977101 0.00712684 -1.82666e-18)
(0.133564 0.0127511 0)
(0.168402 0.0197918 0)
(0.212373 0.0274753 0)
(0.2509 0.0372193 3.92756e-18)
(0.307055 0.0473924 4.01519e-18)
(0.346763 0.0605818 3.85666e-18)
(0.424164 0.074107 0)
(0.458221 0.091448 3.32083e-18)
(0.578709 0.110962 7.60827e-18)
(0.589596 0.130764 0)
(0.822794 0.165835 -3.51301e-18)
(0.836486 -0.059932 -2.6341e-19)
(0.0437168 0.0395626 4.87214e-18)
(0.0473188 -0.0205519 -4.5679e-18)
(-0.0750535 0.0220988 0)
(-0.000723537 0.00312607 0)
(-0.0483956 0.0113749 0)
(-0.0294869 0.0067776 0)
(-0.0470433 0.00965146 0)
(-0.0449062 0.00974186 0)
(-0.0552175 0.0107119 3.34249e-18)
(-0.0591641 0.0116563 3.17963e-18)
(-0.0676158 0.012278 0)
(-0.0741218 0.0131293 0)
(-0.0821654 0.0135596 0)
(-0.0895128 0.0140076 1.35219e-18)
(-0.097189 0.0141388 0)
(-0.104454 0.014169 1.26636e-18)
(-0.111589 0.013967 -1.23037e-18)
(-0.118332 0.0136172 0)
(-0.124742 0.0130734 -1.17038e-18)
(-0.130722 0.0123737 0)
(-0.13628 0.0115261 -5.62937e-19)
(-0.141364 0.0105623 1.10867e-18)
(-0.14593 0.00947299 5.4731e-19)
(-0.149915 0.00825893 0)
(-0.15327 0.00692888 2.6887e-19)
(-0.155934 0.00549722 0)
(-0.157852 0.00397809 2.66915e-19)
(-0.158963 0.00238768 0)
(-0.159207 0.000743693 0)
(-0.15853 -0.000930808 0)
(-0.15686 -0.00260855 1.35573e-19)
(-0.154102 -0.00426631 -5.47859e-19)
(-0.150179 -0.00587757 0)
(-0.14501 -0.00740892 -2.81581e-19)
(-0.138514 -0.00882608 0)
(-0.130611 -0.0100887 -5.83948e-19)
(-0.121212 -0.0111585 0)
(-0.110244 -0.011985 0)
(-0.0976055 -0.0125308 0)
(-0.0832441 -0.0127272 1.28161e-18)
(-0.0670098 -0.0125486 0)
(-0.0489438 -0.0118943 1.35227e-18)
(-0.0287153 -0.0107599 -1.39021e-18)
(-0.00669849 -0.00901901 0)
(0.0180029 -0.00665377 -1.4659e-18)
(0.0442266 -0.0035311 -3.01014e-18)
(0.0740314 0.000270302 1.54676e-18)
(0.104773 0.00511314 3.16053e-18)
(0.140716 0.0106461 -3.23076e-18)
(0.175981 0.0176595 -3.27476e-18)
(0.219972 0.0252349 0)
(0.259147 0.0350271 -3.32779e-18)
(0.31516 0.0450089 -3.37872e-18)
(0.355945 0.0584168 -3.19163e-18)
(0.432836 0.0714796 0)
(0.46876 0.0894232 0)
(0.587862 0.107713 -3.07312e-18)
(0.602354 0.128612 0)
(0.829696 0.159264 2.68291e-18)
(0.861507 -0.0344699 -2.46467e-19)
(0.15319 0.0356359 -8.98691e-20)
(0.0542412 -0.0147588 4.52733e-18)
(-0.0864532 0.0249897 4.92785e-18)
(-0.00316097 0.00305182 0)
(-0.0491086 0.0121121 -4.19662e-18)
(-0.0305637 0.0072087 0)
(-0.0475233 0.010129 0)
(-0.0454316 0.0102919 0)
(-0.0553819 0.0112567 3.243e-18)
(-0.0592106 0.0122579 -3.07617e-18)
(-0.0673582 0.0128895 0)
(-0.0736225 0.0137603 0)
(-0.0813592 0.0141879 0)
(-0.088424 0.0146264 -1.29532e-18)
(-0.0958105 0.0147385 0)
(-0.102802 0.0147451 -1.20771e-18)
(-0.109671 0.0145149 1.17092e-18)
(-0.116165 0.0141339 0)
(-0.122341 0.0135568 0)
(-0.128106 0.0128231 5.42401e-19)
(-0.133464 0.0119397 5.31649e-19)
(-0.138352 0.0109359 -1.04525e-18)
(-0.142726 0.00980128 -5.15108e-19)
(-0.146523 0.00853701 0)
(-0.149694 0.00715155 2.5214e-19)
(-0.15218 0.00565921 0)
(-0.153924 0.00407419 -2.49451e-19)
(-0.154867 0.0024128 1.24528e-19)
(-0.154951 0.000693078 0)
(-0.154114 -0.00106297 0)
(-0.152283 -0.00282997 -2.51569e-19)
(-0.149369 -0.00458329 2.53658e-19)
(-0.145296 -0.00629579 0)
(-0.139984 -0.00793378 -2.59509e-19)
(-0.133351 -0.00946255 0)
(-0.125316 -0.0108411 5.35765e-19)
(-0.115794 -0.0120307 0)
(-0.104709 -0.0129799 0)
(-0.0919594 -0.0136505 0)
(-0.0774942 -0.0139734 -1.16643e-18)
(-0.0611633 -0.0139205 -1.19358e-18)
(-0.0430051 -0.0133932 -1.22434e-18)
(-0.0226963 -0.0123795 1.50922e-21)
(-0.000581482 -0.0107613 -1.28391e-18)
(0.024174 -0.00851163 1.31543e-18)
(0.050547 -0.00549929 2.68791e-18)
(0.0803926 -0.00180583 0)
(0.111328 0.00293992 -1.40164e-18)
(0.14727 0.00837408 2.85698e-18)
(0.182812 0.0153087 2.88314e-18)
(0.22672 0.0227842 0)
(0.266341 0.0325285 0)
(0.322101 0.0423748 0)
(0.363679 0.0558037 2.74748e-18)
(0.439957 0.0685891 0)
(0.477343 0.0867038 0)
(0.594993 0.104272 2.54568e-18)
(0.612525 0.125352 -9.23698e-19)
(0.834324 0.152927 -2.19468e-18)
(0.880291 -0.0137322 -2.28008e-19)
(0.250944 0.0348596 -4.48579e-18)
(0.0815816 -0.00988697 0)
(-0.0887394 0.0268211 -4.90569e-18)
(-0.00554174 0.00276024 -4.42308e-18)
(-0.0493134 0.0127211 2.82586e-22)
(-0.0310991 0.00750796 0)
(-0.0475353 0.0105361 0)
(-0.0454549 0.0107298 0)
(-0.0550804 0.0117293 -3.15795e-18)
(-0.0587808 0.012767 0)
(-0.0666444 0.0134251 0)
(-0.0726747 0.0143105 1.35767e-18)
(-0.0801239 0.0147446 0)
(-0.0869226 0.0151763 0)
(-0.0940383 0.0152763 0)
(-0.100773 0.0152639 0)
(-0.107394 0.0150111 -1.12147e-18)
(-0.113652 0.0146037 0)
(-0.119607 0.0139981 1.05922e-18)
(-0.125163 0.0132342 -5.16838e-19)
(-0.130323 0.0123181 -5.05907e-19)
(-0.135018 0.0112765 9.93039e-19)
(-0.139202 0.0100989 9.77269e-19)
(-0.142815 0.00878665 0)
(-0.145807 0.00734793 -2.38505e-19)
(-0.148119 0.005797 0)
(-0.149695 0.00414809 0)
(-0.150477 0.0024175 -2.34618e-19)
(-0.150405 0.000623255 0)
(-0.149416 -0.00121321 0)
(-0.147435 -0.00306782 2.35918e-19)
(-0.144379 -0.00491551 0)
(-0.140169 -0.00672833 0)
(-0.134729 -0.00847233 2.42318e-19)
(-0.127975 -0.0101124 0)
(-0.119828 -0.0116069 -4.9865e-19)
(-0.110201 -0.0129166 0)
(-0.0990197 -0.0139894 0)
(-0.0861825 -0.0147859 0)
(-0.0716381 -0.0152371 0)
(-0.0552366 -0.015312 1.10085e-18)
(-0.0370142 -0.0149147 1.12458e-18)
(-0.0166544 -0.0140252 1.25975e-21)
(0.0055258 -0.0125342 1.17651e-18)
(0.030306 -0.0104051 1.19916e-18)
(0.056776 -0.00751275 -1.22438e-18)
(0.0866225 -0.00393257 0)
(0.117683 0.000700654 -1.26549e-18)
(0.15358 0.00603222 1.285e-18)
(0.18931 0.0128615 -2.58235e-18)
(0.233089 0.0202411 0)
(0.273038 0.0298864 0)
(0.328506 0.0396269 -2.57481e-18)
(0.370706 0.0529686 -2.4049e-18)
(0.446353 0.065579 2.44209e-18)
(0.484959 0.0836266 1.94889e-18)
(0.601191 0.100754 -2.20552e-18)
(0.621372 0.121544 7.90066e-19)
(0.838021 0.146861 0)
(0.895359 0.00501173 -2.04969e-19)
(0.337841 0.0365275 0)
(0.120432 -0.00462171 4.32145e-18)
(-0.0791508 0.0276165 4.84227e-18)
(-0.00784227 0.00253785 -4.96307e-22)
(-0.0492193 0.0132178 4.09839e-18)
(-0.0312462 0.00771249 0)
(-0.0472399 0.0108933 0)
(-0.0451333 0.0110887 0)
(-0.0544645 0.0121477 1.54343e-18)
(-0.0580254 0.013209 1.45678e-18)
(-0.0656194 0.0139023 0)
(-0.0714183 0.0147993 -1.31815e-18)
(-0.0785914 0.0152449 1.26001e-18)
(-0.0851322 0.0156715 0)
(-0.091987 0.0157638 0)
(-0.0984739 0.0157353 0)
(-0.104854 0.0154635 -1.0334e-22)
(-0.110884 0.0150329 0)
(-0.116621 0.014402 -2.03383e-18)
(-0.12197 0.0136105 4.95599e-19)
(-0.126931 0.0126636 4.84419e-19)
(-0.131432 0.011586 1.58065e-23)
(-0.135426 0.0103671 -4.66737e-19)
(-0.138855 0.0090086 0)
(-0.141668 0.00751842 0)
(-0.143807 0.00591072 0)
(-0.145217 0.00419976 1.1185e-19)
(-0.145839 0.00240174 2.22829e-19)
(-0.145613 0.000534521 0)
(-0.144475 -0.00138103 0)
(-0.14235 -0.00332161 -2.23266e-19)
(-0.139157 -0.00526196 -1.1221e-19)
(-0.134819 -0.00717351 0)
(-0.129258 -0.00902205 0)
(-0.122392 -0.010772 0)
(-0.114143 -0.0123814 0)
(-0.104423 -0.0138103 0)
(-0.0931581 -0.015006 0)
(-0.0802471 -0.015928 0)
(-0.0656387 -0.0165074 0)
(-0.0491833 -0.0167102 0)
(-0.0309146 -0.0164437 -9.59722e-22)
(-0.0105228 -0.01568 1.07119e-18)
(0.0117011 -0.0143179 0)
(0.0364864 -0.0123121 -2.22333e-18)
(0.0630172 -0.00954491 -1.13012e-18)
(0.0928392 -0.00608113 0)
(0.123977 -0.00156909 1.16567e-18)
(0.159803 0.00365701 -1.18045e-18)
(0.195659 0.0103656 2.36506e-18)
(0.239286 0.0176503 -2.37383e-18)
(0.279479 0.027167 0)
(0.334641 0.0368163 7.45685e-21)
(0.377344 0.0500084 2.1688e-18)
(0.452369 0.0624985 -4.37657e-18)
(0.492017 0.0803429 -1.32497e-20)
(0.606895 0.0971829 -1.93228e-18)
(0.629412 0.117428 6.56413e-19)
(0.841272 0.141015 1.58111e-18)
(0.907667 0.0223024 -1.01734e-18)
(0.414779 0.0400898 0)
(0.16663 0.00133388 9.92328e-21)
(-0.0575149 0.0277753 -3.27345e-21)
(-0.00949105 0.00260696 4.45002e-18)
(-0.0489032 0.0136113 4.07442e-18)
(-0.0310739 0.00784147 0)
(-0.0467094 0.0112098 3.46076e-18)
(-0.0445422 0.0113857 0)
(-0.0536065 0.0125215 -1.51363e-18)
(-0.0570172 0.0135972 5.86062e-23)
(-0.064353 0.0143309 -1.35226e-18)
(-0.0699211 0.0152371 0)
(-0.0768257 0.0156973 -2.4518e-18)
(-0.0831127 0.0161204 0)
(-0.0897119 0.0162078 0)
(-0.0959548 0.0161655 0)
(-0.102098 0.0158774 1.04438e-18)
(-0.107902 0.0154259 0)
(-0.113422 0.014772 9.81264e-19)
(-0.118564 0.0139546 -9.55359e-19)
(-0.123323 0.0129784 0)
(-0.127628 0.0118661 6.85851e-24)
(-0.13143 0.0106074 0)
(-0.134672 0.00920417 0)
(-0.137305 0.0076641 -2.17934e-19)
(-0.139269 0.00600122 0)
(-0.140512 0.00422985 -2.1413e-19)
(-0.140973 0.00236604 -1.06556e-19)
(-0.140594 0.000427368 -2.65733e-20)
(-0.139307 -0.00156586 2.65574e-20)
(-0.137039 -0.00359086 1.06463e-19)
(-0.133712 -0.00562216 2.1382e-19)
(-0.129249 -0.00763078 0)
(-0.123572 -0.00958224 2.17105e-19)
(-0.116601 -0.0114406 0)
(-0.108255 -0.0131634 0)
(-0.0984493 -0.0147101 0)
(-0.0871094 -0.0160276 4.58378e-19)
(-0.074134 -0.0170741 0)
(-0.0594721 -0.0177811 0)
(-0.0429746 -0.0181114 9.68225e-19)
(-0.0246725 -0.0179756 -9.8788e-19)
(-0.00426237 -0.0173382 0)
(0.0179886 -0.0161059 0)
(0.0427641 -0.014225 1.04261e-18)
(0.0693281 -0.0115858 1.05872e-18)
(0.0991071 -0.00824039 -1.07337e-18)
(0.130286 -0.00385485 0)
(0.166022 0.00126369 0)
(0.201958 0.00784191 0)
(0.245417 0.0150316 5.05735e-21)
(0.285791 0.024401 0)
(0.34064 0.0339672 2.14098e-18)
(0.383754 0.0469701 0)
(0.458175 0.0593732 1.99473e-18)
(0.498725 0.0769287 -1.56662e-18)
(0.612314 0.0935767 3.48645e-18)
(0.636905 0.113126 -5.88869e-19)
(0.844293 0.135361 -1.416e-18)
(0.917703 0.0379348 1.70976e-19)
(0.482637 0.0450102 -3.90824e-18)
(0.217412 0.00794677 -4.0816e-18)
(-0.0268946 0.0280861 -3.26185e-21)
(-0.00925804 0.00311978 -4.46262e-18)
(-0.0483517 0.0139317 -4.06989e-18)
(-0.0306082 0.00790626 0)
(-0.0459764 0.0114904 -3.42435e-18)
(-0.0437192 0.0116308 0)
(-0.0525432 0.0128561 -1.48918e-18)
(-0.0557947 0.0139394 -1.39895e-18)
(-0.0628822 0.0147168 1.32465e-18)
(-0.0682195 0.0156304 -1.25634e-18)
(-0.074861 0.0161074 1.19686e-18)
(-0.0808961 0.0165279 -1.1429e-18)
(-0.0872426 0.0166127 1.09518e-18)
(-0.0932428 0.0165584 0)
(-0.0991504 0.016256 0)
(-0.104727 0.0157853 0)
(-0.11003 0.0151101 4.75533e-19)
(-0.114962 0.0142684 4.62492e-19)
(-0.119516 0.0132639 0)
(-0.123621 0.0121181 -4.4137e-19)
(-0.127228 0.0108208 0)
(-0.130281 0.00937416 0)
(-0.13273 0.00778555 2.10103e-19)
(-0.134519 0.00606894 -2.07803e-19)
(-0.135591 0.00423864 1.03062e-19)
(-0.13589 0.00231053 0)
(-0.135355 0.000301851 5.10838e-20)
(-0.133919 -0.00176763 -5.10144e-20)
(-0.131509 -0.00387551 0)
(-0.128049 -0.00599609 -1.02522e-19)
(-0.123462 -0.00810008 2.06175e-19)
(-0.117671 -0.0101528 -2.07905e-19)
(-0.110596 -0.0121179 0)
(-0.102159 -0.0139526 0)
(-0.0922716 -0.0156155 0)
(-0.0808624 -0.0170535 -4.37503e-19)
(-0.0678293 -0.0182233 0)
(-0.0531219 -0.0190568 0)
(-0.0365911 -0.0195138 -9.21563e-19)
(-0.0182656 -0.0195081 0)
(0.00215202 -0.0189973 9.54786e-19)
(0.024416 -0.0178949 -9.70321e-19)
(0.0491693 -0.0161399 0)
(0.075744 -0.0136305 9.99032e-19)
(0.105465 -0.0104045 2.0261e-18)
(0.136657 -0.006149 -1.02041e-18)
(0.172287 -0.00113962 0)
(0.208265 0.00530164 0)
(0.251545 0.0123957 1.02984e-18)
(0.292047 0.0216049 0)
(0.346582 0.0310927 1.98358e-18)
(0.390031 0.0438792 0)
(0.463865 0.0562168 1.83201e-18)
(0.505203 0.0734245 1.42272e-18)
(0.617563 0.0899447 -1.59671e-18)
(0.644001 0.108703 0)
(0.847196 0.129875 1.26721e-18)
(0.925875 0.0519151 3.10117e-19)
(0.542259 0.0508387 7.39936e-20)
(0.270613 0.0151043 3.9905e-18)
(0.0107174 0.0290357 -3.42878e-21)
(-0.00597427 0.00415573 -5.86967e-22)
(-0.0474424 0.0142336 0)
(-0.0298463 0.00791566 0)
(-0.0450506 0.011738 0)
(-0.042681 0.0118298 -1.56777e-18)
(-0.0512926 0.013155 2.93853e-18)
(-0.0543779 0.0142403 0)
(-0.0612269 0.0150638 1.30159e-18)
(-0.0663331 0.0159831 -5.59729e-23)
(-0.0727159 0.0164783 -1.17224e-18)
(-0.0784999 0.0168971 -6.02684e-23)
(-0.0845951 0.016981 -1.06971e-18)
(-0.0903527 0.0169162 0)
(-0.0960241 0.0166012 0)
(-0.101373 0.0161128 0)
(-0.106455 0.0154177 -4.62597e-19)
(-0.111174 0.0145526 0)
(-0.11552 0.0135209 4.38167e-19)
(-0.11942 0.0123426 4.2831e-19)
(-0.122829 0.0110078 -4.1987e-19)
(-0.125689 0.00951888 0)
(-0.127952 0.00788299 0)
(-0.12956 0.00611396 2.01119e-19)
(-0.13046 0.00422612 0)
(-0.130593 0.00223511 9.90492e-20)
(-0.129899 0.00015781 -2.46738e-20)
(-0.128312 -0.0019865 2.46249e-20)
(-0.125759 -0.00417568 -9.85244e-20)
(-0.122165 -0.00638387 0)
(-0.117455 -0.00858153 -1.98696e-19)
(-0.111552 -0.0107338 0)
(-0.104375 -0.0128039 0)
(-0.0958473 -0.0147488 4.08506e-19)
(-0.0858825 -0.0165264 0)
(-0.0744082 -0.0180833 0)
(-0.0613227 -0.0193749 0)
(-0.0465759 -0.0203337 0)
(-0.030019 -0.0209163 0)
(-0.0116784 -0.0210399 0)
(0.00873759 -0.0206554 -1.82594e-18)
(0.0310024 -0.0196828 9.27115e-19)
(0.0557227 -0.0180541 9.39846e-19)
(0.0822888 -0.0156752 -1.90399e-18)
(0.11194 -0.0125696 -9.63956e-19)
(0.143119 -0.00844641 9.70144e-19)
(0.178631 -0.0035475 -9.74847e-19)
(0.214618 0.00275209 0)
(0.257709 0.00974966 2.00376e-21)
(0.298294 0.0187892 -1.87697e-18)
(0.352514 0.0282012 -1.86763e-18)
(0.396233 0.0407514 -1.70477e-18)
(0.469499 0.053038 -3.42431e-18)
(0.511523 0.0698553 -1.32653e-18)
(0.62271 0.0862926 1.46725e-18)
(0.650797 0.104198 4.59144e-19)
(0.850044 0.124542 -1.17131e-18)
(0.932555 0.0644458 -1.49127e-19)
(0.594449 0.0572315 3.7312e-18)
(0.324542 0.022682 2.37992e-21)
(0.0544825 0.0306884 -3.80881e-21)
(0.00134509 0.00606538 4.39269e-18)
(-0.0458843 0.0145876 4.1148e-18)
(-0.0287565 0.00788071 -3.68234e-18)
(-0.0439248 0.0119543 1.69189e-18)
(-0.0414304 0.0119864 -4.1141e-23)
(-0.0498607 0.0134205 -1.45355e-18)
(-0.0527755 0.0145029 -1.35929e-18)
(-0.0593964 0.0153741 -1.28224e-18)
(-0.0642719 0.0162977 2.42377e-18)
(-0.0704002 0.0168123 -5.85258e-23)
(-0.0759335 0.01723 1.09627e-18)
(-0.0817781 0.0173145 0)
(-0.0872922 0.0172402 1.00481e-18)
(-0.0927262 0.016914 0)
(-0.0978453 0.0164091 -9.32826e-19)
(-0.102704 0.0156952 -4.51527e-19)
(-0.107205 0.0148077 -4.38438e-19)
(-0.111339 0.0137497 -2.7067e-24)
(-0.115031 0.0125397 -4.17139e-19)
(-0.118236 0.0111685 4.08661e-19)
(-0.120899 0.00963834 0)
(-0.122971 0.00795634 -1.97763e-19)
(-0.124396 0.00613614 0)
(-0.125119 0.00419207 0)
(-0.125083 0.00213952 -9.61541e-20)
(-0.124228 -5.0278e-06 0)
(-0.122488 -0.00222273 0)
(-0.11979 -0.00449163 9.54948e-20)
(-0.116061 -0.00678575 0)
(-0.111226 -0.00907533 0)
(-0.10521 -0.0113253 1.93577e-19)
(-0.097932 -0.0134987 0)
(-0.0893161 -0.015552 -3.94926e-19)
(-0.0792759 -0.0174425 0)
(-0.0677397 -0.0191166 4.05217e-19)
(-0.0546058 -0.0205284 0)
(-0.0398248 -0.0216111 0)
(-0.023248 -0.0223182 0)
(-0.00489919 -0.0225699 0)
(0.0155068 -0.0223113 8.78087e-19)
(0.0377613 -0.0214678 0)
(0.0624386 -0.0199654 -1.80494e-18)
(0.0889793 -0.0177175 9.13125e-19)
(0.118548 -0.0147327 -9.21895e-19)
(0.149692 -0.0107433 9.26297e-19)
(0.185075 -0.00595603 9.32076e-19)
(0.221042 0.000198462 0)
(0.263935 0.00709842 9.22365e-19)
(0.304565 0.0159613 2.67591e-18)
(0.358469 0.0252985 -1.76354e-18)
(0.402401 0.0375975 1.6143e-18)
(0.475114 0.0498423 1.61475e-18)
(0.517737 0.0662379 0)
(0.6278 0.0826245 -1.37853e-18)
(0.657357 0.0996373 -8.47935e-19)
(0.852878 0.119346 0)
(0.938053 0.0757295 2.87793e-19)
(0.639962 0.0639228 0)
(0.37787 0.0305568 1.10422e-22)
(0.102581 0.0332078 -4.3044e-21)
(0.015491 0.00843604 -4.31495e-18)
(-0.0430963 0.0150949 -8.30204e-18)
(-0.0272663 0.00782131 7.39996e-18)
(-0.0425754 0.012141 -1.68935e-18)
(-0.0399591 0.0121032 1.54736e-18)
(-0.0482448 0.013654 0)
(-0.0509884 0.0147291 -3.79872e-23)
(-0.0573929 0.0156496 0)
(-0.0620393 0.0165758 -2.38981e-18)
(-0.0679173 0.0171107 1.13348e-18)
(-0.0732003 0.0175278 0)
(-0.0787947 0.0176141 0)
(-0.0840641 0.0175315 -9.85987e-19)
(-0.0892591 0.0171951 0)
(-0.0941456 0.0166748 9.13802e-19)
(-0.0987781 0.0159431 4.4199e-19)
(-0.103058 0.0150339 6.2778e-25)
(-0.106974 0.0139503 -4.17447e-19)
(-0.110453 0.0127094 -4.07515e-19)
(-0.113451 0.0113027 0)
(-0.115913 0.00973243 0)
(-0.11779 0.00800543 1.92912e-19)
(-0.119027 0.00613526 0)
(-0.119569 0.00413622 9.43127e-20)
(-0.119361 0.00202345 -9.36485e-20)
(-0.118341 -0.000186988 2.32986e-20)
(-0.116444 -0.00247663 -2.32287e-20)
(-0.113598 -0.00482367 9.28677e-20)
(-0.109733 -0.007202 -9.30424e-20)
(-0.104773 -0.00958175 1.86862e-19)
(-0.0986428 -0.0119277 -1.88108e-19)
(-0.0912641 -0.0142024 0)
(-0.0825606 -0.0163623 0)
(-0.0724465 -0.0183639 0)
(-0.0608508 -0.0201534 -1.68197e-22)
(-0.047672 -0.0216837 3.98641e-19)
(-0.0328612 -0.0228887 0)
(-0.0162698 -0.0237187 0)
(0.00208078 -0.0240973 0)
(0.0224692 -0.0239639 0)
(0.044703 -0.0232488 0)
(0.0693281 -0.0218723 7.21212e-22)
(0.095828 -0.0197555 0)
(0.125304 -0.0168915 1.77659e-18)
(0.156394 -0.0130371 -1.78299e-18)
(0.191636 -0.00836232 -8.94016e-19)
(0.227557 -0.00235547 0)
(0.270243 0.00444557 0)
(0.310883 0.0131264 -1.70359e-18)
(0.364468 0.0223887 4.32884e-21)
(0.408563 0.0344252 -1.5287e-18)
(0.480735 0.046634 1.52599e-18)
(0.523879 0.0625841 1.1618e-18)
(0.63286 0.0789436 -1.29102e-18)
(0.663726 0.0950395 7.80885e-19)
(0.855722 0.114274 1.00859e-18)
(0.942622 0.0859159 1.31887e-19)
(0.679506 0.0707034 -3.46155e-18)
(0.429583 0.0386142 -7.5051e-18)
(0.153564 0.0366478 -4.93129e-21)
(0.0365419 0.0112414 4.22357e-18)
(-0.0380102 0.0158878 4.17748e-18)
(-0.0252348 0.00777653 -1.86383e-18)
(-0.040959 0.0123011 0)
(-0.0382472 0.012182 0)
(-0.0464341 0.0138568 1.43362e-18)
(-0.0490106 0.0149205 1.33415e-18)
(-0.055213 0.0158912 0)
(-0.0596334 0.0168188 1.18091e-18)
(-0.0652662 0.0173745 0)
(-0.0702998 0.0177914 0)
(-0.0756447 0.0178806 0)
(-0.0806682 0.0177904 0)
(-0.0856224 0.0174449 9.31538e-19)
(-0.0902735 0.0169101 4.48745e-19)
(-0.094676 0.0161614 -4.33792e-19)
(-0.0987305 0.0152313 3.39157e-24)
(-0.102425 0.0141227 0)
(-0.105687 0.0128518 3.99242e-19)
(-0.108473 0.0114104 0)
(-0.110729 0.00980095 0)
(-0.112407 0.00803001 1.887e-19)
(-0.113451 0.00611102 -1.86265e-19)
(-0.113809 0.00405825 -9.2203e-20)
(-0.113424 0.00188654 9.15241e-20)
(-0.112236 -0.000388434 -4.55161e-20)
(-0.110179 -0.00274857 4.53626e-20)
(-0.107183 -0.00517214 -9.06565e-20)
(-0.103179 -0.007633 9.07952e-20)
(-0.0980916 -0.0101011 -5.06753e-23)
(-0.0918471 -0.0125411 -1.83325e-19)
(-0.0843671 -0.0149153 0)
(-0.0755764 -0.0171798 0)
(-0.0653895 -0.0192906 0)
(-0.0537365 -0.0211937 -7.65058e-19)
(-0.0405158 -0.0228407 -3.88037e-19)
(-0.0256789 -0.0241662 0)
(-0.00907797 -0.0251178 0)
(0.0092686 -0.0256217 -8.11528e-19)
(0.0296322 -0.0256126 0)
(0.0518358 -0.0250248 0)
(0.0763995 -0.0237739 1.68837e-18)
(0.102845 -0.0217876 -8.5183e-19)
(0.132217 -0.0190446 -1.71921e-18)
(0.163235 -0.0153255 1.0013e-21)
(0.198325 -0.0107642 1.72765e-18)
(0.234177 -0.00490686 8.53899e-19)
(0.276647 0.00179384 0)
(0.317265 0.0102886 8.19434e-19)
(0.370527 0.0194749 1.61752e-18)
(0.414741 0.0312401 1.46726e-18)
(0.486381 0.043416 -1.46231e-18)
(0.529975 0.0589028 -1.11012e-18)
(0.637911 0.0752524 1.23163e-18)
(0.669941 0.090418 -3.66714e-19)
(0.858595 0.109318 -9.58901e-19)
(0.946467 0.0951266 1.24647e-19)
(0.713743 0.0774137 3.43182e-18)
(0.478922 0.0467436 3.66827e-21)
(0.20626 0.0409601 -5.63688e-21)
(0.0636035 0.0147503 0)
(-0.0289535 0.0168979 0)
(-0.0224057 0.00781434 2.37927e-22)
(-0.0390045 0.0124413 0)
(-0.0362625 0.0122251 0)
(-0.0444099 0.01403 4.24148e-23)
(-0.0468302 0.0150779 0)
(-0.052848 0.0160999 0)
(-0.057048 0.0170274 1.16972e-18)
(-0.062442 0.0176044 0)
(-0.0672281 0.0180214 0)
(-0.0723245 0.0181143 0)
(-0.0771012 0.0180174 0)
(-0.081813 0.0176637 1.73506e-23)
(-0.086226 0.0171151 -4.41742e-19)
(-0.0903954 0.0163501 8.53484e-19)
(-0.0942206 0.0153997 5.21213e-24)
(-0.0976895 0.0142668 4.0206e-19)
(-0.10073 0.0129665 0)
(-0.1033 0.0114914 3.83497e-19)
(-0.105345 0.00984364 0)
(-0.106819 0.00802979 -1.85096e-19)
(-0.107667 0.00606309 2.17215e-23)
(-0.107836 0.00395779 0)
(-0.10727 0.00172843 0)
(-0.10591 -0.000609747 4.07484e-24)
(-0.10369 -0.00303892 -4.53063e-24)
(-0.100542 -0.00553743 4.43561e-20)
(-0.0963961 -0.0080791 0)
(-0.0911797 -0.0106338 -1.78304e-19)
(-0.0848195 -0.013166 1.79319e-19)
(-0.0772375 -0.0156378 0)
(-0.0683597 -0.0180049 -3.64759e-19)
(-0.058101 -0.0202229 0)
(-0.0463923 -0.0222376 1.3732e-22)
(-0.0331322 -0.0239994 0)
(-0.0182729 -0.0254436 3.84211e-19)
(-0.00166696 -0.0265151 3.89951e-19)
(0.01667 -0.0271428 4.05176e-22)
(0.0370018 -0.0272569 -8.01813e-19)
(0.059166 -0.0267954 0)
(0.0836596 -0.0256691 -5.90895e-22)
(0.110037 -0.0238128 8.29126e-19)
(0.139296 -0.0211907 7.82155e-22)
(0.170224 -0.0176072 8.37092e-19)
(0.205152 -0.01316 -1.04599e-21)
(0.240913 -0.00745355 -1.24234e-21)
(0.283157 -0.00085464 0)
(0.323724 0.00745069 0)
(0.376659 0.0165598 0)
(0.42095 0.0280467 0)
(0.492066 0.040191 0)
(0.536044 0.0552006 1.05416e-18)
(0.642967 0.0715533 0)
(0.676029 0.0857828 0)
(0.861508 0.104467 -9.04633e-19)
(0.94976 0.103475 -4.64275e-19)
(0.743294 0.0839382 0)
(0.525347 0.0548385 5.15885e-21)
(0.259676 0.0460389 -6.36394e-21)
(0.0960637 0.0190122 0)
(-0.0146023 0.0181777 2.0667e-18)
(-0.0183519 0.00802183 -1.90007e-18)
(-0.0365987 0.0125754 0)
(-0.0339567 0.0122355 0)
(-0.0421441 0.0141747 -1.42753e-18)
(-0.0444285 0.0152023 0)
(-0.0502844 0.0162765 0)
(-0.0542727 0.0172023 -1.16099e-18)
(-0.0594364 0.017801 0)
(-0.0639781 0.0182181 -1.03919e-18)
(-0.0688279 0.0183155 0)
(-0.0733577 0.0182126 0)
(-0.0778259 0.0178515 1.45166e-23)
(-0.0819985 0.0172898 0)
(-0.0859317 0.0165092 -4.20706e-19)
(-0.0895239 0.0155391 4.07477e-19)
(-0.0927633 0.0143825 -7.91871e-19)
(-0.0955781 0.0130535 3.85911e-19)
(-0.0979275 0.0115453 -3.77322e-19)
(-0.0997583 0.00986023 0)
(-0.101024 0.00800447 -1.81947e-19)
(-0.101671 0.00599115 3.58974e-19)
(-0.101647 0.00383449 0)
(-0.100896 0.00154873 -4.40348e-20)
(-0.0993604 -0.000851315 2.18867e-20)
(-0.0969741 -0.00334807 -2.17994e-20)
(-0.0936708 -0.00591994 -4.35346e-20)
(-0.0893812 -0.0085407 0)
(-0.0840339 -0.0111801 -1.74824e-19)
(-0.0775565 -0.0138027 1.75771e-19)
(-0.0698719 -0.01637 0)
(-0.0609069 -0.0188378 3.57568e-19)
(-0.0505771 -0.0211609 0)
(-0.0388142 -0.0232853 3.65978e-19)
(-0.0255172 -0.02516 0)
(-0.0106388 -0.026721 -3.76259e-19)
(0.00596781 -0.0279108 -3.81669e-19)
(0.0242896 -0.0286604 3.66929e-22)
(0.0445829 -0.0288964 7.84099e-19)
(0.066699 -0.02856 0)
(0.0911139 -0.0275575 -8.0253e-19)
(0.117411 -0.0258304 0)
(0.146546 -0.0233288 8.15023e-19)
(0.177369 -0.0198809 0)
(0.212123 -0.0155484 -8.16176e-19)
(0.247774 -0.00999383 -1.61008e-18)
(0.289781 -0.00349819 0)
(0.33027 0.00461521 0)
(0.382873 0.0136451 0)
(0.427202 0.0248484 6.79463e-19)
(0.497798 0.036961 0)
(0.542101 0.0514828 -5.7146e-21)
(0.648039 0.0678482 0)
(0.682012 0.0811414 3.16574e-19)
(0.86447 0.0997152 8.70466e-19)
(0.952639 0.111065 0)
(0.768737 0.0901983 3.23251e-18)
(0.568496 0.0627991 3.58306e-18)
(0.312949 0.051749 -7.06044e-21)
(0.133177 0.0239759 0)
(0.00534417 0.0198564 -2.03563e-18)
(-0.012473 0.00849247 0)
(-0.0335611 0.0127285 1.72515e-18)
(-0.0312607 0.0122187 1.55556e-18)
(-0.0395968 0.0142926 1.42944e-18)
(-0.0417796 0.0152948 1.31983e-18)
(-0.0475033 0.0164218 1.2324e-18)
(-0.0512927 0.0173442 0)
(-0.0562372 0.0179648 0)
(-0.0605396 0.018382 1.0307e-18)
(-0.0651461 0.0184846 0)
(-0.0694296 0.0183761 0)
(-0.0736537 0.0180084 -8.96046e-19)
(-0.0775843 0.0174342 0)
(-0.0812787 0.0166387 -4.15568e-19)
(-0.0846348 0.0156492 0)
(-0.0876411 0.0144695 3.90685e-19)
(-0.0902264 0.0131125 -3.80626e-19)
(-0.0923513 0.011572 0)
(-0.0939634 0.00985047 0)
(-0.0950171 0.00795376 1.69754e-23)
(-0.0954588 0.00589488 -1.76776e-19)
(-0.0952378 0.00368801 0)
(-0.094299 0.00134707 4.33521e-20)
(-0.0925838 -0.00111352 2.15322e-20)
(-0.0900281 -0.00367642 -2.14403e-20)
(-0.0865665 -0.00632004 0)
(-0.0821308 -0.0090182 0)
(-0.0766507 -0.0117406 4.02061e-23)
(-0.0700547 -0.0144515 -4.29719e-23)
(-0.0622667 -0.0171125 0)
(-0.0532144 -0.0196789 0)
(-0.0428142 -0.0221052 3.54947e-19)
(-0.0309986 -0.0243371 0)
(-0.0176671 -0.0263226 0)
(-0.00277262 -0.0279984 0)
(0.0138303 -0.0293047 0)
(0.0321314 -0.0301746 7.5856e-19)
(0.0523799 -0.030531 7.68132e-19)
(0.0744393 -0.0303183 0)
(0.0987671 -0.0294386 0)
(0.124972 -0.0278398 7.9149e-19)
(0.153973 -0.0254583 0)
(0.184676 -0.0221457 0)
(0.219245 -0.0179284 -7.96398e-19)