/*--------------------------------*- C++ -*----------------------------------*\
| =========                 |                                                 |
| \\      /  F ield         | OpenFOAM: The Open Source CFD Toolbox           |
|  \\    /   O peration     | Version:  2.4.0                                 |
|   \\  /    A nd           | Web:      www.OpenFOAM.org                      |
|    \\/     M anipulation  |                                                 |
\*---------------------------------------------------------------------------*/
FoamFile
{
    version     2.0;
    format      ascii;
    class       volScalarField;
    location    "15";
    object      p;
}
// * * * * * * * * * * * * * * * * * * * * * * * * * * * * * * * * * * * * * //

dimensions      [0 2 -2 0 0 0 0];

internalField   nonuniform List<scalar> 
10000
(
0.0024931
0.00251098
0.0025395
0.00257412
0.00261538
0.00266754
0.00272959
0.0028014
0.00288044
0.00297192
0.00306351
0.00318478
0.0032816
0.00345577
0.00356005
0.00381043
0.00395971
0.00429601
0.0045616
0.00500679
0.00249292
0.00251104
0.00253891
0.00257469
0.00261366
0.00266995
0.00272477
0.00280806
0.00286915
0.00298547
0.00304426
0.00320173
0.00326237
0.00345927
0.00355512
0.00378122
0.00395177
0.00424159
0.00453629
0.00502336
0.00249278
0.00251049
0.00253914
0.00257305
0.00261527
0.00266586
0.00272993
0.00279784
0.00288132
0.00296481
0.0030649
0.00317054
0.00328257
0.00342755
0.00355234
0.00375303
0.00391278
0.0041728
0.00439843
0.00461199
0.00249228
0.00251034
0.00253797
0.00257341
0.00261253
0.00266854
0.00272302
0.00280529
0.00286601
0.00297935
0.00303885
0.00318704
0.00325221
0.00342565
0.00352933
0.00370466
0.00387763
0.00403829
0.00422535
0.00428235
0.00249178
0.00250961
0.00253745
0.00257186
0.00261248
0.00266572
0.00272419
0.00279881
0.0028694
0.00296615
0.00304402
0.00316501
0.00325199
0.00339632
0.00350481
0.003663
0.00379852
0.00393934
0.00406334
0.00413722
0.00249104
0.00250889
0.00253629
0.00257086
0.0026107
0.00266498
0.00272091
0.00279776
0.00286326
0.00296319
0.00303379
0.00315515
0.00323618
0.00337012
0.00347572
0.00360585
0.00373112
0.00383658
0.00394193
0.0040077
0.00249016
0.00250789
0.00253504
0.00256927
0.00260912
0.00266291
0.00271863
0.00279376
0.0028594
0.00295486
0.00302641
0.0031387
0.00322014
0.00334032
0.00343902
0.00355215
0.00365782
0.00374712
0.00383111
0.00388375
0.00248908
0.00250669
0.00253353
0.00256747
0.00260711
0.00266053
0.00271563
0.00278932
0.00285424
0.00294572
0.00301685
0.00312077
0.00320105
0.0033079
0.00339984
0.00349684
0.00358731
0.00366285
0.00372957
0.00377514
0.0024878
0.00250523
0.00253176
0.00256532
0.00260479
0.00265761
0.00271221
0.00278395
0.00284831
0.0029351
0.00300564
0.00310101
0.00317907
0.00327396
0.00335813
0.00344201
0.00351914
0.00358341
0.00363821
0.00367837
0.00248629
0.00250353
0.00252973
0.00256287
0.0026021
0.00265415
0.00270826
0.00277776
0.00284141
0.00292328
0.00299272
0.00307992
0.00315474
0.00323898
0.00331515
0.00338795
0.00345378
0.00350889
0.00355515
0.00359096
0.00248456
0.00250155
0.0025274
0.00256005
0.00259902
0.00265016
0.00270372
0.00277076
0.00283344
0.00291034
0.002978
0.00305756
0.0031283
0.00320319
0.00327154
0.00333493
0.00339143
0.00343904
0.00347901
0.00351128
0.00248258
0.00249929
0.00252479
0.00255691
0.00259552
0.00264564
0.00269853
0.002763
0.00282438
0.00289642
0.00296171
0.00303428
0.00310033
0.00316701
0.00322794
0.00328328
0.00333205
0.00337351
0.00340865
0.003438
0.00248032
0.00249672
0.00252184
0.00255337
0.00259157
0.00264058
0.00269266
0.00275447
0.00281418
0.00288152
0.00294386
0.00301003
0.00307108
0.00313052
0.00318464
0.00323309
0.00327551
0.00331191
0.00334322
0.0033701
0.00247779
0.00249384
0.00251856
0.00254947
0.00258715
0.00263496
0.00268608
0.00274519
0.00280292
0.00286577
0.00292477
0.00298511
0.00304105
0.00309407
0.003142
0.00318453
0.00322164
0.00325385
0.00328202
0.00330676
0.00247494
0.00249063
0.00251491
0.00254515
0.00258225
0.00262879
0.00267876
0.00273513
0.00279057
0.00284911
0.00290448
0.00295944
0.00301038
0.00305767
0.00310011
0.00313756
0.00317024
0.00319896
0.00322443
0.0032473
0.00247178
0.00248707
0.00251089
0.00254043
0.00257684
0.00262204
0.00267068
0.00272434
0.00277726
0.00283171
0.00288332
0.00293332
0.00297945
0.0030216
0.00305917
0.00309219
0.00312116
0.00314685
0.00317006
0.00319114
0.00246827
0.00248315
0.00250646
0.00253526
0.00257092
0.00261472
0.00266185
0.00271277
0.00276297
0.00281348
0.00286127
0.00290668
0.00294829
0.00298586
0.00301912
0.00304837
0.00307412
0.00309725
0.00311839
0.00313789
0.00246441
0.00247884
0.00250163
0.00252965
0.00256446
0.0026068
0.00265226
0.00270048
0.00274786
0.00279464
0.00283865
0.00287981
0.0029172
0.00295064
0.00298011
0.00300604
0.00302903
0.0030499
0.00306918
0.00308718
0.00246015
0.00247414
0.00249635
0.00252357
0.00255746
0.00259827
0.00264192
0.00268743
0.00273189
0.00277506
0.0028154
0.00285261
0.00288614
0.00291588
0.00294202
0.00296506
0.00298566
0.00300449
0.00302214
0.0030387
0.00245551
0.00246901
0.00249063
0.00251701
0.0025499
0.00258912
0.00263086
0.0026737
0.00271525
0.00275499
0.00279181
0.00282535
0.00285532
0.00288176
0.00290491
0.00292545
0.00294388
0.00296096
0.00297699
0.00299229
0.00245043
0.00246345
0.00248442
0.00250995
0.00254178
0.00257935
0.00261906
0.00265923
0.00269786
0.00273431
0.00276777
0.00279793
0.00282467
0.00284813
0.00286869
0.00288698
0.00290353
0.00291895
0.00293358
0.00294759
0.00244494
0.00245743
0.00247773
0.00250238
0.00253308
0.00256896
0.0026066
0.00264416
0.00267994
0.00271327
0.00274356
0.00277059
0.00279438
0.00281516
0.00283338
0.00284968
0.00286453
0.00287843
0.00289174
0.00290455
0.00243896
0.00245094
0.00247053
0.00249428
0.0025238
0.00255793
0.00259343
0.00262839
0.00266136
0.00269172
0.00271904
0.00274319
0.00276431
0.00278271
0.00279884
0.00281337
0.00282665
0.0028392
0.00285125
0.00286296
0.00243253
0.00244395
0.00246281
0.00248565
0.00251392
0.00254628
0.00257964
0.00261208
0.00264236
0.00266991
0.00269446
0.00271595
0.00273465
0.00275086
0.00276516
0.00277803
0.00278993
0.00280115
0.0028121
0.00282268
0.00242557
0.00243646
0.00245455
0.00247647
0.00250345
0.00253399
0.00256517
0.00259514
0.0026228
0.00264769
0.00266965
0.00268873
0.00270521
0.00271951
0.00273211
0.00274353
0.0027541
0.00276417
0.00277399
0.00278361
0.00241814
0.00242844
0.00244575
0.00246672
0.00249236
0.00252109
0.00255014
0.00257772
0.0026029
0.0026253
0.00264486
0.00266172
0.00267619
0.00268872
0.00269979
0.00270988
0.00271923
0.00272821
0.002737
0.00274565
0.00241013
0.00241987
0.00243639
0.0024564
0.00248066
0.00250756
0.00253447
0.00255972
0.00258252
0.00260258
0.00261992
0.00263474
0.00264739
0.00265835
0.00266803
0.00267688
0.00268513
0.00269309
0.00270092
0.00270865
0.00240162
0.00241074
0.00242646
0.00244548
0.00246835
0.00249344
0.00251828
0.00254131
0.00256187
0.00257974
0.00259503
0.00260799
0.00261898
0.00262848
0.0026369
0.00264463
0.00265184
0.00265884
0.00266576
0.00267261
0.0023925
0.00240106
0.00241597
0.00243398
0.00245542
0.00247868
0.00250148
0.00252237
0.00254079
0.00255663
0.00257003
0.00258128
0.00259078
0.00259896
0.00260623
0.00261291
0.00261918
0.00262526
0.00263133
0.00263734
0.00238284
0.00239078
0.00240486
0.00242186
0.00244187
0.00246336
0.00248419
0.00250307
0.00251949
0.00253344
0.00254509
0.0025548
0.0025629
0.00256992
0.00257609
0.00258183
0.00258715
0.00259243
0.00259762
0.00260288
0.00237254
0.00237993
0.00239319
0.00240913
0.0024277
0.00244743
0.00246634
0.00248327
0.00249782
0.00251
0.00252007
0.00252834
0.00253522
0.00254112
0.00254634
0.00255114
0.00255565
0.00256008
0.00256454
0.00256901
0.00236169
0.00236847
0.00238089
0.00239577
0.00241292
0.00243094
0.00244804
0.00246314
0.00247595
0.00248651
0.00249511
0.00250208
0.00250783
0.00251272
0.00251704
0.00252098
0.0025247
0.00252835
0.00253207
0.00253581
0.00235015
0.00235643
0.002368
0.00238179
0.00239751
0.00241386
0.0024292
0.00244257
0.00245374
0.0024628
0.00247006
0.00247584
0.00248055
0.00248452
0.00248798
0.00249114
0.0024941
0.00249705
0.00250007
0.00250313
0.00233804
0.00234376
0.00235447
0.00236717
0.0023815
0.00239626
0.00240994
0.00242169
0.00243135
0.00243903
0.00244506
0.00244975
0.00245352
0.00245661
0.00245932
0.00246169
0.00246399
0.00246622
0.00246861
0.00247097
0.00232522
0.00233049
0.00234034
0.00235193
0.00236488
0.00237808
0.00239017
0.0024004
0.00240864
0.00241505
0.00241994
0.00242366
0.00242653
0.00242886
0.00243079
0.00243251
0.0024341
0.00243574
0.00243745
0.00243924
0.00231183
0.00231656
0.00232554
0.00233606
0.00234768
0.0023594
0.00237
0.00237882
0.00238576
0.002391
0.00239486
0.00239766
0.00239974
0.00240134
0.00240257
0.00240364
0.0024046
0.00240564
0.00240674
0.00240793
0.0022977
0.002302
0.00231013
0.00231956
0.00232988
0.00234018
0.00234935
0.00235684
0.00236256
0.00236673
0.00236964
0.00237161
0.00237294
0.00237384
0.00237444
0.00237489
0.00237528
0.00237575
0.00237629
0.00237692
0.00228298
0.00228677
0.00229404
0.00230244
0.00231152
0.00232048
0.00232834
0.00233459
0.00233919
0.00234238
0.0023444
0.00234562
0.00234625
0.00234653
0.0023465
0.00234641
0.00234622
0.00234617
0.00234614
0.00234626
0.00226749
0.00227088
0.00227732
0.0022847
0.00229259
0.00230026
0.00230686
0.00231194
0.00231551
0.00231777
0.00231901
0.00231951
0.00231951
0.00231917
0.00231861
0.00231795
0.00231729
0.00231668
0.0023162
0.00231577
0.00225141
0.0022543
0.00225993
0.00226635
0.00227312
0.00227959
0.00228502
0.00228903
0.00229165
0.00229307
0.00229357
0.00229342
0.00229284
0.00229193
0.00229085
0.00228967
0.00228853
0.00228744
0.00228647
0.00228555
0.00223454
0.00223705
0.00224191
0.00224739
0.00225308
0.00225841
0.00226273
0.00226573
0.00226745
0.00226809
0.00226792
0.00226716
0.00226602
0.0022646
0.00226302
0.00226139
0.0022598
0.00225826
0.00225684
0.00225547
0.00221708
0.00221911
0.00222323
0.00222783
0.00223252
0.00223679
0.00224009
0.00224216
0.00224307
0.00224298
0.00224219
0.00224088
0.00223923
0.0022373
0.00223529
0.00223319
0.00223119
0.0022292
0.00222737
0.00222555
0.00219881
0.0022005
0.00220392
0.00220768
0.00221141
0.00221467
0.00221699
0.00221819
0.00221832
0.00221759
0.00221621
0.00221438
0.00221223
0.00220988
0.00220741
0.00220495
0.00220252
0.00220018
0.0021979
0.00219574
0.00217995
0.00218121
0.00218396
0.00218694
0.00218977
0.0021921
0.00219354
0.00219394
0.00219337
0.00219203
0.00219012
0.00218782
0.00218521
0.00218244
0.00217957
0.00217673
0.00217392
0.0021712
0.00216855
0.002166
0.0021603
0.00216127
0.00216338
0.00216561
0.00216759
0.00216904
0.00216964
0.00216929
0.00216806
0.00216616
0.00216375
0.00216099
0.00215797
0.00215482
0.00215159
0.0021484
0.00214524
0.00214218
0.00213917
0.00213627
0.00214009
0.00214067
0.00214216
0.00214368
0.00214488
0.00214553
0.00214536
0.00214433
0.00214251
0.0021401
0.00213723
0.00213406
0.00213063
0.00212714
0.00212355
0.00212005
0.00211654
0.00211316
0.00210981
0.0021066
0.0021191
0.00211942
0.00212033
0.00212117
0.00212163
0.00212152
0.00212064
0.00211897
0.00211661
0.00211371
0.00211041
0.00210684
0.00210308
0.00209922
0.00209536
0.00209152
0.00208775
0.00208403
0.00208042
0.00207686
0.00209758
0.00209754
0.00209787
0.00209807
0.00209785
0.00209705
0.00209553
0.00209329
0.00209043
0.00208709
0.00208343
0.00207949
0.0020754
0.00207123
0.00206708
0.00206295
0.0020589
0.00205489
0.00205099
0.00204714
0.00207528
0.00207503
0.00207482
0.00207441
0.00207354
0.0020721
0.00206998
0.0020672
0.00206388
0.00206015
0.00205611
0.00205185
0.00204746
0.00204301
0.0020386
0.00203421
0.0020299
0.00202563
0.00202147
0.00201736
0.00205247
0.00205189
0.00205116
0.00205017
0.00204872
0.00204669
0.00204404
0.00204079
0.00203705
0.00203295
0.0020286
0.00202404
0.00201938
0.00201468
0.00201001
0.00200538
0.00200083
0.00199631
0.00199189
0.00198753
0.00202888
0.00202814
0.00202692
0.00202539
0.00202338
0.00202082
0.00201767
0.00201397
0.00200984
0.0020054
0.00200073
0.00199591
0.00199102
0.00198609
0.00198121
0.00197635
0.00197159
0.00196685
0.00196221
0.00195763
0.0020048
0.00200377
0.00200209
0.00200006
0.00199755
0.0019945
0.00199091
0.00198682
0.00198235
0.00197761
0.00197269
0.00196761
0.00196251
0.00195736
0.00195228
0.00194721
0.00194225
0.00193729
0.00193245
0.00192765
0.00197994
0.00197879
0.0019767
0.00197422
0.00197124
0.00196774
0.00196373
0.00195928
0.00195449
0.00194946
0.00194428
0.00193901
0.00193368
0.00192837
0.00192309
0.00191788
0.0019127
0.0019076
0.00190254
0.0018976
0.00195461
0.0019532
0.00195074
0.00194784
0.00194446
0.00194056
0.00193618
0.00193141
0.00192634
0.0019211
0.00191568
0.00191022
0.00190471
0.00189924
0.00189379
0.00188841
0.00188306
0.00187779
0.00187256
0.00186744
0.00192851
0.00192702
0.00192424
0.00192099
0.00191722
0.00191295
0.00190822
0.00190315
0.00189781
0.00189233
0.00188674
0.0018811
0.00187544
0.00186982
0.00186423
0.00185871
0.00185323
0.00184782
0.00184244
0.00183718
0.00190198
0.00190026
0.00189719
0.00189362
0.00188952
0.00188493
0.00187991
0.00187459
0.00186904
0.00186337
0.0018576
0.00185183
0.00184602
0.00184028
0.00183454
0.00182889
0.00182326
0.00181772
0.00181219
0.00180681
0.00187471
0.00187295
0.00186965
0.0018658
0.0018614
0.00185651
0.00185121
0.00184564
0.00183987
0.00183402
0.00182812
0.0018222
0.0018163
0.00181042
0.00180461
0.00179883
0.00179312
0.00178744
0.00178185
0.00177632
0.00184705
0.00184509
0.00184157
0.00183748
0.00183283
0.00182769
0.00182217
0.00181639
0.00181049
0.00180449
0.00179848
0.00179245
0.00178645
0.00178046
0.00177455
0.00176866
0.00176285
0.00175705
0.00175134
0.00174571
0.00181869
0.00181673
0.00181304
0.00180875
0.00180388
0.00179849
0.00179274
0.00178677
0.0017807
0.00177459
0.00176847
0.00176236
0.00175629
0.00175024
0.00174425
0.00173829
0.0017324
0.00172652
0.00172074
0.00171502
0.00178999
0.00178785
0.001784
0.00177954
0.00177449
0.00176892
0.001763
0.0017569
0.00175071
0.0017445
0.00173832
0.00173214
0.00172601
0.0017199
0.00171385
0.00170781
0.00170185
0.00169589
0.00169002
0.00168421
0.00176064
0.00175852
0.00175457
0.00174997
0.00174475
0.00173901
0.00173292
0.00172665
0.00172036
0.00171408
0.00170781
0.0017016
0.00169541
0.00168929
0.00168319
0.00167716
0.00167115
0.00166519
0.00165926
0.00165344
0.001731
0.00172872
0.00172466
0.00171997
0.00171463
0.00170875
0.00170254
0.00169621
0.00168982
0.00168349
0.00167716
0.0016709
0.00166466
0.0016585
0.00165237
0.0016463
0.00164026
0.00163427
0.0016283
0.00162244
0.00170076
0.00169852
0.00169441
0.00168965
0.00168419
0.00167818
0.00167183
0.00166539
0.00165896
0.00165256
0.0016462
0.00163989
0.00163362
0.00162742
0.00162125
0.00161514
0.00160908
0.00160308
0.00159713
0.00159132
0.00167028
0.00166792
0.00166376
0.00165894
0.00165341
0.00164729
0.00164089
0.00163439
0.00162791
0.00162149
0.0016151
0.00160878
0.00160249
0.00159627
0.00159009
0.00158397
0.0015779
0.00157189
0.00156592
0.0015601
0.0016393
0.00163701
0.00163283
0.00162795
0.00162234
0.00161615
0.00160964
0.00160311
0.00159659
0.00159014
0.00158375
0.00157743
0.00157117
0.00156495
0.00155882
0.00155272
0.0015467
0.00154072
0.00153482
0.00152901
0.00160818
0.00160577
0.00160155
0.00159663
0.00159096
0.00158471
0.00157821
0.00157163
0.00156512
0.00155867
0.0015523
0.00154599
0.00153975
0.00153356
0.00152743
0.00152133
0.00151531
0.00150931
0.0015034
0.00149757
0.00157664
0.00157431
0.00157005
0.00156507
0.00155935
0.00155304
0.00154648
0.00153992
0.0015334
0.00152698
0.00152063
0.00151435
0.00150814
0.00150198
0.00149589
0.00148984
0.00148386
0.00147791
0.00147206
0.00146629
0.00154503
0.0015426
0.00153828
0.00153325
0.00152747
0.00152117
0.0015146
0.00150805
0.00150157
0.00149518
0.00148887
0.00148263
0.00147646
0.00147034
0.00146429
0.00145826
0.00145231
0.00144636
0.00144052
0.00143476
0.00151305
0.00151072
0.00150636
0.00150128
0.00149547
0.00148911
0.00148256
0.00147601
0.00146955
0.0014632
0.00145692
0.00145075
0.00144462
0.00143857
0.00143256
0.00142661
0.00142071
0.00141487
0.00140909
0.00140344
0.00148106
0.00147862
0.00147423
0.0014691
0.00146328
0.00145697
0.00145041
0.0014439
0.00143747
0.00143118
0.00142497
0.00141886
0.0014128
0.00140681
0.00140086
0.00139496
0.00138912
0.00138334
0.00137761
0.00137203
0.00144874
0.00144642
0.001442
0.00143686
0.00143102
0.00142467
0.00141815
0.00141167
0.00140528
0.00139905
0.0013929
0.00138688
0.00138091
0.00137502
0.00136916
0.00136335
0.00135758
0.00135184
0.00134615
0.00134058
0.00141644
0.00141403
0.00140961
0.00140446
0.00139863
0.00139235
0.00138585
0.00137944
0.00137311
0.00136694
0.00136086
0.0013549
0.00134899
0.00134318
0.00133739
0.00133167
0.00132598
0.00132035
0.00131476
0.00130931
0.00138387
0.00138158
0.0013772
0.00137207
0.00136623
0.00135995
0.00135351
0.00134715
0.00134088
0.00133478
0.00132876
0.00132286
0.00131701
0.00131125
0.00130552
0.00129986
0.00129426
0.0012887
0.00128321
0.00127785
0.00135138
0.00134902
0.00134469
0.00133959
0.00133383
0.0013276
0.00132123
0.00131495
0.00130876
0.00130275
0.00129681
0.00129102
0.00128525
0.00127959
0.00127397
0.00126843
0.00126294
0.00125752
0.00125216
0.00124693
0.00131871
0.0013165
0.00131225
0.00130723
0.00130148
0.00129531
0.001289
0.00128276
0.00127668
0.00127074
0.00126495
0.00125926
0.00125368
0.00124815
0.00124272
0.00123731
0.00123198
0.00122667
0.00122145
0.0012163
0.00128626
0.00128398
0.00127979
0.00127485
0.00126924
0.00126313
0.00125691
0.00125075
0.00124476
0.00123891
0.00123322
0.00122763
0.00122217
0.00121677
0.00121146
0.00120617
0.00120097
0.00119579
0.00119069
0.00118566
0.00125375
0.00125162
0.00124752
0.00124266
0.0012371
0.00123108
0.00122493
0.00121884
0.00121293
0.00120715
0.00120154
0.00119604
0.00119065
0.00118532
0.00118009
0.0011749
0.0011698
0.00116473
0.00115975
0.00115485
0.00122158
0.00121937
0.00121534
0.0012106
0.00120516
0.00119924
0.0011932
0.00118721
0.0011814
0.00117572
0.00117021
0.0011648
0.00115952
0.0011543
0.00114921
0.00114414
0.00113919
0.00113426
0.00112943
0.00112468
0.00118949
0.00118743
0.00118351
0.00117884
0.00117351
0.00116769
0.00116172
0.00115584
0.0011501
0.00114456
0.00113914
0.00113389
0.00112873
0.00112368
0.0011187
0.0011138
0.00110896
0.00110418
0.00109944
0.00109483
0.00115784
0.00115573
0.00115188
0.00114739
0.00114216
0.00113649
0.00113063
0.00112488
0.00111924
0.00111381
0.0011085
0.00110335
0.00109829
0.00109333
0.00108845
0.00108365
0.00107892
0.00107425
0.00106964
0.00106514
0.0011264
0.00112443
0.0011207
0.00111632
0.00111124
0.00110567
0.00109993
0.00109428
0.00108876
0.00108344
0.00107825
0.00107321
0.00106827
0.00106343
0.00105868
0.001054
0.0010494
0.00104485
0.00104035
0.00103596
0.00109552
0.0010935
0.00108991
0.00108567
0.00108074
0.00107532
0.0010697
0.00106418
0.00105878
0.00105359
0.00104852
0.0010436
0.00103876
0.00103402
0.00102935
0.00102476
0.00102023
0.00101575
0.00101133
0.00100703
0.001065
0.00106315
0.00105968
0.0010556
0.00105079
0.00104546
0.00103996
0.00103452
0.00102925
0.00102416
0.00101924
0.00101444
0.00100975
0.00100514
0.00100062
0.000996143
0.000991734
0.000987351
0.000983035
0.000978791
0.00103522
0.00103333
0.00103001
0.00102607
0.00102139
0.00101618
0.00101078
0.00100544
0.00100026
0.000995255
0.000990413
0.00098571
0.000981131
0.000976636
0.000972226
0.000967862
0.000963569
0.000959303
0.000955098
0.000950964
0.001006
0.00100425
0.00100104
0.000997226
0.000992652
0.000987531
0.000982207
0.000976939
0.000971821
0.000966875
0.000962084
0.000957434
0.000952892
0.000948445
0.000944085
0.000939789
0.000935573
0.000931403
0.000927308
0.000923298
0.00097768
0.000975928
0.0009728
0.000969079
0.000964619
0.000959589
0.00095436
0.000949169
0.000944118
0.000939236
0.000934505
0.00092992
0.000925458
0.000921107
0.000916863
0.000912693
0.000908618
0.00090459
0.000900635
0.000896757
0.000950166
0.000948491
0.000945461
0.000941801
0.000937402
0.000932451
0.000927299
0.000922205
0.000917251
0.000912472
0.000907847
0.000903374
0.000899024
0.000894781
0.000890642
0.000886572
0.000882589
0.00087865
0.000874773
0.000870985
0.000923665
0.000922029
0.000919028
0.000915416
0.000911075
0.000906195
0.000901132
0.000896133
0.000891284
0.000886612
0.000882098
0.000877728
0.00087348
0.000869331
0.000865283
0.000861298
0.000857398
0.000853542
0.000849749
0.000846047
0.00089815
0.000896564
0.000893635
0.00089004
0.000885743
0.000880911
0.000875922
0.000871
0.000866245
0.000861671
0.000857263
0.000853001
0.000848869
0.000844839
0.000840913
0.000837047
0.000833263
0.000829515
0.000825824
0.000822212
0.000873774
0.000872216
0.000869299
0.000865744
0.000861486
0.000856716
0.000851793
0.000846942
0.000842263
0.000837763
0.000833435
0.000829248
0.000825198
0.000821243
0.000817398
0.00081361
0.000809912
0.000806251
0.000802654
0.000799139
0.000850538
0.000849028
0.000846169
0.000842642
0.00083843
0.000833708
0.000828851
0.00082407
0.000819471
0.00081505
0.000810814
0.000806724
0.000802781
0.000798939
0.000795216
0.000791555
0.000787984
0.00078445
0.000780976
0.000777575
0.00082864
0.000827122
0.000824283
0.00082081
0.000816642
0.00081199
0.000807199
0.000802498
0.000797977
0.000793641
0.00078949
0.000785482
0.00078162
0.000777854
0.000774205
0.000770613
0.000767115
0.000763655
0.000760261
0.000756943
0.000808069
0.000806617
0.000803815
0.000800381
0.000796253
0.000791658
0.000786921
0.000782297
0.000777842
0.000773604
0.000769528
0.000765634
0.000761861
0.000758219
0.00075467
0.000751203
0.000747805
0.000744456
0.000741154
0.000737927
0.000789075
0.000787604
0.000784834
0.000781435
0.000777357
0.000772814
0.000768136
0.000763575
0.000759185
0.000755014
0.000751007
0.000747184
0.000743476
0.0007399
0.000736412
0.000733006
0.000729668
0.000726383
0.000723147
0.000719993
0.000771695
0.000770266
0.000767506
0.000764133
0.000760081
0.000755584
0.000750958
0.00074646
0.000742133
0.000738038
0.00073411
0.000730374
0.000726761
0.000723284
0.000719898
0.000716595
0.000713361
0.000710175
0.000707032
0.000703964
0.000756188
0.000754733
0.000751965
0.000748578
0.000744553
0.000740083
0.000735508
0.000731056
0.000726794
0.00072276
0.000718905
0.000715237
0.000711695
0.000708284
0.000704962
0.000701718
0.000698542
0.000695414
0.00069233
0.000689323
0.000742724
0.000741225
0.000738363
0.000734929
0.000730899
0.000726448
0.000721919
0.000717511
0.000713317
0.000709338
0.000705569
0.000701968
0.000698524
0.00069519
0.000691972
0.00068881
0.000685731
0.000682681
0.000679684
0.000676747
0.000731545
0.00072992
0.000726859
0.0007233
0.000719193
0.000714705
0.000710153
0.000705744
0.000701567
0.000697622
0.000693901
0.000690361
0.000686992
0.000683739
0.000680612
0.000677548
0.000674574
0.000671629
0.000668737
0.000665902
0.000722977
0.000720941
0.000717632
0.00071412
0.000710163
0.000705824
0.000701404
0.000697111
0.000693035
0.000689177
0.00068553
0.000682054
0.000678737
0.000675526
0.000672432
0.000669395
0.000666442
0.000663513
0.000660635
0.000657813
0.000717871
0.00071419
0.000709381
0.000704966
0.000700385
0.00069558
0.000690809
0.000686262
0.000682005
0.000678034
0.000674322
0.000670825
0.000667518
0.00066435
0.000661318
0.000658359
0.000655495
0.000652669
0.000649899
0.000647189
0.00531882
0.0046327
0.00399941
0.00371964
0.00363865
0.00360286
0.00356327
0.00352162
0.00348605
0.00345908
0.00343891
0.00342245
0.00340698
0.00339065
0.00337246
0.00335195
0.00332901
0.00330369
0.00327616
0.00324656
0.00321509
0.00318191
0.00314721
0.00311111
0.00307384
0.00303549
0.00299628
0.00295625
0.00291564
0.00287443
0.00283284
0.00279074
0.00274836
0.00270555
0.00266248
0.00261886
0.00257498
0.00253063
0.00248603
0.00244084
0.00239559
0.00234994
0.00230372
0.00225671
0.00220982
0.00216297
0.00211517
0.00206635
0.00201779
0.0019696
0.0019212
0.0018722
0.00182229
0.00177086
0.00171865
0.00166672
0.00161545
0.00156184
0.00150754
0.00145472
0.00140391
0.0013493
0.00129482
0.00124119
0.00119046
0.00113391
0.00108226
0.00102014
0.000966624
0.000895601
0.000849538
0.000778017
0.000732615
0.000649439
0.000627207
0.000545254
0.000564832
0.000508003
0.000765328
0.000536296
0.00544944
0.00485442
0.00441784
0.00429003
0.00426412
0.00423017
0.00416684
0.004083
0.0039908
0.00389847
0.00381039
0.00372844
0.00365306
0.00358397
0.00352051
0.0034619
0.00340736
0.00335618
0.00330772
0.00326144
0.00321686
0.00317356
0.00313123
0.00308955
0.00304835
0.00300738
0.00296661
0.00292581
0.00288504
0.00284413
0.00280317
0.00276191
0.00272054
0.00267883
0.00263689
0.00259442
0.00255168
0.00250845
0.00246493
0.00242079
0.00237652
0.00233179
0.00228648
0.00224033
0.00219424
0.00214812
0.00210104
0.00205292
0.002005
0.0019574
0.00190957
0.00186113
0.00181171
0.00176079
0.00170907
0.00165756
0.00160665
0.00155347
0.0014996
0.00144711
0.00139658
0.00134233
0.00128825
0.00123483
0.0011844
0.00112802
0.00107681
0.00101464
0.000961807
0.000890558
0.000845332
0.000773077
0.000728864
0.000644974
0.000624325
0.000540467
0.000562787
0.000501411
0.000732426
0.000507509
0.00457053
0.00416957
0.00391539
0.00382883
0.00377776
0.00371975
0.00366099
0.00361087
0.00357226
0.00354319
0.00351972
0.00349808
0.00347556
0.00345071
0.00342302
0.00339257
0.00335973
0.00332495
0.00328868
0.00325126
0.00321297
0.003174
0.00313451
0.00309455
0.00305426
0.00301362
0.00297274
0.00293157
0.00289024
0.00284866
0.00280696
0.00276496
0.00272283
0.00268038
0.00263774
0.00259462
0.00255126
0.00250748
0.00246342
0.00241882
0.00237409
0.00232896
0.00228329
0.00223688
0.0021905
0.00214408
0.0020968
0.00204856
0.00200049
0.00195272
0.00190478
0.0018563
0.00180679
0.00175586
0.00170416
0.00165263
0.0016016
0.00154851
0.00149476
0.00144228
0.00139162
0.00133752
0.00128365
0.00123019
0.00117975
0.00112346
0.00107232
0.00101025
0.000957448
0.00088679
0.000840961
0.000769578
0.000723993
0.000642704
0.000619754
0.000537486
0.000559502
0.000492669
0.000683961
0.000462741
0.0043517
0.00429623
0.00422475
0.00418723
0.00414438
0.00407885
0.00399732
0.00390926
0.00382141
0.00373816
0.00366191
0.00359342
0.00353224
0.00347731
0.00342731
0.00338102
0.00333737
0.00329555
0.00325494
0.00321509
0.00317571
0.00313654
0.00309745
0.00305829
0.00301903
0.00297958
0.00293997
0.0029001
0.00286007
0.00281978
0.00277932
0.00273853
0.00269757
0.00265625
0.00261468
0.00257261
0.00253024
0.00248741
0.00244426
0.00240056
0.00235664
0.0023123
0.00226741
0.00222178
0.00217608
0.00213029
0.00208367
0.00203613
0.00198867
0.00194143
0.00189404
0.00184612
0.00179709
0.0017467
0.0016955
0.00164438
0.00159362
0.00154101
0.00148778
0.00143558
0.00138508
0.00133139
0.00127805
0.00122468
0.00117452
0.00111829
0.00106773
0.00100539
0.00095357
0.000882611
0.000837626
0.000765461
0.00072054
0.000640149
0.000616229
0.0005349
0.000555662
0.000483704
0.00063573
0.000422944
0.00421577
0.00417764
0.00406986
0.00397227
0.00389215
0.00381971
0.00375366
0.003695
0.0036431
0.00359632
0.00355301
0.00351185
0.00347194
0.00343273
0.0033939
0.00335527
0.00331677
0.00327834
0.00323996
0.00320158
0.00316316
0.00312464
0.003086
0.00304717
0.00300817
0.00296894
0.00292951
0.00288982
0.00284995
0.00280982
0.00276952
0.0027289
0.00268809
0.00264695
0.00260553
0.00256364
0.00252145
0.00247882
0.00243584
0.00239235
0.00234859
0.00230443
0.00225971
0.00221433
0.00216882
0.00212315
0.00207674
0.00202947
0.00198222
0.00193512
0.00188792
0.00184024
0.00179137
0.00174122
0.00169028
0.00163931
0.00158854
0.00153619
0.00148328
0.00143118
0.00138059
0.00132716
0.0012742
0.00122077
0.00117068
0.00111444
0.0010642
0.00100163
0.000950448
0.000879449
0.000834896
0.000762026
0.00071763
0.000637838
0.000613335
0.00053215
0.000551139
0.000474731
0.000592307
0.000386668
0.00405161
0.00403009
0.00396578
0.0039066
0.00385933
0.00381306
0.00376297
0.00371003
0.00365638
0.00360371
0.00355305
0.00350485
0.00345912
0.00341559
0.00337384
0.00333346
0.00329407
0.00325535
0.00321707
0.00317904
0.00314111
0.00310316
0.00306513
0.00302693
0.00298855
0.00294994
0.00291111
0.00287201
0.0028327
0.00279313
0.00275335
0.00271325
0.00267293
0.00263227
0.00259131
0.00254988
0.00250813
0.00246594
0.00242337
0.0023803
0.00233692
0.00229313
0.0022488
0.00220384
0.00215867
0.0021133
0.00206723
0.00202039
0.00197348
0.00192667
0.00187978
0.00183247
0.0017839
0.0017341
0.00168351
0.00163277
0.00158211
0.00153009
0.00147758
0.00142564
0.00137506
0.00132194
0.00126944
0.001216
0.00116602
0.00110981
0.00105996
0.000997194
0.000946806
0.000875679
0.000831789
0.0007579
0.000714588
0.000634781
0.000610276
0.000528801
0.00054529
0.00046612
0.00055181
0.000352761
0.00391684
0.00391386
0.00387865
0.00383562
0.00379434
0.00375189
0.00370615
0.0036582
0.00360982
0.00356228
0.0035162
0.00347182
0.0034291
0.00338785
0.00334782
0.00330875
0.00327039
0.00323254
0.00319502
0.00315768
0.0031204
0.00308308
0.00304565
0.00300804
0.00297022
0.00293216
0.00289385
0.00285528
0.00281647
0.00277738
0.00273806
0.00269842
0.00265854
0.0026183
0.00257775
0.00253675
0.00249539
0.0024536
0.00241141
0.00236873
0.00232569
0.00228225
0.00223826
0.0021937
0.00214885
0.00210375
0.00205801
0.00201157
0.00196499
0.00191845
0.00187186
0.00182488
0.00177661
0.00172716
0.00167691
0.0016264
0.00157585
0.00152415
0.00147204
0.00142026
0.00136967
0.00131685
0.00126478
0.00121136
0.00116146
0.00110527
0.00105575
0.00099286
0.000943149
0.000872039
0.000828702
0.000753867
0.000711555
0.000631604
0.000607323
0.000525081
0.000538836
0.000457771
0.000514245
0.000321431
0.00380435
0.00380969
0.00379093
0.00376098
0.00372827
0.00369321
0.00365476
0.00361338
0.00357039
0.00352701
0.00348405
0.00344196
0.00340093
0.00336097
0.00332198
0.00328378
0.0032462
0.00320908
0.00317226
0.0031356
0.00309897
0.00306229
0.00302548
0.00298848
0.00295125
0.00291376
0.00287601
0.00283798
0.00279969
0.00276111
0.00272227
0.00268311
0.00264367
0.00260389
0.00256375
0.00252318
0.00248223
0.00244086
0.00239905
0.00235678
0.0023141
0.00227103
0.00222739
0.00218323
0.00213871
0.00209392
0.00204851
0.00200246
0.00195622
0.00190998
0.0018637
0.00181708
0.00176913
0.00172004
0.00167013
0.00161986
0.00156945
0.00151808
0.00146636
0.00141474
0.00136419
0.00131166
0.00126
0.00120661
0.00115677
0.00110066
0.00105141
0.000988478
0.000939396
0.000868356
0.000825497
0.000749763
0.000708482
0.000628285
0.000604167
0.000521244
0.000531677