/*--------------------------------*- C++ -*----------------------------------*\
| =========                 |                                                 |
| \\      /  F ield         | OpenFOAM: The Open Source CFD Toolbox           |
|  \\    /   O peration     | Version:  2.4.0                                 |
|   \\  /    A nd           | Web:      www.OpenFOAM.org                      |
|    \\/     M anipulation  |                                                 |
\*---------------------------------------------------------------------------*/
FoamFile
{
    version     2.0;
    format      ascii;
    class       volScalarField;
    location    "2.99";
    object      p;
}
// * * * * * * * * * * * * * * * * * * * * * * * * * * * * * * * * * * * * * //

dimensions      [0 2 -2 0 0 0 0];

internalField   nonuniform List<scalar> 
6000
(
0.0388349
0.267991
0.264938
0.288281
0.293736
0.301433
0.304486
0.308119
0.310074
0.312172
0.313569
0.314953
0.316025
0.317102
0.318139
0.319311
0.320602
0.32199
0.323327
0.324456
0.325196
0.325395
0.324967
0.323999
0.322785
0.32178
0.321497
0.322428
0.325006
0.329599
0.33652
0.346021
0.35826
0.373252
0.390765
0.410183
0.430433
0.450074
0.467462
0.480785
0.488958
0.491604
0.488862
0.481448
0.470419
0.456949
0.441989
0.426378
0.410415
0.39451
0.377967
0.361718
0.342796
0.325641
0.299102
0.281965
0.232436
0.224949
0.103992
0.150084
0.0538543
0.266206
0.264981
0.288133
0.293652
0.301346
0.304429
0.308066
0.310035
0.312137
0.313544
0.314933
0.316011
0.317089
0.318125
0.319292
0.320575
0.321962
0.323303
0.324443
0.325201
0.325422
0.325018
0.324069
0.322865
0.32186
0.32157
0.32249
0.325055
0.329636
0.336548
0.346041
0.358275
0.373262
0.390761
0.410161
0.430384
0.449979
0.467302
0.480623
0.4888
0.491428
0.488658
0.481217
0.470165
0.456662
0.441723
0.426126
0.41017
0.394259
0.377708
0.361421
0.342478
0.325212
0.298676
0.281301
0.23188
0.223797
0.103336
0.147902
0.067699
0.26413
0.265078
0.288015
0.29358
0.301279
0.30438
0.308023
0.310002
0.312109
0.313521
0.314915
0.315997
0.317076
0.31811
0.319272
0.320551
0.321936
0.323281
0.324433
0.325212
0.325459
0.32508
0.32415
0.322953
0.321944
0.32164
0.322542
0.325086
0.329648
0.336541
0.346016
0.358235
0.373203
0.390684
0.410059
0.430241
0.449777
0.467005
0.480339
0.488551
0.49119
0.488411
0.480955
0.469895
0.456399
0.441459
0.425868
0.409918
0.394007
0.377447
0.361135
0.342166
0.324837
0.298265
0.280724
0.231311
0.222763
0.102551
0.145955
0.0791679
0.261952
0.265217
0.287924
0.293526
0.301224
0.304338
0.307987
0.309972
0.312084
0.313501
0.314899
0.315984
0.317064
0.318095
0.319251
0.320526
0.321909
0.32326
0.324428
0.325229
0.325505
0.325152
0.324237
0.32304
0.322017
0.32169
0.322565
0.325081
0.329615
0.33648
0.345927
0.358115
0.373054
0.3905
0.409834
0.429965
0.449439
0.466569
0.479907
0.488169
0.490854
0.488095
0.480645
0.469587
0.456101
0.44117
0.425593
0.409656
0.39375
0.377188
0.360858
0.341866
0.324482
0.297873
0.280189
0.230767
0.221825
0.10178
0.144327
0.0891555
0.25978
0.265379
0.287856
0.293489
0.301178
0.304303
0.307954
0.309946
0.312062
0.313483
0.314884
0.315971
0.317051
0.318078
0.319229
0.320498
0.321881
0.323241
0.324426
0.325255
0.325563
0.325236
0.324332
0.323127
0.32208
0.321722
0.32256
0.325039
0.329534
0.336359
0.345763
0.357904
0.372792
0.390183
0.409459
0.429534
0.448959
0.466024
0.479326
0.487614
0.490357
0.487643
0.480224
0.469191
0.455729
0.440826
0.425276
0.409363
0.393473
0.376917
0.360575
0.341566
0.32413
0.297489
0.279668
0.230237
0.220927
0.101037
0.142899
0.0982261
0.25768
0.265548
0.287812
0.293467
0.301139
0.304273
0.307926
0.309922
0.312041
0.313466
0.31487
0.31596
0.317038
0.31806
0.319203
0.320467
0.321851
0.323221
0.324428
0.325291
0.325634
0.325334
0.324435
0.323214
0.322135
0.321736
0.322531
0.324964
0.32941
0.336181
0.345525
0.3576
0.372416
0.389735
0.408947
0.428979
0.448386
0.465428
0.478653
0.486921
0.489694
0.487026
0.479656
0.468671
0.455256
0.440402
0.424899
0.409028
0.393168
0.376629
0.360284
0.341262
0.323778
0.297107
0.279153
0.229713
0.220048
0.100313
0.141605
0.106551
0.255694
0.265721
0.287788
0.293459
0.301109
0.30425
0.307901
0.309901
0.312022
0.313451
0.314858
0.315948
0.317024
0.31804
0.319175
0.320433
0.321818
0.323201
0.324436
0.325337
0.325718
0.325442
0.324544
0.323299
0.32218
0.321734
0.322479
0.324859
0.329246
0.335952
0.345222
0.357216
0.37195
0.389195
0.408353
0.428364
0.44778
0.464822
0.477952
0.486163
0.488923
0.486274
0.478946
0.468019
0.454669
0.439886
0.424451
0.408641
0.392829
0.376321
0.359982
0.340955
0.323428
0.296728
0.278644
0.229192
0.219186
0.0996039
0.140422
0.114216
0.253843
0.265894
0.287765
0.293475
0.301086
0.304233
0.30788
0.309884
0.312005
0.313438
0.314847
0.315938
0.31701
0.318018
0.319144
0.320395
0.321783
0.323182
0.32445
0.325393
0.325814
0.325559
0.324654
0.323378
0.322214
0.321716
0.322405
0.324725
0.329047
0.33568
0.344869
0.356779
0.371432
0.38861
0.40773
0.42774
0.447174
0.464216
0.47726
0.485397
0.488109
0.485445
0.478136
0.467256
0.453976
0.439276
0.423929
0.408201
0.392454
0.375993
0.359673
0.340647
0.323082
0.296352
0.278143
0.228674
0.218341
0.0989085
0.139336
0.121322
0.252141
0.266067
0.287751
0.293503
0.301072
0.304223
0.307863
0.309869
0.311991
0.313426
0.314837
0.315928
0.316996
0.317995
0.31911
0.320354
0.321745
0.323166
0.324471
0.325459
0.32592
0.325682
0.324763
0.323448
0.322232
0.321678
0.322309
0.324566
0.328819
0.335376
0.344484
0.356312
0.370892
0.388014
0.407106
0.427122
0.446575
0.46361
0.476585
0.484649
0.487293
0.484586
0.477269
0.466417
0.453198
0.438584
0.423336
0.407705
0.392044
0.375645
0.359359
0.340342
0.322743
0.295982
0.277651
0.228155
0.217511
0.0982232
0.138334
0.127965
0.250593
0.266237
0.287741
0.293541
0.301066
0.304218
0.30785
0.309858
0.311979
0.313417
0.314829
0.315919
0.316981
0.31797
0.319073
0.32031
0.321708
0.323153
0.324499
0.325535
0.326034
0.325808
0.324868
0.323508
0.322236
0.321622
0.322192
0.324385
0.328569
0.33505
0.34408
0.355831
0.370342
0.387415
0.406486
0.426509
0.445976
0.462999
0.47592
0.483917
0.486485
0.483719
0.476372
0.465529
0.452357
0.437824
0.422679
0.407159
0.391599
0.375281
0.359041
0.340042
0.322415
0.29562
0.277169
0.227636
0.216697
0.0975427
0.137402
0.134225
0.249203
0.266398
0.287729
0.29359
0.301067
0.30422
0.307842
0.309849
0.311969
0.313409
0.314822
0.315912
0.316968
0.317945
0.319034
0.320264
0.32167
0.323143
0.324534
0.32562
0.326155
0.325936
0.324969
0.323558
0.322225
0.321551
0.322059
0.324188
0.328302
0.33471
0.343663
0.35534
0.369787
0.386815
0.405867
0.425894
0.445369
0.462378
0.475256
0.48319
0.485681
0.482846
0.475457
0.464608
0.45147
0.43701
0.421969
0.406567
0.391121
0.374899
0.358722
0.339753
0.322104
0.295273
0.276702
0.227119
0.215897
0.0968622
0.136527
0.140162
0.247974
0.266549
0.287713
0.293649
0.301075
0.304229
0.307837
0.309845
0.311962
0.313404
0.314818
0.315906
0.316955
0.317919
0.318995
0.320217
0.321633
0.323137
0.324575
0.325713
0.326283
0.326066
0.325065
0.323599
0.322204
0.321468
0.321914
0.323978
0.328025
0.33436
0.343238
0.354843
0.369228
0.386211
0.405244
0.425272
0.444749
0.461742
0.474584
0.482456
0.484868
0.481961
0.474521
0.463657
0.450545
0.436152
0.421214
0.405936
0.390616
0.374504
0.358404
0.339475
0.321813
0.294947
0.276255
0.226608
0.215114
0.0961799
0.135699
0.145824
0.246905
0.266685
0.28769
0.293714
0.301089
0.304244
0.307837
0.309843
0.311957
0.313401
0.314815
0.315901
0.316943
0.317894
0.318955
0.32017
0.321596
0.323134
0.324623
0.325813
0.326418
0.326198
0.325159
0.323635
0.322177
0.321378
0.321763
0.323763
0.327741
0.334003
0.342807
0.354341
0.368664
0.385603
0.404613
0.424638
0.444112
0.461086
0.473893
0.481704
0.484035
0.481052
0.473559
0.462675
0.449586
0.435256
0.420419
0.40527
0.390085
0.374097
0.358088
0.339213
0.321546
0.294646
0.275836
0.226112
0.214354
0.0954981
0.134911
0.151247
0.245997
0.266807
0.287659
0.293784
0.301108
0.304264
0.30784
0.309846
0.311956
0.3134
0.314815
0.315899
0.316933
0.31787
0.318915
0.320123
0.32156
0.323133
0.324677
0.325922
0.326559
0.326332
0.325253
0.323669
0.322148
0.321287
0.321609
0.323544
0.327454
0.333644
0.342373
0.353836
0.368096
0.384989
0.403974
0.42399
0.443455
0.460407
0.473177
0.480922
0.48317
0.480109
0.47256
0.461657
0.448589
0.434324
0.419591
0.404574
0.389532
0.373681
0.357776
0.338966
0.321304
0.294374
0.275447
0.225638
0.213623
0.0948231
0.134161
0.156462
0.245249
0.266915
0.287617
0.293858
0.301131
0.304291
0.307848
0.309852
0.311957
0.313402
0.314817
0.315899
0.316924
0.317847
0.318876
0.320076
0.321525
0.323136
0.324735
0.326036
0.326705
0.326471
0.325348
0.323704
0.32212
0.321197
0.321457
0.323327
0.327168
0.333284
0.341939
0.353329
0.367526
0.384371
0.403326
0.423328
0.442777
0.4597
0.472427
0.480102
0.482262
0.47912
0.471517
0.460595
0.447552
0.433355
0.418729
0.403851
0.388962
0.373257
0.357469
0.338737
0.321089
0.294134
0.275094
0.225192
0.212927
0.0941632
0.13345
0.16149
0.244656
0.267013
0.287563
0.293932
0.301157
0.304323
0.30786
0.309861
0.311961
0.313407
0.314821
0.315901
0.316918
0.317826
0.318838
0.320029
0.321491
0.32314
0.324798
0.326156
0.326856
0.326612
0.325447
0.323744
0.322097
0.321112
0.32131
0.323115
0.326886
0.332928
0.341506
0.352824
0.366956
0.383749
0.402671
0.422652
0.442076
0.458962
0.471639
0.479234
0.481301
0.478077
0.470419
0.459482
0.446469
0.432347
0.417835
0.403103
0.388374
0.372828
0.357169
0.338527
0.320902
0.293928
0.274778
0.224779
0.212271
0.0935269
0.13278
0.166347
0.244216
0.267104
0.287497
0.294006
0.301184
0.30436
0.307876
0.309875
0.311967
0.313414
0.314827
0.315906
0.316914
0.317807
0.318802
0.319984
0.321458
0.323147
0.324864
0.326281
0.327011
0.326758
0.32555
0.323789
0.322081
0.321035
0.32117
0.322909
0.326609
0.332576
0.341079
0.352322
0.366387
0.383126
0.402009
0.421962
0.441352
0.458191
0.470805
0.478311
0.480278
0.47697
0.469259
0.458312
0.445336
0.431297
0.416908
0.402331
0.387773
0.372396
0.356878
0.338337
0.320744
0.293757
0.274501
0.224403
0.211658
0.0929214
0.132153
0.171048
0.243922
0.267194
0.287418
0.294076
0.301213
0.304402
0.307895
0.309892
0.311977
0.313424
0.314836
0.315913
0.316913
0.317791
0.318768
0.31994
0.321426
0.323155
0.324933
0.326409
0.32717
0.326908
0.32566
0.323844
0.322076
0.320969
0.321041
0.322713
0.326342
0.332233
0.340658
0.351827
0.365823
0.382505
0.401344
0.42126
0.440604
0.457382
0.46992
0.477326
0.479186
0.47579
0.468028
0.457077
0.444147
0.430201
0.415946
0.401534
0.387158
0.371961
0.356596
0.338167
0.320617
0.293622
0.274264
0.224067
0.211091
0.0923523
0.131569
0.175603
0.243769
0.267288
0.287327
0.294142
0.301242
0.304448
0.307917
0.309912
0.311989
0.313436
0.314848
0.315923
0.316915
0.317778
0.318736
0.319899
0.321395
0.323165
0.325004
0.326539
0.327332
0.327063
0.325777
0.323907
0.322082
0.320915
0.320924
0.322529
0.326085
0.3319
0.340249
0.351341
0.365266
0.381887
0.400677
0.420547
0.439832
0.456535
0.468982
0.476273
0.478018
0.47453
0.466719
0.455771
0.442897
0.429056
0.414947
0.400714
0.38653
0.371526
0.356324
0.338019
0.32052
0.293524
0.274069
0.223771
0.21057
0.0918233
0.131029
0.18002
0.243749
0.267392
0.287228
0.2942
0.301269
0.304498
0.307943
0.309937
0.312005
0.313451
0.314862
0.315936
0.31692
0.317768
0.318709
0.31986
0.321367
0.323176
0.325076
0.32667
0.327495
0.327221
0.325901
0.323982
0.3221
0.320874
0.320821
0.322359
0.325843
0.331582
0.339852
0.350867
0.36472
0.381278
0.400012
0.419823
0.439036
0.455648
0.467985
0.475146
0.476765
0.473183
0.465325
0.454387
0.44158
0.427858
0.413909
0.399868
0.38589
0.37109
0.356064
0.337894
0.320454
0.293464
0.273915
0.223518
0.210097
0.0913366
0.130531
0.184306
0.243855
0.267511
0.287122
0.294251
0.301294
0.304551
0.307972
0.309965
0.312023
0.313469
0.314878
0.315951
0.316928
0.317763
0.318685
0.319825
0.321341
0.323189
0.325149
0.326801
0.32766
0.327384
0.326033
0.324068
0.322133
0.320849
0.320734
0.322205
0.325616
0.331279
0.339471
0.350409
0.364188
0.380679
0.39935
0.419093
0.438217
0.454718
0.466926
0.473941
0.475424
0.471743
0.463841
0.452921
0.440193
0.426603
0.41283
0.398995
0.385237
0.370655
0.355816
0.337792
0.32042
0.293443
0.273804
0.223309
0.209671
0.0908932
0.130074
0.188469
0.244078
0.26765
0.287013
0.294293
0.301316
0.304606
0.308004
0.309997
0.312044
0.313489
0.314897
0.315969
0.31694
0.317762
0.318667
0.319795
0.321319
0.323202
0.325221
0.326932
0.327824
0.327549
0.326172
0.324166
0.322181
0.320841
0.320664
0.322069
0.325408
0.330995
0.33911
0.34997
0.363674
0.380094
0.398694
0.418356
0.437375
0.453744
0.465802
0.472654
0.473989
0.470205
0.462261
0.451368
0.438731
0.425289
0.411708
0.398096
0.384572
0.370221
0.355582
0.337714
0.32042
0.293461
0.273735
0.223143
0.209292
0.0904935
0.129656
0.192513
0.24441
0.267812
0.286904
0.294326
0.301334
0.304664
0.308039
0.310033
0.312069
0.313513
0.314918
0.31599
0.316956
0.317766
0.318654
0.31977
0.3213
0.323218
0.325293
0.327061
0.327988
0.327718
0.32632
0.324276
0.322243
0.32085
0.320613
0.321952
0.32522
0.330732
0.33877
0.349552
0.36318
0.379526
0.398048
0.417615
0.43651
0.452727
0.464611
0.471281
0.472456
0.468564
0.460582
0.449723
0.437191
0.423913
0.41054
0.397168
0.383894
0.369789
0.355361
0.33766
0.320452
0.293519
0.273711
0.223023
0.208961
0.0901374
0.129274
0.196444
0.244844
0.268002
0.286801
0.294352
0.301347
0.304722
0.308077
0.310074
0.312097
0.31354
0.314942
0.316014
0.316975
0.317775
0.318647
0.319751
0.321285
0.323235
0.325364
0.327187
0.328151
0.327889
0.326475
0.324397
0.322322
0.320877
0.320582
0.321857
0.325054
0.330492
0.338455
0.34916
0.362711
0.378978
0.397414
0.416873
0.435624
0.451663
0.463352
0.46982
0.470824
0.466819
0.4588
0.447984
0.43557
0.422473
0.409326
0.39621
0.383204
0.369358
0.355155
0.337633
0.320519
0.293618
0.27373
0.222948
0.208678
0.0898241
0.128928
0.200267
0.245372
0.26822
0.286705
0.294371
0.301356
0.304781
0.308117
0.310119
0.312129
0.313571
0.314968
0.316041
0.316998
0.31779
0.318648
0.319739
0.321276
0.323254
0.325434
0.327311
0.328312
0.328062
0.326636
0.324531
0.322416
0.320923
0.320573
0.321784
0.324913
0.330279
0.338167
0.348795
0.362269
0.378454
0.396795
0.41613
0.434716
0.450555
0.462023
0.468271
0.469091
0.464968
0.456914
0.44615
0.433867
0.420967
0.408064
0.395223
0.3825
0.368929
0.354963
0.337631
0.32062
0.293757
0.273794
0.222918
0.208442
0.0895529
0.128616
0.203986
0.245985
0.268469
0.286621
0.294385
0.301361
0.30484
0.308161
0.310168
0.312165
0.313605
0.314998
0.316071
0.317026
0.31781
0.318656
0.319735
0.321273
0.323275
0.325503
0.327433
0.328472
0.328236
0.326804
0.324676
0.322527
0.320989
0.320585
0.321736
0.324798
0.330095
0.337909
0.348462
0.361857
0.377957
0.396194
0.41539
0.433789
0.449402
0.460625
0.466634
0.467258
0.463012
0.454925
0.44422
0.432081
0.419394
0.406753
0.394205
0.381782
0.368502
0.354787
0.337655
0.320757
0.293937
0.273902
0.222934
0.208253
0.0893229
0.128336
0.207606
0.246677
0.268749
0.286553
0.294396
0.301361
0.304899
0.308206
0.310222
0.312205
0.313644
0.315032
0.316105
0.317058
0.317837
0.318672
0.31974
0.321277
0.3233
0.325571
0.327552
0.32863
0.328411
0.326978
0.324833
0.322654
0.321076
0.320621
0.321713
0.324713
0.329941
0.337685
0.348163
0.361479
0.377489
0.395612
0.414653
0.432843
0.448204
0.459159
0.464911
0.465327
0.460954
0.452834
0.442196
0.430213
0.417754
0.405394
0.393156
0.381052
0.368077
0.354627
0.337707
0.320929
0.29416
0.274056
0.222996
0.208112
0.0891329
0.128087
0.211132
0.247441
0.26906
0.286501
0.294406
0.301359
0.304957
0.308255
0.310281
0.312251
0.313688
0.31507
0.316144
0.317094
0.31787
0.318696
0.319754
0.321289
0.32333
0.325639
0.327668
0.328785
0.328587
0.327157
0.325002
0.322798
0.321183
0.320681
0.321718
0.324657
0.329821
0.337496
0.347901
0.361137
0.377054
0.395054
0.413921
0.431879
0.446963
0.457627
0.463104
0.463303
0.458798
0.450647
0.440081
0.428265
0.416049
0.403986
0.392077
0.380308
0.367655
0.354484
0.337786
0.321138
0.294424
0.274257
0.223104
0.208018
0.0889821
0.127868
0.214568
0.24827
0.269402
0.28647
0.294418
0.301355
0.305014
0.308306
0.310345
0.312302
0.313738
0.315113
0.316186
0.317135
0.31791
0.318729
0.319778
0.32131
0.323365
0.325708
0.327782
0.328938
0.328763
0.327342
0.325181
0.322959
0.321311
0.320766
0.321752
0.324634
0.329736
0.337345
0.34768
0.360836
0.376655
0.394521
0.413197
0.430899
0.445681
0.456031
0.461219
0.46119
0.45655
0.448369
0.43788
0.42624
0.41428
0.40253
0.390968
0.379551
0.367236
0.354357
0.337893
0.321383
0.294731
0.274503
0.223259
0.207971
0.0888695
0.127679
0.21792
0.249158
0.269774
0.286459
0.294433
0.301351
0.305072
0.308361
0.310414
0.31236
0.313794
0.315161
0.316234
0.317182
0.317956
0.318771
0.319813
0.321341
0.323406
0.325779
0.327893
0.329088
0.32894
0.327533
0.325372
0.323136
0.321461
0.320877
0.321816
0.324645
0.32969
0.337236
0.347502
0.360578
0.376295
0.394016
0.412482
0.429904
0.44436
0.454376
0.459259
0.458996
0.454216
0.446005
0.435599
0.424143
0.412452
0.40103
0.38983
0.378782
0.366821
0.354248
0.338029
0.321666
0.295081
0.274796
0.223461
0.207972
0.088794
0.127519
0.221191
0.2501
0.270175
0.286471
0.294453
0.301348
0.30513
0.308419
0.31049
0.312425
0.313857
0.315216
0.316288
0.317235
0.318011
0.318822
0.31986
0.321384
0.323455
0.325851
0.328003
0.329235
0.329117
0.327729
0.325575
0.32333
0.321633
0.321015
0.321912
0.324692
0.329683
0.33717
0.34737
0.360367
0.375977
0.393541
0.411778
0.428896
0.443002
0.452666
0.457233
0.456727
0.451805
0.443566
0.433246
0.421982
0.410569
0.399488
0.388665
0.378003
0.366409
0.354156
0.338193
0.321987
0.295474
0.275137
0.223708
0.20802
0.0887544
0.127388
0.224386
0.251089
0.270603
0.286506
0.294481
0.301348
0.30519
0.30848
0.310571
0.312497
0.313928
0.315278
0.316349
0.317295
0.318073
0.318884
0.319918
0.321438
0.323513
0.325927
0.32811
0.329379
0.329294
0.32793
0.325789
0.323542
0.321828
0.321182
0.322041
0.324778
0.32972
0.337152
0.347288
0.360205
0.375703
0.393098
0.411086
0.427877
0.441611
0.450905
0.455145
0.454392
0.449326
0.441059
0.430829
0.419762
0.408636
0.397907
0.387475
0.377213
0.366002
0.354084
0.338387
0.322347
0.29591
0.275525
0.224003
0.208116
0.0887498
0.127285
0.22751
0.252122
0.271056
0.286563
0.294518
0.301352
0.305251
0.308547
0.31066
0.312578
0.314009
0.315349
0.316418
0.317363
0.318143
0.318956
0.319989
0.321505
0.323581
0.326007
0.328217
0.329521
0.329472
0.328137
0.326014
0.323771
0.322047
0.321378
0.322206
0.324904
0.329801
0.337183
0.347258
0.360096
0.375477
0.392689
0.410409
0.426849
0.44019
0.449101
0.453005
0.451999
0.446787
0.438494
0.428357
0.417493
0.40666
0.396293
0.386263
0.376415
0.3656
0.35403
0.338611
0.322745
0.296391
0.275961
0.224343
0.208259
0.088779
0.127212
0.230567
0.253192
0.271533
0.286644
0.294564
0.301363
0.305316
0.308618
0.310755
0.312668
0.314099
0.31543
0.316497
0.317439
0.318224
0.319039
0.320073
0.321586
0.32366
0.326093
0.328324
0.329661
0.329649
0.328349
0.32625
0.324018
0.322289
0.321604
0.322406
0.325072
0.329931
0.337266
0.347284
0.360043
0.375301
0.392316
0.409746
0.425814
0.438745
0.447259
0.450819
0.449557
0.444199
0.435881
0.42584
0.415182
0.404649
0.39465
0.385032
0.37561
0.365205
0.353996
0.338864
0.323183
0.296914
0.276445
0.22473
0.20845
0.0888407
0.127168
0.233562
0.254297
0.272033
0.286747
0.294621
0.30138
0.305386
0.308696
0.310859
0.312768
0.3142
0.315522
0.316586
0.317526
0.318315
0.319134
0.320171
0.321682
0.323752
0.326187
0.328433
0.3298
0.329827
0.328565
0.326498
0.324283
0.322557
0.321862
0.322645
0.325284
0.33011
0.337405
0.347369
0.360049
0.375177
0.391981
0.4091
0.424775
0.437279
0.445385
0.448597
0.447076
0.441572
0.43323
0.423288
0.412841
0.40261
0.392985
0.383786
0.374801
0.364817
0.353981
0.339148
0.32366
0.297482
0.276978
0.225162
0.208689
0.0889337
0.127153
0.236499
0.255432
0.272552
0.286872
0.294689
0.301406
0.305461
0.308781
0.310972
0.312879
0.314314
0.315627
0.316687
0.317625
0.318418
0.319243
0.320284
0.321793
0.323858
0.32629
0.328545
0.329938
0.330005
0.328787
0.326757
0.324566
0.32285
0.322152
0.322924
0.325543
0.330343
0.337603
0.347517
0.360116
0.375107
0.391684
0.408472
0.423735
0.435798
0.443487
0.446345
0.444565
0.438916
0.430553
0.420713
0.410478
0.400552
0.391304
0.382531
0.373991
0.364438
0.353988
0.339462
0.324177
0.298094
0.27756
0.225641
0.208977
0.0890572
0.127168
0.239382
0.256594
0.273091
0.287017
0.294769
0.301442
0.305542
0.308874
0.311094
0.313002
0.314441
0.315745
0.316802
0.317737
0.318534
0.319365
0.320412
0.321921
0.323979
0.326403
0.328662
0.330077
0.330184
0.329014
0.327027
0.324868
0.323169
0.322477
0.323244
0.325852
0.330632
0.337862
0.347731
0.360249
0.375093
0.391427
0.407864
0.422698
0.434307
0.441572
0.444074
0.442034
0.436242
0.427861
0.418126
0.408104
0.398483
0.389615
0.381269
0.373181
0.364069
0.354015
0.339807
0.324734
0.298749
0.27819
0.226165
0.209312
0.0892101
0.127213
0.242215
0.257778
0.273646
0.287183
0.294861
0.301487
0.305631
0.308976
0.311226
0.313138
0.314582
0.315878
0.316932
0.317864
0.318665
0.319503
0.320557
0.322066
0.324116
0.32653
0.328787
0.33022
0.330366
0.329246
0.327309
0.325189
0.323516
0.322838
0.323608
0.326212
0.33098
0.338187
0.348013
0.360449
0.375137
0.39121
0.407277
0.421665
0.43281
0.439647
0.441791
0.439493
0.433561
0.425166
0.415537
0.405731
0.396414
0.387924
0.380007
0.372376
0.363711
0.354065
0.340182
0.32533
0.299447
0.27887
0.226733
0.209695
0.0893914
0.127288
0.245002
0.258982
0.274216
0.287368
0.294965
0.301542
0.305727
0.309087
0.31137
0.313288
0.314738
0.316029
0.31708
0.318008
0.318814
0.319659
0.32072
0.322229
0.324271
0.326672
0.328922
0.330368
0.330551
0.329485
0.327603
0.32553
0.323892
0.323236
0.324018
0.326626
0.33139
0.338581
0.348368
0.360718
0.375239
0.391034
0.406713
0.420641
0.431314
0.437718
0.439505
0.436952
0.430884
0.422479
0.412959
0.403368
0.394353
0.386238
0.378749
0.371578
0.363366
0.354136
0.340587
0.325967
0.300189
0.279598
0.227346
0.210126
0.0895998
0.127394
0.247748
0.260203
0.274799
0.287571
0.29508
0.301608
0.305832
0.309208
0.311524
0.313452
0.314911
0.316197
0.317246
0.318172
0.318981
0.319833
0.320903
0.322413
0.324446
0.326829
0.329069
0.330523
0.330743
0.329732
0.327911
0.325892
0.324297
0.323672
0.324477
0.327097
0.331865
0.339048
0.348798
0.361059
0.375401
0.390899
0.406173
0.419629
0.429823
0.435793
0.437224
0.434421
0.428223
0.419813
0.410405
0.401026
0.39231
0.384566
0.377501
0.37079
0.363036
0.35423
0.341023
0.326642
0.300974
0.280375
0.228003
0.210606
0.0898343
0.127532
0.250456
0.261437
0.275395
0.28779
0.295207
0.301684
0.305945
0.309339
0.311691
0.313631
0.315102
0.316385
0.317432
0.318356
0.319169
0.320028
0.321106
0.322618
0.324641
0.327006
0.32923
0.33069
0.330944
0.32999
0.328234
0.326277
0.324734
0.32415
0.324986
0.327629
0.33241
0.33959
0.349307
0.361473
0.375621
0.390806
0.405658
0.418632
0.428342
0.433877
0.434957
0.43191
0.42559
0.41718
0.407885
0.398717
0.390294
0.382914
0.376269
0.370016
0.362721
0.354346
0.341488
0.327357
0.3018
0.281201
0.228703
0.211134
0.0900937
0.127702
0.25313
0.262681
0.276001
0.288026
0.295344
0.301771
0.306067
0.30948
0.31187
0.313826
0.31531
0.316593
0.317641
0.318562
0.31938
0.320247
0.321333
0.322845
0.324858
0.327203
0.329409
0.330871
0.331157
0.330261
0.328574
0.326686
0.325205
0.324672
0.325549
0.328224
0.333028
0.340212
0.349896
0.361961
0.375901
0.390754
0.40517
0.417652
0.426876
0.431978
0.432712
0.42943
0.422997
0.414593
0.405412
0.396451
0.388314
0.38129
0.375057
0.369259
0.362423
0.354486
0.341983
0.32811
0.302668
0.282075
0.229445
0.211709
0.0903767
0.127904
0.255774
0.263935
0.276615
0.288275
0.295492
0.301868
0.306198
0.309633
0.312061
0.314036
0.315537
0.316823
0.317872
0.318794
0.319616
0.320491
0.321585
0.323098
0.325099
0.327422
0.329608
0.33107
0.331386
0.330548
0.328936
0.327124
0.325713
0.325241
0.326169
0.328888
0.333723
0.340917
0.350569
0.362522
0.376239
0.390743
0.404709
0.416694
0.425429
0.430102
0.430498
0.426993
0.420456
0.412064
0.402996
0.394238
0.386377
0.379701
0.373871
0.368522
0.362145
0.354649
0.342506
0.328901
0.303577
0.282996
0.230228
0.212333
0.0906822
0.12814
0.258391
0.265193
0.277237
0.288539
0.295649
0.301976
0.306338
0.309795
0.312264
0.314262
0.315784
0.317075
0.318129
0.319052
0.31988
0.320762
0.321864
0.323377
0.325366
0.327665
0.32983
0.33129
0.331635
0.330857
0.329323
0.327594
0.326261
0.32586
0.326851
0.329624
0.334499
0.341709
0.351326
0.363158
0.376633
0.390772
0.404277
0.415758
0.424006
0.428255
0.428325
0.424607
0.417978
0.409604
0.400649
0.392086
0.384492
0.378152
0.372715
0.367809
0.361887
0.354836
0.343058
0.329727
0.304524
0.283963
0.231052
0.213004
0.091009
0.128409
0.260985
0.266455
0.277864
0.288814
0.295816
0.302093
0.306487
0.309969
0.31248
0.314504
0.316049
0.317349
0.318411
0.319337
0.320173
0.321064
0.322173
0.323686
0.325661
0.327936
0.330078
0.331534
0.331909
0.331192
0.32974
0.328101
0.326855
0.326536
0.3276
0.330437
0.335361
0.34259
0.352168
0.363865
0.377083
0.39084
0.403874
0.414848
0.42261
0.426444
0.4262
0.422286
0.415575
0.407223
0.398379
0.390004
0.382666
0.376649
0.371594
0.367122
0.36165
0.355045
0.343636
0.330589
0.305509
0.284977
0.231915
0.213722
0.0913559
0.128713
0.263559
0.267717
0.278496
0.289101
0.295991
0.30222
0.306645
0.310152
0.312707
0.314761
0.316332
0.317647
0.318718
0.319651
0.320496
0.321397
0.322514
0.324026
0.325987
0.328236
0.330353
0.331805
0.33221
0.331558
0.330192
0.328649
0.3275
0.327272
0.328421
0.331332
0.336313
0.343563
0.353094
0.364642
0.377585
0.390947
0.403501
0.413965
0.421246
0.424675
0.424132
0.420037
0.413257
0.404932
0.396196
0.387998
0.380904
0.375198
0.370511
0.366464
0.361437
0.355278
0.34424
0.331485
0.30653
0.286034
0.232817
0.214486
0.0917216
0.129051
0.266117
0.268978
0.279131
0.289398
0.296174
0.302356
0.306811
0.310345
0.312945
0.315032
0.316634
0.317966
0.319052
0.319995
0.320852
0.321764
0.32289
0.3244
0.326345
0.328567
0.33066
0.332108
0.332545
0.331959
0.330685
0.329244
0.328201
0.328074
0.329319
0.332314
0.337358
0.344627
0.354103
0.365486
0.378137
0.39109
0.403157
0.413111
0.419917
0.422953
0.422129
0.417872
0.411034
0.402739
0.394104
0.386075
0.379211
0.373802
0.369471
0.365838
0.361247
0.355533
0.344868
0.332412
0.307586
0.287135
0.233755
0.215297
0.0921047
0.129424
0.268662
0.270235
0.279767
0.289705
0.296365
0.302501
0.306985
0.310548
0.313195
0.315317
0.316953
0.318308
0.319412
0.320369
0.32124
0.322165
0.323301
0.32481
0.32674
0.328934
0.331001
0.332446
0.332917
0.332401
0.331223
0.329893
0.328963
0.328949
0.330299
0.333386
0.338497
0.345783
0.355192
0.366393
0.378735
0.391268
0.402843
0.412288
0.418627
0.421285
0.4202
0.415799
0.408914
0.40065
0.392111
0.384238
0.377591
0.372464
0.368475
0.365244
0.361081
0.355811
0.34552
0.33337
0.308675
0.288277
0.234728
0.216152
0.0925041
0.129833
0.271198
0.271486
0.280404
0.29002
0.296564
0.302654
0.307167
0.31076
0.313454
0.315616
0.317289
0.31867
0.319797
0.320772
0.321661
0.322602
0.323749
0.325258
0.327172
0.329338
0.33138
0.332823
0.333329
0.332888
0.331812
0.3306
0.329794
0.329902
0.331366
0.334553
0.339732
0.347028
0.356357
0.367359
0.379377
0.391479
0.402557
0.411497
0.417379
0.419677
0.418352
0.413825
0.406904
0.398671
0.390219
0.38249
0.376045
0.371187
0.367526
0.364685
0.360941
0.356111
0.346193
0.334355
0.309793
0.289459
0.235734
0.217052
0.0929189
0.130277
0.273728
0.272728
0.281039
0.290342
0.296768
0.302816
0.307358
0.310981
0.313724
0.315927
0.317641
0.319052
0.320207
0.321204
0.322114
0.323075
0.324235
0.325745
0.327643
0.329782
0.3318
0.333242
0.333786
0.333424
0.332458
0.331372
0.330698
0.330937
0.332525
0.335817
0.341062
0.348359
0.357592
0.368379
0.380059
0.391721
0.402301
0.410739
0.416176
0.418134
0.416592
0.411958
0.405009
0.396805
0.388431
0.380832
0.374576
0.369972
0.366625
0.364163
0.360827
0.356431
0.346886
0.335367
0.31094
0.290678
0.236773
0.217994
0.0933478
0.130755
0.276255
0.27396
0.281673
0.29067
0.296978
0.302985
0.307555
0.311211
0.314003
0.31625
0.318007
0.319453
0.320639
0.321663
0.3226
0.323583
0.32476
0.326272
0.328157
0.330269
0.332263
0.333706
0.334292
0.334014
0.333163
0.332212
0.331679
0.332059
0.333777
0.337175
0.342484
0.349771
0.358892
0.369448
0.380777
0.391992
0.402073
0.410016
0.415022
0.416661
0.414926
0.410202
0.403232
0.395053
0.386746
0.379265
0.373183
0.36882
0.365773
0.363677
0.360739
0.356772
0.347598
0.336401
0.312113
0.291932
0.237841
0.218978
0.0937899
0.131266
0.278782
0.275178
0.282302
0.291004
0.297194
0.303162
0.307761
0.311449
0.314291
0.316584
0.318387
0.319872
0.321093
0.322148
0.323115
0.324125
0.325321
0.326839
0.328712
0.3308
0.332772
0.334219
0.33485
0.33466
0.333932
0.333123
0.332741
0.333268
0.335122
0.338627
0.343991
0.351256
0.360249
0.370559
0.381527
0.392291
0.401873
0.409327
0.413918
0.415262
0.413358
0.408561
0.401575
0.393416
0.385164
0.377787
0.371866
0.367731
0.364972
0.363228
0.360677
0.357133
0.348326
0.337456
0.313308
0.293219
0.238937
0.220002
0.094244
0.13181
0.281314
0.276381
0.282927
0.291342
0.297415
0.303346
0.307973
0.311696
0.314589
0.316929
0.31878
0.320306
0.321567
0.322658
0.32366
0.3247
0.32592
0.327446
0.32931
0.331376
0.333329
0.334782
0.335463
0.335367
0.334767
0.334108
0.333885
0.334566
0.336558
0.340168
0.345579
0.352807
0.361658
0.371709
0.382307
0.392615
0.401699
0.408674
0.412868
0.413941
0.411892
0.407037
0.400038
0.391892
0.383684
0.376397
0.370624
0.366705
0.364221
0.362818
0.360641
0.357512
0.349068
0.33853
0.314523
0.294536
0.240058
0.221064
0.0947091
0.132387
0.283852
0.277566
0.283545
0.291683
0.29764
0.303537
0.308192
0.31195
0.314894
0.317283
0.319184
0.320755
0.322059
0.32319
0.324231
0.325306
0.326552
0.328091
0.329949
0.331997
0.333935
0.335398
0.336132
0.336134
0.33567
0.335168
0.335109
0.33595
0.33808
0.34179
0.347238
0.354416
0.363112
0.372893
0.383114
0.392963
0.401551
0.408056
0.411874
0.412701
0.41053
0.405631
0.39862
0.390478
0.382301
0.375091
0.369455
0.36574
0.363519
0.362445
0.36063
0.357908
0.349824
0.339619
0.315756
0.295879
0.241203
0.222162
0.0951841
0.132994
0.286402
0.27873
0.284155
0.292028
0.297869
0.303734
0.308419
0.312212
0.315208
0.317647
0.3196
0.321219
0.322568
0.323743
0.324826
0.32594
0.327217
0.328772
0.330628
0.332662
0.33459
0.336067
0.336859
0.336964
0.33664
0.336301
0.336412
0.337414
0.339682
0.343485
0.34896
0.356076