/*--------------------------------*- C++ -*----------------------------------*\
| =========                 |                                                 |
| \\      /  F ield         | OpenFOAM: The Open Source CFD Toolbox           |
|  \\    /   O peration     | Version:  2.4.0                                 |
|   \\  /    A nd           | Web:      www.OpenFOAM.org                      |
|    \\/     M anipulation  |                                                 |
\*---------------------------------------------------------------------------*/
FoamFile
{
    version     2.0;
    format      ascii;
    class       volScalarField;
    location    "0.89";
    object      pMean;
}
// * * * * * * * * * * * * * * * * * * * * * * * * * * * * * * * * * * * * * //

dimensions      [0 2 -2 0 0 0 0];

internalField   nonuniform List<scalar> 
2320
(
3.31252
3.30929
3.2986
3.29978
3.2893
3.29026
3.27442
3.27724
3.26151
3.26587
3.24293
3.25013
3.22202
3.23511
3.19446
3.2105
3.15186
3.17197
3.08781
3.10766
3.3093
3.30425
3.29316
3.29434
3.2831
3.28455
3.2682
3.27013
3.25378
3.25767
3.2338
3.24062
3.21186
3.22357
3.18223
3.19609
3.13719
3.15297
3.0663
3.08048
3.30861
3.30336
3.29387
3.29483
3.2841
3.28353
3.27046
3.27241
3.25553
3.25819
3.2376
3.24313
3.21614
3.22699
3.1891
3.20293
3.1495
3.1664
3.0889
3.09924
3.30805
3.3046
3.29498
3.29494
3.28397
3.28361
3.27032
3.27006
3.25315
3.25556
3.23629
3.24043
3.21477
3.22272
3.18765
3.19744
3.14765
3.16079
3.08687
3.09559
3.30834
3.30395
3.29509
3.2933
3.28473
3.28313
3.27118
3.2689
3.25573
3.25449
3.23811
3.23819
3.21875
3.21968
3.19235
3.1972
3.15787
3.16304
3.10458
3.10431
3.30643
3.30028
3.29068
3.28844
3.28108
3.2785
3.26601
3.26276
3.25006
3.24814
3.23308
3.23156
3.21292
3.21208
3.18795
3.18735
3.15381
3.1526
3.1035
3.09773
3.30677
3.29767
3.29016
3.28656
3.28182
3.27591
3.26659
3.26001
3.25081
3.24445
3.23452
3.2278
3.21619
3.20864
3.19349
3.18435
3.16238
3.15152
3.11552
3.10305
3.30636
3.2979
3.29165
3.28783
3.28251
3.2768
3.26815
3.26025
3.25255
3.2445
3.2361
3.22637
3.21891
3.20697
3.19848
3.18246
3.17203
3.1507
3.13222
3.10538
3.30903
3.29771
3.29504
3.28914
3.28573
3.27642
3.27051
3.25853
3.25563
3.24338
3.24098
3.22637
3.22599
3.20724
3.208
3.18198
3.18623
3.15188
3.1516
3.10908
3.30996
3.3
3.2976
3.292
3.28764
3.27943
3.27271
3.26221
3.25798
3.24744
3.24448
3.23163
3.23097
3.21488
3.21714
3.19398
3.20272
3.1688
3.18389
3.12838
3.31353
3.29961
3.29989
3.29183
3.28962
3.27753
3.27427
3.25859
3.25954
3.2434
3.2481
3.22923
3.23824
3.21334
3.22908
3.19205
3.22266
3.16946
3.21282
3.14294
3.31387
3.30281
3.30208
3.29682
3.29128
3.281
3.27551
3.26289
3.25884
3.24702
3.24742
3.23561
3.23946
3.22478
3.23365
3.2124
3.23323
3.20352
3.23484
3.18006
3.3175
3.30403
3.30571
3.29766
3.29407
3.28179
3.27763
3.26142
3.26065
3.24361
3.24988
3.23232
3.2436
3.21951
3.23875
3.20095
3.24807
3.18502
3.27858
3.16924
3.31801
3.30753
3.30643
3.30067
3.29446
3.28452
3.27471
3.263
3.25606
3.24519
3.24434
3.23835
3.24069
3.2329
3.23395
3.22349
3.24196
3.2248
3.28435
3.25693
3.32127
3.30846
3.31042
3.30274
3.2985
3.28437
3.27481
3.25872
3.25468
3.23775
3.243
3.23066
3.24087
3.22488
3.23509
3.21236
3.24556
3.1966
3.29913
3.19511
3.32161
3.31246
3.31327
3.30853
3.30035
3.287
3.27103
3.2591
3.2471
3.23716
3.23969
3.23803
3.24086
3.24159
3.22819
3.2347
3.21917
3.23004
3.27193
3.29001
3.32532
3.31367
3.31813
3.31132
3.30528
3.28662
3.26966
3.25407
3.24263
3.22749
3.23862
3.23307
3.24432
3.23943
3.23537
3.23839
3.23489
3.22072
3.23592
3.19443
3.32652
3.31729
3.32279
3.31732
3.31076
3.29086
3.27019
3.25363
3.24109
3.22808
3.24382
3.23626
3.25333
3.25188
3.23717
3.24241
3.2213
3.28066
3.25509
3.26971
3.3292
3.31998
3.3282
3.32236
3.3152
3.29483
3.27126
3.25783
3.23971
3.22819
3.24363
3.2377
3.2558
3.26152
3.23385
3.25005
3.20552
3.25028
3.17017
3.32588
3.33083
3.3234
3.33354
3.33121
3.32446
3.30644
3.28779
3.27407
3.25915
3.24853
3.2624
3.2573
3.28005
3.27859
3.26615
3.26969
3.24584
3.33558
3.27014
3.53493
2.98566
2.97744
2.82911
2.75166
2.58794
2.41406
2.17842
1.93652
2.95771
2.95071
2.80264
2.72743
2.55782
2.37189
2.13785
1.88644
2.98454
2.97338
2.82479
2.75209
2.58253
2.40534
2.17657
1.91911
2.98543
2.97332
2.82395
2.75477
2.58041
2.40199
2.1748
1.90952
3.00801
2.98849
2.84014
2.7708
2.59053
2.41707
2.19652
1.91847
3.01725
2.99296
2.85096
2.78428
2.59267
2.43039
2.19527
1.91306
3.03352
3.00769
2.86901
2.80174
2.59547
2.44184
2.19417
1.90896
3.05768
3.01669
2.89071
2.82728
2.6005
2.45082
2.18575
1.89353
3.07873
3.02036
2.90639
2.84972
2.61706
2.45868
2.16634
1.87358
3.12554
3.0291
2.91439
2.82324
2.6129
2.4568
2.14064
1.85254
3.16443
3.05196
2.97038
2.78643
2.59451
2.44789
2.11398
1.83698
3.21658
3.07046
3.03911
2.76106
2.57344
2.42537
2.08468
1.83126
3.25443
3.0391
3.07688
2.73813
2.55584
2.38687
2.05485
1.83878
3.33958
3.01532
3.0866
2.72603
2.5554
2.34511
2.02853
1.85089
3.44598
2.99869
3.07421
2.71871
2.56597
2.31281
2.01424
1.8479
3.56496
3.02299
3.04969
2.71477
2.57968
2.29334
2.02165
1.81573
3.6127
3.05243
3.01308
2.70469
2.58719
2.27691
2.04836
1.75177
3.58889
3.08188
2.9737
2.69405
2.58951
2.26881
2.09532
1.66314
3.42396
3.04866
2.92544
2.67547
2.5826
2.2692
2.14436
1.57957
3.26425
3.00416
2.88937
2.6738
2.58428
2.30094
2.22299
1.57036
1.60468
1.24676
0.80037
0.320505
-0.251164
-0.874952
-1.56796
-2.29373
-3.03537
-3.7641
-4.43519
-5.01455
-5.46385
-5.75448
-5.8712
-5.80597
-5.56609
-5.168
-4.64197
-4.02179
-3.35588
-2.67756
-2.03556
-1.44754
-0.949028
-0.548921
-0.289118
-0.196498
1.56097
1.199
0.75474
0.274292
-0.295208
-0.916138
-1.60835
-2.33353
-3.08153
-3.81056
-4.48758
-5.06793
-5.51958
-5.81016
-5.92645
-5.85725
-5.61505
-5.21129
-4.68195
-4.05473
-3.38582
-2.7005
-2.05825
-1.46107
-0.969295
-0.541566
-0.277756
-0.0566853
1.59995
1.22718
0.780563
0.279752
-0.299328
-0.934637
-1.63953
-2.38035
-3.14305
-3.88484
-4.57167
-5.15991
-5.61643
-5.90787
-6.02277
-5.94972
-5.70005
-5.28704
-4.7448
-4.10576
-3.42122
-2.72547
-2.06461
-1.46096
-0.942212
-0.512133
-0.198406
0.0265891
1.58735
1.20907
0.766263
0.256694
-0.33135
-0.981579
-1.70546
-2.46405
-3.24945
-4.00942
-4.71449
-5.31327
-5.7766
-6.07031
-6.18143
-6.10034
-5.83894
-5.41142
-4.85229
-4.19393
-3.49125
-2.77774
-2.10042
-1.47871
-0.943361
-0.497309
-0.147253
0.113744
1.59603
1.20814
0.761301
0.23188
-0.366809
-1.04097
-1.78587
-2.57334
-3.38665
-4.17239
-4.89969
-5.51383
-5.9869
-6.28141
-6.38684
-6.29508
-6.01865
-5.57221
-4.9887
-4.30678
-3.57616
-2.83783
-2.13327
-1.48785
-0.92658
-0.452795
-0.0749101
0.223897
1.58567
1.18905
0.732898
0.18724
-0.425356
-1.12702
-1.89885
-2.72315
-3.57015
-4.38933
-5.1439
-5.77486
-6.25898
-6.55341
-6.65355
-6.54602
-6.24855
-5.77435
-5.16257
-4.45038
-3.68949
-2.9199
-2.18672
-1.51236
-0.923792
-0.425586
-0.0201236
0.306173
1.57322
1.16784
0.696462
0.136485
-0.496593
-1.22828
-2.03304
-2.89876
-3.78275
-4.63939
-5.4186
-6.0661
-6.55853
-6.85095
-6.94091
-6.81711
-6.49568
-5.99285
-5.34897
-4.60504
-3.80932
-3.00695
-2.23866
-1.53274
-0.912938
-0.386593
0.0461634
0.396999
1.54921
1.13527
0.64943
0.0781509
-0.578007
-1.3406
-2.18314
-3.09225
-4.01544
-4.91095
-5.71222
-6.37794
-6.87603
-7.16636
-7.24413
-7.10038
-6.75133
-6.21617
-5.54051
-4.76154
-3.93123
-3.09392
-2.29179
-1.5538
-0.904324
-0.352235
0.110571
0.47836
1.52039
1.10087
0.605201
0.0220167
-0.659474
-1.4548
-2.33806
-3.29019
-4.25663
-5.1879
-6.00906
-6.69099
-7.18757
-7.47186
-7.53497
-7.3701
-6.99297
-6.42505
-5.71894
-4.90146
-4.03844
-3.16541
-2.3307
-1.5621
-0.885638
-0.310697
0.175031
0.562832
1.49182
1.06776
0.563399
-0.0316971
-0.740101
-1.56952
-2.49364
-3.4877
-4.49541
-5.45296
-6.29021
-6.98069
-7.4711
-7.74763
-7.79436
-7.60535
-7.20079
-6.60523
-5.87363
-5.0181
-4.12553
-3.21986
-2.35255
-1.55926
-0.855923
-0.259534
0.244371
0.647053
1.46725
1.03693
0.525283
-0.0804163
-0.813913
-1.67405
-2.63405
-3.66591
-4.70905
-5.68422
-6.53106
-7.22151
-7.7012
-7.96873
-7.99895
-7.78744
-7.35364
-6.73417
-5.98231
-5.09613
-4.17927
-3.2439
-2.34908
-1.53762
-0.812926
-0.202094
0.319527
0.730645
1.44554
1.00643
0.488414
-0.122969
-0.876004
-1.76138
-2.74796
-3.81469
-4.88292
-5.86812
-6.71759
-7.4015
-7.87064
-8.12103
-8.13448
-7.90497
-7.447
-6.80772
-6.03446
-5.12647
-4.19547
-3.23268
-2.31766
-1.49161
-0.7496
-0.133627
0.399943
0.815722
1.42326
0.971993
0.453117
-0.153687
-0.922185
-1.82272
-2.82972
-3.92079
-5.00268
-5.98684
-6.83138
-7.50402
-7.9559
-8.19346
-8.19602
-7.9437
-7.46324
-6.82136
-6.02875
-5.10802
-4.16681
-3.18658
-2.26207
-1.42739
-0.672779
-0.0552145
0.484997
0.898115
1.38537
0.930213
0.425676
-0.172368
-0.950774
-1.85691
-2.8721
-3.9751
-5.06017
-6.03846
-6.87155
-7.52716
-7.96452
-8.17875
-8.17818
-7.91323
-7.41459
-6.76503
-5.96651
-5.04905
-4.09499
-3.1058
-2.1821
-1.34407
-0.586097
0.0292615
0.572985
0.97967
1.32283
0.884007
0.411368
-0.16197
-0.941984
-1.84221
-2.85622
-3.96088
-5.04112
-6.01561
-6.83609
-7.47087
-7.89609
-8.09471
-8.0806
-7.80412
-7.31114
-6.65688
-5.85264
-4.94909
-3.98911
-3.00247
-2.08321
-1.24724
-0.493692
0.115901
0.656016
1.05025
1.23548
0.837527
0.4176
-0.116325
-0.902542
-1.79487
-2.78657
-3.8834
-4.9573
-5.92281
-6.72731
-7.35359
-7.76334
-7.95066
-7.92953
-7.64811
-7.1633
-6.50697
-5.7098
-4.82046
-3.86157
-2.88457
-1.97659
-1.14566
-0.402938
0.201344
0.733831
1.11294
1.13304
0.810009
0.43648
-0.055271
-0.828907
-1.70339
-2.69621
-3.76245
-4.81675
-5.78204
-6.57696
-7.19611
-7.59547
-7.77836
-7.74446
-7.4715
-6.99668
-6.34198
-5.55367
-4.68232
-3.72793
-2.76586
-1.86877
-1.05133
-0.317152
0.274288
0.802893
1.16258
1.02815
0.798818
0.491619
0.0428481
-0.736317
-1.59454
-2.56977
-3.61947
-4.65976
-5.60521
-6.40649
-7.01889
-7.42033
-7.60503
-7.56369
-7.29864
-6.83582
-6.18863
-5.41235
-4.54748
-3.60108
-2.66243
-1.77717
-0.968483
-0.247619
0.333212
0.857405
1.19616
1.01718
0.832624
0.503366
0.111826
-0.628179
-1.49329
-2.46297
-3.49679
-4.52198
-5.46238
-6.2619
-6.87467
-7.27636
-7.46471
-7.42161
-7.16665
-6.70681
-6.07286
-5.30494
-4.44652
-3.50697
-2.58872
-1.70963
-0.913631
-0.201624
0.369296
0.893562
1.21194
0.724697
0.892739
0.550763
0.17723
-0.5461
-1.40168
-2.37973
-3.40846
-4.42908
-5.36778
-6.16932
-6.78561
-7.18804
-7.38035
-7.3366
-7.08622
-6.63365
-6.00848
-5.2424
-4.38733
-3.45427
-2.54802
-1.67194
-0.882702
-0.179992
0.392746
0.913111
1.22378
-0.438665
-0.425747
0.000577868
0.349871
0.87206
1.42329
2.07227
2.41761
-0.0595064
-0.0739119
0.237059
0.63968
1.12876
1.64768
2.15089
2.52274
0.138695
0.242939
0.544674
0.923365
1.37322
1.80529
2.27314
2.581
0.335648
0.515778
0.791374
1.14084
1.60079
2.0233
2.1437
2.50055
0.469721
0.672509
0.924441
1.26236
1.64712
2.07306
2.34054
2.47976
0.58137
0.82783
1.11379
1.4357
1.75526
2.11248
2.29946
2.41791
0.689234
0.950154
1.20248
1.48282
1.77038
2.07031
2.30544
2.45948
0.790058
1.05534
1.3132
1.59402
1.86347
2.10092
2.26549
2.31765
0.885782
1.15568
1.39967
1.62942
1.8415
2.0411
2.22031
2.30451
0.972507
1.24426
1.47403
1.69077
1.89545
2.0706
2.20097
2.25557
1.05595
1.32428
1.5416
1.7323
1.89491
2.02927
2.14806
2.21748
1.13764
1.40202
1.60411
1.7758
1.91863
2.03957
2.13674
2.18674
1.21446
1.47426
1.66071
1.81587
1.9315
2.02622
2.09836
2.14241
1.28954
1.54171
1.71116
1.85434
1.94423
2.02804
2.08416
2.12391
1.35899
1.59924
1.75805
1.88432
1.95582
2.02674
2.06394
2.09729
1.42145
1.64351
1.80142
1.91152
1.96685
2.02538
2.05104
2.0845
1.47657
1.67752
1.83314
1.92489
1.98191
2.02614
2.0421
2.07087
1.51758
1.69757
1.86653
1.9379
1.9881
2.02353
2.04022
2.07338
1.54573
1.71021
1.87245
1.93469
2.00384
2.02448
2.03763
2.06705
1.56818
1.71723
1.8885
1.9368
2.00378
2.02626
2.04598
2.07823
3.06522
3.1407
3.0272
2.66174
2.21634
1.65363
1.4213
1.42886
1.44331
1.41736
1.33413
1.23645
1.10351
0.977769
0.802204
0.652923
0.430084
0.255987
-0.066911
-0.296965
3.2143
3.03839
2.86813
2.48813
2.09697
1.6824
1.49817
1.50016
1.4807
1.43312
1.33869
1.2364
1.10192
0.974373
0.802613
0.647334
0.437666
0.248235
0.029088
-0.15607
2.95216
2.92813
2.79406
2.42536
2.09429
1.733
1.52962
1.51003
1.47823
1.42603
1.33318
1.23208
1.09927
0.971934
0.802042
0.64599
0.443806
0.256026
0.0698136
-0.120834
3.08959
2.81732
2.66313
2.32163
2.02423
1.72895
1.55847
1.54089
1.50338
1.44065
1.34239
1.2351
1.10261
0.969267
0.806863
0.641575
0.454383
0.266644
0.0997354
-0.0638495
2.79444
2.6451
2.52247
2.24789
2.00596
1.76784
1.6018
1.56188
1.50993
1.43821
1.3384
1.2297
1.10015
0.964666
0.808848
0.640194
0.464326
0.278353
0.127221
-0.0270836
2.73105
2.58434
2.46514
2.20757
1.98576
1.77565
1.62128
1.57439
1.52106
1.44586
1.34619
1.23309
1.10454
0.964963
0.813284
0.64363
0.472859
0.293198
0.147581
0.00108996
2.64235
2.45498
2.31254
2.12047
1.94648
1.78091
1.64624
1.58821
1.52717
1.44605
1.34438
1.22824
1.10243
0.961485
0.814666
0.644918
0.479997
0.305384
0.163273
0.0214669
2.48296
2.39844
2.27965
2.11151
1.95859
1.80761
1.67533
1.60312
1.53798
1.45416
1.35152
1.23271
1.10671
0.964431
0.818489
0.651104
0.487982
0.31939
0.178143
0.0369823
2.38573
2.31586
2.20215
2.05833
1.92435
1.79377
1.67628
1.60355
1.53822
1.45184
1.34896
1.2285
1.1048
0.962564
0.819194
0.654207
0.493514
0.329758
0.188744
0.0478231
2.2755
2.21828
2.14884
2.04122
1.93453
1.82151
1.70966
1.6244
1.55005
1.45877
1.3541
1.23297
1.10823
0.966311
0.822559
0.660702
0.501141
0.340916
0.199131
0.056379
2.26579
2.199
2.12348
2.02225
1.92125
1.81416
1.70655
1.62063
1.54697
1.45586
1.35194
1.23014
1.10613
0.965612
0.823041
0.664592
0.506504
0.349167
0.206511
0.0624085
2.20228
2.14981
2.06759
1.98404
1.90478
1.82005
1.72674
1.63814
1.55723
1.46186
1.35621
1.23428
1.109
0.96922
0.826403
0.670934
0.514154
0.358104
0.214005
0.0675013
2.16302
2.13689
2.07429
1.99802
1.92071
1.83182
1.73264
1.63835
1.5558
1.45991
1.3545
1.23299
1.10753
0.969413
0.827351
0.674832
0.519561
0.364774
0.219309
0.0710351
2.12913
2.10413
2.04203
1.97184
1.90247
1.82364
1.73463
1.6448
1.55986
1.46175
1.35485
1.23421
1.10876
0.971889
0.830296
0.67993
0.526117
0.372008
0.224806
0.0740878
2.09715
2.08423
2.03539
1.98247
1.92073
1.84261
1.74962
1.65245
1.56294
1.46277
1.3552
1.23505
1.10915
0.973515
0.832636
0.683948
0.531259
0.377594
0.228711
0.0762179
2.07912
2.07345
2.02281
1.97463
1.91105
1.83317
1.74544
1.65175
1.56129
1.46028
1.35222
1.23307
1.1081
0.974148
0.834631
0.687695
0.536258
0.383042
0.23262
0.0779856
2.06278
2.06108
2.01439
1.9794
1.91882
1.84469
1.75746
1.65938
1.56551
1.46268
1.35376
1.23507
1.1099
0.976733
0.837943
0.691978
0.541122
0.387674
0.235421
0.0792801
2.06007
2.06324
2.01331
1.98004
1.91414
1.83783
1.75177
1.65484
1.56036
1.45697
1.34823
1.23063
1.10709
0.975918
0.83904
0.694923
0.545409
0.392253
0.238474
0.0803379
2.05883
2.05989
2.01293
1.98268
1.91669
1.84229
1.75699
1.65849
1.56248
1.45813
1.34928
1.23208
1.10872
0.978017
0.841745
0.698199
0.548754
0.39502
0.239756
0.0807868
2.06131
2.06451
2.01469
1.98013
1.91049
1.83343
1.74877
1.65105
1.55411
1.44938
1.34133
1.22569
1.10465
0.976546
0.84281
0.701715
0.553813
0.400001
0.242335
0.0811368
-0.666242
-0.449908
-0.667088
-0.570698
-0.183047
-0.106083
-0.070076
-0.0892596
-0.612321
-0.764275
-0.921307
-0.882761
-0.507538
-0.373672
-0.29727
-0.30203
-0.866342
-0.875381
-1.08297
-1.10654
-0.820436
-0.693348
-0.552742
-0.536278
-0.915534
-1.15011
-1.41162
-1.45758
-1.20252
-1.02048
-0.836248
-0.788017
-1.18133
-1.44404
-1.66026
-1.78273
-1.54629
-1.3557
-1.12738
-1.0511
-1.41759
-1.71132
-1.9813
-2.1191
-1.88896
-1.68101
-1.42198
-1.31879
-1.68854
-2.01706
-2.27054
-2.41038
-2.20477
-1.99323
-1.70979
-1.58413
-1.95458
-2.27948
-2.53756
-2.70825
-2.4977
-2.28312
-1.98482
-1.83962
-2.21604
-2.54423
-2.78999
-2.95146
-2.76955
-2.54734
-2.239
-2.0798
-2.4562
-2.77477
-3.00824
-3.18671
-3.00686
-2.7836
-2.46942
-2.29874
-2.67462
-3.00072
-3.21428
-3.38718
-3.21817
-2.98745
-2.67124
-2.49257
-2.86153
-3.18369
-3.38197
-3.54427
-3.38948
-3.15679
-2.84206
-2.65759
-3.01798
-3.34762
-3.53719
-3.69771
-3.52485
-3.29096
-2.98106
-2.79292
-3.13905
-3.46676
-3.64474
-3.77581
-3.62235
-3.39167
-3.08762
-2.89704
-3.22393
-3.55803
-3.73687
-3.87623
-3.68719
-3.45638
-3.15989
-2.97072
-3.27029
-3.60747
-3.77457
-3.8822
-3.71907
-3.48793
-3.20149
-3.014
-3.28793
-3.62999
-3.79695
-3.92075
-3.72231
-3.48768
-3.21159
-3.02846
-3.27789
-3.62246
-3.77458
-3.87363
-3.69834
-3.46104
-3.19401
-3.01502
-3.24855
-3.59282
-3.74039
-3.84502
-3.65327
-3.40972
-3.15018
-2.97648
-3.19924
-3.54473
-3.67963
-3.771
-3.58652
-3.33952
-3.08417
-2.91417
-3.13435
-3.4752
-3.61365
-3.68807
-3.50473
-3.24778
-2.99642
-2.82973
-3.05099
-3.39378
-3.52115
-3.59882
-3.40128
-3.14133
-2.89014
-2.72429
-2.95146
-3.29206
-3.42295
-3.47666
-3.29172
-3.00814
-2.7675
-2.60007
-2.84078
-3.18101
-3.29432
-3.35046
-3.14781
-2.8721
-2.62945
-2.45716
-2.71651
-3.04675
-3.15591
-3.20185
-3.02155
-2.70946
-2.47187
-2.29632
-2.58781
-2.89004
-2.99658
-3.02893
-2.84291
-2.53041
-2.30036
-2.11947
-2.44245
-2.71567
-2.83166
-2.85547
-2.68798
-2.35353
-2.11027
-1.92612
-2.29817
-2.5347
-2.66698
-2.66074
-2.5021
-2.15691
-1.90283
-1.71662
-2.13605
-2.34963
-2.50016
-2.46171
-2.31982
-1.97167
-1.68392
-1.49093
-1.97906
-2.16216
-2.32778
-2.28551
-2.1134
-1.76254
-1.45248
-1.24869
-1.80556
-1.98693
-2.17484
-2.108
-1.91952
-1.5506
-1.21323
-0.987502
-1.63795
-1.81423
-1.99522
-1.96369
-1.70036
-1.3274
-0.947188
-0.705046
-1.46864
-1.66234
-1.85527
-1.79666
-1.47763
-1.06184
-0.665188
-0.401635
-1.28603
-1.53769
-1.68985
-1.64567
-1.24408
-0.810072
-0.362872
-0.0785151
-1.14155
-1.4313
-1.52314
-1.46961
-1.02295
-0.510331
-0.0402888
0.263279
-1.02167
-1.37625
-1.34129
-1.29656
-0.747309
-0.206799
0.302214
0.615517
-0.910546
-1.29194
-1.14054
-0.967405
-0.467958
0.102987
0.666411
0.967785
-0.933684
-1.24037
-0.902314
-0.69978
-0.152279
0.398739
1.05636
1.29042
-0.83628
-1.06546
-0.690232
-0.366154
0.199837
0.714504
1.42787
1.57329
-0.846932
-1.06205
-0.360512
-0.040916
0.523747
1.05103
1.79618
1.82133
3.1391
2.96307
2.86069
2.67232
2.59949
2.35083
2.30959
1.81918
3.01098
2.91889
2.83727
2.67894
2.61598
2.40899
2.37485
2.04766
2.92205
2.87067
2.80912
2.67545
2.62056
2.44964
2.43371
2.19523
2.84432
2.82627
2.78311
2.67373
2.62928
2.48845
2.46044
2.30853
2.79254
2.78316
2.755
2.66543
2.63033
2.51556
2.49671
2.37869
2.74646
2.74796
2.72996
2.65759
2.62769
2.5364
2.51144
2.4364
2.71665
2.71637
2.70675
2.64784
2.62449
2.54986
2.53329
2.47032
2.68827
2.69169
2.68685
2.63978
2.62018
2.55938
2.53997
2.50094
2.6711
2.67028
2.66968
2.63083
2.61619
2.56491
2.55227
2.51536
2.65292
2.65365
2.65488
2.62344
2.61195
2.56916
2.55509
2.53341
2.64314
2.63939
2.64258
2.61476
2.60771
2.57028
2.56195
2.53752
2.63126
2.62847
2.63285
2.6083
2.60331
2.57172
2.56266
2.55124
2.62588
2.61913
2.62468
2.60198
2.60004
2.5715
2.56544
2.54994
2.61819
2.61223
2.61811
2.59644
2.5964
2.57085
2.56494
2.55886
2.61623
2.60657
2.61397
2.59192
2.59466
2.5692
2.56703
2.55536
2.6118
2.60255
2.61049
2.58842
2.59262
2.5702
2.56693
2.56345
2.61257
2.59944
2.60859
2.58516
2.59205
2.56815
2.56806
2.55975
2.61094
2.59749
2.60739
2.58226
2.5909
2.56804
2.5678
2.56494
2.61411
2.59638
2.60783
2.58004
2.59122
2.56554
2.56884
2.56135
2.61518
2.59644
2.60852
2.57788
2.59108
2.5659
2.56791
2.56518
2.62138
2.59716
2.611
2.57597
2.59187
2.56231
2.56912
2.56255
2.62633
2.59951
2.61468
2.57513
2.5932
2.56208
2.56664
2.56331
2.63623
2.60294
2.62042
2.57411
2.59547
2.55953
2.56834
2.56183
2.64544
2.60724
2.62712
2.57445
2.59818
2.55908
2.56565
2.56178
2.6604
2.61278
2.63601
2.57437
2.60181
2.55655
2.56677
2.56066
2.67609
2.62019
2.64684
2.5764
2.60623
2.55661
2.56435
2.56004
2.69857
2.62986
2.65993
2.57827
2.61119
2.5545
2.56508
2.55874
2.72375
2.64297
2.67617
2.58315
2.6173
2.55498
2.5624
2.55801
2.75757
2.65948
2.6955
2.5887
2.62374
2.554
2.56183
2.55553
2.79673
2.68047
2.71897
2.59815
2.63094
2.55561
2.55827
2.55397
2.84743
2.70763
2.74587
2.60919
2.63818
2.55657
2.55531
2.55008
2.90628
2.74328
2.77792
2.62517
2.64565
2.56032
2.55014
2.54668
2.97894
2.78738
2.81497
2.64477
2.65287
2.56334
2.54481
2.53988
3.06132
2.83873
2.85713
2.6721
2.66081
2.56834
2.53815
2.53169
3.15946
2.8975
2.90332
2.70486
2.6702
2.57317
2.5324
2.51875
3.27002
2.96282
2.95624
2.75039
2.68407
2.58076
2.52606
2.50462
3.4109
3.04119
3.01526
2.80692
2.70683
2.59247
2.5228
2.48835
3.59759
3.14889
3.08387
2.87637
2.73951
2.61258
2.52224
2.46638
3.87875
3.30358
3.15965
2.94952
2.78368
2.64392
2.53095
2.3763
4.24628
3.50477
3.23934
3.01405
2.82419
2.67824
2.54237
2.19067
)
;

boundaryField
{
    wall
    {
        type            calculated;
        value           nonuniform List<scalar> 
312
(
3.33083
3.3234
3.33354
3.33121
3.32446
3.30644
3.28779
3.27407
3.25915
3.24853
3.2624
3.2573
3.28005
3.27859
3.26615
3.26969
3.24584
3.33558
3.27014
3.53493
3.1391
3.01098
2.92205
2.84432
2.79254
2.74646
2.71665
2.68827
2.6711
2.65292
2.64314
2.63126
2.62588
2.61819
2.61623
2.6118
2.61257
2.61094
2.61411
2.61518
2.62138
2.62633
2.63623
2.64544
2.6604
2.67609
2.69857
2.72375
2.75757
2.79673
2.84743
2.90628
2.97894
3.06132
3.15946
3.27002
3.4109
3.59759
3.87875
4.24628
1.81918
2.04766
2.19523
2.30853
2.37869
2.4364
2.47032
2.50094
2.51536
2.53341
2.53752
2.55124
2.54994
2.55886
2.55536
2.56345
2.55975
2.56494
2.56135
2.56518
2.56255
2.56331
2.56183
2.56178
2.56066
2.56004
2.55874
2.55801
2.55553
2.55397
2.55008
2.54668
2.53988
2.53169
2.51875
2.50462
2.48835
2.46638
2.3763
2.19067
0.724697
0.892739
0.550763
0.17723
-0.5461
-1.40168
-2.37973
-3.40846
-4.42908
-5.36778
-6.16932
-6.78561
-7.18804
-7.38035
-7.3366
-7.08622
-6.63365
-6.00848
-5.2424
-4.38733
-3.45427
-2.54802
-1.67194
-0.882702
-0.179992
0.392746
0.913111
1.22378
1.56818
1.71723
1.8885
1.9368
2.00378
2.02626
2.04598
2.07823
2.06131
2.06451
2.01469
1.98013
1.91049
1.83343
1.74877
1.65105
1.55411
1.44938
1.34133
1.22569
1.10465
0.976546
0.84281
0.701715
0.553813
0.400001
0.242335
0.0811368
3.06522
3.1407
3.0272
2.66174
2.21634
1.65363
1.4213
1.42886
1.44331
1.41736
1.33413
1.23645
1.10351
0.977769
0.802204
0.652923
0.430084
0.255987
-0.066911
-0.296965
-0.0892596
-0.30203
-0.536278
-0.788017
-1.0511
-1.31879
-1.58413
-1.83962
-2.0798
-2.29874
-2.49257
-2.65759
-2.79292
-2.89704
-2.97072
-3.014
-3.02846
-3.01502
-2.97648
-2.91417
-2.82973
-2.72429
-2.60007
-2.45716
-2.29632
-2.11947
-1.92612
-1.71662
-1.49093
-1.24869
-0.987502
-0.705046
-0.401635
-0.0785151
0.263279
0.615517
0.967785
1.29042
1.57329
1.82133
-0.666242
-0.612321
-0.866342
-0.915534
-1.18133
-1.41759
-1.68854
-1.95458
-2.21604
-2.4562
-2.67462
-2.86153
-3.01798
-3.13905
-3.22393
-3.27029
-3.28793
-3.27789
-3.24855
-3.19924
-3.13435
-3.05099
-2.95146
-2.84078
-2.71651
-2.58781
-2.44245
-2.29817
-2.13605
-1.97906
-1.80556
-1.63795
-1.46864
-1.28603
-1.14155
-1.02167
-0.910546
-0.933684
-0.83628
-0.846932
1.60468
1.24676
0.80037
0.320505
-0.251164
-0.874952
-1.56796
-2.29373
-3.03537
-3.7641
-4.43519
-5.01455
-5.46385
-5.75448
-5.8712
-5.80597
-5.56609
-5.168
-4.64197
-4.02179
-3.35588
-2.67756
-2.03556
-1.44754
-0.949028
-0.548921
-0.289118
-0.196498
2.98566
2.97744
2.82911
2.75166
2.58794
2.41406
2.17842
1.93652
3.31252
3.30929
3.2986
3.29978
3.2893
3.29026
3.27442
3.27724
3.26151
3.26587
3.24293
3.25013
3.22202
3.23511
3.19446
3.2105
3.15186
3.17197
3.08781
3.10766
)
;
    }
    inlet1
    {
        type            calculated;
        value           nonuniform List<scalar> 
20
(
3.31252
3.3093
3.30861
3.30805
3.30834
3.30643
3.30677
3.30636
3.30903
3.30996
3.31353
3.31387
3.3175
3.31801
3.32127
3.32161
3.32532
3.32652
3.3292
3.33083
)
;
    }
    inlet2
    {
        type            calculated;
        value           nonuniform List<scalar> 8(4.24628 3.50477 3.23934 3.01405 2.82419 2.67824 2.54237 2.19067);
    }
    outlet1
    {
        type            calculated;
        value           uniform 0;
    }
    outlet2
    {
        type            calculated;
        value           nonuniform List<scalar> 8(-0.678656 0 -0.654588 -0.401175 0.0039516 0.0455827 0 0);
    }
    defaultFaces
    {
        type            empty;
    }
}


// ************************************************************************* //
