/*--------------------------------*- C++ -*----------------------------------*\
| =========                 |                                                 |
| \\      /  F ield         | OpenFOAM: The Open Source CFD Toolbox           |
|  \\    /   O peration     | Version:  2.4.0                                 |
|   \\  /    A nd           | Web:      www.OpenFOAM.org                      |
|    \\/     M anipulation  |                                                 |
\*---------------------------------------------------------------------------*/
FoamFile
{
    version     2.0;
    format      ascii;
    class       volScalarField;
    location    "3.93";
    object      k;
}
// * * * * * * * * * * * * * * * * * * * * * * * * * * * * * * * * * * * * * //

dimensions      [0 2 -2 0 0 0 0];

internalField   nonuniform List<scalar> 
6000
(
0.0117122
0.00656344
0.00175565
0.000444053
0.000122477
0.000317432
0.000238749
0.000384537
0.000452876
0.000643747
0.000846706
0.00110541
0.00135705
0.00161281
0.00184704
0.0020716
0.00225294
0.00232535
0.00212349
0.00160532
0.00110066
0.00166706
0.00292431
0.00428896
0.00556573
0.00659987
0.00740954
0.00805549
0.0085765
0.00899681
0.00933148
0.00959128
0.00978474
0.00992474
0.0100165
0.0100635
0.0100715
0.0100456
0.0099901
0.0099087
0.00980406
0.00967799
0.00952939
0.00935557
0.00914761
0.00888494
0.00907392
0.00940231
0.00971776
0.0100323
0.0103119
0.0106076
0.010864
0.0112157
0.0115241
0.0120873
0.01244
0.0134524
0.0137158
0.0158264
0.0120372
0.0117143
0.00208935
0.000676647
0.000137422
0.000276946
0.000373577
0.000534702
0.000738165
0.0010383
0.0013952
0.00182239
0.00226725
0.00274891
0.00325228
0.00378154
0.00427977
0.00459866
0.00441578
0.00336477
0.00244885
0.00387661
0.00602639
0.00819256
0.0103557
0.012177
0.0136205
0.0147704
0.0156914
0.0164279
0.0170109
0.0174647
0.0178099
0.0180658
0.018244
0.0183651
0.0184439
0.018494
0.0185272
0.0185537
0.0185815
0.0186161
0.0186574
0.0186994
0.0187244
0.0186981
0.0187154
0.0186582
0.0184709
0.0181446
0.0176495
0.0170211
0.0162429
0.0154314
0.0145355
0.0137527
0.0129847
0.0124725
0.0121482
0.0123306
0.0115679
0.0151676
0.00288261
0.000648383
0.000188064
0.000329743
0.000476603
0.000674961
0.000944295
0.00132565
0.00178565
0.00232844
0.00289134
0.00348468
0.00409319
0.00472491
0.00532451
0.00570869
0.00549128
0.00427728
0.00333032
0.00521311
0.00787725
0.0106291
0.0133342
0.0155963
0.0173972
0.0188353
0.019986
0.0209023
0.0216218
0.022175
0.0225881
0.0228874
0.0230898
0.0232177
0.0232904
0.023325
0.0233371
0.0233405
0.023346
0.0233614
0.0233882
0.0234204
0.0234387
0.0234069
0.0233656
0.0232073
0.0228859
0.0223822
0.0216703
0.0207756
0.0197011
0.0185494
0.0173056
0.0161513
0.0149017
0.0140094
0.0129215
0.0125669
0.0114636
0.0160723
0.00401104
0.000533184
0.000237078
0.00038104
0.000555459
0.000786432
0.00110372
0.00154891
0.00208829
0.00271643
0.00336112
0.00402386
0.00469171
0.00537776
0.00602981
0.00644352
0.00619723
0.00491537
0.00404243
0.00623366
0.00928081
0.0124534
0.0155223
0.0180909
0.0201476
0.0217942
0.0231118
0.0241584
0.0249764
0.0256001
0.0260602
0.0263868
0.0265996
0.026723
0.026779
0.0267877
0.0267672
0.0267337
0.0267004
0.0266771
0.0266671
0.0266648
0.0266512
0.0265906
0.0264924
0.0262563
0.0258401
0.0252182
0.0243691
0.0233108
0.0220621
0.0207149
0.0192845
0.0179282
0.0165074
0.0153936
0.0141364
0.0134798
0.0113762
0.0157671
0.00532507
0.000485054
0.000281949
0.000426191
0.000621582
0.000881141
0.00123777
0.00173628
0.00234154
0.00303928
0.00374872
0.00446325
0.00517169
0.00589133
0.0065738
0.00700104
0.00673129
0.00542871
0.00466269
0.00707399
0.0104284
0.0139363
0.0172964
0.020119
0.022391
0.0242148
0.0256748
0.0268332
0.0277359
0.0284206
0.0289209
0.0292695
0.0294882
0.0296033
0.029639
0.0296176
0.0295594
0.0294827
0.0294025
0.0293305
0.0292718
0.0292217
0.0291618
0.0290575
0.0288952
0.0285827
0.0280802
0.0273582
0.026399
0.025215
0.023837
0.0223478
0.0207878
0.0192908
0.0177707
0.0165119
0.0151966
0.0143635
0.0113033
0.0149418
0.00672775
0.000611985
0.000325101
0.000466916
0.000680089
0.000965105
0.00135549
0.00189997
0.00256228
0.00332008
0.00408483
0.00484205
0.00558118
0.00632275
0.00702262
0.00745434
0.00716704
0.00587303
0.00521985
0.00778955
0.0114005
0.0151926
0.0188062
0.0218561
0.0243238
0.0263097
0.0279009
0.029163
0.0301449
0.030887
0.0314251
0.0317935
0.0320161
0.0321209
0.0321339
0.0320794
0.0319794
0.0318539
0.0317198
0.0315904
0.0314726
0.0313628
0.0312437
0.0310819
0.0308464
0.0304536
0.0298659
0.0290516
0.0279964
0.026708
0.0252267
0.0236271
0.0219695
0.0203668
0.0187782
0.0174154
0.0160726
0.0151205
0.0112434
0.013942
0.00776279
0.00114506
0.000374796
0.000505127
0.000733766
0.00104155
0.00146149
0.00204627
0.00275916
0.00357056
0.00438488
0.00517972
0.00594396
0.00670043
0.00740962
0.00784099
0.00754297
0.00627761
0.00573058
0.00841223
0.0122411
0.016282
0.0201254
0.0233868
0.0260387
0.0281788
0.0298957
0.0312578
0.0323167
0.033115
0.0336901
0.0340776
0.0343031
0.0343963
0.0343847
0.0342942
0.0341484
0.0339689
0.033774
0.0335789
0.0333921
0.0332113
0.0330206
0.0327882
0.0324703
0.0319914
0.0313167
0.0304136
0.029271
0.0278933
0.0263272
0.0246404
0.0229082
0.0212255
0.0195883
0.0181489
0.0167921
0.0157534
0.0111887
0.0129396
0.00846358
0.00207961
0.000451906
0.000542959
0.000784545
0.00111256
0.00155854
0.00217889
0.00293725
0.0037975
0.00465769
0.00548736
0.00627379
0.00704123
0.00775509
0.00818447
0.00788359
0.00666141
0.00620774
0.00896374
0.012978
0.0172397
0.0212957
0.0247575
0.0275866
0.0298762
0.0317161
0.0331767
0.034312
0.0351663
0.0357785
0.0361848
0.0364127
0.0364932
0.0364552
0.0363259
0.0361305
0.0358918
0.0356297
0.0353609
0.0350956
0.034833
0.0345591
0.0342437
0.0338341
0.0332624
0.0324973
0.0315067
0.0302829
0.0288273
0.0271915
0.0254362
0.0236486
0.0219068
0.020237
0.0187423
0.0173808
0.0162775
0.0111359
0.0120144
0.00887971
0.00320427
0.000601592
0.000583464
0.000834137
0.00117971
0.00164857
0.0023003
0.0030998
0.00400518
0.00490877
0.00577195
0.00657948
0.00735628
0.00807293
0.00850132
0.00820641
0.00703845
0.00666276
0.0094604
0.0136304
0.0180889
0.0223431
0.0259969
0.0289979
0.0314342
0.0333955
0.0349542
0.0361661
0.0370769
0.0377264
0.0381517
0.0383816
0.0384483
0.0383822
0.0382115
0.0379627
0.0376599
0.0373244
0.0369743
0.0366214
0.0362665
0.0358988
0.0354889
0.0349783
0.0343069
0.0334472
0.0323691
0.0310684
0.0295443
0.0278517
0.0260445
0.0242182
0.0224357
0.0207477
0.0192154
0.0178573
0.0167064
0.0110857
0.011198
0.00905924
0.00434152
0.000911983
0.00063194
0.000884426
0.00124447
0.0017331
0.00241235
0.00324911
0.00419651
0.00514176
0.00603811
0.00686703
0.00765349
0.00837338
0.00880409
0.00852478
0.00741983
0.00710623
0.00991531
0.0142125
0.0188457
0.0232852
0.0271232
0.0302921
0.032873
0.034955
0.0366118
0.0379007
0.0388686
0.039556
0.0400004
0.0402319
0.0402842
0.0401882
0.0399736
0.0396679
0.0392963
0.0388815
0.0384427
0.0379937
0.0375367
0.0370658
0.0365503
0.0359298
0.0351515
0.0341925
0.0330262
0.0316518
0.0300674
0.0283293
0.026485
0.0246352
0.0228289
0.021136
0.019582
0.0182349
0.0170509
0.0110393
0.010497
0.00905201
0.00534592
0.00148888
0.00069858
0.00093788
0.0013084
0.00181353
0.00251656
0.00338695
0.00437359
0.00535922
0.006289
0.00714064
0.00793862
0.00866421
0.00910257
0.00884916
0.00781459
0.00754792
0.0103394
0.0147353
0.019522
0.0241343
0.0281493
0.0314821
0.0342059
0.0364081
0.0381633
0.0395298
0.0405555
0.0412813
0.0417449
0.0419779
0.0420147
0.0418874
0.0416265
0.0412604
0.0408156
0.0403159
0.0397818
0.0392287
0.0386604
0.038078
0.0374466
0.0367078
0.0358154
0.0347522
0.0334961
0.0320506
0.0304127
0.0286395
0.0267717
0.0249126
0.0230982
0.021413
0.0198518
0.0185234
0.0173193
0.010997
0.00990538
0.00890663
0.00616171
0.00223819
0.000803028
0.000998143
0.00137336
0.00189126
0.00261433
0.0035148
0.00453806
0.00556296
0.00652684
0.00740326
0.00821591
0.00895139
0.00940442
0.00918769
0.00822994
0.0079966
0.0107423
0.0152077
0.0201269
0.0248994
0.029084
0.0325768
0.0354418
0.0377639
0.0396176
0.0410623
0.0421464
0.0429111
0.0433942
0.0436284
0.043649
0.0434889
0.0431793
0.0427498
0.0422278
0.041638
0.0410023
0.0403376
0.0396503
0.0389486
0.038192
0.0373266
0.0363131
0.0351408
0.0337932
0.0322783
0.0305929
0.0287939
0.0269151
0.0250601
0.0232523
0.0215869
0.0200322
0.0187303
0.017518
0.0109589
0.00941199
0.00866688
0.00676919
0.00306773
0.000984444
0.00107106
0.00144178
0.00196789
0.00270707
0.00363397
0.00469125
0.00575435
0.00675316
0.00765691
0.00848841
0.00923938
0.0097155
0.00954649
0.00867138
0.00845985
0.0111321
0.0156373
0.0206679
0.0255876
0.029934
0.0335827
0.036587
0.0390282
0.0409807
0.0425041
0.0436472
0.0444513
0.0449539
0.0451891
0.0451928
0.0449985
0.0446383
0.0441425
0.0435393
0.0428548
0.0421118
0.0413287
0.0405163
0.0396876
0.0387974
0.0377978
0.0366566
0.0353702
0.0339289
0.0323459
0.0306184
0.0288021
0.0269239
0.0250854
0.0232981
0.0216644
0.0201289
0.0188615
0.0176522
0.010925
0.00900384
0.0083696
0.00717349
0.00388011
0.00132172
0.00116649
0.00151701
0.00204533
0.00279632
0.00374582
0.00483439
0.00593449
0.00696904
0.00790291
0.00875815
0.00953129
0.01004
0.00992988
0.00914274
0.00894387
0.0115164
0.0160307
0.0211511
0.0262045
0.0307043
0.0345044
0.0376458
0.0402054
0.0422566
0.043859
0.0450615
0.0459054
0.0464277
0.0466637
0.0466498
0.0464201
0.0460073
0.0454425
0.0447549
0.0439714
0.0431158
0.0422081
0.0412664
0.0403032
0.039272
0.0381312
0.0368559
0.0354506
0.0339134
0.0322632
0.0304981
0.0286722
0.0268053
0.0249953
0.0232416
0.0216507
0.0201467
0.0189217
0.0177262
0.0108949
0.0086682
0.00804398
0.00739422
0.00463109
0.00184354
0.00130083
0.00160391
0.002126
0.00288384
0.00385173
0.00496868
0.00610433
0.00717525
0.00814204
0.00902636
0.00982906
0.0103807
0.0103405
0.00964628
0.00945342
0.011902
0.0163941
0.021582
0.0267546
0.0313989
0.0353453
0.0386212
0.0412982
0.0434478
0.0451294
0.0463917
0.0472756
0.0478177
0.0480543
0.0480223
0.047756
0.0472889
0.046653
0.0458778
0.0449915
0.0440188
0.0429815
0.0419071
0.0408024
0.0396235
0.0383352
0.03692
0.0353912
0.0337557
0.0320388
0.0302401
0.0284117
0.026566
0.0247954
0.0230877
0.0215506
0.0200897
0.0189152
0.0177438
0.0108685
0.00839343
0.00771197
0.00745857
0.00528547
0.00251499
0.0015011
0.0017097
0.0022131
0.00297176
0.0039533
0.00509536
0.00626474
0.00737234
0.00837464
0.00929352
0.0101335
0.0107388
0.0107793
0.0101828
0.00999181
0.0122949
0.016733
0.0219653
0.027242
0.0320211
0.0361081
0.0395156
0.0423084
0.044556
0.0463168
0.047639
0.0485632
0.0491252
0.0493622
0.0493114
0.0490077
0.0484849
0.0477757
0.0469104
0.0459179
0.0448239
0.0436542
0.0424433
0.0411913
0.0398589
0.0384175
0.0368571
0.0352005
0.0334644
0.031681
0.0298522
0.0280275
0.0262122
0.0244914
0.0228413
0.0213683
0.0199618
0.0188456
0.0177086
0.0108452
0.00816929
0.00738913
0.00739687
0.00581804
0.00326119
0.00181278
0.00184531
0.002311
0.00306276
0.00405236
0.00521585
0.00641666
0.00756079
0.00860076
0.00955957
0.0104446
0.0111143
0.0112462
0.0107519
0.010561
0.0127007
0.0170529
0.0223059
0.0276704
0.0325736
0.036795
0.0403305
0.0432375
0.0455822
0.0474219
0.0488041
0.0497687
0.0503506
0.050588
0.0505181
0.0501761
0.0495964
0.0488121
0.0478543
0.0467528
0.0455341
0.0442312
0.0428795
0.0414752
0.0399846
0.038385
0.0366747
0.0348866
0.0330477
0.0311979
0.029342
0.0275267
0.02575
0.0240885
0.0225069
0.0211079
0.0197664
0.0187164
0.0176237
0.0108249
0.00798702
0.00708575
0.00723953
0.00621504
0.00401316
0.0022633
0.00202701
0.00242577
0.00316028
0.00415115
0.00533177
0.00656114
0.00774107
0.00882028
0.00982344
0.0107612
0.011506
0.0117395
0.0113522
0.0111616
0.013124
0.0173593
0.0226081
0.0280432
0.0330591
0.0374078
0.0410674
0.0440863
0.0465271
0.0484453
0.0498873
0.0508924
0.0514942
0.0517318
0.0516426
0.0512616
0.050624
0.0497633
0.0487111
0.0474982
0.0461527
0.0447165
0.0432198
0.0416593
0.0400063
0.0382444
0.0363802
0.0344571
0.0325137
0.0305975
0.0287171
0.0269162
0.0251855
0.0235921
0.0220891
0.0207734
0.0195072
0.018531
0.0174921
0.0108072
0.00783921
0.00680798
0.00701494
0.00647369
0.00471791
0.0028393
0.00227813
0.002566
0.00326881
0.00425242
0.00544509
0.00669941
0.00791376
0.00903301
0.0100839
0.0110819
0.0119118
0.0122568
0.0119812
0.0117935
0.013569
0.0176576
0.0228765
0.0283637
0.0334799
0.0379483
0.0417273
0.0448556
0.0473911
0.0493871
0.0508887
0.0519343
0.0525559
0.0527938
0.0526849
0.0522647
0.0515683
0.05063
0.0494818
0.0481555
0.0466836
0.0451127
0.0434679
0.0417481
0.0399296
0.038002
0.0359806
0.0339199
0.0318703
0.0298879
0.0279852
0.0262031
0.0245252
0.0230078
0.0215926
0.0203688
0.0191875
0.0182926
0.017317
0.0107918
0.00771967
0.00655882
0.00674804
0.00660045
0.00533587
0.00349541
0.00262812
0.00274378
0.0033944
0.00435962
0.00555815
0.00683302
0.00807957
0.00923881
0.0103399
0.0114043
0.0123287
0.0127947
0.0126359
0.0124554
0.014039
0.0179532
0.0231158
0.0286354
0.0338384
0.0384179
0.0423112
0.0455459
0.0481745
0.0502474
0.0518082
0.0528939
0.0535355
0.0537737
0.0536451
0.0531852
0.0524296
0.0514129
0.0501674
0.0487267
0.0471304
0.0454226
0.0436275
0.0417461
0.0397597
0.0376637
0.0354826
0.0332823
0.0311255
0.0290772
0.0271544
0.0253949
0.0237757
0.0223414
0.0210224
0.0198985
0.0188111
0.0180046
0.0171013
0.0107784
0.00762327
0.00633906
0.00645971
0.0066089
0.00583991
0.00418265
0.00309426
0.00297588
0.00354511
0.00447722
0.00567387
0.00696382
0.00823951
0.00943773
0.0105904
0.0117262
0.0127531
0.0133493
0.0133131
0.0131455
0.0145367
0.0182517
0.023331
0.0288618
0.034137
0.0388182
0.0428202
0.0461577
0.0488773
0.0510262
0.0526456
0.0537711
0.0544328
0.0546713
0.0545231
0.0540234
0.0532082
0.0521124
0.0507689
0.0492153
0.0474948
0.0456488
0.0437018
0.0416575
0.0395015
0.0372354
0.0348931
0.032552
0.0302875
0.0281739
0.0262329
0.0244996
0.0229442
0.0215991
0.0203837
0.0193671
0.0183818
0.0176705
0.0168482
0.0107668
0.00754578
0.00614794
0.00616647
0.00651736
0.00621419
0.0048549
0.0036672
0.00328473
0.00373177
0.004611
0.00579584
0.00709418
0.00839489
0.00963005
0.0108343
0.012045
0.0131811
0.013916
0.0140087
0.0138612
0.0150637
0.0185585
0.0235272
0.0290469
0.0343783
0.039151
0.0432552
0.0466917
0.0495
0.0517233
0.0534006
0.0545657
0.0552475
0.0554864
0.0553186
0.0547792
0.0539043
0.0527292
0.0512879
0.0496239
0.0477789
0.0457938
0.0436943
0.0414862
0.0391599
0.0367228
0.0342184
0.0317363
0.0293646
0.0271867
0.0252296
0.0235255
0.0220382
0.0207876
0.0196822
0.0187793
0.0179037
0.0172941
0.0165608
0.0107568
0.00748373
0.00598375
0.00588073
0.0063467
0.00645303
0.00547169
0.00431434
0.00369119
0.00396845
0.00476857
0.00592855
0.007227
0.00854743
0.0098164
0.0110711
0.012358
0.0136084
0.0144899
0.0147186
0.0145999
0.015621
0.0188791
0.0237101
0.0291947
0.0345652
0.0394182
0.0436175
0.0471485
0.0500428
0.052339
0.0540734
0.0552775
0.0559793
0.0562189
0.0560318
0.0554528
0.0545182
0.0532638
0.0517276
0.0499538
0.0479843
0.0458601
0.043608
0.0412363
0.0387394
0.0361313
0.0334652
0.0308427
0.028365
0.0261246
0.0241537
0.0224815
0.021066
0.0199142
0.0189242
0.0181405
0.0173815
0.0168794
0.0162429
0.0107481
0.00743425
0.0058442
0.00561118
0.00611828
0.00655976
0.00599994
0.00499346
0.00420076
0.00427351
0.00495993
0.00607764
0.00736589
0.00869934
0.00999786
0.0113002
0.0126632
0.0140307
0.015066
0.0154385
0.0153583
0.0162088
0.0192188
0.0238856
0.0293096
0.0347007
0.0396216
0.0439083
0.0475289
0.050506
0.0528733
0.0546637
0.0559064
0.0566282
0.0568686
0.0566625
0.0560442
0.0550504
0.0537186
0.0520892
0.0502065
0.048113
0.0458502
0.043446
0.0409112
0.0382445
0.0354663
0.0326397
0.0298788
0.0272975
0.0249971
0.0230149
0.0213773
0.0200365
0.0189869
0.0181165
0.0174567
0.0168199
0.0164309
0.015898
0.0107405
0.00739501
0.00572675
0.00536337
0.00585236
0.00654514
0.00641499
0.00566097
0.00479969
0.00466257
0.00519852
0.00625106
0.0075155
0.00885338
0.010176
0.011522
0.0129587
0.0144441
0.015639
0.0161637
0.0161331
0.0168267
0.0195827
0.0240599
0.0293966
0.0347882
0.0397636
0.0441291
0.0478337
0.0508903
0.0533265
0.0551716
0.0564523
0.0571941
0.0574355
0.0572108
0.0565538
0.0555023
0.0540952
0.0523739
0.0503834
0.0481669
0.0457665
0.0432113
0.0405147
0.0376795
0.0347329
0.0317482
0.028852
0.0261708
0.023814
0.0218237
0.0202231
0.0189593
0.0180142
0.0172666
0.0167342
0.0162247
0.0159532
0.0155305
0.010734
0.00736411
0.00562883
0.00514032
0.00556694
0.00642556
0.00670134
0.00627646
0.00545909
0.00514306
0.00549773
0.0064571
0.00768225
0.00901512
0.0103529
0.0117372
0.0132433
0.0148448
0.0162037
0.0168895
0.0169206
0.0174734
0.0199756
0.0242397
0.0294609
0.0348314
0.0398467
0.0442817
0.0480642
0.0511963
0.053699
0.0555975
0.0569154
0.0576771
0.0579197
0.0576768
0.0569826
0.0558752
0.0543945
0.0525829
0.050486
0.0481479
0.0456113
0.0429068
0.0400502
0.0370486
0.0339361
0.030797
0.02777
0.0249937
0.0225854
0.0205908
0.01903
0.017845
0.0170058
0.0163828
0.0159803
0.0156018
0.0154517
0.0151449
0.0107283
0.00733998
0.00554792
0.0049431
0.00527706
0.00622104
0.00685279
0.00680516
0.00614099
0.0057108
0.0058704
0.00670565
0.00787242
0.00918877
0.0105346
0.0119473
0.0135164
0.0152295
0.0167548
0.0176109
0.0177169
0.0181471
0.0203984
0.0244267
0.0295092
0.0348373
0.0398757
0.044368
0.0482216
0.0514248
0.0539913
0.0559416
0.0572958
0.0580772
0.0583215
0.0580617
0.0573318
0.0561702
0.0546176
0.0527175
0.0505159
0.0480579
0.0453869
0.0425351
0.0395209
0.0363556
0.0330809
0.029792
0.0266402
0.0237756
0.0213219
0.019328
0.0178098
0.0167051
0.0159722
0.0154741
0.0152029
0.014958
0.0149324
0.0147463
0.0107234
0.00732135
0.00548167
0.0047714
0.00499448
0.00595325
0.00687205
0.00721944
0.00680429
0.00634796
0.00632534
0.00700762
0.0080935
0.00937923
0.0107242
0.0121582
0.013778
0.0155958
0.0172876
0.0183226
0.018518
0.0188457
0.0208475
0.0246244
0.029546
0.0348103
0.0398549
0.0443924
0.0483088
0.0515778
0.0542045
0.0562044
0.057594
0.0583951
0.0586418
0.0583662
0.0576022
0.0563883
0.0547658
0.052779
0.0504746
0.0478987
0.0450956
0.0420991
0.03893
0.0356045
0.0321721
0.0287394
0.0254703
0.0225258
0.0200347
0.0180475
0.0165754
0.0155518
0.0149246
0.0145509
0.0144107
0.014301
0.0144018
0.0143401
0.0107191
0.00730716
0.00542796
0.00462392
0.0047278
0.00564367
0.00676972
0.0075
0.00740914
0.00702494
0.00686316
0.00737358
0.00835397
0.0095923
0.0109256
0.0123729
0.0140323
0.0159417
0.0177972
0.0190191
0.0193193
0.0195648
0.0213208
0.0248356
0.0295756
0.0347548
0.0397881
0.0443583
0.0483286
0.0516572
0.0543404
0.0563876
0.0578114
0.058632
0.0588816
0.0585914
0.0577949
0.0565305
0.0548401
0.0527687
0.0503638
0.0476723
0.0447395
0.0416012
0.0382806
0.0347989
0.0312141
0.027645
0.024268
0.0212539
0.0187351
0.0167622
0.0153404
0.0143987
0.0138758
0.0136242
0.0136137
0.013639
0.013867
0.0139327
0.0107153
0.00729657
0.00538488
0.00449881
0.00448266
0.00531212
0.00656269
0.00763661
0.00791981
0.00770454
0.00747308
0.00781133
0.00866285
0.00983453
0.0111435
0.0125945
0.0142842
0.0162686
0.0182797
0.0196948
0.020116
0.0202989
0.0218175
0.025063
0.0296023
0.0346754
0.0396796
0.044269
0.0482836
0.0516655
0.0544008
0.0564926
0.0579493
0.0587892
0.0590422
0.0587385
0.0579112
0.0565982
0.0548419
0.0526882
0.050185
0.0473804
0.0443209
0.0410438
0.0375755
0.0339424
0.0302116
0.0265148
0.0230408
0.0199695
0.0174349
0.0154855
0.014119
0.0132602
0.0128393
0.0127062
0.0128227
0.0129816
0.0133361
0.0135305
0.0107121
0.00728885
0.00535075
0.00439387
0.00426227
0.00497569
0.00627214
0.0076284
0.00830687
0.00834662
0.00813232
0.00832273
0.00902854
0.010113
0.0113829
0.0128265
0.0145358
0.0165822
0.0187313
0.0203438
0.0209028
0.0210428
0.0223363
0.0253085
0.0296303
0.0345768
0.0395336
0.0441282
0.0481771
0.0516051
0.0543878
0.0565214
0.0580094
0.058868
0.059125
0.0588089
0.0579521
0.0565925
0.0547726
0.0525388
0.0499399
0.0470249
0.0438417
0.0404294
0.0368175
0.0330383
0.0291689
0.0253546
0.0217966
0.0186826
0.0161463
0.0142314
0.0129266
0.0121516
0.0118298
0.0118104
0.0120494
0.0123387
0.0128177
0.0131411
0.0107092
0.00728345
0.00532411
0.00430681
0.00406786
0.00464811
0.00592142
0.00748344
0.00854882
0.00891194
0.00880822
0.00890068
0.00945695
0.0104349
0.0116494
0.0130727
0.0147898
0.0168848
0.0191545
0.0209602
0.0216735
0.0217916
0.0228754
0.0255737
0.0296632
0.0344636
0.0393547
0.0439399
0.0480122
0.0514789
0.0543038
0.0564759
0.0579933
0.0588701
0.0591312
0.0588038
0.0579192
0.0565148
0.0546335
0.052322
0.04963
0.0466075
0.0433038
0.0397602
0.0360092
0.0320899
0.0280903
0.0241702
0.0205431
0.0174031
0.0148814
0.0130141
0.0117787
0.011089
0.0108629
0.0109512
0.0113068
0.0117217
0.0123215
0.0127722
0.0107068
0.00727989
0.0053037
0.00423538
0.00389916
0.00433957
0.00553395
0.00721768
0.00863334
0.00936508
0.00946204
0.00952746
0.00994911
0.0108063
0.0119485
0.0133375
0.0150492
0.0171781
0.0195514
0.0215406
0.0224213
0.0225408
0.0234329
0.0258597
0.0297048
0.0343403
0.0391473
0.0437082
0.0477925
0.0512897
0.0541514
0.0563582
0.057903
0.0587972
0.0590626
0.0587247
0.0578137
0.0563666
0.054426
0.0520394
0.049257
0.04613
0.0427093
0.0390383
0.0351531
0.0311003
0.02698
0.0229673
0.0192879
0.016141
0.0136525
0.0118479
0.0106912
0.010089
0.00995502
0.0101438
0.0106085
0.0111423
0.0118574
0.0124321
0.0107046
0.00727777
0.00528843
0.00417743
0.0037549
0.00405687
0.00513143
0.00685319
0.00855807
0.00967678
0.0100531
0.0101752
0.0104986
0.0112308
0.0122853
0.0136251
0.0153173
0.0174643
0.0199227
0.0220828
0.0231409
0.0232859
0.0240064
0.0261672
0.029758
0.0342113
0.0389162
0.0434372
0.0475218
0.0510408
0.0539331
0.0561707
0.0577406
0.058651
0.0589208
0.0585731
0.0576372
0.0561492
0.0541517
0.0516923
0.0488222
0.0455939
0.0420598
0.0382656
0.0342517
0.0300727
0.0258422
0.0217516
0.0180387
0.014906
0.0124714
0.0107467
0.00967935
0.00916812
0.00912266
0.00940411
0.00996905
0.0106131
0.011436
0.0121294
0.0107027
0.00727678
0.00527738
0.00413099
0.00363316
0.00380385
0.00473245
0.00641593
0.00833065
0.00982582
0.0105421
0.0108081
0.0110899
0.0117073
0.0126634
0.0139393
0.0155972
0.0177459
0.0202692
0.0225853
0.0238273
0.0240219
0.024593
0.0264962
0.0298257
0.0340809
0.0386659
0.0431314
0.0472037
0.0507354
0.0536519
0.0559159
0.0575081
0.0584336
0.0587075
0.0583508
0.0573912
0.0558641
0.0538118
0.0512823
0.0483274
0.0450009
0.041357
0.0374441
0.0333071
0.0290099
0.024681
0.020529
0.0168033
0.0137077
0.0113494
0.00972307
0.00875761
0.00834178
0.008382
0.00874795
0.00940285
0.0101467
0.0110679
0.0118728
0.010701
0.00727667
0.00526975
0.00409429
0.00353169
0.00358191
0.00435169
0.0059333
0.00796801
0.00980059
0.0108943
0.0113863
0.0116979
0.0122284
0.0130835
0.014283
0.0158917
0.0180246
0.0205922
0.0230468
0.0244756
0.0247438
0.0251896
0.0268462
0.0299101
0.0339529
0.038401
0.0427952
0.0468424
0.0503771
0.0533108
0.0555963
0.0572081
0.058147
0.0584246
0.0580593
0.0570773
0.0555128
0.0534079
0.0508107
0.0477738
0.0443523
0.0406025
0.0365755
0.0323215
0.0279148
0.0235005
0.0193051
0.015589
0.0125552
0.0102967
0.00878835
0.00793817
0.00762367
0.00774777
0.00819035
0.00892396
0.0097555
0.0107639
0.0116708
0.0106995
0.00727722
0.00526488
0.00406577
0.0034481
0.0033906
0.00399965
0.00543173
0.00749472
0.00960012
0.0110819
0.0118693
0.0122897
0.0127788
0.0135419
0.014657
0.0162029
0.0183021
0.0208929
0.0234662
0.0250806
0.0254458
0.0257924
0.0272163
0.0300129
0.033831
0.0381257
0.0424328
0.0464419
0.0499694
0.0529129
0.0552148
0.0568427
0.0577933
0.0580739
0.0577004
0.056697
0.0550968
0.0529413
0.0502788
0.0471628
0.0436497
0.0397978
0.0356615
0.031297
0.0267904
0.0223049
0.0180858
0.0144034
0.0114569
0.00932217
0.00795126
0.00723022
0.00702422
0.00723202
0.00774442
0.00854508
0.00945089
0.0105336
0.0115314
0.0106983
0.00727828
0.00526222
0.00404405
0.00338005
0.00322822
0.00368284
0.00493465
0.00694066
0.00923446
0.0110858
0.0122192
0.0128269
0.0133347
0.0140291
0.0150591
0.016531
0.0185797
0.0211724
0.0238429
0.0256377
0.0261219
0.0263969
0.0276046
0.0301352
0.0337183
0.0378442
0.0420487
0.0460062
0.049516
0.0524614
0.054774
0.0564145
0.0573747
0.0576575
0.0572758
0.0562519
0.0546175
0.0524134
0.0496881
0.0464957
0.0428942
0.0389442
0.0347037
0.0302356
0.0256396
0.0210984
0.0168769
0.0132536
0.0104203
0.00843256
0.00721752
0.00663894
0.0065495
0.00684276
0.00742007
0.00827644
0.00924251
0.0103858
0.0114618
0.0106971
0.00727969
0.00526128
0.00402795
0.00332534
0.00309229
0.00340426
0.00446105
0.00633819
0.00872408
0.0108976
0.0124037
0.0132693
0.0138649
0.0145287
0.0154825
0.0168743
0.0188575
0.0214311
0.0241759
0.0261426
0.0267652
0.0269979
0.0280088
0.0302776
0.0336175
0.0375603
0.041647
0.0455394
0.0490206
0.0519597
0.0542769
0.0559261
0.0568934
0.0571772
0.0567873
0.0557436
0.0540763
0.0518256
0.0490398
0.0457737
0.0420871
0.038043
0.0337035
0.0291394
0.0244653
0.0198855
0.0156843
0.0121462
0.00945176
0.00763253
0.00658946
0.00616508
0.00620036
0.00658276
0.0072226
0.0081247
0.00913741
0.0103273
0.0114679
0.0106961
0.00728136
0.00526169
0.00401643
0.00328192
0.00297992
0.00316416
0.00402474
0.00571906
0.00809827
0.0105206
0.0123986
0.013578
0.0143329
0.0150168
0.0159154
0.0172275
0.0191338
0.0216688
0.0244641
0.0265909
0.0273684
0.027589
0.0284253
0.0304396
0.0335306
0.0372776
0.0412316
0.0450454
0.0484869
0.0514109
0.0537264
0.05538
0.0563517
0.0566352
0.0562367
0.0551737
0.0534747
0.0511791
0.0483349
0.0449979
0.0412294
0.0370954
0.0326624
0.0280103
0.0232706
0.0186706
0.0145139
0.0110876
0.00855633
0.00692428
0.00606599
0.00580503
0.00597248
0.00644902
0.00715177
0.00809193
0.00913923
0.0103627
0.011554
0.0106952
0.00728321
0.00526313
0.00400864
0.003248
0.00288813
0.00296082
0.00363428
0.00511174
0.00739254
0.00997019
0.0121897
0.0137186
0.0146997
0.0154632
0.0163396
0.0175813
0.0194043
0.0218837
0.0247058
0.0269781
0.0279234
0.0281627
0.0288495
0.03062
0.033459
0.0369988
0.0408063
0.044528
0.0479184
0.0508185
0.0531253
0.0547788
0.0557518
0.0560332
0.0556255
0.0545436
0.052814
0.050475
0.0475746
0.0441692
0.0403222
0.0361025
0.0315818
0.0268503
0.0220586
0.0174587
0.0133718
0.0100835
0.00773751
0.0063077
0.00564313
0.00555182
0.00585731
0.00643338
0.00720167
0.00817518
0.00924771
0.0104938
0.0117225
0.0106945
0.00728516
0.00526532
0.00400382
0.00322198
0.00281403
0.00279122
0.00329357
0.00453928
0.00664525
0.00927332
0.0117748
0.0136639
0.014927
0.015833
0.0167309
0.0179214
0.0196616
0.0220713
0.0248983
0.0272991
0.0284214
0.0287103
0.0292756
0.0308164
0.0334032
0.0367265
0.0403743
0.0439908
0.0473186
0.0501854
0.0524765
0.0541249
0.0550959
0.0553733
0.0549556
0.0538547
0.0520953
0.0497144
0.0467597
0.0432885
0.0393663
0.0350652
0.030463
0.0256617
0.0208329
0.0162546
0.0122637
0.00913892
0.00699731
0.00578065
0.00531486
0.00539646
0.0058438
0.00652404
0.00736132
0.00836681
0.00945865
0.0107193
0.0119737
0.0106938
0.00728717
0.00526807
0.00400136
0.00320247
0.00275492
0.00265166
0.0030027
0.00401815
0.00589383
0.00846651
0.0111651
0.0133965
0.0149802
0.0160889
0.0170597
0.0182285
0.0198942
0.0222256
0.0250377
0.0275482
0.028853
0.0292214
0.0296961
0.031025
0.0333627
0.0364622
0.0399384
0.0434369
0.0466907
0.0495149
0.0517829
0.0534208
0.0543861
0.0546571
0.0542283
0.0531084
0.0513198
0.0488983
0.0458912
0.0423567
0.0383624
0.0339844
0.0293073
0.0244465
0.0195973
0.0150637
0.0111956
0.008258
0.00633624
0.00533946
0.00507409
0.00532934
0.00592015
0.00670756
0.00761662
0.00865566
0.00976443
0.0110352
0.0123056
0.0106932
0.00728919
0.0052712
0.00400074
0.00318828
0.00270839
0.00253823
0.00275903
0.00355805
0.00517133
0.00759265
0.0103847
0.0129109
0.0148315
0.0161944
0.0172926
0.0184779
0.0200867
0.0223377
0.0251182
0.0277191
0.0292081
0.0296846
0.0301016
0.0312405
0.0333359
0.0362068
0.0395007
0.0428692
0.0460376
0.0488096
0.0510471
0.0526687
0.0536244
0.0538865
0.0534452
0.0523058
0.0504885
0.0480273
0.0449696
0.0413742
0.0373112
0.0328611
0.0281163
0.0232074
0.0183557
0.0138917
0.010173
0.00744396
0.00575352
0.00497947
0.00491353
0.00534128
0.00607507
0.00697055
0.00795293
0.00902873
0.010155
0.0114351
0.0127144
0.0106927
0.0072912
0.00527457
0.00400153
0.00317838
0.00267229
0.00244712
0.0025582
0.00316256
0.0045037
0.00669688
0.00947
0.0122151
0.0144624
0.0161164
0.0173947
0.0186412
0.020219
0.0223952
0.0251318
0.0278044
0.0294757
0.0300866
0.0304812
0.0314559
0.0333194
0.0359599
0.0390628
0.04229
0.0453619
0.0480721
0.0502714
0.0518709
0.0528125
0.0530629
0.0526074
0.051448
0.0496021
0.0471023
0.0439955
0.0403415
0.0362134
0.0316961
0.0268912
0.0219471
0.0171128
0.0127444
0.00920117
0.00669903
0.0052473
0.00469563
0.00482634
0.00542407
0.00629843
0.00730063
0.00835636
0.00947268
0.0106191
0.0119107
0.0131946
0.0106922
0.00729317
0.0052781
0.00400338
0.00317192
0.00264476
0.00237476
0.00239501
0.0028304
0.00390832
0.00582189
0.00846713
0.011332
0.0138665
0.0158286
0.0173323
0.018687
0.0202672
0.0223823
0.0250685
0.0277958
0.0296445
0.0304131
0.0308216
0.031662
0.0333086
0.0357201
0.0386251
0.0417008
0.0446657
0.0473046
0.0494579
0.0510291
0.0519522
0.0521877
0.0517162
0.0505358
0.0486613
0.0461236
0.0429692
0.0392591
0.0350693
0.0304903
0.0256339
0.0206687
0.0158735
0.011628
0.00828501
0.00602445
0.00481493
0.00448286
0.00480642
0.0055706
0.00658131
0.00768684
0.00881445
0.00997491
0.0111453
0.012453
0.0137393
0.0106918
0.0072951
0.00528168
0.00400602
0.00316818
0.00262422
0.00231798
0.00226406
0.00255692
0.00339389
0.0050037
0.00742743
0.0102981
0.0130514
0.015314
0.0170754
0.0185835
0.0202047
0.0222798
0.0249158
0.0276833
0.0297022
0.0306485
0.0311076
0.0318472
0.0332966
0.0354843
0.0381871
0.0411025
0.0439505
0.0465088
0.0486083
0.0501448
0.0510447
0.0512619
0.0507722
0.0495698
0.0476665
0.0450916
0.0418911
0.0381272
0.0338794
0.0292445
0.0243462
0.0193758
0.0146436
0.0105487
0.00742876
0.00542054
0.00445328
0.00433639
0.00484845
0.00577464
0.00691581
0.00811956
0.00931643
0.0105242
0.0117228
0.0130524
0.0143409
0.0106915
0.00729696
0.00528527
0.00400921
0.00316655
0.00260931
0.002274
0.0021602
0.00233554
0.00296156
0.0042685
0.00640221
0.00916254
0.0120401
0.0145675
0.0166009
0.0183008
0.0200032
0.0220657
0.0246587
0.0274557
0.0296359
0.0307762
0.0313221
0.0319979
0.0332743
0.0352477
0.037747
0.0404949
0.043217
0.0456858
0.0477238
0.0492193
0.050091
0.0502864
0.0497762