/*--------------------------------*- C++ -*----------------------------------*\
| =========                 |                                                 |
| \\      /  F ield         | OpenFOAM: The Open Source CFD Toolbox           |
|  \\    /   O peration     | Version:  2.4.0                                 |
|   \\  /    A nd           | Web:      www.OpenFOAM.org                      |
|    \\/     M anipulation  |                                                 |
\*---------------------------------------------------------------------------*/
FoamFile
{
    version     2.0;
    format      ascii;
    class       volScalarField;
    location    "27";
    object      p;
}
// * * * * * * * * * * * * * * * * * * * * * * * * * * * * * * * * * * * * * //

dimensions      [0 2 -2 0 0 0 0];

internalField   nonuniform List<scalar> 
1800
(
1.85539
1.84497
1.91393
1.9515
1.97108
1.99022
2.00964
2.0283
2.04647
2.06443
2.08211
2.0994
2.11621
2.1325
2.14822
2.16335
2.1779
2.19187
2.2053
2.21823
1.81768
1.87802
1.91711
1.93596
1.95281
1.97261
1.99285
2.01218
2.03088
2.04925
2.06729
2.08488
2.10196
2.11849
2.13442
2.14973
2.16443
2.17851
2.19203
2.205
1.82232
1.86491
1.89692
1.91357
1.92872
1.94724
1.96703
1.98642
2.00534
2.02399
2.04235
2.0603
2.07775
2.09466
2.11097
2.12664
2.14165
2.15602
2.16975
2.18289
1.82237
1.84962
1.87396
1.88919
1.90322
1.92
1.93838
1.95689
1.97529
1.99366
2.01196
2.03002
2.04773
2.06498
2.0817
2.09781
2.11327
2.12804
2.14212
2.15556
1.81066
1.83054
1.85043
1.86461
1.87771
1.89273
1.90914
1.92595
1.94298
1.96031
1.97788
1.99552
2.01307
2.03039
2.04735
2.06383
2.07973
2.09496
2.10949
2.12332
1.79213
1.80771
1.82442
1.83737
1.84948
1.86305
1.87788
1.89323
1.90887
1.92487
1.94124
1.95791
1.97476
1.99166
2.00848
2.02506
2.04124
2.05687
2.07184
2.08609
1.7697
1.78214
1.79609
1.80752
1.81834
1.83031
1.84341
1.85713
1.87131
1.886
1.90121
1.91686
1.93284
1.94905
1.96539
1.98175
1.99795
2.0138
2.02912
2.04374
1.74496
1.75472
1.76597
1.77554
1.78473
1.79486
1.806
1.81778
1.83012
1.84309
1.85675
1.87106
1.88597
1.90139
1.9172
1.93327
1.94942
1.96545
1.9811
1.9961
1.71903
1.72624
1.73472
1.74213
1.74936
1.75735
1.76619
1.77568
1.78576
1.79653
1.80806
1.82041
1.83359
1.8476
1.86241
1.87793
1.89399
1.91034
1.92661
1.94235
1.69287
1.69755
1.70313
1.70814
1.71311
1.71865
1.72486
1.73163
1.73896
1.74697
1.75576
1.76541
1.77603
1.78771
1.80056
1.81463
1.82992
1.84628
1.86334
1.8804
1.66735
1.6695
1.67211
1.67454
1.67703
1.67988
1.68313
1.68678
1.69088
1.69552
1.70083
1.70694
1.714
1.72221
1.7318
1.74303
1.75618
1.77144
1.78876
1.80744
1.6433
1.64298
1.64263
1.6424
1.6423
1.64228
1.64236
1.64257
1.643
1.64373
1.64486
1.64652
1.6489
1.65225
1.65692
1.66337
1.6722
1.68418
1.70015
1.72005
1.62151
1.61885
1.61565
1.61281
1.61012
1.60721
1.60404
1.60067
1.59717
1.59358
1.58996
1.58638
1.583
1.58005
1.57789
1.57705
1.57839
1.58326
1.59418
1.61324
1.60268
1.59791
1.5921
1.58684
1.5817
1.57604
1.56973
1.56283
1.55539
1.54738
1.53874
1.52945
1.51954
1.50909
1.4983
1.48752
1.47751
1.46935
1.46951
1.48334
1.5874
1.58083
1.57278
1.56541
1.55812
1.55003
1.54089
1.53079
1.51971
1.50751
1.49403
1.47908
1.46248
1.44402
1.42352
1.40087
1.37637
1.35144
1.33223
1.32929
1.57611
1.56813
1.55832
1.54928
1.54027
1.5302
1.51878
1.50603
1.49192
1.47619
1.45854
1.43861
1.41597
1.39006
1.36014
1.32533
1.28465
1.23796
1.18502
1.14116
1.56907
1.5601
1.54908
1.53889
1.52869
1.51726
1.50422
1.48962
1.47333
1.45506
1.43437
1.41076
1.38358
1.35193
1.31455
1.26963
1.2142
1.144
1.04677
0.924917
1.56625
1.55684
1.54523
1.53446
1.52365
1.51152
1.49766
1.4821
1.4647
1.44512
1.42285
1.39732
1.36774
1.33303
1.29162
1.24107
1.17682
1.09045
0.957589
0.7339
2.23066
2.24262
2.2541
2.2651
2.27561
2.21746
2.22943
2.2409
2.25188
2.26235
2.19548
2.20754
2.21909
2.23011
2.24061
2.16839
2.18065
2.19238
2.20356
2.21418
2.13649
2.14904
2.16104
2.17248
2.18334
2.09962
2.1125
2.1248
2.13656
2.14775
2.05759
2.07074
2.0833
2.09534
2.10687
2.01028
2.02361
2.03627
2.04846
2.06024
1.95713
1.97078
1.98346
1.99561
2.00746
1.89657
1.91116
1.92412
1.93618
1.94798
1.826
1.84269
1.85665
1.86884
1.88064
1.74207
1.76273
1.77895
1.79165
1.80355
1.63961
1.66753
1.6885
1.70249
1.71452
1.51185
1.55036
1.58122
1.59855
1.61105
1.35397
1.40976
1.45584
1.47844
1.49201
1.13722
1.22446
1.30319
1.33873
1.35668
0.815631
0.959961
1.1011
1.16471
1.19491
0.316292
0.556658
0.796134
0.92026
0.987469
2.28566
2.29523
2.30435
2.31303
2.32129
2.32919
2.3368
2.34433
2.35216
2.36118
2.37331
2.39368
2.42371
2.26501
2.28477
2.27234
2.28183
2.29084
2.29938
2.30746
2.31509
2.32233
2.32925
2.33598
2.34277
2.35003
2.3568
2.3505
2.32237
2.28854
2.25059
2.26003
2.26896
2.27736
2.28524
2.29258
2.29938
2.30562
2.31122
2.31605
2.31954
2.32011
2.31302
2.3203
2.29246
2.22424
2.23374
2.24267
2.25103
2.2588
2.26596
2.27246
2.27825
2.28319
2.28705
2.28931
2.28963
2.28727
2.30048
2.28491
2.1936
2.20326
2.21231
2.22075
2.22855
2.23569
2.24211
2.24776
2.25254
2.25632
2.25891
2.26082
2.26194
2.27347
2.26612
2.15832
2.16826
2.17756
2.18621
2.1942
2.2015
2.20807
2.21389
2.21891
2.22314
2.22661
2.22997
2.23282
2.24147
2.23837
2.11781
2.1281
2.13774
2.14673
2.15505
2.16269
2.16961
2.17582
2.18133
2.1862
2.19051
2.19471
2.19816
2.20447
2.20342
2.0715
2.08215
2.09215
2.10153
2.11026
2.11834
2.12574
2.13248
2.13856
2.14404
2.14895
2.15352
2.15705
2.16182
2.16188
2.01894
2.02986
2.04016
2.04987
2.05899
2.06752
2.07541
2.08266
2.08928
2.09526
2.10056
2.10524
2.10873
2.11264
2.11349
1.95958
1.97068
1.98115
1.99106
2.00045
2.0093
2.01757
2.02524
2.03225
2.03858
2.0441
2.04883
2.05231
2.05585
2.0574
1.89242
1.90374
1.91434
1.9243
1.93377
1.94277
1.95121
1.95907
1.96629
1.97278
1.97842
1.98318
1.98672
1.9902
1.9924
1.81574
1.82757
1.83844
1.84845
1.85789
1.86683
1.87521
1.88301
1.89016
1.8966
1.90221
1.90696
1.9106
1.91419
1.91698
1.72733
1.74008
1.75159
1.76185
1.7713
1.7801
1.78823
1.79568
1.80247
1.80857
1.81392
1.81851
1.82213
1.82588
1.82914
1.6248
1.63892
1.65155
1.66236
1.67203
1.68078
1.68858
1.69549
1.70158
1.70694
1.71159
1.71564
1.7189
1.72267
1.72605
1.50684
1.52222
1.53584
1.54766
1.55792
1.56681
1.57432
1.58052
1.58555
1.58959
1.59281
1.59552
1.59773
1.60109
1.60375
1.37517
1.39377
1.4099
1.42345
1.43484
1.44421
1.45163
1.45718
1.46103
1.4634
1.46454
1.46493
1.46472
1.46712
1.46847
1.22174
1.24555
1.26537
1.28202
1.29595
1.30713
1.31542
1.32077
1.32327
1.32306
1.32033
1.31565
1.30898
1.30615
1.29955
1.03925
1.07492
1.10099
1.12161
1.13833
1.15152
1.16106
1.16663
1.16782
1.16431
1.15563
1.14187
1.1214
1.10148
1.05267
-0.0739894
0.133462
0.382073
0.563689
0.687364
-0.0913753
-0.0235356
0.095854
0.22594
0.340707
-0.0683293
-0.038035
-0.000732864
0.0585697
0.116987
-0.0438203
-0.025046
-0.0112548
0.0111934
0.0307569
-0.0246494
-0.0102565
-0.00369416
0.00443498
0.00807761
-0.0109807
0.000515484
0.00354946
0.00554983
0.0038629
-0.00163287
0.00684967
0.00715253
0.00601103
0.00152327
0.00434813
0.00950162
0.00713959
0.00383522
-0.00319383
0.00759134
0.00933212
0.00436261
-0.000760314
-0.00997951
0.00846173
0.00719379
-0.000195156
-0.00702871
-0.0174468
0.00804542
0.00373771
-0.00575867
-0.0140729
-0.0241908
0.00651379
-0.000665622
-0.0117775
-0.020602
-0.0301113
0.00421834
-0.00576064
-0.0174952
-0.0267488
-0.0348647
0.00144766
-0.0112312
-0.0231818
-0.0319195
-0.0379267
-0.00161104
-0.0168173
-0.0284159
-0.0357932
-0.0394571
-0.00484352
-0.022219
-0.0328497
-0.0382522
-0.0400069
-0.00808827
-0.0272827
-0.035988
-0.0397184
-0.040226
-0.0121121
-0.0349445
-0.0393064
-0.040261
-0.0403464
0.790219
0.858185
0.904515
0.937429
0.961068
0.977794
0.988781
0.994248
0.993672
0.986049
0.969698
0.94291
0.899534
0.834772
0.645922
0.47107
0.576278
0.655684
0.713458
0.75414
0.781553
0.798326
0.805863
0.804348
0.792841
0.768895
0.728884
0.663312
0.558861
0.37334
0.207601
0.306207
0.39556
0.468718
0.524977
0.565569
0.591991
0.60542
0.606286
0.593997
0.566455
0.520206
0.449008
0.347705
0.221829
0.0731179
0.13373
0.198978
0.260968
0.314996
0.358309
0.38946
0.407756
0.412674
0.403459
0.378842
0.337361
0.278409
0.206204
0.137261
0.0214005
0.0505983
0.0861127
0.124372
0.161945
0.195264
0.221495
0.238613
0.245156
0.240055
0.222754
0.193664
0.155487
0.115236
0.0855881
0.00515033
0.0148561
0.0301186
0.0491316
0.0694853
0.0889435
0.105305
0.116698
0.121683
0.119339
0.109636
0.0937528
0.0747834
0.0580923
0.0504166
-0.00155186
-3.44733e-05
0.00385974
0.0107774
0.0193188
0.0281801
0.0359783
0.041536
0.0440501
0.0430477
0.0388319
0.0324726
0.0260923
0.0225438
0.0244527
-0.00792816
-0.00814788
-0.00876429
-0.00798267
-0.00618029
-0.00380768
-0.00146382
0.000241926
0.00101691
0.000654813
-0.000421938
-0.00159273
-0.00179066
7.69827e-05
0.00468607
-0.015397
-0.0148938
-0.0167013
-0.0178289
-0.0187101
-0.0192946
-0.0196288
-0.0198851
-0.0199751
-0.0201041
-0.0198246
-0.0189991
-0.0171971
-0.0141535
-0.00984736
-0.0227835
-0.0219612
-0.0230421
-0.0243954
-0.0255842
-0.0266251
-0.0275076
-0.0282704
-0.0285374
-0.0286727
-0.0281033
-0.0270662
-0.0253338
-0.0229213
-0.0199268
-0.0290957
-0.0281434
-0.0284242
-0.0293683
-0.0301336
-0.0307097
-0.0311644
-0.0315963
-0.0316387
-0.03166
-0.0312167
-0.0305655
-0.0295374
-0.0281709
-0.0265123
-0.0338341
-0.0327658
-0.0326121
-0.0330717
-0.0333737
-0.0335006
-0.0335414
-0.0336064
-0.0334748
-0.0333801
-0.0330547
-0.0326773
-0.0321772
-0.031551
-0.0307959
-0.0368434
-0.0358924
-0.0356704
-0.0357867
-0.0357784
-0.0356774
-0.0355465
-0.0354327
-0.0352946
-0.0351288
-0.0349293
-0.034712
-0.0344731
-0.0342054
-0.0338976
-0.0383205
-0.037881
-0.0377491
-0.0376816
-0.0375562
-0.0374036
-0.0372743
-0.03708
-0.0370564
-0.0368624
-0.0368006
-0.0366889
-0.0365918
-0.0364934
-0.0363835
-0.039103
-0.0390679
-0.0389575
-0.0388603
-0.0387544
-0.0386484
-0.0385881
-0.0384308
-0.0384934
-0.0383095
-0.0383779
-0.0383148
-0.0382997
-0.0382886
-0.0382745
-0.0397951
-0.0398087
-0.039716
-0.0396637
-0.0396059
-0.0395499
-0.0395125
-0.0394331
-0.0394604
-0.0393736
-0.0394093
-0.0393863
-0.0393849
-0.0393926
-0.0394061
-0.0402948
-0.0402194
-0.0402031
-0.0401608
-0.0401432
-0.0401115
-0.040093
-0.0400554
-0.0400726
-0.0400326
-0.0400558
-0.0400509
-0.040055
-0.0400665
-0.040084
-0.0404419
-0.0403751
-0.0404003
-0.0403702
-0.0403782
-0.0403522
-0.0403557
-0.0403374
-0.0403538
-0.0403345
-0.0403554
-0.0403592
-0.0403674
-0.0403815
-0.040401
0.161785
0.113095
0.207394
0.259122
0.268077
0.273345
0.286159
0.301185
0.314148
0.325229
0.337847
0.35364
0.366208
0.376289
0.386279
0.393516
0.404275
0.422164
0.44086
0.454732
0.456589
0.454882
0.451775
0.446078
0.436617
0.423384
0.406772
0.386944
0.363846
0.337456
0.307674
0.274035
0.235384
0.190172
0.133442
0.00508652
-0.194964
-0.00304536
0.0591147
0.0185149
0.140895
0.12664
0.20139
0.243192
0.252322
0.259284
0.272766
0.287943
0.301037
0.3121
0.324717
0.341186
0.354447
0.365212
0.375901
0.387091
0.400868
0.416042
0.432091
0.441602
0.439179
0.433331
0.42607
0.416464
0.403267
0.386515
0.366632
0.343735
0.317623
0.288175
0.255246
0.218251
0.176484
0.128977
0.0798033
-0.0138106
-0.0510839
0.0114105
0.0454456
0.0149429
0.121453
0.131201
0.186919
0.218966
0.228074
0.236227
0.249606
0.26417
0.276848
0.287759
0.300447
0.316459
0.329547
0.340613
0.351939
0.364956
0.37858
0.3922
0.404163
0.410757
0.405034
0.396797
0.387119
0.375149
0.359688
0.340868
0.319163
0.294722
0.267594
0.23756
0.204226
0.167177
0.126569
0.0833418
0.0449119
-0.0149963
0.00510391
0.018953
0.0301734
0.00970728
0.101806
0.121446
0.161762
0.185706
0.195256
0.204685
0.217828
0.231584
0.243713
0.254421
0.267085
0.282088
0.294441
0.305238
0.316262
0.328474
0.340769
0.352878
0.362448
0.365766
0.357922
0.348982
0.33854
0.325664
0.309456
0.29026
0.268529
0.244396
0.217812
0.188623
0.156708
0.122194
0.0863127
0.0515128
0.0252328
-0.00971558
0.0190437
0.0202204
0.0194639
0.00589518
0.0799054
0.100437
0.128358
0.146119
0.15597
0.166233
0.178876
0.191685
0.203171
0.213541
0.225996
0.239636
0.250874
0.260885
0.27085
0.28154
0.292594
0.303568
0.311608
0.311827
0.303199
0.294521
0.28439
0.271911
0.256291
0.237936
0.217372
0.194758
0.170056
0.143261
0.114615
0.0848589
0.0559785
0.0307814
0.0148004
-0.0046387
0.0208721
0.0179278
0.0124438
0.00354916
0.0561607
0.0730982
0.0917364
0.104849
0.114349
0.124528
0.136118
0.147636
0.158183
0.167885
0.179777
0.191776
0.201664
0.210601
0.21924
0.228416
0.238475
0.248589
0.255586
0.25397
0.245689
0.237961
0.228795
0.217328
0.203277
0.186681
0.168203
0.148074
0.126319
0.103125
0.0790775
0.0553437
0.0340734
0.017491
0.00886347
-0.00175728
0.0183931
0.0138976
0.00760453
0.00208366
0.0326338
0.0449767
0.0572521
0.066982
0.0754709
0.0846493
0.0946112
0.104436
0.113631
0.122234
0.132938
0.143037
0.151405
0.159097
0.16638
0.174143
0.183169
0.19242
0.198736
0.196923
0.189025
0.182925
0.175271
0.165346
0.153219
0.139044
0.123295
0.106287
0.088152
0.0692602
0.0504249
0.0329267
0.018586
0.00867934
0.00473757
-0.0011115
0.0140649
0.00936031
0.0040749
0.00109253
0.0118109
0.0202977
0.0285038
0.0357807
0.0428665
0.0504992
0.0585439
0.0664705
0.0740389
0.0812338
0.0901608
0.0982378
0.105016
0.111369
0.117338
0.123737
0.131485
0.139585
0.145198
0.143761
0.137063
0.132082
0.126303
0.118362
0.108361
0.0969247
0.0842431
0.0706543
0.0563959
0.0419802
0.0282815
0.01642
0.00765319
0.00240661
0.00120397
-0.00208666
0.00920811
0.00508794
0.00144736
0.000376882
-0.00460143
0.00104268
0.00658576
0.0119619
0.0175074
0.0234314
0.0295706
0.0356418
0.0415355
0.0472148
0.0541367
0.0602909
0.0655573
0.0705877
0.0753242
0.0804197
0.0867072
0.0933659
0.098067
0.0970934
0.0920233
0.088371
0.0839173
0.0777789
0.0701733
0.0614218
0.0518277
0.0416222
0.0311216
0.0209068
0.0117611
0.00449432
-0.00019249
-0.00243035
-0.00212887
-0.00395491
0.00459457
0.00146282
-0.000494838
-0.000156303
-0.0165339
-0.0129367
-0.00924184
-0.00540295
-0.00131502
0.00301624
0.00746638
0.0118941
0.0162476
0.0204837
0.0255212
0.0300126
0.0339498
0.0377682
0.0413849
0.0452795
0.050102
0.0552323
0.0589025
0.0582962
0.0547664
0.0522951
0.0491636
0.0446526
0.0390188
0.0327849
0.026066
0.0189404
0.0118012
0.00521108
-0.000233718
-0.00405335
-0.00596906
-0.00636897
-0.00526245
-0.0061076
0.000607478
-0.00140208
-0.00190163
-0.000556757
-0.0246168
-0.0225173
-0.0202145
-0.0176822
-0.0149136
-0.0119602
-0.0089053
-0.00582603
-0.00276122
0.000237283
0.00370874
0.00686958
0.00971121
0.012493
0.0151421
0.0179923
0.0215009
0.0252233
0.0279072
0.0275676
0.0253121
0.0237749
0.0217354
0.0186889
0.0148708
0.0106964
0.00639536
0.00188871
-0.00243365
-0.00610685
-0.00875508
-0.0101681
-0.0103125
-0.009622
-0.00806783
-0.00813156
-0.00262086
-0.00354363
-0.00289392
-0.000856122
-0.0298987
-0.0288329
-0.0275724
-0.0261043
-0.0244414
-0.0226225
-0.0206962
-0.0187092
-0.016696
-0.0147054
-0.012448
-0.0103001
-0.00831511
-0.00636274
-0.00449374
-0.00247935
-3.61123e-05
0.00252306
0.00437582
0.0042302
0.0029647
0.00212495
0.000930607
-0.00092274
-0.00323347
-0.00571024
-0.00808502
-0.0104416
-0.0125199
-0.0140034
-0.0146884
-0.0145271
-0.0135916
-0.0122534
-0.0104208
-0.00980055
-0.00510117
-0.00506467
-0.00357032
-0.00107653
-0.0335278
-0.0330663
-0.0324854
-0.0317698
-0.0309198
-0.0299489
-0.0288779
-0.0277322
-0.026537
-0.025329
-0.0239653
-0.0225906
-0.0212774
-0.0199767
-0.0187185
-0.0173471
-0.0157136
-0.0140423
-0.0128295
-0.0128296
-0.0133428
-0.0136663
-0.0142089
-0.015107
-0.0161852
-0.017205
-0.018168
-0.0189098
-0.0193483
-0.0193146
-0.018719
-0.0175898
-0.0160209
-0.014287
-0.0122575
-0.0110352
-0.00691563
-0.00608586
-0.00400811
-0.00123391
-0.0362507
-0.0360808
-0.035859
-0.0355744
-0.0352198
-0.0347927
-0.0342952
-0.0337351
-0.0331234
-0.0324794
-0.0317365
-0.0309377
-0.0301401
-0.0293338
-0.0285346
-0.0276457
-0.0265999
-0.0255486
-0.0247552
-0.0245942
-0.0245801
-0.0245048
-0.0245216
-0.0246544
-0.0247713
-0.0247582
-0.0247029
-0.0243571
-0.023713
-0.022717
-0.0213519
-0.0196681
-0.0177432
-0.0157599
-0.013582
-0.0118551
-0.00817701
-0.00672268
-0.00426514
-0.00133987
-0.0382512
-0.0382136
-0.038155
-0.0380734
-0.0379658
-0.0378275
-0.037654
-0.0374435
-0.0371957
-0.0369159
-0.0365732
-0.0361737
-0.0357473
-0.0352948
-0.0348217
-0.0342748
-0.0336261
-0.03296
-0.0323877
-0.0320549
-0.0317033
-0.031321
-0.0309243
-0.0304791
-0.0299147
-0.0292765
-0.0285132
-0.0275409
-0.0262708
-0.0247328
-0.022956
-0.0209874
-0.0188771
-0.0167367
-0.0144507
-0.0123361
-0.0090075
-0.00707775
-0.00438134
-0.00140249
-0.0394223
-0.0394383
-0.0394537
-0.0394651
-0.0394696
-0.0394658
-0.0394507
-0.0394205
-0.0393708
-0.039299
-0.0391898
-0.0390374
-0.0388498
-0.0386258
-0.0383616
-0.0380255
-0.03761
-0.0371476
-0.0366597
-0.0361635
-0.0356198
-0.0350027
-0.0342991
-0.0335112
-0.032626
-0.0316118
-0.0304389
-0.0291023
-0.027545
-0.0257609
-0.0238088
-0.0217244
-0.0195341
-0.0173007
-0.0149443
-0.0125775
-0.00952565
-0.00723802
-0.00441494
-0.00143497
-0.0401071
-0.0401355
-0.0401686
-0.0402034
-0.0402383
-0.0402709
-0.0402983
-0.0403167
-0.0403216
-0.040309
-0.0402698
-0.0401964
-0.0400889
-0.0399441
-0.0397572
-0.0395228
-0.0392181
-0.0388339
-0.0383639
-0.0378257
-0.0371963
-0.0364961
-0.0356891
-0.034764
-0.0337078
-0.0325049
-0.0311414
-0.0296141
-0.0279236
-0.0260885
-0.0241109
-0.0220113
-0.0198043
-0.0175238
-0.015126
-0.0126712
-0.00982601
-0.00725786
-0.00440195
-0.00145033
-0.0404257
-0.0404555
-0.0404895
-0.0405254
-0.040561
-0.040594
-0.0406219
-0.0406417
-0.04065
-0.0406426
-0.0406115
-0.0405526
-0.0404607
-0.0403295
-0.0401496
-0.0399123
-0.0396107
-0.0392401
-0.038789
-0.038243
-0.037596
-0.0368566
-0.036001
-0.0350169
-0.0338969
-0.0326353
-0.0312255
-0.0296658
-0.0279611
-0.0261219
-0.0241557
-0.0220714
-0.0198743
-0.017578
-0.0151662
-0.0126496
-0.00993893
-0.00723965
-0.00438471
-0.00145969
)
;

boundaryField
{
    inlet
    {
        type            zeroGradient;
    }
    outlet
    {
        type            fixedValue;
        value           uniform 0;
    }
    centerline
    {
        type            symmetry;
    }
    fixedWalls
    {
        type            zeroGradient;
    }
    frontAndBack
    {
        type            empty;
    }
}


// ************************************************************************* //
