/*--------------------------------*- C++ -*----------------------------------*\
| =========                 |                                                 |
| \\      /  F ield         | OpenFOAM: The Open Source CFD Toolbox           |
|  \\    /   O peration     | Version:  2.4.0                                 |
|   \\  /    A nd           | Web:      www.OpenFOAM.org                      |
|    \\/     M anipulation  |                                                 |
\*---------------------------------------------------------------------------*/
FoamFile
{
    version     2.0;
    format      ascii;
    class       surfaceScalarField;
    location    "350";
    object      phi;
}
// * * * * * * * * * * * * * * * * * * * * * * * * * * * * * * * * * * * * * //

dimensions      [0 3 -1 0 0 0 0];

internalField   nonuniform List<scalar> 
46742
(
2.36552e-06
7.48489e-08
2.28792e-06
7.75993e-08
2.2136e-06
7.43264e-08
2.14181e-06
7.17897e-08
2.07285e-06
6.89567e-08
2.00741e-06
6.54446e-08
1.94546e-06
6.19504e-08
1.88693e-06
5.85247e-08
1.83174e-06
5.51961e-08
1.77973e-06
5.20013e-08
1.73079e-06
4.89398e-08
1.6848e-06
4.59928e-08
1.64162e-06
4.31837e-08
1.60111e-06
4.05104e-08
1.5631e-06
3.80038e-08
1.52742e-06
3.56865e-08
1.49379e-06
3.36264e-08
1.46181e-06
3.1975e-08
1.43127e-06
3.05432e-08
1.40191e-06
2.93602e-08
1.3735e-06
2.84082e-08
1.3456e-06
2.7907e-08
1.31819e-06
2.74065e-08
1.28927e-06
2.89201e-08
2.85035e-08
1.26076e-06
2.63662e-06
6.46603e-08
2.63442e-06
7.97912e-08
2.62821e-06
8.05368e-08
2.61871e-06
8.12888e-08
2.6058e-06
8.18686e-08
2.59046e-06
8.07876e-08
2.57335e-06
7.90567e-08
2.55484e-06
7.70415e-08
2.53523e-06
7.47997e-08
2.5148e-06
7.24359e-08
2.49376e-06
6.99799e-08
2.47228e-06
6.74672e-08
2.45051e-06
6.4953e-08
2.42855e-06
6.24719e-08
2.40648e-06
6.00726e-08
2.38435e-06
5.78146e-08
2.36224e-06
5.57362e-08
2.34027e-06
5.39529e-08
2.31837e-06
5.24375e-08
2.29651e-06
5.1219e-08
2.27458e-06
5.0342e-08
2.25249e-06
4.9994e-08
2.2298e-06
5.00975e-08
2.20707e-06
5.16534e-08
5.36676e-08
2.1819e-06
2.83828e-06
5.30432e-08
2.8441e-06
7.39732e-08
2.84672e-06
7.79137e-08
2.84792e-06
8.00887e-08
2.84795e-06
8.18469e-08
2.84684e-06
8.18962e-08
2.84478e-06
8.11138e-08
2.84183e-06
7.9988e-08
2.83808e-06
7.85544e-08
2.83356e-06
7.69542e-08
2.82833e-06
7.52048e-08
2.82244e-06
7.33643e-08
2.81589e-06
7.14968e-08
2.80872e-06
6.96442e-08
2.80094e-06
6.7854e-08
2.79257e-06
6.61827e-08
2.78364e-06
6.46634e-08
2.77421e-06
6.33819e-08
2.76428e-06
6.23692e-08
2.75383e-06
6.16692e-08
2.74282e-06
6.13501e-08
2.73123e-06
6.15907e-08
2.71891e-06
6.24152e-08
2.70603e-06
6.45348e-08
6.75527e-08
2.69214e-06
3.05189e-06
4.33217e-08
3.05872e-06
6.71463e-08
3.06276e-06
7.38716e-08
3.06559e-06
7.72553e-08
3.06777e-06
7.96731e-08
3.06922e-06
8.04433e-08
3.0701e-06
8.02318e-08
3.07049e-06
7.96009e-08
3.07044e-06
7.86064e-08
3.06998e-06
7.74111e-08
3.06911e-06
7.60712e-08
3.06785e-06
7.46319e-08
3.06618e-06
7.3165e-08
3.0641e-06
7.17188e-08
3.06162e-06
7.03388e-08
3.05872e-06
6.9078e-08
3.05541e-06
6.79802e-08
3.05167e-06
6.71137e-08
3.04752e-06
6.65235e-08
3.04293e-06
6.62632e-08
3.03787e-06
6.64071e-08
3.03235e-06
6.71091e-08
3.02632e-06
6.84404e-08
3.02001e-06
7.08504e-08
7.41603e-08
3.0134e-06
3.28208e-06
3.53462e-08
3.28893e-06
6.03e-08
3.29352e-06
6.92792e-08
3.29692e-06
7.38542e-08
3.29972e-06
7.68761e-08
3.3019e-06
7.82607e-08
3.30357e-06
7.8564e-08
3.30483e-06
7.83365e-08
3.30572e-06
7.77189e-08
3.30627e-06
7.68599e-08
3.3065e-06
7.58394e-08
3.30643e-06
7.47036e-08
3.30606e-06
7.35334e-08
3.30537e-06
7.24059e-08
3.30436e-06
7.13507e-08
3.30302e-06
7.04168e-08
3.30135e-06
6.96524e-08
3.29935e-06
6.91174e-08
3.29701e-06
6.88626e-08
3.29433e-06
6.89449e-08
3.2913e-06
6.94358e-08
3.28795e-06
7.0457e-08
3.2843e-06
7.20862e-08
3.28058e-06
7.4574e-08
7.78405e-08
3.2769e-06
3.53019e-06
2.8875e-08
3.53678e-06
5.37105e-08
3.54169e-06
6.43758e-08
3.54546e-06
7.00751e-08
3.54861e-06
7.37286e-08
3.55118e-06
7.56954e-08
3.55324e-06
7.65046e-08
3.55489e-06
7.668e-08
3.55619e-06
7.64265e-08
3.55715e-06
7.58947e-08
3.5578e-06
7.51866e-08
3.55814e-06
7.43643e-08
3.5582e-06
7.34752e-08
3.55797e-06
7.26331e-08
3.55745e-06
7.18757e-08
3.55662e-06
7.12405e-08
3.5555e-06
7.07778e-08
3.55407e-06
7.05429e-08
3.55235e-06
7.05864e-08
3.55033e-06
7.09624e-08
3.54803e-06
7.17338e-08
3.5455e-06
7.299e-08
3.54279e-06
7.4793e-08
3.5401e-06
7.72639e-08
8.03372e-08
3.53761e-06
3.79754e-06
2.37026e-08
3.80369e-06
4.75591e-08
3.80873e-06
5.93377e-08
3.8128e-06
6.60024e-08
3.81624e-06
7.02925e-08
3.8191e-06
7.2833e-08
3.82145e-06
7.4152e-08
3.82339e-06
7.47475e-08
3.82495e-06
7.48676e-08
3.82617e-06
7.46742e-08
3.82707e-06
7.42829e-08
3.82766e-06
7.37767e-08
3.82794e-06
7.31885e-08
3.82795e-06
7.26315e-08
3.82765e-06
7.21697e-08
3.82706e-06
7.18306e-08
3.82618e-06
7.16622e-08
3.82501e-06
7.17146e-08
3.82356e-06
7.20361e-08
3.82184e-06
7.2675e-08
3.81989e-06
7.36822e-08
3.81777e-06
7.51187e-08
3.81554e-06
7.70225e-08
3.81336e-06
7.94352e-08
8.22807e-08
3.81142e-06
4.08558e-06
1.96197e-08
4.09117e-06
4.19752e-08
4.09616e-06
5.43473e-08
4.10041e-06
6.17469e-08
4.10408e-06
6.66207e-08
4.1072e-06
6.97114e-08
4.10982e-06
7.15365e-08
4.112e-06
7.25666e-08
4.11379e-06
7.30754e-08
4.11523e-06
7.32383e-08
4.11633e-06
7.31783e-08
4.11711e-06
7.29959e-08
4.11758e-06
7.27253e-08
4.11774e-06
7.2468e-08
4.11761e-06
7.23054e-08
4.11717e-06
7.22629e-08
4.11645e-06
7.23856e-08
4.11545e-06
7.27189e-08
4.11418e-06
7.33057e-08
4.11266e-06
7.41867e-08
4.11095e-06
7.54001e-08
4.10908e-06
7.69822e-08
4.10716e-06
7.89477e-08
4.1053e-06
8.1292e-08
8.3931e-08
4.10365e-06
4.39586e-06
1.64265e-08
4.40082e-06
3.70198e-08
4.40562e-06
4.95513e-08
4.40992e-06
5.74422e-08
4.41374e-06
6.27979e-08
4.41707e-06
6.63845e-08
4.41992e-06
6.86911e-08
4.42233e-06
7.01561e-08
4.42434e-06
7.10625e-08
4.42598e-06
7.15955e-08
4.42728e-06
7.18823e-08
4.42824e-06
7.20343e-08
4.42887e-06
7.20934e-08
4.42919e-06
7.21522e-08
4.4292e-06
7.22966e-08
4.4289e-06
7.25546e-08
4.42832e-06
7.29681e-08
4.42746e-06
7.35775e-08
4.42635e-06
7.44195e-08
4.42501e-06
7.55262e-08
4.42349e-06
7.69235e-08
4.42184e-06
7.86288e-08
4.42015e-06
8.06388e-08
4.41852e-06
8.29251e-08
8.54042e-08
4.41704e-06
3.16558e-06
1.46588e-08
3.16857e-06
3.40313e-08
3.17169e-06
4.64341e-08
3.17457e-06
5.45568e-08
3.17719e-06
6.01819e-08
3.17952e-06
6.40568e-08
3.18154e-06
6.66634e-08
3.18329e-06
6.84138e-08
3.18476e-06
6.95872e-08
3.18598e-06
7.0373e-08
3.18697e-06
7.08996e-08
3.18772e-06
7.12828e-08
3.18824e-06
7.15699e-08
3.18854e-06
7.18495e-08
3.18863e-06
7.2206e-08
3.18852e-06
7.26695e-08
3.18821e-06
7.32798e-08
3.18771e-06
7.40739e-08
3.18705e-06
7.50841e-08
3.18624e-06
7.63369e-08
3.18531e-06
7.78505e-08
3.1843e-06
7.96324e-08
3.18327e-06
8.16709e-08
3.18227e-06
8.39286e-08
8.63304e-08
3.18134e-06
3.52142e-06
1.30767e-08
3.52429e-06
3.11669e-08
3.52741e-06
4.33167e-08
3.53039e-06
5.15729e-08
3.53315e-06
5.74194e-08
3.53565e-06
6.15578e-08
3.53786e-06
6.44523e-08
3.53979e-06
6.64882e-08
3.54144e-06
6.79359e-08
3.54283e-06
6.89861e-08
3.54396e-06
6.97667e-08
3.54485e-06
7.03955e-08
3.54549e-06
7.09251e-08
3.5459e-06
7.14415e-08
3.54608e-06
7.20237e-08
3.54604e-06
7.27047e-08
3.5458e-06
7.35217e-08
3.54537e-06
7.45083e-08
3.54476e-06
7.5692e-08
3.544e-06
7.70936e-08
3.54313e-06
7.87245e-08
3.54218e-06
8.05842e-08
3.54119e-06
8.26548e-08
3.54023e-06
8.48952e-08
8.72402e-08
3.53932e-06
3.91734e-06
1.16716e-08
3.92006e-06
2.84439e-08
3.92314e-06
4.02374e-08
3.92619e-06
4.8529e-08
3.92907e-06
5.45393e-08
3.93172e-06
5.89079e-08
3.9341e-06
6.20701e-08
3.9362e-06
6.43832e-08
3.93803e-06
6.61057e-08
3.93959e-06
6.74257e-08
3.94089e-06
6.84698e-08
3.94193e-06
6.93548e-08
3.94272e-06
7.01383e-08
3.94325e-06
7.09044e-08
3.94355e-06
7.17236e-08
3.94363e-06
7.26317e-08
3.94349e-06
7.36634e-08
3.94315e-06
7.48483e-08
3.94263e-06
7.62094e-08
3.94196e-06
7.7762e-08
3.94117e-06
7.95116e-08
3.94031e-06
8.14518e-08
3.9394e-06
8.35613e-08
3.93849e-06
8.57991e-08
8.81107e-08
3.93762e-06
4.35784e-06
1.0431e-08
4.36041e-06
2.58773e-08
4.36342e-06
3.72212e-08
4.3665e-06
4.54571e-08
4.36947e-06
5.15697e-08
4.37224e-06
5.61289e-08
4.37478e-06
5.9532e-08
4.37706e-06
6.2107e-08
4.37907e-06
6.40977e-08
4.38081e-06
6.56867e-08
4.38228e-06
6.6998e-08
4.38349e-06
6.8145e-08
4.38444e-06
6.91892e-08
4.38513e-06
7.02131e-08
4.38557e-06
7.12766e-08
4.38579e-06
7.24181e-08
4.38578e-06
7.36692e-08
4.38557e-06
7.50556e-08
4.38519e-06
7.6596e-08
4.38465e-06
7.83006e-08
4.38399e-06
8.01704e-08
4.38325e-06
8.21951e-08
4.38246e-06
8.43521e-08
4.38165e-06
8.66038e-08
8.89068e-08
4.38085e-06
4.84795e-06
9.33772e-09
4.85035e-06
2.34751e-08
4.85328e-06
3.42869e-08
4.85636e-06
4.23822e-08
4.8594e-06
4.8534e-08
4.86229e-06
5.32388e-08
4.86497e-06
5.68512e-08
4.86741e-06
5.9667e-08
4.86959e-06
6.19136e-08
4.87151e-06
6.37646e-08
4.87317e-06
6.53408e-08
4.87456e-06
6.67499e-08
4.8757e-06
6.80573e-08
4.87657e-06
6.93402e-08
4.87719e-06
7.06509e-08
4.87759e-06
7.20273e-08
4.87776e-06
7.34984e-08
4.87773e-06
7.50861e-08
4.87752e-06
7.68047e-08
4.87716e-06
7.86606e-08
4.87668e-06
8.06512e-08
4.87611e-06
8.27643e-08
4.87548e-06
8.49782e-08
4.87482e-06
8.72603e-08
8.95777e-08
4.87415e-06
5.39325e-06
8.37049e-09
5.39548e-06
2.12383e-08
5.39832e-06
3.1447e-08
5.40138e-06
3.93219e-08
5.40447e-06
4.54482e-08
5.40746e-06
5.02491e-08
5.41028e-06
5.40339e-08
5.41288e-06
5.70645e-08
5.41524e-06
5.95491e-08
5.41736e-06
6.16498e-08
5.41921e-06
6.34834e-08
5.42082e-06
6.51489e-08
5.42216e-06
6.67169e-08
5.42324e-06
6.82542e-08
5.42408e-06
6.98089e-08
5.42469e-06
7.14169e-08
5.42509e-06
7.31039e-08
5.42529e-06
7.48882e-08
5.42531e-06
7.67807e-08
5.42519e-06
7.87845e-08
5.42494e-06
8.08948e-08
5.42461e-06
8.3099e-08
5.42421e-06
8.53779e-08
5.42376e-06
8.77045e-08
9.00548e-08
5.42329e-06
5.99994e-06
7.50644e-09
6.00202e-06
1.91596e-08
6.00476e-06
2.87066e-08
6.0078e-06
3.62854e-08
6.01093e-06
4.23204e-08
6.01401e-06
4.71629e-08
6.01697e-06
5.10775e-08
6.01974e-06
5.42908e-08
6.0223e-06
5.69901e-08
6.02463e-06
5.93228e-08
6.02671e-06
6.14001e-08
6.02855e-06
6.33123e-08
6.03014e-06
6.51308e-08
6.03148e-06
6.69129e-08
6.03258e-06
6.87033e-08
6.03346e-06
7.0534e-08
6.03414e-06
7.24278e-08
6.03463e-06
7.43999e-08
6.03495e-06
7.64582e-08
6.03513e-06
7.86035e-08
6.0352e-06
8.08298e-08
6.03517e-06
8.31256e-08
6.03507e-06
8.54742e-08
6.03492e-06
8.7854e-08
9.02488e-08
6.03473e-06
6.67495e-06
6.72249e-09
6.67689e-06
1.72227e-08
6.67953e-06
2.60624e-08
6.68254e-06
3.32732e-08
6.68571e-06
3.91492e-08
6.6889e-06
4.39735e-08
6.69201e-06
4.79682e-08
6.69498e-06
5.13251e-08
6.69776e-06
5.42084e-08
6.70033e-06
5.67489e-08
6.70268e-06
5.90498e-08
6.7048e-06
6.11935e-08
6.70669e-06
6.3246e-08
6.70834e-06
6.52582e-08
6.70977e-06
6.72699e-08
6.711e-06
6.93095e-08
6.71203e-06
7.13965e-08
6.71289e-06
7.35432e-08
6.71359e-06
7.57553e-08
6.71416e-06
7.80321e-08
6.71462e-06
8.03677e-08
6.715e-06
8.27512e-08
6.7153e-06
8.51689e-08
6.71555e-06
8.76038e-08
9.0046e-08
6.71575e-06
7.42595e-06
5.99625e-09
7.42776e-06
1.54028e-08
7.43033e-06
2.34998e-08
7.43333e-06
3.02736e-08
7.43655e-06
3.59211e-08
7.43987e-06
4.06624e-08
7.44315e-06
4.46799e-08
7.44635e-06
4.81321e-08
7.44939e-06
5.11606e-08
7.45227e-06
5.38764e-08
7.45494e-06
5.63735e-08
7.45741e-06
5.87252e-08
7.45967e-06
6.0989e-08
7.46172e-06
6.32104e-08
7.46356e-06
6.54233e-08
7.46522e-06
6.76525e-08
7.4667e-06
6.99143e-08
7.46803e-06
7.22182e-08
7.46921e-06
7.45679e-08
7.47028e-06
7.69619e-08
7.47126e-06
7.93946e-08
7.47215e-06
8.18565e-08
7.47298e-06
8.43364e-08
7.47377e-06
8.68207e-08
8.93043e-08
7.47451e-06
8.26148e-06
5.30517e-09
8.26322e-06
1.3667e-08
8.26573e-06
2.09904e-08
8.26874e-06
2.72597e-08
8.27205e-06
3.26064e-08
8.27552e-06
3.71942e-08
8.27903e-06
4.11693e-08
8.2825e-06
4.46598e-08
8.28588e-06
4.77832e-08
8.28912e-06
5.06343e-08
8.29221e-06
5.32916e-08
8.29511e-06
5.58177e-08
8.29784e-06
5.82625e-08
8.30039e-06
6.06643e-08
8.30276e-06
6.30518e-08
8.30496e-06
6.54451e-08
8.30702e-06
6.78572e-08
8.30894e-06
7.02954e-08
8.31075e-06
7.27616e-08
8.31246e-06
7.52538e-08
8.31409e-06
7.77664e-08
8.31565e-06
8.02914e-08
8.31717e-06
8.28193e-08
8.31865e-06
8.53391e-08
8.7849e-08
8.3201e-06
9.19107e-06
4.62676e-09
9.19276e-06
1.19708e-08
9.19526e-06
1.84892e-08
9.19834e-06
2.41855e-08
9.20179e-06
2.91528e-08
9.20547e-06
3.35105e-08
9.20927e-06
3.73705e-08
9.2131e-06
4.08344e-08
9.21689e-06
4.39942e-08
9.22059e-06
4.69271e-08
9.22419e-06
4.96968e-08
9.22765e-06
5.23546e-08
9.23097e-06
5.49408e-08
9.23415e-06
5.74862e-08
9.23719e-06
6.00134e-08
9.2401e-06
6.25382e-08
9.24288e-06
6.507e-08
9.24557e-06
6.76135e-08
9.24816e-06
7.01693e-08
9.25068e-06
7.27345e-08
9.25314e-06
7.53037e-08
9.25556e-06
7.78696e-08
9.25796e-06
8.0424e-08
9.26034e-06
8.29574e-08
8.54704e-08
9.26272e-06
1.02253e-05
3.94018e-09
1.0227e-05
1.02569e-08
1.02296e-05
1.59266e-08
1.02328e-05
2.09783e-08
1.02364e-05
2.54825e-08
1.02404e-05
2.95248e-08
1.02446e-05
3.31883e-08
1.02489e-05
3.65493e-08
1.02532e-05
3.96764e-08
1.02575e-05
4.2628e-08
1.02617e-05
4.54526e-08
1.02659e-05
4.81888e-08
1.027e-05
5.08669e-08
1.0274e-05
5.35099e-08
1.02778e-05
5.61339e-08
1.02816e-05
5.87496e-08
1.02853e-05
6.1363e-08
1.0289e-05
6.39762e-08
1.02926e-05
6.65879e-08
1.02961e-05
6.91944e-08
1.02996e-05
7.179e-08
1.03031e-05
7.43678e-08
1.03066e-05
7.69203e-08
1.03101e-05
7.94388e-08
8.19251e-08
1.03137e-05
1.13759e-05
3.22009e-09
1.13777e-05
8.45821e-09
1.13804e-05
1.3209e-08
1.13839e-05
1.75289e-08
1.13879e-05
2.14754e-08
1.13923e-05
2.51085e-08
1.1397e-05
2.84852e-08
1.14019e-05
3.1658e-08
1.14069e-05
3.46732e-08
1.14119e-05
3.75706e-08
1.1417e-05
4.03823e-08
1.14221e-05
4.31343e-08
1.14271e-05
4.5846e-08
1.14321e-05
4.85319e-08
1.1437e-05
5.12015e-08
1.14419e-05
5.38602e-08
1.14467e-05
5.651e-08
1.14516e-05
5.91501e-08
1.14564e-05
6.17774e-08
1.14612e-05
6.43871e-08
1.1466e-05
6.69729e-08
1.14708e-05
6.95278e-08
1.14757e-05
7.20444e-08
1.14806e-05
7.45145e-08
7.69408e-08
1.14856e-05
1.2656e-05
2.43272e-09
1.2658e-05
6.4872e-09
1.2661e-05
1.02086e-08
1.26649e-05
1.36838e-08
1.26694e-05
1.69614e-08
1.26744e-05
2.00784e-08
1.26798e-05
2.30677e-08
1.26855e-05
2.59584e-08
1.26914e-05
2.87747e-08
1.26974e-05
3.15369e-08
1.27036e-05
3.42607e-08
1.27097e-05
3.69583e-08
1.2716e-05
3.96381e-08
1.27222e-05
4.23054e-08
1.27284e-05
4.49627e-08
1.27347e-05
4.76099e-08
1.27409e-05
5.02448e-08
1.27472e-05
5.28636e-08
1.27535e-05
5.54611e-08
1.27599e-05
5.8031e-08
1.27663e-05
6.05663e-08
1.27728e-05
6.30597e-08
1.27793e-05
6.55036e-08
1.27859e-05
6.78901e-08
7.02223e-08
1.27927e-05
1.2924e-05
1.61368e-09
1.29261e-05
4.40777e-09
1.29293e-05
7.03167e-09
1.29334e-05
9.59629e-09
1.29382e-05
1.21386e-08
1.29436e-05
1.46729e-08
1.29495e-05
1.72085e-08
1.29557e-05
1.97511e-08
1.29621e-05
2.23035e-08
1.29688e-05
2.48666e-08
1.29756e-05
2.74402e-08
1.29826e-05
3.00229e-08
1.29896e-05
3.26124e-08
1.29967e-05
3.52054e-08
1.30039e-05
3.77974e-08
1.30111e-05
4.03831e-08
1.30184e-05
4.29565e-08
1.30257e-05
4.55107e-08
1.30332e-05
4.80385e-08
1.30406e-05
5.05321e-08
1.30482e-05
5.29839e-08
1.30559e-05
5.53861e-08
1.30637e-05
5.77311e-08
1.30716e-05
6.00111e-08
6.22293e-08
1.30795e-05
1.1912e-05
8.28377e-10
1.1914e-05
2.34639e-09
1.19172e-05
3.88611e-09
1.19212e-05
5.55623e-09
1.1926e-05
7.37527e-09
1.19313e-05
9.3324e-09
1.19371e-05
1.14122e-08
1.19433e-05
1.35976e-08
1.19497e-05
1.58704e-08
1.19564e-05
1.82134e-08
1.19632e-05
2.06115e-08
1.19702e-05
2.30516e-08
1.19773e-05
2.55217e-08
1.19845e-05
2.80109e-08
1.19917e-05
3.0509e-08
1.19991e-05
3.30061e-08
1.20066e-05
3.54928e-08
1.20141e-05
3.796e-08
1.20218e-05
4.03986e-08
1.20295e-05
4.27999e-08
1.20373e-05
4.51555e-08
1.20453e-05
4.74574e-08
1.20533e-05
4.96979e-08
1.20614e-05
5.18694e-08
5.39752e-08
1.20697e-05
1.09792e-05
4.57872e-11
1.09813e-05
2.50904e-10
1.09845e-05
7.03929e-10
1.09885e-05
1.49486e-09
1.09933e-05
2.6126e-09
1.09986e-05
4.01391e-09
1.10044e-05
5.6555e-09
1.10105e-05
7.49571e-09
1.10169e-05
9.49489e-09
1.10235e-05
1.16183e-08
1.10302e-05
1.3837e-08
1.10372e-05
1.61269e-08
1.10442e-05
1.84676e-08
1.10514e-05
2.08418e-08
1.10587e-05
2.32342e-08
1.1066e-05
2.56314e-08
1.10735e-05
2.80213e-08
1.10811e-05
3.03926e-08
1.10887e-05
3.27352e-08
1.10965e-05
3.50394e-08
1.11043e-05
3.72964e-08
1.11123e-05
3.9498e-08
1.11204e-05
4.16366e-08
1.11285e-05
4.3705e-08
4.57062e-08
1.11368e-05
1.01195e-05
-7.70158e-10
1.01217e-05
-1.92506e-09
1.0125e-05
-2.56676e-09
1.01291e-05
-2.63326e-09
1.01339e-05
-2.18294e-09
1.01392e-05
-1.30197e-09
1.01449e-05
-6.57963e-11
1.0151e-05
1.45691e-09
1.01573e-05
3.20377e-09
1.01637e-05
5.12262e-09
1.01704e-05
7.17159e-09
1.01772e-05
9.31685e-09
1.01842e-05
1.15307e-08
1.01912e-05
1.37902e-08
1.01984e-05
1.60762e-08
1.02056e-05
1.83723e-08
1.0213e-05
2.06642e-08
1.02204e-05
2.29395e-08
1.0228e-05
2.51868e-08
1.02356e-05
2.7396e-08
1.02434e-05
2.95581e-08
1.02512e-05
3.16647e-08
1.02591e-05
3.37086e-08
1.02672e-05
3.56827e-08
3.75899e-08
1.02753e-05
9.32718e-06
-1.65437e-09
9.32949e-06
-4.2274e-09
9.33289e-06
-5.97219e-09
9.33712e-06
-6.86273e-09
9.34197e-06
-7.03228e-09
9.34729e-06
-6.62286e-09
9.35297e-06
-5.74643e-09
9.35893e-06
-4.50189e-09
9.36511e-06
-2.97571e-09
9.37147e-06
-1.23696e-09
9.37798e-06
6.60741e-10
9.38462e-06
2.67502e-09
9.39138e-06
4.77199e-09
9.39825e-06
6.92438e-09
9.40521e-06
9.10988e-09
9.41228e-06
1.13099e-08
9.41943e-06
1.35088e-08
9.42668e-06
1.56929e-08
9.43402e-06
1.78505e-08
9.44144e-06
1.9971e-08
9.44895e-06
2.20453e-08
9.45655e-06
2.40652e-08
9.46424e-06
2.60237e-08
9.47201e-06
2.79139e-08
2.97386e-08
9.47986e-06
8.59695e-06
-2.64676e-09
8.59942e-06
-6.70625e-09
8.60301e-06
-9.55595e-09
8.60737e-06
-1.12202e-08
8.61228e-06
-1.19479e-08
8.61761e-06
-1.19492e-08
8.62324e-06
-1.13765e-08
8.6291e-06
-1.03625e-08
8.63514e-06
-9.01871e-09
8.64133e-06
-7.42976e-09
8.64766e-06
-5.65956e-09
8.65409e-06
-3.7576e-09
8.66062e-06
-1.76265e-09
8.66725e-06
2.94721e-10
8.67397e-06
2.39004e-09
8.68078e-06
4.50326e-09
8.68767e-06
6.61769e-09
8.69464e-06
8.71916e-09
8.7017e-06
1.07955e-08
8.70883e-06
1.28363e-08
8.71605e-06
1.48323e-08
8.72334e-06
1.67754e-08
8.7307e-06
1.86589e-08
8.73814e-06
2.04764e-08
2.223e-08
8.74565e-06
7.92394e-06
-3.78332e-09
7.92666e-06
-9.42385e-09
7.93046e-06
-1.33639e-08
7.93497e-06
-1.57297e-08
7.93996e-06
-1.69387e-08
7.94529e-06
-1.72777e-08
7.95086e-06
-1.69433e-08
7.9566e-06
-1.61062e-08
7.96249e-06
-1.49019e-08
7.96848e-06
-1.34286e-08
7.97458e-06
-1.17585e-08
7.98077e-06
-9.94669e-09
7.98705e-06
-8.03552e-09
7.9934e-06
-6.05769e-09
7.99983e-06
-4.03903e-09
8.00633e-06
-2.00043e-09
8.01291e-06
4.09017e-11
8.01956e-06
2.07061e-09
8.02628e-06
4.07648e-09
8.03306e-06
6.04806e-09
8.03992e-06
7.97632e-09
8.04684e-06
9.85345e-09
8.05383e-06
1.16728e-08
8.06088e-06
1.34284e-08
1.51217e-08
8.06798e-06
7.30369e-06
-5.10942e-09
7.30673e-06
-1.24611e-08
7.31081e-06
-1.74427e-08
7.31549e-06
-2.04112e-08
7.32056e-06
-2.20077e-08
7.32588e-06
-2.25979e-08
7.33136e-06
-2.24277e-08
7.33696e-06
-2.17086e-08
7.34266e-06
-2.05972e-08
7.34843e-06
-1.9202e-08
7.35427e-06
-1.76017e-08
7.36018e-06
-1.58552e-08
7.36616e-06
-1.4007e-08
7.37219e-06
-1.2091e-08
7.37828e-06
-1.01335e-08
7.38444e-06
-8.15564e-09
7.39065e-06
-6.17472e-09
7.39693e-06
-4.20495e-09
7.40326e-06
-2.25834e-09
7.40966e-06
-3.45119e-10
7.41611e-06
1.52596e-09
7.42261e-06
3.34735e-09
7.42917e-06
5.11266e-09
7.43579e-06
6.81625e-09
8.45866e-09
7.44245e-06
6.73211e-06
-6.70168e-09
6.73556e-06
-1.59125e-08
6.73995e-06
-2.1837e-08
6.74482e-06
-2.5276e-08
6.74995e-06
-2.7142e-08
6.75523e-06
-2.78816e-08
6.7606e-06
-2.7795e-08
6.76602e-06
-2.71309e-08
6.77149e-06
-2.60624e-08
6.77699e-06
-2.47054e-08
6.78253e-06
-2.3143e-08
6.78811e-06
-2.1436e-08
6.79374e-06
-1.96297e-08
6.7994e-06
-1.77578e-08
6.80512e-06
-1.58465e-08
6.81088e-06
-1.39165e-08
6.81669e-06
-1.19844e-08
6.82255e-06
-1.00642e-08
6.82845e-06
-8.16716e-09
6.83441e-06
-6.30315e-09
6.84042e-06
-4.48048e-09
6.84647e-06
-2.70634e-09
6.85257e-06
-9.86855e-10
6.85872e-06
6.72611e-10
2.27144e-09
6.8649e-06
6.20543e-06
-8.68491e-09
6.2094e-06
-1.98883e-08
6.21414e-06
-2.6578e-08
6.21917e-06
-3.02987e-08
6.22432e-06
-3.22923e-08
6.22951e-06
-3.30757e-08
6.2347e-06
-3.29871e-08
6.23988e-06
-3.23118e-08
6.24506e-06
-3.12353e-08
6.25023e-06
-2.98782e-08
6.25541e-06
-2.83247e-08
6.26061e-06
-2.66352e-08
6.26583e-06
-2.48536e-08
6.27109e-06
-2.30124e-08
6.27638e-06
-2.11364e-08
6.28171e-06
-1.92451e-08
6.28708e-06
-1.73542e-08
6.29249e-06
-1.54764e-08
6.29794e-06
-1.36225e-08
6.30344e-06
-1.18014e-08
6.30898e-06
-1.00211e-08
6.31457e-06
-8.28827e-09
6.32019e-06
-6.60869e-09
6.32585e-06
-4.98745e-09
-3.42672e-09
6.33155e-06
5.7202e-06
-1.12385e-08
5.7248e-06
-2.44892e-08
5.72988e-06
-3.16577e-08
5.735e-06
-3.54156e-08
5.74008e-06
-3.73753e-08
5.7451e-06
-3.80885e-08
5.75002e-06
-3.79146e-08
5.75488e-06
-3.71679e-08
5.75969e-06
-3.60421e-08
5.76446e-06
-3.46573e-08
5.76923e-06
-3.30938e-08
5.77401e-06
-3.14086e-08
5.7788e-06
-2.96425e-08
5.78361e-06
-2.78252e-08
5.78845e-06
-2.59793e-08
5.79333e-06
-2.41224e-08
5.79824e-06
-2.22687e-08
5.8032e-06
-2.04298e-08
5.80819e-06
-1.86154e-08
5.81322e-06
-1.68336e-08
5.81829e-06
-1.50918e-08
5.8234e-06
-1.3396e-08
5.82854e-06
-1.1752e-08
5.83372e-06
-1.01643e-08
-8.63722e-09
5.83893e-06
5.27326e-06
-1.46005e-08
5.27855e-06
-2.97819e-08
5.28389e-06
-3.69987e-08
5.28898e-06
-4.0502e-08
5.29387e-06
-4.22664e-08
5.29859e-06
-4.28026e-08
5.30315e-06
-4.24762e-08
5.3076e-06
-4.16212e-08
5.31198e-06
-4.04256e-08
5.31633e-06
-3.90004e-08
5.32065e-06
-3.74196e-08
5.32498e-06
-3.57346e-08
5.32932e-06
-3.39817e-08
5.33368e-06
-3.21865e-08
5.33807e-06
-3.0369e-08
5.34249e-06
-2.85448e-08
5.34695e-06
-2.67266e-08
5.35144e-06
-2.49244e-08
5.35597e-06
-2.31469e-08
5.36054e-06
-2.14015e-08
5.36514e-06
-1.9695e-08
5.36978e-06
-1.80328e-08
5.37445e-06
-1.64205e-08
5.37915e-06
-1.48618e-08
-1.33639e-08
5.38387e-06
4.86168e-06
-1.90655e-08
4.86764e-06
-3.57504e-08
4.87307e-06
-4.24266e-08
4.87795e-06
-4.53766e-08
4.88251e-06
-4.68292e-08
4.88683e-06
-4.71236e-08
4.89096e-06
-4.66031e-08
4.89496e-06
-4.56224e-08
4.89888e-06
-4.4353e-08
4.90277e-06
-4.28856e-08
4.90664e-06
-4.12866e-08
4.9105e-06
-3.96013e-08
4.91438e-06
-3.78608e-08
4.91828e-06
-3.60867e-08
4.92221e-06
-3.42958e-08
4.92617e-06
-3.25018e-08
4.93015e-06
-3.0716e-08
4.93418e-06
-2.89471e-08
4.93823e-06
-2.72032e-08
4.94232e-06
-2.54905e-08
4.94644e-06
-2.38155e-08
4.95059e-06
-2.21826e-08
4.95477e-06
-2.05979e-08
4.95897e-06
-1.90632e-08
-1.75901e-08
4.9632e-06
4.48273e-06
-2.49538e-08
4.48924e-06
-4.22604e-08
4.49451e-06
-4.76983e-08
4.499e-06
-4.98649e-08
4.50313e-06
-5.096e-08
4.50699e-06
-5.09818e-08
4.51063e-06
-5.02431e-08
4.51413e-06
-4.91255e-08
4.51755e-06
-4.7778e-08
4.52093e-06
-4.62638e-08
4.52429e-06
-4.46425e-08
4.52764e-06
-4.29517e-08
4.531e-06
-4.12181e-08
4.53437e-06
-3.94586e-08
4.53776e-06
-3.76878e-08
4.54117e-06
-3.59175e-08
4.54462e-06
-3.41581e-08
4.54809e-06
-3.24162e-08
4.55158e-06
-3.06997e-08
4.5551e-06
-2.90132e-08
4.55865e-06
-2.73639e-08
4.56222e-06
-2.5754e-08
4.56582e-06
-2.41915e-08
4.56943e-06
-2.2674e-08
-2.12208e-08
4.57306e-06
4.13391e-06
-3.26025e-08
4.1407e-06
-4.90585e-08
4.14555e-06
-5.25452e-08
4.14948e-06
-5.3798e-08
4.15304e-06
-5.45137e-08
4.15627e-06
-5.42112e-08
4.15924e-06
-5.3218e-08
4.16205e-06
-5.1939e-08
4.16477e-06
-5.04925e-08
4.16741e-06
-4.89097e-08
4.17001e-06
-4.72417e-08
4.17258e-06
-4.5519e-08
4.17513e-06
-4.37675e-08
4.17767e-06
-4.19986e-08
4.18021e-06
-4.02261e-08
4.18275e-06
-3.84588e-08
4.1853e-06
-3.67074e-08
4.18786e-06
-3.4975e-08
4.19043e-06
-3.32711e-08
4.19301e-06
-3.15969e-08
4.19561e-06
-2.99624e-08
4.19822e-06
-2.83642e-08
4.20084e-06
-2.6816e-08
4.20348e-06
-2.53079e-08
-2.38714e-08
4.20613e-06
3.8129e-06
-4.23695e-08
3.81928e-06
-5.54384e-08
3.82312e-06
-5.63945e-08
3.82598e-06
-5.66532e-08
3.82831e-06
-5.6842e-08
3.83008e-06
-5.59858e-08
3.83145e-06
-5.4582e-08
3.83251e-06
-5.30045e-08
3.83335e-06
-5.13277e-08
3.83399e-06
-4.9557e-08
3.83449e-06
-4.77405e-08
3.83487e-06
-4.58953e-08
3.83515e-06
-4.40487e-08
3.83535e-06
-4.22022e-08
3.8355e-06
-4.03719e-08
3.83559e-06
-3.85564e-08
3.83566e-06
-3.67726e-08
3.8357e-06
-3.50152e-08
3.83573e-06
-3.32996e-08
3.83575e-06
-3.16176e-08
3.83577e-06
-2.99885e-08
3.8358e-06
-2.83929e-08
3.83584e-06
-2.68603e-08
3.8359e-06
-2.5365e-08
-2.39427e-08
3.83597e-06
3.51621e-06
-5.32763e-08
3.51748e-06
-5.67104e-08
3.51571e-06
-5.46266e-08
3.51268e-06
-5.36148e-08
3.50797e-06
-5.21361e-08
3.50194e-06
-4.99605e-08
3.49506e-06
-4.76977e-08
3.48748e-06
-4.54312e-08
3.47937e-06
-4.32168e-08
3.47087e-06
-4.10507e-08
3.46209e-06
-3.89674e-08
3.45314e-06
-3.69438e-08
3.4441e-06
-3.50076e-08
3.43503e-06
-3.31318e-08
3.426e-06
-3.13406e-08
3.41704e-06
-2.96051e-08
3.40822e-06
-2.79519e-08
3.39956e-06
-2.63508e-08
3.39109e-06
-2.48289e-08
3.38283e-06
-2.33565e-08
3.37479e-06
-2.19565e-08
3.36701e-06
-2.06093e-08
3.35948e-06
-1.93295e-08
3.35222e-06
-1.81057e-08
-1.6945e-08
3.34522e-06
3.17753e-06
3.12082e-06
3.06619e-06
3.01258e-06
2.96044e-06
2.91048e-06
2.86278e-06
2.81735e-06
2.77413e-06
2.73308e-06
2.69411e-06
2.65717e-06
2.62216e-06
2.58903e-06
2.55769e-06
2.52809e-06
2.50013e-06
2.47378e-06
2.44895e-06
2.4256e-06
2.40364e-06
2.38303e-06
2.3637e-06
2.3456e-06
2.32865e-06
-7.93749e-08
7.93767e-08
-1.74904e-07
9.55304e-08
-2.61128e-07
8.62256e-08
-3.34747e-07
7.36196e-08
-3.94445e-07
5.96992e-08
-4.37658e-07
4.3214e-08
-4.61425e-07
2.37684e-08
-4.63221e-07
1.79745e-09
-4.42919e-07
-2.03e-08
-4.00772e-07
-4.21449e-08
-3.39453e-07
-6.13171e-08
-2.63353e-07
-7.60973e-08
-1.78261e-07
-8.50889e-08
-8.98184e-08
-8.8437e-08
-3.2481e-09
-8.65633e-08
7.93083e-08
-8.25499e-08
1.56217e-07
-7.69033e-08
2.24018e-07
-6.77979e-08
2.80467e-07
-5.64453e-08
3.24431e-07
-4.396e-08
3.55638e-07
-3.12043e-08
3.74168e-07
-1.85271e-08
3.80928e-07
-6.7564e-09
3.77372e-07
3.5588e-09
3.64585e-07
1.27902e-08
3.44089e-07
2.04993e-08
3.17786e-07
2.63066e-08
2.87947e-07
2.98442e-08
2.57177e-07
3.07747e-08
2.28438e-07
2.87447e-08
2.04867e-07
2.35791e-08
1.89538e-07
1.53373e-08
1.84507e-07
5.04034e-09
1.90972e-07
-6.45473e-09
2.07424e-07
-1.64421e-08
2.29745e-07
-2.23113e-08
2.51335e-07
-2.15809e-08
2.64717e-07
-1.33729e-08
2.60092e-07
4.63392e-09
2.23008e-07
3.70934e-08
1.43962e-07
7.90564e-08
1.67671e-08
1.27206e-07
-1.81963e-07
1.98737e-07
-4.43026e-07
2.61066e-07
-7.40674e-07
2.97649e-07
-1.05091e-06
3.10239e-07
-1.35816e-06
3.07247e-07
-1.65564e-06
2.97476e-07
-1.94022e-06
2.84583e-07
-2.21051e-06
2.70287e-07
-2.46603e-06
2.55519e-07
-2.70683e-06
2.40806e-07
-2.9333e-06
2.26461e-07
-3.14597e-06
2.12669e-07
-3.3455e-06
1.99535e-07
-3.53262e-06
1.87116e-07
-3.70805e-06
1.75435e-07
-3.87255e-06
1.64494e-07
-4.02682e-06
1.54275e-07
-4.17156e-06
1.44737e-07
-4.30741e-06
1.35843e-07
-4.43496e-06
1.27554e-07
-4.55479e-06
1.1983e-07
-4.66742e-06
1.12632e-07
-4.77334e-06
1.05918e-07
-4.87299e-06
9.96499e-08
-4.96678e-06
9.37909e-08
-5.05509e-06
8.83028e-08
-5.13824e-06
8.31532e-08
-5.21656e-06
7.83209e-08
-5.29033e-06
7.37752e-08
-5.35982e-06
6.94889e-08
-5.42526e-06
6.54374e-08
-5.48686e-06
6.15991e-08
-5.54481e-06
5.79544e-08
-5.5993e-06
5.44855e-08
-5.65048e-06
5.11771e-08
-5.69849e-06
4.80144e-08
-5.74348e-06
4.49844e-08
-5.78555e-06
4.20766e-08
-5.82483e-06
3.92803e-08
-5.86142e-06
3.65859e-08
-5.89541e-06
3.39865e-08
-5.92689e-06
3.14797e-08
-5.95596e-06
2.90697e-08
-5.98269e-06
2.67356e-08
-6.00717e-06
2.44719e-08
-6.02944e-06
2.22746e-08
-6.04959e-06
2.01444e-08
-6.06766e-06
1.80768e-08
-6.08373e-06
1.60675e-08
-6.09786e-06
1.41247e-08
-6.11011e-06
1.22482e-08
-6.12054e-06
1.04276e-08
-6.12921e-06
8.67747e-09
-6.1362e-06
6.98202e-09
-6.14153e-06
5.33259e-09
-6.14528e-06
3.74918e-09
-6.14752e-06
2.24086e-09
-6.14836e-06
8.32396e-10
-6.14784e-06
-5.18917e-10
-6.14611e-06
-1.73029e-09
-6.14305e-06
-3.05267e-09
-6.13867e-06
-4.38152e-09
-6.13307e-06
-5.59924e-09
-6.12634e-06
-6.7378e-09
-6.11853e-06
-7.81228e-09
-6.10969e-06
-8.83133e-09
-6.09989e-06
-9.80108e-09
-6.08917e-06
-1.07256e-08
-6.07756e-06
-1.16101e-08
-6.0651e-06
-1.24598e-08
-6.05182e-06
-1.32804e-08
-6.03774e-06
-1.40786e-08
-6.02288e-06
-1.48606e-08
-6.00725e-06
-1.56331e-08
-5.99084e-06
-1.64039e-08
-5.97366e-06
-1.71817e-08
-5.95568e-06
-1.79785e-08
-5.93688e-06
-1.88063e-08
-5.9172e-06
-1.96756e-08
-5.89661e-06
-2.05961e-08
-5.87503e-06
-2.15792e-08
-5.85238e-06
-2.26392e-08
-5.82859e-06
-2.37932e-08
-5.80353e-06
-2.50597e-08
-5.77707e-06
-2.64565e-08
-5.74906e-06
-2.80027e-08
-5.71934e-06
-2.97178e-08
-5.68771e-06
-3.16228e-08
-5.65397e-06
-3.37395e-08
-5.61788e-06
-3.60906e-08
-5.57918e-06
-3.86999e-08
-5.53759e-06
-4.15927e-08
-5.49279e-06
-4.47957e-08
-5.44445e-06
-4.83367e-08
-5.39221e-06
-5.22436e-08
-5.33567e-06
-5.65447e-08
-5.2744e-06
-6.12692e-08
-5.20795e-06
-6.64468e-08
-5.13585e-06
-7.21056e-08
-5.05757e-06
-7.82707e-08
-4.97261e-06
-8.49653e-08
-4.8804e-06
-9.22088e-08
-4.78039e-06
-1.00012e-07
-4.67201e-06
-1.08373e-07
-4.55474e-06
-1.17273e-07
-4.42807e-06
-1.26671e-07
-4.29158e-06
-1.36484e-07
-4.14499e-06
-1.4659e-07
-3.98804e-06
-1.56953e-07
-3.82055e-06
-1.67489e-07
-3.64252e-06
-1.7803e-07
-3.45413e-06
-1.88387e-07
-3.25576e-06
-1.98366e-07
-3.04807e-06
-2.07691e-07
-2.83214e-06
-2.15929e-07
-2.60913e-06
-2.23016e-07
-2.3802e-06
-2.2893e-07
-2.14659e-06
-2.33602e-07
-1.90927e-06
-2.37325e-07
-1.66927e-06
-2.40001e-07
-1.42818e-06
-2.41084e-07
-1.18765e-06
-2.40526e-07
-9.49232e-07
-2.38421e-07
-7.14323e-07
-2.34907e-07
-4.83869e-07
-2.30452e-07
-2.58222e-07
-2.25644e-07
-3.79795e-08
-2.20238e-07
1.80097e-07
-2.18072e-07
3.9525e-07
-2.15149e-07
6.02155e-07
-2.06901e-07
7.99648e-07
-1.9749e-07
9.86793e-07
-1.87141e-07
1.16315e-06
-1.76349e-07
1.32872e-06
-1.65568e-07
1.48347e-06
-1.54754e-07
1.62826e-06
-1.44783e-07
1.76393e-06
-1.35662e-07
1.89057e-06
-1.26639e-07
2.00841e-06
-1.17843e-07
2.11781e-06
-1.09399e-07
2.21916e-06
-1.0134e-07
2.31281e-06
-9.36533e-08
2.3991e-06
-8.62873e-08
2.47831e-06
-7.92068e-08
2.55071e-06
-7.23968e-08
2.61656e-06
-6.58549e-08
2.67615e-06
-5.95821e-08
2.72973e-06