/*--------------------------------*- C++ -*----------------------------------*\
| =========                 |                                                 |
| \\      /  F ield         | OpenFOAM: The Open Source CFD Toolbox           |
|  \\    /   O peration     | Version:  2.4.0                                 |
|   \\  /    A nd           | Web:      www.OpenFOAM.org                      |
|    \\/     M anipulation  |                                                 |
\*---------------------------------------------------------------------------*/
FoamFile
{
    version     2.0;
    format      ascii;
    class       volVectorField;
    location    "5.82";
    object      U;
}
// * * * * * * * * * * * * * * * * * * * * * * * * * * * * * * * * * * * * * //

dimensions      [0 1 -1 0 0 0 0];

internalField   nonuniform List<vector> 
6000
(
(0.165118 -0.00671286 1.30283e-18)
(-0.0097459 0.00185846 0)
(0.000828766 -0.000234249 7.24087e-18)
(-0.00663361 0.00128756 0)
(-0.00500563 0.000987383 0)
(-0.00607628 0.00113991 0)
(-0.00534351 0.00098403 4.01708e-18)
(-0.00550762 0.000961923 3.33605e-22)
(-0.00512448 0.000866327 0)
(-0.00512584 0.000821667 0)
(-0.00495191 0.000759616 3.91794e-18)
(-0.00497991 0.000722581 -7.76127e-18)
(-0.00498246 0.000686478 0)
(-0.00511677 0.000664184 0)
(-0.00528754 0.000646951 -1.88288e-18)
(-0.00555737 0.000636676 0)
(-0.00588561 0.000629646 0)
(-0.00629605 0.000624773 -1.83472e-18)
(-0.00677074 0.000619807 -1.82171e-18)
(-0.00731705 0.000612954 0)
(-0.00792514 0.000602329 1.80122e-18)
(-0.0085934 0.000585986 8.9699e-19)
(-0.00931205 0.000562118 -8.94443e-19)
(-0.0100725 0.000528902 0)
(-0.0108611 0.000484849 0)
(-0.0116639 0.000428765 0)
(-0.0124645 0.000359897 4.48128e-19)
(-0.0132443 0.00027787 -4.50009e-19)
(-0.0139813 0.000182876 0)
(-0.0146506 7.5731e-05 0)
(-0.0152243 -4.20044e-05 5.75185e-20)
(-0.0156718 -0.000168007 0)
(-0.0159606 -0.000299479 4.70944e-19)
(-0.0160562 -0.00043011 -4.77614e-19)
(-0.0159228 -0.000550607 0)
(-0.0155236 -0.000659357 0)
(-0.0148241 -0.000747377 1.00537e-18)
(-0.0137875 -0.000805539 0)
(-0.0123838 -0.000823532 1.04661e-18)
(-0.0105765 -0.000790764 0)
(-0.00834907 -0.000695366 0)
(-0.00567113 -0.000526469 2.23257e-18)
(-0.00257022 -0.000272765 -4.56008e-18)
(0.00092511 7.22156e-05 0)
(0.00441017 0.000475896 0)
(0.00810537 0.000948597 2.41577e-18)
(0.0118344 0.00149359 0)
(0.0159349 0.0021297 0)
(0.0198865 0.0028386 -5.00493e-18)
(0.0245127 0.00366883 -5.03198e-18)
(0.0284477 0.00453508 -5.00934e-18)
(0.0338952 0.00560681 -1.81211e-21)
(0.0372779 0.00658408 4.84741e-18)
(0.0444396 0.00802877 0)
(0.0460545 0.00896059 -2.99614e-21)
(0.0572837 0.0111731 -4.30667e-18)
(0.0543319 0.0115651 3.44393e-18)
(0.0753936 0.0157021 3.55956e-18)
(0.062502 0.0145613 4.12272e-21)
(0.104482 0.0229659 0)
(0.360298 -0.0164518 -1.80934e-18)
(0.00301711 0.00650596 4.29248e-18)
(0.00549197 -0.00089373 -4.34254e-18)
(-0.0149552 0.00337576 -4.60638e-18)
(-0.0124293 0.00257911 0)
(-0.0157697 0.0030596 0)
(-0.0142801 0.00266483 -4.58605e-18)
(-0.014876 0.00262486 9.08395e-18)
(-0.0140264 0.00238194 0)
(-0.01409 0.00226898 0)
(-0.0137019 0.00211313 -4.34675e-18)
(-0.0138051 0.00202063 4.28247e-18)
(-0.0138518 0.0019335 2.10923e-18)
(-0.0142301 0.00188221 0)
(-0.0147123 0.0018453 2.05125e-18)
(-0.0154493 0.00182657 0)
(-0.016343 0.00181635 0)
(-0.0174475 0.00181119 0)
(-0.0187176 0.00180488 0)
(-0.0201665 0.00179228 0)
(-0.0217665 0.00176799 -1.25654e-23)
(-0.0235085 0.00172646 0)
(-0.0253633 0.00166255 -9.55162e-19)
(-0.0273041 0.00157115 0)
(-0.0292924 0.00144819 0)
(-0.0312888 0.0012906 4.75424e-19)
(-0.0332481 0.0010965 -4.7623e-19)
(-0.0351206 0.000864975 -2.46269e-24)
(-0.0368486 0.000596708 2.40158e-19)
(-0.0383685 0.000294079 0)
(-0.0396098 -3.84487e-05 -6.09887e-20)
(-0.0404972 -0.000394191 -2.46555e-19)
(-0.0409505 -0.000764552 9.34497e-24)
(-0.0408852 -0.00113459 5.06369e-19)
(-0.0402164 -0.00148503 -5.14453e-19)
(-0.0388556 -0.00180407 0)
(-0.0367179 -0.00206907 0)
(-0.0337143 -0.00225613 0)
(-0.029768 -0.00233781 0)
(-0.024789 -0.00228573 0)
(-0.0187311 -0.00206717 -2.32176e-18)
(-0.0115231 -0.00165086 0)
(-0.00325548 -0.00100002 2.41868e-18)
(0.00588678 -8.2728e-05 2.468e-18)
(0.014937 0.00101219 0)
(0.0245037 0.00228071 0)
(0.0341733 0.00373781 0)
(0.0446752 0.00542508 0)
(0.054869 0.00730602 5.45084e-18)
(0.0665442 0.00948484 0)
(0.0767602 0.0117792 0)
(0.0902576 0.0145585 -5.52084e-18)
(0.0994034 0.0171657 -5.4103e-18)
(0.116674 0.0208496 0)
(0.122265 0.0234317 -9.99207e-18)
(0.148428 0.0289249 0)
(0.144679 0.0304381 -7.97307e-18)
(0.192355 0.0403258 -4.13849e-18)
(0.16806 0.0385832 1.68009e-18)
(0.262921 0.0575986 2.99429e-18)
(0.500824 -0.011366 -1.73808e-19)
(0.0412798 0.00906114 -4.25565e-18)
(0.0141238 -0.00129296 0)
(-0.0188705 0.00483413 4.61373e-18)
(-0.0175039 0.00374051 0)
(-0.0234468 0.00457154 0)
(-0.0218109 0.00403393 0)
(-0.0229981 0.00400783 -4.54752e-18)
(-0.0219364 0.00367192 0)
(-0.0221409 0.0035151 -4.41829e-18)
(-0.0216545 0.00330164 0)
(-0.021867 0.00317529 0)
(-0.0220006 0.00306311 -2.11045e-18)
(-0.0226224 0.00300195 0)
(-0.023411 0.00296465 0)
(-0.0245833 0.00295335 0)
(-0.0259992 0.00295491 0)
(-0.027733 0.00296244 0)
(-0.0297171 0.00296667 0)
(-0.0319653 0.0029588 1.9432e-18)
(-0.034433 0.00293024 -1.92885e-18)
(-0.0370997 0.0028717 0)
(-0.0399166 0.00277485 7.07902e-24)
(-0.0428368 0.00263145 -9.50873e-19)
(-0.0457966 0.00243513 0)
(-0.0487309 0.00218134 -9.48961e-19)
(-0.0515668 0.00186746 0)
(-0.0542244 0.00149238 4.76605e-19)
(-0.0566133 0.00105756 -2.39446e-19)
(-0.0586352 0.000567258 0)
(-0.0601835 2.9122e-05 0)
(-0.0611454 -0.000545505 2.45492e-19)
(-0.061403 -0.00114167 -4.31622e-24)
(-0.060834 -0.00173841 0)
(-0.0593178 -0.00231242 1.02195e-18)
(-0.0567318 -0.00283621 0)
(-0.0529599 -0.00327693 1.05682e-18)
(-0.0478851 -0.00359933 0)
(-0.0414111 -0.00376272 0)
(-0.0334329 -0.00372589 0)
(-0.0239189 -0.00344025 2.27331e-18)
(-0.0128282 -0.00285866 0)
(-0.000384134 -0.00191994 0)
(0.0130885 -0.000566425 -2.37525e-18)
(0.0266621 0.00109324 0)
(0.041149 0.0030222 0)
(0.0559489 0.00525869 2.58017e-18)
(0.0719838 0.00784157 -2.63729e-18)
(0.0877268 0.0107491 -2.68022e-18)
(0.105523 0.0140736 0)
(0.121498 0.0176491 0)
(0.141891 0.0218448 0)
(0.156672 0.0259807 5.36798e-18)
(0.182285 0.0314257 5.3204e-18)
(0.192654 0.0357424 4.97987e-18)
(0.23043 0.0435821 0)
(0.228829 0.0468928 3.98504e-18)
(0.296077 0.0603824 8.28823e-18)
(0.267728 0.0599804 0)
(0.401993 0.0846961 -3.01276e-18)
(0.605049 0.000253639 -1.44286e-19)
(0.0969952 0.0110045 4.13107e-18)
(0.0279022 -0.00122743 -4.33097e-18)
(-0.0183261 0.00584383 0)
(-0.0200989 0.00456416 0)
(-0.029045 0.00577072 0)
(-0.0278659 0.0051417 0)
(-0.0298306 0.00516525 0)
(-0.0288087 0.00476928 0)
(-0.0292446 0.00459468 4.42108e-18)
(-0.028774 0.00434548 4.35161e-18)
(-0.0291338 0.00420514 0)
(-0.0293941 0.00408544 0)
(-0.0302574 0.00403067 0)
(-0.0313419 0.00400755 2.05123e-18)
(-0.032911 0.00401682 0)
(-0.034796 0.00404171 1.99984e-18)
(-0.0370819 0.00407202 -1.97752e-18)
(-0.0396829 0.00409542 0)
(-0.0426078 0.00409959 -1.93998e-18)
(-0.0457953 0.00407268 0)
(-0.0492105 0.00400182 -9.56159e-19)
(-0.0527839 0.00387555 1.90241e-18)
(-0.056447 0.00368273 9.47604e-19)
(-0.0601114 0.00341511 0)
(-0.0636871 0.0030672 4.72301e-19)
(-0.0670752 0.0026361 0)
(-0.0701687 0.0021209 4.73745e-19)
(-0.0728496 0.00152423 0)
(-0.0749916 0.000852479 0)
(-0.076461 0.000116538 0)
(-0.0771192 -0.000667862 2.43071e-19)
(-0.0768239 -0.0014802 -9.82439e-19)
(-0.0754329 -0.00229374 0)
(-0.0728086 -0.00307803 -5.03393e-19)
(-0.0688164 -0.00379672 0)
(-0.0633346 -0.00440829 -1.03602e-18)
(-0.0562473 -0.00486872 0)
(-0.0474711 -0.00512766 0)
(-0.0369258 -0.00513456 0)
(-0.0246304 -0.00482939 2.19006e-18)
(-0.0106089 -0.00415142 0)
(0.00480382 -0.00302086 2.22053e-18)
(0.0213174 -0.00136776 -2.24646e-18)
(0.0384013 0.000695991 0)
(0.0568323 0.00312036 -2.40089e-18)
(0.0758982 0.00597182 -4.94757e-18)
(0.0965798 0.00928637 2.54204e-18)
(0.117147 0.0130588 5.18899e-18)
(0.140173 0.0173547 -5.28127e-18)
(0.161346 0.0220509 -5.31957e-18)
(0.187572 0.0274468 0)
(0.207738 0.0329696 -5.27669e-18)
(0.240111 0.0398446 -5.2469e-18)
(0.255745 0.045841 -4.90787e-18)
(0.302218 0.0554006 0)
(0.305004 0.0606984 0)
(0.385645 0.0764216 -4.11766e-18)
(0.359123 0.0781862 0)
(0.520355 0.105341 2.94588e-18)
(0.684215 0.0143671 -1.25456e-19)
(0.16288 0.0131477 -3.18917e-20)
(0.0478682 -0.000607711 4.30505e-18)
(-0.0132766 0.00653908 4.60716e-18)
(-0.0200954 0.00513277 0)
(-0.0325178 0.00670564 -4.64569e-18)
(-0.0323854 0.00602116 0)
(-0.0353442 0.00612024 0)
(-0.0346086 0.00569103 0)
(-0.0353788 0.00551977 4.42204e-18)
(-0.0350345 0.00525412 -4.35254e-18)
(-0.0355834 0.0051166 0)
(-0.0360062 0.00500445 0)
(-0.0371075 0.00496959 0)
(-0.0384709 0.00497248 -2.04979e-18)
(-0.040392 0.00501245 0)
(-0.0426828 0.00506893 -1.99696e-18)
(-0.0454314 0.00512858 1.97377e-18)
(-0.0485363 0.00517589 0)
(-0.0519967 0.00519518 0)
(-0.0557339 0.00517138 9.58858e-19)
(-0.0596959 0.00508826 9.51921e-19)
(-0.0637922 0.00493151 -1.89238e-18)
(-0.0679324 0.0046875 -9.41724e-19)
(-0.0720054 0.00434672 0)
(-0.0758985 0.0039034 4.68375e-19)
(-0.0794914 0.00335503 0)
(-0.0826565 0.00270148 -4.68628e-19)
(-0.0852563 0.00194702 2.3489e-19)
(-0.0871481 0.00110052 0)
(-0.0881843 0.000176275 0)
(-0.0882164 -0.000805804 -4.77547e-19)
(-0.0870965 -0.00182015 4.81353e-19)
(-0.0846833 -0.00283514 0)
(-0.0808427 -0.00381364 -4.90482e-19)
(-0.0754492 -0.0047136 0)
(-0.0683963 -0.00548714 1.00257e-18)
(-0.0595882 -0.00608413 0)
(-0.0489692 -0.00644773 0)
(-0.0364917 -0.00652061 0)
(-0.022216 -0.00623421 -2.08236e-18)
(-0.00620208 -0.00551513 -2.08919e-18)
(0.0111886 -0.00427133 -2.09011e-18)
(0.0298085 -0.00243434 1.15502e-21)
(0.0494991 -0.000113881 -2.17882e-18)
(0.0709045 0.00264445 2.25807e-18)
(0.0932862 0.00593327 4.66393e-18)
(0.117632 0.00979387 0)
(0.142165 0.014239 -2.46599e-18)
(0.16949 0.0193132 5.04444e-18)
(0.195199 0.0249413 5.10377e-18)
(0.226307 0.0313336 0)
(0.251494 0.0380716 0)
(0.289386 0.0461161 0)
(0.310459 0.0536705 4.79117e-18)
(0.363471 0.0645039 0)
(0.372006 0.0718186 0)
(0.461491 0.088814 4.03213e-18)
(0.440632 0.0931138 -1.61142e-18)
(0.618996 0.120518 -2.91699e-18)
(0.745566 0.0291101 -1.12209e-19)
(0.23342 0.0160016 -3.9573e-18)
(0.0745729 0.00057933 0)
(-0.003645 0.00707729 -4.59713e-18)
(-0.017382 0.00552742 -4.62113e-18)
(-0.0338154 0.007424 5.12907e-22)
(-0.0353117 0.0067058 0)
(-0.039511 0.00689677 0)
(-0.0393047 0.0064546 0)
(-0.0405246 0.00630321 -4.42268e-18)
(-0.0404145 0.00603703 0)
(-0.0411981 0.00591585 0)
(-0.0418153 0.00582361 2.10908e-18)
(-0.0431489 0.00581926 0)
(-0.0447681 0.00585705 0)
(-0.0469894 0.00593465 0)
(-0.0496124 0.00602762 0)
(-0.0527226 0.00611941 -1.96763e-18)
(-0.0562034 0.00619136 0)
(-0.0600414 0.00622459 1.92467e-18)
(-0.06414 0.00620102 -9.53214e-19)
(-0.068429 0.00610142 -9.45149e-19)
(-0.0727986 0.00590911 1.87648e-18)
(-0.0771388 0.00560871 1.86495e-18)
(-0.0813203 0.00519018 0)
(-0.0852149 0.00464837 -4.62254e-19)
(-0.0886887 0.00398187 0)
(-0.0916041 0.00319197 0)
(-0.0938171 0.00228504 -4.60824e-19)
(-0.0951821 0.00127268 0)
(-0.0955532 0.000172442 0)
(-0.0947877 -0.000992022 4.64871e-19)
(-0.0927485 -0.00219121 0)
(-0.0893067 -0.00338944 0)
(-0.0843416 -0.0045453 4.72991e-19)
(-0.0777441 -0.0056128 0)
(-0.0694249 -0.00653983 -9.60214e-19)
(-0.0593064 -0.00727215 0)
(-0.0473512 -0.00774843 0)
(-0.0335288 -0.00790568 0)
(-0.0179135 -0.00766808 0)
(-0.000568315 -0.00694984 1.96796e-18)
(0.0181759 -0.0056524 1.96312e-18)
(0.0383136 -0.00371815 1.19408e-21)
(0.059908 -0.00125306 2.04002e-18)
(0.0834693 0.00171227 2.1082e-18)
(0.108283 0.00528687 -2.17934e-18)
(0.135322 0.00952134 0)
(0.162872 0.0144441 -2.30768e-18)
(0.193478 0.0200915 2.36658e-18)
(0.222865 0.0264325 -4.8043e-18)
(0.257862 0.0336022 0)
(0.287464 0.0413379 0)
(0.329825 0.0503178 -4.85901e-18)
(0.356159 0.0592424 -4.58646e-18)
(0.414205 0.0710337 4.57349e-18)
(0.429087 0.0802634 3.73552e-18)
(0.524429 0.0979139 -3.93429e-18)
(0.511302 0.104804 1.57893e-18)
(0.699734 0.131111 0)
(0.793858 0.0436841 -1.01239e-19)
(0.304745 0.0197911 0)
(0.107937 0.00233726 4.23239e-18)
(0.01069 0.00761932 4.58082e-18)
(-0.0118565 0.00582626 -6.12795e-23)
(-0.0328792 0.00797312 4.64502e-18)
(-0.0365848 0.00722919 0)
(-0.0423001 0.00751921 0)
(-0.0428656 0.00707758 0)
(-0.0446631 0.00695826 2.21097e-18)
(-0.0448939 0.00670359 2.17541e-18)
(-0.0459614 0.00660903 0)
(-0.0468019 0.00654598 -2.10733e-18)
(-0.0483606 0.00657968 2.07472e-18)
(-0.0502063 0.00665819 0)
(-0.0526699 0.00677713 0)
(-0.0555426 0.00690803 0)
(-0.0589035 0.00703115 5.42075e-23)
(-0.0626223 0.00712477 0)
(-0.0666713 0.00716713 -3.82195e-18)
(-0.0709378 0.00713755 9.44959e-19)
(-0.0753357 0.00701442 9.35452e-19)
(-0.07974 0.00677947 -3.06177e-23)
(-0.0840281 0.0064164 -9.19419e-19)
(-0.0880607 0.00591562 0)
(-0.0917035 0.00527336 0)
(-0.0948203 0.00448993 0)
(-0.0972745 0.00356841 2.25037e-19)
(-0.0989267 0.00251737 4.49073e-19)
(-0.0996392 0.00135087 0)
(-0.0992767 8.91823e-05 0)
(-0.0977094 -0.00124122 -4.49212e-19)
(-0.0948145 -0.00260806 -2.24993e-19)
(-0.0904742 -0.00397315 0)
(-0.08458 -0.00529239 0)
(-0.0770341 -0.00651696 0)
(-0.0677579 -0.00759184 0)
(-0.0566823 -0.0084596 0)
(-0.0437773 -0.00905522 0)
(-0.0290161 -0.0093103 0)
(-0.0124719 -0.00914221 0)
(0.00580483 -0.00845376 0)
(0.0255358 -0.00714445 -9.57364e-22)
(0.0468189 -0.00517322 1.86604e-18)
(0.069815 -0.00264252 0)
(0.094929 0.000439399 -3.94684e-18)
(0.12149 0.00418831 -2.03212e-18)
(0.150435 0.00866425 0)
(0.180162 0.0139047 2.1507e-18)
(0.213115 0.0199468 -2.20598e-18)
(0.24527 0.0267919 4.48351e-18)
(0.283145 0.0345254 -4.55561e-18)
(0.31632 0.0430135 0)
(0.362109 0.0526988 8.9719e-21)
(0.393118 0.0627366 4.33706e-18)
(0.455016 0.0752349 -8.68252e-18)
(0.476155 0.0861507 -1.31677e-20)
(0.575464 0.104081 -3.74971e-18)
(0.570801 0.113379 1.49526e-18)
(0.764538 0.137869 2.70856e-18)
(0.832278 0.057654 3.1219e-18)
(0.374273 0.0245425 0)
(0.147318 0.00468388 2.61607e-21)
(0.0298648 0.00828763 -2.75814e-22)
(-0.00342222 0.0061323 4.608e-18)
(-0.0296386 0.00840135 4.64135e-18)
(-0.0361405 0.0076262 0)
(-0.0436744 0.00801294 4.55293e-18)
(-0.0452574 0.00757833 0)
(-0.0477732 0.00749888 -2.21045e-18)
(-0.0484523 0.00726364 -9.44336e-23)
(-0.0498573 0.00720268 -2.13973e-18)
(-0.0509481 0.00717482 0)
(-0.0527232 0.00725102 -4.14158e-18)
(-0.0547622 0.00737292 0)
(-0.0574057 0.00753373 0)
(-0.060441 0.00770091 0)
(-0.0639392 0.00785156 1.94625e-18)
(-0.067759 0.00796124 0)
(-0.07186 0.00800582 1.89256e-18)
(-0.0761179 0.0079627 -1.86814e-18)
(-0.0804363 0.00780874 0)
(-0.0846825 0.0075249 -3.29809e-23)
(-0.0887295 0.00709488 0)
(-0.0924371 0.00651019 0)
(-0.0956737 0.00576894 -4.43542e-19)
(-0.0983085 0.00487331 0)
(-0.100212 0.00382807 -4.37759e-19)
(-0.101256 0.00264357 -2.17851e-19)
(-0.101311 0.00133578 -5.42675e-20)
(-0.100256 -7.30941e-05 5.41462e-20)
(-0.0979699 -0.00155475 2.16265e-19)
(-0.0943411 -0.00307518 4.32249e-19)
(-0.0892586 -0.00459466 0)
(-0.0826211 -0.00606713 4.33193e-19)
(-0.0743374 -0.00744153 0)
(-0.0643333 -0.00866048 0)
(-0.0525431 -0.00966363 0)
(-0.0389381 -0.0103825 8.77501e-19)
(-0.0234901 -0.0107435 0)
(-0.00626502 -0.0106576 0)
(0.0127042 -0.0100182 1.76185e-18)
(0.0331959 -0.00872622 -1.75977e-18)
(0.0553735 -0.00675919 0)
(0.0794196 -0.00421625 0)
(0.105664 -0.0010797 1.85742e-18)
(0.133483 0.00276641 1.9066e-18)
(0.163769 0.00739079 -1.95581e-18)
(0.195039 0.0128331 0)
(0.229619 0.0191368 0)
(0.263768 0.0263198 0)
(0.303657 0.0344422 7.2592e-21)
(0.339536 0.043458 0)
(0.387785 0.0536442 4.25416e-18)
(0.422619 0.0645111 0)
(0.487315 0.0775043 4.06456e-18)
(0.514059 0.0897768 -3.35052e-18)
(0.616013 0.107759 7.08293e-18)
(0.619566 0.119094 -1.42391e-18)
(0.815479 0.141502 -2.58528e-18)
(0.863048 0.0707573 8.43632e-20)
(0.440365 0.030155 -3.63945e-18)
(0.191682 0.0076419 -4.12717e-18)
(0.0538929 0.00919383 -1.83173e-22)
(0.0080954 0.00653627 -4.59566e-18)
(-0.0240109 0.00875894 -4.63637e-18)
(-0.0339085 0.00793309 0)
(-0.0435889 0.00840392 -4.55118e-18)
(-0.0464421 0.0079758 0)
(-0.0498299 0.0079395 -2.20927e-18)
(-0.0510678 0.0077274 -2.17287e-18)
(-0.0528692 0.0077037 2.13738e-18)
(-0.0542373 0.00771369 -2.10088e-18)
(-0.0562209 0.00783383 2.06546e-18)
(-0.0584187 0.00799889 -2.03015e-18)
(-0.0611806 0.0081995 1.99592e-18)
(-0.0642943 0.00839898 0)
(-0.0678248 0.0085717 0)
(-0.0716241 0.00869088 0)
(-0.0756441 0.00873081 9.34894e-19)
(-0.079755 0.00866769 9.20926e-19)
(-0.0838568 0.00847769 0)
(-0.0878165 0.00814168 -8.95543e-19)
(-0.0915092 0.0076439 0)
(-0.0948 0.00697723 0)
(-0.0975642 0.00614166 4.32423e-19)
(-0.0996792 0.00514101 -4.28354e-19)
(-0.101025 0.0039813 2.12455e-19)
(-0.10148 0.00267414 0)
(-0.100928 0.00123679 1.0492e-19)
(-0.0992535 -0.000307245 -1.04481e-19)
(-0.0963454 -0.0019285 0)
(-0.092095 -0.00359197 -2.07737e-19)
(-0.0863967 -0.0052567 4.15002e-19)
(-0.079154 -0.00687492 -4.15203e-19)
(-0.0702786 -0.00839363 0)
(-0.0596986 -0.00975329 0)
(-0.0473491 -0.0108907 0)
(-0.0332008 -0.0117343 -8.38184e-19)
(-0.0172224 -0.0122052 0)
(0.000529133 -0.0122093 0)
(0.0200404 -0.0116323 -1.68276e-18)
(0.0411412 -0.0103789 0)
(0.0640327 -0.00844432 1.69003e-18)
(0.0888782 -0.00592419 -1.72023e-18)
(0.115956 -0.00277471 0)
(0.14469 0.0011164 1.79711e-18)
(0.175924 0.00582584 3.6783e-18)
(0.208289 0.0113901 -1.87459e-18)
(0.243987 0.0178625 0)
(0.27955 0.0252632 0)
(0.320809 0.0336466 1.97074e-18)
(0.358664 0.0430129 0)
(0.408589 0.0535404 3.93224e-18)
(0.446379 0.0649797 0)
(0.512976 0.0782988 3.75624e-18)
(0.544383 0.0915688 3.09753e-18)
(0.647965 0.109466 -3.30393e-18)
(0.658835 0.122359 0)
(0.854881 0.14271 2.39722e-18)
(0.887776 0.0828591 -3.37285e-18)
(0.502048 0.0364608 2.00252e-20)
(0.239785 0.0112224 4.07282e-18)
(0.0826691 0.0104481 -1.62698e-22)
(0.0228803 0.00710494 -6.62192e-22)
(-0.0158991 0.00909832 0)
(-0.0298132 0.00818754 0)
(-0.0419898 0.00871859 0)
(-0.0463761 0.00828953 -2.24058e-18)
(-0.0508038 0.00829489 4.41552e-18)
(-0.0527167 0.0081055 0)
(-0.0549798 0.00811938 2.13409e-18)
(-0.0566553 0.00816675 6.45073e-23)
(-0.0588433 0.00832958 -2.05855e-18)
(-0.0611692 0.0085352 5.9073e-23)
(-0.0639953 0.00877178 -1.9837e-18)
(-0.0671151 0.00899855 0)
(-0.070592 0.00918763 0)
(-0.0742771 0.00931049 0)
(-0.07812 0.00934054 -9.22047e-19)
(-0.0819914 0.0092534 0)
(-0.0857931 0.00902508 8.91476e-19)
(-0.0893963 0.00863672 8.77612e-19)
(-0.0926822 0.00807325 -8.64786e-19)
(-0.0955232 0.00732883 0)
(-0.0978022 0.00640509 0)
(-0.0994045 0.00530708 4.16574e-19)
(-0.100218 0.00404165 0)
(-0.100128 0.00262128 2.04491e-19)
(-0.0990256 0.00106406 -5.07732e-20)
(-0.096801 -0.000605601 5.04796e-20)
(-0.0933481 -0.00235752 -2.00872e-19)
(-0.0885608 -0.004156 0)
(-0.082337 -0.00595884 -3.99636e-19)
(-0.0745833 -0.00771677 0)
(-0.0652136 -0.00937498 0)
(-0.0541571 -0.0108719 8.00347e-19)
(-0.041349 -0.0121417 0)
(-0.0267588 -0.0131097 0)
(-0.0103518 -0.0136924 0)
(0.00782446 -0.0137912 0)
(0.0277756 -0.0132864 0)
(0.0493757 -0.0120876 0)
(0.0728436 -0.010205 -3.2482e-18)
(0.0983048 -0.00773031 1.64818e-18)
(0.126003 -0.00459576 1.67684e-18)
(0.155407 -0.00069483 -3.4166e-18)
(0.187313 0.00405673 -1.74158e-18)
(0.220456 0.00968834 1.76972e-18)
(0.256919 0.0162658 -1.79642e-18)
(0.29348 0.0238004 0)
(0.335654 0.0323554 3.34326e-21)
(0.374933 0.0419423 -3.63222e-18)
(0.425961 0.0526963 -3.6574e-18)
(0.465973 0.0645035 -3.45908e-18)
(0.533782 0.0780251 -6.95778e-18)
(0.568894 0.0919672 -2.87526e-18)
(0.673332 0.109702 3.03675e-18)
(0.69034 0.123663 1.19802e-18)
(0.885217 0.142141 -2.23084e-18)
(0.907674 0.0939165 -7.31295e-20)
(0.55881 0.0432675 3.4999e-18)
(0.290333 0.0154125 2.24712e-21)
(0.115929 0.0121331 -2.02818e-22)
(0.0411126 0.00790677 4.55488e-18)
(-0.00519478 0.00947264 4.6159e-18)
(-0.0237732 0.00842877 -4.58441e-18)
(-0.0388138 0.00898388 2.2718e-18)
(-0.04501 0.00853976 4.44326e-23)
(-0.0506599 0.00858034 -2.20573e-18)
(-0.0533724 0.00840917 -2.16793e-18)
(-0.0561719 0.00845776 -2.13016e-18)
(-0.0581912 0.00853915 4.18059e-18)
(-0.0605872 0.00874118 5.53639e-23)
(-0.0630201 0.00898316 2.00978e-18)
(-0.0658699 0.00925107 0)
(-0.0689423 0.00950011 1.92963e-18)
(-0.0723045 0.00970073 0)
(-0.0758128 0.00982304 -1.85305e-18)
(-0.0794188 0.0098401 -9.08444e-19)
(-0.0829981 0.00972723 -8.91229e-19)
(-0.0864572 0.00946061 -3.26976e-23)
(-0.0896742 0.00902168 -8.59862e-19)
(-0.0925371 0.00839599 8.45837e-19)
(-0.0949256 0.00757877 0)
(-0.0967299 0.00657297 -4.10695e-19)
(-0.0978418 0.00538454 0)
(-0.098155 0.00402092 0)
(-0.0975621 0.00249508 -1.98626e-19)
(-0.0959572 0.000825819 0)
(-0.0932366 -0.000961916 0)
(-0.0892959 -0.00283748 1.94494e-19)
(-0.0840316 -0.00476445 0)
(-0.0773447 -0.00669947 0)
(-0.0691444 -0.00859186 3.8577e-19)
(-0.059346 -0.0103851 0)
(-0.0478797 -0.0120158 -7.72832e-19)
(-0.0346809 -0.0134153 0)
(-0.0197178 -0.0145065 7.76454e-19)
(-0.00295226 -0.0152014 0)
(0.0155776 -0.0153981 0)
(0.0358944 -0.014973 0)
(0.0579086 -0.0138409 0)
(0.0818443 -0.0120238 1.56892e-18)
(0.107782 -0.0096089 0)
(0.135942 -0.00650788 -3.22027e-18)
(0.165837 -0.00262097 1.6347e-18)
(0.198217 0.00214333 -1.65809e-18)
(0.231909 0.00780493 1.67848e-18)
(0.268887 0.0144435 1.70183e-18)
(0.306147 0.0220536 0)
(0.34892 0.030718 1.72359e-18)
(0.389218 0.0404331 5.10509e-18)
(0.440947 0.051333 -3.4018e-18)
(0.482611 0.0633552 3.2242e-18)
(0.551139 0.0769942 3.2288e-18)
(0.589129 0.0913441 0)
(0.693874 0.108882 -2.8144e-18)
(0.715849 0.123477 -2.2046e-18)
(0.908778 0.140336 0)
(0.92368 0.103942 3.60001e-18)
(0.610452 0.0503841 0)
(0.342088 0.0201718 2.03051e-21)
(0.153242 0.0143053 -2.83246e-22)
(0.0629371 0.00900292 -4.52833e-18)
(0.00822378 0.00994079 -9.20238e-18)
(-0.0157019 0.00869763 9.15571e-18)
(-0.033988 0.00922724 -2.26917e-18)
(-0.0422877 0.00874759 2.23651e-18)
(-0.0493576 0.00881185 0)
(-0.0530059 0.00865042 4.38706e-23)
(-0.0564282 0.00872784 0)
(-0.0588378 0.0088374 -4.1672e-18)
(-0.0614575 0.00907345 2.04111e-18)
(-0.0639897 0.00934657 0)
(-0.0668397 0.00964103 0)
(-0.0698321 0.0099079 -1.91129e-18)
(-0.0730435 0.0101164 0)
(-0.0763393 0.0102355 1.8288e-18)
(-0.079677 0.010238 8.94979e-19)
(-0.0829394 0.0100992 2.93277e-23)
(-0.0860393 0.00979553 -8.59193e-19)
(-0.0888622 0.00930856 -8.42988e-19)
(-0.0913031 0.00862437 0)
(-0.0932489 0.00773903 0)
(-0.0945957 0.00665658 4.01124e-19)
(-0.0952412 0.00538365 0)
(-0.0950838 0.00392803 1.95443e-19)
(-0.0940208 0.0023031 -1.93411e-19)
(-0.0919507 0.000528152 4.7931e-20)
(-0.0887731 -0.00137152 -4.75428e-20)
(-0.0843851 -0.00336492 1.88929e-19)
(-0.0786861 -0.00541487 -1.88025e-19)
(-0.0715798 -0.00747688 3.74872e-19)
(-0.0629775 -0.00949897 -3.74361e-19)
(-0.0527961 -0.011423 0)
(-0.0409669 -0.0131838 0)
(-0.0274253 -0.0147102 0)
(-0.0121383 -0.0159228 -2.11669e-22)
(0.00493469 -0.0167296 7.54818e-19)
(0.0237656 -0.017026 0)
(0.0443907 -0.0166861 0)
(0.0667503 -0.0156299 0)
(0.091065 -0.0138874 0)
(0.117372 -0.0115413 0)
(0.145873 -0.00848617 1.07832e-21)
(0.176122 -0.00462957 0)
(0.208827 0.000127103 3.18245e-18)
(0.242898 0.00579261 -3.21106e-18)
(0.280211 0.0124615 -1.61902e-18)
(0.317952 0.020106 0)
(0.361098 0.028836 0)
(0.402117 0.0386135 -3.20471e-18)
(0.454264 0.0496027 7.73224e-21)
(0.49715 0.0617279 -3.00371e-18)
(0.566055 0.0754267 2.99542e-18)
(0.606268 0.0899816 2.44886e-18)
(0.710948 0.107313 -2.58587e-18)
(0.736877 0.122191 2.01233e-18)
(0.927432 0.137702 1.86824e-18)
(0.936534 0.112982 6.54435e-20)
(0.656987 0.0576367 -3.35821e-18)
(0.39394 0.0254333 -7.7991e-18)
(0.19403 0.0169972 -3.94172e-22)
(0.0884205 0.0104472 4.49583e-18)
(0.0244953 0.0105605 4.58122e-18)
(-0.00550745 0.00903851 -2.28355e-18)
(-0.0274291 0.00947671 0)
(-0.0381456 0.00893518 0)
(-0.0468499 0.00900621 2.20029e-18)
(-0.0515842 0.00884228 2.16109e-18)
(-0.0557299 0.00893981 0)
(-0.05859 0.00906948 2.07645e-18)
(-0.0614636 0.00933302 0)
(-0.0641031 0.00963146 0)
(-0.0669479 0.00994774 0)
(-0.0698469 0.0102286 0)
(-0.0728913 0.0104422 1.84836e-18)
(-0.075959 0.0105562 9.02666e-19)
(-0.0790159 0.0105437 -8.82141e-19)
(-0.0819533 0.0103795 2.85048e-23)
(-0.0846912 0.0100402 0)
(-0.0871227 0.00950772 8.27616e-19)
(-0.0891498 0.00876843 0)
(-0.0906658 0.00781905 0)
(-0.0915724 0.00666453 3.92557e-19)
(-0.091772 0.00531202 -3.86913e-19)
(-0.0911675 0.00376955 -1.91013e-19)
(-0.0896604 0.00205081 1.88915e-19)
(-0.0871524 0.000175477 -9.35675e-20)
(-0.0835461 -0.00183098 9.2745e-20)
(-0.0787399 -0.00393726 -1.84213e-19)
(-0.0726364 -0.00610532 1.83265e-19)
(-0.0651419 -0.00828963 -6.62131e-23)
(-0.0561697 -0.010437 -3.64548e-19)
(-0.0456384 -0.0124877 0)
(-0.0334804 -0.014375 0)
(-0.0196312 -0.0160253 0)
(-0.00405735 -0.0173569 -1.46642e-18)
(0.0132846 -0.0182747 -7.34961e-19)
(0.0323756 -0.0186718 0)
(0.0532627 -0.0184211 0)
(0.0759101 -0.0174473 -1.47656e-18)
(0.10053 -0.0157855 0)
(0.127119 -0.0135134 0)
(0.155867 -0.0105125 3.01503e-18)
(0.186363 -0.00669734 -1.52061e-18)
(0.219279 -0.00196262 -3.07013e-18)
(0.2536 0.00368831 1.66102e-21)
(0.291111 0.0103654 3.10645e-18)
(0.329169 0.0180148 1.54889e-18)
(0.372522 0.0267789 0)
(0.41404 0.0365711 1.52126e-18)
(0.466403 0.0476094 3.0226e-18)
(0.510187 0.0597558 2.83361e-18)
(0.579231 0.0734752 -2.81524e-18)
(0.62116 0.0880826 -2.29264e-18)
(0.725531 0.105212 2.41233e-18)
(0.754597 0.120105 -9.27965e-19)
(0.942573 0.134524 -1.73187e-18)
(0.946832 0.1211 6.24647e-20)
(0.698572 0.0648751 3.31893e-18)
(0.444937 0.0311105 -1.57057e-21)
(0.237606 0.0202169 -5.30829e-22)
(0.117525 0.0122844 0)
(0.0437376 0.0113906 0)
(0.00693169 0.00949416 1.72176e-22)
(-0.0190422 0.00976138 0)
(-0.0325117 0.00912583 0)
(-0.0430814 0.00918108 -7.35771e-24)
(-0.0490688 0.0089988 0)
(-0.0540551 0.00910504 0)
(-0.0574413 0.00924476 2.06925e-18)
(-0.060615 0.00952803 0)
(-0.0633859 0.00984533 0)
(-0.0662358 0.0101787 0)
(-0.0690436 0.0104699 0)
(-0.0719198 0.0106863 -3.6881e-23)
(-0.0747575 0.0107939 -8.9184e-19)
(-0.0775329 0.0107658 1.74081e-18)
(-0.0801467 0.0105767 2.7069e-23)
(-0.0825268 0.0102033 8.31295e-19)
(-0.0845741 0.00962751 0)
(-0.0861976 0.00883601 7.97752e-19)
(-0.0872965 0.00782601 0)
(-0.087778 0.00660325 -3.85099e-19)
(-0.0875488 0.00517528 3.17683e-23)
(-0.0865157 0.0035503 0)
(-0.0845839 0.00174222 0)
(-0.0816586 -0.000228989 5.4972e-24)
(-0.0776441 -0.00233781 -6.03013e-24)
(-0.0724412 -0.00455254 9.00634e-20)
(-0.0659555 -0.00683431 0)
(-0.0580957 -0.0091366 -3.57051e-19)
(-0.0487775 -0.011405 3.56356e-19)
(-0.037921 -0.0135785 0)
(-0.0254599 -0.0155886 -7.13008e-19)
(-0.0113304 -0.0173596 0)
(0.00450176 -0.0188078 1.72282e-22)
(0.0220823 -0.019835 0)
(0.0414 -0.0203331 7.19116e-19)
(0.0625103 -0.0201743 7.20505e-19)
(0.0853963 -0.0192875 5.32505e-22)
(0.110258 -0.01771 -1.44865e-18)
(0.137058 -0.0155148 0)
(0.165977 -0.0125732 -9.03033e-22)
(0.196635 -0.0088071 1.4791e-18)
(0.229673 -0.00410448 1.29146e-21)
(0.264141 0.00151856 1.49408e-18)
(0.301744 0.00818766 -1.80476e-21)
(0.33999 0.0158204 -2.11814e-21)
(0.383425 0.0245953 0)
(0.425271 0.0343671 0)
(0.477702 0.0454248 0)
(0.522139 0.0575321 0)
(0.591153 0.0712446 0)
(0.634408 0.0857906 2.13782e-18)
(0.738308 0.102729 0)
(0.76987 0.117435 0)
(0.955194 0.130993 -1.59234e-18)
(0.95506 0.128368 -1.93198e-18)
(0.735456 0.0719761 0)
(0.494299 0.0371035 -1.37807e-21)
(0.283213 0.0239493 -6.87518e-22)
(0.15009 0.0145482 0)
(0.0660377 0.0124887 2.26522e-18)
(0.0217527 0.0101064 -2.26877e-18)
(-0.00872104 0.0101115 0)
(-0.0253047 0.00934413 0)
(-0.0379872 0.009355 -2.19414e-18)
(-0.045413 0.00913505 0)
(-0.0513746 0.00923588 0)
(-0.0553797 0.00937364 -2.06255e-18)
(-0.0589159 0.00966759 0)
(-0.0618572 0.00999652 -1.96147e-18)
(-0.0647365 0.0103418 0)
(-0.0674679 0.0106396 0)
(-0.0701856 0.0108563 -2.96344e-23)
(-0.0728003 0.0109561 0)
(-0.0753007 0.0109121 -8.59916e-19)
(-0.0775976 0.0106983 8.39069e-19)
(-0.0796279 0.0102919 -1.63927e-18)
(-0.0813002 0.00967454 8.01674e-19)
(-0.0825305 0.00883319 -7.85302e-19)
(-0.0832241 0.00776543 0)
(-0.0832933 0.00647764 -3.78565e-19)
(-0.0826492 0.00497768 7.45443e-19)
(-0.081202 0.00327387 0)
(-0.0788607 0.00138032 -9.08227e-20)
(-0.0755335 -0.00068286 4.4929e-20)
(-0.0711264 -0.00289012 -4.45039e-20)
(-0.0655431 -0.00520931 -8.83397e-20)
(-0.0586921 -0.00760074 0)
(-0.0504846 -0.0100169 -3.49991e-19)
(-0.0408387 -0.0124025 3.49272e-19)
(-0.0296762 -0.0146948 0)
(-0.0169323 -0.016824 6.99074e-19)
(-0.00254396 -0.0187124 0)
(0.0135235 -0.0202743 7.01879e-19)
(0.0313177 -0.0214092 0)
(0.0508342 -0.0220078 -7.05011e-19)
(0.0721344 -0.0219424 -7.06636e-19)
(0.0952161 -0.0211456 4.93946e-22)
(0.120266 -0.0196543 1.42093e-18)
(0.147219 -0.0175372 0)
(0.176245 -0.0146579 -1.43626e-18)
(0.206996 -0.0109459 0)
(0.240082 -0.00628259 1.45013e-18)
(0.274614 -0.00069708 0)
(0.312224 0.00595196 -1.45245e-18)
(0.350555 0.0135519 -2.8803e-18)
(0.393973 0.0223199 0)
(0.436014 0.0320451 0)
(0.488398 0.0430997 0)
(0.533296 0.0551225 1.27434e-18)
(0.602157 0.0688081 0)
(0.646437 0.0832072 -9.88895e-21)
(0.749759 0.0999687 0)
(0.783317 0.11434 7.77251e-19)
(0.96599 0.127234 1.49254e-18)
(0.961618 0.134864 0)
(0.767948 0.078843 3.23031e-18)
(0.541417 0.0433075 3.74887e-18)
(0.330071 0.0281575 -8.55654e-22)
(0.185832 0.0172592 0)
(0.0914386 0.0139063 -2.24988e-18)
(0.0390928 0.0109171 0)
(0.00364861 0.0105597 2.25199e-18)
(-0.0164345 0.00961604 2.2248e-18)
(-0.0314906 0.00954734 2.19114e-18)
(-0.0405595 0.00926706 2.15032e-18)
(-0.0476491 0.00934557 2.10594e-18)
(-0.0523837 0.00946733 0)
(-0.056361 0.00976141 0)
(-0.0595258 0.0100937 1.95156e-18)
(-0.0624709 0.010445 0)
(-0.0651508 0.0107453 0)
(-0.0677279 0.0109595 -1.79539e-18)
(-0.0701334 0.0110498 0)
(-0.0723702 0.0109889 -8.50715e-19)
(-0.0743606 0.0107505 0)
(-0.076051 0.0103116 8.09473e-19)
(-0.0773584 0.00965411 -7.91166e-19)
(-0.078206 0.0087648 0)
(-0.0785053 0.00764162 0)
(-0.0781736 0.0062915 2.5097e-23)
(-0.0771261 0.00472251 -3.67058e-19)
(-0.0752769 0.00294306 0)
(-0.0725382 0.000967399 8.93959e-20)
(-0.0688212 -0.0011843 4.4186e-20)
(-0.0640337 -0.00348647 -4.37579e-20)
(-0.0580828 -0.00590644 0)