/*--------------------------------*- C++ -*----------------------------------*\
| =========                 |                                                 |
| \\      /  F ield         | OpenFOAM: The Open Source CFD Toolbox           |
|  \\    /   O peration     | Version:  2.4.0                                 |
|   \\  /    A nd           | Web:      www.OpenFOAM.org                      |
|    \\/     M anipulation  |                                                 |
\*---------------------------------------------------------------------------*/
FoamFile
{
    version     2.0;
    format      ascii;
    class       volVectorField;
    location    "14";
    object      U;
}
// * * * * * * * * * * * * * * * * * * * * * * * * * * * * * * * * * * * * * //

dimensions      [0 1 -1 0 0 0 0];

internalField   nonuniform List<vector> 
400
(
(0.00141882 -0.00334177 0)
(-0.0024582 0.00277712 0)
(-0.0146252 0.00892225 0)
(-0.0417189 0.0146423 0)
(-0.0737994 0.0159104 0)
(-0.103363 0.0145655 0)
(-0.129046 0.0125945 0)
(-0.149484 0.0101724 0)
(-0.165242 0.00789123 0)
(-0.176448 0.00526607 0)
(-0.183015 0.00299972 0)
(-0.185591 0.000726279 0)
(-0.183886 -0.00300402 0)
(-0.175628 -0.00553511 0)
(-0.162065 -0.00970801 0)
(-0.140873 -0.0136318 0)
(-0.113744 -0.0182146 0)
(-0.0810096 -0.0202264 0)
(-0.0471524 -0.0176335 0)
(-0.0142245 -0.00888488 0)
(-0.00498735 0.0050422 0)
(-0.0201573 0.0201313 0)
(-0.0461982 0.0349412 0)
(-0.0777569 0.041939 0)
(-0.107339 0.0419852 0)
(-0.132539 0.0383794 0)
(-0.152459 0.0326889 0)
(-0.167203 0.0264396 0)
(-0.179627 0.018318 0)
(-0.187055 0.0120102 0)
(-0.191499 0.00502977 0)
(-0.19124 -0.00115102 0)
(-0.187555 -0.00851478 0)
(-0.179227 -0.0163886 0)
(-0.166158 -0.0263965 0)
(-0.146917 -0.0375373 0)
(-0.121802 -0.0501026 0)
(-0.090876 -0.0598212 0)
(-0.0571296 -0.0589874 0)
(-0.0166938 -0.0425643 0)
(-0.0109083 0.0254842 0)
(-0.0342886 0.0462911 0)
(-0.0639415 0.0617228 0)
(-0.0929745 0.067093 0)
(-0.117178 0.0641249 0)
(-0.135632 0.0563592 0)
(-0.148524 0.0458991 0)
(-0.159034 0.0343089 0)
(-0.165007 0.0244704 0)
(-0.167028 0.0142706 0)
(-0.167496 0.004743 0)
(-0.165673 -0.00499247 0)
(-0.162322 -0.0149146 0)
(-0.155191 -0.0262488 0)
(-0.14534 -0.0397093 0)
(-0.130727 -0.0565182 0)
(-0.111224 -0.0760992 0)
(-0.0857493 -0.0951948 0)
(-0.0577505 -0.101817 0)
(-0.0169625 -0.0871972 0)
(-0.0139786 0.0501228 0)
(-0.0403787 0.0732233 0)
(-0.068693 0.0866326 0)
(-0.0930366 0.0883464 0)
(-0.110723 0.0814841 0)
(-0.121961 0.0693095 0)
(-0.128802 0.0552487 0)
(-0.132076 0.041577 0)
(-0.132626 0.0287213 0)
(-0.133991 0.0164931 0)
(-0.133041 0.00534606 0)
(-0.131681 -0.00584629 0)
(-0.128033 -0.0172456 0)
(-0.12318 -0.0302735 0)
(-0.115883 -0.0457713 0)
(-0.106339 -0.0655897 0)
(-0.0925269 -0.0904106 0)
(-0.0723448 -0.118233 0)
(-0.0522758 -0.13435 0)
(-0.015091 -0.126536 0)
(-0.0139441 0.0742075 0)
(-0.0383897 0.0970148 0)
(-0.063062 0.107406 0)
(-0.0819499 0.105577 0)
(-0.0932545 0.0943967 0)
(-0.0984402 0.0782971 0)
(-0.100786 0.0613707 0)
(-0.102095 0.0452862 0)
(-0.103147 0.0307598 0)
(-0.10361 0.0172968 0)
(-0.102834 0.00471772 0)
(-0.101183 -0.00771862 0)
(-0.0980456 -0.0204282 0)
(-0.0937659 -0.0344153 0)
(-0.0882764 -0.0506623 0)
(-0.0813919 -0.071225 0)
(-0.0728748 -0.0985523 0)
(-0.0564594 -0.13404 0)
(-0.0439544 -0.159662 0)
(-0.0118808 -0.159655 0)
(-0.0114537 0.0966348 0)
(-0.0324016 0.1192 0)
(-0.0524809 0.125815 0)
(-0.0663191 0.119311 0)
(-0.0728356 0.103221 0)
(-0.0748602 0.0834429 0)
(-0.0763511 0.0641861 0)
(-0.0780972 0.0467419 0)
(-0.0795278 0.0311547 0)
(-0.0801795 0.0166437 0)
(-0.0798502 0.00285897 0)
(-0.0783616 -0.0109701 0)
(-0.0755886 -0.0251776 0)
(-0.0715142 -0.0404317 0)
(-0.06643 -0.0572803 0)
(-0.0603264 -0.0773786 0)
(-0.0554112 -0.103669 0)
(-0.0416647 -0.143885 0)
(-0.0353801 -0.17789 0)
(-0.00868113 -0.185909 0)
(-0.00892033 0.115482 0)
(-0.0244951 0.13596 0)
(-0.0397079 0.138812 0)
(-0.0494743 0.128352 0)
(-0.053039 0.108542 0)
(-0.0541183 0.0863123 0)
(-0.0560971 0.0659248 0)
(-0.0581904 0.0479279 0)
(-0.0597183 0.031863 0)
(-0.0604955 0.0167876 0)
(-0.0603794 0.00217226 0)
(-0.0593065 -0.0127184 0)
(-0.057109 -0.0282739 0)
(-0.0537797 -0.0451161 0)
(-0.0496389 -0.0634821 0)
(-0.0434793 -0.0844293 0)
(-0.0414247 -0.109111 0)
(-0.0293822 -0.149093 0)
(-0.0305732 -0.192586 0)
(-0.00224625 -0.2079 0)
(-0.005365 0.129413 0)
(-0.0163018 0.149567 0)
(-0.027281 0.149903 0)
(-0.0338467 0.135992 0)
(-0.0356788 0.112977 0)
(-0.0365009 0.0888957 0)
(-0.0385876 0.0676025 0)
(-0.0404474 0.0492638 0)
(-0.0417635 0.0328273 0)
(-0.0424105 0.0172371 0)
(-0.0423774 0.00195158 0)
(-0.0416589 -0.0136164 0)
(-0.0401627 -0.0299412 0)
(-0.0376587 -0.0477598 0)
(-0.035304 -0.0671921 0)
(-0.0294797 -0.0893476 0)
(-0.0298773 -0.113524 0)
(-0.0182142 -0.151648 0)
(-0.0252306 -0.201324 0)
(0.000682887 -0.224735 0)
(-0.00310899 0.138669 0)
(-0.00830905 0.157012 0)
(-0.0152418 0.155589 0)
(-0.0191276 0.139646 0)
(-0.0198161 0.114993 0)
(-0.0204306 0.0900357 0)
(-0.0223889 0.0686669 0)
(-0.0239391 0.050336 0)
(-0.0250144 0.0335968 0)
(-0.0255345 0.0175265 0)
(-0.0256462 0.00169253 0)
(-0.0253233 -0.0144312 0)
(-0.0246978 -0.0312851 0)
(-0.0228098 -0.0497907 0)
(-0.0224535 -0.069941 0)
(-0.0173527 -0.0930557 0)
(-0.0205147 -0.116976 0)
(-0.00953955 -0.153711 0)
(-0.0220509 -0.206413 0)
(0.00500282 -0.238034 0)
(0.000947868 0.141686 0)
(-0.00116843 0.16227 0)
(-0.00423913 0.160274 0)
(-0.0057869 0.143315 0)
(-0.00568408 0.117607 0)
(-0.00596951 0.0921191 0)
(-0.00740824 0.0703103 0)
(-0.00839596 0.0515226 0)
(-0.0090552 0.0343453 0)
(-0.00941683 0.0179531 0)
(-0.00970928 0.00189252 0)
(-0.00969286 -0.0144991 0)
(-0.0101215 -0.0315529 0)
(-0.00869151 -0.0503412 0)
(-0.0103187 -0.0707521 0)
(-0.00612127 -0.0944758 0)
(-0.011794 -0.118076 0)
(-0.0014575 -0.153199 0)
(-0.018958 -0.207894 0)
(0.00754367 -0.247349 0)
(0.00327438 0.139565 0)
(0.00577852 0.16139 0)
(0.00659551 0.159443 0)
(0.00732318 0.142735 0)
(0.00831329 0.117381 0)
(0.00864281 0.0919451 0)
(0.00780658 0.0702461 0)
(0.00723944 0.0515993 0)
(0.00679241 0.0345777 0)
(0.00640923 0.0183047 0)
(0.00577114 0.00232788 0)
(0.00565194 -0.0141269 0)
(0.00402018 -0.0312558 0)
(0.00499623 -0.0502187 0)
(0.00153988 -0.0706481 0)
(0.00450673 -0.0946596 0)
(-0.00346497 -0.117808 0)
(0.00534905 -0.151374 0)
(-0.0167479 -0.207236 0)
(0.0112378 -0.253722 0)
(0.00568645 0.133864 0)
(0.01215 0.158675 0)
(0.0165482 0.158036 0)
(0.0195861 0.144001 0)
(0.0216999 0.118531 0)
(0.0227989 0.0933991 0)
(0.0226879 0.0714431 0)
(0.022559 0.0524814 0)
(0.0223857 0.0353246 0)
(0.0222031 0.0190061 0)
(0.0211983 0.00313439 0)
(0.0211672 -0.0131443 0)
(0.0182688 -0.0299449 0)
(0.0187708 -0.0487604 0)
(0.0136249 -0.0687832 0)
(0.0154044 -0.092591 0)
(0.00570804 -0.114826 0)
(0.0124389 -0.14688 0)
(-0.0144432 -0.204007 0)
(0.0145746 -0.25705 0)
(0.0083856 0.121932 0)
(0.0184758 0.149309 0)
(0.0270346 0.150009 0)
(0.0319192 0.139674 0)
(0.0360018 0.116216 0)
(0.0382744 0.0916294 0)
(0.0390647 0.0700046 0)
(0.039406 0.0513872 0)
(0.0393263 0.0348257 0)
(0.0394065 0.019173 0)
(0.0376084 0.00403582 0)
(0.0375339 -0.0116032 0)
(0.0332443 -0.0276416 0)
(0.0332439 -0.0460459 0)
(0.0262755 -0.0652871 0)
(0.0268095 -0.0888225 0)
(0.0150883 -0.109635 0)
(0.018852 -0.140976 0)
(-0.011664 -0.199281 0)
(0.0192111 -0.258729 0)
(0.0102986 0.107705 0)
(0.0236521 0.139506 0)
(0.0356391 0.143727 0)
(0.0435216 0.135792 0)
(0.0496483 0.116001 0)
(0.0536586 0.0924427 0)
(0.0557428 0.0708784 0)
(0.0569226 0.0520651 0)
(0.0568586 0.0356577 0)
(0.0575891 0.0204204 0)
(0.0550649 0.00598536 0)
(0.0551359 -0.00902531 0)
(0.049774 -0.0242117 0)
(0.049215 -0.0417706 0)
(0.0404916 -0.0597583 0)
(0.0395574 -0.081836 0)
(0.0255587 -0.10112 0)
(0.0258476 -0.132723 0)
(-0.0090901 -0.193414 0)
(0.0236321 -0.259268 0)
(0.0123179 0.0869749 0)
(0.0283205 0.121251 0)
(0.0436392 0.129056 0)
(0.0549317 0.124691 0)
(0.0640738 0.108936 0)
(0.0706974 0.0883512 0)
(0.0747342 0.068268 0)
(0.0776952 0.0502705 0)
(0.0776707 0.0346355 0)
(0.0792235 0.020249 0)
(0.0760323 0.00711955 0)
(0.0760017 -0.00661529 0)
(0.0693591 -0.0201083 0)
(0.0677341 -0.0359553 0)
(0.0568278 -0.0518476 0)
(0.0538542 -0.0722461 0)
(0.0362663 -0.0900463 0)
(0.0322855 -0.122529 0)
(-0.00723032 -0.18616 0)
(0.0289002 -0.258818 0)
(0.0117267 0.0686111 0)
(0.0295016 0.105652 0)
(0.0475381 0.116715 0)
(0.0625632 0.11519 0)
(0.0753372 0.103451 0)
(0.0857527 0.0860052 0)
(0.0924702 0.0680208 0)
(0.0985945 0.0510453 0)
(0.0995658 0.0363863 0)
(0.102482 0.0227079 0)
(0.099175 0.0107531 0)
(0.0991445 -0.00179709 0)
(0.0914567 -0.0135835 0)
(0.088682 -0.0275978 0)
(0.0757001 -0.0412792 0)
(0.0699485 -0.0592252 0)
(0.0476852 -0.0751724 0)
(0.0389136 -0.109028 0)
(-0.00574722 -0.176355 0)
(0.0346694 -0.254144 0)
(0.0107422 0.0438627 0)
(0.0286203 0.0789436 0)
(0.049067 0.0921296 0)
(0.0679623 0.0936401 0)
(0.084943 0.0865992 0)
(0.100293 0.0741791 0)
(0.110202 0.0602774 0)
(0.120243 0.046265 0)
(0.123185 0.0337583 0)
(0.12809 0.0216643 0)
(0.12534 0.0114199 0)
(0.125594 0.000607893 0)
(0.117084 -0.00876046 0)
(0.112811 -0.019967 0)
(0.0973347 -0.0298347 0)
(0.0875123 -0.0440312 0)
(0.0598913 -0.0577862 0)
(0.0470117 -0.092169 0)
(-0.00141709 -0.159927 0)
(0.0441395 -0.238674 0)
(-0.00211688 0.0403694 0)
(0.0160747 0.0654802 0)
(0.0394493 0.0753745 0)
(0.0629526 0.0765568 0)
(0.0839241 0.0718365 0)
(0.105513 0.0626059 0)
(0.119569 0.0527593 0)
(0.134157 0.041992 0)
(0.139746 0.0336448 0)
(0.146788 0.0240398 0)
(0.145542 0.016923 0)
(0.146271 0.00802806 0)
(0.1386 0.00191507 0)
(0.133365 -0.00707412 0)
(0.117553 -0.0130638 0)
(0.106447 -0.0247025 0)
(0.0780776 -0.0363685 0)
(0.0663297 -0.0689347 0)
(0.0167916 -0.130418 0)
(0.0626404 -0.204245 0)
(-0.00576995 0.00887302 0)
(-0.00338784 0.0177481 0)
(0.025134 0.027275 0)
(0.0567586 0.0320863 0)
(0.0823397 0.0333863 0)
(0.10843 0.0302227 0)
(0.12663 0.0269066 0)
(0.144718 0.0210338 0)
(0.155201 0.0168882 0)
(0.165087 0.0114819 0)
(0.168575 0.00844999 0)
(0.171577 0.00358092 0)
(0.169428 0.001268 0)
(0.166421 -0.00380406 0)
(0.157133 -0.00606349 0)
(0.149509 -0.013399 0)
(0.129755 -0.0196783 0)
(0.118852 -0.0437267 0)
(0.067568 -0.0858235 0)
(0.100434 -0.149335 0)
(0.0492866 0.105465 0)
(0.0538205 0.0655019 0)
(0.0854895 0.0423151 0)
(0.115785 0.0315718 0)
(0.14127 0.0266194 0)
(0.167958 0.0225476 0)
(0.190216 0.020022 0)
(0.211285 0.0169832 0)
(0.227557 0.0152693 0)
(0.241867 0.0128065 0)
(0.251963 0.0118028 0)
(0.260235 0.00962244 0)
(0.265373 0.00911249 0)
(0.268412 0.00665846 0)
(0.267518 0.00562821 0)
(0.26364 0.00344367 0)
(0.253061 0.00167857 0)
(0.236165 -0.00644628 0)
(0.184152 -0.0190953 0)
(0.176703 -0.111932 0)
)
;

boundaryField
{
    movingWall
    {
        type            fixedValue;
        value           uniform (1 0 0);
    }
    fixedWalls
    {
        type            fixedValue;
        value           uniform (0 0 0);
    }
    frontAndBack
    {
        type            empty;
    }
}


// ************************************************************************* //
