/*--------------------------------*- C++ -*----------------------------------*\
| =========                 |                                                 |
| \\      /  F ield         | OpenFOAM: The Open Source CFD Toolbox           |
|  \\    /   O peration     | Version:  2.4.0                                 |
|   \\  /    A nd           | Web:      www.OpenFOAM.org                      |
|    \\/     M anipulation  |                                                 |
\*---------------------------------------------------------------------------*/
FoamFile
{
    version     2.0;
    format      ascii;
    class       surfaceScalarField;
    location    "2.5";
    object      phi;
}
// * * * * * * * * * * * * * * * * * * * * * * * * * * * * * * * * * * * * * //

dimensions      [0 3 -1 0 0 0 0];

internalField   nonuniform List<scalar> 
11100
(
9.89635e-06
3.43698e-06
9.3009e-06
5.95449e-07
7.95732e-06
1.34358e-06
6.7935e-06
1.16382e-06
6.0066e-06
7.86907e-07
5.32153e-06
6.85068e-07
4.6735e-06
6.48028e-07
4.11693e-06
5.56573e-07
3.66534e-06
4.51592e-07
3.30624e-06
3.59099e-07
3.02033e-06
2.85905e-07
2.7911e-06
2.29236e-07
2.60957e-06
1.81529e-07
2.46921e-06
1.40357e-07
2.36389e-06
1.05324e-07
2.28938e-06
7.45079e-08
2.23951e-06
4.98659e-08
2.20639e-06
3.3126e-08
2.18901e-06
1.73724e-08
2.1865e-06
2.51638e-09
2.19698e-06
-1.04784e-08
2.21907e-06
-2.2089e-08
2.25314e-06
-3.40744e-08
2.29711e-06
-4.39719e-08
2.35202e-06
-5.49087e-08
2.41742e-06
-6.53951e-08
2.49222e-06
-7.48052e-08
2.57594e-06
-8.37156e-08
2.66784e-06
-9.1908e-08
2.76764e-06
-9.97935e-08
2.8745e-06
-1.06861e-07
2.98785e-06
-1.13353e-07
3.10676e-06
-1.18909e-07
3.23055e-06
-1.23785e-07
3.35849e-06
-1.27942e-07
3.49049e-06
-1.32005e-07
3.62661e-06
-1.36121e-07
3.76778e-06
-1.4117e-07
3.91426e-06
-1.46473e-07
4.06708e-06
-1.52821e-07
4.22695e-06
-1.59872e-07
4.39418e-06
-1.67225e-07
4.56973e-06
-1.75558e-07
4.75242e-06
-1.82691e-07
4.94432e-06
-1.91896e-07
5.14165e-06
-1.97328e-07
5.34924e-06
-2.07592e-07
5.55853e-06
-2.09294e-07
5.78027e-06
-2.21738e-07
5.99771e-06
-2.17438e-07
6.23172e-06
-2.34011e-07
6.45318e-06
-2.21458e-07
6.69992e-06
-2.46741e-07
6.92059e-06
-2.20671e-07
7.18172e-06
-2.61129e-07
7.39665e-06
-2.14928e-07
7.67261e-06
-2.75959e-07
7.87579e-06
-2.03186e-07
8.16416e-06
-2.88364e-07
8.34356e-06
-1.794e-07
8.64379e-06
-3.00236e-07
8.78817e-06
-1.44378e-07
9.08804e-06
-2.99869e-07
9.18821e-06
-1.00173e-07
9.47997e-06
-2.91751e-07
9.52378e-06
-4.38164e-08
9.8038e-06
-2.80022e-07
9.78572e-06
1.80862e-08
1.00593e-05
-2.73536e-07
9.96922e-06
9.00353e-08
1.02617e-05
-2.92513e-07
1.00838e-05
1.77943e-07
1.05035e-05
-4.19717e-07
1.05084e-05
-4.94333e-09
-1.04418e-06
1.09666e-05
5.80371e-06
1.02478e-05
1.31424e-06
9.42357e-06
2.16781e-06
8.6181e-06
1.96929e-06
7.92475e-06
1.48025e-06
7.25365e-06
1.35617e-06
6.58877e-06
1.31292e-06
5.96656e-06
1.17878e-06
5.40908e-06
1.00907e-06
4.92493e-06
8.43256e-07
4.51644e-06
6.94389e-07
4.17689e-06
5.68792e-07
3.89775e-06
4.60664e-07
3.67174e-06
3.66372e-07
3.49116e-06
2.85901e-07
3.35023e-06
2.15431e-07
3.24335e-06
1.56749e-07
3.16451e-06
1.1197e-07
3.10976e-06
7.21248e-08
3.07562e-06
3.66479e-08
3.05982e-06
5.32718e-09
3.06148e-06
-2.37496e-08
3.07751e-06
-5.01011e-08
3.10758e-06
-7.40507e-08
3.15046e-06
-9.77866e-08
3.2056e-06
-1.20536e-07
3.27197e-06
-1.41172e-07
3.34895e-06
-1.60692e-07
3.43559e-06
-1.78549e-07
3.53154e-06
-1.95747e-07
3.63565e-06
-2.10966e-07
3.74753e-06
-2.25233e-07
3.86573e-06
-2.37109e-07
3.98999e-06
-2.48049e-07
4.11881e-06
-2.56765e-07
4.25258e-06
-2.65772e-07
4.39031e-06
-2.73854e-07
4.53365e-06
-2.84511e-07
4.6818e-06
-2.94616e-07
4.83716e-06
-3.08189e-07
4.9987e-06
-3.21405e-07
5.16942e-06
-3.37947e-07
5.34707e-06
-3.53206e-07
5.53507e-06
-3.70693e-07
5.72962e-06
-3.86444e-07
5.93474e-06
-4.02446e-07
6.14537e-06
-4.18228e-07
6.366e-06
-4.29924e-07
6.59084e-06
-4.46575e-07
6.82457e-06
-4.51169e-07
7.06158e-06
-4.71025e-07
7.30544e-06
-4.65313e-07
7.55379e-06
-4.95092e-07
7.80393e-06
-4.70816e-07
8.06653e-06
-5.23729e-07
8.31871e-06
-4.67107e-07
8.59219e-06
-5.49444e-07
8.84425e-06
-4.55243e-07
9.12645e-06
-5.70562e-07
9.37133e-06
-4.24281e-07
9.65701e-06
-5.85915e-07
9.88563e-06
-3.73e-07
1.01665e-05
-5.80774e-07
1.03644e-05
-2.97988e-07
1.06314e-05
-5.58839e-07
1.07846e-05
-1.96997e-07
1.10341e-05
-5.29549e-07
1.11351e-05
-8.28547e-08
1.13669e-05
-5.05353e-07
1.14054e-05
5.14969e-08
1.16304e-05
-5.17494e-07
1.15897e-05
2.18695e-07
1.19108e-05
-7.40883e-07
1.18375e-05
6.83987e-08
-1.46422e-06
1.15608e-05
7.57626e-06
1.07347e-05
2.1403e-06
1.01429e-05
2.75968e-06
9.58746e-06
2.5247e-06
9.034e-06
2.03372e-06
8.45871e-06
1.93145e-06
7.85639e-06
1.91524e-06
7.25092e-06
1.78426e-06
6.66807e-06
1.59191e-06
6.12881e-06
1.38252e-06
5.64952e-06
1.17368e-06
5.2357e-06
9.82611e-07
4.88649e-06
8.09877e-07
4.59632e-06
6.56534e-07
4.35779e-06
5.2443e-07
4.16507e-06
4.08157e-07
4.0125e-06
3.09315e-07
3.89454e-06
2.29937e-07
3.80625e-06
1.6041e-07
3.7433e-06
9.95938e-08
3.70329e-06
4.5344e-08
3.68323e-06
-3.69581e-09
3.68092e-06
-4.77912e-08
3.6949e-06
-8.80222e-08
3.72363e-06
-1.26519e-07
3.76607e-06
-1.62978e-07
3.82109e-06
-1.96188e-07
3.88794e-06
-2.2755e-07
3.96561e-06
-2.56212e-07
4.0535e-06
-2.83638e-07
4.15044e-06
-3.07912e-07
4.25587e-06
-3.30661e-07
4.3684e-06
-3.49633e-07
4.4875e-06
-3.67153e-07
4.61178e-06
-3.81042e-07
4.74124e-06
-3.95237e-07
4.87501e-06
-4.07619e-07
5.01415e-06
-4.23649e-07
5.15824e-06
-4.38709e-07
5.30926e-06
-4.59212e-07
5.46659e-06
-4.78732e-07
5.6327e-06
-5.04062e-07
5.80587e-06
-5.2637e-07
5.98909e-06
-5.53916e-07
6.17908e-06
-5.76432e-07
6.37952e-06
-6.02891e-07
6.58557e-06
-6.2428e-07
6.80191e-06
-6.46264e-07
7.02208e-06
-6.66736e-07
7.25219e-06
-6.81282e-07
7.48419e-06
-7.03024e-07
7.72552e-06
-7.06641e-07
7.96772e-06
-7.37298e-07
8.2177e-06
-7.20792e-07
8.46993e-06
-7.75956e-07
8.72635e-06
-7.2353e-07
8.98708e-06
-8.10179e-07
9.24755e-06
-7.1571e-07
9.51628e-06
-8.39295e-07
9.77483e-06
-6.82826e-07
1.0046e-05
-8.57098e-07
1.02959e-05
-6.22879e-07
1.05599e-05
-8.44798e-07
1.07881e-05
-5.26203e-07
1.10341e-05
-8.04764e-07
1.12297e-05
-3.92643e-07
1.14504e-05
-7.50285e-07
1.16086e-05
-2.41025e-07
1.18012e-05
-6.97916e-07
1.19144e-05
-6.1703e-08
1.20879e-05
-6.91031e-07
1.21408e-05
1.65762e-07
1.23561e-05
-9.56163e-07
1.23592e-05
6.52693e-08
-1.71783e-06
1.19151e-05
8.9945e-06
1.1105e-05
2.95037e-06
1.06192e-05
3.24554e-06
1.02058e-05
2.93803e-06
9.77039e-06
2.46917e-06
9.30802e-06
2.39381e-06
8.8083e-06
2.41496e-06
8.27676e-06
2.31579e-06
7.73253e-06
2.13615e-06
7.19654e-06
1.91851e-06
6.6921e-06
1.67812e-06
6.2356e-06
1.43911e-06
5.83584e-06
1.20964e-06
5.4933e-06
9.99075e-07
5.2046e-06
8.13129e-07
4.96488e-06
6.47875e-07
4.76905e-06
5.05141e-07
4.61249e-06
3.86499e-07
4.49004e-06
2.8286e-07
4.39709e-06
1.92547e-07
4.33038e-06
1.12046e-07
4.28674e-06
3.99527e-08
4.26366e-06
-2.47134e-08
4.25916e-06
-8.35284e-08
4.27134e-06
-1.38691e-07
4.29875e-06
-1.90393e-07
4.34012e-06
-2.37557e-07
4.39452e-06
-2.8195e-07
4.46082e-06
-3.22511e-07
4.53822e-06
-3.61035e-07
4.62556e-06
-3.95251e-07
4.72209e-06
-4.27193e-07
4.8265e-06
-4.54044e-07
4.93801e-06
-4.7866e-07
5.05531e-06
-4.98343e-07
5.17809e-06
-5.18016e-07
5.30555e-06
-5.35082e-07
5.43827e-06
-5.56372e-07
5.57616e-06
-5.76601e-07
5.72074e-06
-6.03786e-07
5.87166e-06
-6.29658e-07
6.0308e-06
-6.632e-07
6.19706e-06
-6.9263e-07
6.37272e-06
-7.29577e-07
6.55546e-06
-7.59172e-07
6.74795e-06
-7.95384e-07
6.94654e-06
-8.22864e-07
7.15463e-06
-8.54353e-07
7.3671e-06
-8.79204e-07
7.58868e-06
-9.0287e-07
7.81255e-06
-9.26886e-07
8.04506e-06
-9.39155e-07
8.27805e-06
-9.70293e-07
8.51945e-06
-9.62185e-07
8.76037e-06
-1.01688e-06
9.00919e-06
-9.72345e-07
9.25735e-06
-1.05835e-06
9.5118e-06
-9.70155e-07
9.76614e-06
-1.09364e-06
1.00222e-05
-9.38873e-07
1.02784e-05
-1.11326e-06
1.0529e-05
-8.73563e-07
1.07792e-05
-1.09492e-06
1.10114e-05
-7.58459e-07
1.12433e-05
-1.03662e-06
1.1447e-05
-5.96383e-07
1.16526e-05
-9.55872e-07
1.18234e-05
-4.11827e-07
1.19991e-05
-8.73649e-07
1.21315e-05
-1.94052e-07
1.22778e-05
-8.37373e-07
1.23717e-05
7.19121e-08
1.25178e-05
-1.1023e-06
1.26092e-05
-2.61008e-08
-1.94752e-06
1.21783e-05
1.01495e-05
1.14268e-05
3.70193e-06
1.09989e-05
3.67337e-06
1.06658e-05
3.27116e-06
1.03151e-05
2.81984e-06
9.94572e-06
2.76322e-06
9.5455e-06
2.81518e-06
9.10513e-06
2.75616e-06
8.63309e-06
2.60819e-06
8.14288e-06
2.40872e-06
7.65503e-06
2.16596e-06
7.19094e-06
1.90321e-06
6.76593e-06
1.63465e-06
6.38851e-06
1.3765e-06
6.06103e-06
1.1406e-06
5.7815e-06
9.27414e-07
5.54701e-06
7.39622e-07
5.35427e-06
5.79241e-07
5.19844e-06
4.38688e-07
5.07526e-06
3.15731e-07
4.98119e-06
2.06111e-07
4.91284e-06
1.08309e-07
4.86745e-06
2.06787e-08
4.84282e-06
-5.8905e-08
4.83668e-06
-1.32552e-07
4.84733e-06
-2.01039e-07
4.87332e-06
-2.63544e-07
4.91351e-06
-3.22138e-07
4.96665e-06
-3.75656e-07
5.03177e-06
-4.26151e-07
5.1077e-06
-4.71188e-07
5.19356e-06
-5.13052e-07
5.28807e-06
-5.48552e-07
5.39026e-06
-5.80848e-07
5.49889e-06
-6.06977e-07
5.6134e-06
-6.32519e-07
5.73303e-06
-6.54713e-07
5.85802e-06
-6.8137e-07
5.98845e-06
-7.07022e-07
6.12535e-06
-7.40687e-07
6.26853e-06
-7.72837e-07
6.41936e-06
-8.14037e-07
6.57732e-06
-8.50592e-07
6.74403e-06
-8.96281e-07
6.91799e-06
-9.33131e-07
7.10099e-06
-9.78382e-07
7.29043e-06
-1.01231e-06
7.48854e-06
-1.05246e-06
7.69154e-06
-1.08221e-06
7.90265e-06
-1.11398e-06
8.11656e-06
-1.1408e-06
8.33799e-06
-1.16059e-06
8.56018e-06
-1.19248e-06
8.79007e-06
-1.19207e-06
9.01891e-06
-1.24572e-06
9.25626e-06
-1.20969e-06
9.4915e-06
-1.29358e-06
9.73506e-06
-1.21372e-06
9.97578e-06
-1.33436e-06
1.0223e-05
-1.1861e-06
1.04656e-05
-1.35582e-06
1.07099e-05
-1.11786e-06
1.09463e-05
-1.33138e-06
1.11758e-05
-9.87929e-07
1.13957e-05
-1.25649e-06
1.15986e-05
-7.99345e-07
1.17928e-05
-1.15004e-06
1.1966e-05
-5.85032e-07
1.21293e-05
-1.03698e-06
1.22689e-05
-3.33611e-07
1.2399e-05
-9.67454e-07
1.25098e-05
-3.89429e-08
1.262e-05
-1.21244e-06
1.27572e-05
-1.63397e-07
-2.14485e-06
1.23919e-05
1.1091e-05
1.17163e-05
4.37753e-06
1.13305e-05
4.05912e-06
1.1047e-05
3.55466e-06
1.07565e-05
3.1104e-06
1.0457e-05
3.06269e-06
1.01386e-05
3.13353e-06
9.7839e-06
3.11091e-06
9.39231e-06
2.99978e-06
8.97007e-06
2.83096e-06
8.52887e-06
2.60716e-06
8.08822e-06
2.34386e-06
7.66516e-06
2.05771e-06
7.27377e-06
1.76788e-06
6.92247e-06
1.49191e-06
6.61383e-06
1.23605e-06
6.34804e-06
1.00541e-06
6.12359e-06
8.03695e-07
5.93708e-06
6.25197e-07
5.78512e-06
4.67689e-07
5.66421e-06
3.27025e-07
5.57098e-06
2.0154e-07
5.5027e-06
8.89543e-08
5.45704e-06
-1.32413e-08
5.43148e-06
-1.06994e-07
5.42414e-06
-1.93703e-07
5.43345e-06
-2.72857e-07
5.45808e-06
-3.46765e-07
5.49668e-06
-4.1425e-07
5.54811e-06
-4.77586e-07
5.61123e-06
-5.34305e-07
5.685e-06
-5.86825e-07
5.76818e-06
-6.31728e-07
5.85966e-06
-6.72329e-07
5.95825e-06
-7.05571e-07
6.0632e-06
-7.37468e-07
6.1738e-06
-7.65318e-07
6.29006e-06
-7.97628e-07
6.41199e-06
-8.2895e-07
6.54021e-06
-8.68902e-07
6.67461e-06
-9.07246e-07
6.8162e-06
-9.55627e-07
6.96483e-06
-9.99222e-07
7.12161e-06
-1.05306e-06
7.28567e-06
-1.09719e-06
7.45812e-06
-1.15083e-06
7.63722e-06
-1.1914e-06
7.8242e-06
-1.23944e-06
8.01644e-06
-1.27444e-06
8.21586e-06
-1.3134e-06
8.4185e-06
-1.34343e-06
8.6276e-06
-1.36969e-06
8.83783e-06
-1.40271e-06
9.05475e-06
-1.40899e-06
9.27067e-06
-1.46165e-06
9.49473e-06
-1.43375e-06
9.71634e-06
-1.5152e-06
9.94673e-06
-1.44411e-06
1.01735e-05
-1.5611e-06
1.04089e-05
-1.4215e-06
1.06378e-05
-1.58471e-06
1.08724e-05
-1.35246e-06
1.1096e-05
-1.55502e-06
1.13186e-05
-1.21057e-06
1.15264e-05
-1.46426e-06
1.17252e-05
-9.98131e-07
1.19095e-05
-1.33429e-06
1.208e-05
-7.55596e-07
1.2234e-05
-1.19097e-06
1.23742e-05
-4.73808e-07
1.24941e-05
-1.08735e-06
1.26115e-05
-1.56379e-07
1.27018e-05
-1.30275e-06
1.28537e-05
-3.15287e-07
-2.30843e-06
1.25746e-05
1.18497e-05
1.19799e-05
4.97224e-06
1.16329e-05
4.40611e-06
1.13847e-05
3.80279e-06
1.11383e-05
3.35682e-06
1.08915e-05
3.30953e-06
1.06366e-05
3.38842e-06
1.03542e-05
3.39335e-06
1.00371e-05
3.31684e-06
9.68753e-06
3.18053e-06
9.30879e-06
2.98589e-06
8.91309e-06
2.73956e-06
8.51626e-06
2.45454e-06
8.13313e-06
2.15102e-06
7.77553e-06
1.84951e-06
7.45109e-06
1.56048e-06
7.16381e-06
1.2927e-06
6.91457e-06
1.05294e-06
6.70215e-06
8.37614e-07
6.5244e-06
6.45437e-07
6.37837e-06
4.73053e-07
6.26126e-06
3.18651e-07
6.1705e-06
1.79716e-07
6.10367e-06
5.35901e-08
6.05824e-06
-6.15644e-08
6.03227e-06
-1.67737e-07
6.0241e-06
-2.64687e-07
6.03224e-06
-3.54897e-07
6.05524e-06
-4.37251e-07
6.09189e-06
-5.14244e-07
6.14105e-06
-5.83461e-07
6.20158e-06
-6.47353e-07
6.27225e-06
-7.024e-07
6.35188e-06
-7.51954e-07
6.43928e-06
-7.9297e-07
6.53359e-06
-8.31778e-07
6.63414e-06
-8.65872e-07
6.74074e-06
-9.04226e-07
6.85324e-06
-9.41457e-07
6.97189e-06
-9.87548e-07
7.09667e-06
-1.03203e-06
7.22825e-06
-1.0872e-06
7.36671e-06
-1.13769e-06
7.51279e-06
-1.19914e-06
7.66606e-06
-1.25046e-06
7.82713e-06
-1.31191e-06
7.99491e-06
-1.35918e-06
8.16991e-06
-1.41444e-06
8.35035e-06
-1.45489e-06
8.53721e-06
-1.50026e-06
8.72755e-06
-1.53377e-06
8.92345e-06
-1.56559e-06
9.12074e-06
-1.60001e-06
9.32374e-06
-1.61199e-06
9.52593e-06
-1.66384e-06
9.73551e-06
-1.64332e-06
9.94274e-06
-1.72242e-06
1.01585e-05
-1.6599e-06
1.03706e-05
-1.77317e-06
1.05922e-05
-1.64314e-06
1.08068e-05
-1.79932e-06
1.10295e-05
-1.57513e-06
1.12401e-05
-1.76561e-06
1.14536e-05
-1.42402e-06
1.16496e-05
-1.66031e-06
1.18416e-05
-1.19013e-06
1.20155e-05
-1.50821e-06
1.21814e-05
-9.21431e-07
1.23273e-05
-1.33684e-06
1.2465e-05
-6.11586e-07
1.25771e-05
-1.1994e-06
1.26965e-05
-2.75826e-07
1.27741e-05
-1.38034e-06
1.29258e-05
-4.66995e-07
-2.44038e-06
1.27353e-05
1.24478e-05
1.22209e-05
5.48666e-06
1.19137e-05
4.71326e-06
1.16957e-05
4.02077e-06
1.14839e-05
3.56864e-06
1.12779e-05
3.51557e-06
1.10717e-05
3.59459e-06
1.08477e-05
3.61733e-06
1.05948e-05
3.56977e-06
1.03123e-05
3.46303e-06
9.9998e-06
3.29838e-06
9.66043e-06
3.07893e-06
9.30608e-06
2.80889e-06
8.95006e-06
2.50704e-06
8.6045e-06
2.19507e-06
8.27961e-06
1.88538e-06
7.98247e-06
1.58984e-06
7.71744e-06
1.31797e-06
7.48577e-06
1.06929e-06
7.28686e-06
8.44348e-07
7.11893e-06
6.40975e-07
6.98012e-06
4.57465e-07
6.86815e-06
2.91684e-07
6.78079e-06
1.40957e-07
6.71573e-06
3.49269e-09
6.67108e-06
-1.23094e-07
6.64512e-06
-2.38718e-07
6.63623e-06
-3.46015e-07
6.64297e-06
-4.43992e-07
6.66409e-06
-5.3536e-07
6.69841e-06
-6.17782e-07
6.74476e-06
-6.93703e-07
6.80195e-06
-7.59593e-07
6.86876e-06
-8.18757e-07
6.944e-06
-8.68209e-07
7.02673e-06
-9.14514e-07
7.1163e-06
-9.55443e-07
7.21236e-06
-1.00028e-06
7.31458e-06
-1.04368e-06
7.42286e-06
-1.09583e-06
7.53726e-06
-1.14643e-06
7.65814e-06
-1.20807e-06
7.78571e-06
-1.26526e-06
7.92042e-06
-1.33385e-06
8.06215e-06
-1.39218e-06
8.21115e-06
-1.46091e-06
8.36679e-06
-1.51482e-06
8.52909e-06
-1.57674e-06
8.69689e-06
-1.62269e-06
8.87047e-06
-1.67384e-06
9.04768e-06
-1.71098e-06
9.22971e-06
-1.74762e-06
9.41331e-06
-1.78361e-06
9.60172e-06
-1.80039e-06
9.78948e-06
-1.85161e-06
9.98379e-06
-1.83763e-06
1.01759e-05
-1.91451e-06
1.0376e-05
-1.86001e-06
1.05725e-05
-1.96971e-06
1.0779e-05
-1.84957e-06
1.09785e-05
-1.99883e-06
1.11874e-05
-1.78411e-06
1.13843e-05
-1.96243e-06
1.15867e-05
-1.62647e-06
1.17708e-05
-1.84437e-06
1.19542e-05
-1.37357e-06
1.21173e-05
-1.67133e-06
1.22769e-05
-1.08101e-06
1.24147e-05
-1.47467e-06
1.25484e-05
-7.45281e-07
1.26535e-05
-1.30444e-06
1.27725e-05
-3.94835e-07
1.28404e-05
-1.44831e-06
1.29856e-05
-6.1218e-07
-2.54396e-06
1.28788e-05
1.29023e-05
1.24417e-05
5.92376e-06
1.21761e-05
4.9788e-06
1.19875e-05
4.20936e-06
1.18057e-05
3.75045e-06
1.16329e-05
3.6884e-06
1.1465e-05
3.76245e-06
1.12875e-05
3.79485e-06
1.10882e-05
3.76906e-06
1.08636e-05
3.68771e-06
1.0613e-05
3.54896e-06
1.03336e-05
3.35828e-06
1.00303e-05
3.11221e-06
9.71384e-06
2.82352e-06
9.39528e-06
2.51363e-06
9.08478e-06
2.19587e-06
8.79107e-06
1.88355e-06
8.52098e-06
1.58806e-06
8.27809e-06
1.31217e-06
8.06419e-06
1.05825e-06
7.87905e-06
8.26117e-07
7.72184e-06
6.14673e-07
7.59094e-06
4.22591e-07
7.48458e-06
2.47314e-07
7.40089e-06
8.71816e-08
7.33809e-06
-6.02928e-08
7.29448e-06
-1.95105e-07
7.26849e-06
-3.20027e-07
7.2587e-06
-4.34203e-07
7.26386e-06
-5.40517e-07
7.28277e-06
-6.36693e-07
7.31425e-06
-7.25188e-07
7.35719e-06
-8.02528e-07
7.41036e-06
-8.71935e-07
7.47262e-06
-9.30467e-07
7.54296e-06
-9.84848e-07
7.62069e-06
-1.03318e-06
7.70536e-06
-1.08494e-06
7.79648e-06
-1.1348e-06
7.89367e-06
-1.19302e-06
7.99699e-06
-1.24974e-06
8.10652e-06
-1.31761e-06
8.22256e-06
-1.3813e-06
8.34531e-06
-1.4566e-06
8.47482e-06
-1.5217e-06
8.61114e-06
-1.59723e-06
8.75395e-06
-1.65763e-06
8.90292e-06
-1.72571e-06
9.05736e-06
-1.77713e-06
9.21706e-06
-1.83354e-06
9.38045e-06
-1.87437e-06
9.54807e-06
-1.91525e-06
9.71736e-06
-1.95289e-06
9.89069e-06
-1.97372e-06
1.00635e-05
-2.02439e-06
1.02419e-05
-2.01611e-06
1.04183e-05
-2.09085e-06
1.0602e-05
-2.04368e-06
1.07822e-05
-2.14995e-06
1.09723e-05
-2.03962e-06
1.11557e-05
-2.18228e-06
1.13495e-05
-1.97792e-06
1.15316e-05
-2.1445e-06
1.17214e-05
-1.81622e-06
1.18928e-05
-2.01577e-06
1.20662e-05
-1.547e-06
1.22181e-05
-1.82321e-06
1.237e-05
-1.2329e-06
1.24992e-05
-1.60391e-06
1.26277e-05
-8.73833e-07
1.2726e-05
-1.4027e-06
1.2843e-05
-5.11788e-07
1.29028e-05
-1.50811e-06
1.30387e-05
-7.48088e-07
-2.62228e-06
1.30079e-05
1.32278e-05
1.26442e-05
6.28742e-06
1.24215e-05
5.20152e-06
1.22631e-05
4.36779e-06
1.21099e-05
3.90367e-06
1.19661e-05
3.8322e-06
1.183e-05
3.89856e-06
1.16897e-05
3.93514e-06
1.15347e-05
3.92397e-06
1.1359e-05
3.86346e-06
1.11618e-05
3.7462e-06
1.09397e-05
3.58032e-06
1.06906e-05
3.36132e-06
1.04207e-05
3.09338e-06
1.01393e-05
2.79505e-06
9.85501e-06
2.48017e-06
9.57696e-06
2.16159e-06
9.31299e-06
1.85203e-06
9.06848e-06
1.55668e-06
8.84718e-06
1.27955e-06
8.65062e-06
1.02267e-06
8.4794e-06
7.85895e-07
8.3329e-06
5.69095e-07
8.21004e-06
3.70173e-07
8.10945e-06
1.87772e-07
8.02964e-06
1.95188e-08
7.96909e-06
-1.34563e-07
7.9264e-06
-2.77338e-07
7.90023e-06
-4.08033e-07
7.88933e-06
-5.29619e-07
7.89254e-06
-6.39903e-07
7.90874e-06
-7.41383e-07
7.93687e-06
-8.30663e-07
7.97581e-06
-9.10867e-07
8.0244e-06
-9.79064e-07
8.08162e-06
-1.04207e-06
8.14675e-06
-1.09831e-06
8.21924e-06
-1.15743e-06
8.2985e-06
-1.21406e-06
8.3839e-06
-1.27843e-06
8.47547e-06
-1.34131e-06
8.57307e-06
-1.41522e-06
8.67697e-06
-1.4852e-06
8.7872e-06
-1.56682e-06
8.9039e-06
-1.63841e-06
9.02698e-06
-1.7203e-06
9.15634e-06
-1.78699e-06
9.29142e-06
-1.86079e-06
9.43188e-06
-1.91759e-06
9.57717e-06
-1.97883e-06
9.72614e-06
-2.02334e-06
9.87891e-06
-2.06801e-06
1.00334e-05
-2.10735e-06
1.01912e-05
-2.13161e-06
1.03486e-05
-2.18174e-06
1.05109e-05
-2.17841e-06
1.0671e-05
-2.25099e-06
1.08378e-05
-2.2104e-06
1.1001e-05
-2.31324e-06
1.11739e-05
-2.21242e-06
1.13404e-05
-2.34879e-06
1.15177e-05
-2.15531e-06
1.1684e-05
-2.31078e-06
1.18596e-05
-1.99177e-06
1.20174e-05
-2.17363e-06
1.21795e-05
-1.70906e-06
1.23196e-05
-1.96336e-06
1.24625e-05
-1.37574e-06
1.25824e-05
-1.72385e-06
1.27049e-05
-9.96342e-07
1.27962e-05
-1.49401e-06
1.29099e-05
-6.25439e-07
1.29622e-05
-1.56043e-06
1.30876e-05
-8.73514e-07
-2.67798e-06
1.31245e-05
1.34366e-05
1.28302e-05
6.58177e-06
1.26507e-05
5.38099e-06
1.25232e-05
4.49529e-06
1.23987e-05
4.02816e-06
1.22821e-05
3.94883e-06
1.2174e-05
4.00662e-06
1.20648e-05
4.04436e-06
1.19466e-05
4.04214e-06
1.18125e-05
3.9976e-06
1.16601e-05
3.89854e-06
1.14884e-05
3.75203e-06
1.12919e-05
3.55785e-06
1.1071e-05
3.31424e-06
1.08326e-05
3.03352e-06
1.05833e-05
2.72948e-06
1.03306e-05
2.41425e-06
1.00827e-05
2.0999e-06
9.84618e-06
1.79323e-06
9.62588e-06
1.49986e-06
9.42488e-06
1.22367e-06
9.24511e-06
9.6567e-07
9.0873e-06
7.26903e-07
8.95125e-06
5.06226e-07
8.83623e-06
3.02785e-07
8.74125e-06
1.14505e-07
8.66512e-06
-5.84345e-08
8.60666e-06
-2.1888e-07
8.56468e-06
-3.66053e-07
8.538e-06
-5.02933e-07
8.52554e-06
-6.27446e-07
8.52631e-06
-7.42153e-07
8.53935e-06
-8.43705e-07
8.56361e-06
-9.35127e-07
8.59802e-06
-1.01347e-06
8.64153e-06
-1.08558e-06
8.6934e-06
-1.15017e-06
8.75298e-06
-1.21702e-06
8.81966e-06
-1.28074e-06
8.89263e-06
-1.3514e-06
8.97182e-06
-1.4205e-06
9.05692e-06
-1.50031e-06
9.14811e-06
-1.57639e-06
9.24529e-06
-1.664e-06
9.34865e-06
-1.74176e-06
9.45797e-06
-1.82962e-06
9.57333e-06
-1.90236e-06
9.69401e-06
-1.98146e-06
9.81992e-06
-2.0435e-06
9.95032e-06
-2.10923e-06
1.00843e-05
-2.15737e-06
1.02218e-05
-2.20551e-06
1.0361e-05
-2.24654e-06
1.05032e-05
-2.27375e-06
1.06448e-05
-2.32331e-06
1.07906e-05
-2.32428e-06
1.09342e-05
-2.3946e-06
1.10837e-05
-2.35987e-06
1.12296e-05
-2.45914e-06
1.13845e-05
-2.36736e-06
1.15333e-05
-2.49759e-06
1.16932e-05
-2.31522e-06
1.18427e-05
-2.46026e-06
1.20027e-05
-2.15175e-06
1.2146e-05
-2.31693e-06
1.22954e-05
-1.85842e-06
1.24231e-05
-2.09105e-06
1.25556e-05
-1.50832e-06
1.26656e-05
-1.83384e-06
1.27811e-05
-1.11186e-06
1.28651e-05
-1.57801e-06
1.29744e-05
-7.34746e-07
1.30196e-05
-1.60557e-06
1.3134e-05
-9.87955e-07
-2.71327e-06
1.32298e-05
1.35401e-05
1.30009e-05
6.81067e-06
1.28644e-05
5.51753e-06
1.2768e-05
4.59162e-06
1.26728e-05
4.12338e-06
1.2583e-05
4.03869e-06
1.25011e-05
4.08849e-06
1.24194e-05
4.12604e-06
1.23323e-05
4.12928e-06
1.22338e-05
4.09603e-06
1.212e-05
4.0124e-06
1.19906e-05
3.88138e-06
1.18416e-05
3.70692e-06
1.16687e-05
3.48708e-06
1.14748e-05
3.22749e-06
1.12652e-05
2.93904e-06
1.10454e-05
2.63405e-06
1.08222e-05
2.32316e-06
1.06021e-05
2.01334e-06
1.03908e-05
1.71107e-06
1.01928e-05
1.42173e-06
1.00108e-05
1.14765e-06
9.84686e-06
8.90839e-07
9.70171e-06
6.51373e-07
9.57552e-06
4.28971e-07
9.46787e-06
2.22152e-07
9.37809e-06
3.1349e-08
9.30529e-06
-1.4608e-07
9.24852e-06
-3.09286e-07
9.20677e-06
-4.61182e-07
9.17911e-06
-5.99778e-07
9.16465e-06
-7.27699e-07
9.16257e-06
-8.4162e-07
9.17192e-06
-9.44483e-07
9.19178e-06
-1.03333e-06
9.22116e-06
-1.11495e-06
9.25922e-06
-1.18824e-06
9.30527e-06
-1.26307e-06
9.35871e-06
-1.33417e-06
9.41865e-06
-1.41134e-06
9.48488e-06
-1.48673e-06
9.55691e-06
-1.57235e-06
9.63487e-06
-1.65435e-06
9.71852e-06
-1.74765e-06
9.80802e-06
-1.83127e-06
9.90311e-06
-1.92472e-06
1.0004e-05
-2.00321e-06
1.01098e-05
-2.08726e-06
1.02206e-05
-2.15434e-06
1.03357e-05
-2.22429e-06
1.04543e-05
-2.27597e-06
1.05761e-05
-2.32737e-06
1.06997e-05
-2.37006e-06
1.08258e-05
-2.39988e-06
1.09513e-05
-2.44883e-06
1.10806e-05
-2.45357e-06
1.12074e-05
-2.52145e-06
1.13395e-05
-2.49194e-06
1.14677e-05
-2.58735e-06
1.16044e-05
-2.50406e-06
1.1735e-05
-2.62815e-06
1.18766e-05
-2.45686e-06
1.20084e-05
-2.59204e-06
1.21516e-05
-2.29493e-06
1.22793e-05
-2.44461e-06
1.24146e-05
-1.99381e-06
1.25291e-05
-2.20545e-06
1.26502e-05
-1.62947e-06
1.27496e-05
-1.93319e-06
1.28571e-05
-1.21943e-06
1.29333e-05
-1.65417e-06
1.30373e-05
-8.38778e-07
1.30754e-05
-1.64361e-06
1.31786e-05
-1.09124e-06
-2.72996e-06
1.33248e-05
1.35487e-05
1.31584e-05
6.97701e-06
1.30632e-05
5.6128e-06
1.29976e-05
4.65713e-06
1.29319e-05
4.18914e-06
1.28691e-05
4.10153e-06
1.28127e-05
4.14484e-06
1.27568e-05
4.18193e-06
1.26971e-05
4.18901e-06
1.26297e-05
4.16344e-06
1.25497e-05
4.0924e-06
1.24564e-05
3.97469e-06
1.23479e-05
3.81541e-06
1.22194e-05
3.61554e-06
1.20691e-05
3.3778e-06
1.19004e-05
3.10778e-06
1.17174e-05
2.81696e-06
1.1525e-05
2.51557e-06
1.13287e-05
2.2097e-06
1.1134e-05
1.90573e-06
1.0946e-05
1.6098e-06
1.07683e-05
1.32531e-06
1.06039e-05
1.05523e-06
1.04545e-05
8.00757e-07
1.03211e-05
5.62373e-07
1.0204e-05
3.39304e-07
1.0103e-05
1.32276e-07
1.00179e-05
-6.08903e-08
9.9478e-06
-2.39234e-07
9.89212e-06
-4.05503e-07
9.85006e-06
-5.57723e-07
9.82091e-06
-6.98549e-07
9.80397e-06
-8.24678e-07
9.79849e-06
-9.38996e-07
9.80369e-06
-1.03854e-06
9.81871e-06
-1.12997e-06
9.84267e-06
-1.2122e-06
9.87471e-06
-1.29511e-06
9.9143e-06
-1.37377e-06
9.96063e-06
-1.45767e-06
1.00133e-05
-1.53943e-06
1.00718e-05
-1.63079e-06
1.0136e-05
-1.71855e-06
1.02056e-05
-1.8173e-06
1.02808e-05
-1.90645e-06
1.03612e-05
-2.00514e-06
1.04471e-05
-2.08908e-06
1.05376e-05
-2.17774e-06
1.06329e-05
-2.24967e-06
1.07322e-05
-2.32359e-06
1.0835e-05
-2.37871e-06
1.09408e-05
-2.4332e-06
1.10483e-05
-2.47755e-06
1.11581e-05
-2.50976e-06
1.12673e-05
-2.55801e-06
1.13799e-05
-2.56614e-06
1.14899e-05
-2.6314e-06
1.16045e-05
-2.60655e-06
1.17149e-05
-2.69775e-06
1.18332e-05
-2.62236e-06
1.19452e-05
-2.74013e-06
1.2068e-05
-2.57972e-06
1.21814e-05
-2.70538e-06
1.23067e-05
-2.42025e-06
1.24177e-05
-2.55568e-06
1.25379e-05
-2.11396e-06
1.26382e-05
-2.30575e-06
1.27468e-05
-1.73812e-06
1.28348e-05
-2.02114e-06
1.29334e-05
-1.31808e-06
1.30011e-05
-1.72187e-06
1.3099e-05
-9.36662e-07
1.31299e-05
-1.67447e-06
1.3222e-05
-1.18335e-06
-2.72957e-06
1.34101e-05
1.34719e-05
1.33029e-05
7.0842e-06
1.32473e-05
5.66836e-06
1.32121e-05
4.69239e-06
1.31755e-05
4.22572e-06
1.314e-05
4.13707e-06
1.3109e-05
4.17576e-06
1.30783e-05
4.21268e-06
1.30441e-05
4.22322e-06
1.30043e-05
4.20324e-06
1.29546e-05
4.14211e-06
1.28931e-05
4.03616e-06
1.2819e-05
3.88951e-06
1.27293e-05
3.70519e-06
1.26201e-05
3.487e-06
1.24912e-05
3.23666e-06
1.23461e-05
2.96213e-06
1.21879e-05
2.67376e-06
1.20205e-05
2.3771e-06
1.18486e-05
2.07761e-06
1.16771e-05
1.78132e-06
1.151e-05
1.49236e-06
1.1351e-05
1.21426e-06
1.12026e-05
9.4918e-07
1.10664e-05
6.98522e-07
1.09436e-05
4.62151e-07
1.08346e-05
2.41255e-07
1.07395e-05
3.41985e-08
1.06582e-05
-1.57895e-07
1.05901e-05
-3.37447e-07
1.05348e-05
-5.02463e-07
1.04919e-05
-6.55575e-07
1.04607e-05
-7.93476e-07
1.04407e-05
-9.19027e-07
1.04314e-05
-1.02921e-06
1.0432e-05
-1.13056e-06
1.04417e-05
-1.22191e-06
1.04595e-05
-1.31294e-06
1.04849e-05
-1.39913e-06
1.05171e-05
-1.48989e-06
1.05558e-05
-1.57815e-06
1.06002e-05
-1.6752e-06
1.06502e-05
-1.76857e-06
1.07054e-05
-1.87252e-06
1.07659e-05
-1.96687e-06
1.08312e-05
-2.07047e-06
1.09017e-05
-2.15955e-06
1.09764e-05
-2.25248e-06
1.10557e-05
-2.32902e-06
1.11389e-05
-2.4067e-06
1.12253e-05
-2.46514e-06
1.13147e-05
-2.52265e-06
1.14058e-05
-2.56862e-06
1.14992e-05
-2.6031e-06
1.15917e-05
-2.65059e-06
1.16875e-05
-2.66186e-06
1.17804e-05
-2.72433e-06
1.18776e-05
-2.70372e-06
1.19701e-05
-2.7903e-06
1.207e-05
-2.7223e-06
1.21633e-05
-2.83341e-06
1.22671e-05
-2.68348e-06
1.23615e-05
-2.79977e-06
1.24681e-05
-2.52687e-06
1.25617e-05
-2.64926e-06
1.26654e-05
-2.21773e-06
1.27509e-05
-2.39116e-06
1.28459e-05
-1.83321e-06
1.29217e-05
-2.09687e-06
1.30105e-05
-1.40687e-06
1.30691e-05
-1.78047e-06
1.316e-05
-1.02756e-06
1.31835e-05
-1.69802e-06
1.32645e-05
-1.26434e-06
-2.71339e-06
1.34868e-05
1.33184e-05
1.34349e-05
7.13609e-06
1.34174e-05
5.68595e-06
1.34115e-05
4.69828e-06
1.34033e-05
4.23391e-06
1.33949e-05
4.14542e-06
1.33895e-05
4.18116e-06
1.33837e-05
4.21846e-06
1.33743e-05
4.23267e-06
1.336e-05
4.21749e-06
1.33379e-05
4.16424e-06
1.33054e-05
4.06864e-06
1.32616e-05
3.93338e-06
1.3205e-05
3.76174e-06
1.31327e-05
3.55935e-06
1.30417e-05
3.32766e-06
1.29332e-05
3.07063e-06
1.28099e-05
2.79706e-06
1.26743e-05
2.5127e-06
1.25296e-05
2.22231e-06
1.23799e-05
1.931e-06
1.22292e-05
1.64308e-06
1.20812e-05
1.3623e-06
1.19389e-05
1.09144e-06
1.18047e-05
8.32677e-07
1.16804e-05
5.86502e-07
1.15669e-05
3.54707e-07
1.1465e-05
1.36141e-07
1.13749e-05
-6.77595e-08
1.12965e-05
-2.59034e-07
1.12296e-05
-4.35627e-07
1.11741e-05
-6.00044e-07
1.11296e-05
-7.48959e-07
1.10958e-05
-8.85217e-07
1.10723e-05
-1.00571e-06
1.10585e-05
-1.11684e-06
1.1054e-05
-1.21733e-06
1.10575e-05
-1.31651e-06
1.10685e-05
-1.41014e-06
1.10863e-05
-1.50767e-06
1.11106e-05
-1.60246e-06
1.11406e-05
-1.7052e-06
1.11761e-05
-1.80401e-06
1.12165e-05
-1.91293e-06
1.12618e-05
-2.01215e-06
1.13117e-05
-2.12035e-06
1.13663e-05
-2.21423e-06
1.1425e-05
-2.31112e-06
1.1488e-05
-2.39201e-06
1.15545e-05
-2.47327e-06
1.16243e-05
-2.53486e-06
1.16969e-05
-2.59534e-06
1.17712e-05
-2.64292e-06
1.18478e-05
-2.67961e-06
1.19235e-05
-2.7263e-06
1.20022e-05
-2.74059e-06
1.20779e-05
-2.80009e-06
1.21577e-05
-2.78346e-06
1.22324e-05
-2.86501e-06
1.2314e-05
-2.80394e-06
1.23886e-05
-2.90798e-06
1.24731e-05
-2.76802e-06
1.25484e-05
-2.87499e-06
1.26357e-05
-2.61424e-06
1.27112e-05
-2.72471e-06
1.27975e-05
-2.30408e-06
1.28673e-05
-2.46096e-06
1.29479e-05
-1.91379e-06
1.30105e-05
-2.15945e-06
1.30885e-05
-1.48487e-06
1.31373e-05
-1.82926e-06
1.32204e-05
-1.11065e-06
1.32364e-05
-1.71402e-06
1.33063e-05
-1.33425e-06
-2.68255e-06
1.3556e-05
1.30957e-05
1.35555e-05
7.13663e-06
1.35739e-05
5.66756e-06
1.35962e-05
4.67598e-06
1.36152e-05
4.21488e-06
1.36334e-05
4.12722e-06
1.36534e-05
4.1612e-06
1.36725e-05
4.19936e-06
1.36876e-05
4.21753e-06
1.36979e-05
4.20722e-06
1.37014e-05
4.16068e-06
1.36958e-05
4.07422e-06
1.36797e-05
3.94949e-06
1.36522e-05
3.78926e-06
1.36118e-05
3.59973e-06
1.35555e-05
3.38394e-06
1.34819e-05
3.14425e-06
1.33924e-05
2.88654e-06
1.32892e-05
2.61596e-06
1.31741e-05
2.33742e-06
1.30499e-05
2.05513e-06
1.29201e-05
1.77289e-06
1.27881e-05
1.49434e-06
1.2657e-05
1.22248e-06
1.25297e-05
9.60055e-07
1.24081e-05
7.08024e-07
1.22941e-05
4.68733e-07
1.21888e-05
2.41512e-07
1.20927e-05
2.82503e-08
1.20065e-05
-1.72748e-07
1.19301e-05
-3.59268e-07
1.18637e-05
-5.33616e-07
1.18072e-05
-6.92456e-07
1.17605e-05
-8.3858e-07
1.17236e-05
-9.6876e-07
1.1696e-05
-1.08925e-06
1.16773e-05
-1.19864e-06
1.16667e-05
-1.30588e-06
1.16634e-05
-1.40686e-06
1.16666e-05
-1.51088e-06
1.16762e-05
-1.612e-06
1.16914e-05
-1.72043e-06
1.17119e-05
-1.82454e-06
1.17372e-05
-1.93823e-06
1.17671e-05
-2.04198e-06
1.18012e-05
-2.15449e-06
1.18398e-05
-2.25282e-06
1.1882e-05
-2.35333e-06
1.19283e-05
-2.43831e-06
1.1978e-05
-2.52296e-06
1.20306e-05
-2.5875e-06
1.20862e-05
-2.65091e-06
1.21433e-05
-2.70006e-06
1.22027e-05
-2.73901e-06
1.22613e-05
-2.78482e-06
1.23228e-05
-2.80214e-06
1.23812e-05
-2.85851e-06
1.24435e-05
-2.84572e-06
1.25004e-05
-2.92188e-06
1.25638e-05
-2.86737e-06
1.26198e-05
-2.96397e-06
1.26852e-05
-2.83347e-06
1.27413e-05
-2.93107e-06
1.28091e-05
-2.68202e-06
1.2866e-05
-2.7816e-06
1.29341e-05
-2.37219e-06
1.29877e-05
-2.51458e-06
1.30529e-05
-1.97897e-06
1.31014e-05
-2.20795e-06
1.31678e-05
-1.55123e-06
1.3206e-05
-1.86754e-06
1.32805e-05
-1.18511e-06
1.32887e-05
-1.7222e-06
1.33476e-05
-1.39314e-06
-2.63803e-06