/*--------------------------------*- C++ -*----------------------------------*\
| =========                 |                                                 |
| \\      /  F ield         | OpenFOAM: The Open Source CFD Toolbox           |
|  \\    /   O peration     | Version:  2.4.0                                 |
|   \\  /    A nd           | Web:      www.OpenFOAM.org                      |
|    \\/     M anipulation  |                                                 |
\*---------------------------------------------------------------------------*/
FoamFile
{
    version     2.0;
    format      ascii;
    class       volVectorField;
    location    "5.45";
    object      U;
}
// * * * * * * * * * * * * * * * * * * * * * * * * * * * * * * * * * * * * * //

dimensions      [0 1 -1 0 0 0 0];

internalField   nonuniform List<vector> 
6000
(
(0.513517 -0.0430714 -6.16966e-18)
(-0.317786 0.0668541 0)
(0.111637 -0.0273487 1.0057e-17)
(0.00929276 -0.00185018 0)
(0.00577928 7.47422e-05 0)
(-0.0293189 0.00570236 0)
(-0.0149565 0.00320553 4.30237e-18)
(-0.0320293 0.00585865 3.81915e-24)
(-0.0314723 0.00593536 0)
(-0.044326 0.00757382 0)
(-0.0504619 0.00846758 3.61563e-18)
(-0.0609364 0.00936263 -6.98172e-18)
(-0.0669975 0.00977627 0)
(-0.0731788 0.00984322 0)
(-0.077474 0.00984599 -1.59381e-18)
(-0.0833736 0.00997094 0)
(-0.0911744 0.0103234 0)
(-0.101231 0.0106807 -1.48864e-18)
(-0.111591 0.0108134 -1.46027e-18)
(-0.121028 0.0105949 0)
(-0.128899 0.0101017 1.41572e-18)
(-0.135493 0.00943121 6.9987e-19)
(-0.141217 0.00863401 -6.93975e-19)
(-0.146152 0.00771221 0)
(-0.150323 0.00668453 0)
(-0.153734 0.00556686 0)
(-0.156368 0.00437703 3.45073e-19)
(-0.158192 0.00313313 -3.47019e-19)
(-0.159143 0.00185361 0)
(-0.159106 0.000532689 0)
(-0.158037 -0.000815267 4.48473e-20)
(-0.155971 -0.00211598 0)
(-0.152833 -0.0033614 3.71823e-19)
(-0.148544 -0.00452579 -3.80029e-19)
(-0.143026 -0.00557947 0)
(-0.13619 -0.00649118 0)
(-0.127953 -0.00722405 8.24149e-19)
(-0.118219 -0.00774298 0)
(-0.106908 -0.00800145 8.80007e-19)
(-0.0939085 -0.00796502 0)
(-0.0791858 -0.00757075 0)
(-0.0625557 -0.00679536 1.97028e-18)
(-0.0441609 -0.00555079 -4.10212e-18)
(-0.0235171 -0.00382573 0)
(-0.00141314 -0.00152489 0)
(0.0234308 0.00137469 2.31906e-18)
(0.0491175 0.0049471 0)
(0.078594 0.00918991 0)
(0.107798 0.0142756 -5.16987e-18)
(0.14267 0.0200985 -5.36171e-18)
(0.174756 0.0269522 -5.50135e-18)
(0.216738 0.0346395 -6.34319e-21)
(0.250184 0.0435421 5.7217e-18)
(0.303345 0.0536088 0)
(0.334558 0.0648382 -9.91816e-21)
(0.408665 0.0786456 -6.05627e-18)
(0.426589 0.0907495 4.98212e-18)
(0.546826 0.112967 6.05835e-18)
(0.527505 0.122043 1.72015e-20)
(0.771068 0.16804 0)
(0.72677 -0.108554 4.67352e-18)
(-0.209412 0.0626898 5.85089e-18)
(0.0917651 -0.0316421 -4.87875e-18)
(-0.021814 0.0086051 -5.19193e-18)
(0.00476286 0.00147593 0)
(-0.0421886 0.00900023 0)
(-0.0239777 0.00514778 -4.23104e-18)
(-0.0428394 0.00829585 8.10926e-18)
(-0.0421814 0.00844068 0)
(-0.0552435 0.01001 0)
(-0.0614972 0.0109766 -3.51148e-18)
(-0.0712054 0.011517 3.38023e-18)
(-0.0769541 0.0117733 1.62947e-18)
(-0.0826659 0.0116101 0)
(-0.087299 0.011665 1.53398e-18)
(-0.0936402 0.0119256 0)
(-0.101795 0.0124433 0)
(-0.111431 0.0127726 0)
(-0.120777 0.012716 0)
(-0.129018 0.0122454 0)
(-0.136008 0.0115377 1.47772e-22)
(-0.142017 0.0106917 0)
(-0.147194 0.0097351 -6.55581e-19)
(-0.151577 0.00865829 0)
(-0.155181 0.007478 0)
(-0.158002 0.00620755 3.22737e-19)
(-0.160019 0.00486356 -3.22962e-19)
(-0.161199 0.00346097 4.96061e-23)
(-0.161506 0.00201662 1.63012e-19)
(-0.16092 0.000554232 0)
(-0.1594 -0.000914837 -4.1594e-20)
(-0.156838 -0.00235428 -1.68674e-19)
(-0.153165 -0.00374265 -1.32949e-22)
(-0.148301 -0.00505189 3.49759e-19)
(-0.142164 -0.00625004 -3.57221e-19)
(-0.134667 -0.00730393 0)
(-0.125722 -0.00817322 0)
(-0.115233 -0.00882083 0)
(-0.103122 -0.00919456 0)
(-0.0892735 -0.00925892 0)
(-0.0736556 -0.00894186 -1.70067e-18)
(-0.0560823 -0.0082207 0)
(-0.036695 -0.006996 1.82694e-18)
(-0.0150324 -0.0052564 1.89289e-18)
(0.0082053 -0.00289098 0)
(0.034215 9.88573e-05 0)
(0.0613681 0.00385245 0)
(0.0922212 0.00829062 0)
(0.123229 0.0137279 4.49082e-18)
(0.15972 0.0198594 0)
(0.19408 0.0273107 0)
(0.237967 0.0353905 -4.87488e-18)
(0.274404 0.0452735 -4.89099e-18)
(0.329794 0.0557219 0)
(0.365192 0.0685481 -9.61586e-18)
(0.441552 0.0824601 0)
(0.469049 0.0984024 -8.32248e-18)
(0.588603 0.119221 -4.93965e-18)
(0.590166 0.135861 1.87913e-18)
(0.826844 0.176422 4.80677e-18)
(0.79866 -0.091349 -3.3605e-19)
(-0.0780393 0.0481046 -5.46822e-18)
(0.0670253 -0.0277212 0)
(-0.0537196 0.0168189 5.14958e-18)
(0.00159033 0.00279451 0)
(-0.0466388 0.010422 0)
(-0.0277146 0.00623366 0)
(-0.0461642 0.00929797 -3.94549e-18)
(-0.0453459 0.00968305 0)
(-0.0577784 0.0110699 -3.54564e-18)
(-0.0636427 0.0120761 0)
(-0.0728617 0.0123779 0)
(-0.0784665 0.0125376 -1.55488e-18)
(-0.0841999 0.0122846 0)
(-0.0889551 0.0124163 0)
(-0.095218 0.0128071 0)
(-0.102955 0.0134385 0)
(-0.111895 0.0137463 0)
(-0.120538 0.0135683 0)
(-0.128252 0.0129534 1.28547e-18)
(-0.134899 0.0121274 -1.2585e-18)
(-0.140653 0.0111832 0)
(-0.145587 0.0101378 -6.22963e-23)
(-0.149739 0.00897661 -6.02551e-19)
(-0.153119 0.0077142 0)
(-0.155721 0.00636164 -5.94521e-19)
(-0.157522 0.00493464 0)
(-0.158493 0.00344739 2.96791e-19)
(-0.158598 0.0019153 -1.48905e-19)
(-0.157807 0.000365241 0)
(-0.156061 -0.00118261 0)
(-0.153271 -0.00271001 1.52753e-19)
(-0.149366 -0.00419142 -1.33505e-22)
(-0.144267 -0.00559826 0)
(-0.137891 -0.00689796 6.40787e-19)
(-0.13015 -0.00805691 0)
(-0.120958 -0.00903375 6.68721e-19)
(-0.110217 -0.00979085 0)
(-0.097849 -0.0102741 0)
(-0.0837383 -0.0104475 0)
(-0.0678529 -0.0102358 1.49085e-18)
(-0.050009 -0.00961578 0)
(-0.0303384 -0.00848429 0)
(-0.0084072 -0.0068287 -1.63486e-18)
(0.015169 -0.00452773 0)
(0.0414958 -0.0016055 0)
(0.069126 0.00212269 1.78622e-18)
(0.100323 0.00651142 -1.83991e-18)
(0.13193 0.011983 -1.88704e-18)
(0.168773 0.0180673 0)
(0.203929 0.0256505 0)
(0.248146 0.0336265 0)
(0.285726 0.0438246 4.01448e-18)
(0.341337 0.0539595 4.10144e-18)
(0.378516 0.0674788 3.90957e-18)
(0.454761 0.0804871 0)
(0.48493 0.0981198 3.32748e-18)
(0.603759 0.116449 7.78006e-18)
(0.609974 0.136494 0)
(0.841337 0.169657 -3.65577e-18)
(0.83649 -0.0599342 -2.63414e-19)
(0.0437223 0.039567 5.03064e-18)
(0.0473179 -0.0205468 -4.73937e-18)
(-0.0748922 0.0221077 0)
(-0.0010722 0.00323306 0)
(-0.0483415 0.0113502 0)
(-0.0296178 0.00687625 0)
(-0.0474008 0.00995142 0)
(-0.0464718 0.010488 0)
(-0.0582947 0.0118034 3.41828e-18)
(-0.0638397 0.0128166 3.24243e-18)
(-0.0727239 0.0129855 0)
(-0.0782887 0.0130676 0)
(-0.0840933 0.0127681 0)
(-0.0889385 0.0129649 1.3857e-18)
(-0.0950705 0.0134779 0)
(-0.102391 0.0142132 1.31356e-18)
(-0.110743 0.0145256 -1.27867e-18)
(-0.11885 0.0142685 0)
(-0.126177 0.0135475 -1.21022e-18)
(-0.132554 0.0126265 0)
(-0.138089 0.0115998 -5.78405e-19)
(-0.142819 0.0104791 1.13661e-18)
(-0.146779 0.00924627 5.60281e-19)
(-0.149977 0.00791357 0)
(-0.152404 0.0064902 2.7495e-19)
(-0.154035 0.00499097 0)
(-0.154844 0.00342971 2.73118e-19)
(-0.154793 0.00182263 0)
(-0.153844 0.000189987 0)
(-0.151935 -0.00144561 0)
(-0.148986 -0.00306489 1.39137e-19)
(-0.144925 -0.0046436 -5.62773e-19)
(-0.139672 -0.00615339 0)
(-0.133145 -0.00756145 -2.8969e-19)
(-0.125256 -0.00883387 0)
(-0.115918 -0.00992865 -6.01407e-19)
(-0.105033 -0.0108074 0)
(-0.0925231 -0.011415 0)
(-0.0782726 -0.0117139 0)
(-0.0622484 -0.0116277 1.32067e-18)
(-0.0442695 -0.0111298 0)
(-0.0244579 -0.0101177 1.39291e-18)
(-0.00240386 -0.00857173 -1.43082e-18)
(0.0213499 -0.00637206 0)
(0.0478114 -0.00354414 -1.50773e-18)
(0.075686 0.000111271 -3.09553e-18)
(0.107005 0.00442708 1.58896e-18)
(0.138922 0.00986316 3.24096e-18)
(0.175853 0.0158887 -3.30728e-18)
(0.211439 0.0234889 -3.34333e-18)
(0.255664 0.0313887 0)
(0.293903 0.0416924 -3.37767e-18)
(0.34935 0.0516466 -3.4274e-18)
(0.387635 0.0654613 -3.21288e-18)
(0.463333 0.0779607 0)
(0.495343 0.0962962 0)
(0.61279 0.113283 -3.12032e-18)
(0.622659 0.13459 0)
(0.847985 0.163013 2.77155e-18)
(0.86151 -0.0344722 -2.46472e-19)
(0.153197 0.0356393 -8.98723e-20)
(0.054272 -0.014767 4.69724e-18)
(-0.0861997 0.0249942 5.09451e-18)
(-0.0034048 0.00314381 0)
(-0.0490221 0.012078 -4.32286e-18)
(-0.0306602 0.00731196 0)
(-0.0477921 0.0104718 0)
(-0.0467337 0.0110971 0)
(-0.057999 0.012408 3.30823e-18)
(-0.0632591 0.0134121 -3.12643e-18)
(-0.0718727 0.0135006 0)
(-0.0774257 0.0135144 0)
(-0.0833028 0.0131862 0)
(-0.0882133 0.0134356 -1.32427e-18)
(-0.0941965 0.0140561 0)
(-0.101118 0.0148829 -1.25317e-18)
(-0.108939 0.015208 1.21812e-18)
(-0.116576 0.0148913 0)
(-0.123559 0.0140832 0)
(-0.129686 0.0130785 5.5865e-19)
(-0.135013 0.011976 5.45542e-19)
(-0.139552 0.0107845 -1.06941e-18)
(-0.143335 0.009484 -5.25909e-19)
(-0.146364 0.0080844 0)
(-0.148631 0.00659321 2.56922e-19)
(-0.150109 0.00502434 0)
(-0.150772 0.003391 -2.54221e-19)
(-0.150581 0.0017091 1.26969e-19)
(-0.149495 -3.42685e-06 0)
(-0.147449 -0.00172548 0)
(-0.144368 -0.00343719 -2.56951e-19)
(-0.14018 -0.0051143 2.59294e-19)
(-0.134806 -0.00672868 0)
(-0.128163 -0.00824742 -2.65596e-19)
(-0.120162 -0.00963637 0)
(-0.110718 -0.010853 5.48805e-19)
(-0.0997309 -0.0118582 0)
(-0.0871244 -0.0125959 0)
(-0.0727817 -0.0130268 0)
(-0.0566688 -0.0130742 -1.19524e-18)
(-0.0386076 -0.0127066 -1.22258e-18)
(-0.0187103 -0.0118243 -1.2538e-18)
(0.00341174 -0.0103986 1.75835e-21)
(0.027277 -0.00831495 -1.31092e-18)
(0.0538024 -0.00559383 1.34453e-18)
(0.0818235 -0.00203286 2.74598e-18)
(0.113182 0.00219858 0)
(0.145288 0.00756663 -1.42788e-18)
(0.182212 0.0135272 2.90568e-18)
(0.218072 0.0210894 2.92444e-18)
(0.262203 0.0289259 0)
(0.300895 0.0392312 0)
(0.356069 0.0490723 0)
(0.395168 0.0629685 2.74839e-18)
(0.470227 0.0751684 0)
(0.5037 0.0937466 0)
(0.619685 0.109931 2.56972e-18)
(0.632661 0.131534 -8.71143e-19)
(0.852308 0.156623 -2.25212e-18)
(0.880293 -0.0137347 -2.28014e-19)
(0.250955 0.0348612 -4.63455e-18)
(0.0816282 -0.00990856 0)
(-0.0884487 0.0268301 -5.07177e-18)
(-0.00568532 0.00283726 -4.56706e-18)
(-0.0492097 0.012684 2.81793e-22)
(-0.0311767 0.00761589 0)
(-0.0477209 0.0109138 0)
(-0.0465004 0.0115817 0)
(-0.0572524 0.0129291 -3.21465e-18)
(-0.0622404 0.0139184 0)
(-0.0706154 0.01396 0)
(-0.0761605 0.013915 1.37094e-18)
(-0.0821018 0.0135675 0)
(-0.0870581 0.0138565 0)
(-0.0928847 0.0145663 0)
(-0.0994233 0.0154703 0)
(-0.106748 0.0158117 -1.16763e-18)
(-0.113947 0.0154495 0)
(-0.120605 0.0145692 1.09607e-18)
(-0.126487 0.0134899 -5.3217e-19)
(-0.131609 0.0123168 -5.18627e-19)
(-0.135962 0.0110583 1.01442e-18)
(-0.139573 0.00969319 9.95721e-19)
(-0.14244 0.00822939 0)
(-0.144552 0.00667283 -2.42351e-19)
(-0.145885 0.00503656 0)
(-0.14641 0.00333308 0)
(-0.146087 0.00157758 -2.38379e-19)
(-0.144872 -0.000213317 0)
(-0.142702 -0.00202017 0)
(-0.139503 -0.00382306 2.39992e-19)
(-0.135203 -0.00559767 0)
(-0.129724 -0.00731604 0)
(-0.122983 -0.00894523 2.46954e-19)
(-0.114891 -0.0104508 0)
(-0.105361 -0.01179 -5.08547e-19)
(-0.0942953 -0.0129226 0)
(-0.081616 -0.013792 0)
(-0.0672067 -0.0143568 0)
(-0.0510322 -0.0145402 0)
(-0.0329173 -0.014306 1.12211e-18)
(-0.0129643 -0.0135573 1.14557e-18)
(0.00919612 -0.0122565 1.47321e-21)
(0.0331343 -0.0102953 1.19494e-18)
(0.0596857 -0.00768678 1.21853e-18)
(0.0877972 -0.00423073 -1.24363e-18)
(0.119153 -8.92833e-05 0)
(0.151377 0.00519428 -1.28126e-18)
(0.18825 0.0110866 1.29889e-18)
(0.224295 0.0185822 -2.60315e-18)
(0.268286 0.026362 0)
(0.30731 0.0366127 0)
(0.362175 0.0463773 -2.57989e-18)
(0.401917 0.0602357 -2.39091e-18)
(0.476326 0.0722545 2.44049e-18)
(0.511029 0.0908223 1.91346e-18)
(0.625587 0.106504 -2.21356e-18)
(0.64128 0.1279 7.40442e-19)
(0.855665 0.150516 0)
(0.895361 0.00500896 -2.04975e-19)
(0.337853 0.0365272 0)
(0.120474 -0.00465033 4.48248e-18)
(-0.0789079 0.0276384 5.00703e-18)
(-0.00787252 0.00259826 -5.05165e-22)
(-0.0490983 0.0131812 4.21915e-18)
(-0.0313076 0.00782297 0)
(-0.0473401 0.0112959 0)
(-0.0459253 0.0119742 0)
(-0.0562016 0.0133847 1.56835e-18)
(-0.0609201 0.0143592 1.47336e-18)
(-0.0690737 0.0143783 0)
(-0.0746048 0.0142841 -1.32799e-18)
(-0.0805991 0.0139229 1.27419e-18)
(-0.0855851 0.0142392 0)
(-0.0912527 0.0150199 0)
(-0.0974235 0.0159872 0)
(-0.104278 0.0163466 -1.11751e-22)
(-0.111057 0.0159506 0)
(-0.117397 0.01501 -2.10508e-18)
(-0.123035 0.0138639 5.1017e-19)
(-0.127951 0.0126248 4.96201e-19)
(-0.132118 0.0113024 1.10615e-23)
(-0.135559 0.00987548 -4.74731e-19)
(-0.138266 0.0083498 0)
(-0.140227 0.00673003 0)
(-0.141417 0.00502839 0)
(-0.141806 0.00325666 1.13278e-19)
(-0.141356 0.00142914 2.25704e-19)
(-0.140017 -0.000438693 0)
(-0.137729 -0.00232866 0)
(-0.13442 -0.00422108 -2.26322e-19)
(-0.130017 -0.0060917 -1.13806e-19)
(-0.124443 -0.00791273 0)
(-0.117615 -0.00965126 0)
(-0.109442 -0.0112726 0)
(-0.0998406 -0.0127336 0)
(-0.08871 -0.0139933 0)
(-0.0759731 -0.0149943 0)
(-0.0615134 -0.0156933 0)
(-0.045295 -0.0160135 0)
(-0.0271446 -0.0159136 0)
(-0.00715579 -0.0153001 -1.13662e-21)
(0.0150235 -0.0141267 1.08439e-18)
(0.0390077 -0.0122912 0)
(0.0655605 -0.00979849 -2.24802e-18)
(0.0937245 -0.00645308 -1.14166e-18)
(0.125051 -0.00240516 0)
(0.157346 0.00278456 1.17403e-18)
(0.19414 0.00860598 -1.1869e-18)
(0.230309 0.0160183 2.37136e-18)
(0.274138 0.0237434 -2.37602e-18)
(0.313411 0.0339073 0)
(0.367956 0.0436137 7.65749e-21)
(0.40822 0.0573653 2.14445e-18)
(0.481993 0.0692675 -4.35024e-18)
(0.517758 0.0876796 -1.35356e-20)
(0.630954 0.103026 -1.9297e-18)
(0.649053 0.123943 6.08711e-19)
(0.858554 0.144638 1.60648e-18)
(0.907668 0.0222993 -7.39542e-19)
(0.414793 0.0400879 0)
(0.166671 0.00130046 9.94456e-21)
(-0.0573549 0.0278126 -3.28877e-21)
(-0.00940554 0.00264999 4.59612e-18)
(-0.0487562 0.0135772 4.19388e-18)
(-0.0311155 0.00795144 0)
(-0.0467201 0.0116272 3.54167e-18)
(-0.0450832 0.012292 0)
(-0.0549173 0.0137848 -1.53559e-18)
(-0.0593642 0.014747 7.64779e-23)
(-0.0673054 0.0147633 -1.36037e-18)
(-0.0728114 0.014629 0)
(-0.0788462 0.0142578 -2.47616e-18)
(-0.0838484 0.0145899 0)
(-0.0893577 0.0154242 0)
(-0.0951758 0.016442 0)
(-0.101581 0.0168201 1.0882e-18)
(-0.107953 0.0163999 0)
(-0.113976 0.0154095 1.0157e-18)
(-0.119368 0.0142035 -9.83129e-19)
(-0.124075 0.0129026 0)
(-0.128056 0.0115193 4.40215e-24)
(-0.131324 0.0100328 0)
(-0.133871 0.00844724 0)
(-0.135682 0.00676618 -2.20444e-19)
(-0.136729 0.00500099 0)
(-0.136984 0.00316272 -2.1632e-19)
(-0.136407 0.00126475 -1.07634e-19)
(-0.134947 -0.000678603 -2.68266e-20)
(-0.132545 -0.00265013 2.68229e-20)
(-0.12913 -0.00463049 1.07583e-19)
(-0.12463 -0.00659559 2.16167e-19)
(-0.118966 -0.00851786 0)
(-0.112057 -0.0103644 2.19652e-19)
(-0.103813 -0.0121005 0)
(-0.094148 -0.0136823 0)
(-0.0829622 -0.0150683 0)
(-0.0701785 -0.0162005 4.63842e-19)
(-0.0556803 -0.0170333 0)
(-0.0394305 -0.0174903 0)
(-0.0212581 -0.0175252 9.78522e-19)
(-0.00124796 -0.0170474 -9.97464e-19)
(0.0209357 -0.0160031 0)
(0.0449449 -0.0142951 0)
(0.0714812 -0.0119201 1.04947e-18)
(0.0996692 -0.00868871 1.06465e-18)
(0.130947 -0.00473663 -1.07768e-18)
(0.163277 0.000353413 0)
(0.199975 0.00610185 0)
(0.23622 0.0134203 0)
(0.279874 0.0210915 5.36614e-21)
(0.319332 0.0311479 0)
(0.373555 0.0408066 2.12269e-18)
(0.414249 0.0544078 0)
(0.48741 0.0662328 1.97268e-18)
(0.524103 0.0843967 -1.521e-18)
(0.636004 0.0995111 3.46441e-18)
(0.656249 0.119789 -5.43154e-19)
(0.861195 0.138957 -1.43145e-18)
(0.917704 0.0379314 1.70984e-19)
(0.482651 0.0450068 -4.04871e-18)
(0.217453 0.0079108 -4.23347e-18)
(-0.0267981 0.0281313 -3.28005e-21)
(-0.00910538 0.00314677 -4.61136e-18)
(-0.0481642 0.0139001 -4.18873e-18)
(-0.0306234 0.00801236 0)
(-0.0458932 0.0119131 -3.50161e-18)
(-0.0440126 0.0125456 0)
(-0.0534365 0.0141357 -1.50863e-18)
(-0.0576073 0.0150892 -1.41002e-18)
(-0.0653403 0.0151192 1.33059e-18)
(-0.0708076 0.0149535 -1.26194e-18)
(-0.0768697 0.014575 1.20768e-18)
(-0.0818764 0.0149126 -1.16328e-18)
(-0.0872301 0.0157845 1.12665e-18)
(-0.092711 0.0168405 0)
(-0.0986846 0.0172371 0)
(-0.104659 0.016801 0)
(-0.110366 0.0157701 4.92163e-19)
(-0.115506 0.0145104 4.75737e-19)
(-0.12 0.0131516 0)
(-0.123792 0.0117102 -4.49267e-19)
(-0.126887 0.0101662 0)
(-0.129272 0.00852274 0)
(-0.13093 0.00678211 2.12121e-19)
(-0.131835 0.00495501 -2.09564e-19)
(-0.131955 0.00305175 1.0388e-19)
(-0.13125 0.0010848 0)
(-0.129671 -0.000932658 5.14362e-20)
(-0.127156 -0.00298424 -5.13838e-20)
(-0.123637 -0.00505098 0)
(-0.119043 -0.00710906 -1.03347e-19)
(-0.113294 -0.00913112 2.07895e-19)
(-0.106309 -0.0110844 -2.09712e-19)
(-0.0979984 -0.0129338 0)
(-0.088276 -0.0146354 0)
(-0.0770424 -0.0161467 0)
(-0.0642199 -0.0174093 -4.41284e-19)
(-0.049692 -0.0183754 0)
(-0.0334208 -0.0189689 0)
(-0.015237 -0.0191387 -9.28166e-19)
(0.00478272 -0.0187968 0)
(0.0269587 -0.0178825 9.5845e-19)
(0.0509757 -0.0163033 -9.72857e-19)
(0.0774811 -0.0140469 0)
(0.10567 -0.0109318 1.00013e-18)
(0.136884 -0.00707718 2.02544e-18)
(0.169221 -0.0020907 -1.01784e-18)
(0.205808 0.00358313 0)
(0.242093 0.0108006 0)
(0.285561 0.0184178 1.02094e-18)
(0.325153 0.0283524 0)
(0.379055 0.0379699 1.95686e-18)
(0.420104 0.0513905 0)
(0.492676 0.0631641 1.80293e-18)
(0.530186 0.0810162 1.37326e-18)
(0.640858 0.095969 -1.57908e-18)
(0.663023 0.115507 0)
(0.863701 0.13345 1.276e-18)
(0.925876 0.0519114 4.06938e-20)
(0.542274 0.0508339 7.39864e-20)
(0.270655 0.0150674 4.13857e-18)
(0.0107824 0.0290809 -3.44732e-21)
(-0.00582415 0.0041772 -5.9398e-22)
(-0.0471963 0.0142017 0)
(-0.0298263 0.00801463 0)
(-0.0448696 0.012157 0)
(-0.0427318 0.0127415 -1.5946e-18)
(-0.0517781 0.0144412 2.97295e-18)
(-0.0556677 0.0153899 0)
(-0.0631941 0.0154483 1.30584e-18)
(-0.0686076 0.0152592 -4.56744e-23)
(-0.0746834 0.014876 -1.1821e-18)
(-0.0796841 0.0152097 -3.6311e-23)
(-0.0848865 0.0161043 -1.10014e-18)
(-0.0900459 0.0171871 0)
(-0.0956054 0.0176013 0)
(-0.101189 0.0171563 0)
(-0.106578 0.016093 -4.78626e-19)
(-0.111462 0.0147856 0)
(-0.115739 0.0133729 4.47799e-19)
(-0.119338 0.0118758 4.35516e-19)
(-0.122256 0.0102765 -4.25247e-19)
(-0.124476 0.00857678 0)
(-0.12598 0.00677818 0)
(-0.12674 0.0048907 2.02437e-19)
(-0.126724 0.00292394 0)
(-0.125891 0.000889402 9.9568e-20)
(-0.124191 -0.00120074 -2.4785e-20)
(-0.121564 -0.00333088 2.47416e-20)
(-0.117943 -0.00548244 -9.90163e-20)
(-0.113256 -0.00763197 0)
(-0.107424 -0.00975233 -1.99819e-19)
(-0.100366 -0.0118109 0)
(-0.0919932 -0.0137723 0)
(-0.0822184 -0.0155925 4.1092e-19)
(-0.0709424 -0.017228 0)
(-0.0580877 -0.01862 0)
(-0.0435374 -0.0197186 0)
(-0.027253 -0.020448 0)
(-0.00906669 -0.0207525 0)
(0.0109525 -0.0205464 0)
(0.0331103 -0.0197627 -1.82651e-18)
(0.05712 -0.0183128 9.26492e-19)
(0.0835822 -0.0161758 9.38444e-19)
(0.111752 -0.0131783 -1.89877e-18)
(0.142889 -0.00942232 -9.59833e-19)
(0.175209 -0.00454212 9.63841e-19)
(0.211673 0.0010557 -9.66474e-19)
(0.247966 0.00816703 0)
(0.291241 0.0157296 2.12548e-21)
(0.330925 0.0255322 -1.843e-18)
(0.384508 0.0351122 -1.83421e-18)
(0.425849 0.0483301 -1.65962e-18)
(0.497853 0.06007 -3.35441e-18)
(0.536085 0.0775641 -1.27432e-18)
(0.645587 0.0924051 1.44475e-18)
(0.669473 0.111137 4.15693e-19)
(0.86614 0.128099 -1.17403e-18)
(0.932555 0.0644418 -1.49135e-19)
(0.594464 0.0572254 3.86795e-18)
(0.324584 0.0226448 2.396e-21)
(0.0545305 0.0307307 -3.82709e-21)
(0.00148638 0.00607883 4.54372e-18)
(-0.0455618 0.0145524 4.23472e-18)
(-0.0286915 0.00796965 -3.77586e-18)
(-0.0436427 0.0123617 1.72755e-18)
(-0.0412455 0.0128841 -5.97671e-23)
(-0.0499497 0.0147041 -1.46877e-18)
(-0.053554 0.0156515 -1.36653e-18)
(-0.060874 0.0157515 -1.28513e-18)
(-0.0662178 0.0155467 2.43068e-18)
(-0.0722936 0.0151612 -4.07101e-23)
(-0.077279 0.0154829 1.11513e-18)
(-0.0823353 0.0163866 0)
(-0.0871891 0.017485 1.04218e-18)
(-0.0923511 0.0179153 0)
(-0.097551 0.0174671 -9.69762e-19)
(-0.10262 0.016379 -4.66969e-19)
(-0.107243 0.0150295 -4.50506e-19)
(-0.111298 0.0135665 2.66655e-24)
(-0.114699 0.0120166 -4.23722e-19)
(-0.117437 0.0103639 4.13382e-19)
(-0.119489 0.00860957 0)
(-0.120836 0.00675453 -1.98992e-19)
(-0.121448 0.00480813 0)
(-0.121293 0.00277929 0)
(-0.120331 0.000678545 -9.64556e-20)
(-0.118509 -0.00148286 0)
(-0.11577 -0.00369005 0)
(-0.112046 -0.00592488 9.57497e-20)
(-0.107267 -0.00816429 0)
(-0.101354 -0.0103814 0)
(-0.0942257 -0.0125437 1.94209e-19)
(-0.0857928 -0.0146157 0)
(-0.0759693 -0.0165531 -3.96247e-19)
(-0.0646555 -0.0183116 0)
(-0.0517739 -0.0198319 4.0632e-19)
(-0.0372075 -0.0210621 0)
(-0.0209169 -0.0219266 0)
(-0.002736 -0.0223655 0)
(0.0172736 -0.0222949 0)
(0.0394036 -0.021642 8.75749e-19)
(0.0633924 -0.0203217 0)
(0.0898002 -0.0183043 -1.79628e-18)
(0.117935 -0.0154252 9.07454e-19)
(0.148983 -0.0117687 -9.14417e-19)
(0.181263 -0.00699672 9.16593e-19)
(0.217595 -0.00147616 9.20568e-19)
(0.253868 0.00552516 0)
(0.296943 0.0130323 9.06347e-19)
(0.33668 0.022695 2.61631e-18)
(0.389948 0.0322394 -1.72418e-18)
(0.431525 0.0452381 1.56464e-18)
(0.502982 0.056956 1.57479e-18)
(0.54185 0.0740579 0)
(0.650237 0.0888231 -1.35132e-18)
(0.675665 0.106707 -7.62926e-19)
(0.868551 0.122889 0)
(0.938053 0.0757252 5.51697e-19)
(0.639976 0.0639154 0)
(0.377912 0.0305199 1.25215e-22)
(0.102621 0.0332462 -4.32359e-21)
(0.0156143 0.00844086 -4.46456e-18)
(-0.0426904 0.0150551 -8.54691e-18)
(-0.0271463 0.00789782 7.5865e-18)
(-0.0421898 0.0125297 -1.7239e-18)
(-0.0395474 0.0129768 1.57071e-18)
(-0.0479505 0.0149262 0)
(-0.0512674 0.0158756 -5.1323e-23)
(-0.0583812 0.0160291 0)
(-0.0636396 0.015816 -2.39536e-18)
(-0.069702 0.0154309 1.14228e-18)
(-0.0746632 0.0157333 0)
(-0.0795793 0.0166336 0)
(-0.084144 0.0177372 -1.02216e-18)
(-0.088925 0.0181814 0)
(-0.0937483 0.0177347 9.49444e-19)
(-0.0984961 0.0166285 4.56839e-19)
(-0.102853 0.0152423 -7.0095e-24)
(-0.106679 0.0137328 -4.25932e-19)
(-0.109879 0.0121326 -4.13541e-19)
(-0.112432 0.0104284 0)
(-0.114313 0.00862111 0)
(-0.115499 0.00671112 1.93823e-19)
(-0.115961 0.00470723 0)
(-0.115665 0.00261769 9.45185e-20)
(-0.11457 0.00045212 -9.37581e-20)
(-0.112625 -0.00177912 2.33055e-20)
(-0.109772 -0.00406184 -2.32368e-20)
(-0.105946 -0.00637837 9.29139e-20)
(-0.101074 -0.00870606 -9.31063e-20)
(-0.0950807 -0.0110183 1.87023e-19)
(-0.0878832 -0.0132828 -1.88302e-19)
(-0.0793926 -0.0154639 0)
(-0.0695235 -0.0175171 0)
(-0.0581756 -0.0193971 0)
(-0.0452718 -0.0210446 -2.07458e-22)
(-0.0306948 -0.0224053 3.98534e-19)
(-0.0144044 -0.023404 0)
(0.003764 -0.0239767 0)
(0.0237553 -0.024041 0)
(0.0458486 -0.0235188 0)
(0.0698041 -0.022328 0)
(0.0961471 -0.0204303 8.39494e-22)
(0.12423 -0.0176701 0)
(0.155179 -0.0141139 1.75638e-18)
(0.1874 -0.00945146 -1.75824e-18)
(0.223589 -0.00400931 -8.79606e-19)
(0.259818 0.00287911 0)
(0.302686 0.0103296 0)
(0.342443 0.0198464 -1.65868e-18)
(0.395396 0.0293559 4.42246e-21)
(0.437162 0.0421226 -1.47468e-18)
(0.508088 0.0538261 1.48179e-18)
(0.547518 0.0705099 1.10453e-18)
(0.654838 0.085226 -1.26043e-18)
(0.681648 0.102235 6.97174e-19)
(0.870961 0.117806 1.00354e-18)
(0.942621 0.0859114 1.31896e-19)
(0.679519 0.0706948 -3.59549e-18)
(0.429624 0.0385776 -7.78361e-18)
(0.153603 0.0366819 -4.95087e-21)
(0.0366579 0.0112302 4.37089e-18)
(-0.0375485 0.015847 4.30395e-18)
(-0.0250528 0.00783864 -1.91089e-18)
(-0.0404689 0.012665 0)
(-0.0376201 0.0130224 0)
(-0.0457718 0.015109 1.44554e-18)
(-0.0488036 0.0160629 1.33848e-18)
(-0.0557126 0.0162808 0)
(-0.0608704 0.0160665 1.18315e-18)
(-0.0669062 0.0156846 0)
(-0.0718353 0.0159618 0)
(-0.0766177 0.0168474 0)
(-0.0809097 0.0179461 0)
(-0.0853265 0.0184013 9.68712e-19)
(-0.0897806 0.01796 4.65929e-19)
(-0.094206 0.0168417 -4.48073e-19)
(-0.0982911 0.015424 -4.85409e-24)
(-0.101885 0.0138716 0)
(-0.104877 0.0122236 4.04754e-19)
(-0.107242 0.01047 0)
(-0.108947 0.00861132 0)
(-0.109969 0.00664784 1.89332e-19)
(-0.110277 0.00458784 -1.86576e-19)
(-0.109837 0.00243898 -9.22591e-20)
(-0.108607 0.000209955 9.14689e-20)
(-0.106537 -0.00208969 -4.5448e-20)
(-0.103569 -0.00444642 4.52942e-20)
(-0.0996387 -0.00684305 -9.05295e-20)
(-0.094675 -0.0092574 9.06817e-20)
(-0.0886006 -0.0116632 -5.86295e-23)
(-0.0813347 -0.0140282 -1.83127e-19)
(-0.0727882 -0.0163167 0)
(-0.0628758 -0.0184842 0)
(-0.0514972 -0.0204844 0)
(-0.0385753 -0.0222577 -7.63617e-19)
(-0.0239927 -0.0237478 -3.87107e-19)
(-0.00770825 -0.0248796 0)
(0.0104408 -0.0255854 0)
(0.0304056 -0.0257839 -8.0612e-19)
(0.0524537 -0.0253922 0)
(0.0763641 -0.0243307 0)
(0.102632 -0.0225525 1.67053e-18)
(0.130649 -0.0199114 -8.41208e-19)
(0.161488 -0.0164559 -1.69443e-18)
(0.193633 -0.011904 1.11338e-21)
(0.229668 -0.00654132 1.69417e-18)
(0.265831 0.000231941 8.34195e-19)
(0.308485 0.00762436 0)
(0.348232 0.0169906 7.94773e-19)
(0.40087 0.0264647 1.56877e-18)
(0.442781 0.0389894 1.40974e-18)
(0.513191 0.0506835 -1.41418e-18)
(0.553115 0.0669292 -1.05093e-18)
(0.65941 0.0816161 1.19741e-18)
(0.687458 0.0977346 -3.25437e-19)
(0.873388 0.112841 -9.50142e-19)
(0.946467 0.0951218 1.24657e-19)
(0.713755 0.0774039 3.56461e-18)
(0.478962 0.0467073 3.65498e-21)
(0.206299 0.0409897 -5.6562e-21)
(0.0637098 0.0147246 0)
(-0.0285196 0.0168627 0)
(-0.0221638 0.00786008 2.59317e-22)
(-0.0384106 0.0127753 0)
(-0.0354341 0.013024 0)
(-0.0433978 0.0152539 6.19974e-23)
(-0.0461524 0.0162139 0)
(-0.0528606 0.0165063 0)
(-0.0579042 0.0162974 1.17147e-18)
(-0.0639011 0.015922 0)
(-0.0687907 0.0161689 0)
(-0.0734462 0.0170297 0)
(-0.0774825 0.0181139 0)
(-0.0815522 0.0185768 1.00879e-23)
(-0.0856453 0.0181437 -4.58299e-19)
(-0.0897481 0.0170187 8.80927e-19)
(-0.0935575 0.0155743 -3.62076e-24)
(-0.0969133 0.0139828 4.09572e-19)
(-0.0996937 0.0122897 0)
(-0.101865 0.0104885 3.86656e-19)
(-0.103391 0.00858004 0)
(-0.104245 0.0065645 -1.85484e-19)
(-0.104395 0.00444977 2.10785e-23)
(-0.103808 0.00224294 0)
(-0.102441 -4.81637e-05 0)
(-0.100243 -0.00241478 4.27866e-24)
(-0.0971584 -0.00484398 -4.85976e-24)
(-0.0931223 -0.00731911 4.42165e-20)
(-0.0880652 -0.00981845 0)
(-0.0819099 -0.012316 -1.77786e-19)
(-0.0745762 -0.0147799 1.78808e-19)
(-0.065975 -0.0171743 0)
(-0.0560213 -0.0194544 -3.63625e-19)
(-0.0446148 -0.0215732 0)
(-0.0316786 -0.0234709 1.71103e-22)
(-0.0170951 -0.0250891 0)
(-0.000822275 -0.0263529 3.82076e-19)
(0.0173009 -0.027191 3.87157e-19)
(0.0372312 -0.0275229 4.93601e-22)
(0.0592256 -0.0272612 -7.93791e-19)
(0.08308 -0.0263285 0)
(0.109263 -0.0246697 -6.85248e-22)
(0.137201 -0.0221477 8.1674e-19)
(0.167919 -0.0187933 8.76922e-22)
(0.199971 -0.0143525 8.20405e-19)
(0.235842 -0.00907029 -1.13557e-21)
(0.271918 -0.00241394 -1.33992e-21)
(0.314351 0.00491892 0)
(0.354061 0.0141308 0)
(0.406382 0.0235684 0)
(0.448399 0.0358432 0)
(0.518305 0.0475303 0)
(0.558659 0.0633228 9.92864e-19)
(0.663967 0.0779957 0)
(0.693122 0.093217 0)
(0.875843 0.107984 -8.93659e-19)
(0.949759 0.10347 -5.93763e-19)
(0.743305 0.0839274 0)
(0.525385 0.0548024 5.14595e-21)
(0.259717 0.046064 -6.3827e-21)
(0.0961682 0.0189764 0)
(-0.0142597 0.0181495 2.13355e-18)
(-0.0180689 0.00804939 -1.95032e-18)
(-0.0359053 0.012875 0)
(-0.0329446 0.0129857 0)
(-0.0408035 0.0153626 -1.43701e-18)
(-0.0432984 0.0163289 0)
(-0.0498139 0.016705 0)
(-0.054732 0.0165078 -1.1623e-18)
(-0.0606787 0.0161425 0)
(-0.0655222 0.0163551 -1.05621e-18)
(-0.0700582 0.0171823 0)
(-0.0738559 0.0182429 0)
(-0.0775961 0.0187097 7.8763e-24)
(-0.0813374 0.0182866 0)
(-0.0851183 0.0171597 -4.33892e-19)
(-0.0886487 0.0156933 4.17485e-19)
(-0.0917616 0.0140662 -8.06021e-19)
(-0.0943254 0.0123305 3.90552e-19)
(-0.0962987 0.0104836 -3.80063e-19)
(-0.0976409 0.00852705 0)
(-0.0983235 0.00646089 -1.82125e-19)
(-0.0983128 0.00429279 3.58656e-19)
(-0.0975748 0.00202933 0)
(-0.0960671 -0.000322483 -4.38714e-20)
(-0.0937395 -0.00275463 2.1787e-20)
(-0.0905359 -0.00525475 -2.16976e-20)
(-0.0863927 -0.00780676 -4.33321e-20)
(-0.0812412 -0.0103894 0)
(-0.0750047 -0.0129771 -1.74034e-19)
(-0.0676033 -0.0155381 1.7498e-19)
(-0.0589483 -0.0180366 0)
(-0.0489551 -0.0204276 3.55896e-19)
(-0.0375235 -0.0226635 0)
(-0.0245765 -0.0246841 3.63979e-19)
(-0.0099966 -0.026429 0)
(0.00625937 -0.0278236 -3.73455e-19)
(0.0243503 -0.0287929 -3.7821e-19)
(0.0442382 -0.0292573 4.48088e-22)
(0.0661708 -0.0291251 7.74882e-19)
(0.0899583 -0.0283206 0)
(0.116047 -0.0267807 -7.90407e-19)
(0.143893 -0.0243776 0)
(0.174479 -0.0211246 7.99053e-19)
(0.206423 -0.0167954 0)
(0.24212 -0.0115946 -7.95588e-19)
(0.278089 -0.00505661 -1.56291e-18)
(0.320292 0.00221508 0)
(0.359939 0.0112695 0)
(0.411942 0.020669 0)
(0.454029 0.0326876 6.47397e-19)
(0.52344 0.0443687 0)
(0.564168 0.059696 -5.84662e-21)
(0.668522 0.0743664 0)
(0.698662 0.0886897 2.75691e-19)
(0.878336 0.103228 8.5651e-19)
(0.952637 0.11106 0)
(0.768746 0.0901865 3.36351e-18)
(0.568532 0.0627632 3.71643e-18)
(0.312992 0.0517697 -7.07813e-21)
(0.133284 0.0239335 0)
(0.00559849 0.0198339 -2.10301e-18)
(-0.0121872 0.00850014 0)
(-0.0327792 0.0129895 1.7598e-18)
(-0.030087 0.0129141 1.57581e-18)
(-0.0379531 0.015437 1.43818e-18)
(-0.0402191 0.0164084 1.32107e-18)
(-0.0465562 0.0168762 1.23093e-18)
(-0.0513409 0.0166967 0)
(-0.0572281 0.0163453 0)
(-0.06202 0.0165207 1.04725e-18)
(-0.0664441 0.0173065 0)
(-0.0700206 0.018335 0)
(-0.0734499 0.0188014 -9.29452e-19)
(-0.0768499 0.0183896 0)
(-0.0803109 0.0172647 -4.28258e-19)
(-0.0835596 0.0157807 0)
(-0.0864256 0.0141215 3.9736e-19)
(-0.0887685 0.0123458 -3.84888e-19)
(-0.0905397 0.0104553 0)
(-0.0916942 0.00845211 0)
(-0.0922013 0.00633676 1.44809e-23)
(-0.0920262 0.00411664 -1.76429e-19)
(-0.0911343 0.0017979 0)
(-0.0894831 -0.000613266 4.31337e-20)
(-0.0870228 -0.00310949 2.14066e-20)
(-0.083698 -0.005679 -2.13119e-20)
(-0.0794461 -0.00830625 0)
(-0.0741989 -0.0109705 0)
(-0.0678804 -0.0136466 4.58927e-23)
(-0.0604114 -0.016303 -5.04971e-23)
(-0.0517035 -0.0189037 0)
(-0.0416725 -0.021404 0)
(-0.0302181 -0.0237552 3.5264e-19)
(-0.0172637 -0.0258971 0)
(-0.00269176 -0.0277672 0)
(0.0135421 -0.0292913 0)
(0.0315944 -0.0303908 0)
(0.0514323 -0.0309867 7.49537e-19)
(0.0732947 -0.0309832 7.57779e-19)
(0.0970049 -0.0303062 0)
(0.122989 -0.0288848 0)
(0.15073 -0.0266003 7.7609e-19)
(0.181175 -0.0234488 0)
(0.212994 -0.0192316 0)
(0.248507 -0.0141131 -7.74141e-19)