/*--------------------------------*- C++ -*----------------------------------*\
| =========                 |                                                 |
| \\      /  F ield         | OpenFOAM: The Open Source CFD Toolbox           |
|  \\    /   O peration     | Version:  2.4.0                                 |
|   \\  /    A nd           | Web:      www.OpenFOAM.org                      |
|    \\/     M anipulation  |                                                 |
\*---------------------------------------------------------------------------*/
FoamFile
{
    version     2.0;
    format      ascii;
    class       volScalarField;
    location    "0.52";
    object      epsilon;
}
// * * * * * * * * * * * * * * * * * * * * * * * * * * * * * * * * * * * * * //

dimensions      [0 2 -3 0 0 0 0];

internalField   nonuniform List<scalar> 
6000
(
0.0973386
0.138493
0.180973
0.220958
0.255595
0.283297
0.303642
0.317081
0.324602
0.327409
0.326701
0.323545
0.318822
0.313217
0.307248
0.301281
0.29557
0.290271
0.285468
0.281183
0.277395
0.27405
0.271074
0.268391
0.265933
0.263644
0.261487
0.259438
0.257488
0.255632
0.253871
0.252208
0.250648
0.249199
0.247868
0.24666
0.245579
0.24462
0.243773
0.243017
0.242322
0.24165
0.240957
0.240194
0.239302
0.238219
0.236869
0.235164
0.232995
0.230225
0.226683
0.222147
0.216338
0.20889
0.199358
0.187125
0.171699
0.151944
0.129905
0.100289
0.0250664
0.0270522
0.0301033
0.0338733
0.0379298
0.0418881
0.0455264
0.0487638
0.0516063
0.0541085
0.0563475
0.0584027
0.0603433
0.0622217
0.0640714
0.0659077
0.0677295
0.069523
0.0712658
0.0729311
0.0744918
0.0759233
0.0772057
0.0783237
0.0792666
0.0800277
0.0806038
0.0809946
0.0812032
0.0812353
0.081099
0.0808051
0.0803671
0.0798031
0.079137
0.0783993
0.0776274
0.0768627
0.0761467
0.0755166
0.0750015
0.0746202
0.0743817
0.0742875
0.0743352
0.0745235
0.0748561
0.0753457
0.0760183
0.0769167
0.078106
0.0796829
0.0817903
0.0846456
0.0885884
0.0941781
0.102354
0.114789
0.133998
0.180992
0.0219104
0.0195999
0.0179097
0.0167133
0.0158961
0.0153457
0.01497
0.0147038
0.014505
0.0143498
0.0142285
0.0141404
0.0140902
0.0140844
0.0141299
0.0142324
0.0143957
0.0146219
0.0149108
0.0152602
0.0156654
0.0161197
0.0166143
0.0171383
0.0176794
0.0182246
0.0187611
0.019277
0.0197616
0.0202057
0.0206016
0.0209427
0.0212232
0.0214385
0.0215851
0.0216618
0.0216713
0.0216209
0.0215228
0.0213936
0.0212525
0.0211189
0.0210102
0.0209406
0.0209209
0.0209591
0.0210625
0.0212398
0.0215042
0.0218759
0.022387
0.0230872
0.0240545
0.0254147
0.0273789
0.0303146
0.0349133
0.0424439
0.0557794
0.0845961
0.0217582
0.0190981
0.0169124
0.0151094
0.0136187
0.0123813
0.011348
0.0104782
0.00973932
0.00910538
0.0085562
0.00807646
0.00765477
0.00728275
0.00695429
0.00666497
0.00641153
0.00619157
0.00600326
0.00584512
0.00571581
0.00561394
0.00553789
0.00548563
0.00545472
0.0054423
0.00544524
0.00546029
0.00548423
0.00551405
0.00554693
0.00558017
0.00561106
0.00563676
0.00565438
0.00566127
0.00565557
0.00563674
0.00560606
0.00556667
0.00552325
0.0054814
0.0054469
0.00542513
0.00542082
0.00543813
0.00548114
0.0055546
0.0056649
0.00582139
0.00603821
0.00633705
0.00675212
0.00733898
0.00819341
0.00948504
0.0115586
0.0150475
0.0217673
0.0353232
0.0217509
0.019066
0.0168344
0.0149634
0.0133833
0.0120402
0.0108917
0.00990392
0.00904964
0.00830677
0.0076573
0.00708648
0.00658228
0.00613481
0.00573596
0.00537907
0.00505864
0.00477013
0.00450978
0.00427446
0.00406156
0.00386886
0.00369444
0.00353659
0.00339376
0.00326451
0.0031475
0.00304149
0.00294535
0.00285807
0.00277879
0.00270668
0.00264098
0.0025809
0.00252564
0.00247438
0.00242642
0.00238128
0.00233881
0.00229922
0.00226308
0.00223123
0.00220461
0.00218422
0.002171
0.00216594
0.00217012
0.00218498
0.00221256
0.00225604
0.0023204
0.00241358
0.00254869
0.00274787
0.00305096
0.00353153
0.00434633
0.00579656
0.0088183
0.0149377
0.0217506
0.0190635
0.0168276
0.0149497
0.0133592
0.0120023
0.0108367
0.00982909
0.0089531
0.00818745
0.00751492
0.0069214
0.00639532
0.00592707
0.00550866
0.00513341
0.00479568
0.00449074
0.00421455
0.00396369
0.00373523
0.00352669
0.00333589
0.00316099
0.00300037
0.00285263
0.00271653
0.00259103
0.00247521
0.0023683
0.00226966
0.00217873
0.00209504
0.00201818
0.00194774
0.00188338
0.00182477
0.00177163
0.00172374
0.00168093
0.00164309
0.00161014
0.00158201
0.00155863
0.00153996
0.00152595
0.00151663
0.00151217
0.00151295
0.00151975
0.001534
0.00155822
0.00159685
0.00165788
0.00175646
0.00192227
0.00222177
0.00279498
0.00408639
0.00686955
0.0217505
0.019063
0.0168264
0.0149476
0.0133559
0.0119972
0.0108293
0.00981883
0.00893942
0.00816986
0.007493
0.00689487
0.00636398
0.00589083
0.00546752
0.00508744
0.00474499
0.00443547
0.00415487
0.00389975
0.00366718
0.00345462
0.00325991
0.00308116
0.00291673
0.00276522
0.0026254
0.00249623
0.00237681
0.00226639
0.00216433
0.00207009
0.00198322
0.00190334
0.00183013
0.0017633
0.00170257
0.00164771
0.00159848
0.00155465
0.00151601
0.00148229
0.00145324
0.00142857
0.00140801
0.00139124
0.00137801
0.0013681
0.00136138
0.0013579
0.00135792
0.00136217
0.00137209
0.00139054
0.00142317
0.00148169
0.00159309
0.00182029
0.0023635
0.00364848
0.0217505
0.0190628
0.0168258
0.0149465
0.0133545
0.0119955
0.0108272
0.00981625
0.00893631
0.00816615
0.00748859
0.00688968
0.00635793
0.00588386
0.00545957
0.00507847
0.00473497
0.0044244
0.00414273
0.00388655
0.00365294
0.00343937
0.00324367
0.00306394
0.00289857
0.00274615
0.00260547
0.00247547
0.00235527
0.00224411
0.00214134
0.00204645
0.00195897
0.00187854
0.00180483
0.00173756
0.00167647
0.00162132
0.00157187
0.00152787
0.00148907
0.00145516
0.00142586
0.00140083
0.00137972
0.00136217
0.00134785
0.00133643
0.00132764
0.00132128
0.00131729
0.00131581
0.00131732
0.00132292
0.0013349
0.00135813
0.00140377
0.00150006
0.0017338
0.00233772
0.0217505
0.0190626
0.0168253
0.0149458
0.0133535
0.0119943
0.0108258
0.00981472
0.00893466
0.00816437
0.0074867
0.00688766
0.00635578
0.00588157
0.00545712
0.00507585
0.00473218
0.00442142
0.00413955
0.00388318
0.00364937
0.00343559
0.00323968
0.00305976
0.00289419
0.00274158
0.00260072
0.00247055
0.00235019
0.00223889
0.002136
0.00204099
0.00195342
0.00187291
0.00179913
0.00173182
0.00167072
0.00161557
0.00156614
0.00152217
0.00148339
0.00144949
0.00142017
0.00139508
0.00137385
0.00135612
0.00134152
0.00132971
0.00132036
0.00131323
0.00130813
0.00130504
0.00130411
0.00130587
0.00131143
0.00132315
0.0013461
0.00139358
0.00150268
0.00179721
0.0217505
0.0190624
0.0168249
0.0149451
0.0133527
0.0119933
0.0108247
0.0098135
0.00893335
0.00816301
0.00748529
0.00688623
0.00635432
0.00588009
0.00545564
0.00507435
0.00473067
0.0044199
0.00413803
0.00388164
0.00364781
0.00343402
0.00323809
0.00305815
0.00289258
0.00273995
0.00259907
0.0024689
0.00234853
0.00223722
0.00213434
0.00203934
0.00195178
0.00187128
0.00179754
0.00173026
0.0016692
0.0016141
0.00156473
0.00152081
0.00148208
0.00144824
0.00141895
0.00139388
0.00137265
0.0013549
0.00134025
0.00132835
0.00131888
0.00131155
0.00130616
0.00130263
0.00130102
0.00130165
0.00130522
0.00131319
0.00132829
0.0013575
0.00141694
0.00157167
0.0217504
0.0190623
0.0168246
0.0149446
0.013352
0.0119925
0.0108237
0.00981245
0.00893224
0.00816185
0.0074841
0.00688502
0.00635311
0.00587888
0.00545443
0.00507316
0.00472949
0.00441874
0.00413688
0.00388051
0.0036467
0.00343293
0.00323703
0.00305711
0.00289155
0.00273895
0.00259809
0.00246793
0.00234759
0.00223631
0.00213345
0.00203848
0.00195095
0.00187049
0.00179679
0.00172956
0.00166854
0.00161349
0.00156417
0.00152031
0.00148163
0.00144784
0.00141859
0.00139356
0.00137236
0.00135462
0.00133998
0.00132807
0.00131858
0.00131121
0.00130576
0.00130212
0.00130032
0.00130061
0.00130355
0.00131024
0.00132252
0.00134465
0.00138409
0.00147547
0.0217504
0.0190622
0.0168243
0.0149442
0.0133514
0.0119917
0.0108229
0.00981155
0.00893128
0.00816084
0.00748307
0.00688397
0.00635206
0.00587783
0.00545339
0.00507213
0.00472848
0.00441774
0.00413591
0.00387956
0.00364577
0.00343203
0.00323614
0.00305625
0.00289071
0.00273813
0.0025973
0.00246717
0.00234685
0.0022356
0.00213276
0.00203782
0.00195033
0.00186991
0.00179624
0.00172905
0.00166807
0.00161307
0.0015638
0.00151998
0.00148135
0.0014476
0.0014184
0.00139339
0.00137222
0.00135451
0.00133989
0.001328
0.0013185
0.00131113
0.00130567
0.001302
0.00130015
0.00130032
0.00130303
0.00130922
0.00132036
0.00133946
0.00137043
0.00143245
0.0217504
0.0190622
0.0168241
0.0149439
0.0133509
0.0119911
0.0108222
0.00981078
0.00893045
0.00815997
0.00748218
0.00688306
0.00635114
0.00587691
0.00545248
0.00507123
0.0047276
0.00441687
0.00413505
0.00387873
0.00364496
0.00343123
0.00323537
0.0030555
0.00288998
0.00273743
0.00259661
0.00246651
0.00234622
0.00223499
0.00213218
0.00203727
0.0019498
0.00186941
0.00179578
0.00172862
0.00166769
0.00161273
0.00156349
0.00151972
0.00148112
0.00144741
0.00141824
0.00139327
0.00137213
0.00135444
0.00133983
0.00132795
0.00131847
0.00131111
0.00130565
0.00130197
0.00130009
0.00130022
0.00130281
0.00130873
0.00131928
0.00133684
0.0013638
0.00141144
0.0217504
0.0190621
0.0168239
0.0149436
0.0133505
0.0119906
0.0108216
0.00981011
0.00892973
0.00815922
0.0074814
0.00688227
0.00635034
0.00587611
0.00545168
0.00507044
0.00472682
0.00441611
0.00413431
0.003878
0.00364425
0.00343054
0.0032347
0.00305484
0.00288935
0.00273681
0.00259602
0.00246593
0.00234566
0.00223445
0.00213167
0.00203678
0.00194935
0.00186898
0.00179538
0.00172825
0.00166735
0.00161242
0.00156322
0.00151949
0.00148093
0.00144725
0.00141811
0.00139317
0.00137205
0.00135438
0.00133979
0.00132792
0.00131845
0.0013111
0.00130564
0.00130196
0.00130007
0.00130016
0.00130267
0.0013084
0.00131855
0.00133511
0.00135981
0.00139971
0.0217504
0.0190621
0.0168238
0.0149433
0.0133502
0.0119902
0.0108211
0.00980953
0.00892911
0.00815856
0.00748072
0.00688157
0.00634964
0.00587541
0.00545099
0.00506975
0.00472614
0.00441544
0.00413365
0.00387736
0.00364363
0.00342993
0.00323411
0.00305427
0.00288879
0.00273627
0.00259549
0.00246543
0.00234517
0.00223399
0.00213123
0.00203636
0.00194895
0.00186861
0.00179503
0.00172793
0.00166706
0.00161216
0.00156299
0.00151929
0.00148076
0.00144711
0.001418
0.00139308
0.00137198
0.00135433
0.00133976
0.0013279
0.00131844
0.00131109
0.00130563
0.00130195
0.00130005
0.0013001
0.00130255
0.00130813
0.00131795
0.00133375
0.0013569
0.00139211
0.0217504
0.019062
0.0168237
0.0149431
0.0133499
0.0119898
0.0108206
0.00980904
0.00892857
0.00815799
0.00748013
0.00688097
0.00634903
0.0058748
0.00545038
0.00506915
0.00472555
0.00441486
0.00413308
0.0038768
0.00364308
0.0034294
0.00323359
0.00305377
0.0028883
0.0027358
0.00259504
0.00246499
0.00234475
0.00223358
0.00213084
0.00203599
0.0019486
0.00186828
0.00179473
0.00172765
0.00166681
0.00161194
0.00156279
0.00151912
0.00148062
0.00144699
0.0014179
0.001393
0.00137192
0.00135429
0.00133973
0.00132789
0.00131843
0.00131109
0.00130563
0.00130195
0.00130003
0.00130006
0.00130244
0.00130788
0.00131742
0.00133259
0.00135453
0.00138652
0.0217504
0.019062
0.0168236
0.0149429
0.0133496
0.0119895
0.0108202
0.00980861
0.00892811
0.0081575
0.00747962
0.00688045
0.0063485
0.00587427
0.00544985
0.00506863
0.00472503
0.00441435
0.00413259
0.00387631
0.00364261
0.00342894
0.00323314
0.00305333
0.00288788
0.00273539
0.00259464
0.0024646
0.00234438
0.00223323
0.0021305
0.00203567
0.0019483
0.001868
0.00179447
0.00172741
0.00166659
0.00161174
0.00156262
0.00151897
0.00148049
0.00144689
0.00141782
0.00139294
0.00137188
0.00135426
0.00133971
0.00132787
0.00131843
0.00131109
0.00130563
0.00130195
0.00130002
0.00130002
0.00130235
0.00130766
0.00131695
0.00133157
0.00135251
0.00138209
0.0217504
0.019062
0.0168235
0.0149428
0.0133494
0.0119892
0.0108199
0.00980825
0.00892771
0.00815708
0.00747918
0.00688
0.00634805
0.00587381
0.0054494
0.00506818
0.00472458
0.00441391
0.00413216
0.00387589
0.0036422
0.00342854
0.00323275
0.00305295
0.00288751
0.00273503
0.0025943
0.00246427
0.00234406
0.00223292
0.00213021
0.0020354
0.00194804
0.00186776
0.00179424
0.00172721
0.0016664
0.00161158
0.00156248
0.00151885
0.00148039
0.0014468
0.00141776
0.00139289
0.00137184
0.00135424
0.0013397
0.00132787
0.00131843
0.00131109
0.00130564
0.00130195
0.00130001
0.00129999
0.00130226
0.00130747
0.00131653
0.00133067
0.00135075
0.00137842
0.0217504
0.019062
0.0168235
0.0149427
0.0133492
0.011989
0.0108197
0.00980794
0.00892737
0.00815672
0.00747881
0.00687962
0.00634766
0.00587342
0.00544901
0.00506779
0.0047242
0.00441354
0.00413179
0.00387554
0.00364185
0.0034282
0.00323242
0.00305263
0.0028872
0.00273473
0.00259401
0.00246399
0.00234379
0.00223266
0.00212996
0.00203516
0.00194782
0.00186755
0.00179405
0.00172704
0.00166625
0.00161144
0.00156236
0.00151874
0.0014803
0.00144674
0.0014177
0.00139285
0.00137182
0.00135422
0.00133969
0.00132787
0.00131843
0.0013111
0.00130564
0.00130195
0.00130001
0.00129996
0.00130219
0.0013073
0.00131617
0.0013299
0.00134923
0.00137535
0.0217504
0.019062
0.0168234
0.0149426
0.0133491
0.0119888
0.0108194
0.00980768
0.00892709
0.00815643
0.0074785
0.0068793
0.00634733
0.0058731
0.00544868
0.00506747
0.00472389
0.00441323
0.00413148
0.00387523
0.00364155
0.00342791
0.00323214
0.00305236
0.00288694
0.00273448
0.00259376
0.00246375
0.00234357
0.00223245
0.00212976
0.00203497
0.00194763
0.00186738
0.00179389
0.00172689
0.00166612
0.00161132
0.00156226
0.00151866
0.00148024
0.00144668
0.00141766
0.00139282
0.0013718
0.00135421
0.00133969
0.00132787
0.00131844
0.0013111
0.00130565
0.00130196
0.0013
0.00129994
0.00130213
0.00130716
0.00131586
0.00132924
0.00134795
0.00137279
0.0217504
0.019062
0.0168234
0.0149425
0.013349
0.0119887
0.0108192
0.00980748
0.00892687
0.00815618
0.00747824
0.00687904
0.00634707
0.00587283
0.00544842
0.0050672
0.00472363
0.00441297
0.00413123
0.00387499
0.00364131
0.00342768
0.00323191
0.00305214
0.00288672
0.00273427
0.00259356
0.00246356
0.00234338
0.00223227
0.00212959
0.00203481
0.00194748
0.00186724
0.00179377
0.00172677
0.00166601
0.00161123
0.00156218
0.00151859
0.00148018
0.00144664
0.00141763
0.00139281
0.00137179
0.00135421
0.00133969
0.00132788
0.00131845
0.00131112
0.00130567
0.00130197
0.00130001
0.00129993
0.00130208
0.00130704
0.0013156
0.0013287
0.00134688
0.00137068
0.0217504
0.0190619
0.0168234
0.0149424
0.0133489
0.0119885
0.0108191
0.00980731
0.00892669
0.00815599
0.00747804
0.00687883
0.00634686
0.00587262
0.00544821
0.005067
0.00472342
0.00441277
0.00413103
0.00387479
0.00364112
0.00342749
0.00323173
0.00305196
0.00288655
0.0027341
0.0025934
0.00246341
0.00234324
0.00223213
0.00212946
0.00203468
0.00194737
0.00186713
0.00179367
0.00172668
0.00166593
0.00161116
0.00156212
0.00151854
0.00148014
0.00144661
0.00141761
0.0013928
0.00137179
0.00135421
0.0013397
0.00132789
0.00131846
0.00131113
0.00130568
0.00130198
0.00130001
0.00129992
0.00130204
0.00130695
0.00131539
0.00132826
0.00134602
0.00136898
0.0217504
0.0190619
0.0168233
0.0149424
0.0133488
0.0119885
0.010819
0.00980719
0.00892656
0.00815585
0.00747789
0.00687868
0.00634671
0.00587247
0.00544805
0.00506684
0.00472327
0.00441262
0.00413088
0.00387465
0.00364098
0.00342736
0.0032316
0.00305183
0.00288643
0.00273398
0.00259329
0.0024633
0.00234313
0.00223203
0.00212936
0.00203459
0.00194728
0.00186706
0.00179359
0.00172662
0.00166588
0.00161111
0.00156208
0.00151851
0.00148012
0.0014466
0.00141761
0.00139279
0.00137179
0.00135422
0.00133971
0.0013279
0.00131848
0.00131115
0.0013057
0.00130199
0.00130002
0.00129992
0.00130202
0.00130688
0.00131524
0.00132793
0.00134536
0.00136767
0.0217504
0.0190619
0.0168233
0.0149424
0.0133488
0.0119884
0.0108189
0.00980711
0.00892647
0.00815576
0.0074778
0.00687858
0.0063466
0.00587236
0.00544795
0.00506674
0.00472317
0.00441252
0.00413079
0.00387456
0.00364089
0.00342727
0.00323151
0.00305175
0.00288635
0.0027339
0.00259321
0.00246322
0.00234306
0.00223196
0.0021293
0.00203453
0.00194723
0.00186701
0.00179355
0.00172658
0.00166584
0.00161108
0.00156206
0.0015185
0.00148011
0.00144659
0.00141761
0.0013928
0.0013718
0.00135423
0.00133973
0.00132792
0.0013185
0.00131117
0.00130572
0.00130201
0.00130003
0.00129992
0.00130201
0.00130684
0.00131514
0.00132771
0.0013449
0.00136674
0.0217504
0.0190619
0.0168233
0.0149423
0.0133488
0.0119884
0.0108189
0.00980707
0.00892643
0.00815571
0.00747775
0.00687853
0.00634655
0.00587231
0.0054479
0.00506669
0.00472312
0.00441247
0.00413074
0.00387451
0.00364084
0.00342722
0.00323147
0.00305171
0.00288631
0.00273387
0.00259317
0.00246319
0.00234302
0.00223193
0.00212927
0.00203451
0.0019472
0.00186698
0.00179353
0.00172656
0.00166583
0.00161108
0.00156205
0.00151849
0.00148011
0.0014466
0.00141762
0.00139281
0.00137182
0.00135425
0.00133975
0.00132795
0.00131852
0.00131119
0.00130574
0.00130203
0.00130004
0.00129993
0.001302
0.00130682
0.00131509
0.0013276
0.00134465
0.00136616
0.0217504
0.0190619
0.0168233
0.0149423
0.0133488
0.0119884
0.0108189
0.00980707
0.00892643
0.00815571
0.00747775
0.00687853
0.00634655
0.00587231
0.0054479
0.00506669
0.00472312
0.00441247
0.00413074
0.00387451
0.00364084
0.00342722
0.00323147
0.00305171
0.00288631
0.00273387
0.00259317
0.00246319
0.00234303
0.00223193
0.00212927
0.00203451
0.00194721
0.00186699
0.00179354
0.00172657
0.00166584
0.00161109
0.00156207
0.00151851
0.00148013
0.00144662
0.00141764
0.00139284
0.00137184
0.00135428
0.00133977
0.00132797
0.00131854
0.00131121
0.00130576
0.00130204
0.00130006
0.00129994
0.00130201
0.00130683
0.0013151
0.00132759
0.0013446
0.00136594
0.0217504
0.0190619
0.0168233
0.0149424
0.0133488
0.0119884
0.0108189
0.00980711
0.00892647
0.00815576
0.0074778
0.00687858
0.0063466
0.00587236
0.00544795
0.00506674
0.00472317
0.00441252
0.00413079
0.00387456
0.00364089
0.00342727
0.00323152
0.00305175
0.00288635
0.00273391
0.00259321
0.00246323
0.00234307
0.00223197
0.00212931
0.00203455
0.00194724
0.00186702
0.00179357
0.00172661
0.00166587
0.00161112
0.0015621
0.00151854
0.00148016
0.00144665
0.00141767
0.00139287
0.00137187
0.00135431
0.0013398
0.001328
0.00131857
0.00131124
0.00130578
0.00130207
0.00130008
0.00129996
0.00130204
0.00130686
0.00131516
0.00132769
0.00134474
0.00136609
0.0217504
0.0190619
0.0168233
0.0149424
0.0133488
0.0119885
0.010819
0.00980719
0.00892656
0.00815585
0.00747789
0.00687868
0.00634671
0.00587247
0.00544805
0.00506684
0.00472327
0.00441262
0.00413089
0.00387465
0.00364099
0.00342736
0.00323161
0.00305184
0.00288644
0.00273399
0.0025933
0.00246331
0.00234314
0.00223204
0.00212938
0.00203461
0.00194731
0.00186709
0.00179363
0.00172666
0.00166593
0.00161117
0.00156215
0.00151859
0.00148021
0.00144669
0.00141771
0.0013929
0.00137191
0.00135434
0.00133983
0.00132803
0.0013186
0.00131127
0.00130581
0.00130209
0.0013001
0.00129998
0.00130207
0.00130692
0.00131527
0.00132791
0.0013451
0.0013666
0.0217504
0.0190619
0.0168234
0.0149424
0.0133489
0.0119885
0.0108191
0.00980731
0.00892669
0.00815599
0.00747804
0.00687883
0.00634686
0.00587262
0.00544821
0.005067
0.00472342
0.00441277
0.00413104
0.0038748
0.00364113
0.0034275
0.00323174
0.00305197
0.00288656
0.00273412
0.00259342
0.00246342
0.00234325
0.00223215
0.00212948
0.00203472
0.0019474
0.00186718
0.00179372
0.00172675
0.001666
0.00161124
0.00156221
0.00151865
0.00148026
0.00144674
0.00141776
0.00139295
0.00137195
0.00135438
0.00133987
0.00132806
0.00131863
0.00131129
0.00130583
0.00130211
0.00130012
0.00130001
0.00130211
0.001307
0.00131544
0.00132823
0.00134567
0.0013675
0.0217504
0.019062
0.0168234
0.0149425
0.013349
0.0119887
0.0108192
0.00980748
0.00892687
0.00815618
0.00747824
0.00687904
0.00634707
0.00587283
0.00544842
0.00506721
0.00472363
0.00441297
0.00413123
0.00387499
0.00364132
0.00342769
0.00323192
0.00305215
0.00288673
0.00273428
0.00259358
0.00246358
0.00234341
0.0022323
0.00212962
0.00203485
0.00194753
0.0018673
0.00179383
0.00172685
0.0016661
0.00161134
0.0015623
0.00151873
0.00148034
0.00144681
0.00141782
0.001393
0.001372
0.00135442
0.00133991
0.0013281
0.00131866
0.00131132
0.00130586
0.00130214
0.00130015
0.00130004
0.00130217
0.00130711
0.00131566
0.00132868
0.00134646
0.0013688
0.0217504
0.019062
0.0168234
0.0149426
0.0133491
0.0119888
0.0108194
0.00980768
0.0089271
0.00815643
0.0074785
0.0068793
0.00634734
0.0058731
0.00544868
0.00506747
0.00472389
0.00441323
0.00413149
0.00387524
0.00364156
0.00342792
0.00323215
0.00305237
0.00288695
0.00273449
0.00259378
0.00246378
0.0023436
0.00223248
0.0021298
0.00203502
0.00194769
0.00186745
0.00179398
0.00172699
0.00166623
0.00161145
0.00156241
0.00151882
0.00148042
0.00144689
0.00141789
0.00139306
0.00137205
0.00135447
0.00133995
0.00132814
0.0013187
0.00131135
0.00130589
0.00130216
0.00130018
0.00130008
0.00130223
0.00130725
0.00131594
0.00132925
0.00134749
0.00137055
0.0217504
0.019062
0.0168235
0.0149427
0.0133492
0.011989
0.0108197
0.00980794
0.00892738
0.00815672
0.00747881
0.00687962
0.00634766
0.00587343
0.00544901
0.00506779
0.00472421
0.00441354
0.00413179
0.00387554
0.00364185
0.00342821
0.00323243
0.00305264
0.00288722
0.00273475
0.00259403
0.00246402
0.00234383
0.0022327
0.00213001
0.00203522
0.00194789
0.00186763
0.00179415
0.00172715
0.00166638
0.00161159
0.00156253
0.00151894
0.00148052
0.00144698
0.00141796
0.00139313
0.00137211
0.00135452
0.00134
0.00132818
0.00131873
0.00131138
0.00130591
0.00130219
0.00130021
0.00130012
0.00130231
0.00130741
0.00131628
0.00132995
0.00134876
0.00137279
0.0217504
0.019062
0.0168235
0.0149428
0.0133494
0.0119892
0.0108199
0.00980825
0.00892771
0.00815708
0.00747918
0.00688
0.00634805
0.00587382
0.0054494
0.00506818
0.00472459
0.00441392
0.00413216
0.0038759
0.0036422
0.00342855
0.00323276
0.00305297
0.00288753
0.00273505
0.00259432
0.0024643
0.0023441
0.00223297
0.00213027
0.00203546
0.00194812
0.00186785
0.00179435
0.00172734
0.00166655
0.00161175
0.00156268
0.00151907
0.00148064
0.00144708
0.00141805
0.00139321
0.00137218
0.00135458
0.00134005
0.00132822
0.00131877
0.00131142
0.00130594
0.00130222
0.00130024
0.00130017
0.00130239
0.00130759
0.00131667
0.00133078
0.00135031
0.00137558
0.0217504
0.019062
0.0168236
0.0149429
0.0133496
0.0119895
0.0108202
0.00980861
0.00892811
0.0081575
0.00747962
0.00688045
0.0063485
0.00587427
0.00544985
0.00506863
0.00472503
0.00441436
0.00413259
0.00387632
0.00364262
0.00342895
0.00323315
0.00305335
0.0028879
0.00273541
0.00259467
0.00246464
0.00234442
0.00223328
0.00213056
0.00203575
0.00194838
0.00186811
0.00179459
0.00172756
0.00166676
0.00161194
0.00156285
0.00151922
0.00148077
0.00144719
0.00141815
0.0013933
0.00137225
0.00135464
0.0013401
0.00132826
0.00131881
0.00131145
0.00130597
0.00130225
0.00130027
0.00130022
0.00130249
0.0013078
0.00131712
0.00133176
0.00135214
0.001379
0.0217504
0.019062
0.0168237
0.0149431
0.0133499
0.0119898
0.0108206
0.00980904
0.00892857
0.008158
0.00748013
0.00688097
0.00634903
0.0058748
0.00545038
0.00506915
0.00472555
0.00441486
0.00413309
0.00387681
0.00364309
0.00342942
0.00323361
0.00305378
0.00288833
0.00273582
0.00259507
0.00246502
0.0023448
0.00223364
0.00213091
0.00203607
0.0019487
0.0018684
0.00179486
0.00172782
0.00166699
0.00161215
0.00156304
0.00151939
0.00148092
0.00144733
0.00141827
0.00139339
0.00137233
0.00135471
0.00134016
0.00132831
0.00131885
0.00131148
0.001306
0.00130228
0.00130031
0.00130027
0.00130259
0.00130803
0.00131764
0.0013329
0.00135429
0.00138314
0.0217504
0.0190621
0.0168238
0.0149433
0.0133502
0.0119902
0.0108211
0.00980954
0.00892911
0.00815856
0.00748072
0.00688158
0.00634964
0.00587541
0.00545099
0.00506976
0.00472615
0.00441545
0.00413366
0.00387737
0.00364364
0.00342995
0.00323412
0.00305429
0.00288881
0.0027363
0.00259553
0.00246547
0.00234523
0.00223405
0.0021313
0.00203645
0.00194905
0.00186874
0.00179518
0.00172811
0.00166726
0.0016124
0.00156326
0.00151959
0.00148109
0.00144747
0.00141839
0.0013935
0.00137242
0.00135478
0.00134022
0.00132836
0.00131889
0.00131152
0.00130603
0.00130231
0.00130034
0.00130032
0.0013027
0.00130828
0.00131821
0.0013342
0.00135678
0.00138816
0.0217504
0.0190621
0.0168239
0.0149436
0.0133505
0.0119906
0.0108216
0.00981011
0.00892974
0.00815922
0.0074814
0.00688227
0.00635034
0.00587612
0.00545169
0.00507045
0.00472683
0.00441612
0.00413432
0.00387801
0.00364426
0.00343056
0.00323472
0.00305487
0.00288937
0.00273684
0.00259606
0.00246598
0.00234572
0.00223452
0.00213175
0.00203688
0.00194946
0.00186912
0.00179554
0.00172844
0.00166757
0.00161268
0.00156351
0.00151981
0.00148129
0.00144764
0.00141853
0.00139362
0.00137252
0.00135486
0.00134028
0.00132841
0.00131893
0.00131156
0.00130607
0.00130234
0.00130037
0.00130038
0.00130281
0.00130855
0.00131884
0.00133568
0.00135966
0.00139422
0.0217504
0.0190622
0.0168241
0.0149439
0.0133509
0.0119911
0.0108222
0.00981078
0.00893045
0.00815998
0.00748218
0.00688306
0.00635114
0.00587692
0.00545249
0.00507124
0.0047276
0.00441688
0.00413506
0.00387874
0.00364498
0.00343125
0.00323539
0.00305552
0.00289001
0.00273746
0.00259666
0.00246656
0.00234628
0.00223506
0.00213227
0.00203737
0.00194993
0.00186956
0.00179595
0.00172883
0.00166792
0.001613
0.0015638
0.00152006
0.00148151
0.00144783
0.00141869
0.00139375
0.00137262
0.00135495
0.00134035
0.00132847
0.00131898
0.00131159
0.0013061
0.00130237
0.00130041
0.00130043
0.00130293
0.00130884
0.00131953
0.00133735
0.00136296
0.00140158
0.0217504
0.0190622
0.0168243
0.0149442
0.0133514
0.0119917
0.0108229
0.00981155
0.00893128
0.00816085
0.00748307
0.00688398
0.00635206
0.00587783
0.0054534
0.00507213
0.00472849
0.00441775
0.00413592
0.00387957
0.00364579
0.00343204
0.00323616
0.00305627
0.00289074
0.00273817
0.00259734
0.00246722
0.00234691
0.00223567
0.00213286
0.00203793
0.00195046
0.00187006
0.00179642
0.00172926
0.00166832
0.00161336
0.00156412
0.00152035
0.00148176
0.00144804
0.00141887
0.00139389
0.00137274
0.00135504
0.00134042
0.00132853
0.00131902
0.00131163
0.00130613
0.00130239
0.00130044
0.00130049
0.00130306
0.00130915
0.00132027
0.00133923
0.00136672
0.00141057
0.0217504
0.0190623
0.0168246
0.0149446
0.013352
0.0119925
0.0108237
0.00981245
0.00893224
0.00816185
0.0074841
0.00688502
0.00635311
0.00587888
0.00545444
0.00507316
0.0047295
0.00441875
0.00413689
0.00388053
0.00364672
0.00343295
0.00323705
0.00305714
0.00289158
0.00273898
0.00259813
0.00246799
0.00234766
0.00223639
0.00213354
0.00203859
0.00195109
0.00187066
0.00179698
0.00172978
0.0016688
0.00161379
0.00156451
0.00152069
0.00148205
0.00144829
0.00141908
0.00139406
0.00137288
0.00135516
0.00134051
0.0013286
0.00131908
0.00131168
0.00130617
0.00130243
0.00130048
0.00130054
0.00130318
0.00130946
0.00132106
0.00134132
0.001371
0.00142166
0.0217505
0.0190624
0.0168249
0.0149451
0.0133527
0.0119933
0.0108247
0.0098135
0.00893335
0.00816301
0.00748529
0.00688623
0.00635433
0.0058801
0.00545564
0.00507436
0.00473068
0.00441991
0.00413804
0.00388165
0.00364783
0.00343404
0.00323812
0.00305818
0.00289261
0.00273999
0.00259912
0.00246895
0.0023486
0.00223731
0.00213444
0.00203945
0.00195192
0.00187145
0.00179774
0.00173049
0.00166947
0.00161441
0.00156507
0.00152119
0.0014825
0.00144868
0.00141942
0.00139436
0.00137313
0.00135538
0.00134071
0.00132877
0.00131923
0.00131181
0.00130628
0.00130253
0.00130057
0.00130065
0.00130334
0.0013098
0.00132191
0.00134365
0.00137587
0.00143552
0.0217505
0.0190626
0.0168253
0.0149458
0.0133535
0.0119943
0.0108258
0.00981473
0.00893466
0.00816437
0.0074867
0.00688767
0.00635579
0.00588157
0.00545713
0.00507586
0.00473219
0.00442143
0.00413957
0.00388319
0.00364938
0.00343561
0.0032397
0.00305978
0.00289422
0.00274162
0.00260076
0.0024706
0.00235026
0.00223897
0.00213609
0.0020411
0.00195355
0.00187306
0.00179931
0.00173203
0.00167095
0.00161583
0.00156642
0.00152247
0.00148369
0.00144979
0.00142046
0.00139534
0.00137407
0.00135627
0.00134156
0.00132959
0.00132002
0.00131256
0.00130699
0.00130319
0.00130118
0.00130122
0.00130389
0.00131047
0.00132305
0.00134635
0.0013815
0.00145318
0.0217505
0.0190628
0.0168258
0.0149465
0.0133545
0.0119955
0.0108272
0.00981625
0.00893632
0.00816615
0.0074886
0.00688969
0.00635794
0.00588387
0.00545958
0.00507847
0.00473498
0.00442441
0.00414274
0.00388657
0.00365296
0.00343939
0.00324368
0.00306396
0.0028986
0.00274618
0.0026055
0.00247551
0.00235531
0.00224415
0.0021414
0.00204651
0.00195904
0.00187861
0.00180489
0.00173761
0.00167651
0.00162133
0.00157183
0.00152775
0.00148883
0.0014548
0.00142536
0.00140014
0.00137879
0.00136092
0.00134615
0.0013341
0.00132443
0.00131685
0.00131113
0.00130714
0.0013049
0.00130466
0.00130706
0.00131342
0.00132612
0.00135073
0.00138892
0.00147668
0.0217505
0.019063
0.0168264
0.0149476
0.0133559
0.0119972
0.0108293
0.00981883
0.00893942
0.00816986
0.007493
0.00689487
0.00636398
0.00589083
0.00546753
0.00508744
0.004745
0.00443548
0.00415488
0.00389975
0.00366718
0.00345463
0.00325991
0.00308115
0.00291672
0.0027652
0.00262537
0.00249618
0.00237674
0.0022663
0.0021642
0.0020699
0.00198297
0.00190301
0.00182969
0.0017627
0.00170177
0.00164664
0.00159707
0.0015528
0.00151359
0.00147926
0.00144958
0.00142417
0.00140265
0.0013846
0.00136961
0.00135728
0.00134725
0.00133919
0.00133286
0.00132809
0.00132488
0.00132345
0.00132444
0.00132921
0.00134042
0.00136449
0.00140427
0.00151222
0.0217506
0.0190635
0.0168276
0.0149497
0.0133592
0.0120023
0.0108367
0.00982909
0.0089531
0.00818745
0.00751492
0.0069214
0.00639532
0.00592707
0.00550866
0.00513341
0.00479568
0.00449073
0.00421453
0.00396366
0.00373519
0.00352663
0.00333581
0.00316087
0.00300021
0.00285241
0.00271624
0.00259064
0.00247469
0.00236763
0.00226878
0.00217758
0.00209355
0.00201624
0.00194524
0.00188015
0.00182063
0.00176634
0.00171699
0.00167235
0.00163226
0.00159693
0.00156643
0.0015403
0.00151803
0.00149912
0.00148309
0.00146947
0.00145781
0.0014477
0.00143878
0.00143079
0.00142359
0.00141725
0.00141228
0.0014099
0.00141291
0.00142818
0.00146061
0.00158608
0.0217509
0.019066
0.0168344
0.0149634
0.0133833
0.0120402
0.0108917
0.00990392
0.00904964
0.00830677
0.00765729
0.00708648
0.00658227
0.00613479
0.00573594
0.00537903
0.00505858
0.00477005
0.00450966
0.0042743
0.00406134
0.00386856
0.00369403
0.00353604
0.00339303
0.00326353