/*--------------------------------*- C++ -*----------------------------------*\
| =========                 |                                                 |
| \\      /  F ield         | OpenFOAM: The Open Source CFD Toolbox           |
|  \\    /   O peration     | Version:  2.4.0                                 |
|   \\  /    A nd           | Web:      www.OpenFOAM.org                      |
|    \\/     M anipulation  |                                                 |
\*---------------------------------------------------------------------------*/
FoamFile
{
    version     2.0;
    format      ascii;
    class       volVectorField;
    location    "0.52";
    object      U;
}
// * * * * * * * * * * * * * * * * * * * * * * * * * * * * * * * * * * * * * //

dimensions      [0 1 -1 0 0 0 0];

internalField   nonuniform List<vector> 
6000
(
(0.990441 -0.000273763 0)
(0.970231 0.00204967 0)
(0.948316 0.00334873 0)
(0.925588 0.00413652 0)
(0.903366 0.00452001 0)
(0.882326 0.0045311 0)
(0.862692 0.00428739 0)
(0.844567 0.00389971 0)
(0.828014 0.00344237 0)
(0.813041 0.00296378 0)
(0.799595 0.0024957 0)
(0.787587 0.00205752 0)
(0.77691 0.00165954 0)
(0.767454 0.00130592 0)
(0.759108 0.000997091 0)
(0.751767 0.000731634 0)
(0.745327 0.000507735 0)
(0.739687 0.000324046 0)
(0.73474 0.000179873 0)
(0.730376 7.46266e-05 0)
(0.726483 6.75353e-06 0)
(0.722949 -2.73167e-05 0)
(0.719677 -3.36164e-05 0)
(0.71659 -2.01584e-05 0)
(0.713639 4.30957e-06 0)
(0.710801 3.17998e-05 0)
(0.708074 5.63071e-05 0)
(0.70547 7.4406e-05 0)
(0.703002 8.511e-05 0)
(0.700684 8.91657e-05 0)
(0.698523 8.81732e-05 0)
(0.696524 8.39073e-05 0)
(0.694688 7.80016e-05 0)
(0.693014 7.1923e-05 0)
(0.691501 6.70533e-05 0)
(0.690144 6.47225e-05 0)
(0.688929 6.61521e-05 0)
(0.687836 7.23859e-05 0)
(0.686829 8.43027e-05 0)
(0.685862 0.000102618 0)
(0.684874 0.000128036 0)
(0.683792 0.000161583 0)
(0.682532 0.000204946 0)
(0.680997 0.000260748 0)
(0.679073 0.000332678 0)
(0.676627 0.000425597 0)
(0.673495 0.000545826 0)
(0.66947 0.000701647 0)
(0.664288 0.000904061 0)
(0.657601 0.00116793 0)
(0.648951 0.00151372 0)
(0.637722 0.0019704 0)
(0.623087 0.00257941 0)
(0.603864 0.00340379 0)
(0.578528 0.00453149 0)
(0.544456 0.00611584 0)
(0.499658 0.00827189 0)
(0.435731 0.0113069 0)
(0.364844 0.0146917 0)
(0.206358 0.0126234 0)
(1.00417 0.00480514 0)
(1.01373 0.00718211 0)
(1.0207 0.00682427 0)
(1.02486 0.0064121 0)
(1.02687 0.00609157 0)
(1.02702 0.00572608 0)
(1.02543 0.00534972 0)
(1.02232 0.00499688 0)
(1.01791 0.00466878 0)
(1.01248 0.00436 0)
(1.00622 0.00406815 0)
(0.999338 0.00379212 0)
(0.991986 0.00353067 0)
(0.984309 0.00328234 0)
(0.976426 0.0030458 0)
(0.96844 0.00282019 0)
(0.960441 0.00260549 0)
(0.952508 0.00240279 0)
(0.944715 0.00221407 0)
(0.937127 0.0020417 0)
(0.929806 0.00188744 0)
(0.922802 0.00175166 0)
(0.916153 0.00163285 0)
(0.909878 0.00152787 0)
(0.903983 0.00143275 0)
(0.898457 0.0013436 0)
(0.893281 0.00125757 0)
(0.888434 0.00117317 0)
(0.883892 0.0010901 0)
(0.879638 0.00100876 0)
(0.875653 0.000929554 0)
(0.871924 0.000852516 0)
(0.868442 0.00077719 0)
(0.865201 0.000702967 0)
(0.862206 0.000629667 0)
(0.859471 0.000558188 0)
(0.857016 0.00049097 0)
(0.85486 0.000432054 0)
(0.853011 0.000386715 0)
(0.851454 0.000360695 0)
(0.850148 0.000359415 0)
(0.849023 0.000387546 0)
(0.847989 0.000449001 0)
(0.84694 0.000547497 0)
(0.845765 0.000687813 0)
(0.844345 0.00087704 0)
(0.842556 0.00112581 0)
(0.840258 0.00144967 0)
(0.837288 0.0018707 0)
(0.833436 0.00241984 0)
(0.828427 0.00314051 0)
(0.821886 0.00409442 0)
(0.813302 0.0053717 0)
(0.801911 0.00710575 0)
(0.786713 0.00950426 0)
(0.765706 0.0128643 0)
(0.737397 0.017694 0)
(0.692662 0.0241436 0)
(0.641381 0.0345586 0)
(0.499944 0.033775 0)
(1.00036 0.00116233 0)
(1.00263 0.00202369 0)
(1.00544 0.00239365 0)
(1.00803 0.00304078 0)
(1.01052 0.00370442 0)
(1.013 0.00418533 0)
(1.01529 0.00450901 0)
(1.01726 0.00471911 0)
(1.01884 0.0048302 0)
(1.02001 0.00485594 0)
(1.02076 0.00481512 0)
(1.02108 0.00472582 0)
(1.02099 0.00460249 0)
(1.0205 0.004456 0)
(1.01961 0.00429442 0)
(1.01836 0.00412374 0)
(1.01676 0.00394854 0)
(1.01483 0.00377259 0)
(1.01259 0.00359916 0)
(1.01008 0.00343099 0)
(1.00732 0.00327008 0)
(1.00434 0.0031174 0)
(1.0012 0.00297272 0)
(0.997933 0.00283476 0)
(0.994577 0.00270153 0)
(0.991174 0.00257091 0)
(0.987761 0.00244126 0)
(0.984373 0.00231177 0)
(0.981037 0.00218244 0)
(0.97778 0.00205388 0)
(0.974621 0.00192689 0)
(0.971574 0.00180175 0)
(0.96865 0.00167774 0)
(0.965857 0.0015529 0)
(0.963206 0.00142467 0)
(0.960711 0.00129124 0)
(0.958389 0.00115336 0)
(0.956263 0.00101575 0)
(0.954348 0.000887453 0)
(0.952648 0.000780744 0)
(0.951144 0.000709187 0)
(0.949795 0.000685442 0)
(0.948533 0.00071984 0)
(0.94727 0.000820269 0)
(0.945897 0.000993539 0)
(0.944293 0.00124768 0)
(0.942324 0.00159467 0)
(0.939835 0.0020532 0)
(0.936652 0.00265171 0)
(0.93256 0.00343173 0)
(0.927294 0.00445296 0)
(0.92051 0.00580072 0)
(0.911771 0.00760034 0)
(0.900468 0.0100349 0)
(0.885902 0.0134005 0)
(0.866728 0.0180887 0)
(0.842546 0.0249704 0)
(0.807148 0.034063 0)
(0.771038 0.0504854 0)
(0.671656 0.0548499 0)
(1.00025 0.00137448 0)
(1.00159 0.00317758 0)
(1.00312 0.00385953 0)
(1.00436 0.00422151 0)
(1.00551 0.00448947 0)
(1.00681 0.00461999 0)
(1.00821 0.00464277 0)
(1.00962 0.00460998 0)
(1.01101 0.00454332 0)
(1.01236 0.00445268 0)
(1.01365 0.00434798 0)
(1.01486 0.00423742 0)
(1.01598 0.00412594 0)
(1.01699 0.004016 0)
(1.01789 0.00390872 0)
(1.01866 0.00380454 0)
(1.01931 0.00370371 0)
(1.01982 0.00360652 0)
(1.0202 0.00351348 0)
(1.02043 0.00342509 0)
(1.02053 0.0033415 0)
(1.0205 0.0032621 0)
(1.02033 0.00318529 0)
(1.02003 0.00310858 0)
(1.01961 0.00302897 0)
(1.01908 0.00294364 0)
(1.01843 0.00285051 0)
(1.01768 0.00274867 0)
(1.01684 0.00263851 0)
(1.01591 0.0025215 0)
(1.01492 0.00239969 0)
(1.01385 0.00227491 0)
(1.01273 0.00214789 0)
(1.01155 0.00201775 0)
(1.01032 0.00188226 0)
(1.00902 0.00173922 0)
(1.00767 0.0015885 0)
(1.00628 0.00143405 0)
(1.00486 0.00128503 0)
(1.00344 0.0011553 0)
(1.00204 0.00106162 0)
(1.00067 0.00102129 0)
(0.999317 0.00105027 0)
(0.997956 0.00116257 0)
(0.996526 0.0013709 0)
(0.994938 0.00168877 0)
(0.99308 0.00213353 0)
(0.990816 0.00272985 0)
(0.987978 0.00351371 0)
(0.984368 0.00453701 0)
(0.979741 0.00587388 0)
(0.973785 0.0076296 0)
(0.966109 0.00995735 0)
(0.956178 0.0130761 0)
(0.943386 0.0173396 0)
(0.926609 0.0231846 0)
(0.905588 0.0316845 0)
(0.875786 0.0427166 0)
(0.846059 0.0628554 0)
(0.776263 0.0727121 0)
(1.00018 0.0011735 0)
(1.00125 0.00265197 0)
(1.00255 0.00313684 0)
(1.00361 0.00339444 0)
(1.00455 0.00368339 0)
(1.00554 0.0039039 0)
(1.00659 0.00402364 0)
(1.00763 0.00407859 0)
(1.00866 0.00409283 0)
(1.00968 0.0040745 0)
(1.01069 0.00403067 0)
(1.01168 0.00396902 0)
(1.01266 0.00389561 0)
(1.01361 0.00381464 0)
(1.01453 0.00372913 0)
(1.01542 0.0036414 0)
(1.01628 0.00355335 0)
(1.01709 0.00346665 0)
(1.01786 0.00338287 0)
(1.01859 0.00330327 0)
(1.01926 0.00322855 0)
(1.01989 0.00315851 0)
(1.02047 0.00309188 0)
(1.021 0.00302647 0)
(1.02148 0.00295963 0)
(1.0219 0.0028888 0)
(1.02226 0.00281204 0)
(1.02255 0.00272838 0)
(1.02278 0.00263794 0)
(1.02294 0.00254184 0)
(1.02303 0.00244185 0)
(1.02305 0.00233979 0)
(1.02298 0.00223688 0)
(1.02283 0.00213299 0)
(1.02259 0.00202656 0)
(1.02223 0.00191527 0)
(1.02175 0.00179764 0)
(1.02113 0.00167518 0)
(1.02037 0.00155402 0)
(1.01949 0.00144562 0)
(1.0185 0.0013661 0)
(1.01742 0.00133457 0)
(1.01627 0.00137129 0)
(1.01505 0.00149635 0)
(1.01372 0.00172957 0)
(1.01223 0.00209175 0)
(1.01051 0.00260732 0)
(1.00843 0.00330795 0)
(1.00587 0.00423714 0)
(1.00264 0.00545591 0)
(0.998543 0.00705041 0)
(0.993311 0.00914214 0)
(0.986623 0.0119067 0)
(0.978053 0.0155916 0)
(0.967145 0.020592 0)
(0.953052 0.0273816 0)
(0.935685 0.0371217 0)
(0.911726 0.0496888 0)
(0.887611 0.0717583 0)
(0.838448 0.0862646 0)
(1.00014 0.000986923 0)
(1.00102 0.00234193 0)
(1.00218 0.0029281 0)
(1.00322 0.00327058 0)
(1.00413 0.00359462 0)
(1.00506 0.00382681 0)
(1.00603 0.00394022 0)
(1.00699 0.00397792 0)
(1.00792 0.00397262 0)
(1.00883 0.00393567 0)
(1.00972 0.00387448 0)
(1.0106 0.00379736 0)
(1.01145 0.00371129 0)
(1.01229 0.00362098 0)
(1.01311 0.00352949 0)
(1.01391 0.00343897 0)
(1.01469 0.00335095 0)
(1.01545 0.00326666 0)
(1.0162 0.00318715 0)
(1.01692 0.00311316 0)
(1.01763 0.00304497 0)
(1.01831 0.00298208 0)
(1.01898 0.00292315 0)
(1.01962 0.00286606 0)
(1.02025 0.00280833 0)
(1.02085 0.00274759 0)
(1.02142 0.00268198 0)
(1.02196 0.00261053 0)
(1.02246 0.00253323 0)
(1.02291 0.00245102 0)
(1.02332 0.00236559 0)
(1.02367 0.00227892 0)
(1.02397 0.00219279 0)
(1.0242 0.00210804 0)
(1.02435 0.00202422 0)
(1.02441 0.00193986 0)
(1.02436 0.00185356 0)
(1.02418 0.00176578 0)
(1.02385 0.00168064 0)
(1.02337 0.00160725 0)
(1.02274 0.00155995 0)
(1.02198 0.00155752 0)
(1.02108 0.00162186 0)
(1.02006 0.00177668 0)
(1.01888 0.002047 0)
(1.01752 0.00245981 0)
(1.01589 0.00304619 0)
(1.01393 0.00384469 0)
(1.01149 0.00490623 0)
(1.00843 0.00630019 0)
(1.00455 0.00812288 0)
(0.999632 0.0105084 0)
(0.993384 0.0136481 0)
(0.985445 0.0178084 0)
(0.97546 0.0234067 0)
(0.962798 0.0309389 0)
(0.947522 0.0415768 0)
(0.927427 0.0553126 0)
(0.907339 0.0782749 0)
(0.872502 0.0967176 0)
(1.00011 0.000842173 0)
(1.00084 0.00209715 0)
(1.00189 0.00272294 0)
(1.00289 0.00306763 0)
(1.00378 0.0033588 0)
(1.00468 0.00357055 0)
(1.00563 0.00367868 0)
(1.00657 0.00371751 0)
(1.00748 0.00371749 0)
(1.00836 0.00368905 0)
(1.00923 0.00363795 0)
(1.01008 0.00357138 0)
(1.0109 0.00349577 0)
(1.0117 0.00341545 0)
(1.01247 0.00333323 0)
(1.01323 0.00325108 0)
(1.01397 0.00317052 0)
(1.01469 0.0030928 0)
(1.01539 0.00301898 0)
(1.01608 0.00294986 0)
(1.01675 0.0028858 0)
(1.01741 0.00282647 0)
(1.01806 0.00277075 0)
(1.01869 0.00271684 0)
(1.01931 0.0026626 0)
(1.01992 0.00260596 0)
(1.02051 0.00254534 0)
(1.02108 0.00247993 0)
(1.02162 0.00240979 0)
(1.02213 0.00233588 0)
(1.02261 0.00225985 0)
(1.02304 0.0021838 0)
(1.02344 0.00210983 0)
(1.02379 0.00203947 0)
(1.02408 0.00197325 0)
(1.02429 0.00191065 0)
(1.02442 0.00185086 0)
(1.02444 0.00179408 0)
(1.02433 0.00174334 0)
(1.02409 0.00170606 0)
(1.02369 0.00169497 0)
(1.02314 0.0017281 0)
(1.02244 0.00182803 0)
(1.02158 0.00202089 0)
(1.02055 0.00233566 0)
(1.01929 0.0028045 0)
(1.01777 0.00346442 0)
(1.01589 0.00436059 0)
(1.01355 0.00555109 0)
(1.0106 0.00711343 0)
(1.00688 0.00915334 0)
(1.00215 0.0118159 0)
(0.996171 0.0153052 0)
(0.988601 0.0199008 0)
(0.979129 0.02603 0)
(0.967242 0.034198 0)
(0.953024 0.0455325 0)
(0.935019 0.0601615 0)
(0.916923 0.0834115 0)
(0.890668 0.104976 0)
(1.00009 0.000728793 0)
(1.00071 0.00188091 0)
(1.00166 0.00251221 0)
(1.00261 0.00285636 0)
(1.00348 0.00313152 0)
(1.00436 0.0033409 0)
(1.00529 0.00345738 0)
(1.00621 0.00350436 0)
(1.00711 0.00351069 0)
(1.00799 0.00348829 0)
(1.00885 0.00344306 0)
(1.00969 0.00338186 0)
(1.0105 0.00331106 0)
(1.01129 0.00323512 0)
(1.01206 0.0031569 0)
(1.0128 0.00307848 0)
(1.01353 0.00300145 0)
(1.01424 0.00292709 0)
(1.01492 0.00285645 0)
(1.0156 0.00279032 0)
(1.01625 0.002729 0)
(1.01689 0.0026722 0)
(1.01752 0.0026189 0)
(1.01814 0.0025675 0)
(1.01875 0.00251608 0)
(1.01934 0.00246282 0)
(1.01992 0.00240635 0)
(1.02048 0.00234598 0)
(1.02102 0.00228185 0)
(1.02153 0.00221487 0)
(1.02201 0.00214664 0)
(1.02247 0.0020793 0)
(1.02288 0.00201513 0)
(1.02326 0.00195615 0)
(1.02358 0.00190368 0)
(1.02385 0.00185813 0)
(1.02405 0.00181947 0)
(1.02416 0.00178825 0)
(1.02415 0.0017672 0)
(1.02403 0.00176292 0)
(1.02376 0.00178716 0)
(1.02335 0.00185736 0)
(1.02278 0.00199642 0)
(1.02204 0.00223203 0)
(1.02111 0.00259608 0)
(1.01996 0.0031249 0)
(1.01852 0.00386069 0)
(1.01674 0.00485468 0)
(1.0145 0.00617185 0)
(1.01167 0.00789762 0)
(1.00809 0.0101468 0)
(1.00356 0.0130748 0)
(0.997827 0.0168969 0)
(0.990599 0.0219037 0)
(0.981585 0.0285273 0)
(0.970348 0.0372774 0)
(0.956944 0.0492123 0)
(0.940366 0.064582 0)
(0.923451 0.0878483 0)
(0.901891 0.111591 0)
(1.00007 0.000636551 0)
(1.00061 0.00168635 0)
(1.00146 0.00230811 0)
(1.00237 0.00265414 0)
(1.00322 0.0029184 0)
(1.00409 0.00312237 0)
(1.00499 0.00324082 0)
(1.0059 0.00329022 0)
(1.00679 0.00329854 0)
(1.00766 0.00327934 0)
(1.00852 0.00323857 0)
(1.00935 0.00318242 0)
(1.01016 0.00311689 0)
(1.01095 0.00304631 0)
(1.01171 0.00297347 0)
(1.01246 0.00290034 0)
(1.01318 0.00282845 0)
(1.01388 0.00275901 0)
(1.01457 0.002693 0)
(1.01524 0.0026311 0)
(1.01589 0.0025736 0)
(1.01653 0.00252021 0)
(1.01715 0.00247002 0)
(1.01776 0.00242163 0)
(1.01836 0.00237336 0)
(1.01895 0.0023236 0)
(1.01952 0.00227119 0)
(1.02007 0.00221558 0)
(1.0206 0.00215695 0)
(1.02111 0.00209621 0)
(1.02159 0.00203494 0)
(1.02204 0.0019753 0)
(1.02246 0.00191971 0)
(1.02284 0.00187058 0)
(1.02318 0.00182984 0)
(1.02346 0.00179873 0)
(1.02369 0.00177798 0)
(1.02383 0.00176869 0)
(1.02388 0.0017737 0)
(1.02382 0.00179927 0)
(1.02363 0.00185662 0)
(1.02331 0.00196284 0)
(1.02283 0.00214111 0)
(1.02217 0.00242034 0)
(1.02133 0.0028348 0)
(1.02026 0.00342434 0)
(1.01891 0.00423575 0)
(1.01721 0.00532577 0)
(1.01507 0.00676586 0)
(1.01237 0.00864888 0)
(1.00895 0.0110981 0)
(1.00461 0.0142787 0)
(0.999148 0.0184158 0)
(0.992273 0.0238095 0)
(0.983727 0.0308937 0)
(0.973139 0.0401811 0)
(0.960548 0.0526555 0)
(0.945238 0.0686678 0)
(0.929472 0.0918843 0)
(0.910771 0.116993 0)
(1.00006 0.000559583 0)
(1.00052 0.00151219 0)
(1.0013 0.00211465 0)
(1.00216 0.00245986 0)
(1.003 0.00271276 0)
(1.00385 0.00290785 0)
(1.00473 0.00302543 0)
(1.00563 0.0030768 0)
(1.00651 0.00308772 0)
(1.00738 0.00307238 0)
(1.00822 0.00303661 0)
(1.00905 0.00298588 0)
(1.00986 0.00292582 0)
(1.01065 0.00286063 0)
(1.01141 0.00279304 0)
(1.01215 0.00272499 0)
(1.01288 0.00265794 0)
(1.01358 0.00259308 0)
(1.01426 0.00253134 0)
(1.01493 0.00247337 0)
(1.01558 0.00241942 0)
(1.01622 0.00236926 0)
(1.01684 0.00232209 0)
(1.01745 0.00227665 0)
(1.01805 0.00223148 0)
(1.01863 0.0021852 0)
(1.0192 0.00213679 0)
(1.01975 0.00208582 0)
(1.02028 0.00203252 0)
(1.02079 0.00197783 0)
(1.02127 0.00192329 0)
(1.02172 0.00187106 0)
(1.02214 0.00182368 0)
(1.02252 0.00178383 0)
(1.02286 0.00175392 0)
(1.02316 0.00173587 0)
(1.02339 0.00173111 0)
(1.02356 0.00174132 0)
(1.02364 0.00176965 0)
(1.02362 0.00182237 0)
(1.02349 0.00191051 0)
(1.02322 0.00205108 0)
(1.02281 0.00226757 0)
(1.02222 0.00259 0)
(1.02145 0.00305465 0)
(1.02046 0.00370442 0)
(1.01919 0.00459013 0)
(1.01758 0.00577357 0)
(1.01555 0.00733218 0)
(1.01297 0.00936576 0)
(1.00971 0.0120056 0)
(1.00559 0.0154254 0)
(1.0004 0.019859 0)
(0.993892 0.0256144 0)
(0.985826 0.033125 0)
(0.975891 0.0429033 0)
(0.964126 0.0558613 0)
(0.950026 0.0724233 0)
(0.935504 0.0955875 0)
(0.918976 0.121487 0)
(1.00005 0.000494139 0)
(1.00046 0.00135599 0)
(1.00117 0.00193141 0)
(1.00199 0.00227142 0)
(1.00281 0.00251261 0)
(1.00364 0.00269767 0)
(1.00451 0.00281315 0)
(1.00539 0.00286618 0)
(1.00626 0.00287947 0)
(1.00712 0.0028674 0)
(1.00797 0.00283595 0)
(1.00879 0.00279007 0)
(1.0096 0.00273499 0)
(1.01038 0.00267482 0)
(1.01114 0.00261223 0)
(1.01189 0.00254907 0)
(1.01261 0.00248676 0)
(1.01331 0.00242644 0)
(1.014 0.00236899 0)
(1.01466 0.00231501 0)
(1.01532 0.00226474 0)
(1.01595 0.00221795 0)
(1.01658 0.00217395 0)
(1.01719 0.00213165 0)
(1.01778 0.00208974 0)
(1.01837 0.00204705 0)
(1.01893 0.00200271 0)
(1.01948 0.0019564 0)
(1.02001 0.00190841 0)
(1.02052 0.00185967 0)
(1.021 0.00181173 0)
(1.02145 0.00176674 0)
(1.02187 0.00172732 0)
(1.02225 0.00169638 0)
(1.0226 0.00167671 0)
(1.0229 0.00167078 0)
(1.02315 0.00168067 0)
(1.02334 0.00170865 0)
(1.02344 0.00175827 0)
(1.02346 0.00183599 0)
(1.02336 0.00195289 0)
(1.02314 0.00212606 0)
(1.02279 0.00237942 0)
(1.02227 0.00274394 0)
(1.02156 0.0032577 0)
(1.02064 0.00396627 0)
(1.01945 0.00492412 0)
(1.01793 0.00619761 0)
(1.01601 0.0078697 0)
(1.01357 0.0100466 0)
(1.01048 0.012867 0)
(1.00658 0.0165124 0)
(1.00168 0.0212242 0)
(0.99555 0.0273164 0)
(0.987976 0.03522 0)
(0.978697 0.0454441 0)
(0.967759 0.0588329 0)
(0.954816 0.075854 0)
(0.941558 0.0989622 0)
(0.926916 0.125272 0)
(1.00005 0.000437531 0)
(1.00041 0.00121501 0)
(1.00106 0.00175776 0)
(1.00184 0.00208838 0)
(1.00264 0.00231773 0)
(1.00346 0.0024922 0)
(1.00431 0.00260426 0)
(1.00518 0.002658 0)
(1.00605 0.00267306 0)
(1.0069 0.0026637 0)
(1.00774 0.00263609 0)
(1.00856 0.00259476 0)
(1.00936 0.00254452 0)
(1.01015 0.00248927 0)
(1.01091 0.00243162 0)
(1.01165 0.00237332 0)
(1.01237 0.00231573 0)
(1.01307 0.00225993 0)
(1.01376 0.00220675 0)
(1.01443 0.00215674 0)
(1.01508 0.00211014 0)
(1.01572 0.00206674 0)
(1.01634 0.00202595 0)
(1.01695 0.00198681 0)
(1.01755 0.0019482 0)
(1.01813 0.0019091 0)
(1.0187 0.0018688 0)
(1.01925 0.00182708 0)
(1.01977 0.00178429 0)
(1.02028 0.00174136 0)
(1.02076 0.00169985 0)
(1.02121 0.00166191 0)
(1.02164 0.00163022 0)
(1.02203 0.00160785 0)
(1.02238 0.00159793 0)
(1.02269 0.00160339 0)
(1.02295 0.00162688 0)
(1.02315 0.00167122 0)
(1.02328 0.00174045 0)
(1.02332 0.00184134 0)
(1.02326 0.00198516 0)
(1.02309 0.00218924 0)
(1.02278 0.00247794 0)
(1.02232 0.00288314 0)
(1.02168 0.0034445 0)
(1.02082 0.00420996 0)
(1.01972 0.00523726 0)
(1.0183 0.00659691 0)
(1.01649 0.00837696 0)
(1.01419 0.0106896 0)
(1.01129 0.01368 0)
(1.00762 0.017537 0)
(1.00302 0.0225083 0)
(0.997276 0.0289126 0)
(0.990205 0.0371771 0)
(0.981584 0.0478043 0)
(0.971469 0.0615751 0)
(0.959632 0.0789747 0)
(0.947599 0.102015 0)
(0.934649 0.128482 0)
(1.00004 0.000387774 0)
(1.00037 0.00108688 0)
(1.00097 0.00159313 0)
(1.00172 0.00191061 0)
(1.0025 0.00212771 0)
(1.0033 0.0022911 0)
(1.00413 0.00239843 0)
(1.00499 0.00245194 0)
(1.00585 0.00246827 0)
(1.0067 0.00246123 0)
(1.00753 0.00243712 0)
(1.00835 0.00240009 0)
(1.00915 0.0023545 0)
(1.00993 0.00230403 0)
(1.0107 0.00225118 0)
(1.01144 0.00219764 0)
(1.01216 0.00214468 0)
(1.01286 0.00209334 0)
(1.01355 0.00204437 0)
(1.01422 0.00199831 0)
(1.01487 0.00195537 0)
(1.01551 0.0019154 0)
(1.01613 0.00187785 0)
(1.01674 0.00184192 0)
(1.01734 0.00180665 0)
(1.01792 0.00177116 0)
(1.01849 0.00173489 0)
(1.01904 0.00169772 0)
(1.01957 0.00166003 0)
(1.02007 0.00162279 0)
(1.02055 0.00158756 0)
(1.02101 0.00155647 0)
(1.02144 0.00153228 0)
(1.02183 0.00151818 0)
(1.02219 0.00151756 0)
(1.02251 0.00153374 0)
(1.02278 0.00156989 0)
(1.02299 0.00162937 0)
(1.02314 0.00171672 0)
(1.02321 0.00183912 0)
(1.02319 0.00200816 0)
(1.02306 0.00224148 0)
(1.0228 0.00256391 0)
(1.02239 0.00300818 0)
(1.02181 0.00361531 0)
(1.02103 0.00443537 0)
(1.02 0.005529 0)
(1.01868 0.0069705 0)
(1.01699 0.00885254 0)
(1.01485 0.0112927 0)
(1.01213 0.0144424 0)
(1.00871 0.0184965 0)
(1.00442 0.0237085 0)
(0.999077 0.0304005 0)
(0.992517 0.0389946 0)
(0.984555 0.0499847 0)
(0.975256 0.0640929 0)
(0.964479 0.0818029 0)
(0.953612 0.104763 0)
(0.942173 0.13122 0)
(1.00004 0.000343392 0)
(1.00034 0.000969523 0)
(1.00089 0.00143684 0)
(1.00161 0.00173789 0)
(1.00237 0.00194204 0)
(1.00316 0.00209395 0)
(1.00398 0.00219548 0)
(1.00483 0.00224788 0)
(1.00568 0.00226503 0)
(1.00652 0.00225996 0)
(1.00735 0.00223901 0)
(1.00817 0.00220601 0)
(1.00897 0.00216486 0)
(1.00975 0.00211902 0)
(1.01051 0.00207087 0)
(1.01125 0.002022 0)
(1.01197 0.00197362 0)
(1.01268 0.00192667 0)
(1.01336 0.00188189 0)
(1.01403 0.00183977 0)
(1.01468 0.0018005 0)
(1.01532 0.00176396 0)
(1.01595 0.0017297 0)
(1.01656 0.00169702 0)
(1.01715 0.00166511 0)
(1.01774 0.00163324 0)
(1.0183 0.00160098 0)
(1.01885 0.00156829 0)
(1.01938 0.00153561 0)
(1.01989 0.00150394 0)
(1.02037 0.00147481 0)
(1.02083 0.0014504 0)
(1.02126 0.00143346 0)
(1.02166 0.00142731 0)
(1.02202 0.00143555 0)
(1.02235 0.00146183 0)
(1.02263 0.00150977 0)
(1.02286 0.00158326 0)
(1.02303 0.00168737 0)
(1.02313 0.00182975 0)
(1.02314 0.00202238 0)
(1.02304 0.00228328 0)
(1.02283 0.00263776 0)
(1.02247 0.0031193 0)
(1.02196 0.00377015 0)
(1.02125 0.0046422 0)
(1.02031 0.00579871 0)
(1.01909 0.00731735 0)
(1.01752 0.00929502 0)
(1.01554 0.0118543 0)
(1.01302 0.0151519 0)
(1.00985 0.0193886 0)
(1.00588 0.0248222 0)
(1.00095 0.0317776 0)
(0.994907 0.0406713 0)
(0.987605 0.0519864 0)
(0.979113 0.0663914 0)
(0.969353 0.0843549 0)
(0.95959 0.107225 0)
(0.949496 0.133566 0)
(1.00003 0.000303276 0)
(1.00031 0.000861218 0)
(1.00083 0.00128815 0)
(1.00151 0.00156994 0)
(1.00226 0.00176029 0)
(1.00303 0.00190038 0)
(1.00385 0.00199524 0)
(1.00468 0.00204572 0)
(1.00553 0.00206324 0)
(1.00637 0.0020598 0)
(1.00719 0.00204169 0)
(1.00801 0.00201246 0)
(1.0088 0.00197557 0)
(1.00958 0.00193423 0)
(1.01034 0.00189067 0)
(1.01108 0.0018464 0)
(1.01181 0.00180252 0)
(1.01251 0.00175994 0)
(1.0132 0.00171931 0)
(1.01387 0.00168111 0)
(1.01452 0.0016455 0)
(1.01516 0.00161241 0)
(1.01578 0.00158146 0)
(1.01639 0.00155206 0)
(1.01699 0.00152353 0)
(1.01757 0.00149529 0)
(1.01814 0.00146701 0)
(1.01869 0.00143874 0)
(1.01922 0.00141098 0)
(1.01973 0.00138474 0)
(1.02021 0.00136158 0)
(1.02067 0.00134364 0)
(1.02111 0.00133373 0)
(1.02151 0.00133521 0)
(1.02188 0.00135188 0)
(1.02221 0.00138765 0)
(1.02251 0.00144658 0)
(1.02275 0.00153304 0)
(1.02294 0.00165265 0)
(1.02306 0.00181356 0)
(1.0231 0.00202821 0)
(1.02305 0.00231503 0)
(1.02288 0.00269981 0)
(1.02257 0.00321669 0)
(1.02212 0.00390897 0)
(1.02148 0.00483016 0)
(1.02063 0.00604577 0)
(1.01951 0.00763654 0)
(1.01808 0.00970311 0)
(1.01625 0.0123726 0)
(1.01394 0.0158065 0)
(1.01103 0.0202108 0)
(1.00739 0.0258471 0)
(1.00288 0.0330419 0)
(0.997367 0.042206 0)
(0.990726 0.0538107 0)
(0.98303 0.0684756 0)
(0.974247 0.086646 0)
(0.965527 0.10942 0)
(0.956634 0.135586 0)
(1.00003 0.000266574 0)
(1.00029 0.000760487 0)
(1.00078 0.00114627 0)
(1.00143 0.00140645 0)
(1.00216 0.00158207 0)
(1.00293 0.00171004 0)
(1.00373 0.00179752 0)
(1.00456 0.00184533 0)
(1.00539 0.00186276 0)
(1.00623 0.00186064 0)
(1.00705 0.0018451 0)
(1.00786 0.00181939 0)
(1.00866 0.0017866 0)
(1.00944 0.00174963 0)
(1.0102 0.00171058 0)
(1.01094 0.00167083 0)
(1.01166 0.00163141 0)
(1.01236 0.00159313 0)
(1.01305 0.00155663 0)
(1.01372 0.00152232 0)
(1.01437 0.00149039 0)
(1.01501 0.00146076 0)
(1.01564 0.00143314 0)
(1.01625 0.00140704 0)
(1.01685 0.00138191 0)
(1.01743 0.00135729 0)
(1.018 0.00133296 0)
(1.01855 0.00130906 0)
(1.01908 0.00128613 0)
(1.01959 0.0012652 0)
(1.02008 0.00124783 0)
(1.02054 0.00123618 0)
(1.02097 0.00123305 0)
(1.02138 0.00124187 0)
(1.02176 0.00126654 0)
(1.0221 0.00131125 0)
(1.0224 0.00138039 0)
(1.02266 0.00147885 0)
(1.02287 0.00161275 0)
(1.02301 0.00179081 0)
(1.02308 0.00202596 0)
(1.02306 0.00233705 0)
(1.02294 0.00275031 0)
(1.02269 0.00330047 0)
(1.02229 0.00403172 0)
(1.02173 0.00499893 0)
(1.02096 0.00626962 0)
(1.01996 0.00792718 0)
(1.01866 0.0100756 0)
(1.017 0.0128461 0)
(1.0149 0.0164046 0)
(1.01226 0.0209612 0)
(1.00896 0.0267811 0)
(1.00487 0.0341918 0)
(0.999891 0.0435981 0)
(0.993908 0.0554593 0)
(0.986997 0.0703508 0)
(0.979153 0.0886902 0)
(0.971421 0.111369 0)
(0.963604 0.13733 0)
(1.00003 0.000232622 0)
(1.00027 0.000666081 0)
(1.00073 0.00101042 0)
(1.00137 0.00124707 0)
(1.00208 0.00140702 0)
(1.00283 0.00152257 0)
(1.00363 0.00160211 0)
(1.00445 0.00164657 0)
(1.00528 0.00166347 0)
(1.00611 0.0016624 0)
(1.00693 0.00164916 0)
(1.00774 0.00162677 0)
(1.00853 0.00159792 0)
(1.00931 0.00156521 0)
(1.01007 0.00153057 0)
(1.01081 0.00149528 0)
(1.01153 0.00146026 0)
(1.01223 0.00142626 0)
(1.01292 0.00139386 0)
(1.01359 0.00136343 0)
(1.01425 0.00133516 0)
(1.01489 0.001309 0)
(1.01551 0.00128473 0)
(1.01612 0.00126195 0)
(1.01672 0.00124023 0)
(1.0173 0.00121922 0)
(1.01787 0.00119882 0)
(1.01842 0.00117922 0)
(1.01895 0.00116103 0)
(1.01947 0.00114529 0)
(1.01995 0.00113357 0)
(1.02042 0.00112802 0)
(1.02086 0.00113144 0)
(1.02127 0.00114728 0)
(1.02165 0.00117955 0)
(1.022 0.00123264 0)
(1.02232 0.00131127 0)
(1.02259 0.00142079 0)
(1.02281 0.00156787 0)
(1.02298 0.00176175 0)
(1.02308 0.0020159 0)
(1.0231 0.00234958 0)
(1.02301 0.00278945 0)
(1.02282 0.00337073 0)
(1.02248 0.00413833 0)
(1.02199 0.00514826 0)
(1.02132 0.00646974 0)
(1.02042 0.0081885 0)
(1.01926 0.0104116 0)
(1.01777 0.0132735 0)
(1.01589 0.0169443 0)
(1.01352 0.021638 0)
(1.01057 0.0276224 0)
(1.00692 0.0352256 0)
(1.00247 0.0448469 0)
(0.997144 0.0569337 0)
(0.991008 0.0720222 0)
(0.984069 0.0905002 0)
(0.977272 0.113088 0)
(0.970425 0.138836 0)
(1.00003 0.000200893 0)
(1.00025 0.000576935 0)
(1.0007 0.000879835 0)
(1.00131 0.00109142 0)
(1.00201 0.00123481 0)
(1.00275 0.00133764 0)
(1.00354 0.00140877 0)
(1.00435 0.0014493 0)
(1.00518 0.00146526 0)
(1.006 0.00146498 0)
(1.00682 0.00145383 0)
(1.00763 0.00143456 0)
(1.00842 0.0014095 0)
(1.0092 0.00138095 0)
(1.00996 0.00135064 0)
(1.0107 0.00131974 0)
(1.01142 0.00128908 0)
(1.01212 0.00125932 0)
(1.01281 0.00123099 0)
(1.01348 0.00120443 0)
(1.01414 0.00117981 0)
(1.01478 0.00115714 0)
(1.0154 0.00113622 0)
(1.01601 0.00111677 0)
(1.01661 0.00109846 0)
(1.01719 0.00108106 0)
(1.01776 0.00106455 0)
(1.01831 0.00104919 0)
(1.01885 0.00103566 0)
(1.01936 0.001025 0)
(1.01985 0.00101878 0)
(1.02032 0.00101914 0)
(1.02076 0.00102887 0)
(1.02118 0.00105143 0)
(1.02157 0.00109091 0)
(1.02192 0.00115185 0)
(1.02225 0.00123928 0)
(1.02253 0.00135898 0)
(1.02278 0.00151815 0)
(1.02297 0.00172659 0)
(1.02309 0.00199826 0)
(1.02314 0.00235287 0)
(1.0231 0.00281743 0)
(1.02295 0.00342755 0)
(1.02268 0.00422873 0)
(1.02227 0.0052779 0)
(1.02168 0.00664569 0)
(1.0209 0.00841982 0)
(1.01988 0.0107099 0)
(1.01857 0.0136537 0)
(1.01691 0.0174245 0)
(1.01482 0.0222397 0)
(1.01222 0.0283694 0)
(1.00901 0.0361423 0)
(1.0051 0.0459522 0)
(1.00043 0.0582357 0)
(0.995056 0.0734944 0)
(0.98899 0.0920873 0)
(0.983082 0.114592 0)
(0.977116 0.140138 0)
(1.00003 0.00017096 0)
(1.00024 0.000492139 0)
(1.00067 0.000753789 0)
(1.00126 0.000939102 0)
(1.00195 0.0010651 0)
(1.00268 0.00115493 0)
(1.00346 0.00121726 0)
(1.00427 0.00125336 0)
(1.00509 0.001268 0)
(1.00591 0.00126828 0)
(1.00673 0.00125903 0)
(1.00753 0.00124271 0)
(1.00833 0.00122132 0)
(1.0091 0.00119683 0)
(1.00986 0.00117079 0)
(1.0106 0.00114423 0)
(1.01132 0.00111787 0)
(1.01203 0.00109232 0)
(1.01271 0.00106803 0)
(1.01339 0.00104532 0)
(1.01404 0.00102436 0)
(1.01468 0.00100517 0)
(1.01531 0.000987622 0)
(1.01592 0.00097151 0)
(1.01652 0.000956612 0)
(1.0171 0.0009428 0)
(1.01767 0.00093014 0)
(1.01822 0.000918979 0)
(1.01876 0.000910006 0)
(1.01927 0.000904307 0)
(1.01976 0.000903443 0)
(1.02023 0.000909533 0)
(1.02068 0.000925347 0)
(1.0211 0.000954344 0)
(1.02149 0.00100063 0)
(1.02186 0.00106892 0)
(1.02219 0.00116449 0)
(1.02249 0.00129353 0)
(1.02275 0.00146375 0)
(1.02297 0.0016855 0)
(1.02312 0.00197325 0)
(1.0232 0.00234712 0)
(1.0232 0.00283441 0)
(1.02311 0.00347103 0)
(1.02289 0.0043029 0)
(1.02255 0.00538765 0)
(1.02206 0.00679707 0)
(1.02139 0.00862054 0)
(1.02051 0.0109699 0)
(1.01939 0.0139855 0)
(1.01795 0.0178437 0)
(1.01615 0.0227647 0)
(1.01391 0.0290208 0)
(1.01114 0.0369406 0)
(1.00777 0.0469137 0)
(1.00375 0.0593667 0)
(0.999135 0.0747721 0)
(0.993916 0.0934614 0)
(0.988855 0.115897 0)
(0.983696 0.141261 0)
(1.00003 0.00014247 0)
(1.00023 0.000410902 0)
(1.00064 0.000631584 0)
(1.00122 0.00078969 0)
(1.0019 0.000897561 0)
(1.00263 0.000974118 0)
(1.0034 0.00102735 0)
(1.0042 0.00105859 0)
(1.00502 0.00107159 0)
(1.00584 0.00107221 0)
(1.00665 0.00106469 0)
(1.00745 0.00105118 0)
(1.00825 0.00103333 0)
(1.00902 0.00101282 0)
(1.00978 0.000990988 0)
(1.01052 0.000968716 0)
(1.01124 0.000946637 0)
(1.01195 0.000925262 0)
(1.01263 0.000904997 0)
(1.01331 0.000886129 0)
(1.01396 0.000868817 0)
(1.0146 0.000853104 0)
(1.01523 0.000838927 0)
(1.01584 0.000826156 0)
(1.01644 0.000814666 0)
(1.01702 0.000804426 0)
(1.01759 0.000795586 0)
(1.01815 0.000788557 0)
(1.01868 0.000784066 0)
(1.0192 0.000783218 0)
(1.01969 0.000787567 0)
(1.02016 0.000799211 0)
(1.02061 0.000820885 0)
(1.02104 0.000856022 0)
(1.02144 0.000908754 0)
(1.02181 0.000983888 0)
(1.02216 0.00108696 0)
(1.02247 0.00122454 0)
(1.02274 0.00140481 0)
(1.02298 0.00163868 0)
(1.02316 0.00194109 0)
(1.02327 0.00233252 0)
(1.02331 0.00284054 0)
(1.02327 0.00350124 0)
(1.02312 0.0043608 0)
(1.02285 0.00547736 0)
(1.02245 0.00692356 0)
(1.0219 0.00879015 0)
(1.02117 0.0111908 0)
(1.02022 0.0142681 0)
(1.01902 0.018201 0)
(1.01751 0.0232121 0)
(1.01562 0.0295753 0)
(1.0133 0.0376198 0)
(1.01048 0.0477313 0)
(1.00711 0.0603283 0)
(1.00324 0.0758588 0)
(0.998846 0.0946311 0)
(0.994598 0.117012 0)
(0.990183 0.142226 0)
(1.00002 0.000115127 0)
(1.00022 0.000332532 0)
(1.00062 0.000512559 0)
(1.00119 0.00064275 0)
(1.00185 0.000731872 0)
(1.00258 0.000794901 0)
(1.00335 0.000838782 0)
(1.00414 0.000864819 0)
(1.00496 0.000875879 0)
(1.00577 0.000876679 0)
(1.00659 0.000870749 0)
(1.00739 0.000859913 0)
(1.00818 0.000845516 0)
(1.00895 0.00082892 0)
(1.00971 0.000811237 0)
(1.01045 0.000793213 0)
(1.01117 0.000775374 0)
(1.01188 0.000758151 0)
(1.01257 0.000741892 0)
(1.01324 0.000726849 0)
(1.0139 0.000713179 0)
(1.01454 0.000700945 0)
(1.01516 0.000690139 0)
(1.01578 0.000680708 0)
(1.01638 0.000672618 0)
(1.01696 0.000665929 0)
(1.01753 0.000660873 0)
(1.01808 0.000657918 0)
(1.01862 0.000657829 0)
(1.01914 0.000661725 0)
(1.01963 0.00067115 0)
(1.02011 0.000688174 0)
(1.02056 0.000715488 0)
(1.02099 0.000756485 0)
(1.0214 0.000815294 0)
(1.02178 0.000896807 0)
(1.02213 0.00100677 0)
(1.02246 0.0011521 0)
(1.02275 0.00134147 0)
(1.023 0.00158629 0)
(1.02321 0.00190195 0)
(1.02335 0.00230928 0)
(1.02343 0.002836 0)
(1.02344 0.0035183 0)
(1.02335 0.00440246 0)
(1.02315 0.00554692 0)
(1.02285 0.00702492 0)
(1.02241 0.00892827 0)
(1.02183 0.0113721 0)
(1.02107 0.0145008 0)
(1.0201 0.0184955 0)
(1.01888 0.0235807 0)
(1.01736 0.0300321 0)
(1.01549 0.0381792 0)
(1.01322 0.0484049 0)
(1.0105 0.0611215 0)
(1.00737 0.076758 0)
(1.00378 0.0956034 0)
(1.00032 0.117948 0)
(0.996595 0.143048 0)
(1.00002 8.86738e-05 0)
(1.00022 0.000256415 0)
(1.00061 0.000396088 0)
(1.00116 0.000497839 0)
(1.00182 0.000567699 0)
(1.00254 0.00061698 0)
(1.0033 0.000651321 0)
(1.0041 0.000671874 0)
(1.00491 0.000680758 0)