/*--------------------------------*- C++ -*----------------------------------*\
| =========                 |                                                 |
| \\      /  F ield         | OpenFOAM: The Open Source CFD Toolbox           |
|  \\    /   O peration     | Version:  2.4.0                                 |
|   \\  /    A nd           | Web:      www.OpenFOAM.org                      |
|    \\/     M anipulation  |                                                 |
\*---------------------------------------------------------------------------*/
FoamFile
{
    version     2.0;
    format      ascii;
    class       volScalarField;
    location    "2.24";
    object      k;
}
// * * * * * * * * * * * * * * * * * * * * * * * * * * * * * * * * * * * * * //

dimensions      [0 2 -2 0 0 0 0];

internalField   nonuniform List<scalar> 
6000
(
0.168232
0.0132545
0.000987157
0.0036159
0.00251002
0.00294178
0.00244846
0.00242421
0.0021695
0.00213825
0.00208798
0.00212024
0.00201753
0.00168592
0.00103579
0.00042959
0.000559243
0.00111386
0.00131198
0.000970638
0.0014612
0.00455491
0.00926533
0.0148053
0.0202923
0.0250013
0.0284002
0.030078
0.0296778
0.0270241
0.0222572
0.0159045
0.00890185
0.00293143
0.00236567
0.00603578
0.00928286
0.0114581
0.0125262
0.0127158
0.0123518
0.0117305
0.0110788
0.0105639
0.0103039
0.0103832
0.0108488
0.0117516
0.0131042
0.0150075
0.0173911
0.0205641
0.0240688
0.0290764
0.0334788
0.0420345
0.0458671
0.0639235
0.0620555
0.105118
0.0762074
0.0101431
0.000950657
0.00240228
0.00171706
0.00193188
0.00162544
0.00159031
0.00143108
0.00140249
0.00136637
0.00137291
0.00129629
0.00108163
0.000684416
0.000335868
0.000479704
0.000816955
0.000933379
0.000782581
0.00128281
0.00305953
0.00538533
0.00782968
0.010039
0.0117791
0.0129071
0.0133253
0.0129467
0.0117733
0.00986114
0.00736344
0.00453624
0.00196962
0.00192338
0.00350725
0.00484988
0.00574218
0.00618836
0.00627798
0.00614014
0.00589528
0.00563979
0.00544822
0.00537532
0.00546096
0.00572748
0.00619801
0.00687902
0.0078124
0.00896987
0.0104786
0.0121587
0.0144849
0.0166347
0.0205005
0.0226293
0.030469
0.0307657
0.0485568
0.0412226
0.00802588
0.000977933
0.0016867
0.00122572
0.00131973
0.00111898
0.00108235
0.000979894
0.000956978
0.000932031
0.000928489
0.000871415
0.000729384
0.000484828
0.000291484
0.000423391
0.000641341
0.000734078
0.000722551
0.00120392
0.00231608
0.00358335
0.0047683
0.00572605
0.00639178
0.00674704
0.00679224
0.0065368
0.00601014
0.00523042
0.00423389
0.00307014
0.00189112
0.00180462
0.00235736
0.00284551
0.00318204
0.00335582
0.00338977
0.00332847
0.0032208
0.0031106
0.00303387
0.00301784
0.00308227
0.00323805
0.00349652
0.00386099
0.00434983
0.00495244
0.00572377
0.00659335
0.00776101
0.00890025
0.0107903
0.0120506
0.0157159
0.0164795
0.0242658
0.0260625
0.00677209
0.00107434
0.0012665
0.000918338
0.000939507
0.00079896
0.000763876
0.000696222
0.000679418
0.000663328
0.000657438
0.000616401
0.000523379
0.00037575
0.000277177
0.000390353
0.000546115
0.000645904
0.000739099
0.00119233
0.00195093
0.00271397
0.00335321
0.0038198
0.00411545
0.00426269
0.00428835
0.00422593
0.00406803
0.0038097
0.00344097
0.00294222
0.00227497
0.00199289
0.00197497
0.00200062
0.00202928
0.00203792
0.00201742
0.00196939
0.00190732
0.00184927
0.00181228
0.00180987
0.0018518
0.00194342
0.00209046
0.00229446
0.00256382
0.00289522
0.00331349
0.00379216
0.00441767
0.00506148
0.0060507
0.00683074
0.0086591
0.00938945
0.0129564
0.0187962
0.00609113
0.00123522
0.001033
0.000728892
0.000700633
0.000593485
0.000560202
0.000514403
0.000503318
0.00049458
0.000490508
0.000463621
0.000406188
0.000322679
0.00028244
0.000379307
0.000507028
0.000630479
0.000803283
0.00123185
0.00180109
0.0023259
0.0027469
0.00306372
0.00330094
0.00348591
0.00364417
0.00377489
0.00384723
0.00383736
0.00371492
0.00343541
0.0028958
0.00243192
0.00206619
0.00178318
0.00158358
0.00144928
0.0013588
0.00128879
0.00123051
0.00118543
0.00115854
0.00115491
0.00117846
0.00123146
0.00131652
0.00143409
0.0015881
0.00177804
0.00201561
0.002292
0.00264547
0.00302745
0.00357649
0.00407374
0.00504079
0.00562145
0.00731726
0.0150487
0.00576586
0.00145096
0.000926259
0.000619396
0.000551837
0.000461312
0.000428856
0.000396973
0.000391048
0.00038883
0.000389044
0.000375257
0.000345211
0.000305517
0.000301632
0.000388227
0.000509005
0.000664293
0.000899141
0.00131449
0.00179333
0.00223043
0.002612
0.00295785
0.00328867
0.00361434
0.00393827
0.00421419
0.0044088
0.00449059
0.0044252
0.00416324
0.00361465
0.00302592
0.00244572
0.0019362
0.00153842
0.00125716
0.00107563
0.000957727
0.000878579
0.000826179
0.000795552
0.000784998
0.000794061
0.000822741
0.000871587
0.000940225
0.0010304
0.00114249
0.00128227
0.0014477
0.00165618
0.00189111
0.00221136
0.00253466
0.00307441
0.00350299
0.00433817
0.013016
0.00565582
0.00171023
0.000911721
0.000567921
0.000463371
0.000378104
0.000344902
0.000321836
0.00032055
0.000324488
0.000330585
0.000329228
0.000321135
0.000312199
0.000331723
0.000414656
0.000541787
0.000732236
0.00101798
0.00143617
0.00189259
0.0023397
0.00279098
0.0032633
0.00375214
0.00423579
0.00468353
0.00503232
0.00526004
0.00534045
0.00524529
0.00492828
0.00434839
0.00367896
0.00297037
0.00230088
0.00173461
0.00130493
0.00101436
0.000827369
0.000708971
0.000635588
0.000592757
0.000572158
0.000569172
0.000581574
0.000608209
0.000647937
0.000701263
0.000768629
0.000852975
0.000954614
0.00108173
0.00123003
0.00142461
0.0016377
0.00195402
0.0022589
0.00268642
0.0118776
0.00567222
0.00200082
0.00096785
0.000562285
0.000417776
0.000329213
0.000293327
0.000275584
0.000278479
0.000288493
0.000301556
0.000312084
0.000322055
0.000335317
0.000370988
0.000456075
0.000597816
0.000824078
0.00115504
0.00159427
0.00207957
0.00260536
0.00319431
0.00383794
0.00449014
0.00509767
0.00559991
0.00595569
0.00615712
0.00618907
0.00603226
0.00564781
0.00504275
0.00432374
0.00353986
0.00276457
0.0020679
0.00150296
0.00109605
0.000824805
0.000652434
0.000547013
0.000485202
0.000451822
0.00043777
0.000438268
0.00045048
0.000472414
0.000503688
0.000544465
0.0005962
0.000659782
0.000739208
0.000834559
0.000956613
0.00109843
0.00129183
0.00150452
0.00173367
0.01123
0.00575885
0.00231003
0.00108069
0.000594697
0.00040494
0.000305777
0.000264938
0.000249889
0.000256528
0.00027267
0.000293431
0.000315304
0.000340404
0.00037029
0.000418325
0.00051004
0.000671024
0.000932885
0.00130776
0.00178693
0.0023422
0.00299646
0.00376141
0.00458223
0.00536669
0.00604556
0.00654375
0.0068611
0.00700121
0.00696088
0.00673012
0.00628465
0.00566335
0.00491917
0.00409567
0.00325492
0.00246493
0.00178866
0.00127114
0.000909056
0.000672298
0.0005257
0.000438819
0.000389717
0.000364425
0.00035516
0.000357256
0.000367707
0.000385335
0.000409866
0.000441852
0.000482089
0.000532566
0.000594629
0.000672959
0.000767972
0.000890349
0.00103725
0.00116707
0.0108618
0.0058803
0.00262531
0.00123917
0.000660349
0.000419369
0.00030254
0.000254103
0.000239518
0.000249409
0.000271746
0.000300682
0.000333353
0.000371344
0.000414366
0.000472978
0.000574392
0.000757006
0.00105421
0.0014751
0.0020132
0.00267269
0.00349035
0.0044446
0.00542227
0.00629568
0.00699392
0.00745216
0.00770029
0.00775556
0.00762692
0.00731433
0.00681943
0.00618855
0.00543958
0.0046047
0.00373065
0.00287903
0.00211728
0.00150336
0.00105242
0.000746234
0.000551791
0.000434536
0.000366633
0.000329133
0.000310862
0.000305114
0.000307674
0.000316543
0.000330916
0.000350692
0.000376338
0.000408776
0.000449484
0.000500488
0.000564396
0.000643809
0.000744838
0.000823283
0.0106568
0.00601477
0.00293521
0.00143313
0.000755869
0.000458313
0.000316614
0.000257454
0.000241187
0.00025371
0.000282253
0.000319655
0.000362648
0.000411901
0.000466044
0.000534492
0.000647484
0.000852793
0.00118565
0.00165736
0.00227325
0.00306537
0.00406674
0.00520318
0.00630566
0.00722813
0.00790683
0.00829754
0.00845306
0.00840487
0.00817467
0.00777461
0.0072416
0.00660525
0.00586815
0.00504614
0.0041673
0.00328242
0.00245951
0.00176611
0.00123393
0.00085832
0.000612346
0.000460639
0.000371038
0.00031994
0.000292583
0.000280041
0.000276708
0.000279687
0.000287576
0.000299715
0.000316172
0.000337203
0.000364056
0.000397522
0.000440581
0.00049296
0.000562401
0.000613273
0.0105486
0.00614939
0.00323015
0.00165243
0.000878831
0.000519858
0.000346761
0.000273147
0.000252912
0.000267245
0.000301896
0.000347951
0.000400981
0.000460447
0.000524724
0.00060278
0.000728365
0.000956825
0.0013266
0.00185603
0.0025679
0.00351418
0.00470486
0.00600323
0.00719716
0.00813579
0.0087648
0.00906563
0.00910953
0.00894243
0.00859945
0.00811187
0.00754484
0.00690677
0.00619431
0.00540577
0.00454829
0.00365722
0.00279664
0.00204113
0.00143779
0.000996228
0.000697809
0.000509074
0.000395383
0.000329198
0.000292225
0.000273215
0.000265031
0.000263796
0.000267454
0.000274812
0.000285526
0.000299357
0.000317238
0.000339294
0.000368349
0.000403201
0.000451086
0.000486568
0.0104984
0.00627713
0.00350299
0.00188684
0.00102639
0.000602569
0.000392985
0.00030042
0.00027362
0.00028867
0.000329184
0.000384048
0.000447066
0.000516332
0.000590478
0.000678187
0.000816873
0.00106884
0.00147783
0.00207331
0.00289744
0.00401091
0.00538384
0.00681784
0.00807269
0.00900054
0.00955544
0.009748
0.00966485
0.00936654
0.00890194
0.00833234
0.00772975
0.00709192
0.0064127
0.00567412
0.0048614
0.00399023
0.00311566
0.0023159
0.00165261
0.00115047
0.00080071
0.000573784
0.000434286
0.000351662
0.000304356
0.000278793
0.000266228
0.000261732
0.000262549
0.000266954
0.000274192
0.000283596
0.000295798
0.000310467
0.000330207
0.000353512
0.000386866
0.000413444
0.0104826
0.00639464
0.00374923
0.00212645
0.00119478
0.00070559
0.00045534
0.000339327
0.000302907
0.000317242
0.000363195
0.000427045
0.000500335
0.000579583
0.000663878
0.000761511
0.000913618
0.00118963
0.00164109
0.00231135
0.00326049
0.00454496
0.00608402
0.00762601
0.00891488
0.00980949
0.0102702
0.0103396
0.0101176
0.00967912
0.00908896
0.00844463
0.00780207
0.00716427
0.00652281
0.00584608
0.00509784
0.00427106
0.00340635
0.00258111
0.00187012
0.00131397
0.000915263
0.000650072
0.000483702
0.000383533
0.000325158
0.000292744
0.000275928
0.000268676
0.000267501
0.000270135
0.000275419
0.000282287
0.000291105
0.000301153
0.000314893
0.000330618
0.00035442
0.000375724
0.0104869
0.00650084
0.00396682
0.00236223
0.00137913
0.000827919
0.000533733
0.000390595
0.000340907
0.000352678
0.000403412
0.00047646
0.000560666
0.000650656
0.00074585
0.000853944
0.00101983
0.00132074
0.00181841
0.00257145
0.00365348
0.00510418
0.00678793
0.00841125
0.00971051
0.0105529
0.010903
0.010838
0.0104687
0.00988476
0.00917447
0.00845693
0.00777123
0.00713148
0.00652861
0.00592076
0.00525224
0.00449161
0.00366013
0.00282908
0.00208389
0.00148137
0.00103707
0.000734335
0.000540566
0.000422011
0.000351898
0.000312228
0.000291089
0.000281303
0.000278628
0.000280246
0.000284603
0.000290249
0.000297324
0.000304722
0.000314887
0.000325796
0.000343668
0.000361857
0.0105025
0.00659589
0.00415574
0.00258654
0.00157358
0.000967833
0.000628151
0.000455016
0.000388214
0.000395062
0.000449611
0.000532064
0.000628171
0.000730228
0.000837531
0.000956952
0.00113715
0.00146398
0.00201158
0.00285351
0.00407069
0.00567596
0.0074805
0.00916036
0.0104492
0.0112234
0.0114501
0.0112424
0.0107214
0.00998976
0.00917433
0.00838017
0.00764922
0.00700453
0.00643802
0.0059014
0.00532273
0.00464624
0.00386985
0.0030531
0.00228848
0.00164841
0.00116276
0.000823855
0.000602603
0.00046506
0.00038261
0.000335256
0.000309602
0.000297313
0.00029338
0.000294433
0.000298538
0.000303869
0.000310384
0.000316574
0.000324985
0.000333095
0.000347755
0.000364203
0.0105238
0.0066806
0.00431749
0.00279356
0.00177166
0.00112263
0.000738474
0.000533024
0.000445845
0.000444808
0.000501792
0.000593762
0.000703011
0.000819034
0.000940107
0.00107211
0.00126732
0.00162104
0.0022216
0.00315578
0.00450487
0.00624812
0.00814898
0.00986272
0.0111229
0.0118124
0.0119089
0.0115537
0.0108797
0.0100097
0.00909756
0.00822652
0.00744954
0.00679674
0.00626226
0.00579495
0.00531097
0.00473197
0.00402996
0.00324727
0.00247898
0.00181141
0.00128961
0.000916552
0.000668141
0.000511236
0.00041594
0.000360476
0.000330037
0.000315147
0.000310016
0.000310728
0.000314982
0.000320595
0.000327384
0.000333425
0.000341468
0.000348298
0.000361852
0.000377499
0.0105474
0.006756
0.00445458
0.00297944
0.00196682
0.00128855
0.000863932
0.000624975
0.000514863
0.00050264
0.000560149
0.000661509
0.000785271
0.000917723
0.00105466
0.00120092
0.00141197
0.00179316
0.00244839
0.00347497
0.0049479
0.00680943
0.00878267
0.0105097
0.011725
0.012316
0.0122783
0.0117737
0.0109484
0.00996104
0.00895376
0.00800834
0.00718624
0.00652285
0.0060149
0.00561159
0.00522196
0.0047486
0.00413671
0.00340663
0.00265094
0.001967
0.00141524
0.00101075
0.000735931
0.000559528
0.000450984
0.000387007
0.000351474
0.000333788
0.000327384
0.000327799
0.000332386
0.00033863
0.000346241
0.000352885
0.000361607
0.000368316
0.000382429
0.000397958
0.0105712
0.00682317
0.00457004
0.00314222
0.00215299
0.00146091
0.00100287
0.000730999
0.000596068
0.000569595
0.000625073
0.000735281
0.000874862
0.00102675
0.00118203
0.00134465
0.00157236
0.00198092
0.00269082
0.00380663
0.00539145
0.00734993
0.00937268
0.0110942
0.0122507
0.0127324
0.0125581
0.0119046
0.0109427
0.00985026
0.00875248
0.00773751
0.00687311
0.00619793
0.00571095
0.00536389
0.0050637
0.00469876
0.00418833
0.00352734
0.00280039
0.00211207
0.00153747
0.00110499
0.000804982
0.000609212
0.000487147
0.000414299
0.000373347
0.000352613
0.000344757
0.000344784
0.000349715
0.000356732
0.000365475
0.000373216
0.000383369
0.000390833
0.00040681
0.000422744
0.0105941
0.0068831
0.00466704
0.00328163
0.00232506
0.00163436
0.00115265
0.000850619
0.000690031
0.000646856
0.000697181
0.000815081
0.000971474
0.00114597
0.00132264
0.00150419
0.00174892
0.00218418
0.00294677
0.00414562
0.00582756
0.00786104
0.0099117
0.0116106
0.0126958
0.01306
0.0127484
0.0119526
0.0108748
0.00968392
0.00850265
0.00742497
0.00652301
0.00583662
0.00536579
0.00506598
0.0048466
0.00458762
0.00418519
0.00360693
0.00292402
0.0022437
0.00165424
0.00119792
0.000874435
0.000659728
0.000524028
0.00044202
0.000395334
0.000371263
0.000361711
0.000361158
0.00036631
0.000374077
0.000384059
0.000393173
0.000405244
0.000414093
0.000432916
0.000449664
0.0106153
0.00693667
0.00474868
0.00339871
0.00247927
0.00180336
0.00130959
0.000982546
0.000796915
0.000735393
0.000777489
0.00090098
0.00107458
0.00127431
0.00147638
0.00167997
0.00194212
0.00240223
0.00321353
0.00448659
0.00624903
0.0083356
0.0103938
0.0120541
0.0130568
0.0132977
0.0128498
0.0119315
0.0107493
0.00946842
0.00821237
0.00708043
0.00614747
0.00545232
0.00499425
0.00473258
0.00458276
0.00442267
0.00412972
0.00364438
0.00301927
0.00235932
0.00176356
0.00128823
0.000943487
0.000710594
0.000561325
0.000469961
0.000417257
0.000389555
0.000378021
0.00037663
0.000381783
0.000390154
0.00040132
0.000411895
0.000426137
0.000436782
0.000459119
0.000476996
0.0106345
0.0069846
0.00481775
0.00349544
0.00261331
0.00196267
0.0014692
0.00112455
0.00091626
0.000835662
0.00086743
0.000993227
0.00118353
0.00141066
0.00164256
0.00187182
0.002152
0.00263396
0.00348816
0.00482455
0.00664984
0.00876787
0.0108144
0.0124208
0.0133306
0.0134442
0.0128725
0.0118463
0.010571
0.00920971
0.00788879
0.00671238
0.00575648
0.00505683
0.0046099
0.00437803
0.00428518
0.00421313
0.00402627
0.00364022
0.00308452
0.00245674
0.00186358
0.00137464
0.00101134
0.000761347
0.000598779
0.000497971
0.000439018
0.000407402
0.000393589
0.000391064
0.00039594
0.000404681
0.000416854
0.00042883
0.000445289
0.00045795
0.000484169
0.000503409
0.0106516
0.00702752
0.00487666
0.00357436
0.00272636
0.00210778
0.00162646
0.0012734
0.0010468
0.000947663
0.000967494
0.00109325
0.00129763
0.00155346
0.00181978
0.0020789
0.00237817
0.0028782
0.00376796
0.0051553
0.00702539
0.00915357
0.0111698
0.0127074
0.0135143
0.0135037
0.0128228
0.0117019
0.0103445
0.00891328
0.00753824
0.0063281
0.0053585
0.00466006
0.00422443
0.00401553
0.00396689
0.0039694
0.00388088
0.00359652
0.00311914
0.00253428
0.00195264
0.00145592
0.0010772
0.000811518
0.00063613
0.000525918
0.000460551
0.000424769
0.000408387
0.00040442
0.000408708
0.000417533
0.000430454
0.000443659
0.000462219
0.00047695
0.000507147
0.000527903
0.0106666
0.00706595
0.00492746
0.00363827
0.00281888
0.00223525
0.00177624
0.001425
0.00118633
0.00107074
0.00107784
0.00120143
0.00141769
0.00170079
0.00200597
0.00229958
0.00261984
0.00313391
0.00405089
0.00547588
0.00737286
0.00948992
0.0114577
0.0129093
0.0136068
0.013483
0.012706
0.0115027
0.0100745
0.00858414
0.00716631
0.00593385
0.00496054
0.00427006
0.00384746
0.00365652
0.00364021
0.00370236
0.00370135
0.00351674
0.0031235
0.00259083
0.00202932
0.00153089
0.00114028
0.00086062
0.000673105
0.000553661
0.000481793
0.00044164
0.00042242
0.000416715
0.000420099
0.000428698
0.000442058
0.000456243
0.000476666
0.000493387
0.000527427
0.00054978
0.0106797
0.00710032
0.00497176
0.00368992
0.00289236
0.00234302
0.00191375
0.00157458
0.00133168
0.00120341
0.00119811
0.00131766
0.00154373
0.00185224
0.00219779
0.00253134
0.00287578
0.00340043
0.00433601
0.00578501
0.00769152
0.00977384
0.0116688
0.0130253
0.0136141
0.013388
0.0125272
0.0112534
0.00976545
0.00822694
0.00677804
0.00553505
0.00456835
0.00389314
0.00348644
0.00331029
0.00331603
0.00342274
0.00349616
0.00340547
0.00309897
0.00262588
0.0020925
0.00159848
0.00119977
0.000908148
0.000709404
0.000581037
0.000502671
0.000457995
0.000435708
0.000427991
0.000430169
0.000438229
0.000451702
0.000466574
0.00048854
0.000507068
0.000544639
0.000568598
0.0106909
0.00713102
0.00501085
0.00373186
0.00294903
0.00243034
0.00203499
0.0017171
0.00147875
0.00134323
0.00132726
0.00144149
0.00167496
0.0020071
0.00239222
0.00277062
0.00314416
0.00367753
0.00462373
0.00608357
0.00797059
0.0099969
0.0118052
0.0130604
0.0135423
0.0132249
0.0122916
0.0109586
0.00942164
0.00784605
0.006378
0.00513645
0.00418667
0.00353407
0.00314681
0.00298389
0.00300344
0.00314046
0.00327374
0.00326814
0.00304781
0.0026396
0.0021414
0.00165778
0.00125495
0.000953591
0.000744709
0.000607865
0.000523092
0.000473805
0.000448267
0.0004383
0.000438996
0.000446224
0.000459486
0.000474734
0.000497876
0.000517957
0.000558618
0.000584135
0.0107006
0.00715841
0.00504572
0.00376635
0.00299148
0.00249774
0.00213709
0.00184763
0.00162278
0.00148681
0.00146336
0.00157194
0.00181037
0.00216344
0.00258733
0.00301455
0.0034222
0.00396528
0.00491073
0.00636091
0.00820729
0.0101596
0.0118703
0.0130201
0.0133981
0.0129997
0.0120046
0.010623
0.0090473
0.00744565
0.00597051
0.00474225
0.00381934
0.00319634
0.00283226
0.00268226
0.00270947
0.0028642
0.00304243
0.00311071
0.00297304
0.00263273
0.00217562
0.00170804
0.00130513
0.000996446
0.000778684
0.000633941
0.000542944
0.000489025
0.000460104
0.000447692
0.000446672
0.000452803
0.00046555
0.000480863
0.000504799
0.000526134
0.00056937
0.000596341
0.0107088
0.00718279
0.00507709
0.00379526
0.00302247
0.00254678
0.00221851
0.00196189
0.00175865
0.00162984
0.00160354
0.00170731
0.00194856
0.0023192
0.00277961
0.00325812
0.0037063
0.00425938
0.00519229
0.00661406
0.00840078
0.0102641
0.0118686
0.0129105
0.0131891
0.0127185
0.0116716
0.0102512
0.0086466
0.00702982
0.00555963
0.00435626
0.00346947
0.0028824
0.00254502
0.0024084
0.00243907
0.00260103
0.00280987
0.00293934
0.00287826
0.00260661
0.00219513
0.00174872
0.00134971
0.00103623
0.000810993
0.000659052
0.0005621
0.000503595
0.000471214
0.000456213
0.000453284
0.000458092
0.000470053
0.000485141
0.000509493
0.000531762
0.00057702
0.000605302
0.0107157
0.00720445
0.00510551
0.00382011
0.00304462
0.00257978
0.00227903
0.00205658
0.00188135
0.00176738
0.00174399
0.00184506
0.00208765
0.00247214
0.00296548
0.00349532
0.00399056
0.00455584
0.005466
0.00684174
0.00855189
0.0103135
0.0118052
0.0127381
0.0129225
0.012388
0.011298
0.00984768
0.00822361
0.00660253
0.00514929
0.00398188
0.00313958
0.00259379
0.00228613
0.00216376
0.00219529
0.00235632
0.00258275
0.00276005
0.00276743
0.00256306
0.00220029
0.00177949
0.00138819
0.00107251
0.000841304
0.000682985
0.00058042
0.000517441
0.000481582
0.000463899
0.000458917
0.000462221
0.000473166
0.000487764
0.000512178
0.000535059
0.000581785
0.000611201
0.0107215
0.00722367
0.0051314
0.00384205
0.00306033
0.00259948
0.00231973
0.0021297
0.00198641
0.00189417
0.00188007
0.00198179
0.00222513
0.00261974
0.00314133
0.00372069
0.00426837
0.0048502
0.00573008
0.0070441
0.00866297
0.0103126
0.0116863
0.01251
0.0126056
0.0120144
0.0108894
0.00941709
0.00778236
0.00616776
0.00474328
0.00362217
0.00283159
0.00233137
0.00205579
0.0019486
0.00197961
0.00213372
0.00236652
0.00257843
0.00264471
0.00250429
0.00219183
0.00180028
0.00142022
0.00110489
0.000869306
0.00070549
0.000597757
0.000530484
0.000491185
0.000470778
0.000463648
0.000465311
0.000475053
0.000488935
0.000513093
0.000536275
0.000583937
0.00061429
0.0107264
0.0072407
0.00515504
0.00386191
0.00307164
0.00260877
0.00234264
0.00218065
0.00207038
0.00200513
0.00200658
0.00211321
0.00235775
0.00275915
0.00330353
0.00392871
0.00453254
0.00513722
0.00598294
0.0072224
0.00873756
0.0102668
0.0115188
0.0122336
0.012246
0.0116046
0.0104511
0.0089638
0.00732682
0.00572944
0.00434522
0.00327981
0.00254691
0.00209544
0.00185355
0.00176232
0.00179223
0.00193536
0.00216532
0.00239943
0.00251422
0.00243279
0.00217076
0.00181121
0.00144555
0.00113307
0.000894715
0.000726348
0.000613963
0.000542639
0.000499994
0.000476871
0.000467548
0.000467481
0.000475878
0.000488856
0.000512479
0.000535676
0.000583781
0.000614863
0.0107304
0.00725577
0.00517666
0.0038803
0.00308019
0.00261048
0.00235051
0.00221024
0.00213114
0.00209583
0.00211819
0.0022344
0.00248159
0.0028871
0.00344841
0.0041139
0.00477539
0.00541061
0.00622269
0.00737843
0.00878006
0.0101823
0.01131
0.0119168
0.011851
0.0111648
0.0099883
0.008492
0.00686089
0.00529149
0.00395855
0.00295708
0.00228648
0.00188582
0.00167849
0.00160374
0.00163245
0.0017621
0.00198206
0.00222719
0.00237983
0.00235119
0.00213837
0.00181264
0.0014641
0.00115678
0.000917291
0.000745363
0.0006289
0.000553824
0.000507977
0.000482197
0.00047068
0.000468836
0.000475791
0.000487719
0.000510575
0.000533529
0.000581637
0.000613234
0.0107338
0.0072691
0.00519646
0.0038976
0.00308725
0.00260713
0.00234647
0.00222046
0.00216806
0.00216293
0.00220992
0.00234012
0.00259209
0.00299983
0.00357224
0.004271
0.00498901
0.00566289
0.00644645
0.00751392
0.00879513
0.0100657
0.0110676
0.0115671
0.011428
0.0107012
0.00950578
0.00800565
0.00638843
0.00485778
0.00358648
0.00265586
0.0020508
0.00170199
0.00152947
0.00147139
0.00149901
0.00161382
0.00181846
0.00206499
0.0022451
0.00226216
0.00209613
0.00180514
0.0014759
0.0011759
0.000936838
0.000762364
0.000642441
0.000563962
0.000515107
0.000486771
0.000473103
0.000469478
0.000474935
0.000485705
0.000507607
0.000530096
0.000577821
0.000609726
0.0107365
0.0072809
0.0052146
0.00391405
0.00309373
0.00260087
0.0023337
0.00221418
0.00218204
0.00220454
0.00227765
0.00242525
0.00268437
0.00309325
0.00367124
0.00439511
0.00516564
0.00588544
0.00664986
0.00762975
0.00878719
0.0099235
0.0107991
0.011192
0.0109838
0.0102192
0.00900777
0.0075084
0.00591323
0.00443212
0.00323188
0.00237756
0.00183997
0.00154316
0.00140516
0.00136365
0.00139032
0.0014897
0.0016753
0.00191526
0.00211309
0.00216831
0.00204565
0.00178942
0.00148115
0.00119034
0.000953216
0.000777213
0.000654478
0.000572987
0.000521359
0.00049061
0.000474873
0.000469499
0.00047344
0.000482983
0.000503786
0.000525624
0.000572642
0.000604657
0.0107388
0.00729135
0.00523119
0.00392977
0.00310025
0.00259345
0.00231521
0.00219482
0.00217528
0.00222044
0.00231856
0.00248532
0.00275359
0.00316304
0.00374167
0.00448176
0.00529795
0.00606878
0.00682668
0.00772532
0.00875964
0.00976142
0.0105113
0.0107979
0.0105242
0.0097235
0.00849787
0.00700358
0.00543903
0.00401815
0.0028973
0.00212317
0.00165376
0.00140839
0.00130422
0.00127893
0.00130471
0.00138851
0.00155263
0.00177963
0.00198638
0.00207207
0.00198861
0.00176635
0.00148015
0.00120014
0.000966344
0.000789808
0.000664929
0.000580849
0.000526718
0.000493733
0.000476042
0.000468985
0.000471426
0.000479707
0.000499309
0.000520343
0.000566387
0.000598329
0.0107407
0.00730061
0.00524639
0.00394484
0.00310715
0.00258614
0.00229364
0.00216598
0.00215103
0.002212
0.00233148
0.00251704
0.00279544
0.00320505
0.00377993
0.00452712
0.00537952
0.00620313
0.00696864
0.0077978
0.00871421
0.00958386
0.0102097
0.0103917
0.0100542
0.00921769
0.00797891
0.0064943
0.00496959
0.00361939
0.00258484
0.00189325
0.00149169
0.00129665
0.00122535
0.00121574
0.00124057
0.00130885
0.00144994
0.00165907
0.00186702
0.00197567
0.0019267
0.0017369
0.00147332
0.00120541
0.000976201
0.000800089
0.000673735
0.000587512
0.000531178
0.000496165
0.000476665
0.000468017
0.000469004
0.000476016
0.00049435
0.000514464
0.000559322
0.000591026
0.0107422
0.00730884
0.00526029
0.00395928
0.00311461
0.00257986
0.00227118
0.00213112
0.00211314
0.00218203
0.00231706
0.00251871
0.00280669
0.00321568
0.00378288
0.00452813
0.00540514
0.00627912
0.00706578
0.00784177
0.00865023
0.00939319
0.00989805
0.00997961
0.00957712
0.00870399
0.00745299
0.00598351
0.00450868
0.00323907
0.00229619
0.001688
0.00135306
0.0012069
0.00116739
0.0011728
0.00119644
0.00124929
0.00136644
0.00155399
0.00175654
0.00188103
0.00186153
0.00170211
0.00146118
0.00120635
0.000982827
0.000808037
0.000680868
0.000592961
0.000534746
0.000497937
0.000476795
0.000466674
0.000466275
0.000472038
0.000489069
0.000508179
0.000551688
0.000583011
0.0107434
0.00731617
0.00527303
0.00397308
0.00312267
0.00257513
0.00224951
0.00209338
0.00206572
0.00213441
0.00227764
0.00249048
0.00278563
0.00319235
0.00374814
0.00448275
0.00537127
0.00628861
0.00710712
0.0078491
0.00856417
0.00918913
0.00957763
0.00956223
0.00909397
0.00818327
0.00692161
0.00547417
0.00406011
0.00288016
0.00203256
0.00150726
0.00123708
0.00113813
0.00112932
0.00114906
0.00117113
0.00120851
0.00130118
0.00146442
0.00165607
0.00178983
0.00179465
0.00166303
0.00144433
0.00120323
0.000986322
0.000813677
0.000686329
0.000597202
0.000537443
0.000499087
0.000476489
0.000465029
0.000463332
0.000467887
0.000483608
0.000501656
0.000543701
0.000574519
0.0107444
0.00732272
0.00528469
0.00398625
0.00313128
0.00257225
0.00222982
0.00205533
0.00201273
0.00207364
0.00221702
0.00243445
0.00273246
0.00313405
0.00367453
0.00439026
0.0052763
0.00622556
0.00708173
0.00780934
0.00844935
0.00896832
0.00924665
0.00913791
0.00860375
0.00765513
0.00638595
0.00496944
0.0036277
0.00254521
0.00179471
0.00135061
0.00114286
0.00108945
0.00111034
0.00114376
0.00116379
0.00118546
0.00125319
0.0013901
0.00156632
0.00170343
0.00172746
0.00162074
0.00142341
0.00119638
0.00098684
0.000817075
0.00069015
0.000600262
0.000539302
0.00049966
0.000475806
0.000463156
0.000460264
0.000463667
0.000478093
0.000495048
0.000535552
0.000565764
0.0107452
0.00732859
0.0052954
0.00399877
0.00314034
0.00257127
0.00221286
0.00201901
0.00195771
0.00200441
0.00213999
0.00235441
0.00264937
0.00304163
0.00356248
0.00425149
0.00512086
0.00608679
0.00698013
0.00771068
0.00829621
0.00872415
0.00890007
0.00870255
0.00810352
0.0071183
0.00584726
0.00447292
0.00321527
0.00223636
0.00158297
0.00121742
0.00106954
0.00106009
0.0011099
0.00115648
0.00117388
0.00117937
0.00122167
0.00133066
0.00148773
0.00162292
0.00166125
0.00157629
0.00139912
0.0011862
0.000984585
0.000818338
0.000692393
0.000602189
0.000540373
0.000499711
0.000474809
0.000461126
0.000457152
0.000459474
0.000472637
0.000488486
0.000527408
0.000556932
0.0107459
0.00733388
0.00530523
0.00401066
0.00314971
0.00257211
0.00219902
0.00198584
0.00190361
0.00193116
0.00205187
0.0022555
0.00254048
0.002918
0.00341433
0.00406921
0.00490807
0.00587262
0.00679574
0.00754149
0.00809308
0.00844706
0.00852959
0.00824985
0.00758901
0.00657125
0.00530743
0.00398875
0.00282653
0.00195526
0.00139731
0.00110692
0.00101629
0.00104946
0.0011277
0.00118713
0.0012013
0.00118985
0.00120601
0.00128572
0.00142055
0.00154918
0.00159713
0.00153066
0.00137216
0.00117312
0.000979804
0.00081761
0.00069315
0.000603051
0.000540717
0.000499304
0.000473564
0.00045901
0.000454074
0.000455393
0.00046734
0.00048209
0.000519415
0.00054819
0.0107464
0.00733866
0.00531429
0.00402192
0.00315927
0.00257458
0.00218838
0.00195672
0.00185267
0.00185778
0.00195793
0.00214362
0.00241142
0.00276804
0.00323447
0.00384823
0.00464365
0.00558725
0.00652619
0.0072922
0.00782773
0.00812547
0.008124
0.00777219
0.0070555
0.00601307
0.00476946
0.0035217
0.00246497
0.00170305
0.00123731
0.00101824
0.000982357
0.00105718
0.00116375
0.001236
0.00124637
0.00121694
0.00120588
0.00125492
0.00136488
0.00148286
0.00153605
0.00148478
0.00134324
0.00115761
0.000972783
0.000815066
0.000692535
0.000602937
0.000540411
0.000498511
0.000472143
0.00045688
0.000451105
0.000451504
0.000462291
0.00047596
0.000511698
0.000539682
0.0107468
0.00734301
0.00532266
0.00403256
0.0031689
0.00257846
0.00218084
0.00193209
0.00180645
0.00178741
0.00186299
0.00202485
0.00226879
0.00259825
0.00302923
0.00359541
0.00433585
0.00523885
0.00617436
0.00695732
0.0074894
0.00774741
0.00767766
0.00726232
0.00649909
0.00544449
0.00423792
0.00307704
0.00213363
0.00148028
0.00110229
0.000950462
0.000967123
0.00108309
0.00121839
0.00130376
0.00130981
0.00126109
0.0012213
0.00123811
0.00132076
0.00142446
0.00147886
0.00143951
0.00131304
0.00114014
0.000963835
0.000810911
0.000690691
0.000601953
0.000539544
0.000497411
0.000470621
0.000454809
0.000448317
0.000447882
0.000457571
0.000470189
0.000504369
0.000531532
0.0107471
0.00734698
0.00533041
0.00404263
0.0031785
0.0025835
0.00217615
0.00191205
0.0017659
0.00172237
0.00177109
0.0019049
0.00211951
0.00241613
0.00280647
0.00331947
0.00399523
0.00483932
0.00574885
0.00653726
0.00707125
0.00730266
0.0071807
0.00671411
0.00591812
0.0048688
0.00371915
0.00266032
0.00183499
0.00128701
0.000991341
0.000902678
0.000970118
0.00112731
0.00129226
0.00139145
0.00139278
0.0013232
0.00125264
0.00123527
0.00128826