/*--------------------------------*- C++ -*----------------------------------*\
| =========                 |                                                 |
| \\      /  F ield         | OpenFOAM: The Open Source CFD Toolbox           |
|  \\    /   O peration     | Version:  2.4.0                                 |
|   \\  /    A nd           | Web:      www.OpenFOAM.org                      |
|    \\/     M anipulation  |                                                 |
\*---------------------------------------------------------------------------*/
FoamFile
{
    version     2.0;
    format      ascii;
    class       volScalarField;
    location    "4.22";
    object      nut;
}
// * * * * * * * * * * * * * * * * * * * * * * * * * * * * * * * * * * * * * //

dimensions      [0 2 -1 0 0 0 0];

internalField   nonuniform List<scalar> 
6000
(
4.70151e-05
1.44411e-05
4.24878e-06
8.77667e-06
7.78906e-06
8.92721e-06
8.5691e-06
8.94321e-06
8.81978e-06
9.02962e-06
9.07016e-06
9.30134e-06
9.51773e-06
9.87982e-06
1.02994e-05
1.08302e-05
1.14227e-05
1.20899e-05
1.28135e-05
1.3605e-05
1.44638e-05
1.53933e-05
1.63845e-05
1.74233e-05
1.84881e-05
1.95562e-05
2.06035e-05
2.16069e-05
2.25435e-05
2.33912e-05
2.4128e-05
2.47319e-05
2.51804e-05
2.54502e-05
2.5515e-05
2.53501e-05
2.49307e-05
2.42316e-05
2.32322e-05
2.19176e-05
2.02961e-05
1.84085e-05
1.63392e-05
1.6062e-05
1.81322e-05
2.02673e-05
2.23667e-05
2.44529e-05
2.63219e-05
2.81382e-05
2.95116e-05
3.09868e-05
3.16617e-05
3.29841e-05
3.27087e-05
3.44465e-05
3.26847e-05
3.59979e-05
3.18663e-05
3.80308e-05
2.94897e-05
9.50695e-06
3.1665e-06
7.01503e-06
6.32295e-06
7.01757e-06
6.77623e-06
7.0107e-06
6.93994e-06
7.08867e-06
7.14636e-06
7.33822e-06
7.54298e-06
7.85877e-06
8.23507e-06
8.70177e-06
9.23048e-06
9.82792e-06
1.04858e-05
1.12114e-05
1.2005e-05
1.2866e-05
1.37851e-05
1.47482e-05
1.57375e-05
1.67354e-05
1.77257e-05
1.86951e-05
1.96329e-05
2.05318e-05
2.13871e-05
2.21977e-05
2.29668e-05
2.37021e-05
2.44148e-05
2.51302e-05
2.58925e-05
2.67762e-05
2.79079e-05
2.95082e-05
3.19573e-05
3.58848e-05
4.19485e-05
4.24089e-05
3.59942e-05
3.13598e-05
2.82977e-05
2.6325e-05
2.5105e-05
2.43818e-05
2.39108e-05
2.37052e-05
2.34122e-05
2.34656e-05
2.3009e-05
2.34121e-05
2.2431e-05
2.36534e-05
2.16501e-05
2.41968e-05
2.14309e-05
8.16004e-06
2.81459e-06
5.88993e-06
5.32692e-06
5.68282e-06
5.49897e-06
5.63428e-06
5.598e-06
5.71481e-06
5.80046e-06
5.99483e-06
6.23391e-06
6.57804e-06
7.00464e-06
7.5317e-06
8.1496e-06
8.86603e-06
9.68503e-06
1.06164e-05
1.16654e-05
1.28315e-05
1.41055e-05
1.54726e-05
1.69151e-05
1.84164e-05
1.99639e-05
2.15505e-05
2.31759e-05
2.48472e-05
2.65801e-05
2.84017e-05
3.03537e-05
3.24961e-05
3.48899e-05
3.76585e-05
4.09795e-05
4.51261e-05
5.05219e-05
5.78476e-05
6.81517e-05
8.292e-05
0.000102729
0.000103581
8.26783e-05
6.54008e-05
5.24665e-05
4.28787e-05
3.60139e-05
3.0923e-05
2.72886e-05
2.44901e-05
2.24639e-05
2.08378e-05
1.95884e-05
1.86575e-05
1.76953e-05
1.74027e-05
1.63089e-05
1.67265e-05
1.78746e-05
7.96931e-06
2.98836e-06
5.26086e-06
4.70422e-06
4.76842e-06
4.59534e-06
4.65295e-06
4.63894e-06
4.74533e-06
4.87319e-06
5.10989e-06
5.4338e-06
5.88555e-06
6.46809e-06
7.19926e-06
8.09234e-06
9.16683e-06
1.0448e-05
1.19597e-05
1.37221e-05
1.57432e-05
1.80201e-05
2.05399e-05
2.32857e-05
2.62415e-05
2.93973e-05
3.27531e-05
3.63207e-05
4.01271e-05
4.42173e-05
4.86597e-05
5.35554e-05
5.90168e-05
6.51488e-05
7.22183e-05
8.05582e-05
9.06476e-05
0.00010317
0.000119124
0.000139834
0.000166774
0.000198449
0.000198562
0.000164378
0.000132231
0.000105476
8.37773e-05
6.69766e-05
5.37438e-05
4.38467e-05
3.59643e-05
3.02526e-05
2.54755e-05
2.22126e-05
1.91985e-05
1.73576e-05
1.54181e-05
1.43277e-05
1.32096e-05
1.67546e-05
8.44508e-06
3.53573e-06
5.03929e-06
4.40642e-06
4.18583e-06
3.98136e-06
3.96901e-06
3.96859e-06
4.08248e-06
4.27238e-06
4.59663e-06
5.07047e-06
5.73126e-06
6.61287e-06
7.7486e-06
9.18744e-06
1.09786e-05
1.31859e-05
1.58647e-05
1.90655e-05
2.2817e-05
2.71307e-05
3.19998e-05
3.74087e-05
4.3339e-05
4.97783e-05
5.67259e-05
6.41971e-05
7.22274e-05
8.08753e-05
9.02316e-05
0.00010044
0.000111486
0.000123538
0.00013692
0.000151988
0.000169237
0.000189329
0.000213168
0.000241821
0.000276181
0.000312268
0.000311041
0.000270286
0.000227571
0.000188523
0.000153983
0.000124846
0.000100184
8.03823e-05
6.38874e-05
5.12947e-05
4.06558e-05
3.31288e-05
2.6301e-05
2.21226e-05
1.76534e-05
1.5557e-05
1.28568e-05
1.71085e-05
9.3979e-06
4.3923e-06
5.14767e-06
4.41135e-06
3.89035e-06
3.61137e-06
3.52571e-06
3.53209e-06
3.67051e-06
3.95033e-06
4.42001e-06
5.13484e-06
6.14769e-06
7.53762e-06
9.37515e-06
1.17662e-05
1.48124e-05
1.86344e-05
2.33331e-05
2.89956e-05
3.56727e-05
4.33867e-05
5.21289e-05
6.18707e-05
7.25708e-05
8.41868e-05
9.66833e-05
0.000110037
0.000124244
0.000139315
0.000155295
0.000172245
0.000189874
0.000208424
0.000228148
0.000249307
0.000272271
0.000297534
0.000325777
0.000357761
0.000393837
0.000428506
0.000426072
0.000384619
0.000337321
0.000290849
0.000246844
0.00020694
0.000170872
0.000139749
0.000112409
9.00628e-05
7.06774e-05
5.59805e-05
4.28833e-05
3.41314e-05
2.54933e-05
2.08939e-05
1.60191e-05
1.83893e-05
1.07092e-05
5.51712e-06
5.50584e-06
4.69626e-06
3.86665e-06
3.46699e-06
3.29506e-06
3.302e-06
3.48329e-06
3.89197e-06
4.58551e-06
5.67121e-06
7.24059e-06
9.43921e-06
1.23996e-05
1.63048e-05
2.13228e-05
2.76315e-05
3.53648e-05
4.46255e-05
5.54634e-05
6.78873e-05
8.18614e-05
9.7313e-05
0.00011414
0.000132227
0.000151453
0.000171705
0.000192883
0.0002149
0.000237705
0.000261097
0.000284668
0.000308673
0.000333264
0.000358594
0.000384911
0.000412559
0.000442046
0.000473954
0.000508137
0.000538715
0.000535465
0.000496559
0.000449027
0.000399655
0.000350455
0.000303315
0.000258466
0.000217407
0.000179589
0.000146659
0.000117133
9.30831e-05
7.16313e-05
5.58404e-05
4.11332e-05
3.19782e-05
2.39806e-05
2.02058e-05
1.22753e-05
6.867e-06
6.06139e-06
5.2069e-06
4.11255e-06
3.54873e-06
3.27051e-06
3.27159e-06
3.51726e-06
4.10812e-06
5.13197e-06
6.76735e-06
9.16975e-06
1.25714e-05
1.71829e-05
2.32667e-05
3.10429e-05
4.07109e-05
5.23933e-05
6.61642e-05
8.20388e-05
9.99874e-05
0.000119923
0.000141702
0.000165132
0.000189989
0.00021604
0.000243058
0.00027083
0.000299162
0.000327924
0.000356503
0.00038469
0.000412654
0.000440468
0.000468204
0.000496023
0.000524162
0.000553019
0.000583062
0.00061371
0.0006395
0.000635767
0.000600697
0.00055534
0.000506067
0.000454996
0.000403984
0.000353535
0.000305211
0.000258982
0.000216622
0.000177435
0.0001435
0.000112886
8.83548e-05
6.62233e-05
5.04379e-05
3.83916e-05
2.2247e-05
1.39956e-05
8.38994e-06
6.80696e-06
5.86106e-06
4.61416e-06
3.86437e-06
3.46007e-06
3.44949e-06
3.78578e-06
4.62839e-06
6.11982e-06
8.53117e-06
1.21016e-05
1.71558e-05
2.39764e-05
3.28756e-05
4.40788e-05
5.77461e-05
7.3937e-05
9.26626e-05
0.00011389
0.000137544
0.000163482
0.000191476
0.000221232
0.000252414
0.000284675
0.000317679
0.000351114
0.000384696
0.000418161
0.000450694
0.00048225
0.00051292
0.000542717
0.000571656
0.000599837
0.000627427
0.000654748
0.000682143
0.000708818
0.000729988
0.000725954
0.000694907
0.000652781
0.000605277
0.000554462
0.000502049
0.000448656
0.00039574
0.000343597
0.000293918
0.000246695
0.000203791
0.00016447
0.000130778
0.000100798
7.70235e-05
6.0344e-05
2.42783e-05
1.57759e-05
1.00269e-05
7.74535e-06
6.60098e-06
5.32126e-06
4.4094e-06
3.87489e-06
3.85125e-06
4.3102e-06
5.48783e-06
7.60692e-06
1.10461e-05
1.61327e-05
2.32658e-05
3.27672e-05
4.4944e-05
5.99684e-05
7.79088e-05
9.8736e-05
0.000122397
0.000148822
0.0001779
0.000209433
0.000243114
0.000278549
0.000315297
0.000352911
0.000390965
0.00042907
0.000466871
0.00050392
0.000539423
0.0005734
0.00060588
0.000636831
0.000666228
0.000694129
0.000720649
0.000746066
0.000770557
0.000793379
0.000810399
0.000806114
0.000778735
0.000740093
0.000695126
0.000645768
0.000593557
0.000539129
0.000483782
0.000427966
0.000373206
0.000319944
0.000269769
0.000222974
0.000180816
0.000143363
0.000111291
8.97968e-05
2.61484e-05
1.75359e-05
1.1717e-05
8.86279e-06
7.42042e-06
6.15361e-06
5.14728e-06
4.51042e-06
4.48394e-06
5.10316e-06
6.70334e-06
9.61089e-06
1.43135e-05
2.12121e-05
3.07412e-05
4.32133e-05
5.88737e-05
7.77995e-05
9.99481e-05
0.000125211
0.000153494
0.000184706
0.000218713
0.000255264
0.000293974
0.00033436
0.000375888
0.000418027
0.000460279
0.000502194
0.000543375
0.000583139
0.000620879
0.000656597
0.000690272
0.000721834
0.000751233
0.000778495
0.000803704
0.000827088
0.000848715
0.000867987
0.000881374
0.00087679
0.000852499
0.000817159
0.000774951
0.00072763
0.000676568
0.000622367
0.000566168
0.00050845
0.000450572
0.000393183
0.000337648
0.000284934
0.000235684
0.000191634
0.000151825
0.000125678
2.77811e-05
1.92132e-05
1.3403e-05
1.0126e-05
8.34201e-06
7.04749e-06
6.01236e-06
5.32954e-06
5.32665e-06
6.14624e-06
8.24494e-06
1.20712e-05
1.821e-05
2.71082e-05
3.91893e-05
5.47116e-05
7.38202e-05
9.64847e-05
0.000122564
0.000151898
0.000184372
0.000219891
0.000258295
0.000299282
0.000342391
0.000387059
0.000432673
0.000478632
0.000524381
0.000569419
0.000613302
0.000655156
0.000694596
0.000731568
0.000766006
0.000797817
0.000826928
0.000853348
0.000877139
0.000898464
0.000917395
0.000933451
0.000943668
0.000938678
0.000916835
0.000884402
0.000844858
0.000799768
0.000750354
0.00069716
0.000641192
0.000582883
0.000523453
0.000463574
0.000404471
0.000347417
0.000292717
0.000243194
0.000196798
0.000166331
2.91563e-05
2.07654e-05
1.5036e-05
1.14895e-05
9.38069e-06
7.98703e-06
6.94345e-06
6.26798e-06
6.32239e-06
7.37584e-06
1.00196e-05
1.48363e-05
2.249e-05
3.34451e-05
4.80748e-05
6.65535e-05
8.89111e-05
0.00011502
0.000144667
0.000177667
0.000213903
0.000253274
0.00029559
0.000340496
0.000387458
0.000435842
0.000484966
0.000534171
0.000582855
0.000630476
0.000676502
0.000720016
0.000760757
0.000798622
0.000833513
0.000865316
0.000893945
0.000919397
0.000941714
0.000961021
0.000977448
0.000990595
0.000998018
0.000992484
0.000972471
0.000942464
0.000905326
0.000862432
0.000814875
0.000763133
0.000708101
0.00065013
0.00059033
0.000529276
0.000468136
0.000408188
0.000349665
0.000295867
0.000244302
0.000209937
3.02873e-05
2.21684e-05
1.65781e-05
1.29029e-05
1.05323e-05
8.98914e-06
7.91389e-06
7.26537e-06
7.39645e-06
8.69518e-06
1.18865e-05
1.76923e-05
2.68405e-05
3.97925e-05
5.68471e-05
7.8081e-05
0.00010341
0.000132629
0.000165478
0.000201766
0.000241379
0.000284204
0.000330017
0.000378406
0.000428765
0.000480398
0.000532562
0.00058455
0.000635719
0.000685497
0.000733233
0.000778076
0.000819809
0.000858292
0.0008934
0.000925004
0.000953008
0.000977407
0.000998216
0.00101558
0.00102967
0.00104017
0.00104509
0.00103887
0.00102012
0.000992052
0.000956985
0.000916125
0.000870452
0.000820383
0.000766724
0.000709724
0.000650414
0.000589204
0.000527262
0.000465665
0.000404782
0.000347873
0.000292589
0.000254791
3.12037e-05
2.34129e-05
1.80028e-05
1.43174e-05
1.17757e-05
1.00729e-05
8.93024e-06
8.29294e-06
8.4904e-06
1.00108e-05
1.3701e-05
2.04222e-05
3.09591e-05
4.57617e-05
6.50442e-05
8.87827e-05
0.000116786
0.000148792
0.000184511
0.000223755
0.000266414
0.000312356
0.000361315
0.000412819
0.000466195
0.000520689
0.000575508
0.0006299
0.000683191
0.000734785
0.000783891
0.000829795
0.000872274
0.000911156
0.000946294
0.000977548
0.00100482
0.00102809
0.00104738
0.00106288
0.00107478
0.00108284
0.00108547
0.00107841
0.00106046
0.00103385
0.0010005
0.000961446
0.000917581
0.000869261
0.000817222
0.000761614
0.000703402
0.000642804
0.000581021
0.00051881
0.000456807
0.000397851
0.000340184
0.000299442
3.19396e-05
2.4501e-05
1.9295e-05
1.569e-05
1.3078e-05
1.12438e-05
1.00111e-05
9.3551e-06
9.58258e-06
1.12669e-05
1.53607e-05
2.28624e-05
3.46175e-05
5.10673e-05
7.23425e-05
9.83215e-05
0.000128713
0.000163212
0.000201507
0.00024342
0.000288838
0.000337605
0.000389408
0.000443717
0.000499789
0.000556819
0.00061397
0.000670451
0.000725562
0.000778679
0.000828891
0.000875637
0.000918661
0.00095776
0.000992775
0.00102355
0.00105
0.00107208
0.00108986
0.00110356
0.00111337
0.00111915
0.00111966
0.00111164
0.00109405
0.00106849
0.00103651
0.000999014
0.000956822
0.000910238
0.000859941
0.00080599
0.000749294
0.000689877
0.000628984
0.000566996
0.000504883
0.000444824
0.000385932
0.000342744
3.25279e-05
2.54417e-05
2.04488e-05
1.69857e-05
1.44008e-05
1.24919e-05
1.11713e-05
1.04723e-05
1.06836e-05
1.24542e-05
1.68247e-05
2.49295e-05
3.76875e-05
5.55455e-05
7.856e-05
0.000106517
0.00013903
0.000175757
0.000216369
0.000260695
0.000308617
0.00035995
0.000414333
0.000471173
0.000529663
0.00058895
0.000648158
0.000706459
0.000763134
0.000817502
0.000868627
0.000916029
0.000959424
0.000998588
0.00103335
0.00106354
0.00108907
0.00110992
0.00112621
0.00113815
0.00114596
0.00114959
0.00114809
0.00113899
0.00112142
0.00109653
0.0010656
0.00102942
0.000988739
0.000943827
0.000895313
0.000843177
0.000788278
0.000730456
0.000670998
0.000609899
0.000548481
0.00048813
0.000428978
0.000383841
3.29975e-05
2.62485e-05
2.14659e-05
1.81793e-05
1.57045e-05
1.37947e-05
1.24135e-05
1.1663e-05
1.18228e-05
1.35971e-05
1.81066e-05
2.66153e-05
4.01345e-05
5.91401e-05
8.36308e-05
0.00011331
0.000147693
0.000186407
0.000229101
0.000275606
0.000325798
0.000379458
0.000436177
0.000495304
0.000555963
0.000617261
0.000678283
0.000738171
0.000796186
0.000851579
0.000903445
0.000951339
0.000994957
0.00103405
0.00106844
0.00109795
0.00112248
0.00114209
0.00115688
0.00116709
0.00117297
0.00117455
0.00117113
0.00116084
0.00114301
0.00111848
0.00108831
0.00105321
0.00101387
0.000970538
0.000923799
0.000873563
0.000820643
0.000764715
0.000707094
0.000647407
0.000587313
0.000527357
0.00046873
0.000422134
3.33723e-05
2.69365e-05
2.23532e-05
1.92552e-05
1.69526e-05
1.51208e-05
1.37279e-05
1.29363e-05
1.30327e-05
1.47351e-05
1.9253e-05
2.79648e-05
4.19932e-05
6.18746e-05
8.75724e-05
0.000118721
0.000154736
0.000195213
0.000239767
0.000288232
0.000340468
0.00039623
0.000455056
0.000516242
0.000578843
0.000641927
0.000704546
0.00076581
0.000824967
0.00088119
0.000933643
0.000981885
0.00102559
0.0010645
0.00109841
0.00112713
0.00115063
0.00116896
0.00118225
0.00119076
0.00119476
0.00119436
0.00118907
0.00117752
0.0011592
0.00113475
0.00110509
0.00107086
0.00103271
0.000990858
0.000945855
0.000897559
0.000846731
0.000792908
0.000737417
0.000679551
0.000621266
0.000562281
0.000504806
0.000457228
3.3672e-05
2.75211e-05
2.31211e-05
2.02065e-05
1.81143e-05
1.64343e-05
1.50932e-05
1.42903e-05
1.43301e-05
1.59209e-05
2.03235e-05
2.90517e-05
4.33414e-05
6.38242e-05
9.04571e-05
0.000122825
0.000160239
0.000202263
0.000248468
0.000298677
0.000352741
0.000410381
0.000471093
0.000534121
0.00059845
0.000663111
0.000727126
0.000789571
0.000849684
0.000906572
0.000959472
0.00100793
0.00105161
0.00109022
0.00112353
0.00115141
0.00117383
0.00119086
0.00120265
0.00120946
0.00121163
0.00120931
0.00120219
0.00118931
0.00117031
0.00114573
0.00111637
0.00108282
0.00104571
0.00100523
0.000961917
0.000915569
0.000866901
0.000815332
0.000762183
0.000706455
0.000650351
0.000592815
0.000536991
0.000488888
3.3912e-05
2.80168e-05
2.3782e-05
2.10335e-05
1.91667e-05
1.76985e-05
1.64798e-05
1.57121e-05
1.57182e-05
1.71984e-05
2.1383e-05
2.996e-05
4.42784e-05
6.50934e-05
9.23887e-05
0.000125727
0.000164309
0.00020767
0.000255318
0.000307062
0.000362737
0.000422037
0.000484416
0.000549074
0.000614923
0.00068096
0.000746181
0.000809626
0.000870512
0.000927927
0.000981145
0.0010297
0.00107324
0.00111141
0.00114406
0.00117104
0.00119235
0.00120805
0.00121833
0.00122347
0.00122382
0.00121962
0.00121072
0.00119645
0.00117662
0.00115172
0.00112249
0.00108946
0.00105326
0.00101407
0.000972387
0.000927982
0.000881511
0.000832301
0.000781645
0.000728301
0.000674661
0.000618972
0.00056519
0.000516999
3.41047e-05
2.84368e-05
2.43489e-05
2.17421e-05
2.00952e-05
1.88795e-05
1.7852e-05
1.71785e-05
1.71895e-05
1.8577e-05
2.25209e-05
3.07721e-05
4.49103e-05
6.58005e-05
9.34882e-05
0.000127546
0.000167065
0.000211555
0.000260441
0.000313512
0.000370583
0.000431322
0.00049515
0.000561227
0.000628392
0.00069561
0.000761854
0.000826123
0.000887617
0.000945429
0.000998841
0.00104738
0.00109063
0.0011283
0.00116022
0.00118626
0.00120641
0.00122077
0.00122952
0.00123299
0.00123155
0.00122551
0.00121484
0.00119914
0.00117838
0.00115302
0.00112376
0.00109113
0.00105572
0.00101774
0.000977634
0.000935157
0.000890903
0.000844127
0.000796074
0.000745304
0.000694344
0.000640828
0.000589398
0.000541532
3.42598e-05
2.87927e-05
2.48344e-05
2.2342e-05
2.08935e-05
1.9949e-05
1.9172e-05
1.86583e-05
1.87257e-05
2.00537e-05
2.37702e-05
3.16145e-05
4.53411e-05
6.60673e-05
9.38839e-05
0.000128411
0.000168633
0.000214043
0.000263964
0.000318155
0.000376407
0.000438365
0.000503421
0.000570705
0.000638981
0.000707186
0.00077427
0.000839193
0.000901143
0.000959225
0.0010127
0.00106107
0.00110396
0.00114106
0.00117219
0.00119724
0.0012162
0.00122919
0.00123641
0.00123821
0.001235
0.00122714
0.00121473
0.00119759
0.0011758
0.00114987
0.00112046
0.00108811
0.00105342
0.00101657
0.000977993
0.000937428
0.000895403
0.000851113
0.000805742
0.000757696
0.000709578
0.000658509
0.000609673
0.000562521
3.43849e-05
2.90944e-05
2.52504e-05
2.28455e-05
2.15627e-05
2.08863e-05
2.04026e-05
2.01139e-05
2.0299e-05
2.16142e-05
2.5135e-05
3.25648e-05
4.57267e-05
6.60132e-05
9.37056e-05
0.000128454
0.000169142
0.00021526
0.000266013
0.000321117
0.000380336
0.000443293
0.000509354
0.000577632
0.000646811
0.000715805
0.000783549
0.000848953
0.00091122
0.000969408
0.00102282
0.00107094
0.00111338
0.00114984
0.00118013
0.00120414
0.00122189
0.00123348
0.00123917
0.0012393
0.00123433
0.00122467
0.00121054
0.00119193
0.00116907
0.00114247
0.00111282
0.00108068
0.00104662
0.00101085
0.000973768
0.000935102
0.00089531
0.000853548
0.000810918
0.000765713
0.000720562
0.000672164
0.000626116
0.000580043
3.4486e-05
2.93505e-05
2.56075e-05
2.32655e-05
2.21098e-05
2.16793e-05
2.15109e-05
2.15045e-05
2.18733e-05
2.32336e-05
2.66057e-05
3.36386e-05
4.61892e-05
6.58303e-05
9.30809e-05
0.000127805
0.00016872
0.000215332
0.000266711
0.000322525
0.000382499
0.000446232
0.000513074
0.000582129
0.000652
0.000721583
0.000789803
0.000855501
0.000917903
0.000976082
0.00102933
0.00107712
0.00111904
0.00115479
0.00118418
0.00120712
0.00122361
0.00123379
0.00123793
0.00123639
0.00122968
0.00121825
0.00120242
0.00118233
0.00115834
0.00113102
0.00110106
0.00106906
0.00103558
0.00100085
0.000965233
0.000928456
0.000890904
0.000851703
0.00081186
0.000769591
0.000727501
0.000681963
0.000638856
0.000594202
3.45679e-05
2.9568e-05
2.59151e-05
2.36151e-05
2.25463e-05
2.23242e-05
2.24708e-05
2.27894e-05
2.34063e-05
2.48772e-05
2.81603e-05
3.48349e-05
4.67608e-05
6.56532e-05
9.22631e-05
0.000126594
0.000167494
0.000214385
0.000266182
0.000322503
0.000383022
0.000447313
0.00051471
0.000584323
0.000654669
0.000724619
0.00079307
0.000858908
0.000921312
0.000979367
0.00103235
0.00107971
0.00112104
0.00115603
0.00118447
0.00120629
0.0012215
0.00123025
0.00123282
0.00122962
0.00122117
0.00120799
0.00119047
0.00116892
0.00114378
0.00111568
0.00108538
0.00105346
0.00102052
0.000986799
0.000952638
0.000917748
0.000882444
0.000845833
0.000808814
0.000769558
0.000730604
0.000688084
0.000648043
0.000605124
3.46343e-05
2.97531e-05
2.61809e-05
2.39067e-05
2.28862e-05
2.28254e-05
2.3265e-05
2.39315e-05
2.48526e-05
2.6502e-05
2.97648e-05
3.61372e-05
4.74541e-05
6.55323e-05
9.13421e-05
0.000125058
0.000165688
0.00021255
0.000264547
0.000321172
0.000382031
0.000446664
0.000514391
0.000584283
0.000654869
0.000724972
0.000793463
0.000859291
0.000921565
0.000979379
0.00103199
0.00107884
0.00111951
0.00115366
0.00118111
0.00120177
0.00121566
0.00122296
0.00122396
0.0012191
0.00120892
0.00119401
0.00117484
0.00115182
0.00112551
0.00109663
0.00106594
0.00103408
0.00100166
0.000968929
0.000936211
0.000903212
0.000870168
0.000836177
0.000802014
0.000765835
0.000730076
0.000690708
0.000653833
0.000612943
3.46882e-05
2.99107e-05
2.64117e-05
2.41511e-05
2.31449e-05
2.31932e-05
2.38857e-05
2.49001e-05
2.61668e-05
2.80594e-05
3.13756e-05
3.7515e-05
4.82631e-05
6.54973e-05
9.03846e-05
0.000123288
0.000163405
0.000209997
0.000261956
0.000318658
0.000379628
0.00044437
0.000512187
0.000582124
0.00065272
0.00072276
0.000791115
0.000856769
0.000918777
0.00097623
0.00102837
0.00107462
0.00111454
0.0011478
0.0011742
0.00119366
0.00120622
0.00121205
0.00121147
0.00120494
0.00119305
0.00117642
0.00115561
0.00113115
0.00110368
0.00107399
0.0010429
0.00101109
0.000979176
0.000947438
0.000916167
0.000885069
0.000854302
0.000822957
0.00079168
0.000758636
0.000726119
0.000690017
0.000656393
0.000617804
3.47321e-05
3.00451e-05
2.6613e-05
2.43581e-05
2.33378e-05
2.3443e-05
2.43344e-05
2.56738e-05
2.73073e-05
2.94978e-05
3.29405e-05
3.89248e-05
4.91641e-05
6.55572e-05
8.94371e-05
0.000121362
0.000160739
0.000206824
0.000258509
0.00031506
0.000375918
0.00044054
0.000508215
0.000577966
0.000648343
0.000718103
0.000786148
0.000851465
0.000913065
0.000970032
0.00102159
0.00106715
0.00110625
0.00113856
0.00116386
0.00118208
0.00119326
0.0011976
0.00119543
0.00118725
0.00117365
0.00115533
0.00113291
0.00110702
0.00107841
0.00104792
0.00101643
0.000984665
0.000953261
0.00092252
0.000892705
0.000863526
0.000835056
0.000806387
0.000778025
0.000748164
0.00071893
0.000686192
0.000655888
0.000619853
3.47677e-05
3.01597e-05
2.67891e-05
2.45354e-05
2.34794e-05
2.35928e-05
2.46211e-05
2.62418e-05
2.82396e-05
3.07666e-05
3.44028e-05
4.0313e-05
5.01178e-05
6.57008e-05
8.85249e-05
0.000119338
0.00015777
0.00020312
0.000254296
0.000310473
0.000370999
0.000435281
0.000502589
0.000571929
0.000641861
0.000711119
0.000778688
0.000843501
0.000904546
0.000960899
0.00101177
0.00105655
0.00109474
0.00112602
0.00115018
0.00116711
0.0011769
0.00117973
0.00117597
0.00116612
0.00115084
0.00113084
0.00110685
0.00107956
0.00104983
0.00101856
0.000986681
0.00095497
0.000924089
0.000894359
0.00086602
0.000838782
0.000812632
0.00078667
0.000761252
0.000734617
0.0007087
0.000679411
0.000652487
0.000619237
3.47966e-05
3.02576e-05
2.69438e-05
2.46894e-05
2.35828e-05
2.36621e-05
2.47624e-05
2.66043e-05
2.89396e-05
3.18203e-05
3.57039e-05
4.16183e-05
5.10715e-05
6.58981e-05
8.7652e-05
0.000117254
0.000154565
0.000198965
0.000249404
0.000304983
0.000364964
0.000428694
0.000495418
0.000564129
0.000633393
0.000701958
0.000768864
0.000833002
0.000893342
0.000948949
0.000999017
0.00104291
0.00108012
0.00111031
0.00113326
0.00114887
0.00115723
0.00115854
0.00115317
0.00114167
0.00112471
0.00110307
0.00107753
0.00104889
0.00101806
0.000986038
0.000953799
0.000922169
0.000891835
0.00086314
0.000836301
0.00081103
0.000787228
0.000764003
0.000741556
0.000718188
0.000695616
0.000669849
0.000646358
0.000616105
3.48202e-05
3.03412e-05
2.708e-05
2.48252e-05
2.3659e-05
2.367e-05
2.478e-05
2.67718e-05
2.93953e-05
3.26221e-05
3.67884e-05
4.27759e-05
5.19622e-05
6.61027e-05
8.68019e-05
0.000115129
0.00015117
0.000194425
0.000243908
0.000298671
0.000357898
0.00042087
0.000486805
0.000554679
0.000623057
0.000690748
0.000756804
0.000820095
0.000879577
0.000934301
0.000983444
0.00102635
0.00106249
0.00109152
0.0011132
0.00112746
0.00113435
0.00113412
0.00112714
0.00111399
0.00109538
0.00107213
0.00104508
0.00101512
0.000983241
0.000950505
0.000917944
0.00088643
0.000856676
0.000829049
0.000803741
0.000780466
0.000759041
0.000738581
0.000719131
0.000699065
0.000679865
0.000657682
0.000637668
0.000610605
3.48393e-05
3.04126e-05
2.72002e-05
2.49466e-05
2.37172e-05
2.36344e-05
2.46976e-05
2.67637e-05
2.96075e-05
3.31473e-05
3.7608e-05
4.37219e-05
5.27211e-05
6.62553e-05
8.59393e-05
0.000112961
0.000147618
0.000189554
0.000237873
0.000291609
0.000349878
0.000411897
0.000476846
0.000543684
0.000610965
0.000677613
0.000742636
0.000804909
0.000863376
0.000917076
0.000965171
0.00100698
0.00104197
0.00106976
0.00109013
0.00110297
0.00110838
0.00110658
0.00109799
0.0010832
0.00106295
0.00103812
0.00100961
0.000978383
0.000945511
0.000912115
0.000879281
0.000847931
0.0008188
0.000792279
0.000768536
0.000747289
0.000728267
0.000710601
0.000694172
0.000677436
0.000661629
0.000643082
0.000626584
0.000602886
3.48548e-05
3.04738e-05
2.73065e-05
2.50563e-05
2.37643e-05
2.35709e-05
2.45402e-05
2.66058e-05
2.95895e-05
3.33854e-05
3.81258e-05
4.43979e-05
5.32781e-05
6.62875e-05
8.50136e-05
0.000110728
0.000143917
0.000184387
0.000231353
0.000283861
0.000340975
0.000401849
0.000465627
0.000531242
0.000597245
0.000662673
0.000726484
0.000787568
0.000844863
0.000897397
0.000944318
0.000984924
0.00101867
0.00104515
0.00106413
0.00107552
0.00107941
0.00107603
0.00106582
0.0010494
0.00102755
0.00100117
0.000971255
0.000938824
0.000905021
0.000871031
0.000837989
0.000806863
0.000778407
0.000753037
0.000730896
0.000711707
0.000695116
0.000680265
0.000666877
0.000653493
0.000641094
0.000626225
0.000613276
0.000593098
3.48674e-05
3.05261e-05
2.74006e-05
2.51565e-05
2.38056e-05
2.34926e-05
2.43312e-05
2.63277e-05
2.93652e-05
3.33408e-05
3.83197e-05
4.4756e-05
5.35673e-05
6.61278e-05
8.39631e-05
0.000108391
0.000140062
0.000178945
0.00022439
0.000275478
0.000331247
0.000390796
0.000453226
0.00051744
0.000582008
0.000646038
0.000708467
0.000768194
0.000824161
0.000875386
0.000921004
0.000960295
0.000992691
0.00101778
0.00103532
0.00104522
0.00104755
0.00104258
0.00103076
0.00101272
0.000989293
0.000961426
0.000930159
0.000896596
0.000861941
0.000827437
0.000794265
0.000763434
0.000735717
0.000711547
0.000691048
0.000673946
0.000659805
0.000647785
0.000637449
0.000627432
0.00061845
0.000607288
0.000597913
0.000581392
3.48776e-05
3.0571e-05
2.74839e-05
2.52485e-05
2.38447e-05
2.341e-05
2.40921e-05
2.59608e-05
2.89665e-05
3.30326e-05
3.81846e-05
4.47634e-05
5.35321e-05
6.57065e-05
8.27202e-05
0.000105901
0.000136029
0.000173233
0.000217008
0.000266502
0.000320745
0.000378795
0.00043971
0.000502354
0.000565344
0.000627812
0.000688694
0.000746905
0.000801389
0.000851163
0.000895349
0.00093321
0.000964164
0.000987787
0.00100382
0.00101217
0.00101292
0.00100634
0.000992908
0.000973283
0.000948319
0.000919018
0.000886477
0.000851869
0.000816457
0.000781536
0.000748329
0.000717879
0.000690973
0.00066806
0.000649242
0.00063425
0.000622574
0.000613391
0.000606109
0.000599459
0.000593894
0.000586456
0.000580671
0.000567921
3.48859e-05
3.06095e-05
2.75578e-05
2.53334e-05
2.38838e-05
2.33309e-05
2.38412e-05
2.55355e-05
2.84307e-05
3.24922e-05
3.77325e-05
4.44052e-05
5.31307e-05
6.49624e-05
8.12179e-05
0.000103199
0.000131782
0.000167242
0.000209224
0.000256964
0.00030951
0.000365893
0.000425134
0.000486048
0.000547329
0.000608084
0.000667266
0.000723808
0.000776662
0.000824845
0.00086747
0.000903789
0.000933202
0.000955275
0.000969736
0.000976492
0.000975634
0.000967444
0.000952409
0.000931223
0.000904774
0.00087411
0.000840385
0.000804835
0.00076878
0.000733561
0.000700432
0.000670465
0.000644453
0.000622858
0.000605761
0.000592896
0.000583687
0.00057733
0.000573091
0.000569795
0.000567634
0.00056392
0.000561732
0.000552843
3.48925e-05
3.06426e-05
2.76233e-05
2.54119e-05
2.39243e-05
2.32606e-05
2.35931e-05
2.50798e-05
2.77969e-05
3.17603e-05
3.69922e-05
4.36863e-05
5.234e-05
6.38482e-05
7.93961e-05
0.000100229
0.00012728
0.000160952
0.00020104
0.000246884
0.000297575
0.000352132
0.000409548
0.000468587
0.000528031
0.000586935
0.000644276
0.000699004
0.000750087
0.000796542
0.000837482
0.000872145
0.000899922
0.000920364
0.000933193
0.000938315
0.000935824
0.000926015
0.000909397
0.000886692
0.000858822
0.000826881
0.000792081
0.000755716
0.000719155
0.000683778
0.000650863
0.000621499
0.000596478
0.000576267
0.000560925
0.000550194
0.000543439
0.000539882
0.000538654
0.000538677
0.000539892
0.000539882
0.000541285
0.000536324
3.48979e-05
3.06712e-05
2.76814e-05
2.54845e-05
2.39666e-05
2.32023e-05
2.3359e-05
2.46176e-05
2.71033e-05
3.08834e-05
3.60061e-05
4.26316e-05
5.11587e-05
6.23361e-05
7.72078e-05
9.6937e-05
0.000122478
0.000154338
0.000192451
0.000236277
0.000284966
0.000337546
0.000392991
0.000450037
0.00050751
0.000564433
0.000619801
0.000672584
0.000721762
0.000766362
0.000805495
0.000838395
0.00086444
0.000883174
0.000894313
0.000897761
0.00089362
0.000882198
0.000864026
0.000839854
0.000810645
0.000777537
0.000741794
0.000704766
0.000667865
0.000632499
0.00059996
0.000571338
0.000547418
0.000528661
0.000515106
0.000506502
0.000502169
0.000501358
0.000503086
0.000506368
0.000510909
0.000514559
0.00051953
0.000518534
3.49021e-05
3.06958e-05
2.77331e-05
2.55517e-05
2.40107e-05
2.31576e-05
2.31466e-05
2.41686e-05
2.6385e-05
2.991e-05
3.48264e-05
4.12836e-05
4.96083e-05
6.04208e-05
7.46253e-05
9.32837e-05
0.000117339
0.000147375
0.000183452
0.000225152
0.000271704
0.000322164
0.0003755
0.000430436
0.000485813
0.000540638
0.000593913
0.000644628
0.000691779
0.000734404
0.000771617
0.00080265
0.000826876
0.000843829
0.000853225
0.000854967
0.000849165
0.000836146
0.000816463
0.000790898
0.000760452
0.00072631
0.000689787
0.000652281
0.000615239
0.000580088
0.000548115
0.000520401
0.000497706
0.000480478
0.000468733
0.000462232
0.000460264
0.000462115
0.000466712
0.000473161
0.00048095
0.000488186
0.000496681
0.000499653
3.49056e-05
3.07171e-05
2.7779e-05
2.56138e-05
2.40563e-05
2.31268e-05
2.29605e-05
2.37476e-05
2.56721e-05
2.88868e-05
3.3511e-05
3.96994e-05
4.77313e-05
5.81222e-05
7.16444e-05
8.92483e-05
0.000111839
0.000140045
0.000174039
0.000213521
0.000257814
0.000306018
0.000357109
0.000409819
0.000462985
0.000515601
0.000566674
0.000615211
0.000660224
0.000700763
0.000735953
0.000765024
0.000787347
0.000802456
0.000810062
0.000810076
0.000802618
0.000788032
0.000766899
0.000740036
0.000708484
0.000673474
0.000636369
0.00059861
0.000561668
0.000526972
0.000495792
0.000469177
0.000447848
0.000432227
0.000422307
0.000417861
0.000418169
0.00042256
0.000429899
0.000439383
0.000450308
0.000461017
0.000472965
0.000479874
3.49083e-05
3.07357e-05
2.78199e-05
2.56711e-05
2.41029e-05
2.31093e-05
2.28031e-05
2.33647e-05
2.49889e-05
2.7856e-05
3.21184e-05
3.79451e-05
4.55889e-05
5.54844e-05
6.82873e-05
8.48341e-05
0.000105971
0.000132345