/*--------------------------------*- C++ -*----------------------------------*\
| =========                 |                                                 |
| \\      /  F ield         | OpenFOAM: The Open Source CFD Toolbox           |
|  \\    /   O peration     | Version:  2.4.0                                 |
|   \\  /    A nd           | Web:      www.OpenFOAM.org                      |
|    \\/     M anipulation  |                                                 |
\*---------------------------------------------------------------------------*/
FoamFile
{
    version     2.0;
    format      ascii;
    class       volVectorField;
    location    "1.79";
    object      U;
}
// * * * * * * * * * * * * * * * * * * * * * * * * * * * * * * * * * * * * * //

dimensions      [0 1 -1 0 0 0 0];

internalField   nonuniform List<vector> 
750
(
(1.04369 -0.00255827 1.00554e-17)
(1.12319 -0.0018414 1.53481e-17)
(1.18342 -0.00131065 1.89213e-17)
(1.22321 -0.00100498 2.43413e-17)
(1.25492 -0.000820702 1.83322e-15)
(1.28229 -0.000712101 1.71352e-15)
(1.3065 -0.000640353 1.32443e-15)
(1.32849 -0.000587749 9.96502e-16)
(1.34883 -0.000546931 -7.06059e-17)
(1.36786 -0.000513768 -1.944e-16)
(1.3858 -0.000485923 -9.37125e-16)
(1.40281 -0.000462022 -6.89685e-16)
(1.41901 -0.000441155 -1.13814e-15)
(1.43451 -0.00042267 -8.63999e-16)
(1.44937 -0.000406092 -2.07962e-15)
(1.46367 -0.000391065 -1.67246e-15)
(1.47745 -0.000377317 -1.8361e-15)
(1.49075 -0.000364636 -2.86341e-15)
(1.5036 -0.000352855 -2.37795e-15)
(1.51605 -0.000341841 -2.45188e-15)
(1.52811 -0.000331486 -2.64927e-15)
(1.53981 -0.000321705 -2.8463e-15)
(1.55116 -0.000312425 -2.29294e-15)
(1.56218 -0.000303588 2.43677e-15)
(1.5729 -0.000295145 -8.44148e-16)
(1.58331 -0.000287055 -2.1133e-15)
(1.59344 -0.000279285 -7.53845e-15)
(1.60329 -0.000271806 -4.19874e-15)
(1.61288 -0.000264594 -2.9801e-15)
(1.62221 -0.000257629 -2.50768e-15)
(1.6313 -0.000250892 -2.30332e-15)
(1.64014 -0.000244369 -1.86171e-15)
(1.64876 -0.000238047 -1.81365e-15)
(1.65715 -0.000231913 5.51094e-16)
(1.66532 -0.00022596 -9.4097e-16)
(1.67328 -0.000220177 8.93341e-16)
(1.68104 -0.000214556 -3.1253e-15)
(1.6886 -0.000209092 -2.37998e-15)
(1.69596 -0.000203777 -8.98916e-16)
(1.70314 -0.000198606 -2.55045e-15)
(1.71013 -0.000193574 -7.55698e-16)
(1.71694 -0.000188676 -1.15334e-15)
(1.72358 -0.000183908 -1.21927e-15)
(1.73006 -0.000179266 -1.07128e-15)
(1.73636 -0.000174747 -4.02449e-16)
(1.74251 -0.000170332 -6.05881e-16)
(1.7485 -0.000166007 -7.19803e-16)
(1.75434 -0.000160816 -4.06028e-16)
(1.75992 -0.000154427 -4.59957e-16)
(1.76553 -8.03381e-05 -3.74014e-16)
(1.04392 -0.00633644 6.66439e-18)
(1.12349 -0.00458313 1.59342e-17)
(1.18372 -0.00328856 2.89629e-17)
(1.22353 -0.00257568 4.50676e-17)
(1.25524 -0.0020996 7.05907e-15)
(1.2826 -0.00181124 4.62239e-15)
(1.3068 -0.00162491 3.22504e-15)
(1.32877 -0.00148939 2.38181e-15)
(1.34909 -0.00138442 -1.49954e-15)
(1.36809 -0.00129945 -7.15685e-16)
(1.38599 -0.00122828 -3.57209e-15)
(1.40295 -0.00116726 -1.64992e-15)
(1.4191 -0.001114 -3.79263e-15)
(1.43453 -0.00106683 -2.09885e-15)
(1.44932 -0.00102452 -7.4521e-15)
(1.46353 -0.000986176 -4.19292e-15)
(1.47722 -0.000951088 -5.40509e-15)
(1.49042 -0.000918719 -9.46207e-15)
(1.50317 -0.000888647 -6.06638e-15)
(1.5155 -0.000860532 -7.03146e-15)
(1.52743 -0.000834103 -7.75581e-15)
(1.53899 -0.000809139 -8.32201e-15)
(1.5502 -0.000785459 -5.71546e-15)
(1.56107 -0.000762916 -6.17362e-15)
(1.57163 -0.000741384 -7.06539e-15)
(1.58188 -0.000720763 -7.88044e-15)
(1.59184 -0.000700965 -9.39646e-15)
(1.60151 -0.000681918 -6.96946e-15)
(1.61092 -0.000663562 -6.66757e-15)
(1.62007 -0.000645842 -6.41738e-15)
(1.62896 -0.000628715 -6.23879e-15)
(1.63761 -0.000612143 -4.63503e-15)
(1.64603 -0.00059609 -4.97993e-15)
(1.65422 -0.000580529 -4.799e-15)
(1.6622 -0.000565432 -4.93821e-15)
(1.66995 -0.000550779 -4.70536e-15)
(1.67751 -0.000536548 -5.20107e-15)
(1.68486 -0.000522721 -5.40802e-15)
(1.69202 -0.000509281 -5.32239e-15)
(1.69898 -0.000496215 -4.84523e-15)
(1.70577 -0.000483506 -4.24329e-15)
(1.71238 -0.000471146 -3.91377e-15)
(1.71881 -0.000459119 -3.69338e-15)
(1.72508 -0.000447419 -2.83352e-15)
(1.73118 -0.000436034 -2.48007e-15)
(1.73713 -0.000424929 -2.27144e-15)
(1.74292 -0.000414019 -2.1364e-15)
(1.74856 -0.000401516 -1.80995e-15)
(1.75395 -0.000384119 -1.50452e-15)
(1.75938 -0.000211166 -1.23634e-15)
(1.04443 -0.0102624 9.25642e-18)
(1.12435 -0.00725205 3.05931e-17)
(1.18451 -0.00518318 5.96865e-17)
(1.22428 -0.00412156 9.84258e-17)
(1.25595 -0.00335927 1.24746e-15)
(1.28326 -0.00289035 1.61764e-15)
(1.30741 -0.00259152 1.67554e-15)
(1.32933 -0.00237439 1.61557e-15)
(1.34957 -0.00220572 1.01426e-15)
(1.36848 -0.00206905 7.50043e-16)
(1.38628 -0.00195447 1.46745e-16)
(1.40311 -0.00185605 2.45189e-15)
(1.41912 -0.00177 1.59642e-15)
(1.43438 -0.00169363 1.24356e-15)
(1.44899 -0.00162501 2.01583e-16)
(1.46299 -0.0015627 2.27276e-15)
(1.47645 -0.00150559 1.44376e-15)
(1.4894 -0.00145283 2.56836e-16)
(1.50188 -0.00140376 -1.22788e-16)
(1.51392 -0.00135784 -5.73935e-16)
(1.52554 -0.00131465 -1.03475e-15)
(1.53678 -0.00127384 -1.47604e-15)
(1.54765 -0.00123513 -1.46528e-15)
(1.55816 -0.00119828 -1.56441e-15)
(1.56835 -0.00116311 -1.78984e-15)
(1.57821 -0.00112945 -2.08848e-15)
(1.58777 -0.00109716 -2.55038e-15)
(1.59704 -0.00106614 -2.58288e-15)
(1.60603 -0.00103627 -2.59986e-15)
(1.61475 -0.00100749 -2.60461e-15)
(1.62321 -0.000979714 -2.60465e-15)
(1.63142 -0.00095288 -2.40957e-15)
(1.6394 -0.000926932 -2.33408e-15)
(1.64714 -0.000901824 -2.25021e-15)
(1.65466 -0.00087751 -2.21023e-15)
(1.66196 -0.000853954 -2.13855e-15)
(1.66905 -0.000831118 -2.16969e-15)
(1.67595 -0.000808974 -2.23268e-15)
(1.68265 -0.000787488 -2.25979e-15)
(1.68916 -0.000766638 -2.23639e-15)
(1.69549 -0.000746397 -2.14885e-15)
(1.70164 -0.000726744 -2.05155e-15)
(1.70762 -0.000707657 -1.95196e-15)
(1.71344 -0.00068912 -1.78104e-15)
(1.7191 -0.000671109 -1.61952e-15)
(1.7246 -0.000653587 -1.45062e-15)
(1.72996 -0.000636356 -1.3252e-15)
(1.73517 -0.000617334 -1.19994e-15)
(1.74013 -0.000588684 -1.07542e-15)
(1.74516 -0.000328365 -9.5497e-16)
(1.04521 -0.0144326 2.66737e-17)
(1.1257 -0.0100636 7.89533e-17)
(1.18572 -0.00720108 1.47165e-16)
(1.22539 -0.00575853 2.24056e-16)
(1.25697 -0.00468869 4.79856e-16)
(1.28419 -0.00402879 7.26565e-16)
(1.30822 -0.00361015 9.19157e-16)
(1.33 -0.00330538 1.053e-15)
(1.35008 -0.0030679 1.06212e-15)
(1.36879 -0.00287501 1.03177e-15)
(1.38636 -0.00271286 9.15916e-16)
(1.40293 -0.00257319 2.99104e-15)
(1.41864 -0.00245069 2.76919e-15)
(1.43358 -0.00234167 2.54929e-15)
(1.44782 -0.00224345 2.22196e-15)
(1.46142 -0.00215404 3.99906e-15)
(1.47445 -0.00207192 3.61656e-15)
(1.48693 -0.00199594 3.15158e-15)
(1.49892 -0.00192517 2.74785e-15)
(1.51043 -0.0018589 2.37403e-15)
(1.52151 -0.00179654 2.01858e-15)
(1.53217 -0.00173763 1.6785e-15)
(1.54245 -0.00168177 1.41095e-15)
(1.55235 -0.00162866 1.18064e-15)
(1.5619 -0.00157801 9.61182e-16)
(1.57111 -0.00152962 7.39974e-16)
(1.58001 -0.00148329 3.94993e-16)
(1.58861 -0.00143885 1.49269e-16)
(1.59691 -0.00139618 -3.30631e-17)
(1.60493 -0.00135514 -1.73726e-16)
(1.61269 -0.00131563 -2.86702e-16)
(1.6202 -0.00127757 -3.54633e-16)
(1.62746 -0.00124086 -4.07447e-16)
(1.63449 -0.00120543 -3.51343e-16)
(1.6413 -0.00117122 -3.43445e-16)
(1.64789 -0.00113817 -2.61026e-16)
(1.65427 -0.00110622 -3.46053e-16)
(1.66046 -0.00107531 -4.25568e-16)
(1.66645 -0.00104541 -4.02285e-16)
(1.67226 -0.00101647 -5.09083e-16)
(1.67789 -0.000988451 -5.3045e-16)
(1.68335 -0.000961315 -5.49209e-16)
(1.68865 -0.000935028 -5.17967e-16)
(1.69379 -0.00090956 -5.43084e-16)
(1.69878 -0.000884874 -5.31374e-16)
(1.70362 -0.000860924 -3.4121e-16)
(1.70832 -0.000837419 -3.76068e-16)
(1.71289 -0.000812077 -3.82252e-16)
(1.71723 -0.00077387 -3.75529e-16)
(1.72166 -0.000435726 -3.58997e-16)
(1.04625 -0.0187073 7.95852e-17)
(1.12749 -0.0128689 2.06494e-16)
(1.18728 -0.00921571 3.58872e-16)
(1.22676 -0.00737704 4.96435e-16)
(1.25816 -0.00599884 6.5771e-16)
(1.28515 -0.00514976 8.24168e-16)
(1.30894 -0.0046107 9.77357e-16)
(1.33042 -0.00421667 1.0919e-15)
(1.35016 -0.00390824 1.1589e-15)
(1.36848 -0.00365664 1.17344e-15)
(1.38559 -0.00344424 1.13604e-15)
(1.40166 -0.00326053 2.99964e-15)
(1.41681 -0.00309879 2.97816e-15)
(1.43114 -0.00295435 2.86492e-15)
(1.44472 -0.00282383 2.69393e-15)
(1.45763 -0.00270473 4.18971e-15)
(1.4699 -0.00259516 4.0017e-15)
(1.4816 -0.00249365 3.77926e-15)
(1.49277 -0.00239906 3.54459e-15)
(1.50343 -0.00231049 3.30633e-15)
(1.51362 -0.0022272 3.06882e-15)
(1.52338 -0.0021486 2.83475e-15)
(1.53272 -0.00207421 2.60825e-15)
(1.54167 -0.0020036 2.4037e-15)
(1.55025 -0.00193644 2.21531e-15)
(1.55849 -0.00187244 2.03191e-15)
(1.5664 -0.00181134 1.28945e-15)
(1.574 -0.00175293 1.24284e-15)
(1.5813 -0.00169702 1.16749e-15)
(1.58833 -0.00164344 1.07566e-15)
(1.59508 -0.00159205 9.78412e-16)
(1.60159 -0.00154271 8.85413e-16)
(1.60785 -0.0014953 7.93074e-16)
(1.61389 -0.00144971 1.25812e-15)
(1.61971 -0.00140585 1.05546e-15)
(1.62532 -0.00136363 1.44777e-15)
(1.63073 -0.00132296 6.5725e-16)
(1.63595 -0.00128377 5.82632e-16)
(1.641 -0.00124598 1.05829e-15)
(1.64587 -0.00120953 3.25496e-16)
(1.65057 -0.00117436 5.6637e-16)
(1.65512 -0.00114041 4.73164e-16)
(1.65951 -0.00110762 6.61568e-16)
(1.66376 -0.00107596 2.58057e-16)
(1.66788 -0.00104537 3.49258e-16)
(1.67186 -0.00101578 3.20138e-16)
(1.67571 -0.000986834 1.41948e-16)
(1.67944 -0.000956267 1.98174e-16)
(1.68298 -0.000911699 1.72756e-16)
(1.68664 -0.000515632 1.59606e-16)
(1.04754 -0.0231058 2.24412e-16)
(1.12964 -0.0156694 5.17681e-16)
(1.18905 -0.0112344 8.2549e-16)
(1.22815 -0.00898206 1.00916e-15)
(1.25917 -0.00729175 1.20633e-15)
(1.28571 -0.0062514 1.35873e-15)
(1.30897 -0.0055876 1.46926e-15)
(1.32986 -0.00509957 1.47381e-15)
(1.34892 -0.00471537 1.4478e-15)
(1.36647 -0.00440019 1.33779e-15)
(1.38275 -0.00413279 1.21078e-15)
(1.3979 -0.00390047 3.47646e-15)
(1.41206 -0.00369517 3.08709e-15)
(1.42533 -0.00351129 2.77488e-15)
(1.4378 -0.00334478 2.52606e-15)
(1.44954 -0.00319265 3.83131e-15)
(1.46061 -0.00305262 3.70392e-15)
(1.47106 -0.00292294 3.54876e-15)
(1.48094 -0.00280224 3.3875e-15)
(1.49029 -0.00268941 3.22748e-15)
(1.49916 -0.00258355 3.07125e-15)
(1.50757 -0.00248394 2.91966e-15)
(1.51555 -0.00238995 2.77277e-15)
(1.52314 -0.00230108 2.62823e-15)
(1.53036 -0.00221687 2.48671e-15)
(1.53723 -0.00213695 2.3481e-15)
(1.54378 -0.00206099 2.13474e-15)
(1.55002 -0.00198868 1.96774e-15)
(1.55597 -0.00191979 1.82908e-15)
(1.56166 -0.00185406 1.70808e-15)
(1.5671 -0.00179131 1.59882e-15)
(1.57229 -0.00173133 1.49871e-15)
(1.57727 -0.00167397 1.40556e-15)
(1.58203 -0.00161906 1.39361e-15)
(1.58659 -0.00156646 1.34692e-15)
(1.59097 -0.00151605 1.35748e-15)
(1.59516 -0.0014677 1.24524e-15)
(1.59919 -0.0014213 1.14578e-15)
(1.60306 -0.00137674 1.1302e-15)
(1.60678 -0.00133394 1.00867e-15)
(1.61035 -0.0012928 9.46191e-16)
(1.61379 -0.00125323 8.79719e-16)
(1.6171 -0.00121517 8.49209e-16)
(1.62029 -0.00117854 7.64565e-16)
(1.62335 -0.00114326 7.08786e-16)
(1.62631 -0.00110927 6.71793e-16)
(1.62917 -0.00107615 6.10019e-16)
(1.63192 -0.00104188 5.63892e-16)
(1.63452 -0.000994912 5.19392e-16)
(1.63729 -0.000565658 4.78288e-16)
(1.049 -0.027648 6.09021e-16)
(1.13196 -0.0184484 1.21773e-15)
(1.19066 -0.0132404 1.76613e-15)
(1.22903 -0.0105516 1.76705e-15)
(1.25926 -0.00854216 2.08012e-15)
(1.28488 -0.00730543 2.14564e-15)
(1.3071 -0.00650969 2.13146e-15)
(1.32683 -0.00592027 1.76005e-15)
(1.34461 -0.00545309 1.57964e-15)
(1.36078 -0.0050675 1.11558e-15)
(1.37555 -0.00473875 8.71144e-16)
(1.38913 -0.00445213 1.95087e-15)
(1.40163 -0.00419823 1.87544e-15)
(1.41318 -0.00397057 1.67871e-15)
(1.42388 -0.0037644 1.57681e-15)
(1.43381 -0.00357622 3.37109e-15)
(1.44303 -0.00340336 3.05782e-15)
(1.45162 -0.00324372 2.86175e-15)
(1.45964 -0.00309564 2.72793e-15)
(1.46712 -0.00295778 2.6266e-15)
(1.47411 -0.00282903 2.54195e-15)
(1.48066 -0.00270846 2.46584e-15)
(1.4868 -0.00259529 2.39322e-15)
(1.49256 -0.00248884 2.29856e-15)
(1.49798 -0.00238855 2.20014e-15)
(1.50307 -0.0022939 2.10444e-15)
(1.50787 -0.00220444 2.01284e-15)
(1.5124 -0.00211977 1.92552e-15)
(1.51667 -0.00203955 1.84257e-15)
(1.5207 -0.00196345 1.76363e-15)
(1.52452 -0.00189119 1.68854e-15)
(1.52813 -0.0018225 1.6164e-15)
(1.53155 -0.00175715 1.54711e-15)
(1.5348 -0.00169492 1.48069e-15)
(1.53789 -0.00163562 1.41711e-15)
(1.54082 -0.00157905 1.35633e-15)
(1.54361 -0.00152506 1.28705e-15)
(1.54626 -0.00147349 1.21737e-15)
(1.54879 -0.00142419 1.15104e-15)
(1.5512 -0.00137704 1.08337e-15)
(1.5535 -0.0013319 1.01844e-15)
(1.5557 -0.00128868 9.57494e-16)
(1.5578 -0.00124726 9.00545e-16)
(1.55981 -0.00120756 8.46914e-16)
(1.56174 -0.00116945 7.92578e-16)
(1.56358 -0.00113288 8.28415e-16)
(1.56534 -0.00109737 7.57845e-16)
(1.56704 -0.00106141 6.96689e-16)
(1.56863 -0.00101657 6.44951e-16)
(1.57044 -0.000581933 5.99278e-16)
(1.05043 -0.0323407 1.57445e-15)
(1.13399 -0.0211763 2.63079e-15)
(1.19132 -0.0152023 3.45065e-15)
(1.22823 -0.0120458 2.20795e-15)
(1.25686 -0.00970519 3.44201e-15)
(1.28068 -0.00826254 2.84412e-15)
(1.30093 -0.00732373 2.54099e-15)
(1.31853 -0.00662243 8.53378e-16)
(1.33404 -0.00606288 1.12004e-15)
(1.34782 -0.00559872 -4.99978e-16)
(1.36011 -0.00520188 -1.59325e-16)
(1.37113 -0.00485558 3.82069e-16)
(1.38104 -0.00454905 7.0449e-16)
(1.38997 -0.00427478 1.88149e-16)
(1.39803 -0.00402726 5.1099e-16)
(1.40534 -0.00380234 1.12525e-15)
(1.41196 -0.0035968 1.4615e-15)
(1.41798 -0.00340809 1.64702e-15)
(1.42345 -0.00323417 1.74982e-15)
(1.42845 -0.00307333 1.80595e-15)
(1.43301 -0.00292416 1.83458e-15)
(1.43717 -0.00278546 1.84615e-15)
(1.44099 -0.00265621 1.8422e-15)
(1.4445 -0.00253551 1.70277e-15)
(1.44771 -0.00242259 1.62124e-15)
(1.45067 -0.00231677 1.56739e-15)
(1.4534 -0.00221745 1.58606e-15)
(1.45591 -0.00212408 1.57705e-15)
(1.45823 -0.0020362 1.55354e-15)
(1.46038 -0.00195337 1.5226e-15)
(1.46237 -0.0018752 1.48814e-15)
(1.46422 -0.00180135 1.44972e-15)
(1.46593 -0.00173149 1.409e-15)
(1.46752 -0.00166535 1.30892e-15)
(1.469 -0.00160265 1.24146e-15)
(1.47038 -0.00154317 1.13277e-15)
(1.47167 -0.00148668 1.06387e-15)
(1.47287 -0.00143299 1.01634e-15)
(1.47399 -0.00138191 9.20836e-16)
(1.47504 -0.00133327 8.91307e-16)
(1.47603 -0.00128691 8.35252e-16)
(1.47695 -0.00124271 7.95069e-16)
(1.47782 -0.00120051 7.3295e-16)
(1.47863 -0.00116022 7.19041e-16)
(1.4794 -0.0011217 6.86178e-16)
(1.48012 -0.00108487 5.81653e-16)
(1.4808 -0.00104923 5.9527e-16)
(1.48144 -0.00101386 5.8522e-16)
(1.48201 -0.000975719 5.67976e-16)
(1.48286 -0.000563975 5.45369e-16)
(1.05136 -0.0371507 2.28272e-16)
(1.13468 -0.0237904 5.22275e-16)
(1.18932 -0.0170532 8.36816e-16)
(1.22332 -0.0133865 -4.8855e-16)
(1.24884 -0.0106961 1.47095e-15)
(1.26931 -0.00903306 1.64856e-15)
(1.28603 -0.00793717 1.94124e-15)
(1.29995 -0.0071126 1.74348e-15)
(1.31169 -0.00645211 1.58735e-15)
(1.32164 -0.00590353 -2.06482e-18)
(1.33009 -0.00543528 1.63896e-16)
(1.3373 -0.00502824 9.43538e-16)
(1.34344 -0.00466998 8.63907e-16)
(1.34868 -0.00435163 8.1565e-16)
(1.35315 -0.00406658 7.84444e-16)
(1.35696 -0.00380978 1.47868e-15)
(1.3602 -0.00357722 1.37449e-15)
(1.36296 -0.00336569 1.34046e-15)
(1.3653 -0.00317257 1.34091e-15)
(1.36728 -0.00299565 1.3563e-15)
(1.36895 -0.00283311 1.37655e-15)
(1.37034 -0.00268335 1.39635e-15)
(1.3715 -0.00254504 1.39191e-15)
(1.37246 -0.00241701 7.17133e-16)
(1.37324 -0.00229824 8.57751e-16)
(1.37387 -0.00218784 9.37603e-16)
(1.37437 -0.00208503 1.31597e-15)
(1.37476 -0.00198912 1.268e-15)
(1.37504 -0.00189948 1.23814e-15)
(1.37523 -0.00181558 1.21838e-15)
(1.37535 -0.00173694 1.20294e-15)
(1.37541 -0.0016631 1.17738e-15)
(1.3754 -0.00159369 1.1515e-15)
(1.37535 -0.00152834 7.94402e-16)
(1.37526 -0.00146675 8.48082e-16)
(1.37513 -0.00140862 5.38797e-16)
(1.37496 -0.0013537 6.22767e-16)
(1.37477 -0.00130174 6.76221e-16)
(1.37456 -0.00125254 3.68954e-16)
(1.37433 -0.0012059 6.27666e-16)
(1.37408 -0.00116164 4.76215e-16)
(1.37381 -0.00111961 5.16583e-16)
(1.37354 -0.00107964 3.64498e-16)
(1.37325 -0.00104162 5.74389e-16)
(1.37296 -0.00100539 4.76092e-16)
(1.37266 -0.000970885 4.64098e-16)
(1.37235 -0.000937564 5.4477e-16)
(1.37205 -0.000905089 4.7708e-16)
(1.37171 -0.00087747 4.62801e-16)
(1.37168 -0.000514312 4.40391e-16)
(1.05068 -0.0419625 -2.70958e-17)
(1.13173 -0.0261545 -3.20092e-17)
(1.18107 -0.01865 -1.31034e-17)
(1.20947 -0.0144238 -3.06168e-16)
(1.22923 -0.0113645 -1.10836e-16)
(1.24382 -0.00946716 1.27307e-15)
(1.25462 -0.00820385 2.30111e-15)
(1.26265 -0.00725145 1.79154e-15)
(1.2686 -0.00649052 1.46497e-15)
(1.27292 -0.00586217 1.45532e-15)
(1.27596 -0.00533049 9.42718e-16)
(1.27799 -0.00487324 7.9188e-16)
(1.2792 -0.00447556 7.11925e-16)
(1.27977 -0.00412663 1.14576e-15)
(1.27983 -0.00381826 8.99199e-16)
(1.27948 -0.00354407 9.13885e-16)
(1.27882 -0.00329898 9.42297e-16)
(1.2779 -0.00307887 9.76694e-16)
(1.27679 -0.00288037 1.01197e-15)
(1.27553 -0.00270068 1.04507e-15)
(1.27415 -0.00253744 1.07448e-15)
(1.27269 -0.00238868 1.09952e-15)
(1.27117 -0.00225269 9.97901e-16)
(1.2696 -0.00212804 8.25353e-16)
(1.26801 -0.00201347 7.42234e-16)
(1.26641 -0.00190791 7.07013e-16)
(1.2648 -0.00181041 7.78919e-16)
(1.26319 -0.00172016 8.33553e-16)
(1.2616 -0.00163644 8.71809e-16)
(1.26002 -0.00155863 8.97397e-16)
(1.25847 -0.00148617 9.13601e-16)
(1.25693 -0.00141856 8.61167e-16)
(1.25543 -0.00135538 8.39623e-16)
(1.25395 -0.00129624 7.61221e-16)
(1.2525 -0.00124078 7.17922e-16)
(1.25108 -0.00118871 6.23474e-16)
(1.24969 -0.00113974 5.69654e-16)
(1.24833 -0.00109363 5.71465e-16)
(1.247 -0.00105015 5.04323e-16)
(1.24571 -0.0010091 5.02099e-16)
(1.24444 -0.0009703 4.59514e-16)
(1.24321 -0.000933581 4.31413e-16)
(1.24201 -0.00089879 3.77022e-16)
(1.24083 -0.000865801 3.79598e-16)
(1.23969 -0.000834462 3.62042e-16)
(1.23858 -0.000804736 3.62461e-16)
(1.23749 -0.000776037 3.71835e-16)
(1.23645 -0.000748356 3.61953e-16)
(1.23538 -0.000733471 3.50471e-16)
(1.23463 -0.000438733 3.37106e-16)
(1.04596 -0.0465243 -1.49039e-16)
(1.12033 -0.028018 -3.04623e-16)
(1.15936 -0.0197094 -4.50648e-16)
(1.17742 -0.0148836 -8.48395e-16)
(1.18719 -0.0114592 -6.52384e-16)
(1.19219 -0.00933578 -2.35736e-16)
(1.19388 -0.00791826 3.01988e-16)
(1.19336 -0.0068586 3.44013e-16)
(1.19137 -0.00602338 4.13227e-16)
(1.18836 -0.00534493 -1.81075e-16)
(1.18467 -0.00478136 -4.04185e-17)
(1.18055 -0.00430597 2.02696e-16)
(1.17616 -0.00390047 3.43656e-16)
(1.17164 -0.00355141 -6.06351e-17)
(1.16707 -0.00324854 1.91414e-16)
(1.16251 -0.00298393 5.00354e-16)
(1.15801 -0.00275128 6.79938e-16)
(1.1536 -0.00254556 7.88324e-16)
(1.1493 -0.00236272 8.5504e-16)
(1.14512 -0.00219942 8.95999e-16)
(1.14108 -0.00205293 9.20763e-16)
(1.13717 -0.00192096 9.36188e-16)
(1.1334 -0.00180163 3.29761e-16)
(1.12977 -0.00169332 3.43239e-16)
(1.12627 -0.0015947 3.68279e-16)
(1.1229 -0.0015046 3.94112e-16)
(1.11965 -0.00142206 5.64333e-16)
(1.11653 -0.00134621 6.4783e-16)
(1.11352 -0.00127634 6.89761e-16)
(1.11063 -0.00121182 7.11434e-16)
(1.10784 -0.0011521 7.23833e-16)
(1.10516 -0.00109669 4.15515e-16)
(1.10257 -0.00104518 5.01897e-16)
(1.10009 -0.000997195 4.72114e-16)
(1.09769 -0.000952413 4.6383e-16)
(1.09537 -0.000910548 3.83056e-16)
(1.09314 -0.000871336 3.46907e-16)
(1.09099 -0.000834559 4.93032e-16)
(1.08892 -0.000800002 4.01723e-16)
(1.08691 -0.000767494 3.92431e-16)
(1.08498 -0.000736862 3.08856e-16)
(1.08311 -0.000707966 2.71498e-16)
(1.0813 -0.000680665 2.14113e-16)
(1.07956 -0.000654852 2.2956e-16)
(1.07787 -0.000630384 2.15993e-16)
(1.07623 -0.00060727 2.89958e-16)
(1.07465 -0.000584914 2.69172e-16)
(1.07313 -0.000563205 2.46645e-16)
(1.07161 -0.000560858 2.34094e-16)
(1.07035 -0.000345707 2.23853e-16)
(1.03194 -0.0502542 -3.46532e-16)
(1.09043 -0.0290097 -6.67024e-16)
(1.10999 -0.0197771 -9.60194e-16)
(1.11007 -0.0143301 -2.04237e-15)
(1.10394 -0.0106085 -5.25634e-16)
(1.09492 -0.00833475 -2.1632e-16)
(1.08435 -0.00684075 2.88811e-16)
(1.07319 -0.00575329 -6.32779e-16)
(1.06201 -0.00492179 -2.07597e-16)
(1.05111 -0.00426721 -6.64227e-16)
(1.04066 -0.00374007 -4.06582e-16)
(1.03073 -0.00330834 4.43987e-16)
(1.02135 -0.00295007 4.57531e-16)
(1.01253 -0.00264937 3.79619e-16)
(1.00425 -0.0023944 3.66127e-16)
(0.996474 -0.0021762 1.08551e-15)
(0.989179 -0.0019879 1.00175e-15)
(0.982329 -0.00182416 9.57548e-16)
(0.975891 -0.0016808 9.24282e-16)
(0.969835 -0.00155446 8.94e-16)
(0.964129 -0.00144249 8.65621e-16)
(0.958749 -0.00134272 8.39435e-16)
(0.953667 -0.00125338 6.88503e-16)
(0.948862 -0.00117302 -2.49179e-17)
(0.944312 -0.00110042 1.19895e-16)
(0.939999 -0.0010346 1.99675e-16)
(0.935905 -0.000974692 8.9483e-16)
(0.932014 -0.00091999 7.40647e-16)
(0.928313 -0.000869883 6.60121e-16)
(0.924788 -0.000823851 6.16836e-16)
(0.921427 -0.000781447 5.92354e-16)
(0.91822 -0.000742284 5.10281e-16)
(0.915156 -0.000706027 4.7468e-16)
(0.912226 -0.000672384 1.29169e-16)
(0.909423 -0.000641098 2.17335e-16)
(0.906737 -0.000611948 -6.99285e-17)
(0.904164 -0.000584731 5.09704e-17)
(0.901695 -0.00055928 1.54281e-16)
(0.899325 -0.000535431 3.43172e-17)
(0.897048 -0.000513055 2.73867e-16)
(0.894859 -0.000492022 -6.90441e-17)
(0.892754 -0.000472227 2.44759e-17)
(0.890728 -0.000453564 -9.51832e-17)
(0.888777 -0.000435956 1.51272e-16)
(0.886897 -0.00041929 6.31231e-17)
(0.885085 -0.000403609 9.93016e-17)
(0.883335 -0.000388408 1.22265e-16)
(0.881661 -0.00037296 9.24658e-17)
(0.879987 -0.000380172 1.10301e-16)
(0.878468 -0.000245169 1.10983e-16)
(0.996905 -0.0512148 -7.64475e-16)
(1.0206 -0.0283402 -1.31465e-15)
(1.00517 -0.0181767 -1.77845e-15)
(0.976969 -0.0121925 -1.40741e-15)
(0.949062 -0.00838261 -8.80871e-16)
(0.923351 -0.00617908 5.66425e-16)
(0.900039 -0.00481396 1.57911e-15)
(0.879202 -0.00388015 7.88078e-16)
(0.860702 -0.0032066 4.25544e-16)
(0.844274 -0.00270364 1.16864e-16)
(0.82964 -0.00231683 -1.07572e-17)
(0.816549 -0.00201224 4.74076e-16)
(0.804783 -0.00176773 5.84018e-16)
(0.794156 -0.00156814 5.47102e-16)
(0.784512 -0.0014028 4.82398e-16)
(0.775718 -0.00126405 9.84971e-16)
(0.767667 -0.00114628 1.05377e-15)
(0.760264 -0.0010453 9.90173e-16)
(0.753434 -0.000957945 8.99323e-16)
(0.747109 -0.000881769 8.14749e-16)
(0.741235 -0.000814864 7.44505e-16)
(0.735763 -0.000755724 6.88387e-16)
(0.730652 -0.00070314 6.12066e-16)
(0.725866 -0.000656136 3.85158e-16)
(0.721375 -0.000613918 2.82387e-16)
(0.717151 -0.000575828 2.35897e-16)
(0.71317 -0.000541321 3.79123e-16)
(0.709412 -0.000509943 4.22761e-16)
(0.705859 -0.00048131 4.29581e-16)
(0.702492 -0.000455098 4.23942e-16)
(0.699299 -0.000431027 4.15013e-16)
(0.696265 -0.000408862 3.8891e-16)
(0.69338 -0.000388398 3.64115e-16)
(0.690632 -0.000369456 2.60092e-16)
(0.688011 -0.000351882 2.20647e-16)
(0.68551 -0.000335544 1.20958e-16)
(0.68312 -0.000320321 9.18464e-17)
(0.680834 -0.000306112 9.89354e-17)
(0.678645 -0.000292821 7.03246e-17)
(0.676548 -0.000280372 1.15032e-16)
(0.674537 -0.000268689 5.08176e-17)
(0.672607 -0.00025771 3.80642e-17)
(0.670753 -0.000247371 -1.76398e-18)
(0.668972 -0.00023763 3.8706e-17)
(0.667258 -0.000228418 3.7829e-17)
(0.665609 -0.000219778 3.91529e-17)
(0.664018 -0.000211439 4.92494e-17)
(0.662504 -0.000201815 4.93668e-17)
(0.660987 -0.000213178 5.51338e-17)
(0.659474 -0.000147431 5.89529e-17)
(0.911304 -0.0437671 1.65507e-16)
(0.862095 -0.0235208 2.20232e-16)
(0.790342 -0.0136935 1.47016e-16)
(0.727214 -0.00791339 -1.52884e-16)
(0.679677 -0.00461767 4.23119e-17)
(0.643638 -0.0029805 2.35859e-16)
(0.615422 -0.00212953 5.54001e-16)
(0.592816 -0.00162757 1.5176e-16)
(0.574326 -0.00130186 1.36623e-16)
(0.558891 -0.00107525 9.20988e-17)
(0.545768 -0.00090863 4.43972e-17)
(0.534444 -0.000781224 1.5842e-15)
(0.524548 -0.000681047 9.40796e-16)
(0.51581 -0.000600535 6.16927e-16)
(0.508022 -0.000534633 4.43122e-16)
(0.501028 -0.000479849 1.98024e-15)
(0.494703 -0.000433704 1.25125e-15)
(0.48895 -0.00039439 8.88453e-16)
(0.48369 -0.000360561 6.89291e-16)
(0.478858 -0.000331195 5.69618e-16)
(0.474401 -0.000305506 4.92018e-16)
(0.470274 -0.000282876 4.38579e-16)
(0.46644 -0.000262817 3.90122e-16)
(0.462867 -0.000244935 2.97563e-16)
(0.459528 -0.000228913 2.23329e-16)
(0.4564 -0.00021449 1.75102e-16)
(0.453462 -0.000201449 1.9791e-16)
(0.450698 -0.000189612 2.2177e-16)
(0.448091 -0.000178828 2.34653e-16)
(0.445628 -0.000168972 2.3866e-16)
(0.443298 -0.000159933 2.3763e-16)
(0.441088 -0.00015162 2.28896e-16)
(0.438991 -0.000143954 2.17066e-16)
(0.436998 -0.000136867 1.78721e-16)
(0.4351 -0.000130298 1.49107e-16)
(0.433292 -0.000124196 1.04144e-16)
(0.431566 -0.000118517 7.49704e-17)
(0.429918 -0.000113218 6.4304e-17)
(0.428342 -0.000108269 5.03919e-17)
(0.426834 -0.000103634 5.85166e-17)
(0.42539 -9.92893e-05 4.13084e-17)
(0.424005 -9.52083e-05 2.9604e-17)
(0.422676 -9.13673e-05 1.15807e-17)
(0.4214 -8.77492e-05 1.66746e-17)
(0.420173 -8.43304e-05 1.83604e-17)
(0.418995 -8.11222e-05 -7.64882e-18)
(0.417856 -7.81368e-05 8.02171e-18)
(0.416781 -7.34427e-05 1.75956e-17)
(0.415703 -8.28863e-05 2.38069e-17)
(0.41448 -6.45007e-05 2.76229e-17)
(0.673881 -0.0188208 7.58265e-16)
(0.487282 -0.00741857 1.22667e-15)
(0.362716 -0.00291438 1.39748e-15)
(0.295072 -0.00112269 2.97185e-16)
(0.260549 -0.000450296 1.19479e-15)
(0.240579 -0.000249068 2.88956e-16)
(0.227032 -0.00017714 1.89905e-16)
(0.216934 -0.000138467 -1.0987e-15)
(0.208991 -0.000113466 -1.50233e-16)
(0.202503 -9.55638e-05 -8.72587e-19)
(0.197061 -8.18083e-05 1.22212e-17)
(0.192412 -7.09268e-05 4.13691e-16)
(0.188382 -6.21925e-05 3.08958e-16)
(0.184846 -5.50773e-05 2.08106e-16)
(0.181712 -4.91956e-05 1.48159e-16)
(0.178909 -4.42701e-05 5.42475e-16)
(0.176385 -4.00973e-05 4.08417e-16)
(0.174096 -3.65265e-05 2.9318e-16)
(0.172009 -3.34427e-05 2.23966e-16)
(0.170097 -3.07577e-05 1.82422e-16)
(0.168337 -2.84032e-05 1.55998e-16)
(0.16671 -2.63244e-05 1.3811e-16)
(0.165202 -2.44788e-05 1.22714e-16)
(0.163798 -2.28304e-05 9.59331e-17)
(0.162488 -2.13521e-05 7.25009e-17)
(0.161262 -2.00193e-05 5.64996e-17)
(0.160112 -1.88128e-05 6.04491e-17)
(0.159031 -1.77171e-05 6.73584e-17)
(0.158013 -1.67178e-05 7.17131e-17)
(0.157052 -1.58038e-05 7.33557e-17)
(0.156143 -1.4965e-05 7.32853e-17)
(0.155282 -1.41931e-05 7.09248e-17)
(0.154465 -1.34809e-05 6.74224e-17)
(0.153689 -1.2822e-05 5.66625e-17)
(0.15295 -1.2211e-05 4.7296e-17)
(0.152247 -1.16428e-05 3.39869e-17)
(0.151577 -1.11148e-05 2.44299e-17)
(0.150936 -1.06205e-05 2.03207e-17)
(0.150324 -1.01602e-05 1.6047e-17)
(0.149739 -9.72758e-06 1.7667e-17)
(0.149178 -9.32317e-06 1.32118e-17)
(0.148641 -8.94266e-06 9.46187e-18)
(0.148126 -8.58457e-06 4.11043e-18)
(0.147631 -8.24553e-06 4.78149e-18)
(0.147155 -7.93206e-06 5.30982e-18)
(0.146699 -7.60444e-06 -7.93689e-17)
(0.146256 -7.46747e-06 -8.13065e-18)
(0.145844 -6.41364e-06 3.38931e-18)
(0.145431 -8.68748e-06 6.44624e-18)
(0.144864 -1.03465e-05 7.81481e-18)
)
;

boundaryField
{
    inlet
    {
        type            fixedValue;
        value           uniform (1 0 0);
    }
    outlet
    {
        type            zeroGradient;
    }
    wall
    {
        type            fixedValue;
        value           uniform (0 0 0);
    }
    frontWedge
    {
        type            wedge;
    }
    backWedge
    {
        type            wedge;
    }
    defaultFaces
    {
        type            empty;
    }
}


// ************************************************************************* //
