/*--------------------------------*- C++ -*----------------------------------*\
| =========                 |                                                 |
| \\      /  F ield         | OpenFOAM: The Open Source CFD Toolbox           |
|  \\    /   O peration     | Version:  2.4.0                                 |
|   \\  /    A nd           | Web:      www.OpenFOAM.org                      |
|    \\/     M anipulation  |                                                 |
\*---------------------------------------------------------------------------*/
FoamFile
{
    version     2.0;
    format      ascii;
    class       volVectorField;
    location    "320";
    object      U;
}
// * * * * * * * * * * * * * * * * * * * * * * * * * * * * * * * * * * * * * //

dimensions      [0 1 -1 0 0 0 0];

internalField   nonuniform List<vector> 
6000
(
(0.177763 -0.00988941 2.45548e-18)
(0.0239735 -0.00510494 0)
(-0.0052138 0.000720971 1.12431e-17)
(-0.00413386 0.000756212 0)
(-0.00836636 0.00155075 0)
(-0.00729223 0.00135477 0)
(-0.00793678 0.00141035 8.79291e-18)
(-0.00726214 0.0012584 1.01127e-21)
(-0.00723909 0.0011939 0)
(-0.00683167 0.00108526 0)
(-0.0067295 0.00101467 1.09015e-17)
(-0.00653814 0.000941336 -2.26948e-17)
(-0.00653021 0.000889069 0)
(-0.00653614 0.000842679 0)
(-0.00666314 0.00080755 -6.27245e-18)
(-0.00683244 0.000776861 0)
(-0.00708104 0.000750342 0)
(-0.00737113 0.000724587 -6.773e-18)
(-0.0077118 0.000698101 -6.92052e-18)
(-0.00808326 0.00066901 0)
(-0.00848506 0.000636046 7.18849e-18)
(-0.00890788 0.000598354 3.65489e-18)
(-0.00935193 0.000555295 -3.71139e-18)
(-0.00981642 0.000506589 0)
(-0.0102999 0.000451386 0)
(-0.0107877 0.000388597 0)
(-0.0112611 0.000317536 1.94983e-18)
(-0.0116984 0.000238107 -1.96928e-18)
(-0.0120757 0.000150839 0)
(-0.012366 5.69881e-05 0)
(-0.0125441 -4.11833e-05 2.52418e-19)
(-0.0125843 -0.000140865 0)
(-0.0124584 -0.00023828 2.04565e-18)
(-0.0121421 -0.000328787 -2.05637e-18)
(-0.0116143 -0.000407188 0)
(-0.0108556 -0.000467627 0)
(-0.00984963 -0.000503916 4.15169e-18)
(-0.0085769 -0.000509226 0)
(-0.00701734 -0.000476001 4.14795e-18)
(-0.00514435 -0.000395721 0)
(-0.00293461 -0.000258807 0)
(-0.000365093 -5.2965e-05 8.13805e-18)
(0.00228379 0.000203474 -1.60971e-17)
(0.0050199 0.000507782 0)
(0.00785318 0.000865508 0)
(0.0108745 0.00128619 7.61013e-18)
(0.0139975 0.00177185 0)
(0.0173949 0.00233566 0)
(0.0207861 0.00296582 -1.37557e-17)
(0.0246495 0.00369929 -1.31446e-17)
(0.0281738 0.00447711 -1.24319e-17)
(0.0327568 0.00542766 -3.78517e-21)
(0.0360393 0.00632462 1.07837e-17)
(0.0421169 0.00762015 0)
(0.0441174 0.00850701 -5.09927e-21)
(0.0539034 0.0105315 -7.96697e-18)
(0.0518044 0.0109663 6.1637e-18)
(0.0714028 0.0148941 5.85795e-18)
(0.058482 0.0136239 5.18681e-21)
(0.110401 0.0240921 0)
(0.368468 -0.0218884 -3.58369e-18)
(0.0912726 -0.0115597 4.61195e-18)
(0.00116433 0.0011386 -8.24236e-18)
(-0.00519505 0.00154267 -9.5573e-18)
(-0.018732 0.00392126 0)
(-0.0177738 0.00349457 0)
(-0.0202029 0.00373245 -1.28727e-17)
(-0.0190151 0.00336428 2.74075e-17)
(-0.0192141 0.00322234 0)
(-0.0183702 0.00294982 0)
(-0.0182052 0.00277484 -1.59236e-17)
(-0.0177989 0.00259025 1.65617e-17)
(-0.0178217 0.00245992 8.58089e-18)
(-0.0178803 0.00234437 0)
(-0.0182327 0.00225734 9.12174e-18)
(-0.0186947 0.00218077 0)
(-0.0193511 0.00211366 0)
(-0.0201113 0.0020469 0)
(-0.0209927 0.00197645 0)
(-0.0219464 0.00189744 0)
(-0.022968 0.00180678 -3.05016e-22)
(-0.0240335 0.00170267 0)
(-0.025141 0.00158389 -5.31238e-18)
(-0.0262854 0.00144975 0)
(-0.0274582 0.00129691 0)
(-0.0286192 0.00112143 2.74188e-18)
(-0.0297177 0.000921236 -2.7654e-18)
(-0.0306968 0.000696138 3.26188e-23)
(-0.0314951 0.000447612 1.40317e-18)
(-0.0320458 0.000179375 0)
(-0.0322866 -0.000101991 -3.55074e-19)
(-0.0321552 -0.000389015 -1.4272e-18)
(-0.0315815 -0.000671189 -1.00217e-23)
(-0.0305102 -0.000935436 2.8751e-18)
(-0.0288903 -0.00116764 -2.8814e-18)
(-0.0266745 -0.00135195 0)
(-0.02382 -0.00147198 0)
(-0.0202745 -0.00150991 0)
(-0.0159814 -0.00144597 0)
(-0.0108665 -0.0012576 0)
(-0.00486365 -0.000916394 -1.11148e-17)
(0.00201175 -0.000371986 0)
(0.00897552 0.000331026 1.07993e-17)
(0.0161477 0.0011584 1.07704e-17)
(0.0235677 0.00212265 0)
(0.0314269 0.00324945 0)
(0.0395359 0.00454496 0)
(0.0482655 0.00604133 0)
(0.0570233 0.00771221 1.91861e-17)
(0.066823 0.00964438 0)
(0.075974 0.0117037 0)
(0.0874004 0.0141858 -1.63481e-17)
(0.0962251 0.0165775 -1.5097e-17)
(0.110944 0.0199088 0)
(0.117401 0.0223569 -2.45269e-17)
(0.140136 0.0274216 0)
(0.138552 0.0289444 -1.73064e-17)
(0.182463 0.0384256 -8.14425e-18)
(0.15971 0.0360735 3.59532e-18)
(0.272978 0.0594439 5.53095e-18)
(0.500221 -0.0175925 -2.3509e-19)
(0.169569 -0.0167826 -4.53362e-18)
(0.0229889 0.000167084 0)
(0.00096903 0.0014965 9.55372e-18)
(-0.0233987 0.00540257 0)
(-0.0246463 0.00498463 0)
(-0.0295347 0.0054969 0)
(-0.0285794 0.00502698 -1.37751e-17)
(-0.029309 0.00486918 0)
(-0.0283572 0.00449838 -1.53013e-17)
(-0.0282797 0.0042608 0)
(-0.0278067 0.00400714 0)
(-0.0279199 0.00382876 -8.61146e-18)
(-0.0280792 0.00367221 0)
(-0.028656 0.00355457 0)
(-0.0293953 0.00345079 0)
(-0.0304145 0.00335766 0)
(-0.0315849 0.00326225 0)
(-0.0329263 0.00315783 0)
(-0.0343669 0.00303761 1.0155e-17)
(-0.0358961 0.00289718 -1.03092e-17)
(-0.0374776 0.00273465 0)
(-0.0391047 0.00254873 1.48789e-22)
(-0.0407659 0.00233839 -5.34101e-18)
(-0.0424417 0.00209681 0)
(-0.0440672 0.00181651 -5.43157e-18)
(-0.0455615 0.00149412 0)
(-0.0468362 0.00112967 2.74957e-18)
(-0.0477975 0.000725838 -1.38126e-18)
(-0.0483455 0.000289272 0)
(-0.0483897 -0.000169035 0)
(-0.0478341 -0.000637269 1.3911e-18)
(-0.0465843 -0.00109812 -6.05662e-23)
(-0.0445658 -0.00153053 0)
(-0.0417106 -0.00191278 5.52341e-18)
(-0.0379565 -0.00222074 0)
(-0.0332479 -0.0024304 5.43106e-18)
(-0.0275176 -0.00251641 0)
(-0.0206949 -0.00245104 0)
(-0.0126918 -0.00220276 0)
(-0.0034442 -0.00172245 9.82968e-18)
(0.00686046 -0.000917116 0)
(0.0173162 0.000156347 0)
(0.0282241 0.00142397 -9.62076e-18)
(0.039602 0.00290567 0)
(0.0516737 0.004638 0)
(0.0641783 0.00663445 9.68279e-18)
(0.0775877 0.00893312 -9.52386e-18)
(0.0911372 0.0115125 -9.27054e-18)
(0.106133 0.0144705 0)
(0.120415 0.0176662 0)
(0.137742 0.0214367 0)
(0.151891 0.0252047 1.49809e-17)
(0.17377 0.0301741 1.38811e-17)
(0.185274 0.034213 1.22753e-17)
(0.217999 0.0415129 0)
(0.219769 0.044658 8.70637e-18)
(0.281046 0.0577204 1.64589e-17)
(0.256975 0.0561194 0)
(0.411705 0.0859807 -5.61586e-18)
(0.594636 -0.0077757 -1.88593e-19)
(0.249361 -0.0196513 4.45048e-18)
(0.0578807 -0.00137815 -8.03891e-18)
(0.0145578 0.000938217 0)
(-0.0221978 0.00620928 0)
(-0.0277275 0.00594456 0)
(-0.0358277 0.00679899 0)
(-0.0358498 0.00630443 0)
(-0.0374512 0.00618442 0)
(-0.0367212 0.00576414 1.53469e-17)
(-0.036895 0.00550105 1.60317e-17)
(-0.0365026 0.00521141 0)
(-0.0367693 0.00501127 0)
(-0.0370735 0.00483634 0)
(-0.0378716 0.00470627 9.13885e-18)
(-0.0388665 0.00459017 0)
(-0.0401967 0.00448287 9.5732e-18)
(-0.0417077 0.00436822 -9.76085e-18)
(-0.0434175 0.00423734 0)
(-0.0452365 0.00408209 -1.00808e-17)
(-0.0471467 0.0038974 0)
(-0.0491004 0.00368191 -5.16366e-18)
(-0.0510846 0.00343475 1.04242e-17)
(-0.0530792 0.00315444 5.25167e-18)
(-0.0550511 0.00283005 0)
(-0.0569117 0.00245014 2.65279e-18)
(-0.0585537 0.00201023 0)
(-0.0598615 0.00151098 2.66375e-18)
(-0.0607154 0.000956693 0)
(-0.060992 0.000357407 0)
(-0.0605808 -0.000271773 0)
(-0.0593608 -0.00091438 1.3145e-18)
(-0.0572353 -0.00154608 -5.20915e-18)
(-0.0541236 -0.00213891 0)
(-0.0499559 -0.00266484 -2.53562e-18)
(-0.0446718 -0.00309333 0)
(-0.0382197 -0.00339513 -4.86509e-18)
(-0.0305386 -0.00354039 0)
(-0.0215671 -0.003497 0)
(-0.0112306 -0.00322804 0)
(0.000499331 -0.00265859 8.252e-18)
(0.013224 -0.00166793 0)
(0.0263828 -0.000321084 7.85753e-18)
(0.0403333 0.0012819 -8.14263e-18)
(0.0550366 0.00317509 0)
(0.070706 0.00540457 -8.59238e-18)
(0.0870297 0.00798961 -1.73965e-17)
(0.104503 0.0109693 8.71608e-18)
(0.122282 0.014329 1.72416e-17)
(0.141781 0.0181629 -1.68813e-17)
(0.160665 0.0223461 -1.62851e-17)
(0.183018 0.0272041 0)
(0.202128 0.0321917 -1.45774e-17)
(0.229849 0.0384963 -1.36122e-17)
(0.246602 0.0440212 -1.20695e-17)
(0.286819 0.0529992 0)
(0.29377 0.0578997 0)
(0.366709 0.0732414 -8.20851e-18)
(0.347254 0.0731769 0)
(0.526567 0.105353 5.51389e-18)
(0.664864 0.00397609 -1.5982e-19)
(0.325249 -0.0201769 2.79763e-20)
(0.102408 -0.00289747 7.87068e-18)
(0.0353776 0.000169064 9.4198e-18)
(-0.0149735 0.00650609 0)
(-0.0268533 0.0064931 -1.20073e-17)
(-0.0389961 0.007719 0)
(-0.0407379 0.00725213 0)
(-0.0435867 0.00721049 0)
(-0.043407 0.0067779 1.53694e-17)
(-0.0440098 0.00651917 -1.6051e-17)
(-0.0438432 0.00621966 0)
(-0.0443306 0.00601889 0)
(-0.0448205 0.00584335 0)
(-0.0458348 0.00571498 -9.11284e-18)
(-0.0470577 0.00559774 0)
(-0.0486413 0.00548476 -9.51237e-18)
(-0.0504153 0.00535712 9.67718e-18)
(-0.052393 0.00520431 0)
(-0.0544713 0.00501733 0)
(-0.0566238 0.0047911 5.017e-18)
(-0.058793 0.00452528 5.0536e-18)
(-0.060958 0.0042198 -1.01566e-17)
(-0.0630889 0.00387268 -5.09139e-18)
(-0.0651382 0.00346849 0)
(-0.0669967 0.00299174 2.54201e-18)
(-0.0685351 0.00243727 0)
(-0.0696182 0.00180691 -2.51636e-18)
(-0.0701097 0.00110711 1.2475e-18)
(-0.0698737 0.000351596 0)
(-0.0687887 -0.000440451 0)
(-0.0667347 -0.00124732 -2.38752e-18)
(-0.063624 -0.00203799 2.33801e-18)
(-0.059385 -0.0027791 0)
(-0.05396 -0.00343784 -2.22148e-18)
(-0.0473026 -0.00397928 0)
(-0.0393748 -0.00437136 4.16163e-18)
(-0.0301297 -0.0045824 0)
(-0.0195174 -0.00457881 0)
(-0.0074719 -0.00431868 0)
(0.00597227 -0.00369915 -6.81365e-18)
(0.0203337 -0.00259114 -6.39168e-18)
(0.0355162 -0.00106786 -6.47291e-18)
(0.0518284 0.000763359 2.88922e-21)
(0.0691845 0.00295337 -7.00622e-18)
(0.0877855 0.00555891 7.26567e-18)
(0.107301 0.0086068 1.49371e-17)
(0.128213 0.0121383 0)
(0.149658 0.0161466 -7.66975e-18)
(0.173038 0.0207158 1.52918e-17)
(0.196015 0.0257449 1.49946e-17)
(0.222673 0.0315197 0)
(0.246334 0.0375742 0)
(0.278879 0.0449724 0)
(0.30078 0.0518443 1.16786e-17)
(0.346666 0.0620833 0)
(0.359655 0.0687138 0)
(0.440202 0.0854104 8.05562e-18)
(0.428595 0.0872039 -3.51321e-18)
(0.620241 0.119069 -5.47142e-18)
(0.718765 0.0161235 -1.39602e-19)
(0.394815 -0.0186562 -4.20945e-18)
(0.152992 -0.0039514 0)
(0.0628101 -0.000565927 -9.28385e-18)
(-0.00171755 0.006452 -1.08944e-17)
(-0.0218669 0.00674235 1.14091e-21)
(-0.0389532 0.00833083 0)
(-0.0431606 0.00792198 0)
(-0.0476667 0.00798603 0)
(-0.0483669 0.00756786 -1.5379e-17)
(-0.0495903 0.00733617 0)
(-0.049794 0.00704664 0)
(-0.0505734 0.0068613 8.60069e-18)
(-0.0512867 0.00669847 0)
(-0.052511 0.00658204 0)
(-0.0539295 0.00647132 0)
(-0.0557045 0.00635791 0)
(-0.057657 0.00622053 -9.53858e-18)
(-0.0597955 0.00604749 0)
(-0.0620067 0.00582944 9.70925e-18)
(-0.0642563 0.00556186 -4.87501e-18)
(-0.0664783 0.00524592 -4.87986e-18)
(-0.0686443 0.0048827 9.74046e-18)
(-0.0707156 0.00446973 9.69187e-18)
(-0.0726325 0.00398699 0)
(-0.07427 0.0034151 -2.37814e-18)
(-0.0754853 0.00274882 0)
(-0.0761337 0.00199177 0)
(-0.0760739 0.00115306 -2.26371e-18)
(-0.0751713 0.000250056 0)
(-0.0733051 -0.000693456 0)
(-0.0703776 -0.00165063 2.09138e-18)
(-0.0663139 -0.00258529 0)
(-0.0610576 -0.00346013 0)
(-0.0545654 -0.00423929 1.88825e-18)
(-0.0468034 -0.00488544 0)
(-0.0377421 -0.00536556 -3.48878e-18)
(-0.0273401 -0.00564795 0)
(-0.0155465 -0.00569925 0)
(-0.00228585 -0.00546775 0)
(0.0122864 -0.0048296 0)
(0.0278156 -0.00365926 5.38209e-18)
(0.0445 -0.00204003 5.41681e-18)
(0.0625798 -7.02813e-05 2.79999e-21)
(0.081946 0.00231408 5.8317e-18)
(0.102795 0.0051793 6.05872e-18)
(0.124814 0.00856067 -6.2752e-18)
(0.14847 0.0125056 0)
(0.172929 0.0170172 -6.58792e-18)
(0.199539 0.0221724 6.66693e-18)
(0.226049 0.0278961 -1.32868e-17)
(0.256381 0.0344278 0)
(0.284137 0.041394 0)
(0.320754 0.0496914 -1.21243e-17)
(0.347518 0.0577553 -1.10038e-17)
(0.397864 0.0689544 1.02967e-17)
(0.417053 0.0771969 8.14423e-18)
(0.502617 0.0946243 -7.86272e-18)
(0.500022 0.0983079 3.44324e-18)
(0.696109 0.128382 0)
(0.761221 0.0280777 -1.23263e-19)
(0.457337 -0.015503 0)
(0.206523 -0.00427131 7.46016e-18)
(0.0958928 -0.00107948 9.11744e-18)
(0.0172869 0.00621721 1.17514e-21)
(-0.0126127 0.0067931 1.19659e-17)
(-0.0355984 0.00870569 0)
(-0.0430326 0.0083646 0)
(-0.0496394 0.00854842 0)
(-0.0515545 0.00816118 7.68571e-18)
(-0.053605 0.00797232 8.01649e-18)
(-0.0543248 0.0077064 0)
(-0.0554725 0.00754771 -8.56961e-18)
(-0.0564454 0.00740655 8.79307e-18)
(-0.0578735 0.00730858 0)
(-0.0594522 0.0072087 0)
(-0.0613542 0.00709712 0)
(-0.0633985 0.00695059 4.50406e-22)
(-0.0655897 0.00675665 0)
(-0.0678084 0.00650621 -1.87566e-17)
(-0.0700145 0.00619585 4.67224e-18)
(-0.0721369 0.00582876 4.63784e-18)
(-0.0741424 0.00540754 -2.33428e-22)
(-0.0759873 0.00492936 -4.51982e-18)
(-0.0776044 0.00436965 0)
(-0.078861 0.00370547 0)
(-0.0796099 0.00293206 0)
(-0.0797074 0.0020553 1.03219e-18)
(-0.0790171 0.0010871 2.00424e-18)
(-0.0774135 4.83005e-05 0)
(-0.0747916 -0.00103264 0)
(-0.0710716 -0.00212487 -1.79936e-18)
(-0.0661899 -0.00318874 -8.65257e-19)
(-0.0601008 -0.00418423 0)
(-0.0527693 -0.00507372 0)
(-0.0441661 -0.00581872 0)
(-0.034261 -0.00638618 0)
(-0.02301 -0.00674524 0)
(-0.010351 -0.00686278 0)
(0.00377949 -0.00667184 0)
(0.0191299 -0.00603653 0)
(0.0355482 -0.00484549 0)
(0.0533601 -0.00318996 -2.09264e-21)
(0.0727501 -0.00114933 4.78141e-18)
(0.0936024 0.00134947 0)
(0.116111 0.00437944 -1.02261e-17)
(0.139995 0.00798263 -5.28513e-18)
(0.165712 0.0122143 0)
(0.192496 0.0170869 5.59726e-18)
(0.221629 0.0226767 -5.71162e-18)
(0.251011 0.0289323 1.15107e-17)
(0.284347 0.0360565 -1.15118e-17)
(0.315633 0.0437623 0)
(0.355673 0.0527831 1.6109e-20)
(0.386857 0.0618625 1.01258e-17)
(0.440858 0.0738009 -1.92337e-17)
(0.465978 0.0834781 -1.97897e-20)
(0.555032 0.10124 -7.49483e-18)
(0.561323 0.106679 3.29702e-18)
(0.757311 0.134267 5.13142e-18)
(0.795366 0.0395335 4.94076e-18)
(0.51295 -0.0111275 0)
(0.260607 -0.00373702 -1.42466e-22)
(0.1334 -0.00122494 1.99393e-21)
(0.0414783 0.00596822 1.06238e-17)
(0.00103611 0.0067406 1.18711e-17)
(-0.0288081 0.008915 0)
(-0.0402606 0.0086327 1.38323e-17)
(-0.0494449 0.00893621 0)
(-0.0529204 0.00858613 -7.6754e-18)
(-0.0560203 0.00844885 -4.723e-22)
(-0.0574068 0.00821395 -8.27842e-18)
(-0.0590055 0.00808829 0)
(-0.060276 0.00797346 -1.74356e-17)
(-0.0619038 0.00789691 0)
(-0.0636085 0.00780915 0)
(-0.0655763 0.00769917 0)
(-0.0676308 0.00754213 9.05352e-18)
(-0.0697764 0.00732534 0)
(-0.0718927 0.0070405 8.94694e-18)
(-0.0739383 0.00668594 -8.83158e-18)
(-0.0758418 0.00626732 0)
(-0.0775698 0.00578908 -2.27929e-22)
(-0.0790783 0.00524806 0)
(-0.0802984 0.00461518 0)
(-0.0810964 0.00386415 -1.95499e-18)
(-0.0813276 0.00299099 0)
(-0.080855 0.00200387 -1.8253e-18)
(-0.0795507 0.000917335 -8.79385e-19)
(-0.077302 -0.000244477 -2.10987e-19)
(-0.0740202 -0.0014492 2.02322e-19)
(-0.0696338 -0.00266329 7.76084e-19)
(-0.0640855 -0.00384457 1.4886e-18)
(-0.0573349 -0.00495102 0)
(-0.0493486 -0.00594389 1.37186e-18)
(-0.0400971 -0.00678409 0)
(-0.0295447 -0.00743893 0)
(-0.0176413 -0.00787885 0)
(-0.00430921 -0.00806808 2.34445e-18)
(0.0104443 -0.00792437 0)
(0.0263848 -0.00730623 0)
(0.043513 -0.00612459 4.12888e-18)
(0.062188 -0.00447395 -4.11394e-18)
(0.0825559 -0.00241057 0)
(0.104505 0.00014457 0)
(0.128224 0.00326888 4.41193e-18)
(0.153467 0.00700858 4.5395e-18)
(0.180681 0.0114265 -4.66582e-18)
(0.209176 0.0165416 0)
(0.240177 0.0224335 0)
(0.271756 0.0290688 0)
(0.307405 0.0366279 1.28311e-20)
(0.34155 0.0448929 0)
(0.384347 0.0544678 9.72867e-18)
(0.419341 0.0643608 0)
(0.476346 0.07686 8.77754e-18)
(0.50684 0.0877462 -7.14255e-18)
(0.598479 0.105605 1.40898e-17)
(0.612862 0.112567 -3.1419e-18)
(0.806455 0.137491 -4.93599e-18)
(0.823296 0.0503299 9.89201e-20)
(0.56218 -0.00588781 -3.98964e-18)
(0.313568 -0.00234331 -7.04566e-18)
(0.174017 -0.000899013 2.25456e-21)
(0.0702006 0.00584559 -1.04329e-17)
(0.0189399 0.00669067 -1.17484e-17)
(-0.0184336 0.00902343 0)
(-0.0347401 0.00878162 -1.3793e-17)
(-0.0470117 0.00918915 0)
(-0.0524096 0.00887222 -7.65572e-18)
(-0.0567995 0.00878812 -7.97272e-18)
(-0.0590116 0.00858542 8.23667e-18)
(-0.0611534 0.00849445 -8.45409e-18)
(-0.0627648 0.00840654 8.61526e-18)
(-0.0645955 0.00835128 -8.72176e-18)
(-0.0663998 0.00827451 8.77065e-18)
(-0.0683838 0.0081644 0)
(-0.0703831 0.00799478 0)
(-0.0724078 0.00775333 0)
(-0.074343 0.00743305 4.2222e-18)
(-0.076151 0.00703453 4.12803e-18)
(-0.0777651 0.00656613 0)
(-0.0791551 0.00603419 -3.89929e-18)
(-0.0802805 0.00543512 0)
(-0.0810739 0.00473515 0)
(-0.0814039 0.00390462 1.75216e-18)
(-0.081131 0.00294041 -1.68422e-18)
(-0.0801256 0.00185272 8.08648e-19)
(-0.0782678 0.00065859 0)
(-0.0754605 -0.00061462 3.70733e-19)
(-0.0716208 -0.00193199 -3.54775e-19)
(-0.0666814 -0.00325787 0)
(-0.0605877 -0.00454797 -6.518e-19)
(-0.0533006 -0.00575854 1.25181e-18)
(-0.0447858 -0.00684995 -1.20441e-18)
(-0.0350112 -0.00778282 0)
(-0.0239344 -0.00852498 0)
(-0.011498 -0.00904832 0)
(0.00237704 -0.00930966 -2.08654e-18)
(0.0175861 -0.00921625 0)
(0.0340109 -0.00862708 0)
(0.0517233 -0.00747596 -3.74231e-18)
(0.0710721 -0.00585731 0)
(0.0921792 -0.00380413 3.74898e-18)
(0.114943 -0.00123326 -3.81378e-18)
(0.139547 0.00193554 0)
(0.165775 0.00575049 3.9821e-18)
(0.194062 0.0102809 8.15245e-18)
(0.223791 0.015549 -4.1592e-18)
(0.256133 0.0216401 0)
(0.289325 0.0285304 0)
(0.32667 0.0363912 4.34609e-18)
(0.36301 0.0450508 0)
(0.407906 0.0550255 8.53353e-18)
(0.446003 0.0655243 0)
(0.50538 0.0784279 7.85406e-18)
(0.540494 0.0902652 6.47284e-18)
(0.634082 0.108076 -6.5001e-18)
(0.655459 0.116276 0)
(0.845692 0.138661 4.61307e-18)
(0.84646 0.0604011 -5.13728e-18)
(0.605692 -7.48621e-05 -3.92926e-20)
(0.364333 -0.000159972 6.85351e-18)
(0.216488 -4.50424e-05 2.32737e-21)
(0.102672 0.00596316 3.05797e-22)
(0.0407235 0.00674883 0)
(-0.00430005 0.00908735 0)
(-0.0263522 0.00886965 0)
(-0.0422549 0.00934824 -7.27693e-18)
(-0.04996 0.0090503 1.5255e-17)
(-0.0559011 0.00901366 0)
(-0.0591111 0.00883829 8.18005e-18)
(-0.0619016 0.00877921 3.36692e-22)
(-0.0639085 0.00871524 -8.48489e-18)
(-0.0659584 0.00867872 3.60664e-22)
(-0.0678513 0.00861036 -8.5218e-18)
(-0.0698223 0.00849796 0)
(-0.071727 0.00831418 0)
(-0.0735882 0.00804762 0)
(-0.0753019 0.00769279 -3.96031e-18)
(-0.0768387 0.00725276 0)
(-0.078139 0.00673845 3.70744e-18)
(-0.0791777 0.00615801 3.57127e-18)
(-0.0799186 0.00550706 -3.43292e-18)
(-0.0802975 0.00474691 0)
(-0.0801858 0.00384447 0)
(-0.0794489 0.00279741 1.51282e-18)
(-0.0779642 0.00161782 0)
(-0.0756203 0.000325456 6.92543e-19)
(-0.0723319 -0.00104989 -1.65454e-19)
(-0.0680165 -0.00247146 1.58308e-19)
(-0.0626088 -0.00390169 -6.06743e-19)
(-0.0560551 -0.00529428 0)
(-0.0483158 -0.00660396 -1.1209e-18)
(-0.0393544 -0.00779028 0)
(-0.0291362 -0.00881384 0)
(-0.0176114 -0.0096432 2.02031e-18)
(-0.00471577 -0.0102501 0)
(0.00958568 -0.0105816 0)
(0.0251616 -0.0105398 0)
(0.0419972 -0.00999005 0)
(0.0601987 -0.008884 0)
(0.0800822 -0.00731463 0)
(0.101754 -0.00529358 -6.85429e-18)
(0.125128 -0.00273481 3.46554e-18)
(0.150381 0.000443898 3.51474e-18)
(0.177322 0.00429119 -7.14664e-18)
(0.206374 0.00888199 -3.63726e-18)
(0.236985 0.0142385 3.69499e-18)
(0.270271 0.0204533 -3.74789e-18)
(0.304624 0.0275044 0)
(0.343175 0.035564 5.44715e-21)
(0.38114 0.044484 -7.55717e-18)
(0.427564 0.0547308 -7.53537e-18)
(0.468072 0.0656471 -7.13084e-18)
(0.529226 0.0788215 -1.4014e-17)
(0.568127 0.0913485 -5.84082e-18)
(0.663122 0.109019 5.88085e-18)
(0.690299 0.118148 2.66812e-18)
(0.876893 0.138276 -4.30348e-18)
(0.865896 0.0697393 -8.28519e-20)
(0.644161 0.00608506 3.83858e-18)
(0.412281 0.00270345 7.52477e-22)
(0.259716 0.0013506 2.24874e-21)
(0.138048 0.00640689 1.00057e-17)
(0.0660598 0.00698768 1.13592e-17)
(0.0134496 0.00918583 -1.26421e-17)
(-0.0149637 0.00895034 6.83e-18)
(-0.0350748 0.0094558 6.69518e-23)
(-0.0455014 0.00915287 -7.5903e-18)
(-0.0532788 0.00915049 -7.88675e-18)
(-0.0576775 0.00899178 -8.11114e-18)
(-0.0612404 0.00895772 1.65269e-17)
(-0.0637143 0.0089117 2.86027e-22)
(-0.0660189 0.00888964 8.32747e-18)
(-0.0680111 0.00882644 0)
(-0.0699657 0.00870993 8.1067e-18)
(-0.0717657 0.00851152 0)
(-0.0734532 0.00822093 -7.68105e-18)
(-0.074939 0.00783411 -3.71027e-18)
(-0.0762044 0.00735648 -3.57162e-18)
(-0.0771977 0.00680122 -1.69537e-22)
(-0.0778993 0.00617796 -3.28675e-18)
(-0.0782772 0.00548128 3.14639e-18)
(-0.0782704 0.00466735 0)
(-0.0777531 0.00369959 -1.43905e-18)
(-0.0765957 0.00257649 0)
(-0.0746808 0.00131223 0)
(-0.0719092 -7.07492e-05 -6.28678e-19)
(-0.0681995 -0.00154098 0)
(-0.063469 -0.00306033 0)
(-0.0576528 -0.00458926 5.51955e-19)
(-0.0506976 -0.00607954 0)
(-0.0425623 -0.00748449 0)
(-0.0332083 -0.00876289 9.87942e-19)
(-0.0225981 -0.0098756 0)
(-0.0106743 -0.0107918 -1.85701e-18)
(0.00262343 -0.0114798 0)
(0.0172534 -0.0118787 1.74882e-18)
(0.0331508 -0.0118901 0)
(0.050342 -0.0113882 0)
(0.0689569 -0.0103372 0)
(0.08927 -0.00882769 0)
(0.111378 -0.0068531 3.18249e-18)
(0.135209 -0.00432531 0)
(0.160936 -0.00116053 -6.46047e-18)
(0.188392 0.00268923 3.26671e-18)
(0.217983 0.00730368 -3.30368e-18)
(0.249216 0.0127029 3.33897e-18)
(0.283159 0.018987 3.37781e-18)
(0.318333 0.0261305 0)
(0.357721 0.0343127 3.411e-18)
(0.396864 0.0433908 1.01159e-17)
(0.444361 0.053811 -6.69593e-18)
(0.48669 0.0649903 6.36725e-18)
(0.549107 0.0783281 6.26438e-18)
(0.591002 0.0913089 0)
(0.686925 0.10878 -5.32971e-18)
(0.718754 0.11854 -4.86737e-18)
(0.901747 0.136749 0)
(0.882363 0.0783669 5.32177e-18)
(0.67822 0.0124206 0)
(0.457111 0.00612306 9.13352e-22)
(0.302809 0.00326693 2.06583e-21)
(0.175484 0.00723091 -9.78068e-18)
(0.0945164 0.00746546 -2.22778e-17)
(0.0344942 0.00939656 2.4868e-17)
(-0.000423706 0.00907253 -6.75841e-18)
(-0.0253523 0.00955574 7.19954e-18)
(-0.038953 0.00921438 0)
(-0.0488798 0.00922527 1.05995e-22)
(-0.0546815 0.0090671 0)
(-0.0591631 0.00904741 -1.62983e-17)
(-0.0621973 0.00901077 8.17124e-18)
(-0.0648149 0.00899761 0)
(-0.066941 0.00893596 0)
(-0.0689009 0.00881393 -7.77593e-18)
(-0.0706121 0.00860121 0)
(-0.0721407 0.00828861 7.26405e-18)
(-0.0734152 0.00787309 3.48781e-18)
(-0.0744288 0.00736216 1.45835e-22)
(-0.0751382 0.00677077 -3.1935e-18)
(-0.0755284 0.00610981 -3.05023e-18)
(-0.0755721 0.00537263 0)
(-0.0752112 0.00451017 0)
(-0.0743231 0.00348237 1.32815e-18)
(-0.0727824 0.00228858 0)
(-0.0704768 0.000945615 6.06867e-19)
(-0.0673251 -0.000521571 -5.79368e-19)
(-0.0632386 -0.00208112 1.38539e-19)
(-0.0581367 -0.00369324 -1.32777e-19)
(-0.0519546 -0.00531645 5.10129e-19)
(-0.0446387 -0.00690067 -4.91155e-19)
(-0.0361463 -0.00839789 9.48175e-19)
(-0.0264362 -0.00976615 -9.17735e-19)
(-0.015469 -0.0109669 0)
(-0.0031789 -0.0119686 0)
(0.0104493 -0.0127334 0)
(0.0253587 -0.0131972 -3.1369e-22)
(0.0415428 -0.0132642 1.59362e-18)
(0.0590457 -0.0128163 0)
(0.0780117 -0.0118268 0)
(0.0986725 -0.0103833 0)
(0.121117 -0.00846428 0)
(0.14529 -0.00598015 0)
(0.171359 -0.00284577 1.76359e-21)
(0.199179 0.000985587 0)
(0.229143 0.00559772 6.10694e-18)
(0.260805 0.0110071 -6.14438e-18)
(0.29519 0.0173217 -3.08897e-18)
(0.330933 0.0245078 0)
(0.370885 0.0327573 0)
(0.410867 0.0419175 -6.09865e-18)
(0.459092 0.0524377 1.16499e-20)
(0.502771 0.0637598 -5.71872e-18)
(0.566042 0.0771796 5.61984e-18)
(0.610251 0.090418 4.70202e-18)
(0.706701 0.107656 -4.79109e-18)
(0.742171 0.117782 4.40697e-18)
(0.921731 0.134411 3.57693e-18)
(0.89643 0.0863212 7.19664e-20)
(0.708438 0.0188043 -3.81075e-18)
(0.498735 0.00997651 -1.27305e-17)
(0.345081 0.0056586 1.82675e-21)
(0.214187 0.00845973 9.55668e-18)
(0.125584 0.00822805 1.09093e-17)
(0.0585723 0.00977893 -6.10397e-18)
(0.0171493 0.00929307 0)
(-0.0129468 0.00968781 0)
(-0.0302204 0.00927154 7.49758e-18)
(-0.0426404 0.00926645 7.77181e-18)
(-0.0500876 0.00908734 0)
(-0.0556602 0.00906776 8.03359e-18)
(-0.0593723 0.00902948 0)
(-0.0623848 0.00901834 0)
(-0.0647019 0.00895406 0)
(-0.0667102 0.00882505 0)
(-0.0683673 0.00859847 7.19709e-18)
(-0.0697685 0.00826595 3.45041e-18)
(-0.0708616 0.00782486 -3.29817e-18)
(-0.071653 0.00728441 1.205e-22)
(-0.0721077 0.00666093 0)
(-0.0722158 0.00596638 2.8587e-18)
(-0.0719543 0.00519279 0)
(-0.0712686 0.00428585 0)
(-0.0700397 0.00320205 1.24067e-18)
(-0.0681463 0.00194183 -1.18576e-18)
(-0.0654857 0.000525424 -5.66522e-19)
(-0.0619874 -0.00102086 5.41203e-19)
(-0.0575576 -0.00266533 -2.59028e-19)
(-0.0521169 -0.00436621 2.485e-19)
(-0.0456003 -0.00608017 -4.77934e-19)
(-0.0379534 -0.00775535 4.60736e-19)
(-0.0291318 -0.00934249 -1.14403e-22)
(-0.0190919 -0.0107989 -8.63103e-19)
(-0.00779243 -0.0120865 0)
(0.00482734 -0.0131708 0)
(0.0187237 -0.0140079 0)
(0.0338879 -0.0145353 -3.09545e-18)
(0.0503306 -0.0146598 -1.51124e-18)
(0.0681081 -0.01427 0)
(0.0873726 -0.0133461 0)
(0.108316 -0.0119719 -2.85747e-18)
(0.131019 -0.0101138 0)
(0.155444 -0.00768168 0)
(0.181753 -0.00458904 5.68311e-18)
(0.209822 -0.000790772 -2.84823e-18)
(0.240031 0.00380052 -5.71852e-18)
(0.271975 0.00919666 2.55072e-21)
(0.306641 0.0155134 5.74133e-18)
(0.342762 0.0227062 2.85871e-18)
(0.383073 0.0309821 0)
(0.423638 0.0401684 2.8001e-18)
(0.472331 0.0507344 5.53093e-18)
(0.516997 0.0621085 5.22252e-18)
(0.58081 0.0755505 -5.12166e-18)
(0.626785 0.0888914 -4.2816e-18)
(0.723446 0.105881 4.36537e-18)
(0.761721 0.116155 -2.00577e-18)
(0.938061 0.131517 -3.28228e-18)
(0.90853 0.0936462 6.78261e-20)
(0.73531 0.0251435 3.74984e-18)
(0.537199 0.0141516 -1.33999e-21)
(0.386033 0.00846562 1.57385e-21)
(0.253455 0.0100926 0)
(0.158709 0.00930509 0)
(0.0853588 0.0103792 3.62496e-22)
(0.037501 0.00966729 0)
(0.00227286 0.00988918 0)
(-0.0191907 0.0093627 2.5258e-22)
(-0.0344814 0.00930414 0)
(-0.0438485 0.00907727 0)
(-0.0507122 0.00903975 7.92518e-18)
(-0.0552452 0.00898622 0)
(-0.0587569 0.00896856 0)
(-0.0613416 0.00889643 0)
(-0.0634579 0.00875831 0)
(-0.0651095 0.00851776 -1.58224e-22)
(-0.066425 0.0081668 -3.29817e-18)
(-0.0673739 0.00770254 6.28284e-18)
(-0.0679773 0.00713548 9.49187e-23)
(-0.0682089 0.00648291 2.84264e-18)
(-0.0680642 0.00575779 0)
(-0.0675251 0.0049508 2.57553e-18)
(-0.066541 0.00400233 0)
(-0.0649966 0.00286554 -1.17176e-18)
(-0.0627753 0.00154253 7.38735e-23)
(-0.0597901 5.71072e-05 0)
(-0.0559717 -0.0015641 0)
(-0.0512249 -0.00328987 1.11155e-23)
(-0.0454709 -0.00507623 -1.15491e-23)
(-0.0386437 -0.00687807 2.26301e-19)
(-0.0306886 -0.00864181 0)
(-0.0215592 -0.010317 -8.45379e-19)
(-0.0112091 -0.0118602 8.20303e-19)
(0.000403933 -0.0132329 0)
(0.0132941 -0.0143949 -1.55149e-18)
(0.0274327 -0.0153016 0)
(0.042831 -0.0158918 2.34363e-22)
(0.0595079 -0.0160751 0)
(0.0775281 -0.0157462 1.41494e-18)
(0.097046 -0.0148902 1.38894e-18)
(0.118218 -0.0135863 8.33815e-22)
(0.141119 -0.0117919 -2.72028e-18)
(0.165723 -0.00941705 0)
(0.192192 -0.00637383 -1.4251e-21)
(0.220418 -0.00261898 2.70734e-18)
(0.250771 0.0019381 1.9824e-21)
(0.282882 0.00730391 2.70506e-18)
(0.317705 0.0136021 -2.6955e-21)
(0.354057 0.0207747 -3.11343e-21)
(0.394571 0.0290469 0)
(0.435522 0.0382178 0)
(0.484489 0.0487892 0)
(0.529863 0.0601471 0)
(0.593979 0.0735676 0)
(0.641294 0.0868918 3.90736e-18)
(0.737925 0.103631 0)
(0.778346 0.11388 0)
(0.951684 0.128247 -2.98961e-18)
(0.918999 0.100388 -2.77055e-18)
(0.759266 0.0313717 0)
(0.572631 0.0185503 -1.6454e-21)
(0.425326 0.0116213 1.34046e-21)
(0.292693 0.0121091 0)
(0.193332 0.01071 5.2222e-18)
(0.114474 0.0112343 -5.86496e-18)
(0.0604678 0.0102321 0)
(0.020161 0.0102051 0)
(-0.00573211 0.00952435 -7.38186e-18)
(-0.0243041 0.0093702 0)
(-0.0359001 0.00906319 0)
(-0.044283 0.00898547 -7.82973e-18)
(-0.0498054 0.00890016 0)
(-0.0539419 0.00886529 -7.54738e-18)
(-0.0568885 0.00877849 0)
(-0.0591861 0.00862789 0)
(-0.0608909 0.00837223 -9.34865e-23)
(-0.0621697 0.00800333 0)
(-0.0630164 0.00751728 -3.01386e-18)
(-0.0634685 0.00692552 2.86101e-18)
(-0.0635095 0.00624586 -5.43317e-18)
(-0.0631411 0.00549217 2.5816e-18)
(-0.0623508 0.00465377 -2.4564e-18)
(-0.0610921 0.00366582 0)
(-0.0592544 0.00247816 -1.11696e-18)
(-0.0567255 0.00109556 2.13531e-18)
(-0.0534431 -0.000454886 0)
(-0.0493265 -0.00214773 -2.43708e-19)
(-0.0442844 -0.00395175 1.16827e-19)
(-0.0382376 -0.00582089 -1.12263e-19)
(-0.0311194 -0.00770826 -2.16288e-19)
(-0.0228745 -0.00955861 0)
(-0.0134545 -0.0113205 -8.09247e-19)
(-0.00280994 -0.0129492 7.85649e-19)
(0.00907835 -0.0144031 0)
(0.0222027 -0.0156391 1.48702e-18)
(0.0365657 -0.0166135 0)
(0.0521797 -0.0172661 1.41925e-18)
(0.0690691 -0.0175087 0)
(0.0873032 -0.0172421 -1.36424e-18)
(0.107035 -0.0164549 -1.341e-18)
(0.12839 -0.015221 7.61209e-22)
(0.151438 -0.0134914 2.62384e-18)
(0.176163 -0.0111768 0)
(0.202727 -0.00818799 -2.60095e-18)
(0.231037 -0.00448374 0)
(0.261453 2.94582e-05 2.5882e-18)
(0.29364 0.00535236 0)
(0.32852 0.0116163 -2.56557e-18)
(0.364988 0.0187489 -5.07461e-18)
(0.405582 0.0269944 0)
(0.446767 0.0361185 0)
(0.495857 0.0466647 0)
(0.541723 0.0579551 2.24076e-18)
(0.605964 0.0713217 0)
(0.654284 0.0845385 -1.28745e-20)
(0.750707 0.101033 0)
(0.792761 0.111124 1.66396e-18)
(0.963303 0.12473 2.77206e-18)
(0.928104 0.106591 0)
(0.780675 0.0374422 3.77611e-18)
(0.605203 0.0230894 6.01413e-18)
(0.462744 0.0150581 1.15022e-21)
(0.331418 0.014475 0)
(0.228915 0.0124411 -5.10728e-18)
(0.1455 0.0123681 0)
(0.0858246 0.0110163 6.31749e-18)
(0.0405309 0.0106769 6.84588e-18)
(0.0101969 0.00979349 7.29614e-18)
(-0.011989 0.00949551 7.60392e-18)
(-0.0261591 0.00907298 7.74229e-18)
(-0.0363177 0.00892801 0)
(-0.0430234 0.00879102 0)
(-0.0479308 0.00872558 7.41428e-18)
(-0.0513498 0.00861526 0)
(-0.0539144 0.00844719 0)
(-0.05574 0.00817388 -6.47717e-18)
(-0.0570372 0.00778632 0)
(-0.0578276 0.00727881 -2.91108e-18)
(-0.0581675 0.0066632 0)
(-0.0580517 0.00595748 2.61555e-18)
(-0.0574892 0.00517629 -2.48313e-18)
(-0.0564734 0.00430761 0)
(-0.0549626 0.00328138 0)
(-0.0528517 0.0020443 4.64216e-23)
(-0.0500368 0.000605138 -1.02531e-18)
(-0.0464788 -0.00100691 0)
(-0.0420831 -0.00276883 2.34217e-19)
(-0.0367642 -0.00464851 1.12326e-19)
(-0.0304422 -0.00659817 -1.08005e-19)
(-0.0230495 -0.00856913 0)