/*--------------------------------*- C++ -*----------------------------------*\
| =========                 |                                                 |
| \\      /  F ield         | OpenFOAM: The Open Source CFD Toolbox           |
|  \\    /   O peration     | Version:  2.4.0                                 |
|   \\  /    A nd           | Web:      www.OpenFOAM.org                      |
|    \\/     M anipulation  |                                                 |
\*---------------------------------------------------------------------------*/
FoamFile
{
    version     2.0;
    format      ascii;
    class       volVectorField;
    location    "0.3";
    object      U_0;
}
// * * * * * * * * * * * * * * * * * * * * * * * * * * * * * * * * * * * * * //

dimensions      [0 1 -1 0 0 0 0];

internalField   nonuniform List<vector> 
2320
(
(1.38554 -0.00362619 0)
(0.537744 0.038107 0)
(1.26927 -0.0309093 0)
(0.696027 0.0324413 0)
(1.23263 -0.00160196 0)
(0.57541 -0.0339197 0)
(1.42458 0.0918422 0)
(0.283671 -0.102451 0)
(1.47465 0.0332624 0)
(0.3464 0.0895283 0)
(1.38023 -0.200059 0)
(0.311115 0.213145 0)
(1.54659 -0.00110753 0)
(0.312151 -0.108384 0)
(1.42446 0.202892 0)
(0.652855 0.020081 0)
(1.42437 -0.189183 0)
(1.00813 0.318943 0)
(0.637195 -0.00602044 0)
(1.52633 -0.488118 0)
(1.00264 0.0517348 0)
(1.00168 -0.00824426 0)
(0.907969 -0.0116657 0)
(1.10068 -0.0503575 0)
(0.965469 0.0890696 0)
(1.00762 -0.0928816 0)
(1.04015 0.0570974 0)
(1.19677 0.078028 0)
(0.69084 -0.0471001 0)
(1.38764 -0.0747158 0)
(0.975379 0.254553 0)
(0.629045 -0.350911 0)
(1.66442 0.0384476 0)
(0.639438 0.135521 0)
(1.0268 -0.332313 0)
(1.33717 -0.0797846 0)
(0.847656 0.0673064 0)
(1.28268 0.0354938 0)
(1.02706 -0.220744 0)
(1.49876 -0.0661685 0)
(1.19776 0.0140475 0)
(0.786576 0.0506933 0)
(1.04826 -0.0436068 0)
(0.866893 -0.0262227 0)
(1.06763 0.0877202 0)
(0.714141 -0.101386 0)
(1.21536 0.0421748 0)
(0.647653 0.0536 0)
(1.18644 -0.0671111 0)
(0.77597 -0.043067 0)
(1.06333 0.16873 0)
(0.946298 -0.168789 0)
(0.830182 0.0551964 0)
(1.40813 0.125688 0)
(0.52113 -0.0968046 0)
(1.52007 0.0683291 0)
(0.620568 -0.126532 0)
(1.66513 0.153683 0)
(0.565317 0.00849433 0)
(1.6657 -0.506459 0)
(1.07617 0.0649182 0)
(0.950043 0.039073 0)
(0.988128 -0.0204493 0)
(0.904276 -0.0933779 0)
(1.17589 0.175953 0)
(0.714455 -0.17589 0)
(1.25811 0.0809277 0)
(0.796848 0.100049 0)
(1.11232 -0.0864089 0)
(0.875478 -0.0481182 0)
(1.07262 0.236165 0)
(0.91223 -0.239361 0)
(1.00664 -0.154393 0)
(0.907203 0.278936 0)
(1.32224 -0.318506 0)
(0.971828 -0.175384 0)
(1.37071 0.0575691 0)
(0.660081 0.0244368 0)
(1.86709 -0.23534 0)
(0.985619 -0.32027 0)
(1.03161 0.0238331 0)
(1.05335 0.0585387 0)
(0.870358 0.0236859 0)
(0.959662 -0.163482 0)
(1.16865 0.225621 0)
(0.663033 -0.191342 0)
(1.30317 0.0389058 0)
(0.844494 0.127977 0)
(1.06183 -0.107 0)
(0.901724 -0.0430139 0)
(1.12233 0.174321 0)
(0.732938 -0.174399 0)
(1.16779 0.105241 0)
(0.486825 -0.0844508 0)
(1.41652 -0.098312 0)
(0.741508 -0.00562889 0)
(0.966219 0.0372891 0)
(1.38969 -0.113092 0)
(0.872979 -0.0469321 0)
(1.25767 -0.266245 0)
(1.04611 0.0278241 0)
(1.04375 0.0895121 0)
(0.941747 0.0540078 0)
(0.921435 -0.267866 0)
(1.16487 0.31857 0)
(0.863174 -0.233167 0)
(1.10703 -0.0376939 0)
(1.11844 0.224895 0)
(0.945556 -0.111972 0)
(0.958664 -0.117782 0)
(1.2832 0.320708 0)
(0.74247 -0.33918 0)
(1.53503 -0.0358223 0)
(0.76018 0.160135 0)
(1.43253 -0.433575 0)
(0.782044 0.010523 0)
(1.33286 -0.187991 0)
(1.16933 -0.00241888 0)
(1.33601 -0.170149 0)
(1.14892 -0.515355 0)
(0.972764 -0.00227728 0)
(1.1336 0.0781072 0)
(0.93944 0.129152 0)
(0.956708 -0.328909 0)
(1.09831 0.312548 0)
(1.00099 -0.153746 0)
(0.913102 -0.0944151 0)
(1.2385 0.203703 0)
(0.947824 -0.00269604 0)
(1.14163 -0.231074 0)
(0.952066 0.360483 0)
(1.35427 -0.285 0)
(0.683603 0.136886 0)
(1.59412 -0.0742758 0)
(0.636631 -0.0772092 0)
(1.40695 0.041038 0)
(0.917786 -0.171217 0)
(1.07192 -0.108376 0)
(1.76973 -0.0220216 0)
(0.495939 -0.181514 0)
(1.07056 -0.0198908 0)
(0.978595 0.091524 0)
(1.09951 0.151993 0)
(0.90509 -0.366504 0)
(1.09521 0.287679 0)
(1.06943 -0.13472 0)
(1.03457 -0.20608 0)
(1.01027 0.261688 0)
(1.24587 -0.0900769 0)
(0.828673 -0.140141 0)
(1.30176 0.220857 0)
(1.00373 -0.184981 0)
(0.981745 -0.145983 0)
(1.29605 0.1729 0)
(0.752145 -0.360946 0)
(1.52343 -0.133415 0)
(0.807032 0.0209038 0)
(1.43402 -0.425772 0)
(0.910855 0.0707766 0)
(1.56924 -0.566794 0)
(1.05251 -0.013413 0)
(0.959033 0.0359551 0)
(1.11417 0.19585 0)
(1.04312 -0.335109 0)
(0.869536 0.281069 0)
(1.33163 -0.101219 0)
(0.673015 -0.0859991 0)
(1.3323 0.110863 0)
(0.847365 0.088985 0)
(1.23218 -0.276622 0)
(0.921964 0.275615 0)
(1.45295 -0.173623 0)
(0.786172 -0.0418228 0)
(1.42176 0.0463558 0)
(1.0962 -0.197375 0)
(0.946042 0.0449797 0)
(1.69391 -0.200691 0)
(0.89301 -0.095506 0)
(1.33923 -0.115837 0)
(1.25501 -0.422117 0)
(1.09406 -0.0299241 0)
(0.841571 0.0689539 0)
(1.19901 0.102713 0)
(0.964659 -0.232468 0)
(0.941795 0.136121 0)
(1.1652 -0.0234058 0)
(0.871209 -0.244292 0)
(1.10765 0.225517 0)
(0.97472 -0.0856476 0)
(1.18492 -0.119244 0)
(0.808268 0.0967958 0)
(1.34382 -0.0444539 0)
(0.57508 -0.154169 0)
(1.52738 0.0828068 0)
(0.269633 -0.169043 0)
(1.54578 -0.374587 0)
(0.9445 0.0190279 0)
(1.12242 -0.167398 0)
(1.19061 -0.181317 0)
(0.789183 -0.371646 0)
(1.06618 0.0206562 0)
(0.878958 -0.020587 0)
(1.13661 0.135299 0)
(1.09007 -0.226586 0)
(0.823967 0.179777 0)
(1.34886 -0.0851703 0)
(0.639889 -0.0588338 0)
(1.31561 0.0622433 0)
(0.732521 0.0255015 0)
(1.33638 -0.184945 0)
(0.669422 0.172471 0)
(1.35187 -0.107801 0)
(0.596597 -0.103609 0)
(1.38607 0.134363 0)
(0.484518 -0.194956 0)
(1.56491 -0.296941 0)
(0.626972 -0.0537597 0)
(1.49689 -0.214284 0)
(0.706515 -0.0416994 0)
(1.41777 -0.437087 0)
(0.98425 -0.0128955 0)
(0.946799 0.0541129 0)
(1.10364 -0.0216399 0)
(0.994976 -0.0370972 0)
(0.869939 -0.0256892 0)
(1.137 0.10245 0)
(0.712229 -0.267963 0)
(1.15868 0.235795 0)
(0.987001 -0.141309 0)
(1.09435 -0.0289962 0)
(0.882984 0.0466407 0)
(1.29765 0.0642935 0)
(0.661758 -0.236613 0)
(1.56112 0.229073 0)
(0.604611 -0.293619 0)
(1.79631 -0.338438 0)
(0.705654 0.00145357 0)
(1.68555 -0.06168 0)
(0.674618 -0.176057 0)
(1.50751 -0.303191 0)
(1.24614 0.0530242 0)
(0.659945 -0.0717001 0)
(1.3241 0.098143 0)
(0.762324 -0.125303 0)
(1.11672 0.115858 0)
(0.854234 -0.0396514 0)
(1.06402 -0.0260334 0)
(0.725427 -0.0863863 0)
(1.21639 0.0406435 0)
(0.732995 -0.140783 0)
(1.18133 0.0749222 0)
(0.717159 -0.0134786 0)
(1.31877 -0.243361 0)
(0.903789 0.136791 0)
(1.36555 -0.339883 0)
(1.06881 -0.456096 0)
(1.15697 0.00404443 0)
(1.57471 -0.236798 0)
(0.736352 -0.0065385 0)
(1.3959 -0.471299 0)
(1.32296 0.0163791 0)
(0.714254 0.0406611 0)
(1.26673 -0.0878398 0)
(0.897167 0.0984767 0)
(0.993353 -0.0886461 0)
(1.0567 0.166473 0)
(0.842126 -0.234199 0)
(1.05393 0.197182 0)
(0.838257 -0.193321 0)
(1.01464 0.0439768 0)
(0.900418 0.00749613 0)
(0.884684 0.034911 0)
(0.960641 -0.32929 0)
(0.869714 0.302397 0)
(1.10035 -0.415912 0)
(0.658449 -0.140203 0)
(1.24181 -0.303782 0)
(1.01084 0.317713 0)
(0.645496 -0.238813 0)
(0.972047 0.414061 0)
(1.35564 0.040131 0)
(0.729344 -0.0483036 0)
(1.29858 0.0169027 0)
(0.905407 -0.0154224 0)
(1.13586 0.0555072 0)
(1.02083 -0.0156496 0)
(1.03381 0.0129335 0)
(0.997106 -0.131563 0)
(1.15852 0.112551 0)
(0.768639 -0.223277 0)
(1.2731 0.19982 0)
(0.87744 -0.112143 0)
(1.03619 -0.204788 0)
(1.13705 -0.0352633 0)
(1.14679 -0.142444 0)
(0.995656 -0.606296 0)
(1.32858 -0.120394 0)
(1.37418 -0.00349766 0)
(0.998899 0.0178752 0)
(1.30157 -0.135918 0)
(1.21187 -0.0347748 0)
(0.794251 0.0872878 0)
(1.05284 -0.201717 0)
(0.92282 0.215126 0)
(1.07314 -0.172946 0)
(0.963288 0.263384 0)
(1.01795 -0.251006 0)
(0.94437 0.170705 0)
(1.07079 -0.111515 0)
(0.761036 0.0155495 0)
(1.17615 -0.0737612 0)
(0.893327 0.186611 0)
(0.945547 -0.488982 0)
(0.969436 0.302903 0)
(0.803929 -0.437952 0)
(0.952434 -0.193489 0)
(1.16419 -0.607143 0)
(1.13337 0.689264 0)
(0.861514 -0.337662 0)
(1.22189 0.992146 0)
(1.04538 0.047444 0)
(1.02773 0.00383888 0)
(0.917602 -0.0134221 0)
(0.974373 -0.0634122 0)
(0.904706 0.0769566 0)
(1.06318 -0.0482879 0)
(0.855661 0.0765536 0)
(1.02924 -0.202767 0)
(0.82547 0.244219 0)
(1.0807 -0.337464 0)
(0.695189 0.20741 0)
(1.34711 -0.0870009 0)
(0.471017 -0.128186 0)
(1.17395 -0.0501738 0)
(0.871888 -0.0599046 0)
(1.03219 -0.87858 0)
(1.53103 0.0261532 0)
(1.03748 -0.0126647 0)
(1.81088 -0.131536 0)
(0.91401 -0.0498285 0)
(0.797536 -0.0741458 0)
(1.24231 0.161376 0)
(0.752592 -0.187017 0)
(1.21412 0.238353 0)
(0.707608 -0.243157 0)
(1.24895 0.31178 0)
(0.816962 -0.253921 0)
(1.15367 0.185001 0)
(0.781806 -0.126025 0)
(1.29652 0.0951379 0)
(0.387886 -0.197224 0)
(1.59328 0.300656 0)
(0.248809 -0.450584 0)
(1.4156 0.143137 0)
(0.976027 -0.322257 0)
(1.42231 -0.724959 0)
(1.26023 -0.630538 0)
(1.12527 0.623886 0)
(0.749422 -0.198735 0)
(1.04438 1.65076 0)
(0.736917 0.0379527 0)
(1.28092 -0.00225823 0)
(0.765273 0.0289427 0)
(1.21284 -0.0776162 0)
(0.894193 0.102299 0)
(1.06226 -0.137074 0)
(1.1417 0.178793 0)
(0.913117 -0.228812 0)
(1.10262 0.206019 0)
(1.08415 -0.190398 0)
(0.86588 0.0786576 0)
(1.09703 -0.0574668 0)
(1.26014 0.0136743 0)
(0.465375 -0.379982 0)
(1.56375 -0.149123 0)
(0.853552 -0.892358 0)
(-0.100462 0.365868 0)
(0.749949 -0.0922173 0)
(0.419519 -0.268464 0)
(-0.158715 0.153983 0)
(0.675855 -0.0807324 0)
(1.25611 0.143186 0)
(0.917294 -0.135833 0)
(1.07213 0.173261 0)
(1.05604 -0.161834 0)
(0.997362 0.171422 0)
(1.06886 -0.167116 0)
(1.08709 0.177974 0)
(0.904943 -0.187441 0)
(1.18617 0.206677 0)
(0.883932 -0.214911 0)
(0.919849 0.191866 0)
(1.15456 -0.225362 0)
(0.444801 0.107434 0)
(0.661334 -0.598202 0)
(-1.19027 0.0677197 0)
(-1.31544 -0.398074 0)
(-0.832511 0.418449 0)
(-1.26774 0.499429 0)
(-0.0789298 1.32021 0)
(1.6542 0.315175 0)
(1.29221 0.126699 0)
(0.554363 -0.543578 0)
(2.02807 0.139836 0)
(0.993061 -0.104163 0)
(3.05403 -0.141782 0)
(1.4666 0.0392307 0)
(3.50233 -0.36233 0)
(0.860863 -0.160224 0)
(2.40827 0.300043 0)
(0.734659 0.257815 0)
(1.65262 -0.490088 0)
(2.30669 -0.308929 0)
(1.9466 -0.137751 0)
(2.78553 -0.205502 0)
(2.5699 -0.298612 0)
(1.11196 -0.102897 0)
(1.70713 0.263657 0)
(1.45107 -0.0870523 0)
(2.32875 -0.639348 0)
(1.56104 -0.296313 0)
(1.84609 -0.51367 0)
(2.49412 -0.143774 0)
(2.17982 -0.286178 0)
(1.13744 -0.145402 0)
(1.28327 0.0781555 0)
(1.8542 -0.00872535 0)
(1.81317 -0.561896 0)
(1.32657 0.0368297 0)
(2.49058 -0.610899 0)
(1.94167 -0.423072 0)
(2.59708 -0.693493 0)
(1.31746 -0.156173 0)
(0.848324 -0.149524 0)
(2.26188 -0.380697 0)
(1.28098 -0.378125 0)
(2.033 -0.65425 0)
(2.7599 -0.690292 0)
(1.64039 -0.134803 0)
(2.96688 -0.829889 0)
(1.03861 0.0548586 0)
(1.66837 -0.512592 0)
(1.41229 -0.0873901 0)
(1.55062 -0.632509 0)
(2.52507 -0.759682 0)
(1.45031 -0.390599 0)
(2.44449 -0.673168 0)
(2.8674 -0.9485 0)
(1.97437 -0.321071 0)
(0.646908 -0.318176 0)
(1.68568 -0.276435 0)
(2.00358 -0.838524 0)
(1.26343 -0.565935 0)
(1.81675 -0.601861 0)
(2.8123 -0.831364 0)
(2.005 -0.78907 0)
(1.53868 -0.124078 0)
(1.02554 -0.467003 0)
(1.9584 -0.712565 0)
(1.17066 -0.545657 0)
(1.59469 -0.668671 0)
(2.28918 -1.03593 0)
(2.29224 -0.91283 0)
(2.99734 -1.20033 0)
(1.06029 9.18441e-05 0)
(1.90884 -0.552202 0)
(1.23985 -0.349462 0)
(1.40354 -0.666687 0)
(2.14547 -1.07923 0)
(2.29952 -1.02211 0)
(2.72576 -1.18924 0)
(3.31049 -1.63952 0)
(1.22522 -0.445267 0)
(1.3004 -0.520928 0)
(1.19723 -0.368072 0)
(1.79854 -1.0564 0)
(2.41569 -1.13305 0)
(2.33817 -1.27428 0)
(3.21039 -1.49593 0)
(2.81671 -1.46875 0)
(0.90149 -0.395239 0)
(1.41661 -0.552063 0)
(0.904839 -0.602288 0)
(2.2254 -1.30929 0)
(2.24892 -1.28211 0)
(2.46039 -1.4492 0)
(2.75593 -1.4444 0)
(2.67397 -1.52931 0)
(0.621045 -0.438732 0)
(1.04766 -0.353423 0)
(1.39757 -0.870854 0)
(2.16544 -1.58414 0)
(2.18036 -1.28246 0)
(2.48653 -1.66056 0)
(3.00201 -1.64359 0)
(2.41247 -1.51685 0)
(-0.31627 -0.335275 0)
(1.38307 -0.866769 0)
(1.72806 -1.39018 0)
(2.15654 -1.58231 0)
(2.2555 -1.40598 0)
(2.63353 -1.83108 0)
(2.47027 -1.34465 0)
(2.02762 -1.37728 0)
(-0.137654 -0.469439 0)
(1.82751 -1.33621 0)
(1.6392 -1.44734 0)
(2.11742 -1.6865 0)
(2.16109 -1.61553 0)
(2.11304 -1.83046 0)
(1.92954 -1.20364 0)
(2.29209 -1.86353 0)
(0.493484 -0.903227 0)
(1.84376 -1.49288 0)
(1.75115 -1.74516 0)
(2.10146 -1.65812 0)
(2.04416 -1.51882 0)
(2.04763 -1.6842 0)
(2.20174 -1.35326 0)
(2.24691 -1.97349 0)
(0.481622 -0.788552 0)
(2.0028 -1.74464 0)
(1.70984 -1.70067 0)
(1.86247 -1.67937 0)
(1.82041 -1.70161 0)
(1.94032 -1.76217 0)
(1.79895 -1.36369 0)
(2.01273 -2.07707 0)
(0.893651 -1.59985 0)
(1.82092 -1.90659 0)
(1.56253 -1.91141 0)
(1.87043 -1.65161 0)
(1.76399 -1.62055 0)
(1.63272 -1.58272 0)
(1.89016 -1.53101 0)
(2.0041 -2.13005 0)
(0.997937 -1.28612 0)
(1.90541 -1.75373 0)
(1.38377 -1.75843 0)
(1.64898 -1.64859 0)
(1.53217 -1.68843 0)
(1.72673 -1.7729 0)
(1.76922 -1.6125 0)
(1.61756 -1.96518 0)
(1.17268 -2.62497 0)
(1.54559 -2.07079 0)
(1.23716 -1.99518 0)
(1.70824 -1.7601 0)
(1.43701 -1.7398 0)
(1.3702 -1.5978 0)
(1.63359 -1.61871 0)
(1.61639 -2.01876 0)
(1.10433 -2.20169 0)
(1.51034 -1.63732 0)
(1.29931 -1.76253 0)
(1.43412 -1.60973 0)
(1.19948 -1.60507 0)
(1.5659 -1.79144 0)
(1.48837 -1.76047 0)
(1.14094 -1.78024 0)
(2.73171 0.22892 0)
(2.63033 -0.315501 0)
(4.09336 -0.191358 0)
(2.96467 0.167837 0)
(3.99299 -0.559319 0)
(4.56982 0.159352 0)
(3.70579 -0.314512 0)
(5.51595 -0.102532 0)
(3.97634 -0.0699431 0)
(5.45605 -0.265269 0)
(4.45471 0.113012 0)
(5.10891 -0.299794 0)
(4.87492 0.107992 0)
(4.83244 -0.0426277 0)
(4.84745 -0.16486 0)
(4.79461 0.316661 0)
(4.08625 -0.334345 0)
(4.64097 0.352043 0)
(3.68987 -0.243785 0)
(4.21204 0.0928839 0)
(3.28836 0.0454135 0)
(4.45873 -0.193434 0)
(2.37684 0.0402578 0)
(4.97088 -0.0929384 0)
(2.24805 0.133183 0)
(3.08447 -0.526173 0)
(4.5806 -0.116316 0)
(2.18474 0.26448 0)
(2.36576 0.18264 0)
(3.84323 -0.306569 0)
(2.82177 -0.14132 0)
(4.11347 -0.00188779 0)
(3.84837 -0.331322 0)
(4.05771 -0.032745 0)
(4.84287 -0.111673 0)
(4.48231 -0.127979 0)
(5.14392 0.165708 0)
(4.61027 -0.0131892 0)
(5.14599 0.0559174 0)
(4.92741 0.10362 0)
(4.70315 -0.0210299 0)
(5.06334 0.106483 0)
(4.40919 0.164751 0)
(4.82784 0.0428687 0)
(4.03807 0.412696 0)
(4.46335 -0.153008 0)
(4.09021 0.438434 0)
(3.80132 0.0593245 0)
(3.71788 -0.102377 0)
(3.96427 0.521727 0)
(3.28604 -0.178072 0)
(3.81836 0.0712846 0)
(2.90123 0.708146 0)
(3.92225 -0.355629 0)
(2.05024 0.114288 0)
(3.68437 -0.061191 0)
(3.22403 -0.286581 0)
(2.87811 -0.467712 0)
(4.00729 -0.367882 0)
(2.94045 -0.198793 0)
(4.77007 -0.638247 0)
(3.54817 -0.236516 0)
(5.14017 -0.430093 0)
(4.56552 -0.326353 0)
(5.04872 -0.00734756 0)
(5.18279 -0.313866 0)
(4.91527 0.00295813 0)
(5.47833 -0.0353265 0)
(4.90692 0.0200034 0)
(5.05471 0.183424 0)
(4.77678 -0.0569087 0)
(4.60735 0.514839 0)
(4.48963 -0.0824976 0)
(4.36033 0.248325 0)
(4.142 0.220715 0)
(4.21685 0.164288 0)
(3.6836 0.0835433 0)
(3.80734 -0.0430309 0)
(3.81893 0.214461 0)
(3.46378 0.0484024 0)
(3.14135 0.180367 0)
(3.81954 -0.0439948 0)
(2.88405 0.0658564 0)
(3.10935 -0.179648 0)
(2.89893 -0.250218 0)
(2.83046 -0.650837 0)
(4.17047 -0.362819 0)
(3.09818 -0.296557 0)
(5.11643 -0.691836 0)
(3.81267 -0.358323 0)
(5.42778 -0.561296 0)
(4.70911 -0.238818 0)
(5.26475 -0.105066 0)
(5.1782 -0.0232841 0)
(4.98334 -0.0814706 0)
(5.37992 0.0702587 0)
(5.00197 0.228038 0)
(5.13447 0.128837 0)
(4.79435 0.400108 0)
(4.78787 0.164254 0)
(4.74223 0.491983 0)
(4.35507 0.0861143 0)
(4.56374 0.371914 0)
(4.2008 0.342671 0)
(4.38379 0.0770123 0)
(3.55897 0.408778 0)
(3.9834 0.0492493 0)
(3.62867 0.317993 0)
(3.60351 0.424661 0)
(3.0609 -0.117805 0)
(3.34894 0.133229 0)
(2.92105 -0.0603059 0)
(2.35975 -0.397302 0)
(3.50728 -1.00463 0)
(3.42778 -0.62475 0)
(3.8697 -0.533849 0)
(4.70852 -0.982754 0)
(4.23364 -0.43548 0)
(5.33225 -0.696012 0)
(4.6786 -0.304491 0)
(5.58703 -0.117734 0)
(5.01945 -0.171561 0)
(5.66868 -0.070806 0)
(5.2379 0.0300699 0)
(5.33911 0.0934979 0)
(5.11725 0.339093 0)
(5.00085 0.170861 0)
(4.91475 0.438364 0)
(4.82632 0.275359 0)
(4.62397 0.198946 0)
(4.53175 0.417644 0)
(4.14567 0.178435 0)
(4.30036 0.420696 0)
(3.93908 0.190869 0)
(4.26901 0.146177 0)
(3.45075 0.276898 0)
(4.211 0.432912 0)
(2.93176 0.187225 0)
(3.77776 0.110669 0)
(2.85582 -0.159976 0)
(2.29563 -0.506026 0)
(3.91331 -0.996251 0)
(3.00021 -0.816042 0)
(4.63089 -0.772873 0)
(4.49169 -1.02432 0)
(4.86307 -0.639995 0)
(5.34732 -0.813268 0)
(5.14588 -0.438351 0)
(5.49618 -0.26829 0)
(5.61521 -0.189208 0)
(5.53181 -0.11156 0)
(5.6768 0.125186 0)
(5.24551 0.367537 0)
(5.46705 0.258866 0)
(5.09864 0.481722 0)
(5.02899 0.314426 0)
(4.90451 0.56201 0)
(4.82727 0.31168 0)
(4.15741 0.558 0)
(4.64324 0.399614 0)
(3.79066 0.28955 0)
(4.46947 0.314646 0)
(3.75506 0.366751 0)
(3.44708 0.286081 0)
(3.69485 0.632463 0)
(3.73359 0.224132 0)
(3.61203 0.0480224 0)
(3.5547 0.224558 0)
(3.38561 -0.979317 0)
(3.75566 -1.20826 0)
(3.95681 -1.10076 0)
(4.5131 -1.19516 0)
(4.54807 -1.11012 0)
(4.98413 -0.855036 0)
(5.31882 -0.888044 0)
(5.1514 -0.306887 0)
(5.54371 -0.390259 0)
(5.40215 -0.128085 0)
(5.54779 -0.151147 0)
(5.27742 0.213592 0)
(5.32974 0.238437 0)
(5.19227 0.336669 0)
(5.04206 0.46118 0)
(5.13705 0.386779 0)
(4.52721 0.505036 0)
(5.06517 0.44353 0)
(3.91431 0.523147 0)
(4.75957 0.418424 0)
(3.99093 0.459412 0)
(4.40448 0.284809 0)
(3.68232 0.621699 0)
(3.92031 0.31625 0)
(3.12953 0.359877 0)
(4.33625 0.210645 0)
(3.1543 0.233479 0)
(3.72542 -0.0367924 0)
(3.98522 -1.3962 0)
(3.45792 -1.3455 0)
(4.11734 -1.2591 0)
(4.05399 -1.21963 0)
(4.63536 -1.12629 0)
(4.73343 -1.07905 0)
(5.17467 -0.848727 0)
(5.17326 -0.542646 0)
(5.37423 -0.366272 0)
(5.43605 -0.180068 0)
(5.19908 0.0116363 0)
(5.13268 0.268812 0)
(5.08296 0.458386 0)
(4.98348 0.420109 0)
(4.65601 0.549591 0)
(4.86707 0.617936 0)
(4.11672 0.595611 0)
(4.64046 0.643426 0)
(3.94913 0.622955 0)
(4.20729 0.299996 0)
(3.91487 0.505222 0)
(3.97911 0.375492 0)
(3.61644 0.582613 0)
(3.70844 0.633588 0)
(3.49755 0.282935 0)
(3.55396 0.305474 0)
(3.70733 0.317643 0)
(3.69466 0.116068 0)
(3.37639 -1.29771 0)
(3.27793 -1.21388 0)
(3.96917 -1.32332 0)
(3.84637 -1.51639 0)
(4.56586 -1.27425 0)
(4.88286 -1.25007 0)
(5.23133 -1.05629 0)
(4.97433 -0.475672 0)
(5.45225 -0.545645 0)
(5.30678 -0.0712782 0)
(5.15901 -0.00166364 0)
(5.21746 0.249005 0)
(5.08041 0.356282 0)
(5.04877 0.488786 0)
(4.673 0.553918 0)
(4.62994 0.607357 0)
(4.15901 0.713323 0)
(4.3386 0.520924 0)
(4.06578 0.756117 0)
(3.81613 0.570469 0)
(3.34352 0.55223 0)
(3.66352 0.569941 0)
(3.12551 0.672699 0)
(3.42562 0.42171 0)
(3.21434 0.396456 0)
(3.20905 0.163912 0)
(3.5022 0.133159 0)
(3.37326 0.353036 0)
(3.0519 -1.3307 0)
(3.34762 -1.53962 0)
(3.62048 -1.63416 0)
(3.88777 -1.5523 0)
(4.46491 -1.56389 0)
(4.77684 -1.40316 0)
(4.69954 -0.856705 0)
(5.06003 -0.693307 0)
(5.13673 -0.507089 0)
(4.96929 -0.0289949 0)
(5.20617 0.0451901 0)
(4.94307 0.39773 0)
(5.10648 0.492729 0)
(4.80353 0.644534 0)
(4.84018 0.767537 0)
(4.32115 0.806611 0)
(4.73858 0.71935 0)
(4.10148 0.590095 0)
(4.2332 0.724955 0)
(4.09167 0.700633 0)
(3.5719 0.548746 0)
(3.7961 0.51197 0)
(3.48216 0.733649 0)
(3.23463 0.556986 0)
(3.05481 0.369663 0)
(3.42746 0.195065 0)
(2.89107 0.201826 0)
(3.13047 0.2144 0)
(3.01324 -1.48286 0)
(3.07746 -1.6224 0)
(3.60857 -1.6468 0)
(3.96851 -1.88049 0)
(4.26368 -1.80603 0)
(4.16137 -1.468 0)
(4.40524 -1.1743 0)
(4.61591 -0.831265 0)
(4.35109 -0.501672 0)
(4.92693 -0.12998 0)
(4.64188 0.00694934 0)
(4.9704 0.303339 0)
(4.78482 0.40565 0)
(4.75455 0.535878 0)
(4.65054 0.808818 0)
(4.18286 0.708076 0)
(4.42898 0.923937 0)
(3.80668 0.732869 0)
(3.93424 0.798597 0)
(3.86615 0.850725 0)
(3.60697 0.60912 0)
(3.53204 0.617907 0)
(3.55354 0.824332 0)
(3.27212 0.656172 0)
(3.34889 0.30108 0)
(3.09742 0.272883 0)
(3.10081 0.285116 0)
(3.03798 0.246761 0)
(2.74792 -1.55186 0)
(3.03246 -1.90827 0)
(3.47625 -2.08178 0)
(3.57128 -1.94376 0)
(3.32039 -1.70521 0)
(3.31462 -1.41181 0)
(3.43855 -1.06956 0)
(3.24837 -0.835742 0)
(3.47278 -0.602714 0)
(3.72267 -0.233078 0)
(3.73585 0.0474053 0)
(3.8847 0.424897 0)
(3.95593 0.510872 0)
(3.73682 0.826195 0)
(3.84165 0.957214 0)
(3.54636 0.849986 0)
(3.77405 0.949734 0)
(3.60267 0.71157 0)
(3.22334 0.843738 0)
(3.46749 0.917677 0)
(2.8714 0.771048 0)
(3.18624 0.667557 0)
(3.12624 0.879237 0)
(3.2181 0.662825 0)
(3.18331 0.509135 0)
(2.89034 0.314196 0)
(3.00982 0.209792 0)
(2.89566 0.382248 0)
(3.00134 -1.80987 0)
(3.03202 -2.0936 0)
(2.94267 -1.96256 0)
(2.63193 -1.83984 0)
(2.27001 -1.59079 0)
(2.31256 -1.38555 0)
(1.98001 -1.0931 0)
(2.19934 -0.733353 0)
(1.87028 -0.600542 0)
(2.63366 -0.240289 0)
(2.28924 0.00391833 0)
(3.07795 0.233417 0)
(2.63324 0.409936 0)
(3.12695 0.769803 0)
(2.81046 0.844983 0)
(3.02758 0.826614 0)
(2.7438 0.978806 0)
(2.74977 0.883905 0)
(2.42779 0.896885 0)
(2.92376 0.825284 0)
(2.62656 0.687785 0)
(2.8062 0.609778 0)
(2.65426 0.738748 0)
(3.02858 0.569927 0)
(2.8895 0.518608 0)
(2.85122 0.327707 0)
(2.44386 0.298727 0)
(2.59935 0.339726 0)
(2.90232 -2.06601 0)
(2.42689 -1.9793 0)
(2.22851 -1.74156 0)
(1.67446 -1.53985 0)
(1.53145 -1.30997 0)
(1.40921 -1.16246 0)
(1.26308 -1.1124 0)
(1.43415 -0.871953 0)
(1.33964 -0.873516 0)
(1.63369 -0.468011 0)
(1.47835 -0.0728321 0)
(1.97334 0.214165 0)
(1.60985 0.427706 0)
(1.94906 0.794891 0)
(2.09929 0.889106 0)
(1.75175 0.984637 0)
(2.36502 0.959535 0)
(2.0024 0.841699 0)
(2.27486 0.928511 0)
(2.2042 0.827799 0)
(2.1041 0.865083 0)
(2.13608 0.693785 0)
(2.2311 0.620123 0)
(2.26677 0.584043 0)
(2.35676 0.626068 0)
(2.41854 0.470626 0)
(1.99871 0.399664 0)
(2.35465 0.336172 0)
(2.54162 -1.83899 0)
(1.79458 -1.71912 0)
(1.48343 -1.52882 0)
(1.36589 -1.58729 0)
(1.25748 -1.50978 0)
(1.10342 -1.31226 0)
(0.398016 -1.0593 0)
(0.508815 -0.779566 0)
(-0.0855528 -0.632951 0)
(0.208816 -0.38268 0)
(0.159903 -0.16791 0)
(0.565878 0.168667 0)
(0.157317 0.436434 0)
(0.983538 0.549608 0)
(0.750759 0.788544 0)
(0.993715 0.811534 0)
(1.14595 0.871926 0)
(0.99127 0.88154 0)
(0.994127 0.742672 0)
(1.51935 0.807523 0)
(1.36476 0.865861 0)
(1.43169 0.545885 0)
(1.4976 0.611205 0)
(1.57638 0.478481 0)
(1.83411 0.462963 0)
(1.85743 0.429681 0)
(1.7733 0.319096 0)
(2.01347 0.202584 0)
(2.23923 -1.72295 0)
(1.40196 -1.50118 0)
(1.35328 -1.54656 0)
(0.905773 -1.38515 0)
(0.327538 -1.08601 0)
(-0.0530635 -0.879696 0)
(-0.428104 -0.886753 0)
(-0.544305 -0.688836 0)
(-0.730455 -0.714972 0)
(-1.06982 -0.469557 0)
(-0.893313 -0.136478 0)
(-1.02069 0.168697 0)
(-0.679608 0.29709 0)
(-0.664676 0.602864 0)
(-0.432503 0.851905 0)
(-0.178672 0.769796 0)
(0.000261919 0.96508 0)
(-0.0705428 1.03248 0)
(0.24728 0.611362 0)
(0.326741 0.579527 0)
(1.16675 0.968201 0)
(0.878998 0.563838 0)
(1.00381 0.547266 0)
(1.14388 0.512399 0)
(1.24813 0.580508 0)
(1.41894 0.460293 0)
(1.47372 0.402163 0)
(1.73504 0.279705 0)
(1.75265 -1.44319 0)
(0.82837 -1.28139 0)
(0.598845 -1.34626 0)
(-0.0305901 -1.21019 0)
(-0.764209 -0.927665 0)
(-0.937572 -0.830179 0)
(-1.76707 -0.777782 0)
(-1.44988 -0.566765 0)
(-2.10293 -0.534115 0)
(-2.1261 -0.379488 0)
(-2.29303 -0.177821 0)
(-2.2094 0.0418501 0)
(-2.11388 0.19895 0)
(-1.92159 0.428793 0)
(-1.60863 0.556695 0)
(-1.29114 0.648629 0)
(-1.31577 0.802603 0)
(-0.475417 0.716618 0)
(-0.636309 0.586316 0)
(-0.729873 0.307417 0)
(0.490742 0.608868 0)
(0.383797 0.547321 0)
(0.125627 0.528919 0)
(0.571226 0.258506 0)
(0.63697 0.367638 0)
(0.974566 0.21157 0)
(1.0699 0.213444 0)
(1.49057 0.090033 0)
(1.43758 -1.17094 0)
(0.561177 -1.19733 0)
(0.0870704 -0.882034 0)
(-1.10758 -0.687256 0)
(-1.22736 -0.616788 0)
(-1.90099 -0.487456 0)
(-2.43252 -0.578532 0)
(-2.53319 -0.474893 0)
(-2.84185 -0.35474 0)
(-3.28137 -0.245805 0)
(-3.15157 -0.0738282 0)
(-3.61557 0.120864 0)
(-2.96966 0.211655 0)
(-3.22715 0.348898 0)
(-2.34824 0.617156 0)
(-2.40752 0.49556 0)
(-1.74046 0.578548 0)
(-1.69188 0.721095 0)
(-0.912952 0.490511 0)
(-1.35707 0.146241 0)
(-0.901681 0.646457 0)
(-0.77855 0.634172 0)
(0.231049 0.419796 0)
(0.208861 0.375647 0)
(0.537046 0.395515 0)
(0.645192 0.173048 0)
(0.89951 0.187645 0)
(1.06272 0.0898322 0)
(1.00677 -0.478722 0)
(-0.479074 -0.545044 0)
(-0.492004 -0.773799 0)
(-1.63262 -0.480193 0)
(-2.03886 -0.43488 0)
(-2.5012 -0.381992 0)
(-2.98553 -0.481682 0)
(-3.47806 -0.326894 0)
(-3.54284 -0.340235 0)
(-4.1072 -0.202522 0)
(-4.01359 -0.0492348 0)
(-4.27212 -0.0338038 0)
(-3.94097 -0.038571 0)
(-4.19344 0.0908749 0)
(-3.2251 0.163693 0)
(-3.44213 0.406238 0)
(-2.35153 0.381644 0)
(-2.39651 0.444704 0)
(-1.27609 0.434368 0)
(-1.84238 0.260808 0)
(-0.851052 0.225506 0)
(-0.857076 -0.0413253 0)
(-1.21637 0.0382034 0)
(-0.407977 0.0367236 0)
(0.176216 0.198251 0)
(0.0447415 -0.0173835 0)
(0.399435 0.0812248 0)
(0.423204 0.0104214 0)
(1.33078 -0.462708 0)
(-0.150446 -0.568101 0)
(-1.23857 -0.0284279 0)
(-1.94009 -0.108165 0)
(-2.27911 -0.0228168 0)
(-2.74965 -0.0749383 0)
(-3.40049 -0.0985777 0)
(-3.86882 -0.126815 0)
(-4.31745 -0.0867359 0)
(-4.96347 0.0495802 0)
(-4.53547 0.0364529 0)
(-5.01479 0.13818 0)
(-4.22006 0.161041 0)
(-4.84991 0.0504793 0)
(-3.84943 0.254582 0)
(-4.00258 -0.141538 0)
(-3.36768 0.0682063 0)
(-3.22171 0.240873 0)
(-1.70924 -0.0368316 0)
(-2.7662 0.0418441 0)
(-0.892987 0.381607 0)
(-1.64553 0.661981 0)
(0.2754 0.210915 0)
(-1.09562 -0.227732 0)
(-0.0670777 0.13239 0)
(-0.451677 0.0337046 0)
(-0.0591924 0.0337916 0)
(-0.175329 0.0158063 0)
(4.70389 -1.53011 0)
(3.08796 -0.671911 0)
(3.40388 -0.0622015 0)
(4.31021 -1.25689 0)
(2.06687 -1.75991 0)
(1.80729 -1.50842 0)
(0.753845 -2.62189 0)
(1.11253 -1.12249 0)
(2.54257 -1.1718 0)
(2.66342 -0.186015 0)
(2.754 0.583861 0)
(3.55618 -0.602162 0)
(1.51089 -1.04538 0)
(2.72782 -1.58116 0)
(1.89647 -2.60174 0)
(1.29938 -2.10535 0)
(3.30515 -0.796956 0)
(2.50328 -0.673699 0)
(2.20173 -0.0848234 0)
(4.30357 -0.867722 0)
(2.17398 -1.22188 0)
(3.40684 -1.67567 0)
(2.62168 -1.57954 0)
(-0.281355 -0.263774 0)
(3.27708 -0.655331 0)
(2.81793 -0.252251 0)
(2.33976 -0.473155 0)
(3.10384 -0.259778 0)
(2.1716 -0.531211 0)
(2.12588 -1.36791 0)
(1.76993 -0.670923 0)
(-0.86075 -0.715693 0)
(3.09461 -0.688464 0)
(2.57854 -0.162527 0)
(2.43147 -0.0663339 0)
(2.55482 -0.678542 0)
(2.18374 -1.23619 0)
(0.821158 -1.67634 0)
(1.46784 -0.59052 0)
(1.3572 -0.213033 0)
(3.27182 -0.275563 0)
(2.44284 -0.195432 0)
(2.52184 -0.391221 0)
(2.53278 -0.346473 0)
(3.11197 0.375342 0)
(3.11928 -0.52428 0)
(1.58217 -0.754944 0)
(1.52711 -0.53843 0)
(3.26346 -0.0799625 0)
(3.09489 0.162707 0)
(3.04883 -0.0902401 0)
(2.02983 -0.814033 0)
(1.96459 -1.28335 0)
(3.08085 -0.989356 0)
(2.94949 -0.255025 0)
(2.54683 -0.268912 0)
(2.92828 0.167863 0)
(3.65702 -0.217767 0)
(3.00141 0.180113 0)
(3.93886 0.0841771 0)
(2.68523 -0.387625 0)
(2.36554 -0.925759 0)
(1.93825 -0.523015 0)
(2.39341 -0.221334 0)
(3.24709 -0.065876 0)
(3.05762 0.119038 0)
(3.0785 -0.19768 0)
(2.95308 -0.469395 0)
(3.21078 -0.339439 0)
(3.60301 -0.484501 0)
(2.43686 -0.374323 0)
(2.13671 -0.0720274 0)
(3.11636 0.336704 0)
(3.10781 -0.158661 0)
(3.11268 0.206626 0)
(2.76332 -0.03009 0)
(2.59733 -0.866807 0)
(3.0604 -0.538466 0)
(2.40891 0.0732867 0)
(1.9228 0.169012 0)
(2.82746 0.0147606 0)
(3.04832 0.0862398 0)
(2.81965 0.0700108 0)
(3.16697 -0.232056 0)
(2.80213 -0.385838 0)
(2.22861 -0.38812 0)
(1.92291 0.122236 0)
(2.13307 0.155886 0)
(2.79382 0.22796 0)
(2.60257 -0.0690926 0)
(2.8994 0.106861 0)
(2.96581 -0.0776409 0)
(2.53487 -0.288417 0)
(2.1879 -0.0126528 0)
(2.10701 0.138698 0)
(2.50076 0.0589821 0)
(2.56299 0.210375 0)
(2.60816 0.0139786 0)
(2.72043 -0.0892043 0)
(2.40403 -0.0510079 0)
(2.11656 -0.0575018 0)
(2.32499 -0.192665 0)
(2.19372 -0.112021 0)
(2.41067 0.129265 0)
(2.25413 0.143751 0)
(2.39631 -0.0439911 0)
(2.26094 0.207355 0)
(2.32208 0.126374 0)
(2.2584 -0.160615 0)
(2.35442 -0.0218464 0)
(2.13985 0.0739507 0)
(2.39019 0.053026 0)
(1.89313 0.13914 0)
(2.02633 0.0143082 0)
(1.97117 -0.0228512 0)
(2.27639 -0.0624978 0)
(2.05225 -0.0674556 0)
(2.16039 -0.135815 0)
(1.92806 -0.101108 0)
(1.89693 0.186253 0)
(1.68167 0.10889 0)
(1.86154 -0.00382849 0)
(1.93953 0.0728167 0)
(2.00293 0.0139578 0)
(1.84162 -0.042765 0)
(2.05689 0.0259538 0)
(1.66386 0.176256 0)
(1.83765 0.137483 0)
(1.35477 0.0368777 0)
(1.55362 -0.103068 0)
(1.52848 -0.0772032 0)
(1.54903 -0.0437692 0)
(1.379 -0.0823599 0)
(1.50329 -0.0386364 0)
(1.27929 0.0660856 0)
(1.54949 0.163542 0)
(1.00136 0.0628898 0)
(1.06729 -0.0130542 0)
(0.900938 0.0807721 0)
(1.0499 0.0207075 0)
(0.903559 0.0211347 0)
(1.09455 0.0570066 0)
(0.952548 0.129099 0)
(1.1852 0.145653 0)
(0.475801 0.0161426 0)
(0.47509 -0.0564259 0)
(0.442548 -0.044436 0)
(0.455707 -0.0800797 0)
(0.258042 -0.0756423 0)
(0.468606 -0.0548831 0)
(0.331642 0.0808044 0)
(0.649928 0.135007 0)
(-0.0252313 0.0508604 0)
(-0.044302 0.0302858 0)
(-0.0916892 0.096409 0)
(0.079056 0.0702461 0)
(-0.113713 0.0278331 0)
(-0.00657669 -0.0010522 0)
(-0.229732 0.0423917 0)
(0.271828 0.0371229 0)
(-0.751157 0.391782 0)
(0.858374 0.350402 0)
(1.31085 0.85691 0)
(1.52742 0.942017 1.25211e-17)
(2.15696 1.15401 8.22561e-19)
(2.46341 0.954481 0)
(3.28183 0.892996 6.08942e-18)
(3.0912 0.644931 3.58632e-19)
(3.43287 0.701205 4.752e-18)
(2.90203 0.554697 4.79479e-18)
(3.4929 0.618674 0)
(2.83463 0.496692 3.99601e-18)
(3.42959 0.616284 -1.69827e-19)
(2.83069 0.472502 3.41773e-18)
(3.44058 0.579551 4.00912e-20)
(3.1792 0.478976 -4.42346e-20)
(3.55294 0.606771 -9.27999e-19)
(3.37757 0.485113 6.28124e-19)
(3.82432 0.611218 8.8101e-22)
(3.74643 0.267442 1.99842e-21)
(0.746569 -0.416506 0)
(0.942328 0.233081 0)
(1.33164 0.718391 -5.56654e-19)
(1.67421 0.994953 -2.56489e-17)
(2.24017 1.31799 -7.30547e-19)
(2.53348 1.00083 1.01217e-17)
(3.12618 0.735427 -5.97646e-18)
(3.04154 0.565052 2.66655e-18)
(3.36303 0.578272 5.29729e-18)
(2.97999 0.432462 -4.8108e-18)
(3.43092 0.511303 0)
(2.95292 0.392124 3.92937e-18)
(3.33973 0.395023 5.36798e-20)
(3.02018 0.321795 -3.44668e-18)
(3.38024 0.342599 6.387e-21)
(3.36147 0.345541 0)
(3.48414 0.378906 -2.08259e-20)
(3.46758 0.268267 0)
(3.74473 0.364524 0)
(3.71059 -0.0713761 0)
(-0.310104 1.00936 0)
(0.870673 0.363918 -6.60905e-19)
(1.33649 0.626261 1.1519e-18)