/*--------------------------------*- C++ -*----------------------------------*\
| =========                 |                                                 |
| \\      /  F ield         | OpenFOAM: The Open Source CFD Toolbox           |
|  \\    /   O peration     | Version:  2.4.0                                 |
|   \\  /    A nd           | Web:      www.OpenFOAM.org                      |
|    \\/     M anipulation  |                                                 |
\*---------------------------------------------------------------------------*/
FoamFile
{
    version     2.0;
    format      ascii;
    class       volScalarField;
    location    "0.02";
    object      epsilon;
}
// * * * * * * * * * * * * * * * * * * * * * * * * * * * * * * * * * * * * * //

dimensions      [0 2 -3 0 0 0 0];

internalField   nonuniform List<scalar> 
6000
(
0.0854882
0.102861
0.114362
0.117118
0.117124
0.11754
0.117775
0.117738
0.117715
0.117724
0.117726
0.117724
0.117723
0.117723
0.117723
0.117723
0.117723
0.117723
0.117723
0.117723
0.117723
0.117722
0.117722
0.117722
0.117721
0.117721
0.11772
0.117719
0.117718
0.117716
0.117714
0.117711
0.117707
0.117702
0.117695
0.117687
0.117676
0.117662
0.117644
0.11762
0.117589
0.11755
0.117498
0.117431
0.117344
0.117232
0.117086
0.116898
0.116653
0.116337
0.115928
0.115397
0.11471
0.113818
0.11266
0.111137
0.109104
0.106269
0.102331
0.094471
0.0241645
0.0241222
0.0239581
0.0237428
0.0235943
0.0235379
0.0235118
0.0234997
0.0234961
0.0234953
0.0234948
0.0234946
0.0234945
0.0234944
0.0234944
0.0234944
0.0234944
0.0234944
0.0234944
0.0234944
0.0234944
0.0234945
0.0234945
0.0234946
0.0234947
0.0234948
0.0234949
0.0234951
0.0234953
0.0234956
0.023496
0.0234965
0.0234971
0.0234979
0.023499
0.0235004
0.0235022
0.0235046
0.0235076
0.0235115
0.0235166
0.0235232
0.0235318
0.0235429
0.0235573
0.0235759
0.0236
0.0236313
0.0236717
0.0237242
0.0237923
0.023881
0.0239973
0.0241517
0.0243608
0.0246547
0.0251014
0.0258494
0.0276515
0.0315945
0.0223856
0.0210981
0.0204266
0.0200888
0.0199127
0.0198369
0.019807
0.0197969
0.0197939
0.0197931
0.0197929
0.0197928
0.0197928
0.0197928
0.0197928
0.0197928
0.0197928
0.0197928
0.0197928
0.0197928
0.0197928
0.0197928
0.0197928
0.0197928
0.0197928
0.0197928
0.0197928
0.0197929
0.0197929
0.0197929
0.0197929
0.019793
0.019793
0.0197931
0.0197932
0.0197934
0.0197935
0.0197938
0.019794
0.0197944
0.0197949
0.0197956
0.0197964
0.0197975
0.0197989
0.0198008
0.0198033
0.0198067
0.0198111
0.0198172
0.0198254
0.0198369
0.019853
0.0198763
0.0199113
0.0199659
0.0200596
0.0202278
0.020673
0.0218584
0.0223322
0.020989
0.0202948
0.0199529
0.0197762
0.0196999
0.0196701
0.0196602
0.0196572
0.0196564
0.0196562
0.0196562
0.0196562
0.0196562
0.0196562
0.0196562
0.0196562
0.0196562
0.0196562
0.0196562
0.0196562
0.0196562
0.0196562
0.0196562
0.0196562
0.0196562
0.0196562
0.0196562
0.0196562
0.0196562
0.0196562
0.0196562
0.0196562
0.0196562
0.0196562
0.0196562
0.0196562
0.0196562
0.0196563
0.0196563
0.0196563
0.0196564
0.0196564
0.0196565
0.0196567
0.0196569
0.0196572
0.0196576
0.0196583
0.0196593
0.019661
0.0196637
0.0196681
0.0196754
0.019688
0.0197104
0.019753
0.0198393
0.0200427
0.0206677
0.0223311
0.0209857
0.0202906
0.0199485
0.019772
0.0196957
0.0196659
0.019656
0.0196531
0.0196523
0.0196521
0.0196521
0.0196521
0.0196521
0.0196521
0.0196521
0.0196521
0.0196521
0.0196521
0.0196521
0.0196521
0.0196521
0.0196521
0.0196521
0.0196521
0.0196521
0.0196521
0.0196521
0.0196521
0.0196521
0.0196521
0.0196521
0.0196521
0.0196521
0.0196521
0.0196521
0.0196521
0.0196521
0.0196521
0.0196521
0.0196521
0.0196521
0.0196521
0.0196522
0.0196522
0.0196523
0.0196525
0.0196527
0.0196532
0.0196539
0.0196552
0.0196573
0.0196608
0.019667
0.0196778
0.0196973
0.0197343
0.0198098
0.0199664
0.0204496
0.0223313
0.0209854
0.0202904
0.0199482
0.0197718
0.0196955
0.0196658
0.0196559
0.019653
0.0196522
0.019652
0.019652
0.019652
0.019652
0.019652
0.019652
0.019652
0.019652
0.019652
0.019652
0.019652
0.019652
0.019652
0.019652
0.019652
0.019652
0.019652
0.019652
0.019652
0.019652
0.019652
0.019652
0.019652
0.019652
0.019652
0.019652
0.019652
0.019652
0.019652
0.019652
0.019652
0.019652
0.019652
0.019652
0.0196521
0.0196522
0.0196523
0.0196526
0.019653
0.0196538
0.019655
0.019657
0.0196606
0.0196666
0.0196771
0.0196961
0.0197311
0.0198008
0.0199314
0.0203044
0.0223314
0.0209853
0.0202902
0.0199481
0.0197717
0.0196955
0.0196658
0.0196559
0.019653
0.0196522
0.019652
0.019652
0.019652
0.019652
0.019652
0.019652
0.019652
0.019652
0.019652
0.019652
0.019652
0.019652
0.019652
0.019652
0.019652
0.019652
0.019652
0.019652
0.019652
0.019652
0.019652
0.019652
0.019652
0.019652
0.019652
0.019652
0.019652
0.019652
0.019652
0.019652
0.019652
0.019652
0.019652
0.019652
0.0196521
0.0196522
0.0196523
0.0196526
0.019653
0.0196537
0.019655
0.019657
0.0196605
0.0196665
0.0196769
0.0196954
0.0197287
0.0197932
0.0199043
0.0201939
0.0223316
0.0209852
0.0202901
0.019948
0.0197717
0.0196955
0.0196658
0.0196559
0.019653
0.0196522
0.019652
0.019652
0.019652
0.019652
0.019652
0.019652
0.019652
0.019652
0.019652
0.019652
0.019652
0.019652
0.019652
0.019652
0.019652
0.019652
0.019652
0.019652
0.019652
0.019652
0.019652
0.019652
0.019652
0.019652
0.019652
0.019652
0.019652
0.019652
0.019652
0.019652
0.019652
0.019652
0.019652
0.019652
0.0196521
0.0196522
0.0196523
0.0196526
0.019653
0.0196537
0.019655
0.019657
0.0196605
0.0196664
0.0196767
0.0196946
0.0197263
0.0197861
0.019882
0.0201104
0.0223317
0.0209851
0.0202901
0.0199479
0.0197716
0.0196955
0.0196658
0.0196559
0.019653
0.0196522
0.019652
0.019652
0.019652
0.019652
0.019652
0.019652
0.019652
0.019652
0.019652
0.019652
0.019652
0.019652
0.019652
0.019652
0.019652
0.019652
0.019652
0.019652
0.019652
0.019652
0.019652
0.019652
0.019652
0.019652
0.019652
0.019652
0.019652
0.019652
0.019652
0.019652
0.019652
0.019652
0.019652
0.019652
0.0196521
0.0196522
0.0196523
0.0196526
0.019653
0.0196537
0.019655
0.019657
0.0196605
0.0196664
0.0196764
0.0196939
0.0197241
0.0197792
0.019863
0.0200458
0.0223317
0.020985
0.02029
0.0199478
0.0197716
0.0196955
0.0196658
0.0196559
0.019653
0.0196522
0.019652
0.019652
0.019652
0.019652
0.019652
0.019652
0.019652
0.019652
0.019652
0.019652
0.019652
0.019652
0.019652
0.019652
0.019652
0.019652
0.019652
0.019652
0.019652
0.019652
0.019652
0.019652
0.019652
0.019652
0.019652
0.019652
0.019652
0.019652
0.019652
0.019652
0.019652
0.019652
0.019652
0.019652
0.0196521
0.0196522
0.0196523
0.0196526
0.019653
0.0196537
0.019655
0.019657
0.0196604
0.0196663
0.0196762
0.0196931
0.0197218
0.0197729
0.0198468
0.019995
0.0223318
0.020985
0.0202899
0.0199477
0.0197715
0.0196955
0.0196658
0.0196559
0.019653
0.0196522
0.019652
0.019652
0.019652
0.019652
0.019652
0.019652
0.019652
0.019652
0.019652
0.019652
0.019652
0.019652
0.019652
0.019652
0.019652
0.019652
0.019652
0.019652
0.019652
0.019652
0.019652
0.019652
0.019652
0.019652
0.019652
0.019652
0.019652
0.019652
0.019652
0.019652
0.019652
0.019652
0.019652
0.019652
0.0196521
0.0196522
0.0196523
0.0196526
0.019653
0.0196537
0.019655
0.019657
0.0196604
0.0196662
0.0196759
0.0196924
0.0197197
0.019767
0.0198328
0.0199545
0.0223319
0.0209849
0.0202899
0.0199477
0.0197715
0.0196955
0.0196658
0.0196559
0.019653
0.0196522
0.019652
0.019652
0.019652
0.019652
0.019652
0.019652
0.019652
0.019652
0.019652
0.019652
0.019652
0.019652
0.019652
0.019652
0.019652
0.019652
0.019652
0.019652
0.019652
0.019652
0.019652
0.019652
0.019652
0.019652
0.019652
0.019652
0.019652
0.019652
0.019652
0.019652
0.019652
0.019652
0.019652
0.019652
0.0196521
0.0196522
0.0196523
0.0196526
0.019653
0.0196537
0.019655
0.019657
0.0196604
0.0196661
0.0196756
0.0196917
0.0197177
0.0197616
0.0198206
0.019922
0.0223319
0.0209849
0.0202898
0.0199476
0.0197715
0.0196955
0.0196658
0.0196559
0.019653
0.0196522
0.019652
0.019652
0.019652
0.019652
0.019652
0.019652
0.019652
0.019652
0.019652
0.019652
0.019652
0.019652
0.019652
0.019652
0.019652
0.019652
0.019652
0.019652
0.019652
0.019652
0.019652
0.019652
0.019652
0.019652
0.019652
0.019652
0.019652
0.019652
0.019652
0.019652
0.019652
0.019652
0.019652
0.019652
0.0196521
0.0196522
0.0196523
0.0196526
0.019653
0.0196537
0.0196549
0.019657
0.0196604
0.019666
0.0196754
0.019691
0.0197159
0.0197567
0.0198101
0.0198957
0.022332
0.0209848
0.0202898
0.0199476
0.0197715
0.0196955
0.0196658
0.0196559
0.019653
0.0196522
0.019652
0.019652
0.019652
0.019652
0.019652
0.019652
0.019652
0.019652
0.019652
0.019652
0.019652
0.019652
0.019652
0.019652
0.019652
0.019652
0.019652
0.019652
0.019652
0.019652
0.019652
0.019652
0.019652
0.019652
0.019652
0.019652
0.019652
0.019652
0.019652
0.019652
0.019652
0.019652
0.019652
0.019652
0.0196521
0.0196522
0.0196523
0.0196526
0.019653
0.0196537
0.0196549
0.019657
0.0196603
0.0196659
0.0196752
0.0196903
0.0197141
0.0197523
0.019801
0.0198741
0.022332
0.0209848
0.0202898
0.0199476
0.0197715
0.0196955
0.0196658
0.0196559
0.019653
0.0196522
0.019652
0.019652
0.019652
0.019652
0.019652
0.019652
0.019652
0.019652
0.019652
0.019652
0.019652
0.019652
0.019652
0.019652
0.019652
0.019652
0.019652
0.019652
0.019652
0.019652
0.019652
0.019652
0.019652
0.019652
0.019652
0.019652
0.019652
0.019652
0.019652
0.019652
0.019652
0.019652
0.019652
0.019652
0.0196521
0.0196522
0.0196523
0.0196526
0.019653
0.0196537
0.0196549
0.019657
0.0196603
0.0196658
0.0196749
0.0196897
0.0197126
0.0197484
0.0197932
0.0198565
0.022332
0.0209848
0.0202897
0.0199476
0.0197715
0.0196955
0.0196658
0.0196559
0.019653
0.0196522
0.019652
0.019652
0.019652
0.019652
0.019652
0.019652
0.019652
0.019652
0.019652
0.019652
0.019652
0.019652
0.019652
0.019652
0.019652
0.019652
0.019652
0.019652
0.019652
0.019652
0.019652
0.019652
0.019652
0.019652
0.019652
0.019652
0.019652
0.019652
0.019652
0.019652
0.019652
0.019652
0.019652
0.019652
0.0196521
0.0196522
0.0196523
0.0196526
0.019653
0.0196537
0.0196549
0.0196569
0.0196603
0.0196658
0.0196747
0.0196891
0.0197112
0.019745
0.0197864
0.0198419
0.0223321
0.0209848
0.0202897
0.0199475
0.0197715
0.0196955
0.0196658
0.0196559
0.019653
0.0196522
0.019652
0.019652
0.019652
0.019652
0.019652
0.019652
0.019652
0.019652
0.019652
0.019652
0.019652
0.019652
0.019652
0.019652
0.019652
0.019652
0.019652
0.019652
0.019652
0.019652
0.019652
0.019652
0.019652
0.019652
0.019652
0.019652
0.019652
0.019652
0.019652
0.019652
0.019652
0.019652
0.019652
0.019652
0.0196521
0.0196522
0.0196523
0.0196526
0.019653
0.0196537
0.0196549
0.0196569
0.0196602
0.0196657
0.0196745
0.0196886
0.0197099
0.019742
0.0197807
0.01983
0.0223321
0.0209847
0.0202897
0.0199475
0.0197714
0.0196955
0.0196658
0.0196559
0.019653
0.0196522
0.019652
0.019652
0.019652
0.019652
0.019652
0.019652
0.019652
0.019652
0.019652
0.019652
0.019652
0.019652
0.019652
0.019652
0.019652
0.019652
0.019652
0.019652
0.019652
0.019652
0.019652
0.019652
0.019652
0.019652
0.019652
0.019652
0.019652
0.019652
0.019652
0.019652
0.019652
0.019652
0.019652
0.019652
0.0196521
0.0196522
0.0196523
0.0196526
0.019653
0.0196537
0.0196549
0.0196569
0.0196602
0.0196656
0.0196744
0.0196882
0.0197088
0.0197393
0.0197758
0.0198202
0.0223321
0.0209847
0.0202897
0.0199475
0.0197714
0.0196955
0.0196658
0.0196559
0.019653
0.0196522
0.019652
0.019652
0.019652
0.019652
0.019652
0.019652
0.019652
0.019652
0.019652
0.019652
0.019652
0.019652
0.019652
0.019652
0.019652
0.019652
0.019652
0.019652
0.019652
0.019652
0.019652
0.019652
0.019652
0.019652
0.019652
0.019652
0.019652
0.019652
0.019652
0.019652
0.019652
0.019652
0.019652
0.019652
0.0196521
0.0196522
0.0196523
0.0196526
0.019653
0.0196537
0.0196549
0.0196569
0.0196602
0.0196656
0.0196742
0.0196878
0.0197079
0.0197371
0.0197717
0.0198122
0.0223321
0.0209847
0.0202897
0.0199475
0.0197714
0.0196955
0.0196658
0.0196559
0.019653
0.0196522
0.019652
0.019652
0.019652
0.019652
0.019652
0.019652
0.019652
0.019652
0.019652
0.019652
0.019652
0.019652
0.019652
0.019652
0.019652
0.019652
0.019652
0.019652
0.019652
0.019652
0.019652
0.019652
0.019652
0.019652
0.019652
0.019652
0.019652
0.019652
0.019652
0.019652
0.019652
0.019652
0.019652
0.019652
0.0196521
0.0196522
0.0196523
0.0196526
0.019653
0.0196537
0.0196549
0.0196569
0.0196602
0.0196655
0.0196741
0.0196874
0.0197071
0.0197353
0.0197683
0.0198057
0.0223321
0.0209847
0.0202897
0.0199475
0.0197714
0.0196955
0.0196658
0.0196559
0.019653
0.0196522
0.019652
0.019652
0.019652
0.019652
0.019652
0.019652
0.019652
0.019652
0.019652
0.019652
0.019652
0.019652
0.019652
0.019652
0.019652
0.019652
0.019652
0.019652
0.019652
0.019652
0.019652
0.019652
0.019652
0.019652
0.019652
0.019652
0.019652
0.019652
0.019652
0.019652
0.019652
0.019652
0.019652
0.019652
0.0196521
0.0196522
0.0196523
0.0196526
0.019653
0.0196537
0.0196549
0.0196569
0.0196602
0.0196655
0.019674
0.0196872
0.0197065
0.0197338
0.0197656
0.0198007
0.0223321
0.0209847
0.0202896
0.0199475
0.0197714
0.0196955
0.0196658
0.0196559
0.019653
0.0196522
0.019652
0.019652
0.019652
0.019652
0.019652
0.019652
0.019652
0.019652
0.019652
0.019652
0.019652
0.019652
0.019652
0.019652
0.019652
0.019652
0.019652
0.019652
0.019652
0.019652
0.019652
0.019652
0.019652
0.019652
0.019652
0.019652
0.019652
0.019652
0.019652
0.019652
0.019652
0.019652
0.019652
0.019652
0.0196521
0.0196522
0.0196523
0.0196526
0.019653
0.0196537
0.0196549
0.0196569
0.0196602
0.0196655
0.0196739
0.019687
0.019706
0.0197326
0.0197636
0.0197969
0.0223321
0.0209847
0.0202896
0.0199475
0.0197714
0.0196955
0.0196658
0.0196559
0.019653
0.0196522
0.019652
0.019652
0.019652
0.019652
0.019652
0.019652
0.019652
0.019652
0.019652
0.019652
0.019652
0.019652
0.019652
0.019652
0.019652
0.019652
0.019652
0.019652
0.019652
0.019652
0.019652
0.019652
0.019652
0.019652
0.019652
0.019652
0.019652
0.019652
0.019652
0.019652
0.019652
0.019652
0.019652
0.019652
0.0196521
0.0196522
0.0196523
0.0196526
0.019653
0.0196537
0.0196549
0.0196569
0.0196602
0.0196655
0.0196739
0.0196868
0.0197057
0.0197318
0.0197622
0.0197942
0.0223321
0.0209847
0.0202896
0.0199475
0.0197714
0.0196955
0.0196658
0.0196559
0.019653
0.0196522
0.019652
0.019652
0.019652
0.019652
0.019652
0.019652
0.019652
0.019652
0.019652
0.019652
0.019652
0.019652
0.019652
0.019652
0.019652
0.019652
0.019652
0.019652
0.019652
0.019652
0.019652
0.019652
0.019652
0.019652
0.019652
0.019652
0.019652
0.019652
0.019652
0.019652
0.019652
0.019652
0.019652
0.019652
0.0196521
0.0196522
0.0196523
0.0196526
0.019653
0.0196537
0.0196549
0.0196569
0.0196602
0.0196655
0.0196739
0.0196868
0.0197055
0.0197313
0.0197613
0.0197926
0.0223321
0.0209847
0.0202896
0.0199475
0.0197714
0.0196955
0.0196658
0.0196559
0.019653
0.0196522
0.019652
0.019652
0.019652
0.019652
0.019652
0.019652
0.019652
0.019652
0.019652
0.019652
0.019652
0.019652
0.019652
0.019652
0.019652
0.019652
0.019652
0.019652
0.019652
0.019652
0.019652
0.019652
0.019652
0.019652
0.019652
0.019652
0.019652
0.019652
0.019652
0.019652
0.019652
0.019652
0.019652
0.019652
0.0196521
0.0196522
0.0196523
0.0196526
0.019653
0.0196537
0.0196549
0.0196569
0.0196602
0.0196655
0.0196739
0.0196868
0.0197055
0.0197311
0.0197611
0.0197919
0.0223321
0.0209847
0.0202896
0.0199475
0.0197714
0.0196955
0.0196658
0.0196559
0.019653
0.0196522
0.019652
0.019652
0.019652
0.019652
0.019652
0.019652
0.019652
0.019652
0.019652
0.019652
0.019652
0.019652
0.019652
0.019652
0.019652
0.019652
0.019652
0.019652
0.019652
0.019652
0.019652
0.019652
0.019652
0.019652
0.019652
0.019652
0.019652
0.019652
0.019652
0.019652
0.019652
0.019652
0.019652
0.019652
0.0196521
0.0196522
0.0196523
0.0196526
0.019653
0.0196537
0.0196549
0.0196569
0.0196602
0.0196655
0.0196739
0.0196868
0.0197057
0.0197312
0.0197614
0.0197922
0.0223321
0.0209847
0.0202896
0.0199475
0.0197714
0.0196955
0.0196658
0.0196559
0.019653
0.0196522
0.019652
0.019652
0.019652
0.019652
0.019652
0.019652
0.019652
0.019652
0.019652
0.019652
0.019652
0.019652
0.019652
0.019652
0.019652
0.019652
0.019652
0.019652
0.019652
0.019652
0.019652
0.019652
0.019652
0.019652
0.019652
0.019652
0.019652
0.019652
0.019652
0.019652
0.019652
0.019652
0.019652
0.019652
0.0196521
0.0196522
0.0196523
0.0196526
0.019653
0.0196537
0.0196549
0.0196569
0.0196602
0.0196655
0.019674
0.019687
0.019706
0.0197316
0.0197623
0.0197934
0.0223321
0.0209847
0.0202896
0.0199475
0.0197714
0.0196955
0.0196658
0.0196559
0.019653
0.0196522
0.019652
0.019652
0.019652
0.019652
0.019652
0.019652
0.019652
0.019652
0.019652
0.019652
0.019652
0.019652
0.019652
0.019652
0.019652
0.019652
0.019652
0.019652
0.019652
0.019652
0.019652
0.019652
0.019652
0.019652
0.019652
0.019652
0.019652
0.019652
0.019652
0.019652
0.019652
0.019652
0.019652
0.019652
0.0196521
0.0196522
0.0196523
0.0196526
0.019653
0.0196537
0.019655
0.0196569
0.0196602
0.0196656
0.0196741
0.0196872
0.0197064
0.0197324
0.0197638
0.0197957
0.0223321
0.0209847
0.0202896
0.0199475
0.0197714
0.0196955
0.0196658
0.0196559
0.019653
0.0196522
0.019652
0.019652
0.019652
0.019652
0.019652
0.019652
0.019652
0.019652
0.019652
0.019652
0.019652
0.019652
0.019652
0.019652
0.019652
0.019652
0.019652
0.019652
0.019652
0.019652
0.019652
0.019652
0.019652
0.019652
0.019652
0.019652
0.019652
0.019652
0.019652
0.019652
0.019652
0.019652
0.019652
0.019652
0.0196521
0.0196522
0.0196523
0.0196526
0.019653
0.0196537
0.019655
0.019657
0.0196603
0.0196656
0.0196742
0.0196875
0.019707
0.0197335
0.0197659
0.0197991
0.0223321
0.0209847
0.0202897
0.0199475
0.0197714
0.0196955
0.0196658
0.0196559
0.019653
0.0196522
0.019652
0.019652
0.019652
0.019652
0.019652
0.019652
0.019652
0.019652
0.019652
0.019652
0.019652
0.019652
0.019652
0.019652
0.019652
0.019652
0.019652
0.019652
0.019652
0.019652
0.019652
0.019652
0.019652
0.019652
0.019652
0.019652
0.019652
0.019652
0.019652
0.019652
0.019652
0.019652
0.019652
0.019652
0.0196521
0.0196522
0.0196523
0.0196526
0.019653
0.0196538
0.019655
0.019657
0.0196603
0.0196657
0.0196744
0.0196878
0.0197078
0.019735
0.0197686
0.0198037
0.0223321
0.0209847
0.0202897
0.0199475
0.0197714
0.0196955
0.0196658
0.0196559
0.019653
0.0196522
0.019652
0.019652
0.019652
0.019652
0.019652
0.019652
0.019652
0.019652
0.019652
0.019652
0.019652
0.019652
0.019652
0.019652
0.019652
0.019652
0.019652
0.019652
0.019652
0.019652
0.019652
0.019652
0.019652
0.019652
0.019652
0.019652
0.019652
0.019652
0.019652
0.019652
0.019652
0.019652
0.019652
0.019652
0.0196521
0.0196522
0.0196523
0.0196526
0.019653
0.0196538
0.019655
0.019657
0.0196603
0.0196658
0.0196746
0.0196882
0.0197087
0.0197368
0.0197721
0.0198096
0.0223321
0.0209847
0.0202897
0.0199475
0.0197714
0.0196955
0.0196658
0.0196559
0.019653
0.0196522
0.019652
0.019652
0.019652
0.019652
0.019652
0.019652
0.019652
0.019652
0.019652
0.019652
0.019652
0.019652
0.019652
0.019652
0.019652
0.019652
0.019652
0.019652
0.019652
0.019652
0.019652
0.019652
0.019652
0.019652
0.019652
0.019652
0.019652
0.019652
0.019652
0.019652
0.019652
0.019652
0.019652
0.019652
0.0196521
0.0196522
0.0196523
0.0196526
0.019653
0.0196538
0.019655
0.019657
0.0196604
0.0196659
0.0196748
0.0196887
0.0197099
0.0197391
0.0197763
0.019817
0.0223321
0.0209847
0.0202897
0.0199475
0.0197714
0.0196955
0.0196658
0.0196559
0.019653
0.0196522
0.019652
0.019652
0.019652
0.019652
0.019652
0.019652
0.019652
0.019652
0.019652
0.019652
0.019652
0.019652
0.019652
0.019652
0.019652
0.019652
0.019652
0.019652
0.019652
0.019652
0.019652
0.019652
0.019652
0.019652
0.019652
0.019652
0.019652
0.019652
0.019652
0.019652
0.019652
0.019652
0.019652
0.019652
0.0196521
0.0196522
0.0196523
0.0196526
0.019653
0.0196538
0.019655
0.019657
0.0196604
0.019666
0.019675
0.0196893
0.0197112
0.0197418
0.0197814
0.0198261
0.0223321
0.0209848
0.0202897
0.0199475
0.0197715
0.0196955
0.0196658
0.0196559
0.019653
0.0196522
0.019652
0.019652
0.019652
0.019652
0.019652
0.019652
0.019652
0.019652
0.019652
0.019652
0.019652
0.019652
0.019652
0.019652
0.019652
0.019652
0.019652
0.019652
0.019652
0.019652
0.019652
0.019652
0.019652
0.019652
0.019652
0.019652
0.019652
0.019652
0.019652
0.019652
0.019652
0.019652
0.019652
0.019652
0.0196521
0.0196522
0.0196523
0.0196526
0.019653
0.0196538
0.019655
0.019657
0.0196604
0.0196661
0.0196753
0.01969
0.0197127
0.0197449
0.0197875
0.0198374
0.022332
0.0209848
0.0202897
0.0199476
0.0197715
0.0196955
0.0196658
0.0196559
0.019653
0.0196522
0.019652
0.019652
0.019652
0.019652
0.019652
0.019652
0.019652
0.019652
0.019652
0.019652
0.019652
0.019652
0.019652
0.019652
0.019652
0.019652
0.019652
0.019652
0.019652
0.019652
0.019652
0.019652
0.019652
0.019652
0.019652
0.019652
0.019652
0.019652
0.019652
0.019652
0.019652
0.019652
0.019652
0.019652
0.0196521
0.0196522
0.0196523
0.0196526
0.019653
0.0196538
0.019655
0.019657
0.0196605
0.0196662
0.0196756
0.0196907
0.0197143
0.0197485
0.0197945
0.0198512
0.022332
0.0209848
0.0202898
0.0199476
0.0197715
0.0196955
0.0196658
0.0196559
0.019653
0.0196522
0.019652
0.019652
0.019652
0.019652
0.019652
0.019652
0.019652
0.019652
0.019652
0.019652
0.019652
0.019652
0.019652
0.019652
0.019652
0.019652
0.019652
0.019652
0.019652
0.019652
0.019652
0.019652
0.019652
0.019652
0.019652
0.019652
0.019652
0.019652
0.019652
0.019652
0.019652
0.019652
0.019652
0.019652
0.0196521
0.0196522
0.0196523
0.0196526
0.019653
0.0196538
0.019655
0.0196571
0.0196605
0.0196663
0.0196759
0.0196915
0.0197162
0.0197527
0.0198028
0.019868
0.022332
0.0209848
0.0202898
0.0199476
0.0197715
0.0196955
0.0196658
0.0196559
0.019653
0.0196522
0.019652
0.019652
0.019652
0.019652
0.019652
0.019652
0.019652
0.019652
0.019652
0.019652
0.019652
0.019652
0.019652
0.019652
0.019652
0.019652
0.019652
0.019652
0.019652
0.019652
0.019652
0.019652
0.019652
0.019652
0.019652
0.019652
0.019652
0.019652
0.019652
0.019652
0.019652
0.019652
0.019652
0.019652
0.0196521
0.0196522
0.0196523
0.0196526
0.019653
0.0196538
0.019655
0.0196571
0.0196606
0.0196664
0.0196762
0.0196923
0.0197183
0.0197575
0.0198125
0.0198887
0.0223319
0.0209849
0.0202898
0.0199476
0.0197715
0.0196955
0.0196658
0.0196559
0.019653
0.0196522
0.019652
0.019652
0.019652
0.019652
0.019652
0.019652
0.019652
0.019652
0.019652
0.019652
0.019652
0.019652
0.019652
0.019652
0.019652
0.019652
0.019652
0.019652
0.019652
0.019652
0.019652
0.019652
0.019652
0.019652
0.019652
0.019652
0.019652
0.019652
0.019652
0.019652
0.019652
0.019652
0.019652
0.019652
0.0196521
0.0196522
0.0196523
0.0196526
0.019653
0.0196538
0.019655
0.0196571
0.0196606
0.0196666
0.0196766
0.0196932
0.0197206
0.0197629
0.0198236
0.0199142
0.0223319
0.0209849
0.0202899
0.0199477
0.0197715
0.0196955
0.0196658
0.0196559
0.019653
0.0196522
0.019652
0.019652
0.019652
0.019652
0.019652
0.019652
0.019652
0.019652
0.019652
0.019652
0.019652
0.019652
0.019652
0.019652
0.019652
0.019652
0.019652
0.019652
0.019652
0.019652
0.019652
0.019652
0.019652
0.019652
0.019652
0.019652
0.019652
0.019652
0.019652
0.019652
0.019652
0.019652
0.019652
0.019652
0.0196521
0.0196522
0.0196523
0.0196526
0.019653
0.0196538
0.019655
0.0196571
0.0196607
0.0196667
0.019677
0.0196942
0.0197231
0.0197691
0.0198366
0.019946
0.0223318
0.020985
0.0202899
0.0199477
0.0197716
0.0196955
0.0196658
0.0196559
0.019653
0.0196522
0.019652
0.019652
0.019652
0.019652
0.019652
0.019652
0.019652
0.019652
0.019652
0.019652
0.019652
0.019652
0.019652
0.019652
0.019652
0.019652
0.019652
0.019652
0.019652
0.019652
0.019652
0.019652
0.019652
0.019652
0.019652
0.019652
0.019652
0.019652
0.019652
0.019652
0.019652
0.019652
0.019652
0.019652
0.0196521
0.0196522
0.0196523
0.0196526
0.019653
0.0196538
0.019655
0.0196571
0.0196607
0.0196669
0.0196773
0.0196952
0.0197258
0.0197761
0.0198516
0.019986
0.0223318
0.020985
0.02029
0.0199478
0.0197716
0.0196955
0.0196658
0.0196559
0.019653
0.0196522
0.019652
0.019652
0.019652
0.019652
0.019652
0.019652
0.019652
0.019652
0.019652
0.019652
0.019652
0.019652
0.019652
0.019652
0.019652
0.019652
0.019652
0.019652
0.019652
0.019652
0.019652
0.019652
0.019652
0.019652
0.019652
0.019652
0.019652
0.019652
0.019652
0.019652
0.019652
0.019652
0.019652
0.019652
0.0196521
0.0196522
0.0196523
0.0196526
0.019653
0.0196538
0.019655
0.0196572
0.0196608
0.019667
0.0196777
0.0196962
0.0197287
0.0197839
0.0198691
0.0200371
0.0223317
0.0209851
0.0202901
0.0199479
0.0197716
0.0196955
0.0196658
0.0196559
0.019653
0.0196522
0.019652
0.019652
0.019652
0.019652
0.019652
0.019652
0.019652
0.019652
0.019652
0.019652
0.019652
0.019652
0.019652
0.019652
0.019652
0.019652
0.019652
0.019652
0.019652
0.019652
0.019652
0.019652
0.019652
0.019652
0.019652
0.019652
0.019652
0.019652
0.019652
0.019652
0.019652
0.019652
0.019652
0.019652
0.0196521
0.0196522
0.0196523
0.0196526
0.019653
0.0196538
0.019655
0.0196572
0.0196608
0.0196671
0.0196781
0.0196973
0.0197318
0.0197926
0.0198894
0.0201034
0.0223316
0.0209852
0.0202901
0.019948
0.0197717
0.0196955
0.0196658
0.0196559
0.019653
0.0196522
0.019652
0.019652
0.019652
0.019652
0.019652
0.019652
0.019652
0.019652
0.019652
0.019652
0.019652
0.019652
0.019652
0.019652
0.019652
0.019652
0.019652
0.019652
0.019652
0.019652
0.019652
0.019652
0.019652
0.019652
0.019652
0.019652
0.019652
0.019652
0.019652
0.019652
0.019652
0.019652
0.019652
0.019652
0.0196521
0.0196522
0.0196523
0.0196526
0.019653
0.0196538
0.019655
0.0196572
0.0196609
0.0196672
0.0196784
0.0196983
0.0197351
0.0198022
0.0199133
0.0201911
0.0223314
0.0209853
0.0202902
0.0199481
0.0197717
0.0196955
0.0196658
0.0196559
0.019653
0.0196522
0.019652
0.019652
0.019652
0.019652
0.019652
0.019652
0.019652
0.019652
0.019652
0.019652
0.019652
0.019652
0.019652
0.019652
0.019652
0.019652
0.019652
0.019652
0.019652
0.019652
0.019652
0.019652
0.019652
0.019652
0.019652
0.019652
0.019652
0.019652
0.019652
0.019652
0.019652
0.019652
0.019652
0.019652
0.0196521
0.0196522
0.0196523
0.0196526
0.019653
0.0196538
0.0196551
0.0196572
0.0196609
0.0196674
0.0196788
0.0196994
0.0197384
0.0198126
0.0199419
0.0203089
0.0223313
0.0209854
0.0202904
0.0199483
0.0197718
0.0196955
0.0196658
0.0196559
0.019653
0.0196522
0.019652
0.019652
0.019652
0.019652
0.019652
0.019652
0.019652
0.019652
0.019652
0.019652
0.019652
0.019652
0.019652
0.019652
0.019652
0.019652
0.019652
0.019652
0.019652
0.019652
0.019652
0.019652
0.019652
0.019652
0.019652
0.019652
0.019652
0.019652
0.019652
0.019652
0.019652
0.019652
0.019652
0.019652
0.0196521
0.0196522
0.0196523
0.0196526
0.019653
0.0196538
0.0196551
0.0196572
0.019661
0.0196675
0.0196791
0.0197003
0.0197419
0.0198236
0.0199773
0.0204726
0.0223311
0.0209857
0.0202906
0.0199485
0.019772
0.0196957
0.0196659
0.019656
0.0196531
0.0196523
0.0196521
0.0196521
0.0196521
0.0196521
0.0196521
0.0196521
0.0196521
0.0196521
0.0196521
0.0196521
0.0196521
0.0196521
0.0196521
0.0196521
0.0196521
0.0196521
0.0196521
0.0196521
0.0196521
0.0196521
0.0196521
0.0196521
0.0196521
0.0196521
0.0196521
0.0196521
0.0196521
0.0196521
0.0196521
0.0196521
0.0196521
0.0196521
0.0196521
0.0196521
0.0196522
0.0196523
0.0196524
0.0196527
0.0196531
0.0196539
0.0196552
0.0196573
0.0196611
0.0196677
0.0196795
0.0197013
0.0197456
0.0198348
0.0200228
0.0207075
0.0223322
0.020989
0.0202948
0.0199529
0.0197762
0.0196998
0.01967
0.0196602
0.0196572
0.0196564
0.0196562
0.0196562
0.0196562
0.0196562
0.0196562
0.0196562
0.0196562
0.0196562
0.0196562
0.0196562
0.0196562
0.0196562
0.0196562
0.0196562
0.0196562
0.0196562
0.0196562
0.0196562
0.0196562
0.0196562
0.0196562
0.0196562
0.0196562
0.0196562
0.0196562
0.0196562
0.0196562
0.0196562
0.0196562
0.0196562
0.0196562
0.0196562
0.0196562
0.0196563
0.0196563
0.0196564
0.0196565
0.0196568
0.0196572
0.019658
0.0196593
0.0196614
0.0196652
0.0196718
0.0196838
0.019706
0.0197531
0.0198494
0.0200909
0.0210021
0.0223856
0.0210981
0.0204266
0.0200887
0.0199126
0.0198368
0.0198069
0.0197968
0.0197938
0.019793
0.0197928
0.0197927
0.0197927
0.0197927
0.0197927
0.0197927
0.0197927
0.0197927
0.0197927
0.0197927
0.0197927
0.0197927
0.0197927
0.0197927
0.0197927
0.0197927
0.0197927
0.0197927
0.0197927
0.0197927
0.0197927
0.0197927
0.0197927
0.0197927
0.0197927
0.0197927
0.0197927
0.0197927
0.0197927
0.0197927
0.0197927
0.0197927
0.0197927
0.0197927
0.0197928
0.0197928
0.019793
0.0197932
0.0197936
0.0197943
0.0197955
0.0197976
0.0198012
0.0198077
0.0198195
0.0198415
0.0198902
0.0199893
0.0203066
0.0216417
0.0241645
0.0241222
0.023958
0.0237427
0.0235942
0.0235378
0.0235117
0.0234996
0.023496
0.0234952
0.0234947
0.0234944
0.0234943
0.0234943
0.0234942
0.0234942
0.0234942
0.0234942
0.0234942
0.0234942
0.0234942
0.0234942
0.0234942
0.0234942
0.0234942
0.0234942
0.0234942
0.0234943
0.0234943
0.0234943
0.0234943
0.0234944
0.0234944
0.0234945
0.0234945
0.0234946
0.0234948
0.023495
0.0234952
0.0234955
0.0234959
0.0234964
0.023497
0.0234979
0.023499
0.0235005
0.0235024
0.023505
0.0235085
0.0235131
0.0235194
0.023528
0.0235399
0.023557
0.0235821
0.0236199
0.0236862
0.0237988
0.0241243
0.0268153
0.0854882
0.102861
0.114362
0.117118
0.117124
0.11754
0.117775
0.117738
0.117715
0.117724
0.117726
0.117724
0.117724
0.117724
0.117724
0.117724
0.117724
0.117724
0.117724
0.117724
0.117724
0.117724
0.117724
0.117725
0.117725
0.117726
0.117726
0.117727
0.117728
0.11773
0.117731
0.117734
0.117737
0.117741
0.117746
0.117753
0.117761
0.117772
0.117787
0.117806
0.11783
0.117862
0.117903
0.117957
0.118026
0.118116
0.118232
0.118384
0.118581
0.118837
0.11917
0.119604
0.120173
0.12092
0.121905
0.123226
0.124944
0.127682
0.129537
0.140025
0.0974585
0.109674
0.119256
0.125348
0.129597
0.132741
0.135043
0.136695
0.137871
0.138689
0.139235
0.139574
0.139714
0.13964
0.139348
0.138715
0.137049
0.137271
0.14058
0.14444
0.147108
0.1488
0.150036
0.151078
0.15206
0.153128
0.154459
0.156293
0.159058
0.163492
0.169792
0.181941
0.215546
0.237144
0.20014
0.181689
0.175059
0.170637
0.16705
0.16474
0.163341
0.162436
0.161819
0.161375
0.161024
0.160704
0.160363
0.159948
0.159393
0.158613
0.157509
0.155945
0.153728
0.150613
0.146351
0.140609
0.13314
0.123141
0.111608
0.086873
0.027604
0.0251484
0.0243481
0.0242401
0.0243136
0.0244071
0.0244885
0.0245532
0.0246037
0.0246427
0.0246712
0.0246906
0.0247328
0.024814
0.0249273
0.0252481
0.0259968
0.0255724
0.0252097
0.0251324
0.0251493
0.0252009
0.0252489
0.0252872
0.0253185
0.025347
0.0253779
0.0254197
0.0254905
0.0256527