/*--------------------------------*- C++ -*----------------------------------*\
| =========                 |                                                 |
| \\      /  F ield         | OpenFOAM: The Open Source CFD Toolbox           |
|  \\    /   O peration     | Version:  2.4.0                                 |
|   \\  /    A nd           | Web:      www.OpenFOAM.org                      |
|    \\/     M anipulation  |                                                 |
\*---------------------------------------------------------------------------*/
FoamFile
{
    version     2.0;
    format      ascii;
    class       volScalarField;
    location    "500";
    object      omega;
}
// * * * * * * * * * * * * * * * * * * * * * * * * * * * * * * * * * * * * * //

dimensions      [0 0 -1 0 0 0 0];

internalField   nonuniform List<scalar> 
12225
(
39968.7
42088.1
43448.9
44253.8
44680.6
44857.2
44874.2
44788.8
44643.3
44461.5
44263.1
44056.6
43852.3
43651.8
43461.8
43280.5
43114.5
42960.4
4192.03
7001.54
9109.57
10679.8
11837.4
12681.4
13295.9
13744.6
14073.2
14315.8
14494.9
14628
14725.1
14795.6
14843.7
14873.8
14880.7
14841.3
829.823
1350.07
1837.74
2284.32
2688.13
3046.94
3363.12
3640.48
3883.38
4095.97
4282.18
4445.3
4588.21
4712.92
4821.12
4912.8
4986.31
5038.09
418.257
546.29
679.816
811.56
938.715
1059.3
1172.41
1277.82
1375.61
1465.98
1549.3
1625.92
1696.22
1760.47
1818.87
1871.26
1917.16
1955.65
338.518
376.113
420.421
467.381
514.908
561.73
607.105
650.635
692.105
731.408
768.507
803.405
836.128
866.692
895.103
921.299
945.162
966.386
319.214
329.655
344.32
361.635
380.453
399.96
419.606
439.034
458.011
476.385
494.057
510.966
527.073
542.349
556.772
570.309
582.923
594.468
314.506
316.465
320.316
325.761
332.424
339.942
348.01
356.39
364.9
373.405
381.805
390.025
398.011
405.721
413.122
420.185
426.885
433.134
313.551
313.387
314.042
315.532
317.78
320.661
324.039
327.787
331.793
335.964
340.222
344.507
348.77
352.97
357.075
361.06
364.899
368.524
313.296
312.471
311.983
311.888
312.201
312.901
313.949
315.292
316.879
318.656
320.577
322.601
324.691
326.817
328.953
331.075
333.165
335.174
313.224
312.19
311.293
310.562
310.019
309.671
309.518
309.548
309.746
310.093
310.568
311.15
311.821
312.561
313.354
314.185
315.04
315.89
313.206
312.117
311.101
310.165
309.319
308.567
307.913
307.358
306.899
306.533
306.253
306.052
305.923
305.857
305.847
305.885
305.963
306.069
313.2
312.099
311.054
310.066
309.134
308.26
307.444
306.684
305.982
305.336
304.743
304.203
303.712
303.266
302.865
302.502
302.177
301.887
313.198
312.093
311.041
310.041
309.091
308.187
307.329
306.515
305.744
305.013
304.322
303.669
303.052
302.47
301.921
301.404
300.916
300.461
313.196
312.09
311.036
310.033
309.078
308.168
307.301
306.475
305.688
304.937
304.222
303.541
302.891
302.272
301.681
301.118
300.582
300.076
313.195
312.088
311.033
310.028
309.071
308.159
307.29
306.461
305.67
304.915
304.195
303.507
302.85
302.222
301.623
301.05
300.502
299.984
313.195
312.086
311.031
310.025
309.067
308.154
307.283
306.453
305.66
304.904
304.182
303.492
302.833
302.204
301.602
301.027
300.477
299.956
313.194
312.086
311.029
310.023
309.065
308.151
307.279
306.448
305.655
304.897
304.174
303.484
302.824
302.193
301.591
301.014
300.464
299.943
313.194
312.085
311.029
310.023
309.063
308.149
307.277
306.446
305.652
304.894
304.171
303.48
302.819
302.189
301.586
301.009
300.458
299.937
313.194
312.085
311.029
310.023
309.064
308.15
307.278
306.446
305.653
304.895
304.171
303.481
302.82
302.19
301.587
301.011
300.46
299.939
313.195
312.086
311.03
310.025
309.066
308.152
307.281
306.45
305.658
304.901
304.179
303.49
302.832
302.204
301.604
301.031
300.484
299.967
313.195
312.087
311.033
310.028
309.072
308.162
307.295
306.47
305.685
304.938
304.227
303.552
302.91
302.3
301.721
301.171
300.649
300.158
313.197
312.091
311.042
310.047
309.107
308.22
307.386
306.604
305.873
305.191
304.556
303.968
303.422
302.918
302.453
302.024
301.629
301.271
313.203
312.118
311.111
310.192
309.368
308.642
308.016
307.487
307.053
306.707
306.443
306.254
306.132
306.07
306.062
306.1
306.179
306.293
313.259
312.333
311.64
311.213
311.06
311.176
311.537
312.118
312.886
313.811
314.864
316.019
317.251
318.541
319.87
321.224
322.589
323.949
313.715
313.895
315.022
317.041
319.827
323.224
327.084
331.273
335.683
340.224
344.825
349.43
353.997
358.494
362.896
367.187
371.352
375.367
316.993
323.353
332.747
344.216
356.98
370.454
384.22
397.993
411.581
424.852
437.723
450.139
462.069
473.498
484.422
494.845
504.776
514.2
337.873
373.412
414.742
458.155
501.718
544.33
585.404
624.663
661.981
697.316
730.682
762.13
791.727
819.554
845.699
870.254
893.309
914.924
474.103
653.685
829.929
996.576
1151.99
1295.5
1427.48
1548.74
1660.04
1762.09
1855.6
1941.26
2019.71
2091.57
2157.41
2217.75
2273.09
2323.86
1698.02
2779.22
3668.16
4411.92
5034.04
5552.79
5988.08
6356.3
6668.87
6934.81
7161.36
7354.56
7519.44
7660.17
7780.38
7882.99
7970.59
8045.19
21518.1
22540.6
23332.4
23932.4
24379.6
24707.9
24959.9
25159
25312.3
25426.6
25507.9
25561.7
25592.6
25604.9
25601.9
25586.7
25561.6
25529
11463.4
2496.77
2501.43
2504.77
2506.92
2509.39
2513.04
2517.7
2523.76
2537.42
2579.04
2643.53
2720.48
2800.79
2880.7
2958.68
3034.27
3107.31
3177.76
3245.72
3311.29
3374.64
3435.91
3495.25
3552.81
3608.74
3663.19
3716.3
3768.25
3819.15
3869.23
3918.74
3967.95
4016.8
4064.66
4111.61
4157.75
4203.16
4247.95
4292.2
4335.99
4379.41
4422.53
4465.41
4508.14
4550.76
4593.32
4635.88
4678.46
4721.11
4763.84
4806.68
4849.62
4892.69
4935.86
4979.14
5022.51
5065.94
5109.42
5152.9
5196.34
5239.72
5282.98
5326.08
5368.96
5411.58
5453.86
5495.77
5537.24
5578.21
5618.62
5658.42
5697.55
5735.96
5773.6
5810.43
5846.39
5881.44
5915.56
5948.72
5980.88
6012.05
6042.21
6071.44
6099.76
6127.3
6154.21
6180.01
6204.57
6227.89
6249.94
6270.7
6290.24
6308.67
6326.1
6342.65
6358.48
6373.78
6388.75
6403.63
6418.7
6434.27
6450.76
6468.67
6488.53
6510.53
6534.26
6559.95
6587.83
6618.12
6651.01
6686.66
6725.23
6766.84
6811.56
6859.44
6910.49
6964.69
7021.96
7082.2
7145.26
7210.96
7279.09
7349.41
7421.63
7495.47
7570.6
7646.68
7723.36
7800.29
7877.08
7953.38
8028.83
8103.1
8175.88
8246.94
8316.06
8383.14
8448.14
8511.43
8573.62
8635.61
8697.31
8754.6
8807.2
8855
8897.76
8935.25
8967.27
8993.64
9014.19
9028.77
9037.28
9039.56
9035.17
9022.86
9003.57
8977.24
8944.16
8904.41
8857.99
8805.16
8746.27
8681.3
8610.23
8532.86
8449.01
8359.69
8266.26
8176.45
8127.24
8118.56
8102.23
8078.2
8048.06
8008.96
7962.09
7902.06
7809.04
7623.53
11465.1
2729.37
1312.1
869.113
703.226
716.089
877.459
1071.49
1242.1
1382.52
1489.96
1566.04
1617.1
1650.13
1672.02
1687.35
1694.91
1696.38
1693.97
1689.29
1683.38
1676.9
1670.37
1664.12
1658.43
1653.49
1649.41
1646.27
1644.11
1642.95
1642.75
1643.57
1645.44
1648.27
1651.97
1656.45
1661.63
1667.48
1673.92
1680.91
1688.4
1696.34
1704.67
1713.35
1722.33
1731.56
1741
1750.6
1760.31
1770.1
1779.92
1789.74
1799.51
1809.21
1818.79
1828.24
1837.52
1846.61
1855.48
1864.12
1872.52
1880.66
1888.53
1896.12
1903.45
1910.49
1917.27
1923.79
1930.05
1936.08
1941.87
1947.47
1952.88
1958.12
1963.23
1968.22
1973.14
1978.02
1982.9
1987.84
1992.89
1998.14
2003.68
2009.59
2016.03
2023.11
2031.04
2039.22
2047.39
2055.57
2063.78
2072.07
2080.49
2089.07
2097.89
2107
2116.47
2126.39
2136.85
2147.95
2159.81
2172.57
2186.37
2201.37
2217.83
2236.03
2255.68
2276.36
2298.02
2320.61
2344.1
2368.42
2393.47
2419.16
2445.37
2471.98
2498.85
2525.82
2552.73
2579.4
2605.66
2631.34
2656.26
2680.22
2703.06
2724.63
2744.76
2763.32
2780.16
2795.19
2808.33
2819.54
2828.84
2836.23
2841.8
2845.7
2848.14
2849.48
2850.27
2850.87
2852.09
2854.99
2861.81
2868.11
2873.47
2877.88
2881.38
2884.01
2885.82
2886.86
2887.15
2886.7
2885.47
2883.33
2879.79
2873.72
2866
2857.37
2847.87
2837.54
2826.42
2814.6
2802.03
2788.61
2774.25
2758.79
2742
2723.83
2703.23
2684.63
2671.52
2663.74
2655.94
2648.36
2639.5
2631.64
2622.55
2617.87
2615.68
2644.75
11469.8
2507.55
1028.67
640.748
632.241
716.521
829.287
940.805
1035.7
1110.88
1167.12
1206.52
1231.81
1245.66
1250.26
1247.41
1238.96
1227.15
1213.75
1199.9
1186.32
1173.44
1161.55
1150.83
1141.37
1133.2
1126.31
1120.66
1116.2
1112.85
1110.54
1109.19
1108.72
1109.05
1110.1
1111.78
1114.05
1116.83
1120.06
1123.7
1127.7
1132.01
1136.58
1141.37
1146.35
1151.47
1156.71
1162.02
1167.39
1172.77
1178.15
1183.5
1188.79
1194.02
1199.16
1204.19
1209.11
1213.9
1218.56
1223.09
1227.48
1231.73
1235.84
1239.82
1243.67
1247.41
1251.04
1254.58
1258.04
1261.44
1264.78
1268.09
1271.39
1274.69
1278.01
1281.38
1284.82
1288.34
1291.99
1295.79
1299.77
1303.98
1308.46
1313.25
1318.4
1323.95
1329.94
1336.14
1342.48
1348.98
1355.66
1362.55
1369.66
1377.04
1384.7
1392.7
1401.06
1409.83
1419.05
1428.77
1439.05
1449.93
1461.45
1473.68
1486.69
1500.52
1515
1530.02
1545.55
1561.54
1577.94
1594.68
1611.71
1628.92
1646.24
1663.56
1680.78
1697.78
1714.46
1730.68
1746.35
1761.33
1775.52
1788.81
1801.11
1812.33
1822.41
1831.3
1838.94
1845.34
1850.5
1854.44
1857.25
1858.99
1859.79
1859.8
1859.21
1858.26
1857.22
1856.31
1855.89
1856.36
1857.78
1858.91
1859.65
1860.03
1860.1
1859.88
1859.39
1858.66
1857.7
1856.5
1855
1853.15
1850.85
1848.01
1844.78
1841.24
1837.36
1833.14
1828.57
1823.65
1818.28
1812.34
1805.68
1798.09
1789.22
1779.07
1767.7
1756.14
1745.53
1736.08
1726.71
1717.48
1707.82
1698.91
1689.97
1684.32
1682.75
1697.69
11477.8
1881.11
812.085
658.076
674.243
735.583
804.181
867.551
921.208
963.011
993.254
1012.96
1023.46
1026.06
1022.14
1013.36
1001.57
988.423
975.028
962.065
949.937
938.877
929.011
920.387
913.002
906.817
901.768
897.779
894.768
892.65
891.345
890.773
890.862
891.541
892.746
894.419
896.508
898.962
901.738
904.794
908.091
911.595
915.273
919.094
923.031
927.056
931.146
935.278
939.433
943.591
947.737
951.855
955.933
959.96
963.927
967.826
971.654
975.406
979.082
982.681
986.206
989.661
993.051
996.382
999.662
1002.9
1006.11
1009.3
1012.48
1015.66
1018.86
1022.09
1025.36
1028.69
1032.09
1035.57
1039.15
1042.84
1046.67
1050.64
1054.78
1059.11
1063.65
1068.43
1073.47
1078.79
1084.39
1090.18
1096.14
1102.27
1108.57
1115.07
1121.79
1128.73
1135.92
1143.39
1151.14
1159.21
1167.61
1176.38
1185.53
1195.09
1205.07
1215.49
1226.38
1237.75
1249.51
1261.58
1273.96
1286.6
1299.46
1312.49
1325.63
1338.82
1351.99
1365.07
1377.97
1390.61
1402.92
1414.8
1426.18
1436.98
1447.12
1456.55
1465.19
1473.02
1479.99
1486.08
1491.31
1495.66
1499.18
1501.92
1503.93
1505.3
1506.13
1506.54
1506.66
1506.64
1506.64
1506.78
1507.24
1508.21
1509.46
1510.59
1511.58
1512.45
1513.23
1513.92
1514.55
1515.11
1515.6
1516
1516.26
1516.34
1516.19
1515.81
1515.19
1514.3
1513.1
1511.53
1509.58
1507.2
1504.23
1500.5
1495.82
1489.84
1482.66
1474.17
1464.48
1454.04
1443.36
1432.67
1421.71
1410.6
1399.17
1388.07
1377.18
1368.51
1363.03
1365.99
11490.7
1821.11
828.268
684.719
688.979
727.665
770.243
807.586
837.6
860.102
875.738
884.585
887.351
884.737
877.843
868.063
856.814
845.205
833.941
823.429
813.892
805.438
798.104
791.877
786.713
782.552
779.32
776.942
775.341
774.444
774.179
774.481
775.289
776.547
778.203
780.211
782.528
785.115
787.936
790.96
794.155
797.495
800.955
804.512
808.146
811.836
815.566
819.32
823.084
826.847
830.597
834.326
838.025
841.69
845.315
848.898
852.437
855.932
859.386
862.799
866.176
869.523
872.845
876.148
879.441
882.733
886.031
889.347
892.689
896.067
899.492
902.973
906.52
910.142
913.85
917.651
921.556
925.573
929.713
933.986
938.404
942.98
947.728
952.663
957.796
963.149
968.709
974.429
980.297
986.313
992.484
998.819
1005.33
1012.02
1018.92
1026.02
1033.35
1040.91
1048.72
1056.79
1065.15
1073.78
1082.72
1091.95
1101.5
1111.35
1121.51
1131.87
1142.42
1153.14
1164
1174.95
1185.94
1196.94
1207.88
1218.71
1229.37
1239.79
1249.92
1259.69
1269.04
1277.92
1286.28
1294.07
1301.25
1307.81
1313.73
1319
1323.64
1327.65
1331.09
1333.98
1336.39
1338.39
1340.07
1341.5
1342.8
1344.06
1345.37
1346.83
1348.52
1350.63
1352.84
1355.05
1357.25
1359.45
1361.67
1363.89
1366.13
1368.37
1370.59
1372.77
1374.85
1376.79
1378.53
1380.05
1381.32
1382.26
1382.8
1382.83
1382.34
1381.36
1379.52
1376.57
1372.28
1366.59
1359.44
1350.87
1341.01
1330.17
1318.62
1306.56
1293.97
1280.98
1267.58
1254.29
1241.18
1229.79
1220.8
1216.59
11501.6
1834.91
850.071
696.627
685.635
706.995
733.039
755.597
772.624
784.052
790.39
792.409
790.881
785.989
778.557
769.518
759.857
750.311
741.335
733.177
725.961
719.73
714.48
710.177
706.77
704.196
702.388
701.279
700.803
700.896
701.499
702.558
704.021
705.841
707.975
710.385
713.035
715.892
718.928
722.114
725.428
728.846
732.35
735.921
739.542
743.201
746.883
750.578
754.277
757.971
761.653
765.318
768.963
772.584
776.18
779.751
783.297
786.821
790.325
793.813
797.291
800.762
804.234
807.713
811.206
814.722
818.267
821.85
825.479
829.162
832.908
836.722
840.613
844.588
848.653
852.813
857.074
861.441
865.921
870.518
875.241
880.095
885.09
890.234
895.536
901.022
906.656
912.417
918.299
924.299
930.423
936.675
943.062
949.592
956.272
963.11
970.115
977.297
984.664
992.225
999.989
1007.96
1016.16
1024.57
1033.2
1042.07
1051.15
1060.41
1069.8
1079.32
1088.93
1098.6
1108.3
1117.98
1127.61
1137.14
1146.52
1155.71
1164.66
1173.31
1181.64
1189.59
1197.13
1204.22
1210.85
1217
1222.67
1227.85
1232.56
1236.83
1240.67
1244.14
1247.29
1250.17
1252.85
1255.41
1257.92
1260.45
1263.08
1265.88
1268.92
1272.28
1275.76
1279.3
1282.9
1286.58
1290.32
1294.11
1297.96
1301.83
1305.69
1309.51
1313.22
1316.78
1320.1
1323.15
1325.9
1328.27
1330.06
1331.14
1331.41
1330.72
1328.78
1325.43
1320.53
1314.06
1306.03
1296.53
1285.73
1273.84
1261.07
1247.59
1233.44
1218.81
1203.79
1188.83
1174.12
1160.77
1149.19
1140.6
11520
1866.22
865.56
696.858
672.011
680.678
695.599
708.872
718.339
723.709
725.333
723.772
719.653
713.715
706.58
698.699
690.708
683.051
676.024
669.786
664.407
659.901
656.25
653.415
651.345
649.984
649.272
649.152
649.565
650.459
651.781
653.484
655.525
657.863
660.46
663.284
666.302
669.486
672.812
676.256
679.797
683.416
687.098
690.826
694.589
698.374
702.173
705.977
709.78
713.576
717.361
721.134
724.891
728.633
732.361
736.076
739.781
743.478
747.172
750.867
754.569
758.284
762.017
765.774
769.563
773.39
777.262
781.185
785.167
789.214
793.331
797.525
801.801
806.163
810.615
815.161
819.803
824.543
829.384
834.329
839.38
844.541
849.818
855.215
860.741
866.4
872.166
878.025
883.971
890.004
896.124
902.336
908.643
915.051
921.566
928.194
934.942
941.817
948.826
955.978
963.279
970.738
978.361
986.152
994.114
1002.25
1010.56
1019.03
1027.62
1036.31
1045.07
1053.89
1062.73
1071.57
1080.36
1089.08
1097.69
1106.15
1114.42
1122.47
1130.26
1137.77
1144.95
1151.8
1158.29
1164.42
1170.17
1175.57
1180.63
1185.36
1189.79
1193.96
1197.92
1201.72
1205.41
1209.05
1212.7
1216.44
1220.31
1224.38
1228.72
1233.33
1238.08
1242.95
1247.93
1253.02
1258.2
1263.45
1268.76
1274.09
1279.41
1284.66
1289.8
1294.73
1299.33
1303.53
1307.25
1310.34
1312.61
1313.85
1313.89
1312.44
1309.37
1304.64
1298.24
1290.24
1280.7
1269.75
1257.55
1244.29
1230.14
1215.24
1199.71
1183.75
1167.52
1151.44
1135.72
1121.16
1107.93
1096.71
11536.5
1901.75
875.636
690.352
653.405
652.552
659.83
667.005
671.726
673.549
672.686
669.588
664.785
658.812
652.184
645.416
638.855
632.744
627.273
622.537
618.575
615.389
612.956
611.24
610.193
609.767
609.909
610.569
611.697
613.245
615.17
617.429
619.984
622.797
625.836
629.07
632.472
636.015
639.676
643.435
647.273
651.173
655.121
659.103
663.11
667.131
671.159
675.187
679.212
683.231
687.24
691.239
695.229
699.211
703.187
707.16
711.134
715.114
719.103
723.108
727.134
731.186
735.271
739.394
743.561
747.779
752.052
756.387
760.79
765.263
769.814
774.444
779.158
783.958
788.846
793.822
798.888
804.043
809.286
814.618
820.039
825.549
831.149
836.842
842.636
848.51
854.449
860.442
866.486
872.578
878.718
884.91
891.156
897.46
903.828
910.266
916.779
923.374
930.06
936.845
943.736
950.744
957.875
965.137
972.534
980.072
987.753
995.58
1003.53
1011.58
1019.7
1027.88
1036.1
1044.32
1052.53
1060.69
1068.79
1076.78
1084.63
1092.33
1099.83
1107.13
1114.19
1121
1127.55
1133.82
1139.82
1145.56
1151.06
1156.31
1161.37
1166.25
1171
1175.67
1180.3
1184.94
1189.65
1194.48
1199.48
1204.72
1210.25
1216.02
1221.96
1228.06
1234.28
1240.64
1247.11
1253.66
1260.24
1266.82
1273.32
1279.69
1285.86
1291.67
1296.98
1301.67
1305.49
1308.27
1309.8
1309.84
1308.24
1304.84
1299.69
1292.84
1284.38
1274.39
1263
1250.34
1236.57
1221.83
1206.29
1190.11
1173.45
1156.51
1139.49
1122.75
1106.5
1091.34
1077.27
1064.64
11549.3
1939.93
883.295
680.967
633.129
624.709
626.507
629.634
631.399
631.176
629.059
625.395
620.612
615.143
609.382
603.669
598.271
593.391
589.134
585.559
582.688
580.514
579.015
578.157
577.9
578.201
579.015
580.299
582.008
584.101
586.538
589.282
592.297
595.552
599.014
602.656
606.451
610.377
614.41
618.533
622.726
626.975
631.265
635.586
639.927
644.279
648.638
652.996
657.352
661.703
666.049
670.389
674.727
679.063
683.403
687.749
692.106
696.48
700.877
705.3
709.758
714.254
718.795
723.386
728.032
732.738
737.509
742.35
747.263
752.252
757.321
762.47
767.702
773.018
778.416
783.896
789.455
795.092
800.803
806.585
812.436
818.354
824.337
830.384
836.482
842.609
848.755
854.911
861.073
867.237
873.405
879.577
885.757
891.95
898.159
904.392
910.656
916.957
923.306
929.712
936.185
942.738
949.381
956.123
962.975
969.942
977.032
984.251
991.6
999.061
1006.61
1014.24
1021.92
1029.63
1037.35
1045.07
1052.76
1060.4
1067.95
1075.41
1082.74
1089.93
1096.96
1103.82
1110.49
1116.97
1123.27
1129.38
1135.33
1141.11
1146.76
1152.31
1157.79
1163.25
1168.73
1174.27
1179.92
1185.74
1191.77
1198.05
1204.65
1211.46
1218.45
1225.6
1232.88
1240.29
1247.8
1255.35
1262.88
1270.3
1277.53
1284.47
1290.93
1296.71
1301.63
1305.57
1308.12
1309.12
1308.44
1305.98
1301.75
1295.79
1288.18
1279
1268.33
1256.27
1242.95
1228.51
1213.09
1196.85
1179.95
1162.59
1144.94
1127.23
1109.65
1092.52
1076.01
1060.61
1046.21
1033.03
11557.3
1981.09
890.875
671.257
613.236
598.363
595.951
596.283
596.219
594.895
592.265
588.569
584.142
579.321
574.412
569.669
565.286
561.397
558.091
555.416
553.383
551.987
551.207
551.011
551.367
552.238
553.586
555.372
557.559
560.11
562.99
566.165
569.603
573.275
577.151
581.205
585.412
589.751
594.199
598.739
603.352
608.023
612.74
617.491
622.266
627.057
631.857
636.664
641.473
646.283
651.094
655.908
660.726
665.553
670.392
675.248
680.127
685.033
689.974
694.954
699.979
705.055
710.186
715.378
720.636
725.961
731.359
736.83
742.378
748.004
753.71
759.494
765.356
771.295
777.309
783.393
789.543
795.755
802.023
808.341
814.706
821.11
827.552
834.005
840.449
846.867
853.247
859.583
865.87
872.105
878.287
884.419
890.504
896.547
902.555
908.534
914.494
920.444
926.395
932.361
938.354
944.391
950.485
956.651
962.902
969.248
975.702
982.274
988.973
995.803
1002.75
1009.81
1016.94
1024.14
1031.38
1038.66
1045.96
1053.26
1060.53
1067.76
1074.94
1082.04
1089.06
1095.97
1102.77
1109.45
1116.03
1122.49
1128.86
1135.14
1141.35
1147.52
1153.67
1159.83
1166.05
1172.37
1178.82
1185.48
1192.37
1199.55
1207
1214.65
1222.45
1230.39
1238.44
1246.56
1254.7
1262.74
1270.58
1278.1
1285.18
1291.7
1297.33
1301.82
1305.01
1306.74
1306.83
1305.17
1301.71
1296.47
1289.54
1281.01
1270.97
1259.48
1246.62
1232.5
1217.23
1200.96
1183.85
1166.06
1147.78
1129.23
1110.6
1092.12
1073.98
1056.47
1039.73
1024.19
1009.67
996.353
11559.8
2026.58
900.183
662.908
595.013
574.231
568.276
566.514
565.274
563.4
560.677
557.232
553.309
549.166
545.041
541.132
537.587
534.512
531.974
530.006
528.624
527.825
527.595
527.911
528.745
530.065
531.84
534.038
536.626
539.574
542.849
546.423
550.266
554.35
558.649
563.139
567.795
572.596
577.522
582.553
587.672
592.864
598.114
603.412
608.747
614.11
619.496
624.898
630.315
635.744
641.185
646.64
652.112
657.602
663.117
668.661
674.238
679.856
685.52
691.235
697.006
702.84
708.739
714.708
720.749
726.865
733.057
739.326
745.672
752.094
758.59
765.159
771.796
778.499
785.262
792.078
798.941
805.844
812.78
819.74
826.716
833.702
840.673
847.582
854.41
861.143
867.771
874.286
880.683
886.96
893.118
899.159
905.087
910.908
916.631
922.267
927.826
933.321
938.767
944.18
949.579
954.983
960.411
965.883
971.418
977.031
982.736
988.553
994.498
1000.58
1006.81
1013.18
1019.68
1026.28
1032.98
1039.76
1046.61
1053.5
1060.44
1067.41
1074.38
1081.35
1088.31
1095.23
1102.12
1108.97
1115.77
1122.52
1129.23
1135.92
1142.6
1149.27
1155.95
1162.69
1169.5
1176.42
1183.49
1190.76
1198.26
1206.03
1214.02
1222.15
1230.38
1238.67
1246.96
1255.21
1263.33
1271.1
1278.41
1285.09
1290.99
1295.94
1299.68
1302.02
1302.79
1301.9
1299.28
1294.9
1288.76
1280.92
1271.47
1260.51
1248.12
1234.37
1219.35
1203.14
1185.9
1167.75
1148.89
1129.5
1109.8
1090
1070.32
1050.99
1032.2
1014.22
997.148
981.388
966.73
953.376
11556.5
2078.48
912.917
657.201
579.347
552.781
543.524
539.98
537.888
535.749
533.146
530.081
526.707
523.218
519.8
516.607
513.761
511.348
509.425
508.024
507.159
506.83
507.028
507.741
508.949
510.631
512.76
515.311
518.256
521.57
525.226
529.198
533.459
537.985
542.751
547.735
552.912
558.263
563.766
569.402
575.155
581.006
586.943
592.951
599.019
605.139
611.301
617.501
623.733
629.996
636.288
642.609
648.962
655.348
661.773
668.24
674.754
681.32
687.943
694.629
701.381
708.204
715.1
722.071
729.119
736.244
743.445
750.72
758.065
765.479
772.955
780.489
788.075
795.706
803.372
811.066
818.779
826.501
834.224
841.938
849.632
857.293
864.829
872.219
879.442
886.486
893.339
899.994
906.447
912.698
918.748
924.6
930.263
935.741
941.048
946.198
951.206
956.089
960.867
965.562
970.196
974.796
979.386
983.993
988.64
993.348
998.137
1003.03
1008.07
1013.23
1018.56
1024.08
1029.78
1035.65
1041.66
1047.82
1054.1
1060.49
1067
1073.59
1080.26
1087
1093.79
1100.63
1107.5
1114.38
1121.27
1128.17
1135.07
1141.98
1148.91
1155.86
1162.85
1169.89
1177.01
1184.24
1191.61
1199.15
1206.88
1214.83
1222.9
1231.03
1239.16
1247.23
1255.16
1262.85
1270.17
1276.95
1283.02
1288.21
1292.35
1295.29
1296.85
1296.84
1295.16
1291.73
1286.55
1279.61
1270.95
1260.63
1248.77
1235.44
1220.75
1204.75
1187.55
1169.25
1150
1129.96
1109.34
1088.34
1067.19
1046.13
1025.37
1005.14
985.63
967.088
949.611
933.544
918.693
905.25
11548.8
2203.6
936.57
656.14
567.127
534.422
521.761
516.461
513.608
511.306
508.903
506.256
503.43
500.554
497.77
495.201
492.95
491.089
489.673
488.733
488.288
488.344
488.899
489.944
491.47
493.464
495.914
498.802
502.108
505.808
509.882
514.306
519.057
524.113
529.45
535.047
540.882
546.933
553.181
559.606
566.189
572.912
579.76
586.716
593.77
600.908
608.121
615.401
622.741
630.137
637.585
645.083
652.631
660.231
667.884
675.593
683.362
691.193
699.09
707.057
715.095
723.206
731.391
739.649
747.98
756.381
764.847
773.373
781.954
790.583
799.25
807.947
816.665
825.392
834.117
842.827
851.514
860.168
868.781
877.345
885.849
894.172
902.26
910.095
917.658
924.937
931.922
938.605
944.987
951.067
956.851
962.345
967.564
972.509
977.196
981.65
985.89
989.938
993.822
997.569
1001.21
1004.78
1008.3
1011.82
1015.35
1018.93
1022.59
1026.34
1030.24
1034.28
1038.49
1042.91
1047.58
1052.49
1057.63
1062.97
1068.51
1074.25
1080.16
1086.23
1092.43
1098.76
1105.2
1111.74
1118.35
1125.01
1131.73
1138.48
1145.27
1152.09
1158.92
1165.79
1172.7
1179.67
1186.7
1193.83
1201.08
1208.47
1216.02
1223.69
1231.4
1239.08
1246.66
1254.05
1261.16
1267.87
1274.03
1279.49
1284.05
1287.55
1289.82
1290.71
1290.06
1287.74
1283.65
1277.75
1270.06
1260.61
1249.45
1236.69
1222.43
1206.76
1189.77
1171.55
1152.19
1131.82
1110.59
1088.71
1066.37
1043.82
1021.3
999.031
977.241
956.161
935.955
916.867
898.982
882.596
867.533
853.965
11539.3
2396.58
997.367
667.595
560.91
520.108
503.335
495.986
492.254
489.749
487.532
485.294
482.994
480.698
478.501
476.503
474.785
473.416
472.446
471.911
471.836
472.237
473.123
474.496
476.355
478.694
481.507
484.79
488.538
492.733
497.356
502.384
507.796
513.572
519.688
526.126
532.863
539.879
547.153
554.664
562.392
570.319
578.425
586.694
595.111
603.66
612.329
621.106
629.98
638.942
647.984
657.101
666.29
675.547
684.871
694.262
703.718
713.24
722.828
732.481
742.197
751.975
761.811
771.701
781.639
791.619
801.633
811.673
821.728
831.789
841.842
851.875
861.873
871.82
881.701
891.503
901.219
910.842
920.37
929.802
939.013
947.868
956.354
964.458
972.166
979.466
986.351
992.817
998.867
1004.51
1009.75
1014.6
1019.07
1023.17
1026.94
1030.4
1033.56
1036.47
1039.15
1041.65
1043.99
1046.23
1048.39
1050.52
1052.65
1054.81
1057.04
1059.38
1061.87
1064.5
1067.34
1070.41
1073.77
1077.48
1081.5
1085.79
1090.35
1095.17
1100.21
1105.45
1110.86
1116.44
1122.17
1128.02
1133.98
1140.03
1146.16
1152.36
1158.64
1164.96
1171.33
1177.75
1184.21
1190.74
1197.34
1204.02
1210.82
1217.74
1224.79
1231.89
1238.96
1245.93
1252.71
1259.2
1265.29
1270.86
1275.73
1279.74
1282.7
1284.42
1284.74
1283.5
1280.57
1275.85
1269.26
1260.8
1250.53
1238.52
1224.85
1209.65
1193.01
1175.04
1155.83
1135.46
1114.02
1091.67
1068.58
1044.96
1021.05
997.102
973.347
950.025
927.353
905.555
884.78
865.259
847.071
830.453
815.242
801.578
11526.6
2614.32
1088.48
696.125
564.514
512.234
489.633
479.315
474.197
471.211
469.026
467.104
465.266
463.493
461.833
460.355
459.127
458.212
457.663
457.521
457.824
458.599
459.87
461.656
463.972
466.828
470.225
474.153
478.61
483.598
489.099
495.088
501.541
508.435
515.749
523.465
531.563
540.021
548.819
557.935
567.347
577.034
586.974
597.149
607.54
618.128
628.893
639.815
650.877
662.063
673.356
684.746
696.22
707.77
719.387
731.065
742.794
754.57
766.384
778.229
790.097
801.979
813.865
825.745
837.608
849.44
861.231
872.969
884.641
896.236
907.74
919.136
930.403
941.521
952.473
963.249
973.849
984.282
994.559
1004.56
1014.06
1023.04
1031.51
1039.46
1046.88
1053.76
1060.1
1065.91
1071.18
1075.94
1080.21
1083.98
1087.28
1090.13
1092.57
1094.62
1096.31
1097.68
1098.77
1099.63
1100.3
1100.83
1101.27
1101.66
1102.04
1102.42
1102.88
1103.47
1104.24
1105.23
1106.46
1107.95
1109.72
1111.86
1114.38
1117.22
1120.37
1123.8
1127.47
1131.38
1135.51
1139.86
1144.39
1149.11
1153.97
1158.99
1164.13
1169.4
1174.79
1180.28
1185.85
1191.51
1197.25
1203.07
1208.98
1214.99
1221.12
1227.39
1233.74
1240.08
1246.35
1252.46
1258.3
1263.76
1268.71
1272.99
1276.42
1278.82
1279.98
1279.7
1277.83
1274.23
1268.78
1261.41
1252.13
1240.98
1228.07
1213.49
1197.36
1179.8
1160.91
1140.78
1119.49
1097.11
1073.76
1049.6
1024.82
999.674
974.398
949.259
924.494
900.326
876.985
854.687
833.539
813.785
795.498
778.878
763.791
750.314
11511.6
2811.53
1196.32
739.217
578.03
511.444
481.343
467.011
459.844
455.955
453.536
451.76
450.274
448.957
447.794
446.823
446.098
445.679
445.625
445.991
446.828
448.182
450.095
452.608
455.755
459.564
464.056
469.235
475.086
481.576
488.684
496.386
504.638
513.419
522.714
532.508
542.787
553.531
564.717
576.323
588.323
600.691
613.404
626.44
639.777
653.383
667.223
681.26
695.462
709.798
724.241
738.767
753.352
767.976
782.618
797.261
811.886
826.475
841.011
855.476
869.854
884.126
898.275
912.282
926.13
939.803
953.284
966.563
979.633
992.49
1005.13
1017.53
1029.67
1041.51
1053.06
1064.31
1075.29
1086.04
1096.39
1106.08
1115.12
1123.49
1131.23
1138.32
1144.77
1150.59
1155.76
1160.3
1164.22
1167.55
1170.3
1172.49
1174.13
1175.27
1175.92
1176.11
1175.89
1175.3
1174.4
1173.22
1171.82
1170.26
1168.58
1166.84
1165.11
1163.44
1161.89
1160.46
1159.23
1158.27
1157.55
1157.07
1156.83
1156.84
1157.2
1157.95
1159.06
1160.49
1162.23
1164.27
1166.6
1169.21
1172.09
1175.23
1178.6
1182.2
1186.01
1190.01
1194.2
1198.57
1203.08
1207.74
1212.53
1217.44
1222.48
1227.64
1232.95
1238.41
1243.89
1249.32
1254.63
1259.71
1264.42
1268.64
1272.2
1274.92
1276.61
1277.04
1276.02
1273.35
1268.9
1262.56
1254.27
1244.06
1231.97
1218.12
1202.63
1185.63
1167.23
1147.53
1126.62
1104.55
1081.39
1057.22
1032.17
1006.42
980.196
953.762
927.36
901.277
875.764
850.985
827.242
804.771
783.732
764.278
746.422
730.289
715.745
702.816
11496.7
2937.67
1294.34
787.968
598.792
517.214
478.721
459.606
449.788
444.556
441.604
439.791
438.569
437.696
437.091
436.755
436.731
437.085
437.89
439.219
441.143
443.729
447.041
451.141
456.083
461.908
468.642
476.286
484.813
494.171
504.277
515.059
526.506
538.521
551.134
564.344
578.142
592.509
607.42
622.842
638.741
655.083
671.841
688.997
706.531
724.361
742.412
760.618
778.923
797.281
815.649
833.987
852.257
870.424
888.454
906.316
923.979
941.415
958.596
975.497
992.093
1008.36
1024.28
1039.83
1054.98
1069.73
1084.06
1097.96
1111.44
1124.55
1137.31
1149.71
1161.69
1173.19
1184.29
1195.01
1205.43
1215.25
1224.28
1232.56
1240.1
1246.92
1253.04
1258.47
1263.21
1267.27
1270.66
1273.38
1275.45
1276.9
1277.73
1277.98
1277.65
1276.78
1275.41
1273.59
1271.35
1268.72
1265.74
1262.45
1258.9
1255.14
1251.23
1247.22
1243.18
1239.24
1235.38
1231.61
1227.98
1224.52
1221.24
1218.16
1215.31
1212.68
1210.29
1208.3
1206.75
1205.61
1204.88
1204.54
1204.59
1205.02
1205.83
1207
1208.52
1210.36
1212.51
1214.95
1217.68
1220.66
1223.87
1227.3
1230.93
1234.74
1238.72
1242.87
1247.19
1251.6
1255.98
1260.27
1264.34
1268.08
1271.32
1273.91
1275.65
1276.34
1275.76
1273.7
1269.98
1264.44
1257.01
1247.64
1236.38
1223.3
1208.52
1192.18
1174.41
1155.31
1134.97
1113.45
1090.8
1067.06
1042.28
1016.55
990.03
962.928
935.482
908.002
880.696
853.922
827.986
803.164
779.663
757.649
737.247
718.511
701.419
686.022
672.19
659.919
11484.7
2932.55
1345.35
825.748
619.984
526.938
481.083
457.367
444.814
438.129
434.61
432.842
432.095
432.017
432.463
433.415
434.921
437.071
439.978
443.74
448.43
454.122
460.887
468.783
477.835
488.028
499.311
511.607
524.831
538.915
553.824
569.585
586.076
603.286
621.229
639.838
659.111
679.02
699.521
720.561
742.082
764.031
786.376
809.158
832.441
855.846
879.214
902.459
925.519
948.338
970.863
993.043
1014.83
1036.18
1057.05
1077.4
1097.19
1116.41
1135.02
1153.01
1170.35
1187.04
1203.04
1218.37
1233
1246.92
1260.14
1272.65
1284.49
1295.77
1306.76
1317.36
1327.54
1337.23
1346.54
1355.36
1363.37
1370.55
1376.91
1382.51
1387.38
1391.55
1395.05
1397.89
1400.06
1401.58
1402.45
1402.69
1402.32
1401.36
1399.84
1397.76
1395.13
1391.98
1388.36