/*--------------------------------*- C++ -*----------------------------------*\
| =========                 |                                                 |
| \\      /  F ield         | OpenFOAM: The Open Source CFD Toolbox           |
|  \\    /   O peration     | Version:  2.4.0                                 |
|   \\  /    A nd           | Web:      www.OpenFOAM.org                      |
|    \\/     M anipulation  |                                                 |
\*---------------------------------------------------------------------------*/
FoamFile
{
    version     2.0;
    format      ascii;
    class       surfaceScalarField;
    location    "1800";
    object      phi;
}
// * * * * * * * * * * * * * * * * * * * * * * * * * * * * * * * * * * * * * //

dimensions      [0 3 -1 0 0 0 0];

internalField   nonuniform List<scalar> 
97240
(
1.48181e-06
8.91595e-08
1.3829e-06
9.89127e-08
1.29154e-06
9.13603e-08
1.20547e-06
8.60691e-08
1.12475e-06
8.07124e-08
1.05033e-06
7.44251e-08
9.825e-07
6.78292e-08
9.21318e-07
6.11825e-08
8.66608e-07
5.47101e-08
8.18214e-07
4.83935e-08
7.75649e-07
4.25652e-08
7.38343e-07
3.73069e-08
7.05532e-07
3.28111e-08
6.77009e-07
2.85227e-08
6.52183e-07
2.48258e-08
6.30949e-07
2.12346e-08
6.12617e-07
1.83323e-08
5.97185e-07
1.54313e-08
5.83893e-07
1.32926e-08
5.72892e-07
1.10013e-08
5.63363e-07
9.52872e-09
5.55701e-07
7.66212e-09
5.48964e-07
6.73712e-09
5.43752e-07
5.21269e-09
5.39014e-07
4.73749e-09
5.35604e-07
3.41045e-09
5.32338e-07
3.2661e-09
5.30325e-07
2.01319e-09
5.28236e-07
2.08935e-09
5.27422e-07
8.13976e-10
5.26443e-07
9.79207e-10
5.2684e-07
-3.97383e-10
5.27229e-07
-3.88965e-10
5.29252e-07
-2.02309e-09
5.32292e-07
-3.03951e-09
-6.53541e-09
5.38828e-07
1.66177e-06
7.10227e-08
1.66295e-06
9.77264e-08
1.65574e-06
9.85756e-08
1.64079e-06
1.01018e-07
1.61972e-06
1.01785e-07
1.59442e-06
9.97241e-08
1.56614e-06
9.6103e-08
1.53602e-06
9.13036e-08
1.5049e-06
8.58353e-08
1.47365e-06
7.96377e-08
1.4428e-06
7.34216e-08
1.41307e-06
6.70319e-08
1.38469e-06
6.11961e-08
1.358e-06
5.52123e-08
1.33291e-06
4.99084e-08
1.3097e-06
4.44496e-08
1.28813e-06
3.99056e-08
1.2684e-06
3.51566e-08
1.2502e-06
3.14893e-08
1.23372e-06
2.74892e-08
1.21855e-06
2.46963e-08
1.20478e-06
2.14269e-08
1.19208e-06
1.94436e-08
1.18057e-06
1.67187e-08
1.16999e-06
1.53239e-08
1.16042e-06
1.29806e-08
1.15169e-06
1.19921e-08
1.1438e-06
9.8996e-09
1.13677e-06
9.11958e-09
1.13041e-06
7.17751e-09
1.12504e-06
6.35227e-09
1.12017e-06
4.47042e-09
1.11662e-06
3.15712e-09
1.1135e-06
1.09606e-09
1.11243e-06
-1.97032e-09
-5.87271e-09
1.11177e-06
1.73182e-06
5.88527e-08
1.74011e-06
8.94399e-08
1.7451e-06
9.35787e-08
1.74815e-06
9.79703e-08
1.74905e-06
1.0089e-07
1.74796e-06
1.00815e-07
1.74493e-06
9.91259e-08
1.74008e-06
9.61613e-08
1.7335e-06
9.2415e-08
1.72541e-06
8.77189e-08
1.71604e-06
8.28006e-08
1.70567e-06
7.73991e-08
1.69456e-06
7.23034e-08
1.68294e-06
6.68371e-08
1.67097e-06
6.18766e-08
1.65882e-06
5.65935e-08
1.64664e-06
5.20869e-08
1.63454e-06
4.72648e-08
1.62261e-06
4.34178e-08
1.61091e-06
3.91887e-08
1.59954e-06
3.60674e-08
1.58854e-06
3.24275e-08
1.57798e-06
2.99956e-08
1.56783e-06
2.68732e-08
1.55818e-06
2.49732e-08
1.54892e-06
2.22363e-08
1.54023e-06
2.06863e-08
1.53191e-06
1.82162e-08
1.52423e-06
1.68079e-08
1.51691e-06
1.44971e-08
1.5103e-06
1.29611e-08
1.5041e-06
1.06724e-08
1.49869e-06
8.55846e-09
1.49385e-06
5.93565e-09
1.48969e-06
2.19557e-09
-1.8006e-09
1.48562e-06
1.80842e-06
4.96201e-08
1.81646e-06
8.13991e-08
1.82162e-06
8.84169e-08
1.82588e-06
9.37127e-08
1.82942e-06
9.73482e-08
1.83228e-06
9.7953e-08
1.83448e-06
9.69341e-08
1.83599e-06
9.46436e-08
1.83681e-06
9.16002e-08
1.83691e-06
8.76164e-08
1.83632e-06
8.33961e-08
1.83505e-06
7.86599e-08
1.83321e-06
7.41496e-08
1.8308e-06
6.92462e-08
1.82791e-06
6.47693e-08
1.82455e-06
5.99517e-08
1.82083e-06
5.58104e-08
1.81674e-06
5.13468e-08
1.81242e-06
4.77443e-08
1.80784e-06
4.37694e-08
1.80313e-06
4.07722e-08
1.79828e-06
3.72786e-08
1.79343e-06
3.48422e-08
1.78851e-06
3.17999e-08
1.78368e-06
2.98046e-08
1.77881e-06
2.71069e-08
1.77411e-06
2.5379e-08
1.76941e-06
2.29174e-08
1.76497e-06
2.12521e-08
1.76055e-06
1.89118e-08
1.75646e-06
1.705e-08
1.75248e-06
1.46583e-08
1.74883e-06
1.2207e-08
1.7454e-06
9.36913e-09
1.74193e-06
5.65725e-09
1.70886e-09
1.73843e-06
1.88995e-06
4.20755e-08
1.8974e-06
7.39423e-08
1.9025e-06
8.33192e-08
1.90675e-06
8.94667e-08
1.91056e-06
9.35368e-08
1.91392e-06
9.45974e-08
1.91686e-06
9.39875e-08
1.91942e-06
9.20809e-08
1.92162e-06
8.94059e-08
1.92342e-06
8.58158e-08
1.92485e-06
8.19643e-08
1.92591e-06
7.76042e-08
1.92665e-06
7.34093e-08
1.92705e-06
6.88487e-08
1.92716e-06
6.46536e-08
1.92696e-06
6.01548e-08
1.92652e-06
5.62447e-08
1.92581e-06
5.20594e-08
1.92493e-06
4.86229e-08
1.92383e-06
4.4876e-08
1.92262e-06
4.19738e-08
1.92123e-06
3.86712e-08
1.91982e-06
3.62564e-08
1.91825e-06
3.33673e-08
1.91672e-06
3.13309e-08
1.91507e-06
2.87608e-08
1.91351e-06
2.69398e-08
1.91184e-06
2.45823e-08
1.91031e-06
2.27839e-08
1.90871e-06
2.05141e-08
1.90726e-06
1.85026e-08
1.90579e-06
1.61296e-08
1.90441e-06
1.35813e-08
1.90304e-06
1.07453e-08
1.90143e-06
7.26369e-09
3.56389e-09
1.89958e-06
1.97575e-06
3.57911e-08
1.98269e-06
6.70019e-08
1.98782e-06
7.81963e-08
1.9921e-06
8.51815e-08
1.996e-06
8.96372e-08
1.99948e-06
9.11147e-08
2.0026e-06
9.08669e-08
2.0054e-06
8.92879e-08
2.0079e-06
8.69016e-08
2.01009e-06
8.36241e-08
2.01201e-06
8.00449e-08
2.01364e-06
7.59734e-08
2.01505e-06
7.19997e-08
2.0162e-06
6.76985e-08
2.01716e-06
6.36941e-08
2.01788e-06
5.94398e-08
2.01844e-06
5.56796e-08
2.01879e-06
5.17122e-08
2.01904e-06
4.83733e-08
2.0191e-06
4.48125e-08
2.01913e-06
4.1951e-08
2.01899e-06
3.88094e-08
2.01886e-06
3.63814e-08
2.0186e-06
3.3627e-08
2.0184e-06
3.15322e-08
2.01809e-06
2.9076e-08
2.01786e-06
2.71648e-08
2.01755e-06
2.48992e-08
2.01733e-06
2.29975e-08
2.01706e-06
2.07894e-08
2.01687e-06
1.86927e-08
2.01665e-06
1.63485e-08
2.01642e-06
1.38049e-08
2.01614e-06
1.10291e-08
2.01558e-06
7.82257e-09
4.44414e-09
2.0147e-06
2.06581e-06
3.05449e-08
2.07227e-06
6.05379e-08
2.07742e-06
7.30471e-08
2.0818e-06
8.08008e-08
2.0858e-06
8.564e-08
2.08939e-06
8.75271e-08
2.09262e-06
8.76351e-08
2.09553e-06
8.63749e-08
2.09817e-06
8.42615e-08
2.10052e-06
8.12748e-08
2.10262e-06
7.79418e-08
2.10446e-06
7.41314e-08
2.10611e-06
7.03527e-08
2.10753e-06
6.62812e-08
2.10879e-06
6.24383e-08
2.10983e-06
5.83971e-08
2.11075e-06
5.4759e-08
2.11148e-06
5.09791e-08
2.11214e-06
4.77149e-08
2.11264e-06
4.43127e-08
2.11311e-06
4.14766e-08
2.11345e-06
3.84692e-08
2.11381e-06
3.6023e-08
2.11406e-06
3.33773e-08
2.11437e-06
3.12297e-08
2.11458e-06
2.88603e-08
2.11487e-06
2.68765e-08
2.11509e-06
2.46756e-08
2.11539e-06
2.27005e-08
2.11565e-06
2.05337e-08
2.11595e-06
1.83928e-08
2.11622e-06
1.6079e-08
2.11644e-06
1.35823e-08
2.11657e-06
1.0899e-08
2.11644e-06
7.95048e-09
4.88013e-09
2.116e-06
2.16023e-06
2.61763e-08
2.16622e-06
5.4557e-08
2.17135e-06
6.79149e-08
2.17583e-06
7.63142e-08
2.17994e-06
8.15302e-08
2.18365e-06
8.38215e-08
2.187e-06
8.42859e-08
2.19003e-06
8.33472e-08
2.19278e-06
8.15088e-08
2.19525e-06
7.88081e-08
2.19747e-06
7.57169e-08
2.19944e-06
7.21587e-08
2.20123e-06
6.85712e-08
2.20279e-06
6.47181e-08
2.2042e-06
6.10306e-08
2.20541e-06
5.71868e-08
2.2065e-06
5.36653e-08
2.20742e-06
5.00553e-08
2.20828e-06
4.68632e-08
2.20899e-06
4.36012e-08
2.20967e-06
4.0793e-08
2.21024e-06
3.78996e-08
2.21082e-06
3.54439e-08
2.21131e-06
3.28857e-08
2.21184e-06
3.0701e-08
2.2123e-06
2.83965e-08
2.21282e-06
2.63626e-08
2.21329e-06
2.42059e-08
2.2138e-06
2.21859e-08
2.21429e-06
2.00477e-08
2.21479e-06
1.78941e-08
2.21525e-06
1.56158e-08
2.21564e-06
1.31881e-08
2.21593e-06
1.06165e-08
2.21599e-06
7.89264e-09
5.09911e-09
2.21577e-06
2.25921e-06
2.25475e-08
2.26469e-06
4.90786e-08
2.26974e-06
6.28659e-08
2.2743e-06
7.17474e-08
2.27852e-06
7.73101e-08
2.28235e-06
7.99906e-08
2.28583e-06
8.08088e-08
2.28898e-06
8.01949e-08
2.29185e-06
7.86381e-08
2.29444e-06
7.62243e-08
2.29678e-06
7.33782e-08
2.29886e-06
7.00705e-08
2.30076e-06
6.66786e-08
2.30244e-06
6.30399e-08
2.30396e-06
5.95106e-08
2.30529e-06
5.5856e-08
2.3065e-06
5.24541e-08
2.30755e-06
4.90036e-08
2.30852e-06
4.58887e-08
2.30937e-06
4.27547e-08
2.31018e-06
3.99831e-08
2.31089e-06
3.71893e-08
2.3116e-06
3.47372e-08
2.31223e-06
3.22516e-08
2.31288e-06
3.00471e-08
2.31349e-06
2.77927e-08
2.31412e-06
2.57296e-08
2.31472e-06
2.36056e-08
2.31534e-06
2.15639e-08
2.31594e-06
1.94505e-08
2.31653e-06
1.73068e-08
2.31707e-06
1.50724e-08
2.31753e-06
1.27255e-08
2.31788e-06
1.02748e-08
2.31802e-06
7.74597e-09
5.19473e-09
2.31793e-06
2.36292e-06
1.95348e-08
2.36789e-06
4.411e-08
2.37278e-06
5.79723e-08
2.37738e-06
6.71513e-08
2.38168e-06
7.30027e-08
2.38563e-06
7.60416e-08
2.38924e-06
7.72017e-08
2.39252e-06
7.69113e-08
2.39552e-06
7.56414e-08
2.39823e-06
7.35164e-08
2.40068e-06
7.09207e-08
2.40289e-06
6.78648e-08
2.40489e-06
6.46758e-08
2.40668e-06
6.12514e-08
2.40831e-06
5.78864e-08
2.40974e-06
5.44174e-08
2.41106e-06
5.11414e-08
2.41222e-06
4.78442e-08
2.41329e-06
4.48146e-08
2.41424e-06
4.1801e-08
2.41515e-06
3.90767e-08
2.41597e-06
3.63734e-08
2.41677e-06
3.39382e-08
2.4175e-06
3.15158e-08
2.41824e-06
2.93075e-08
2.41894e-06
2.7095e-08
2.41965e-06
2.50207e-08
2.42033e-06
2.29245e-08
2.42101e-06
2.08797e-08
2.42167e-06
1.87932e-08
2.4223e-06
1.66759e-08
2.42288e-06
1.44944e-08
2.42337e-06
1.22343e-08
2.42374e-06
9.90706e-09
2.42394e-06
7.54954e-09
5.20748e-09
2.42392e-06
2.47156e-06
1.70281e-08
2.47603e-06
3.96381e-08
2.48071e-06
5.32974e-08
2.48527e-06
6.25897e-08
2.48962e-06
6.86488e-08
2.49367e-06
7.19973e-08
2.4974e-06
7.3475e-08
2.50081e-06
7.34987e-08
2.50393e-06
7.25157e-08
2.50677e-06
7.06794e-08
2.50935e-06
6.83384e-08
2.51168e-06
6.55363e-08
2.5138e-06
6.25575e-08
2.5157e-06
5.93491e-08
2.51743e-06
5.61558e-08
2.51898e-06
5.28713e-08
2.52039e-06
4.97287e-08
2.52165e-06
4.65821e-08
2.52282e-06
4.36466e-08
2.52387e-06
4.07494e-08
2.52487e-06
3.80832e-08
2.52578e-06
3.54653e-08
2.52665e-06
3.30597e-08
2.52747e-06
3.06959e-08
2.52828e-06
2.84981e-08
2.52905e-06
2.63244e-08
2.52982e-06
2.42538e-08
2.53056e-06
2.21857e-08
2.53129e-06
2.01527e-08
2.53198e-06
1.80984e-08
2.53264e-06
1.60199e-08
2.53323e-06
1.38995e-08
2.53374e-06
1.17295e-08
2.53412e-06
9.52385e-09
2.53435e-06
7.31866e-09
5.157e-09
2.5344e-06
2.58535e-06
1.49323e-08
2.58936e-06
3.56318e-08
2.59377e-06
4.88851e-08
2.59823e-06
5.81255e-08
2.60258e-06
6.42992e-08
2.60669e-06
6.78943e-08
2.61051e-06
6.9652e-08
2.61404e-06
6.99703e-08
2.61729e-06
6.92665e-08
2.62025e-06
6.77142e-08
2.62296e-06
6.56291e-08
2.62542e-06
6.30812e-08
2.62765e-06
6.03188e-08
2.62968e-06
5.73284e-08
2.63152e-06
5.43136e-08
2.63317e-06
5.12141e-08
2.63469e-06
4.82125e-08
2.63606e-06
4.52158e-08
2.63732e-06
4.23833e-08
2.63847e-06
3.96013e-08
2.63955e-06
3.70035e-08
2.64054e-06
3.44695e-08
2.6415e-06
3.2105e-08
2.6424e-06
2.97989e-08
2.64327e-06
2.76242e-08
2.6441e-06
2.54899e-08
2.64492e-06
2.34362e-08
2.64571e-06
2.13997e-08
2.64647e-06
1.9391e-08
2.64719e-06
1.73755e-08
2.64787e-06
1.53458e-08
2.64847e-06
1.32931e-08
2.64899e-06
1.12146e-08
2.64939e-06
9.12654e-09
2.64965e-06
7.05857e-09
5.05355e-09
2.64975e-06
2.7045e-06
1.31682e-08
2.70808e-06
3.20487e-08
2.71221e-06
4.47576e-08
2.71652e-06
5.38103e-08
2.72082e-06
6.0006e-08
2.72494e-06
6.37769e-08
2.72882e-06
6.5767e-08
2.73244e-06
6.635e-08
2.7358e-06
6.59093e-08
2.73888e-06
6.46301e-08
2.74171e-06
6.27972e-08
2.74429e-06
6.05008e-08
2.74666e-06
5.7958e-08
2.7488e-06
5.51863e-08
2.75076e-06
5.23558e-08
2.75253e-06
4.94421e-08
2.75415e-06
4.65884e-08
2.75562e-06
4.37424e-08
2.75699e-06
4.10211e-08
2.75823e-06
3.83549e-08
2.7594e-06
3.58351e-08
2.76049e-06
3.33859e-08
2.76152e-06
3.10732e-08
2.76249e-06
2.88267e-08
2.76343e-06
2.66865e-08
2.76432e-06
2.45951e-08
2.76519e-06
2.25697e-08
2.76602e-06
2.05705e-08
2.76681e-06
1.85969e-08
2.76756e-06
1.66276e-08
2.76825e-06
1.46546e-08
2.76887e-06
1.26749e-08
2.7694e-06
1.06885e-08
2.76981e-06
8.713e-09
2.7701e-06
6.77016e-09
4.90283e-09
2.77025e-06
2.82924e-06
1.16732e-08
2.83244e-06
2.88449e-08
2.83628e-06
4.09143e-08
2.84042e-06
4.9679e-08
2.84461e-06
5.58139e-08
2.8487e-06
5.96895e-08
2.8526e-06
6.18595e-08
2.85628e-06
6.26699e-08
2.85972e-06
6.24685e-08
2.86291e-06
6.14447e-08
2.86585e-06
5.98548e-08
2.86855e-06
5.78028e-08
2.87103e-06
5.54792e-08
2.87329e-06
5.29244e-08
2.87536e-06
5.02819e-08
2.87725e-06
4.75538e-08
2.87899e-06
4.48538e-08
2.88057e-06
4.21592e-08
2.88203e-06
3.95567e-08
2.88338e-06
3.70079e-08
2.88464e-06
3.4575e-08
2.88581e-06
3.22131e-08
2.88693e-06
2.9962e-08
2.88797e-06
2.77788e-08
2.88898e-06
2.56835e-08
2.88993e-06
2.36403e-08
2.89085e-06
2.16538e-08
2.89172e-06
1.96987e-08
2.89255e-06
1.77699e-08
2.89332e-06
1.58541e-08
2.89403e-06
1.39447e-08
2.89466e-06
1.2042e-08
2.8952e-06
1.01478e-08
2.89564e-06
8.27995e-09
2.89595e-06
6.4525e-09
4.70813e-09
2.89615e-06
2.22397e-06
1.06861e-08
2.22616e-06
2.66568e-08
2.2289e-06
3.8176e-08
2.23189e-06
4.66905e-08
2.23497e-06
5.27332e-08
2.23801e-06
5.66438e-08
2.24095e-06
5.89168e-08
2.24375e-06
5.9872e-08
2.24639e-06
5.98327e-08
2.24885e-06
5.89865e-08
2.25113e-06
5.75712e-08
2.25324e-06
5.56958e-08
2.25518e-06
5.35354e-08
2.25697e-06
5.11407e-08
2.25861e-06
4.86412e-08
2.26011e-06
4.60517e-08
2.26149e-06
4.3471e-08
2.26276e-06
4.08904e-08
2.26393e-06
3.83823e-08
2.26502e-06
3.5923e-08
2.26603e-06
3.35615e-08
2.26698e-06
3.12672e-08
2.26787e-06
2.9069e-08
2.26871e-06
2.69365e-08
2.26952e-06
2.48818e-08
2.27028e-06
2.28789e-08
2.271e-06
2.09282e-08
2.27169e-06
1.90112e-08
2.27234e-06
1.7122e-08
2.27294e-06
1.52513e-08
2.27349e-06
1.33937e-08
2.27398e-06
1.15516e-08
2.2744e-06
9.72678e-09
2.27475e-06
7.93759e-09
2.27501e-06
6.19197e-09
4.53366e-09
2.27518e-06
2.39216e-06
9.77027e-09
2.39425e-06
2.4565e-08
2.39693e-06
3.54954e-08
2.39991e-06
4.37109e-08
2.40302e-06
4.96233e-08
2.40613e-06
5.35352e-08
2.40916e-06
5.58849e-08
2.41207e-06
5.69658e-08
2.41482e-06
5.7076e-08
2.41741e-06
5.63988e-08
2.41983e-06
5.51541e-08
2.42207e-06
5.34534e-08
2.42415e-06
5.14574e-08
2.42607e-06
4.92249e-08
2.42783e-06
4.68725e-08
2.42946e-06
4.44252e-08
2.43096e-06
4.19691e-08
2.43235e-06
3.95071e-08
2.43363e-06
3.70994e-08
2.43482e-06
3.47345e-08
2.43593e-06
3.24509e-08
2.43697e-06
3.02294e-08
2.43794e-06
2.80907e-08
2.43887e-06
2.60143e-08
2.43974e-06
2.40069e-08
2.44057e-06
2.20501e-08
2.44136e-06
2.0142e-08
2.4421e-06
1.82692e-08
2.44279e-06
1.64259e-08
2.44344e-06
1.46059e-08
2.44403e-06
1.28053e-08
2.44455e-06
1.10277e-08
2.445e-06
9.27484e-09
2.44538e-06
7.56496e-09
2.44567e-06
5.90041e-09
4.32612e-09
2.44588e-06
2.57309e-06
8.91989e-09
2.57508e-06
2.25677e-08
2.5777e-06
3.28829e-08
2.58065e-06
4.07549e-08
2.58378e-06
4.65008e-08
2.58693e-06
5.03815e-08
2.59003e-06
5.27808e-08
2.59303e-06
5.39665e-08
2.5959e-06
5.4211e-08
2.59861e-06
5.36917e-08
2.60115e-06
5.26105e-08
2.60352e-06
5.10802e-08
2.60573e-06
4.92475e-08
2.60778e-06
4.71771e-08
2.60968e-06
4.4974e-08
2.61143e-06
4.26713e-08
2.61306e-06
4.03441e-08
2.61456e-06
3.80043e-08
2.61596e-06
3.57025e-08
2.61726e-06
3.34365e-08
2.61847e-06
3.12368e-08
2.61961e-06
2.90934e-08
2.62068e-06
2.70208e-08
2.62168e-06
2.50062e-08
2.62264e-06
2.30529e-08
2.62354e-06
2.11485e-08
2.62439e-06
1.92898e-08
2.62519e-06
1.74675e-08
2.62594e-06
1.56765e-08
2.62664e-06
1.39132e-08
2.62727e-06
1.21746e-08
2.62783e-06
1.04654e-08
2.62832e-06
8.78686e-09
2.62872e-06
7.15701e-09
2.62905e-06
5.57308e-09
4.08122e-09
2.6293e-06
2.76772e-06
8.12923e-09
2.76963e-06
2.06647e-08
2.77216e-06
3.03443e-08
2.77508e-06
3.78353e-08
2.7782e-06
4.33809e-08
2.78139e-06
4.7199e-08
2.78455e-06
4.96209e-08
2.78762e-06
5.08897e-08
2.79058e-06
5.12518e-08
2.7934e-06
5.08772e-08
2.79606e-06
4.99505e-08
2.79855e-06
4.85839e-08
2.80089e-06
4.6911e-08
2.80307e-06
4.50006e-08
2.80509e-06
4.29472e-08
2.80697e-06
4.07898e-08
2.80872e-06
3.85942e-08
2.81035e-06
3.63793e-08
2.81186e-06
3.41878e-08
2.81327e-06
3.20248e-08
2.8146e-06
2.99148e-08
2.81584e-06
2.78543e-08
2.817e-06
2.58543e-08
2.8181e-06
2.39073e-08
2.81914e-06
2.2015e-08
2.82012e-06
2.01693e-08
2.82104e-06
1.83669e-08
2.82191e-06
1.66016e-08
2.82271e-06
1.48694e-08
2.82346e-06
1.31684e-08
2.82414e-06
1.14967e-08
2.82474e-06
9.85972e-09
2.82527e-06
8.25781e-09
2.82572e-06
6.70879e-09
2.82609e-06
5.20531e-09
3.79489e-09
2.82638e-06
2.9771e-06
7.3926e-09
2.97891e-06
1.88548e-08
2.98137e-06
2.78843e-08
2.98424e-06
3.49633e-08
2.98734e-06
4.0277e-08
2.99054e-06
4.40024e-08
2.99374e-06
4.64207e-08
2.99688e-06
4.77506e-08
2.99992e-06
4.82128e-08
3.00283e-06
4.79686e-08
3.00559e-06
4.71856e-08
3.0082e-06
4.59743e-08
3.01066e-06
4.44559e-08
3.01296e-06
4.27017e-08
3.01511e-06
4.07964e-08
3.01711e-06
3.87835e-08
3.01899e-06
3.67209e-08
3.02073e-06
3.46324e-08
3.02237e-06
3.25546e-08
3.02389e-06
3.04978e-08
3.02533e-06
2.84822e-08
3.02667e-06
2.65094e-08
3.02794e-06
2.45879e-08
3.02913e-06
2.27143e-08
3.03026e-06
2.08896e-08
3.03132e-06
1.91089e-08
3.03231e-06
1.73696e-08
3.03325e-06
1.56678e-08
3.03412e-06
1.40005e-08
3.03492e-06
1.23674e-08
3.03565e-06
1.07673e-08
3.0363e-06
9.20603e-09
3.03688e-06
7.68306e-09
3.03737e-06
6.21581e-09
3.03778e-06
4.79289e-09
3.46348e-09
3.03811e-06
3.20233e-06
6.70434e-09
3.20405e-06
1.7136e-08
3.20643e-06
2.55061e-08
3.20925e-06
3.21479e-08
3.21232e-06
3.72012e-08
3.21552e-06
4.08051e-08
3.21875e-06
4.31942e-08
3.22193e-06
4.45632e-08
3.22504e-06
4.51078e-08
3.22803e-06
4.49788e-08
3.23089e-06
4.43278e-08
3.2336e-06
4.32622e-08
3.23616e-06
4.18917e-08
3.23858e-06
4.02882e-08
3.24084e-06
3.85283e-08
3.24297e-06
3.66577e-08
3.24496e-06
3.4728e-08
3.24683e-06
3.27662e-08
3.24858e-06
3.08044e-08
3.25022e-06
2.88563e-08
3.25176e-06
2.69393e-08
3.25321e-06
2.50583e-08
3.25458e-06
2.32206e-08
3.25587e-06
2.14258e-08
3.25708e-06
1.96749e-08
3.25823e-06
1.79655e-08
3.2593e-06
1.62957e-08
3.26031e-06
1.46635e-08
3.26124e-06
1.30671e-08
3.2621e-06
1.15071e-08
3.26288e-06
9.98295e-09
3.26359e-06
8.50069e-09
3.26421e-06
7.05881e-09
3.26476e-06
5.6744e-09
3.26522e-06
4.33245e-09
3.08408e-09
3.2656e-06
3.44462e-06
6.05913e-09
3.44625e-06
1.55054e-08
3.44855e-06
2.32121e-08
3.4513e-06
2.93972e-08
3.45434e-06
3.41638e-08
3.45752e-06
3.76189e-08
3.46076e-06
3.9954e-08
3.46399e-06
4.13401e-08
3.46715e-06
4.19489e-08
3.4702e-06
4.19197e-08
3.47314e-06
4.13886e-08
3.47595e-06
4.04582e-08
3.47861e-06
3.92281e-08
3.48113e-06
3.7769e-08
3.48351e-06
3.61506e-08
3.48575e-06
3.44192e-08
3.48785e-06
3.26214e-08
3.48983e-06
3.07858e-08
3.4917e-06
2.89412e-08
3.49345e-06
2.71035e-08
3.4951e-06
2.52884e-08
3.49666e-06
2.35028e-08
3.49812e-06
2.17537e-08
3.49951e-06
2.00427e-08
3.50081e-06
1.83713e-08
3.50204e-06
1.67389e-08
3.50319e-06
1.51447e-08
3.50426e-06
1.35879e-08
3.50526e-06
1.20677e-08
3.50618e-06
1.05857e-08
3.50703e-06
9.14148e-09
3.50779e-06
7.74125e-09
3.50846e-06
6.3825e-09
3.50905e-06
5.08207e-09
3.50957e-06
3.82173e-09
2.65479e-09
3.50999e-06
3.70526e-06
5.45219e-09
3.70681e-06
1.39597e-08
3.70902e-06
2.10035e-08
3.7117e-06
2.67175e-08
3.71469e-06
3.11745e-08
3.71785e-06
3.44547e-08
3.72109e-06
3.67117e-08
3.72434e-06
3.80929e-08
3.72754e-06
3.87475e-08
3.73066e-06
3.88019e-08
3.73367e-06
3.8378e-08
3.73656e-06
3.7572e-08
3.73931e-06
3.64742e-08
3.74193e-06
3.51527e-08
3.74441e-06
3.3671e-08
3.74675e-06
3.20751e-08
3.74896e-06
3.04074e-08
3.75105e-06
2.86971e-08
3.75302e-06
2.69704e-08
3.75488e-06
2.52444e-08
3.75664e-06
2.35337e-08
3.75829e-06
2.18468e-08
3.75986e-06
2.01904e-08
3.76133e-06
1.85678e-08
3.76272e-06
1.69811e-08
3.76403e-06
1.5431e-08
3.76526e-06
1.39177e-08
3.7664e-06
1.24417e-08
3.76747e-06
1.10027e-08
3.76845e-06
9.60292e-09
3.76935e-06
8.24221e-09
3.77017e-06
6.92673e-09
3.7709e-06
5.65299e-09
3.77154e-06
4.43772e-09
3.7721e-06
3.2598e-09
2.17492e-09
3.77258e-06
3.98564e-06
4.87934e-09
3.9871e-06
1.24946e-08
3.98922e-06
1.88808e-08
3.99183e-06
2.41138e-08
3.99476e-06
2.82414e-08
3.99789e-06
3.13226e-08
4.00113e-06
3.34776e-08
4.00439e-06
3.48319e-08
4.00762e-06
3.55134e-08
4.01079e-06
3.56352e-08
4.01386e-06
3.5305e-08
4.01682e-06
3.46121e-08
4.01966e-06
3.36377e-08
4.02236e-06
3.24466e-08
4.02494e-06
3.10967e-08
4.02738e-06
2.96323e-08
4.0297e-06
2.80925e-08
4.03189e-06
2.6506e-08
4.03396e-06
2.48975e-08
4.03592e-06
2.32842e-08
4.03777e-06
2.16802e-08
4.03953e-06
2.00948e-08
4.04118e-06
1.85349e-08
4.04275e-06
1.70049e-08
4.04422e-06
1.55076e-08
4.04561e-06
1.40448e-08
4.04691e-06
1.26174e-08
4.04812e-06
1.12268e-08
4.04925e-06
9.87343e-09
4.05029e-06
8.55979e-09
4.05125e-06
7.28575e-09
4.05212e-06
6.05745e-09
4.0529e-06
4.8705e-09
4.0536e-06
3.74156e-09
4.05421e-06
2.64706e-09
1.64499e-09
4.05474e-06
4.28724e-06
4.33708e-09
4.28863e-06
1.11054e-08
4.29066e-06
1.68434e-08
4.29319e-06
2.15893e-08
4.29606e-06
2.53713e-08
4.29915e-06
2.82311e-08
4.30237e-06
3.02616e-08
4.30563e-06
3.15671e-08
4.30889e-06
3.2256e-08
4.3121e-06
3.24279e-08
4.31522e-06
3.21775e-08
4.31825e-06
3.15856e-08
4.32116e-06
3.07254e-08
4.32395e-06
2.96571e-08
4.32662e-06
2.84333e-08
4.32915e-06
2.70962e-08
4.33156e-06
2.56818e-08
4.33385e-06
2.42178e-08
4.33602e-06
2.27274e-08
4.33808e-06
2.12278e-08
4.34002e-06
1.97324e-08
4.34187e-06
1.82512e-08
4.34361e-06
1.67914e-08
4.34526e-06
1.5358e-08
4.34681e-06
1.39545e-08
4.34827e-06
1.25835e-08
4.34964e-06
1.12467e-08
4.35092e-06
9.94588e-09
4.35212e-06
8.68206e-09
4.35322e-06
7.45801e-09
4.35423e-06
6.27353e-09
4.35515e-06
5.13463e-09
4.35599e-06
4.03616e-09
4.35673e-06
2.99475e-09
4.3574e-06
1.98478e-09
1.06642e-09
4.35798e-06
4.61167e-06
3.82243e-09
4.61299e-06
9.78717e-09
4.61494e-06
1.48895e-08
4.61739e-06
1.9146e-08
4.62019e-06
2.25692e-08
4.62323e-06
2.51879e-08
4.62642e-06
2.70721e-08
4.62968e-06
2.83072e-08
4.63295e-06
2.89839e-08
4.63619e-06
2.91883e-08
4.63937e-06
2.90025e-08
4.64246e-06
2.8499e-08
4.64544e-06
2.77429e-08
4.64831e-06
2.67891e-08
4.65105e-06
2.56854e-08
4.65368e-06
2.44711e-08
4.65618e-06
2.31792e-08
4.65856e-06
2.18363e-08
4.66083e-06
2.04638e-08
4.66298e-06
1.90787e-08
4.66502e-06
1.7694e-08
4.66695e-06
1.63197e-08
4.66878e-06
1.49633e-08
4.6705e-06
1.36303e-08
4.67213e-06
1.23248e-08
4.67367e-06
1.105e-08
4.6751e-06
9.80789e-09
4.67645e-06
8.60098e-09
4.6777e-06
7.43042e-09
4.67886e-06
6.29917e-09
4.67993e-06
5.20691e-09
4.6809e-06
4.15954e-09
4.68179e-06
3.15125e-09
4.68258e-06
2.19865e-09
4.68329e-06
1.27447e-09
4.40825e-10
4.68392e-06
4.96067e-06
3.33287e-09
4.96192e-06
8.53437e-09
4.96379e-06
1.30162e-08
4.96616e-06
1.67838e-08
4.96889e-06
1.98384e-08
4.97188e-06
2.21986e-08
4.97503e-06
2.39163e-08
4.97828e-06
2.50601e-08
4.98156e-06
2.57047e-08
4.98482e-06
2.59234e-08
4.98804e-06
2.57867e-08
4.99118e-06
2.53581e-08
4.99423e-06
2.46949e-08
4.99717e-06
2.38468e-08
5e-06
2.28565e-08
5.00271e-06
2.17599e-08
5.0053e-06
2.05875e-08
5.00778e-06
1.93638e-08
5.01013e-06
1.81089e-08
5.01237e-06
1.6839e-08
5.0145e-06
1.55668e-08
5.01652e-06
1.4302e-08
5.01843e-06
1.30524e-08
5.02023e-06
1.18236e-08
5.02194e-06
1.06201e-08
5.02354e-06
9.44545e-09
5.02505e-06
8.30221e-09
5.02646e-06
7.193e-09
5.02777e-06
6.11919e-09
5.02898e-06
5.0838e-09
5.0301e-06
4.08638e-09
5.03113e-06
3.13267e-09
5.03207e-06
2.21633e-09
5.03291e-06
1.35397e-09
5.03367e-06
5.17014e-10
-2.30775e-10
5.03434e-06
5.33608e-06
2.86613e-09
5.33728e-06
7.34132e-09
5.33907e-06
1.12194e-08
5.34136e-06
1.45009e-08
5.34402e-06
1.71796e-08
5.34695e-06
1.92665e-08
5.35007e-06
2.07992e-08
5.35329e-06
2.18318e-08
5.35657e-06
2.24248e-08
5.35986e-06
2.26395e-08
5.36311e-06
2.25355e-08
5.3663e-06
2.21676e-08
5.36941e-06
2.15858e-08
5.37242e-06
2.08336e-08
5.37533e-06
1.99492e-08
5.37812e-06
1.8965e-08
5.3808e-06
1.79082e-08
5.38337e-06
1.68016e-08
5.38581e-06
1.56636e-08
5.38814e-06
1.45095e-08
5.39036e-06
1.33513e-08
5.39246e-06
1.21984e-08
5.39445e-06
1.10585e-08
5.39634e-06
9.9375e-09
5.39812e-06
8.83985e-09
5.3998e-06
7.76939e-09
5.40137e-06
6.72884e-09
5.40284e-06
5.72101e-09
5.40421e-06
4.74732e-09
5.40549e-06
3.81078e-09
5.40666e-06
2.91079e-09
5.40774e-06
2.05293e-09
5.40873e-06
1.23046e-09
5.40962e-06
4.59934e-10
5.41043e-06
-2.88207e-10
-9.48825e-10
5.41115e-06
5.73992e-06
2.41997e-09
5.74106e-06
6.20198e-09
5.74279e-06
9.49347e-09
5.74499e-06
1.22934e-08
5.74758e-06
1.45912e-08
5.75046e-06
1.63922e-08
5.75353e-06
1.77233e-08
5.75674e-06
1.86258e-08
5.76001e-06
1.91483e-08
5.76331e-06
1.93409e-08
5.7666e-06
1.92531e-08
5.76983e-06
1.89314e-08
5.773e-06
1.84184e-08
5.77608e-06
1.77521e-08
5.77906e-06
1.69655e-08
5.78194e-06
1.60874e-08
5.78471e-06
1.5142e-08
5.78736e-06
1.41498e-08
5.7899e-06
1.31276e-08
5.79232e-06
1.20894e-08
5.79462e-06
1.10463e-08
5.79681e-06
1.00075e-08
5.79889e-06
8.98016e-09
5.80086e-06
7.97009e-09
5.80272e-06
6.98183e-09
5.80447e-06
6.0192e-09
5.80611e-06
5.08499e-09
5.80765e-06
4.18202e-09
5.80908e-06
3.3117e-09
5.81042e-06
2.47692e-09
5.81165e-06
1.67697e-09
5.81279e-06
9.1722e-10
5.81383e-06
1.90633e-10
5.81477e-06
-4.86307e-10
5.81563e-06
-1.14388e-09
-1.71588e-09
5.8164e-06
6.17433e-06
1.99204e-09
6.17542e-06
5.10978e-09
6.17708e-06
7.83114e-09
6.17922e-06
1.01548e-08
6.18174e-06
1.20683e-08
6.18456e-06
1.3573e-08
6.1876e-06
1.46874e-08
6.19078e-06
1.54426e-08
6.19405e-06
1.58765e-08
6.19736e-06
1.60293e-08
6.20068e-06
1.59414e-08
6.20396e-06
1.56512e-08
6.20718e-06
1.51943e-08
6.21033e-06
1.4603e-08
6.21339e-06
1.39057e-08
6.21635e-06
1.3127e-08
6.2192e-06
1.22882e-08
6.22195e-06
1.14073e-08
6.22457e-06
1.04992e-08
6.22709e-06
9.57651e-09
6.22948e-06
8.64941e-09
6.23177e-06
7.72626e-09
6.23393e-06
6.8138e-09
6.23598e-06
5.91755e-09
6.23792e-06
5.04186e-09
6.23975e-06
4.19039e-09
6.24147e-06
3.36587e-09
6.24308e-06
2.571e-09
6.24459e-06
1.8071e-09
6.24599e-06
1.07691e-09
6.24729e-06
3.79549e-10
6.24848e-06
-2.7981e-10
6.24958e-06
-9.08425e-10
6.25059e-06
-1.48994e-09
6.2515e-06
-2.0551e-09
-2.537e-09
6.25232e-06
6.64162e-06
1.57968e-09
6.64267e-06
4.05732e-09
6.64428e-06
6.22326e-09
6.64636e-06
8.07588e-09
6.64882e-06
9.60247e-09
6.65159e-06
1.08018e-08
6.65459e-06
1.16861e-08
6.65776e-06
1.2278e-08
6.66103e-06
1.26064e-08
6.66436e-06
1.27026e-08
6.6677e-06
1.25986e-08
6.67102e-06
1.23253e-08
6.67431e-06
1.1912e-08
6.67752e-06
1.13849e-08
6.68066e-06
1.07679e-08
6.68371e-06
1.00817e-08
6.68665e-06
9.34428e-09
6.68949e-06
8.57106e-09
6.69221e-06
7.77504e-09
6.69482e-06
6.96709e-09
6.69732e-06
6.15624e-09
6.69969e-06
5.34995e-09
6.70195e-06
4.55429e-09
6.70409e-06
3.77428e-09
6.70612e-06
3.01391e-09
6.70804e-06
2.27656e-09
6.70984e-06
1.56474e-09
6.71153e-06
8.8093e-10
6.71311e-06
2.26277e-10
6.71458e-06
-3.96683e-10
6.71595e-06
-9.89009e-10
6.71722e-06
-1.54575e-09
6.71838e-06
-2.07433e-09
6.71945e-06
-2.55856e-09
6.72043e-06
-3.02949e-09
-3.4198e-09
6.72131e-06
7.14428e-06
1.17966e-09
7.1453e-06
3.03594e-09
7.14687e-06
4.65812e-09
7.1489e-06
6.04361e-09
7.15132e-06
7.18064e-09
7.15406e-06
8.06636e-09
7.15703e-06
8.70829e-09
7.16019e-06
9.12232e-09
7.16347e-06
9.32946e-09
7.16682e-06
9.35321e-09
7.1702e-06
9.21799e-09
7.17357e-06
8.94784e-09
7.17692e-06
8.56558e-09
7.18021e-06
8.09222e-09
7.18344e-06
7.54675e-09
7.18657e-06
6.94601e-09
7.18961e-06
6.30468e-09
7.19255e-06
5.63545e-09
7.19537e-06
4.94912e-09
7.19808e-06
4.25482e-09
7.20068e-06
3.56019e-09
7.20316e-06
2.87159e-09
7.20552e-06
2.19424e-09
7.20776e-06
1.53249e-09
7.20989e-06
8.89813e-10
7.21189e-06
2.6917e-10
7.21379e-06
-3.27289e-10
7.21556e-06
-8.97373e-10
7.21723e-06
-1.44019e-09
7.21879e-06
-1.95348e-09
7.22024e-06
-2.43847e-09
7.22158e-06
-2.89048e-09
7.22282e-06
-3.31705e-09
7.22397e-06
-3.70224e-09
7.22502e-06
-4.07717e-09
-4.37457e-09
7.22597e-06
7.685e-06
7.87873e-10
7.686e-06
2.03503e-09
7.68753e-06
3.12062e-09
7.68954e-06
4.04035e-09
7.69194e-06
4.78393e-09
7.69465e-06
5.34774e-09
7.69763e-06
5.73576e-09
7.70079e-06
5.95826e-09
7.70409e-06
6.02958e-09
7.70748e-06
5.96628e-09
7.71091e-06
5.78588e-09
7.71435e-06
5.50593e-09
7.71777e-06
5.14329e-09
7.72115e-06
4.71371e-09
7.72447e-06
4.23155e-09
7.7277e-06
3.70966e-09
7.73085e-06
3.15936e-09
7.73389e-06
2.59052e-09
7.73683e-06
2.01161e-09
7.73966e-06
1.42983e-09
7.74237e-06
8.51256e-10
7.74496e-06
2.80991e-10
7.74743e-06
-2.76757e-10
7.74978e-06
-8.18471e-10
7.75201e-06
-1.34135e-09
7.75412e-06
-1.84298e-09
7.75612e-06
-2.32165e-09
7.758e-06
-2.77558e-09
7.75976e-06
-3.2042e-09
7.76141e-06
-3.60554e-09
7.76295e-06
-3.98106e-09
7.76439e-06
-4.32637e-09
7.76572e-06
-4.64906e-09
7.76695e-06
-4.93358e-09
7.76809e-06
-5.21086e-09
-5.4142e-09
7.76913e-06
8.26665e-06
3.98749e-10
8.26764e-06
1.04108e-09
8.26917e-06
1.59098e-09
8.27117e-06
2.04199e-09
8.27357e-06
2.38565e-09
8.2763e-06
2.61812e-09
8.27929e-06
2.7406e-09
8.28249e-06
2.75864e-09
8.28584e-06
2.68075e-09
8.28929e-06
2.51716e-09
8.2928e-06
2.27905e-09
8.29632e-06
1.97784e-09
8.29984e-06
1.6247e-09
8.30333e-06
1.23023e-09
8.30675e-06
8.04198e-10
8.31011e-06
3.5547e-10
8.31338e-06
-1.08069e-10
8.31655e-06
-5.79495e-10
8.31961e-06
-1.05281e-09
8.32256e-06
-1.52286e-09
8.3254e-06
-1.9853e-09
8.32812e-06
-2.43644e-09
8.33071e-06
-2.87324e-09
8.33319e-06
-3.29315e-09
8.33554e-06
-3.69417e-09
8.33777e-06
-4.07454e-09
8.33989e-06
-4.43311e-09
8.34188e-06
-4.76856e-09
8.34375e-06
-5.08069e-09
8.34552e-06
-5.36792e-09
8.34717e-06
-5.63191e-09
8.34871e-06
-5.86863e-09
8.35015e-06
-6.08568e-09
8.35148e-06
-6.26801e-09
8.35272e-06
-6.44609e-09
-6.5544e-09
8.35386e-06
8.89233e-06
5.09019e-12
8.89333e-06
3.61944e-11
8.89488e-06
4.24425e-11
8.89691e-06
1.52747e-11
8.89935e-06
-5.18275e-11
8.90213e-06
-1.62607e-10
8.90519e-06
-3.18176e-10
8.90846e-06
-5.17235e-10
8.9119e-06
-7.56677e-10
8.91545e-06
-1.03217e-09
8.91907e-06
-1.33862e-09
8.92272e-06
-1.67052e-09
8.92636e-06
-2.02226e-09
8.92998e-06
-2.38836e-09
8.93355e-06
-2.76362e-09
8.93705e-06
-3.14324e-09
8.94046e-06
-3.52286e-09
8.94378e-06
-3.89859e-09
8.947e-06
-4.26704e-09
8.9501e-06
-4.62526e-09
8.95308e-06
-4.97075e-09
8.95595e-06
-5.30137e-09
8.95869e-06
-5.6154e-09
8.96131e-06
-5.91137e-09
8.9638e-06
-6.18816e-09
8.96617e-06
-6.44481e-09
8.96842e-06
-6.68077e-09
8.97055e-06
-6.89528e-09
8.97256e-06
-7.08855e-09
8.97445e-06
-7.25942e-09
8.97623e-06
-7.40978e-09
8.97789e-06
-7.536e-09
8.97945e-06