/*--------------------------------*- C++ -*----------------------------------*\
| =========                 |                                                 |
| \\      /  F ield         | OpenFOAM: The Open Source CFD Toolbox           |
|  \\    /   O peration     | Version:  2.4.0                                 |
|   \\  /    A nd           | Web:      www.OpenFOAM.org                      |
|    \\/     M anipulation  |                                                 |
\*---------------------------------------------------------------------------*/
FoamFile
{
    version     2.0;
    format      ascii;
    class       volVectorField;
    location    "2.75";
    object      U;
}
// * * * * * * * * * * * * * * * * * * * * * * * * * * * * * * * * * * * * * //

dimensions      [0 1 -1 0 0 0 0];

internalField   nonuniform List<vector> 
6000
(
(0.513471 -0.043062 -5.92283e-18)
(-0.317808 0.0668507 0)
(0.112449 -0.0274786 1.0291e-17)
(0.00727104 -0.00139143 0)
(0.00641335 -5.27708e-05 0)
(-0.0293411 0.00557495 0)
(-0.00371196 0.000684594 4.39895e-18)
(-0.0162178 0.00289861 -8.16394e-24)
(-0.01087 0.0025117 0)
(-0.0327797 0.00668576 0)
(-0.0605664 0.0113172 3.61214e-18)
(-0.0920518 0.0144135 -6.86832e-18)
(-0.0949427 0.0117475 0)
(-0.0528423 0.000991025 0)
(0.0574604 -0.016865 -1.74991e-18)
(0.216091 -0.0358258 0)
(0.359463 -0.0410068 0)
(0.359099 -0.0291718 -1.19815e-18)
(0.20972 -0.0137152 -1.29988e-18)
(0.13538 -0.0133247 0)
(0.177461 -0.0136549 1.45938e-18)
(0.0787518 0.00562655 6.52434e-19)
(-0.181037 0.0293037 -4.60301e-19)
(-0.409384 0.0363437 0)
(-0.55734 0.0323658 0)
(-0.63894 0.026285 0)
(-0.679668 0.0197748 -1.6682e-20)
(-0.691195 0.0129949 5.58432e-21)
(-0.67843 0.00546925 0)
(-0.650727 -0.000949538 0)
(-0.60815 -0.0067785 1.79732e-20)
(-0.551494 -0.0116756 0)
(-0.481106 -0.0153875 3.10512e-19)
(-0.397383 -0.0176328 -4.03757e-19)
(-0.301351 -0.0181105 0)
(-0.19533 -0.0165391 0)
(-0.0832298 -0.0127347 1.31381e-18)
(0.0298096 -0.00655891 0)
(0.136832 0.00161586 1.44807e-18)
(0.231852 0.0109369 0)
(0.309441 0.0205713 0)
(0.366034 0.0297266 2.75755e-18)
(0.399291 0.0382964 -5.38459e-18)
(0.400559 0.0433071 0)
(0.378313 0.0444135 0)
(0.349917 0.0435106 2.65122e-18)
(0.327561 0.0426818 0)
(0.315038 0.0430319 0)
(0.311212 0.0446936 -5.547e-18)
(0.314163 0.0474866 -5.64453e-18)
(0.32246 0.0513098 -5.72963e-18)
(0.335071 0.0559985 -3.52325e-21)
(0.35139 0.0614607 5.82199e-18)
(0.372384 0.0677191 0)
(0.397572 0.0751723 -6.64042e-21)
(0.430964 0.084454 -5.53631e-18)
(0.464451 0.094953 5.14218e-18)
(0.52367 0.10978 4.59925e-18)
(0.548889 0.121358 1.77848e-20)
(0.687673 0.152327 0)
(0.72672 -0.108539 4.45205e-18)
(-0.20926 0.0626282 5.96498e-18)
(0.0923524 -0.0316729 -4.99342e-18)
(-0.0251234 0.00931148 -5.29481e-18)
(0.00624776 0.00101714 0)
(-0.0403179 0.008085 0)
(-0.0103036 0.00153318 -4.3215e-18)
(-0.0247704 0.00461213 8.31629e-18)
(-0.0217419 0.00513755 0)
(-0.0482028 0.0108367 0)
(-0.0775853 0.0161001 -3.4901e-18)
(-0.1054 0.0179611 3.29139e-18)
(-0.104721 0.0123319 1.58241e-18)
(-0.0629602 -0.00317011 0)
(0.0445197 -0.0266364 1.60551e-18)
(0.204008 -0.049876 0)
(0.347039 -0.0493498 0)
(0.408377 -0.0292921 0)
(0.31049 -0.0102133 0)
(0.202288 -0.0121769 0)
(0.177179 -0.00551191 3.43298e-21)
(-0.0370842 0.0362221 0)
(-0.383722 0.0665471 -4.33295e-19)
(-0.586748 0.0623825 0)
(-0.670338 0.0469128 0)
(-0.706658 0.034405 -4.14327e-21)
(-0.719156 0.0238512 1.57115e-20)
(-0.714951 0.0141815 1.58345e-21)
(-0.698178 0.00487444 1.16562e-20)
(-0.665578 -0.00374503 0)
(-0.618536 -0.0116378 -1.66486e-20)
(-0.557595 -0.0184806 -1.01488e-19)
(-0.483118 -0.023975 -2.37747e-21)
(-0.395508 -0.0277598 3.69215e-19)
(-0.295807 -0.029388 -4.50103e-19)
(-0.18637 -0.0283905 0)
(-0.0711582 -0.0244467 0)
(0.0447201 -0.0174321 0)
(0.154655 -0.00765467 0)
(0.252763 0.00401475 0)
(0.333971 0.0165523 -2.63896e-18)
(0.395216 0.0289521 0)
(0.435273 0.0405834 2.58002e-18)
(0.459149 0.0505399 2.56218e-18)
(0.465406 0.057354 0)
(0.45489 0.0602596 0)
(0.4351 0.0604999 0)
(0.415475 0.060081 0)
(0.402393 0.0604687 5.45927e-18)
(0.397996 0.0622788 0)
(0.401702 0.0655921 0)
(0.412494 0.0702145 -5.72139e-18)
(0.429581 0.0762837 -5.75281e-18)
(0.452984 0.0840728 0)
(0.481797 0.0933799 -1.12796e-17)
(0.519782 0.104927 0)
(0.559057 0.117777 -1.01259e-17)
(0.62512 0.136225 -4.49121e-18)
(0.658274 0.150258 3.21053e-18)
(0.818384 0.189088 2.25414e-18)
(0.79861 -0.0913382 -3.36068e-19)
(-0.0778675 0.0480244 -5.57479e-18)
(0.0671763 -0.0275644 0)
(-0.0566234 0.0174031 5.24796e-18)
(0.00332937 0.0020706 0)
(-0.0444663 0.00899767 0)
(-0.0151917 0.00220724 0)
(-0.0297749 0.00574459 -4.06782e-18)
(-0.0282338 0.00751722 0)
(-0.0547924 0.0141454 -3.61203e-18)
(-0.0830836 0.019415 0)
(-0.109774 0.0197114 0)
(-0.110206 0.0110093 -1.49268e-18)
(-0.0709172 -0.00908202 0)
(0.0312121 -0.0377219 0)
(0.186149 -0.0632594 0)
(0.328294 -0.0574831 0)
(0.391478 -0.026166 0)
(0.326518 -0.00186405 0)
(0.223093 -0.0053722 1.36793e-18)
(0.140295 0.0152331 -1.37597e-18)
(-0.153073 0.0764718 0)
(-0.469164 0.0996013 6.35978e-21)
(-0.601709 0.0766647 -2.03953e-19)
(-0.661243 0.0523945 0)
(-0.695443 0.0363792 8.82437e-21)
(-0.70974 0.0235838 0)
(-0.707195 0.0120008 -6.28328e-21)
(-0.689409 0.00132882 -1.06824e-20)
(-0.656151 -0.00880045 0)
(-0.608563 -0.0181058 0)
(-0.547168 -0.026298 9.21971e-20)
(-0.47231 -0.0330828 -2.4179e-21)
(-0.38437 -0.0380626 0)
(-0.284379 -0.0406831 8.10786e-19)
(-0.174686 -0.0403151 0)
(-0.059229 -0.0364865 1.06654e-18)
(0.0568608 -0.0290011 0)
(0.166996 -0.0181589 0)
(0.265229 -0.00487293 0)
(0.34659 0.00965625 2.44961e-18)
(0.408179 0.0241912 0)
(0.449563 0.0377005 0)
(0.474146 0.0494623 -2.46521e-18)
(0.484776 0.0584954 0)
(0.483391 0.0639933 0)
(0.473175 0.066328 2.58173e-18)
(0.459628 0.0668434 -2.64079e-18)
(0.448676 0.0670955 -2.70125e-18)
(0.444136 0.0682235 0)
(0.447146 0.0707646 0)
(0.457463 0.0748956 0)
(0.474475 0.0807569 5.71902e-18)
(0.498356 0.0880796 5.69952e-18)
(0.528293 0.0970926 5.61447e-18)
(0.567849 0.10831 0)
(0.609996 0.121395 5.04e-18)
(0.678646 0.138939 8.93551e-18)
(0.716811 0.154914 0)
(0.882569 0.190256 -2.24161e-18)
(0.836439 -0.0599269 -2.63432e-19)
(0.04386 0.0394949 5.13223e-18)
(0.0470601 -0.0202302 -4.85161e-18)
(-0.0765382 0.0223661 0)
(0.00023807 0.00245002 0)
(-0.0466226 0.00968883 0)
(-0.0193572 0.00273938 0)
(-0.0336273 0.00670976 0)
(-0.0330384 0.0095317 0)
(-0.0588444 0.0169601 3.51196e-18)
(-0.0862278 0.0223096 3.24642e-18)
(-0.112733 0.0213849 0)
(-0.114875 0.00995891 0)
(-0.0789023 -0.0146417 0)
(0.0172037 -0.0486352 1.35738e-18)
(0.166228 -0.0765191 0)
(0.307983 -0.0656683 1.12561e-18)
(0.37059 -0.0237774 -1.05625e-18)
(0.319696 0.00703528 0)
(0.223224 0.00581621 -1.33445e-18)
(0.0889696 0.0429681 0)
(-0.240333 0.116158 -5.63855e-19)
(-0.496253 0.124877 7.63775e-19)
(-0.587746 0.0860549 1.91516e-19)
(-0.645493 0.0571465 0)
(-0.680899 0.0387625 -4.60377e-21)
(-0.696244 0.0240061 0)
(-0.694104 0.010672 -8.63861e-21)
(-0.676044 -0.00181111 0)
(-0.642745 -0.0135514 0)
(-0.595176 -0.0243795 0)
(-0.533849 -0.0340388 8.2964e-20)
(-0.45909 -0.0422384 -4.66647e-19)
(-0.371265 -0.0485401 0)
(-0.271386 -0.0522751 -3.74004e-19)
(-0.161796 -0.052645 0)
(-0.0464071 -0.0490102 -9.91165e-19)
(0.0695072 -0.0410312 0)
(0.179333 -0.0289709 0)
(0.277088 -0.0138827 0)
(0.357834 0.00282507 2.29704e-18)
(0.418742 0.0196364 0)
(0.459655 0.0352708 2.32292e-18)
(0.483564 0.0487374 -2.36257e-18)
(0.494301 0.0590186 0)
(0.495187 0.0657279 -2.4607e-18)
(0.489306 0.06923 -5.05947e-18)
(0.480358 0.070584 2.60176e-18)
(0.47251 0.0711808 5.34092e-18)
(0.469122 0.0722742 -5.46605e-18)
(0.471905 0.0746589 -5.57186e-18)
(0.481335 0.0786512 0)
(0.497288 0.0841123 -5.69216e-18)
(0.520179 0.0911128 -5.67122e-18)
(0.549498 0.0999494 -5.56638e-18)
(0.588628 0.11093 0)
(0.631204 0.124328 0)
(0.699638 0.141094 -4.4194e-18)
(0.740306 0.158902 0)
(0.903455 0.189633 2.1523e-18)
(0.861458 -0.0344662 -2.46481e-19)
(0.153291 0.035584 -8.98884e-20)
(0.0538939 -0.0143851 4.80691e-18)
(-0.0865917 0.0249743 5.18549e-18)
(-0.00286093 0.0024232 0)
(-0.0480674 0.010275 -4.43994e-18)
(-0.0230071 0.00321604 0)
(-0.0368745 0.00759555 0)
(-0.0368674 0.0113441 0)
(-0.0616868 0.0195386 3.4325e-18)
(-0.0883615 0.0250347 -3.15685e-18)
(-0.115086 0.0230733 0)
(-0.119315 0.00910125 0)
(-0.0872395 -0.0197961 0)
(0.00232847 -0.0590644 -1.30358e-18)
(0.144277 -0.0894668 0)
(0.28586 -0.0739765 -1.09301e-18)
(0.348889 -0.0219653 1.03411e-18)
(0.305485 0.0158026 0)
(0.21256 0.0202291 0)
(0.033635 0.0744703 6.40672e-19)
(-0.299803 0.151525 5.42748e-19)
(-0.497079 0.142717 -7.07612e-19)
(-0.571504 0.0935393 -1.67406e-19)
(-0.629717 0.0619548 0)
(-0.665217 0.0412263 -6.95182e-21)
(-0.680742 0.0243979 0)
(-0.678612 0.00921337 8.10596e-21)
(-0.660444 -0.00501505 6.84044e-21)
(-0.627203 -0.0183883 0)
(-0.579752 -0.0307646 0)
(-0.518596 -0.041916 -1.55465e-19)
(-0.444042 -0.0515565 2.19316e-19)
(-0.356432 -0.0592052 0)
(-0.256756 -0.0640742 -3.50692e-19)
(-0.147349 -0.0651915 0)
(-0.032104 -0.0617386 9.36366e-19)
(0.0834963 -0.0532316 0)
(0.192824 -0.0399138 0)
(0.289872 -0.0229767 0)
(0.369698 -0.00404452 -2.20376e-18)
(0.42951 0.015073 -2.21272e-18)
(0.469269 0.0327813 -2.24296e-18)
(0.49189 0.0478179 4.30221e-21)
(0.501641 0.0592417 -2.32961e-18)
(0.502509 0.0667777 2.39678e-18)
(0.497787 0.0708964 4.94408e-18)
(0.490613 0.0726232 0)
(0.484242 0.0732623 -2.63178e-18)
(0.481503 0.0740606 5.40411e-18)
(0.484146 0.0758876 5.51984e-18)
(0.492958 0.079089 0)
(0.508133 0.0837603 0)
(0.530217 0.0903224 0)
(0.558877 0.0986965 5.51312e-18)
(0.597462 0.10914 0)
(0.639952 0.122109 0)
(0.707923 0.138048 4.30292e-18)
(0.749707 0.155618 -3.01487e-18)
(0.909814 0.18357 -2.08276e-18)
(0.88024 -0.0137286 -2.28014e-19)
(0.251005 0.0348251 -4.72998e-18)
(0.0812066 -0.0095249 0)
(-0.0878792 0.0266186 -5.16305e-18)
(-0.00592756 0.00223412 -4.64952e-18)
(-0.049117 0.0108057 4.80413e-22)
(-0.026152 0.00364592 0)
(-0.0396403 0.00840859 0)
(-0.0399493 0.012986 0)
(-0.0637132 0.0219342 -3.36524e-18)
(-0.0897956 0.0276426 0)
(-0.116957 0.0248101 0)
(-0.123533 0.00850065 1.3342e-18)
(-0.0957894 -0.024411 0)
(-0.0131787 -0.0687217 0)
(0.120594 -0.101848 0)
(0.262003 -0.0822619 0)
(0.326189 -0.0205293 -1.005e-18)
(0.288051 0.0244376 0)
(0.195474 0.0373106 1.27595e-18)
(-0.0201076 0.107593 -6.20077e-19)
(-0.337456 0.181833 -5.05927e-19)
(-0.487329 0.156024 6.51874e-19)
(-0.555732 0.100392 3.09627e-19)
(-0.613358 0.0667494 0)
(-0.64829 0.0436612 6.58646e-21)
(-0.663572 0.0247511 0)
(-0.66128 0.00770115 0)
(-0.643025 -0.00825034 -1.21669e-20)
(-0.609842 -0.0232409 0)
(-0.562524 -0.0371538 0)
(-0.501566 -0.0497861 1.46988e-19)
(-0.427255 -0.0608573 0)
(-0.339903 -0.069844 0)
(-0.240467 -0.0758371 3.37623e-19)
(-0.131274 -0.0776895 0)
(-0.0162167 -0.0743926 -9.04323e-19)
(0.098979 -0.0653241 0)
(0.207701 -0.0507251 0)
(0.303908 -0.0319172 0)
(0.382639 -0.0107448 0)
(0.441115 0.0106804 2.15046e-18)
(0.479363 0.0304372 2.17484e-18)
(0.500328 0.0470197 4.47917e-21)
(0.50859 0.05948 2.27687e-18)
(0.508585 0.0676641 2.33974e-18)
(0.503768 0.0721636 -2.4225e-18)
(0.496975 0.0740304 0)
(0.490957 0.0745497 -2.59039e-18)
(0.488224 0.0749979 2.66565e-18)
(0.490536 0.0763425 -5.45381e-18)
(0.498849 0.0790922 0)
(0.51347 0.0835124 0)
(0.535112 0.0894649 -5.54661e-18)
(0.563465 0.0972843 -5.42786e-18)
(0.601837 0.107192 5.20187e-18)
(0.644296 0.119805 4.78734e-18)
(0.71213 0.134992 -4.20232e-18)
(0.754424 0.152611 2.92516e-18)
(0.912504 0.17811 0)
(0.895309 0.00501586 -2.04966e-19)
(0.337866 0.0365099 0)
(0.120026 -0.00429456 4.58435e-18)
(-0.0778759 0.0273488 5.10015e-18)
(-0.00870999 0.00213071 -4.32349e-22)
(-0.0498439 0.0112795 4.35597e-18)
(-0.028759 0.00402504 0)
(-0.0419361 0.00914323 0)
(-0.0423597 0.0144671 0)
(-0.0650526 0.0241646 1.65532e-18)
(-0.0905945 0.030154 1.51355e-18)
(-0.118303 0.0266068 0)
(-0.127386 0.00817023 -1.31076e-18)
(-0.104297 -0.0284746 1.24166e-18)
(-0.0289786 -0.0775564 0)
(0.0956805 -0.113652 0)
(0.236648 -0.0905367 0)
(0.302449 -0.0193974 8.35806e-21)
(0.268768 0.0330028 0)
(0.17406 0.0565574 -2.49794e-18)
(-0.0695049 0.140855 5.94033e-19)
(-0.359153 0.20748 4.88608e-19)
(-0.473715 0.166677 -1.15445e-20)
(-0.540015 0.106965 -1.44219e-19)
(-0.596107 0.0714203 0)
(-0.630099 0.0460039 0)
(-0.644891 0.0250395 0)
(-0.642329 0.00614198 -6.09076e-21)
(-0.623965 -0.0115067 9.9972e-21)
(-0.590817 -0.02809 0)
(-0.543626 -0.0435185 0)
(-0.482874 -0.057612 -1.40327e-19)
(-0.408829 -0.0700972 -9.92173e-20)
(-0.321761 -0.0804089 0)
(-0.222591 -0.0875156 0)
(-0.113635 -0.0900926 0)
(0.00118785 -0.0869288 0)
(0.115903 -0.077268 0)
(0.223941 -0.0613634 0)
(0.31921 -0.040661 0)
(0.396719 -0.017229 0)
(0.453696 0.00651412 0)
(0.490212 0.0283164 -5.33544e-21)
(0.509273 0.0464291 2.18371e-18)
(0.515728 0.0598581 0)
(0.514411 0.0685826 -4.59532e-18)
(0.50895 0.0733442 -2.37925e-18)
(0.501963 0.0752525 0)
(0.495809 0.07559 2.55716e-18)
(0.492768 0.0756591 -2.63578e-18)
(0.494628 0.0765111 5.39963e-18)
(0.502488 0.0787371 -5.48407e-18)
(0.516779 0.0825371 0)
(0.538198 0.0880112 6.31638e-21)
(0.566442 0.0954149 5.36383e-18)
(0.604785 0.104882 -1.02423e-17)
(0.64733 0.117085 -1.37211e-20)
(0.715162 0.131704 -4.07386e-18)
(0.757923 0.14892 2.79366e-18)
(0.914438 0.172694 1.86732e-18)
(0.907618 0.0223076 -5.65245e-19)
(0.414774 0.0400882 0)
(0.16621 0.00162293 9.85341e-21)
(-0.0562876 0.0275418 -3.2625e-21)
(-0.0105382 0.00232106 4.67293e-18)
(-0.0502308 0.0116955 4.33132e-18)
(-0.0307899 0.00434622 0)
(-0.0437381 0.00979297 3.79689e-18)
(-0.0441121 0.0157887 0)
(-0.0657337 0.0262355 -1.63118e-18)
(-0.0907357 0.032575 -2.41422e-22)
(-0.119021 0.0284631 -1.37175e-18)
(-0.130681 0.00810927 0)
(-0.112467 -0.0319959 -2.44251e-18)
(-0.0447002 -0.0855673 0)
(0.0701644 -0.124906 0)
(0.21005 -0.0988301 0)
(0.277774 -0.0185567 9.89331e-19)
(0.248238 0.0415734 0)
(0.149307 0.0774721 1.22331e-18)
(-0.11324 0.173247 -1.14889e-18)
(-0.369506 0.22903 0)
(-0.45878 0.175556 -1.15188e-20)
(-0.523917 0.11332 0)
(-0.577875 0.075898 0)
(-0.610691 0.0482244 1.11343e-20)
(-0.624829 0.0252526 0)
(-0.62192 0.00454026 1.26639e-20)
(-0.603415 -0.014779 -4.41665e-21)
(-0.570277 -0.0329314 -4.95336e-21)
(-0.523204 -0.0498552 1.03137e-20)
(-0.462662 -0.0653916 6.78464e-20)
(-0.388897 -0.0792764 1.92595e-19)
(-0.302137 -0.090904 0)
(-0.203256 -0.0991186 3.16526e-19)
(-0.0945584 -0.102413 0)
(0.019973 -0.0993615 0)
(0.134141 -0.0890786 0)
(0.241432 -0.0718407 9.75324e-19)
(0.335684 -0.0492138 0)
(0.411872 -0.0234939 0)
(0.467229 0.00258932 2.04776e-18)
(0.501859 0.0264504 -2.08781e-18)
(0.518839 0.046086 0)
(0.523259 0.0604349 0)
(0.520336 0.0696135 2.2622e-18)
(0.513922 0.074548 2.3469e-18)
(0.50648 0.0764381 -2.43662e-18)
(0.500003 0.0765669 0)
(0.496538 0.0762426 0)
(0.49789 0.0765801 0)
(0.505298 0.0782489 3.5582e-21)
(0.519292 0.0815232 0)
(0.540576 0.0865183 5.44566e-18)
(0.568816 0.0934582 0)
(0.607227 0.102474 5.05794e-18)
(0.649919 0.114233 -4.61991e-18)
(0.717804 0.128363 7.98921e-18)
(0.761005 0.145015 -2.72854e-18)
(0.916188 0.167463 -1.81724e-18)
(0.917655 0.0379417 1.70957e-19)
(0.482607 0.0450236 -4.13848e-18)
(0.216985 0.0082008 -4.32953e-18)
(-0.0258822 0.0279161 -3.25969e-21)
(-0.0102792 0.00293858 -4.68823e-18)
(-0.0501915 0.0120742 -4.32037e-18)
(-0.0322095 0.0046043 0)
(-0.0450153 0.0103525 -3.76195e-18)
(-0.0451935 0.016949 0)
(-0.0657423 0.0281468 -1.61106e-18)
(-0.0901622 0.0349018 -1.46848e-18)
(-0.118986 0.0303687 1.35387e-18)
(-0.133207 0.00830627 -1.26782e-18)
(-0.119994 -0.0349887 1.20597e-18)
(-0.0599818 -0.0927711 -1.18224e-18)
(0.0447077 -0.135611 1.15217e-18)
(0.182363 -0.107137 0)
(0.252319 -0.018017 0)
(0.226788 0.0502392 0)
(0.121436 0.0997468 5.92225e-19)
(-0.150364 0.203924 5.55899e-19)
(-0.371882 0.247016 0)
(-0.443373 0.183157 -2.59137e-19)
(-0.507196 0.119439 0)
(-0.558669 0.080145 0)
(-0.590145 0.050307 -1.07869e-20)
(-0.603516 0.0253832 2.14382e-20)
(-0.600205 0.00289403 -6.5819e-21)
(-0.58153 -0.0180681 0)
(-0.548382 -0.0377675 9.42121e-21)
(-0.501417 -0.0561675 -1.98972e-20)
(-0.441087 -0.07313 0)
(-0.367615 -0.0884018 -9.38967e-20)
(-0.281183 -0.101338 2.47142e-19)
(-0.182614 -0.110658 -3.11331e-19)
(-0.0741945 -0.114664 0)
(0.0399786 -0.111704 0)
(0.153545 -0.10077 0)
(0.260034 -0.0821705 -9.60536e-19)
(0.353205 -0.0575859 0)
(0.42799 -0.0295453 0)
(0.481631 -0.00109409 -2.01693e-18)
(0.514264 0.024846 0)
(0.529033 0.0460051 2.1044e-18)
(0.531243 0.0612379 -2.15384e-18)
(0.526492 0.0707952 0)
(0.518905 0.0758196 2.31389e-18)
(0.510859 0.0776393 4.81887e-18)
(0.504001 0.0775448 -2.50176e-18)
(0.500097 0.0768284 0)
(0.500929 0.0766453 0)
(0.507871 0.0777476 2.705e-18)
(0.521566 0.0804802 0)
(0.542737 0.0849713 5.40607e-18)
(0.571008 0.0914398 0)
(0.609525 0.100015 4.99862e-18)
(0.652392 0.111313 4.54785e-18)
(0.720348 0.125003 -3.93736e-18)
(0.763961 0.14099 0)
(0.917938 0.162381 1.75124e-18)
(0.92583 0.051924 -1.28224e-19)
(0.542211 0.050866 7.40685e-20)
(0.270183 0.0153295 4.23211e-18)
(0.0114795 0.0289295 -3.43294e-21)
(-0.00688606 0.00405623 -5.63492e-22)
(-0.0495417 0.0124576 0)
(-0.0329846 0.00479877 0)
(-0.0457403 0.010818 0)
(-0.0455815 0.0179446 -1.72642e-18)
(-0.0650461 0.0298947 3.18531e-18)
(-0.0888054 0.0371247 0)
(-0.118069 0.0323072 1.33468e-18)
(-0.134761 0.0087438 5.09098e-21)
(-0.126589 -0.0374684 -1.18224e-18)
(-0.0744993 -0.0991903 8.69953e-21)
(0.0199048 -0.14573 -1.1438e-18)
(0.15358 -0.115409 0)
(0.226246 -0.0177966 0)
(0.204627 0.0590888 0)
(0.0913519 0.122819 -5.80079e-19)
(-0.180656 0.232391 0)
(-0.368678 0.261946 3.96066e-19)
(-0.427713 0.18982 2.28628e-19)
(-0.489741 0.125285 -1.03798e-19)
(-0.538536 0.084142 0)
(-0.568559 0.0522428 0)
(-0.581084 0.0254272 -2.08845e-20)
(-0.577331 0.00120185 0)
(-0.558463 -0.021375 1.53183e-21)
(-0.52529 -0.0426 -4.49183e-21)
(-0.478426 -0.062458 9.62679e-21)
(-0.418311 -0.0808305 -6.23239e-20)
(-0.345143 -0.0974775 0)
(-0.259056 -0.111718 -2.43458e-19)
(-0.160819 -0.122142 0)
(-0.0526949 -0.126851 0)
(0.0610448 -0.123962 8.27702e-19)
(0.173967 -0.112351 0)
(0.279612 -0.0923603 0)
(0.371646 -0.0657835 0)
(0.444963 -0.0353877 0)
(0.496808 -0.00453815 0)
(0.527357 0.0235041 0)
(0.539817 0.0461934 -4.15268e-18)
(0.539685 0.0622824 2.12588e-18)
(0.532923 0.0721505 2.19473e-18)
(0.523981 0.0771828 -4.57294e-18)
(0.515226 0.0788769 -2.38439e-18)
(0.507978 0.0785462 2.47985e-18)
(0.503677 0.0774479 -2.56574e-18)
(0.50402 0.0767504 0)
(0.510494 0.0772785 1.50259e-21)
(0.523873 0.0794484 -5.41367e-18)
(0.544921 0.0834196 -5.38686e-18)
(0.573226 0.0894083 -5.22869e-18)
(0.611859 0.0975433 -9.93561e-18)
(0.654908 0.108369 -4.51699e-18)
(0.72293 0.121646 3.87506e-18)
(0.766924 0.136919 2.59299e-18)
(0.919765 0.157427 -1.72938e-18)
(0.932514 0.0644568 -1.49092e-19)
(0.594387 0.0572719 3.95515e-18)
(0.324112 0.0228852 2.34565e-21)
(0.0550021 0.0306403 -3.81305e-21)
(0.000593996 0.00602134 4.62829e-18)
(-0.0479375 0.0129034 4.33704e-18)
(-0.0330734 0.00493654 -3.95034e-18)
(-0.045894 0.0111878 1.85223e-18)
(-0.0452558 0.0187718 -6.57974e-22)
(-0.0636094 0.0314732 -1.57613e-18)
(-0.0865981 0.0392303 -1.4338e-18)
(-0.116157 0.0342585 -1.32162e-18)
(-0.135157 0.00940073 2.48869e-18)
(-0.131988 -0.0394499 8.44827e-21)
(-0.0879616 -0.104817 1.16027e-18)
(-0.00381597 -0.155217 0)
(0.123591 -0.123569 1.0237e-18)
(0.199713 -0.0179376 0)
(0.181918 0.0681672 -1.02716e-18)
(0.0603422 0.146121 -5.59416e-19)
(-0.204593 0.258405 -5.04966e-19)
(-0.361564 0.274283 -1.27257e-20)
(-0.411805 0.195766 -2.21704e-19)
(-0.471515 0.130825 1.00964e-19)
(-0.517538 0.08788 0)
(-0.546031 0.0540273 1.6061e-20)
(-0.55766 0.025383 0)
(-0.553438 -0.000536401 0)
(-0.534362 -0.0246999 -1.49907e-21)
(-0.501155 -0.0474297 0)
(-0.454388 -0.0687281 0)
(-0.394488 -0.088495 6.12935e-20)
(-0.321633 -0.106506 0)
(-0.235905 -0.122045 0)
(-0.138015 -0.133573 2.98909e-19)
(-0.030207 -0.138976 0)
(0.0830253 -0.136137 -8.19552e-19)
(0.195274 -0.123826 0)
(0.300038 -0.102415 9.31331e-19)
(0.390892 -0.0738109 0)
(0.462683 -0.041024 0)
(0.512667 -0.00774487 0)
(0.541061 0.0224238 0)
(0.551139 0.0466538 2.05158e-18)
(0.548562 0.0635785 0)
(0.53964 0.0736957 -4.33437e-18)
(0.529182 0.0786536 2.26062e-18)
(0.519622 0.0801601 -2.35834e-18)
(0.511992 0.0795752 2.45682e-18)
(0.507369 0.0781075 2.54739e-18)
(0.507292 0.0769099 0)
(0.513322 0.0768618 2.67355e-18)
(0.526373 0.0784536 8.08783e-18)
(0.547279 0.0818893 -5.36157e-18)
(0.575603 0.0873869 5.21298e-18)
(0.614342 0.0950775 4.94568e-18)
(0.657565 0.105425 0)
(0.725637 0.118301 -3.85434e-18)
(0.769974 0.132839 -5.12853e-18)
(0.921717 0.152574 0)
(0.938016 0.075743 7.16955e-19)
(0.639891 0.0639754 0)
(0.377444 0.0307447 7.45283e-23)
(0.102885 0.0332068 -4.30544e-21)
(0.0148174 0.0084601 -4.55127e-18)
(-0.0447759 0.0135027 -8.71694e-18)
(-0.0324038 0.00503704 7.89927e-18)
(-0.0454651 0.0114627 -1.84043e-18)
(-0.0442048 0.0194273 1.69657e-18)
(-0.0614014 0.0328758 0)
(-0.0834831 0.0412041 3.29734e-22)
(-0.11315 0.0362007 0)
(-0.134244 0.0102544 -2.46792e-18)
(-0.135966 -0.0409489 1.1639e-18)
(-0.100088 -0.109675 0)
(-0.0261912 -0.163943 0)
(0.092399 -0.131544 -1.02449e-18)
(0.172906 -0.0185059 0)
(0.158807 0.0774656 1.02328e-18)
(0.0294407 0.169239 5.48612e-19)
(-0.222823 0.281816 8.92363e-21)
(-0.351692 0.284423 -3.60798e-19)
(-0.395587 0.201137 -1.96057e-19)
(-0.452524 0.136032 0)
(-0.495747 0.0913561 0)
(-0.522662 0.0556585 -1.57028e-20)
(-0.533362 0.0252507 0)
(-0.528655 -0.00231986 -9.72707e-21)
(-0.509364 -0.028042 3.96072e-22)
(-0.476119 -0.0522567 3.62187e-21)
(-0.429447 -0.0749786 -8.58163e-21)
(-0.369763 -0.0961249 5.84385e-20)
(-0.297226 -0.115489 -8.60432e-20)
(-0.211867 -0.132323 2.32295e-19)
(-0.114337 -0.144956 -2.96591e-19)
(-0.0068735 -0.151042 0)
(0.105794 -0.148232 0)
(0.217345 -0.1352 0)
(0.321201 -0.11234 -3.61196e-21)
(0.410837 -0.0816717 9.4481e-19)
(0.481055 -0.046457 0)
(0.529122 -0.0107162 0)
(0.555304 0.0216041 0)
(0.562939 0.0473872 0)
(0.557842 0.0651325 0)
(0.546639 0.0754434 3.62599e-21)
(0.534518 0.0802446 0)
(0.524056 0.081494 4.67141e-18)
(0.516052 0.080628 -4.87265e-18)
(0.511193 0.0788015 -2.5278e-18)
(0.510793 0.0771232 0)
(0.516436 0.0765057 0)
(0.529168 0.0775111 -5.36797e-18)
(0.549912 0.0803975 4.79407e-21)
(0.578234 0.0853914 -5.18729e-18)
(0.617058 0.0926309 4.91568e-18)
(0.660435 0.102495 4.4486e-18)
(0.728528 0.114974 -3.81339e-18)
(0.773167 0.128773 5.06931e-18)
(0.923826 0.147807 1.66644e-18)
(0.942588 0.0859318 1.31839e-19)
(0.679429 0.0707675 -3.68049e-18)
(0.429163 0.0387921 -7.95907e-18)
(0.153684 0.0366847 -4.93328e-21)
(0.0358851 0.0113293 4.45793e-18)
(-0.0390718 0.0143745 4.3755e-18)
(-0.0308411 0.0051411 -1.97853e-18)
(-0.0444443 0.0116477 0)
(-0.0424303 0.0199088 0)
(-0.0584025 0.0340956 1.54864e-18)
(-0.0794187 0.043031 1.40638e-18)
(-0.10898 0.0381119 0)
(-0.131908 0.0112823 1.22739e-18)
(-0.13835 -0.0419806 0)
(-0.110641 -0.113777 0)
(-0.0470572 -0.171763 0)
(0.0603911 -0.139303 0)
(0.146073 -0.0195666 9.79007e-19)
(0.135405 0.0869393 5.04695e-19)
(-0.000593139 0.191817 -5.2969e-19)
(-0.236001 0.30258 9.01523e-21)
(-0.339848 0.292694 0)
(-0.378989 0.206018 1.91397e-19)
(-0.432794 0.140888 0)
(-0.473233 0.0945716 0)
(-0.498543 0.0571367 -1.94322e-20)
(-0.508299 0.0250316 2.69275e-20)
(-0.503099 -0.00414701 9.54511e-21)
(-0.483591 -0.0314004 -3.88998e-22)
(-0.450309 -0.0570806 -6.88124e-21)
(-0.403732 -0.0812101 1.66592e-20)
(-0.344265 -0.103722 -5.76859e-20)
(-0.272051 -0.124429 8.51311e-20)
(-0.187067 -0.142554 -2.08511e-21)
(-0.0899037 -0.156292 -2.90885e-19)
(0.0171752 -0.163049 0)
(0.129238 -0.160248 0)
(0.240072 -0.146477 0)
(0.342995 -0.122138 -1.83175e-18)
(0.431383 -0.0893696 -9.40739e-19)
(0.499992 -0.0516893 0)
(0.546095 -0.013454 0)
(0.570014 0.0210431 -1.94062e-18)
(0.57516 0.048393 0)
(0.567486 0.066948 0)
(0.553906 0.0774033 4.22646e-18)
(0.539991 0.0819672 -2.20777e-18)
(0.528526 0.0828828 -4.62648e-18)
(0.520142 0.0816984 9.48496e-22)
(0.515136 0.0795181 5.02001e-18)
(0.514531 0.0773814 2.58818e-18)
(0.519871 0.0762088 0)
(0.532316 0.0766265 2.67314e-18)
(0.552892 0.0789531 5.32791e-18)
(0.581187 0.0834318 5.17586e-18)
(0.620067 0.0902124 -4.90512e-18)
(0.663569 0.0995897 -4.43845e-18)
(0.731645 0.111668 3.80479e-18)
(0.776543 0.124734 -2.51855e-18)
(0.926113 0.143115 -1.66252e-18)
(0.946437 0.095145 1.24594e-19)
(0.713665 0.0774885 3.64882e-18)
(0.478513 0.0469161 3.71311e-21)
(0.206227 0.0410282 -5.64262e-21)
(0.0629741 0.0148668 0)
(-0.0294223 0.0154818 0)
(-0.0281413 0.00531697 2.09399e-22)
(-0.0428126 0.0117544 0)
(-0.0399481 0.0202153 0)
(-0.054608 0.0351262 6.60945e-22)
(-0.0743828 0.0446967 0)
(-0.103605 0.0399711 0)
(-0.128076 0.0124649 1.21276e-18)
(-0.139023 -0.0425593 0)
(-0.119444 -0.117125 0)
(-0.0662954 -0.178591 0)
(0.0284682 -0.146824 0)
(0.119502 -0.0211627 1.90156e-21)
(0.111753 0.0965239 -5.0289e-19)
(-0.0292011 0.213553 1.03705e-18)
(-0.244736 0.320723 8.8795e-21)
(-0.326558 0.299367 3.07587e-19)
(-0.361951 0.210461 0)
(-0.412365 0.145384 6.98299e-20)
(-0.450065 0.0975308 0)
(-0.47376 0.0584638 1.90661e-20)
(-0.482566 0.0247276 1.9016e-21)
(-0.476873 -0.0060159 0)
(-0.457151 -0.0347734 0)
(-0.423836 -0.0619007 2.43179e-22)
(-0.377358 -0.087423 -2.50256e-22)
(-0.318111 -0.111287 2.74927e-20)
(-0.246222 -0.133328 0)
(-0.161616 -0.152742 -2.26786e-19)
(-0.064823 -0.167583 2.89677e-19)
(0.0418205 -0.174997 0)
(0.153252 -0.172188 -7.90805e-19)
(0.263355 -0.157661 0)
(0.365325 -0.131814 4.20231e-21)
(0.452441 -0.0969082 0)
(0.51941 -0.0567239 9.39066e-19)
(0.563511 -0.0159605 9.46131e-19)
(0.585125 0.0207389 8.65297e-21)
(0.587744 0.0496694 -1.97173e-18)
(0.577453 0.0690265 0)
(0.561423 0.0795828 -3.9126e-21)
(0.5456 0.0838314 2.18673e-18)
(0.533028 0.0843314 1.4845e-21)
(0.524242 0.0827808 2.39694e-18)
(0.519166 0.0802436 -6.0772e-22)
(0.518482 0.0776704 -6.54717e-22)
(0.523627 0.0759629 0)
(0.535842 0.0757987 0)
(0.556258 0.0775596 0)
(0.584506 0.0815139 0)
(0.623408 0.0878278 0)
(0.667001 0.0967142 4.40864e-18)
(0.735015 0.108388 0)
(0.780128 0.120732 0)
(0.928591 0.13849 -1.63563e-18)
(0.949733 0.103496 -6.74682e-19)
(0.743217 0.0840232 0)
(0.524953 0.0550093 5.20938e-21)
(0.259519 0.0461329 -6.373e-21)
(0.0954392 0.0191312 0)
(-0.0147077 0.0168918 2.1658e-18)
(-0.023906 0.00564929 -1.99691e-18)
(-0.0405228 0.0118043 0)
(-0.0367872 0.020349 0)
(-0.0500302 0.0359617 -1.52488e-18)
(-0.0683748 0.0461884 0)
(-0.0970159 0.0417595 0)
(-0.122723 0.0137774 -1.20798e-18)
(-0.13792 -0.0426977 0)
(-0.126378 -0.119714 -1.09052e-18)
(-0.0838222 -0.184412 0)
(-0.00210977 -0.154089 0)
(0.0933936 -0.0232761 4.96692e-21)
(0.0877759 0.106129 0)
(-0.0559341 0.234192 -5.0817e-19)
(-0.249572 0.336319 4.38151e-19)
(-0.312173 0.304667 -5.90605e-19)
(-0.344423 0.214497 1.58509e-19)
(-0.391281 0.149514 -6.8564e-20)
(-0.426305 0.10024 0)
(-0.448389 0.0596426 2.27211e-20)
(-0.456249 0.0243413 -5.76372e-20)
(-0.450067 -0.00792426 0)
(-0.430139 -0.0381593 1.58874e-21)
(-0.396798 -0.0667161 2.98345e-21)
(-0.350424 -0.0936173 -7.74803e-21)
(-0.291401 -0.118821 -2.72129e-20)
(-0.219839 -0.142187 0)
(-0.135613 -0.162888 -2.21236e-19)
(-0.0391918 -0.178828 2.84326e-19)
(0.0669545 -0.186887 0)
(0.177743 -0.184057 7.88666e-19)
(0.2871 -0.168756 0)
(0.388098 -0.141371 9.07062e-19)
(0.473923 -0.104291 0)
(0.539229 -0.0615638 -9.38278e-19)
(0.581299 -0.018238 -9.44453e-19)
(0.600575 0.0206893 9.30777e-21)
(0.600637 0.0512143 1.959e-18)
(0.5877 0.0713679 0)
(0.569167 0.0819871 -2.06693e-18)
(0.551339 0.0858465 0)
(0.537557 0.0858458 2.27185e-18)
(0.528332 0.083871 0)
(0.523246 0.0809645 -2.47549e-18)
(0.522607 0.0779736 -5.11445e-18)
(0.527679 0.0757549 0)
(0.539741 0.0750209 0)
(0.560021 0.0762158 0)
(0.58821 0.0796395 2.56718e-18)
(0.627099 0.0854796 0)
(0.670746 0.0938715 -1.01623e-20)
(0.738648 0.105134 0)
(0.783935 0.11677 2.46559e-18)
(0.931263 0.133929 1.63586e-18)
(0.952615 0.111088 0)
(0.768662 0.0902927 3.44615e-18)
(0.56812 0.0629712 3.8001e-18)
(0.312692 0.051865 -7.07294e-21)
(0.132538 0.0240854 0)
(0.00538974 0.0187236 -2.13628e-18)
(-0.0175862 0.00622989 0)
(-0.0374708 0.0118326 1.82591e-18)
(-0.0329843 0.0203159 1.65801e-18)
(-0.0446989 0.0365973 1.51584e-18)
(-0.061416 0.0474946 1.3727e-18)
(-0.0892331 0.0434609 1.25877e-18)
(-0.115864 0.0152018 0)
(-0.135028 -0.0424075 0)
(-0.131366 -0.121542 1.08539e-18)
(-0.0994716 -0.189225 0)
(-0.0303647 -0.161076 0)
(0.0676549 -0.0257906 -9.95287e-19)
(0.0631927 0.115739 0)
(-0.0803382 0.253485 -4.94269e-19)
(-0.250987 0.349472 0)
(-0.296921 0.308782 2.8401e-19)
(-0.326373 0.218146 -1.55784e-19)
(-0.369587 0.153282 0)
(-0.402011 0.102705 0)
(-0.422498 0.0606768 1.95246e-21)
(-0.429422 0.0238756 2.93018e-20)
(-0.422758 -0.00986968 0)
(-0.402634 -0.041556 -1.56628e-21)
(-0.369279 -0.0715254 2.46313e-21)
(-0.323019 -0.0997925 -7.16104e-21)
(-0.264224 -0.126324 0)
(-0.192991 -0.151008 0)
(-0.109146 -0.172994 2.27119e-21)
(-0.0131058 -0.190028 -2.28575e-21)
(0.0924855 -0.198718 0)
(0.202623 -0.195856 0)
(0.311217 -0.179765 8.52192e-19)
(0.411225 -0.150814 0)
(0.495744 -0.111523 0)
(0.559372 -0.0662126 0)
(0.599391 -0.0202893 0)
(0.616303 0.0208918 1.90543e-18)
(0.613784 0.0530248 1.93236e-18)
(0.598183 0.0739707 0)
(0.577113 0.0846193 0)
(0.557203 0.0880202 2.14052e-18)
(0.542111 0.0874326 0)
(0.532393 0.0849673 0)
(0.527338 0.0816686 -2.45867e-18)
(0.526857 0.0782736 2.54237e-18)
(0.531986 0.0755686 0)
(0.543987 0.0742821 0)
(0.564169 0.0749161 0)
(0.592296 0.0778065 -2.56082e-18)
(0.631141 0.0831674 2.42151e-18)
(0.674805 0.0910618 -8.75454e-18)
(0.742544 0.101907 0)
(0.787964 0.11285 -2.46346e-18)
(0.934125 0.129425 -1.61252e-18)
(0.955192 0.118017 0)
(0.790535 0.0962472 -3.42753e-18)
(0.607805 0.0707128 0)
(0.364984 0.05808 -6.04903e-18)
(0.173447 0.0296626 0)
(0.0308894 0.0210648 -2.09815e-18)
(-0.00855057 0.00721174 0)
(-0.0334542 0.0118906 -1.83222e-18)
(-0.0285744 0.0201294 -1.65301e-18)
(-0.0386597 0.037029 -1.5067e-18)
(-0.0535487 0.0486061 -1.36358e-18)
(-0.0803047 0.0450617 -1.25073e-18)
(-0.107551 0.0167272 0)
(-0.130376 -0.0417015 0)
(-0.134361 -0.122612 0)
(-0.113046 -0.193056 0)
(-0.055889 -0.167691 0)
(0.0417475 -0.0285259 5.08161e-19)