/*--------------------------------*- C++ -*----------------------------------*\
| =========                 |                                                 |
| \\      /  F ield         | OpenFOAM: The Open Source CFD Toolbox           |
|  \\    /   O peration     | Version:  2.4.0                                 |
|   \\  /    A nd           | Web:      www.OpenFOAM.org                      |
|    \\/     M anipulation  |                                                 |
\*---------------------------------------------------------------------------*/
FoamFile
{
    version     2.0;
    format      ascii;
    class       volScalarField;
    location    "2.53";
    object      k;
}
// * * * * * * * * * * * * * * * * * * * * * * * * * * * * * * * * * * * * * //

dimensions      [0 2 -2 0 0 0 0];

internalField   nonuniform List<scalar> 
6000
(
0.0117114
0.00657149
0.00176345
0.000430707
0.000147775
0.000315928
0.00019335
0.000310029
0.00043398
0.000741321
0.00108695
0.00155275
0.00244271
0.0037237
0.00415907
0.00402672
0.00326175
0.00220884
0.00186772
0.00235355
0.00278546
0.00425486
0.00586282
0.00692264
0.00737424
0.00739751
0.00715156
0.00675708
0.0062939
0.00577929
0.00522409
0.00462901
0.00398707
0.00328865
0.0025316
0.00174939
0.00153994
0.00148279
0.00153907
0.00167828
0.00183709
0.00193187
0.00195987
0.00196201
0.00196931
0.0019968
0.00205087
0.00213543
0.00225374
0.00240741
0.00260425
0.0028551
0.0031695
0.00356095
0.00404088
0.00464721
0.00537168
0.00639732
0.00742309
0.00956117
0.0120369
0.0117357
0.00208569
0.000699747
0.0001888
0.000312279
0.000416108
0.000559726
0.000836689
0.00127935
0.00194021
0.00297557
0.00487149
0.00651066
0.0061052
0.00462862
0.00360957
0.00312718
0.00267993
0.00475699
0.0090847
0.00771586
0.00582196
0.00544702
0.00563112
0.00595509
0.00630111
0.00659328
0.00680206
0.00692004
0.00692998
0.00680202
0.0064901
0.00593757
0.00509386
0.00393015
0.0030218
0.00227868
0.00168845
0.00126355
0.0009951
0.000876347
0.000853363
0.000863478
0.000872671
0.000873124
0.000870743
0.000873666
0.00088784
0.000916583
0.000959633
0.00101925
0.00109864
0.00120118
0.00133281
0.00149632
0.00171091
0.00195867
0.00232427
0.00273741
0.0115677
0.0151816
0.00287569
0.000670234
0.000261298
0.000380842
0.000546005
0.000727529
0.0010852
0.00162962
0.00245322
0.00372188
0.00593566
0.00789206
0.00738449
0.00568525
0.00423619
0.00339201
0.00354447
0.00773009
0.00938545
0.00623636
0.00552346
0.00612744
0.00676938
0.00733311
0.00783865
0.00825669
0.00857179
0.00877416
0.00884345
0.00874242
0.00841125
0.007774
0.00675822
0.00531967
0.00411794
0.00308237
0.00222373
0.00156896
0.00110671
0.000800634
0.000620666
0.000523528
0.000474209
0.000449938
0.000438684
0.000434998
0.000436225
0.000441316
0.000450842
0.000465478
0.000486374
0.000514263
0.000550983
0.000595867
0.0006571
0.000719942
0.000824439
0.000886914
0.0114634
0.0160796
0.00399244
0.000567921
0.000326304
0.000441314
0.000638499
0.000853487
0.00126668
0.00188583
0.00281088
0.00420319
0.00649936
0.00859597
0.00809883
0.00633177
0.00485947
0.00395064
0.0047151
0.00945804
0.00830043
0.00587581
0.00638549
0.00733534
0.00810129
0.00875263
0.00932851
0.00979959
0.0101514
0.010375
0.0104501
0.0103376
0.00997056
0.00926087
0.00811848
0.0064945
0.00509044
0.0038335
0.00276813
0.00193919
0.00133837
0.00092554
0.000658912
0.000495442
0.000399605
0.000345692
0.000316503
0.000301506
0.000294725
0.000293428
0.000296944
0.000304149
0.000314579
0.000327916
0.000344388
0.000363637
0.000388034
0.000414165
0.000454519
0.000495631
0.0113761
0.0157706
0.00530522
0.000539935
0.000382148
0.000493448
0.000709904
0.000954462
0.00140859
0.00208353
0.00307363
0.00452528
0.00677525
0.00885823
0.0084215
0.0066944
0.00531879
0.00455274
0.00599061
0.0100455
0.0074058
0.00625826
0.00742239
0.00853697
0.00940539
0.0101399
0.0107737
0.0112759
0.0116368
0.0118502
0.0119003
0.0117508
0.0113335
0.0105539
0.00930694
0.00755562
0.00600561
0.00456816
0.00332271
0.00233479
0.0016065
0.00109767
0.000759475
0.000544102
0.000412254
0.000334876
0.000291467
0.000268643
0.000258392
0.000256321
0.000260194
0.000268224
0.000279401
0.000293134
0.000309422
0.000328182
0.000351288
0.000378095
0.000419624
0.000481391
0.0113032
0.0149434
0.00670259
0.000685109
0.000432126
0.000539656
0.000767308
0.00103735
0.00152156
0.00223699
0.00326417
0.00472814
0.00686256
0.00880289
0.00843946
0.00684307
0.00563212
0.00513166
0.00722366
0.00990798
0.00695197
0.00694351
0.00847365
0.0097332
0.0107157
0.0115327
0.0122115
0.0127231
0.0130651
0.013237
0.0132311
0.0130184
0.0125344
0.011683
0.0103464
0.00851956
0.00686681
0.00528356
0.00388059
0.00274519
0.00189482
0.00129273
0.000885374
0.00061989
0.00045355
0.000353953
0.000297195
0.000267028
0.000253327
0.000250206
0.000254395
0.00026366
0.000276657
0.000292632
0.000311655
0.000333638
0.000361493
0.000393483
0.000448618
0.000524428
0.0112435
0.013943
0.00773714
0.00121673
0.000485913
0.000582325
0.000815629
0.0011067
0.00161213
0.00235507
0.00339698
0.00483973
0.00682985
0.00854352
0.00822312
0.00682621
0.00582714
0.00567919
0.00827988
0.00941936
0.00686497
0.00772844
0.009528
0.0109407
0.0120459
0.0129395
0.0136469
0.0141452
0.0144403
0.0145405
0.0144492
0.0141487
0.013582
0.0126555
0.0112399
0.00938584
0.00766494
0.00596942
0.00443257
0.0031619
0.00219442
0.00150176
0.00102696
0.000711401
0.000509286
0.00038596
0.000314642
0.000276171
0.000258188
0.000253299
0.000257122
0.000266985
0.000281325
0.000299259
0.000320987
0.000346293
0.000379512
0.00041639
0.0004869
0.00056988
0.0111888
0.0129404
0.00844025
0.00213066
0.000565713
0.000624388
0.00085914
0.00116669
0.00168604
0.0024458
0.00348584
0.00488645
0.00672373
0.0081893
0.00784005
0.00668715
0.0059301
0.00619667
0.00902343
0.00888391
0.00703341
0.00854623
0.0105869
0.0121638
0.0133937
0.0143536
0.0150719
0.0155345
0.015757
0.015758
0.0155547
0.0151439
0.0144792
0.0134729
0.0119857
0.0101492
0.00838726
0.00661285
0.0049684
0.0035775
0.00249896
0.00171813
0.00117801
0.000813605
0.000575104
0.000426323
0.000338668
0.000290471
0.000267066
0.000259384
0.000262057
0.000271814
0.000286791
0.00030598
0.000329693
0.00035761
0.000395258
0.000436169
0.000519249
0.000605954
0.011136
0.0120153
0.00885974
0.00322944
0.000715273
0.000669996
0.000901772
0.00122158
0.00174926
0.00251774
0.00354556
0.00489509
0.00658859
0.00782507
0.00736373
0.006471
0.00596765
0.00668536
0.00945817
0.00843399
0.00736677
0.00937793
0.0116503
0.0133989
0.01475
0.015764
0.0164759
0.0168822
0.0170091
0.0168867
0.016548
0.0160065
0.0152295
0.0141376
0.0125878
0.0108007
0.00902193
0.00720122
0.00547771
0.00398509
0.0028037
0.00193738
0.00133383
0.000922628
0.000648494
0.000473404
0.000367891
0.000308533
0.000278551
0.000267174
0.000267906
0.000276805
0.000291669
0.000311345
0.000336212
0.000365893
0.000406796
0.000450818
0.000543405
0.000631917
0.0110859
0.0111992
0.00904294
0.00434448
0.0010155
0.000725757
0.000947156
0.00127555
0.00180801
0.00257999
0.00359148
0.00489147
0.00646268
0.00750902
0.00687634
0.00622548
0.00596731
0.00714521
0.00963858
0.00810687
0.00780121
0.0102169
0.0127163
0.0146394
0.0161048
0.0171601
0.0178494
0.0181812
0.0181926
0.0179259
0.0174313
0.0167414
0.0158387
0.0146545
0.013057
0.0113312
0.00956022
0.0077238
0.00595064
0.00437785
0.00310462
0.0021565
0.0014911
0.00103522
0.000727213
0.000526077
0.000401836
0.000330137
0.000292521
0.000276571
0.000274611
0.000281954
0.000295996
0.000315416
0.000340612
0.000371198
0.000414163
0.000460379
0.000559491
0.000648621
0.0110394
0.0104984
0.00903934
0.00533312
0.00157247
0.000803285
0.000998696
0.00133232
0.00186833
0.00264154
0.00363823
0.00489827
0.00637573
0.00727318
0.00645805
0.00599357
0.00595547
0.00757369
0.00962336
0.00790046
0.00829535
0.0110592
0.0137813
0.015878
0.0174489
0.0185331
0.0191852
0.0194267
0.0193056
0.0188769
0.0182089
0.0173553
0.0163151
0.0150313
0.0134028
0.0117402
0.00999719
0.00817246
0.00637847
0.00474908
0.0033978
0.0023732
0.00164757
0.00114876
0.000809076
0.000583126
0.000440088
0.000355308
0.0003092
0.000287903
0.000282566
0.000287711
0.000300278
0.000318751
0.000343502
0.000374168
0.000418072
0.000465573
0.000568529
0.000657396
0.0109971
0.00990697
0.00889731
0.00613925
0.0023032
0.000923232
0.00106008
0.00139477
0.00193538
0.00271038
0.00369828
0.00493326
0.00634788
0.00713332
0.00616194
0.00580042
0.00595326
0.00796142
0.00946263
0.00779979
0.00882403
0.0119012
0.0148415
0.0171078
0.0187747
0.0198764
0.0204783
0.020616
0.020348
0.0197422
0.0188863
0.017856
0.0166683
0.0152779
0.013636
0.0120312
0.0103315
0.00854189
0.00675407
0.00509244
0.00367924
0.00258537
0.00180168
0.00126129
0.000892046
0.000643134
0.000482006
0.000383947
0.000328785
0.00030152
0.000292213
0.000294585
0.000305092
0.000321996
0.000345607
0.000375596
0.000419421
0.000467322
0.000571808
0.000659651
0.0109591
0.00941369
0.00866051
0.006742
0.0031162
0.0011232
0.00113668
0.00146484
0.00201281
0.00279268
0.00378081
0.00500834
0.00639042
0.00709797
0.00600019
0.00564391
0.0059726
0.00828697
0.00920282
0.00778816
0.00937256
0.0127399
0.0158928
0.0183228
0.0200763
0.021185
0.0217255
0.0217476
0.0213207
0.0205254
0.0194695
0.0182523
0.0169089
0.015406
0.0137684
0.0122111
0.0105647
0.00882951
0.00707219
0.00540228
0.00394495
0.00279093
0.00195223
0.00137142
0.000974353
0.00070456
0.000526657
0.000415668
0.00035124
0.000317588
0.000303829
0.000302937
0.000310882
0.000325686
0.000347565
0.000376215
0.000419085
0.00046656
0.000570644
0.000656766
0.0109251
0.00900559
0.00836572
0.00714521
0.00391761
0.00147255
0.00123728
0.00154383
0.00210232
0.00289211
0.00389104
0.00512951
0.00650731
0.00716708
0.00596016
0.00549784
0.00601559
0.00851076
0.00890067
0.00785066
0.00993228
0.0135723
0.0169315
0.019518
0.0213492
0.0224555
0.0229246
0.0228211
0.0222251
0.0212301
0.0199647
0.0185526
0.0170479
0.0154282
0.0138126
0.0122881
0.010701
0.0090352
0.00732952
0.005674
0.00419109
0.00298771
0.00209816
0.00147816
0.00105459
0.000765875
0.000572864
0.000449763
0.000376213
0.000335975
0.00031742
0.000312873
0.000317852
0.000330133
0.000349808
0.000376585
0.000417791
0.000464113
0.000566245
0.000650011
0.0108951
0.00866995
0.00804213
0.00736731
0.0046577
0.00199793
0.00137686
0.00163314
0.00220361
0.00300963
0.0040303
0.00529758
0.00669701
0.00733572
0.00602032
0.00533063
0.00607839
0.00861623
0.00859609
0.00797489
0.0104979
0.0143961
0.017954
0.0206895
0.0225898
0.0236855
0.0240744
0.0238367
0.0230629
0.0218599
0.0203778
0.0187655
0.0170958
0.0153676
0.0137715
0.0122717
0.0107464
0.00916096
0.0075246
0.00590415
0.00441423
0.00317353
0.00223844
0.00158084
0.00113171
0.000825705
0.000619337
0.000485267
0.000403051
0.000356248
0.0003327
0.00032422
0.000325935
0.000335388
0.000352526
0.000377037
0.000416051
0.000460629
0.000559635
0.000640491
0.0108686
0.00839513
0.00771172
0.00743456
0.00530244
0.00266497
0.00158085
0.00173555
0.00231474
0.00314368
0.00419637
0.00550927
0.00695433
0.00759714
0.00616407
0.005133
0.00615637
0.00860289
0.0083131
0.00815077
0.0110657
0.0152086
0.0189572
0.0218335
0.0237952
0.024873
0.0251739
0.0247944
0.0238358
0.0224182
0.0207141
0.0188985
0.0170625
0.015242
0.0136529
0.0121719
0.0107086
0.00921056
0.00765767
0.00609053
0.00461149
0.0033463
0.00237204
0.00167897
0.00120505
0.000882936
0.000664814
0.000521068
0.000430877
0.00037773
0.000349141
0.000336568
0.000334835
0.000341272
0.000355671
0.000377674
0.000414151
0.000456552
0.000551604
0.000629108
0.0108454
0.00817091
0.00739009
0.0073766
0.00582726
0.00340236
0.00189252
0.00185695
0.00243289
0.00329066
0.00438427
0.00575845
0.00727166
0.00794489
0.00638689
0.00493492
0.00624211
0.0084726
0.00806593
0.00837021
0.0116331
0.0160077
0.0199382
0.0229472
0.0249631
0.0260165
0.0262225
0.0256946
0.0245451
0.0229078
0.0209786
0.0189587
0.0169569
0.0150661
0.0134668
0.0119992
0.0105959
0.00918917
0.00773041
0.00623215
0.00478063
0.0035041
0.00249791
0.00177212
0.00127419
0.000936758
0.000708181
0.000556036
0.000458702
0.000399593
0.000366057
0.000349351
0.000344095
0.00034744
0.000359021
0.000378406
0.000412167
0.00045212
0.000542702
0.000616544
0.010825
0.00798853
0.00708758
0.00722333
0.00621865
0.00414067
0.00234407
0.00200886
0.00255558
0.00344564
0.00458708
0.00603767
0.00763981
0.00837353
0.00669406
0.00479011
0.00627985
0.0082432
0.00786296
0.00862662
0.0121979
0.0167912
0.0208941
0.0240276
0.0260912
0.0271144
0.0272193
0.0265372
0.0251918
0.023331
0.0211753
0.0189523
0.0167875
0.0148521
0.0132232
0.0117638
0.0104173
0.00910299
0.00774575
0.00632914
0.00492016
0.00364527
0.00261504
0.00185991
0.00133892
0.000986671
0.000748565
0.000589142
0.000485533
0.000420959
0.000382699
0.000361936
0.000353184
0.000353459
0.000362245
0.000379018
0.000410021
0.000447404
0.000533265
0.000603271
0.0108073
0.0078406
0.0068104
0.00700273
0.00647373
0.00482949
0.00292424
0.0022117
0.00268223
0.00360328
0.00479671
0.00633686
0.00804835
0.00887788
0.00709587
0.00471747
0.0062312
0.00795584
0.00770909
0.00891446
0.0127586
0.0175571
0.0218223
0.0250722
0.0271772
0.0281651
0.0281635
0.027322
0.0257763
0.0236896
0.0213078
0.0188848
0.0165729
0.0145995
0.0129308
0.0114755
0.010182
0.00895898
0.00770761
0.00638264
0.00502932
0.00376848
0.00272245
0.00194198
0.00139918
0.00103244
0.000785369
0.000619539
0.000510469
0.000440987
0.000398329
0.000373689
0.000361566
0.000358882
0.00036498
0.000379235
0.000407547
0.000442358
0.000523449
0.000589584
0.0107919
0.00772093
0.0065616
0.00673953
0.00659874
0.00543119
0.00358479
0.00249905
0.00281623
0.00375885
0.00500462
0.00664219
0.00848566
0.00945182
0.00760262
0.00473542
0.00609793
0.00764779
0.00760714
0.00922891
0.0133134
0.0183032
0.0227202
0.0260783
0.0282189
0.0291668
0.0290536
0.0280482
0.0262987
0.0239847
0.0213788
0.018761
0.0163288
0.0143098
0.0125974
0.0111435
0.00989909
0.00876452
0.00762072
0.00639461
0.00510804
0.00387279
0.00281927
0.00201794
0.00145495
0.00107406
0.000818281
0.000646626
0.000532777
0.000458944
0.000412284
0.00038404
0.000368755
0.000363296
0.00036688
0.000378778
0.000404539
0.000436872
0.000513294
0.000575636
0.0107785
0.0076244
0.00634201
0.00645443
0.00660688
0.00592
0.00427519
0.0029
0.00296771
0.00390939
0.0052027
0.00694168
0.00893897
0.0100872
0.00822158
0.00486351
0.00590868
0.00734968
0.00755867
0.00956562
0.013861
0.0190274
0.0235852
0.0270431
0.0292137
0.0301174
0.029888
0.0287145
0.0267584
0.0242169
0.0213908
0.0185852
0.016066
0.0139868
0.0122302
0.0107762
0.00957723
0.0085272
0.00749034
0.00636778
0.00515691
0.00395754
0.00290476
0.00208746
0.00150628
0.00111165
0.000847242
0.000670067
0.000551941
0.000474262
0.000424028
0.00039252
0.000374351
0.000366363
0.00036766
0.000377409
0.00040081
0.000430819
0.000502773
0.000561491
0.0107669
0.00754679
0.00615093
0.00616389
0.00651611
0.00628093
0.00494845
0.00342168
0.00315748
0.00405514
0.00538411
0.00722355
0.00939444
0.0107734
0.00895537
0.00511954
0.00570446
0.00708546
0.00756445
0.00992056
0.0143998
0.0197275
0.0244146
0.0279638
0.0301589
0.0310142
0.0306645
0.0293194
0.0271545
0.0243867
0.0213456
0.0183677
0.0157865
0.0136349
0.0118354
0.0103813
0.00922474
0.00825463
0.00732217
0.00630542
0.00517712
0.00402202
0.00297837
0.00215023
0.00155319
0.00114545
0.000872405
0.000689787
0.000567689
0.000486576
0.000433188
0.000398793
0.000378071
0.000367845
0.000367114
0.000374951
0.00039621
0.000424089
0.000491835
0.00054716
0.0107568
0.00748461
0.00598667
0.00588031
0.00634691
0.00650879
0.00556403
0.00404205
0.00341016
0.00420512
0.00554424
0.00747677
0.00983724
0.0114969
0.00980158
0.00551833
0.0055272
0.00687307
0.00762461
0.0102899
0.0149283
0.0204012
0.0252056
0.0288373
0.0310516
0.0318545
0.0313806
0.0298607
0.0274855
0.0244939
0.021245
0.0181265
0.0154833
0.0132578
0.0114187
0.00996583
0.00884933
0.00795422
0.0071221
0.00621125
0.00517032
0.00406688
0.00303985
0.002206
0.00159572
0.00117572
0.000894067
0.000705937
0.000579997
0.000495742
0.000439578
0.00040268
0.000379758
0.000367611
0.000365131
0.000371308
0.000390654
0.000416613
0.000480439
0.000532638
0.0107481
0.00743502
0.00584698
0.00561241
0.00612029
0.00660696
0.00608933
0.00472051
0.00374688
0.00437142
0.00568792
0.00769168
0.0102518
0.0122417
0.010753
0.00607071
0.00541337
0.00672541
0.00773876
0.0106702
0.0154449
0.0210461
0.0259554
0.0296606
0.0318884
0.0326344
0.0320333
0.0303359
0.0277499
0.0245383
0.0210903
0.0178735
0.0151552
0.012859
0.0109851
0.00953596
0.00845811
0.00763308
0.00689608
0.00608933
0.00513859
0.00409283
0.00308913
0.0022546
0.00163389
0.00120274
0.000912615
0.000718849
0.000589059
0.000501842
0.000443207
0.000404165
0.000379394
0.000365644
0.000361698
0.000366462
0.000384122
0.000408372
0.000468575
0.000517929
0.0107405
0.00739568
0.00572935
0.0053658
0.00585623
0.00658607
0.00650044
0.00540879
0.0041813
0.00456592
0.00583095
0.00786105
0.0106224
0.0129892
0.0117981
0.00678257
0.00539182
0.00665132
0.00790588
0.0110581
0.0159479
0.02166
0.0266611
0.0304302
0.0326657
0.0333506
0.0326193
0.0307423
0.0279457
0.0245197
0.0208942
0.0176059
0.014803
0.0124418
0.0105392
0.00909734
0.00805756
0.0072979
0.00664999
0.00594389
0.00508433
0.00410084
0.00312636
0.00229595
0.00166771
0.00122674
0.000928467
0.000728971
0.000595252
0.000505151
0.000444268
0.000403394
0.000377096
0.000362041
0.000356891
0.000360476
0.000376662
0.000399403
0.000456267
0.000503055
0.010734
0.00736469
0.00563121
0.00514354
0.00557254
0.00646214
0.00678268
0.00605959
0.00471204
0.00480353
0.00597858
0.00799812
0.0109334
0.0137185
0.0129216
0.00765433
0.00548449
0.00665667
0.00812439
0.0114506
0.0164355
0.0222401
0.0273196
0.0311426
0.0333798
0.0339993
0.0331347
0.0310766
0.0280708
0.0244377
0.0206752
0.0173147
0.0144279
0.0120092
0.010085
0.00865504
0.00765353
0.00695488
0.00638953
0.00577927
0.00501017
0.00409214
0.00315186
0.00233003
0.00169721
0.00124794
0.00094203
0.000736806
0.000599069
0.000506099
0.000443112
0.000400651
0.000373095
0.000356994
0.000350871
0.000353479
0.000368378
0.000389788
0.000443583
0.000488065
0.0107283
0.00734048
0.00555006
0.0049468
0.00528409
0.00625477
0.00693051
0.00663162
0.00531903
0.00509985
0.00613901
0.00812435
0.0111701
0.0144069
0.0141046
0.00868105
0.00570801
0.00674506
0.00839209
0.0118449
0.0169059
0.0227842
0.0279277
0.0317939
0.0340263
0.0345761
0.0335756
0.0313357
0.0281233
0.0242965
0.0204416
0.0169965
0.0140318
0.0115642
0.00962644
0.00821359
0.00725125
0.00660968
0.00612008
0.00559975
0.00491884
0.00406815
0.00316614
0.00235696
0.00172243
0.0012665
0.000953661
0.000742857
0.000601059
0.000505212
0.000440202
0.000396326
0.000367719
0.000350773
0.00034386
0.000345656
0.000359424
0.000379651
0.000430621
0.000473031
0.0107234
0.00732177
0.00548359
0.00477532
0.0050026
0.00598517
0.00694703
0.00709224
0.00596603
0.00546722
0.00632274
0.00824802
0.0113385
0.0150301
0.0153251
0.00985314
0.00607493
0.00691838
0.0087063
0.0122391
0.0173576
0.0232897
0.0284821
0.0323799
0.0346008
0.0350763
0.0339376
0.0315159
0.0281014
0.0241183
0.0201811
0.0166506
0.0136165
0.0111098
0.00916697
0.00777703
0.00685534
0.00626739
0.00584665
0.00540954
0.00481313
0.00403046
0.00316989
0.00237694
0.00174344
0.00128256
0.000963658
0.000747577
0.000601765
0.000503045
0.000436058
0.000390873
0.00036135
0.000343697
0.000336125
0.000337227
0.000349983
0.000369146
0.000417506
0.000458048
0.0107191
0.00730751
0.00542965
0.00462787
0.00473661
0.0056744
0.00684291
0.0074187
0.00660747
0.00590971
0.00654148
0.00837497
0.011456
0.0155624
0.0165581
0.0111574
0.00659399
0.00717715
0.00906409
0.0126318
0.0177899
0.0237541
0.0289791
0.0328963
0.035098
0.0354946
0.034216
0.0316137
0.0280102
0.0239122
0.0198878
0.0162775
0.0131842
0.0106487
0.00870983
0.007349
0.00646985
0.00593249
0.00557384
0.00521263
0.00469574
0.00398077
0.00316395
0.00239029
0.00176036
0.00129623
0.000972243
0.000751342
0.000601671
0.000500127
0.000431196
0.000384753
0.000354387
0.000336106
0.00032795
0.00032843
0.000340257
0.00035844
0.000404377
0.000443223
0.0107154
0.00729686
0.00538636
0.00450263
0.00449182
0.00534193
0.00663485
0.00759867
0.00719605
0.0064187
0.00680629
0.00851273
0.0115509
0.0159781
0.0177746
0.0125781
0.00727013
0.00752082
0.00946271
0.0130231
0.0182028
0.0241751
0.0294149
0.0333381
0.0355124
0.0358253
0.0344059
0.0316254
0.0278714
0.0236686
0.0195593
0.0158784
0.012737
0.0101836
0.00825802
0.00693271
0.00609828
0.00560887
0.00530573
0.00501278
0.00456908
0.00392097
0.00314933
0.00239743
0.00177332
0.00130758
0.000979574
0.000754432
0.000601168
0.00049691
0.000426078
0.000378396
0.00034721
0.000328324
0.000319611
0.000319502
0.000330448
0.000347707
0.00039138
0.000428669
0.0107121
0.0072891
0.00535203
0.00439748
0.00427145
0.00500457
0.00634368
0.00762997
0.00768899
0.00697113
0.00712489
0.00866959
0.0116352
0.0162725
0.0189422
0.0140972
0.00810426
0.00794821
0.00990024
0.0134157
0.0185991
0.0245508
0.0297851
0.0336995
0.0358377
0.0360622
0.034502
0.0315664
0.0276831
0.0233823
0.0191954
0.015455
0.0122775
0.00971718
0.00781432
0.00653098
0.00574361
0.00529984
0.00504591
0.00481341
0.00443683
0.0038533
0.00312719
0.00239886
0.00178253
0.00131672
0.00098575
0.000757034
0.000600541
0.000493741
0.000421076
0.000372164
0.000340144
0.000320639
0.00031136
0.000310659
0.000320744
0.000337109
0.000378653
0.000414493
0.0107093
0.00728365
0.00532521
0.00431015
0.00407679
0.0046759
0.00599236
0.00751989
0.00805231
0.00753139
0.00749836
0.00885336
0.0117124
0.0164549
0.0200237
0.0156946
0.00909319
0.0084583
0.0103766
0.0138177
0.0189854
0.0248795
0.0300845
0.033974
0.0360664
0.0361991
0.0345122
0.0314401
0.0274411
0.0230511
0.0187966
0.0150094
0.011808
0.009252
0.00738127
0.00614626
0.00540833
0.00500815
0.00479746
0.0046176
0.00430282
0.00377975
0.00309863
0.00239513
0.00178821
0.00132371
0.000990828
0.000759251
0.000599963
0.000490854
0.000416455
0.000366322
0.000333444
0.000313281
0.000303401
0.000302084
0.000311309
0.00032679
0.00036632
0.000400796
0.0107068
0.00728005
0.00530464
0.00423841
0.00390765
0.00436603
0.00560388
0.00728383
0.0082632
0.00805635
0.0079181
0.00906971
0.0117881
0.0165434
0.0209768
0.0173468
0.0102293
0.00905139
0.0108955
0.0142438
0.0193498
0.0251587
0.0303132
0.0341599
0.0361969
0.0362397
0.0344385
0.0312457
0.0271434
0.0226746
0.0183648
0.014544
0.0113311
0.00879053
0.00696118
0.00578068
0.00509448
0.00473602
0.00456294
0.00442804
0.00416865
0.003702
0.00306477
0.00238682
0.00179062
0.00132866
0.000994836
0.00076112
0.000599513
0.000488371
0.000412369
0.000361044
0.000327281
0.000306415
0.000295889
0.00029392
0.000302275
0.000316872
0.000354486
0.000387663
0.0107046
0.0072779
0.00528922
0.00418014
0.00376281
0.00408175
0.00519966
0.00694346
0.00831112
0.00850168
0.00836425
0.00931997
0.0118662
0.0165716
0.021754
0.0190257
0.0115
0.00973043
0.0114665
0.0146797
0.0196904
0.0253888
0.0304724
0.0342597
0.0362324
0.0361873
0.0342827
0.0309828
0.0267894
0.0222535
0.0179021
0.0140614
0.0108492
0.0083351
0.00655614
0.00543601
0.00480367
0.00448519
0.00434443
0.00424703
0.0040363
0.00362166
0.00302668
0.00237454
0.00179006
0.00133167
0.000997792
0.000762629
0.000599195
0.000486324
0.000408877
0.000356409
0.000321749
0.000300141
0.000288926
0.000286266
0.000293738
0.000307444
0.000343233
0.000375162
0.0107027
0.00727689
0.00527804
0.00413338
0.0036404
0.00382691
0.00479811
0.00652447
0.00819763
0.00882775
0.00880637
0.00959909
0.0119503
0.0165474
0.0223358
0.0206962
0.0128869
0.0105016
0.0120895
0.0151178
0.020006
0.0255707
0.0305635
0.0342758
0.0361762
0.0360451
0.0340465
0.030652
0.0263796
0.0217898
0.0174113
0.0135642
0.0103648
0.00788795
0.00616801
0.00511374
0.00453717
0.00425697
0.00414355
0.00407649
0.00390766
0.00354027
0.00298544
0.00235894
0.00178684
0.00133287
0.00099971
0.000763742
0.000598961
0.000484679
0.000405965
0.000352426
0.000316875
0.0002945
0.000282561
0.00027918
0.000285758
0.000298571
0.000332617
0.000363339
0.010701
0.00727676
0.0052703
0.00409638
0.00353822
0.00360299
0.0044139
0.00605419
0.00793536
0.00900428
0.00920658
0.00989393
0.0120402
0.0164757
0.0227124
0.0223133
0.0143667
0.0113735
0.0127503
0.0155591
0.0202959
0.0257055
0.0305882
0.0342111
0.0360317
0.0358161
0.0337318
0.0302544
0.0259156
0.021286
0.0168952
0.0130554
0.00988042
0.00745116
0.00579842
0.00481506
0.00429592
0.00405229
0.0039615
0.00391797
0.00378434
0.00345926
0.00294207
0.00234064
0.00178131
0.00133241
0.00100062
0.000764412
0.000598735
0.000483354
0.000403564
0.000349047
0.000312633
0.000289484
0.000276804
0.000272683
0.000278366
0.000290285
0.000322669
0.000352223
0.0106995
0.0072773
0.00526534
0.00406757
0.00345392
0.00340962
0.00405762
0.00555923
0.00754608
0.00901333
0.00952435
0.0101829
0.0121311
0.0163606
0.022886
0.0238186
0.0159125
0.0123529
0.0134336
0.0160037
0.0205602
0.0257946
0.0305488
0.0340686
0.0358023
0.0355034
0.0333409
0.0297917
0.0253996
0.020745
0.0163572
0.0125376
0.00939832
0.00702663
0.00544876
0.00454091
0.00408058
0.00387179
0.00379915
0.00377268
0.00366773
0.00337989
0.00289756
0.00232027
0.00177383
0.00133045
0.00100055
0.000764596
0.000598429
0.00048225
0.000401578
0.000346191
0.000308964
0.000285055
0.000271633
0.000266767
0.000271564
0.000282599
0.000313403
0.000341824
0.0106983
0.00727833
0.00526259
0.00404559
0.00338517
0.00324517
0.00373597
0.0050635
0.00705821
0.00885063
0.00972193
0.0104369
0.0122125
0.0162036
0.0228754
0.0251389
0.0174961
0.0134282
0.0141366
0.0164512
0.0207991
0.0258394
0.0304476
0.0338514
0.0354914
0.0351101
0.0328764
0.0292665
0.0248345
0.0201705
0.0158006
0.0120136
0.00892078
0.00661611
0.00512022
0.00429202
0.00389161
0.00371585
0.00365705
0.00364154
0.00355899
0.00330333
0.00285282
0.00229847
0.00176475
0.00132718
0.000999555
0.000764262
0.000597962
0.000481261
0.000399898
0.000343762
0.000305786
0.00028115
0.000267004
0.000261403
0.000265335
0.000275504
0.000304809
0.000332137
0.0106971
0.00727974
0.00526159
0.00402926
0.00332979
0.00310722
0.00345218
0.00458669
0.00650379
0.00852538
0.00976929
0.0106222
0.0122674
0.0160027
0.0226982
0.0262062
0.0190876
0.0145919
0.0148584
0.0169008
0.0210135
0.0258419
0.0302872
0.0335628
0.0351027
0.0346396
0.0323412
0.0286816
0.0242239
0.0195662
0.0152289
0.0114862
0.00844991
0.00622117
0.00481378
0.00406894
0.00372931
0.00358469
0.00353553
0.0035252
0.00345909
0.00323058
0.00280868
0.00227579
0.00175443
0.00132277
0.000997709
0.000763392
0.000597262
0.000480288
0.000398418
0.000341657
0.000303011
0.000277697
0.000262858
0.000256548
0.000259646
0.000268978
0.000296868
0.000323144
0.0106961
0.0072814
0.00526195
0.00401754
0.00328576
0.00299294
0.00320675
0.00414353
0.00591537
0.00805878
0.00964797
0.0107047
0.0122738
0.0157518
0.0223665
0.026963
0.0206795
0.0158223
0.0155979
0.0173509
0.0212042
0.0258038
0.0300705
0.0332064
0.0346399
0.0340955
0.0317387
0.0280407
0.0235717
0.0189363
0.0146454
0.0109579
0.00798769
0.00584317
0.00453023
0.00387206
0.00359388
0.0034784
0.00343473
0.00342412
0.0033688
0.00316249
0.00276589
0.00225279
0.0017432
0.00131742
0.00099509
0.000761989
0.000596276
0.000479247
0.000397041
0.000339781
0.000300553
0.00027462
0.000259135
0.000252151
0.000254457
0.000262987
0.000289549
0.000314818
0.0106952
0.00728324
0.00526334
0.00400956
0.00325129
0.00289937
0.00299814
0.00374364
0.00532312
0.00748134
0.0093534
0.0106539
0.0122056
0.0154394
0.0218894
0.0274189
0.0222078
0.0170846
0.0163523
0.0177998
0.0213721
0.0257271
0.0298004
0.0327856
0.0341068
0.0334816
0.0310728
0.0273477
0.0228823
0.0182848
0.0140536
0.0104311
0.00753592
0.00548331
0.0042702
0.00370168
0.00348547
0.00339704
0.00335471
0.00333864
0.0032887
0.00309975
0.00272506
0.00222992
0.00173139
0.00131132
0.00099179
0.000760073
0.000594973
0.000478075
0.000395687
0.00033805
0.000298331
0.000271849
0.00025577
0.00024816
0.000249722
0.000257493
0.000282814
0.000307126
0.0106945
0.00728519
0.00526549
0.00400459
0.00322477
0.00282365
0.00282352
0.00339189
0.00475259
0.00682935
0.00889557
0.0104475
0.0120364
0.0150489
0.0212728
0.0275775
0.0236128
0.018345
0.0171166
0.0182449
0.0215178
0.0256138
0.0294799
0.0323042
0.0335077
0.0328021
0.0303478
0.0266072
0.0221604
0.0176163
0.0134566
0.00990824
0.00709623
0.00514257
0.00403418
0.00355806
0.00340424
0.0033407
0.00329548
0.00326898
0.00321922
0.00304289
0.00268671
0.00220762
0.00171929
0.00130466
0.000987912
0.000757678
0.000593338
0.000476724
0.000394293
0.000336393
0.000296276
0.000269317
0.000252706
0.000244521
0.000245394
0.000252456
0.000276622
0.000300029
0.0106938
0.00728719
0.00526821
0.004002
0.00320482
0.00276309
0.00267931
0.00308929
0.00422314
0.00614095
0.00829791
0.010075
0.011742
0.0145601
0.0205201
0.0274415
0.0248416
0.0195719
0.0178831
0.0186833
0.0216417
0.0254656
0.0291121
0.0317661
0.0328467
0.0320616
0.0295684
0.025824
0.0214109
0.0169349
0.0128576
0.00939124
0.00667009
0.00482179
0.00382256
0.00344142
0.0033504
0.00330955
0.0032571
0.0032154
0.00316061
0.00299225
0.00265124
0.00218625
0.00170717
0.00129761
0.000983563
0.000754853
0.000591376
0.000475169
0.000392814
0.000334757
0.00029433
0.00026697
0.00024989
0.000241187
0.000241429
0.000247834
0.000270931
0.000293488
0.0106932
0.00728921
0.00527132
0.00400127
0.00319025
0.00271527
0.00256166
0.00283393
0.00374752
0.00545221
0.00759466
0.00954021
0.0113054
0.0139696
0.0196332
0.027014
0.0258468
0.0207362
0.0186421
0.0191111
0.0217438
0.0252842
0.0287
0.0311752
0.0321285
0.0312649
0.0287396
0.0250036
0.0206392
0.0162449
0.0122594
0.00888204
0.00625876
0.00452163
0.00363566
0.00335203
0.00332427
0.00330391
0.00323973
0.00317832
0.0031129
0.00294805
0.002619
0.00216612
0.00169528
0.00129035
0.000978853
0.000751658
0.000589105
0.0004734
0.00039122
0.000333101
0.000292449
0.00026476
0.000247277
0.000238114
0.000237785
0.000243586
0.0002657
0.000287463
0.0106927
0.00729121
0.00527468
0.00400198
0.00318003
0.00267805
0.00246679
0.00262198
0.00333217
0.00479384
0.00682682
0.00886117
0.0107191
0.0132643
0.0186122
0.0262998
0.0265863
0.0218099
0.0193817
0.0195238
0.0218238
0.0250715
0.0282468
0.0305357
0.0313577
0.0304173
0.027867
0.0241517
0.0198504
0.0155505
0.0116645
0.0083823
0.00586335
0.00424263
0.00347376
0.00329022
0.00332633
0.00332431
0.00324369
0.00315727
0.00307605
0.00291046
0.00259022