/*--------------------------------*- C++ -*----------------------------------*\
| =========                 |                                                 |
| \\      /  F ield         | OpenFOAM: The Open Source CFD Toolbox           |
|  \\    /   O peration     | Version:  2.4.0                                 |
|   \\  /    A nd           | Web:      www.OpenFOAM.org                      |
|    \\/     M anipulation  |                                                 |
\*---------------------------------------------------------------------------*/
FoamFile
{
    version     2.0;
    format      ascii;
    class       volScalarField;
    location    "0.15";
    object      pMean;
}
// * * * * * * * * * * * * * * * * * * * * * * * * * * * * * * * * * * * * * //

dimensions      [0 2 -2 0 0 0 0];

internalField   nonuniform List<scalar> 
2320
(
5.80336
5.75777
5.76158
5.73203
5.72118
5.70269
5.6834
5.66926
5.64626
5.63441
5.60531
5.59872
5.55835
5.56174
5.50056
5.52148
5.42366
5.47164
5.31371
5.40028
5.80339
5.75768
5.76163
5.73197
5.72129
5.70264
5.68362
5.66922
5.64663
5.63433
5.60589
5.59857
5.55927
5.56147
5.5021
5.52128
5.42609
5.47129
5.31646
5.39932
5.80339
5.75752
5.76172
5.73187
5.7215
5.70257
5.68404
5.66914
5.64735
5.63417
5.60703
5.59815
5.56095
5.56054
5.50441
5.51974
5.42899
5.46897
5.3203
5.39721
5.80345
5.75721
5.7619
5.73169
5.72183
5.70241
5.68469
5.669
5.64843
5.63393
5.60868
5.59756
5.56327
5.55913
5.50753
5.5173
5.43306
5.46599
5.32674
5.39444
5.80336
5.75686
5.76211
5.73139
5.72225
5.70224
5.68547
5.66886
5.64976
5.63361
5.61074
5.5967
5.5663
5.55727
5.51201
5.51428
5.43941
5.46198
5.33551
5.39125
5.80336
5.75633
5.76237
5.73088
5.72286
5.70182
5.68653
5.66853
5.65144
5.63313
5.6132
5.59569
5.57
5.55543
5.51763
5.51021
5.44522
5.4556
5.344
5.38487
5.8031
5.75587
5.7625
5.73043
5.72334
5.70144
5.68763
5.66813
5.65321
5.63258
5.61584
5.5948
5.57467
5.55397
5.52506
5.50582
5.45389
5.44867
5.35503
5.37719
5.80301
5.75515
5.76273
5.72971
5.72399
5.70079
5.68889
5.66745
5.65529
5.63164
5.61939
5.59403
5.58068
5.55323
5.53398
5.50166
5.46518
5.44101
5.37005
5.36783
5.80258
5.75461
5.76273
5.72917
5.72432
5.70039
5.68976
5.667
5.65676
5.63117
5.6224
5.59406
5.58697
5.55328
5.54457
5.50089
5.4832
5.43876
5.39268
5.35895
5.8024
5.7537
5.76288
5.72826
5.72492
5.69945
5.69083
5.66582
5.65855
5.62994
5.62593
5.59354
5.59354
5.55347
5.55621
5.50296
5.50712
5.44047
5.42904
5.35332
5.80186
5.75314
5.76269
5.72771
5.72492
5.69889
5.69097
5.66503
5.6591
5.62925
5.62781
5.59355
5.59799
5.5545
5.56534
5.50748
5.52791
5.44852
5.47049
5.36236
5.80178
5.75226
5.76278
5.72671
5.72531
5.69751
5.69142
5.66311
5.66011
5.62723
5.63021
5.59187
5.60285
5.55387
5.57527
5.51096
5.5498
5.45983
5.5139
5.38207
5.80154
5.75213
5.76255
5.72639
5.72503
5.69682
5.69077
5.66211
5.65964
5.62652
5.63058
5.59174
5.60465
5.55531
5.58086
5.51701
5.56465
5.4745
5.54586
5.40772
5.80227
5.75215
5.76301
5.7259
5.72559
5.69563
5.69114
5.66039
5.66046
5.62494
5.63259
5.59031
5.6086
5.55511
5.59004
5.52112
5.5836
5.48529
5.58324
5.43324
5.80326
5.75327
5.76362
5.72641
5.72582
5.69566
5.69111
5.66072
5.66077
5.62616
5.6337
5.59254
5.61078
5.56005
5.59628
5.53206
5.59595
5.50296
5.60787
5.46032
5.80512
5.75422
5.76501
5.72676
5.72699
5.69544
5.69271
5.66079
5.66363
5.62691
5.63793
5.59391
5.61717
5.56337
5.60826
5.53877
5.61739
5.51524
5.65112
5.48365
5.80643
5.7553
5.76592
5.72732
5.72734
5.6957
5.6935
5.66202
5.66568
5.62945
5.64094
5.59787
5.62174
5.57056
5.61593
5.55214
5.63079
5.53854
5.67392
5.50921
5.80763
5.75578
5.76684
5.72742
5.72816
5.69571
5.69541
5.66286
5.66901
5.631
5.64536
5.60005
5.62823
5.57436
5.62649
5.55877
5.6518
5.5523
5.71705
5.52092
5.8081
5.75609
5.76703
5.72751
5.72823
5.69593
5.69593
5.66344
5.66961
5.63184
5.64625
5.60162
5.62997
5.57794
5.62981
5.56783
5.65858
5.57805
5.72852
5.55078
5.80819
5.75632
5.76737
5.72774
5.72863
5.69618
5.69689
5.66421
5.67111
5.63302
5.64829
5.60322
5.6328
5.58017
5.63413
5.57145
5.66825
5.59421
5.77777
5.55483
5.15708
5.28546
4.93804
5.07517
4.66571
4.75601
4.35485
4.32719
5.16039
5.2846
4.93938
5.07299
4.66273
4.75408
4.34791
4.3251
5.16389
5.28613
4.94334
5.07745
4.66544
4.7594
4.34763
4.32657
5.17289
5.28544
4.94852
5.07883
4.66349
4.75837
4.33446
4.3217
5.18183
5.28491
4.95451
5.08226
4.66288
4.75837
4.32168
4.31487
5.19214
5.28115
4.96352
5.08539
4.66131
4.7582
4.30234
4.30746
5.20436
5.27656
4.96994
5.0859
4.65843
4.75346
4.2848
4.29782
5.2225
5.27585
4.98655
5.09132
4.66392
4.74888
4.26139
4.28924
5.24236
5.27025
5.00156
5.09787
4.67824
4.75013
4.23924
4.27909
5.2783
5.25056
5.02087
5.11705
4.69002
4.7594
4.2224
4.26358
5.33516
5.22094
5.02353
5.11403
4.7128
4.77612
4.22029
4.23265
5.4232
5.2602
5.05824
5.03507
4.70308
4.78448
4.21969
4.19499
5.48538
5.3018
5.15577
5.01686
4.68942
4.69177
4.20953
4.16111
5.55861
5.33273
5.24753
5.03319
4.76711
4.56884
4.14169
4.13725
5.61012
5.36812
5.34385
5.0298
4.87503
4.51142
4.06592
4.08957
5.70567
5.40706
5.43859
5.05661
4.97224
4.51514
4.02778
3.97637
5.76193
5.43705
5.51134
5.08407
5.05699
4.53212
4.0837
3.77294
5.90884
5.47172
5.56771
5.11936
5.13277
4.57026
4.23238
3.47835
5.98303
5.54896
5.61394
5.15957
5.20723
4.59576
4.4581
3.26728
6.03208
5.49612
5.63559
5.18252
5.25795
4.62656
4.64481
3.01318
4.01807
3.86673
3.67073
3.4899
3.33548
3.20544
3.09923
3.01537
2.95059
2.89619
2.84858
2.80185
2.75502
2.70496
2.65274
2.59557
2.53566
2.47059
2.40312
2.32793
2.25057
2.15899
2.06301
1.93901
1.79978
1.582
1.29554
0.570264
4.00917
3.86005
3.65906
3.47854
3.32451
3.19482
3.08901
3.00608
2.94219
2.8894
2.84135
2.79702
2.74855
2.70035
2.64611
2.58966
2.52797
2.46419
2.39344
2.32078
2.23824
2.15367
2.0497
1.9426
1.79122
1.63982
1.35988
1.15068
4.00289
3.85363
3.64761
3.4675
3.31623
3.18625
3.08348
3.00248
2.94212
2.89119
2.84712
2.8032
2.75783
2.70897
2.65676
2.60069
2.54088
2.47675
2.4102
2.3357
2.26044
2.17069
2.08014
1.96241
1.83743
1.66019
1.44075
1.12585
3.98232
3.83658
3.62252
3.44184
3.2908
3.16153
3.05999
2.9852
2.92756
2.88186
2.83992
2.79826
2.75375
2.70561
2.6534
2.59704
2.53614
2.4731
2.40316
2.33324
2.25277
2.17326
2.07585
1.9793
1.85295
1.72674
1.55752
1.41599
3.95645
3.81595
3.59019
3.41151
3.26401
3.13638
3.04047
2.96912
2.91896
2.8767
2.84111
2.80197
2.76059
2.71314
2.66254
2.60616
2.54742
2.48372
2.41812
2.34568
2.27354
2.18948
2.10638
2.00373
1.90288
1.77294
1.63851
1.47989
3.92093
3.78989
3.54613
3.37094
3.22008
3.09461
3.00318
2.94063
2.89763
2.86485
2.83294
2.79959
2.75855
2.71453
2.66155
2.60727
2.54497
2.48448
2.41396
2.34844
2.26991
2.19841
2.10804
2.02715
1.92247
1.83314
1.72243
1.65392
3.88239
3.76139
3.49768
3.32803
3.17345
3.05382
2.96815
2.91246
2.88144
2.85439
2.8322
2.80118
2.76542
2.71975
2.66994
2.61349
2.55517
2.49198
2.42762
2.35829
2.28902
2.21197
2.1381
2.05085
1.97189
1.8786
1.79703
1.71762
3.83875
3.72695
3.43964
3.26805
3.1067
2.9885
2.91074
2.87013
2.85057
2.83831
2.82395
2.80102
2.76663
2.72488
2.67278
2.61803
2.5565
2.49457
2.42736
2.36142
2.29055
2.22096
2.14618
2.07356
1.99781
1.92797
1.87012
1.82837
3.78652
3.68231
3.37156
3.20183
3.03667
2.92063
2.85464
2.82491
2.82322
2.82448
2.82056
2.80319
2.7724
2.72991
2.67941
2.62332
2.56411
2.50178
2.43817
2.37239
2.30683
2.2378
2.16984
2.10177
2.03546
1.97476
1.92295
1.88678
3.72302
3.62115
3.27234
3.10788
2.92843
2.81546
2.76645
2.75969
2.78205
2.80642
2.81588
2.80821
2.77988
2.73968
2.68844
2.63164
2.57067
2.50761
2.44267
2.37838
2.31227
2.24844
2.18305
2.12262
2.06268
2.01407
1.97599
1.96008
3.64106
3.54561
3.16552
3.00641
2.81261
2.7091
2.67377
2.69057
2.74403
2.79067
2.81546
2.81218
2.78828
2.74557
2.69683
2.63744
2.57898
2.51465
2.45378
2.38893
2.32867
2.26427
2.20621
2.14599
2.09722
2.04978
2.02147
2.00207
3.52376
3.44085
3.00619
2.85304
2.62797
2.55085
2.5356
2.59741
2.69216
2.77375
2.81759
2.82344
2.80012
2.75808
2.70707
2.64821
2.58618
2.52259
2.45981
2.39666
2.33541
2.27491
2.21915
2.16534
2.12089
2.08179
2.06158
2.05252
3.40854
3.31406
2.84081
2.66319
2.41534
2.34729
2.35408
2.47633
2.63383
2.76151
2.82392
2.83923
2.81277
2.77133
2.71861
2.65875
2.59501
2.53072
2.46845
2.40669
2.3475
2.2897
2.23683
2.1873
2.14571
2.11348
2.0936
2.0881
3.24262
3.11993
2.56962
2.38702
2.08009
2.06905
2.11617
2.31865
2.55058
2.74877
2.83637
2.86397
2.83052
2.78587
2.72993
2.66729
2.60304
2.53791
2.47615
2.4143
2.35633
2.29908
2.24945
2.20218
2.16641
2.13681
2.12359
2.12133
3.07216
2.88856
2.28852
2.09974
1.7843
1.80434
1.90614
2.19151
2.49847
2.75118
2.86051
2.90209
2.85877
2.80964
2.74916
2.68146
2.61526
2.54915
2.48611
2.42491
2.36747
2.31275
2.26389
2.21998
2.1855
2.1599
2.14737
2.14578
2.72495
2.56242
1.95421
1.82521
1.51493
1.63396
1.7555
2.10395
2.47092
2.77884
2.8928
2.94925
2.88813
2.8351
2.76619
2.69352
2.62517
2.55769
2.49452
2.43229
2.37534
2.32045
2.2736
2.23127
2.19999
2.17685
2.1668
2.16735
2.43191
2.28482
1.66957
1.67118
1.36262
1.50796
1.71445
2.10613
2.5012
2.82705
2.94375
3.00892
2.92701
2.87119
2.79107
2.71252
2.63926
2.56904
2.50344
2.44091
2.38321
2.32973
2.28316
2.24292
2.21258
2.19129
2.18173
2.18146
1.87835
2.04313
1.54922
1.61
1.36164
1.63475
1.74392
2.18151
2.57852
2.91007
2.99354
3.06572
2.95716
2.89869
2.80689
2.7234
2.64748
2.57497
2.50827
2.44473
2.38722
2.33369
2.28802
2.2493
2.22114
2.20157
2.19278
2.19343
1.70554
1.91179
1.49446
1.65533
1.48532
1.68824
1.89773
2.27553
2.6654
2.95296
3.04692
3.09743
2.98171
2.92141
2.82045
2.73444
2.65537
2.5811
2.51326
2.44967
2.39184
2.33856
2.29271
2.25407
2.22569
2.20648
2.19841
2.19884
1.06505
1.98051
1.5494
1.78811
1.60788
1.85646
2.00363
2.35269
2.71894
2.98627
3.07125
3.11973
2.98864
2.92941
2.82473
2.73834
2.65875
2.58392
2.51583
2.45174
2.39378
2.34052
2.2951
2.25695
2.22914
2.21012
2.20189
2.20253
-0.474067
-0.582336
0.602836
0.951601
1.5064
1.80135
2.28357
2.14409
0.53086
0.362538
0.86944
1.14616
1.59913
1.87408
2.25759
2.4026
0.720298
0.65811
1.08744
1.41086
1.85539
2.16032
2.49437
2.60562
1.28387
1.26878
1.4862
1.60952
1.89743
2.17867
2.44926
2.64467
1.34627
1.30941
1.52208
1.68853
1.98187
2.29302
2.51845
2.65999
1.61909
1.67292
1.84893
1.98946
2.05891
2.30015
2.49606
2.64342
1.66792
1.67415
1.78597
1.95011
2.12393
2.29501
2.49355
2.58321
1.84383
1.89447
2.02828
2.17279
2.26482
2.38478
2.41105
2.44494
1.87591
1.89763
1.97308
2.09399
2.22144
2.383
2.47929
2.49473
1.97391
2.02985
2.12098
2.23471
2.33395
2.42739
2.46923
2.39873
2.01025
2.037
2.09418
2.17375
2.26313
2.36538
2.46303
2.51566
2.07432
2.11382
2.18666
2.26008
2.34561
2.39125
2.43643
2.41281
2.09983
2.12906
2.17197
2.22771
2.28719
2.34681
2.40905
2.41865
2.14007
2.17178
2.22279
2.2775
2.33615
2.373
2.39937
2.38774
2.1591
2.18279
2.21833
2.25556
2.29864
2.33043
2.36932
2.3663
2.18256
2.20795
2.24479
2.28394
2.32436
2.35015
2.3671
2.3545
2.19355
2.21337
2.2425
2.27053
2.30246
2.32119
2.34286
2.33511
2.2056
2.22603
2.25493
2.28384
2.31385
2.33109
2.34254
2.32917
2.21021
2.22784
2.25361
2.27745
2.30366
2.31749
2.32948
2.31936
2.21378
2.23168
2.25722
2.28129
2.30682
2.32045
2.32999
2.31805
2.77623
2.9477
2.98287
2.72215
2.4841
2.14086
1.94213
1.811
1.73134
1.6305
1.50747
1.36741
1.20869
1.04409
0.859307
0.685895
0.479411
0.31132
0.014492
-0.192383
3.07105
2.91639
2.90613
2.59577
2.39639
2.12951
1.95868
1.82688
1.73169
1.62426
1.49717
1.35716
1.19914
1.03691
0.854651
0.682133
0.480489
0.305209
0.0838296
-0.097641
2.90458
2.84894
2.84991
2.56777
2.40091
2.14049
1.96345
1.82485
1.72767
1.62105
1.49488
1.35577
1.19873
1.03677
0.85541
0.683148
0.483
0.310674
0.099745
-0.089999
3.06145
2.78353
2.79489
2.47866
2.3333
2.11464
1.95959
1.82914
1.72795
1.61683
1.48795
1.34797
1.19147
1.03069
0.852454
0.679686
0.487452
0.310513
0.1309
-0.0371844
2.82164
2.69597
2.6923
2.43545
2.32506
2.1225
1.96572
1.82852
1.72241
1.61087
1.48317
1.34461
1.18997
1.02985
0.853624
0.680949
0.492471
0.316778
0.149753
-0.0238366
2.96004
2.66746
2.68612
2.39004
2.28898
2.10044
1.95431
1.82496
1.72052
1.60712
1.47818
1.33857
1.18455
1.02489
0.851816
0.67874
0.496885
0.321184
0.163491
0.00327402
2.7406
2.55081
2.53802
2.33606
2.25429
2.09405
1.95449
1.82359
1.71457
1.59992
1.47202
1.33384
1.18235
1.02352
0.853476
0.680047
0.503515
0.327184
0.178043
0.0173747
2.71971
2.59447
2.5906
2.33508
2.25398
2.08515
1.94674
1.81815
1.7113
1.59612
1.46793
1.32886
1.17803
1.0195
0.852242
0.679617
0.506643
0.333242
0.185916
0.0316137
2.59654
2.45163
2.4338
2.26663
2.19443
2.06298
1.93585
1.81303
1.70455
1.58836
1.46121
1.3235
1.17557
1.01799
0.854015
0.681618
0.513231
0.339443
0.195856
0.0423171
2.39947
2.41777
2.46902
2.28704
2.21744
2.06906
1.93813
1.81059
1.70152
1.58466
1.4577
1.31934
1.17198
1.01506
0.853119
0.682383
0.515812
0.345446
0.201451
0.0506781
2.55207
2.36385
2.36999
2.21897
2.15299
2.03821
1.91736
1.80033
1.6929
1.57636
1.45036
1.31356
1.16914
1.01356
0.85474
0.684767
0.521609
0.351574
0.208009
0.0574856
2.41837
2.31838
2.30636
2.20883
2.15527
2.04526
1.92518
1.80117
1.69117
1.57322
1.44749
1.31035
1.16634
1.01169
0.854214
0.686353
0.524203
0.357024
0.212197
0.0625639
2.45667
2.3745
2.33059
2.19674
2.12534
2.01631
1.90216
1.7878
1.68125
1.5644
1.44003
1.30428
1.16321
1.01004
0.85562
0.688881
0.528974
0.362683
0.21663
0.0666856
2.3772
2.29314
2.25648
2.16713
2.10367
2.01111
1.90257
1.78733
1.67905
1.56123
1.43648
1.30144
1.16067
1.00902
0.855465
0.69126
0.531894
0.367817
0.220083
0.0697236
2.37638
2.3236
2.28223
2.18237
2.10494
2.00269
1.89024
1.77695
1.67039
1.55295
1.42996
1.29552
1.15774
1.0073
0.856751
0.69358
0.535597
0.372211
0.222794
0.0719054
2.34155
2.27598
2.22533
2.14678
2.07725
1.98837
1.88465
1.77339
1.66545
1.54782
1.42485
1.29188
1.15467
1.00646
0.856756
0.696415
0.538923
0.377211
0.225881
0.073585
2.3282
2.28526
2.24204
2.16217
2.08372
1.98806
1.87991
1.76764
1.65964
1.54203
1.42017
1.28762
1.15272
1.00543
0.858017
0.698509
0.541667
0.380309
0.227366
0.0746532
2.31303
2.26388
2.20945
2.13558
2.06018
1.97074
1.86954
1.76045
1.65199
1.53446
1.41331
1.28251
1.14897
1.00439
0.858453
0.701898
0.545898
0.385385
0.23022
0.0754744
2.30429
2.264
2.21672
2.14426
2.06513
1.97255
1.86907
1.75852
1.64932
1.53158
1.41091
1.28032
1.14802
1.00396
0.859285
0.703148
0.547202
0.386882
0.230708
0.0757835
2.30039
2.25739
2.20425
2.13019
2.04919
1.95665
1.85682
1.74854
1.63843
1.52084
1.40143
1.27309
1.1434
1.00261
0.860708
0.70752
0.55283
0.392297
0.233103
0.0759146
0.0225635
0.0191068
0.0131736
0.00975564
0.00577815
0.00702805
0.00430318
0.00424795
0.0652128
0.0557928
0.0394187
0.0297323
0.0179785
0.0198816
0.0124535
0.0121457
0.104781
0.0909384
0.0649134
0.0484052
0.0292188
0.0310069
0.0202534
0.0192802
0.139572
0.12177
0.0881542
0.0660678
0.0394174
0.0398233
0.0269422
0.0249263
0.175254
0.152205
0.109192
0.0815487
0.047636
0.0463004
0.0306491
0.0272682
0.197658
0.173347
0.125508
0.093155
0.0527467
0.0495566
0.0320105
0.0266277
0.228451
0.195388
0.138765
0.100264
0.0539929
0.0485114
0.0302094
0.0225878
0.234231
0.203321
0.142411
0.101259
0.0499705
0.0420986
0.0239348
0.0151153
0.2551
0.212734
0.141181
0.0949714
0.040043
0.0293644
0.0123326
0.00294179
0.23715
0.197632
0.125416
0.0782839
0.0221315
0.00982897
-0.0045126
-0.0147486
0.236574
0.182811
0.0984622
0.0496573
-0.00563041
-0.0185878
-0.0280327
-0.0381524
0.193812
0.14722
0.0513065
0.00431998
-0.04585
-0.057006
-0.0596983
-0.0685062
0.153767
0.0846959
-0.00888786
-0.0595863
-0.100174
-0.107013
-0.0999566
-0.106947
0.0829434
0.0148779
-0.0985812
-0.142932
-0.170996
-0.169742
-0.150394
-0.153756
-0.00452879
-0.0859973
-0.208283
-0.252015
-0.258427
-0.246087
-0.211342
-0.209486
-0.119223
-0.221895
-0.350214
-0.383845
-0.364329
-0.335516
-0.28249
-0.273983
-0.253275
-0.353466
-0.510503
-0.540398
-0.489039
-0.438279
-0.363893
-0.346955
-0.40509
-0.543985
-0.700471
-0.720791
-0.631132
-0.552786
-0.453593
-0.426776
-0.578721
-0.71219
-0.912713
-0.919146
-0.786288
-0.676594
-0.549051
-0.511351
-0.760923
-0.941489
-1.13619
-1.13803
-0.951585
-0.805664
-0.64727
-0.597483
-0.953435
-1.1431
-1.38006
-1.36123
-1.12213
-0.935885
-0.744047
-0.681472
-1.14908
-1.38042
-1.61899
-1.59457
-1.28981
-1.06153
-0.834861
-0.758602
-1.33065
-1.59048
-1.8591
-1.81493
-1.44825
-1.17465
-0.913929
-0.823676
-1.51098
-1.80582
-2.08176
-2.02517
-1.58728
-1.269
-0.975099
-0.871608
-1.65794
-1.99625
-2.277
-2.20293
-1.70098
-1.33804
-1.01405
-0.897481
-1.79501
-2.14443
-2.44014
-2.34405
-1.7796
-1.37612
-1.02453
-0.89695
-1.89288
-2.28045
-2.55339
-2.42828
-1.82005
-1.37849
-1.00349
-0.866757
-1.96574
-2.32832
-2.62249
-2.45521
-1.81825
-1.34262
-0.948234
-0.804946
-2.0011
-2.37707
-2.64359
-2.42171
-1.77188
-1.26733
-0.856492
-0.709915
-2.02709
-2.36517
-2.6334
-2.33872
-1.68387
-1.15504
-0.728199
-0.581731
-2.01771
-2.3621
-2.58745
-2.2209
-1.54698
-1.00682
-0.563544
-0.421008
-2.01623
-2.3445
-2.52838
-2.0724
-1.36072
-0.822355
-0.362875
-0.228815
-1.92691
-2.30219
-2.39271
-1.93704
-1.11915
-0.602341
-0.129535
-0.00816507
-1.86489
-2.25868
-2.2364
-1.72864
-0.825414
-0.349664
0.130236
0.234348
-1.67759
-2.13669
-1.89086
-1.45858
-0.485884
-0.0707783
0.409499
0.488808
-1.62852
-2.01713
-1.59779
-1.22508
-0.137722
0.229821
0.702641
0.741861
-1.34397
-1.86281
-1.02233
-0.859535
0.227863
0.550484
1.0077
0.988387
-1.47176
-1.71523
-0.887292
-0.44252
0.563634
0.870207
1.32238
1.24546
-0.939665
-1.17772
-0.204051
0.0774561
0.931049
1.1908
1.63681
1.56214
-1.25264
-1.39241
0.135804
0.420875
1.15768
1.41886
1.82142
1.50705
5.97511
5.68791
5.69738
5.29498
5.37785
4.78853
4.96988
3.60452
6.04939
5.72487
5.75449
5.37408
5.46122
4.94431
5.08277
4.25007
5.96693
5.78208
5.79493
5.46066
5.55423
5.08792
5.26799
4.56762
5.99095
5.79403
5.83443
5.52487
5.60488
5.22029
5.3182
4.8848
5.94798
5.8182
5.8539
5.58809
5.67239
5.32741
5.44453
5.05113
5.96628
5.83208
5.88192
5.64077
5.70685
5.42778
5.48329
5.23191
5.95326
5.85303
5.89635
5.68996
5.75788
5.50731
5.57747
5.33514
5.97468
5.87167
5.92005
5.73502
5.7866
5.58353
5.61437
5.45169
5.97998
5.896
5.93646
5.77657
5.82876
5.64484
5.68744
5.52459
6.00526
5.91922
5.96049
5.8169
5.85625
5.70523
5.72402
5.60782
6.02101
5.94708
5.98046
5.85428
5.89395
5.75489
5.78291
5.66416
6.04963
5.97329
6.00658
5.89178
5.92199
5.80531
5.8185
5.72852
6.07131
6.00367
6.03034
5.92675
5.95774
5.84777
5.86843
5.77558
6.10198
6.03202
6.05831
5.96249
5.98649
5.89176
5.90265
5.82835
6.12794
6.06366
6.08503
5.99608
6.02132
5.92973
5.94709
5.86965
6.16035
6.09405
6.11499
6.03056
6.0509
5.96931
5.98002
5.91548
6.18898
6.12621
6.14367
6.06345
6.08525
6.00461
6.02037
5.95233
6.22303
6.15818
6.17555
6.09736
6.11544
6.04155
6.05287
5.99411
6.25367
6.19107
6.20567
6.1294
6.14937
6.07449
6.09013
6.0284
6.28978
6.22399
6.23899
6.16318
6.18006
6.10985
6.12135
6.06615
6.32266
6.25827
6.27086
6.19464
6.21411
6.14109
6.15766
6.09928
6.36096
6.29234
6.30584
6.2285
6.24481
6.17503
6.1872
6.13466
6.3968
6.32827
6.33961
6.25991
6.27915
6.20498
6.2217
6.16516
6.43792
6.36399
6.37656
6.2939
6.31044
6.23783
6.25123
6.19962
6.47794
6.40217
6.41304
6.32584
6.34507
6.26685
6.28308
6.22843
6.52335
6.4406
6.45272
6.36019
6.37733
6.29837
6.31233
6.26042
6.56915
6.48191
6.49345
6.39313
6.41297
6.32702
6.34192
6.28873
6.62119
6.52433
6.53764
6.42851
6.44677
6.35754
6.37014
6.31765
6.67582
6.57002
6.58444
6.4633
6.48405
6.3858
6.39794
6.34503
6.73743
6.61786
6.63537
6.50115
6.52046
6.41599
6.42452
6.37101
6.80509
6.67036
6.68991
6.53975
6.55982
6.44489
6.45046
6.39669
6.88123
6.72655
6.74987
6.58272
6.59932
6.47568
6.47533
6.41933
6.96667
6.7886
6.81436
6.62754
6.64179
6.50661
6.49957
6.44223
7.06418
6.85542
6.88531
6.67788
6.68509
6.53987
6.52249
6.46097
7.17631
6.92828
6.96103
6.7318
6.73217
6.57445
6.54555
6.4775
7.31238
7.01063
7.04558
6.79477
6.78205
6.61373
6.57003
6.49184
7.47716
7.1055
7.13178
6.86036
6.83207
6.65065
6.59213
6.49331
7.67156
7.21884
7.2247
6.93507
6.88726
6.69625
6.62326
6.48369
7.82472
7.28243
7.28979
6.99527
6.93373
6.73622
6.64352
6.47956
8.31268
7.53579
7.43244
7.13581
7.02904
6.82818
6.73671
6.33397
)
;

boundaryField
{
    wall
    {
        type            calculated;
        value           nonuniform List<scalar> 
312
(
5.80819
5.75632
5.76737
5.72774
5.72863
5.69618
5.69689
5.66421
5.67111
5.63302
5.64829
5.60322
5.6328
5.58017
5.63413
5.57145
5.66825
5.59421
5.77777
5.55483
5.97511
6.04939
5.96693
5.99095
5.94798
5.96628
5.95326
5.97468
5.97998
6.00526
6.02101
6.04963
6.07131
6.10198
6.12794
6.16035
6.18898
6.22303
6.25367
6.28978
6.32266
6.36096
6.3968
6.43792
6.47794
6.52335
6.56915
6.62119
6.67582
6.73743
6.80509
6.88123
6.96667
7.06418
7.17631
7.31238
7.47716
7.67156
7.82472
8.31268
3.60452
4.25007
4.56762
4.8848
5.05113
5.23191
5.33514
5.45169
5.52459
5.60782
5.66416
5.72852
5.77558
5.82835
5.86965
5.91548
5.95233
5.99411
6.0284
6.06615
6.09928
6.13466
6.16516
6.19962
6.22843
6.26042
6.28873
6.31765
6.34503
6.37101
6.39669
6.41933
6.44223
6.46097
6.4775
6.49184
6.49331
6.48369
6.47956
6.33397
1.06505
1.98051
1.5494
1.78811
1.60788
1.85646
2.00363
2.35269
2.71894
2.98627
3.07125
3.11973
2.98864
2.92941
2.82473
2.73834
2.65875
2.58392
2.51583
2.45174
2.39378
2.34052
2.2951
2.25695
2.22914
2.21012
2.20189
2.20253
2.21378
2.23168
2.25722
2.28129
2.30682
2.32045
2.32999
2.31805
2.30039
2.25739
2.20425
2.13019
2.04919
1.95665
1.85682
1.74854
1.63843
1.52084
1.40143
1.27309
1.1434
1.00261
0.860708
0.70752
0.55283
0.392297
0.233103
0.0759146
2.77623
2.9477
2.98287
2.72215
2.4841
2.14086
1.94213
1.811
1.73134
1.6305
1.50747
1.36741
1.20869
1.04409
0.859307
0.685895
0.479411
0.31132
0.014492
-0.192383
0.00424795
0.0121457
0.0192802
0.0249263
0.0272682
0.0266277
0.0225878
0.0151153
0.00294179
-0.0147486
-0.0381524
-0.0685062
-0.106947
-0.153756
-0.209486
-0.273983
-0.346955
-0.426776
-0.511351
-0.597483
-0.681472
-0.758602
-0.823676
-0.871608
-0.897481
-0.89695
-0.866757
-0.804946
-0.709915
-0.581731
-0.421008
-0.228815
-0.00816507
0.234348
0.488808
0.741861
0.988387
1.24546
1.56214
1.50705
0.0225635
0.0652128
0.104781
0.139572
0.175254
0.197658
0.228451
0.234231
0.2551
0.23715
0.236574
0.193812
0.153767
0.0829434
-0.00452879
-0.119223
-0.253275
-0.40509
-0.578721
-0.760923
-0.953435
-1.14908
-1.33065
-1.51098
-1.65794
-1.79501
-1.89288
-1.96574
-2.0011
-2.02709
-2.01771
-2.01623
-1.92691
-1.86489
-1.67759
-1.62852
-1.34397
-1.47176
-0.939665
-1.25264
4.01807
3.86673
3.67073
3.4899
3.33548
3.20544
3.09923
3.01537
2.95059
2.89619
2.84858
2.80185
2.75502
2.70496
2.65274
2.59557
2.53566
2.47059
2.40312
2.32793
2.25057
2.15899
2.06301
1.93901
1.79978
1.582
1.29554
0.570264
5.15708
5.28546
4.93804
5.07517
4.66571
4.75601
4.35485
4.32719
5.80336
5.75777
5.76158
5.73203
5.72118
5.70269
5.6834
5.66926
5.64626
5.63441
5.60531
5.59872
5.55835
5.56174
5.50056
5.52148
5.42366
5.47164
5.31371
5.40028
)
;
    }
    inlet1
    {
        type            calculated;
        value           nonuniform List<scalar> 
20
(
5.80336
5.80339
5.80339
5.80345
5.80336
5.80336
5.8031
5.80301
5.80258
5.8024
5.80186
5.80178
5.80154
5.80227
5.80326
5.80512
5.80643
5.80763
5.8081
5.80819
)
;
    }
    inlet2
    {
        type            calculated;
        value           nonuniform List<scalar> 8(8.31268 7.53579 7.43244 7.13581 7.02904 6.82818 6.73671 6.33397);
    }
    outlet1
    {
        type            calculated;
        value           uniform 0;
    }
    outlet2
    {
        type            calculated;
        value           uniform 0;
    }
    defaultFaces
    {
        type            empty;
    }
}


// ************************************************************************* //
