/*--------------------------------*- C++ -*----------------------------------*\
| =========                 |                                                 |
| \\      /  F ield         | OpenFOAM: The Open Source CFD Toolbox           |
|  \\    /   O peration     | Version:  2.4.0                                 |
|   \\  /    A nd           | Web:      www.OpenFOAM.org                      |
|    \\/     M anipulation  |                                                 |
\*---------------------------------------------------------------------------*/
FoamFile
{
    version     2.0;
    format      ascii;
    class       volScalarField;
    location    "4.27";
    object      k;
}
// * * * * * * * * * * * * * * * * * * * * * * * * * * * * * * * * * * * * * //

dimensions      [0 2 -2 0 0 0 0];

internalField   nonuniform List<scalar> 
6000
(
0.0117122
0.00656293
0.00175525
0.000444569
0.000122429
0.000318345
0.000247194
0.000396769
0.000466768
0.000645702
0.000820117
0.00103639
0.00123498
0.00142789
0.00158697
0.00171489
0.00178116
0.00174067
0.00153973
0.00127577
0.00142228
0.00213837
0.00306834
0.00397388
0.00474942
0.005396
0.00594448
0.00641769
0.0068294
0.0071882
0.0074997
0.00776795
0.00799629
0.00818873
0.00834778
0.00847478
0.00857347
0.00864666
0.00869696
0.00872702
0.00873881
0.00873457
0.00871449
0.00868028
0.00862807
0.00855859
0.00846201
0.00832961
0.00856754
0.00885974
0.00911234
0.00941466
0.00962625
0.00998264
0.0101618
0.0107392
0.0109255
0.0121222
0.0122743
0.0153026
0.0120372
0.0117125
0.00208935
0.000676033
0.000137042
0.000279724
0.000379091
0.000541976
0.000734751
0.00100738
0.00131393
0.00167071
0.0020252
0.00238911
0.00273488
0.00305359
0.00328712
0.00333414
0.00307805
0.00268742
0.0029813
0.00423046
0.00583304
0.00747595
0.00893672
0.0101798
0.0112447
0.0121673
0.0129709
0.013671
0.0142788
0.014803
0.0152515
0.0156324
0.0159462
0.0162054
0.0164189
0.016595
0.016742
0.0168681
0.0169809
0.0170878
0.0171933
0.017303
0.0174145
0.0175279
0.0176307
0.0177033
0.0178126
0.0178632
0.017801
0.017654
0.0173473
0.0170076
0.0164799
0.016082
0.0154332
0.0151953
0.0146212
0.0151699
0.0115679
0.0151661
0.0028826
0.000647958
0.000187477
0.000332931
0.000482118
0.000681718
0.000935832
0.00128125
0.00167647
0.00212892
0.00257786
0.00302699
0.00344713
0.00382834
0.00411124
0.00417569
0.00389347
0.00348748
0.00392131
0.00550782
0.00753341
0.0095808
0.0113991
0.0129562
0.0142959
0.0154588
0.016472
0.017354
0.0181181
0.0187747
0.0193335
0.0198044
0.0201918
0.0205085
0.0207654
0.0209731
0.0211423
0.0212836
0.0214068
0.0215217
0.0216349
0.0217535
0.0218769
0.0220041
0.0221247
0.0222138
0.0223018
0.0223013
0.02217
0.0219063
0.0214694
0.0209338
0.0202268
0.0195565
0.0187146
0.0181398
0.0173208
0.0173938
0.0114636
0.0160713
0.00401139
0.00053248
0.000236235
0.000384353
0.000560929
0.000792609
0.00109149
0.00149373
0.00195637
0.00247851
0.00299323
0.00349696
0.0039617
0.00437862
0.00469016
0.00476777
0.00448325
0.00409988
0.00465084
0.00647526
0.00878886
0.0111069
0.0131717
0.0149501
0.0164858
0.0178208
0.0189843
0.0199966
0.0208723
0.021623
0.0222595
0.0227932
0.0232303
0.023584
0.0238667
0.0240903
0.024267
0.0244092
0.0245285
0.0246361
0.0247407
0.0248502
0.024966
0.0250865
0.0252039
0.0252894
0.0253566
0.0253181
0.0251399
0.0247988
0.0242805
0.02362
0.0228093
0.0219721
0.0210378
0.0202634
0.0194476
0.0192386
0.0113762
0.0157665
0.00532532
0.000483697
0.000280813
0.000429327
0.000626651
0.000886178
0.00122181
0.00167126
0.00218951
0.00276835
0.00333581
0.00388218
0.00438064
0.00482373
0.00515697
0.00524876
0.00497561
0.00462938
0.00527324
0.00727432
0.0098075
0.0123373
0.014601
0.0165611
0.0182591
0.0197373
0.0210263
0.0221475
0.0231165
0.0239459
0.0246472
0.0252328
0.0257102
0.026093
0.0263945
0.0266278
0.0268064
0.0269439
0.0270535
0.0271478
0.0272368
0.0273297
0.0274297
0.0275348
0.0276397
0.0277121
0.0277541
0.0276783
0.027457
0.0270499
0.026464
0.0257031
0.0248109
0.0238442
0.0228443
0.0219176
0.0211315
0.0207092
0.0113033
0.0149415
0.00672818
0.000609678
0.000323655
0.000469565
0.000684419
0.000968544
0.00133579
0.00182589
0.00239219
0.00302008
0.00363329
0.00421656
0.00474379
0.00520886
0.00556108
0.00566929
0.0054169
0.00511399
0.00582957
0.00796351
0.010673
0.0133807
0.0158169
0.0179372
0.0197794
0.0213856
0.0227871
0.0240062
0.0250594
0.0259598
0.0267197
0.027352
0.0278651
0.0282731
0.0285899
0.0288298
0.0290072
0.0291369
0.0292332
0.02931
0.0293789
0.02945
0.0295282
0.0296117
0.0296972
0.029749
0.029761
0.0296462
0.0293813
0.0289133
0.0282651
0.0274168
0.0264531
0.0253778
0.0243228
0.0232707
0.0225062
0.0219099
0.0112435
0.0139419
0.00776323
0.00114199
0.000373027
0.00050699
0.000737059
0.00104307
0.00143811
0.00196389
0.00257286
0.00324474
0.00389953
0.00451675
0.00507057
0.00555599
0.00592658
0.00605411
0.00582975
0.00557283
0.006342
0.00857394
0.0114278
0.0142902
0.0168815
0.0191483
0.0211237
0.0228487
0.0243551
0.0256659
0.026798
0.0277653
0.0285805
0.0292567
0.0298031
0.0302341
0.0305645
0.0308091
0.0309833
0.0311028
0.0311832
0.0312394
0.0312843
0.0313293
0.0313806
0.0314371
0.0314969
0.0315215
0.0314987
0.0313424
0.0310323
0.0305055
0.0297976
0.0288702
0.0278407
0.0266706
0.0255663
0.0244074
0.0236541
0.0229092
0.0111887
0.0129396
0.00846399
0.00207637
0.00044981
0.000543735
0.000786508
0.0011119
0.00153162
0.00208903
0.00273649
0.00344868
0.0041424
0.00479216
0.00537191
0.00587764
0.00626737
0.00641759
0.00622734
0.00601754
0.00682468
0.00912493
0.0120967
0.0150958
0.0178293
0.0202329
0.0223339
0.0241717
0.0257783
0.0271769
0.028385
0.0294168
0.0302854
0.0310041
0.0315824
0.0320354
0.0323781
0.0326262
0.0327958
0.0329034
0.0329655
0.0329984
0.033016
0.0330308
0.0330507
0.0330752
0.0331033
0.0330946
0.0330323
0.0328315
0.0324738
0.0318891
0.0311226
0.0301218
0.0290305
0.0277764
0.0266263
0.0253753
0.0246247
0.0237494
0.011136
0.0120145
0.00888008
0.00320131
0.000599244
0.000582816
0.000834454
0.00117669
0.00161828
0.00220382
0.0028863
0.00363596
0.00436684
0.0050486
0.00565464
0.00618173
0.00659235
0.00676905
0.00661825
0.00645598
0.00728755
0.00962977
0.0126962
0.0158166
0.0186817
0.0212145
0.0234356
0.025382
0.0270855
0.0285695
0.0298517
0.0309467
0.0318677
0.032628
0.0332376
0.0337119
0.0340664
0.0343171
0.0344808
0.034575
0.034617
0.0346239
0.0346111
0.034592
0.0345761
0.0345638
0.0345545
0.0345069
0.0344005
0.0341519
0.0337439
0.0331014
0.0322768
0.031207
0.030057
0.0287274
0.0275345
0.0262033
0.0254489
0.0244579
0.0110858
0.0111981
0.00905957
0.00433909
0.000909619
0.000629438
0.000882723
0.00123889
0.00169965
0.00231015
0.00302461
0.00380937
0.00457613
0.0052899
0.00592323
0.00647357
0.00690759
0.00711489
0.00700837
0.00689371
0.00773804
0.0100984
0.0132381
0.0164656
0.019453
0.0221085
0.0244451
0.026497
0.0282951
0.0298628
0.031218
0.0323754
0.0333484
0.0341499
0.0347905
0.0352858
0.0356515
0.0359042
0.0360612
0.0361406
0.0361606
0.0361393
0.0360931
0.0360365
0.0359808
0.0359269
0.035875
0.0357829
0.035628
0.0353282
0.0348671
0.0341662
0.0332835
0.0321483
0.0309421
0.0295444
0.0283113
0.0269101
0.026147
0.0250532
0.0110393
0.0104971
0.00905231
0.00534403
0.00148699
0.000693643
0.00093369
0.00130003
0.00177712
0.00240958
0.00315319
0.00397096
0.00477262
0.0055187
0.00618078
0.00675689
0.00721739
0.00745967
0.00740184
0.00733476
0.00818183
0.0105386
0.0137311
0.0170523
0.0201531
0.0229255
0.0253738
0.0275286
0.0294194
0.0310696
0.0324971
0.0337164
0.0347413
0.0355838
0.0362554
0.0367715
0.0371482
0.0374024
0.0375519
0.0376153
0.0376116
0.0375598
0.0374775
0.0373801
0.0372804
0.0371806
0.0370809
0.0369393
0.0367314
0.0363767
0.0358598
0.0350996
0.0341589
0.0329611
0.0317011
0.0302416
0.0289709
0.0275088
0.0267332
0.0255484
0.010997
0.0099055
0.00890691
0.00616032
0.00223688
0.000794914
0.000990873
0.00136191
0.0018521
0.00250353
0.00327355
0.00412237
0.00495806
0.00573692
0.00642943
0.00703432
0.00752483
0.00780665
0.0078016
0.00778198
0.00862338
0.0109568
0.0141826
0.0175842
0.0207897
0.0236734
0.0262297
0.0284848
0.030467
0.0321988
0.033698
0.0349791
0.0360557
0.0369393
0.0376418
0.0381788
0.0385663
0.0388217
0.0389629
0.0390093
0.0389803
0.038896
0.0387748
0.0386334
0.0384859
0.0383362
0.0381838
0.0379877
0.0377224
0.0373094
0.0367337
0.0359131
0.034914
0.0336561
0.0323445
0.030829
0.0295232
0.0280086
0.0272179
0.0259533
0.010959
0.00941211
0.00866715
0.00676821
0.00306694
0.000972569
0.00105997
0.00142685
0.00192613
0.00259339
0.00338706
0.004265
0.00513384
0.00594597
0.00667073
0.00730773
0.00783205
0.0081581
0.00820961
0.00823738
0.00906621
0.0113586
0.0145985
0.0180671
0.0213685
0.0243578
0.0270185
0.0293719
0.0314439
0.0332565
0.034827
0.0361697
0.0372981
0.038223
0.0389566
0.0395144
0.0399127
0.0401689
0.0403013
0.0403295
0.0402739
0.0401551
0.0399926
0.0398039
0.0396052
0.0394014
0.0391917
0.0389364
0.0386096
0.0381348
0.0374974
0.0366152
0.0355574
0.0342414
0.0328804
0.0313142
0.0299759
0.0284163
0.027609
0.0262752
0.010925
0.00900395
0.00836985
0.00717285
0.00387958
0.00130668
0.00115072
0.00149808
0.00200103
0.0026807
0.00349508
0.00440013
0.00530114
0.00614696
0.00690573
0.00757804
0.00814048
0.00851551
0.00862713
0.00870226
0.00951305
0.0117487
0.0149842
0.0185063
0.0218944
0.0249834
0.0277449
0.0301941
0.0323547
0.0342473
0.0358887
0.0372929
0.0384731
0.0394393
0.0402042
0.040783
0.0411921
0.0414488
0.0415717
0.041581
0.0414973
0.0413421
0.0411359
0.0408972
0.040644
0.0403822
0.0401108
0.0397919
0.0393995
0.0388594
0.0381575
0.0372124
0.0360955
0.0347233
0.0333149
0.031703
0.0303349
0.0287374
0.0279127
0.02652
0.010895
0.0086683
0.00804422
0.00739386
0.00463075
0.00182715
0.00127959
0.00158026
0.00207912
0.00276717
0.00359902
0.00452904
0.00546107
0.0063408
0.00713522
0.00784584
0.00845098
0.00887974
0.00905482
0.00917742
0.00996605
0.0121313
0.0153446
0.0189062
0.0223716
0.025554
0.0284123
0.0309551
0.0332027
0.0351744
0.0368863
0.0383519
0.0395839
0.0405916
0.0413879
0.0419878
0.0424076
0.0426647
0.0427777
0.0427671
0.0426542
0.0424609
0.0422087
0.0419172
0.0416067
0.0412831
0.0409458
0.040559
0.0400972
0.0394883
0.0387192
0.0377097
0.0365333
0.0351066
0.0336529
0.0319999
0.0306047
0.0289761
0.028134
0.0266926
0.0108685
0.00839352
0.0077122
0.00745843
0.0052853
0.00249903
0.00147406
0.00168044
0.00216344
0.00285488
0.00370047
0.00465305
0.00561469
0.00652832
0.00735977
0.00811157
0.00876392
0.0092511
0.00949289
0.00966326
0.0104269
0.0125103
0.0156841
0.0192711
0.0228037
0.026073
0.0290238
0.0316573
0.0339903
0.0360403
0.0378222
0.0393489
0.0406327
0.0416821
0.0425099
0.0431311
0.0435616
0.0438188
0.0439215
0.0438903
0.0437469
0.0435139
0.0432137
0.0428671
0.0424965
0.0421074
0.0417003
0.0412417
0.0407067
0.0400257
0.0391866
0.0381113
0.0368749
0.0353955
0.0338985
0.0322088
0.0307893
0.029136
0.0282771
0.0267969
0.0108452
0.00816938
0.00738935
0.0073969
0.005818
0.00324659
0.00178096
0.00180943
0.00225818
0.0029464
0.00380124
0.00477365
0.00576313
0.00671034
0.00757986
0.00837545
0.00907932
0.00962947
0.00994114
0.0101599
0.0108967
0.0128889
0.016007
0.019605
0.0231941
0.0265431
0.0295818
0.0323032
0.0347198
0.0368469
0.0386982
0.0402858
0.0416212
0.0427123
0.0435718
0.0442143
0.0446555
0.0449128
0.0450048
0.0449523
0.0447774
0.0445032
0.0441529
0.0437495
0.0433158
0.0428578
0.0423774
0.0418432
0.0412314
0.040475
0.0395633
0.0384207
0.0371241
0.0355931
0.0340549
0.0323329
0.030892
0.0292202
0.0283458
0.0268363
0.0108249
0.0079871
0.00708596
0.0072397
0.00621511
0.00400039
0.00222883
0.00198357
0.00236918
0.00304506
0.00390353
0.00489251
0.00590763
0.00688769
0.0077959
0.00863752
0.0093969
0.0100144
0.0103991
0.0106671
0.0113766
0.0132703
0.0163175
0.0199116
0.0235462
0.0269672
0.0300887
0.0328947
0.0353928
0.0375956
0.0395155
0.0411636
0.0425504
0.0436832
0.0445745
0.0452384
0.0456905
0.0459476
0.0460286
0.0459542
0.0457468
0.04543
0.0450284
0.0445663
0.0440666
0.0435367
0.0429796
0.0423662
0.0416741
0.0408392
0.0398523
0.0386411
0.0372837
0.0357027
0.0341252
0.0323749
0.0309156
0.0292313
0.028343
0.0268139
0.0108072
0.00783928
0.00680818
0.0070152
0.00647387
0.00470707
0.00280433
0.00222683
0.00250481
0.0031552
0.00401002
0.00501162
0.00604963
0.00706136
0.00800838
0.00889771
0.0097162
0.010405
0.010866
0.0111846
0.0118672
0.013657
0.0166194
0.0201949
0.0238631
0.0273478
0.0305465
0.0334334
0.0360106
0.0382878
0.0402753
0.0419832
0.0434212
0.0445957
0.0455188
0.0462042
0.046667
0.046924
0.0469936
0.0468967
0.0466561
0.0462956
0.0458415
0.0453187
0.0447506
0.0441459
0.0435088
0.0428129
0.0420373
0.041121
0.0400563
0.038775
0.0373565
0.0357268
0.0341121
0.0323375
0.0308629
0.0291719
0.0282719
0.0267322
0.0107918
0.00771973
0.00655901
0.00674837
0.00660075
0.00532688
0.00346152
0.00256968
0.00267701
0.00328264
0.00412408
0.00513335
0.00619082
0.00723247
0.00821783
0.00915599
0.0100366
0.0108003
0.0113409
0.011712
0.012369
0.0140516
0.0169166
0.0204586
0.0241482
0.0276876
0.0309574
0.0339211
0.0365747
0.0389243
0.0409784
0.0427455
0.0442341
0.0454501
0.0464051
0.047112
0.0475856
0.0478423
0.0479004
0.0477806
0.0475058
0.047101
0.0465933
0.0460079
0.0453692
0.044687
0.043967
0.0431855
0.0423232
0.0413226
0.0401779
0.038825
0.037345
0.0356679
0.0340181
0.0322231
0.0307362
0.0290441
0.028135
0.0265937
0.0107784
0.00762333
0.00633923
0.00646008
0.0066093
0.00583263
0.00415089
0.00303064
0.00290263
0.00343521
0.00425006
0.00526063
0.00633321
0.00740241
0.00842499
0.00941234
0.0103575
0.0111993
0.0118227
0.0122486
0.0128823
0.0144561
0.0172127
0.0207066
0.0244046
0.0279891
0.0313234
0.0343593
0.0370862
0.0395063
0.0416255
0.0434509
0.0449896
0.0462469
0.0472336
0.047962
0.0484465
0.0487027
0.0487491
0.048606
0.0482968
0.0478471
0.0472846
0.046635
0.0459235
0.0451613
0.0443559
0.0434858
0.042534
0.0414462
0.0402191
0.0387933
0.0372516
0.0355283
0.0338454
0.0320337
0.0305379
0.0288502
0.0279347
0.0264006
0.0107668
0.00754583
0.0061481
0.00616687
0.00651787
0.00620842
0.00482585
0.00360106
0.0032045
0.00362343
0.00439358
0.00539702
0.00647924
0.00757285
0.00863079
0.00966691
0.0106783
0.0116004
0.0123101
0.0127938
0.0134073
0.0148725
0.0175112
0.0209428
0.0246359
0.0282553
0.0316466
0.0347496
0.0375463
0.0400345
0.0422172
0.0440999
0.0456879
0.0469861
0.0480044
0.0487543
0.0492496
0.0495055
0.0495399
0.0493734
0.0490296
0.0485344
0.047916
0.0472007
0.0464146
0.0455704
0.0446769
0.0437156
0.0426714
0.0414938
0.0401822
0.0386822
0.0370785
0.0353103
0.0335964
0.0317718
0.0302702
0.0285923
0.0276736
0.0261551
0.0107568
0.00748377
0.00598389
0.00588113
0.0063473
0.00644861
0.0054457
0.00424839
0.00360422
0.003861
0.004562
0.005547
0.00663188
0.00774582
0.00883646
0.00992003
0.0109976
0.0120026
0.0128016
0.0133468
0.0139442
0.0153023
0.0178157
0.021171
0.0248455
0.0284888
0.0319292
0.0350938
0.0379564
0.0405099
0.0427542
0.0446929
0.0463294
0.0476681
0.0487177
0.0494889
0.049995
0.0502505
0.050273
0.0500831
0.0497045
0.0491633
0.0484881
0.0477059
0.0468436
0.0459152
0.0449315
0.0438764
0.0427372
0.0414674
0.0400691
0.0384938
0.0368279
0.035016
0.0332731
0.0314393
0.0299352
0.0282724
0.0273538
0.0258592
0.0107481
0.00743429
0.00584433
0.00561158
0.00611895
0.00655651
0.00597713
0.00492992
0.00410816
0.00416598
0.00476495
0.00571613
0.00679477
0.0079238
0.00904357
0.0101723
0.011315
0.0124044
0.0132958
0.0139067
0.0144928
0.015747
0.0181293
0.0213952
0.0250369
0.0286926
0.0321735
0.0353934
0.0383177
0.0409334
0.0432372
0.0452303
0.0469143
0.0482929
0.0493734
0.0501658
0.0506826
0.0509378
0.0509486
0.0507354
0.0503218
0.0497342
0.0490015
0.0481513
0.0472112
0.046197
0.0451209
0.0439698
0.0427332
0.0413688
0.0398819
0.0382301
0.0365018
0.0346476
0.0328779
0.0310384
0.0295351
0.0278925
0.0269776
0.0255147
0.0107405
0.00739505
0.00572687
0.00536375
0.00585308
0.00654291
0.00639537
0.00560141
0.00470359
0.00455402
0.00501624
0.00591149
0.00697238
0.00810978
0.00925408
0.0104248
0.0116304
0.0128048
0.0137911
0.0144722
0.0150529
0.0162079
0.0184553
0.0216194
0.0252141
0.0288698
0.032382
0.0356505
0.0386315
0.0413061
0.0436667
0.0457125
0.0474428
0.0488603
0.0499714
0.0507849
0.0513125
0.0515676
0.0515669
0.0513305
0.0508819
0.0502476
0.0494568
0.0485376
0.0475185
0.0464169
0.0452466
0.0439972
0.042661
0.0411998
0.0396225
0.0378932
0.0361025
0.0342071
0.0324129
0.0305712
0.0290721
0.0274547
0.0265472
0.0251237
0.010734
0.00736414
0.00562893
0.00514067
0.0055677
0.00642418
0.0066848
0.0062219
0.00536209
0.00503273
0.00532876
0.00614278
0.00717172
0.00830742
0.00947044
0.0106787
0.0119439
0.0132026
0.0142859
0.0150422
0.0156243
0.016686
0.0187967
0.0218473
0.0253806
0.0290237
0.0325571
0.0358669
0.038899
0.0416283
0.0440432
0.0461396
0.047915
0.0493707
0.0505119
0.0513464
0.0518848
0.05214
0.0521281
0.0518687
0.0513851
0.0507038
0.0498544
0.0488654
0.0477663
0.0465758
0.0453096
0.0439601
0.0425222
0.0409621
0.0392928
0.037485
0.035632
0.0336969
0.0318802
0.03004
0.0285484
0.0269612
0.0260648
0.024688
0.0107283
0.00734001
0.00554801
0.00494343
0.00527782
0.00622037
0.00683918
0.00675619
0.00604566
0.0055984
0.00571454
0.00641956
0.00739923
0.00852296
0.00969653
0.0109359
0.012256
0.0135971
0.0147783
0.0156151
0.0162064
0.0171823
0.0191562
0.0220817
0.025539
0.0291568
0.0327011
0.0360443
0.0391219
0.0419017
0.0443677
0.0465126
0.0483316
0.0498246
0.0509954
0.0518507
0.0524
0.0526554
0.0526324
0.05235
0.0518315
0.0511032
0.0501948
0.0491354
0.0479553
0.0466747
0.0453112
0.0438598
0.0423183
0.0406575
0.0388947
0.0370077
0.0350925
0.0331192
0.0312823
0.0294469
0.0279663
0.026414
0.0255327
0.0242094
0.0107234
0.00732137
0.00548175
0.0047717
0.00499523
0.00595315
0.00686116
0.00717632
0.00671291
0.0062339
0.00618135
0.006752
0.00766227
0.0087614
0.00993748
0.0112001
0.0125677
0.0139879
0.0152668
0.0161892
0.0167982
0.0176973
0.0195335
0.0223237
0.0256924
0.0292722
0.0328169
0.0361851
0.0393018
0.0421276
0.0446414
0.0468323
0.0486933
0.0502224
0.0514222
0.0522979
0.052858
0.0531138
0.0530799
0.0527749
0.0522215
0.0514461
0.0504785
0.0493482
0.0480863
0.0467147
0.0452525
0.0436977
0.0420509
0.0402878
0.03843
0.0364632
0.0344862
0.0324761
0.0306214
0.0287943
0.0273281
0.0258154
0.0249531
0.02369
0.0107191
0.00730718
0.00542803
0.00462419
0.00472851
0.005644
0.0067613
0.00746277
0.00732351
0.0069103
0.00672884
0.00714937
0.0079689
0.00902842
0.0101973
0.0114759
0.0128818
0.0143739
0.0157497
0.0167624
0.0173986
0.0182301
0.0199279
0.0225757
0.025844
0.0293732
0.0329072
0.0362918
0.039441
0.0423077
0.0448655
0.0470996
0.0490007
0.0505648
0.0517927
0.0526885
0.0532594
0.0535155
0.053471
0.0531435
0.0525555
0.051733
0.050706
0.0495045
0.0481602
0.0466967
0.0451347
0.0434751
0.0417214
0.0398544
0.0379006
0.0358537
0.0338153
0.0317701
0.0299
0.0280847
0.0266362
0.0251676
0.0243283
0.0231317
0.0107153
0.00729658
0.00538494
0.00449904
0.00448334
0.00531277
0.00655644
0.00760512
0.00784128
0.00759098
0.00734576
0.0076176
0.00832713
0.00933021
0.0104803
0.0117662
0.0132028
0.0147561
0.0162254
0.0173323
0.0180059
0.0187782
0.0203401
0.0228401
0.0259968
0.0294629
0.0329749
0.0363667
0.0395413
0.0424435
0.0450413
0.0473157
0.0492547
0.0508523
0.0521075
0.0530228
0.0536042
0.0538608
0.0538057
0.053456
0.0528336
0.0519641
0.0508777
0.0496048
0.0481777
0.0466215
0.0449588
0.0431932
0.0413313
0.0393593
0.0373085
0.0351812
0.0330822
0.0310037
0.0291206
0.0273205
0.0258932
0.0244731
0.0236607
0.0225365
0.0107121
0.00728887
0.0053508
0.00439408
0.0042629
0.00497655
0.00626776
0.00760237
0.00823633
0.00823612
0.00800956
0.00815643
0.00874365
0.00967307
0.0107912
0.0120744
0.0135327
0.0151384
0.0166934
0.0178964
0.0186169
0.01934
0.0207705
0.0231186
0.0261535
0.0295443
0.0330231
0.0364125
0.0396049
0.0425368
0.0451701
0.0474815
0.0494562
0.0510857
0.052367
0.0533012
0.0538929
0.05415
0.0540845
0.0537128
0.0530562
0.05214
0.0509942
0.0496497
0.0481395
0.0464901
0.0447259
0.0428533
0.0408821
0.0388039
0.0366555
0.0344479
0.0322892
0.0301793
0.028286
0.0265044
0.0251017
0.0237343
0.0229528
0.0219065
0.0107092
0.00728346
0.00532416
0.00430699
0.00406843
0.00464909
0.0059186
0.00746248
0.00848674
0.0088065
0.00868841
0.00875696
0.00922196
0.0100626
0.0111349
0.0124039
0.0138739
0.0155217
0.0171549
0.0184523
0.0192287
0.019914
0.0212193
0.0234129
0.0263168
0.0296206
0.0330546
0.0364318
0.039634
0.0425893
0.0452533
0.0475982
0.0496059
0.0512655
0.0525718
0.0535242
0.0541258
0.0543832
0.0543075
0.0539141
0.0532236
0.0522609
0.0510559
0.0496397
0.0480463
0.0463033
0.0444369
0.0424565
0.0403752
0.03819
0.0359437
0.0336561
0.0314389
0.0292997
0.0273988
0.0256392
0.0242645
0.0229538
0.0222072
0.0212438
0.0107068
0.00727989
0.00530374
0.00423554
0.00389967
0.0043406
0.00553239
0.0072013
0.00857986
0.00926654
0.00934469
0.00940049
0.0097602
0.0105028
0.0115155
0.012758
0.0142286
0.0159075
0.0176092
0.0189982
0.0198386
0.0204985
0.0216862
0.0237243
0.026489
0.0296945
0.0330722
0.0364269
0.0396307
0.0426028
0.0452924
0.047667
0.0497049
0.0513925
0.0527224
0.0536922
0.0543032
0.0545609
0.0544752
0.0540603
0.0533361
0.0523272
0.0510632
0.0495755
0.0478987
0.0460619
0.0440929
0.0420041
0.0398119
0.0375192
0.0351749
0.032808
0.0305338
0.0283678
0.0264622
0.024728
0.0233846
0.0221345
0.0214266
0.0205509
0.0107046
0.00727778
0.00528846
0.00417756
0.00375535
0.0040579
0.00513084
0.00684086
0.00851303
0.00958661
0.00993869
0.0100593
0.0103492
0.0109942
0.0119361
0.0131398
0.014599
0.0162968
0.0180562
0.0195326
0.0204438
0.021091
0.0221704
0.0240537
0.0266724
0.0297686
0.0330786
0.0364006
0.0395971
0.0425791
0.045289
0.0476891
0.0497542
0.0514675
0.0528195
0.0538056
0.0544256
0.0546834
0.0545876
0.0541515
0.0533941
0.0523393
0.0510166
0.0494576
0.0476974
0.0457666
0.0436948
0.0414972
0.0391936
0.0367933
0.0343511
0.0319061
0.0295768
0.0273865
0.0254792
0.0237738
0.0224651
0.0212792
0.0206138
0.01983
0.0107027
0.00727679
0.0052774
0.0041311
0.00363356
0.00380484
0.00473256
0.00640706
0.00829366
0.00974509
0.0104319
0.0106989
0.0109714
0.0115325
0.0123977
0.0135511
0.0149868
0.0166907
0.0184957
0.0200536
0.021041
0.0216886
0.0226706
0.0244016
0.0268685
0.0298455
0.0330765
0.0363552
0.0395355
0.04252
0.0452444
0.0476657
0.0497546
0.0514913
0.0528637
0.053865
0.0544933
0.054751
0.0546452
0.054188
0.0533977
0.0522975
0.0509164
0.0492863
0.047443
0.0454182
0.0432435
0.0409368
0.0385217
0.0360138
0.0334746
0.0309528
0.0285707
0.026359
0.0244534
0.0227801
0.0215094
0.0203911
0.0197719
0.0190838
0.010701
0.00727668
0.00526977
0.00409439
0.00353203
0.00358282
0.00435229
0.0059273
0.00793846
0.00972991
0.0107901
0.0112809
0.0116012
0.0121069
0.0128975
0.0139922
0.0153928
0.0170898
0.0189276
0.0205593
0.0216266
0.0222879
0.0231848
0.0247678
0.0270788
0.0299271
0.0330682
0.036293
0.039448
0.0424274
0.0451602
0.047598
0.0497071
0.0514646
0.0528555
0.0538708
0.0545068
0.054764
0.0546481
0.0541702
0.0533473
0.052202
0.0507629
0.0490622
0.0471359
0.0450174
0.0427398
0.040324
0.0377975
0.0351824
0.0325473
0.0299507
0.0275185
0.0252889
0.0233883
0.0217506
0.0205211
0.0194735
0.018904
0.0183151
0.0106995
0.00727723
0.0052649
0.00406585
0.0034484
0.00339143
0.00400055
0.00542802
0.00747185
0.00953969
0.0109851
0.0117664
0.0122062
0.0126996
0.0134283
0.0144609
0.0158165
0.0174938
0.019351
0.0210475
0.0221966
0.0228844
0.02371
0.0251514
0.027304
0.0300153
0.0330558
0.0362162
0.0393364
0.0423029
0.0450379
0.0474872
0.0496128
0.0513882
0.0527956
0.0538236
0.0544663
0.0547226
0.0545967
0.0540982
0.0532431
0.0520531
0.0505566
0.0487855
0.0467768
0.0445648
0.0421845
0.0396599
0.0370223
0.034301
0.0315715
0.0289027
0.0264237
0.0241797
0.0222878
0.0206892
0.0195041
0.0185301
0.0180138
0.0175269
0.0106983
0.00727828
0.00526223
0.00404412
0.0033803
0.00322896
0.00368389
0.00493269
0.00692363
0.00918408
0.0109979
0.0121191
0.01275
0.0132856
0.0139772
0.0149512
0.0162551
0.0179013
0.0197644
0.0215154
0.0227466
0.0234729
0.0242422
0.0255505
0.0275441
0.0301114
0.0330413
0.0361268
0.0392026
0.0421482
0.0448789
0.0473345
0.0494725
0.0512628
0.0526845
0.0537237
0.0543722
0.0546272
0.0544912
0.0539722
0.0530852
0.0518511
0.0502976
0.0484567
0.0463659
0.0440609
0.0415783
0.0389453
0.0361975
0.0333711
0.0305495
0.0278116
0.0252897
0.0230355
0.0211563
0.0196002
0.0184625
0.0175648
0.0171049
0.0167225
0.0106971
0.0072797
0.0052613
0.004028
0.00332555
0.00309293
0.00340536
0.00446037
0.00632606
0.00868322
0.0108195
0.0123074
0.0131944
0.0138342
0.0145251
0.0154529
0.0167036
0.0183093
0.0201655
0.0219599
0.0232713
0.0240474
0.0247764
0.0259623
0.0277984
0.030216
0.033026
0.0360265
0.0390483
0.0419649
0.0446843
0.0471409
0.0492872
0.0510891
0.0525227
0.0535715
0.0542249
0.054478
0.0543316
0.0537924
0.0528739
0.051596
0.049986
0.048076
0.0459037
0.0435062
0.040922
0.0381813
0.0353243
0.0323947
0.0294837
0.0266806
0.0241204
0.0218605
0.0199984
0.0184882
0.0174011
0.0165818
0.0161815
0.0159053
0.0106961
0.00728137
0.0052617
0.00401648
0.0032821
0.00298048
0.00316525
0.00402493
0.00571092
0.00806613
0.0104529
0.0123075
0.0135028
0.0143103
0.0150468
0.0159509
0.0171529
0.0187125
0.0205505
0.0223768
0.023765
0.0246007
0.0253061
0.0263826
0.0280652
0.0303292
0.0330108
0.0359164
0.038875
0.0417541
0.0444555
0.0469073
0.0490574
0.0508677
0.0523108
0.0533673
0.0540244
0.0542751
0.0541182
0.0535588
0.0526091
0.051288
0.0496222
0.0476436
0.0453905
0.0429012
0.0402161
0.0373688
0.034404
0.0313736
0.0283768
0.025513
0.0229197
0.0206596
0.0188191
0.0173583
0.0163247
0.0155858
0.0152479
0.0150792
0.0106952
0.00728321
0.00526314
0.00400867
0.00324815
0.00288861
0.00296184
0.00363502
0.0051067
0.00736811
0.00991296
0.0121053
0.0136425
0.0146775
0.0155124
0.0164247
0.0175903
0.0191029
0.0209136
0.0227607
0.0242211
0.0251246
0.0258236
0.0268057
0.0283414
0.0304498
0.032996
0.0357975
0.0386836
0.041517
0.0441932
0.0466346
0.048784
0.0505991
0.052049
0.0531115
0.0537711
0.0540186
0.0538509
0.0532714
0.0522908
0.0509271
0.049206
0.0471596
0.0448265
0.0422462
0.0394613
0.0365087
0.0334381
0.0303097
0.0272314
0.0243124
0.0216923
0.0194376
0.0176238
0.0162161
0.0152388
0.0145817
0.0143091
0.0142486
0.0106945
0.00728516
0.00526533
0.00400385
0.0032221
0.00281443
0.00279214
0.00329462
0.00453655
0.00662738
0.00922621
0.0116984
0.0135875
0.0149
0.0158886
0.0168489
0.0179986
0.0194691
0.0212472
0.0231052
0.0246318
0.02561
0.0263195
0.0272243
0.0286226
0.0305759
0.0329811
0.03567
0.0384749
0.0412544
0.0438983
0.0463234
0.0484674
0.0502836
0.0517377
0.0528041
0.0534649
0.0537084
0.0535297
0.0529301
0.051919
0.0505131
0.0487376
0.0466241
0.0442118
0.0415417
0.0386581
0.0356018
0.0324278
0.0292052
0.0260504
0.0230829
0.020443
0.0182004
0.0164188
0.0150676
0.0141494
0.0135753
0.0133704
0.0134183
0.0106938
0.00728717
0.00526807
0.00400138
0.00320257
0.00275526
0.00265247
0.00300387
0.00401704
0.00588134
0.0084288
0.0110974
0.0133212
0.0149459
0.0161406
0.0171942
0.0183565
0.0197965
0.0215409
0.0234017
0.0249884
0.0260466
0.0267833
0.0276295
0.0289026
0.030704
0.0329644
0.0355337
0.0382488
0.0409664
0.043571
0.045974
0.0481077
0.0499214
0.0513768
0.0524451
0.0531058
0.0533446
0.0531544
0.0525348
0.0514936
0.050046
0.0482167
0.0460371
0.0435466
0.0407878
0.037807
0.0346491
0.0313746
0.0280621
0.0248371
0.0218285
0.019177
0.0169539
0.0152105
0.0139196
0.0130632
0.0125726
0.0124378
0.0125933
0.0106932
0.00728919
0.0052712
0.00400076
0.00318836
0.00270866
0.00253893
0.00276021
0.00355801
0.00516307
0.00756336
0.0103261
0.0128381
0.0147893
0.0162348
0.0174291
0.0186384
0.0200666
0.0217816
0.0236401
0.025281
0.0264228
0.0272026
0.0280104
0.0291734
0.0308292
0.0329434
0.0353871
0.0380051
0.0406531
0.0432115
0.0455864
0.0477052
0.0495125
0.0509663
0.0520345
0.0526935
0.0529268
0.0527248
0.0520852
0.0510141
0.0495256
0.0476432
0.0453983
0.0428309
0.0399847
0.0369086
0.0336514
0.03028
0.026883
0.023595
0.0205541
0.0179003
0.0157049
0.0140063
0.0127794
0.0119874
0.0115804
0.0115179
0.0117796
0.0106927
0.0072912
0.00527458
0.00400155
0.00317845
0.00267251
0.00244771
0.0025593
0.00316316
0.00449861
0.00667481
0.00942055
0.0121464
0.0144129
0.0161411
0.017521
0.0188164
0.0202575
0.0219531
0.0238079
0.0254979
0.0267259
0.0275638
0.0283543
0.029425
0.0309447
0.0329139
0.035228
0.0377422
0.0403136
0.0428192
0.0451603
0.0472594
0.0490566
0.0505059
0.0515718
0.0522278
0.0524546
0.0522404
0.0515809
0.0504803
0.0489513
0.0470168
0.0447077
0.0420646
0.0391327
0.0359632
0.0326096
0.0291457
0.0256703
0.0223279
0.0192648
0.0166192
0.0144608
0.0128141
0.0116551
0.0109301
0.0106064
0.010618
0.0109856
0.0106922
0.00729318
0.0052781
0.0040034
0.00317198
0.00264494
0.00237525
0.002396
0.00283133
0.00390548
0.00580579
0.0084263
0.0112685
0.0138113
0.0158354
0.0174392
0.0188608
0.0203448
0.0220366
0.0238904
0.0256261
0.0269423
0.027852
0.0286466
0.0296454
0.0310417
0.0328702
0.0350529
0.0374582
0.0399467
0.0423933
0.0446951
0.0467698
0.0485532
0.0499951
0.0510566
0.0517081
0.0519276
0.0517008
0.0510213
0.0498916
0.0483229
0.046337
0.0439649
0.0412476
0.0382318
0.0349714
0.0315248
0.0279733
0.0244269
0.0210399
0.0179662
0.0153409
0.0132295
0.0116427
0.0105556
0.00990014
0.00965898
0.00974644
0.0102188
0.0106918
0.0072951
0.00528169
0.00400603
0.00316822
0.00262437
0.00231839
0.00226493
0.00255798
0.00339256
0.00499233
0.00739444
0.0102407
0.0129923
0.0153027
0.0171568
0.0187421
0.0203019
0.0220107
0.0238708
0.0256511
0.0270568
0.028051
0.0288713
0.0298205
0.0311094
0.0328049
0.0348568
0.0371498
0.03955
0.0419321
0.0441895
0.0462354
0.0480013
0.049433
0.0504881
0.0511336
0.0513449
0.0511052
0.0504058
0.0492473
0.0476396
0.0456035
0.0431697
0.0403797
0.037282
0.0339336
0.030398
0.0267648
0.0231561
0.0197358
0.0166647
0.0140728
0.01202
0.0105016
0.00949076
0.00890739
0.00874755
0.00891232
0.00948751
0.0106915
0.00729696
0.00528528
0.00400922
0.00316658
0.00260943
0.00227433
0.00216094
0.00233659
0.00296119
0.00426072
0.0063761
0.00911151
0.011979
0.0145394
0.0166533
0.0184333
0.0201021
0.0218524
0.0237303
0.0255567
0.0270537
0.0281435
0.0290107
0.0299342
0.031135
0.0327086
0.0346333
0.0368124
0.0391206
0.0414334
0.0436417
0.0456548
0.0473998
0.0488186
0.0498652
0.0505034
0.0507056
0.0504526
0.0497335
0.0485467
0.0469008
0.0448155
0.0423214
0.0394606
0.0362836
0.0328502
0.0292304