/*--------------------------------*- C++ -*----------------------------------*\
| =========                 |                                                 |
| \\      /  F ield         | OpenFOAM: The Open Source CFD Toolbox           |
|  \\    /   O peration     | Version:  2.4.0                                 |
|   \\  /    A nd           | Web:      www.OpenFOAM.org                      |
|    \\/     M anipulation  |                                                 |
\*---------------------------------------------------------------------------*/
FoamFile
{
    version     2.0;
    format      ascii;
    class       volScalarField;
    location    "1.08";
    object      k;
}
// * * * * * * * * * * * * * * * * * * * * * * * * * * * * * * * * * * * * * //

dimensions      [0 2 -2 0 0 0 0];

internalField   nonuniform List<scalar> 
6000
(
0.168271
0.0131683
0.00103091
0.00359585
0.00257921
0.0032112
0.00270469
0.0018988
0.000586736
0.000585375
0.000970669
0.00299387
0.00832801
0.0159589
0.0232857
0.0274806
0.0270606
0.0226731
0.0163993
0.0102216
0.00534014
0.00225031
0.000890114
0.000811839
0.00157484
0.00231825
0.00303831
0.00377034
0.0045399
0.00535206
0.00619132
0.00702833
0.0078312
0.00857725
0.00925992
0.00988832
0.0104815
0.011062
0.0116511
0.0122671
0.0129259
0.0136416
0.0144283
0.0153013
0.0162766
0.0173759
0.0186188
0.0200431
0.021665
0.0235725
0.0257281
0.0284118
0.0312778
0.035401
0.0389711
0.0463877
0.0495393
0.066129
0.0642033
0.104779
0.0762213
0.0101006
0.000982
0.00239254
0.00176367
0.00209284
0.00175771
0.00123597
0.000451612
0.000513502
0.000861572
0.00231383
0.00517038
0.00858662
0.0113632
0.0125688
0.0119297
0.00990622
0.00727054
0.00468455
0.00257555
0.00119991
0.000620963
0.000721318
0.0011442
0.00154232
0.00192018
0.00229551
0.00267858
0.00306973
0.0034612
0.00384117
0.00419866
0.00452768
0.00482884
0.00510843
0.00537584
0.0056411
0.00591341
0.00620069
0.00650984
0.00684733
0.00721957
0.00763374
0.00809752
0.00862099
0.00921393
0.00989346
0.0106692
0.011579
0.0126142
0.0138885
0.015279
0.0172097
0.0190015
0.0223703
0.0242193
0.0314302
0.0316986
0.0484865
0.0412273
0.00800424
0.00100157
0.00168353
0.00125993
0.00142121
0.00118814
0.000843288
0.000376873
0.000470753
0.000801866
0.00184054
0.00344293
0.00502748
0.00603514
0.00621001
0.0056304
0.00461047
0.00342717
0.0022912
0.00135109
0.000734262
0.000504937
0.00062662
0.000863831
0.00108339
0.00128915
0.00148954
0.00168867
0.0018861
0.00207841
0.00226117
0.00243098
0.00258679
0.00273024
0.002865
0.00299574
0.00312715
0.00326348
0.00340844
0.00356535
0.00373738
0.00392779
0.00414022
0.00437867
0.00464824
0.00495418
0.00530493
0.00570644
0.0061762
0.00671427
0.00736966
0.00809993
0.00907949
0.0100504
0.0117069
0.0128355
0.0162115
0.0169513
0.0243065
0.0260634
0.00676101
0.00109334
0.00126795
0.000945757
0.00100815
0.000838721
0.000609076
0.000338163
0.000446893
0.000756104
0.00149381
0.00241234
0.00313671
0.0034268
0.00327932
0.00284778
0.00231368
0.00175865
0.00124154
0.000813053
0.000536116
0.0004558
0.000549602
0.000682979
0.000806104
0.000920838
0.00103083
0.00113762
0.00124092
0.00133939
0.00143162
0.00151677
0.0015951
0.00166787
0.00173712
0.0018052
0.00187442
0.0019469
0.00202451
0.00210899
0.00220203
0.00230539
0.00242108
0.00255131
0.00269885
0.00286672
0.00305937
0.00328057
0.00353897
0.0038369
0.0041965
0.00460492
0.00513614
0.00569422
0.006566
0.00727509
0.00896113
0.00967133
0.0130406
0.0187955
0.00608572
0.00125156
0.00103813
0.000752894
0.000751733
0.000623144
0.000470737
0.000321055
0.000434426
0.000712241
0.00123205
0.0017587
0.00206446
0.00207476
0.00187091
0.00158923
0.00130864
0.00103907
0.000793476
0.000590766
0.000462763
0.000437715
0.000496299
0.000569747
0.000638625
0.000703127
0.00076443
0.000822938
0.000878439
0.000930475
0.000978694
0.00102308
0.00106405
0.00110245
0.00113939
0.00117613
0.00121387
0.00125373
0.00129675
0.00134387
0.00139607
0.00145438
0.00151992
0.00159402
0.00167828
0.0017745
0.00188517
0.00201275
0.00216177
0.00233472
0.00254215
0.00278165
0.00308554
0.00342055
0.00390646
0.00436121
0.00525281
0.00581317
0.0074152
0.0150473
0.00576368
0.00146599
0.000934643
0.000642184
0.000594621
0.000492104
0.00039202
0.000317146
0.000428613
0.000669188
0.00103336
0.00133197
0.00143935
0.00136387
0.00119978
0.00103992
0.000895417
0.000755952
0.000626241
0.000517876
0.000449048
0.000436489
0.000465436
0.000502902
0.000540018
0.000575797
0.000610055
0.000642547
0.000672968
0.000701074
0.000726786
0.000750247
0.000771826
0.000792081
0.000811693
0.000831381
0.000851837
0.000873701
0.000897562
0.000923982
0.000953533
0.000986829
0.00102456
0.00106753
0.0011167
0.0011732
0.0012385
0.0013142
0.00140286
0.00150649
0.00163044
0.00177563
0.00195663
0.00216394
0.0024478
0.00274334
0.00323963
0.00364998
0.00443717
0.0130143
0.00565554
0.00172482
0.000923154
0.000591063
0.000503602
0.000416588
0.000351461
0.000321776
0.000427106
0.000629903
0.000885697
0.00105514
0.0010808
0.00100691
0.000911046
0.000840005
0.000767042
0.000681862
0.000593857
0.000516621
0.00046422
0.000446314
0.000452736
0.000467505
0.000485212
0.000504015
0.000522884
0.000541083
0.000558072
0.000573504
0.000587244
0.000599383
0.000610211
0.000620164
0.000629741
0.000639438
0.000649707
0.000660943
0.000673497
0.000687707
0.000703917
0.000722504
0.000743894
0.000768586
0.000797183
0.0008304
0.000869152
0.000914497
0.000967946
0.00103102
0.00110658
0.00119631
0.00130709
0.00143785
0.00160974
0.00180333
0.00209223
0.00238142
0.00278158
0.0118759
0.00567303
0.00201545
0.000982343
0.000586796
0.000459139
0.000379141
0.000336238
0.00033263
0.000429393
0.000598091
0.000781623
0.000884248
0.000891539
0.000856702
0.000830071
0.000818061
0.000778761
0.00070875
0.000625752
0.000548886
0.000493401
0.000463738
0.000453103
0.000452624
0.000457822
0.000466192
0.000476082
0.000486324
0.000496073
0.000504745
0.000512023
0.000517867
0.000522496
0.000526304
0.000529753
0.000533273
0.000537216
0.000541855
0.000547412
0.000554086
0.000562083
0.000571629
0.000582988
0.000596474
0.000612467
0.000631432
0.000653948
0.000680726
0.0007127
0.000750964
0.000797167
0.000852897
0.000921572
0.00100474
0.00111134
0.00123854
0.00141296
0.00161224
0.00182348
0.0112284
0.00576024
0.00232485
0.00109822
0.000621358
0.000449799
0.000369141
0.000338774
0.000348863
0.000436133
0.000576906
0.000715716
0.000791568
0.00081456
0.000831535
0.000863691
0.000885908
0.000856923
0.000781539
0.000685824
0.000595663
0.000528936
0.000485945
0.000461802
0.00045023
0.000446772
0.000448345
0.000452776
0.000458499
0.000464354
0.000469491
0.000473368
0.000475779
0.000476858
0.000476986
0.000476643
0.00047627
0.000476202
0.00047666
0.000477794
0.000479719
0.00048255
0.000486416
0.000491474
0.000497918
0.000505987
0.00051598
0.000528273
0.000543341
0.000561785
0.000584379
0.000612125
0.000646306
0.000688735
0.000741449
0.000808253
0.000891629
0.000999715
0.00113502
0.00125135
0.0108604
0.00588194
0.00264027
0.00125963
0.000689718
0.000469224
0.000380247
0.000354793
0.000370534
0.000448571
0.000568601
0.000683531
0.000758369
0.00081431
0.000882967
0.000958552
0.000995582
0.000962326
0.000871308
0.000755485
0.000647636
0.000566859
0.000510617
0.000475067
0.00045467
0.000444657
0.000441404
0.000442259
0.000445281
0.000449015
0.00045237
0.000454587
0.000455285
0.000454486
0.000452537
0.000449945
0.000447193
0.000444639
0.000442496
0.000440879
0.000439853
0.000439472
0.0004398
0.00044092
0.000442947
0.000446024
0.00045034
0.000456136
0.00046373
0.000473512
0.00048603
0.000501914
0.000522147
0.000547745
0.000580567
0.000622226
0.000676388
0.000744295
0.000835103
0.000902192
0.0106555
0.00601642
0.00295006
0.00145624
0.000788442
0.000513907
0.000408905
0.000382137
0.000398238
0.000468119
0.000574616
0.000681319
0.000771537
0.00086764
0.000980974
0.00108331
0.0011212
0.00107484
0.000963711
0.000825806
0.000700667
0.000605093
0.000536096
0.000490316
0.000462278
0.000446805
0.00043975
0.000437993
0.000439221
0.00044171
0.000444169
0.000445668
0.000445666
0.000444053
0.00044111
0.000437343
0.000433277
0.000429306
0.000425661
0.000422446
0.000419697
0.000417429
0.000415662
0.000414431
0.00041379
0.00041382
0.000414634
0.000416378
0.000419263
0.000423539
0.000429591
0.000437823
0.000448973
0.00046363
0.00048333
0.000508713
0.000543282
0.000585957
0.000646239
0.000686845
0.0105475
0.00615091
0.00324458
0.00167773
0.000914871
0.000581521
0.000453446
0.000420037
0.000432855
0.000496103
0.000595793
0.000705983
0.000821732
0.000958973
0.0011067
0.00122103
0.00124994
0.00118521
0.00105244
0.000893338
0.000752831
0.000642616
0.000561412
0.000506049
0.000470951
0.000450547
0.000440192
0.000436294
0.000436154
0.000437779
0.000439715
0.00044092
0.000440738
0.000438935
0.000435695
0.000431489
0.000426857
0.000422227
0.000417857
0.000413853
0.000410238
0.000407004
0.000404141
0.000401649
0.000399545
0.000397862
0.000396661
0.000396023
0.000396081
0.000396989
0.000399016
0.000402416
0.000407741
0.000415329
0.000426417
0.000441178
0.000462637
0.000489088
0.000528672
0.000554525
0.0104975
0.00627843
0.00351665
0.00191369
0.0010659
0.000670388
0.000513515
0.000468645
0.0004754
0.000533629
0.000632555
0.000755025
0.000902163
0.00107756
0.00124861
0.00136322
0.00137614
0.00128976
0.00113512
0.000957368
0.000803052
0.000678978
0.000586133
0.000521578
0.000479687
0.000454572
0.000441141
0.000435327
0.000434019
0.000434928
0.000436442
0.00043746
0.000437276
0.00043557
0.000432423
0.000428238
0.000423537
0.000418765
0.000414202
0.000409963
0.000406069
0.000402497
0.000399218
0.000396211
0.000393466
0.000390987
0.000388796
0.00038693
0.000385465
0.00038449
0.000384188
0.000384709
0.000386469
0.000389642
0.000395233
0.000403156
0.000415985
0.000431944
0.000457726
0.000475157
0.0104818
0.00639571
0.00376181
0.00215409
0.00123745
0.000779484
0.000588833
0.000528702
0.000526813
0.000581493
0.000684999
0.000826378
0.00100769
0.00121594
0.00140005
0.00150604
0.00149767
0.00138727
0.00121099
0.00101793
0.000850873
0.000713979
0.000610134
0.000536714
0.000488161
0.000458395
0.000441955
0.000434329
0.000431965
0.00043223
0.000433326
0.000434113
0.000433898
0.000432339
0.000429437
0.000425511
0.000421033
0.000416443
0.000412027
0.000407911
0.000404115
0.00040061
0.000397357
0.00039432
0.000391476
0.000388808
0.000386313
0.000384001
0.000381907
0.000380075
0.000378625
0.000377637
0.000377427
0.000378055
0.000380353
0.000384073
0.000391451
0.000400756
0.000417622
0.000430262
0.0104863
0.00650168
0.00397809
0.00238979
0.00142435
0.000907447
0.000679239
0.000600776
0.000587917
0.000640149
0.000752867
0.000918156
0.00113418
0.00136895
0.00155743
0.00164784
0.00161376
0.00147738
0.00127978
0.00107528
0.00089595
0.000747443
0.000633392
0.000551499
0.000496399
0.000461968
0.000442495
0.000433083
0.000429739
0.000429434
0.000430121
0.000430602
0.000430245
0.000428749
0.000426084
0.00042249
0.000418373
0.000414136
0.00041006
0.000406274
0.000402796
0.000399597
0.00039663
0.000393856
0.000391241
0.000388759
0.000386394
0.000384136
0.000381999
0.000379994
0.000378201
0.000376651
0.000375588
0.000374993
0.000375579
0.000376975
0.000381197
0.000386534
0.000398001
0.000408094
0.010502
0.00659654
0.00416556
0.00261318
0.00162043
0.00105217
0.000784648
0.000685493
0.00065971
0.000709701
0.000835462
0.0010284
0.00127815
0.00153306
0.0017188
0.00178784
0.00172401
0.00155988
0.00134255
0.00112837
0.000937844
0.000779103
0.000655835
0.000566008
0.000504548
0.000465433
0.000442848
0.000431612
0.00042733
0.000426542
0.000426879
0.00042703
0.000426424
0.000424861
0.000422342
0.000419051
0.00041532
0.000411503
0.000407854
0.000404495
0.000401443
0.000398667
0.000396118
0.000393756
0.000391545
0.000389455
0.000387465
0.000385556
0.000383729
0.00038198
0.000380362
0.000378876
0.000377721
0.000376821
0.000376814
0.000377232
0.000379975
0.000383274
0.000391918
0.000400967
0.0105235
0.00668109
0.00432582
0.00281851
0.00181899
0.00121055
0.00090451
0.00078316
0.000743177
0.000789985
0.00093156
0.00115486
0.00143646
0.00170572
0.00188287
0.00192531
0.00182788
0.00163448
0.00140007
0.00117634
0.000976032
0.000808571
0.00067727
0.000580241
0.000512736
0.000468973
0.00044318
0.00043003
0.000424802
0.000423612
0.000423704
0.000423571
0.00042267
0.000420933
0.000418443
0.000415375
0.000411995
0.000408593
0.000405388
0.000402482
0.000399888
0.000397571
0.000395485
0.000393589
0.00039185
0.00039024
0.000388738
0.000387324
0.000385995
0.00038474
0.000383603
0.000382567
0.000381808
0.000381215
0.000381387
0.000381776
0.000384252
0.000386914
0.000394647
0.000403725
0.0105472
0.00675639
0.00446146
0.00300207
0.00201334
0.00137846
0.00103754
0.0008937
0.000839079
0.000880748
0.00103941
0.00129488
0.00160606
0.00188473
0.00204833
0.00205914
0.00192458
0.00170067
0.00145273
0.00121857
0.00100996
0.000835379
0.000697386
0.000594074
0.000521006
0.000472729
0.000443659
0.000428469
0.000422234
0.000420688
0.000420656
0.000420347
0.000419181
0.000417215
0.000414662
0.000411726
0.00040863
0.000405604
0.000402817
0.000400347
0.000398196
0.000396326
0.000394693
0.00039326
0.000391995
0.000390878
0.00038989
0.000389017
0.000388259
0.000387607
0.000387103
0.000386728
0.000386651
0.000386744
0.000387598
0.000388601
0.000391672
0.000394704
0.000402946
0.000412856
0.0105711
0.00682351
0.00457558
0.00316209
0.00219737
0.00155086
0.00118152
0.00101641
0.000947708
0.000982054
0.00115684
0.00144524
0.00178373
0.00206774
0.00221344
0.0021877
0.00201302
0.00176013
0.00149876
0.0012545
0.0010391
0.00085904
0.000715796
0.000607271
0.000529287
0.00047676
0.000444412
0.000427057
0.000419704
0.000417798
0.000417744
0.000417399
0.000416059
0.000413876
0.000411206
0.000408328
0.00040545
0.000402743
0.000400329
0.000398255
0.000396509
0.000395048
0.00039383
0.00039282
0.000391995
0.000391339
0.000390842
0.000390497
0.000390311
0.000390283
0.000390463
0.000390838
0.000391584
0.00039257
0.000394408
0.000396437
0.000400686
0.000404796
0.000414593
0.000425936
0.0105941
0.00688343
0.00467142
0.0032985
0.0023661
0.00172222
0.00133324
0.00114981
0.00106866
0.00109454
0.00128162
0.00160216
0.00196576
0.00225185
0.00237564
0.00230875
0.00209176
0.00181392
0.00153712
0.00128366
0.00106303
0.000879114
0.000732094
0.000619526
0.00053741
0.000481036
0.000445504
0.000425894
0.000417291
0.000414967
0.000414951
0.000414706
0.000413321
0.000410983
0.000408191
0.000405327
0.000402607
0.000400165
0.000398073
0.000396348
0.000394958
0.000393857
0.000393002
0.000392364
0.000391926
0.000391679
0.000391623
0.000391759
0.000392106
0.000392673
0.000393524
0.000394657
0.00039627
0.000398237
0.000401215
0.000404505
0.000410304
0.000415963
0.000428061
0.000441282
0.0106153
0.00693701
0.00475207
0.00341254
0.00251595
0.00188693
0.00148857
0.00129151
0.00120084
0.00121761
0.00141362
0.00176138
0.00214773
0.00243316
0.00253135
0.00241941
0.00216263
0.00185983
0.00156718
0.0013057
0.00108142
0.000895258
0.000745916
0.000630512
0.000545144
0.000485449
0.000446937
0.000425046
0.000415064
0.000412224
0.000412256
0.000412219
0.000410926
0.000408529
0.000405648
0.000402781
0.00040018
0.000397955
0.000396139
0.000394714
0.000393631
0.000392839
0.000392294
0.000391973
0.000391865
0.000391969
0.000392294
0.000392852
0.000393672
0.000394779
0.000396251
0.000398106
0.000400565
0.000403524
0.000407694
0.000412354
0.000419911
0.000427406
0.000442309
0.00045772
0.0106346
0.00698497
0.00482034
0.00350636
0.0026449
0.00203986
0.00164272
0.0014382
0.00134233
0.0013503
0.00155107
0.00192169
0.00232446
0.00260651
0.00267573
0.00251897
0.002225
0.00189631
0.00158846
0.00132039
0.00109409
0.000907249
0.000756985
0.00063993
0.000552233
0.000489834
0.000448652
0.000424536
0.00041308
0.000409605
0.000409647
0.000409884
0.000408805
0.000406458
0.000403547
0.000400685
0.000398182
0.000396139
0.000394557
0.000393388
0.000392568
0.000392037
0.000391753
0.000391697
0.000391865
0.000392264
0.00039291
0.000393827
0.000395056
0.000396637
0.000398665
0.000401179
0.000404431
0.000408338
0.000413684
0.000419735
0.000429138
0.000438617
0.00045663
0.000474424
0.0106517
0.00702793
0.00487866
0.00358264
0.00275246
0.00217677
0.0017906
0.00158575
0.00149024
0.00149126
0.0016918
0.00207914
0.00249312
0.0027675
0.00280575
0.00260652
0.00227646
0.00192235
0.00160065
0.00132766
0.00110099
0.000914989
0.000765124
0.000647543
0.000558435
0.000494004
0.000450548
0.000424346
0.000411372
0.000407149
0.000407127
0.000407662
0.000406889
0.000404696
0.000401823
0.000398992
0.00039658
0.000394694
0.000393312
0.000392364
0.000391767
0.000391456
0.00039139
0.000391554
0.000391949
0.000392591
0.000393504
0.000394723
0.000396299
0.000398288
0.000400802
0.000403903
0.000407873
0.00041266
0.000419123
0.000426525
0.000437773
0.000449281
0.000470545
0.000490819
0.0106668
0.0070664
0.00492902
0.00364425
0.00283943
0.00229468
0.00192732
0.00172945
0.00164075
0.00163858
0.00183396
0.00223028
0.00264983
0.00291282
0.00291944
0.00267993
0.00231521
0.00193727
0.00160365
0.00132757
0.00110221
0.000918504
0.000770269
0.000653202
0.000563552
0.00049777
0.000452498
0.000424427
0.000409951
0.000404885
0.000404709
0.000405524
0.000405119
0.000403167
0.000400402
0.000397636
0.000395316
0.000393571
0.000392364
0.000391605
0.000391199
0.000391074
0.000391189
0.000391534
0.000392117
0.000392958
0.000394092
0.000395561
0.000397429
0.000399763
0.000402697
0.00040631
0.00041092
0.000416504
0.000423999
0.000432676
0.000445705
0.00045921
0.000483738
0.000506505
0.0106799
0.00710082
0.00497303
0.00369399
0.00290761
0.00239205
0.0020486
0.00186436
0.00178914
0.00178954
0.00197596
0.00237245
0.00279129
0.0030395
0.00301465
0.00273714
0.00233996
0.00194066
0.00159749
0.00132033
0.00109795
0.000917927
0.000772457
0.000656841
0.000567447
0.000500972
0.000454367
0.000424705
0.000408804
0.000402836
0.000402412
0.000403462
0.000403451
0.000401806
0.000399211
0.000396543
0.000394326
0.000392711
0.00039166
0.000391065
0.000390822
0.000390854
0.000391121
0.000391616
0.000392352
0.000393357
0.000394673
0.000396348
0.000398459
0.000401086
0.000404376
0.000408433
0.000413604
0.000419898
0.000428329
0.000438181
0.000452887
0.000468302
0.000496006
0.000521215
0.0106911
0.00713156
0.00501194
0.00373443
0.00295944
0.00246871
0.00215121
0.00198572
0.00193015
0.00194046
0.00211628
0.00250389
0.00291504
0.00314515
0.00308937
0.00277645
0.00234985
0.00193237
0.00158242
0.00130631
0.00108853
0.000913488
0.000771812
0.000658479
0.000570045
0.000503485
0.000456031
0.000425094
0.000407899
0.00040101
0.000400251
0.000401475
0.000401856
0.000400562
0.000398185
0.00039565
0.000393544
0.000392055
0.000391143
0.000390692
0.00039059
0.000390755
0.00039115
0.000391769
0.000392632
0.000393772
0.000395236
0.000397083
0.000399396
0.000402268
0.000405861
0.000410298
0.000415956
0.000422874
0.00043214
0.000443059
0.000459311
0.000476516
0.000507231
0.000534781
0.0107008
0.00715897
0.00504671
0.00376781
0.00299771
0.00252574
0.00223322
0.00208945
0.00205833
0.00208665
0.00225314
0.00262364
0.00301959
0.00322816
0.00314207
0.00279673
0.00234447
0.00191257
0.00155889
0.001286
0.00107438
0.000905496
0.000768531
0.000658206
0.00057134
0.00050523
0.000457385
0.000425508
0.000407192
0.000399404
0.000398243
0.000399568
0.000400319
0.000399396
0.000397275
0.000394898
0.000392915
0.000391547
0.000390762
0.000390439
0.000390459
0.000390739
0.000391241
0.000391964
0.000392932
0.000394183
0.00039577
0.000397759
0.000400241
0.000403318
0.000407167
0.000411927
0.000418005
0.000425467
0.00043547
0.000447341
0.000464995
0.000483846
0.000517358
0.00054711
0.010709
0.00718337
0.00507805
0.00379597
0.00302525
0.00256519
0.0022941
0.00217251
0.00216859
0.00222264
0.00238417
0.00273128
0.00310445
0.00328783
0.00317198
0.00279751
0.00232385
0.00188168
0.00152751
0.00126003
0.00105602
0.000894328
0.000762868
0.000656166
0.000571377
0.000506176
0.000458353
0.000425867
0.000406633
0.000398002
0.000396395
0.000397751
0.000398833
0.000398286
0.000396443
0.000394245
0.000392392
0.000391142
0.000390474
0.000390265
0.000390393
0.000390771
0.000391365
0.000392176
0.000393231
0.000394574
0.000396263
0.000398369
0.000400991
0.00040424
0.000408305
0.000413341
0.000419777
0.000427709
0.000438355
0.000451068
0.000469975
0.000490317
0.000526377
0.000558171
0.0107159
0.00720504
0.00510647
0.00382035
0.00304474
0.00258972
0.00233466
0.00223318
0.00225668
0.00234249
0.00250604
0.00282652
0.00317003
0.00332445
0.00317913
0.00277893
0.00228846
0.00184041
0.00148907
0.00122913
0.00103403
0.000880413
0.000755115
0.000652548
0.000570249
0.000506331
0.000458888
0.000426104
0.000406167
0.000396783
0.000394709
0.000396032
0.000397397
0.000397215
0.000395662
0.000393657
0.00039194
0.000390806
0.000390246
0.00039014
0.000390362
0.000390826
0.000391498
0.000392383
0.000393511
0.00039493
0.000396705
0.000398909
0.000401648
0.000405041
0.000409288
0.000414556
0.000421298
0.000429633
0.000440835
0.000454285
0.000474297
0.000495971
0.000534317
0.000567976
0.0107217
0.00722426
0.00513238
0.00384205
0.00305853
0.00260233
0.00235682
0.00227121
0.00231965
0.0024405
0.00261447
0.00290866
0.0032172
0.00333908
0.00316434
0.00274173
0.00223912
0.00178969
0.00144449
0.00119411
0.00100905
0.000864214
0.000745597
0.000647565
0.000568081
0.000505741
0.00045897
0.000426169
0.000405747
0.00039572
0.000393183
0.000394418
0.000396015
0.000396176
0.000394914
0.00039311
0.000391533
0.000390511
0.000390053
0.00039004
0.000390345
0.000390885
0.000391625
0.000392572
0.000393761
0.000395245
0.00039709
0.000399376
0.000402213
0.000405727
0.000410126
0.00041559
0.000422591
0.000431271
0.000442951
0.000457038
0.000478016
0.000500866
0.000541231
0.000576572
0.0107266
0.00724128
0.00515605
0.00386185
0.00306859
0.00260603
0.0023633
0.00228774
0.00235615
0.00251176
0.00270435
0.00297621
0.00324685
0.00333322
0.00312892
0.00268706
0.00217698
0.00173067
0.00139481
0.00115583
0.00098175
0.000846218
0.000734652
0.00064145
0.00056502
0.000504477
0.00045861
0.000426029
0.000405327
0.000394782
0.000391807
0.000392914
0.000394689
0.000395165
0.000394189
0.000392589
0.000391153
0.000390241
0.000389877
0.000389948
0.000390329
0.000390935
0.000391733
0.000392734
0.000393976
0.000395513
0.000397417
0.000399771
0.000402691
0.000406305
0.000410832
0.000416462
0.000423681
0.000432653
0.00044474
0.000459376
0.000481187
0.000505064
0.000547189
0.000584032
0.0107306
0.00725634
0.0051777
0.00388031
0.00307647
0.0026036
0.00235733
0.00228512
0.00236657
0.0025529
0.00277028
0.00302658
0.0032593
0.00330836
0.00307439
0.00261633
0.00210343
0.00166465
0.00134115
0.00111517
0.000952811
0.000826919
0.000722626
0.000634442
0.000561227
0.00050263
0.000457836
0.000425669
0.000404874
0.00039394
0.000390572
0.000391521
0.000393426
0.000394182
0.00039348
0.000392082
0.000390787
0.000389981
0.000389707
0.000389856
0.000390304
0.000390968
0.000391818
0.000392865
0.000394151
0.000395734
0.000397688
0.000400099
0.000403086
0.000406786
0.000411419
0.000417188
0.000424591
0.000433809
0.000446241
0.000461345
0.000483869
0.000508634
0.000552275
0.000590441
0.010734
0.00726965
0.00519752
0.00389774
0.00308332
0.00259748
0.00234223
0.00226655
0.0023529
0.00256252
0.0028073
0.00305616
0.00325393
0.00326544
0.0030021
0.00253102
0.00201998
0.00159304
0.00128466
0.00107305
0.000922901
0.0008068
0.000709858
0.000626778
0.000556866
0.000500305
0.000456695
0.000425088
0.000404361
0.000393167
0.00038946
0.000390239
0.000392229
0.000393229
0.000392784
0.000391583
0.000390427
0.000389725
0.000389536
0.000389756
0.000390266
0.000390983
0.000391878
0.000392965
0.000394289
0.000395911
0.000397905
0.000400364
0.000403409
0.000407178
0.000411901
0.000417785
0.000425342
0.000434767
0.00044749
0.00046299
0.000486119
0.000511644
0.000556575
0.000595896
0.0107367
0.00728143
0.00521566
0.00391437
0.00308993
0.00258966
0.00232118
0.00223575
0.00231849
0.00254142
0.00281177
0.00306075
0.00322897
0.00320456
0.00291341
0.00243258
0.00192827
0.0015173
0.00122651
0.00103031
0.000892659
0.000786325
0.000696677
0.00061869
0.000552099
0.00049761
0.000455245
0.000424301
0.000403773
0.000392438
0.000388458
0.000389064
0.000391102
0.000392308
0.0003921
0.000391088
0.000390068
0.000389468
0.000389359
0.000389647
0.000390213
0.000390978
0.000391913
0.000393036
0.000394392
0.000396046
0.000398076
0.000400574
0.000403666
0.000407494
0.000412291
0.000418271
0.000425956
0.000435555
0.000448521
0.000464355
0.000487992
0.000514161
0.000560178
0.000600496
0.010739
0.00729185
0.00523225
0.00393028
0.00309682
0.00258166
0.00229702
0.00219656
0.0022676
0.00249248
0.00278211
0.00303635
0.00318173
0.00312488
0.00280872
0.00232239
0.00183
0.00143895
0.00116784
0.000987801
0.000862681
0.000765922
0.000683388
0.000610393
0.000547083
0.000494654
0.000453552
0.00042333
0.0004031
0.000391731
0.000387547
0.000387992
0.000390045
0.000391422
0.000391428
0.000390596
0.000389708
0.000389207
0.000389176
0.000389527
0.000390146
0.000390954
0.000391925
0.000393079
0.000394464
0.000396145
0.000398204
0.000400736
0.000403867
0.000407743
0.000412602
0.000418662
0.000426454
0.000436196
0.000449365
0.000465477
0.000489539
0.00051625
0.00056317
0.000604343
0.0107409
0.00730109
0.00524742
0.00394553
0.00310424
0.00257456
0.00227209
0.00215261
0.00220499
0.00242033
0.0027193
0.00298011
0.00310927
0.00302493
0.00268815
0.00220192
0.00172699
0.00135953
0.00110975
0.000946269
0.0008335
0.000745977
0.000670268
0.000602086
0.000541962
0.000491541
0.000451683
0.000422208
0.000402345
0.000391031
0.000386712
0.000387014
0.00038906
0.000390574
0.00039077
0.000390107
0.000389346
0.000388941
0.000388985
0.000389397
0.000390065
0.000390913
0.000391918
0.0003931
0.000394509
0.000396214
0.000398298
0.000400857
0.000404021
0.000407937
0.000412846
0.000418973
0.000426852
0.000436714
0.000450051
0.000466394
0.000490809
0.000517971
0.000565633
0.00060753
0.0107424
0.00730929
0.0052613
0.00396012
0.0031123
0.00256902
0.00224818
0.00210711
0.00213538
0.00233075
0.0026269
0.00289132
0.00300928
0.0029033
0.00255208
0.00207289
0.0016212
0.00128057
0.00105327
0.000906395
0.000805584
0.000726826
0.000657561
0.000593948
0.000536867
0.000488369
0.000449708
0.000420971
0.000401513
0.000390326
0.000385936
0.000386122
0.000388146
0.000389764
0.000390126
0.000389619
0.000388982
0.00038867
0.000388787
0.000389258
0.000389973
0.000390858
0.000391893
0.000393101
0.000394532
0.000396258
0.000398363
0.000400945
0.000404135
0.000408085
0.000413036
0.000419217
0.000427169
0.000437128
0.000450603
0.000467138
0.000491842
0.000519378
0.000567644
0.000610148
0.0107436
0.00731659
0.00527399
0.00397405
0.00312097
0.00256543
0.00222656
0.00206266
0.00206313
0.00223002
0.00251069
0.00277195
0.0028812
0.00275957
0.0024017
0.00193756
0.00151475
0.00120355
0.000999348
0.000868763
0.000779321
0.000708748
0.000645476
0.000586132
0.000531914
0.000485227
0.000447689
0.000419657
0.000400617
0.000389607
0.000385206
0.000385306
0.0003873
0.000388996
0.000389499
0.000389135
0.000388615
0.000388394
0.000388583
0.000389111
0.000389871
0.000390792
0.000391856
0.000393086
0.000394537
0.000396281
0.000398404
0.000401005
0.000404218
0.000408195
0.00041318
0.000419406
0.000427417
0.000437457
0.000451045
0.000467737
0.000492678
0.000520519
0.000569272
0.000612281
0.0107446
0.00732311
0.00528561
0.0039873
0.00313016
0.00256387
0.00220804
0.00202122
0.00199196
0.00212423
0.00237792
0.00262686
0.00272699
0.00259518
0.00223951
0.00179877
0.00140989
0.00112991
0.000948793
0.000833849
0.000755018
0.000691964
0.00063418
0.000578766
0.000527201
0.000482193
0.000445687
0.000418305
0.000399674
0.000388871
0.000384508
0.000384555
0.000386518
0.000388268
0.000388889
0.000388654
0.000388245
0.000388114
0.000388375
0.000388958
0.000389761
0.000390717
0.000391807
0.000393059
0.000394529
0.000396288
0.000398426
0.000401044
0.000404275
0.000408275
0.000413288
0.00041955
0.000427609
0.000437716
0.000451396
0.000468216
0.000493349
0.000521438
0.000570577
0.000614004
0.0107454
0.00732895
0.00529627
0.00399988
0.00313973
0.00256429
0.00219298
0.00198412
0.00192475
0.00201886
0.00223643
0.0024632
0.00255149
0.00241398
0.00206953
0.00166002
0.00130894
0.00106094
0.000902277
0.000802014
0.000732898
0.000676638
0.000623802
0.000571953
0.00052281
0.000479331
0.000443756
0.000416954
0.0003987
0.000388119
0.000383832
0.000383858
0.000385795
0.00038758
0.000388297
0.000388178
0.000387875
0.000387831
0.000388162
0.0003888
0.000389646
0.000390635
0.000391751
0.000393023
0.000394509
0.000396283
0.000398435
0.000401066
0.000404313
0.000408331
0.000413367
0.000419658
0.000427757
0.000437917
0.000451672
0.000468596
0.000493884
0.000522174
0.000571616
0.000615382
0.010746
0.00733421
0.00530605
0.0040118
0.00314956
0.0025665
0.00218148
0.00195213
0.00186356
0.00191831
0.00209371
0.00228957
0.00236204
0.00222221
0.00189715
0.00152511
0.00121409
0.000997717
0.000860301
0.000773496
0.000713101
0.000662875
0.000614434
0.000565771
0.000518805
0.000476697
0.000441939
0.000415639
0.000397717
0.000387353
0.000383169
0.000383204
0.000385123
0.000386932
0.000387725
0.000387707
0.000387503
0.000387546
0.000387946
0.000388639
0.000389527
0.000390548
0.000391689
0.00039298
0.000394481
0.000396269
0.000398432
0.000401076
0.000404336
0.000408368
0.000413423
0.000419739
0.000427869
0.000438073
0.000451888
0.000468896
0.000494307
0.000522758
0.000572434
0.000616476
0.0107465
0.00733897
0.00531505
0.00402305
0.0031595
0.00257026
0.00217338
0.00192551
0.00180963
0.00182584
0.00195622
0.0021148
0.0021675
0.00202778
0.00172848
0.00139786
0.00112726
0.000941071
0.000823177
0.000748414
0.000695686
0.000650728
0.000606129
0.000560271
0.000515233
0.000474334
0.000440277
0.000414389
0.000396744
0.000386578
0.000382511
0.000382583
0.000384497
0.000386319
0.000387172
0.000387243
0.000387132
0.000387258
0.000387728
0.000388476
0.000389406
0.000390458
0.000391622
0.000392932
0.000394448
0.000396248
0.000398422
0.000401076
0.000404346
0.000408392
0.000413462
0.000419797
0.000427953
0.000438192
0.000452056
0.00046913
0.00049464
0.000523217
0.000573073
0.000617335
0.0107469
0.00734329
0.00532335
0.00403368
0.00316942
0.0025753
0.00216837
0.0019042
0.00176353
0.00174353
0.00182892
0.00194686
0.00197698