/*--------------------------------*- C++ -*----------------------------------*\
| =========                 |                                                 |
| \\      /  F ield         | OpenFOAM: The Open Source CFD Toolbox           |
|  \\    /   O peration     | Version:  2.4.0                                 |
|   \\  /    A nd           | Web:      www.OpenFOAM.org                      |
|    \\/     M anipulation  |                                                 |
\*---------------------------------------------------------------------------*/
FoamFile
{
    version     2.0;
    format      ascii;
    class       volScalarField;
    location    "0.04";
    object      p;
}
// * * * * * * * * * * * * * * * * * * * * * * * * * * * * * * * * * * * * * //

dimensions      [0 2 -2 0 0 0 0];

internalField   nonuniform List<scalar> 
6000
(
0.104954
0.393847
0.483053
0.551147
0.588939
0.616122
0.635725
0.650541
0.661752
0.670108
0.676387
0.681082
0.684519
0.686954
0.688579
0.689536
0.689935
0.689859
0.689375
0.688535
0.687378
0.685937
0.684235
0.682292
0.680122
0.677733
0.675134
0.672325
0.669308
0.666079
0.662633
0.658963
0.655057
0.650901
0.646478
0.641768
0.636745
0.631381
0.62564
0.619482
0.612859
0.605713
0.597976
0.589566
0.580386
0.570318
0.559217
0.546909
0.533171
0.51774
0.500233
0.480347
0.457015
0.431013
0.397004
0.364486
0.30595
0.274457
0.144668
0.162215
0.119597
0.390354
0.481831
0.550395
0.58856
0.615874
0.635558
0.650428
0.661678
0.670063
0.676363
0.681072
0.684519
0.686962
0.688592
0.689552
0.689952
0.689877
0.689392
0.68855
0.687391
0.685946
0.684241
0.682295
0.68012
0.677726
0.675121
0.672307
0.669284
0.666049
0.662599
0.658918
0.655004
0.65084
0.646408
0.641688
0.636655
0.631279
0.625527
0.619356
0.612718
0.605556
0.597802
0.589373
0.580172
0.57008
0.558954
0.546615
0.532843
0.517371
0.499818
0.479875
0.456486
0.430386
0.396328
0.363582
0.305108
0.273002
0.143679
0.159501
0.133752
0.386559
0.480574
0.549594
0.588147
0.615599
0.63536
0.650282
0.661572
0.669984
0.676303
0.681026
0.684483
0.686932
0.688565
0.689528
0.689928
0.689852
0.689366
0.688522
0.68736
0.685912
0.684203
0.682252
0.680072
0.677674
0.675063
0.672243
0.669213
0.665972
0.662515
0.658827
0.654905
0.650732
0.646291
0.641562
0.636519
0.631133
0.625369
0.619186
0.612535
0.605359
0.597589
0.589142
0.579922
0.569809
0.558657
0.546291
0.532488
0.51698
0.499384
0.47939
0.455944
0.429764
0.395639
0.362735
0.304221
0.271701
0.142554
0.157119
0.14654
0.3829
0.479456
0.548797
0.58772
0.615311
0.635141
0.650108
0.661432
0.669869
0.676205
0.68094
0.684405
0.686859
0.688497
0.689461
0.689862
0.689786
0.689299
0.688452
0.687288
0.685837
0.684125
0.682169
0.679985
0.677582
0.674966
0.672141
0.669105
0.665857
0.662392
0.658699
0.654769
0.650589
0.64614
0.641401
0.636349
0.630952
0.625177
0.618982
0.612318
0.605127
0.597342
0.588878
0.579639
0.569505
0.558331
0.545938
0.532105
0.516563
0.498929
0.478889
0.455391
0.429138
0.39495
0.361909
0.303348
0.27048
0.141462
0.155133
0.158838
0.379667
0.478492
0.547979
0.587261
0.615009
0.634906
0.649912
0.661269
0.669729
0.676081
0.680827
0.684301
0.686761
0.688402
0.689369
0.689771
0.689695
0.689207
0.68836
0.687194
0.68574
0.684025
0.682067
0.679879
0.677472
0.674851
0.67202
0.66898
0.665726
0.662253
0.658554
0.654617
0.650429
0.645971
0.641224
0.636161
0.630754
0.624967
0.61876
0.612082
0.604876
0.597074
0.588593
0.579334
0.569178
0.557979
0.54556
0.531696
0.51612
0.498447
0.47836
0.454811
0.428487
0.394239
0.361065
0.302467
0.26927
0.140408
0.153392
0.171063
0.377027
0.477696
0.547143
0.586771
0.614698
0.634664
0.649708
0.661095
0.669576
0.675944
0.680702
0.684184
0.68665
0.688296
0.689265
0.689669
0.689594
0.689106
0.688258
0.68709
0.685636
0.683918
0.681957
0.679766
0.677355
0.674731
0.671895
0.668849
0.66559
0.662111
0.658407
0.654462
0.650266
0.6458
0.641044
0.635971
0.630553
0.624755
0.618534
0.611843
0.604622
0.596803
0.588303
0.579023
0.568844
0.55762
0.545171
0.531276
0.515663
0.497948
0.477812
0.454211
0.427815
0.393507
0.360201
0.301569
0.268054
0.139386
0.151808
0.183204
0.375033
0.477084
0.546317
0.586266
0.614387
0.634425
0.649503
0.660918
0.66942
0.675802
0.680571
0.684061
0.686534
0.688184
0.689156
0.689563
0.689488
0.689001
0.688153
0.686985
0.685529
0.683809
0.681846
0.679652
0.677238
0.67461
0.67177
0.66872
0.665456
0.661971
0.65826
0.654309
0.650106
0.645632
0.640866
0.635784
0.630356
0.624546
0.618313
0.611608
0.604372
0.596536
0.588017
0.578717
0.568515
0.557264
0.544787
0.530858
0.515207
0.49745
0.477264
0.453607
0.427138
0.392767
0.359328
0.300662
0.266842
0.138394
0.150339
0.195161
0.373661
0.476663
0.545539
0.585769
0.614086
0.634192
0.649301
0.660742
0.669262
0.675658
0.680438
0.683937
0.686415
0.68807
0.689046
0.689455
0.689382
0.688896
0.688048
0.686879
0.685422
0.683701
0.681736
0.67954
0.677122
0.674491
0.671647
0.668593
0.665323
0.661833
0.658116
0.654159
0.649948
0.645467
0.640693
0.635601
0.630163
0.624342
0.618097
0.611378
0.604127
0.596275
0.587739
0.578418
0.568194
0.556918
0.544411
0.53045
0.514762
0.496962
0.476726
0.453013
0.426469
0.392034
0.358461
0.299759
0.265644
0.137437
0.148958
0.206863
0.372854
0.47643
0.544834
0.585296
0.613799
0.633968
0.649106
0.66057
0.669107
0.675516
0.680306
0.683812
0.686298
0.687957
0.688937
0.689348
0.689277
0.688792
0.687944
0.686775
0.685317
0.683595
0.681628
0.679429
0.677009
0.674374
0.671527
0.668468
0.665193
0.661698
0.657975
0.654012
0.649794
0.645305
0.640523
0.635422
0.629974
0.624142
0.617885
0.611154
0.603888
0.596021
0.587467
0.578127
0.56788
0.55658
0.544046
0.530053
0.514329
0.496487
0.476201
0.452434
0.425816
0.391317
0.357612
0.298874
0.264471
0.13652
0.147645
0.218262
0.372542
0.476371
0.544221
0.584861
0.613532
0.633756
0.648918
0.660403
0.668956
0.675377
0.680177
0.683691
0.686182
0.687847
0.68883
0.689244
0.689175
0.68869
0.687843
0.686674
0.685215
0.683491
0.681522
0.679321
0.676898
0.67426
0.671409
0.668345
0.665066
0.661566
0.657838
0.653868
0.649643
0.645147
0.640356
0.635247
0.629789
0.623947
0.617678
0.610934
0.603655
0.595772
0.587201
0.577842
0.567574
0.55625
0.543689
0.529665
0.513906
0.496024
0.475691
0.451871
0.425181
0.39062
0.356786
0.298012
0.26333
0.135649
0.146385
0.229331
0.372664
0.476472
0.543708
0.584472
0.613287
0.633559
0.648742
0.660245
0.668811
0.675243
0.680052
0.683573
0.68607
0.687739
0.688726
0.689142
0.689075
0.688591
0.687744
0.686574
0.685115
0.68339
0.681418
0.679215
0.67679
0.674148
0.671293
0.668226
0.664942
0.661437
0.657703
0.653727
0.649496
0.644992
0.640194
0.635076
0.629608
0.623756
0.617476
0.610719
0.603426
0.595528
0.58694
0.577563
0.567274
0.555927
0.543339
0.529286
0.513493
0.495572
0.475193
0.451322
0.424562
0.389943
0.355982
0.297179
0.262223
0.134827
0.14517
0.240054
0.373165
0.476722
0.543298
0.584133
0.61307
0.633379
0.648578
0.660096
0.668675
0.675115
0.679932
0.68346
0.685962
0.687635
0.688624
0.689043
0.688977
0.688494
0.687647
0.686477
0.685017
0.68329
0.681317
0.679112
0.676683
0.674039
0.671181
0.668109
0.664821
0.661311
0.657571
0.653589
0.649352
0.644841
0.640035
0.634908
0.629432
0.623569
0.617278
0.610509
0.603203
0.59529
0.586686
0.57729
0.566981
0.555611
0.542998
0.528915
0.513089
0.49513
0.474706
0.450786
0.423959
0.389283
0.355199
0.296371
0.26115
0.134054
0.143994
0.250429
0.374001
0.47711
0.542993
0.583848
0.612882
0.633219
0.648428
0.659959
0.668546
0.674995
0.679818
0.683351
0.685858
0.687534
0.688526
0.688947
0.688882
0.6884
0.687553
0.686383
0.684921
0.683194
0.681219
0.679011
0.67658
0.673932
0.67107
0.667995
0.664703
0.661188
0.657443
0.653455
0.649211
0.644693
0.639879
0.634745
0.629259
0.623387
0.617085
0.610304
0.602985
0.595058
0.586437
0.577024
0.566695
0.555302
0.542664
0.528553
0.512694
0.494698
0.474231
0.450263
0.423369
0.38864
0.354437
0.295588
0.260109
0.133325
0.142851
0.260461
0.375137
0.477626
0.54279
0.58362
0.612725
0.633078
0.648293
0.659832
0.668426
0.67488
0.679709
0.683247
0.685757
0.687436
0.688431
0.688853
0.68879
0.688308
0.687461
0.686291
0.684828
0.683099
0.681122
0.678912
0.676479
0.673828
0.670963
0.667884
0.664587
0.661067
0.657317
0.653324
0.649074
0.644549
0.639728
0.634585
0.629091
0.623209
0.616896
0.610104
0.602772
0.594831
0.586195
0.576764
0.566416
0.555001
0.542338
0.5282
0.512309
0.494277
0.473766
0.449751
0.422794
0.388012
0.353692
0.294827
0.259099
0.132636
0.141734
0.270161
0.376543
0.478264
0.542689
0.583449
0.6126
0.632958
0.648173
0.659716
0.668315
0.674773
0.679606
0.683147
0.685661
0.687342
0.688339
0.688763
0.6887
0.688219
0.687372
0.686201
0.684738
0.683007
0.681029
0.678816
0.67638
0.673727
0.670858
0.667775
0.664474
0.66095
0.657195
0.653196
0.64894
0.644408
0.63958
0.63443
0.628927
0.623035
0.616713
0.609909
0.602565
0.594609
0.585958
0.57651
0.566143
0.554707
0.54202
0.527854
0.511933
0.493865
0.473313
0.449252
0.422232
0.3874
0.352967
0.294087
0.258116
0.131982
0.140638
0.279541
0.378194
0.479018
0.542685
0.583334
0.612507
0.63286
0.648068
0.659612
0.668213
0.674672
0.679508
0.683052
0.685568
0.687252
0.68825
0.688675
0.688613
0.688132
0.687285
0.686114
0.684649
0.682917
0.680937
0.678723
0.676284
0.673628
0.670756
0.667669
0.664365
0.660836
0.657076
0.653072
0.648809
0.644272
0.639436
0.634278
0.628767
0.622866
0.616534
0.609719
0.602362
0.594393
0.585727
0.576263
0.565877
0.554421
0.54171
0.527518
0.511566
0.493464
0.47287
0.448766
0.421684
0.386803
0.352259
0.293367
0.257161
0.13136
0.139561
0.288615
0.380067
0.479882
0.542776
0.583276
0.612448
0.632783
0.647979
0.659519
0.668119
0.674579
0.679416
0.682962
0.685479
0.687165
0.688164
0.68859
0.688529
0.688048
0.687201
0.686029
0.684563
0.68283
0.680848
0.678632
0.676191
0.673532
0.670657
0.667566
0.664258
0.660725
0.65696
0.65295
0.648683
0.644138
0.639297
0.634131
0.628611
0.622702
0.616359
0.609534
0.602165
0.594183
0.585503
0.576022
0.565618
0.554142
0.541408
0.52719
0.511208
0.493073
0.472439
0.448292
0.42115
0.386221
0.351569
0.292669
0.256233
0.130768
0.138502
0.297398
0.382143
0.480851
0.542959
0.583274
0.612421
0.632728
0.647904
0.659438
0.668034
0.674492
0.679329
0.682876
0.685395
0.687081
0.688082
0.688508
0.688447
0.687967
0.687119
0.685946
0.68448
0.682746
0.680762
0.678544
0.6761
0.673438
0.67056
0.667466
0.664154
0.660617
0.656847
0.652832
0.648559
0.644009
0.63916
0.633988
0.62846
0.622542
0.61619
0.609354
0.601974
0.593979
0.585284
0.575788
0.565366
0.55387
0.541115
0.526871
0.51086
0.492692
0.47202
0.44783
0.42063
0.385656
0.350898
0.29199
0.255331
0.130203
0.137459
0.305905
0.384403
0.48192
0.54323
0.583326
0.612427
0.632694
0.647845
0.659367
0.667957
0.674412
0.679248
0.682795
0.685314
0.687001
0.688002
0.688429
0.688369
0.687888
0.68704
0.685867
0.684399
0.682663
0.680678
0.678458
0.676012
0.673347
0.670466
0.667369
0.664053
0.660512
0.656737
0.652718
0.648439
0.643883
0.639028
0.633848
0.628313
0.622386
0.616025
0.609179
0.601787
0.59378
0.585072
0.57556
0.565122
0.553606
0.540829
0.526561
0.510522
0.492322
0.471612
0.447381
0.420125
0.385106
0.350246
0.291332
0.254455
0.129665
0.136434
0.314148
0.386831
0.483084
0.543585
0.583432
0.612465
0.632683
0.647802
0.659309
0.667889
0.674339
0.679172
0.682718
0.685237
0.686925
0.687926
0.688353
0.688293
0.687812
0.686964
0.685789
0.684321
0.682584
0.680597
0.678375
0.675926
0.673259
0.670375
0.667275
0.663955
0.66041
0.656631
0.652607
0.648323
0.643761
0.6389
0.633713
0.62817
0.622235
0.615865
0.609009
0.601607
0.593587
0.584866
0.575339
0.564884
0.553349
0.540551
0.526259
0.510194
0.491962
0.471216
0.446945
0.419633
0.384571
0.349612
0.290695
0.253606
0.129152
0.135427
0.322141
0.389412
0.484337
0.544022
0.58359
0.612536
0.632693
0.647774
0.659261
0.66783
0.674273
0.679102
0.682647
0.685165
0.686852
0.687853
0.68828
0.68822
0.687738
0.68689
0.685715
0.684245
0.682507
0.680518
0.678294
0.675844
0.673174
0.670287
0.667183
0.66386
0.660311
0.656528
0.652499
0.64821
0.643643
0.638775
0.633582
0.628032
0.622089
0.61571
0.608844
0.601431
0.5934
0.584666
0.575125
0.564653
0.553101
0.540282
0.525967
0.509875
0.491613
0.470831
0.446522
0.419157
0.384053
0.348996
0.290077
0.252783
0.128663
0.134439
0.329896
0.39213
0.485676
0.544536
0.583799
0.612639
0.632724
0.647762
0.659225
0.66778
0.674214
0.679038
0.68258
0.685096
0.686783
0.687783
0.68821
0.688149
0.687668
0.686818
0.685642
0.684172
0.682432
0.680442
0.678216
0.675763
0.673091
0.670202
0.667095
0.663768
0.660215
0.656428
0.652395
0.648101
0.643528
0.638655
0.633455
0.627898
0.621947
0.61556
0.608685
0.601262
0.593219
0.584472
0.574917
0.56443
0.55286
0.540021
0.525684
0.509566
0.491275
0.470458
0.446112
0.418694
0.383551
0.3484
0.28948
0.251987
0.128198
0.133472
0.337426
0.394972
0.487096
0.545125
0.584057
0.612773
0.632777
0.647764
0.6592
0.667738
0.674161
0.678979
0.682517
0.685032
0.686717
0.687717
0.688143
0.688082
0.6876
0.68675
0.685573
0.684101
0.68236
0.680368
0.67814
0.675686
0.673011
0.670119
0.667009
0.663679
0.660123
0.656332
0.652294
0.647995
0.643417
0.638538
0.633332
0.627768
0.62181
0.615414
0.60853
0.601097
0.593044
0.584284
0.574716
0.564214
0.552627
0.539769
0.525409
0.509267
0.490948
0.470097
0.445715
0.418247
0.383065
0.347823
0.288904
0.251217
0.127755
0.132527
0.344741
0.397925
0.488591
0.545784
0.584364
0.612937
0.632852
0.647782
0.659187
0.667705
0.674116
0.678926
0.682459
0.684971
0.686654
0.687653
0.688079
0.688017
0.687534
0.686683
0.685506
0.684033
0.682291
0.680297
0.678068
0.675611
0.672934
0.670039
0.666927
0.663593
0.660034
0.656239
0.652197
0.647893
0.64331
0.638426
0.633214
0.627643
0.621678
0.615274
0.608381
0.600939
0.592875
0.584103
0.574522
0.564005
0.552401
0.539525
0.525145
0.508978
0.490632
0.469749
0.445331
0.417814
0.382596
0.347265
0.288348
0.250473
0.127334
0.131604
0.351852
0.400976
0.490157
0.546511
0.584717
0.613133
0.632947
0.647815
0.659185
0.667681
0.674077
0.678879
0.682406
0.684915
0.686596
0.687593
0.688018
0.687955
0.687471
0.68662
0.685441
0.683967
0.682224
0.680229
0.677997
0.675539
0.672859
0.669962
0.666847
0.663511
0.659948
0.656149
0.652103
0.647795
0.643207
0.638317
0.633099
0.627523
0.62155
0.615139
0.608238
0.600786
0.592711
0.583929
0.574334
0.563803
0.552184
0.53929
0.524889
0.508699
0.490326
0.469412
0.444961
0.417397
0.382143
0.346726
0.287813
0.249756
0.126935
0.130705
0.358768
0.404115
0.491789
0.547302
0.585115
0.613357
0.633063
0.647863
0.659193
0.667665
0.674045
0.678836
0.682358
0.684862
0.686541
0.687536
0.68796
0.687896
0.687411
0.686559
0.685379
0.683904
0.682159
0.680163
0.67793
0.675469
0.672788
0.669888
0.66677
0.663431
0.659865
0.656062
0.652012
0.6477
0.643108
0.638213
0.632989
0.627406
0.621427
0.615009
0.608099
0.600638
0.592554
0.58376
0.574154
0.563609
0.551974
0.539063
0.524642
0.50843
0.490032
0.469087
0.444604
0.416994
0.381707
0.346207
0.287298
0.249065
0.126555
0.129832
0.365501
0.407331
0.493483
0.548153
0.585557
0.613611
0.6332
0.647926
0.659213
0.667657
0.67402
0.6788
0.682314
0.684814
0.686489
0.687483
0.687905
0.68784
0.687354
0.686501
0.68532
0.683844
0.682098
0.6801
0.677865
0.675403
0.672719
0.669817
0.666697
0.663354
0.659785
0.655979
0.651926
0.647609
0.643012
0.638112
0.632884
0.627295
0.621309
0.614883
0.607966
0.600497
0.592403
0.583599
0.57398
0.563422
0.551773
0.538845
0.524405
0.508171
0.489749
0.468775
0.44426
0.416607
0.381287
0.345708
0.286803
0.248401
0.126196
0.128984
0.372057
0.410613
0.495234
0.549062
0.58604
0.613893
0.633356
0.648003
0.659243
0.667658
0.674001
0.678769
0.682275
0.684769
0.686441
0.687432
0.687852
0.687786
0.6873
0.686445
0.685263
0.683786
0.682038
0.680039
0.677803
0.675339
0.672653
0.669749
0.666626
0.663281
0.659708
0.655899
0.651842
0.647522
0.642921
0.638016
0.632782
0.627187
0.621196
0.614763
0.607838
0.600361
0.592258
0.583443
0.573813
0.563243
0.551579
0.538635
0.524178
0.507923
0.489477
0.468475
0.44393
0.416235
0.380884
0.345229
0.286329
0.247764
0.125855
0.128163
0.378447
0.413952
0.497037
0.550024
0.586563
0.614203
0.633533
0.648094
0.659284
0.667667
0.673989
0.678743
0.68224
0.684728
0.686397
0.687385
0.687803
0.687736
0.687248
0.686392
0.685209
0.683731
0.681982
0.679982
0.677743
0.675277
0.67259
0.669684
0.666558
0.663211
0.659635
0.655823
0.651762
0.647438
0.642833
0.637924
0.632685
0.627085
0.621087
0.614648
0.607716
0.60023
0.592119
0.583294
0.573654
0.563071
0.551394
0.538435
0.52396
0.507685
0.489217
0.468188
0.443614
0.415879
0.380498
0.344769
0.285876
0.247154
0.125533
0.12737
0.384677
0.417339
0.498889
0.551037
0.587125
0.614539
0.633728
0.648199
0.659336
0.667684
0.673983
0.678722
0.68221
0.684692
0.686356
0.687341
0.687757
0.687688
0.687199
0.686342
0.685158
0.683678
0.681928
0.679926
0.677687
0.675219
0.67253
0.669621
0.666493
0.663143
0.659565
0.65575
0.651686
0.647358
0.642749
0.637835
0.632592
0.626987
0.620983
0.614538
0.607599
0.600106
0.591986
0.583152
0.573501
0.562907
0.551217
0.538243
0.523751
0.507458
0.488968
0.467913
0.443312
0.415538
0.380129
0.344329
0.285443
0.246571
0.125229
0.126606
0.390756
0.420765
0.500784
0.552099
0.587723
0.6149
0.633942
0.648318
0.659398
0.66771
0.673984
0.678707
0.682184
0.684659
0.686318
0.687301
0.687714
0.687643
0.687153
0.686294
0.685109
0.683628
0.681877
0.679874
0.677633
0.675163
0.672472
0.669562
0.666432
0.663079
0.659499
0.65568
0.651613
0.647282
0.642669
0.637751
0.632503
0.626893
0.620884
0.614433
0.607487
0.599987
0.591859
0.583016
0.573356
0.56275
0.551048
0.53806
0.523552
0.507241
0.48873
0.467651
0.443024
0.415212
0.379776
0.34391
0.285031
0.246015
0.124943
0.125871
0.39669
0.424224
0.50272
0.553204
0.588356
0.615287
0.634174
0.648451
0.65947
0.667743
0.673991
0.678698
0.682163
0.684631
0.686284
0.687263
0.687674
0.687601
0.687109
0.68625
0.685063
0.683581
0.681828
0.679824
0.677581
0.67511
0.672418
0.669505
0.666373
0.663019
0.659435
0.655614
0.651544
0.64721
0.642593
0.637671
0.632419
0.626804
0.62079
0.614333
0.607381
0.599874
0.591738
0.582887
0.573217
0.562601
0.550887
0.537885
0.523363
0.507034
0.488504
0.467402
0.442749
0.414902
0.379441
0.343511
0.284639
0.245485
0.124674
0.125167
0.402487
0.427707
0.504691
0.554352
0.589023
0.615697
0.634424
0.648597
0.659551
0.667784
0.674005
0.678693
0.682147
0.684606
0.686254
0.687229
0.687637
0.687562
0.687068
0.686207
0.68502
0.683536
0.681783
0.679777
0.677533
0.67506
0.672366
0.669452
0.666318
0.662961
0.659375
0.655551
0.651478
0.647141
0.642521
0.637595
0.632339
0.62672
0.620701
0.614238
0.607281
0.599767
0.591624
0.582765
0.573086
0.56246
0.550734
0.53772
0.523183
0.506838
0.488289
0.467165
0.442489
0.414609
0.379124
0.343132
0.284268
0.244983
0.124421
0.124495
0.408154
0.431208
0.506694
0.555538
0.589721
0.616131
0.634691
0.648755
0.659643
0.667832
0.674024
0.678693
0.682134
0.684585
0.686227
0.687198
0.687603
0.687526
0.68703
0.686168
0.684979
0.683495
0.681739
0.679732
0.677487
0.675013
0.672317
0.669401
0.666265
0.662906
0.659318
0.655492
0.651416
0.647076
0.642452
0.637524
0.632263
0.62664
0.620616
0.614149
0.607185
0.599665
0.591516
0.582649
0.572961
0.562326
0.55059
0.537564
0.523014
0.506653
0.488086
0.466941
0.442242
0.414331
0.378823
0.342774
0.283918
0.244509
0.124185
0.123855
0.413697
0.43472
0.508725
0.55676
0.590449
0.616586
0.634974
0.648926
0.659744
0.667888
0.67405
0.678699
0.682127
0.684568
0.686204
0.68717
0.687572
0.687492
0.686995
0.686131
0.684941
0.683455
0.681699
0.67969
0.677444
0.674969
0.672271
0.669353
0.666216
0.662855
0.659265
0.655436
0.651358
0.647015
0.642388
0.637456
0.632192
0.626565
0.620537
0.614064
0.607096
0.59957
0.591414
0.58254
0.572844
0.5622
0.550454
0.537417
0.522853
0.506478
0.487895
0.46673
0.44201
0.414068
0.37854
0.342436
0.283588
0.244061
0.123964
0.123248
0.419121
0.438238
0.510781
0.558015
0.591205
0.617062
0.635273
0.649109
0.659854
0.667951
0.674082
0.67871
0.682123
0.684554
0.686184
0.687145
0.687544
0.687462
0.686963
0.686097
0.684905
0.683419
0.681661
0.679651
0.677404
0.674927
0.672228
0.669309
0.666169
0.662807
0.659214
0.655384
0.651303
0.646957
0.642328
0.637393
0.632125
0.626494
0.620462
0.613985
0.607012
0.59948
0.591318
0.582438
0.572734
0.562082
0.550326
0.537278
0.522703
0.506314
0.487715
0.466531
0.441792
0.413822
0.378274
0.342119
0.283279
0.243641
0.123759
0.122674
0.424434
0.441756
0.512857
0.559301
0.591987
0.617559
0.635588
0.649303
0.659973
0.668021
0.674119
0.678725
0.682124
0.684545
0.686167
0.687124
0.687519
0.687434
0.686933
0.686066
0.684873
0.683385
0.681626
0.679615
0.677366
0.674888
0.672188
0.669267
0.666126
0.662762
0.659168
0.655335
0.651252
0.646904
0.642272
0.637334
0.632063
0.626428
0.620392
0.613911
0.606933
0.599397
0.591229
0.582342
0.572632
0.561971
0.550207
0.537149
0.522563
0.506161
0.487547
0.466346
0.441588
0.413592
0.378026
0.341823
0.28299
0.243249
0.123569
0.122135
0.429639
0.445269
0.514951
0.560614
0.592794
0.618074
0.635917
0.649509
0.660101
0.668099
0.674162
0.678746
0.682129
0.684539
0.686154
0.687105
0.687497
0.687409
0.686906
0.686037
0.684843
0.683353
0.681593
0.679581
0.677331
0.674852
0.67215
0.669228
0.666086
0.66272
0.659124
0.65529
0.651205
0.646854
0.642219
0.637278
0.632005
0.626367
0.620327
0.613842
0.60686
0.599319
0.591146
0.582253
0.572536
0.561869
0.550096
0.537029
0.522432
0.506018
0.487391
0.466174
0.441399
0.413379
0.377795
0.341548
0.282722
0.242884
0.123394
0.121631
0.434744
0.448772
0.517059
0.561953
0.593623
0.618607
0.63626
0.649725
0.660238
0.668183
0.674211
0.678771
0.682138
0.684537
0.686144
0.68709
0.687478
0.687387
0.686882
0.686011
0.684815
0.683325
0.681564
0.679551
0.677299
0.674819
0.672116
0.669193
0.666049
0.662681
0.659084
0.655248
0.651161
0.646808
0.642171
0.637228
0.631951
0.62631
0.620267
0.613779
0.606793
0.599247
0.591069
0.582171
0.572448
0.561774
0.549994
0.536918
0.522312
0.505886
0.487247
0.466015
0.441224
0.413181
0.377582
0.341293
0.282475
0.242547
0.123233
0.121163
0.439752
0.452261
0.519178
0.563314
0.594474
0.619157
0.636616
0.649952
0.660382
0.668274
0.674266
0.678801
0.682151
0.684539
0.686138
0.687078
0.687462
0.687368
0.68686
0.685988
0.684791
0.683299
0.681537
0.679522
0.67727
0.674789
0.672085
0.66916
0.666015
0.662646
0.659047
0.655209
0.65112
0.646766
0.642127
0.637181
0.631902
0.626258
0.620213
0.613721
0.606731
0.599181
0.590998
0.582096
0.572367
0.561687
0.5499
0.536816
0.522201
0.505766
0.487114
0.465869
0.441063
0.413
0.377386
0.341059
0.282248
0.242237
0.123087
0.120731
0.44467
0.455731
0.521305
0.564696
0.595345
0.619723
0.636985
0.650188
0.660535
0.668371
0.674325
0.678835
0.682168
0.684544
0.686135
0.687069
0.687448
0.687352
0.686842
0.685968
0.684769
0.683276
0.681512
0.679497
0.677244
0.674761
0.672056
0.66913
0.665984
0.662614
0.659014
0.655174
0.651084
0.646727
0.642086
0.637139
0.631857
0.626211
0.620163
0.613668
0.606674
0.599121
0.590934
0.582027
0.572294
0.561608
0.549814
0.536724
0.5221
0.505656
0.486994
0.465736
0.440917
0.412835
0.377208
0.340847
0.282041
0.241956
0.122954
0.120336
0.449502
0.459179
0.523437
0.566095
0.596234
0.620304
0.637365
0.650434
0.660695
0.668474
0.67439
0.678874
0.682189
0.684553
0.686135
0.687063
0.687438
0.687338
0.686826
0.68595
0.684749
0.683255
0.681491
0.679474
0.67722
0.674737
0.67203
0.669104
0.665957
0.662585
0.658983
0.655143
0.651051
0.646693
0.64205
0.637101
0.631817
0.626169
0.620118
0.61362
0.606624
0.599067
0.590877
0.581965
0.572227
0.561536
0.549737
0.53664
0.522009
0.505557
0.486886
0.465616
0.440786
0.412686
0.377047
0.340655
0.281856
0.241702
0.122836
0.119979
0.454253
0.462601
0.525571
0.56751
0.597139
0.620899
0.637757
0.650689
0.660862
0.668583
0.67446
0.678918
0.682215
0.684566
0.686139
0.687061
0.687431
0.687327
0.686812
0.685935
0.684733
0.683237
0.681472
0.679455
0.677199
0.674715
0.672008
0.66908
0.665932
0.662559
0.658957
0.655115
0.651022
0.646662
0.642018
0.637067
0.631781
0.626131
0.620078
0.613578
0.606579
0.599019
0.590825
0.58191
0.572169
0.561473
0.549668
0.536566
0.521929
0.505469
0.486789
0.46551
0.440669
0.412554
0.376905
0.340485
0.281691
0.241476
0.122731
0.11966
0.458927
0.465993
0.527706
0.568938
0.598059
0.621506
0.638159
0.650953
0.661036
0.668698
0.674535
0.678965
0.682244
0.684582
0.686145
0.687061
0.687426
0.68732
0.686802
0.685922
0.684719
0.683222
0.681455
0.679437
0.677181
0.674696
0.671988
0.66906
0.66591
0.662537
0.658933
0.65509
0.650996
0.646635
0.64199
0.637037
0.63175
0.626098
0.620043
0.61354
0.606539
0.598977
0.590781
0.581862
0.572117
0.561417
0.549609
0.536501
0.521858
0.505391
0.486705
0.465416
0.440566
0.412438
0.37678
0.340336
0.281546
0.241278
0.12264
0.119379
0.463529
0.469353
0.529837
0.570378
0.598992
0.622124
0.638571
0.651224
0.661217
0.668819
0.674615
0.679017
0.682276
0.684601
0.686155
0.687064
0.687425
0.687314
0.686794
0.685913
0.684708
0.683209
0.681442
0.679423
0.677166
0.67468
0.671971
0.669042
0.665892
0.662518
0.658913
0.655069
0.650974
0.646612
0.641966
0.637011
0.631723
0.626069
0.620013
0.613509
0.606505
0.598941
0.590742
0.581821
0.572073
0.56137
0.549557
0.536445
0.521798
0.505325
0.486632
0.465336
0.440478
0.412339
0.376673
0.340208
0.281423
0.241109
0.122562
0.119137
0.468064
0.472678
0.531963
0.571827
0.599936
0.622754
0.638992
0.651503
0.661404
0.668945
0.674699
0.679073
0.682313
0.684624
0.686169
0.68707
0.687426
0.687312
0.686789
0.685906
0.684699
0.6832
0.681431
0.679411
0.677153
0.674667
0.671958
0.669028
0.665877
0.662502
0.658897
0.655052
0.650956
0.646593
0.641945
0.63699
0.631701
0.626046
0.619988
0.613482
0.606477
0.598911
0.59071
0.581787
0.572036
0.56133
0.549514
0.536399
0.521747
0.50527
0.486572
0.46527
0.440405
0.412256
0.376584
0.340101
0.28132
0.240967
0.122497
0.118935
0.472536
0.475964
0.534082
0.573283
0.60089
0.623392
0.639421
0.651789
0.661597
0.669076
0.674788
0.679133
0.682353
0.68465
0.686185
0.68708
0.68743
0.687313
0.686787
0.685901
0.684693
0.683193
0.681423
0.679402
0.677144
0.674657
0.671947
0.669016
0.665865
0.662489
0.658883
0.655038
0.650941
0.646578
0.641929
0.636973
0.631683
0.626027
0.619968
0.613461
0.606454
0.598887
0.590684
0.581759
0.572006
0.561298
0.54948
0.536362
0.521707
0.505226
0.486523
0.465216
0.440346
0.41219
0.376512
0.340016
0.281237
0.240854
0.122445
0.118773
0.476949
0.479209
0.536191
0.574744
0.601853
0.624039
0.639858
0.652082
0.661795
0.669212
0.674882
0.679197
0.682397
0.684679
0.686204
0.687092
0.687437
0.687316
0.686788
0.6859
0.68469
0.683188
0.681418
0.679396
0.677137
0.674649
0.671939
0.669008
0.665856
0.66248
0.658874
0.655028
0.65093
0.646566
0.641917
0.636961
0.63167
0.626013
0.619953
0.613445
0.606438
0.598869
0.590665
0.581739
0.571984
0.561274
0.549454
0.536334
0.521676
0.505193
0.486487
0.465176
0.440302
0.41214
0.376459
0.339952
0.281175
0.240769
0.122406
0.11865
0.481307
0.482411
0.538288
0.576208
0.602823
0.624693
0.640301
0.65238
0.661999
0.669353
0.674979
0.679265
0.682444
0.684712
0.686227
0.687107
0.687447
0.687322
0.686791
0.685901
0.684689
0.683186
0.681415
0.679393
0.677133
0.674645
0.671934
0.669002
0.66585
0.662474
0.658867
0.655021
0.650923
0.646559
0.641909
0.636952
0.631661
0.626003
0.619943
0.613434
0.606426
0.598857
0.590652
0.581725
0.571969
0.561258
0.549437
0.536315
0.521656
0.505171
0.486463
0.46515
0.440273
0.412107
0.376423
0.339909
0.281134
0.240713
0.122381
0.118568
0.485614
0.485567
0.540371
0.577673
0.603797
0.625354
0.64075
0.652685
0.662208
0.669498
0.67508
0.679336
0.682494
0.684748
0.686252
0.687125
0.68746
0.687331
0.686797
0.685904
0.684692
0.683187
0.681415
0.679392
0.677132
0.674643
0.671932
0.669
0.665848
0.662471
0.658864
0.655018
0.65092
0.646555
0.641905
0.636948
0.631656
0.625999
0.619938
0.613429
0.606421
0.598851
0.590646
0.581718
0.571962
0.56125
0.549428
0.536306
0.521646
0.50516
0.486451
0.465136
0.440258
0.41209
0.376405
0.339888
0.281114
0.240684
0.122368
0.118527
0.489875
0.488674
0.542438
0.579138
0.604776
0.62602
0.641205
0.652994
0.662422
0.669647
0.675186
0.679412
0.682548
0.684787
0.686281
0.687146
0.687475
0.687342
0.686805
0.685911
0.684696
0.683191
0.681418
0.679394
0.677133
0.674644
0.671933
0.669001
0.665848
0.662472
0.658864
0.655018
0.65092
0.646555
0.641905
0.636948
0.631656
0.625999
0.619938
0.613429
0.606421
0.598851
0.590646
0.581718
0.571962
0.561251
0.549428
0.536306
0.521646
0.50516
0.486451
0.465136
0.440258
0.41209
0.376405
0.339888
0.281114
0.240684
0.122368
0.118527
0.494093
0.49173
0.544487
0.580601
0.605757
0.626689
0.641664
0.653307
0.662639
0.6698
0.675295
0.67949
0.682605
0.684829
0.686312
0.68717
0.687493
0.687356
0.686816
0.68592
0.684704
0.683197
0.681423
0.679399
0.677138
0.674648
0.671937
0.669005
0.665852
0.662475
0.658868
0.655022
0.650924
0.646559
0.64191
0.636952
0.631661
0.626003
0.619943
0.613434
0.606426
0.598857
0.590652
0.581725
0.571969
0.561258
0.549437
0.536315
0.521656
0.505171
0.486463
0.46515
0.440273
0.412107
0.376423
0.339909
0.281134
0.240713
0.122381
0.118568
0.498272
0.494733
0.546517
0.58206
0.606738
0.627362
0.642127
0.653625
0.662861
0.669957
0.675408
0.679572
0.682666
0.684874
0.686346
0.687196
0.687514
0.687373
0.68683
0.685931
0.684714
0.683206
0.681431
0.679407
0.677145
0.674655
0.671943
0.669011
0.665859
0.662482
0.658875
0.655029
0.650931
0.646567
0.641918
0.636961
0.63167
0.626013
0.619953
0.613445
0.606438
0.598869
0.590665
0.581739
0.571984
0.561274
0.549454
0.536334
0.521677
0.505193
0.486487
0.465176
0.440302
0.41214
0.376459
0.339952
0.281175
0.240769
0.122406
0.11865
0.502417
0.497679
0.548525
0.583513
0.60772
0.628037
0.642594
0.653946
0.663087
0.670118
0.675524
0.679657
0.682729
0.684922
0.686384
0.687225
0.687538
0.687393
0.686847
0.685946
0.684727
0.683218
0.681442
0.679417
0.677155
0.674665
0.671953
0.669021
0.665869
0.662492
0.658886
0.65504
0.650942
0.646579
0.64193
0.636974
0.631683
0.626027
0.619968
0.613461
0.606455
0.598887
0.590684
0.581759
0.572006
0.561298
0.54948
0.536362
0.521707
0.505226
0.486524
0.465216
0.440346
0.41219
0.376512
0.340016
0.281237
0.240854
0.122445
0.118773
0.506531
0.500568
0.550509
0.584959
0.608699
0.628714
0.643062
0.654271
0.663315
0.670282
0.675643
0.679745
0.682796
0.684973
0.686424
0.687258
0.687564
0.687415
0.686866
0.685963
0.684742
0.683232
0.681456
0.67943
0.677168
0.674678
0.671966
0.669034
0.665882
0.662506
0.658899
0.655054
0.650957
0.646594