/*--------------------------------*- C++ -*----------------------------------*\
| =========                 |                                                 |
| \\      /  F ield         | OpenFOAM: The Open Source CFD Toolbox           |
|  \\    /   O peration     | Version:  2.4.0                                 |
|   \\  /    A nd           | Web:      www.OpenFOAM.org                      |
|    \\/     M anipulation  |                                                 |
\*---------------------------------------------------------------------------*/
FoamFile
{
    version     2.0;
    format      ascii;
    class       volVectorField;
    location    "0.04";
    object      U;
}
// * * * * * * * * * * * * * * * * * * * * * * * * * * * * * * * * * * * * * //

dimensions      [0 1 -1 0 0 0 0];

internalField   nonuniform List<vector> 
6000
(
(0.166523 -0.0075211 2.62852e-18)
(0.0240299 -0.0066329 0)
(0.057893 -0.0136985 1.24118e-17)
(0.0754261 -0.0166963 0)
(0.0826621 -0.017301 0)
(0.0858681 -0.0171759 0)
(0.0887614 -0.0169542 7.91943e-18)
(0.090991 -0.0165862 6.97451e-22)
(0.0928088 -0.016121 0)
(0.0943736 -0.0155906 0)
(0.0957013 -0.0150072 7.98973e-18)
(0.0968575 -0.0143839 -1.58706e-17)
(0.0978846 -0.0137288 0)
(0.0988054 -0.0130477 0)
(0.099637 -0.0123444 -3.85713e-18)
(0.100393 -0.0116221 0)
(0.101082 -0.0108834 0)
(0.101713 -0.0101301 -3.73494e-18)
(0.102288 -0.00936387 -3.69547e-18)
(0.102814 -0.00858623 0)
(0.103293 -0.00779839 3.62078e-18)
(0.103728 -0.00700152 1.79297e-18)
(0.104122 -0.00619665 -1.77651e-18)
(0.104477 -0.00538474 0)
(0.104794 -0.0045667 0)
(0.105075 -0.00374334 0)
(0.105322 -0.00291546 8.60255e-19)
(0.105536 -0.00208379 -8.54491e-19)
(0.105718 -0.00124907 0)
(0.105869 -0.00041204 0)
(0.105992 0.000425037 1.05e-19)
(0.106085 0.00126796 0)
(0.106151 0.00210881 8.32472e-19)
(0.10619 0.0029499 -8.29274e-19)
(0.106206 0.00379066 0)
(0.106197 0.00463062 0)
(0.106168 0.00546937 1.64316e-18)
(0.106118 0.00630654 0)
(0.10605 0.00714185 1.63495e-18)
(0.105966 0.00797507 0)
(0.105869 0.00880609 0)
(0.105762 0.0096349 3.24571e-18)
(0.10565 0.0104617 -6.47158e-18)
(0.105535 0.0112868 0)
(0.105425 0.0121108 0)
(0.105325 0.0129346 3.19251e-18)
(0.105245 0.0137596 0)
(0.105194 0.0145876 0)
(0.105184 0.015421 -6.20375e-18)
(0.105234 0.0162633 -6.10855e-18)
(0.105348 0.0171181 -5.98308e-18)
(0.105611 0.0179954 -2.85694e-21)
(0.105848 0.0188857 5.60916e-18)
(0.106721 0.0198616 0)
(0.106657 0.0207513 -4.24382e-21)
(0.10965 0.0220898 -4.61707e-18)
(0.107343 0.0226766 3.89224e-18)
(0.117615 0.0253628 3.49827e-18)
(0.106564 0.0244273 6.28093e-21)
(0.141176 0.0319801 0)
(0.366113 -0.019929 -3.33827e-18)
(0.107388 -0.0205951 5.92951e-18)
(0.17079 -0.0401879 -7.24253e-18)
(0.212326 -0.0464745 -8.09462e-18)
(0.227457 -0.0468369 0)
(0.232594 -0.0457771 0)
(0.236794 -0.0445998 -8.8156e-18)
(0.239735 -0.0431403 1.7673e-17)
(0.241725 -0.0414984 0)
(0.243157 -0.0397442 0)
(0.244127 -0.0379087 -8.6559e-18)
(0.244768 -0.0360221 8.55516e-18)
(0.245182 -0.0341019 4.22323e-18)
(0.245426 -0.0321601 0)
(0.245545 -0.0302048 4.11107e-18)
(0.245573 -0.0282422 0)
(0.245534 -0.0262764 0)
(0.24545 -0.0243104 0)
(0.245335 -0.0223463 0)
(0.245204 -0.0203855 0)
(0.245066 -0.018429 -5.05626e-23)
(0.244932 -0.0164771 0)
(0.24481 -0.0145299 -1.8636e-18)
(0.244706 -0.0125874 0)
(0.244626 -0.010649 0)
(0.244577 -0.00871415 9.06681e-19)
(0.244561 -0.00678197 -8.99698e-19)
(0.244583 -0.00485149 5.44782e-23)
(0.244645 -0.00292157 4.43753e-19)
(0.244752 -0.000990906 0)
(0.244907 0.000941528 -1.09732e-19)
(0.24511 0.00287605 -4.36862e-19)
(0.245361 0.00481382 -1.01042e-22)
(0.245665 0.00675792 8.67288e-19)
(0.246022 0.00870942 -8.64621e-19)
(0.246432 0.0106697 0)
(0.246897 0.0126401 0)
(0.247417 0.0146223 0)
(0.247994 0.0166178 0)
(0.248629 0.0186281 0)
(0.249324 0.0206551 -3.42626e-18)
(0.250082 0.0227004 0)
(0.250906 0.0247662 3.42084e-18)
(0.251801 0.0268545 3.4152e-18)
(0.252773 0.028968 0)
(0.253831 0.0311097 0)
(0.254988 0.0332834 0)
(0.256257 0.0354934 0)
(0.257663 0.037746 6.6852e-18)
(0.259235 0.0400487 0)
(0.260988 0.0424097 0)
(0.263069 0.0448515 -6.3746e-18)
(0.265207 0.0473545 -6.18611e-18)
(0.268546 0.0500732 0)
(0.270338 0.052651 -1.11672e-17)
(0.277971 0.0562111 0)
(0.275607 0.0582132 -8.9092e-18)
(0.298425 0.0648396 -4.03076e-18)
(0.278603 0.0634045 2.15853e-18)
(0.354494 0.0803615 2.36471e-18)
(0.510488 -0.0193877 -1.85652e-19)
(0.212228 -0.0385959 -5.89637e-18)
(0.283329 -0.0675756 0)
(0.341878 -0.0753229 8.08972e-18)
(0.362057 -0.0741776 0)
(0.36624 -0.0714598 0)
(0.36845 -0.0687731 0)
(0.369184 -0.065812 -8.83433e-18)
(0.368638 -0.0626689 0)
(0.367354 -0.0594419 -8.73749e-18)
(0.365539 -0.0561786 0)
(0.363388 -0.0529178 0)
(0.361051 -0.0496812 -4.22036e-18)
(0.358623 -0.0464823 0)
(0.35617 -0.0433295 0)
(0.353747 -0.0402276 0)
(0.351393 -0.0371788 0)
(0.349137 -0.0341835 0)
(0.347004 -0.0312406 0)
(0.345011 -0.0283482 3.84873e-18)
(0.343175 -0.0255033 -3.8045e-18)
(0.341506 -0.0227025 0)
(0.340015 -0.019942 1.58876e-22)
(0.338708 -0.0172176 -1.84365e-18)
(0.337592 -0.0145246 0)
(0.336673 -0.0118583 -1.81168e-18)
(0.335953 -0.00921383 0)
(0.335437 -0.00658599 8.92515e-19)
(0.335127 -0.00396942 -4.4339e-19)
(0.335025 -0.00135823 0)
(0.335137 0.0012573 0)
(0.335461 0.00386168 4.36522e-19)
(0.335999 0.00648008 -1.56065e-22)
(0.336755 0.00911493 0)
(0.33773 0.0117706 1.72769e-18)
(0.338925 0.0144523 0)
(0.340342 0.0171657 1.71976e-18)
(0.341983 0.0199163 0)
(0.34385 0.0227098 0)
(0.345944 0.0255519 0)
(0.34827 0.0284484 3.42383e-18)
(0.350828 0.0314053 0)
(0.353622 0.0344286 0)
(0.356657 0.0375244 -3.41327e-18)
(0.359938 0.0406993 0)
(0.363471 0.0439599 0)
(0.367269 0.0473138 3.38337e-18)
(0.371344 0.0507688 -3.36461e-18)
(0.375717 0.0543345 -3.33818e-18)
(0.380421 0.0580221 0)
(0.38547 0.0618438 0)
(0.39103 0.0658259 0)
(0.396793 0.0699549 6.17821e-18)
(0.404114 0.0743954 5.94254e-18)
(0.409706 0.0787739 5.59014e-18)
(0.422687 0.0843487 0)
(0.423208 0.0881805 4.46312e-18)
(0.456455 0.0977857 8.08627e-18)
(0.434373 0.097133 0)
(0.540881 0.119563 -2.38548e-18)
(0.616457 -0.0136543 -1.70046e-19)
(0.321383 -0.0566293 5.75432e-18)
(0.386216 -0.092972 -7.13174e-18)
(0.452261 -0.100351 0)
(0.473826 -0.0966189 0)
(0.474202 -0.0916363 0)
(0.471318 -0.0870412 0)
(0.46707 -0.0823252 0)
(0.461604 -0.0775342 0)
(0.455514 -0.0727795 8.71167e-18)
(0.449104 -0.0681162 8.6228e-18)
(0.442612 -0.0635794 0)
(0.436212 -0.0591838 0)
(0.430011 -0.0549353 0)
(0.424079 -0.0508337 4.09477e-18)
(0.418468 -0.0468753 0)
(0.413206 -0.0430534 3.98555e-18)
(0.408316 -0.0393598 -3.9337e-18)
(0.403807 -0.0357854 0)
(0.399688 -0.0323204 -3.83769e-18)
(0.395959 -0.0289549 0)
(0.392621 -0.0256789 -1.87573e-18)
(0.38967 -0.0224822 3.71295e-18)
(0.387105 -0.0193549 1.83862e-18)
(0.384921 -0.0162874 0)
(0.383116 -0.01327 9.03377e-19)
(0.381686 -0.0102932 0)
(0.380629 -0.0073477 8.89928e-19)
(0.379943 -0.00442422 0)
(0.379628 -0.0015132 0)
(0.379684 0.0013987 0)
(0.380113 0.00430234 4.35238e-19)
(0.380917 0.00722464 -1.73403e-18)
(0.3821 0.0101711 0)
(0.383667 0.0131503 -8.61486e-19)
(0.385624 0.0161717 0)
(0.387978 0.0192449 -1.71516e-18)
(0.390739 0.0223803 0)
(0.393918 0.0255882 0)
(0.397524 0.0288796 0)
(0.401571 0.0322659 3.41196e-18)
(0.406074 0.0357591 0)
(0.411047 0.0393715 3.40526e-18)
(0.416507 0.0431163 -3.4007e-18)
(0.422473 0.0470073 0)
(0.428962 0.0510587 -3.38519e-18)
(0.436 0.0552861 -6.74613e-18)
(0.443609 0.0597054 3.35554e-18)
(0.45182 0.0643344 6.65632e-18)
(0.460672 0.0691919 -6.58076e-18)
(0.470187 0.0742983 -6.48014e-18)
(0.480535 0.0796861 0)
(0.491404 0.0853503 -6.16507e-18)
(0.504203 0.0914596 -5.93125e-18)
(0.515478 0.0976432 -5.56134e-18)
(0.534977 0.105202 0)
(0.541239 0.111017 0)
(0.583996 0.123252 -4.03429e-18)
(0.565452 0.123956 0)
(0.693675 0.149427 2.32993e-18)
(0.694755 -0.00610147 -1.63617e-19)
(0.42221 -0.0724616 -4.40684e-20)
(0.473496 -0.114524 7.07664e-18)
(0.538195 -0.120159 7.9617e-18)
(0.557602 -0.11311 0)
(0.552355 -0.105552 -8.6384e-18)
(0.542771 -0.0989685 0)
(0.532259 -0.0925548 0)
(0.521038 -0.0862667 0)
(0.509676 -0.0802082 8.6667e-18)
(0.498498 -0.074423 -8.582e-18)
(0.487732 -0.0689258 0)
(0.477523 -0.0637103 0)
(0.467946 -0.0587637 0)
(0.459033 -0.0540687 -4.07651e-18)
(0.450797 -0.0496063 0)
(0.443231 -0.0453564 -3.96867e-18)
(0.436324 -0.0412991 3.91752e-18)
(0.430055 -0.0374152 0)
(0.424404 -0.0336864 0)
(0.419349 -0.0300954 1.88909e-18)
(0.414867 -0.0266259 1.86888e-18)
(0.410938 -0.0232624 -3.69926e-18)
(0.407544 -0.0199903 -1.83173e-18)
(0.404668 -0.0167961 0)
(0.402296 -0.0136665 9.00104e-19)
(0.400416 -0.0105891 0)
(0.399019 -0.00755179 -8.87076e-19)
(0.398098 -0.00454301 4.4062e-19)
(0.397649 -0.00155128 0)
(0.397669 0.00143633 0)
(0.39816 0.00442446 -8.67629e-19)
(0.399125 0.00743126 8.64156e-19)
(0.400571 0.0104662 0)
(0.402505 0.0135408 -8.58221e-19)
(0.404939 0.016667 0)
(0.407889 0.0198575 1.7083e-18)
(0.411372 0.0231255 0)
(0.415409 0.0264849 0)
(0.420024 0.0299507 0)
(0.425246 0.033539 -3.39894e-18)
(0.431106 0.0372669 -3.39399e-18)
(0.437641 0.041153 -3.39148e-18)
(0.444889 0.0452174 1.6554e-21)
(0.452897 0.0494821 -3.37804e-18)
(0.461711 0.0539707 3.3704e-18)
(0.471388 0.0587094 6.71191e-18)
(0.481985 0.063726 0)
(0.493568 0.0690516 -3.31179e-18)
(0.506214 0.0747195 6.5508e-18)
(0.51998 0.0807651 6.45087e-18)
(0.535072 0.0872365 0)
(0.551209 0.0941456 0)
(0.569827 0.101672 0)
(0.587483 0.109463 5.53951e-18)
(0.614037 0.118826 0)
(0.627673 0.126581 0)
(0.679533 0.141151 3.98744e-18)
(0.668326 0.143486 -2.10306e-18)
(0.812016 0.170496 -2.32759e-18)
(0.752874 0.001956 -1.60228e-19)
(0.507922 -0.0849209 -5.64668e-18)
(0.542721 -0.131469 0)
(0.600028 -0.134644 -7.89277e-18)
(0.614893 -0.123999 -8.34102e-18)
(0.603668 -0.113901 4.34145e-21)
(0.587578 -0.105569 0)
(0.571239 -0.0977909 0)
(0.554987 -0.0903809 0)
(0.539293 -0.083412 -8.61589e-18)
(0.52441 -0.0768992 0)
(0.51049 -0.0708234 0)
(0.497604 -0.0651499 4.16454e-18)
(0.485759 -0.0598419 0)
(0.474925 -0.0548632 0)
(0.465061 -0.0501792 0)
(0.456116 -0.0457572 0)
(0.448039 -0.0415676 -3.90184e-18)
(0.440778 -0.0375831 0)
(0.434286 -0.0337793 3.80881e-18)
(0.428519 -0.0301336 -1.8833e-18)
(0.423436 -0.0266258 -1.86292e-18)
(0.419003 -0.023237 3.68856e-18)
(0.415189 -0.0199502 3.65361e-18)
(0.411968 -0.0167494 0)
(0.409316 -0.0136197 -8.97936e-19)
(0.407216 -0.0105472 0)
(0.405654 -0.00751853 0)
(0.40462 -0.00452104 -8.79178e-19)
(0.404105 -0.00154245 0)
(0.404108 0.00142935 0)
(0.404628 0.00440652 8.655e-19)
(0.40567 0.00740124 0)
(0.407241 0.0104258 0)
(0.409352 0.0134929 8.56179e-19)
(0.412019 0.0166156 0)
(0.415262 0.0198078 -1.70392e-18)
(0.419104 0.0230843 0)
(0.423575 0.0264609 0)
(0.428709 0.0299546 0)
(0.434547 0.0335841 0)
(0.441134 0.0373698 3.38248e-18)
(0.448525 0.0413343 3.37614e-18)
(0.45678 0.0455026 1.6495e-21)
(0.465971 0.0499025 3.36403e-18)
(0.476174 0.054565 3.35156e-18)
(0.487484 0.0595254 -3.33904e-18)
(0.499998 0.0648225 0)
(0.513834 0.0705006 -3.2891e-18)
(0.529124 0.0766092 3.25152e-18)
(0.545991 0.0832024 -6.40102e-18)
(0.564709 0.0903497 0)
(0.58508 0.0980879 0)
(0.608596 0.106619 -5.84434e-18)
(0.631939 0.115625 -5.48675e-18)
(0.664936 0.126417 5.12438e-18)
(0.685978 0.135817 4.36996e-18)
(0.746184 0.152336 -3.96829e-18)
(0.743896 0.156257 2.09538e-18)
(0.898833 0.183915 0)
(0.79623 0.0101287 -1.56404e-19)
(0.576665 -0.0937481 0)
(0.594644 -0.143947 6.91502e-18)
(0.641701 -0.144571 7.79151e-18)
(0.651153 -0.130455 7.06484e-21)
(0.634762 -0.118104 8.5168e-18)
(0.613516 -0.108429 0)
(0.592753 -0.0997215 0)
(0.572891 -0.0916071 0)
(0.554263 -0.0841125 4.282e-18)
(0.536999 -0.0772173 4.24267e-18)
(0.521147 -0.070868 0)
(0.506692 -0.065002 -4.14769e-18)
(0.49357 -0.0595623 4.09529e-18)
(0.481693 -0.0544971 0)
(0.470974 -0.0497606 0)
(0.461327 -0.0453116 0)
(0.45267 -0.0411141 5.97175e-22)
(0.444931 -0.0371362 0)
(0.438042 -0.0333497 -7.6034e-18)
(0.431946 -0.0297295 1.87967e-18)
(0.426591 -0.0262533 1.86017e-18)
(0.421934 -0.0229007 -2.91874e-22)
(0.417935 -0.0196534 -1.82436e-18)
(0.414563 -0.0164947 0)
(0.411791 -0.0134089 0)
(0.409598 -0.0103817 0)
(0.407966 -0.00739926 4.41828e-19)
(0.406884 -0.0044487 8.78128e-19)
(0.406342 -0.00151744 0)
(0.406338 0.0014063 0)
(0.40687 0.0043365 -8.64448e-19)
(0.407944 0.00728375 -4.3036e-19)
(0.409568 0.0102613 0)
(0.411754 0.0132819 0)
(0.41452 0.0163592 0)
(0.417889 0.0195072 0)
(0.421888 0.0227414 0)
(0.42655 0.026078 0)
(0.431916 0.0295352 0)
(0.438033 0.0331325 0)
(0.444956 0.036892 0)
(0.452751 0.0408382 -1.48923e-21)
(0.461491 0.0449984 3.3621e-18)
(0.471267 0.0494039 0)
(0.482177 0.0540899 -6.68095e-18)
(0.494341 0.0590973 -3.32341e-18)
(0.507893 0.064472 0)
(0.522992 0.0702681 3.27486e-18)
(0.539823 0.0765469 -3.2358e-18)
(0.558574 0.0833786 6.36674e-18)
(0.579599 0.0908522 -6.2214e-18)
(0.602796 0.0990296 0)
(0.629753 0.10814 9.14292e-21)
(0.657326 0.117904 5.44847e-18)
(0.695336 0.129652 -1.01637e-17)
(0.722602 0.140237 -1.30395e-20)
(0.78976 0.158211 -3.90623e-18)
(0.796155 0.163407 2.05427e-18)
(0.959245 0.191139 2.23761e-18)
(0.82879 0.0182607 5.00552e-18)
(0.629812 -0.0992705 0)
(0.632141 -0.152643 -4.69397e-21)
(0.668497 -0.151046 -1.04768e-20)
(0.672799 -0.133833 8.19628e-18)
(0.652551 -0.119602 8.44801e-18)
(0.627772 -0.108989 0)
(0.604089 -0.0997332 8.5926e-18)
(0.581952 -0.0912462 0)
(0.561568 -0.0835058 -4.26477e-18)
(0.542944 -0.076461 -8.95621e-22)
(0.526034 -0.0700297 -4.18413e-18)
(0.510752 -0.0641283 0)
(0.49698 -0.058685 -8.1741e-18)
(0.484588 -0.0536381 0)
(0.473461 -0.0489348 0)
(0.463485 -0.044529 0)
(0.454565 -0.0403815 3.88888e-18)
(0.446612 -0.0364578 0)
(0.43955 -0.0327283 3.79878e-18)
(0.433312 -0.0291667 -3.7568e-18)
(0.427842 -0.0257498 0)
(0.42309 -0.0224569 -2.88121e-22)
(0.419015 -0.0192694 0)
(0.415581 -0.0161702 0)
(0.41276 -0.0131437 -8.96142e-19)
(0.410529 -0.0101755 0)
(0.40887 -0.00725191 -8.83278e-19)
(0.407768 -0.00435997 -4.38879e-19)
(0.407216 -0.00148722 -1.09067e-19)
(0.407209 0.00137812 1.08502e-19)
(0.407747 0.0042496 4.32037e-19)
(0.408834 0.00713805 8.60338e-19)
(0.410479 0.0100565 0)
(0.412696 0.0130177 8.54276e-19)
(0.415503 0.016035 0)
(0.418924 0.0191227 0)
(0.422988 0.022296 0)
(0.42773 0.0255714 1.693e-18)
(0.433194 0.028967 0)
(0.43943 0.0325028 0)
(0.446499 0.0362011 3.36943e-18)
(0.454471 0.0400871 -3.3646e-18)
(0.463429 0.0441891 0)
(0.473471 0.0485397 0)
(0.48471 0.053176 3.3347e-18)
(0.497284 0.0581415 3.31764e-18)
(0.511346 0.0634861 -3.29248e-18)
(0.527086 0.069269 0)
(0.544726 0.0755589 0)
(0.564503 0.082436 0)
(0.586832 0.090003 6.90017e-21)
(0.611702 0.0983405 0)
(0.640787 0.1077 5.76181e-18)
(0.671125 0.117837 0)
(0.712563 0.130108 5.03873e-18)
(0.744412 0.141393 -4.29385e-18)
(0.816761 0.160304 7.73326e-18)
(0.830518 0.166323 -2.03959e-18)
(0.999211 0.193716 -2.22008e-18)
(0.853479 0.0262582 1.46618e-19)
(0.670249 -0.102097 -5.45365e-18)
(0.658853 -0.158426 -6.77598e-18)
(0.685354 -0.155125 -9.21953e-21)
(0.685272 -0.135265 -8.12219e-18)
(0.662417 -0.119502 -8.39901e-18)
(0.635458 -0.108261 0)
(0.610018 -0.0987247 -8.56046e-18)
(0.586559 -0.0900832 0)
(0.565197 -0.0822696 -4.25312e-18)
(0.545847 -0.0752104 -4.22011e-18)
(0.528392 -0.0688023 4.17858e-18)
(0.512698 -0.0629473 -4.13161e-18)
(0.49861 -0.0575642 4.08353e-18)
(0.485975 -0.0525854 -4.033e-18)
(0.474658 -0.0479543 3.98318e-18)
(0.464533 -0.0436224 0)
(0.455494 -0.039549 0)
(0.447445 -0.0356988 0)
(0.440306 -0.0320416 1.89843e-18)
(0.434005 -0.0285509 1.87792e-18)
(0.428484 -0.0252034 0)
(0.42369 -0.0219785 -1.83992e-18)
(0.41958 -0.0188575 0)
(0.416119 -0.0158236 0)
(0.413277 -0.0128615 8.96044e-19)
(0.411029 -0.00995668 -8.8913e-19)
(0.409356 -0.00709582 4.41554e-19)
(0.408247 -0.00426613 0)
(0.40769 -0.00145531 2.18092e-19)
(0.407682 0.00134826 -2.16961e-19)
(0.408222 0.00415769 0)
(0.409316 0.00698387 -4.30077e-19)
(0.410972 0.00983952 8.56759e-19)
(0.413203 0.0127372 -8.54184e-19)
(0.416029 0.01569 0)
(0.419474 0.0187121 0)
(0.423567 0.0218184 0)
(0.428346 0.0250252 -1.69276e-18)
(0.433854 0.0283504 0)
(0.440144 0.031814 0)
(0.447278 0.035438 -3.3687e-18)
(0.455331 0.0392475 0)
(0.464387 0.0432711 3.35291e-18)
(0.474551 0.0475414 -3.34274e-18)
(0.485942 0.052096 0)
(0.498707 0.0569794 3.31147e-18)
(0.513012 0.0622428 6.57725e-18)
(0.529063 0.0679476 -3.25555e-18)
(0.547106 0.0741661 0)
(0.56741 0.0809835 0)
(0.590431 0.0885104 3.08948e-18)
(0.616224 0.0968386 0)
(0.646526 0.106235 5.72119e-18)
(0.67853 0.116478 0)
(0.722105 0.128948 4.98477e-18)
(0.757035 0.140537 4.2391e-18)
(0.832888 0.159934 -3.82754e-18)
(0.852336 0.166319 0)
(1.02445 0.193058 2.16078e-18)
(0.872452 0.0340636 -5.48823e-18)
(0.701132 -0.102884 1.37998e-21)
(0.678139 -0.162102 6.71755e-18)
(0.696062 -0.157628 -7.8175e-21)
(0.692408 -0.135542 5.69309e-21)
(0.66789 -0.118519 0)
(0.639688 -0.106857 0)
(0.613254 -0.0972049 0)
(0.58906 -0.0885373 -4.26782e-18)
(0.567173 -0.0807469 8.49657e-18)
(0.547445 -0.0737445 0)
(0.529713 -0.0674125 4.17498e-18)
(0.513813 -0.0616429 7.22136e-22)
(0.499569 -0.056349 -4.08123e-18)
(0.486814 -0.0514599 6.39406e-22)
(0.475403 -0.0469172 -3.98273e-18)
(0.465203 -0.0426715 0)
(0.456103 -0.0386815 0)
(0.448005 -0.034912 0)
(0.440826 -0.0313326 -1.89834e-18)
(0.434492 -0.0279172 0)
(0.428942 -0.0246426 1.85768e-18)
(0.424125 -0.0214884 1.83929e-18)
(0.419996 -0.0184364 -1.82211e-18)
(0.416519 -0.0154698 0)
(0.413664 -0.0125736 0)
(0.411406 -0.00973366 8.89095e-19)
(0.409727 -0.00693683 0)
(0.408612 -0.00417057 4.38574e-19)
(0.408053 -0.00142283 -1.09031e-19)
(0.408044 0.00131785 1.08465e-19)
(0.408587 0.00406415 -4.31702e-19)
(0.409685 0.00682694 0)
(0.411347 0.00961855 -8.56725e-19)
(0.413588 0.0124513 0)
(0.416426 0.0153382 0)
(0.419885 0.0182928 1.69845e-18)
(0.423996 0.0213301 0)
(0.428796 0.0244659 0)
(0.434329 0.0277178 0)
(0.44065 0.0311054 0)
(0.44782 0.0346505 0)
(0.455915 0.0383777 0)
(0.465023 0.0423153 -6.70389e-18)
(0.47525 0.0464955 3.34246e-18)
(0.486719 0.0509558 3.32719e-18)
(0.49958 0.0557403 -6.61992e-18)
(0.514006 0.0609004 -3.28677e-18)
(0.530213 0.0664978 3.25444e-18)
(0.548459 0.0726057 -3.20882e-18)
(0.569031 0.0793113 0)
(0.592413 0.0867285 3.2629e-21)
(0.6187 0.0949544 -5.95028e-18)
(0.64967 0.104265 -5.70885e-18)
(0.682635 0.114449 -5.33056e-18)
(0.727465 0.126907 -9.918e-18)
(0.76436 0.138522 -4.21731e-18)
(0.842376 0.158066 3.76966e-18)
(0.86599 0.164445 1.97026e-18)
(1.03975 0.190301 -2.14058e-18)
(0.88729 0.041642 -1.35965e-19)
(0.725203 -0.102201 5.38055e-18)
(0.692607 -0.164301 2.46253e-21)
(0.703187 -0.159114 -6.36384e-21)
(0.696618 -0.135157 8.03656e-18)
(0.671056 -0.117072 8.33394e-18)
(0.642191 -0.105114 -8.47214e-18)
(0.615214 -0.0954394 4.26345e-18)
(0.590615 -0.0868152 9.90754e-22)
(0.568443 -0.079098 -4.24629e-18)
(0.548512 -0.0721874 -4.21373e-18)
(0.530631 -0.0659559 -4.17453e-18)
(0.514618 -0.060289 8.25791e-18)
(0.500287 -0.0550967 6.54834e-22)
(0.487463 -0.0503062 4.0317e-18)
(0.475995 -0.0458583 0)
(0.465749 -0.0417035 3.9327e-18)
(0.456611 -0.0378005 0)
(0.448481 -0.0341142 -3.83937e-18)
(0.441273 -0.0306148 -1.89779e-18)
(0.434915 -0.0272763 -1.87701e-18)
(0.429345 -0.0240759 -2.68549e-22)
(0.424511 -0.0209936 -1.83926e-18)
(0.420368 -0.0180113 1.82208e-18)
(0.416879 -0.0151128 0)
(0.414014 -0.0122832 -8.95553e-19)
(0.411748 -0.00950879 0)
(0.410063 -0.00677655 0)
(0.408944 -0.00407424 -4.38562e-19)
(0.408383 -0.00139008 0)
(0.408375 0.00128719 0)
(0.408919 0.00396989 4.3169e-19)
(0.410021 0.00666875 0)
(0.411688 0.00939579 0)
(0.413936 0.0121631 8.5351e-19)
(0.416784 0.0149833 0)
(0.420254 0.0178699 -1.69842e-18)
(0.424379 0.0208372 0)
(0.429196 0.023901 1.69111e-18)
(0.434749 0.0270785 0)
(0.441092 0.0303888 0)
(0.448288 0.0338532 0)
(0.456413 0.037496 0)
(0.465556 0.0413447 3.35124e-18)
(0.475825 0.0454313 0)
(0.487342 0.0497924 -6.65276e-18)
(0.500261 0.0544715 3.30903e-18)
(0.51476 0.0595193 -3.28255e-18)
(0.531056 0.0649969 3.2497e-18)
(0.549415 0.0709772 3.20857e-18)
(0.570135 0.077547 0)
(0.593712 0.0848207 3.0753e-18)
(0.620269 0.0928968 8.91705e-18)
(0.651605 0.102054 -5.68713e-18)
(0.685121 0.112087 5.32296e-18)
(0.730659 0.124406 4.94237e-18)
(0.768784 0.135872 0)
(0.848021 0.155328 -3.7523e-18)
(0.874623 0.161438 -3.90756e-18)
(1.04869 0.18626 0)
(0.899134 0.0489693 5.94936e-18)
(0.744565 -0.100491 0)
(0.704072 -0.165468 4.44033e-21)
(0.708331 -0.159935 -4.90817e-21)
(0.69931 -0.134395 -8.00521e-18)
(0.673071 -0.11539 -1.66415e-17)
(0.643869 -0.103208 1.69294e-17)
(0.616595 -0.0935583 -4.2618e-18)
(0.591763 -0.0850125 4.26346e-18)
(0.569423 -0.0773927 0)
(0.54937 -0.0705902 7.75074e-22)
(0.531395 -0.06447 0)
(0.515308 -0.0589133 -8.25694e-18)
(0.500917 -0.0538277 4.0807e-18)
(0.488044 -0.0491393 0)
(0.476534 -0.0447889 0)
(0.466252 -0.0407269 -3.93283e-18)
(0.457083 -0.0369123 0)
(0.448925 -0.0333105 3.83944e-18)
(0.441694 -0.029892 1.89781e-18)
(0.435316 -0.0266312 2.61922e-22)
(0.429728 -0.0235057 -1.8574e-18)
(0.424879 -0.0204957 -1.83872e-18)
(0.420722 -0.0175838 0)
(0.417222 -0.0147538 0)
(0.414348 -0.0119913 8.95538e-19)
(0.412076 -0.00928268 0)
(0.410385 -0.00661539 4.41212e-19)
(0.409263 -0.00397739 -4.38399e-19)
(0.4087 -0.00135716 1.08965e-19)
(0.408692 0.00125637 -1.08396e-19)
(0.409238 0.00387512 4.31506e-19)
(0.410343 0.00650969 -4.29668e-19)
(0.412016 0.00917181 8.56108e-19)
(0.41427 0.0118733 -8.53494e-19)
(0.417126 0.0146265 0)
(0.420608 0.0174445 0)
(0.424746 0.0203415 0)
(0.429577 0.0233328 -5.00374e-22)
(0.435147 0.0264352 1.68764e-18)
(0.44151 0.0296674 0)
(0.448729 0.0330504 0)
(0.45688 0.0366078 0)
(0.466053 0.0403665 0)
(0.476355 0.0443578 0)
(0.487911 0.0486177 1.69816e-21)
(0.500875 0.0531887 0)
(0.515426 0.0581205 6.56356e-18)
(0.531785 0.0634733 -6.49768e-18)
(0.55022 0.0693186 -3.20379e-18)
(0.571034 0.075742 0)
(0.594732 0.082857 0)
(0.621451 0.0907607 -5.93612e-18)
(0.652999 0.0997321 7.99254e-21)
(0.686842 0.109563 -5.3024e-18)
(0.732774 0.12167 4.91596e-18)
(0.771679 0.132885 4.16274e-18)
(0.851523 0.152101 -3.71151e-18)
(0.880285 0.157776 3.87172e-18)
(1.05371 0.181474 2.05882e-18)
(0.908807 0.0560278 1.25803e-19)
(0.760706 -0.0980708 -5.35628e-18)
(0.713704 -0.165898 -1.3244e-17)
(0.712432 -0.160302 -3.47467e-21)
(0.701263 -0.133412 7.9903e-18)
(0.674541 -0.113591 8.31282e-18)
(0.645167 -0.101224 -4.23149e-18)
(0.617722 -0.0916219 0)
(0.592739 -0.0831707 0)
(0.570285 -0.0756597 4.24378e-18)
(0.550143 -0.0689726 4.21332e-18)
(0.532098 -0.0629686 0)
(0.515953 -0.0575254 4.12847e-18)
(0.501512 -0.0525487 0)
(0.488596 -0.0479642 0)
(0.477049 -0.0437125 0)
(0.466735 -0.0397443 0)
(0.457537 -0.036019 3.88431e-18)
(0.449355 -0.0325024 1.91923e-18)
(0.442102 -0.0291653 -1.89732e-18)
(0.435704 -0.0259826 2.5535e-22)
(0.4301 -0.0229325 0)
(0.425235 -0.0199954 1.83871e-18)
(0.421067 -0.0171541 0)
(0.417556 -0.014393 0)
(0.414674 -0.0116979 8.95249e-19)
(0.412394 -0.00905547 -8.88464e-19)
(0.410699 -0.00645345 -4.41203e-19)
(0.409573 -0.00388008 4.38389e-19)
(0.409009 -0.00132407 -2.17906e-19)
(0.409 0.00122539 2.16767e-19)
(0.409548 0.0037799 -4.31496e-19)
(0.410656 0.00634988 4.29658e-19)
(0.412334 0.00894675 -1.83281e-22)
(0.414595 0.011582 -8.53089e-19)
(0.417459 0.0142679 0)
(0.420951 0.017017 0)
(0.425101 0.0198433 0)
(0.429947 0.0227617 -3.38072e-18)
(0.435534 0.0257886 -1.68765e-18)
(0.441915 0.0289423 0)
(0.449155 0.0322432 0)
(0.457331 0.0357145 -3.35554e-18)
(0.466531 0.0393826 0)
(0.476864 0.0432778 0)
(0.488456 0.0474354 6.64679e-18)
(0.50146 0.051897 -3.30396e-18)
(0.516056 0.0567112 -6.56018e-18)
(0.532467 0.0619368 2.19887e-21)
(0.550964 0.0676438 6.40601e-18)
(0.571851 0.0739162 3.14318e-18)
(0.595636 0.0808654 0)
(0.622469 0.0885861 2.96675e-18)
(0.654153 0.0973548 5.67849e-18)
(0.688211 0.10696 5.30244e-18)
(0.734367 0.118814 -4.91485e-18)
(0.773791 0.129722 -4.1605e-18)
(0.853865 0.148602 3.70663e-18)
(0.884234 0.153751 -1.92671e-18)
(1.05637 0.176283 -2.05048e-18)
(0.916892 0.0628056 1.2111e-19)
(0.774628 -0.0951594 5.3378e-18)
(0.72222 -0.165782 -7.99026e-21)
(0.716016 -0.160336 -2.07559e-21)
(0.70289 -0.132289 0)
(0.67577 -0.111733 0)
(0.646298 -0.099203 -8.69257e-22)
(0.618737 -0.0896563 0)
(0.593641 -0.0813069 0)
(0.571095 -0.07391 -7.33811e-22)
(0.550879 -0.0673418 0)
(0.532772 -0.0614565 0)
(0.516574 -0.0561284 4.12758e-18)
(0.502088 -0.051262 0)
(0.489132 -0.0467824 0)
(0.47755 -0.0426302 0)
(0.467205 -0.0387565 0)
(0.45798 -0.0351211 -5.13042e-22)
(0.449773 -0.0316901 -1.91928e-18)
(0.442498 -0.028435 3.79444e-18)
(0.436082 -0.025331 2.48721e-22)
(0.430461 -0.0223565 1.85663e-18)
(0.425583 -0.0194926 0)
(0.421402 -0.0167224 1.82098e-18)
(0.417881 -0.0140305 0)
(0.414991 -0.0114031 -8.95236e-19)
(0.412704 -0.00882723 1.35482e-22)
(0.411004 -0.00629078 0)
(0.409875 -0.00378232 0)
(0.409309 -0.00129084 1.87072e-23)
(0.4093 0.00119428 -1.94659e-23)
(0.409849 0.00368425 2.15661e-19)
(0.410961 0.00618935 0)
(0.412643 0.00872067 -8.55892e-19)
(0.414911 0.0112895 8.53075e-19)
(0.417784 0.0139076 0)
(0.421286 0.0165876 -1.69662e-18)
(0.425448 0.0193428 0)
(0.430307 0.0221879 4.76493e-22)
(0.43591 0.0251389 0)
(0.44231 0.0282136 1.68371e-18)
(0.449571 0.0314321 1.68065e-18)
(0.45777 0.0348168 1.26459e-21)
(0.466997 0.0383936 -3.34597e-18)
(0.47736 0.0421921 0)
(0.488985 0.0462466 -1.61911e-21)
(0.502026 0.050598 3.30425e-18)
(0.516665 0.0552934 1.946e-21)
(0.533125 0.0603905 3.24631e-18)
(0.551676 0.0659576 -2.37969e-21)
(0.572628 0.0720767 -2.64871e-21)
(0.596487 0.0788566 0)
(0.623412 0.0863894 0)
(0.655199 0.0949474 0)
(0.689417 0.104314 0)
(0.735707 0.115894 0)
(0.775508 0.126469 4.13929e-18)
(0.855591 0.144951 0)
(0.887211 0.149535 0)
(1.05764 0.17089 -2.01363e-18)
(0.923802 0.0692962 -3.24564e-18)
(0.786987 -0.091905 0)
(0.730043 -0.16524 -9.61425e-21)
(0.719363 -0.160107 -7.17762e-22)
(0.704396 -0.131065 0)
(0.676904 -0.10984 4.15043e-18)
(0.647356 -0.0971607 -4.22813e-18)
(0.619702 -0.0876723 0)
(0.594507 -0.0794278 0)
(0.571878 -0.0721477 -4.244e-18)
(0.551593 -0.0657005 0)
(0.533427 -0.0599352 0)
(0.517179 -0.0547235 -4.12796e-18)
(0.502649 -0.0499682 0)
(0.489654 -0.0455943 -4.02976e-18)
(0.478038 -0.0415424 0)
(0.467663 -0.0377637 0)
(0.458411 -0.0342188 -4.97867e-22)
(0.45018 -0.030874 0)
(0.442885 -0.0277013 -1.89713e-18)
(0.43645 -0.0246763 1.8763e-18)
(0.430814 -0.0217779 -3.71303e-18)
(0.425922 -0.0189876 1.83794e-18)
(0.421729 -0.0162888 -1.82096e-18)
(0.418198 -0.0136665 0)
(0.415299 -0.0111071 -8.94963e-19)
(0.413007 -0.00859798 1.77646e-18)
(0.411302 -0.00612739 0)
(0.41017 -0.00368414 -2.19077e-19)
(0.409602 -0.00125745 1.0892e-19)
(0.409593 0.00116302 -1.08349e-19)
(0.410144 0.00358818 -2.15656e-19)
(0.411258 0.00602811 0)
(0.412945 0.0084936 -8.55524e-19)
(0.41522 0.0109956 8.5269e-19)
(0.4181 0.0135458 0)
(0.421612 0.0161562 1.69661e-18)
(0.425785 0.01884 0)
(0.430659 0.0216114 1.68964e-18)
(0.436277 0.0244862 0)
(0.442695 0.0274816 -1.68374e-18)
(0.449976 0.0306171 -1.68069e-18)
(0.458198 0.0339148 1.23297e-21)
(0.46745 0.0373997 3.34611e-18)
(0.477842 0.0411009 0)
(0.4895 0.0450519 -3.32142e-18)
(0.502578 0.0492922 0)
(0.517258 0.0538681 3.27784e-18)
(0.533764 0.0588357 0)
(0.552368 0.0642616 -3.20038e-18)
(0.57338 0.0702259 -6.28074e-18)
(0.597307 0.0768346 0)
(0.624314 0.0841767 0)
(0.656189 0.0925198 0)
(0.69054 0.101643 2.64e-18)
(0.736922 0.112937 0)
(0.777021 0.123166 -1.02591e-20)
(0.85699 0.141214 0)
(0.889635 0.145224 1.89352e-18)
(1.05812 0.165415 2.01109e-18)
(0.929828 0.0754981 0)
(0.798204 -0.0884071 5.37695e-18)
(0.737414 -0.164349 6.60184e-18)
(0.722615 -0.159652 5.94838e-22)
(0.70588 -0.129759 0)
(0.678009 -0.107923 -4.14952e-18)
(0.648382 -0.0951041 0)
(0.620641 -0.0856742 4.25806e-18)
(0.595352 -0.0775358 4.26093e-18)
(0.572642 -0.0703743 4.24322e-18)
(0.55229 -0.0640495 4.21208e-18)
(0.534067 -0.0584055 4.17234e-18)
(0.517769 -0.053311 0)
(0.503196 -0.0486677 0)
(0.490163 -0.0444002 4.03002e-18)
(0.478514 -0.0404491 0)
(0.468109 -0.0367662 0)
(0.458831 -0.0333121 -3.88368e-18)
(0.450578 -0.030054 0)
(0.443262 -0.0269641 -1.89668e-18)
(0.436809 -0.0240186 0)
(0.431157 -0.0211967 1.8564e-18)
(0.426251 -0.0184803 -1.83794e-18)
(0.422047 -0.0158532 0)
(0.418507 -0.0133008 0)
(0.4156 -0.0108097 1.25265e-22)
(0.413301 -0.00836774 -8.88152e-19)
(0.411591 -0.0059633 0)
(0.410456 -0.00358553 2.19073e-19)
(0.409887 -0.00122392 1.08882e-19)
(0.409878 0.00113164 -1.08309e-19)
(0.41043 0.00349171 0)
(0.411547 0.00586618 0)
(0.413239 0.00826556 1.69621e-22)
(0.41552 0.0107005 -1.78639e-22)
(0.418408 0.0131824 0)
(0.421929 0.0157229 0)
(0.426114 0.018335 1.69205e-18)
(0.431001 0.0210324 0)
(0.436634 0.0238305 0)
(0.443069 0.0267462 0)
(0.45037 0.0297984 0)
(0.458615 0.0330086 3.35337e-18)
(0.467892 0.0364012 3.34363e-18)
(0.478313 0.0400045 0)
(0.490002 0.0438512 0)
(0.503116 0.0479799 3.29964e-18)
(0.517836 0.0524355 0)
(0.534387 0.0572728 0)
(0.553042 0.0625566 -3.19629e-18)
(0.574111 0.0683648 3.13966e-18)
(0.598104 0.074801 0)
(0.625188 0.0819507 0)
(0.657143 0.0900762 0)
(0.691614 0.098952 -2.64094e-18)
(0.738066 0.109954 2.43938e-18)
(0.778423 0.119834 -8.25486e-18)
(0.858213 0.137424 0)
(0.891736 0.140872 -1.89275e-18)
(1.05814 0.159927 -1.97938e-18)
(0.935174 0.081414 0)
(0.80855 -0.0847331 -5.36796e-18)
(0.744466 -0.16316 0)
(0.725837 -0.158996 -1.10583e-17)
(0.707385 -0.128379 0)
(0.679114 -0.105986 -4.14793e-18)
(0.649394 -0.0930351 0)
(0.621562 -0.0836633 -4.25848e-18)
(0.59618 -0.0756318 -4.26145e-18)
(0.573391 -0.0685902 -4.24375e-18)
(0.552972 -0.0623892 -4.21257e-18)
(0.534693 -0.0568675 -4.17278e-18)
(0.518346 -0.0518911 0)
(0.50373 -0.0473606 0)
(0.49066 -0.0432002 0)
(0.478978 -0.0393506 0)
(0.468544 -0.0357639 0)
(0.459241 -0.0324014 1.94143e-18)
(0.450965 -0.0292304 0)
(0.443629 -0.0262237 1.89671e-18)
(0.437159 -0.023358 0)
(0.431492 -0.020613 1.85595e-18)
(0.426573 -0.0179709 1.83747e-18)
(0.422357 -0.0154159 0)
(0.418807 -0.0129336 9.02098e-19)
(0.415892 -0.0105112 8.94815e-19)
(0.413587 -0.00813654 8.87885e-19)
(0.411873 -0.00579853 0)
(0.410735 -0.00348651 -2.19001e-19)
(0.410164 -0.00119025 -2.17742e-19)
(0.410155 0.00110012 2.16596e-19)
(0.410709 0.00339485 2.15532e-19)
(0.411829 0.00570359 0)