/*--------------------------------*- C++ -*----------------------------------*\
| =========                 |                                                 |
| \\      /  F ield         | OpenFOAM: The Open Source CFD Toolbox           |
|  \\    /   O peration     | Version:  2.4.0                                 |
|   \\  /    A nd           | Web:      www.OpenFOAM.org                      |
|    \\/     M anipulation  |                                                 |
\*---------------------------------------------------------------------------*/
FoamFile
{
    version     2.0;
    format      ascii;
    class       volScalarField;
    location    "0.84";
    object      p;
}
// * * * * * * * * * * * * * * * * * * * * * * * * * * * * * * * * * * * * * //

dimensions      [0 2 -2 0 0 0 0];

internalField   nonuniform List<scalar> 
1600
(
6.0545e-06
-0.000303102
-0.00165814
-0.00396442
-0.0069215
-0.0102351
-0.013619
-0.0168001
-0.0195218
-0.0215462
-0.0226563
-0.0226587
-0.0213876
-0.0187101
-0.0145325
-0.00880767
-0.00154463
0.00718115
0.0172157
0.0283128
0.000322724
1.19593e-05
-0.00112526
-0.00300067
-0.00540019
-0.00810872
-0.0108992
-0.01354
-0.0158038
-0.0174741
-0.0183487
-0.0182447
-0.0170033
-0.014495
-0.0106266
-0.00534832
0.00133713
0.00936451
0.0185949
0.0288036
0.00167773
0.00114957
7.20907e-06
-0.00168227
-0.00377473
-0.00610554
-0.008492
-0.0107405
-0.0126547
-0.0140419
-0.0147189
-0.0145173
-0.0132886
-0.0109103
-0.0072926
-0.00238574
0.00381142
0.0112417
0.0197792
0.0292181
0.00399754
0.00303441
0.00168321
-2.7083e-05
-0.00202705
-0.00418642
-0.00635403
-0.00836796
-0.0100595
-0.0112594
-0.0118033
-0.0115382
-0.0103272
-0.00805612
-0.00464015
-3.09256e-05
0.00577489
0.0127263
0.0207082
0.0295306
0.00701633
0.00547726
0.00377869
0.00191468
-0.000126212
-0.00224262
-0.00430836
-0.00618918
-0.00774196
-0.0088195
-0.00927659
-0.00897565
-0.00779234
-0.00562164
-0.00238438
0.00196542
0.00743247
0.0139711
0.0214757
0.0297706
0.0104859
0.00829553
0.00615286
0.00403188
0.00184301
-0.000336143
-0.00239824
-0.00423235
-0.00571818
-0.00672918
-0.00713846
-0.00682412
-0.00567471
-0.00359501
-0.000512494
0.00361565
0.00879455
0.0149829
0.0220833
0.0299329
0.014174
0.0113002
0.00864938
0.00619239
0.00376857
0.00143691
-0.000708034
-0.0025737
-0.00405913
-0.00505604
-0.00545437
-0.00514722
-0.00403581
-0.00203502
0.000920573
0.00486987
0.00981756
0.0157255
0.0225035
0.0299995
0.0178641
0.0142981
0.0110995
0.00824973
0.00552489
0.00296958
0.00067084
-0.00129234
-0.00283457
-0.003863
-0.00428234
-0.00399935
-0.00292719
-0.000990527
0.00186886
0.00568556
0.0104631
0.0161657
0.0227089
0.0299497
0.0213502
0.0170944
0.0133239
0.0100416
0.00696702
0.00413368
0.00162546
-0.000487874
-0.00213289
-0.00322923
-0.00369409
-0.00344612
-0.00240932
-0.000517431
0.00228079
0.00601553
0.0106888
0.0162661
0.0226676
0.0297578
0.0244311
0.0194906
0.0151324
0.0113891
0.00792908
0.00477702
0.00201709
-0.000286429
-0.00206881
-0.00325935
-0.0037853
-0.00357539
-0.00256297
-0.000689976
0.00208842
0.00579811
0.0104393
0.0159784
0.0223389
0.0293911
0.0269019
0.0212785
0.0163198
0.0120943
0.00822252
0.004722
0.00167983
-0.000842155
-0.00278507
-0.00408527
-0.00467783
-0.00449959
-0.00349179
-0.00160339
0.00120472
0.00495449
0.00964428
0.0152409
0.0216705
0.0288075
0.0285444
0.0222339
0.0166611
0.0119355
0.00763202
0.00376187
0.000416988
-0.00234076
-0.00445596
-0.00586983
-0.00652321
-0.00635924
-0.00532557
-0.00337702
-0.000479387
0.00338587
0.00821543
0.0139764
0.0205966
0.0279539
0.0291179
0.0221072
0.015903
0.0106602
0.00590913
0.00165477
-0.00200452
-0.00500494
-0.00729266
-0.00881196
-0.00950771
-0.00932784
-0.00822502
-0.00615888
-0.00309923
0.000969608
0.00604295
0.0120881
0.0190347
0.0267629
0.0283467
0.0206127
0.0137541
0.00797604
0.00276358
-0.00188433
-0.00586181
-0.0091016
-0.0115501
-0.0131532
-0.0138586
-0.0136177
-0.0123872
-0.0101306
-0.0068211
-0.00244517
0.00299155
0.00945692
0.0168824
0.0251502
0.0259071
0.0174153
0.00987225
0.00353812
-0.0021483
-0.00719453
-0.0114862
-0.0149513
-0.0175356
-0.0191858
-0.0198513
-0.0194865
-0.0180515
-0.0155131
-0.0118471
-0.00704196
-0.00110358
0.00593699
0.0140136
0.0230111
0.0214104
0.0121138
0.00384776
-0.00306652
-0.00923878
-0.0146834
-0.0192765
-0.0229408
-0.0256204
-0.0272626
-0.0278186
-0.0272454
-0.0255064
-0.0225718
-0.0184201
-0.013041
-0.00644041
0.00135267
0.0102757
0.0202178
0.0143826
0.00422003
-0.00481729
-0.0123397
-0.0190087
-0.0248458
-0.0297168
-0.0335384
-0.0362533
-0.0378095
-0.0381604
-0.0372667
-0.0350959
-0.0316222
-0.0268272
-0.0207022
-0.0132523
-0.00450337
0.00548761
0.0166169
0.00423821
-0.00686853
-0.0167368
-0.0248996
-0.0320738
-0.0382889
-0.0433992
-0.0473151
-0.0499785
-0.0513394
-0.0513554
-0.0499927
-0.047225
-0.0430325
-0.0374013
-0.0303247
-0.0218069
-0.0118688
-0.000558828
0.0120305
-0.00975516
-0.0219055
-0.0326785
-0.0415181
-0.0492015
-0.0557664
-0.0610546
-0.0649704
-0.0674568
-0.0684687
-0.0679716
-0.065941
-0.0623611
-0.0572215
-0.0505154
-0.0422399
-0.0323979
-0.0210033
-0.00809192
0.0062615
-0.0285234
-0.0418507
-0.0536205
-0.0631767
-0.0713642
-0.0782278
-0.0835959
-0.0873684
-0.0894934
-0.0899364
-0.0886771
-0.0857081
-0.0810306
-0.0746496
-0.0665705
-0.0567964
-0.0453288
-0.0321723
-0.0173439
-0.000891463
0.039904
0.0511134
0.0613374
0.0702866
0.0777637
0.0836579
0.0879369
0.0906377
0.0918571
0.091741
0.0904752
0.0882762
0.0853841
0.0820571
0.0785668
0.075193
0.0722245
0.0699458
0.0686395
0.0683711
0.0394668
0.0497735
0.059169
0.0673908
0.0742623
0.0796879
0.0836447
0.0861743
0.0873728
0.087381
0.086375
0.0845576
0.0821501
0.0793859
0.0765041
0.0737421
0.0713269
0.0694676
0.068368
0.0681028
0.039076
0.0486039
0.0572912
0.0648981
0.0712647
0.0763063
0.0800061
0.0824062
0.0835991
0.0837172
0.0829243
0.0814065
0.079364
0.0770042
0.074534
0.0721528
0.0700435
0.0683671
0.0672655
0.0668007
0.0387454
0.0476538
0.0557806
0.0629034
0.0688745
0.0736165
0.0771151
0.0794113
0.0805919
0.0807805
0.0801279
0.078804
0.0769893
0.0748674
0.0726174
0.0704077
0.0683911
0.0666962
0.0653963
0.0645185
0.0384376
0.0468201
0.0544728
0.0611873
0.0668253
0.0713144
0.0746412
0.0768437
0.0780024
0.0782312
0.0776683
0.0764675
0.0747905
0.0727991
0.0706477
0.0684782
0.0664197
0.064574
0.062938
0.0615058
0.0381396
0.046083
0.0533425
0.0597207
0.0650862
0.0693691
0.0725552
0.0746781
0.0758107
0.0760568
0.0755417
0.074404
0.0727878
0.0708354
0.0686797
0.0664408
0.0642307
0.0621294
0.0600589
0.0579932
0.0378434
0.045444
0.0524001
0.0585225
0.0636836
0.0678137
0.0708957
0.0729575
0.0740638
0.0743078
0.0738025
0.0726724
0.0710462
0.0690495
0.066798
0.0643955
0.0619429
0.0595038
0.0569326
0.0541998
0.0375352
0.0448965
0.0516461
0.0575994
0.0626298
0.0666659
0.0696855
0.0717097
0.0727944
0.0730227
0.0724959
0.0713263
0.0696295
0.0675181
0.0650948
0.0624521
0.0596859
0.0568478
0.0537322
0.05032
0.0371963
0.0444288
0.0510756
0.0569533
0.061934
0.0659416
0.0689478
0.0709655
0.0720416
0.072249
0.0716792
0.0704337
0.068618
0.0663351
0.0636787
0.0607354
0.0576008
0.0543181
0.0506287
0.0465346
0.0368025
0.0440258
0.0506827
0.0565881
0.0616095
0.0656643
0.0687161
0.0707687
0.0718596
0.0720525
0.0714294
0.0700837
0.0681134
0.0656152
0.0626779
0.0593864
0.0558401
0.0520772
0.047791
0.0430131
0.036323
0.0436682
0.0504601
0.0565088
0.0616743
0.065865
0.0690348
0.0711773
0.0723201
0.0725179
0.0718449
0.0703879
0.0682403
0.0654955
0.0622409
0.0585638
0.0545706
0.0502966
0.045391
0.0399214
0.035718
0.0433307
0.050398
0.0567213
0.0621506
0.0665829
0.06996
0.0722643
0.073513
0.0737518
0.0730479
0.0714836
0.0691495
0.0661388
0.0625408
0.058448
0.0539774
0.0491627
0.0436106
0.0374306
0.034937
0.0429805
0.050482
0.0572312
0.0630646
0.0678653
0.0715609
0.0741206
0.0755501
0.075886
0.0751892
0.0735383
0.0710236
0.06774
0.0637815
0.059249
0.0542723
0.0488848
0.042651
0.0357278
0.0339153
0.0425745
0.0506921
0.0580427
0.0644465
0.0697691
0.0739214
0.076857
0.0785687
0.0790829
0.0784538
0.0767574
0.0740846
0.0705345
0.0662075
0.0612158
0.0557045
0.0497074
0.0427454
0.0350291
0.0325719
0.042057
0.051
0.0591573
0.0663292
0.0723606
0.0771418
0.0806082
0.0827365
0.0835412
0.0830691
0.0813929
0.0786052
0.0748102
0.070117
0.0646512
0.0585758
0.0519257
0.0441752
0.0355962
0.0308057
0.0413567
0.051367
0.0605719
0.0687481
0.0757159
0.081341
0.0855356
0.0882571
0.0895047
0.0893151
0.0877568
0.0849234
0.0809249
0.0758806
0.0699316
0.0632618
0.0559072
0.047292
0.037758
0.0284939
0.0403843
0.0517412
0.0622764
0.0717396
0.0799215
0.0866582
0.091833
0.0953782
0.0972726
0.0975388
0.0962378
0.0934627
0.089329
0.0839665
0.0775344
0.07024
0.0621217
0.0525471
0.0419402
0.0254914
0.0390318
0.0520565
0.0642527
0.0753399
0.0850745
0.0932557
0.0997313
0.1044
0.107213
0.108172
0.107325
0.10476
0.100597
0.0949758
0.0880754
0.0801299
0.0711806
0.0605317
0.0487043
0.0216346
0.0371732
0.0522315
0.0664725
0.0795832
0.0912805
0.10132
0.109503
0.115686
0.119779
0.121754
0.121636
0.119503
0.115471
0.109691
0.102362
0.0937486
0.0838955
0.0720348
0.0588044
0.0167538
0.0346751
0.0521772
0.0689023
0.0845049
0.0986584
0.111066
0.121473
0.129675
0.135532
0.138964
0.139962
0.13858
0.134925
0.129149
0.121472
0.112193
0.101363
0.0881281
0.0732651
-0.0527882
-0.067466
-0.0803279
-0.0906268
-0.099289
-0.106361
-0.111657
-0.115077
-0.116581
-0.116155
-0.113805
-0.109549
-0.103418
-0.0954407
-0.0856411
-0.0740324
-0.0606154
-0.0453817
-0.0283225
-0.00944675
-0.0825139
-0.098725
-0.112762
-0.123801
-0.132867
-0.14
-0.145003
-0.147784
-0.148329
-0.146658
-0.142816
-0.136869
-0.128887
-0.118936
-0.107067
-0.0933071
-0.077658
-0.0600942
-0.0405727
-0.0190502
-0.11764
-0.135582
-0.150887
-0.162646
-0.171995
-0.178972
-0.183372
-0.185128
-0.184272
-0.180881
-0.175064
-0.166952
-0.156676
-0.144351
-0.130066
-0.113866
-0.0957502
-0.0756732
-0.0535474
-0.0292623
-0.158632
-0.178575
-0.195273
-0.207715
-0.217169
-0.223679
-0.227045
-0.227253
-0.224411
-0.218688
-0.210289
-0.199437
-0.186346
-0.171197
-0.154121
-0.135185
-0.114385
-0.0916453
-0.0668226
-0.0397232
-0.20612
-0.228434
-0.246687
-0.259737
-0.269024
-0.274611
-0.276338
-0.274284
-0.268683
-0.259843
-0.24811
-0.233831
-0.217326
-0.198855
-0.178598
-0.15664
-0.132966
-0.107459
-0.0799069
-0.050013
-0.260971
-0.286164
-0.306168
-0.31968
-0.32837
-0.332364
-0.331594
-0.326305
-0.31693
-0.303983
-0.287999
-0.26949
-0.248902
-0.226582
-0.202756
-0.177518
-0.150828
-0.122512
-0.0922687
-0.0596816
-0.324407
-0.353167
-0.375142
-0.38883
-0.396242
-0.397647
-0.393166
-0.383323
-0.368858
-0.350571
-0.329249
-0.305602
-0.280216
-0.25352
-0.225772
-0.197054
-0.167278
-0.136189
-0.103377
-0.0682869
-0.398162
-0.431416
-0.455569
-0.468893
-0.473936
-0.471266
-0.461363
-0.445201
-0.423966
-0.398847
-0.370941
-0.341178
-0.310275
-0.278721
-0.246774
-0.214468
-0.181633
-0.147906
-0.112746
-0.0754365
-0.48473
-0.523721
-0.550164
-0.56212
-0.563041
-0.554084
-0.536368
-0.511557
-0.481462
-0.447766
-0.411911
-0.375039
-0.337962
-0.301176
-0.26488
-0.229012
-0.193273
-0.15716
-0.119974
-0.0808269
-0.587769
-0.634136
-0.66269
-0.671436
-0.665419
-0.646905
-0.618075
-0.581612
-0.540144
-0.49592
-0.450718
-0.405828
-0.362073
-0.319862
-0.279254
-0.24002
-0.201684
-0.163565
-0.124787
-0.0842744
-0.712769
-0.768609
-0.798379
-0.800564
-0.783104
-0.750249
-0.705849
-0.653986
-0.598258
-0.541471
-0.485634
-0.432037
-0.381361
-0.333797
-0.289156
-0.246959
-0.206501
-0.166889
-0.127053
-0.0857336
-0.868278
-0.936034
-0.964468
-0.954047
-0.918008
-0.863952
-0.798156
-0.726432
-0.653354
-0.582102
-0.514658
-0.452054
-0.394604
-0.342106
-0.293997
-0.249468
-0.207534
-0.167068
-0.126802
-0.0852991
-1.06826
-1.14997
-1.17082
-1.13703
-1.07132
-0.986523
-0.892058
-0.795526
-0.702152
-0.615008
-0.535582
-0.46426
-0.400696
-0.344095
-0.293396
-0.247392
-0.204786
-0.164211
-0.124211
-0.0831922
-1.33702
-1.43141
-1.43035
-1.35437
-1.24227
-1.11409
-0.982521
-0.856334
-0.740456
-0.636954
-0.546107
-0.467143
-0.398737
-0.33931
-0.287209
-0.240791
-0.198445
-0.158579
-0.119579
-0.0797317
-1.71972
-1.81285
-1.75812
-1.60808
-1.4257
-1.23869
-1.06152
-0.902086
-0.763169
-0.64443
-0.544012
-0.459445
-0.388134
-0.327595
-0.27555
-0.229934
-0.18886
-0.150558
-0.113298
-0.0752959
-2.30172
-2.34233
-2.16782
-1.89302
-1.60901
-1.3468
-1.1177
-0.924494
-0.764833
-0.634181
-0.527593
-0.440467
-0.368798
-0.309205
-0.258847
-0.215323
-0.176547
-0.140639
-0.10582
-0.0702894
-3.24095
-3.08282
-2.66493
-2.19351
-1.7713
-1.42
-1.13788
-0.915394
-0.741039
-0.604264
-0.496373
-0.410521
-0.341416
-0.284959
-0.237929
-0.197728
-0.162189
-0.129414
-0.097641
-0.0651137
-4.88668
-4.10418
-3.21279
-2.45923
-1.86975
-1.42806
-1.10368
-0.864884
-0.687077
-0.552835
-0.449952
-0.369866
-0.306496
-0.255424
-0.213331
-0.17763
-0.14621
-0.117251
-0.0890842
-0.060055
-8.14189
-5.42122
-3.58888
-2.49954
-1.78035
-1.29815
-0.974307
-0.750293
-0.589979
-0.472026
-0.383198
-0.314914
-0.261403
-0.218607
-0.183539
-0.153893
-0.12779
-0.103612
-0.0798666
-0.0550721
-13.5969
-6.67246
-3.39242
-2.08115
-1.39787
-0.99238
-0.740358
-0.572486
-0.453573
-0.36599
-0.299778
-0.24871
-0.208611
-0.176506
-0.150156
-0.127787
-0.107912
-0.0892154
-0.0704569
-0.0503821
0.0108155
0.0314903
0.05184
0.0714951
0.090081
0.107226
0.122574
0.135801
0.146629
0.154842
0.160293
0.162916
0.162721
0.15979
0.154269
0.146393
0.136496
0.124643
0.109878
0.09311
0.00405894
0.0277385
0.0512239
0.0741488
0.0961198
0.116724
0.135544
0.152177
0.166256
0.177467
0.185573
0.190419
0.191949
0.190197
0.185282
0.177442
0.16705
0.154187
0.137773
0.118842
-0.00319886
0.0236067
0.0503858
0.0767962
0.102442
0.126881
0.149639
0.170231
0.188187
0.203078
0.214543
0.222311
0.22622
0.226222
0.222381
0.214916
0.204229
0.19042
0.172262
0.150924
-0.0106729
0.0192988
0.0494477
0.0794815
0.109024
0.137622
0.164755
0.189861
0.212359
0.231684
0.247324
0.258849
0.265947
0.268439
0.26629
0.259665
0.248974
0.234328
0.214329
0.190299
-0.0180257
0.0150635
0.0485667
0.0822707
0.115848
0.148858
0.180756
0.210913
0.23864
0.263224
0.283971
0.300249
0.311539
0.317465
0.317831
0.312687
0.302414
0.287113
0.265174
0.238096
-0.0248962
0.0111664
0.0479087
0.085228
0.122877
0.160461
0.197443
0.233149
0.266798
0.297526
0.324434
0.346646
0.363368
0.373946
0.377925
0.375156
0.365919
0.350257
0.326283
0.295702
-0.0309357
0.00785823
0.0476212
0.0883917
0.130038
0.17225
0.214537
0.256224
0.296464
0.334261
0.368505
0.398038
0.42172
0.438518
0.447591
0.448454
0.441168
0.425623
0.399542
0.364863
-0.035846
0.00534039
0.0478025
0.0917478
0.137194
0.183961
0.231653
0.279649
0.327091
0.37289
0.415749
0.454206
0.486717
0.511753
0.527921
0.534202
0.530243
0.515603
0.487405
0.447838
-0.0394153
0.00373306
0.048474
0.0952059
0.144128
0.195232
0.248278
0.302768
0.357911
0.412604
0.465416
0.51461
0.558201
0.594051
0.62002
0.634277
0.635744
0.623325
0.593159
0.547654
-0.0415438
0.00305307
0.0495619
0.0985843
0.150526
0.205592
0.263759
0.324735
0.387901
0.452254
0.516346
0.57825
0.635565
0.685474
0.724881
0.750786
0.760917
0.752963
0.721347
0.66851
-0.0422578
0.00320483
0.0508919
0.101609
0.155983
0.214465
0.277308
0.344515
0.415763
0.490308
0.566866
0.6435
0.717528
0.785478
0.843141
0.885944
0.909767
0.910149
0.878429
0.816482
-0.0417061
0.00398729
0.0522004
0.103931
0.160025
0.221201
0.288034
0.360909
0.439935
0.52482
0.6147
0.707927
0.801835
0.892518
0.974658
1.04176
1.08707
1.10252
1.07388
1.00081
-0.0401422
0.00511578
0.0531596
0.105151
0.162143
0.225118
0.294999
0.37262
0.458651
0.553465
0.656934
0.768126
0.884919
1.0035
1.11782
1.21942
1.29813
1.34036
1.32195
1.23638
-0.0378931
0.00625496
0.0534136
0.104869
0.161844
0.225563
0.297294
0.378348
0.470048
0.573628
0.690037
0.819602
0.961514
1.11304
1.26843
1.41794
1.54784
1.63696
1.64454
1.54891
-0.0353194
0.00705961
0.0526213
0.102725
0.158709
0.221992
0.294139
0.376917
0.472328
0.582587
0.710013
0.856765
1.02432
1.2125
1.41791
1.63161
1.83796
2.00765
2.07531
1.98597
-0.0327719
0.0072263
0.0505194
0.0984772
0.152492
0.214094
0.285063
0.367531
0.464105
0.57797
0.712953
0.873491
1.06434
1.28976
1.55175
1.84688
2.16271
2.46608
2.6633
2.63649
-0.0305631
0.00653427
0.0469739
0.0920762
0.143212
0.201934
0.270112
0.350091
0.444896
0.558485
0.696071
0.864475
1.07242
1.33051
1.6503
2.04142
2.50507
3.01692
3.47166
3.66212
-0.0289482
0.00475705
0.0417916
0.0833659
0.130754
0.185427
0.2492
0.324419
0.414227
0.522944
0.656637
0.823966
1.03738
1.31469
1.68111
2.16949
2.81138
3.62095
4.57092
5.41794
-0.0281204
0.00146399
0.0342941
0.0713987
0.113865
0.162956
0.22025
0.287814
0.368468
0.46619
0.586779
0.738978
0.936395
1.20099
1.56989
2.10394
2.88634
4.05238
5.97705
8.81015
-0.0280355
-0.00304595
0.0250319
0.0569892
0.0936517
0.135972
0.185129
0.242659
0.310639
0.391987
0.490948
0.613986
0.771512
0.981787
1.2807
1.74014
2.49412
3.90417
7.30491
14.3543
)
;

boundaryField
{
    movingWall
    {
        type            zeroGradient;
    }
    fixedWalls
    {
        type            zeroGradient;
    }
    frontAndBack
    {
        type            empty;
    }
}


// ************************************************************************* //
