/*--------------------------------*- C++ -*----------------------------------*\
| =========                 |                                                 |
| \\      /  F ield         | OpenFOAM: The Open Source CFD Toolbox           |
|  \\    /   O peration     | Version:  2.4.0                                 |
|   \\  /    A nd           | Web:      www.OpenFOAM.org                      |
|    \\/     M anipulation  |                                                 |
\*---------------------------------------------------------------------------*/
FoamFile
{
    version     2.0;
    format      ascii;
    class       volScalarField;
    location    "5.5";
    object      p;
}
// * * * * * * * * * * * * * * * * * * * * * * * * * * * * * * * * * * * * * //

dimensions      [0 2 -2 0 0 0 0];

internalField   nonuniform List<scalar> 
6000
(
-0.119141
0.237683
0.194956
0.214834
0.207459
0.212271
0.209248
0.211227
0.209919
0.210641
0.21003
0.210247
0.210035
0.210195
0.210243
0.210429
0.210571
0.210771
0.21102
0.21141
0.21197
0.212751
0.213768
0.21504
0.216578
0.218397
0.220509
0.222923
0.225652
0.228704
0.232087
0.23581
0.239879
0.244296
0.249062
0.25417
0.259606
0.265354
0.271373
0.277632
0.284046
0.290581
0.297054
0.30348
0.309486
0.31523
0.319962
0.32429
0.32657
0.328729
0.326632
0.32622
0.316142
0.314331
0.28807
0.291399
0.227185
0.259393
0.0926457
0.230376
-0.092802
0.234267
0.195029
0.214681
0.20748
0.212257
0.209261
0.211226
0.209934
0.210654
0.210048
0.210261
0.210046
0.210204
0.210255
0.21045
0.210598
0.210801
0.211045
0.211428
0.211981
0.212755
0.213765
0.215029
0.216559
0.218371
0.220474
0.22288
0.225598
0.22864
0.232018
0.235734
0.239795
0.244203
0.248959
0.254056
0.25948
0.265213
0.271217
0.277458
0.28385
0.290361
0.296806
0.303199
0.309169
0.314875
0.31957
0.323847
0.326079
0.328166
0.326014
0.325493
0.315359
0.313369
0.287067
0.290062
0.226
0.257342
0.0912633
0.226838
-0.075914
0.230813
0.195058
0.214589
0.207488
0.212251
0.209267
0.211234
0.209949
0.210676
0.21007
0.210286
0.210065
0.210223
0.210278
0.210484
0.210642
0.210849
0.211091
0.211469
0.212015
0.212783
0.213786
0.215043
0.216565
0.218367
0.22046
0.222856
0.225564
0.228593
0.231954
0.235653
0.239696
0.244085
0.24882
0.253894
0.259293
0.265
0.270973
0.277183
0.283539
0.290012
0.296413
0.302762
0.308681
0.31434
0.31898
0.323204
0.325372
0.327401
0.325169
0.324585
0.314346
0.312281
0.285845
0.288722
0.224451
0.255557
0.0892269
0.223876
-0.0636912
0.226961
0.195269
0.214506
0.207488
0.212246
0.209272
0.211245
0.209962
0.2107
0.210091
0.210312
0.210084
0.210245
0.210303
0.21052
0.210685
0.210896
0.211135
0.211509
0.212051
0.212813
0.213809
0.215057
0.21657
0.218363
0.220446
0.22283
0.225525
0.228541
0.231886
0.235568
0.239592
0.24396
0.248672
0.253722
0.259095
0.264772
0.270714
0.276889
0.283208
0.289642
0.295999
0.302302
0.308169
0.313775
0.318355
0.322524
0.324617
0.326588
0.324258
0.323621
0.313239
0.31114
0.284478
0.287351
0.222686
0.253824
0.0867827
0.221178
-0.051884
0.222834
0.195651
0.214424
0.207487
0.212238
0.209277
0.211255
0.209973
0.210723
0.21011
0.210335
0.210102
0.210265
0.210325
0.21055
0.210721
0.210934
0.211172
0.211542
0.212079
0.212836
0.213825
0.215066
0.216571
0.218354
0.220427
0.2228
0.225483
0.228486
0.231817
0.235483
0.23949
0.24384
0.248531
0.253559
0.258907
0.264559
0.270471
0.276616
0.282901
0.289298
0.295614
0.301876
0.307693
0.313249
0.317768
0.321881
0.323898
0.32581
0.323375
0.322684
0.312145
0.310017
0.283093
0.285994
0.220861
0.252122
0.0842333
0.218683
-0.0402993
0.218598
0.19616
0.214328
0.207493
0.212226
0.209282
0.211263
0.209983
0.210742
0.210126
0.210356
0.210117
0.210283
0.210343
0.210574
0.210749
0.210964
0.2112
0.211568
0.212101
0.212852
0.213835
0.215069
0.216566
0.218341
0.220404
0.222767
0.22544
0.228431
0.231749
0.235401
0.239392
0.243726
0.248399
0.253407
0.258733
0.264361
0.270248
0.276366
0.282619
0.288984
0.295263
0.301486
0.307258
0.312765
0.317227
0.321285
0.323226
0.325079
0.322539
0.321792
0.311094
0.308934
0.28174
0.284672
0.219056
0.250454
0.0817303
0.216358
-0.0295586
0.21435
0.196699
0.214204
0.207513
0.21221
0.209287
0.21127
0.209991
0.210759
0.21014
0.210374
0.21013
0.210298
0.210358
0.210594
0.21077
0.210988
0.211223
0.211588
0.212118
0.212865
0.213842
0.215069
0.216558
0.218325
0.22038
0.222734
0.225396
0.228376
0.231682
0.235322
0.239299
0.243617
0.248274
0.253264
0.258571
0.264178
0.270042
0.276134
0.28236
0.288695
0.29494
0.301127
0.306857
0.312317
0.316724
0.320729
0.322597
0.324391
0.321748
0.320945
0.310088
0.307894
0.280432
0.283392
0.217296
0.248833
0.0793198
0.214201
-0.0197189
0.210165
0.197198
0.214062
0.20754
0.212191
0.209293
0.211276
0.209999
0.210773
0.210151
0.21039
0.210142
0.210311
0.210371
0.210609
0.210787
0.211007
0.211241
0.211605
0.212131
0.212873
0.213844
0.215065
0.216548
0.218307
0.220354
0.222699
0.225352
0.228322
0.231618
0.235245
0.23921
0.243514
0.248156
0.25313
0.25842
0.264008
0.26985
0.27592
0.28212
0.288428
0.294642
0.300795
0.306484
0.311902
0.316255
0.320209
0.322006
0.323742
0.320998
0.320139
0.309126
0.306898
0.279172
0.282158
0.21559
0.247266
0.0770134
0.212203
-0.0105502
0.206105
0.197605
0.213916
0.20756
0.212173
0.2093
0.21128
0.210006
0.210786
0.210161
0.210404
0.210151
0.210322
0.210381
0.210622
0.210801
0.211021
0.211255
0.211617
0.212141
0.212879
0.213845
0.21506
0.216536
0.218288
0.220327
0.222664
0.225309
0.228269
0.231555
0.235171
0.239125
0.243417
0.248045
0.253005
0.258278
0.263849
0.269672
0.275721
0.281898
0.28818
0.294366
0.300487
0.306139
0.311515
0.315818
0.319723
0.321451
0.323132
0.320288
0.319374
0.308208
0.305944
0.277959
0.28097
0.213942
0.245752
0.0748166
0.210348
-0.00189785
0.202209
0.197899
0.213766
0.207577
0.212156
0.209309
0.211283
0.210013
0.210798
0.210171
0.210416
0.21016
0.210332
0.210389
0.210632
0.21081
0.211032
0.211265
0.211627
0.212148
0.212882
0.213843
0.215052
0.216522
0.218267
0.2203
0.222629
0.225265
0.228218
0.231494
0.235101
0.239043
0.243324
0.24794
0.252886
0.258145
0.2637
0.269506
0.275536
0.281692
0.287951
0.29411
0.300202
0.305818
0.311156
0.315411
0.319269
0.320931
0.322557
0.319617
0.318648
0.307332
0.305032
0.276795
0.279825
0.212355
0.244289
0.0727329
0.208622
0.00629078
0.198501
0.198075
0.213597
0.207614
0.212142
0.209321
0.211285
0.210021
0.210808
0.210179
0.210427
0.210167
0.210341
0.210395
0.210639
0.210817
0.21104
0.211274
0.211635
0.212153
0.212884
0.213839
0.215043
0.216507
0.218246
0.220272
0.222594
0.225223
0.228167
0.231435
0.235033
0.238966
0.243236
0.247841
0.252775
0.258021
0.263562
0.269352
0.275365
0.281501
0.287739
0.293874
0.299937
0.305521
0.310823
0.315032
0.318845
0.320442
0.322015
0.318982
0.317958
0.306497
0.304159
0.275679
0.278722
0.21083
0.242876
0.0707634
0.207009
0.0140444
0.194993
0.198135
0.213402
0.207682
0.212126
0.209336
0.211287
0.210029
0.210817
0.210187
0.210436
0.210173
0.210348
0.2104
0.210645
0.210823
0.211046
0.21128
0.21164
0.212156
0.212884
0.213835
0.215033
0.216491
0.218225
0.220244
0.22256
0.225182
0.228119
0.231378
0.234968
0.238892
0.243153
0.247747
0.252671
0.257904
0.263432
0.269208
0.275206
0.281324
0.287543
0.293654
0.299692
0.305245
0.310512
0.314679
0.318449
0.319984
0.321505
0.318381
0.317303
0.305701
0.303323
0.27461
0.277659
0.209368
0.241509
0.0689071
0.205494
0.0213981
0.191696
0.198087
0.213174
0.207783
0.212104
0.209357
0.21129
0.210038
0.210826
0.210194
0.210445
0.210179
0.210354
0.210405
0.210649
0.210826
0.21105
0.211284
0.211645
0.212159
0.212883
0.213829
0.215023
0.216475
0.218203
0.220217
0.222526
0.225142
0.228072
0.231324
0.234906
0.238822
0.243074
0.247659
0.252573
0.257795
0.263311
0.269074
0.275057
0.28116
0.28736
0.293451
0.299464
0.304988
0.310223
0.314349
0.318077
0.319553
0.321023
0.317813
0.316679
0.304943
0.302521
0.273586
0.276633
0.207967
0.240187
0.0671617
0.204067
0.028387
0.188616
0.197941
0.212907
0.207916
0.212067
0.209384
0.211293
0.210049
0.210835
0.210202
0.210453
0.210184
0.210359
0.210408
0.210652
0.210828
0.211054
0.211288
0.211648
0.21216
0.212881
0.213823
0.215012
0.21646
0.218182
0.22019
0.222494
0.225103
0.228027
0.231272
0.234847
0.238756
0.243
0.247576
0.25248
0.257693
0.263198
0.268949
0.274919
0.281007
0.28719
0.293262
0.299253
0.304749
0.309954
0.31404
0.317728
0.319148
0.320568
0.317273
0.316085
0.30422
0.301751
0.272607
0.275642
0.206627
0.238906
0.0655244
0.202715
0.0350389
0.185755
0.197707
0.212596
0.208063
0.212026
0.209413
0.2113
0.210062
0.210844
0.210211
0.210461
0.210189
0.210364
0.210411
0.210655
0.21083
0.211056
0.211291
0.211651
0.212161
0.212879
0.213817
0.215002
0.216444
0.218162
0.220164
0.222463
0.225066
0.227984
0.231223
0.234792
0.238693
0.24293
0.247498
0.252394
0.257597
0.263093
0.268833
0.274791
0.280865
0.287032
0.293086
0.299055
0.304527
0.309702
0.313751
0.3174
0.318765
0.320136
0.316762
0.315518
0.303531
0.301012
0.271669
0.274684
0.205347
0.237663
0.0639918
0.201428
0.0413754
0.18311
0.197398
0.212242
0.20821
0.211994
0.209441
0.211309
0.210077
0.210854
0.21022
0.210469
0.210194
0.210368
0.210413
0.210657
0.210832
0.211058
0.211293
0.211654
0.212162
0.212877
0.213812
0.214992
0.21643
0.218143
0.22014
0.222433
0.225031
0.227943
0.231177
0.234739
0.238634
0.242864
0.247425
0.252313
0.257508
0.262994
0.268724
0.274671
0.280732
0.286885
0.292922
0.298871
0.304319
0.309466
0.31348
0.317092
0.318405
0.319728
0.316276
0.314976
0.302872
0.3003
0.270772
0.273756
0.204125
0.236456
0.0625605
0.200198
0.0474151
0.180679
0.197027
0.211845
0.20835
0.211967
0.209468
0.211323
0.210097
0.210865
0.210231
0.210477
0.2102
0.210373
0.210416
0.21066
0.210833
0.211061
0.211296
0.211657
0.212164
0.212876
0.213807
0.214983
0.216417
0.218125
0.220117
0.222406
0.224999
0.227906
0.231134
0.23469
0.238579
0.242803
0.247357
0.252238
0.257425
0.262902
0.268623
0.27456
0.280609
0.286749
0.292769
0.2987
0.304124
0.309246
0.313226
0.316801
0.318065
0.319339
0.315814
0.314458
0.302244
0.299615
0.269914
0.272856
0.202961
0.235282
0.0612272
0.199015
0.0531745
0.178456
0.196606
0.211411
0.208476
0.211949
0.209499
0.211341
0.210121
0.210878
0.210244
0.210487
0.210206
0.210378
0.210419
0.210663
0.210836
0.211064
0.2113
0.21166
0.212166
0.212876
0.213803
0.214975
0.216405
0.218109
0.220097
0.222381
0.224969
0.227871
0.231094
0.234645
0.238528
0.242746
0.247294
0.252167
0.257347
0.262817
0.268529
0.274456
0.280494
0.286621
0.292627
0.29854
0.303943
0.309039
0.312988
0.316527
0.317743
0.31897
0.315375
0.313961
0.301643
0.298953
0.269093
0.271983
0.201852
0.234139
0.0599883
0.197873
0.0586686
0.176434
0.196147
0.210945
0.208583
0.211935
0.209541
0.211359
0.210151
0.210894
0.210259
0.210497
0.210214
0.210383
0.210423
0.210666
0.210839
0.211068
0.211305
0.211665
0.21217
0.212877
0.213801
0.21497
0.216395
0.218095
0.220079
0.222358
0.224942
0.227839
0.231057
0.234603
0.238481
0.242693
0.247235
0.252102
0.257275
0.262738
0.268441
0.274359
0.280387
0.286502
0.292494
0.29839
0.303773
0.308845
0.312763
0.316268
0.317438
0.318619
0.314957
0.313485
0.301069
0.298315
0.268309
0.271135
0.200797
0.233026
0.0588405
0.196765
0.063911
0.174605
0.195663
0.210452
0.208668
0.211924
0.209601
0.211371
0.210187
0.210913
0.210278
0.210509
0.210224
0.21039
0.210428
0.210671
0.210844
0.211073
0.211311
0.211672
0.212175
0.21288
0.213801
0.214966
0.216387
0.218083
0.220063
0.222339
0.224918
0.227811
0.231024
0.234566
0.238439
0.242645
0.247182
0.252043
0.257209
0.262665
0.26836
0.27427
0.280288
0.286392
0.292371
0.29825
0.303614
0.308662
0.312551
0.316022
0.317149
0.318283
0.314558
0.313027
0.30052
0.297697
0.267559
0.27031
0.199796
0.231939
0.0577807
0.195685
0.0689141
0.172961
0.195163
0.209939
0.208728
0.21191
0.209679
0.211381
0.210227
0.210938
0.210301
0.210524
0.210235
0.210398
0.210435
0.210677
0.21085
0.211081
0.211319
0.21168
0.212183
0.212886
0.213804
0.214965
0.216383
0.218075
0.220051
0.222322
0.224897
0.227786
0.230996
0.234532
0.238401
0.242602
0.247133
0.251988
0.257148
0.262597
0.268286
0.274187
0.280196
0.286289
0.292256
0.298119
0.303465
0.30849
0.312352
0.31579
0.316875
0.317963
0.314178
0.312587
0.299995
0.2971
0.266843
0.269507
0.198846
0.230877
0.0568057
0.194627
0.0736896
0.171493
0.194656
0.209413
0.208762
0.211892
0.20977
0.211392
0.210272
0.210968
0.210328
0.210543
0.21025
0.210408
0.210443
0.210685
0.210858
0.21109
0.21133
0.211691
0.212193
0.212894
0.213809
0.214967
0.216381
0.218069
0.220042
0.222309
0.224881
0.227766
0.230971
0.234504
0.238367
0.242564
0.24709
0.25194
0.257094
0.262536
0.268217
0.274111
0.280111
0.286194
0.292148
0.297997
0.303325
0.308329
0.312164
0.315569
0.316614
0.317657
0.313815
0.312163
0.299493
0.296521
0.266158
0.268725
0.197946
0.229838
0.0559126
0.193588
0.0782485
0.170192
0.194152
0.20888
0.20877
0.211868
0.209871
0.21141
0.210318
0.211003
0.210362
0.210565
0.210268
0.210421
0.210454
0.210695
0.210869
0.211103
0.211344
0.211705
0.212206
0.212905
0.213817
0.214972
0.216383
0.218068
0.220037
0.222301
0.224869
0.22775
0.230951
0.23448
0.238339
0.242531
0.247052
0.251896
0.257044
0.262481
0.268155
0.274041
0.280033
0.286106
0.292049
0.297883
0.303195
0.308177
0.311987
0.31536
0.316367
0.317364
0.313468
0.311754
0.299012
0.295959
0.265506
0.267962
0.197096
0.228821
0.0550987
0.192561
0.0826013
0.169047
0.193656
0.208345
0.208753
0.211835
0.209982
0.211436
0.210367
0.211042
0.210402
0.210593
0.210291
0.210438
0.210468
0.210708
0.210883
0.211118
0.211361
0.211723
0.212223
0.21292
0.213829
0.214981
0.216389
0.21807
0.220036
0.222297
0.224861
0.227738
0.230936
0.234461
0.238316
0.242504
0.247019
0.251859
0.257001
0.262431
0.268099
0.273978
0.279962
0.286025
0.291957
0.297777
0.303073
0.308034
0.311819
0.315161
0.316132
0.317083
0.313136
0.31136
0.298552
0.295414
0.264883
0.267217
0.196294
0.227824
0.0543614
0.191545
0.0867581
0.16805
0.193174
0.207814
0.208713
0.211795
0.210099
0.21147
0.210422
0.211083
0.21045
0.210626
0.210319
0.210459
0.210486
0.210724
0.2109
0.211137
0.211382
0.211744
0.212243
0.212939
0.213846
0.214994
0.216399
0.218078
0.22004
0.222297
0.224858
0.227732
0.230927
0.234447
0.238298
0.242482
0.246993
0.251827
0.256964
0.262388
0.268049
0.273921
0.279897
0.28595
0.291872
0.297679
0.302958
0.307899
0.311661
0.314972
0.315908
0.316813
0.312819
0.310979
0.298112
0.294884
0.26429
0.266489
0.195538
0.226845
0.053698
0.190534
0.0907284
0.167192
0.192712
0.207293
0.208653
0.211746
0.21022
0.211512
0.210488
0.211128
0.210505
0.210667
0.210354
0.210485
0.210508
0.210744
0.210921
0.21116
0.211407
0.21177
0.212269
0.212962
0.213867
0.215013
0.216414
0.21809
0.220049
0.222303
0.224861
0.227732
0.230923
0.23444
0.238287
0.242466
0.246972
0.251801
0.256933
0.262351
0.268006
0.27387
0.279839
0.285882
0.291794
0.297587
0.302852
0.307772
0.311512
0.314791
0.315694
0.316554
0.312516
0.31061
0.297691
0.294369
0.263725
0.265778
0.194829
0.225884
0.0531063
0.189527
0.0945216
0.166462
0.192272
0.206785
0.208577
0.211689
0.210343
0.211561
0.210564
0.211175
0.210565
0.210714
0.210396
0.210517
0.210536
0.210769
0.210947
0.211188
0.211436
0.211801
0.212299
0.212991
0.213893
0.215037
0.216435
0.218108
0.220064
0.222315
0.22487
0.227737
0.230925
0.234439
0.238282
0.242456
0.246958
0.251782
0.256908
0.26232
0.267969
0.273826
0.279787
0.285821
0.291723
0.297502
0.302753
0.307653
0.311371
0.31462
0.315491
0.316305
0.312226
0.310254
0.297288
0.293868
0.263187
0.265083
0.194164
0.224939
0.052584
0.18852
0.0981464
0.165853
0.191857
0.206294
0.208488
0.211626
0.210465
0.211618
0.210653
0.211228
0.210631
0.210768
0.210446
0.210556
0.21057
0.210799
0.210977
0.21122
0.211471
0.211837
0.212335
0.213025
0.213925
0.215066
0.216462
0.218132
0.220085
0.222333
0.224885
0.227749
0.230934
0.234444
0.238283
0.242453
0.246951
0.251769
0.25689
0.262296
0.267938
0.273788
0.279741
0.285767
0.291658
0.297424
0.302661
0.307541
0.311237
0.314456
0.315297
0.316066
0.311948
0.309908
0.296902
0.29338
0.262677
0.264402
0.193543
0.224009
0.052129
0.187511
0.101612
0.165354
0.19147
0.205824
0.20839
0.21156
0.210586
0.211682
0.210755
0.211287
0.210703
0.21083
0.210504
0.210602
0.21061
0.210835
0.211013
0.211258
0.211511
0.211878
0.212376
0.213066
0.213964
0.215102
0.216495
0.218162
0.220112
0.222357
0.224906
0.227768
0.230949
0.234456
0.238291
0.242458
0.24695
0.251764
0.256879
0.262279
0.267914
0.273757
0.279702
0.285718
0.2916
0.297353
0.302575
0.307436
0.311112
0.3143
0.315113
0.315835
0.311681
0.309573
0.296533
0.292904
0.262193
0.263736
0.192966
0.223093
0.0517393
0.186498
0.104925
0.164959
0.191112
0.205375
0.208286
0.211492
0.210705
0.211752
0.210869
0.211355
0.210781
0.210898
0.210571
0.210657
0.210659
0.210877
0.211055
0.211301
0.211557
0.211926
0.212424
0.213113
0.214009
0.215145
0.216536
0.2182
0.220147
0.222389
0.224936
0.227794
0.230972
0.234476
0.238307
0.242469
0.246957
0.251765
0.256874
0.262268
0.267898
0.273733
0.27967
0.285677
0.291548
0.297288
0.302497
0.307338
0.310994
0.314152
0.314936
0.315613
0.311426
0.309248
0.296181
0.292441
0.261734
0.263083
0.192431
0.22219
0.051413
0.185478
0.108095
0.16466
0.190783
0.204951
0.208179
0.211424
0.210823
0.211827
0.210995
0.211433
0.210868
0.210973
0.210647
0.210721
0.210716
0.210928
0.211104
0.211351
0.21161
0.21198
0.212479
0.213167
0.214062
0.215195
0.216584
0.218245
0.22019
0.222429
0.224972
0.227828
0.231003
0.234503
0.238331
0.242488
0.246971
0.251774
0.256878
0.262265
0.267888
0.273715
0.279645
0.285642
0.291503
0.29723
0.302425
0.307247
0.310883
0.31401
0.314768
0.315399
0.311182
0.308933
0.295844
0.291989
0.2613
0.262443
0.191937
0.221299
0.0511484
0.18445
0.111128
0.164448
0.190485
0.204553
0.208073
0.211359
0.210939
0.211908
0.211132
0.211523
0.210965
0.211055
0.210731
0.210794
0.210783
0.210986
0.21116
0.211407
0.211669
0.212041
0.212541
0.213229
0.214122
0.215254
0.21664
0.218298
0.22024
0.222477
0.225018
0.227871
0.231043
0.234539
0.238363
0.242516
0.246994
0.251791
0.256889
0.26227
0.267885
0.273705
0.279626
0.285614
0.291465
0.297178
0.302359
0.307161
0.310778
0.313876
0.314608
0.315192
0.310948
0.308627
0.295522
0.291549
0.26089
0.261816
0.191483
0.22042
0.0509438
0.183413
0.114031
0.164317
0.190217
0.204181
0.207969
0.211299
0.211055
0.211995
0.21128
0.211625
0.211074
0.211144
0.210825
0.210877
0.210859
0.211053
0.211224
0.211471
0.211735
0.21211
0.212611
0.213298
0.214191
0.215321
0.216704
0.21836
0.220299
0.222533
0.225072
0.227922
0.231091
0.234584
0.238404
0.242552
0.247025
0.251817
0.256908
0.262282
0.267891
0.273702
0.279615
0.285592
0.291433
0.297133
0.3023
0.307082
0.31068
0.313747
0.314456
0.314993
0.310724
0.30833
0.295215
0.291119
0.260505
0.261202
0.19107
0.219551
0.0507976
0.182364
0.116812
0.16426
0.189978
0.203835
0.207871
0.211245
0.211172
0.212088
0.211437
0.21174
0.211195
0.211244
0.210927
0.210969
0.210945
0.21113
0.211297
0.211543
0.211809
0.212186
0.212689
0.213377
0.214268
0.215396
0.216778
0.218431
0.220368
0.222599
0.225135
0.227982
0.231148
0.234638
0.238453
0.242597
0.247065
0.251851
0.256936
0.262303
0.267904
0.273707
0.279611
0.285578
0.291408
0.297094
0.302247
0.307009
0.310588
0.313625
0.31431
0.3148
0.310509
0.308041
0.294923
0.2907
0.260142
0.260599
0.190696
0.218693
0.0507083
0.181304
0.119477
0.164272
0.189769
0.203517
0.207779
0.2112
0.211292
0.212189
0.211604
0.211867
0.211331
0.211354
0.211039
0.211071
0.211042
0.211218
0.21138
0.211624
0.211892
0.212271
0.212776
0.213464
0.214355
0.215481
0.216861
0.218512
0.220446
0.222675
0.225208
0.228053
0.231215
0.234701
0.238513
0.242652
0.247114
0.251894
0.256973
0.262332
0.267925
0.273719
0.279614
0.28557
0.29139
0.297061
0.3022
0.306942
0.310503
0.313509
0.314172
0.314614
0.310304
0.30776
0.294644
0.29029
0.259803
0.260008
0.19036
0.217844
0.0506745
0.18023
0.12203
0.164345
0.189589
0.203226
0.207697
0.211164
0.211416
0.212298
0.211779
0.212008
0.211482
0.211477
0.211162
0.211184
0.21115
0.211315
0.211473
0.211714
0.211983
0.212364
0.212871
0.21356
0.214451
0.215576
0.216954
0.218603
0.220534
0.222761
0.225291
0.228133
0.231293
0.234775
0.238583
0.242717
0.247174
0.251947
0.257019
0.26237
0.267955
0.27374
0.279626
0.285571
0.291378
0.297035
0.30216
0.306881
0.310424
0.313399
0.31404
0.314435
0.310107
0.307487
0.294378
0.289891
0.259486
0.259428
0.190062
0.217004
0.0506949
0.179142
0.124479
0.164476
0.189437
0.202962
0.207624
0.211139
0.211544
0.212418
0.211963
0.212162
0.211649
0.211615
0.211298
0.211307
0.211269
0.211424
0.211577
0.211814
0.212084
0.212467
0.212976
0.213666
0.214557
0.215682
0.217058
0.218705
0.220634
0.222858
0.225386
0.228225
0.231381
0.23486
0.238663
0.242792
0.247243
0.25201
0.257074
0.262418
0.267994
0.27377
0.279645
0.285578
0.291374
0.297016
0.302126
0.306826
0.310351
0.313294
0.313915
0.314262
0.309919
0.307222
0.294126
0.289501
0.259191
0.258859
0.189802
0.216173
0.0507681
0.178038
0.126828
0.164659
0.189313
0.202724
0.207562
0.211125
0.211679
0.212548
0.212157
0.212329
0.211831
0.211768
0.211448
0.211443
0.2114
0.211545
0.211691
0.211924
0.212195
0.212579
0.21309
0.213782
0.214674
0.215798
0.217173
0.218817
0.220744
0.222966
0.225492
0.228328
0.231481
0.234956
0.238754
0.242878
0.247323
0.252083
0.25714
0.262475
0.268042
0.273808
0.279673
0.285594
0.291377
0.297003
0.302099
0.306777
0.310283
0.313195
0.313796
0.314095
0.30974
0.306964
0.293887
0.28912
0.258917
0.258301
0.189578
0.21535
0.0508931
0.176919
0.129082
0.164889
0.189217
0.202513
0.207512
0.211123
0.21182
0.212691
0.212362
0.21251
0.212029
0.211939
0.211613
0.211592
0.211543
0.211678
0.211818
0.212046
0.212316
0.212702
0.213215
0.213908
0.214801
0.215925
0.217299
0.218942
0.220866
0.223086
0.225609
0.228443
0.231592
0.235063
0.238857
0.242976
0.247415
0.252168
0.257216
0.262543
0.2681
0.273855
0.279709
0.285617
0.291388
0.296997
0.302078
0.306734
0.310222
0.313102
0.313684
0.313934
0.309568
0.306713
0.29366
0.288749
0.258665
0.257754
0.18939
0.214535
0.0510687
0.175784
0.131246
0.165162
0.189146
0.202326
0.207474
0.211134
0.211969
0.212847
0.212578
0.212705
0.212244
0.212127
0.211795
0.211756
0.2117
0.211824
0.211958
0.21218
0.212449
0.212835
0.213351
0.214046
0.21494
0.216064
0.217437
0.219078
0.221001
0.223219
0.225739
0.22857
0.231716
0.235183
0.238973
0.243086
0.247518
0.252263
0.257304
0.262621
0.268169
0.273912
0.279755
0.285649
0.291406
0.296999
0.302063
0.306697
0.310167
0.313014
0.313577
0.313778
0.309404
0.30647
0.293446
0.288387
0.258434
0.257217
0.189238
0.213727
0.0512938
0.174632
0.133323
0.165473
0.189101
0.202164
0.207449
0.211158
0.212126
0.213016
0.212807
0.212914
0.212473
0.212333
0.211996
0.211936
0.211872
0.211984
0.212111
0.212327
0.212594
0.212981
0.213498
0.214195
0.21509
0.216215
0.217587
0.219227
0.221149
0.223364
0.225882
0.22871
0.231853
0.235316
0.2391
0.243208
0.247633
0.252371
0.257403
0.26271
0.268247
0.273979
0.279809
0.28569
0.291433
0.297008
0.302056
0.306666
0.310117
0.312932
0.313477
0.313629
0.309248
0.306233
0.293244
0.288034
0.258224
0.256691
0.189122
0.212927
0.0515675
0.173463
0.135319
0.16582
0.18908
0.202026
0.207436
0.211195
0.212291
0.213199
0.213048
0.21314
0.212719
0.212558
0.212216
0.212134
0.21206
0.212158
0.212278
0.212488
0.212753
0.213138
0.213658
0.214356
0.215253
0.216378
0.217751
0.21939
0.221309
0.223523
0.226039
0.228864
0.232004
0.235462
0.239241
0.243343
0.247761
0.252491
0.257513
0.262811
0.268337
0.274056
0.279874
0.285739
0.291468
0.297024
0.302055
0.306641
0.310073
0.312855
0.313382
0.313484
0.3091
0.306003
0.293053
0.28769
0.258034
0.256176
0.189039
0.212133
0.0518887
0.172277
0.137237
0.166198
0.189084
0.201912
0.207436
0.211244
0.212465
0.213395
0.213303
0.213382
0.212981
0.212803
0.212456
0.212352
0.212266
0.212349
0.21246
0.212663
0.212925
0.213309
0.21383
0.21453
0.215428
0.216555
0.217927
0.219565
0.221484
0.223696
0.22621
0.229032
0.232168
0.235622
0.239396
0.243491
0.247902
0.252623
0.257637
0.262923
0.268438
0.274144
0.279948
0.285798
0.291511
0.297048
0.302061
0.306623
0.310036
0.312783
0.313294
0.313346
0.308959
0.305779
0.292875
0.287354
0.257864
0.255671
0.188992
0.211347
0.0522568
0.171073
0.13908
0.166604
0.189111
0.201821
0.207449
0.211306
0.212647
0.213604
0.213572
0.213643
0.213261
0.213066
0.212717
0.212591
0.212491
0.212558
0.212659
0.212854
0.213112
0.213495
0.214016
0.214717
0.215617
0.216745
0.218118
0.219755
0.221673
0.223883
0.226395
0.229214
0.232347
0.235796
0.239565
0.243654
0.248057
0.25277
0.257773
0.263048
0.26855
0.274243
0.280033
0.285866
0.291563
0.29708
0.302075
0.306611
0.310004
0.312717
0.313211
0.313212
0.308825
0.305563
0.292708
0.287028
0.257715
0.255176
0.188978
0.210567
0.0526707
0.169851
0.140852
0.167035
0.18916
0.201753
0.207475
0.211381
0.212838
0.213827
0.213853
0.213921
0.213558
0.213348
0.212999
0.212852
0.212738
0.212786
0.212877
0.213061
0.213315
0.213695
0.214216
0.214918
0.21582
0.216949
0.218322
0.21996
0.221877
0.224085
0.226595
0.229411
0.23254
0.235986
0.239749
0.243831
0.248226
0.252929
0.257922
0.263186
0.268675
0.274354
0.280128
0.285945
0.291624
0.29712
0.302096
0.306606
0.309978
0.312656
0.313133
0.313084
0.308699
0.305353
0.292552
0.286711
0.257585
0.254692
0.188997
0.209794
0.0531298
0.168611
0.142556
0.167488
0.189231
0.201706
0.207515
0.211468
0.213037
0.214061
0.214147
0.214218
0.213874
0.213651
0.213302
0.213136
0.213006
0.213035
0.213113
0.213287
0.213535
0.213912
0.214432
0.215135
0.216038
0.217169
0.218542
0.220179
0.222096
0.224303
0.226811
0.229624
0.23275
0.23619
0.239948
0.244023
0.24841
0.253104
0.258086
0.263337
0.268813
0.274477
0.280235
0.286033
0.291694
0.297169
0.302124
0.306607
0.309959
0.312601
0.313062
0.312962
0.30858
0.30515
0.292408
0.286402
0.257474
0.254218
0.189049
0.209028
0.0536334
0.167354
0.144195
0.16796
0.189323
0.201681
0.207567
0.211567
0.213245
0.214307
0.214454
0.214532
0.214209
0.213975
0.213626
0.213443
0.213299
0.213307
0.213371
0.213533
0.213774
0.214147
0.214665
0.215368
0.216272
0.217404
0.218778
0.220415
0.222331
0.224537
0.227043
0.229854
0.232975
0.236411
0.240163
0.24423
0.248609
0.253293
0.258264
0.263502
0.268964
0.274612
0.280354
0.286133
0.291775
0.297226
0.30216
0.306615
0.309945
0.312551
0.312996
0.312845
0.308467
0.304953
0.292275
0.286102
0.257383
0.253755
0.189134
0.208268
0.0541807
0.166078
0.145772
0.16845
0.189435
0.201677
0.207633
0.211678
0.213461
0.214565
0.214772
0.214862
0.214564
0.21432
0.213972
0.213773
0.213615
0.213603
0.213651
0.213801
0.214034
0.2144
0.214917
0.215618
0.216523
0.217655
0.21903
0.220667
0.222583
0.224788
0.227291
0.2301
0.233218
0.236649
0.240394
0.244454
0.248824
0.253498
0.258457
0.263682
0.269129
0.27476
0.280484
0.286243
0.291865
0.297293
0.302205
0.30663
0.309938
0.312507
0.312936
0.312733
0.308362
0.304763
0.292154
0.285812
0.257312
0.253303
0.189252
0.207515
0.0547711
0.164786
0.147289
0.168955
0.189566
0.201693
0.207712
0.211802
0.213686
0.214833
0.215101
0.215209
0.214936
0.214687
0.214341
0.214127
0.213957
0.213924
0.213956
0.214091
0.214315
0.214674
0.215187
0.215887
0.216792
0.217924
0.2193
0.220937
0.222852
0.225056
0.227558
0.230363
0.233477
0.236903
0.240643
0.244695
0.249056
0.253719
0.258665
0.263876
0.269308
0.274922
0.280627
0.286365
0.291966
0.297368
0.302257
0.306653
0.309938
0.312469
0.312882
0.312627
0.308264
0.30458
0.292043
0.28553
0.257259
0.252862
0.189402
0.206769
0.0554041
0.163476
0.14875
0.169472
0.189716
0.201729
0.207805
0.211938
0.213919
0.215112
0.21544
0.215569
0.215325
0.215076
0.214731
0.214504
0.214324
0.214272
0.214287
0.214406
0.214619
0.214971
0.215479
0.216176
0.21708
0.218212
0.219588
0.221225
0.22314
0.225343
0.227842
0.230645
0.233755
0.237176
0.240909
0.244953
0.249305
0.253956
0.25889
0.264086
0.269502
0.275097
0.280783
0.286499
0.292077
0.297454
0.302318
0.306683
0.309944
0.312436
0.312834
0.312526
0.308173
0.304404
0.291943
0.285258
0.257226
0.252431
0.189583
0.20603
0.0560792
0.162149
0.150155
0.170001
0.189884
0.201785
0.20791
0.212086
0.21416
0.215401
0.215789
0.215943
0.215731
0.215486
0.215145
0.214907
0.214716
0.214646
0.214645
0.214748
0.214949
0.215291
0.215793
0.216486
0.217388
0.21852
0.219896
0.221532
0.223446
0.225648
0.228146
0.230945
0.234051
0.237467
0.241193
0.245229
0.249571
0.254211
0.259131
0.264312
0.26971
0.275287
0.280952
0.286645
0.2922
0.297549
0.302388
0.30672
0.309957
0.31241
0.312791
0.312431
0.308089
0.304235
0.291855
0.284996
0.257211
0.252012
0.189796
0.205298
0.0567957
0.160805
0.151509
0.170538
0.19007
0.201859
0.208029
0.212245
0.21441
0.215699
0.216147
0.21633
0.216151
0.215915
0.215582
0.215333
0.215133
0.215047
0.215031
0.215117
0.215305
0.215637
0.216132
0.21682
0.217719
0.218849
0.220224
0.22186
0.223773
0.225973
0.228469
0.231265
0.234367
0.237777
0.241496
0.245524
0.249855
0.254483
0.259389
0.264554
0.269935
0.275491
0.281136
0.286804
0.292334
0.297654
0.302467
0.306765
0.309977
0.31239
0.312755
0.312342
0.308013
0.304073
0.291778
0.284743
0.257216
0.251605
0.190041
0.204573
0.0575534
0.159444
0.152812
0.171083
0.190271
0.201951
0.208161
0.212417
0.214668
0.216006
0.216513
0.216728
0.216584
0.216362
0.21604
0.215785
0.215577
0.215476
0.215445
0.215515
0.21569
0.21601
0.216496
0.217178
0.218073
0.219201
0.220575
0.222209
0.224121
0.226319
0.228812
0.231606
0.234703
0.238107
0.241819
0.245838
0.250158
0.254773
0.259665
0.264814
0.270176
0.275711
0.281333
0.286976
0.29248
0.297771
0.302555
0.306819
0.310004
0.312376
0.312725
0.312259
0.307943
0.303918
0.291712
0.2845
0.257239
0.251209
0.190316
0.203855
0.0583518
0.158068
0.154067
0.171635
0.190488
0.202061
0.208306
0.2126
0.214935
0.216323
0.216888
0.217136
0.21703
0.216825
0.216518
0.21626
0.216046
0.215932
0.215888
0.215943
0.216104
0.216412
0.216889
0.217563
0.218453
0.219577
0.220948
0.222581
0.224491
0.226687
0.229177
0.231967
0.23506
0.238458
0.242162
0.246171
0.250481
0.255083
0.25996
0.265091
0.270434
0.275947
0.281545
0.287162
0.292639
0.297897
0.302653
0.30688
0.310038
0.312368
0.3127
0.312181
0.307881
0.303771
0.291657
0.284268
0.257281
0.250826
0.190623
0.203146
0.0591905
0.156676
0.155275
0.172191
0.190721
0.202188
0.208463
0.212795
0.21521
0.216649
0.217271
0.217555
0.217486
0.217303
0.217014
0.216759
0.21654
0.216415
0.21636
0.216401
0.216549
0.216844
0.21731
0.217976
0.21886
0.219979
0.221347
0.222978
0.224884
0.227078
0.229565