/*--------------------------------*- C++ -*----------------------------------*\
| =========                 |                                                 |
| \\      /  F ield         | OpenFOAM: The Open Source CFD Toolbox           |
|  \\    /   O peration     | Version:  2.4.0                                 |
|   \\  /    A nd           | Web:      www.OpenFOAM.org                      |
|    \\/     M anipulation  |                                                 |
\*---------------------------------------------------------------------------*/
FoamFile
{
    version     2.0;
    format      ascii;
    class       volScalarField;
    location    "0.26";
    object      epsilon;
}
// * * * * * * * * * * * * * * * * * * * * * * * * * * * * * * * * * * * * * //

dimensions      [0 2 -3 0 0 0 0];

internalField   nonuniform List<scalar> 
6000
(
1.00036
0.388195
0.0341803
0.0219982
0.0169247
0.0244829
0.0357847
0.0482022
0.0591678
0.0662256
0.068677
0.0681278
0.0666383
0.0646153
0.062397
0.0601224
0.0578747
0.0557308
0.0537463
0.0519498
0.0503507
0.048948
0.0477353
0.0467035
0.0458434
0.0451459
0.0446033
0.0442092
0.0439592
0.0438506
0.0438828
0.0440575
0.0443787
0.044852
0.0454846
0.0462848
0.0472701
0.048465
0.0498967
0.0515979
0.0536096
0.0559832
0.0587835
0.0620927
0.0660155
0.0706872
0.0762835
0.0830358
0.0912524
0.101351
0.113902
0.129718
0.149913
0.176274
0.210941
0.259175
0.323376
0.428861
0.557567
0.841701
0.554624
0.428276
0.0381851
0.0185597
0.0135078
0.0131816
0.013998
0.0152906
0.0168862
0.0186018
0.0198986
0.0202187
0.0196086
0.0185737
0.0175267
0.0166009
0.0157957
0.0150926
0.0144812
0.0139542
0.0135033
0.0131197
0.0127952
0.0125225
0.0122958
0.0121099
0.0119609
0.0118454
0.0117609
0.0117057
0.0116786
0.0116787
0.0117062
0.0117617
0.0118467
0.0119644
0.0121174
0.0123065
0.0125356
0.0128101
0.0131365
0.0135232
0.0139805
0.0145218
0.0151636
0.0159275
0.0168412
0.0179408
0.0192742
0.0209054
0.022922
0.025444
0.0286447
0.0327603
0.0381885
0.045359
0.0555935
0.0692502
0.0928364
0.127138
0.411067
0.493814
0.0688688
0.0249818
0.0139557
0.0108426
0.00982469
0.0094822
0.00940515
0.00953413
0.00976155
0.00983586
0.00963399
0.00926794
0.0088887
0.00856137
0.00829012
0.00806423
0.00787524
0.00771747
0.00758623
0.00747734
0.00738719
0.00731283
0.00725187
0.00720239
0.00716288
0.00713216
0.00710933
0.00709369
0.00708479
0.00708232
0.00708619
0.0070964
0.00711317
0.00713728
0.00716926
0.00720948
0.00725886
0.00731859
0.00739028
0.0074759
0.00757795
0.00769958
0.00784476
0.00801856
0.00822745
0.00847977
0.00878643
0.00916177
0.00962507
0.0102021
0.0109297
0.0118548
0.0130626
0.0146135
0.0168272
0.0195067
0.024444
0.0294579
0.361148
0.468988
0.110305
0.034535
0.0157237
0.0105291
0.00881352
0.00810442
0.00767788
0.0073868
0.00723241
0.00714987
0.00705216
0.00692485
0.00679772
0.00669029
0.00660438
0.00653568
0.00648029
0.00643554
0.00639944
0.00637036
0.00634695
0.00632815
0.0063131
0.00630116
0.00629182
0.00628469
0.00627948
0.00627599
0.00627407
0.00627362
0.00627461
0.00627704
0.00628099
0.00628667
0.00629414
0.00630361
0.00631537
0.00632978
0.00634734
0.00636865
0.00639452
0.00642595
0.00646422
0.00651098
0.00656836
0.00663911
0.00672682
0.00683621
0.00697358
0.00714721
0.0073689
0.00765289
0.0080259
0.00850164
0.00918345
0.00996666
0.0114648
0.0126123
0.336946
0.41071
0.139565
0.0447881
0.018209
0.0109808
0.00870339
0.00780229
0.00727456
0.00687397
0.00660218
0.00645471
0.00637603
0.0063217
0.00627863
0.0062454
0.00622044
0.00620153
0.00618692
0.00617553
0.00616664
0.0061597
0.00615429
0.00615007
0.0061468
0.00614429
0.00614239
0.00614099
0.00614003
0.00613944
0.0061392
0.00613927
0.00613965
0.00614035
0.0061414
0.00614286
0.00614476
0.00614716
0.00615014
0.00615385
0.00615844
0.00616414
0.00617121
0.00618004
0.0061911
0.00620502
0.00622265
0.00624512
0.00627392
0.00631109
0.0063594
0.00642256
0.00650591
0.00661606
0.00676512
0.00696038
0.0072468
0.00758062
0.00823746
0.00873995
0.323809
0.348362
0.149794
0.0528045
0.0207355
0.0116769
0.00884869
0.00776676
0.00718456
0.00675915
0.00645962
0.00629235
0.00621664
0.00618329
0.00616598
0.00615543
0.00614836
0.00614321
0.00613918
0.00613591
0.00613325
0.00613108
0.00612932
0.00612791
0.00612677
0.00612588
0.00612519
0.00612467
0.00612431
0.00612409
0.006124
0.00612403
0.00612419
0.00612448
0.00612491
0.00612549
0.00612626
0.00612724
0.00612847
0.00613001
0.00613191
0.00613428
0.00613722
0.00614091
0.00614556
0.00615144
0.00615895
0.00616863
0.00618121
0.0061977
0.00621954
0.00624872
0.00628821
0.00634171
0.0064166
0.00651679
0.00667163
0.00685315
0.00724436
0.00757577
0.316158
0.293937
0.146273
0.0570691
0.0228361
0.0124121
0.00907068
0.00780268
0.00716885
0.00673706
0.00643564
0.00626486
0.0061895
0.00616124
0.00615046
0.00614541
0.00614226
0.00613972
0.0061374
0.00613522
0.00613322
0.00613145
0.00612991
0.0061286
0.00612751
0.0061266
0.00612587
0.0061253
0.00612487
0.00612458
0.00612442
0.00612439
0.00612448
0.00612471
0.00612507
0.00612558
0.00612625
0.00612709
0.00612815
0.00612946
0.00613107
0.00613304
0.00613545
0.00613842
0.00614207
0.00614661
0.00615227
0.0061594
0.00616848
0.00618014
0.00619532
0.00621531
0.00624211
0.00627817
0.00632883
0.00639674
0.00650442
0.00663009
0.00692332
0.00718849
0.311292
0.250915
0.135453
0.0578279
0.024316
0.0131044
0.0093191
0.00786421
0.00717294
0.00673473
0.00643607
0.00626573
0.00619003
0.00616232
0.00615248
0.00614812
0.00614522
0.00614263
0.0061401
0.00613766
0.00613539
0.00613337
0.0061316
0.0061301
0.00612883
0.00612778
0.00612694
0.00612627
0.00612577
0.00612542
0.00612521
0.00612514
0.00612521
0.00612541
0.00612575
0.00612626
0.00612695
0.00612783
0.00612893
0.00613028
0.00613194
0.00613397
0.00613644
0.00613946
0.00614315
0.00614768
0.00615328
0.00616024
0.00616896
0.00617999
0.0061941
0.00621234
0.00623634
0.00626806
0.00631199
0.00637001
0.00646209
0.00656763
0.00682402
0.0070597
0.30794
0.21894
0.122559
0.0563652
0.0252286
0.0137306
0.00958097
0.00794256
0.00718706
0.00673802
0.00644087
0.0062708
0.00619408
0.00616559
0.00615534
0.00615066
0.00614741
0.00614447
0.00614161
0.00613889
0.0061364
0.00613419
0.00613228
0.00613066
0.0061293
0.00612818
0.00612728
0.00612657
0.00612603
0.00612566
0.00612543
0.00612535
0.00612541
0.00612562
0.00612598
0.00612649
0.00612719
0.00612808
0.00612921
0.0061306
0.0061323
0.00613438
0.00613692
0.00614001
0.0061438
0.00614844
0.00615416
0.00616126
0.00617013
0.0061813
0.00619552
0.00621375
0.00623757
0.00626874
0.00631149
0.00636731
0.00645526
0.00655466
0.00679764
0.00701941
0.305512
0.196181
0.110751
0.0540109
0.0257491
0.0142944
0.00985228
0.00803604
0.00721017
0.00674524
0.0064472
0.00627633
0.00619791
0.00616811
0.00615715
0.00615204
0.00614848
0.00614528
0.00614221
0.00613934
0.00613673
0.00613443
0.00613246
0.00613079
0.0061294
0.00612825
0.00612733
0.0061266
0.00612605
0.00612567
0.00612544
0.00612535
0.00612541
0.00612561
0.00612597
0.00612649
0.0061272
0.0061281
0.00612924
0.00613064
0.00613236
0.00613446
0.00613703
0.00614016
0.00614399
0.00614869
0.00615449
0.00616169
0.00617068
0.00618201
0.0061964
0.00621486
0.00623892
0.00627033
0.00631324
0.00636905
0.00645648
0.00655469
0.00679265
0.00700707
0.303697
0.1805
0.101343
0.0516674
0.0260587
0.0148075
0.0101304
0.00814354
0.0072422
0.00675653
0.00645512
0.00628232
0.00620161
0.00617019
0.00615839
0.00615286
0.00614904
0.00614566
0.00614247
0.0061395
0.00613683
0.00613449
0.00613248
0.00613079
0.00612938
0.00612823
0.00612729
0.00612656
0.00612601
0.00612562
0.00612539
0.0061253
0.00612536
0.00612556
0.00612592
0.00612645
0.00612715
0.00612806
0.00612919
0.0061306
0.00613233
0.00613444
0.00613702
0.00614017
0.00614402
0.00614874
0.00615458
0.00616183
0.00617089
0.0061823
0.00619681
0.00621542
0.00623969
0.00627136
0.00631459
0.00637077
0.00645851
0.00655692
0.00679241
0.00700193
0.302306
0.169965
0.0944776
0.0497637
0.0262884
0.0152821
0.0104126
0.00826347
0.00728286
0.00677195
0.00646482
0.00628906
0.00620554
0.00617223
0.00615948
0.0061535
0.00614945
0.00614592
0.00614263
0.00613959
0.00613687
0.0061345
0.00613248
0.00613077
0.00612935
0.00612818
0.00612725
0.00612651
0.00612595
0.00612556
0.00612533
0.00612524
0.0061253
0.0061255
0.00612586
0.00612638
0.00612709
0.006128
0.00612914
0.00613055
0.00613228
0.0061344
0.00613698
0.00614014
0.006144
0.00614874
0.0061546
0.00616187
0.00617097
0.00618243
0.00619701
0.00621572
0.00624011
0.00627197
0.00631545
0.00637196
0.00646004
0.00655885
0.0067924
0.00699777
0.301214
0.163036
0.0897665
0.0484066
0.0265135
0.0157272
0.0106961
0.00839402
0.00733162
0.00679143
0.00647633
0.00629665
0.00620987
0.00617442
0.00616059
0.00615412
0.00614982
0.00614614
0.00614276
0.00613966
0.0061369
0.00613451
0.00613246
0.00613074
0.00612931
0.00612814
0.00612719
0.00612645
0.0061259
0.0061255
0.00612527
0.00612518
0.00612523
0.00612544
0.0061258
0.00612632
0.00612703
0.00612794
0.00612908
0.00613049
0.00613223
0.00613435
0.00613694
0.0061401
0.00614397
0.00614873
0.0061546
0.00616189
0.00617102
0.00618251
0.00619715
0.00621592
0.0062404
0.00627239
0.00631604
0.00637281
0.00646111
0.00656022
0.00679183
0.00699323
0.300341
0.158567
0.086689
0.0475443
0.0267679
0.0161492
0.0109788
0.0085333
0.00738783
0.00681478
0.00648958
0.00630508
0.00621462
0.00617682
0.00616179
0.00615477
0.0061502
0.00614637
0.00614289
0.00613973
0.00613693
0.00613451
0.00613244
0.00613071
0.00612927
0.00612809
0.00612714
0.0061264
0.00612584
0.00612544
0.00612521
0.00612512
0.00612517
0.00612538
0.00612573
0.00612626
0.00612697
0.00612788
0.00612902
0.00613044
0.00613218
0.0061343
0.0061369
0.00614006
0.00614394
0.00614871
0.0061546
0.00616191
0.00617105
0.00618258
0.00619726
0.00621608
0.00624065
0.00627273
0.00631652
0.00637348
0.00646192
0.00656122
0.00679081
0.00698833
0.299631
0.155745
0.0847747
0.0470734
0.0270499
0.0165506
0.0112584
0.0086795
0.00745079
0.00684183
0.00650448
0.0063143
0.0062198
0.00617944
0.0061631
0.00615547
0.0061506
0.00614661
0.00614302
0.0061398
0.00613696
0.00613451
0.00613243
0.00613068
0.00612923
0.00612805
0.00612709
0.00612635
0.00612578
0.00612539
0.00612515
0.00612506
0.00612511
0.00612531
0.00612567
0.0061262
0.00612691
0.00612782
0.00612897
0.00613038
0.00613213
0.00613425
0.00613685
0.00614003
0.00614391
0.00614869
0.00615459
0.00616192
0.00617109
0.00618265
0.00619736
0.00621624
0.00624087
0.00627305
0.00631695
0.00637407
0.00646261
0.00656202
0.00678955
0.00698331
0.299045
0.154009
0.0836581
0.04689
0.0273579
0.0169335
0.0115333
0.00883095
0.0075198
0.00687234
0.00652096
0.00632428
0.00622538
0.00618226
0.0061645
0.00615621
0.00615102
0.00614685
0.00614316
0.00613988
0.006137
0.00613451
0.00613241
0.00613065
0.00612919
0.006128
0.00612704
0.00612629
0.00612573
0.00612533
0.00612509
0.006125
0.00612505
0.00612525
0.00612561
0.00612614
0.00612685
0.00612776
0.00612891
0.00613033
0.00613207
0.00613421
0.00613681
0.00613999
0.00614388
0.00614867
0.00615458
0.00616193
0.00617112
0.00618271
0.00619746
0.00621639
0.00624108
0.00627335
0.00631736
0.00637463
0.00646324
0.0065627
0.0067882
0.00697834
0.298555
0.152984
0.0830757
0.0469085
0.0276856
0.0172998
0.0118024
0.00898617
0.00759413
0.00690612
0.00653892
0.00633495
0.00623132
0.00618528
0.00616601
0.006157
0.00615146
0.00614711
0.00614331
0.00613996
0.00613703
0.00613452
0.0061324
0.00613062
0.00612916
0.00612796
0.006127
0.00612624
0.00612567
0.00612527
0.00612503
0.00612494
0.00612499
0.0061252
0.00612556
0.00612608
0.00612679
0.00612771
0.00612886
0.00613028
0.00613203
0.00613416
0.00613677
0.00613995
0.00614386
0.00614865
0.00615458
0.00616194
0.00617115
0.00618277
0.00619755
0.00621653
0.00624129
0.00627364
0.00631776
0.00637516
0.00646382
0.00656331
0.00678683
0.00697351
0.298143
0.152419
0.082845
0.0470639
0.0280262
0.0176511
0.0120651
0.00914385
0.00767309
0.00694292
0.00655828
0.00634627
0.00623761
0.00618848
0.00616761
0.00615783
0.00615193
0.00614737
0.00614346
0.00614004
0.00613707
0.00613453
0.00613239
0.0061306
0.00612912
0.00612792
0.00612695
0.00612619
0.00612562
0.00612522
0.00612498
0.00612488
0.00612494
0.00612514
0.0061255
0.00612603
0.00612674
0.00612765
0.0061288
0.00613023
0.00613198
0.00613412
0.00613673
0.00613992
0.00614383
0.00614864
0.00615457
0.00616195
0.00617118
0.00618282
0.00619764
0.00621667
0.00624149
0.00627392
0.00631814
0.00637567
0.00646437
0.00656386
0.00678548
0.00696887
0.297791
0.15215
0.0828426
0.0473096
0.028374
0.0179888
0.012321
0.00930289
0.00775598
0.00698253
0.00657898
0.00635821
0.00624422
0.00619186
0.00616929
0.00615871
0.00615241
0.00614765
0.00614362
0.00614012
0.00613711
0.00613454
0.00613237
0.00613057
0.00612909
0.00612787
0.0061269
0.00612614
0.00612557
0.00612517
0.00612492
0.00612483
0.00612488
0.00612508
0.00612544
0.00612597
0.00612668
0.0061276
0.00612875
0.00613018
0.00613193
0.00613407
0.00613669
0.00613989
0.0061438
0.00614862
0.00615457
0.00616196
0.00617121
0.00618288
0.00619773
0.0062168
0.00624168
0.00627419
0.00631851
0.00637616
0.0064649
0.00656436
0.00678415
0.00696442
0.297489
0.152071
0.0829857
0.0476128
0.0287246
0.0183142
0.01257
0.00946235
0.00784217
0.00702471
0.00660092
0.00637071
0.00625113
0.00619541
0.00617107
0.00615963
0.00615291
0.00614794
0.00614378
0.00614021
0.00613715
0.00613455
0.00613236
0.00613055
0.00612905
0.00612783
0.00612686
0.00612609
0.00612552
0.00612511
0.00612487
0.00612477
0.00612483
0.00612503
0.00612539
0.00612592
0.00612663
0.00612755
0.0061287
0.00613013
0.00613188
0.00613403
0.00613665
0.00613985
0.00614378
0.0061486
0.00615456
0.00616197
0.00617124
0.00618293
0.00619782
0.00621693
0.00624187
0.00627446
0.00631886
0.00637663
0.00646539
0.00656481
0.00678286
0.00696018
0.297228
0.15211
0.0832197
0.047951
0.0290747
0.0186284
0.012812
0.00962145
0.00793104
0.00706922
0.00662403
0.00638374
0.00625831
0.0061991
0.00617292
0.00616059
0.00615344
0.00614823
0.00614395
0.0061403
0.00613719
0.00613456
0.00613235
0.00613053
0.00612902
0.0061278
0.00612681
0.00612605
0.00612547
0.00612506
0.00612482
0.00612472
0.00612477
0.00612498
0.00612534
0.00612587
0.00612658
0.0061275
0.00612865
0.00613008
0.00613184
0.00613399
0.00613661
0.00613982
0.00614375
0.00614858
0.00615455
0.00616198
0.00617127
0.00618298
0.0061979
0.00621706
0.00624205
0.00627471
0.00631921
0.00637709
0.00646586
0.00656523
0.00678159
0.00695612
0.297001
0.152223
0.0835083
0.0483087
0.029422
0.0189323
0.0130473
0.00977952
0.00802201
0.00711581
0.00664824
0.00639727
0.00626575
0.00620294
0.00617485
0.00616159
0.00615398
0.00614854
0.00614412
0.00614039
0.00613723
0.00613457
0.00613235
0.0061305
0.00612899
0.00612776
0.00612677
0.006126
0.00612542
0.00612501
0.00612477
0.00612467
0.00612472
0.00612493
0.00612529
0.00612582
0.00612653
0.00612745
0.00612861
0.00613004
0.0061318
0.00613395
0.00613658
0.00613979
0.00614372
0.00614857
0.00615455
0.00616198
0.00617129
0.00618303
0.00619799
0.00621718
0.00624223
0.00627496
0.00631954
0.00637752
0.00646631
0.00656562
0.00678036
0.00695225
0.296802
0.152381
0.0838276
0.0486755
0.0297647
0.0192269
0.013276
0.00993603
0.00811454
0.00716426
0.00667348
0.00641126
0.00627343
0.00620691
0.00617685
0.00616262
0.00615454
0.00614886
0.0061443
0.00614049
0.00613728
0.00613458
0.00613234
0.00613048
0.00612896
0.00612772
0.00612673
0.00612596
0.00612538
0.00612497
0.00612472
0.00612462
0.00612467
0.00612488
0.00612524
0.00612577
0.00612648
0.0061274
0.00612856
0.00612999
0.00613175
0.00613391
0.00613654
0.00613976
0.0061437
0.00614855
0.00615454
0.00616199
0.00617132
0.00618308
0.00619806
0.0062173
0.0062424
0.0062752
0.00631986
0.00637794
0.00646673
0.00656596
0.00677917
0.00694855
0.296627
0.152564
0.0841621
0.0490444
0.0301017
0.0195126
0.0134982
0.0100905
0.00820814
0.00721432
0.00669966
0.00642569
0.00628133
0.00621101
0.00617892
0.00616369
0.00615512
0.00614918
0.00614448
0.00614059
0.00613733
0.0061346
0.00613233
0.00613046
0.00612893
0.00612769
0.00612669
0.00612591
0.00612533
0.00612492
0.00612467
0.00612457
0.00612463
0.00612483
0.00612519
0.00612572
0.00612643
0.00612736
0.00612851
0.00612995
0.00613171
0.00613387
0.00613651
0.00613973
0.00614368
0.00614853
0.00615454
0.006162
0.00617134
0.00618313
0.00619814
0.00621742
0.00624256
0.00627543
0.00632017
0.00637834
0.00646713
0.00656628
0.00677802
0.00694504
0.296474
0.152759
0.0845015
0.0494108
0.0304321
0.0197904
0.0137141
0.0102427
0.00830236
0.00726576
0.00672672
0.00644052
0.00628944
0.00621523
0.00618105
0.00616479
0.00615572
0.00614951
0.00614467
0.00614069
0.00613738
0.00613462
0.00613233
0.00613044
0.0061289
0.00612765
0.00612665
0.00612587
0.00612529
0.00612488
0.00612463
0.00612453
0.00612458
0.00612478
0.00612514
0.00612567
0.00612639
0.00612731
0.00612847
0.00612991
0.00613167
0.00613383
0.00613647
0.0061397
0.00614365
0.00614852
0.00615453
0.00616201
0.00617137
0.00618317
0.00619821
0.00621753
0.00624272
0.00627565
0.00632046
0.00637873
0.00646751
0.00656657
0.00677689
0.00694169
0.296338
0.15296
0.0848393
0.0497714
0.0307552
0.0200611
0.0139241
0.0103921
0.00839677
0.00731834
0.00675457
0.00645573
0.00629774
0.00621955
0.00618325
0.00616593
0.00615633
0.00614985
0.00614486
0.00614079
0.00613743
0.00613463
0.00613233
0.00613043
0.00612887
0.00612762
0.00612662
0.00612583
0.00612524
0.00612483
0.00612458
0.00612448
0.00612453
0.00612474
0.0061251
0.00612563
0.00612634
0.00612727
0.00612843
0.00612987
0.00613163
0.0061338
0.00613644
0.00613967
0.00614363
0.0061485
0.00615452
0.00616201
0.00617139
0.00618322
0.00619828
0.00621763
0.00624287
0.00627586
0.00632074
0.00637909
0.00646786
0.00656683
0.00677581
0.0069385
0.296218
0.15316
0.0851712
0.0501241
0.0310705
0.0203236
0.0141281
0.0105386
0.00849099
0.00737183
0.00678313
0.00647128
0.00630621
0.00622397
0.00618549
0.00616709
0.00615695
0.0061502
0.00614506
0.0061409
0.00613748
0.00613465
0.00613232
0.00613041
0.00612885
0.00612759
0.00612658
0.00612579
0.0061252
0.00612479
0.00612454
0.00612444
0.00612449
0.00612469
0.00612505
0.00612559
0.0061263
0.00612723
0.00612839
0.00612983
0.0061316
0.00613376
0.00613641
0.00613964
0.00614361
0.00614849
0.00615452
0.00616202
0.00617141
0.00618326
0.00619835
0.00621773
0.00624302
0.00627607
0.00632101
0.00637944
0.0064682
0.00656706
0.00677477
0.00693548
0.296111
0.153358
0.0854946
0.0504674
0.0313775
0.0205782
0.0143262
0.010682
0.00858468
0.007426
0.00681232
0.00648716
0.00631485
0.00622849
0.0061878
0.00616828
0.00615759
0.00615055
0.00614526
0.00614101
0.00613753
0.00613467
0.00613232
0.0061304
0.00612883
0.00612756
0.00612654
0.00612576
0.00612516
0.00612475
0.0061245
0.0061244
0.00612445
0.00612465
0.00612501
0.00612554
0.00612626
0.00612719
0.00612835
0.00612979
0.00613156
0.00613373
0.00613638
0.00613962
0.00614359
0.00614847
0.00615451
0.00616202
0.00617143
0.0061833
0.00619841
0.00621783
0.00624316
0.00627626
0.00632127
0.00637978
0.00646851
0.00656728
0.00677376
0.00693261
0.296016
0.15355
0.0858076
0.0508004
0.0316759
0.0208252
0.0145185
0.0108221
0.00867751
0.00748062
0.00684205
0.00650333
0.00632363
0.00623309
0.00619015
0.0061695
0.00615825
0.00615092
0.00614546
0.00614112
0.00613759
0.0061347
0.00613232
0.00613038
0.0061288
0.00612753
0.00612651
0.00612572
0.00612513
0.00612471
0.00612446
0.00612436
0.00612441
0.00612461
0.00612497
0.0061255
0.00612622
0.00612715
0.00612831
0.00612975
0.00613153
0.0061337
0.00613635
0.00613959
0.00614357
0.00614846
0.0061545
0.00616203
0.00617145
0.00618333
0.00619847
0.00621792
0.00624329
0.00627645
0.00632152
0.00638009
0.00646881
0.00656747
0.00677279
0.00692989
0.295932
0.153735
0.0861094
0.0511224
0.0319653
0.0210645
0.014705
0.0109586
0.0087692
0.00753549
0.00687222
0.00651975
0.00633255
0.00623777
0.00619254
0.00617074
0.00615891
0.00615128
0.00614566
0.00614123
0.00613765
0.00613472
0.00613232
0.00613037
0.00612878
0.0061275
0.00612648
0.00612569
0.00612509
0.00612467
0.00612442
0.00612432
0.00612437
0.00612457
0.00612493
0.00612547
0.00612618
0.00612711
0.00612827
0.00612972
0.00613149
0.00613366
0.00613632
0.00613957
0.00614355
0.00614844
0.0061545
0.00616203
0.00617146
0.00618337
0.00619853
0.00621801
0.00624342
0.00627663
0.00632176
0.00638039
0.00646908
0.00656764
0.00677186
0.00692732
0.295858
0.153913
0.0863994
0.051433
0.0322456
0.0212963
0.0148858
0.0110916
0.00885951
0.00759038
0.00690275
0.0065364
0.00634158
0.00624251
0.00619498
0.006172
0.00615959
0.00615166
0.00614587
0.00614135
0.0061377
0.00613474
0.00613233
0.00613036
0.00612876
0.00612747
0.00612645
0.00612565
0.00612506
0.00612464
0.00612438
0.00612428
0.00612433
0.00612454
0.0061249
0.00612543
0.00612615
0.00612707
0.00612824
0.00612969
0.00613146
0.00613364
0.00613629
0.00613954
0.00614353
0.00614843
0.00615449
0.00616203
0.00617148
0.0061834
0.00619859
0.00621809
0.00624354
0.00627679
0.00632198
0.00638067
0.00646934
0.0065678
0.00677097
0.00692489
0.295791
0.154084
0.0866772
0.0517319
0.0325164
0.0215206
0.0150608
0.0112209
0.0089482
0.0076451
0.00693353
0.00655324
0.00635072
0.00624733
0.00619745
0.00617329
0.00616028
0.00615204
0.00614609
0.00614146
0.00613776
0.00613477
0.00613233
0.00613035
0.00612874
0.00612745
0.00612642
0.00612562
0.00612502
0.0061246
0.00612435
0.00612425
0.0061243
0.0061245
0.00612486
0.00612539
0.00612611
0.00612704
0.00612821
0.00612965
0.00613143
0.00613361
0.00613627
0.00613952
0.00614351
0.00614842
0.00615449
0.00616204
0.0061715
0.00618343
0.00619864
0.00621817
0.00624365
0.00627696
0.00632219
0.00638094
0.00646958
0.00656793
0.00677011
0.0069226
0.295731
0.154246
0.0869428
0.052019
0.0327778
0.0217374
0.0152301
0.0113463
0.00903508
0.00769947
0.00696445
0.00657022
0.00635995
0.00625219
0.00619996
0.00617459
0.00616097
0.00615242
0.0061463
0.00614158
0.00613783
0.00613479
0.00613233
0.00613034
0.00612872
0.00612742
0.00612639
0.00612559
0.00612499
0.00612457
0.00612431
0.00612421
0.00612426
0.00612447
0.00612483
0.00612536
0.00612608
0.00612701
0.00612818
0.00612962
0.0061314
0.00613358
0.00613624
0.0061395
0.00614349
0.0061484
0.00615448
0.00616204
0.00617151
0.00618346
0.00619869
0.00621825
0.00624376
0.00627711
0.00632239
0.00638119
0.00646981
0.00656806
0.0067693
0.00692046
0.295678
0.154401
0.0871963
0.0522943
0.0330295
0.0219466
0.0153938
0.0114679
0.00912
0.00775331
0.00699543
0.00658731
0.00636925
0.0062571
0.00620249
0.00617591
0.00616168
0.00615281
0.00614652
0.0061417
0.00613789
0.00613482
0.00613234
0.00613033
0.0061287
0.0061274
0.00612637
0.00612556
0.00612496
0.00612454
0.00612428
0.00612418
0.00612423
0.00612444
0.0061248
0.00612533
0.00612605
0.00612698
0.00612815
0.00612959
0.00613137
0.00613355
0.00613622
0.00613948
0.00614347
0.00614839
0.00615448
0.00616204
0.00617152
0.00618349
0.00619874
0.00621832
0.00624387
0.00627725
0.00632258
0.00638143
0.00647001
0.00656817
0.00676853
0.00691844
0.295631
0.154548
0.0874378
0.0525579
0.0332717
0.0221484
0.0155518
0.0115857
0.00920283
0.00780648
0.00702637
0.00660446
0.00637859
0.00626205
0.00620505
0.00617724
0.0061624
0.00615321
0.00614674
0.00614182
0.00613795
0.00613485
0.00613235
0.00613032
0.00612869
0.00612738
0.00612634
0.00612554
0.00612493
0.00612451
0.00612425
0.00612415
0.0061242
0.00612441
0.00612477
0.0061253
0.00612602
0.00612695
0.00612812
0.00612957
0.00613135
0.00613353
0.0061362
0.00613946
0.00614346
0.00614838
0.00615447
0.00616205
0.00617154
0.00618352
0.00619878
0.00621839
0.00624396
0.00627738
0.00632275
0.00638165
0.00647021
0.00656827
0.0067678
0.00691657
0.295589
0.154688
0.0876676
0.0528098
0.0335042
0.0223428
0.0157042
0.0116995
0.00928345
0.00785884
0.00705719
0.00662164
0.00638797
0.00626703
0.00620764
0.00617859
0.00616312
0.00615361
0.00614696
0.00614195
0.00613802
0.00613488
0.00613235
0.00613032
0.00612867
0.00612736
0.00612632
0.00612551
0.00612491
0.00612448
0.00612422
0.00612412
0.00612417
0.00612438
0.00612474
0.00612527
0.00612599
0.00612692
0.00612809
0.00612954
0.00613132
0.00613351
0.00613617
0.00613944
0.00614344
0.00614837
0.00615447
0.00616205
0.00617155
0.00618354
0.00619882
0.00621845
0.00624405
0.00627751
0.00632292
0.00638186
0.00647038
0.00656835
0.00676711
0.00691482
0.295551
0.15482
0.0878859
0.0530502
0.0337272
0.0225297
0.015851
0.0118095
0.00936178
0.00791028
0.0070878
0.0066388
0.00639737
0.00627202
0.00621023
0.00617995
0.00616384
0.00615401
0.00614718
0.00614207
0.00613808
0.00613491
0.00613236
0.00613031
0.00612866
0.00612734
0.0061263
0.00612549
0.00612488
0.00612446
0.0061242
0.0061241
0.00612415
0.00612435
0.00612471
0.00612525
0.00612597
0.0061269
0.00612807
0.00612952
0.0061313
0.00613349
0.00613616
0.00613942
0.00614343
0.00614836
0.00615446
0.00616205
0.00617156
0.00618356
0.00619886
0.00621851
0.00624414
0.00627763
0.00632307
0.00638205
0.00647054
0.00656843
0.00676646
0.00691321
0.295517
0.154944
0.0880931
0.0532795
0.0339407
0.0227092
0.0159923
0.0119155
0.00943776
0.00796071
0.00711814
0.00665592
0.00640676
0.00627703
0.00621284
0.00618131
0.00616458
0.00615441
0.00614741
0.00614219
0.00613815
0.00613494
0.00613237
0.00613031
0.00612865
0.00612732
0.00612628
0.00612546
0.00612486
0.00612443
0.00612417
0.00612407
0.00612412
0.00612433
0.00612469
0.00612522
0.00612594
0.00612687
0.00612804
0.00612949
0.00613128
0.00613346
0.00613614
0.00613941
0.00614342
0.00614835
0.00615446
0.00616205
0.00617157
0.00618358
0.00619889
0.00621856
0.00624421
0.00627774
0.00632321
0.00638222
0.00647069
0.0065685
0.00676585
0.00691172
0.295487
0.155062
0.0882895
0.0534978
0.0341449
0.0228814
0.0161281
0.0120176
0.00951136
0.00801006
0.00714816
0.00667295
0.00641613
0.00628203
0.00621546
0.00618268
0.00616531
0.00615481
0.00614764
0.00614232
0.00613821
0.00613497
0.00613238
0.00613031
0.00612864
0.00612731
0.00612626
0.00612544
0.00612483
0.00612441
0.00612415
0.00612405
0.0061241
0.0061243
0.00612467
0.0061252
0.00612592
0.00612685
0.00612802
0.00612947
0.00613126
0.00613345
0.00613612
0.00613939
0.0061434
0.00614834
0.00615445
0.00616205
0.00617158
0.0061836
0.00619893
0.00621861
0.00624429
0.00627784
0.00632334
0.00638238
0.00647083
0.00656856
0.00676529
0.00691036
0.29546
0.155173
0.0884754
0.0537053
0.0343399
0.0230465
0.0162585
0.0121159
0.00958255
0.00805826
0.00717779
0.00668988
0.00642546
0.00628703
0.00621807
0.00618405
0.00616605
0.00615522
0.00614786
0.00614245
0.00613828
0.00613501
0.0061324
0.00613031
0.00612863
0.00612729
0.00612624
0.00612542
0.00612481
0.00612439
0.00612413
0.00612403
0.00612408
0.00612428
0.00612464
0.00612518
0.0061259
0.00612683
0.006128
0.00612945
0.00613124
0.00613343
0.0061361
0.00613938
0.00614339
0.00614833
0.00615445
0.00616206
0.00617159
0.00618362
0.00619895
0.00621866
0.00624435
0.00627793
0.00632346
0.00638253
0.00647095
0.00656861
0.00676476
0.00690912
0.295435
0.155278
0.0886513
0.0539025
0.0345259
0.0232044
0.0163836
0.0122104
0.0096513
0.00810525
0.007207
0.00670668
0.00643475
0.00629202
0.00622069
0.00618543
0.00616679
0.00615563
0.00614809
0.00614257
0.00613835
0.00613504
0.00613241
0.00613031
0.00612862
0.00612728
0.00612622
0.00612541
0.00612479
0.00612437
0.00612411
0.00612401
0.00612406
0.00612426
0.00612463
0.00612516
0.00612588
0.00612681
0.00612798
0.00612944
0.00613122
0.00613341
0.00613609
0.00613936
0.00614338
0.00614833
0.00615444
0.00616206
0.00617159
0.00618364
0.00619898
0.0062187
0.00624441
0.00627801
0.00632357
0.00638266
0.00647106
0.00656866
0.00676428
0.00690801
0.295413
0.155377
0.0888175
0.0540896
0.0347031
0.0233554
0.0165035
0.0123012
0.00971762
0.00815099
0.00723574
0.00672332
0.00644398
0.00629698
0.0062233
0.0061868
0.00616753
0.00615604
0.00614832
0.0061427
0.00613842
0.00613508
0.00613242
0.00613031
0.00612862
0.00612727
0.00612621
0.00612539
0.00612478
0.00612435
0.00612409
0.00612399
0.00612404
0.00612425
0.00612461
0.00612514
0.00612586
0.00612679
0.00612797
0.00612942
0.00613121
0.0061334
0.00613608
0.00613935
0.00614337
0.00614832
0.00615444
0.00616206
0.0061716
0.00618365
0.006199
0.00621873
0.00624446
0.00627808
0.00632366
0.00638278
0.00647115
0.00656869
0.00676384
0.00690702
0.295394
0.155469
0.0889744
0.054267
0.0348718
0.0234996
0.0166182
0.0123882
0.00978152
0.00819544
0.00726397
0.00673979
0.00645314
0.00630191
0.0062259
0.00618818
0.00616827
0.00615645
0.00614855
0.00614283
0.00613849
0.00613511
0.00613244
0.00613031
0.00612861
0.00612726
0.0061262
0.00612537
0.00612476
0.00612434
0.00612408
0.00612397
0.00612403
0.00612423
0.00612459
0.00612513
0.00612585
0.00612678
0.00612795
0.00612941
0.0061312
0.00613339
0.00613606
0.00613934
0.00614336
0.00614831
0.00615444
0.00616206
0.00617161
0.00618366
0.00619903
0.00621876
0.00624451
0.00627815
0.00632375
0.00638289
0.00647124
0.00656873
0.00676344
0.00690616
0.295376
0.155556
0.0891224
0.054435
0.0350321
0.0236371
0.016728
0.0124717
0.009843
0.00823858
0.00729166
0.00675607
0.00646222
0.00630682
0.00622849
0.00618954
0.00616901
0.00615685
0.00614878
0.00614296
0.00613856
0.00613515
0.00613245
0.00613031
0.00612861
0.00612725
0.00612619
0.00612536
0.00612475
0.00612432
0.00612406
0.00612396
0.00612401
0.00612422
0.00612458
0.00612511
0.00612583
0.00612677
0.00612794
0.00612939
0.00613118
0.00613337
0.00613605
0.00613933
0.00614335
0.00614831
0.00615443
0.00616206
0.00617161
0.00618367
0.00619904
0.00621879
0.00624455
0.0062782
0.00632382
0.00638298
0.00647131
0.00656876
0.00676308
0.00690542
0.29536
0.155637
0.0892618
0.0545939
0.0351844
0.0237682
0.0168328
0.0125515
0.00990209
0.00828037
0.00731878
0.00677213
0.00647122
0.00631168
0.00623106
0.00619091
0.00616974
0.00615726
0.00614901
0.00614309
0.00613863
0.00613519
0.00613247
0.00613032
0.0061286
0.00612724
0.00612618
0.00612535
0.00612474
0.00612431
0.00612405
0.00612395
0.006124
0.0061242
0.00612457
0.0061251
0.00612582
0.00612675
0.00612793
0.00612938
0.00613117
0.00613336
0.00613604
0.00613932
0.00614335
0.0061483
0.00615443
0.00616206
0.00617161
0.00618368
0.00619906
0.00621882
0.00624458
0.00627825
0.00632389
0.00638306
0.00647137
0.00656878
0.00676276
0.00690479
0.295345
0.155714
0.0893931
0.0547441
0.0353289
0.0238929
0.0169328
0.0126279
0.00995881
0.00832081
0.00734529
0.00678797
0.00648012
0.0063165
0.00623361
0.00619226
0.00617047
0.00615766
0.00614923
0.00614322
0.00613871
0.00613522
0.00613249
0.00613032
0.0061286