/*--------------------------------*- C++ -*----------------------------------*\
| =========                 |                                                 |
| \\      /  F ield         | OpenFOAM: The Open Source CFD Toolbox           |
|  \\    /   O peration     | Version:  2.4.0                                 |
|   \\  /    A nd           | Web:      www.OpenFOAM.org                      |
|    \\/     M anipulation  |                                                 |
\*---------------------------------------------------------------------------*/
FoamFile
{
    version     2.0;
    format      ascii;
    class       surfaceScalarField;
    location    "25";
    object      phi;
}
// * * * * * * * * * * * * * * * * * * * * * * * * * * * * * * * * * * * * * //

dimensions      [0 3 -1 0 0 0 0];

internalField   nonuniform List<scalar> 
19800
(
0.000136435
5.59101e-05
0.000113499
2.29216e-05
9.4984e-05
1.84983e-05
8.51115e-05
9.8542e-06
7.72764e-05
7.81926e-06
7.25144e-05
4.74652e-06
6.91731e-05
3.32488e-06
6.73815e-05
1.77589e-06
6.66231e-05
7.43915e-07
6.67372e-05
-1.29624e-07
6.74573e-05
-7.33113e-07
6.86005e-05
-1.14984e-06
6.99882e-05
-1.39352e-06
7.14646e-05
-1.48102e-06
7.28953e-05
-1.43473e-06
7.4177e-05
-1.28549e-06
7.52545e-05
-1.08114e-06
7.61372e-05
-8.86772e-07
7.68728e-05
-7.41102e-07
-2.60738e-07
7.71227e-05
0.00014587
0.000107707
0.000121774
4.69947e-05
0.000102834
3.74118e-05
9.20642e-05
2.05965e-05
8.38049e-05
1.60547e-05
7.8465e-05
1.00629e-05
7.4721e-05
7.0439e-06
7.24927e-05
3.98095e-06
7.1367e-05
1.84571e-06
7.11419e-05
7.20337e-08
7.15725e-05
-1.18337e-06
7.24569e-05
-2.04415e-06
7.36105e-05
-2.55573e-06
7.48771e-05
-2.75382e-06
7.6129e-05
-2.69238e-06
7.72773e-05
-2.43876e-06
7.82764e-05
-2.08518e-06
7.91102e-05
-1.72568e-06
7.97536e-05
-1.39087e-06
-8.91038e-07
8.0375e-05
0.000155768
0.000155097
0.00013114
7.16044e-05
0.000111704
5.6828e-05
0.000100105
3.21727e-05
9.12315e-05
2.49086e-05
8.52621e-05
1.60129e-05
8.09943e-05
1.12914e-05
7.82844e-05
6.67144e-06
7.6727e-05
3.38437e-06
7.61042e-05
6.75849e-07
7.61774e-05
-1.27275e-06
7.67437e-05
-2.61913e-06
7.76138e-05
-3.4335e-06
7.86342e-05
-3.78012e-06
7.96883e-05
-3.752e-06
8.07031e-05
-3.45861e-06
8.16451e-05
-3.03211e-06
8.25032e-05
-2.58903e-06
8.32811e-05
-2.17457e-06
-1.70888e-06
8.4092e-05
0.000166201
0.000197675
0.000141462
9.63167e-05
0.000121666
7.65958e-05
0.000109279
4.45308e-05
9.97694e-05
3.4391e-05
9.3132e-05
2.26241e-05
8.82826e-05
1.6114e-05
8.50312e-05
9.89634e-06
8.29902e-05
5.39886e-06
8.19269e-05
1.71302e-06
8.16068e-05
-9.72232e-07
8.18282e-05
-2.85253e-06
8.24033e-05
-4.01735e-06
8.31847e-05
-4.56863e-06
8.40668e-05
-4.63985e-06
8.49868e-05
-4.38413e-06
8.59145e-05
-3.96485e-06
8.68337e-05
-3.51353e-06
8.77377e-05
-3.08409e-06
-2.6437e-06
8.86666e-05
0.000177153
0.000235102
0.000152701
0.000120752
0.000132696
9.65822e-05
0.000119571
5.76346e-05
0.000109426
4.4516e-05
0.000102106
2.99237e-05
9.66441e-05
2.15559e-05
9.28107e-05
1.37106e-05
9.02415e-05
7.94818e-06
8.86944e-05
3.24149e-06
8.79411e-05
-2.3445e-07
8.77857e-05
-2.70646e-06
8.80456e-05
-4.28515e-06
8.85804e-05
-5.10967e-06
8.92908e-05
-5.35613e-06
9.01159e-05
-5.21457e-06
9.10176e-05
-4.87186e-06
9.19652e-05
-4.46631e-06
9.29321e-05
-4.05649e-06
-3.63226e-06
9.39153e-05
0.000188566
0.000267049
0.000164781
0.000144506
0.000144736
0.000116597
0.000130942
7.13972e-05
0.000120177
5.52507e-05
0.000112178
3.7893e-05
0.000106091
2.76141e-05
0.000101651
1.81192e-05
9.85209e-05
1.10491e-05
9.64518e-05
5.28284e-06
9.5225e-05
9.72154e-07
9.46546e-05
-2.14934e-06
9.45686e-05
-4.20889e-06
9.48325e-05
-5.38108e-06
9.53491e-05
-5.87936e-06
9.60519e-05
-5.92306e-06
9.68888e-05
-5.71447e-06
9.78125e-05
-5.39533e-06
9.87799e-05
-5.0293e-06
-4.62264e-06
9.97651e-05
0.000200356
0.000293339
0.000177608
0.000167235
0.000157713
0.000136473
0.000143335
8.57545e-05
0.000131985
6.65798e-05
0.000123325
4.65333e-05
0.000116617
3.43027e-05
0.000111563
2.31502e-05
0.000107853
1.47406e-05
0.000105236
7.88002e-06
0.000103501
2.69346e-06
0.000102475
-1.13473e-06
0.000102005
-3.74666e-06
0.000101961
-5.34443e-06
0.000102246
-6.17008e-06
0.000102783
-6.46622e-06
0.000103506
-6.44322e-06
0.000104353
-6.24763e-06
0.000105268
-5.94992e-06
-5.5722e-06
0.000106212
0.000212426
0.000313818
0.000191065
0.00018856
0.000171533
0.000155971
0.00015668
0.000100572
0.000144799
7.8427e-05
0.000135511
5.57898e-05
0.0001282
4.15816e-05
0.000122541
2.87743e-05
0.000118248
1.90019e-05
0.000115069
1.10298e-05
0.000112804
4.93827e-06
0.000111291
3.63509e-07
0.000110397
-2.86381e-06
0.000110002
-4.95756e-06
0.000110006
-6.18169e-06
0.000110325
-6.79211e-06
0.00011088
-7.00477e-06
0.000111597
-6.97075e-06
0.000112413
-6.77097e-06
-6.44177e-06
0.000113277
0.000224666
0.000328539
0.000205025
0.000208179
0.000186087
0.000174891
0.000170893
0.000115745
0.000158552
9.07459e-05
0.000148683
6.56395e-05
0.000140801
4.94444e-05
0.000134559
3.49948e-05
0.000129694
2.38458e-05
0.000125958
1.47473e-05
0.000123158
7.72402e-06
0.000121139
2.37185e-06
0.000119786
-1.52061e-06
0.000118995
-4.17431e-06
0.000118667
-5.86097e-06
0.000118711
-6.8434e-06
0.000119041
-7.34137e-06
0.000119575
-7.51081e-06
0.000120242
-7.44393e-06
-7.19043e-06
0.000120985
0.000236954
0.000337577
0.00021934
0.000225749
0.000201245
0.000192947
0.000185867
0.000131084
0.000173159
0.000103416
0.00016277
7.59942e-05
0.000154359
5.78194e-05
0.000147566
4.17501e-05
0.000142155
2.92228e-05
0.00013788
1.89938e-05
0.000134557
1.10258e-05
0.00013203
4.8828e-06
0.000130197
2.99559e-07
0.000128973
-2.96099e-06
0.000128264
-5.16031e-06
0.000127977
-6.56473e-06
0.000128023
-7.39444e-06
0.000128316
-7.81076e-06
0.000128781
-7.91587e-06
-7.77231e-06
0.000129357
0.000249167
0.000341254
0.000233853
0.000241036
0.000216861
0.000209918
0.00020148
0.000146443
0.000188512
0.000116362
0.000177678
8.68093e-05
0.000168789
6.66865e-05
0.000161487
4.90304e-05
0.000155563
3.51267e-05
0.000150776
2.37632e-05
0.000146951
1.48361e-05
0.000143934
7.88767e-06
0.000141622
2.60125e-06
0.000139942
-1.29034e-06
0.000138813
-4.04022e-06
0.000138145
-5.90557e-06
0.00013785
-7.1077e-06
0.000137845
-7.81236e-06
0.000138052
-8.13115e-06
-8.13473e-06
0.000138408
0.000261181
0.000339883
0.000248394
0.000253769
0.000232769
0.000225499
0.000217588
0.00016158
0.000204487
0.000129421
0.000193295
9.79643e-05
0.000183988
7.5954e-05
0.000176223
5.67559e-05
0.000169823
4.14932e-05
0.000164556
2.90011e-05
0.000160258
1.91128e-05
0.000156778
1.13505e-05
0.000154002
5.36302e-06
0.00015186
8.39535e-07
0.000150289
-2.47953e-06
0.000149205
-4.83103e-06
0.000148524
-6.43591e-06
0.000148167
-7.46443e-06
0.000148062
-8.03483e-06
-8.22571e-06
0.000148146
0.000272878
0.00033406
0.000262788
0.000263827
0.000248785
0.000239479
0.000234025
0.000176318
0.000220936
0.000142489
0.000209486
0.000109396
0.000199828
8.5591e-05
0.000191652
6.49101e-05
0.000184815
4.83116e-05
0.000179102
3.46967e-05
0.000174359
2.38424e-05
0.000170439
1.52574e-05
0.000167228
8.56198e-06
0.000164641
3.41583e-06
0.000162619
-4.68643e-07
0.0001611
-3.32136e-06
0.000160004
-5.34992e-06
0.000159259
-6.72938e-06
0.0001588
-7.58516e-06
-8.00005e-06
0.000158567
0.000284152
0.000324312
0.000276861
0.00027105
0.000264715
0.000251573
0.000250612
0.000190372
0.000237692
0.000155363
0.0002261
0.000120948
0.000216167
9.54826e-05
0.000207636
7.3402e-05
0.000200403
5.55111e-05
0.000194276
4.07962e-05
0.000189114
2.89835e-05
0.000184776
1.95771e-05
0.000181152
1.21709e-05
0.000178144
6.41044e-06
0.000175687
1.97597e-06
0.000173731
-1.37681e-06
0.000172212
-3.84092e-06
0.000171063
-5.5915e-06
0.000170228
-6.76024e-06
-7.43254e-06
0.000169651
0.000294923
0.000311458
0.000290448
0.000275487
0.000280357
0.000261639
0.000267152
0.000203555
0.000254576
0.000167918
0.00024297
0.000132535
0.000232849
0.000105584
0.000224027
8.2204e-05
0.000216444
6.30765e-05
0.000209936
4.72876e-05
0.000204379
3.45268e-05
0.000199644
2.42989e-05
0.000195623
1.61796e-05
0.000192223
9.79869e-06
0.000189359
4.82824e-06
0.000186982
9.89873e-07
0.000185048
-1.91771e-06
0.0001835
-4.05662e-06
0.00018229
-5.55965e-06
-6.5205e-06
0.000181367
0.000305145
0.000296132
0.000303412
0.000277137
0.000295518
0.000269472
0.000283447
0.000215572
0.0002714
0.000179919
0.000259923
0.000143968
0.000249714
0.000115752
0.000240674
9.12067e-05
0.000232793
7.09255e-05
0.000225944
5.4111e-05
0.000220021
4.04288e-05
0.00021491
2.9392e-05
0.00021051
2.05636e-05
0.000206733
1.35617e-05
0.000203498
8.05054e-06
0.000200738
3.73893e-06
0.000198413
3.94652e-07
0.00019649
-2.14504e-06
0.000194923
-4.00639e-06
-5.27791e-06
0.000193673
0.000314818
0.000279249
0.000315657
0.000276256
0.00031003
0.000275073
0.000299312
0.000226271
0.00028798
0.000191234
0.00027679
0.000155141
0.000266605
0.000125918
0.000257433
0.000100361
0.000249318
7.90238e-05
0.000242175
6.124e-05
0.000235922
4.6668e-05
0.000230464
3.48375e-05
0.00022571
2.53046e-05
0.00022158
1.76801e-05
0.000217999
1.16198e-05
0.0002149
6.82722e-06
0.000212231
3.05128e-06
0.000209967
1.06058e-07
0.000208079
-2.12949e-06
-3.73652e-06
0.000206527
0.000323993
0.000261369
0.000327149
0.000273005
0.000323775
0.000278378
0.000314591
0.000235399
0.000304157
0.000201622
0.000293417
0.000165837
0.000283383
0.000135911
0.000274178
0.000109532
0.000265906
8.72667e-05
0.000258529
6.85932e-05
0.000251994
5.31829e-05
0.000246228
4.05865e-05
0.000241154
3.03631e-05
0.000236702
2.2118e-05
0.000232806
1.5503e-05
0.000229407
1.02154e-05
0.000226446
5.99945e-06
0.000223889
2.64908e-06
0.000221718
3.03388e-08
-1.92953e-06
0.000219902
0.000332772
0.0002433
0.000337925
0.000267812
0.000336706
0.000279572
0.000329187
0.000242902
0.000319814
0.00021098
0.000309688
0.000175948
0.000299939
0.000145644
0.000290809
0.000118645
0.000282469
9.55935e-05
0.00027493
7.61191e-05
0.000268173
5.99271e-05
0.00026215
4.65977e-05
0.000256801
3.56996e-05
0.000252069
2.68385e-05
0.000247897
1.96639e-05
0.000244232
1.38692e-05
0.000241023
9.194e-06
0.00023823
5.43177e-06
0.00023582
2.42691e-06
1.07145e-07
0.000233776
0.000341287
0.000225348
0.00034809
0.000260907
0.00034886
0.00027873
0.000343072
0.000248635
0.000334893
0.000219113
0.000325529
0.000185271
0.000316199
0.000154936
0.000307261
0.000127551
0.000298948
0.000103879
0.00029133
8.37157e-05
0.000284422
6.68167e-05
0.000278202
5.28011e-05
0.000272632
4.12547e-05
0.000267669
3.17893e-05
0.000263265
2.40559e-05
0.000259375
1.77472e-05
0.000255956
1.26014e-05
0.000252965
8.40739e-06
0.000250371
5.01417e-06
2.33217e-06
0.000248134
0.000349679
0.000208086
0.000357792
0.000252761
0.000360344
0.000276158
0.00035629
0.000252677
0.000349396
0.000225996
0.000340921
0.000193733
0.000332135
0.000163708
0.000323501
0.000136172
0.000315318
0.00011205
0.000307707
9.13148e-05
0.000300723
7.37885e-05
0.000294375
5.91377e-05
0.000288644
4.69739e-05
0.000283502
3.69201e-05
0.000278915
2.86327e-05
0.000274843
2.18071e-05
0.000271248
1.61831e-05
0.000268095
1.15491e-05
0.000265346
7.75218e-06
4.70775e-06
0.000262963
0.000358069
0.000191549
0.000367185
0.000243543
0.000371304
0.000271967
0.000368936
0.000254994
0.000363378
0.00023151
0.000355889
0.000201183
0.000347756
0.000171805
0.000339531
0.000144367
0.000331572
0.000119985
0.000324056
9.88109e-05
0.000317075
8.07522e-05
0.000310668
6.55303e-05
0.000304838
5.27902e-05
0.000299573
4.21728e-05
0.00029485
3.33446e-05
0.000290638
2.60071e-05
0.000286905
1.99023e-05
0.000283619
1.48244e-05
0.000280743
1.06182e-05
7.20302e-06
0.000278239
0.000366558
0.000176115
0.000376409
0.000233667
0.000381888
0.000266475
0.000381126
0.00025575
0.000376922
0.000235705
0.000370487
0.000207608
0.000363096
0.000179184
0.000355372
0.00015208
0.000347726
0.000127619
0.000340387
0.00010614
0.000333483
8.76447e-05
0.000327083
7.19189e-05
0.000321215
5.8648e-05
0.000315881
4.74965e-05
0.000311069
3.81455e-05
0.000306758
3.03051e-05
0.000302923
2.3727e-05
0.000299532
1.82033e-05
0.000296554
1.35886e-05
9.7986e-06
0.00029395
0.000375221
0.000161646
0.000385577
0.000223212
0.000392226
0.000259758
0.000392975
0.000254953
0.000390117
0.000238521
0.00038478
0.000212909
0.000378199
0.000185733
0.000371053
0.000159199
0.000363799
0.00013485
0.00035671
0.00011321
0.000349953
9.43856e-05
0.000343624
7.82333e-05
0.000337774
6.44856e-05
0.000332421
5.28379e-05
0.000327566
4.29896e-05
0.000323196
3.46642e-05
0.000319289
2.76202e-05
0.000315825
2.16613e-05
0.000312764
1.66377e-05
1.24769e-05
0.000310082
0.000384114
0.000148413
0.000394774
0.000212533
0.000402419
0.000252104
0.000404576
0.000252792
0.000403043
0.000240047
0.000398827
0.000217116
0.00039311
0.000191438
0.000386606
0.000165693
0.00037981
0.000141635
0.000373038
0.000119973
0.000366489
0.000100924
0.000360289
8.44226e-05
0.000354509
7.02555e-05
0.000349184
5.81523e-05
0.000344326
4.7836e-05
0.000339932
3.90474e-05
0.000335987
3.15546e-05
0.000332471
2.51681e-05
0.000329355
1.97459e-05
1.5216e-05
0.000326609
0.00039328
0.000136185
0.000404067
0.000201649
0.000412541
0.000243566
0.000416
0.000249289
0.000415756
0.000240252
0.000412675
0.000220163
0.000407863
0.00019622
0.000402053
0.000171478
0.000395773
0.000147894
0.000389374
0.000126354
0.000383089
0.000107193
0.000377069
9.04292e-05
0.000371406
7.59064e-05
0.000366152
6.33955e-05
0.00036133
5.26475e-05
0.000356944
4.34203e-05
0.00035299
3.54988e-05
0.000349449
2.87003e-05
0.000346298
2.28894e-05
1.79987e-05
0.000343508
0.000402753
0.000125177
0.000413509
0.000190881
0.00042265
0.000234425
0.000427298
0.00024464
0.0004283
0.000239243
0.000426355
0.0002221
0.000422479
0.000200086
0.000417408
0.000176539
0.000411694
0.000153598
0.000405719
0.000132318
0.000399747
0.000113155
0.000393953
9.62129e-05
0.00038845
8.13998e-05
0.000383305
6.8531e-05
0.000378552
5.73885e-05
0.000374207
4.77543e-05
0.000370269
3.94261e-05
0.000366727
3.22333e-05
0.000363562
2.60473e-05
2.08057e-05
0.000360748
0.000412561
0.000115108
0.000423147
0.000180205
0.00043279
0.000224724
0.000438506
0.000238883
0.000440702
0.000237011
0.000439885
0.000222885
0.000436968
0.000202977
0.000432673
0.000180811
0.000427569
0.000158682
0.000422065
0.000137806
0.000416449
0.000118756
0.000410923
0.000101726
0.000405618
8.6694e-05
0.000400616
7.35224e-05
0.000395965
6.20289e-05
0.000391688
5.20187e-05
0.000387793
4.3311e-05
0.000384273
3.57442e-05
0.000381114
2.91994e-05
2.36188e-05
0.000378295
0.000422727
0.000106163
0.000433022
0.000169902
0.000443005
0.00021474
0.000449658
0.00023223
0.00045298
0.000233683
0.000453275
0.000222582
0.000451331
0.000204911
0.000447845
0.000184287
0.00044339
0.000163127
0.000438397
0.000142788
0.00043318
0.000123962
0.00042796
0.000106937
0.000422888
9.17563e-05
0.000418062
7.83388e-05
0.000413541
6.6538e-05
0.000409359
5.61907e-05
0.00040553
4.71292e-05
0.000402054
3.92127e-05
0.000398921
3.23258e-05
2.64212e-05
0.000396112
0.00043327
9.80316e-05
0.000443175
0.000159916
0.000453337
0.000204525
0.000460785
0.000224743
0.000465152
0.000229281
0.00046653
0.000221174
0.000465566
0.000205849
0.000462915
0.000186917
0.000459144
0.000166879
0.000454702
0.000147215
0.00044992
0.00012873
0.000445042
0.000111803
0.000440237
9.65515e-05
0.000435616
8.29488e-05
0.000431254
7.08908e-05
0.000427189
6.02413e-05
0.000423452
5.08613e-05
0.000420036
4.26163e-05
0.00041695
3.54101e-05
2.91947e-05
0.000414166
0.000444208
9.08774e-05
0.000453643
0.000150483
0.00046383
0.000194341
0.000471921
0.000216651
0.000477239
0.000223958
0.000479656
0.000218748
0.000479671
0.000205826
0.000477873
0.000188705
0.000474819
0.000169924
0.000470961
0.000151063
0.000466652
0.00013303
0.00046215
0.000116295
0.000457643
0.00010105
0.000453256
8.73242e-05
0.000449076
7.50595e-05
0.000445156
6.41513e-05
0.000441525
5.44825e-05
0.000438196
4.5939e-05
0.000435166
3.84322e-05
3.19259e-05
0.00043243
0.000455552
8.43872e-05
0.00046446
0.000141502
0.000474529
0.000184223
0.000483105
0.000208036
0.000489263
0.000217767
0.000492665
0.000215319
0.000493643
0.000204825
0.000492712
0.000189617
0.0004904
0.000172219
0.000487161
0.000154288
0.000483357
0.000136821
0.000479264
0.000120376
0.000475085
0.000105219
0.000470961
9.14381e-05
0.000466988
7.90191e-05
0.000463233
6.78966e-05
0.00045973
5.79752e-05
0.000456502
4.91611e-05
0.000453548
4.13781e-05
3.45987e-05
0.00045087
0.000467313
7.871e-05
0.000475659
0.00013316
0.000485482
0.000174401
0.000494383
0.000199132
0.000501258
0.000210885
0.000505573
0.000210996
0.000507489
0.0002029
0.000507428
0.000189668
0.000505879
0.000173759
0.000503287
0.00015687
0.00050002
0.000140078
0.000496369
0.000124019
0.000492547
0.000109031
0.00048871
9.52623e-05
0.000484971
8.27491e-05
0.0004814
7.14556e-05
0.000478047
6.13212e-05
0.000474935
5.22661e-05
0.000472073
4.42328e-05
3.72001e-05
0.000469467
0.0004795
7.35377e-05
0.000487267
0.000125323
0.000496737
0.00016488
0.000505804
0.000190027
0.000513262
0.000203394
0.000518404
0.000205827
0.000521218
0.000200064
0.000522022
0.000188846
0.00052125
0.000174515
0.00051933
0.000158777
0.000516631
0.000142766
0.00051345
0.00012719
0.000510014
0.000112457
0.000506493
9.8773e-05
0.000503006
8.62214e-05
0.000499646
7.48109e-05
0.000496455
6.45e-05
0.00049348
5.524e-05
0.000490721
4.69808e-05
3.97186e-05
0.000488202
0.000492118
6.90137e-05
0.000499309
0.000118131
0.000508341
0.000155844
0.000517423
0.00018094
0.000525321
0.000195487
0.000531191
0.000199949
0.000534851
0.000196395
0.000536502
0.000187186
0.000536514
0.000174494
0.000535286
0.000159996
0.000533179
0.000144863
0.000530497
0.000129864
0.000527475
0.000115468
0.000524294
0.000101943
0.000521088
8.94171e-05
0.000517951
7.79378e-05
0.000514948
6.74969e-05
0.000512116
5.80642e-05
0.000509482
4.96109e-05
4.21404e-05
0.000507053
0.000505173
6.48497e-05
0.000511806
0.000111424
0.000520338
0.000147257
0.000529297
0.000171939
0.00053749
0.000187262
0.000543975
0.000193438
0.000548413
0.000191936
0.000550883
0.0001847
0.000551676
0.000173686
0.000551153
0.000160506
0.000549662
0.000146343
0.000547504
0.000132012
0.000544922
0.00011804
0.000542105
0.000104746
0.000539201
9.23117e-05
0.000536311
8.08187e-05
0.000533509
7.02925e-05
0.00053084
6.07258e-05
0.000528338
5.21085e-05
4.44559e-05
0.000526016
0.000518668
6.11907e-05
0.000524774
0.000105308
0.000532769
0.00013925
0.000541485
0.000163212
0.000549828
0.000178909
0.000556806
0.000186451
0.000561942
0.00018679
0.000565187
0.000181445
0.000566749
0.000172115
0.000566938
0.000160308
0.00056608
0.000147193
0.000564468
0.000133615
0.000562348
0.000120148
0.000559921
0.000107163
0.000557339
9.4883e-05
0.000554715
8.34352e-05
0.000552131
7.28701e-05
0.00054964
6.32104e-05
0.000547283
5.44616e-05
4.66543e-05
0.000545077
0.000532607
5.77703e-05
0.000538225
9.96091e-05
0.000545669
0.000131744
0.000554044
0.000154791
0.000562398
0.000170522
0.000569739
0.000179084
0.00057548
0.00018103
0.000579447
0.000177461
0.000581753
0.000169795
0.000582652
0.000159398
0.000582437
0.000147399
0.000581389
0.000134653
0.000579755
0.000121772
0.000577735
0.000109168
0.0005755
9.71145e-05
0.000573157
8.57661e-05
0.000570811
7.52157e-05
0.000568508
6.55026e-05
0.00056631
5.66596e-05
4.87249e-05
0.000564229
0.000546995
5.47368e-05
0.000552168
9.44171e-05
0.000559068
0.000124826
0.000567029
0.000146813
0.000575266
0.000162272
0.000582839
0.0001715
0.000589079
0.00017478
0.0005937
0.000172831
0.000596715
0.00016677
0.000598312
0.000157793
0.000598744
0.000146958
0.000598273
0.000135113
0.00059714
0.000122893
0.000595553
0.000110746
0.000593675
9.89825e-05
0.000591638
8.77976e-05
0.000589536
7.73105e-05
0.000587445
6.75912e-05
0.000585408
5.86886e-05
5.06591e-05
0.000583471
0.000561835
5.18495e-05
0.00056661
8.95556e-05
0.000572989
0.00011838
0.000580489
0.000139264
0.0005885
0.000154227
0.000596172
0.000163801
0.000602799
0.000168133
0.000607993
0.000167622
0.00061167
0.000163081
0.000613942
0.00015551
0.000615017
0.000145875
0.000615131
0.00013499
0.000614512
0.000123497
0.00061337
0.000111879
0.000611871
0.000100473
0.000610152
8.95114e-05
0.000608313
7.91422e-05
0.000606439
6.94619e-05
0.000604581
6.05397e-05
5.24466e-05
0.000602791
0.000577132
4.92633e-05
0.000581557
8.51046e-05
0.00058745
0.000112463
0.000594467
0.000132228
0.000602162
0.000146516
0.000609811
0.000156139
0.000616706
0.000161227
0.000622382
0.000161935
0.00062666
0.000158793
0.000629574
0.000152588
0.000631278
0.000144163
0.000631974
0.00013428
0.000631881
0.000123581
0.000631194
0.000112553
0.000630088
0.000101574
0.000628699
9.08941e-05
0.000627137
8.06982e-05
0.000625493
7.11033e-05
0.000623824
6.22022e-05
5.40787e-05
0.00062219
0.000592891
4.67573e-05
0.000597011
8.08982e-05
0.000602464
0.000106942
0.000608997
0.000125646
0.000616311
0.000139166
0.000623826
0.000148599
0.00063087
0.000154163
0.000636928
0.000155863
0.000641735
0.000153974
0.000645246
0.000149067
0.000647554
0.000141844
0.000648828
0.000132997
0.000649256
0.000123136
0.000649039
0.000112767
0.00064833
0.00010227
0.000647288
9.19372e-05
0.000646009
8.19657e-05
0.000644608
7.25068e-05
0.000643134
6.36662e-05
5.55481e-05
0.000641666
0.000609121
4.44833e-05
0.000612977
7.70152e-05
0.000618039
0.000101854
0.000624107
0.000119556
0.000631001
0.000132253
0.000638287
0.000141298
0.000645364
0.000147073
0.000651697
0.000149519
0.000656951
0.000148711
0.000661003
0.000145007
0.000663883
0.000138953
0.000665714
0.000131153
0.000666665
0.000122175
0.00066691
0.000112513
0.000666614
0.000102562
0.000665916
9.26285e-05
0.000664941
8.29388e-05
0.00066378
7.3661e-05
0.00066252
6.49252e-05
5.6846e-05
0.000661215
0.000625827
4.22505e-05
0.000629458
7.33032e-05
0.000634179
9.70663e-05
0.000639815
0.00011387
0.000646273
0.000125758
0.000653257
0.000134288
0.000660262
0.000140047
0.000666762
0.000143003
0.000672372
0.000143089
0.000676898
0.000140471
0.000680305
0.000135536
0.000682668
0.000128775
0.000684126
0.000120707
0.000684833
0.000111797
0.000684946
0.000102444
0.000684602
9.29662e-05
0.00068393
8.36094e-05
0.000683022
7.45617e-05
0.000681975
6.59716e-05
5.79676e-05
0.000680847
0.000643021
4.02034e-05
0.000646459
6.98378e-05
0.000650888
9.26105e-05
0.000656135
0.000108598
0.000662163
0.00011971
0.000668794
0.00012764
0.000675635
0.000133192
0.000682196
0.000136429
0.000688066
0.000137209
0.000692989
0.000135539
0.000696867
0.000131642
0.000699729
0.000125902
0.000701671
0.000118751
0.000702831
0.000110631
0.000703348
0.000101921
0.000703359
9.29503e-05
0.000702991
8.39754e-05
0.000702342
7.52046e-05
0.000701512
6.68013e-05
5.89081e-05
0.000700564
0.000660709
3.81635e-05
0.000663985
6.64843e-05
0.000668166
8.83652e-05
0.000673071
0.000103641
0.000678692
0.000114051
0.000684944
0.000121359
0.000691546
0.000126569
0.000698071
0.000129888
0.000704102
0.000131166
0.000709338
0.00013029
0.000713627
0.000127342
0.000716937
0.000122573
0.000719341
0.000116344
0.000720929
0.00010903
0.000721847
0.000101005
0.000722203
9.25829e-05
0.000722143
8.40393e-05
0.000721749
7.55878e-05
0.000721141
6.74133e-05
5.96645e-05
0.000720375
0.000678905
3.6267e-05
0.000682043
6.33192e-05
0.000686015
8.43622e-05
0.000690628
9.90003e-05
0.000695877
0.000108778
0.000701746
0.00011547
0.000708054
0.000120243
0.000714455
0.000123472
0.000720552
0.000125057
0.000726013
0.000124815
0.000730638
0.000122702
0.00073435
0.000118848
0.000737169
0.000113514
0.000739172
0.000107023
0.000740463
9.97066e-05
0.000741169
9.18761e-05
0.000741398
8.38026e-05
0.000741272
7.57148e-05
0.000740872
6.78052e-05
6.02365e-05
0.000740301
0.000697619
3.43571e-05
0.000700639
6.02219e-05
0.000704438
8.04979e-05
0.000708804
9.45815e-05
0.000713724
0.000103817
0.000719222
0.000109942
0.000725205
0.000114235
0.000731411
0.000117248
0.000737483
0.000118972
0.000743082
0.000119202
0.000747966
0.000117799
0.000752018
0.000114782
0.000755211
0.000110311
0.000757591
0.000104637
0.000759241
9.80501e-05
0.000760275
9.08408e-05
0.000760794
8.32757e-05
0.000760921
7.55887e-05
0.000760737
6.79814e-05
6.06243e-05
0.00076035
0.000716864
3.25623e-05
0.000719784
5.72694e-05
0.000723438
7.68096e-05
0.000727599
9.03888e-05
0.000732235
9.91537e-05
0.000737389
0.000104763
0.000743035
0.000108569
0.000748993
0.000111273
0.000754961
0.000112989
0.00076061
0.000113537
0.000765676
0.000112715
0.000770001
0.000110443
0.000773516
0.000106784
0.000776236
0.000101911
0.000778217
9.6061e-05
0.000779561
8.94956e-05
0.000780359
8.24698e-05
0.000780731
7.52174e-05
0.000780759
6.79455e-05
6.08305e-05
0.000780553
0.000736651
3.07375e-05
0.000739485
5.43546e-05
0.000743019
7.32072e-05
0.000747011
8.63426e-05
0.000751407
9.47137e-05
0.000756253
9.98842e-05
0.000761567
0.000103229
0.000767243
0.000105576
0.000773043
0.000107174
0.000778662
0.0001079
0.000783829
0.000107527
0.000788357
0.000105901
0.000792139
0.00010299
0.000795156
9.88883e-05
0.000797438
9.37713e-05
0.000799069
8.78635e-05
0.00080013
8.14009e-05
0.000800737
7.46118e-05
0.000800969
6.77049e-05
6.08597e-05
0.000800941
0.000756995
2.90084e-05
0.000759754
5.15556e-05
0.000763187
6.97358e-05
0.00076704
8.24537e-05
0.000771237
9.04845e-05
0.000775814
9.52794e-05
0.000780815
9.82053e-05
0.000786193
0.000100179
0.000791774
0.000101577
0.000797292
0.000102358
0.000802489
0.000102314
0.000807148
0.000101224
0.000811139
9.8991e-05
0.000814405
9.56154e-05
0.000816951
9.12173e-05
0.000818844
8.597e-05
0.000820149
8.00874e-05
0.000820978
7.3784e-05
0.000821406
6.72677e-05
6.0717e-05
0.00082155
0.000777908
2.72408e-05
0.000780602
4.87761e-05
0.000783948
6.63184e-05
0.000787687
7.86579e-05
0.00079172
8.64053e-05
0.000796068
9.08954e-05
0.000800783
9.34615e-05
0.000805864
9.50766e-05
0.000811191
9.62266e-05
0.000816557
9.69746e-05
0.000821705
9.71366e-05
0.000826437
9.64869e-05
0.000830567
9.48413e-05
0.00083404
9.21458e-05
0.000836806
8.84355e-05
0.000838935
8.38465e-05
0.000840459
7.85496e-05
0.000841498
7.27509e-05
0.000842109
6.66443e-05
6.04108e-05
0.00084242
0.000799407
2.55593e-05
0.000802042
4.60949e-05
0.000805312
6.30037e-05
0.000808955
7.49757e-05
0.000812854
8.24709e-05
0.000817009
8.67104e-05
0.00082147
8.8974e-05
0.000826264
9.02596e-05
0.000831324
9.11431e-05
0.000836487
9.17847e-05
0.000841542
9.20631e-05
0.000846268
9.17439e-05
0.000850494
9.06078e-05
0.000854105
8.85243e-05
0.000857068
8.54711e-05
0.000859383
8.15209e-05
0.000861121
7.68137e-05
0.000862334
7.15267e-05
0.000863133
6.58477e-05
5.99472e-05
0.000863586
0.000821504
2.3839e-05
0.000824086
4.34235e-05
0.000827289
5.97279e-05
0.00083085
7.13553e-05
0.000834637
7.86369e-05
0.00083863
8.26791e-05
0.00084287
8.47023e-05
0.000847398
8.57063e-05
0.000852187
8.63281e-05
0.000857122
8.68196e-05
0.00086203
8.71352e-05
0.000866701
8.70561e-05
0.000870959
8.63416e-05
0.000874667
8.48053e-05
0.000877773
8.23626e-05
0.000880254
7.90293e-05
0.000882166
7.49029e-05
0.000883549
7.01327e-05
0.000884509
6.48908e-05
5.93379e-05
0.000885107
0.000844217
2.22008e-05
0.000846748
4.08425e-05
0.000849889
5.65401e-05
0.000853378
6.78243e-05
0.00085707
7.49068e-05
0.000860927
7.8789e-05
0.000864978
8.06236e-05
0.000869265
8.13932e-05
0.000873787
8.17724e-05
0.000878484
8.20997e-05
0.000883207
8.23871e-05
0.000887777
8.24724e-05
0.000892014
8.2094e-05
0.000895773
8.10366e-05
0.00089898
7.91523e-05
0.000901593
7.64052e-05
0.000903653
7.2844e-05
0.000905185
6.8588e-05
0.00090629
6.3788e-05
5.85926e-05
0.000907023
0.00086756
2.05278e-05
0.000870043
3.82703e-05
0.000873125
5.33854e-05
0.000876548
6.43423e-05
0.000880157
7.12489e-05
0.000883898
7.50077e-05
0.000887786
7.67045e-05
0.000891856
7.72913e-05
0.000896135
7.74666e-05
0.000900579
7.7618e-05
0.000905105
7.78501e-05
0.000909528
7.8024e-05
0.000913709
7.79135e-05
0.000917466
7.72591e-05
0.000920741
7.58821e-05
0.000923447
7.36805e-05
0.000925631
7.06658e-05
0.000927289
6.69136e-05
0.000928526
6.2557e-05
5.77237e-05
0.00092938
0.000891551
1.89377e-05
0.000893986
3.57838e-05
0.00089701
5.03138e-05
0.00090037
6.09385e-05
0.000903904
6.7675e-05
0.000907545
7.13321e-05
0.000911291
7.29273e-05
0.000915172
7.33784e-05
0.000919218
7.33846e-05
0.000923429
7.33807e-05
0.00092773
7.35256e-05
0.000931996
7.37461e-05
0.000936065
7.38294e-05
0.000939803
7.35171e-05
0.000943087
7.25848e-05
0.000945877
7.08906e-05
0.000948137
6.83915e-05
0.000949921
6.51315e-05
0.000951252
6.12111e-05
5.67432e-05
0.000952235
0.000916206
1.73156e-05
0.000918593
3.33091e-05
0.000921558
4.72759e-05
0.000924856
5.75828e-05
0.00092832
6.41623e-05
0.00093187
6.77411e-05
0.000935492
6.9272e-05
0.000939205
6.96306e-05
0.000943045
6.95072e-05
0.000947029
6.93694e-05
0.00095111
6.94222e-05
0.000955192
6.96503e-05
0.000959133
6.98737e-05
0.000962805
6.98387e-05
0.00096608
6.9296e-05
0.000968907
6.80623e-05
0.000971234
6.60492e-05
0.000973106
6.32613e-05
0.000974533
5.97693e-05
5.56642e-05
0.000975615
0.000941545
1.57777e-05
0.000943881
3.09198e-05
0.000946786
4.43212e-05
0.00095002
5.4304e-05
0.000953415
6.07272e-05
0.000956882
6.42388e-05
0.000960392
6.57281e-05
0.000963955
6.60283e-05
0.000967612
6.58198e-05
0.000971383
6.55681e-05
0.00097525
6.55366e-05
0.000979139
6.57458e-05
0.000982931
6.60656e-05
0.000986512
6.62507e-05
0.000989749
6.60431e-05
0.000992587
6.52226e-05
0.000994958
6.36611e-05
0.000996898
6.13222e-05
0.000998404
5.82457e-05
5.44982e-05
0.000999572
0.000967583
1.42142e-05
0.000969867
2.85495e-05
0.000972709
4.14082e-05
0.000975877
5.10786e-05
0.000979202
5.73545e-05
0.000982588
6.08134e-05
0.000985995
6.22839e-05
0.000989429
6.25604e-05
0.000992913
6.22924e-05
0.000996499
6.19676e-05
0.00100015
6.18529e-05
0.00100385
6.20375e-05
0.00100748
6.24131e-05
0.00101096
6.27743e-05
0.00101413
6.28466e-05
0.00101695
6.2396e-05
0.00101934
6.12476e-05
0.00102134
5.9334e-05
0.0010229
5.66563e-05
5.32595e-05
0.00102415
0.000994342
1.27375e-05
0.00099657
2.62673e-05
0.000999346
3.85815e-05
0.00100244
4.79356e-05
0.0010057
5.40617e-05
0.001009
5.74705e-05
0.00101231
5.89354e-05
0.00101562
5.92101e-05
0.00101897
5.892e-05
0.00102236
5.85396e-05
0.00102583
5.83668e-05
0.00102933
5.85149e-05
0.00103281
5.89281e-05
0.00103614
5.94186e-05
0.00103925
5.97284e-05
0.00104203
5.95982e-05
0.00104444
5.88286e-05
0.00104645
5.73096e-05
0.00104809
5.50141e-05
5.1956e-05
0.00104937
0.00102184
1.12481e-05
0.00102401
2.40147e-05