/*--------------------------------*- C++ -*----------------------------------*\
| =========                 |                                                 |
| \\      /  F ield         | OpenFOAM: The Open Source CFD Toolbox           |
|  \\    /   O peration     | Version:  2.4.0                                 |
|   \\  /    A nd           | Web:      www.OpenFOAM.org                      |
|    \\/     M anipulation  |                                                 |
\*---------------------------------------------------------------------------*/
FoamFile
{
    version     2.0;
    format      ascii;
    class       volScalarField;
    location    "1.85";
    object      k;
}
// * * * * * * * * * * * * * * * * * * * * * * * * * * * * * * * * * * * * * //

dimensions      [0 2 -2 0 0 0 0];

internalField   nonuniform List<scalar> 
6000
(
0.168237
0.0132427
0.00099308
0.00361371
0.00251668
0.0029556
0.00246102
0.00245114
0.00227631
0.00234385
0.0022423
0.00189151
0.00109828
0.0004068
0.000774626
0.00146367
0.00160766
0.00113077
0.00216834
0.00641367
0.0125601
0.0194342
0.0256947
0.0301989
0.0321387
0.0310631
0.0270924
0.020922
0.0136647
0.00665509
0.00183526
0.00155666
0.00384419
0.00561289
0.00664302
0.0070785
0.00714385
0.00705126
0.00696328
0.00699053
0.00720296
0.00764311
0.00833746
0.00930257
0.0105465
0.0120748
0.013882
0.0159729
0.0183219
0.0209714
0.0238353
0.0271488
0.0305362
0.035042
0.0388763
0.0463997
0.0496192
0.0660888
0.0641764
0.104428
0.0762093
0.0101373
0.000954907
0.00240126
0.00172141
0.00194041
0.00163388
0.00160939
0.00149963
0.00152498
0.00144578
0.00121125
0.000721997
0.000325888
0.000610501
0.00100401
0.00107282
0.000883218
0.00177123
0.00407569
0.00693483
0.00976598
0.0120678
0.0134978
0.0138679
0.013111
0.0113699
0.0088828
0.00598127
0.00307837
0.00103349
0.00118213
0.0022579
0.00304554
0.0034985
0.00369521
0.00373632
0.00371512
0.00370314
0.00374921
0.00388373
0.0041254
0.00448457
0.00496673
0.00557361
0.00630611
0.00716133
0.00814135
0.00923738
0.0104687
0.0118062
0.0133474
0.0149565
0.0170478
0.0189493
0.022364
0.0242406
0.0314054
0.0316754
0.0483413
0.0412232
0.00802292
0.000981143
0.00168643
0.00122887
0.0013255
0.0011255
0.00109754
0.00102703
0.00103293
0.000970738
0.000809133
0.000502878
0.00028362
0.000495977
0.000732326
0.00078707
0.000782236
0.0015119
0.00285397
0.00428517
0.00550645
0.00633154
0.00668554
0.00657069
0.00604163
0.0051958
0.00410872
0.00287121
0.0016097
0.000722101
0.000899745
0.00139854
0.00176027
0.00197262
0.00207119
0.00210107
0.00210475
0.00211571
0.00215702
0.00224288
0.00238226
0.00257923
0.00283573
0.00315213
0.00352862
0.00396417
0.00446022
0.00501434
0.00563593
0.00631605
0.00709683
0.00792988
0.00898603
0.0100095
0.0116904
0.0128328
0.016192
0.0169305
0.0242388
0.0260626
0.00677058
0.00107692
0.00126678
0.000920886
0.000943883
0.000804728
0.000777214
0.000731017
0.000728679
0.000680484
0.000568423
0.000377333
0.000263999
0.000419894
0.00057463
0.000641864
0.000750465
0.00133409
0.00215489
0.00289949
0.00342081
0.00367188
0.00367442
0.00347909
0.00316388
0.00274728
0.00224464
0.00167291
0.00107312
0.000641507
0.000726317
0.000934439
0.00109393
0.00119374
0.00124502
0.00126633
0.00127648
0.00129154
0.00132295
0.00137791
0.00146086
0.00157346
0.0017165
0.0018902
0.0020948
0.00233027
0.00259782
0.00289733
0.00323374
0.00360512
0.00403037
0.00449345
0.00506672
0.00565447
0.00654237
0.00726048
0.00894228
0.00965159
0.0130031
0.0187961
0.00609039
0.00123744
0.00103373
0.000731208
0.000704394
0.00059916
0.000572849
0.000542125
0.000537419
0.000501527
0.000425404
0.000309146
0.000258437
0.000373757
0.000488546
0.000577562
0.000748647
0.00120861
0.00172861
0.00212606
0.00234505
0.00240324
0.00234935
0.00223305
0.00209443
0.00190454
0.00165324
0.00133807
0.000979384
0.000688375
0.00065778
0.000701422
0.000749148
0.000785529
0.000807583
0.000819717
0.000828485
0.00084096
0.000862716
0.000897638
0.000947789
0.00101388
0.00109632
0.00119535
0.00131136
0.00144474
0.0015965
0.0017673
0.00195992
0.00217471
0.00242048
0.00269293
0.00302338
0.00337808
0.0038766
0.0043388
0.00523175
0.00579213
0.00738855
0.0150485
0.00576556
0.001453
0.0009274
0.000621722
0.000555449
0.000467282
0.000441532
0.000420931
0.000417139
0.000392562
0.000343758
0.000277071
0.000262532
0.000350997
0.000448645
0.000559579
0.000759331
0.00112239
0.00146797
0.00170015
0.00181837
0.00186409
0.00187963
0.00189296
0.00188735
0.00181771
0.00166373
0.00142175
0.00111225
0.000821551
0.000682158
0.000614257
0.000585082
0.000575443
0.000573471
0.000574686
0.000578213
0.000585674
0.000599215
0.000620776
0.000651041
0.000690284
0.000738745
0.000796673
0.000864469
0.000942644
0.00103205
0.00113348
0.00124866
0.00137848
0.00152725
0.00169468
0.0018946
0.00211678
0.00241151
0.00271402
0.00321426
0.00362581
0.00441231
0.0130157
0.00565578
0.00171221
0.000913261
0.00057043
0.000467127
0.000384607
0.000358101
0.000344275
0.000343339
0.000329405
0.000301966
0.000268367
0.00027411
0.000346169
0.000439065
0.000567999
0.000776914
0.00107147
0.00132577
0.00150334
0.00163346
0.00175637
0.00189019
0.00202986
0.00211338
0.00209764
0.00196256
0.00170907
0.00136295
0.00102028
0.000783805
0.000625812
0.000531333
0.000479907
0.000453709
0.000441693
0.000437572
0.000438981
0.00044561
0.000457904
0.000475658
0.000498838
0.000527521
0.00056189
0.00060228
0.000649159
0.000703202
0.000765148
0.000836118
0.000917033
0.00101014
0.00111627
0.00124173
0.00138469
0.0015664
0.00176681
0.00206089
0.00235235
0.00275375
0.0118774
0.00567233
0.00200281
0.0009698
0.000565086
0.000421875
0.000336399
0.000307412
0.000298127
0.000301217
0.000297354
0.000286842
0.000275317
0.000292087
0.00035506
0.000449447
0.000591832
0.000801706
0.00105603
0.00127907
0.00147441
0.00168176
0.00192313
0.00218202
0.00241635
0.00254561
0.00253905
0.00238309
0.00208382
0.00167239
0.00126747
0.000944852
0.000706732
0.000550002
0.000455935
0.000403114
0.000375267
0.000361557
0.000356196
0.000356748
0.000362247
0.000371816
0.000385085
0.000401928
0.000422392
0.000446681
0.000475142
0.000508275
0.000546678
0.000591133
0.000642429
0.000701845
0.000770377
0.000851028
0.000944629
0.00106023
0.00119412
0.00137428
0.00157666
0.00178984
0.0112298
0.00575904
0.00231204
0.00108305
0.000597876
0.000409525
0.000313743
0.000280184
0.000273758
0.000281535
0.000287174
0.000290119
0.000293282
0.000315889
0.0003745
0.000473096
0.000625726
0.000836451
0.00107728
0.00131437
0.00157624
0.00189724
0.00226758
0.00263264
0.00291935
0.00305793
0.0030326
0.00283837
0.00248492
0.00200948
0.00154643
0.00114761
0.000835948
0.000618175
0.000479509
0.000397162
0.000350874
0.000325785
0.000312914
0.000307733
0.000307882
0.000311819
0.000318778
0.000328376
0.000340472
0.000355098
0.000372438
0.000392813
0.000416666
0.000444558
0.000477133
0.000515203
0.000559663
0.00061205
0.000673786
0.000748789
0.000838621
0.000952604
0.00109156
0.00121
0.0108616
0.00588053
0.00262734
0.00124193
0.000663967
0.000424555
0.000311351
0.00027071
0.000265639
0.000278378
0.000292925
0.000306602
0.000319603
0.000345245
0.000402271
0.000506086
0.000667784
0.000884458
0.00113611
0.00142214
0.00178338
0.00223414
0.00272271
0.00316395
0.00346492
0.00358667
0.00352584
0.00328651
0.00288063
0.00235559
0.00184266
0.00137703
0.000997522
0.000720244
0.000535651
0.000421332
0.000354288
0.000316163
0.000294962
0.000284029
0.000279596
0.000279379
0.000282151
0.000287228
0.000294239
0.000303016
0.000313562
0.000326017
0.000340668
0.000357908
0.000378259
0.000402298
0.000430788
0.000464608
0.000505127
0.000554086
0.000614283
0.000687956
0.000782685
0.000851794
0.0106566
0.006015
0.00293723
0.00143625
0.000759984
0.00046417
0.000326315
0.000275552
0.000270251
0.000287901
0.000310777
0.000333139
0.000352941
0.000380159
0.000437073
0.000546526
0.000718114
0.000948776
0.00123283
0.00159496
0.00207631
0.00265728
0.00324168
0.00372651
0.00401574
0.00410141
0.00399329
0.00370546
0.00325171
0.00269734
0.00214334
0.00162107
0.00117974
0.000845107
0.000614153
0.000466191
0.000376566
0.00032396
0.000293588
0.000276653
0.000267962
0.000264402
0.000264226
0.000266409
0.000270323
0.000275589
0.000282013
0.000289558
0.000298352
0.000308648
0.000320862
0.000335444
0.000353058
0.000374283
0.000400307
0.000431935
0.000471888
0.000519932
0.000584112
0.00062649
0.0105485
0.0061496
0.00323211
0.00165585
0.000883473
0.000526437
0.000357384
0.000292797
0.000285399
0.000307619
0.000338327
0.000367999
0.000392878
0.00042096
0.00047847
0.000593989
0.000777899
0.00103199
0.00136737
0.00182638
0.00243809
0.00313891
0.00379431
0.00429423
0.00455207
0.00458569
0.00442034
0.00408137
0.00358753
0.00302075
0.00243657
0.00186956
0.00137389
0.00098496
0.000707905
0.000525268
0.000411706
0.000343426
0.000303084
0.000279781
0.00026688
0.000260373
0.000257944
0.000258195
0.000260227
0.00026344
0.000267446
0.000272029
0.000277159
0.000282958
0.000289745
0.000297888
0.000307989
0.00032049
0.000336427
0.000356192
0.000382132
0.000413284
0.000456432
0.000483674
0.0104983
0.0062773
0.00350485
0.00189047
0.00103156
0.000609901
0.000404561
0.000321616
0.00030981
0.000335972
0.000374169
0.000410457
0.000439645
0.000468336
0.000526796
0.000649072
0.000848861
0.00113624
0.00153923
0.00210986
0.002853
0.00365784
0.00436142
0.00485302
0.00506161
0.00502903
0.00479753
0.00440475
0.00388231
0.00331246
0.00271128
0.00211321
0.00157283
0.00113415
0.000812022
0.000594124
0.000455604
0.000370664
0.000319624
0.000289534
0.000272312
0.000262998
0.000258672
0.000257538
0.000258419
0.000260494
0.000263183
0.000266096
0.000269048
0.000272032
0.00027527
0.000279068
0.000283984
0.000290401
0.00029926
0.000310763
0.00032692
0.000346644
0.000375337
0.000393628
0.0104825
0.00639479
0.00375094
0.0021302
0.00120043
0.000713708
0.00046787
0.000362002
0.000342883
0.000372045
0.000417582
0.00046047
0.000493933
0.000523329
0.000583018
0.000713036
0.000932922
0.00126317
0.00174719
0.00243801
0.00330669
0.00419805
0.00492962
0.00539237
0.0055355
0.00542417
0.00511875
0.00466944
0.0041317
0.0035626
0.00295746
0.00234319
0.00176998
0.0012881
0.000923046
0.000669792
0.000505518
0.000403064
0.000340653
0.000303339
0.000281592
0.000269458
0.000263378
0.000261143
0.000261291
0.000262786
0.000264863
0.000266967
0.000268761
0.00027011
0.000271141
0.000272097
0.000273508
0.000275724
0.000279643
0.000285375
0.000294705
0.000306591
0.000325403
0.00033822
0.0104868
0.00650096
0.00396835
0.00236597
0.00138517
0.000836816
0.000547232
0.000414637
0.000384552
0.000415377
0.000468278
0.000518422
0.00055673
0.000587276
0.000648564
0.000787513
0.00103194
0.0014138
0.00198894
0.00280255
0.00378633
0.00474697
0.00548838
0.00590365
0.00596687
0.00576612
0.00538052
0.00487578
0.00433
0.0037641
0.00316665
0.00255124
0.00195885
0.00144252
0.00103823
0.000750242
0.000559678
0.000438953
0.000364533
0.000319552
0.000293022
0.000277958
0.000270133
0.000266909
0.000266536
0.000267766
0.000269663
0.000271515
0.000272845
0.00027339
0.000273181
0.000272397
0.000271541
0.000270944
0.000271496
0.000273253
0.000277889
0.000284416
0.000296583
0.000306018
0.0105024
0.00659598
0.00415707
0.00259016
0.00157988
0.000977454
0.000642655
0.00048028
0.000435214
0.000465833
0.000526196
0.000584925
0.000629181
0.000661706
0.000725143
0.000874246
0.00114748
0.00158829
0.00226088
0.00319468
0.00428063
0.00529397
0.00602856
0.00637937
0.00635027
0.00605166
0.0055815
0.00502813
0.00447278
0.00391263
0.00333241
0.00273003
0.00213311
0.00159308
0.001155
0.000833927
0.000616938
0.000477311
0.000390278
0.000337183
0.000305579
0.000287419
0.000277774
0.00027356
0.000272736
0.000273848
0.000275802
0.000277742
0.000279061
0.000279373
0.000278616
0.000276897
0.000274699
0.000272329
0.000270698
0.000269819
0.000271349
0.000274303
0.000282176
0.000289591
0.0105237
0.00668066
0.00431862
0.00279696
0.00177807
0.00113286
0.000753978
0.000559425
0.000495712
0.000523536
0.000591356
0.000660664
0.000712447
0.000748212
0.000814194
0.000974849
0.00128055
0.00178572
0.0025582
0.0036055
0.00477941
0.00582957
0.00654172
0.00681283
0.00668134
0.00627907
0.00572319
0.0051304
0.00455958
0.00400659
0.00345061
0.00287365
0.00228685
0.00173535
0.00127072
0.000919438
0.000676465
0.00051752
0.000417333
0.000355692
0.0003187
0.000297241
0.000285648
0.000280372
0.000279073
0.000280099
0.000282205
0.000284412
0.000285992
0.000286447
0.000285624
0.000283555
0.000280698
0.000277339
0.000274424
0.000271926
0.000271561
0.000272278
0.000277614
0.000283976
0.0105473
0.00675605
0.00445552
0.00298253
0.00197316
0.00129922
0.00088037
0.000652469
0.000567038
0.000588847
0.000663754
0.000746019
0.00080756
0.00084832
0.000917325
0.00109061
0.00143147
0.00200413
0.00287522
0.00402629
0.00527335
0.0063449
0.00701981
0.00719798
0.00695661
0.0064478
0.00581427
0.0051821
0.00459251
0.0040469
0.0035196
0.00297795
0.00241491
0.00186495
0.00138255
0.0010053
0.00073751
0.000559156
0.000445393
0.000374804
0.000332112
0.000307135
0.000293436
0.000286978
0.000285119
0.000286008
0.000288265
0.000290798
0.000292777
0.000293604
0.000293034
0.000291027
0.000288013
0.000284251
0.000280736
0.000277398
0.000276072
0.000275576
0.000279729
0.000285776
0.0105712
0.00682321
0.00457079
0.00314494
0.00215908
0.00147179
0.00102011
0.000759496
0.000650103
0.00066239
0.000743326
0.000840697
0.000915284
0.000963351
0.00103595
0.00122234
0.00159978
0.00224056
0.0032057
0.0044487
0.00575374
0.00683153
0.00745502
0.0075293
0.0071734
0.00655995
0.00586137
0.00518551
0.00457541
0.0040366
0.00354008
0.00304078
0.00251328
0.00197779
0.00148756
0.00108988
0.000799261
0.000601836
0.000474263
0.000394391
0.000345708
0.000316989
0.00030101
0.000293229
0.000290687
0.000291338
0.000293673
0.000296507
0.000298923
0.000300235
0.000300117
0.000298452
0.000295642
0.000291911
0.000288314
0.000284731
0.000283171
0.000282257
0.000286296
0.000292619
0.0105941
0.00688314
0.00466764
0.00328394
0.00233073
0.0016452
0.00117046
0.000879974
0.000745443
0.000745192
0.000829989
0.000944336
0.00103598
0.00109429
0.00117109
0.00137035
0.00178428
0.00249134
0.0035432
0.00486485
0.00621237
0.00728138
0.00783968
0.00780186
0.0073297
0.00662534
0.00586463
0.00514431
0.00451324
0.00398035
0.0035148
0.00306202
0.00257938
0.00207037
0.00158283
0.00117142
0.00086076
0.000645128
0.000503762
0.000414381
0.000359454
0.000326782
0.00030835
0.000299093
0.000295728
0.000296011
0.000298311
0.000301361
0.000304178
0.000306002
0.000306439
0.000305296
0.00030294
0.000299558
0.000296265
0.000292891
0.000291663
0.000290949
0.000295728
0.000302817
0.0106153
0.00693671
0.00474915
0.00340061
0.00248437
0.00181387
0.00132768
0.00101254
0.000853187
0.000838089
0.000924009
0.00105615
0.00116949
0.00124169
0.00132338
0.00153445
0.00198323
0.00275245
0.00388145
0.00526744
0.00664144
0.00768661
0.00816626
0.00801124
0.00743038
0.00664753
0.00582596
0.00506282
0.00441161
0.00388385
0.00344816
0.0030434
0.00261212
0.00214003
0.00166563
0.00124774
0.000920868
0.000688501
0.000533669
0.000434694
0.000373336
0.000336527
0.00031548
0.000304601
0.00030027
0.000300043
0.000302172
0.000305318
0.000308447
0.000310747
0.000311764
0.000311241
0.000309506
0.0003067
0.000304
0.000301176
0.000300714
0.000300681
0.000306884
0.000315144
0.0106345
0.00698465
0.0048181
0.00349695
0.00261775
0.00197257
0.0014872
0.00115487
0.000972843
0.00094137
0.00102625
0.00117497
0.00131503
0.0014055
0.00149307
0.00171412
0.00219461
0.00301987
0.00421464
0.00564989
0.00703365
0.0080396
0.00842583
0.00815641
0.00748222
0.00662684
0.00574816
0.00494565
0.00427634
0.00375343
0.00334571
0.00298829
0.00261201
0.0021851
0.00173365
0.00131678
0.000978375
0.000731329
0.000563696
0.000455216
0.000387324
0.000346234
0.000322432
0.000309797
0.000304368
0.000303494
0.00030531
0.000308415
0.000311735
0.000314427
0.000315994
0.000316124
0.000315106
0.00031303
0.000311131
0.000309113
0.000309748
0.000310765
0.000318934
0.000328696
0.0106516
0.00702758
0.00487694
0.00357551
0.00273006
0.0021168
0.00164396
0.00130366
0.00110311
0.00105491
0.00113661
0.0013006
0.0014705
0.00158496
0.0016801
0.0019087
0.00241646
0.00329012
0.00453778
0.00600651
0.00738215
0.00833277
0.00861391
0.00824271
0.00748609
0.00656478
0.00563446
0.00479746
0.00411321
0.00359558
0.00321368
0.00290126
0.00258092
0.00220502
0.0017851
0.00137689
0.00103205
0.0007729
0.000593485
0.000475783
0.000401355
0.000355892
0.000329226
0.000314723
0.000308081
0.000306437
0.000307807
0.000310731
0.000314108
0.000317076
0.000319118
0.000319881
0.00031962
0.000318371
0.000317415
0.000316391
0.000318366
0.000320712
0.000331263
0.000342791
0.0106666
0.00706601
0.00492767
0.00363911
0.00282184
0.00224319
0.0017928
0.0014547
0.00124174
0.00117798
0.00125467
0.00143238
0.001633
0.00177835
0.00188402
0.00211763
0.00264728
0.00356071
0.0048472
0.00633268
0.00768061
0.00855589
0.00873318
0.00827266
0.00744348
0.00646365
0.00548837
0.0046228
0.00392776
0.00341662
0.00305855
0.00278768
0.00252192
0.0022003
0.00181887
0.00142657
0.00108069
0.000812452
0.000622611
0.000496177
0.000415328
0.000365463
0.000335859
0.000319405
0.000311458
0.000308941
0.00030975
0.000312363
0.000315661
0.000318776
0.000321189
0.000322523
0.000323009
0.000322632
0.000322709
0.000322808
0.000326296
0.000330175
0.00034341
0.000356907
0.0106797
0.00710039
0.00497193
0.00369049
0.00289461
0.00234973
0.00192895
0.00160316
0.0013855
0.00130906
0.00137963
0.00156893
0.00180077
0.0019827
0.0021039
0.00234069
0.00288651
0.0038308
0.00514108
0.00661783
0.00791799
0.00870947
0.00878805
0.00824881
0.00735655
0.00632627
0.00531351
0.00442608
0.00372522
0.00322254
0.00288672
0.00265338
0.002439
0.00217249
0.00183455
0.00146467
0.00112318
0.000849214
0.000650612
0.00051614
0.000429108
0.000374878
0.000342306
0.000323845
0.000314527
0.000311062
0.000311218
0.000313411
0.000316502
0.000319633
0.000322295
0.000324109
0.000325293
0.00032579
0.000326942
0.000328246
0.000333356
0.000338911
0.000355031
0.000370643
0.010691
0.0071311
0.005011
0.00373223
0.00295061
0.00243575
0.00204847
0.00174396
0.00153026
0.00144573
0.00151009
0.00170857
0.00197094
0.00219402
0.00233833
0.00257814
0.00313289
0.00409432
0.00540896
0.00685678
0.00809394
0.00879637
0.0087825
0.00817415
0.00722814
0.00615583
0.00511357
0.00421156
0.00351041
0.00301883
0.00270417
0.00250422
0.0023367
0.00212393
0.00183239
0.00149047
0.00115861
0.000882451
0.000677008
0.000535384
0.000442535
0.000384045
0.000348518
0.000328027
0.000317299
0.000312834
0.000312271
0.000313958
0.000316737
0.000319761
0.000322545
0.000324729
0.000326532
0.000327868
0.000330095
0.000332645
0.000339435
0.000346754
0.000365869
0.000383689
0.0107006
0.00715849
0.00504585
0.00376656
0.00299249
0.00250184
0.00214858
0.00187219
0.00167119
0.00158463
0.00164398
0.0018493
0.00214035
0.0024081
0.00258369
0.00282707
0.00338202
0.00434598
0.00564626
0.00704752
0.00820948
0.00882003
0.0087206
0.00805223
0.00706158
0.0059558
0.00489227
0.00398327
0.00328779
0.00281041
0.00251639
0.00234582
0.00221985
0.00205766
0.00181329
0.00150371
0.00118628
0.000911516
0.000701335
0.000553611
0.000455431
0.000392856
0.000354431
0.000331917
0.000319766
0.000314276
0.000312953
0.000314075
0.000316458
0.000319268
0.000322054
0.000324491
0.000326813
0.000328923
0.000332191
0.00033599
0.000344471
0.000353597
0.000375738
0.000395816
0.0107088
0.00718287
0.00507722
0.00379537
0.00302299
0.00254965
0.00222784
0.00198363
0.0018032
0.00172153
0.00177842
0.00198869
0.00230558
0.00261999
0.00283518
0.00308428
0.00363042
0.00458169
0.00585001
0.00718957
0.00826684
0.00878452
0.00860681
0.00788712
0.00686066
0.00572983
0.00465334
0.00374512
0.00306142
0.00260162
0.00232816
0.00218336
0.00209327
0.00197711
0.00177894
0.00150468
0.00120582
0.000935888
0.000723169
0.00057053
0.000467592
0.000401191
0.00035997
0.000335472
0.000321909
0.00031539
0.000313291
0.000313813
0.000315741
0.000318252
0.000320932
0.000323505
0.000326236
0.000329035
0.000333282
0.000338301
0.000348446
0.000359383
0.000384513
0.00040686
0.0107157
0.00720453
0.00510564
0.00382015
0.00304476
0.00258153
0.00228616
0.00207507
0.00192128
0.0018516
0.00190975
0.00212381
0.00246297
0.00282422
0.00308697
0.00334618
0.00387535
0.00479879
0.00601891
0.00728389
0.00826939
0.0086946
0.0084461
0.00768342
0.0066294
0.00548163
0.00440043
0.0035008
0.00283498
0.00239621
0.00214356
0.00202138
0.00196152
0.00188591
0.00173172
0.00149415
0.00121711
0.000955198
0.000742152
0.000585873
0.000478836
0.000408933
0.00036506
0.000338644
0.000323701
0.000316169
0.000313298
0.000313208
0.000314646
0.000316796
0.000319281
0.000321882
0.00032491
0.000328298
0.00033344
0.000339624
0.000351374
0.000364093
0.000392119
0.000416713
0.0107215
0.00722375
0.00513153
0.00384205
0.0030602
0.00260026
0.00232471
0.00214468
0.0020211
0.00196974
0.00203364
0.00225122
0.00260872
0.003015
0.00333224
0.00360846
0.00411465
0.00499601
0.00615322
0.0073328
0.00822157
0.00855575
0.008244
0.00744605
0.00637201
0.00521496
0.00413716
0.0032538
0.00261176
0.00219736
0.00196598
0.00186372
0.00182871
0.0017877
0.00167406
0.00147322
0.00122036
0.000969246
0.000758008
0.000599409
0.000488997
0.000415969
0.000369629
0.000341388
0.000325116
0.000316603
0.000312979
0.000312282
0.000313217
0.000314966
0.000317188
0.000319724
0.000322939
0.000326812
0.000332751
0.000340026
0.000353293
0.00036774
0.000398524
0.000425318
0.0107264
0.00724078
0.00515517
0.00386191
0.00307131
0.00260878
0.00234564
0.00219204
0.00209935
0.00207108
0.00214533
0.002367
0.00273888
0.00318648
0.00356326
0.00386575
0.00434637
0.00517337
0.00625467
0.00733995
0.00812877
0.00837403
0.00800642
0.00718008
0.00609267
0.00493349
0.00386704
0.00300741
0.00239469
0.00200771
0.00179809
0.0017135
0.00169843
0.00168591
0.00160855
0.0014433
0.00121603
0.000978006
0.000770558
0.000610958
0.000497935
0.000422204
0.000373616
0.000343665
0.000326132
0.000316682
0.000312337
0.000311053
0.000311488
0.000312816
0.000314725
0.000317119
0.000320425
0.000324677
0.000331309
0.000339583
0.000354265
0.000370359
0.000403734
0.000432658
0.0107304
0.00725585
0.0051768
0.0038803
0.00307975
0.00260988
0.00235177
0.00221811
0.00215412
0.00215144
0.00224004
0.00246694
0.00284945
0.00333297
0.0037717
0.00411128
0.00456823
0.00533166
0.00632621
0.0073101
0.0079972
0.008156
0.00773955
0.00689056
0.00579538
0.00464078
0.00359345
0.00276469
0.0021863
0.00182936
0.00164192
0.00157313
0.00157364
0.00158368
0.00153779
0.00140598
0.0012048
0.000981618
0.000779724
0.000620396
0.000505544
0.000427562
0.000376972
0.000345449
0.000326735
0.000316401
0.000311374
0.000309531
0.000309481
0.000310385
0.000311952
0.000314145
0.000317458
0.000321991
0.000329207
0.000338384
0.000354361
0.000372009
0.000407784
0.000438751
0.0107338
0.00726918
0.00519661
0.00389762
0.00308677
0.0026061
0.00234628
0.00222506
0.00218503
0.00220781
0.00231339
0.00254678
0.00293654
0.00344924
0.0039491
0.00433683
0.00477694
0.00547185
0.00637151
0.0072488
0.0078336
0.00790897
0.00744952
0.00658221
0.00548389
0.00434022
0.00331961
0.00252842
0.00198874
0.00166394
0.00149895
0.00144435
0.00145665
0.00148371
0.00146426
0.00136298
0.00118754
0.000980377
0.00078553
0.00062766
0.000511755
0.000431991
0.000379666
0.000346723
0.00032692
0.000315763
0.000310097
0.00030773
0.000307218
0.000307705
0.000308915
0.000310866
0.000314117
0.000318843
0.00032654
0.000336516
0.000353664
0.00037276
0.000410732
0.00044364
0.0107366
0.00728097
0.00521474
0.00391409
0.00309326
0.00259958
0.00233238
0.00221588
0.00219324
0.00223868
0.00236193
0.00260261
0.0029965
0.00353072
0.00408742
0.00453289
0.00496758
0.00559434
0.00639436
0.00716186
0.00764483
0.00764185
0.007142
0.00625918
0.00516154
0.00403503
0.0030486
0.00230109
0.00180375
0.00151264
0.00137013
0.00132833
0.00134922
0.00138828
0.00139024
0.00131602
0.00116523
0.000974707
0.000788094
0.00063275
0.000516536
0.000435462
0.000381685
0.000347487
0.000326696
0.000314781
0.000308522
0.000305664
0.000304718
0.000304803
0.000305654
0.000307338
0.000310471
0.000315313
0.000323395
0.000334069
0.000352261
0.00037269
0.00041265
0.000447391
0.0107389
0.00729142
0.00523134
0.00392984
0.00309981
0.00259202
0.00231306
0.00219408
0.00218118
0.0022442
0.00238358
0.00263131
0.00302631
0.0035738
0.00417962
0.00468923
0.00513325
0.00569809
0.00639787
0.00705477
0.00743723
0.00735999
0.00682161
0.00592485
0.00483126
0.00372824
0.00278329
0.00208489
0.00163271
0.00137624
0.00125601
0.00122576
0.00125252
0.00129919
0.00131775
0.00126677
0.00113894
0.000965133
0.00078762
0.000635722
0.000519895
0.000437975
0.000383032
0.000347754
0.000326081
0.000313474
0.000306667
0.000303354
0.000302
0.000301703
0.000302202
0.000303603
0.000306581
0.000311475
0.000319855
0.000331129
0.000350241
0.000371886
0.000413627
0.000450085
0.0107407
0.00730068
0.00524653
0.00394494
0.00310677
0.0025847
0.00229095
0.00216331
0.00215229
0.00222613
0.00237788
0.002631
0.00302383
0.0035761
0.00422028
0.00479573
0.005265
0.00577992
0.00638363
0.00693182
0.00721603
0.00706772
0.00649165
0.00558168
0.00449555
0.00342277
0.00252635
0.00188167
0.00147665
0.00125519
0.00115679
0.00113694
0.00116728
0.00121781
0.0012485
0.00121677
0.00110974
0.00095225
0.000784383
0.000636687
0.000521877
0.000439551
0.000383729
0.000347549
0.000325102
0.000311872
0.000304562
0.000300825
0.000299087
0.000298428
0.000298586
0.000299701
0.000302497
0.000307391
0.000315993
0.000327777
0.000347689
0.000370434
0.000413754
0.00045181
0.0107422
0.00730891
0.00526043
0.00395939
0.00311431
0.00257847
0.0022682
0.00212705
0.00211056
0.0021876
0.00234612
0.00260133
0.00298822
0.0035367
0.00420611
0.00484348
0.0053524
0.00583406
0.00635093
0.00679536
0.00698452
0.00676763
0.00615393
0.00523124
0.00415668
0.00312144
0.00228024
0.00169297
0.00133624
0.00114968
0.00107243
0.00106186
0.00109387
0.00114528
0.00118386
0.00116737
0.00107866
0.000936695
0.000778715
0.000635803
0.000522558
0.000440237
0.000383812
0.000346908
0.000323799
0.000310013
0.000302242
0.000298107
0.000296008
0.000295004
0.000294834
0.000295665
0.000298263
0.000303118
0.000311878
0.000324089
0.00034469
0.000368421
0.000413129
0.000452664
0.0107435
0.00731623
0.00527316
0.00397321
0.00312245
0.00257386
0.00224645
0.00208838
0.00206015
0.00213273
0.00229123
0.00254375
0.00292019
0.00345639
0.00413633
0.00482588
0.00538454
0.00585218
0.00629617
0.00664504
0.00674346
0.00646013
0.00580862
0.00487436
0.00381679
0.00282704
0.00204719
0.00151998
0.0012119
0.00105965
0.0010027
0.00100031
0.00103233
0.00108244
0.00112483
0.00111972
0.00104668
0.000919122
0.000770984
0.000633264
0.000522044
0.000440096
0.000383333
0.000345876
0.000322214
0.000307939
0.000299746
0.000295237
0.000292791
0.000291458
0.000290972
0.000291526
0.000293916
0.000298703
0.000307568
0.000320133
0.000341322
0.000365932
0.000411848
0.000452744
0.0107444
0.00732277
0.00528482
0.00398639
0.00313113
0.00257113
0.00222684
0.00204984
0.00200502
0.00206616
0.00221743
0.0024614
0.00282219
0.00333781
0.00401292
0.00473964
0.00535153
0.00582403
0.00621277
0.00647746
0.00649054
0.00614329
0.0054545
0.00451147
0.00347814
0.00254237
0.00182917
0.00136359
0.00110377
0.00098493
0.000947275
0.000951962
0.000982534
0.00102916
0.00107204
0.00107477
0.00101468
0.000900171
0.000761587
0.000629293
0.000520463
0.000439209
0.000382351
0.000344508
0.000320399
0.000305698
0.000297117
0.000292253
0.000289473
0.000287819
0.000287029
0.000287312
0.000289493
0.000294192
0.000303118
0.000315974
0.000337658
0.000363047
0.000410006
0.000452148
0.0107452
0.00732864
0.00529551
0.00399892
0.00314025
0.00257032
0.00221008
0.00201337
0.00194865
0.00199263
0.00212978
0.00235887
0.00269837
0.0031855
0.00384063
0.00458551
0.00524622
0.00573882
0.0060916
0.00628609
0.00622033
0.00581318
0.00508946
0.00414311
0.00314339
0.00227023
0.00162787
0.00122438
0.00101182
0.000925214
0.000905761
0.000916398
0.000944193
0.000985419
0.00102595
0.00103325
0.000983453
0.000880455
0.000750924
0.000624132
0.000517963
0.000437671
0.000380937
0.000342861
0.000318405
0.00030334
0.000294404
0.000289198
0.000286089
0.000284121
0.000283033
0.000283052
0.000285025
0.000289622
0.000298577
0.000311669
0.000333767
0.000359841
0.000407694
0.000450971
0.0107459
0.00733392
0.00530534
0.00401081
0.00314968
0.00257133
0.0021965
0.00198034
0.00189388
0.00191649
0.00203366
0.00224178
0.00255433
0.00300568
0.00362676
0.00436853
0.00506571
0.00558706
0.00592221
0.00606202
0.00592453
0.00546468
0.00471134
0.00377052
0.00281571
0.0020134
0.00144468
0.00110264
0.000935843
0.000880163
0.000877779
0.000893215
0.000916958
0.000951082
0.000986806
0.000995768
0.000953659
0.000860541
0.000739394
0.000618036
0.000514702
0.000435589
0.000379168
0.000340999
0.00031629
0.000300915
0.000291653
0.000286117
0.00028268
0.000280397
0.000279015
0.000278778
0.000280544
0.000285031
0.000293988
0.00030727
0.000329712
0.000356386
0.000404997
0.000449305
0.0107464
0.0073387
0.0053144
0.00402207
0.0031593
0.00257397
0.00218618
0.00195156
0.00184285
0.00184149
0.00193426
0.00211619
0.00239665
0.00280597
0.00338077
0.00409788
0.00481254
0.00536277
0.00569476
0.00579532
0.00559902
0.00509302
0.00431897
0.00339621
0.00249888
0.00177455
0.00128062
0.000998436
0.000875545
0.000849434
0.000862997
0.00088205
0.00090047
0.000925944
0.000954731
0.000962729
0.000925859
0.000840943
0.000727379
0.000611258
0.000510846
0.000433075
0.000377124
0.000338986
0.000314108
0.000298475
0.000288912
0.000283053
0.000279287
0.000276685
0.000275009
0.000274518
0.000276081
0.000280452
0.000289392
0.000302826
0.000325549
0.000352748
0.000401996
0.000447237
0.0107468
0.00734305
0.00532275
0.00403272
0.00316897
0.002578
0.00217897
0.00192741
0.00179699
0.00177058
0.00183613
0.00198802
0.00223232
0.00259474
0.00311354
0.00378613
0.00449507
0.00506545
0.00540241
0.00547717
0.00523578
0.0046945
0.00391324
0.00302431
0.00219716
0.00155606
0.00113636
0.000911575
0.00083055
0.000832722
0.000861182
0.00088264
0.000894408
0.00090976
0.000929722
0.00093442
0.000900502
0.000822111
0.000715235
0.000604048
0.000506562
0.000430245
0.00037489
0.000336888
0.000311916
0.000296072
0.00028623
0.000280052
0.000275951
0.000273023
0.000271049
0.000270306
0.000271668
0.000275921
0.000284827
0.00029838