/*--------------------------------*- C++ -*----------------------------------*\
| =========                 |                                                 |
| \\      /  F ield         | OpenFOAM: The Open Source CFD Toolbox           |
|  \\    /   O peration     | Version:  2.4.0                                 |
|   \\  /    A nd           | Web:      www.OpenFOAM.org                      |
|    \\/     M anipulation  |                                                 |
\*---------------------------------------------------------------------------*/
FoamFile
{
    version     2.0;
    format      ascii;
    class       volScalarField;
    location    "6.8";
    object      nut;
}
// * * * * * * * * * * * * * * * * * * * * * * * * * * * * * * * * * * * * * //

dimensions      [0 2 -1 0 0 0 0];

internalField   nonuniform List<scalar> 
6000
(
4.7015e-05
1.44419e-05
4.24697e-06
8.77743e-06
7.78873e-06
8.92547e-06
8.56532e-06
8.93698e-06
8.80926e-06
9.01332e-06
9.04591e-06
9.26661e-06
9.46438e-06
9.79402e-06
1.01644e-05
1.06352e-05
1.11651e-05
1.1773e-05
1.24382e-05
1.31628e-05
1.39335e-05
1.47445e-05
1.55833e-05
1.64391e-05
1.7298e-05
1.81462e-05
1.89692e-05
1.97518e-05
2.04773e-05
2.11283e-05
2.16864e-05
2.21328e-05
2.24481e-05
2.26126e-05
2.26065e-05
2.24113e-05
2.20109e-05
2.13893e-05
2.05371e-05
1.94473e-05
1.81337e-05
1.66197e-05
1.49851e-05
1.35992e-05
1.53496e-05
1.71822e-05
1.89619e-05
2.08217e-05
2.24722e-05
2.42683e-05
2.55862e-05
2.73266e-05
2.80777e-05
2.99715e-05
2.97817e-05
3.23779e-05
3.05395e-05
3.49864e-05
3.04581e-05
3.81609e-05
2.94897e-05
9.50771e-06
3.1646e-06
7.01541e-06
6.32255e-06
7.01616e-06
6.77314e-06
7.00542e-06
6.93066e-06
7.07378e-06
7.1232e-06
7.30335e-06
7.48761e-06
7.76922e-06
8.09442e-06
8.4961e-06
8.9495e-06
9.46275e-06
1.00227e-05
1.0628e-05
1.127e-05
1.19434e-05
1.26406e-05
1.33546e-05
1.40777e-05
1.48029e-05
1.55236e-05
1.62335e-05
1.69266e-05
1.7598e-05
1.82438e-05
1.88623e-05
1.94546e-05
2.00243e-05
2.05801e-05
2.11407e-05
2.17383e-05
2.24263e-05
2.32934e-05
2.44882e-05
2.62526e-05
2.89899e-05
3.31915e-05
3.75739e-05
3.26143e-05
2.87916e-05
2.62102e-05
2.44512e-05
2.33461e-05
2.26729e-05
2.22422e-05
2.21294e-05
2.18961e-05
2.2163e-05
2.17685e-05
2.25231e-05
2.15384e-05
2.32485e-05
2.10903e-05
2.4344e-05
2.14309e-05
8.16053e-06
2.81314e-06
5.88998e-06
5.32637e-06
5.68148e-06
5.49607e-06
5.62906e-06
5.58829e-06
5.6984e-06
5.77344e-06
5.95157e-06
6.16252e-06
6.46088e-06
6.81859e-06
7.25238e-06
7.74969e-06
8.31287e-06
8.93512e-06
9.61428e-06
1.03458e-05
1.11267e-05
1.19535e-05
1.28238e-05
1.37361e-05
1.46902e-05
1.56874e-05
1.67313e-05
1.78279e-05
1.89871e-05
2.02236e-05
2.15594e-05
2.30266e-05
2.46658e-05
2.65306e-05
2.87105e-05
3.13342e-05
3.4599e-05
3.8804e-05
4.44234e-05
5.21579e-05
6.30712e-05
7.80641e-05
9.16144e-05
7.54187e-05
6.12102e-05
5.04095e-05
4.19651e-05
3.58635e-05
3.10209e-05
2.76154e-05
2.47661e-05
2.28143e-05
2.10829e-05
1.98813e-05
1.88792e-05
1.79558e-05
1.76544e-05
1.65548e-05
1.71295e-05
1.78746e-05
7.96963e-06
2.98722e-06
5.26059e-06
4.70344e-06
4.76694e-06
4.59223e-06
4.647e-06
4.62723e-06
4.72445e-06
4.83697e-06
5.04886e-06
5.32976e-06
5.71152e-06
6.1863e-06
6.76302e-06
7.44081e-06
8.22141e-06
9.10608e-06
1.00957e-05
1.1193e-05
1.24004e-05
1.37228e-05
1.51663e-05
1.67401e-05
1.84561e-05
2.03303e-05
2.23838e-05
2.46438e-05
2.71465e-05
2.99396e-05
3.30867e-05
3.66759e-05
4.0786e-05
4.55464e-05
5.11523e-05
5.78638e-05
6.60555e-05
7.62539e-05
8.92246e-05
0.00010595
0.000127694
0.000154683
0.000175744
0.00014954
0.000123339
0.000101326
8.26468e-05
6.80861e-05
5.58406e-05
4.67553e-05
3.8819e-05
3.32976e-05
2.8037e-05
2.4782e-05
2.11634e-05
1.93419e-05
1.68086e-05
1.57759e-05
1.43166e-05
1.67546e-05
8.44527e-06
3.53476e-06
5.03873e-06
4.4053e-06
4.18401e-06
3.97765e-06
3.96152e-06
3.95318e-06
4.0537e-06
4.22039e-06
4.50565e-06
4.9112e-06
5.45918e-06
6.16212e-06
7.03005e-06
8.07782e-06
9.31395e-06
1.07536e-05
1.24081e-05
1.42941e-05
1.64279e-05
1.88307e-05
2.15262e-05
2.45439e-05
2.79179e-05
3.16896e-05
3.59085e-05
4.06341e-05
4.59386e-05
5.19099e-05
5.8658e-05
6.63191e-05
7.49339e-05
8.47131e-05
9.59014e-05
0.000108803
0.000123835
0.000141546
0.00016268
0.000188058
0.000218583
0.000253214
0.00027715
0.000246617
0.000212171
0.000180426
0.000151273
0.000126601
0.000104507
8.68468e-05
7.08212e-05
5.88796e-05
4.74409e-05
3.98731e-05
3.16753e-05
2.735e-05
2.13745e-05
1.92491e-05
1.5558e-05
1.71085e-05
9.398e-06
4.39141e-06
5.14684e-06
4.40978e-06
3.88798e-06
3.60663e-06
3.51577e-06
3.51094e-06
3.62957e-06
3.87391e-06
4.28218e-06
4.88784e-06
5.71653e-06
6.80727e-06
8.18229e-06
9.88056e-06
1.19274e-05
1.43607e-05
1.72115e-05
2.05198e-05
2.43244e-05
2.86715e-05
3.36105e-05
3.91968e-05
4.54904e-05
5.25576e-05
6.04719e-05
6.93124e-05
7.9165e-05
9.01247e-05
0.000102301
0.000115749
0.000130402
0.000146477
0.000164153
0.000183646
0.00020526
0.000229404
0.000256629
0.000287477
0.000322482
0.000359457
0.000382933
0.000353172
0.000315778
0.00027858
0.000242149
0.000209034
0.000177654
0.000150637
0.000125086
0.000104445
8.44262e-05
6.98088e-05
5.45534e-05
4.52854e-05
3.38601e-05
2.8865e-05
2.20741e-05
1.83893e-05
1.07093e-05
5.51626e-06
5.50478e-06
4.69417e-06
3.86349e-06
3.46074e-06
3.28161e-06
3.27258e-06
3.42459e-06
3.77935e-06
4.37697e-06
5.28947e-06
6.5614e-06
8.2687e-06
1.04581e-05
1.32013e-05
1.65488e-05
2.05668e-05
2.5311e-05
3.0847e-05
3.72372e-05
4.45504e-05
5.28548e-05
6.22198e-05
7.2712e-05
8.43964e-05
9.7335e-05
0.000111582
0.000127181
0.000144171
0.000162603
0.000182238
0.000203014
0.000225058
0.000248439
0.000273249
0.000299662
0.000327949
0.000358493
0.000391649
0.000427685
0.000463694
0.000485339
0.00045923
0.000422865
0.000384271
0.000344485
0.000306184
0.000268222
0.000233438
0.000199338
0.00016971
0.000140493
0.000117042
9.31004e-05
7.63585e-05
5.75672e-05
4.72988e-05
3.63592e-05
2.02058e-05
1.22753e-05
6.86611e-06
6.06012e-06
5.2043e-06
4.10836e-06
3.54046e-06
3.25228e-06
3.23077e-06
3.43352e-06
3.94339e-06
4.81978e-06
6.18605e-06
8.12203e-06
1.07504e-05
1.41496e-05
1.84251e-05
2.36512e-05
2.99163e-05
3.7293e-05
4.5861e-05
5.56921e-05
6.68583e-05
7.94228e-05
9.34385e-05
0.000108943
0.00012596
0.000144497
0.000164541
0.000186052
0.000208977
0.000233235
0.000258327
0.000284253
0.000311041
0.000338666
0.000367135
0.000396523
0.000427012
0.000458875
0.00049236
0.00052748
0.000561105
0.000580711
0.00055939
0.00052632
0.000489088
0.000449004
0.000408573
0.000367044
0.000327061
0.00028671
0.000249532
0.000212261
0.000179918
0.000147238
0.000121537
9.45003e-05
7.66997e-05
6.1007e-05
2.2247e-05
1.39954e-05
8.389e-06
6.80546e-06
5.85803e-06
4.60879e-06
3.85359e-06
3.43568e-06
3.39357e-06
3.66793e-06
4.39118e-06
5.66174e-06
7.66916e-06
1.0541e-05
1.44471e-05
1.94928e-05
2.58034e-05
3.34617e-05
4.25586e-05
5.31647e-05
6.53515e-05
7.91775e-05
9.46925e-05
0.000111927
0.000130888
0.000151557
0.00017389
0.000197825
0.000223265
0.000250086
0.000278149
0.000307178
0.000336622
0.000366499
0.000396763
0.000427331
0.000458152
0.000489237
0.000520711
0.000552772
0.00058561
0.000618925
0.000649839
0.000667677
0.000651273
0.000622514
0.00058821
0.000549786
0.000509464
0.000466796
0.000424069
0.0003799
0.000337319
0.00029396
0.000254019
0.000213748
0.000179098
0.00014412
0.000117557
9.7201e-05
2.42783e-05
1.57758e-05
1.00259e-05
7.7436e-06
6.59757e-06
5.31475e-06
4.39585e-06
3.84312e-06
3.77639e-06
4.14805e-06
5.15478e-06
6.9551e-06
9.81555e-06
1.39131e-05
1.94501e-05
2.65386e-05
3.52974e-05
4.57942e-05
5.80984e-05
7.22578e-05
8.83167e-05
0.000106302
0.000126223
0.000148062
0.000171767
0.000197255
0.000224415
0.000253115
0.00028319
0.000314447
0.000346693
0.000379413
0.000412194
0.000445014
0.000477773
0.000510352
0.000542661
0.000574665
0.00060645
0.000638164
0.00066992
0.000701197
0.000729545
0.000745999
0.000734139
0.000709943
0.000679297
0.000643628
0.00060486
0.000562747
0.000519206
0.000473257
0.000427391
0.000379984
0.000334342
0.000288145
0.00024572
0.000203854
0.000168618
0.000144144
2.61483e-05
1.75357e-05
1.1716e-05
8.8608e-06
7.41663e-06
6.14614e-06
5.13106e-06
4.47072e-06
4.38724e-06
4.88748e-06
6.25228e-06
8.72066e-06
1.26373e-05
1.8217e-05
2.56661e-05
3.50758e-05
4.65293e-05
6.00589e-05
7.56945e-05
9.34499e-05
0.000113332
0.000135329
0.000159404
0.000185488
0.000213472
0.000243212
0.000274541
0.000307273
0.00034119
0.00037605
0.0004116
0.000447164
0.000482496
0.000517511
0.000552075
0.000586039
0.000619291
0.000651757
0.000683499
0.000714627
0.000745134
0.000774457
0.000800543
0.000815963
0.000808067
0.000788253
0.000761471
0.000729066
0.000692689
0.000652212
0.000609234
0.000563032
0.000515655
0.00046597
0.000416571
0.000366161
0.000317718
0.000270307
0.000227524
0.000199571
2.77811e-05
1.9213e-05
1.3402e-05
1.01238e-05
8.33784e-06
7.03927e-06
5.99398e-06
5.28246e-06
5.20747e-06
5.87187e-06
7.66128e-06
1.09129e-05
1.60409e-05
2.32778e-05
3.28017e-05
4.46575e-05
5.8872e-05
7.54311e-05
9.43189e-05
0.000115513
0.000138981
0.000164672
0.000192506
0.000222367
0.000254096
0.000287497
0.000322358
0.000358456
0.000395531
0.000433305
0.000471438
0.000509236
0.000546539
0.000583214
0.000619099
0.000654027
0.00068787
0.000720524
0.000752036
0.00078248
0.000811703
0.000839271
0.000863423
0.000878075
0.000873506
0.000857675
0.00083465
0.000805645
0.000772075
0.000733865
0.000692362
0.000646985
0.000599458
0.000548907
0.000497458
0.000444375
0.000391778
0.000340185
0.000291515
0.000260612
2.91563e-05
2.07652e-05
1.5035e-05
1.14871e-05
9.37615e-06
7.97818e-06
6.92358e-06
6.21515e-06
6.18318e-06
7.04444e-06
9.30207e-06
1.34049e-05
1.98238e-05
2.87889e-05
4.04238e-05
5.47116e-05
7.16129e-05
9.10649e-05
0.000113006
0.00013738
0.000164119
0.000193136
0.000224312
0.000257489
0.000292463
0.000329002
0.000366852
0.000405762
0.000445445
0.000485597
0.000525765
0.000565343
0.000604187
0.00064213
0.00067899
0.000714586
0.000748781
0.000781447
0.000812622
0.00084232
0.000870322
0.000896335
0.000918844
0.000932907
0.000931049
0.000918708
0.000899163
0.000873468
0.00084284
0.000807216
0.000767751
0.000723919
0.000677228
0.000626882
0.000574768
0.000520303
0.000465252
0.000410728
0.00035795
0.000324477
3.02873e-05
2.21681e-05
1.6577e-05
1.29004e-05
1.05275e-05
8.97972e-06
7.89309e-06
7.20896e-06
7.2423e-06
8.31563e-06
1.1049e-05
1.60101e-05
2.37167e-05
3.43829e-05
4.80636e-05
6.46729e-05
8.41035e-05
0.000106246
0.000130996
0.000158265
0.000187954
0.000219944
0.000254079
0.000290165
0.000327961
0.000367199
0.000407595
0.000448877
0.000490735
0.00053285
0.000574638
0.000615648
0.000655708
0.000694624
0.000732199
0.000768244
0.000802616
0.000835171
0.000865942
0.000894835
0.000921715
0.000946347
0.000967448
0.000981024
0.000981321
0.000971953
0.000955524
0.000932922
0.000905194
0.000872267
0.00083515
0.000793317
0.000748144
0.00069879
0.000647071
0.000592269
0.00053619
0.000479829
0.000424577
0.000388812
3.12036e-05
2.34127e-05
1.80018e-05
1.43149e-05
1.17705e-05
1.0063e-05
8.90886e-06
8.23512e-06
8.32773e-06
9.59717e-06
1.27698e-05
1.85341e-05
2.74516e-05
3.97166e-05
5.53105e-05
7.40778e-05
9.58438e-05
0.000120455
0.000147766
0.00017766
0.000210006
0.000244656
0.000281421
0.000320073
0.00036034
0.000401923
0.000444509
0.00048781
0.000531499
0.000575229
0.00061834
0.00066051
0.000701532
0.00074119
0.000779277
0.000815599
0.000850012
0.000882357
0.000912643
0.000940722
0.00096656
0.00098995
0.00100982
0.00102296
0.00102492
0.00101803
0.00100432
0.000984525
0.000959549
0.000929292
0.000894656
0.000855085
0.000811876
0.000764075
0.000713535
0.000659218
0.000603246
0.00054598
0.000489634
0.00045181
3.19395e-05
2.45007e-05
1.92941e-05
1.56875e-05
1.30727e-05
1.12335e-05
9.98926e-06
9.29751e-06
9.41772e-06
1.08352e-05
1.43683e-05
2.08264e-05
3.08204e-05
4.45297e-05
6.18651e-05
8.26023e-05
0.000106501
0.000133363
0.000163005
0.000195278
0.000230026
0.000267067
0.000306185
0.000347119
0.000389568
0.000433206
0.000477692
0.000522728
0.00056797
0.000613025
0.000657235
0.000700347
0.000742123
0.000782335
0.000820769
0.000857225
0.000891565
0.000923617
0.000953325
0.000980606
0.00100546
0.00102771
0.00104648
0.00105919
0.00106239
0.00105751
0.00104614
0.00102884
0.0010064
0.000978708
0.000946568
0.000909385
0.000868411
0.000822548
0.000773744
0.000720548
0.000665554
0.000608165
0.000551826
0.000512176
3.25279e-05
2.54415e-05
2.0448e-05
1.69833e-05
1.43955e-05
1.24813e-05
1.11492e-05
1.04158e-05
1.05219e-05
1.20197e-05
1.58048e-05
2.28075e-05
3.37019e-05
4.86666e-05
6.75488e-05
9.00584e-05
0.000115888
0.000144797
0.000176557
0.000210993
0.000247917
0.00028712
0.000328356
0.000371335
0.000415726
0.000461177
0.000507324
0.000553858
0.000600427
0.000646574
0.000691695
0.000735565
0.000777924
0.000818532
0.000857171
0.000893641
0.00092781
0.000959459
0.000988541
0.00101503
0.00103894
0.00106013
0.00107789
0.00109014
0.00109422
0.00109095
0.00108153
0.00106641
0.00104629
0.00102099
0.000991284
0.000956521
0.000917926
0.000874252
0.000827569
0.000775976
0.000722608
0.000665742
0.000610261
0.000569035
3.29974e-05
2.62483e-05
2.14651e-05
1.81771e-05
1.56993e-05
1.3784e-05
1.23913e-05
1.16078e-05
1.16677e-05
1.31728e-05
1.70897e-05
2.44661e-05
3.60586e-05
5.2067e-05
7.2287e-05
9.63671e-05
0.00012393
0.000154691
0.000188376
0.00022478
0.000263683
0.000304847
0.000347998
0.000392817
0.000438945
0.000486006
0.00053361
0.000581444
0.000629146
0.000676192
0.000722063
0.000766536
0.000809329
0.000850197
0.000888919
0.000925297
0.000959188
0.000990338
0.00101876
0.00104445
0.00106744
0.00108762
0.00110442
0.00111619
0.00112085
0.00111882
0.00111102
0.00109778
0.00107971
0.00105663
0.00102925
0.00099687
0.000960708
0.000919376
0.000875063
0.000825433
0.000774161
0.000718349
0.000664363
0.000621837
3.33723e-05
2.69363e-05
2.23525e-05
1.92532e-05
1.69476e-05
1.51101e-05
1.37057e-05
1.28827e-05
1.28855e-05
1.43308e-05
1.82646e-05
2.584e-05
3.79164e-05
5.47433e-05
7.60826e-05
0.000101528
0.000130628
0.000163056
0.000198484
0.000236675
0.000277378
0.000320325
0.000365211
0.000411691
0.000459377
0.000507872
0.000556756
0.000605714
0.000654377
0.000702166
0.000748646
0.000793584
0.000836682
0.00087769
0.000916385
0.000952573
0.000986058
0.00101666
0.00104439
0.00106927
0.00109135
0.00111055
0.00112643
0.00113767
0.00114265
0.00114155
0.00113506
0.00112341
0.00110717
0.00108611
0.0010609
0.00103084
0.000997102
0.000958191
0.000916398
0.000868991
0.000820147
0.000765821
0.0007138
0.000670269
3.36719e-05
2.75209e-05
2.31205e-05
2.02047e-05
1.81097e-05
1.64239e-05
1.50713e-05
1.42386e-05
1.41911e-05
1.55414e-05
1.93831e-05
2.69939e-05
3.93405e-05
5.67556e-05
7.89893e-05
0.000105591
0.000136035
0.000169947
0.000206942
0.000246751
0.000289087
0.000333651
0.00038011
0.000428089
0.000477174
0.000526943
0.000576949
0.000626878
0.000676338
0.000724744
0.000771706
0.000816988
0.000860275
0.000901314
0.000939885
0.000975751
0.00100875
0.00103875
0.00106577
0.00108982
0.00111098
0.00112922
0.0011442
0.00115486
0.00115996
0.00115951
0.00115405
0.00114376
0.0011291
0.00110987
0.00108669
0.00105884
0.00102748
0.000991011
0.000951814
0.000906815
0.000860623
0.00080813
0.000758412
0.000714191
3.3912e-05
2.80166e-05
2.37815e-05
2.1032e-05
1.91625e-05
1.76885e-05
1.64584e-05
1.56623e-05
1.55876e-05
1.68449e-05
2.05031e-05
2.8002e-05
4.04166e-05
5.81915e-05
8.1092e-05
0.000108639
0.00014023
0.000175446
0.000213836
0.000255097
0.000298908
0.000344934
0.000392813
0.000442143
0.000492478
0.000543378
0.000594361
0.000645119
0.000695234
0.000744142
0.00079147
0.000836984
0.000880355
0.000921326
0.000959642
0.000995098
0.00102756
0.00105691
0.00108316
0.00110637
0.00112661
0.0011439
0.00115797
0.00116801
0.00117305
0.00117304
0.00116838
0.00115919
0.00114591
0.00112832
0.00110702
0.00108126
0.0010522
0.00101817
0.000981591
0.000939122
0.000895725
0.000845344
0.000798166
0.000753575
3.41047e-05
2.84366e-05
2.43484e-05
2.17408e-05
2.00914e-05
1.88702e-05
1.78315e-05
1.7131e-05
1.70672e-05
1.82495e-05
2.1704e-05
2.89376e-05
4.12369e-05
5.91515e-05
8.24921e-05
0.000110773
0.00014331
0.000179649
0.000219263
0.000261815
0.000306944
0.000354282
0.000403436
0.000453974
0.000505422
0.000557317
0.000609142
0.0006606
0.000711241
0.000760543
0.00080813
0.000853774
0.00089713
0.000937902
0.00097587
0.00101085
0.00104271
0.00107136
0.00109683
0.00111916
0.00113848
0.00115481
0.00116798
0.00117735
0.00118219
0.00118241
0.00117834
0.00117006
0.00115797
0.00114185
0.00112227
0.00109849
0.00107163
0.00103999
0.00100602
0.000966159
0.000925638
0.000877591
0.000833116
0.000788478
3.42598e-05
2.87925e-05
2.4834e-05
2.2341e-05
2.08903e-05
1.99406e-05
1.91527e-05
1.86133e-05
1.86117e-05
1.97517e-05
2.30168e-05
2.99104e-05
4.1892e-05
5.97396e-05
8.32979e-05
0.000112099
0.000145383
0.000182661
0.000223327
0.000267008
0.000313301
0.000361803
0.00041209
0.000463699
0.000516126
0.000568888
0.000621426
0.000673459
0.000724512
0.000774106
0.000821852
0.000867528
0.000910729
0.000951211
0.00098876
0.0010232
0.00105441
0.00108232
0.00110696
0.0011284
0.00114677
0.00116214
0.0011744
0.00118306
0.00118759
0.00118789
0.00118423
0.00117668
0.0011656
0.0011508
0.00113279
0.00111087
0.00108611
0.00105681
0.00102541
0.000988187
0.000950579
0.000905038
0.000863373
0.000819006
3.43849e-05
2.90943e-05
2.525e-05
2.28446e-05
2.15601e-05
2.0879e-05
2.03848e-05
2.00717e-05
2.01933e-05
2.13371e-05
2.4444e-05
3.09926e-05
4.25139e-05
6.00577e-05
8.36192e-05
0.00011273
0.000146559
0.000184591
0.000226134
0.000270779
0.000318082
0.000367601
0.000418879
0.000471424
0.0005247
0.000578203
0.00063133
0.000683817
0.000735179
0.000784968
0.000832766
0.000878331
0.000921296
0.000961414
0.000998477
0.00103232
0.00106283
0.00108995
0.00111373
0.00113425
0.00115166
0.00116606
0.0011774
0.00118532
0.00118943
0.00118967
0.00118628
0.00117931
0.0011691
0.00115546
0.00113889
0.00111872
0.00109596
0.00106892
0.00104003
0.00100547
0.000970775
0.000927874
0.000889083
0.000845299
3.4486e-05
2.93503e-05
2.56072e-05
2.32648e-05
2.21078e-05
2.16731e-05
2.1495e-05
2.14657e-05
2.17759e-05
2.29807e-05
2.59756e-05
3.21972e-05
4.32177e-05
6.02633e-05
8.35632e-05
0.000112776
0.000146947
0.000185548
0.00022779
0.000273235
0.000321391
0.000371778
0.000423906
0.000477252
0.000531246
0.000585368
0.000638959
0.000691788
0.000743359
0.000793205
0.000840944
0.000886314
0.000928965
0.000968649
0.00100516
0.00103835
0.00106811
0.0010944
0.00111728
0.00113685
0.00115329
0.0011667
0.00117711
0.00118426
0.00118789
0.00118797
0.00118472
0.00117819
0.00116871
0.00115611
0.00114087
0.00112232
0.00110146
0.00107662
0.00105017
0.00101826
0.000986461
0.0009463
0.000910419
0.000867516
3.45679e-05
2.95679e-05
2.59148e-05
2.36146e-05
2.25448e-05
2.23193e-05
2.2457e-05
2.27543e-05
2.33176e-05
2.46477e-05
2.75889e-05
3.35216e-05
4.40309e-05
6.04876e-05
8.3332e-05
0.000112345
0.000146657
0.00018564
0.000228402
0.000274478
0.000323328
0.000374433
0.000427267
0.000481278
0.00053586
0.000590477
0.00064441
0.000697441
0.000749092
0.000798904
0.000846496
0.000891591
0.000933853
0.000973033
0.00100894
0.00104141
0.00107038
0.0010958
0.00111775
0.00113635
0.00115179
0.00116421
0.00117368
0.00118003
0.00118311
0.00118294
0.00117972
0.00117353
0.00116467
0.001153
0.00113897
0.00112196
0.0011029
0.00108018
0.0010561
0.00102681
0.000997868
0.000960521
0.000927561
0.000885826
3.46343e-05
2.9753e-05
2.61807e-05
2.39063e-05
2.28851e-05
2.28216e-05
2.32535e-05
2.39005e-05
2.47728e-05
2.62954e-05
2.92499e-05
3.49481e-05
4.49628e-05
6.07733e-05
8.30252e-05
0.00011165
0.00014586
0.000184972
0.000228074
0.000274611
0.000323994
0.000375662
0.000429057
0.000483594
0.000538626
0.000593562
0.00064771
0.00070084
0.000752474
0.000802161
0.000849519
0.000894261
0.000936061
0.000974672
0.0010099
0.00104162
0.00106974
0.00109425
0.00111525
0.00113285
0.00114727
0.00115869
0.00116721
0.00117274
0.00117523
0.00117473
0.00117147
0.00116552
0.00115719
0.00114635
0.00113343
0.00111786
0.00110051
0.00107984
0.00105805
0.00103136
0.00100522
0.000970742
0.000940699
0.000900401
3.46882e-05
2.99106e-05
2.64115e-05
2.41509e-05
2.31442e-05
2.31905e-05
2.38765e-05
2.48736e-05
2.60963e-05
2.78751e-05
3.09148e-05
3.64454e-05
4.60047e-05
6.1144e-05
8.26977e-05
0.000110767
0.000144674
0.00018371
0.000226947
0.000273751
0.000323482
0.000375541
0.000429333
0.000484243
0.000539583
0.000594705
0.00064895
0.000702072
0.00075359
0.000803062
0.000850102
0.000894413
0.00093568
0.000973658
0.00100816
0.00103906
0.0010663
0.00108987
0.00110987
0.00112645
0.00113984
0.00115025
0.0011578
0.0011625
0.00116436
0.00116348
0.0011601
0.00115432
0.00114644
0.00113635
0.00112446
0.00111025
0.00109453
0.00107584
0.00105627
0.00103213
0.00100873
0.000977161
0.00095002
0.000911413
3.4732e-05
3.0045e-05
2.66128e-05
2.43579e-05
2.33374e-05
2.34413e-05
2.43275e-05
2.56519e-05
2.72462e-05
2.93355e-05
3.25318e-05
3.79698e-05
4.71313e-05
6.16034e-05
8.23857e-05
0.000109757
0.000143175
0.000181935
0.000225106
0.000271983
0.000321879
0.000374153
0.000428176
0.000483304
0.000538807
0.000593981
0.000648207
0.000701214
0.000752521
0.000801687
0.000848325
0.000892129
0.000932792
0.000970073
0.00100379
0.00103383
0.00106013
0.00108272
0.0011017
0.00111724
0.00112959
0.00113896
0.00114555
0.00114941
0.00115061
0.00114931
0.00114576
0.00114008
0.00113258
0.00112317
0.00111225
0.00109933
0.00108517
0.00106839
0.00105096
0.00102933
0.00100862
0.000979971
0.000955709
0.000919032
3.47677e-05
3.01596e-05
2.67889e-05
2.45352e-05
2.34793e-05
2.35921e-05
2.46165e-05
2.62246e-05
2.81882e-05
3.0626e-05
3.40439e-05
3.94672e-05
4.83019e-05
6.21366e-05
8.21055e-05
0.000108664
0.000141426
0.000179722
0.000222629
0.000269387
0.000319262
0.000371575
0.000425664
0.000480854
0.000536371
0.000591461
0.000645556
0.000698342
0.00074934
0.000798108
0.00084426
0.000887481
0.000927471
0.000963992
0.000996871
0.001026
0.00105133
0.0010729
0.00109083
0.00110531
0.00111659
0.00112493
0.00113055
0.00113354
0.00113407
0.00113232
0.00112856
0.00112295
0.00111577
0.00110699
0.00109698
0.00108527
0.00107261
0.00105767
0.00104232
0.00102316
0.00100507
0.000979357
0.000957946
0.00092342
3.47966e-05
3.02575e-05
2.69436e-05
2.46893e-05
2.35829e-05
2.36621e-05
2.47599e-05
2.65918e-05
2.88979e-05
3.17009e-05
3.53929e-05
4.08766e-05
4.94627e-05
6.27103e-05
8.18538e-05
0.000107514
0.000139475
0.000177131
0.000219585
0.000266035
0.000315706
0.000367882
0.000421869
0.000476963
0.000532346
0.000587212
0.000641066
0.000693525
0.000744114
0.000792395
0.000837976
0.000880538
0.000919785
0.000955485
0.000987468
0.00101563
0.00103995
0.00106047
0.00107732
0.00109072
0.00110092
0.00110822
0.00111286
0.001115
0.00111484
0.00111262
0.00110862
0.00110303
0.00109615
0.00108795
0.00107878
0.00106826
0.00105703
0.00104389
0.00103055
0.00101381
0.000998268
0.000975497
0.000956904
0.000924735
3.48202e-05
3.03411e-05
2.70798e-05
2.48251e-05
2.36593e-05
2.36707e-05
2.47793e-05
2.67637e-05
2.93631e-05
3.25235e-05
3.65233e-05
4.21331e-05
5.05506e-05
6.32759e-05
8.16077e-05
0.000106313
0.000137352
0.00017421
0.000216032
0.00026199
0.000311277
0.000363141
0.000416858
0.000471698
0.000526797
0.000581316
0.000634806
0.000686828
0.000736909
0.000784609
0.000829536
0.000871362
0.000909799
0.000944615
0.000975648
0.00100281
0.00102607
0.00104551
0.00106125
0.00107354
0.00108266
0.00108891
0.00109257
0.00109386
0.00109301
0.0010903
0.00108605
0.00108045
0.00107382
0.00106617
0.00105783
0.00104844
0.0010386
0.0010272
0.00101581
0.00100144
0.000988397
0.000968561
0.000952752
0.000923129
3.48393e-05
3.04126e-05
2.72e-05
2.49465e-05
2.37175e-05
2.36355e-05
2.46985e-05
2.67596e-05
2.95845e-05
3.30687e-05
3.73868e-05
4.31725e-05
5.14961e-05
6.37724e-05
8.13272e-05
0.000105049
0.000135071
0.00017099
0.000212013
0.000257305
0.000306031
0.000357412
0.000410694
0.000465121
0.000519784
0.000573834
0.000626835
0.000678311
0.000727784
0.000774812
0.000818998
0.000860013
0.00089757
0.000931441
0.000961472
0.000987577
0.00100975
0.00102807
0.00104269
0.00105385
0.00106187
0.00106706
0.00106975
0.00107019
0.00106865
0.00106545
0.00106093
0.00105532
0.00104893
0.0010418
0.00103424
0.00102595
0.00101746
0.00100776
0.000998278
0.000986238
0.000975622
0.00095871
0.000945651
0.000918746
3.48548e-05
3.04737e-05
2.73063e-05
2.50562e-05
2.37647e-05
2.35722e-05
2.45423e-05
2.66052e-05
2.95749e-05
3.33257e-05
3.79461e-05
4.39366e-05
5.22289e-05
6.41302e-05
8.09578e-05
0.000103692
0.000132628
0.000167488
0.000207561
0.00025202
0.000300017
0.000350746
0.00040343
0.000457288
0.000511362
0.000564822
0.000617213
0.000668033
0.000716796
0.000763058
0.00080642
0.000846546
0.000883154
0.000916021
0.000944995
0.000970002
0.000991046
0.00100821
0.00102168
0.00103171
0.00103862
0.00104276
0.00104448
0.00104407
0.00104184
0.00103815
0.00103336
0.00102773
0.00102157
0.00101495
0.00100815
0.00100093
0.000993757
0.000985726
0.000978099
0.000968345
0.000960102
0.000946099
0.000935754
0.000911726
3.48674e-05
3.05261e-05
2.74004e-05
2.51564e-05
2.3806e-05
2.34942e-05
2.43342e-05
2.63301e-05
2.93582e-05
3.32987e-05
3.81789e-05
4.43772e-05
5.26827e-05
6.42767e-05
8.04351e-05
0.000102197
0.000130001
0.000163704
0.000202691
0.000246165
0.000293272
0.000343187
0.000395113
0.000448249
0.000501579
0.000554331
0.000605992
0.000656044
0.000703997
0.000749399
0.000791851
0.000831014
0.000866605
0.000898406
0.000926273
0.000950137
0.000970016
0.000986008
0.000998306
0.00100718
0.00101298
0.00101607
0.00101682
0.00101557
0.00101268
0.0010085
0.00100345
0.00099779
0.000991849
0.000985725
0.000979685
0.000973521
0.000967633
0.000961236
0.000955422
0.000947916
0.000941989
0.000930877
0.000923211
0.000902201
3.48776e-05
3.0571e-05
2.74838e-05
2.52484e-05
2.3845e-05
2.34117e-05
2.40958e-05
2.59656e-05
2.89661e-05
3.30065e-05
3.80796e-05
4.44611e-05
5.28006e-05
6.41417e-05
7.96893e-05
0.000100508
0.000127155
0.000159625
0.000197408
0.000239754
0.000285819
0.000334766
0.00038578
0.000438043
0.000490496
0.00054241
0.00059322
0.000642394
0.000689434
0.000733885
0.000775342
0.000813465
0.000847972
0.000878649
0.000905357
0.000928037
0.000946715
0.000961506
0.000972614
0.000980327
0.000985006
0.000987048
0.000986851
0.000984779
0.000981223
0.000976585
0.000971272
0.000965597
0.000959882
0.000954253
0.000948957
0.000943834
0.000939216
0.000934425
0.000930388
0.000925093
0.00092143
0.000913187
0.000908165
0.000890301
3.48859e-05
3.06095e-05
2.75576e-05
2.53333e-05
2.38841e-05
2.33325e-05
2.38452e-05
2.55421e-05
2.84358e-05
3.248e-05
3.766e-05
4.4173e-05
5.25405e-05
6.36632e-05
7.86518e-05
9.85628e-05
0.000124047
0.000155224
0.000191702
0.000232793
0.000277675
0.000325506
0.000375461
0.000426706
0.000478154
0.000529098
0.000578938
0.000627125
0.000673152
0.000716559
0.000756938
0.000793946
0.000827303
0.000856799
0.000882299
0.000903753
0.0009212
0.000934765
0.000944668
0.000951212
0.000954776
0.000955777
0.000954642
0.000951767
0.000947572
0.000942485
0.000936933
0.000931253
0.000925772
0.000920642
0.000916089
0.000911998
0.000908634
0.000905426
0.000903135
0.000900014
0.000898566
0.000893168
0.000890755
0.000876148
3.48925e-05
3.06426e-05
2.76232e-05
2.54118e-05
2.39245e-05
2.32621e-05
2.35972e-05
2.50875e-05
2.78062e-05
3.176e-05
3.69484e-05
4.35173e-05
5.18788e-05
6.27935e-05
7.72611e-05
9.63008e-05
0.000120625
0.000150467
0.000185554
0.000225276
0.000268843
0.000315421
0.000364174
0.000414263
0.000464581
0.00051443
0.000563183
0.000610275
0.00065519
0.000697463
0.000736682
0.000772502
0.000804645
0.000832903
0.000857149
0.000877341
0.000893527
0.000905846
0.000914531
0.000919904
0.000922357
0.000922331
0.000920276
0.00091662
0.00091181
0.000906299
0.00090053
0.000894863
0.000889629
0.000885006
0.000881199
0.000878136
0.000876014
0.000874371
0.000873795
0.000872815
0.000873535
0.000870954
0.000871116
0.000859863
3.48978e-05
3.06711e-05
2.76813e-05
2.54844e-05
2.39668e-05
2.32036e-05
2.3363e-05
2.46261e-05
2.71158e-05
3.08929e-05
3.59869e-05
4.25184e-05
5.08135e-05
6.15038e-05
7.5469e-05
9.36667e-05
0.000116839
0.000145316
0.000178942
0.000217191
0.000259322
0.000304515
0.000351935
0.000400733
0.000449799
0.000498434
0.000545986
0.000591879
0.000635585
0.000676635
0.000714614
0.000749176
0.000780043
0.00080701
0.000829958
0.000848853
0.000863753
0.00087481
0.000882271
0.000886473
0.000887826
0.00088679
0.000883838
0.000879429
0.000874033
0.000868127
0.000862168
0.000856537
0.000851569
0.000847464
0.000844409
0.000842373
0.000841485
0.000841389
0.000842503
0.000843631
0.000846474
0.000846679
0.000849379
0.000841563
3.49021e-05
3.06958e-05
2.7733e-05
2.55516e-05
2.40108e-05
2.31588e-05
2.31504e-05
2.41773e-05
2.63997e-05
2.99269e-05
3.48276e-05
4.12187e-05
4.93655e-05
5.97883e-05
7.32467e-05
9.06183e-05
0.000112647
0.000139737
0.00017184
0.000208524
0.000249107
0.000292792
0.000338749
0.000386129
0.000433828
0.000481131
0.000527375
0.000571966
0.00061437
0.000654112
0.000690775
0.00072401
0.000753541
0.000779169
0.00080078
0.000818347
0.000831939
0.000841723
0.000847958
0.000850996
0.000851264
0.000849241
0.000845422
0.000840293
0.000834347
0.00082808
0.000821963
0.000816395
0.000811715
0.000808145
0.00080585
0.00080484
0.00080518
0.000806614
0.000809392
0.000812595
0.000817517
0.000820475
0.000825677
0.000821363
3.49056e-05
3.07171e-05
2.77789e-05
2.56136e-05
2.40564e-05
2.31278e-05
2.29641e-05
2.37561e-05
2.5688e-05
2.89091e-05
3.35284e-05
3.96748e-05
4.75772e-05
5.76661e-05
7.05891e-05
8.7133e-05
0.000108019
0.000133701
0.000164228
0.000199264
0.000238193
0.000280253
0.000324625
0.000370464
0.000416682
0.000462544
0.000507373
0.000550565
0.000591578
0.00062993
0.000665203
0.000697047
0.000725188
0.000749432
0.000769669
0.000785882
0.000798153
0.000806657
0.00081167
0.000813558
0.000812763
0.000809783
0.000805133
0.000799324
0.000792868
0.00078628
0.000780041
0.000774569
0.000770202
0.000767182
0.000765658
0.000765675
0.000767235
0.000770183
0.0007746
0.000779843
0.0007868
0.000792472
0.000800138
0.000799378
3.49083e-05
3.07356e-05
2.78198e-05
2.56709e-05
2.41029e-05
2.31102e-05
2.28063e-05
2.33728e-05
2.50052e-05
2.78818e-05
3.2148e-05
3.79531e-05
4.55093e-05
5.5181e-05
6.75175e-05
8.32125e-05
0.000102946
0.000127198
0.000156099
0.000189407
0.000226581
0.000266902