/*--------------------------------*- C++ -*----------------------------------*\
| =========                 |                                                 |
| \\      /  F ield         | OpenFOAM: The Open Source CFD Toolbox           |
|  \\    /   O peration     | Version:  2.4.0                                 |
|   \\  /    A nd           | Web:      www.OpenFOAM.org                      |
|    \\/     M anipulation  |                                                 |
\*---------------------------------------------------------------------------*/
FoamFile
{
    version     2.0;
    format      ascii;
    class       volScalarField;
    location    "7.3";
    object      nut;
}
// * * * * * * * * * * * * * * * * * * * * * * * * * * * * * * * * * * * * * //

dimensions      [0 2 -1 0 0 0 0];

internalField   nonuniform List<scalar> 
6000
(
1.24054e-05
1.01565e-05
5.6898e-06
3.08133e-06
1.71781e-06
2.88919e-06
2.63815e-06
3.48731e-06
3.79202e-06
4.45235e-06
4.95156e-06
5.59206e-06
6.19147e-06
6.85239e-06
7.50321e-06
8.17409e-06
8.83786e-06
9.50205e-06
1.01562e-05
1.08012e-05
1.14349e-05
1.20754e-05
1.27243e-05
1.33512e-05
1.39538e-05
1.45301e-05
1.50774e-05
1.55936e-05
1.60766e-05
1.65245e-05
1.69365e-05
1.731e-05
1.76413e-05
1.79291e-05
1.81713e-05
1.83664e-05
1.85124e-05
1.86082e-05
1.86521e-05
1.86438e-05
1.85812e-05
1.8466e-05
1.82942e-05
1.80713e-05
1.77916e-05
1.74577e-05
1.72882e-05
1.71758e-05
1.69842e-05
1.68144e-05
1.65237e-05
1.63197e-05
1.59137e-05
1.57203e-05
1.51684e-05
1.50638e-05
1.43115e-05
1.44379e-05
1.34247e-05
1.42703e-05
2.33582e-05
3.47766e-05
1.7215e-05
7.90949e-06
4.04554e-06
6.52551e-06
1.1929e-05
1.40943e-05
1.83548e-05
2.24337e-05
2.66834e-05
3.16688e-05
3.65516e-05
4.22022e-05
4.78909e-05
5.40619e-05
6.03115e-05
6.67962e-05
7.33335e-05
7.99495e-05
8.65007e-05
9.28049e-05
9.88079e-05
0.000104729
0.000110578
0.000116346
0.000122018
0.000127583
0.000133031
0.000138349
0.000143495
0.000148227
0.000152761
0.000157084
0.000161182
0.000165036
0.000168628
0.000171941
0.000174953
0.000177653
0.000180007
0.000182016
0.000183633
0.000184869
0.00018565
0.000185865
0.000182361
0.000177152
0.000171422
0.000164924
0.00015798
0.000150359
0.000142283
0.000133777
0.000124649
0.000115617
0.000104965
9.62937e-05
8.43191e-05
7.91822e-05
2.89001e-05
5.03124e-05
2.44373e-05
9.89752e-06
9.32162e-06
1.53701e-05
2.59435e-05
3.2192e-05
4.08685e-05
5.0312e-05
5.95107e-05
7.05222e-05
8.12797e-05
9.36172e-05
0.0001061
0.000119525
0.000133149
0.000147217
0.000161391
0.00017568
0.000189821
0.000203581
0.000216914
0.000230066
0.000243038
0.000255799
0.000268309
0.000280534
0.000292441
0.000303979
0.000315041
0.000325332
0.000335139
0.000344437
0.000353186
0.000361346
0.000368874
0.000375732
0.000381869
0.000387257
0.000391829
0.00039558
0.000398413
0.000400329
0.000401144
0.000400464
0.000394263
0.000385351
0.000375074
0.000363468
0.000350467
0.00033652
0.000320818
0.000305055
0.000286596
0.000269911
0.000248058
0.000232099
0.000206206
0.000201129
3.21952e-05
5.72165e-05
2.7822e-05
1.06767e-05
1.54295e-05
2.56135e-05
4.00203e-05
5.10218e-05
6.39888e-05
7.87328e-05
9.30057e-05
0.000109811
0.000126462
0.000145207
0.000164322
0.000184686
0.000205408
0.000226717
0.000248191
0.000269794
0.000291202
0.000312188
0.000332697
0.000352922
0.00037284
0.000392394
0.000411517
0.000430153
0.000448242
0.000465702
0.000482383
0.00049801
0.000512857
0.000526884
0.000540029
0.000552232
0.000563427
0.000573555
0.000582543
0.000590344
0.000596865
0.000602087
0.000605876
0.000608199
0.000608732
0.000606965
0.000599134
0.000588027
0.000574766
0.00055975
0.000542448
0.000524015
0.000502643
0.000481534
0.000455938
0.000433468
0.000403019
0.000381454
0.000346667
0.000342016
3.39567e-05
5.94468e-05
3.42309e-05
1.13492e-05
2.06769e-05
3.49213e-05
5.25867e-05
6.82083e-05
8.53913e-05
0.000105028
0.000124241
0.000146398
0.000168652
0.000193323
0.000218635
0.000245414
0.000272719
0.000300717
0.000328939
0.000357297
0.00038544
0.000413143
0.000440334
0.000467136
0.000493498
0.000519338
0.000544563
0.000569095
0.000592853
0.000615731
0.000637544
0.000658064
0.000677524
0.000695868
0.000713019
0.0007289
0.000743423
0.000756516
0.000768083
0.000778067
0.000786349
0.000792896
0.000797548
0.000800219
0.000800444
0.00079782
0.000789051
0.000776633
0.000761423
0.000744067
0.000723742
0.000702022
0.000676543
0.000651314
0.000620519
0.000593346
0.000556773
0.000530311
0.000489881
0.000484878
3.49042e-05
5.90459e-05
4.15956e-05
1.17479e-05
2.3638e-05
4.24695e-05
6.31376e-05
8.31693e-05
0.000104469
0.00012862
0.000152556
0.000179659
0.000207172
0.000237312
0.000268366
0.000301049
0.000334416
0.000368556
0.000402974
0.000437531
0.000471859
0.000505736
0.000539062
0.000571892
0.000604146
0.000635719
0.000666493
0.000696371
0.000725252
0.000753022
0.000779455
0.000804383
0.00082799
0.00085021
0.000870952
0.000890122
0.000907623
0.000923364
0.000937241
0.00094918
0.000959049
0.000966796
0.000972241
0.000975238
0.000975231
0.000972029
0.000962782
0.000949613
0.000933169
0.000914207
0.000891793
0.00086764
0.00083924
0.000810792
0.000776306
0.00074523
0.000704462
0.000673588
0.000629729
0.000623354
3.5415e-05
5.7204e-05
4.7121e-05
1.43714e-05
2.30695e-05
4.79145e-05
7.14845e-05
9.57899e-05
0.000121084
0.000149443
0.000177866
0.000209568
0.000242
0.000277201
0.000313568
0.000351686
0.00039063
0.000430407
0.000470504
0.000510739
0.000550735
0.000590262
0.00062919
0.000667514
0.000705126
0.000741896
0.000777687
0.000812381
0.000845867
0.000878026
0.000908584
0.000937449
0.000964751
0.000990416
0.00101434
0.00103643
0.00105656
0.00107465
0.00109057
0.00110424
0.00111552
0.00112435
0.00113051
0.00113381
0.00113369
0.00113015
0.00112073
0.00110719
0.00109001
0.00106998
0.00104617
0.00102023
0.000989814
0.000958863
0.000921844
0.000887541
0.000844046
0.000809227
0.000763539
0.000754884
3.56743e-05
5.46517e-05
5.08082e-05
2.14487e-05
2.02368e-05
5.09838e-05
7.75361e-05
0.000106068
0.000135236
0.000167562
0.000200241
0.000236242
0.000273281
0.00031318
0.000354468
0.000397599
0.000441677
0.000486631
0.000531939
0.000577376
0.000622561
0.000667252
0.000711287
0.000754609
0.000797084
0.000838557
0.000878872
0.000917895
0.000955506
0.000991593
0.00102582
0.00105818
0.00108876
0.00111747
0.0011442
0.00116885
0.00119129
0.00121143
0.00122914
0.00124434
0.00125686
0.00126664
0.00127345
0.00127703
0.00127693
0.00127322
0.00126383
0.00125017
0.00123262
0.0012119
0.00118722
0.00116001
0.00112827
0.00109541
0.00105674
0.00101982
0.000974702
0.000936423
0.000890058
0.000878457
3.57842e-05
5.1838e-05
5.29253e-05
2.99115e-05
1.83696e-05
5.13726e-05
8.12328e-05
0.000114019
0.000146953
0.000183061
0.000219783
0.000259827
0.000301186
0.000345463
0.000391319
0.000439086
0.000487898
0.000537615
0.000587708
0.000637918
0.000687857
0.000737268
0.00078596
0.00083383
0.000880717
0.000926443
0.000970837
0.00101375
0.00105505
0.00109463
0.00113213
0.00116759
0.00120106
0.00123245
0.00126164
0.00128853
0.00131299
0.00133492
0.00135419
0.0013707
0.00138431
0.00139492
0.0014023
0.00140613
0.00140616
0.00140241
0.00139317
0.00137956
0.0013619
0.00134079
0.00131562
0.00128755
0.00125501
0.00122074
0.00118112
0.00114211
0.00109621
0.00105497
0.00100875
0.000993782
3.58064e-05
4.90333e-05
5.3746e-05
3.79953e-05
1.91369e-05
4.87887e-05
8.25375e-05
0.000119647
0.000156264
0.000196015
0.000236587
0.000280454
0.000325877
0.000374246
0.000424355
0.000476419
0.000529607
0.000583715
0.000638213
0.000692808
0.000747107
0.000800838
0.000853782
0.000905794
0.000956688
0.00100627
0.00105434
0.00110075
0.00114536
0.00118805
0.00122845
0.00126666
0.00130268
0.00133642
0.00136777
0.00139661
0.00142283
0.0014463
0.00146691
0.00148456
0.0014991
0.00151042
0.00151828
0.00152235
0.00152258
0.00151887
0.00150987
0.00149641
0.00147882
0.00145755
0.00143218
0.00140357
0.00137064
0.00133537
0.00129532
0.00125472
0.00120868
0.00116497
0.00111948
0.00110092
3.57786e-05
4.63921e-05
5.35439e-05
4.4697e-05
2.31164e-05
4.34399e-05
8.14578e-05
0.000122949
0.000163187
0.000206479
0.000250734
0.000298232
0.00034749
0.0003997
0.000453779
0.000509837
0.00056708
0.000625247
0.000683807
0.00074244
0.000800747
0.00085844
0.000915273
0.000971065
0.00102561
0.00107868
0.00113008
0.00117964
0.00122721
0.00127268
0.00131567
0.00135631
0.00139458
0.00143038
0.00146361
0.00149415
0.00152188
0.00154668
0.00156844
0.00158706
0.00160238
0.00161429
0.00162255
0.00162689
0.00162732
0.0016237
0.00161498
0.00160175
0.00158434
0.00156306
0.00153771
0.00150881
0.00147581
0.0014399
0.00139983
0.00135807
0.00131238
0.00126667
0.00122233
0.00120011
3.57236e-05
4.39937e-05
5.25781e-05
4.98152e-05
2.97589e-05
3.71117e-05
7.81023e-05
0.000123925
0.000167734
0.000214495
0.000262285
0.000313249
0.000366136
0.000421963
0.000479761
0.000539544
0.000600556
0.000662485
0.000724802
0.000787161
0.000849161
0.000910496
0.000970894
0.00103014
0.00108801
0.00114427
0.00119869
0.00125109
0.00130132
0.00134926
0.00139457
0.00143736
0.00147761
0.00151523
0.0015501
0.00158211
0.00161114
0.00163707
0.00165981
0.00167923
0.00169521
0.00170761
0.00171618
0.00172078
0.00172142
0.00171792
0.00170948
0.00169651
0.00167936
0.00165819
0.00163301
0.00160404
0.0015712
0.00153495
0.00149517
0.00145265
0.00140766
0.00136042
0.0013175
0.00129167
3.5655e-05
4.18699e-05
5.10794e-05
5.33686e-05
3.69472e-05
3.21487e-05
7.27653e-05
0.000122601
0.000169919
0.000220093
0.000271287
0.000325573
0.000381907
0.000441154
0.000502444
0.000565714
0.000630239
0.000695664
0.000761465
0.000827274
0.000892685
0.000957376
0.00102105
0.00108348
0.00114439
0.00120355
0.00126071
0.00131568
0.00136831
0.00141847
0.00146585
0.00151055
0.00155255
0.00159176
0.00162806
0.00166134
0.00169148
0.00171839
0.00174193
0.00176203
0.00177854
0.00179132
0.00180016
0.001805
0.00180582
0.00180243
0.00179427
0.00178158
0.00176473
0.00174375
0.00171886
0.00168997
0.00165746
0.00162112
0.00158187
0.00153892
0.00149493
0.00144656
0.00140527
0.00137598
3.55811e-05
4.0023e-05
4.92428e-05
5.54961e-05
4.35731e-05
3.02322e-05
6.60192e-05
0.000119066
0.000169774
0.000223299
0.00027778
0.000335261
0.000394877
0.000457365
0.000521949
0.000588491
0.000656301
0.000724988
0.000794029
0.000863041
0.000931613
0.000999406
0.00106611
0.00113145
0.00119517
0.00125699
0.00131665
0.00137396
0.00142876
0.00148091
0.00153013
0.00157654
0.00162009
0.0016607
0.00169824
0.00173261
0.00176371
0.00179142
0.00181565
0.00183629
0.00185322
0.00186629
0.00187536
0.00188038
0.00188135
0.00187808
0.00187017
0.00185775
0.00184121
0.00182048
0.00179593
0.00176726
0.00173521
0.00169899
0.00166045
0.00161738
0.00157458
0.00152549
0.00148594
0.00145339
3.55071e-05
3.84387e-05
4.72261e-05
5.63927e-05
4.92715e-05
3.34352e-05
5.89683e-05
0.000113523
0.000167368
0.000224152
0.000281802
0.000342361
0.000405108
0.000470678
0.000538375
0.000608
0.000678893
0.000750631
0.000822697
0.000894692
0.000966202
0.00103687
0.00110638
0.00117442
0.00124072
0.00130498
0.00136694
0.00142638
0.00148314
0.00153709
0.00158798
0.0016359
0.00168083
0.00172266
0.00176129
0.00179661
0.00182852
0.00185691
0.00188169
0.00190276
0.00192001
0.00193329
0.00194254
0.0019477
0.00194878
0.0019456
0.00193789
0.00192573
0.00190949
0.00188905
0.0018649
0.00183653
0.00180504
0.00176911
0.00173141
0.00168848
0.00164703
0.00159756
0.00155983
0.00152428
3.54358e-05
3.70936e-05
4.51512e-05
5.62733e-05
5.38729e-05
3.94641e-05
5.30102e-05
0.000106356
0.000162833
0.000222713
0.0002834
0.000346921
0.000412657
0.000481163
0.00055181
0.000624348
0.000698144
0.000772745
0.000847643
0.000922427
0.000996677
0.00107003
0.00114213
0.00121268
0.00128137
0.00134789
0.00141196
0.00147335
0.0015319
0.00158748
0.00163987
0.00168916
0.00173531
0.00177822
0.0018178
0.00185393
0.00188652
0.00191547
0.00194069
0.0019621
0.00197957
0.001993
0.00200237
0.00200761
0.00200876
0.00200564
0.00199811
0.00198617
0.00197022
0.00195007
0.00192634
0.00189834
0.00186747
0.00183196
0.00179521
0.00175265
0.00171266
0.00166314
0.00162727
0.001589
3.53691e-05
3.59605e-05
4.31082e-05
5.53524e-05
5.73037e-05
4.6392e-05
4.93099e-05
9.81792e-05
0.000156397
0.000219086
0.000282642
0.000349
0.000417582
0.000488887
0.000562335
0.000637631
0.000714167
0.000791466
0.000869025
0.000946424
0.00102324
0.00109909
0.00117362
0.00124651
0.00131741
0.00138603
0.00145205
0.00151524
0.00157543
0.00163248
0.00168623
0.00173675
0.001784
0.00182787
0.00186827
0.0019051
0.00193826
0.00196767
0.00199324
0.00201488
0.0020325
0.00204603
0.00205546
0.00206073
0.00206189
0.0020588
0.0020514
0.00203964
0.00202396
0.0020041
0.00198079
0.0019532
0.001923
0.00188803
0.0018523
0.00181028
0.00177184
0.00172255
0.00168855
0.00164788
3.53077e-05
3.50123e-05
4.11605e-05
5.38315e-05
5.95662e-05
5.30858e-05
4.99119e-05
8.99188e-05
0.00014842
0.000213437
0.000279626
0.000348671
0.000419953
0.000493919
0.000570026
0.000647939
0.000727068
0.000806915
0.000886982
0.00096684
0.00104606
0.00112426
0.00120107
0.00127613
0.00134911
0.00141968
0.00148751
0.00155236
0.00161406
0.00167246
0.00172745
0.00177908
0.00182731
0.00187203
0.00191315
0.00195057
0.00198422
0.00201399
0.00203982
0.00206162
0.00207933
0.0020929
0.00210233
0.00210757
0.0021087
0.0021056
0.00209827
0.00208666
0.00207121
0.00205163
0.00202874
0.0020016
0.00197208
0.00193772
0.00190307
0.00186176
0.00182492
0.00177612
0.00174399
0.00170124
3.5252e-05
3.42226e-05
3.93489e-05
5.18923e-05
6.07227e-05
5.89639e-05
5.39038e-05
8.26576e-05
0.000139412
0.000206017
0.0002745
0.000346037
0.000419851
0.000496336
0.000574964
0.000655358
0.000736946
0.000819203
0.00090164
0.000983819
0.00106531
0.00114572
0.00122466
0.00130177
0.00137669
0.00144908
0.00151861
0.001585
0.00164809
0.00170773
0.00176386
0.0018165
0.0018656
0.00191108
0.00195283
0.00199077
0.00202481
0.00205487
0.00208088
0.00210278
0.00212051
0.00213406
0.00214343
0.0021486
0.00214966
0.0021465
0.0021392
0.00212769
0.00211243
0.00209311
0.00207062
0.00204394
0.00201511
0.00198144
0.00194789
0.00190744
0.00187223
0.00182414
0.00179387
0.00174936
3.52019e-05
3.35679e-05
3.76971e-05
4.96918e-05
6.08802e-05
6.37298e-05
5.95981e-05
7.77174e-05
0.000130048
0.000197182
0.000267473
0.000341241
0.000417386
0.000496233
0.000577237
0.00065998
0.000743898
0.00082844
0.00091312
0.000997494
0.00108113
0.00116362
0.00124457
0.00132361
0.00140037
0.00147447
0.00154558
0.00161341
0.00167778
0.00173857
0.00179575
0.00184931
0.00189921
0.00194536
0.00198766
0.00202604
0.0020604
0.00209068
0.00211681
0.00213874
0.00215645
0.00216992
0.00217919
0.00218423
0.00218517
0.00218191
0.0021746
0.00216314
0.00214804
0.00212895
0.00210683
0.00208062
0.00205248
0.00201955
0.00198711
0.00194761
0.00191407
0.00186689
0.00183846
0.00179252
3.51572e-05
3.3027e-05
3.62152e-05
4.73614e-05
6.01754e-05
6.72511e-05
6.56903e-05
7.66271e-05
0.000121132
0.000187403
0.000258829
0.000334475
0.000412702
0.000493726
0.000576949
0.000661904
0.000748026
0.000834732
0.000921537
0.00100799
0.00109366
0.00117812
0.00126097
0.00134183
0.00142032
0.00149604
0.00156863
0.00163781
0.00170338
0.00176524
0.00182338
0.00187779
0.00192841
0.00197516
0.00201795
0.0020567
0.00209132
0.00212176
0.00214795
0.00216987
0.0021875
0.00220085
0.00220996
0.00221483
0.0022156
0.00221221
0.00220483
0.00219338
0.00217839
0.00215951
0.00213774
0.00211198
0.00208453
0.00205235
0.00202104
0.0019826
0.00195071
0.00190462
0.001878
0.00183097
3.51175e-05
3.25817e-05
3.49038e-05
4.50065e-05
5.87622e-05
6.95e-05
7.14227e-05
7.89927e-05
0.000113486
0.000177255
0.000248939
0.000325992
0.000405984
0.000488962
0.000574225
0.000661245
0.000749441
0.000838191
0.000927007
0.00101543
0.00110302
0.00118935
0.00127401
0.00135659
0.00143671
0.00151397
0.00158796
0.0016584
0.00172509
0.00178795
0.00184698
0.00190217
0.00195346
0.00200075
0.00204397
0.00208302
0.00211785
0.00214839
0.0021746
0.00219646
0.00221397
0.00222715
0.00223606
0.00224072
0.00224128
0.00223772
0.00223022
0.00221875
0.00220382
0.00218511
0.00216366
0.00213834
0.00211155
0.00208017
0.00204997
0.00201265
0.00198243
0.00193758
0.00191275
0.00186495
3.50825e-05
3.22161e-05
3.37569e-05
4.27079e-05
5.67998e-05
7.05218e-05
7.63383e-05
8.33537e-05
0.00010894
0.000167385
0.000238255
0.000316109
0.000397467
0.000482124
0.000569218
0.000658135
0.000748265
0.000838935
0.00092965
0.00101994
0.00110935
0.00119745
0.00128381
0.00136804
0.00144971
0.00152841
0.00160374
0.00167537
0.00174309
0.00180689
0.00186677
0.00192268
0.00197457
0.00202235
0.00206594
0.00210526
0.00214025
0.00217084
0.00219702
0.00221878
0.00223613
0.0022491
0.00225778
0.00226219
0.0022625
0.00225872
0.00225107
0.00223953
0.00222463
0.00220605
0.00218488
0.00216
0.00213385
0.00210326
0.00207416
0.00203804
0.00200946
0.00196598
0.00194292
0.00189468
3.50517e-05
3.19169e-05
3.27639e-05
4.05248e-05
5.44432e-05
7.0415e-05
8.0163e-05
8.85054e-05
0.000107937
0.000158722
0.000227296
0.000305208
0.000387439
0.000473437
0.00056211
0.00065273
0.000744637
0.000837095
0.000929589
0.00102164
0.00111277
0.00120254
0.00129053
0.0013763
0.00145945
0.00153953
0.00161612
0.00168887
0.00175758
0.00182226
0.00188292
0.0019395
0.00199195
0.00204017
0.00208409
0.00212362
0.00215872
0.00218933
0.00221545
0.00223707
0.00225423
0.00226696
0.00227536
0.00227948
0.00227952
0.00227548
0.00226764
0.00225599
0.00224107
0.0022226
0.00220168
0.00217721
0.00215167
0.00212188
0.00209387
0.00205897
0.00203203
0.00199005
0.00196873
0.00192036
3.50247e-05
3.16728e-05
3.19118e-05
3.84969e-05
5.18362e-05
6.93159e-05
8.27489e-05
9.35892e-05
0.000109706
0.000152567
0.000216616
0.000293723
0.00037624
0.000463171
0.00055312
0.000645212
0.000738719
0.000832815
0.000926962
0.00102065
0.00111341
0.00120476
0.00129428
0.00138153
0.00146608
0.00154747
0.00162524
0.00169905
0.00176868
0.0018342
0.0018956
0.0019528
0.00200577
0.00205439
0.00209858
0.0021383
0.00217347
0.00220407
0.00223009
0.00225154
0.00226847
0.00228093
0.00228903
0.00229283
0.00229255
0.00228824
0.00228017
0.00226837
0.0022534
0.00223501
0.0022143
0.00219021
0.00216526
0.00213627
0.00210932
0.00207569
0.00205034
0.00200996
0.00199038
0.00194217
3.5001e-05
3.14743e-05
3.11866e-05
3.66481e-05
4.91056e-05
6.73856e-05
8.4043e-05
9.80255e-05
0.0001132
0.000149232
0.000207391
0.000282121
0.000364256
0.000451637
0.000542502
0.000635796
0.000730693
0.000826258
0.000921917
0.00101713
0.0011114
0.00120424
0.00129521
0.00138384
0.00146972
0.00155235
0.00163125
0.00170605
0.00177656
0.00184287
0.00190497
0.00196274
0.00201618
0.00206515
0.00210959
0.00214945
0.00218467
0.00221522
0.00224112
0.00226238
0.00227905
0.00229121
0.00229897
0.00230244
0.00230182
0.00229719
0.00228886
0.00227688
0.00226183
0.00224348
0.00222295
0.00219922
0.00217482
0.00214662
0.00212071
0.00208837
0.00206461
0.00202591
0.00200803
0.0019603
3.49803e-05
3.13135e-05
3.05739e-05
3.49894e-05
4.63588e-05
6.47983e-05
8.40693e-05
0.000101436
0.00011744
0.000148477
0.000200241
0.000271303
0.000351923
0.000439181
0.000530549
0.000624723
0.000720767
0.000817606
0.000914615
0.00101122
0.00110688
0.00120111
0.00129343
0.00138337
0.00147049
0.0015543
0.00163426
0.00171
0.00178134
0.0018484
0.00191115
0.00196946
0.00202332
0.00207261
0.00211726
0.00215723
0.00219247
0.00222296
0.0022487
0.00226974
0.00228614
0.00229797
0.00230538
0.00230848
0.00230749
0.00230252
0.00229391
0.00228172
0.00226655
0.00224821
0.00222783
0.00220445
0.00218057
0.00215314
0.00212824
0.0020972
0.002075
0.00203806
0.00202188
0.0019749
3.49623e-05
3.11836e-05
3.00598e-05
3.35219e-05
4.36818e-05
6.17301e-05
8.29133e-05
0.000103589
0.00012164
0.000149685
0.000195452
0.000261813
0.000339949
0.000426298
0.000517579
0.000612265
0.000709175
0.000807059
0.000905236
0.00100308
0.00110001
0.00119551
0.00128908
0.00138025
0.00146854
0.00155344
0.0016344
0.00171101
0.00178315
0.0018509
0.00191424
0.00197306
0.00202731
0.00207688
0.00212173
0.00216178
0.00219701
0.00222741
0.00225298
0.00227378
0.00228988
0.00230137
0.0023084
0.00231111
0.00230973
0.00230441
0.00229549
0.00228306
0.00226775
0.00224939
0.00222913
0.00220606
0.00218268
0.00215602
0.00213209
0.00210237
0.00208169
0.00204657
0.00203208
0.00198613
3.49465e-05
3.10792e-05
2.96313e-05
3.22393e-05
4.11398e-05
5.835e-05
8.07094e-05
0.000104368
0.000125212
0.000152085
0.000192938
0.000254054
0.000328815
0.000413473
0.000504071
0.000598809
0.000696172
0.000794841
0.000893975
0.000992887
0.00109094
0.00118759
0.0012823
0.00137459
0.00146397
0.0015499
0.00163179
0.00170919
0.00178207
0.00185048
0.00191438
0.00197366
0.00202827
0.0020781
0.0021231
0.00216322
0.00219843
0.00222871
0.00225409
0.00227463
0.00229041
0.00230153
0.00230817
0.00231047
0.00230869
0.00230299
0.00229374
0.00228106
0.00226558
0.00224718
0.00222702
0.00220423
0.00218132
0.0021554
0.00213243
0.00210402
0.00208483
0.0020516
0.00203879
0.00199413
3.49327e-05
3.09957e-05
2.92764e-05
3.11306e-05
3.87787e-05
5.48125e-05
7.76269e-05
0.000103747
0.000127737
0.000154922
0.000192302
0.000248222
0.000318928
0.000401123
0.000490406
0.000584684
0.000682103
0.000781236
0.000881072
0.000980842
0.00107985
0.00117749
0.00127322
0.00136653
0.0014569
0.00154377
0.00162651
0.00170465
0.00177823
0.00184725
0.00191167
0.00197137
0.00202631
0.00207637
0.00212151
0.00216166
0.00219682
0.00222697
0.00225214
0.0022724
0.00228785
0.00229859
0.00230483
0.0023067
0.00230451
0.00229841
0.00228881
0.00227585
0.00226018
0.00224172
0.00222163
0.00219912
0.00217665
0.00215146
0.0021294
0.00210231
0.00208458
0.00205328
0.00204214
0.00199904
3.49206e-05
3.09292e-05
2.89845e-05
3.01816e-05
3.6627e-05
5.12518e-05
7.38569e-05
0.00010178
0.000128937
0.000157539
0.000192953
0.000244263
0.000310562
0.000389617
0.000476953
0.000570229
0.000667266
0.000766506
0.000866756
0.000967148
0.00106691
0.00116539
0.001262
0.0013562
0.00144745
0.00153517
0.00161869
0.00169751
0.00177173
0.00184131
0.00190621
0.0019663
0.00202153
0.00207179
0.00211703
0.0021572
0.00219229
0.00222228
0.00224723
0.0022672
0.0022823
0.00229266
0.00229847
0.00229992
0.00229729
0.00229078
0.00228082
0.00226757
0.0022517
0.00223316
0.00221312
0.00219086
0.00216881
0.00214432
0.00212316
0.00209738
0.00208107
0.00205175
0.00204228
0.00200097
3.49101e-05
3.08767e-05
2.8746e-05
2.93768e-05
3.46986e-05
4.7779e-05
6.95988e-05
9.85873e-05
0.00012865
0.00015941
0.000194238
0.000241896
0.000303823
0.000379241
0.000464046
0.000555769
0.000651961
0.000750919
0.000851264
0.000952017
0.00105231
0.00115144
0.00124878
0.00134374
0.00143577
0.00152424
0.00160844
0.00168787
0.00176267
0.00183277
0.0018981
0.00195854
0.00201402
0.00206445
0.00210977
0.00214994
0.00218493
0.00221476
0.00223946
0.00225913
0.00227387
0.00228382
0.00228921
0.00229021
0.00228714
0.00228023
0.00226989
0.00225634
0.00224025
0.00222162
0.00220162
0.00217958
0.00215793
0.00213414
0.00211383
0.00208936
0.00207444
0.00204713
0.00203933
0.00200005
3.49009e-05
3.08355e-05
2.85525e-05
2.86999e-05
3.29958e-05
4.44802e-05
6.50483e-05
9.43385e-05
0.000126821
0.00016013
0.000195524
0.000240673
0.00029863
0.000370162
0.000451957
0.000541603
0.000636478
0.000734743
0.00083484
0.000935665
0.00103625
0.00113584
0.00123372
0.0013293
0.00142196
0.00151108
0.00159586
0.00167584
0.00175116
0.00182172
0.00188743
0.00194817
0.00200388
0.00205444
0.00209982
0.00213995
0.00217483
0.00220447
0.00222892
0.00224826
0.00226263
0.00227218
0.00227713
0.00227769
0.00227417
0.00226683
0.00225612
0.00224226
0.00222594
0.00220721
0.00218723
0.00216541
0.00214413
0.00212102
0.00210155
0.00207837
0.00206481
0.00203954
0.00203341
0.00199638
3.48929e-05
3.08035e-05
2.83968e-05
2.81353e-05
3.1512e-05
4.14173e-05
6.03863e-05
8.92435e-05
0.000123481
0.00015942
0.000196255
0.000240059
0.000294731
0.000362411
0.000440872
0.000527982
0.000621085
0.000718236
0.000817721
0.000918308
0.00101893
0.00111874
0.00121698
0.00131301
0.00140618
0.00149581
0.00158107
0.00166152
0.00173729
0.00180825
0.00187429
0.00193529
0.00199117
0.00204184
0.00208724
0.00212731
0.00216206
0.00219149
0.00221567
0.00223469
0.00224868
0.00225781
0.00226232
0.00226242
0.00225846
0.0022507
0.0022396
0.00222543
0.00220888
0.00219004
0.00217007
0.00214846
0.00212754
0.00210509
0.00208643
0.00206453
0.00205231
0.00202909
0.00202464
0.00199007
3.48858e-05
3.07789e-05
2.82725e-05
2.76679e-05
3.02342e-05
3.86301e-05
5.57712e-05
8.35342e-05
0.000118747
0.000157108
0.00019597
0.000239497
0.000291743
0.000355875
0.000430869
0.000515089
0.000606007
0.000701635
0.000800136
0.00090016
0.00100053
0.00110033
0.00119873
0.00129502
0.00138854
0.00147857
0.00156418
0.00164502
0.00172116
0.00179245
0.00185876
0.00191997
0.00197599
0.00202673
0.00207211
0.0021121
0.00214669
0.0021759
0.00219979
0.00221847
0.00223208
0.00224079
0.00224485
0.0022445
0.00224009
0.00223191
0.00222042
0.00220594
0.00218916
0.0021702
0.00215024
0.00212883
0.00210825
0.00208645
0.00206858
0.00204795
0.00203703
0.0020159
0.00201312
0.00198121
3.48797e-05
3.07603e-05
2.81743e-05
2.72841e-05
2.91459e-05
3.61385e-05
5.13335e-05
7.74493e-05
0.0001128
0.00015313
0.000194312
0.00023846
0.000289204
0.000350312
0.000421913
0.000503025
0.000591417
0.000685141
0.000782293
0.000881422
0.000981255
0.00108078
0.00117911
0.00127548
0.00136919
0.00145946
0.00154529
0.00162645
0.00170287
0.00177441
0.00184093
0.0019023
0.00195841
0.00200917
0.0020545
0.00209438
0.00212879
0.00215776
0.00218136
0.00219968
0.0022129
0.00222119
0.0022248
0.00222399
0.00221913
0.00221053
0.00219867
0.00218387
0.00216686
0.00214779
0.00212783
0.00210661
0.00208637
0.00206521
0.0020481
0.00202874
0.00201908
0.00200006
0.00199896
0.00196989
3.48743e-05
3.07464e-05
2.80976e-05
2.69715e-05
2.8228e-05
3.39465e-05
4.71728e-05
7.12192e-05
0.000105879
0.000147519
0.000191029
0.000236482
0.000286619
0.000345377
0.000413854
0.000491798
0.000577419
0.000668911
0.000764372
0.000862276
0.000961269
0.00106026
0.00115828
0.00125453
0.00134824
0.0014386
0.00152454
0.00160589
0.00168251
0.00175422
0.00182088
0.00188234
0.00193849
0.00198923
0.00203448
0.00207422
0.00210842
0.00213713
0.00216041
0.00217838
0.0021912
0.00219906
0.00220222
0.00220097
0.00219566
0.00218664
0.00217441
0.00215931
0.00214206
0.00212289
0.00210293
0.00208191
0.00206199
0.00204146
0.0020251
0.00200699
0.00199857
0.00198166
0.00198225
0.00195621
3.48695e-05
3.07364e-05
2.80385e-05
2.6719e-05
2.74611e-05
3.20457e-05
4.33584e-05
6.50522e-05
9.82574e-05
0.000140404
0.000185978
0.000233175
0.000283505
0.00034066
0.000406444
0.00048132
0.000564041
0.000653047
0.000746511
0.000842879
0.000940736
0.00103892
0.0011364
0.00123231
0.00132583
0.00141611
0.00150202
0.00158345
0.00166016
0.00173196
0.00179868
0.00186017
0.0019163
0.00196697
0.00201211
0.00205167
0.00208564
0.00211407
0.00213702
0.00215462
0.00216703
0.00217446
0.00217718
0.00217548
0.00216973
0.00216031
0.0021477
0.00213231
0.00211484
0.00209556
0.00207561
0.00205479
0.0020352
0.00201529
0.00199967
0.0019828
0.0019756
0.00196082
0.00196309
0.00194024
3.48654e-05
3.07294e-05
2.79936e-05
2.65169e-05
2.68261e-05
3.04185e-05
3.9931e-05
5.91247e-05
9.02262e-05
0.000131994
0.000179118
0.000228241
0.000279416
0.00033572
0.000399356
0.000471412
0.000551232
0.000637586
0.000728803
0.000823353
0.000919792
0.00101689
0.00111358
0.00120893
0.00130208
0.0013921
0.00147785
0.00155921
0.00163591
0.0017077
0.0017744
0.00183585
0.00189191
0.00194246
0.00198743
0.00202678
0.00206051
0.00208863
0.00211124
0.00212846
0.00214046
0.00214745
0.00214972
0.00214758
0.00214141
0.00213158
0.00211863
0.00210294
0.00208527
0.0020659
0.00204596
0.00202534
0.00200608
0.00198679
0.00197189
0.00195625
0.00195024
0.0019376
0.00194157
0.00192206
3.48617e-05
3.07248e-05
2.79604e-05
2.63567e-05
2.63047e-05
2.9042e-05
3.69067e-05
5.35743e-05
8.20733e-05
0.000122567
0.000170517
0.00022148
0.000273967
0.000330117
0.000392214
0.00046182
0.000538861
0.000622497
0.000711287
0.00080378
0.00089854
0.000994309
0.00108996
0.00118452
0.00127708
0.00136667
0.00145212
0.00153329
0.00160984
0.00168152
0.00174812
0.00180945
0.00186537
0.00191575
0.00196052
0.00199962
0.00203306
0.00206086
0.00208311
0.00209993
0.00211152
0.00211808
0.00211991
0.00211733
0.00211074
0.00210052
0.00208723
0.00207127
0.0020534
0.00203396
0.00201405
0.00199364
0.0019747
0.00195604
0.00194185
0.00192743
0.0019226
0.0019121
0.00191776
0.00190175
3.48586e-05
3.07221e-05
2.79364e-05
2.62313e-05
2.58805e-05
2.789e-05
3.42815e-05
4.84983e-05
7.40637e-05
0.000112452
0.000160347
0.000212796
0.000266845
0.000323436
0.000384615
0.000452231
0.000526728
0.000607683
0.000693943
0.000784195
0.000877051
0.000971248
0.00106563
0.00115918
0.00125095
0.00133991
0.0014249
0.00150574
0.00158204
0.0016535
0.0017199
0.00178104
0.00183675
0.0018869
0.00193141
0.00197023
0.00200335
0.0020308
0.00205267
0.0020691
0.00208026
0.00208639
0.00208778
0.00208477
0.00207777
0.00206719
0.00205356
0.00203735
0.0020193
0.0019998
0.00197993
0.00195974
0.00194115
0.00192311
0.00190963
0.00189643
0.00189274
0.00188441
0.00189176
0.00187938
3.48558e-05
3.07209e-05
2.79199e-05
2.61344e-05
2.55384e-05
2.69355e-05
3.20364e-05
4.39544e-05
6.64231e-05
0.000102
0.000148872
0.000202206
0.000257826
0.000315309
0.000376157
0.000442293
0.000514572
0.000592982
0.000676695
0.000764584
0.000855355
0.00094777
0.00104066
0.00113299
0.00122376
0.0013119
0.0013963
0.00147665
0.00155256
0.0016237
0.00168981
0.00175066
0.00180609
0.00185596
0.00190017
0.00193866
0.00197143
0.00199851
0.00201998
0.00203599
0.00204672
0.00205242
0.00205338
0.00204995
0.00204256
0.00203161
0.00201768
0.00200124
0.00198303
0.00196348
0.00194368
0.00192373
0.00190548
0.00188807
0.0018753
0.00186332
0.00186076
0.00185459
0.00186364
0.00185501
3.48533e-05
3.07208e-05
2.79092e-05
2.60607e-05
2.52651e-05
2.6152e-05
3.0142e-05
3.99656e-05
5.93273e-05
9.15637e-05
0.000136437
0.00018984
0.000246786
0.000305431
0.000366461
0.000431637
0.00050209
0.000578178
0.00065941
0.000744883
0.000833439
0.000923897
0.00101511
0.00110601
0.0011956
0.00128272
0.00136636
0.0014461
0.00152149
0.00159218
0.00165789
0.00171838
0.00177345
0.00182297
0.00186682
0.00190494
0.00193733
0.00196401
0.00198507
0.00200065
0.00201095
0.00201622
0.00201675
0.00201292
0.00200514
0.00199385
0.00197963
0.00196298
0.00194464