/*--------------------------------*- C++ -*----------------------------------*\
| =========                 |                                                 |
| \\      /  F ield         | OpenFOAM: The Open Source CFD Toolbox           |
|  \\    /   O peration     | Version:  2.4.0                                 |
|   \\  /    A nd           | Web:      www.OpenFOAM.org                      |
|    \\/     M anipulation  |                                                 |
\*---------------------------------------------------------------------------*/
FoamFile
{
    version     2.0;
    format      ascii;
    class       surfaceScalarField;
    location    "7.3";
    object      phi;
}
// * * * * * * * * * * * * * * * * * * * * * * * * * * * * * * * * * * * * * //

dimensions      [0 3 -1 0 0 0 0];

internalField   nonuniform List<scalar> 
11840
(
7.83356e-07
9.21664e-06
-9.35858e-07
1.71921e-06
6.60025e-07
-1.59588e-06
1.50132e-07
5.09892e-07
-1.97674e-07
3.47807e-07
-2.95871e-07
9.81967e-08
-3.94812e-07
9.89408e-08
-4.77468e-07
8.26559e-08
-6.30049e-07
1.52581e-07
-7.4431e-07
1.14261e-07
-9.31605e-07
1.87294e-07
-1.09356e-06
1.61958e-07
-1.30723e-06
2.13665e-07
-1.51042e-06
2.03196e-07
-1.73857e-06
2.28144e-07
-1.96214e-06
2.23573e-07
-2.19313e-06
2.30989e-07
-2.4191e-06
2.25966e-07
-2.64218e-06
2.23081e-07
-2.85547e-06
2.13296e-07
-3.05633e-06
2.00854e-07
-3.24136e-06
1.85029e-07
-3.41225e-06
1.70894e-07
-3.56893e-06
1.56677e-07
-3.70951e-06
1.40577e-07
-3.83161e-06
1.22102e-07
-3.93308e-06
1.01471e-07
-4.01165e-06
7.85676e-08
-4.06486e-06
5.3216e-08
-4.08958e-06
2.47178e-08
-4.08237e-06
-7.20849e-09
-4.04305e-06
-3.9324e-08
-3.97158e-06
-7.1471e-08
-3.86637e-06
-1.05202e-07
-3.72629e-06
-1.40084e-07
-3.55027e-06
-1.76023e-07
-3.33785e-06
-2.12416e-07
-3.08837e-06
-2.49478e-07
-2.80254e-06
-2.85833e-07
-2.4796e-06
-3.22937e-07
-2.12256e-06
-3.57043e-07
-1.72901e-06
-3.93549e-07
-1.30698e-06
-4.22029e-07
-8.49153e-07
-4.57829e-07
-3.72126e-07
-4.77027e-07
1.37281e-07
-5.09407e-07
6.48149e-07
-5.10868e-07
1.19995e-06
-5.51802e-07
1.72055e-06
-5.20597e-07
2.31039e-06
-5.8984e-07
2.80524e-06
-4.94854e-07
3.43868e-06
-6.33433e-07
3.84823e-06
-4.09552e-07
4.55854e-06
-7.10314e-07
4.78576e-06
-2.27216e-07
5.65361e-06
-8.6785e-07
5.54801e-06
1.05596e-07
6.74097e-06
-1.19296e-06
6.19237e-06
5.48607e-07
-2.29295e-06
2.45131e-06
1.67653e-05
-5.06477e-07
4.677e-06
3.69216e-07
-2.47158e-06
-8.2719e-08
9.61827e-07
-3.04939e-07
5.70027e-07
-4.6381e-07
2.57068e-07
-5.62529e-07
1.97659e-07
-6.65444e-07
1.85571e-07
-8.21084e-07
3.08221e-07
-9.56818e-07
2.49996e-07
-1.14325e-06
3.7373e-07
-1.32351e-06
3.42217e-07
-1.53341e-06
4.23565e-07
-1.74406e-06
4.13847e-07
-1.96619e-06
4.50267e-07
-2.18733e-06
4.44716e-07
-2.40951e-06
4.53166e-07
-2.6268e-06
4.43256e-07
-2.83814e-06
4.34421e-07
-3.03975e-06
4.14909e-07
-3.22999e-06
3.91101e-07
-3.40727e-06
3.62302e-07
-3.57069e-06
3.34313e-07
-3.71826e-06
3.04251e-07
-3.84781e-06
2.70124e-07
-3.95711e-06
2.31403e-07
-4.04406e-06
1.88421e-07
-4.10656e-06
1.4107e-07
-4.1426e-06
8.92565e-08
-4.15058e-06
3.26947e-08
-4.12961e-06
-2.81794e-08
-4.07754e-06
-9.13899e-08
-3.99225e-06
-1.56765e-07
-3.87229e-06
-2.2516e-07
-3.71652e-06
-2.95852e-07
-3.52403e-06
-3.68514e-07
-3.2943e-06
-4.42143e-07
-3.02702e-06
-5.16762e-07
-2.7225e-06
-5.90357e-07
-2.38101e-06
-6.64425e-07
-2.004e-06
-7.34053e-07
-1.59221e-06
-8.05334e-07
-1.14861e-06
-8.65635e-07
-6.7455e-07
-9.31885e-07
-1.74358e-07
-9.77219e-07
3.4969e-07
-1.03345e-06
8.89665e-07
-1.05084e-06
1.45057e-06
-1.11271e-06
2.01457e-06
-1.08459e-06
2.59878e-06
-1.17405e-06
3.16249e-06
-1.05856e-06
3.75833e-06
-1.22928e-06
4.28682e-06
-9.38041e-07
4.89496e-06
-1.31845e-06
5.33347e-06
-6.65729e-07
5.99008e-06
-1.52445e-06
6.25104e-06
-1.5537e-07
7.06925e-06
-2.01117e-06
7.13858e-06
4.79281e-07
-3.77349e-06
3.60687e-06
2.31585e-05
1.74854e-08
8.26638e-06
5.85025e-08
-2.51259e-06
-3.01932e-07
1.32226e-06
-3.64166e-07
6.3226e-07
-5.32017e-07
4.24919e-07
-6.19368e-07
2.85011e-07
-7.30645e-07
2.96848e-07
-8.73985e-07
4.51561e-07
-1.01762e-06
3.93632e-07
-1.19229e-06
5.48401e-07
-1.37387e-06
5.23796e-07
-1.57366e-06
6.23356e-07
-1.77946e-06
6.19647e-07
-1.99217e-06
6.62972e-07
-2.2057e-06
6.58253e-07
-2.41875e-06
6.66208e-07
-2.62763e-06
6.52143e-07
-2.83038e-06
6.37166e-07
-3.02432e-06
6.08851e-07
-3.2078e-06
5.74582e-07
-3.37921e-06
5.33707e-07
-3.53684e-06
4.91941e-07
-3.67849e-06
4.45902e-07
-3.802e-06
3.93637e-07
-3.90523e-06
3.34631e-07
-3.98609e-06
2.69284e-07
-4.04258e-06
1.97559e-07
-4.07282e-06
1.19494e-07
-4.07518e-06
3.50608e-08
-4.04829e-06
-5.50759e-08
-3.99015e-06
-1.49531e-07
-3.8988e-06
-2.4811e-07
-3.7729e-06
-3.51058e-07
-3.61133e-06
-4.57427e-07
-3.41321e-06
-5.66629e-07
-3.17804e-06
-6.77317e-07
-2.90558e-06
-7.89223e-07
-2.59605e-06
-8.9988e-07
-2.24999e-06
-1.01049e-06
-1.86846e-06
-1.11558e-06
-1.4529e-06
-1.22089e-06
-1.00519e-06
-1.31335e-06
-5.28375e-07
-1.4087e-06
-2.43533e-08
-1.48124e-06
5.01779e-07
-1.55959e-06
1.04768e-06
-1.59674e-06
1.6096e-06
-1.67463e-06
2.18247e-06
-1.65746e-06
2.76343e-06
-1.755e-06
3.34288e-06
-1.63802e-06
3.92501e-06
-1.81141e-06
4.48612e-06
-1.49915e-06
5.05528e-06
-1.88762e-06
5.56606e-06
-1.17651e-06
6.12411e-06
-2.0825e-06
6.54477e-06
-5.76036e-07
7.13669e-06
-2.60308e-06
7.52134e-06
9.46236e-08
-4.77533e-06
4.52838e-06
2.86301e-05
7.56455e-07
1.20383e-05
-2.34809e-07
-1.52133e-06
-4.59104e-07
1.54656e-06
-3.96706e-07
5.69863e-07
-5.64548e-07
5.92761e-07
-6.42301e-07
3.62763e-07
-7.58751e-07
4.13298e-07
-8.91877e-07
5.84687e-07
-1.03814e-06
5.39892e-07
-1.20447e-06
7.14732e-07
-1.38351e-06
7.02837e-07
-1.57566e-06
8.15505e-07
-1.77571e-06
8.19701e-07
-1.98087e-06
8.68133e-07
-2.18755e-06
8.64927e-07
-2.39321e-06
8.71866e-07
-2.59508e-06
8.54015e-07
-2.79089e-06
8.32979e-07
-2.97843e-06
7.96386e-07
-3.15597e-06
7.52123e-07
-3.3218e-06
6.99544e-07
-3.47393e-06
6.44069e-07
-3.61012e-06
5.82091e-07
-3.72825e-06
5.11762e-07
-3.8262e-06
4.32583e-07
-3.90193e-06
3.45016e-07
-3.95348e-06
2.49115e-07
-3.97903e-06
1.4504e-07
-3.97691e-06
3.29443e-08
-3.94554e-06
-8.64502e-08
-3.88301e-06
-2.12064e-07
-3.78753e-06
-3.4359e-07
-3.65777e-06
-4.80816e-07
-3.49263e-06
-6.22567e-07
-3.29127e-06
-7.67987e-07
-3.05318e-06
-9.15408e-07
-2.77817e-06
-1.06423e-06
-2.46643e-06
-1.21162e-06
-2.11857e-06
-1.35835e-06
-1.73555e-06
-1.49861e-06
-1.31903e-06
-1.63741e-06
-8.70525e-07
-1.76185e-06
-3.9353e-07
-1.88569e-06
1.10598e-07
-1.98537e-06
6.36582e-07
-2.08557e-06
1.18324e-06
-2.1434e-06
1.7443e-06
-2.2357e-06
2.31848e-06
-2.23165e-06
2.89679e-06
-2.33331e-06
3.4795e-06
-2.22072e-06
4.055e-06
-2.38691e-06
4.62508e-06
-2.06924e-06
5.17802e-06
-2.44056e-06
5.71276e-06
-1.71124e-06
6.2305e-06
-2.60024e-06
6.71141e-06
-1.05695e-06
7.20672e-06
-3.09838e-06
7.71759e-06
-4.16253e-07
-5.54193e-06
5.30448e-06
3.33256e-05
1.49024e-06
1.58526e-05
-2.61827e-07
2.30735e-07
-5.51622e-07
1.83635e-06
-4.18463e-07
4.36704e-07
-5.81551e-07
7.55849e-07
-6.51773e-07
4.32985e-07
-7.70513e-07
5.32037e-07
-8.96024e-07
7.10198e-07
-1.04187e-06
6.85734e-07
-1.20174e-06
8.7461e-07
-1.37681e-06
8.77901e-07
-1.56232e-06
1.00102e-06
-1.75643e-06
1.01381e-06
-1.95476e-06
1.06647e-06
-2.1549e-06
1.06506e-06
-2.3538e-06
1.07077e-06
-2.54915e-06
1.04936e-06
-2.73857e-06
1.0224e-06
-2.92006e-06
9.77878e-07
-3.09186e-06
9.23919e-07
-3.25217e-06
8.59858e-07
-3.39887e-06
7.90763e-07
-3.52973e-06
7.12951e-07
-3.64266e-06
6.24692e-07
-3.73558e-06
5.25508e-07
-3.80649e-06
4.15922e-07
-3.85346e-06
2.96084e-07
-3.87468e-06
1.66263e-07
-3.86847e-06
2.6737e-08
-3.83316e-06
-1.21768e-07
-3.76689e-06
-2.78332e-07
-3.668e-06
-4.42482e-07
-3.53516e-06
-6.13647e-07
-3.36731e-06
-7.90424e-07
-3.16361e-06
-9.71683e-07
-2.92357e-06
-1.15545e-06
-2.64701e-06
-1.34079e-06
-2.33413e-06
-1.5245e-06
-1.98555e-06
-1.70693e-06
-1.6022e-06
-1.88196e-06
-1.18582e-06
-2.0538e-06
-7.37792e-07
-2.20988e-06
-2.6168e-07
-2.3618e-06
2.41288e-07
-2.48834e-06
7.65951e-07
-2.61023e-06
1.31144e-06
-2.68889e-06
1.87055e-06
-2.79481e-06
2.44341e-06
-2.8045e-06
3.01868e-06
-2.90859e-06
3.60056e-06
-2.8026e-06
4.17104e-06
-2.95739e-06
4.74259e-06
-2.64079e-06
5.28605e-06
-2.98402e-06
5.82894e-06
-2.25413e-06
6.32603e-06
-3.09733e-06
6.83181e-06
-1.56273e-06
7.28017e-06
-3.54674e-06
7.84208e-06
-9.78161e-07
-6.17756e-06
5.97537e-06
3.73502e-05
2.23964e-06
1.95883e-05
-6.59444e-08
2.53632e-06
-5.84116e-07
2.35452e-06
-4.36515e-07
2.89103e-07
-5.89812e-07
9.09146e-07
-6.53991e-07
4.97164e-07
-7.73043e-07
6.51089e-07
-8.9245e-07
8.29604e-07
-1.03632e-06
8.29603e-07
-1.19054e-06
1.02883e-06
-1.36099e-06
1.04836e-06
-1.54025e-06
1.18027e-06
-1.72833e-06
1.20189e-06
-1.92011e-06
1.25825e-06
-2.11383e-06
1.25878e-06
-2.30623e-06
1.26317e-06
-2.49523e-06
1.23836e-06
-2.67844e-06
1.20561e-06
-2.85398e-06
1.15342e-06
-3.02004e-06
1.08998e-06
-3.17479e-06
1.0146e-06
-3.31602e-06
9.31997e-07
-3.44156e-06
8.38486e-07
-3.54933e-06
7.32464e-07
-3.6373e-06
6.13476e-07
-3.70347e-06
4.82099e-07
-3.74597e-06
3.38585e-07
-3.76301e-06
1.83297e-07
-3.75287e-06
1.65995e-08
-3.71385e-06
-1.60789e-07
-3.64416e-06
-3.48023e-07
-3.5422e-06
-5.44436e-07
-3.40669e-06
-7.49163e-07
-3.23654e-06
-9.60569e-07
-3.03097e-06
-1.17725e-06
-2.78948e-06
-1.39695e-06
-2.51191e-06
-1.61836e-06
-2.19845e-06
-1.83796e-06
-1.84975e-06
-2.05562e-06
-1.46671e-06
-2.265e-06
-1.0511e-06
-2.46941e-06
-6.04239e-07
-2.65673e-06
-1.29651e-07
-2.83639e-06
3.71426e-07
-2.98941e-06
8.94038e-07
-3.13284e-06
1.4373e-06
-3.23215e-06
1.99369e-06
-3.3512e-06
2.56389e-06
-3.3747e-06
3.13562e-06
-3.48031e-06
3.71481e-06
-3.38179e-06
4.28053e-06
-3.52311e-06
4.85037e-06
-3.21063e-06
5.38665e-06
-3.5203e-06
5.93128e-06
-2.79876e-06
6.41526e-06
-3.58131e-06
6.93157e-06
-2.07904e-06
7.35312e-06
-3.96829e-06
7.93515e-06
-1.56019e-06
-6.72735e-06
6.56062e-06
4.07896e-05
2.97356e-06
2.31754e-05
2.28423e-07
5.28145e-06
-5.37904e-07
3.12085e-06
-4.52399e-07
2.03598e-07
-5.92132e-07
1.04888e-06
-6.5126e-07
5.56292e-07
-7.69409e-07
7.69238e-07
-8.8352e-07
9.43716e-07
-1.02457e-06
9.70657e-07
-1.17347e-06
1.17772e-06
-1.33898e-06
1.21387e-06
-1.51212e-06
1.35341e-06
-1.69411e-06
1.38388e-06
-1.87944e-06
1.44358e-06
-2.06677e-06
1.44612e-06
-2.25274e-06
1.44913e-06
-2.43543e-06
1.42106e-06
-2.61247e-06
1.38264e-06
-2.78203e-06
1.32299e-06
-2.94229e-06
1.25024e-06
-3.09138e-06
1.16369e-06
-3.22707e-06
1.06769e-06
-3.34722e-06
9.58637e-07
-3.4498e-06
8.3504e-07
-3.53279e-06
6.96465e-07
-3.59423e-06
5.43546e-07
-3.63228e-06
3.76634e-07
-3.64516e-06
1.9617e-07
-3.63114e-06
2.58726e-09
-3.58853e-06
-2.03408e-07
-3.51557e-06
-4.2098e-07
-3.41073e-06
-6.49271e-07
-3.27275e-06
-8.8715e-07
-3.10056e-06
-1.13276e-06
-2.89339e-06
-1.38442e-06
-2.65075e-06
-1.63958e-06
-2.37251e-06
-1.8966e-06
-2.05884e-06
-2.15164e-06
-1.71041e-06
-2.40404e-06
-1.3281e-06
-2.64731e-06
-9.13692e-07
-2.88382e-06
-4.68482e-07
-3.10194e-06
4.11826e-09
-3.30899e-06
5.02791e-07
-3.48809e-06
1.02279e-06
-3.65285e-06
1.56312e-06
-3.77248e-06
2.1162e-06
-3.90427e-06
2.68288e-06
-3.94138e-06
3.25057e-06
-4.048e-06
3.82596e-06
-3.95718e-06
4.3868e-06
-4.08394e-06
4.95324e-06
-3.77708e-06
5.4832e-06
-4.05026e-06
6.02636e-06
-3.34192e-06
6.50062e-06
-4.05557e-06
7.02051e-06
-2.59893e-06
7.42456e-06
-4.37234e-06
8.01219e-06
-2.14782e-06
-7.21395e-06
7.07166e-06
4.37179e-05
3.68613e-06
2.65609e-05
6.52358e-07
8.31523e-06
-4.08374e-07
4.18158e-06
-4.62213e-07
2.57437e-07
-5.8969e-07
1.17636e-06
-6.44541e-07
6.11143e-07
-7.61087e-07
8.85784e-07
-8.70352e-07
1.05298e-06
-1.0081e-06
1.10841e-06
-1.15182e-06
1.32143e-06
-1.31218e-06
1.37423e-06
-1.47926e-06
1.52049e-06
-1.65508e-06
1.5597e-06
-1.83397e-06
1.62247e-06
-2.01488e-06
1.62703e-06
-2.19441e-06
1.62866e-06
-2.37077e-06
1.59742e-06
-2.54158e-06
1.55345e-06
-2.70509e-06
1.4865e-06
-2.85945e-06
1.4046e-06
-3.00275e-06
1.30699e-06
-3.13279e-06
1.19773e-06
-3.24746e-06
1.07331e-06
-3.34476e-06
9.32337e-07
-3.4227e-06
7.74408e-07
-3.47936e-06
6.00209e-07
-3.51292e-06
4.10191e-07
-3.52161e-06
2.04859e-07
-3.50372e-06
-1.53019e-08
-3.45754e-06
-2.49587e-07
-3.38139e-06
-4.97132e-07
-3.27377e-06
-7.56886e-07
-3.13344e-06
-1.02748e-06
-2.95936e-06
-1.30684e-06
-2.75077e-06
-1.59301e-06
-2.5072e-06
-1.88316e-06
-2.22851e-06
-2.17529e-06
-1.9149e-06
-2.46525e-06
-1.56704e-06
-2.7519e-06
-1.18578e-06
-3.02857e-06
-7.72905e-07
-3.29669e-06
-3.29707e-07
-3.54514e-06
1.40531e-07
-3.77923e-06
6.36382e-07
-3.98394e-06
1.15331e-06
-4.16977e-06
1.69015e-06
-4.30933e-06
2.2394e-06
-4.45352e-06
2.80193e-06
-4.50392e-06
3.36512e-06
-4.61119e-06
3.93596e-06
-4.52802e-06
4.49165e-06
-4.63963e-06
5.05361e-06
-4.33904e-06
5.57752e-06
-4.57416e-06
6.11734e-06
-3.88173e-06
6.58354e-06
-4.52177e-06
7.10314e-06
-3.11854e-06
7.49447e-06
-4.76367e-06
8.08001e-06
-2.73336e-06
-7.65031e-06
7.5171e-06
4.62008e-05
4.37109e-06
2.97069e-05
1.17941e-06
1.15069e-05
-2.09472e-07
5.57047e-06
-4.56185e-07
5.0415e-07
-5.82609e-07
1.30278e-06
-6.34189e-07
6.62723e-07
-7.48805e-07
1.0004e-06
-8.53503e-07
1.15768e-06
-9.87671e-07
1.24258e-06
-1.12626e-06
1.46002e-06
-1.28134e-06
1.5293e-06
-1.44234e-06
1.6815e-06
-1.61192e-06
1.72929e-06
-1.78434e-06
1.79488e-06
-1.95878e-06
1.80147e-06
-2.13181e-06
1.80169e-06
-2.30176e-06
1.76738e-06
-2.46627e-06
1.71795e-06
-2.62362e-06
1.64385e-06
-2.77194e-06
1.55291e-06
-2.90932e-06
1.44437e-06
-3.03358e-06
1.32199e-06
-3.14265e-06
1.18238e-06
-3.23456e-06
1.02424e-06
-3.30736e-06
8.47206e-07
-3.35915e-06
6.52003e-07
-3.38814e-06
4.39181e-07
-3.39259e-06
2.09303e-07
-3.37078e-06
-3.71054e-08
-3.32104e-06
-2.99332e-07
-3.24171e-06
-5.76456e-07
-3.13136e-06
-8.67238e-07
-2.98876e-06
-1.17009e-06
-2.81288e-06
-1.48271e-06
-2.603e-06
-1.8029e-06
-2.35864e-06
-2.12752e-06
-2.07969e-06
-2.45423e-06
-1.76634e-06
-2.7786e-06
-1.41927e-06
-3.09897e-06
-1.03932e-06
-3.40852e-06
-6.28267e-07
-3.70774e-06
-1.87388e-07
-3.98602e-06
2.80154e-07
-4.24677e-06
7.72822e-07
-4.4766e-06
1.28625e-06
-4.6832e-06
1.81915e-06
-4.84223e-06
2.36412e-06
-4.99849e-06
2.92198e-06
-5.06178e-06
3.48024e-06
-5.16945e-06
4.04591e-06
-5.09369e-06
4.59614e-06
-5.18986e-06
5.15285e-06
-4.89575e-06
5.67072e-06
-5.09203e-06
6.20597e-06
-4.41698e-06
6.66494e-06
-4.98074e-06
7.18186e-06
-3.63547e-06
7.56305e-06
-5.14486e-06
8.14206e-06
-3.31237e-06
-8.04462e-06
7.90463e-06
4.82962e-05
5.02255e-06
3.2589e-05
1.77245e-06
1.4757e-05
5.54355e-08
7.28748e-06
-4.24137e-07
9.83723e-07
-5.69966e-07
1.44861e-06
-6.20182e-07
7.12939e-07
-7.32865e-07
1.11308e-06
-8.33227e-07
1.25804e-06
-9.63663e-07
1.37301e-06
-1.09716e-06
1.59352e-06
-1.24685e-06
1.67899e-06
-1.40176e-06
1.83641e-06
-1.56504e-06
1.89256e-06
-1.73092e-06
1.96077e-06
-1.8988e-06
1.96935e-06
-2.06526e-06
1.96815e-06
-2.22871e-06
1.93083e-06
-2.3868e-06
1.87605e-06
-2.53786e-06
1.79491e-06
-2.67999e-06
1.69504e-06
-2.81131e-06
1.57569e-06
-2.92965e-06
1.44033e-06
-3.03298e-06
1.28571e-06
-3.11938e-06
1.11064e-06
-3.18691e-06
9.14742e-07
-3.23373e-06
6.98822e-07
-3.25806e-06
4.63511e-07
-3.25818e-06
2.09424e-07
-3.23241e-06
-6.2883e-08
-3.17906e-06
-3.52678e-07
-3.09656e-06
-6.58959e-07
-2.98349e-06
-9.80311e-07
-2.83864e-06
-1.31494e-06
-2.66103e-06
-1.66032e-06
-2.44994e-06
-2.01399e-06
-2.20491e-06
-2.37255e-06
-1.92584e-06
-2.7333e-06
-1.61292e-06
-3.09153e-06
-1.26684e-06
-3.44505e-06
-8.88433e-07
-3.78694e-06
-4.79447e-07
-4.11673e-06
-4.11594e-08
-4.42431e-06
4.23379e-07
-4.71131e-06
9.12531e-07
-4.96576e-06
1.42209e-06
-5.19276e-06
1.95062e-06
-5.37076e-06
2.49089e-06
-5.53876e-06
3.04362e-06
-5.61452e-06
3.59654e-06
-5.72237e-06
4.15655e-06
-5.65369e-06
4.70097e-06
-5.73428e-06
5.25182e-06
-5.4466e-06
5.7635e-06
-5.60372e-06
6.29329e-06
-4.94677e-06
6.74542e-06
-5.43287e-06
7.25807e-06
-4.14812e-06
7.63054e-06
-5.51732e-06
8.20029e-06
-3.88212e-06
-8.40247e-06
8.24121e-06
5.0055e-05
5.63592e-06
3.51943e-05
2.40992e-06
1.7983e-05
4.32755e-07
9.26464e-06
-3.55933e-07
1.77241e-06
-5.49424e-07
1.6421e-06
-6.02151e-07
7.65665e-07
-7.13279e-07
1.22421e-06
-8.09568e-07
1.35433e-06
-9.3624e-07
1.49969e-06
-1.06468e-06
1.72196e-06
-1.20893e-06
1.82325e-06
-1.35772e-06
1.98519e-06
-1.51461e-06
2.04945e-06
-1.67389e-06
2.12005e-06
-1.83513e-06
2.13058e-06
-1.99492e-06
2.12795e-06
-2.15175e-06
2.08766e-06
-2.3033e-06
2.0276e-06
-2.44793e-06
1.93954e-06
-2.58373e-06
1.83084e-06
-2.70883e-06
1.70079e-06
-2.82109e-06
1.5526e-06
-2.91855e-06
1.38317e-06
-2.99929e-06
1.19138e-06
-3.06143e-06
9.7689e-07
-3.10316e-06
7.40548e-07
-3.12272e-06
4.83074e-07
-3.11843e-06
2.05128e-07
-3.0886e-06
-9.27091e-08
-3.0316e-06
-4.09673e-07
-2.94589e-06
-7.4467e-07
-2.83009e-06
-1.09611e-06
-2.68302e-06
-1.462e-06
-2.50373e-06
-1.83962e-06
-2.29149e-06
-2.22622e-06
-2.04589e-06
-2.61816e-06
-1.76682e-06
-3.01236e-06
-1.45448e-06
-3.40387e-06
-1.10956e-06
-3.78996e-06
-7.32892e-07
-4.16361e-06
-3.26196e-07
-4.52342e-06
1.09245e-07
-4.85975e-06
5.70489e-07
-5.17255e-06
1.05581e-06
-5.45108e-06
1.56114e-06
-5.69809e-06
2.08492e-06
-5.89454e-06
2.6201e-06
-6.07394e-06
3.16728e-06
-6.1617e-06
3.71446e-06
-6.26955e-06
4.26834e-06
-6.20757e-06
4.80659e-06
-6.27254e-06
5.35106e-06
-5.99107e-06
5.85635e-06
-6.109e-06
6.38e-06
-5.47042e-06
6.82542e-06
-5.87829e-06
7.33264e-06
-4.65534e-06
7.69715e-06
-5.88184e-06
8.25589e-06
-4.44086e-06
-8.72791e-06
8.53305e-06
5.15219e-05
6.20791e-06
3.75194e-05
3.06964e-06
2.11213e-05
8.66242e-07
1.1468e-05
-2.25384e-07
2.86404e-06
-5.16229e-07
1.93294e-06
-5.79271e-07
8.28707e-07
-6.89802e-07
1.33474e-06
-7.82406e-07
1.44693e-06
-9.054e-07
1.62268e-06
-1.02883e-06
1.84539e-06
-1.16763e-06
1.96205e-06
-1.31026e-06
2.12783e-06
-1.46072e-06
2.19991e-06
-1.61333e-06
2.27266e-06
-1.76783e-06
2.28508e-06
-1.92084e-06
2.28096e-06
-2.07094e-06
2.23776e-06
-2.21582e-06
2.17248e-06
-2.35387e-06
2.07758e-06
-2.48318e-06
1.96015e-06
-2.6019e-06
1.81951e-06
-2.70794e-06
1.65864e-06
-2.79936e-06
1.47459e-06
-2.87431e-06
1.26632e-06
-2.93093e-06
1.03351e-06
-2.96744e-06
7.77054e-07
-2.98212e-06
4.97754e-07
-2.9733e-06
1.96312e-07
-2.93934e-06
-1.26668e-07
-2.87863e-06
-4.70381e-07
-2.78967e-06
-8.3363e-07
-2.67112e-06
-1.21466e-06
-2.52184e-06
-1.61129e-06
-2.34087e-06
-2.02058e-06
-2.12755e-06
-2.43955e-06
-1.88144e-06
-2.86426e-06
-1.60248e-06
-3.29133e-06
-1.29085e-06
-3.71549e-06
-9.47262e-07
-4.13355e-06
-5.72517e-07
-4.53835e-06
-1.68324e-07
-4.92762e-06
2.64029e-07
-5.2921e-06
7.21697e-07
-5.63022e-06
1.20288e-06
-5.93226e-06
1.70364e-06
-6.19884e-06
2.22231e-06
-6.41322e-06
2.75203e-06
-6.60365e-06
3.29325e-06
-6.70292e-06
3.8343e-06
-6.8106e-06
4.38163e-06
-6.7549e-06
4.91336e-06
-6.80426e-06
5.45099e-06
-6.5287e-06
5.94961e-06
-6.60762e-06
6.46655e-06
-5.98737e-06
6.90523e-06
-6.31697e-06
7.40615e-06
-5.15625e-06
7.76309e-06
-6.23878e-06
8.30962e-06
-4.98739e-06
-9.02401e-06
8.78571e-06
5.27362e-05
6.73655e-06
3.95686e-05
3.7356e-06
2.41222e-05
1.36034e-06
1.38433e-05
-1.37152e-08
4.23809e-06
-4.61525e-07
2.38075e-06
-5.49992e-07
9.17174e-07
-6.61916e-07
1.44667e-06
-7.5146e-07
1.53648e-06
-8.71e-07
1.74222e-06
-9.89518e-07
1.9639e-06
-1.1229e-06
2.09542e-06
-1.25938e-06
2.26432e-06
-1.40336e-06
2.3439e-06
-1.54923e-06
2.41852e-06
-1.69689e-06
2.43274e-06
-1.84303e-06
2.4271e-06
-1.98627e-06
2.38101e-06
-2.12434e-06
2.31055e-06
-2.25566e-06
2.20889e-06
-2.37832e-06
2.08282e-06
-2.49051e-06
1.9317e-06
-2.59017e-06
1.7583e-06
-2.67541e-06
1.55984e-06
-2.74442e-06
1.33533e-06
-2.79538e-06
1.08447e-06
-2.82653e-06
8.0821e-07
-2.83621e-06
5.07432e-07
-2.82277e-06
1.82871e-07
-2.78459e-06
-1.64847e-07
-2.7201e-06
-5.34871e-07
-2.62784e-06
-9.25888e-07
-2.50651e-06
-1.33599e-06
-2.355e-06
-1.76281e-06
-2.17238e-06
-2.2032e-06
-1.95801e-06
-2.65392e-06
-1.71147e-06
-3.1108e-06
-1.43271e-06
-3.57009e-06
-1.12192e-06
-4.02629e-06
-7.79803e-07
-4.47567e-06
-4.07165e-07
-4.91099e-06
-5.67754e-09
-5.32911e-06
4.23354e-07
-5.72113e-06
8.77173e-07
-6.08404e-06
1.35393e-06
-6.40902e-06
1.84978e-06
-6.6947e-06
2.36299e-06
-6.92643e-06
2.88687e-06
-7.12752e-06
3.42177e-06
-7.23782e-06
3.9563e-06
-7.34513e-06
4.49668e-06
-7.29528e-06
5.02151e-06
-7.32909e-06
5.55188e-06
-7.05908e-06
6.04354e-06
-7.09927e-06
6.55328e-06
-6.49711e-06
6.9851e-06
-6.74878e-06
7.479e-06
-5.65015e-06
7.8285e-06
-6.58828e-06
8.36202e-06
-5.52091e-06
-9.29317e-06
9.00419e-06
5.3732e-05
7.2211e-06
4.13517e-05
4.39569e-06
2.69476e-05
1.9048e-06
1.63342e-05
2.33657e-07
5.90924e-06
-3.71216e-07
2.98563e-06
-5.11577e-07
1.05753e-06
-6.2875e-07
1.56384e-06
-7.1627e-07
1.624e-06
-8.32763e-07
1.85871e-06
-9.46555e-07
2.0777e-06
-1.07459e-06
2.22346e-06
-1.20495e-06
2.39467e-06
-1.34243e-06
2.48138e-06
-1.48151e-06
2.55759e-06
-1.62225e-06
2.57348e-06
-1.7614e-06
2.56625e-06
-1.89767e-06
2.51727e-06
-2.0288e-06
2.44168e-06
-2.15324e-06
2.33333e-06
-2.2691e-06
2.19868e-06
-2.3746e-06
2.03719e-06
-2.46773e-06
1.85142e-06
-2.54664e-06
1.63875e-06
-2.60956e-06
1.39824e-06
-2.65471e-06
1.12963e-06
-2.68039e-06
8.33887e-07
-2.68494e-06
5.11987e-07
-2.66677e-06
1.64697e-07
-2.62428e-06
-2.0734e-07
-2.55593e-06
-6.03214e-07
-2.46032e-06
-1.0215e-06
-2.33618e-06
-1.46013e-06
-2.18243e-06
-1.91656e-06
-1.99818e-06
-2.38745e-06
-1.78279e-06
-2.86931e-06
-1.53588e-06
-3.35771e-06
-1.25741e-06
-3.84856e-06
-9.47572e-07
-4.33613e-06
-6.07073e-07
-4.81617e-06
-2.36714e-07
-5.28135e-06
1.61868e-07
-5.72769e-06
5.87348e-07
-6.14661e-06
1.03705e-06
-6.53374e-06
1.50909e-06
-6.88106e-06
1.99971e-06
-7.18532e-06
2.50712e-06
-7.43384e-06
3.02481e-06
-7.64521e-06
3.553e-06
-7.76602e-06
4.08064e-06
-7.87276e-06
4.61369e-06
-7.82833e-06
5.13125e-06
-7.84665e-06
5.65396e-06
-7.58178e-06
6.13833e-06
-7.58365e-06
6.64043e-06
-6.99921e-06
7.06519e-06
-7.17355e-06
7.5515e-06
-6.13646e-06
7.89352e-06
-6.93031e-06
8.41347e-06
-6.04086e-06
-9.53735e-06
9.193e-06
5.4539e-05
7.66186e-06
4.28828e-05
5.04037e-06
2.95691e-05
2.49061e-06
1.88839e-05
5.72183e-07
7.82767e-06
-2.32609e-07
3.79042e-06
-4.59539e-07
1.28446e-06
-5.88933e-07
1.69324e-06
-6.76156e-07
1.71122e-06
-7.90263e-07
1.97282e-06
-8.99629e-07
2.18706e-06
-1.02249e-06
2.34632e-06
-1.14679e-06
2.51897e-06
-1.27778e-06
2.61237e-06
-1.41002e-06
2.68983e-06
-1.54378e-06
2.70725e-06
-1.67585e-06
2.69832e-06
-1.80503e-06
2.64645e-06
-1.92908e-06
2.56573e-06
-2.0465e-06
2.45075e-06
-2.15543e-06
2.30761e-06
-2.25408e-06
2.13585e-06
-2.34053e-06
1.93787e-06
-2.41296e-06
1.71118e-06
-2.46964e-06
1.45493e-06
-2.50886e-06
1.16884e-06
-2.52893e-06
8.53954e-07
-2.52824e-06
5.11301e-07
-2.50523e-06
1.41684e-07
-2.45833e-06
-2.54236e-07
-2.38606e-06
-6.75485e-07
-2.28704e-06
-1.12051e-06
-2.16006e-06
-1.58712e-06
-2.00405e-06
-2.07257e-06
-1.81817e-06
-2.57333e-06
-1.6018e-06
-3.08567e-06
-1.35459e-06
-3.60492e-06
-1.07649e-06
-4.12666e-06
-7.67713e-07
-4.6449e-06
-4.28973e-07
-5.15491e-06
-6.10606e-08
-5.64926e-06
3.34418e-07
-6.12317e-06
7.56117e-07
-6.56831e-06
1.20144e-06
-6.97907e-06
1.66847e-06
-7.34809e-06
2.15355e-06
-7.6704e-06
2.65483e-06
-7.93512e-06
3.16596e-06
-8.15634e-06
3.6871e-06
-8.28716e-06
4.20747e-06
-8.39313e-06
4.7328e-06
-8.35366e-06
5.24272e-06
-8.35658e-06
5.75738e-06
-8.09643e-06
6.23413e-06
-8.06041e-06
6.72818e-06
-7.49326e-06
7.14565e-06
-7.59103e-06
7.62385e-06
-6.61465e-06
7.95827e-06
-7.26473e-06
8.46425e-06
-6.54683e-06
-9.75818e-06
9.3562e-06
5.51828e-05
8.05994e-06
4.41791e-05
5.66204e-06
3.1967e-05
3.10743e-06
2.14386e-05
9.9068e-07
9.94442e-06
-4.30159e-08
4.82411e-06
-3.87336e-07
1.62878e-06
-5.40345e-07
1.84625e-06
-6.30149e-07
1.80102e-06
-7.42899e-07
2.08557e-06
-8.4831e-07
2.29247e-06
-9.66253e-07
2.46427e-06
-1.08462e-06
2.63734e-06
-1.20917e-06
2.73693e-06
-1.33456e-06
2.81522e-06
-1.46129e-06
2.83397e-06
-1.58621e-06
2.82324e-06
-1.70819e-06
2.76843e-06
-1.82505e-06
2.6826e-06
-1.93532e-06
2.56102e-06
-2.03716e-06
2.40944e-06
-2.12884e-06
2.22753e-06
-2.20845e-06
2.01748e-06
-2.27426e-06
1.777e-06
-2.32458e-06
1.50524e-06
-2.35772e-06
1.20199e-06
-2.37205e-06
8.68287e-07
-2.36601e-06
5.05259e-07
-2.33805e-06
1.13728e-07
-2.28667e-06
-3.05624e-07
-2.2104e-06
-7.51754e-07
-2.10792e-06
-1.22299e-06
-1.97805e-06
-1.71699e-06
-1.81978e-06
-2.23084e-06
-1.63228e-06
-2.76083e-06
-1.41496e-06
-3.30298e-06
-1.16749e-06
-3.85239e-06
-8.89854e-07
-4.4043e-06
-5.82258e-07
-4.95249e-06
-2.45414e-07
-5.49175e-06
1.19883e-07
-6.01456e-06
5.1206e-07
-6.51534e-06
9.29752e-07
-6.98601e-06
1.37043e-06
-7.41975e-06
1.83218e-06
-7.80984e-06
2.3114e-06
-8.14963e-06
2.80621e-06
-8.42993e-06
3.31045e-06
-8.66058e-06
3.82416e-06
-8.80087e-06
4.33689e-06
-8.90586e-06
4.85413e-06
-8.8709e-06
5.35605e-06
-8.8585e-06
5.86227e-06
-8.60265e-06
6.33107e-06
-8.52921e-06
6.81667e-06
-7.97885e-06
7.22659e-06
-8.00095e-06
7.69622e-06
-7.08428e-06
8.02285e-06
-7.59137e-06
8.51457e-06
-7.03854e-06
-9.95702e-06
9.49744e-06
5.56854e-05
8.41711e-06
4.52594e-05
6.25469e-06
3.41294e-05
3.74453e-06
2.39487e-05
1.47979e-06
1.22092e-05
2.27706e-07
6.0762e-06
-2.866e-07
2.14309e-06
-4.79749e-07
2.03939e-06
-5.76887e-07
1.89816e-06
-6.89851e-07
2.19853e-06
-7.92025e-07
2.39465e-06
-9.05445e-07
2.57769e-06
-1.01808e-06
2.74997e-06
-1.1363e-06
2.85515e-06
-1.25488e-06
2.9338e-06
-1.37455e-06
2.95365e-06
-1.49225e-06
2.94093e-06
-1.60695e-06
2.88314e-06
-1.71652e-06
2.79217e-06
-1.81952e-06
2.66402e-06
-1.91414e-06
2.50406e-06
-1.9987e-06
2.31209e-06
-2.07135e-06
2.09013e-06
-2.13041e-06
1.83605e-06
-2.17422e-06
1.54906e-06
-2.20117e-06
1.22893e-06
-2.20965e-06
8.76768e-07
-2.19814e-06
4.93752e-07
-2.16514e-06
8.0732e-08
-2.10918e-06
-3.61588e-07
-2.02884e-06
-8.3209e-07
-1.92286e-06
-1.32898e-06
-1.79008e-06
-1.84977e-06
-1.62953e-06
-2.39139e-06
-1.44041e-06
-2.94994e-06
-1.22219e-06
-3.52121e-06
-9.74529e-07
-4.10006e-06
-6.97433e-07
-4.68139e-06
-3.91128e-07
-5.2588e-06
-5.63194e-08
-5.82656e-06
3.06195e-07
-6.37707e-06
6.94871e-07
-6.90402e-06
1.10833e-06
-7.39947e-06
1.54412e-06
-7.85553e-06
2.00029e-06
-8.26601e-06
2.47334e-06
-8.62268e-06
2.96136e-06
-8.91795e-06
3.45836e-06
-9.15757e-06
3.96429e-06
-9.3068e-06
4.46902e-06
-9.41059e-06
4.9778e-06
-9.37969e-06
5.47134e-06
-9.35203e-06
5.96875e-06
-9.10007e-06
6.42925e-06
-8.98971e-06
6.90602e-06
-8.45563e-06
7.30809e-06
-8.40301e-06
7.76874e-06
-7.54493e-06
8.08735e-06
-7.90997e-06
8.5646e-06
-7.5158e-06
-1.0135e-05
9.61997e-06
5.60654e-05
8.73566e-06
4.61437e-05
6.81374e-06
3.60514e-05
4.39141e-06
2.6371e-05
2.02693e-06
1.45736e-05
5.60056e-07
7.54308e-06
-1.43121e-07
2.84627e-06
-4.02291e-07
2.29856e-06
-5.14463e-07
2.01033e-06
-6.30013e-07
2.31408e-06
-7.30027e-07
2.49466e-06
-8.39502e-07
2.68716e-06
-9.46734e-07
2.8572e-06
-1.0588e-06
2.96722e-06
-1.17064e-06
3.04564e-06
-1.28327e-06
3.06628e-06
-1.39372e-06
3.05138e-06
-1.50108e-06
2.9905e-06
-1.60326e-06
2.89434e-06
-1.69888e-06
2.75964e-06
-1.78617e-06
2.59135e-06
-1.8635e-06
2.38941e-06
-1.92906e-06
2.15569e-06
-1.98124e-06
1.88823e-06
-2.01843e-06
1.58625e-06
-2.03906e-06
1.24956e-06
-2.04158e-06
8.79287e-07
-2.02451e-06
4.7668e-07
-1.98638e-06
4.2606e-08
-1.92576e-06
-4.22204e-07
-1.8413e-06
-9.16552e-07
-1.73176e-06
-1.43852e-06
-1.59604e-06
-1.98549e-06
-1.43321e-06
-2.55422e-06
-1.2425e-06
-3.14065e-06
-1.0234e-06
-3.7403e-06
-7.75613e-07
-4.34785e-06
-4.9915e-07
-4.95786e-06
-1.9425e-07
-5.5637e-06
1.38383e-07
-6.15919e-06
4.97944e-07
-6.73664e-06
8.82919e-07
-7.28899e-06
1.29192e-06
-7.80847e-06
1.72255e-06
-8.28616e-06
2.17287e-06
-8.71633e-06
2.63945e-06
-9.08926e-06
3.12036e-06
-9.39885e-06
3.60977e-06
-9.64698e-06
4.10757e-06
-9.8046e-06
4.60392e-06
-9.90694e-06
5.10387e-06
-9.87964e-06
5.58866e-06
-9.83682e-06
6.0769e-06
-9.58831e-06
6.52874e-06
-9.44155e-06
6.99633e-06
-8.92321e-06
7.39024e-06
-8.79693e-06
7.84152e-06
-7.99621e-06
8.15183e-06
-8.22028e-06
8.61448e-06
-7.97844e-06
-1.02933e-05
9.72666e-06
5.63388e-05
9.01827e-06
4.68521e-05
7.33586e-06
3.77338e-05
5.03825e-06
2.86687e-05
2.62017e-06
1.69917e-05
9.55975e-07
9.20727e-06
5.34485e-08
3.74879e-06
-3.01109e-07
2.65312e-06
-4.40215e-07
2.14944e-06
-5.61907e-07
2.43578e-06
-6.61348e-07
2.5941e-06
-7.67706e-07
2.79352e-06
-8.70002e-07
2.9595e-06
-9.7619e-07
3.0734e-06
-1.08144e-06
3.15089e-06
-1.1871e-06
3.17193e-06
-1.2903e-06
3.15458e-06
-1.39028e-06
3.09048e-06
-1.485e-06
2.98907e-06
-1.57317e-06
2.8478e-06
-1.65303e-06
2.67121e-06
-1.72301e-06
2.4594e-06
-1.78138e-06
2.21406e-06
-1.82657e-06
1.93342e-06
-1.85703e-06
1.61671e-06
-1.87124e-06
1.26377e-06
-1.86769e-06
8.75744e-07
-1.84497e-06
4.53951e-07
-1.80163e-06
-7.30675e-10
-1.73629e-06
-4.87541e-07
-1.64765e-06
-1.00519e-06
-1.53452e-06
-1.55165e-06
-1.39584e-06
-2.12417e-06
-1.23072e-06
-2.71934e-06
-1.03845e-06
-3.33292e-06
-8.18521e-07
-3.96023e-06
-5.70668e-07
-4.5957e-06
-2.9493e-07
-5.2336e-06
8.4468e-09
-5.86708e-06
3.38759e-07
-6.4895e-06
6.95195e-07
-7.09307e-06
1.07627e-06
-7.67006e-06
1.48058e-06
-8.21278e-06
1.9058e-06
-8.71138e-06
2.34998e-06
-9.16052e-06
2.80978e-06
-9.54906e-06
3.28325e-06
-9.87232e-06
3.76473e-06
-1.01285e-05
4.25406e-06
-1.02939e-05
4.74167e-06
-1.03946e-05
5.23243e-06
-1.03704e-05
5.70809e-06
-1.03125e-05
6.18679e-06
-1.0067e-05
6.62962e-06
-9.88438e-06
7.08766e-06
-9.38125e-06
7.4731e-06
-9.18236e-06
7.91464e-06
-8.43776e-06
8.21637e-06
-8.522e-06
8.66431e-06
-8.42638e-06
-1.04326e-05
9.82004e-06
5.65187e-05
9.26787e-06
4.74043e-05
7.81894e-06
3.91827e-05
5.67606e-06
3.08115e-05
3.24862e-06
1.94191e-05
1.41396e-06
1.10419e-05
3.00662e-07
4.86209e-06
-1.67575e-07
3.12136e-06
-3.50473e-07
2.33234e-06
-4.83563e-07
2.56887e-06
-5.84748e-07
2.69529e-06
-6.89158e-07
2.89793e-06
-7.87187e-07
3.05753e-06
-8.87897e-07
3.17411e-06
-9.86789e-07
3.24979e-06
-1.08559e-06
3.27074e-06
-1.1816e-06
3.25058e-06
-1.2742e-06
3.18308e-06
-1.36144e-06
3.07631e-06
-1.44209e-06
2.92845e-06
-1.51444e-06
2.74357e-06
-1.577e-06
2.52196e-06
-1.62809e-06
2.26514e-06
-1.66619e-06
1.97152e-06
-1.68982e-06
1.64034e-06
-1.69752e-06
1.27146e-06
-1.68783e-06
8.66055e-07
-1.65936e-06
4.25488e-07
-1.61075e-06
-4.93472e-08
-1.54063e-06
-5.57655e-07
-1.44777e-06
-1.09806e-06
-1.33102e-06
-1.6684e-06
-1.18937e-06
-2.26582e-06
-1.02198e-06
-2.88673e-06
-8.28162e-07
-3.52674e-06
-6.07458e-07
-4.18093e-06
-3.59618e-07
-4.84354e-06
-8.47022e-08
-5.50851e-06