/*--------------------------------*- C++ -*----------------------------------*\
| =========                 |                                                 |
| \\      /  F ield         | OpenFOAM: The Open Source CFD Toolbox           |
|  \\    /   O peration     | Version:  2.4.0                                 |
|   \\  /    A nd           | Web:      www.OpenFOAM.org                      |
|    \\/     M anipulation  |                                                 |
\*---------------------------------------------------------------------------*/
FoamFile
{
    version     2.0;
    format      ascii;
    class       volVectorField;
    location    "0.79";
    object      U;
}
// * * * * * * * * * * * * * * * * * * * * * * * * * * * * * * * * * * * * * //

dimensions      [0 1 -1 0 0 0 0];

internalField   nonuniform List<vector> 
6000
(
(0.990441 -0.000273757 0)
(0.970231 0.0020497 0)
(0.948316 0.00334879 0)
(0.925587 0.00413663 0)
(0.903364 0.00452022 0)
(0.882322 0.00453153 0)
(0.862685 0.00428821 0)
(0.844554 0.00390124 0)
(0.82799 0.00344512 0)
(0.812998 0.00296857 0)
(0.799521 0.00250378 0)
(0.787461 0.0020707 0)
(0.776703 0.0016803 0)
(0.767121 0.00133731 0)
(0.758591 0.00104247 0)
(0.750991 0.000794002 0)
(0.744206 0.000588684 0)
(0.738129 0.000422559 0)
(0.732663 0.00029137 0)
(0.72772 0.000190829 0)
(0.723222 0.000116778 0)
(0.719101 6.52645e-05 0)
(0.715297 3.2607e-05 0)
(0.711759 1.54447e-05 0)
(0.70844 1.07529e-05 0)
(0.705303 1.5881e-05 0)
(0.702313 2.85052e-05 0)
(0.699444 4.65612e-05 0)
(0.696671 6.8201e-05 0)
(0.693974 9.17822e-05 0)
(0.691338 0.000115877 0)
(0.68875 0.000139302 0)
(0.686201 0.000161167 0)
(0.683684 0.000180943 0)
(0.681192 0.00019852 0)
(0.678716 0.000214238 0)
(0.676247 0.000228876 0)
(0.673769 0.000243592 0)
(0.671262 0.000259845 0)
(0.668699 0.000279344 0)
(0.666042 0.000304028 0)
(0.663245 0.000336127 0)
(0.660247 0.000378279 0)
(0.656968 0.000433714 0)
(0.653308 0.000506494 0)
(0.649138 0.000601817 0)
(0.644291 0.000726413 0)
(0.638551 0.000889116 0)
(0.631638 0.00110159 0)
(0.623188 0.00137932 0)
(0.612724 0.00174305 0)
(0.599616 0.00222121 0)
(0.583039 0.00285248 0)
(0.561844 0.00369258 0)
(0.534672 0.00480881 0)
(0.499099 0.00631487 0)
(0.454174 0.0082014 0)
(0.391541 0.010739 0)
(0.328075 0.0130781 0)
(0.181908 0.0117404 0)
(1.00417 0.00480515 0)
(1.01373 0.00718215 0)
(1.0207 0.00682435 0)
(1.02486 0.00641226 0)
(1.02687 0.00609189 0)
(1.02702 0.00572671 0)
(1.02543 0.00535089 0)
(1.02232 0.00499898 0)
(1.01792 0.00467248 0)
(1.01248 0.00436634 0)
(1.00623 0.00407871 0)
(0.999349 0.00380918 0)
(0.992003 0.00355735 0)
(0.984333 0.00332256 0)
(0.976458 0.00310404 0)
(0.968478 0.00290091 0)
(0.960478 0.00271219 0)
(0.952527 0.00253691 0)
(0.944683 0.00237407 0)
(0.936996 0.00222278 0)
(0.929506 0.0020822 0)
(0.922242 0.00195165 0)
(0.915231 0.00183052 0)
(0.90849 0.00171835 0)
(0.90203 0.00161479 0)
(0.895858 0.00151946 0)
(0.889974 0.00143223 0)
(0.884375 0.00135303 0)
(0.879052 0.0012818 0)
(0.873994 0.00121842 0)
(0.869187 0.00116262 0)
(0.864613 0.0011141 0)
(0.860252 0.00107252 0)
(0.856086 0.00103762 0)
(0.852091 0.00100931 0)
(0.848247 0.000987802 0)
(0.844533 0.000973677 0)
(0.840926 0.000967942 0)
(0.837403 0.000972086 0)
(0.833939 0.000988157 0)
(0.830506 0.00101888 0)
(0.827069 0.00106785 0)
(0.823588 0.00113976 0)
(0.82001 0.00124077 0)
(0.816271 0.00137897 0)
(0.812287 0.00156495 0)
(0.807954 0.00181261 0)
(0.803133 0.00214028 0)
(0.797646 0.00257231 0)
(0.791259 0.00314119 0)
(0.783661 0.00389104 0)
(0.774433 0.00488241 0)
(0.763016 0.00620042 0)
(0.748583 0.00796376 0)
(0.730113 0.0103437 0)
(0.705512 0.0135597 0)
(0.673663 0.017917 0)
(0.625304 0.0234875 0)
(0.573544 0.0316079 0)
(0.436803 0.0316731 0)
(1.00036 0.00116234 0)
(1.00263 0.00202372 0)
(1.00544 0.00239372 0)
(1.00803 0.00304093 0)
(1.01052 0.0037047 0)
(1.013 0.00418586 0)
(1.01529 0.00450998 0)
(1.01726 0.00472083 0)
(1.01884 0.00483319 0)
(1.02001 0.00486103 0)
(1.02076 0.00482358 0)
(1.02109 0.00473949 0)
(1.021 0.00462388 0)
(1.02051 0.00448837 0)
(1.01964 0.00434161 0)
(1.01841 0.00418987 0)
(1.01683 0.00403747 0)
(1.01492 0.00388726 0)
(1.0127 0.00374103 0)
(1.01019 0.00359976 0)
(1.00741 0.00346393 0)
(1.00437 0.00333374 0)
(1.00111 0.00320922 0)
(0.997638 0.00309025 0)
(0.99398 0.00297656 0)
(0.990163 0.0028678 0)
(0.986213 0.00276375 0)
(0.982156 0.00266437 0)
(0.97802 0.00256964 0)
(0.973831 0.00247961 0)
(0.969612 0.00239437 0)
(0.965388 0.00231406 0)
(0.961178 0.00223898 0)
(0.956999 0.00216959 0)
(0.952863 0.00210662 0)
(0.948779 0.00205114 0)
(0.944751 0.00200464 0)
(0.940776 0.0019691 0)
(0.936849 0.00194712 0)
(0.932957 0.00194204 0)
(0.92908 0.00195814 0)
(0.925192 0.0020009 0)
(0.921255 0.00207739 0)
(0.91722 0.00219668 0)
(0.913023 0.00237057 0)
(0.908583 0.00261437 0)
(0.903791 0.0029481 0)
(0.898512 0.003398 0)
(0.892568 0.00399875 0)
(0.885732 0.00479659 0)
(0.877714 0.00585413 0)
(0.868136 0.00725698 0)
(0.85652 0.00912603 0)
(0.842209 0.0116286 0)
(0.824479 0.0150203 0)
(0.801876 0.0196097 0)
(0.774143 0.0260345 0)
(0.734489 0.0342511 0)
(0.695008 0.0477862 0)
(0.591112 0.0525302 0)
(1.00025 0.00137449 0)
(1.00159 0.00317762 0)
(1.00312 0.00385962 0)
(1.00435 0.00422168 0)
(1.00551 0.0044898 0)
(1.00681 0.00462058 0)
(1.00821 0.00464382 0)
(1.00962 0.00461182 0)
(1.01101 0.00454647 0)
(1.01236 0.00445798 0)
(1.01365 0.00435667 0)
(1.01486 0.00425131 0)
(1.01598 0.00414748 0)
(1.017 0.00404837 0)
(1.0179 0.00395574 0)
(1.01869 0.00387041 0)
(1.01935 0.00379253 0)
(1.01989 0.00372176 0)
(1.02031 0.00365745 0)
(1.02059 0.00359872 0)
(1.02075 0.00354463 0)
(1.02077 0.0034942 0)
(1.02065 0.00344657 0)
(1.02039 0.00340084 0)
(1.01999 0.00335621 0)
(1.01944 0.00331209 0)
(1.01874 0.00326801 0)
(1.0179 0.00322368 0)
(1.0169 0.00317892 0)
(1.01574 0.00313368 0)
(1.01444 0.00308807 0)
(1.01298 0.0030424 0)
(1.01137 0.00299721 0)
(1.00961 0.00295335 0)
(1.00771 0.00291208 0)
(1.00567 0.00287514 0)
(1.00348 0.0028448 0)
(1.00117 0.00282403 0)
(0.998713 0.00281658 0)
(0.99612 0.0028272 0)
(0.993382 0.00286189 0)
(0.990484 0.00292824 0)
(0.987404 0.00303593 0)
(0.984112 0.00319738 0)
(0.980559 0.00342858 0)
(0.976681 0.0037502 0)
(0.97239 0.00418903 0)
(0.967567 0.00477998 0)
(0.962054 0.00556877 0)
(0.955645 0.00661574 0)
(0.948068 0.00800158 0)
(0.93897 0.00983509 0)
(0.927899 0.0122676 0)
(0.914239 0.0155042 0)
(0.897315 0.0198586 0)
(0.875863 0.025686 0)
(0.849715 0.0338224 0)
(0.813697 0.0440843 0)
(0.778562 0.0613993 0)
(0.697033 0.0706443 0)
(1.00018 0.00117351 0)
(1.00125 0.00265202 0)
(1.00255 0.00313695 0)
(1.00361 0.00339465 0)
(1.00455 0.00368377 0)
(1.00554 0.00390457 0)
(1.00659 0.00402482 0)
(1.00763 0.00408059 0)
(1.00866 0.00409618 0)
(1.00967 0.00408 0)
(1.01068 0.0040395 0)
(1.01168 0.00398285 0)
(1.01266 0.00391668 0)
(1.01361 0.00384581 0)
(1.01454 0.00377377 0)
(1.01543 0.00370315 0)
(1.0163 0.00363571 0)
(1.01714 0.00357252 0)
(1.01793 0.00351411 0)
(1.0187 0.00346063 0)
(1.01942 0.00341197 0)
(1.02011 0.00336782 0)
(1.02075 0.00332778 0)
(1.02134 0.00329142 0)
(1.02189 0.00325836 0)
(1.02239 0.00322832 0)
(1.02284 0.00320103 0)
(1.02323 0.00317629 0)
(1.02355 0.00315395 0)
(1.02382 0.00313393 0)
(1.02401 0.00311624 0)
(1.02414 0.00310104 0)
(1.02418 0.00308867 0)
(1.02413 0.00307978 0)
(1.024 0.00307541 0)
(1.02376 0.00307715 0)
(1.02341 0.0030872 0)
(1.02294 0.00310861 0)
(1.02234 0.0031454 0)
(1.0216 0.00320285 0)
(1.02068 0.00328783 0)
(1.01958 0.00340926 0)
(1.01826 0.00357869 0)
(1.01669 0.00381106 0)
(1.01481 0.00412579 0)
(1.01257 0.00454806 0)
(1.00988 0.00511056 0)
(1.00663 0.00585588 0)
(1.00268 0.00683969 0)
(0.997856 0.00813524 0)
(0.991912 0.00983994 0)
(0.984539 0.0120841 0)
(0.975338 0.0150473 0)
(0.963766 0.0189692 0)
(0.949222 0.0242115 0)
(0.930591 0.03117 0)
(0.907651 0.0407885 0)
(0.876109 0.0527945 0)
(0.844544 0.0725881 0)
(0.777889 0.0851278 0)
(1.00014 0.000986938 0)
(1.00102 0.00234198 0)
(1.00218 0.00292823 0)
(1.00322 0.00327081 0)
(1.00413 0.00359504 0)
(1.00506 0.00382754 0)
(1.00603 0.00394147 0)
(1.00699 0.00398003 0)
(1.00792 0.00397612 0)
(1.00883 0.00394133 0)
(1.00972 0.00388344 0)
(1.01059 0.00381124 0)
(1.01145 0.00373221 0)
(1.01229 0.00365159 0)
(1.01311 0.00357293 0)
(1.01392 0.00349856 0)
(1.01471 0.00342991 0)
(1.01549 0.00336765 0)
(1.01626 0.00331192 0)
(1.01701 0.00326251 0)
(1.01776 0.003219 0)
(1.01849 0.00318081 0)
(1.0192 0.00314734 0)
(1.01991 0.00311805 0)
(1.02059 0.00309246 0)
(1.02126 0.00307017 0)
(1.02192 0.00305086 0)
(1.02255 0.00303434 0)
(1.02316 0.00302049 0)
(1.02374 0.00300934 0)
(1.0243 0.00300106 0)
(1.02483 0.002996 0)
(1.02533 0.00299476 0)
(1.02578 0.00299829 0)
(1.02619 0.003008 0)
(1.02654 0.00302584 0)
(1.02684 0.00305452 0)
(1.02706 0.00309764 0)
(1.0272 0.00315989 0)
(1.02724 0.00324741 0)
(1.02717 0.00336811 0)
(1.02695 0.00353225 0)
(1.02656 0.00375306 0)
(1.02597 0.00404772 0)
(1.02512 0.00443848 0)
(1.02395 0.00495421 0)
(1.0224 0.00563242 0)
(1.02037 0.00652194 0)
(1.01773 0.0076866 0)
(1.01432 0.0092102 0)
(1.00996 0.0112039 0)
(1.00437 0.0138158 0)
(0.997245 0.0172483 0)
(0.98814 0.0217701 0)
(0.976589 0.0277816 0)
(0.961698 0.0357186 0)
(0.943344 0.046597 0)
(0.918015 0.0601545 0)
(0.892363 0.0818173 0)
(0.839879 0.0971156 0)
(1.00011 0.00084219 0)
(1.00084 0.00209722 0)
(1.00189 0.00272308 0)
(1.00289 0.00306789 0)
(1.00378 0.00335925 0)
(1.00468 0.00357134 0)
(1.00563 0.00368001 0)
(1.00656 0.00371972 0)
(1.00748 0.00372111 0)
(1.00836 0.00369484 0)
(1.00923 0.00364702 0)
(1.01007 0.00358525 0)
(1.0109 0.00351644 0)
(1.0117 0.00344541 0)
(1.01248 0.00337536 0)
(1.01324 0.00330845 0)
(1.01399 0.00324606 0)
(1.01473 0.00318893 0)
(1.01546 0.00313735 0)
(1.01617 0.00309127 0)
(1.01688 0.00305042 0)
(1.01758 0.00301444 0)
(1.01827 0.0029829 0)
(1.01895 0.00295539 0)
(1.01963 0.00293157 0)
(1.0203 0.00291114 0)
(1.02096 0.00289391 0)
(1.02161 0.00287979 0)
(1.02225 0.00286878 0)
(1.02288 0.00286103 0)
(1.02349 0.00285684 0)
(1.02409 0.0028567 0)
(1.02467 0.00286139 0)
(1.02522 0.00287206 0)
(1.02575 0.00289036 0)
(1.02624 0.00291853 0)
(1.02669 0.00295965 0)
(1.02708 0.00301775 0)
(1.02741 0.00309814 0)
(1.02767 0.00320766 0)
(1.02783 0.00335518 0)
(1.02787 0.00355217 0)
(1.02777 0.00381342 0)
(1.02749 0.00415808 0)
(1.02699 0.00461091 0)
(1.02621 0.00520401 0)
(1.02509 0.00597897 0)
(1.02353 0.00698981 0)
(1.02143 0.00830695 0)
(1.01866 0.0100226 0)
(1.01504 0.0122584 0)
(1.01036 0.0151759 0)
(1.00436 0.018994 0)
(0.996713 0.0240012 0)
(0.987093 0.0306231 0)
(0.974866 0.0393237 0)
(0.960125 0.0511561 0)
(0.940295 0.0659348 0)
(0.920707 0.0888993 0)
(0.882537 0.106951 0)
(1.00009 0.000728812 0)
(1.00071 0.00188098 0)
(1.00166 0.00251235 0)
(1.00261 0.00285663 0)
(1.00348 0.003132 0)
(1.00436 0.00334173 0)
(1.00529 0.00345877 0)
(1.00621 0.00350665 0)
(1.00711 0.00351438 0)
(1.00799 0.00349413 0)
(1.00885 0.00345212 0)
(1.00969 0.00339557 0)
(1.0105 0.00333133 0)
(1.01129 0.00326425 0)
(1.01207 0.00319757 0)
(1.01282 0.00313349 0)
(1.01356 0.0030735 0)
(1.01428 0.00301842 0)
(1.01499 0.00296863 0)
(1.01569 0.00292414 0)
(1.01638 0.00288477 0)
(1.01706 0.0028502 0)
(1.01774 0.00282006 0)
(1.0184 0.00279397 0)
(1.01906 0.00277164 0)
(1.01972 0.00275281 0)
(1.02036 0.00273736 0)
(1.021 0.00272522 0)
(1.02163 0.00271649 0)
(1.02225 0.00271139 0)
(1.02287 0.00271032 0)
(1.02346 0.00271392 0)
(1.02405 0.00272312 0)
(1.02461 0.00273928 0)
(1.02515 0.00276428 0)
(1.02566 0.00280069 0)
(1.02613 0.00285194 0)
(1.02657 0.00292254 0)
(1.02694 0.00301836 0)
(1.02725 0.00314699 0)
(1.02747 0.00331823 0)
(1.02758 0.0035447 0)
(1.02757 0.00384267 0)
(1.02738 0.00423313 0)
(1.02699 0.00474319 0)
(1.02635 0.00540783 0)
(1.02537 0.00627229 0)
(1.024 0.00739509 0)
(1.02211 0.00885224 0)
(1.01959 0.0107427 0)
(1.01629 0.0131965 0)
(1.012 0.0163846 0)
(1.00651 0.0205366 0)
(0.999544 0.0259522 0)
(0.990853 0.0330666 0)
(0.979986 0.0423542 0)
(0.967164 0.054855 0)
(0.950703 0.0704828 0)
(0.934891 0.0940429 0)
(0.908162 0.114672 0)
(1.00007 0.000636571 0)
(1.00061 0.00168643 0)
(1.00146 0.00230827 0)
(1.00237 0.00265443 0)
(1.00322 0.0029189 0)
(1.00409 0.00312323 0)
(1.00499 0.00324224 0)
(1.0059 0.00329254 0)
(1.00679 0.00330226 0)
(1.00766 0.00328518 0)
(1.00852 0.00324755 0)
(1.00935 0.0031959 0)
(1.01016 0.00313664 0)
(1.01095 0.00307449 0)
(1.01172 0.00301253 0)
(1.01248 0.00295288 0)
(1.01321 0.00289693 0)
(1.01393 0.00284551 0)
(1.01464 0.00279898 0)
(1.01534 0.00275739 0)
(1.01602 0.00272059 0)
(1.0167 0.0026883 0)
(1.01737 0.00266021 0)
(1.01803 0.00263601 0)
(1.01868 0.00261545 0)
(1.01933 0.00259835 0)
(1.01997 0.00258464 0)
(1.0206 0.00257434 0)
(1.02122 0.00256763 0)
(1.02183 0.00256481 0)
(1.02244 0.00256641 0)
(1.02303 0.0025732 0)
(1.02361 0.0025863 0)
(1.02417 0.00260725 0)
(1.0247 0.00263819 0)
(1.02522 0.00268197 0)
(1.02569 0.00274238 0)
(1.02613 0.00282439 0)
(1.02651 0.00293442 0)
(1.02683 0.00308077 0)
(1.02707 0.00327412 0)
(1.02721 0.00352823 0)
(1.02722 0.00386079 0)
(1.02708 0.00429456 0)
(1.02674 0.00485887 0)
(1.02616 0.00559149 0)
(1.02526 0.00654109 0)
(1.02398 0.00777048 0)
(1.02222 0.00936085 0)
(1.01986 0.0114174 0)
(1.01675 0.0140774 0)
(1.01272 0.0175196 0)
(1.00756 0.0219819 0)
(1.00102 0.0277703 0)
(0.992893 0.0353202 0)
(0.982823 0.0451048 0)
(0.97103 0.0581091 0)
(0.956455 0.074348 0)
(0.942383 0.0979698 0)
(0.922746 0.120656 0)
(1.00006 0.000559604 0)
(1.00052 0.00151227 0)
(1.0013 0.00211481 0)
(1.00216 0.00246016 0)
(1.003 0.00271328 0)
(1.00385 0.00290873 0)
(1.00473 0.00302687 0)
(1.00563 0.00307914 0)
(1.00651 0.00309144 0)
(1.00738 0.00307816 0)
(1.00823 0.00304542 0)
(1.00906 0.00299902 0)
(1.00987 0.00294493 0)
(1.01066 0.00288771 0)
(1.01143 0.00283037 0)
(1.01218 0.00277492 0)
(1.01291 0.00272275 0)
(1.01363 0.00267468 0)
(1.01434 0.00263111 0)
(1.01504 0.00259213 0)
(1.01572 0.00255765 0)
(1.0164 0.00252745 0)
(1.01706 0.00250126 0)
(1.01772 0.00247885 0)
(1.01837 0.00246 0)
(1.01902 0.00244461 0)
(1.01966 0.00243265 0)
(1.02028 0.00242421 0)
(1.0209 0.00241953 0)
(1.02152 0.00241902 0)
(1.02212 0.0024233 0)
(1.02271 0.00243328 0)
(1.02328 0.00245021 0)
(1.02384 0.00247584 0)
(1.02438 0.00251253 0)
(1.02489 0.00256342 0)
(1.02537 0.00263263 0)
(1.0258 0.00272556 0)
(1.02619 0.00284916 0)
(1.02652 0.00301243 0)
(1.02677 0.00322689 0)
(1.02692 0.00350736 0)
(1.02696 0.00387288 0)
(1.02684 0.00434793 0)
(1.02654 0.00496393 0)
(1.02601 0.0057613 0)
(1.02518 0.00679199 0)
(1.02398 0.00812281 0)
(1.02233 0.00983982 0)
(1.0201 0.012054 0)
(1.01717 0.0149093 0)
(1.01336 0.0185918 0)
(1.0085 0.0233458 0)
(1.00234 0.0294827 0)
(0.994711 0.0374344 0)
(0.985308 0.0476706 0)
(0.974308 0.0611015 0)
(0.961034 0.0778397 0)
(0.947945 0.101302 0)
(0.932112 0.125411 0)
(1.00005 0.000494161 0)
(1.00046 0.00135606 0)
(1.00117 0.00193158 0)
(1.00199 0.00227172 0)
(1.00281 0.00251313 0)
(1.00364 0.00269855 0)
(1.00451 0.00281459 0)
(1.00539 0.0028685 0)
(1.00626 0.00288313 0)
(1.00712 0.00287307 0)
(1.00797 0.00284453 0)
(1.00879 0.00280277 0)
(1.0096 0.00275336 0)
(1.01039 0.0027007 0)
(1.01116 0.00264769 0)
(1.01191 0.00259629 0)
(1.01265 0.00254782 0)
(1.01337 0.0025031 0)
(1.01408 0.00246254 0)
(1.01477 0.00242627 0)
(1.01546 0.00239422 0)
(1.01613 0.00236623 0)
(1.0168 0.00234208 0)
(1.01746 0.00232157 0)
(1.01811 0.00230456 0)
(1.01876 0.00229097 0)
(1.01939 0.00228084 0)
(1.02002 0.00227432 0)
(1.02064 0.00227172 0)
(1.02125 0.00227354 0)
(1.02185 0.00228049 0)
(1.02244 0.00229361 0)
(1.02302 0.0023143 0)
(1.02358 0.0023445 0)
(1.02411 0.00238677 0)
(1.02463 0.00244452 0)
(1.02511 0.00252222 0)
(1.02555 0.00262565 0)
(1.02595 0.0027623 0)
(1.02628 0.00294178 0)
(1.02654 0.00317644 0)
(1.02672 0.00348212 0)
(1.02677 0.00387914 0)
(1.02669 0.00439358 0)
(1.02642 0.00505886 0)
(1.02594 0.00591789 0)
(1.02517 0.00702568 0)
(1.02406 0.00845282 0)
(1.02251 0.0102899 0)
(1.02043 0.0126533 0)
(1.01767 0.0156929 0)
(1.0141 0.0196013 0)
(1.00953 0.0246285 0)
(1.00376 0.03109 0)
(0.996624 0.0394125 0)
(0.987872 0.0500624 0)
(0.977642 0.0638728 0)
(0.965496 0.0810428 0)
(0.953339 0.104318 0)
(0.939679 0.129309 0)
(1.00005 0.000437553 0)
(1.00041 0.00121509 0)
(1.00106 0.00175793 0)
(1.00184 0.00208868 0)
(1.00264 0.00231825 0)
(1.00346 0.00249308 0)
(1.00431 0.00260569 0)
(1.00518 0.00266029 0)
(1.00605 0.00267665 0)
(1.0069 0.0026692 0)
(1.00774 0.00264438 0)
(1.00856 0.00260696 0)
(1.00937 0.00256205 0)
(1.01016 0.00251383 0)
(1.01093 0.00246511 0)
(1.01168 0.00241773 0)
(1.01241 0.00237296 0)
(1.01314 0.00233158 0)
(1.01384 0.00229405 0)
(1.01454 0.00226049 0)
(1.01523 0.00223088 0)
(1.0159 0.0022051 0)
(1.01657 0.00218298 0)
(1.01723 0.00216437 0)
(1.01788 0.00214917 0)
(1.01852 0.00213737 0)
(1.01916 0.00212905 0)
(1.01979 0.00212442 0)
(1.02041 0.00212387 0)
(1.02102 0.00212797 0)
(1.02162 0.00213754 0)
(1.02221 0.00215372 0)
(1.02279 0.00217808 0)
(1.02335 0.0022127 0)
(1.02389 0.00226037 0)
(1.02441 0.00232474 0)
(1.02489 0.0024106 0)
(1.02534 0.00252412 0)
(1.02575 0.00267327 0)
(1.02609 0.00286826 0)
(1.02637 0.00312221 0)
(1.02656 0.00345193 0)
(1.02664 0.00387894 0)
(1.02659 0.00443082 0)
(1.02637 0.00514288 0)
(1.02593 0.00606037 0)
(1.02524 0.00724117 0)
(1.02421 0.00875936 0)
(1.02278 0.0107098 0)
(1.02084 0.0132136 0)
(1.01827 0.0164264 0)
(1.01494 0.0205462 0)
(1.01068 0.025828 0)
(1.00531 0.0325902 0)
(0.998673 0.0412534 0)
(0.990571 0.0522791 0)
(0.98112 0.0664288 0)
(0.970033 0.0839671 0)
(0.958889 0.107086 0)
(0.946795 0.132568 0)
(1.00004 0.000387796 0)
(1.00037 0.00108696 0)
(1.00097 0.00159329 0)
(1.00172 0.00191091 0)
(1.0025 0.00212823 0)
(1.0033 0.00229196 0)
(1.00413 0.00239983 0)
(1.00499 0.00245416 0)
(1.00585 0.00247174 0)
(1.0067 0.00246652 0)
(1.00754 0.00244505 0)
(1.00836 0.0024117 0)
(1.00916 0.0023711 0)
(1.00995 0.00232717 0)
(1.01072 0.00228261 0)
(1.01147 0.00223916 0)
(1.0122 0.00219801 0)
(1.01293 0.00215995 0)
(1.01364 0.00212541 0)
(1.01433 0.00209455 0)
(1.01502 0.00206738 0)
(1.0157 0.00204381 0)
(1.01636 0.00202373 0)
(1.01702 0.00200703 0)
(1.01767 0.00199366 0)
(1.01832 0.00198364 0)
(1.01896 0.00197712 0)
(1.01959 0.00197437 0)
(1.02021 0.00197585 0)
(1.02082 0.00198219 0)
(1.02142 0.00199431 0)
(1.02201 0.00201348 0)
(1.02259 0.00204138 0)
(1.02316 0.00208027 0)
(1.0237 0.00213314 0)
(1.02422 0.00220387 0)
(1.02471 0.00229753 0)
(1.02517 0.00242068 0)
(1.02558 0.00258173 0)
(1.02594 0.00279147 0)
(1.02623 0.00306375 0)
(1.02645 0.00341625 0)
(1.02655 0.00387165 0)
(1.02653 0.00445892 0)
(1.02636 0.00521515 0)
(1.02598 0.00618774 0)
(1.02536 0.00743725 0)
(1.02443 0.009041 0)
(1.02311 0.0110977 0)
(1.02133 0.013733 0)
(1.01896 0.0171074 0)
(1.01588 0.0214241 0)
(1.01194 0.0269418 0)
(1.00697 0.0339812 0)
(1.00085 0.0429559 0)
(0.993395 0.054321 0)
(0.984723 0.0687733 0)
(0.974649 0.0866182 0)
(0.964544 0.109608 0)
(0.953805 0.135322 0)
(1.00004 0.000343414 0)
(1.00034 0.000969602 0)
(1.00089 0.001437 0)
(1.00161 0.00173819 0)
(1.00237 0.00194255 0)
(1.00316 0.00209479 0)
(1.00398 0.00219683 0)
(1.00483 0.00225001 0)
(1.00568 0.00226835 0)
(1.00652 0.002265 0)
(1.00736 0.00224653 0)
(1.00817 0.00221696 0)
(1.00898 0.00218045 0)
(1.00976 0.00214066 0)
(1.01053 0.00210014 0)
(1.01128 0.00206054 0)
(1.01202 0.00202297 0)
(1.01274 0.0019882 0)
(1.01345 0.00195665 0)
(1.01415 0.00192849 0)
(1.01484 0.00190377 0)
(1.01551 0.00188243 0)
(1.01618 0.00186439 0)
(1.01684 0.0018496 0)
(1.01749 0.00183805 0)
(1.01814 0.00182981 0)
(1.01878 0.00182508 0)
(1.01941 0.00182418 0)
(1.02003 0.00182763 0)
(1.02064 0.00183616 0)
(1.02125 0.00185077 0)
(1.02184 0.00187282 0)
(1.02242 0.00190414 0)
(1.02299 0.00194713 0)
(1.02353 0.00200495 0)
(1.02406 0.00208174 0)
(1.02456 0.00218283 0)
(1.02502 0.00231512 0)
(1.02544 0.00248744 0)
(1.02582 0.00271114 0)
(1.02613 0.0030007 0)
(1.02636 0.00337468 0)
(1.0265 0.00385677 0)
(1.02652 0.00447729 0)
(1.02638 0.00527493 0)
(1.02607 0.0062991 0)
(1.02552 0.00761282 0)
(1.02469 0.00929639 0)
(1.0235 0.011452 0)
(1.02188 0.0142096 0)
(1.01971 0.0177338 0)
(1.01689 0.0222324 0)
(1.01328 0.0279673 0)
(1.00873 0.0352605 0)
(1.00313 0.0445186 0)
(0.996326 0.0561887 0)
(0.98843 0.0709099 0)
(0.979328 0.0890076 0)
(0.970239 0.111885 0)
(0.960733 0.137665 0)
(1.00003 0.000303298 0)
(1.00031 0.000861295 0)
(1.00083 0.0012883 0)
(1.00151 0.00157023 0)
(1.00226 0.00176077 0)
(1.00303 0.00190118 0)
(1.00385 0.00199653 0)
(1.00468 0.00204775 0)
(1.00553 0.00206638 0)
(1.00637 0.00206455 0)
(1.0072 0.00204874 0)
(1.00801 0.00202268 0)
(1.00881 0.00199007 0)
(1.0096 0.00195428 0)
(1.01037 0.0019177 0)
(1.01112 0.00188188 0)
(1.01186 0.00184786 0)
(1.01258 0.00181635 0)
(1.01329 0.00178777 0)
(1.01399 0.00176231 0)
(1.01467 0.00174004 0)
(1.01535 0.00172092 0)
(1.01602 0.00170494 0)
(1.01668 0.00169205 0)
(1.01733 0.00168231 0)
(1.01798 0.00167584 0)
(1.01862 0.00167287 0)
(1.01925 0.0016738 0)
(1.01987 0.00167919 0)
(1.02049 0.00168985 0)
(1.02109 0.00170686 0)
(1.02169 0.00173169 0)
(1.02227 0.00176628 0)
(1.02284 0.00181318 0)
(1.02339 0.00187573 0)
(1.02392 0.00195826 0)
(1.02442 0.00206638 0)
(1.0249 0.00220729 0)
(1.02533 0.00239023 0)
(1.02572 0.00262703 0)
(1.02605 0.0029328 0)
(1.0263 0.00332687 0)
(1.02647 0.0038339 0)
(1.02653 0.00448541 0)
(1.02645 0.00532158 0)
(1.02619 0.00639366 0)
(1.02573 0.00776692 0)
(1.025 0.00952438 0)
(1.02394 0.0117714 0)
(1.02248 0.0146416 0)
(1.02053 0.0183036 0)
(1.01797 0.0229689 0)
(1.0147 0.0289023 0)
(1.01058 0.0364263 0)
(1.0055 0.0459406 0)
(0.999349 0.0578833 0)
(0.992222 0.0728425 0)
(0.984054 0.0911484 0)
(0.97594 0.113926 0)
(0.967559 0.139668 0)
(1.00003 0.000266595 0)
(1.00029 0.000760561 0)
(1.00078 0.00114642 0)
(1.00143 0.00140672 0)
(1.00216 0.00158253 0)
(1.00293 0.00171079 0)
(1.00373 0.00179874 0)
(1.00456 0.00184724 0)
(1.0054 0.00186569 0)
(1.00623 0.00186507 0)
(1.00706 0.00185163 0)
(1.00787 0.00182884 0)
(1.00867 0.00179995 0)
(1.00945 0.00176802 0)
(1.01022 0.00173529 0)
(1.01097 0.00170318 0)
(1.01171 0.00167266 0)
(1.01243 0.00164439 0)
(1.01314 0.00161877 0)
(1.01384 0.00159601 0)
(1.01453 0.00157618 0)
(1.01521 0.0015593 0)
(1.01588 0.00154536 0)
(1.01654 0.00153438 0)
(1.01719 0.00152645 0)
(1.01784 0.00152172 0)
(1.01848 0.0015205 0)
(1.01911 0.00152322 0)
(1.01973 0.00153051 0)
(1.02035 0.00154323 0)
(1.02096 0.00156255 0)
(1.02155 0.00159005 0)
(1.02214 0.00162776 0)
(1.02271 0.00167837 0)
(1.02327 0.00174539 0)
(1.0238 0.00183334 0)
(1.02431 0.00194807 0)
(1.02479 0.00209706 0)
(1.02524 0.00228993 0)
(1.02564 0.00253895 0)
(1.02599 0.0028598 0)
(1.02627 0.00327252 0)
(1.02647 0.00380266 0)
(1.02657 0.00448281 0)
(1.02654 0.00535453 0)
(1.02635 0.00647073 0)
(1.02597 0.0078987 0)
(1.02534 0.00972391 0)
(1.02442 0.0120546 0)
(1.02313 0.0150276 0)
(1.0214 0.0188151 0)
(1.01912 0.0236319 0)
(1.01619 0.0297449 0)
(1.0125 0.037477 0)
(1.00795 0.0472212 0)
(1.00245 0.0594061 0)
(0.996084 0.0745753 0)
(0.988818 0.0930532 0)
(0.981634 0.11574 0)
(0.974275 0.141386 0)
(1.00003 0.000232642 0)
(1.00027 0.000666151 0)
(1.00073 0.00101056 0)
(1.00137 0.00124733 0)
(1.00208 0.00140745 0)
(1.00283 0.00152328 0)
(1.00363 0.00160324 0)
(1.00445 0.00164834 0)
(1.00528 0.00166618 0)
(1.00611 0.00166647 0)
(1.00693 0.00165515 0)
(1.00774 0.00163539 0)
(1.00854 0.00161005 0)
(1.00933 0.00158188 0)
(1.01009 0.00155291 0)
(1.01085 0.00152446 0)
(1.01158 0.00149739 0)
(1.01231 0.00147233 0)
(1.01302 0.00144966 0)
(1.01372 0.00142959 0)
(1.01441 0.0014122 0)
(1.01508 0.00139755 0)
(1.01575 0.00138566 0)
(1.01642 0.00137658 0)
(1.01707 0.00137044 0)
(1.01772 0.00136745 0)
(1.01836 0.00136795 0)
(1.01899 0.00137242 0)
(1.01961 0.00138154 0)
(1.02023 0.00139626 0)
(1.02084 0.00141782 0)
(1.02144 0.00144785 0)
(1.02203 0.00148853 0)
(1.0226 0.00154265 0)
(1.02316 0.00161388 0)
(1.0237 0.00170691 0)
(1.02422 0.0018278 0)
(1.02471 0.00198432 0)
(1.02517 0.0021864 0)
(1.02559 0.00244672 0)
(1.02596 0.00278149 0)
(1.02626 0.00321138 0)
(1.02649 0.00376272 0)
(1.02663 0.00446909 0)
(1.02665 0.00537328 0)
(1.02653 0.00652968 0)
(1.02624 0.00800739 0)
(1.02572 0.00989405 0)
(1.02494 0.0123005 0)
(1.02383 0.0153663 0)
(1.02232 0.0192668 0)
(1.02032 0.0242196 0)
(1.01775 0.0304936 0)
(1.01449 0.0384114 0)
(1.01048 0.04836 0)
(1.00562 0.0607586 0)
(1.00001 0.0761123 0)
(0.993613 0.0947335 0)
(0.987317 0.11734 0)
(0.980884 0.142861 0)
(1.00003 0.000200912 0)
(1.00025 0.000577 0)
(1.0007 0.000879967 0)
(1.00131 0.00109166 0)
(1.00201 0.0012352 0)
(1.00275 0.00133829 0)
(1.00354 0.0014098 0)
(1.00435 0.00145091 0)
(1.00518 0.00146771 0)
(1.00601 0.00146866 0)
(1.00683 0.00145922 0)
(1.00764 0.0014423 0)
(1.00843 0.00142037 0)
(1.00922 0.00139584 0)
(1.00998 0.00137055 0)
(1.01074 0.00134569 0)
(1.01147 0.00132205 0)
(1.0122 0.00130018 0)
(1.01291 0.00128044 0)
(1.01361 0.00126305 0)
(1.0143 0.00124811 0)
(1.01498 0.00123568 0)
(1.01565 0.00122583 0)
(1.01631 0.00121865 0)
(1.01696 0.00121429 0)
(1.01761 0.00121302 0)
(1.01825 0.0012152 0)
(1.01888 0.00122138 0)
(1.01951 0.0012323 0)
(1.02013 0.00124894 0)
(1.02074 0.00127262 0)
(1.02134 0.00130507 0)
(1.02193 0.00134855 0)
(1.02251 0.00140597 0)
(1.02307 0.00148113 0)
(1.02362 0.00157888 0)
(1.02415 0.00170549 0)
(1.02465 0.00186895 0)
(1.02512 0.0020795 0)
(1.02555 0.00235019 0)
(1.02594 0.00269768 0)
(1.02627 0.00314318 0)
(1.02654 0.00371377 0)
(1.02672 0.00444389 0)
(1.0268 0.00537737 0)
(1.02675 0.00656995 0)
(1.02654 0.00809231 0)
(1.02614 0.010034 0)
(1.0255 0.012508 0)
(1.02457 0.0156565 0)
(1.02329 0.0196573 0)
(1.02157 0.0247307 0)
(1.01936 0.0311468 0)
(1.01654 0.0392284 0)
(1.01307 0.0493568 0)
(1.00886 0.0619425 0)
(1.00398 0.0774574 0)
(0.998433 0.0961994 0)
(0.992986 0.118738 0)
(0.987399 0.144129 0)
(1.00003 0.000170977 0)
(1.00024 0.000492198 0)
(1.00067 0.000753909 0)
(1.00126 0.000939316 0)
(1.00195 0.00106545 0)
(1.00268 0.00115551 0)
(1.00346 0.00121818 0)
(1.00427 0.00125479 0)
(1.00509 0.00127019 0)
(1.00592 0.00127154 0)
(1.00673 0.00126379 0)
(1.00754 0.00124953 0)
(1.00834 0.00123087 0)
(1.00912 0.00120989 0)
(1.00989 0.00118821 0)
(1.01064 0.0011669 0)
(1.01138 0.00114664 0)
(1.0121 0.00112794 0)
(1.01281 0.00111113 0)
(1.01351 0.00109641 0)
(1.0142 0.0010839 0)
(1.01488 0.0010737 0)
(1.01555 0.00106588 0)
(1.01622 0.00106058 0)
(1.01687 0.00105799 0)
(1.01752 0.00105841 0)
(1.01816 0.00106225 0)
(1.01879 0.0010701 0)
(1.01942 0.00108274 0)
(1.02004 0.00110123 0)
(1.02065 0.00112694 0)
(1.02126 0.00116168 0)
(1.02185 0.00120779 0)
(1.02243 0.00126829 0)
(1.023 0.00134709 0)
(1.02356 0.00144921 0)
(1.02409 0.00158106 0)
(1.0246 0.00175087 0)
(1.02509 0.00196913 0)
(1.02554 0.00224921 0)
(1.02595 0.00260817 0)
(1.02631 0.00306773 0)
(1.0266 0.00365556 0)
(1.02683 0.00440686 0)
(1.02696 0.00536641 0)
(1.02698 0.00659104 0)
(1.02687 0.00815284 0)
(1.02658 0.0101429 0)
(1.02609 0.0126763 0)
(1.02534 0.0158972 0)
(1.02429 0.0199856 0)
(1.02287 0.0251639 0)
(1.02102 0.0317035 0)
(1.01865 0.039927 0)
(1.01571 0.0502113 0)
(1.01215 0.062959 0)
(1.00801 0.0786144 0)
(1.00328 0.0974598 0)
(0.998644 0.119945 0)
(0.993834 0.145216 0)
(1.00003 0.000142485 0)
(1.00023 0.000410954 0)
(1.00064 0.00063169 0)
(1.00122 0.000789879 0)
(1.0019 0.000897877 0)
(1.00263 0.000974629 0)
(1.0034 0.00102815 0)
(1.0042 0.00105984 0)
(1.00502 0.00107348 0)
(1.00584 0.00107504 0)
(1.00666 0.0010688 0)
(1.00746 0.00105705 0)
(1.00826 0.00104153 0)
(1.00904 0.00102401 0)
(1.00981 0.00100589 0)
(1.01056 0.000988076 0)
(1.0113 0.000971174 0)
(1.01202 0.00095562 0)
(1.01274 0.00094172 0)
(1.01344 0.000929668 0)
(1.01413 0.000919593 0)
(1.01481 0.000911601 0)
(1.01548 0.000905811 0)
(1.01614 0.000902382 0)
(1.0168 0.000901546 0)
(1.01744 0.000903631 0)
(1.01809 0.000909097 0)
(1.01872 0.000918566 0)
(1.01935 0.000932876 0)
(1.01997 0.000953128 0)
(1.02059 0.000980763 0)
(1.02119 0.00101765 0)
(1.02179 0.00106621 0)
(1.02237 0.00112956 0)
(1.02295 0.00121172 0)
(1.02351 0.00131782 0)
(1.02405 0.00145444 0)
(1.02457 0.00162999 0)
(1.02507 0.00185518 0)
(1.02554 0.00214366 0)
(1.02597 0.00251283 0)
(1.02636 0.00298483 0)
(1.02669 0.00358785 0)
(1.02696 0.00435773 0)
(1.02715 0.00534003 0)
(1.02724 0.00659253 0)
(1.02722 0.00818847 0)
(1.02705 0.0102203 0)
(1.02671 0.0128046 0)
(1.02615 0.0160874 0)
(1.02533 0.0202505 0)
(1.02421 0.0255181 0)
(1.02272 0.0321626 0)
(1.0208 0.0405066 0)
(1.01841 0.0509234 0)
(1.01548 0.0638093 0)
(1.01207 0.0795864 0)
(1.00814 0.0985225 0)
(1.00429 0.120971 0)
(1.0002 0.146142 0)
(1.00002 0.00011514 0)
(1.00022 0.000332578 0)
(1.00062 0.000512651 0)
(1.00119 0.000642912 0)
(1.00186 0.000732142 0)
(1.00258 0.000795335 0)
(1.00335 0.000839465 0)
(1.00414 0.000865872 0)
(1.00496 0.000877471 0)
(1.00578 0.000879041 0)
(1.00659 0.000874185 0)
(1.0074 0.000864806 0)
(1.00819 0.000852334 0)
(1.00898 0.000838203 0)
(1.00974 0.000823579 0)
(1.0105 0.000809227 0)
(1.01123 0.000795652 0)
(1.01196 0.000783229 0)
(1.01267 0.000772228 0)
(1.01337 0.000762835 0)
(1.01406 0.000755183 0)
(1.01474 0.000749399 0)
(1.01541 0.000745626 0)
(1.01608 0.000744055 0)
(1.01673 0.000744951 0)
(1.01738 0.000748676 0)
(1.01802 0.000755727 0)
(1.01866 0.00076677 0)
(1.01929 0.000782683 0)
(1.01991 0.000804616 0)
(1.02053 0.000834064 0)
(1.02114 0.000872959 0)
(1.02174 0.00092379 0)
(1.02233 0.000989759 0)
(1.02291 0.00107497 0)
(1.02347 0.00118467 0)
(1.02402 0.00132558 0)
(1.02456 0.00150624 0)
(1.02507 0.00173756 0)
(1.02555 0.00203343 0)
(1.02601 0.00241152 0)
(1.02642 0.00289432 0)
(1.02679 0.00351045 0)
(1.02711 0.00429626 0)
(1.02736 0.00529794 0)
(1.02752 0.00657406 0)
(1.02759 0.00819875 0)
(1.02754 0.0102656 0)
(1.02735 0.0128924 0)
(1.02698 0.0162265 0)
(1.02641 0.0204513 0)
(1.02558 0.0257924 0)
(1.02446 0.0325232 0)
(1.023 0.0409664 0)
(1.02115 0.051493 0)
(1.01886 0.0644945 0)
(1.01617 0.080376 0)
(1.01302 0.0993936 0)
(1.00994 0.121825 0)
(1.00652 0.146926 0)
(1.00002 8.86846e-05 0)
(1.00022 0.000256454 0)
(1.00061 0.000396164 0)
(1.00116 0.000497973 0)
(1.00182 0.000567921 0)
(1.00254 0.000617334 0)
(1.00331 0.000651875 0)
(1.0041 0.000672723 0)
(1.00491 0.000682036 0)
(1.00573 0.000683467 0)
(1.00654 0.000679869 0)
(1.00735 0.00067276 0)