/*--------------------------------*- C++ -*----------------------------------*\
| =========                 |                                                 |
| \\      /  F ield         | OpenFOAM: The Open Source CFD Toolbox           |
|  \\    /   O peration     | Version:  2.4.0                                 |
|   \\  /    A nd           | Web:      www.OpenFOAM.org                      |
|    \\/     M anipulation  |                                                 |
\*---------------------------------------------------------------------------*/
FoamFile
{
    version     2.0;
    format      ascii;
    class       volScalarField;
    location    "0.7";
    object      p;
}
// * * * * * * * * * * * * * * * * * * * * * * * * * * * * * * * * * * * * * //

dimensions      [1 -1 -2 0 0 0 0];

internalField   nonuniform List<scalar> 
2268
(
500.35
500.097
501.953
506.522
515.54
530.758
552.001
575.674
598.658
620.585
641.968
662.921
683.276
702.826
721.321
738.13
752.924
764.695
770.162
769.021
775.973
801.374
827.205
440.974
440.265
441.996
446.469
455.23
470.472
492.119
516.346
539.674
561.741
583.176
604.149
624.526
644.102
662.678
679.728
695.016
708.651
714.967
709.846
709.816
732.471
763.213
380.227
379.276
381.211
385.553
393.664
408.698
431.036
456.497
480.611
502.959
524.498
545.504
565.864
585.363
603.816
620.931
636.453
650.299
657.967
654.065
651.806
669.572
700.163
318.692
317.588
319.658
323.677
330.792
345.427
368.968
396.438
421.703
444.379
466.002
487.052
507.432
526.911
545.33
562.477
578.078
591.655
600.49
600.465
601.047
614.861
640.812
257.064
255.67
257.606
261.25
267.64
281.918
307.26
336.79
363.155
386.077
407.762
428.842
449.243
468.732
487.203
504.474
520.215
533.871
544.29
549.068
553.979
564.224
584.105
195.484
193.815
195.199
198.525
204.919
219.961
246.708
277.549
304.719
327.918
349.783
370.889
391.278
410.763
429.326
446.784
462.789
476.916
488.644
496.736
504.302
512.563
527.617
133.919
132.918
133.343
136.435
144.025
160.12
186.93
217.768
245.608
269.343
291.866
313.222
333.599
353.03
371.682
389.351
405.639
420.13
432.679
442.561
452.173
460.195
472.395
71.987
72.9047
72.8704
76.5327
84.4434
102.265
128.321
157.8
185.639
210.754
234.022
255.695
276.027
295.286
314.115
332.155
348.855
363.659
376.664
387.814
399.074
407.43
419.615
734.585
610.671
644.467
746.953
845.235
904.408
942.355
894.845
899.297
861.258
675.46
510.305
424.651
398.343
429.535
562.502
788.699
926.346
960.674
666.949
507.353
553.391
678.668
785.106
847.249
878.485
818.931
837.417
761.911
514.355
363.984
330.698
334.751
360.022
454.788
653.051
852.632
911.866
570.065
397.88
467.753
606.953
725.335
798.738
839.192
772.549
717.279
512.332
318.049
284.796
282.346
285.06
290.676
314.289
443.314
743.571
867.732
467.798
299.802
393.461
534.053
663.244
759.435
835.148
766.177
538.706
330.125
284.726
278.861
278.591
279.796
281.768
284.807
321.505
556.983
813.791
408.816
250.302
331.32
461.15
593.144
719.073
858.541
747.462
381.24
291.225
278.932
277.921
278.27
279.599
281.424
281.441
290.626
390.672
742.301
388.593
248.025
278.199
383.257
504.151
650.362
851.542
676.203
315.264
281.458
277.635
277.435
278.016
279.477
281.299
280.953
279.757
310.193
636.136
376.723
263.836
231.672
278.084
378.655
538.422
790.908
539.66
296.464
279.053
277.087
277.052
277.756
279.268
280.835
280.472
276.175
277.773
490.263
347.624
241.633
172.357
136.397
151.636
359.435
674.189
433.186
286.456
277.707
276.662
276.698
277.437
278.871
279.974
278.524
273.93
261.465
364.193
19.0027
21.7716
25.1405
28.5709
33.3503
41.4784
54.7595
73.6229
96.2502
119.949
143.512
166.143
186.643
205.322
224.185
242.895
260.323
275.5
288.57
302.204
315.566
324.787
333.301
2.66285
2.32478
3.19648
4.38256
5.51975
6.40395
7.98914
12.3503
20.0345
30.4764
44.0979
59.7707
75.389
89.5836
104.921
123.498
142.167
157.962
169.117
187.845
206.667
216.45
212.738
1.37067
0.974118
0.865424
0.71144
0.574709
0.523209
0.615644
0.737014
0.770244
0.940611
2.79477
7.18599
12.8097
18.1107
24.1901
34.4459
53.367
72.2087
75.4642
93.4729
118.716
125.988
92.3357
0.705696
0.485511
0.466182
0.384558
0.319121
0.324681
0.410853
0.506361
0.569495
0.639152
0.644104
0.677738
0.766614
0.887669
1.00352
1.61641
3.87571
2.16315
-8.83548
-3.09593
27.2538
62.9058
40.3893
0.399947
0.191745
0.205869
0.156543
0.125978
0.13926
0.196428
0.271156
0.328608
0.366059
0.391304
0.425764
0.43517
0.421186
0.501347
0.742543
-0.339017
-8.39648
-9.00596
9.4288
24.5477
22.9845
23.8873
0.19285
0.0692108
0.0307044
-0.00256415
-0.00866146
0.0153287
0.0641355
0.111996
0.151568
0.181475
0.19529
0.193028
0.182929
0.147439
-0.0756691
-0.372151
1.06511
2.56214
-2.05423
-5.01143
3.2882
12.3166
11.7617
-0.021148
-0.0582165
-0.10867
-0.139155
-0.143701
-0.131066
-0.109767
-0.0883297
-0.073201
-0.0654045
-0.0697055
-0.0923336
-0.142057
-0.255005
-0.572368
-0.990408
-0.991711
-0.712281
-0.799006
1.99316
12.1702
10.6418
5.38172
-0.242893
-0.238329
-0.264455
-0.288913
-0.299488
-0.300243
-0.294095
-0.287799
-0.290649
-0.303134
-0.326938
-0.367378
-0.432146
-0.535162
-0.69529
-0.809654
-0.813309
-0.737268
-0.811888
-0.638441
0.497358
7.13627
5.86784
-0.44863
-0.438241
-0.451813
-0.46738
-0.479597
-0.487717
-0.490669
-0.494613
-0.506541
-0.527851
-0.560531
-0.607363
-0.669149
-0.746702
-0.838902
-0.910947
-0.936865
-0.95203
-1.02519
-1.05405
-1.13099
-1.20627
1.19591
-0.646092
-0.642495
-0.653236
-0.663864
-0.675369
-0.686191
-0.695635
-0.707813
-0.725846
-0.751217
-0.786112
-0.831916
-0.887874
-0.952662
-1.02445
-1.08761
-1.11952
-1.13888
-1.17769
-1.25775
-1.36708
-1.1912
0.334721
-0.844828
-0.845564
-0.854349
-0.863577
-0.874902
-0.887449
-0.901309
-0.918441
-0.940434
-0.968798
-1.00528
-1.05041
-1.10331
-1.1628
-1.22664
-1.28666
-1.33388
-1.37436
-1.42319
-1.50786
-1.60136
-1.83477
-2.52815
-1.04247
-1.04464
-1.05201
-1.06103
-1.07277
-1.08713
-1.10377
-1.12406
-1.14909
-1.18011
-1.21816
-1.26356
-1.31593
-1.37468
-1.43854
-1.50436
-1.57215
-1.64927
-1.74721
-1.89647
-2.14427
-2.73806
-3.71322
-1.23672
-1.23977
-1.24647
-1.25583
-1.26824
-1.28403
-1.30279
-1.32562
-1.35329
-1.38663
-1.42619
-1.47249
-1.52588
-1.58671
-1.65538
-1.73219
-1.82107
-1.934
-2.0915
-2.33874
-2.7421
-3.37112
-3.93219
-1.4277
-1.43126
-1.43779
-1.44772
-1.4609
-1.47778
-1.4982
-1.52302
-1.55271
-1.58788
-1.62912
-1.67715
-1.73279
-1.79716
-1.87196
-1.95984
-2.06658
-2.20503
-2.39733
-2.68378
-3.14432
-3.81073
-4.60457
-1.61523
-1.61925
-1.62577
-1.63617
-1.65
-1.66776
-1.68942
-1.71561
-1.74676
-1.78342
-1.8263
-1.8763
-1.93455
-2.00264
-2.08296
-2.17935
-2.2984
-2.45112
-2.6572
-2.95755
-3.42412
-4.02586
-4.78086
-1.79941
-1.80338
-1.81012
-1.82086
-1.83522
-1.85361
-1.87616
-1.9032
-1.93538
-1.97316
-2.01731
-2.06885
-2.12915
-2.20005
-2.28421
-2.38588
-2.51191
-2.67271
-2.8747
-3.1767
-3.61326
-4.29119
-5.04768
-1.97986
-1.98387
-1.99076
-2.00174
-2.01644
-2.0352
-2.05821
-2.08585
-2.11857
-2.15695
-2.20179
-2.25417
-2.31548
-2.38763
-2.47322
-2.57635
-2.70292
-2.86146
-3.06468
-3.34506
-3.74037
-4.33343
-5.12183
-2.15662
-2.16066
-2.16763
-2.17874
-2.1936
-2.21249
-2.23563
-2.2634
-2.29621
-2.33464
-2.37951
-2.43186
-2.49301
-2.56467
-2.64927
-2.75038
-2.87289
-3.02376
-3.21319
-3.45916
-3.79073
-4.26617
-4.86398
-2.32974
-2.33377
-2.34075
-2.35183
-2.36667
-2.38546
-2.40842
-2.43592
-2.46837
-2.50631
-2.55048
-2.60186
-2.66162
-2.73117
-2.81259
-2.9087
-3.02316
-3.16092
-3.32844
-3.53476
-3.79423
-4.13153
-4.54584
-2.49932
-2.50327
-2.51017
-2.52109
-2.53572
-2.55417
-2.57667
-2.60356
-2.63523
-2.67216
-2.715
-2.76458
-2.82186
-2.88797
-2.96451
-3.05352
-3.15759
-3.27982
-3.42379
-3.59347
-3.79362
-4.02721
-4.29602
-2.66545
-2.6693
-2.67603
-2.68668
-2.70091
-2.7188
-2.74058
-2.76656
-2.7971
-2.83258
-2.87353
-2.92062
-2.97457
-3.03629
-3.1069
-3.18775
-3.28051
-3.38697
-3.50879
-3.64715
-3.80207
-3.9697
-4.14674
-2.82827
-2.832
-2.83849
-2.84876
-2.86243
-2.87958
-2.90042
-2.92524
-2.95434
-2.98801
-3.02662
-3.0707
-3.12078
-3.17752
-3.24167
-3.31401
-3.39551
-3.48703
-3.58903
-3.7013
-3.82211
-3.94698
-4.07041
-2.98796
-2.99153
-2.99773
-3.00751
-3.02048
-3.03674
-3.05647
-3.07993
-3.10736
-3.13895
-3.17494
-3.21569
-3.26158
-3.31307
-3.37061
-3.43459
-3.50544
-3.58342
-3.66826
-3.75911
-3.85382
-3.9487
-4.03869
-3.14471
-3.14808
-3.15393
-3.16314
-3.17531
-3.19055
-3.20905
-3.23102
-3.25663
-3.28595
-3.31914
-3.35643
-3.39807
-3.44431
-3.4954
-3.55147
-3.61258
-3.6786
-3.74893
-3.8224
-3.89695
-3.96965
-4.03668
-3.29873
-3.30186
-3.30732
-3.31587
-3.32716
-3.34133
-3.35853
-3.37895
-3.40264
-3.42962
-3.45995
-3.49376
-3.53121
-3.57241
-3.61738
-3.66613
-3.71851
-3.77417
-3.83235
-3.89185
-3.95085
-4.007
-4.05762
-3.45016
-3.45303
-3.45809
-3.46595
-3.47632
-3.48939
-3.50528
-3.52412
-3.54587
-3.57047
-3.59794
-3.62836
-3.66177
-3.69818
-3.73749
-3.77961
-3.82429
-3.87107
-3.91918
-3.96749
-4.01448
-4.05831
-4.09711
-3.59915
-3.60176
-3.60641
-3.61357
-3.62304
-3.63501
-3.64958
-3.66683
-3.68665
-3.70891
-3.73358
-3.76071
-3.79029
-3.82224
-3.85639
-3.89259
-3.93057
-3.96983
-4.00964
-4.04898
-4.08664
-4.1212
-4.15134
-3.74583
-3.74822
-3.75242
-3.75893
-3.76754
-3.77842
-3.7917
-3.80737
-3.82527
-3.84524
-3.86723
-3.89124
-3.91723
-3.94508
-3.9746
-4.00561
-4.03782
-4.07075
-4.10371
-4.13586
-4.16622
-4.19371
-4.21739
-3.89042
-3.8926
-3.89636
-3.90226
-3.91005
-3.91992
-3.93192
-3.946
-3.96201
-3.97978
-3.99923
-4.02033
-4.04301
-4.06714
-4.09256
-4.11906
-4.14634
-4.17396
-4.20129
-4.22764
-4.25224
-4.27425
-4.29303
-4.03316
-4.03511
-4.03847
-4.0438
-4.05083
-4.05974
-4.07049
-4.08301
-4.09717
-4.11282
-4.12989
-4.14831
-4.16799
-4.18881
-4.21064
-4.23325
-4.25634
-4.27947
-4.30214
-4.32376
-4.34375
-4.36148
-4.37649
-4.17424
-4.17599
-4.17898
-4.18378
-4.19009
-4.19808
-4.20761
-4.21862
-4.23098
-4.24464
-4.25951
-4.27549
-4.29249
-4.31041
-4.3291
-4.34834
-4.36782
-4.38714
-4.40589
-4.42362
-4.43989
-4.45424
-4.46635
-4.31385
-4.31543
-4.3181
-4.3224
-4.32801
-4.33509
-4.34344
-4.35299
-4.36367
-4.37547
-4.38833
-4.40212
-4.41674
-4.4321
-4.44805
-4.46434
-4.48067
-4.49672
-4.51215
-4.52666
-4.53991
-4.55157
-4.56141
-4.45219
-4.45363
-4.45601
-4.45981
-4.46474
-4.47091
-4.47809
-4.48627
-4.49542
-4.50554
-4.51657
-4.52839
-4.54091
-4.554
-4.56751
-4.58117
-4.59474
-4.60796
-4.6206
-4.63242
-4.64319
-4.65266
-4.66065
-4.58948
-4.59077
-4.59286
-4.59617
-4.6004
-4.60565
-4.61174
-4.61867
-4.62643
-4.63504
-4.64443
-4.65448
-4.6651
-4.67615
-4.68745
-4.69878
-4.70992
-4.7207
-4.73096
-4.74053
-4.74923
-4.75687
-4.76331
-4.72589
-4.72698
-4.72878
-4.73161
-4.73514
-4.73952
-4.74458
-4.75037
-4.75691
-4.76416
-4.77205
-4.7805
-4.78939
-4.79858
-4.80789
-4.81714
-4.82616
-4.83485
-4.8431
-4.85077
-4.85772
-4.8638
-4.86893
-4.86147
-4.86231
-4.86385
-4.86622
-4.86911
-4.87268
-4.87681
-4.8816
-4.88702
-4.89302
-4.89955
-4.90652
-4.91383
-4.92133
-4.92886
-4.93628
-4.94348
-4.95039
-4.95693
-4.96298
-4.96844
-4.97321
-4.97724
-4.99626
-4.99684
-4.99816
-5.00012
-5.00242
-5.00529
-5.00861
-5.01249
-5.01687
-5.02172
-5.02698
-5.0326
-5.03846
-5.04444
-5.0504
-5.05624
-5.06189
-5.06728
-5.07236
-5.07704
-5.08124
-5.08492
-5.08807
-5.13034
-5.13068
-5.13183
-5.13339
-5.1352
-5.13746
-5.14006
-5.14311
-5.14653
-5.1503
-5.15441
-5.15879
-5.16335
-5.16798
-5.17256
-5.17703
-5.18133
-5.18542
-5.18926
-5.19278
-5.19595
-5.19873
-5.20114
-5.26389
-5.26399
-5.26499
-5.2662
-5.26758
-5.26929
-5.27124
-5.27351
-5.27603
-5.27884
-5.2819
-5.28517
-5.28856
-5.29197
-5.29533
-5.29859
-5.30172
-5.30469
-5.30747
-5.31002
-5.31231
-5.31434
-5.31609
-5.39708
-5.39699
-5.39783
-5.39869
-5.39966
-5.40086
-5.40219
-5.40373
-5.40545
-5.40738
-5.40951
-5.41177
-5.41409
-5.4164
-5.41866
-5.42085
-5.42295
-5.42495
-5.42681
-5.42852
-5.43006
-5.43141
-5.43257
-5.53
-5.52978
-5.53044
-5.53093
-5.5315
-5.53221
-5.53295
-5.53383
-5.53482
-5.53596
-5.53721
-5.53853
-5.53987
-5.54118
-5.54246
-5.54369
-5.54488
-5.54601
-5.54707
-5.54803
-5.54889
-5.54964
-5.55027
-5.66291
-5.66259
-5.66288
-5.66302
-5.66321
-5.66344
-5.66366
-5.66395
-5.66427
-5.66464
-5.66505
-5.66548
-5.6659
-5.66631
-5.6667
-5.66707
-5.66744
-5.66778
-5.6681
-5.66839
-5.66865
-5.66887
-5.66906
335.373
330.103
319.931
304.436
213.452
211.982
204.861
181.412
90.9982
96.0943
102.886
77.7825
39.6001
38.6994
36.2636
32.582
31.5827
33.6495
31.9313
28.0542
13.0506
20.3206
22.2303
20.4964
5.85733
9.61342
18.1209
20.0477
0.561274
4.36545
27.9945
39.5272
0.841708
12.7802
62.0874
87.4378
0.893759
2.95461
4.39781
7.75071
0.829801
2.82184
11.334
20.6781
1.4731
3.61444
-8.92454
-19.422
-4.50013
-5.35513
-6.31532
-4.34148
-4.82535
-4.94029
-5.07537
-5.24363
-5.16013
-5.2809
-5.4042
-5.54605
-5.42028
-5.5518
-5.67993
-5.78302
-5.66344
-5.82805
-5.94149
-6.06558
-5.24621
-5.43834
-5.63347
-5.88457
-4.81706
-4.95507
-5.07092
-5.22316
-4.47766
-4.58032
-4.66653
-4.73892
-4.26329
-4.32958
-4.38579
-4.42775
-4.1485
-4.19161
-4.22732
-4.25484
-4.09402
-4.1242
-4.1491
-4.16834
-4.07693
-4.09878
-4.11695
-4.13118
-4.08743
-4.10351
-4.11695
-4.12762
-4.11959
-4.13162
-4.14167
-4.14967
-4.16854
-4.17768
-4.18531
-4.19137
-4.23071
-4.23775
-4.24362
-4.24827
-4.30346
-4.30895
-4.31353
-4.31712
-4.38476
-4.38911
-4.39274
-4.39558
-4.473
-4.47651
-4.47944
-4.48173
-4.56681
-4.56965
-4.57203
-4.57391
-4.66503
-4.66732
-4.66924
-4.67079
-4.76683
-4.76867
-4.77023
-4.77151
-4.87174
-4.87323
-4.87451
-4.87558
-4.9795
-4.98073
-4.98179
-4.98266
-5.08988
-5.09088
-5.09173
-5.09244
-5.20255
-5.20332
-5.20399
-5.20458
-5.31712
-5.31769
-5.3182
-5.31869
-5.43325
-5.43364
-5.43402
-5.43441
-5.55064
-5.55087
-5.55111
-5.55137
-5.66918
-5.66926
-5.66934
-5.66945
270.433
180.413
92.6083
24.7919
2.96323
91.7821
429.864
307.095
278.152
276.411
276.019
276.204
276.916
277.89
277.373
271.817
267.438
253.463
295.691
121.933
69.0895
38.7611
28.6068
24.1068
66.8503
274.555
276.962
277.017
276.096
275.757
275.775
276.283
276.116
267.747
253.583
245.303
234.989
264.791
37.0615
25.4708
23.5005
17.2859
17.2556
105.968
230.639
274.402
274.839
276.266
276.407
276.219
276.07
261.093
215.428
185.512
181.402
181.277
216.719
26.3362
21.7968
18.2046
9.95739
7.70332
36.5705
96.0327
201.385
269.571
278.535
279.37
280.355
271.044
207.936
125.595
78.6986
95.85
119.076
136.712
21.2365
14.6864
12.1972
11.5503
15.1284
21.9019
27.1813
78.591
184.705
271.613
283.64
308.668
286.448
163.841
51.4509
17.759
69.6854
104.235
91.267
15.6498
8.54569
7.49801
11.2834
16.3835
20.1639
21.0643
15.3601
98.6087
318.917
404.962
377.648
350.14
138.476
16.3005
29.2962
90.5985
115.471
87.922
15.8867
7.46742
6.36442
10.7476
15.9808
19.6237
21.0113
16.9665
53.9391
343.923
475.15
369.35
317.517
106.693
28.3905
62.2274
115.555
131.152
106.275
27.6601
14.0638
8.93187
11.2324
16.3588
21.1952
22.8739
15.8335
66.0675
275.408
357.395
145.192
144.426
52.3875
50.4891
105.59
143.474
140.374
127.377
47.9693
24.0617
12.5734
11.6436
15.2518
24.0755
38.4597
57.7291
106.239
165.835
152.19
47.151
40.8614
13.598
44.1111
118.887
162.599
169.511
140.808
13.4791
16.2628
12.5957
7.18968
8.64668
56.004
132.56
144.78
97.5834
57.4763
28.8896
18.9511
14.4662
7.22605
26.5839
93.5107
140.325
161.469
144.047
23.4566
-10.8437
-13.8664
-11.9989
8.57701
36.6216
61.1108
93.5201
69.5748
-2.56727
-0.182921
5.72596
5.14174
2.93961
6.31246
62.9219
107.834
134.183
119.437
-14.7508
-12.0528
-2.91009
7.22723
26.2063
15.7192
-2.77969
-5.19888
-1.65098
-4.65115
-1.86776
1.38231
1.20983
0.570315
-0.472424
2.29112
32.9266
74.2567
61.1952
12.366
23.4143
20.832
2.49775
-3.41343
-4.34175
-5.13889
-5.68345
-5.05503
-3.95467
-2.0347
-0.580069
-0.710439
-0.949644
-1.30421
-0.931541
2.0043
10.9379
43.7382
-5.56419
-5.5021
-5.2507
-4.89181
-4.40393
-4.36312
-4.22723
-3.84363
-3.7095
-3.29542
-2.52563
-2.08213
-1.99194
-1.88269
-1.80326
-1.72718
-1.24114
4.93171
62.4015
-5.69414
-5.55078
-5.17901
-4.65215
-4.11152
-3.83408
-3.66963
-3.46
-3.29436
-3.18859
-3.07696
-2.97452
-2.77052
-2.50249
-2.23449
-2.04687
-1.81644
1.1499
16.6602
-5.90385
-5.70424
-5.21679
-4.62335
-4.08501
-3.68031
-3.39821
-3.24343
-3.21959
-3.28741
-3.36057
-3.33818
-3.12197
-2.82088
-2.54624
-2.42913
-2.34701
-1.74441
2.63475
-6.17301
-5.92022
-5.36692
-4.7013
-4.10961
-3.67452
-3.3982
-3.27178
-3.27429
-3.35068
-3.42152
-3.38645
-3.19272
-2.92979
-2.68609
-2.57667
-2.45267
-2.75811
-0.546029
-6.08907
-5.88007
-5.37958
-4.7406
-4.1878
-3.78304
-3.52292
-3.38943
-3.35523
-3.36675
-3.36396
-3.29638
-3.14516
-2.95279
-2.7656
-2.65106
-2.54021
-2.74988
-2.0109
-5.49695
-5.54386
-5.14538
-4.64453
-4.20101
-3.86965
-3.64778
-3.51422
-3.44073
-3.39239
-3.33778
-3.25526
-3.13708
-2.99681
-2.8492
-2.73209
-2.61669
-2.66115
-2.30451
-4.85409
-4.86044
-4.73148
-4.44572
-4.14768
-3.90953
-3.73641
-3.6152
-3.5283
-3.45624
-3.38242
-3.29611
-3.19265
-3.07823
-2.95369
-2.84541
-2.71353
-2.70981
-2.27297
-4.48004
-4.49559
-4.43367
-4.27747
-4.09226
-3.92809
-3.79587
-3.69141
-3.6064
-3.53062
-3.45401
-3.36934
-3.27396
-3.17505
-3.07048
-2.98778
-2.88223
-2.99139
-2.80971
-4.28836
-4.3023
-4.26539
-4.17576
-4.05943
-3.94527
-3.8445
-3.75764
-3.68119
-3.60942
-3.53573
-3.45537
-3.36693
-3.279
-3.19127
-3.13379
-3.05759
-3.17682
-3.06592
-4.19198
-4.20156
-4.17825
-4.12293
-4.04689
-3.96579
-3.88881
-3.81843
-3.75359
-3.6908
-3.62464
-3.55052
-3.46787
-3.38754
-3.31229
-3.26953
-3.20539
-3.25768
-2.87526
-4.14898
-4.15612
-4.14064
-4.10352
-4.05108
-3.99223
-3.93366
-3.87849
-3.8268
-3.77579
-3.71969
-3.65296
-3.57589
-3.50176
-3.43628
-3.40374
-3.36096
-3.4106
-3.32127
-4.14116
-4.14643
-4.13552
-4.10898
-4.07095
-4.02711
-3.98256
-3.94072
-3.90257
-3.86555
-3.82253
-3.76583
-3.69522
-3.62615
-3.56643
-3.53542
-3.49244
-3.51998
-3.0818
-4.15985
-4.1635
-4.15507
-4.13473
-4.10555
-4.07166
-4.03738
-4.00691
-3.98273
-3.96265
-3.93709
-3.89354
-3.8304
-3.76494
-3.70693
-3.67395
-3.6267
-3.65289
-3.23266
-4.19905
-4.20152
-4.1941
-4.17741
-4.15375
-4.12624
-4.09919
-4.07852
-4.06889
-4.06879
-4.06417
-4.03512
-3.97905
-3.91572
-3.85688
-3.82167
-3.77889
-3.80789
-3.46173
-4.25411
-4.25578
-4.24885
-4.23461
-4.21459
-4.19115
-4.16924
-4.15701
-4.16125
-4.18115
-4.19643
-4.1801
-4.13037
-4.06941
-4.00902
-3.97722
-3.94196
-3.96458
-3.64134
-4.32157
-4.32237
-4.31645
-4.30438
-4.28722
-4.26679
-4.24881
-4.24309
-4.25772
-4.29244
-4.32181
-4.31452
-4.27126
-4.21508
-4.15975
-4.13735
-4.10244
-4.12052
-3.80476
-4.39907
-4.39952
-4.39472
-4.38491
-4.37063
-4.35313
-4.33821
-4.33567
-4.35357
-4.39359
-4.42908
-4.42716
-4.39293
-4.34761
-4.3017
-4.30115
-4.26203
-4.27814
-3.99009
-4.48456
-4.48506
-4.48153
-4.47411
-4.46303
-4.44895
-4.43642
-4.43332
-4.44592
-4.47944
-4.51103
-4.51408
-4.4959
-4.47114
-4.44222
-4.44788
-4.41589
-4.43271
-4.1614
-4.57629
-4.57705
-4.57479
-4.56967
-4.56187
-4.55163
-4.54168
-4.53693
-4.54081
-4.55895
-4.57842
-4.58887
-4.5938
-4.5944
-4.57818
-4.57248
-4.54046
-4.53879
-4.19837
-4.67286
-4.67388
-4.67269
-4.66953
-4.6646
-4.65814
-4.65158
-4.64753
-4.64685
-4.65158
-4.6611
-4.67946
-4.70241
-4.71526
-4.70347
-4.69399
-4.65793
-4.65874
-4.20782
-4.7733
-4.77448
-4.77411
-4.77243
-4.7697
-4.76632
-4.76318
-4.76185
-4.76223
-4.76408
-4.77095
-4.78951
-4.81352
-4.82713
-4.82062
-4.82222
-4.79481
-4.99783
-4.92152
-4.8771
-4.87834
-4.87856
-4.87798
-4.87689
-4.8757
-4.87506
-4.87603
-4.87902
-4.88332
-4.89087
-4.90401
-4.92021
-4.93023
-4.93004
-4.94761
-4.93466
-5.05855
-5.0552
-4.98393
-4.98522
-4.98591
-4.9862
-4.98635
-4.9868
-4.98782
-4.99003
-4.99436
-5.00017
-5.00752
-5.01672
-5.02642
-5.03377
-5.03572
-5.05432
-5.04263
-5.06701
-5.06429
-5.09352
-5.09488
-5.09599
-5.09699
-5.09811
-5.09978
-5.10202
-5.10505
-5.10998
-5.11643
-5.12392
-5.13112
-5.13773
-5.14336
-5.14513
-5.15989
-5.1477
-5.14907
-5.12121
-5.20553
-5.20695
-5.20838
-5.20994
-5.2118
-5.21433
-5.21745
-5.22122
-5.22658
-5.23312
-5.24063
-5.24706
-5.25271
-5.2583
-5.26078
-5.27391
-5.26859
-5.28856
-5.24088
-5.31954
-5.32094
-5.32256
-5.32452
-5.32694
-5.33008
-5.33386
-5.33833
-5.34412
-5.35072
-5.35805
-5.36416
-5.3699
-5.37591
-5.37977
-5.39239
-5.39305
-5.41011
-5.3745
-5.43513
-5.43641
-5.4381
-5.44034
-5.44319
-5.4468
-5.4511
-5.45617
-5.4623
-5.46901
-5.47617
-5.48245
-5.48863
-5.49473
-5.49962
-5.51146
-5.51044
-5.51641
-5.5243
-5.55188
-5.55296
-5.55464
-5.55704
-5.56022
-5.56422
-5.56898
-5.57457
-5.58098
-5.58784
-5.59493
-5.60159
-5.60846
-5.6153
-5.62215
-5.63376
-5.63309
-5.64079
-5.65667
-5.66966
-5.67035
-5.6719
-5.67437
-5.67781
-5.68218
-5.68745
-5.69362
-5.7004
-5.70737
-5.71442
-5.72112
-5.72889
-5.73707
-5.74733
-5.76021
-5.76224
-5.783
-5.7836
)
;

boundaryField
{
    leftWall
    {
        type            calculated;
        value           nonuniform List<scalar> 
50
(
500.35
440.974
380.227
318.692
257.064
195.484
133.919
71.987
19.0027
2.66285
1.37067
0.705696
0.399947
0.19285
-0.021148
-0.242893
-0.44863
-0.646092
-0.844828
-1.04247
-1.23672
-1.4277
-1.61523
-1.79941
-1.97986
-2.15662
-2.32974
-2.49932
-2.66545
-2.82827
-2.98796
-3.14471
-3.29873
-3.45016
-3.59915
-3.74583
-3.89042
-4.03316
-4.17424
-4.31385
-4.45219
-4.58948
-4.72589
-4.86147
-4.99626
-5.13034
-5.26389
-5.39708
-5.53
-5.66291
)
;
    }
    rightWall
    {
        type            calculated;
        value           nonuniform List<scalar> 
50
(
960.674
911.866
867.732
813.791
742.301
636.136
490.263
364.193
295.691
264.791
216.719
136.712
91.267
87.922
106.275
127.377
140.808
144.047
119.437
61.1952
43.7382
62.4015
16.6602
2.63475
-0.546029
-2.0109
-2.30451
-2.27297
-2.80971
-3.06592
-2.87526
-3.32127
-3.0818
-3.23266
-3.46173
-3.64134
-3.80476
-3.99009
-4.1614
-4.19837
-4.20782
-4.92152
-5.0552
-5.06429
-5.12121
-5.24088
-5.3745
-5.5243
-5.65667
-5.7836
)
;
    }
    lowerWall
    {
        type            calculated;
        value           nonuniform List<scalar> 
62
(
529.779
529.526
531.383
535.951
544.97
560.187
581.431
605.103
628.087
650.015
671.397
692.35
712.705
732.255
750.75
767.559
782.276
792.914
797.975
798.075
805.354
830.755
856.579
827.205
763.213
700.163
640.812
584.105
527.617
472.395
419.615
397.968
392.697
382.524
367.027
734.585
666.949
570.065
467.798
408.816
388.593
376.723
347.624
762.073
640.099
673.894
776.381
874.599
929.957
964.125
914.782
920.278
887.966
702.177
537.013
451.353
425.027
456.181
589.103
815.347
951.779
984.822
)
;
    }
    atmosphere
    {
        type            calculated;
        value           nonuniform List<scalar> 
46
(
-5.72904
-5.72904
-5.72904
-5.72904
-5.72904
-5.72904
-5.72904
-5.72904
-5.72904
-5.72904
-5.72904
-5.72904
-5.72904
-5.72904
-5.72904
-5.72904
-5.72904
-5.72904
-5.72904
-5.72904
-5.72904
-5.72904
-5.72904
-5.72904
-5.72904
-5.72904
-5.72904
-5.72904
-5.7294
-5.73086
-5.73333
-5.73693
-5.74147
-5.74698
-5.75355
-5.76058
-5.7675
-5.77443
-5.78058
-5.78905
-5.79771
-5.81057
-5.82623
-5.82719
-5.86467
-5.84172
)
;
    }
    defaultFaces
    {
        type            empty;
    }
}


// ************************************************************************* //
