/*--------------------------------*- C++ -*----------------------------------*\
| =========                 |                                                 |
| \\      /  F ield         | OpenFOAM: The Open Source CFD Toolbox           |
|  \\    /   O peration     | Version:  2.4.0                                 |
|   \\  /    A nd           | Web:      www.OpenFOAM.org                      |
|    \\/     M anipulation  |                                                 |
\*---------------------------------------------------------------------------*/
FoamFile
{
    version     2.0;
    format      ascii;
    class       surfaceScalarField;
    location    "10";
    object      phi;
}
// * * * * * * * * * * * * * * * * * * * * * * * * * * * * * * * * * * * * * //

dimensions      [0 3 -1 0 0 0 0];

internalField   nonuniform List<scalar> 
19800
(
0.000192364
3.00726e-09
0.000192359
4.98124e-09
0.000192352
7.23261e-09
0.000192345
7.03875e-09
0.000192337
8.01801e-09
0.00019233
7.11612e-09
0.000192322
8.49345e-09
0.000192313
8.10837e-09
0.000192307
6.67897e-09
0.000192291
1.5463e-08
0.000192296
-5.15132e-09
0.000192256
4.06317e-08
0.000192293
-3.69517e-08
0.000192206
8.69977e-08
0.00019228
-7.39172e-08
0.000192163
1.16199e-07
0.000192202
-3.89312e-08
0.000192161
4.08435e-08
0.000192093
6.82778e-08
-3.00388e-08
0.000192123
0.000197699
5.93732e-09
0.000197693
1.02658e-08
0.000197686
1.42474e-08
0.000197679
1.48131e-08
0.000197672
1.52808e-08
0.000197663
1.59121e-08
0.000197656
1.52445e-08
0.000197646
1.82297e-08
0.000197639
1.34166e-08
0.000197629
2.59569e-08
0.000197616
6.85912e-09
0.000197614
4.35805e-08
0.000197582
-5.08953e-09
0.000197601
6.75846e-08
0.000197535
-7.81611e-09
0.000197571
8.02793e-08
0.000197506
2.58607e-08
0.000197479
6.80736e-08
0.000197446
1.01381e-07
1.24719e-07
0.000197291
0.000203181
9.24293e-09
0.000203176
1.57392e-08
0.000203168
2.15726e-08
0.000203161
2.26829e-08
0.000203153
2.30121e-08
0.000203144
2.44332e-08
0.000203137
2.27421e-08
0.000203127
2.79915e-08
0.00020312
2.02574e-08
0.000203108
3.82881e-08
0.000203101
1.32425e-08
0.000203086
5.91719e-08
0.000203077
3.52323e-09
0.000203061
8.38481e-08
0.000203043
1.01278e-08
0.000203032
9.1557e-08
0.000202996
6.17949e-08
0.000202985
7.93046e-08
0.000202934
1.5205e-07
1.24698e-07
0.000202934
0.000208816
1.23873e-08
0.00020881
2.13016e-08
0.000208802
2.90231e-08
0.000208795
3.06918e-08
0.000208787
3.11046e-08
0.000208778
3.28934e-08
0.00020877
3.10277e-08
0.000208762
3.65501e-08
0.000208752
2.97785e-08
0.000208744
4.62098e-08
0.00020873
2.72646e-08
0.000208726
6.33494e-08
0.000208702
2.70107e-08
0.000208704
8.18877e-08
0.000208672
4.26347e-08
0.00020867
9.285e-08
0.000208646
8.5915e-08
0.000208621
1.04441e-07
0.000208631
1.41859e-07
1.35566e-07
0.000208621
0.000214606
1.59894e-08
0.0002146
2.71417e-08
0.000214593
3.67406e-08
0.000214585
3.89681e-08
0.000214576
3.94189e-08
0.000214568
4.13881e-08
0.000214559
3.95369e-08
0.000214551
4.52116e-08
0.000214541
3.92041e-08
0.000214533
5.45981e-08
0.00021452
3.96952e-08
0.000214514
7.00349e-08
0.000214496
4.49849e-08
0.000214492
8.61312e-08
0.000214469
6.49206e-08
0.000214464
9.85355e-08
0.000214447
1.0282e-07
0.000214438
1.13658e-07
0.000214441
1.38982e-07
1.39232e-07
0.000214437
0.000220558
1.93284e-08
0.000220552
3.30367e-08
0.000220544
4.45352e-08
0.000220536
4.73747e-08
0.000220527
4.80039e-08
0.000220519
5.00357e-08
0.00022051
4.82985e-08
0.000220502
5.36426e-08
0.000220491
4.90988e-08
0.000220483
6.25475e-08
0.000220471
5.24511e-08
0.000220464
7.63017e-08
0.000220448
6.15738e-08
0.000220443
9.09285e-08
0.000220426
8.22131e-08
0.00022042
1.04759e-07
0.000220411
1.11823e-07
0.000220404
1.19946e-07
0.000220409
1.34426e-07
1.34312e-07
0.000220414
0.000226674
2.32971e-08
0.000226668
3.92166e-08
0.00022666
5.25981e-08
0.000226651
5.60222e-08
0.000226642
5.68122e-08
0.000226634
5.86777e-08
0.000226625
5.72719e-08
0.000226616
6.20576e-08
0.000226606
5.89815e-08
0.000226598
7.03321e-08
0.000226587
6.44218e-08
0.00022658
8.28227e-08
0.000226566
7.57112e-08
0.000226561
9.64859e-08
0.000226548
9.50362e-08
0.000226543
1.10098e-07
0.000226538
1.16854e-07
0.000226535
1.22209e-07
0.000226541
1.2884e-07
1.26532e-07
0.000226549
0.00023296
2.68208e-08
0.000232954
4.54534e-08
0.000232946
6.07004e-08
0.000232937
6.48245e-08
0.000232928
6.58096e-08
0.00023292
6.75229e-08
0.000232911
6.62876e-08
0.000232902
7.04649e-08
0.000232892
6.87863e-08
0.000232884
7.82491e-08
0.000232873
7.56139e-08
0.000232866
8.96459e-08
0.000232854
8.75451e-08
0.000232849
1.02209e-07
0.00023284
1.04236e-07
0.000232836
1.1414e-07
0.000232833
1.1903e-07
0.000232834
1.21548e-07
0.00023284
1.2273e-07
1.17896e-07
0.000232849
0.00023942
3.10649e-08
0.000239414
5.20041e-08
0.000239406
6.90923e-08
0.000239396
7.38945e-08
0.000239387
7.49586e-08
0.000239378
7.63601e-08
0.000239369
7.54332e-08
0.000239361
7.89056e-08
0.000239351
7.82739e-08
0.000239343
8.603e-08
0.000239333
8.57193e-08
0.000239327
9.64191e-08
0.000239317
9.72607e-08
0.000239312
1.07589e-07
0.000239305
1.10654e-07
0.000239303
1.16758e-07
0.000239303
1.19202e-07
0.000239305
1.18979e-07
0.000239312
1.16358e-07
1.09367e-07
0.00023932
0.00024606
3.47475e-08
0.000246054
5.85654e-08
0.000246045
7.75103e-08
0.000246036
8.30649e-08
0.000246027
8.42743e-08
0.000246018
8.53823e-08
0.000246009
8.44854e-08
0.000246
8.73528e-08
0.000245991
8.7537e-08
0.000245983
9.38582e-08
0.000245974
9.49648e-08
0.000245967
1.03051e-07
0.000245959
1.05198e-07
0.000245955
1.12281e-07
0.000245951
1.14907e-07
0.000245949
1.17982e-07
0.000245951
1.17916e-07
0.000245954
1.15241e-07
0.000245961
1.09926e-07
1.0133e-07
0.000245969
0.000252883
3.93205e-08
0.000252877
6.54449e-08
0.000252868
8.62002e-08
0.000252859
9.24651e-08
0.000252849
9.37108e-08
0.00025284
9.43772e-08
0.000252831
9.35875e-08
0.000252822
9.57696e-08
0.000252814
9.63439e-08
0.000252806
1.01375e-07
0.000252798
1.03162e-07
0.000252792
1.09194e-07
0.000252786
1.11557e-07
0.000252782
1.16089e-07
0.00025278
1.17484e-07
0.00025278
1.18004e-07
0.000252782
1.15617e-07
0.000252786
1.10832e-07
0.000252793
1.03595e-07
9.39259e-08
0.0002528
0.000259897
4.31422e-08
0.00025989
7.22896e-08
0.000259881
9.49196e-08
0.000259872
1.01968e-07
0.000259863
1.03247e-07
0.000259853
1.03525e-07
0.000259844
1.0256e-07
0.000259836
1.04139e-07
0.000259827
1.04873e-07
0.00025982
1.08736e-07
0.000259812
1.10592e-07
0.000259807
1.14819e-07
0.000259802
1.16629e-07
0.000259799
1.18954e-07
0.000259798
1.18733e-07
0.000259799
1.17036e-07
0.000259802
1.12593e-07
0.000259807
1.06096e-07
0.000259813
9.75059e-08
8.71687e-08
0.00025982
0.000267104
4.79457e-08
0.000267097
7.94701e-08
0.000267088
1.03935e-07
0.000267078
1.11663e-07
0.000267068
1.1287e-07
0.000267059
1.12644e-07
0.00026705
1.11508e-07
0.000267042
1.12338e-07
0.000267034
1.12861e-07
0.000267027
1.15591e-07
0.000267021
1.17072e-07
0.000267016
1.1971e-07
0.000267012
1.20519e-07
0.00026701
1.20881e-07
0.00026701
1.18937e-07
0.000267012
1.15278e-07
0.000267016
1.09107e-07
0.00026702
1.01243e-07
0.000267026
9.17132e-08
8.10278e-08
0.000267032
0.000274512
5.18656e-08
0.000274505
8.65628e-08
0.000274496
1.12945e-07
0.000274486
1.21449e-07
0.000274476
1.22551e-07
0.000274467
1.21833e-07
0.000274458
1.20309e-07
0.00027445
1.20434e-07
0.000274442
1.20553e-07
0.000274435
1.22141e-07
0.00027443
1.22876e-07
0.000274426
1.23944e-07
0.000274423
1.23447e-07
0.000274422
1.2197e-07
0.000274422
1.18305e-07
0.000274425
1.12945e-07
0.000274429
1.05336e-07
0.000274433
9.64184e-08
0.000274439
8.62746e-08
7.5456e-08
0.000274444
0.000282124
5.69311e-08
0.000282116
9.4012e-08
0.000282107
1.22212e-07
0.000282097
1.31367e-07
0.000282087
1.32272e-07
0.000282078
1.30946e-07
0.000282069
1.28981e-07
0.000282062
1.28221e-07
0.000282055
1.27654e-07
0.000282049
1.28066e-07
0.000282044
1.27828e-07
0.000282041
1.27389e-07
0.000282039
1.25471e-07
0.000282038
1.22282e-07
0.00028204
1.17009e-07
0.000282042
1.10186e-07
0.000282046
1.01392e-07
0.000282051
9.17101e-08
0.000282056
8.11865e-08
7.03936e-08
0.000282061
0.000289948
6.09088e-08
0.000289941
1.01302e-07
0.000289932
1.3148e-07
0.000289922
1.41355e-07
0.000289912
1.42033e-07
0.000289903
1.40104e-07
0.000289894
1.37509e-07
0.000289886
1.35858e-07
0.00028988
1.34441e-07
0.000289874
1.33612e-07
0.00028987
1.32169e-07
0.000289867
1.302e-07
0.000289866
1.26765e-07
0.000289866
1.21959e-07
0.000289868
1.15227e-07
0.000289871
1.07124e-07
0.000289875
9.74281e-08
0.00028988
8.71792e-08
0.000289884
7.64584e-08
6.58165e-08
0.000289889
0.000297988
6.61303e-08
0.000297981
1.08998e-07
0.000297971
1.4098e-07
0.000297961
1.51419e-07
0.000297951
1.51814e-07
0.000297942
1.49127e-07
0.000297934
1.45766e-07
0.000297927
1.4305e-07
0.000297921
1.40597e-07
0.000297916
1.38474e-07
0.000297912
1.35751e-07
0.00029791
1.32278e-07
0.00029791
1.27363e-07
0.000297911
1.21074e-07
0.000297913
1.13029e-07
0.000297916
1.03883e-07
0.00029792
9.34667e-08
0.000297925
8.28508e-08
0.000297929
7.2076e-08
6.16449e-08
0.000297933
0.000306253
7.01139e-08
0.000306246
1.16441e-07
0.000306236
1.50477e-07
0.000306226
1.61521e-07
0.000306216
1.61584e-07
0.000306207
1.58158e-07
0.000306199
1.53903e-07
0.000306192
1.5007e-07
0.000306186
1.46443e-07
0.000306181
1.4294e-07
0.000306178
1.388e-07
0.000306177
1.33812e-07
0.000306177
1.27428e-07
0.000306178
1.19759e-07
0.000306181
1.10569e-07
0.000306184
1.00556e-07
0.000306188
8.95984e-08
0.000306192
7.87597e-08
0.000306196
6.80272e-08
5.78573e-08
0.0003062
0.000314745
7.54864e-08
0.000314737
1.24329e-07
0.000314727
1.60149e-07
0.000314717
1.71642e-07
0.000314707
1.71296e-07
0.000314699
1.66949e-07
0.000314691
1.61638e-07
0.000314685
1.56547e-07
0.000314679
1.51639e-07
0.000314676
1.4673e-07
0.000314673
1.41172e-07
0.000314673
1.34728e-07
0.000314673
1.26965e-07
0.000314675
1.1806e-07
0.000314678
1.07896e-07
0.000314681
9.71635e-08
0.000314685
8.58413e-08
0.000314689
7.48873e-08
0.000314692
6.42753e-08
5.43992e-08
0.000314696
0.000323475
7.94379e-08
0.000323467
1.31895e-07
0.000323457
1.69786e-07
0.000323447
1.81779e-07
0.000323438
1.80979e-07
0.000323429
1.75742e-07
0.000323421
1.69275e-07
0.000323415
1.6285e-07
0.00032341
1.56549e-07
0.000323406
1.5014e-07
0.000323404
1.43109e-07
0.000323404
1.35207e-07
0.000323405
1.26133e-07
0.000323407
1.16115e-07
0.00032341
1.05092e-07
0.000323413
9.38231e-08
0.000323417
8.22248e-08
0.00032342
7.12566e-08
0.000323424
6.08171e-08
5.12424e-08
0.000323427
0.000332444
8.486e-08
0.000332436
1.39944e-07
0.000332426
1.79555e-07
0.000332416
1.91865e-07
0.000332406
1.90549e-07
0.000332398
1.84176e-07
0.000332391
1.76396e-07
0.000332385
1.6855e-07
0.000332381
1.60798e-07
0.000332379
1.52923e-07
0.000332377
1.4445e-07
0.000332377
1.35194e-07
0.000332379
1.24921e-07
0.000332381
1.13919e-07
0.000332384
1.02205e-07
0.000332387
9.05017e-08
0.000332391
7.87569e-08
0.000332394
6.78408e-08
0.000332397
5.76121e-08
4.83534e-08
0.0003324
0.000341665
8.87555e-08
0.000341657
1.47588e-07
0.000341647
1.89255e-07
0.000341637
2.01964e-07
0.000341628
2.00058e-07
0.000341619
1.92594e-07
0.000341612
1.83433e-07
0.000341607
1.74075e-07
0.000341603
1.6479e-07
0.0003416
1.55368e-07
0.000341599
1.45446e-07
0.0003416
1.3486e-07
0.000341601
1.23471e-07
0.000341603
1.116e-07
0.000341606
9.93104e-08
0.00034161
8.72778e-08
0.000341613
7.54634e-08
0.000341616
6.46524e-08
0.000341619
5.46547e-08
4.57098e-08
0.000341622
0.000351138
9.41952e-08
0.00035113
1.55744e-07
0.00035112
1.99042e-07
0.00035111
2.11971e-07
0.000351101
2.09332e-07
0.000351093
2.00534e-07
0.000351087
1.89863e-07
0.000351082
1.78957e-07
0.000351079
1.68136e-07
0.000351077
1.57235e-07
0.000351077
1.45938e-07
0.000351077
1.34138e-07
0.000351079
1.21753e-07
0.000351082
1.09153e-07
0.000351084
9.63804e-08
0.000351088
8.41413e-08
0.000351091
7.23221e-08
0.000351094
6.16574e-08
0.000351097
5.19107e-08
4.3279e-08
0.000351099
0.000360877
9.79969e-08
0.00036087
1.63415e-07
0.00036086
2.08737e-07
0.00036085
2.21943e-07
0.000360841
2.18555e-07
0.000360833
2.08465e-07
0.000360827
1.96227e-07
0.000360822
1.83691e-07
0.000360819
1.71256e-07
0.000360817
1.5884e-07
0.000360817
1.46168e-07
0.000360818
1.33207e-07
0.00036082
1.19912e-07
0.000360822
1.06655e-07
0.000360825
9.35297e-08
0.000360828
8.11227e-08
0.000360831
6.93617e-08
0.000360834
5.88681e-08
0.000360837
4.93753e-08
4.10496e-08
0.000360839
0.000370884
1.03359e-07
0.000370876
1.71605e-07
0.000370866
2.18442e-07
0.000370856
2.31736e-07
0.000370847
2.27444e-07
0.00037084
2.15834e-07
0.000370835
2.01954e-07
0.000370831
1.87773e-07
0.000370828
1.73781e-07
0.000370827
1.59921e-07
0.000370827
1.45989e-07
0.000370829
1.31976e-07
0.000370831
1.17889e-07
0.000370833
1.04103e-07
0.000370836
9.06892e-08
0.000370839
7.82163e-08
0.000370842
6.65472e-08
0.000370844
5.62518e-08
0.000370847
4.702e-08
3.89899e-08
0.000370849
0.000381171
1.07023e-07
0.000381163
1.79223e-07
0.000381154
2.28074e-07
0.000381144
2.41518e-07
0.000381135
2.3628e-07
0.000381128
2.23189e-07
0.000381122
2.07605e-07
0.000381118
1.91722e-07
0.000381116
1.76112e-07
0.000381115
1.60803e-07
0.000381115
1.45627e-07
0.000381117
1.30626e-07
0.000381119
1.15822e-07
0.000381121
1.01581e-07
0.000381124
8.79521e-08
0.000381127
7.54507e-08
0.00038113
6.39044e-08
0.000381132
5.38123e-08
0.000381134
4.48421e-08
3.70931e-08
0.000381136
0.00039174
1.12215e-07
0.000391732
1.87376e-07
0.000391722
2.37659e-07
0.000391713
2.51014e-07
0.000391704
2.44655e-07
0.000391698
2.29911e-07
0.000391693
2.12597e-07
0.00039169
1.95034e-07
0.000391688
1.77893e-07
0.000391688
1.61226e-07
0.000391688
1.44929e-07
0.00039169
1.29054e-07
0.000391692
1.13641e-07
0.000391695
9.90378e-08
0.000391697
8.52709e-08
0.0003917
7.27908e-08
0.000391703
6.13968e-08
0.000391705
5.15225e-08
0.000391707
4.28135e-08
3.53382e-08
0.000391709
0.000402605
1.15677e-07
0.000402598
1.94918e-07
0.000402588
2.47155e-07
0.000402579
2.6051e-07
0.000402571
2.53004e-07
0.000402564
2.36625e-07
0.000402559
2.17518e-07
0.000402556
1.98236e-07
0.000402554
1.79522e-07
0.000402554
1.61513e-07
0.000402555
1.44124e-07
0.000402557
1.27432e-07
0.000402559
1.11476e-07
0.000402561
9.65764e-08
0.000402564
8.27042e-08
0.000402566
7.0275e-08
0.000402569
5.90464e-08
0.000402571
4.93913e-08
0.000402573
4.0933e-08
3.37188e-08
0.000402574
0.000413769
1.20612e-07
0.000413761
2.02921e-07
0.000413752
2.56466e-07
0.000413742
2.6961e-07
0.000413735
2.60811e-07
0.000413729
2.42697e-07
0.000413725
2.21807e-07
0.000413722
2.00854e-07
0.000413721
1.80666e-07
0.000413721
1.61414e-07
0.000413722
1.4305e-07
0.000413724
1.25646e-07
0.000413726
1.09252e-07
0.000413729
9.411e-08
0.000413731
8.02094e-08
0.000413734
6.78658e-08
0.000413736
5.68182e-08
0.000413738
4.73893e-08
0.00041374
3.91794e-08
3.22122e-08
0.000413741
0.000425245
1.23839e-07
0.000425238
2.10344e-07
0.000425229
2.65754e-07
0.00042522
2.78695e-07
0.000425212
2.68589e-07
0.000425206
2.48722e-07
0.000425202
2.2602e-07
0.000425199
2.0336e-07
0.000425198
1.81699e-07
0.000425198
1.61225e-07
0.0004252
1.41928e-07
0.000425201
1.23874e-07
0.000425204
1.0707e-07
0.000425206
9.17612e-08
0.000425208
7.78313e-08
0.000425211
6.55969e-08
0.000425213
5.4736e-08
0.000425215
4.55233e-08
0.000425216
3.75506e-08
3.08146e-08
0.000425218
0.000437037
1.2842e-07
0.000437029
2.18155e-07
0.00043702
2.74711e-07
0.000437011
2.87255e-07
0.000437004
2.75748e-07
0.000436999
2.54115e-07
0.000436995
2.29628e-07
0.000436993
2.05353e-07
0.000436993
1.82304e-07
0.000436993
1.60722e-07
0.000436995
1.40596e-07
0.000436997
1.21979e-07
0.000436999
1.04863e-07
0.000437001
8.94237e-08
0.000437004
7.55333e-08
0.000437006
6.34243e-08
0.000437008
5.27637e-08
0.00043701
4.3769e-08
0.000437011
3.6027e-08
2.95151e-08
0.000437012
0.000449158
1.3137e-07
0.000449151
2.25389e-07
0.000449142
2.83667e-07
0.000449134
2.95815e-07
0.000449126
2.82884e-07
0.000449121
2.59449e-07
0.000449118
2.33163e-07
0.000449116
2.07252e-07
0.000449115
1.82838e-07
0.000449116
1.60176e-07
0.000449117
1.39264e-07
0.000449119
1.20133e-07
0.000449121
1.02744e-07
0.000449124
8.72011e-08
0.000449126
7.33578e-08
0.000449128
6.13858e-08
0.00044913
5.09166e-08
0.000449131
4.2135e-08
0.000449133
3.46095e-08
2.83088e-08
0.000449134
0.000461613
1.35553e-07
0.000461605
2.32846e-07
0.000461597
2.92139e-07
0.000461589
3.03757e-07
0.000461582
2.89382e-07
0.000461578
2.64181e-07
0.000461575
2.36155e-07
0.000461574
2.08703e-07
0.000461573
1.83014e-07
0.000461574
1.59376e-07
0.000461576
1.3777e-07
0.000461578
1.18215e-07
0.00046158
1.006e-07
0.000461582
8.50222e-08
0.000461584
7.1257e-08
0.000461586
5.9434e-08
0.000461588
4.91668e-08
0.000461589
4.05952e-08
0.000461591
3.32794e-08
2.71814e-08
0.000461592
0.000474416
1.38173e-07
0.000474409
2.39709e-07
0.000474401
3.006e-07
0.000474393
3.11715e-07
0.000474386
2.95854e-07
0.000474382
2.6887e-07
0.000474379
2.3908e-07
0.000474378
2.10099e-07
0.000474378
1.83156e-07
0.000474378
1.58577e-07
0.00047438
1.36322e-07
0.000474382
1.16362e-07
0.000474384
9.85765e-08
0.000474386
8.2952e-08
0.000474388
6.9278e-08
0.00047439
5.76063e-08
0.000474391
4.75283e-08
0.000474393
3.91569e-08
0.000474394
3.2039e-08
2.61314e-08
0.000474395
0.000487571
1.41882e-07
0.000487564
2.46677e-07
0.000487556
3.08463e-07
0.000487549
3.18983e-07
0.000487543
3.01682e-07
0.000487539
2.72968e-07
0.000487537
2.41517e-07
0.000487536
2.11087e-07
0.000487536
1.82998e-07
0.000487537
1.57568e-07
0.000487539
1.34746e-07
0.00048754
1.14464e-07
0.000487543
9.65406e-08
0.000487545
8.09348e-08
0.000487546
6.73661e-08
0.000487548
5.58598e-08
0.00048755
4.59743e-08
0.000487551
3.78005e-08
0.000487552
3.08747e-08
2.51466e-08
0.000487553
0.000501094
1.4409e-07
0.000501088
2.53018e-07
0.00050108
3.1628e-07
0.000501073
3.26264e-07
0.000501067
3.07492e-07
0.000501063
2.77046e-07
0.000501061
2.43918e-07
0.00050106
2.12064e-07
0.00050106
1.82846e-07
0.000501061
1.566e-07
0.000501063
1.33241e-07
0.000501064
1.12665e-07
0.000501066
9.46187e-08
0.000501068
7.90288e-08
0.00050107
6.55718e-08
0.000501072
5.42204e-08
0.000501073
4.45215e-08
0.000501074
3.65315e-08
0.000501075
2.97888e-08
2.42283e-08
0.000501076
0.000514989
1.47315e-07
0.000514982
2.59381e-07
0.000514975
3.23443e-07
0.000514969
3.32812e-07
0.000514964
3.12641e-07
0.00051496
2.80541e-07
0.000514958
2.45848e-07
0.000514958
2.12665e-07
0.000514958
1.82427e-07
0.000514959
1.55451e-07
0.000514961
1.31644e-07
0.000514963
1.10817e-07
0.000514965
9.27147e-08
0.000514967
7.71728e-08
0.000514968
6.38386e-08
0.00051497
5.26549e-08
0.000514971
4.31413e-08
0.000514973
3.53322e-08
0.000514974
2.87663e-08
2.3365e-08
0.000514974
0.000529272
1.49076e-07
0.000529266
2.65052e-07
0.000529259
3.30529e-07
0.000529253
3.39364e-07
0.000529248
3.17793e-07
0.000529245
2.84033e-07
0.000529243
2.47783e-07
0.000529242
2.13287e-07
0.000529243
1.82049e-07
0.000529244
1.54376e-07
0.000529245
1.30127e-07
0.000529247
1.09093e-07
0.000529249
9.09131e-08
0.000529251
7.54256e-08
0.000529252
6.22151e-08
0.000529254
5.11842e-08
0.000529255
4.18471e-08
0.000529256
3.42084e-08
0.000529257
2.78075e-08
2.25563e-08
0.000529258
0.000543948
1.51766e-07
0.000543943
2.70752e-07
0.000543936
3.36929e-07
0.000543931
3.4516e-07
0.000543926
3.2225e-07
0.000543923
2.86945e-07
0.000543922
2.49242e-07
0.000543922
2.13556e-07
0.000543922
1.8142e-07
0.000543924
1.5314e-07
0.000543925
1.28533e-07
0.000543927
1.07329e-07
0.000543929
8.91389e-08
0.00054393
7.37218e-08
0.000543932
6.065e-08
0.000543933
4.97792e-08
0.000543935
4.06188e-08
0.000543936
3.31464e-08
0.000543937
2.69044e-08
2.17975e-08
0.000543937
0.000559035
1.53051e-07
0.00055903
2.75724e-07
0.000559024
3.43234e-07
0.000559018
3.50949e-07
0.000559014
3.2672e-07
0.000559011
2.89863e-07
0.000559009
2.50732e-07
0.000559009
2.13864e-07
0.00055901
1.80856e-07
0.000559011
1.51986e-07
0.000559012
1.2704e-07
0.000559014
1.05673e-07
0.000559016
8.74626e-08
0.000559017
7.21216e-08
0.000559019
5.9178e-08
0.00055902
4.84614e-08
0.000559021
3.94651e-08
0.000559022
3.21521e-08
0.000559023
2.60576e-08
2.10868e-08
0.000559024
0.000574537
1.55263e-07
0.000574531
2.80732e-07
0.000574526
3.48831e-07
0.000574521
3.5595e-07
0.000574517
3.3046e-07
0.000574515
2.92186e-07
0.000574514
2.51743e-07
0.000574514
2.13832e-07
0.000574515
1.80053e-07
0.000574516
1.50696e-07
0.000574518
1.25465e-07
0.000574519
1.04005e-07
0.000574521
8.58125e-08
0.000574523
7.05606e-08
0.000574524
5.77605e-08
0.000574525
4.71999e-08
0.000574526
3.83671e-08
0.000574527
3.12094e-08
0.000574528
2.52566e-08
2.04167e-08
0.000574529
0.000590471
1.56143e-07
0.000590467
2.85045e-07
0.000590461
3.54321e-07
0.000590457
3.60928e-07
0.000590453
3.34197e-07
0.000590451
2.94514e-07
0.00059045
2.52786e-07
0.00059045
2.13843e-07
0.00059045
1.79328e-07
0.000590452
1.4948e-07
0.000590453
1.24003e-07
0.000590455
1.02426e-07
0.000590456
8.42557e-08
0.000590458
6.90946e-08
0.000590459
5.64226e-08
0.00059046
4.60117e-08
0.000590461
3.73326e-08
0.000590462
3.03207e-08
0.000590463
2.4503e-08
1.97856e-08
0.000590464
0.000606845
1.57783e-07
0.00060684
2.89371e-07
0.000606835
3.59115e-07
0.000606831
3.65118e-07
0.000606828
3.37234e-07
0.000606827
2.96258e-07
0.000606826
2.53384e-07
0.000606826
2.13534e-07
0.000606827
1.78385e-07
0.000606829
1.48147e-07
0.00060683
1.22467e-07
0.000606832
1.00849e-07
0.000606833
8.27193e-08
0.000606835
6.76679e-08
0.000606836
5.51347e-08
0.000606837
4.48759e-08
0.000606838
3.63483e-08
0.000606839
2.94782e-08
0.00060684
2.37904e-08
1.91889e-08
0.00060684
0.000623675
1.58345e-07
0.000623671
2.9311e-07
0.000623667
3.63753e-07
0.000623663
3.69218e-07
0.00062366
3.40186e-07
0.000623658
2.9797e-07
0.000623658
2.53974e-07
0.000623658
2.13262e-07
0.000623659
1.775e-07
0.00062366
1.46895e-07
0.000623662
1.21022e-07
0.000623663
9.9351e-08
0.000623665
8.12705e-08
0.000623666
6.63192e-08
0.000623667
5.39206e-08
0.000623668
4.38031e-08
0.000623669
3.5422e-08
0.00062367
2.86835e-08
0.000623671
2.312e-08
1.86266e-08
0.000623671
0.000640969
1.59523e-07
0.000640966
2.96736e-07
0.000640962
3.6767e-07
0.000640958
3.72548e-07
0.000640956
3.42489e-07
0.000640955
2.99134e-07
0.000640955
2.54168e-07
0.000640955
2.12696e-07
0.000640956
1.76435e-07
0.000640958
1.45528e-07
0.000640959
1.19535e-07
0.000640961
9.78557e-08
0.000640962
7.98406e-08
0.000640964
6.50088e-08
0.000640965
5.27486e-08
0.000640966
4.27747e-08
0.000640967
3.45371e-08
0.000640967
2.79269e-08
0.000640968
2.24835e-08
1.80937e-08
0.000640969
0.000658746
1.59786e-07
0.000658743
2.9985e-07
0.000658739
3.71428e-07
0.000658736
3.75754e-07
0.000658734
3.44668e-07
0.000658733
3.00245e-07
0.000658733
2.54336e-07
0.000658733
2.12163e-07
0.000658734
1.75419e-07
0.000658736
1.44246e-07
0.000658737
1.18119e-07
0.000658738
9.64374e-08
0.00065874
7.8492e-08
0.000658741
6.3765e-08
0.000658742
5.16396e-08
0.000658743
4.18001e-08
0.000658744
3.3699e-08
0.000658745
2.72113e-08
0.000658745
2.18805e-08
1.75894e-08
0.000658746
0.000677013
1.60452e-07
0.00067701
3.02705e-07
0.000677007
3.74458e-07
0.000677005
3.78253e-07
0.000677003
3.46266e-07
0.000677002
3.00883e-07
0.000677003
2.54155e-07
0.000677003
2.11382e-07
0.000677005
1.74243e-07
0.000677006
1.42862e-07
0.000677007
1.16679e-07
0.000677009
9.50157e-08
0.00067701
7.7165e-08
0.000677011
6.25567e-08
0.000677012
5.05707e-08
0.000677013
4.08665e-08
0.000677014
3.28991e-08
0.000677015
2.65304e-08
0.000677015
2.13076e-08
1.7112e-08
0.000677016
0.000695789
1.6037e-07
0.000695787
3.05073e-07
0.000695784
3.77307e-07
0.000695782
3.80584e-07
0.00069578
3.47724e-07
0.00069578
3.01441e-07
0.00069578
2.53958e-07
0.000695781
2.10617e-07
0.000695782
1.7313e-07
0.000695783
1.41549e-07
0.000695785
1.15298e-07
0.000695786
9.36697e-08
0.000695787
7.59028e-08
0.000695788
6.14127e-08
0.000695789
4.95556e-08
0.00069579
3.99841e-08
0.000695791
3.21411e-08
0.000695792
2.58872e-08
0.000695792
2.0765e-08
1.66601e-08
0.000695793
0.000715084
1.60574e-07
0.000715081
3.07081e-07
0.000715079
3.79423e-07
0.000715078
3.82258e-07
0.000715077
3.48645e-07
0.000715077
3.0158e-07
0.000715077
2.5344e-07
0.000715078
2.09637e-07
0.000715079
1.71861e-07
0.000715081
1.40157e-07
0.000715082
1.13891e-07
0.000715084
9.23201e-08
0.000715085
7.46582e-08
0.000715086
6.02967e-08
0.000715087
4.8575e-08
0.000715088
3.91345e-08
0.000715089
3.14159e-08
0.000715089
2.52722e-08
0.00071509
2.0249e-08
1.62303e-08
0.00071509
0.000734915
1.60118e-07
0.000734914
3.08577e-07
0.000734912
3.81336e-07
0.00073491
3.83745e-07
0.00073491
3.49431e-07
0.00073491
3.01647e-07
0.00073491
2.52915e-07
0.000734911
2.08687e-07
0.000734912
1.7066e-07
0.000734914
1.38828e-07
0.000734915
1.12547e-07
0.000734916
9.10345e-08
0.000734918
7.34743e-08
0.000734919
5.92335e-08
0.00073492
4.76417e-08
0.00073492
3.83263e-08
0.000734921
3.0726e-08
0.000734922
2.46874e-08
0.000734922
1.97577e-08
1.58209e-08
0.000734923
0.000755295
1.59928e-07
0.000755294
3.09715e-07
0.000755292
3.82529e-07
0.000755291
3.84595e-07
0.000755291
3.49686e-07
0.000755292
3.01302e-07
0.000755292
2.52076e-07
0.000755294
2.07517e-07
0.000755295
1.69305e-07
0.000755296
1.37422e-07
0.000755298
1.11171e-07
0.000755299
8.97411e-08
0.0007553
7.23016e-08
0.000755301
5.81911e-08
0.000755302
4.67325e-08
0.000755303
3.75435e-08
0.000755304
3.00594e-08
0.000755304
2.41254e-08
0.000755305
1.92859e-08
1.54303e-08
0.000755305
0.000776241
1.59098e-07
0.000776241
3.10327e-07
0.00077624
3.83501e-07
0.000776239
3.85251e-07
0.000776239
3.49819e-07
0.00077624
3.00892e-07
0.000776241
2.51241e-07
0.000776242
2.06381e-07
0.000776243
1.68017e-07
0.000776244
1.36068e-07
0.000776246
1.09854e-07
0.000776247
8.85057e-08
0.000776248
7.11766e-08
0.000776249
5.71918e-08
0.00077625
4.58608e-08
0.000776251
3.67932e-08
0.000776251
2.9422e-08
0.000776252
2.3587e-08
0.000776252
1.88348e-08
1.50556e-08
0.000776253
0.000797767
1.58588e-07
0.000797767
3.1064e-07
0.000797766
3.83789e-07
0.000797766
3.85264e-07
0.000797767
3.49405e-07
0.000797768
3.0005e-07
0.000797769
2.50071e-07
0.00079777
2.05009e-07
0.000797772
1.6656e-07
0.000797773
1.34633e-07
0.000797774
1.08486e-07
0.000797776
8.72567e-08
0.000797777
7.00563e-08
0.000797778
5.62098e-08
0.000797779
4.50089e-08
0.000797779
3.60649e-08
0.00079778
2.88046e-08
0.000797781
2.30674e-08
0.000797781
1.84012e-08
1.46959e-08
0.000797781
0.000819891
1.57426e-07
0.000819892
3.10435e-07
0.000819892
3.8384e-07
0.000819892
3.851e-07
0.000819893
3.48866e-07
0.000819893
2.99158e-07
0.000819895
2.48902e-07
0.000819896
2.03676e-07
0.000819897
1.65151e-07
0.000819899
1.33241e-07
0.0008199
1.07171e-07
0.000819901
8.60516e-08
0.000819903
6.89791e-08
0.000819903
5.52621e-08
0.000819904
4.41923e-08
0.000819905
3.53638e-08
0.000819906
2.82141e-08
0.000819906
2.2568e-08
0.000819907
1.79853e-08
1.43493e-08
0.000819907
0.000842627
1.56634e-07
0.000842628
3.10014e-07
0.000842628
3.83249e-07
0.000842629
3.84279e-07
0.00084263
3.47766e-07
0.000842632
2.97808e-07
0.000842633
2.47378e-07
0.000842635
2.02082e-07
0.000842636
1.63582e-07
0.000842638
1.31749e-07
0.000842639
1.05799e-07
0.000842641
8.48192e-08
0.000842642
6.78944e-08
0.000842643
5.43186e-08
0.000842643
4.33839e-08
0.000842644
3.46748e-08
0.000842645
2.76353e-08
0.000842645
2.20815e-08
0.000842646
1.75826e-08
1.40156e-08
0.000842646
0.000865996
1.55179e-07
0.000865997
3.09083e-07
0.000865998
3.82421e-07
0.000865999
3.83287e-07
0.000866
3.46553e-07
0.000866002
2.96408e-07
0.000866003
2.4586e-07
0.000866005
2.00528e-07
0.000866006
1.62036e-07
0.000866008
1.30299e-07
0.000866009
1.04462e-07
0.00086601
8.36197e-08
0.000866011
6.68359e-08
0.000866012
5.34013e-08
0.000866013
4.25981e-08
0.000866014
3.40085e-08
0.000866014
2.70753e-08
0.000866015
2.16122e-08
0.000866015
1.7192e-08
1.36916e-08
0.000866016
0.00089001
1.54123e-07
0.000890011
3.07992e-07
0.000890013
3.80967e-07
0.000890015
3.81652e-07
0.000890016
3.44767e-07
0.000890018
2.94543e-07
0.00089002
2.43975e-07
0.000890022
1.98696e-07
0.000890024
1.60334e-07
0.000890025
1.28731e-07
0.000890027
1.03066e-07
0.000890028
8.23876e-08
0.000890029
6.57707e-08
0.00089003
5.24829e-08
0.000890031
4.18201e-08
0.000890031
3.33491e-08
0.000890032
2.65248e-08
0.000890032
2.11527e-08
0.000890033
1.6812e-08
1.33796e-08
0.000890033
0.000914693
1.52369e-07
0.000914695
3.06354e-07
0.000914696
3.79297e-07
0.000914698
3.79858e-07
0.0009147
3.42898e-07
0.000914702
2.92645e-07
0.000914704
2.42103e-07
0.000914706
1.96894e-07
0.000914708
1.5865e-07
0.000914709
1.27198e-07
0.00091471
1.01698e-07
0.000914712
8.11833e-08
0.000914713
6.47261e-08
0.000914714
5.15898e-08
0.000914714
4.10606e-08
0.000914715
3.2712e-08
0.000914716
2.599e-08
0.000914716
2.07084e-08
0.000914716
1.64415e-08
1.30745e-08
0.000914717
0.000940058
1.51025e-07
0.00094006
3.04589e-07
0.000940062
3.77027e-07
0.000940064
3.77427e-07
0.000940067
3.40474e-07
0.000940069
2.90269e-07
0.000940071
2.3987e-07
0.000940074
1.94842e-07
0.000940075
1.56795e-07
0.000940077
1.25554e-07
0.000940078
1.00255e-07
0.00094008
7.994e-08
0.000940081
6.36592e-08
0.000940082
5.0685e-08
0.000940083
4.02976e-08
0.000940083
3.20727e-08
0.000940084
2.54576e-08
0.000940084
2.02683e-08
0.000940085
1.60782e-08
1.27786e-08
0.000940085
0.000966128
1.48942e-07
0.000966131
3.02289e-07
0.000966133
3.74534e-07
0.000966136
3.74885e-07
0.000966138
3.37957e-07
0.000966141
2.87898e-07
0.000966143
2.3765e-07
0.000966145
1.92797e-07
0.000966147
1.54965e-07
0.000966149
1.23924e-07
0.00096615
9.88319e-08
0.000966151
7.87006e-08
0.000966152
6.26065e-08
0.000966153
4.97879e-08
0.000966154
3.95485e-08
0.000966155
3.1444e-08
0.000966155
2.49377e-08
0.000966156
1.98355e-08
0.000966156
1.57205e-08
1.24839e-08
0.000966156
0.00099292
1.47273e-07
0.000992922
2.99856e-07
0.000992925
3.71489e-07
0.000992928
3.71708e-07
0.000992931
3.3491e-07
0.000992934
2.85048e-07
0.000992937
2.35065e-07
0.000992939
1.90515e-07
0.000992941
1.52954e-07
0.000992943
1.22181e-07
0.000992944
9.73346e-08
0.000992946
7.74275e-08
0.000992947
6.1525e-08
0.000992948
4.88812e-08
0.000992949
3.87861e-08
0.000992949
3.08112e-08
0.00099295
2.44119e-08
0.00099295
1.9402e-08
0.000992951
1.53655e-08
1.21947e-08
0.000992951
0.00102046
1.44902e-07
0.00102046
2.96964e-07
0.00102046
3.68236e-07
0.00102047
3.68408e-07
0.00102047
3.31766e-07
0.00102047
2.82154e-07