/*--------------------------------*- C++ -*----------------------------------*\
| =========                 |                                                 |
| \\      /  F ield         | OpenFOAM: The Open Source CFD Toolbox           |
|  \\    /   O peration     | Version:  2.4.0                                 |
|   \\  /    A nd           | Web:      www.OpenFOAM.org                      |
|    \\/     M anipulation  |                                                 |
\*---------------------------------------------------------------------------*/
FoamFile
{
    version     2.0;
    format      ascii;
    class       volScalarField;
    location    "0.52";
    object      p;
}
// * * * * * * * * * * * * * * * * * * * * * * * * * * * * * * * * * * * * * //

dimensions      [0 2 -2 0 0 0 0];

internalField   nonuniform List<scalar> 
6000
(
0.0407739
0.269423
0.266346
0.291142
0.296628
0.299802
0.297672
0.308315
0.334265
0.370336
0.405711
0.435625
0.459224
0.478095
0.4937
0.506955
0.518106
0.527175
0.534279
0.539727
0.543897
0.547112
0.549587
0.551457
0.552814
0.553727
0.554248
0.55442
0.554271
0.553823
0.553088
0.552075
0.550784
0.549214
0.547357
0.5452
0.542728
0.539919
0.536745
0.533173
0.529162
0.524664
0.519617
0.513949
0.507572
0.500381
0.492239
0.483
0.472421
0.460342
0.446222
0.430132
0.410439
0.388826
0.359012
0.331197
0.278379
0.251358
0.131675
0.146427
0.0557961
0.267629
0.26638
0.290991
0.296625
0.299903
0.297732
0.308099
0.333722
0.369631
0.405068
0.435096
0.458805
0.477759
0.49343
0.506737
0.517936
0.527048
0.534189
0.539663
0.543851
0.547079
0.549563
0.551439
0.552801
0.553716
0.55424
0.554412
0.554263
0.553814
0.553078
0.552062
0.550768
0.549194
0.547332
0.54517
0.542691
0.539874
0.536691
0.533108
0.529085
0.524572
0.519509
0.513824
0.507428
0.500215
0.492048
0.48278
0.472167
0.460049
0.445886
0.429739
0.409992
0.388283
0.358418
0.330399
0.277614
0.250041
0.130782
0.144083
0.0696561
0.265549
0.266463
0.290877
0.296642
0.300025
0.297767
0.307813
0.333151
0.36896
0.404455
0.434601
0.458415
0.477447
0.493177
0.506532
0.517777
0.526932
0.534106
0.539603
0.543807
0.547045
0.549536
0.551418
0.552784
0.553702
0.554226
0.554399
0.55425
0.553799
0.553061
0.552043
0.550746
0.549168
0.547301
0.545134
0.542649
0.539825
0.536635
0.533044
0.529012
0.524489
0.519414
0.513716
0.507304
0.500073
0.491884
0.482592
0.47195
0.459797
0.445594
0.429395
0.409595
0.387801
0.357871
0.329688
0.276869
0.248875
0.129798
0.141992
0.081158
0.263369
0.266597
0.290786
0.296685
0.300144
0.297749
0.307451
0.33253
0.368288
0.403878
0.434152
0.458068
0.477168
0.492947
0.506347
0.517636
0.52683
0.534034
0.53955
0.543766
0.547011
0.549508
0.551394
0.552762
0.553681
0.554206
0.554379
0.554228
0.553776
0.553036
0.552015
0.550715
0.549133
0.547262
0.54509
0.5426
0.53977
0.536572
0.532974
0.528932
0.524399
0.519313
0.513601
0.507173
0.499925
0.491716
0.4824
0.471731
0.459545
0.445305
0.42906
0.409208
0.38734
0.357349
0.329018
0.276159
0.247798
0.12885
0.140224
0.0911982
0.261198
0.26675
0.290726
0.296753
0.300258
0.297675
0.307003
0.331838
0.367588
0.403312
0.433728
0.457744
0.476904
0.492727
0.506168
0.517502
0.526735
0.533967
0.539499
0.543723
0.546973
0.549473
0.551362
0.552732
0.553651
0.554176
0.554348
0.554196
0.553742
0.552999
0.551975
0.550672
0.549086
0.547211
0.545034
0.542538
0.539702
0.536497
0.532891
0.52884
0.524297
0.519199
0.513474
0.507031
0.499767
0.491538
0.482198
0.471503
0.459286
0.44501
0.428719
0.408819
0.386877
0.356828
0.328354
0.275463
0.246747
0.12794
0.138657
0.100341
0.259106
0.26691
0.290692
0.296842
0.300365
0.297545
0.306469
0.33107
0.366851
0.402739
0.433313
0.457429
0.476642
0.492504
0.505987
0.517365
0.526638
0.533897
0.539443
0.543673
0.546927
0.549429
0.551319
0.55269
0.55361
0.554134
0.554304
0.55415
0.553694
0.552949
0.551922
0.550615
0.549025
0.547146
0.544963
0.542462
0.539619
0.536408
0.532794
0.528734
0.524181
0.519072
0.513334
0.506877
0.499595
0.491347
0.481985
0.471264
0.459016
0.444705
0.428369
0.408422
0.386407
0.356303
0.327686
0.274772
0.245705
0.12706
0.137225
0.108758
0.257138
0.267076
0.290676
0.29695
0.300462
0.297362
0.305853
0.330235
0.366077
0.402156
0.432898
0.457113
0.476373
0.492272
0.505795
0.51722
0.526534
0.53382
0.53938
0.543615
0.54687
0.549374
0.551265
0.552635
0.553554
0.554077
0.554246
0.55409
0.553632
0.552884
0.551853
0.550543
0.54895
0.547065
0.544878
0.542371
0.539523
0.536304
0.532682
0.528615
0.524051
0.518931
0.513181
0.506709
0.499411
0.491144
0.481761
0.471015
0.458736
0.444391
0.42801
0.408018
0.38593
0.355775
0.327015
0.274083
0.24467
0.126207
0.135906
0.116535
0.25532
0.267248
0.290669
0.297069
0.300547
0.297131
0.305169
0.329341
0.36527
0.401561
0.432482
0.456791
0.476094
0.492024
0.505589
0.517062
0.526419
0.533733
0.539306
0.543545
0.546802
0.549306
0.551197
0.552567
0.553486
0.554007
0.554174
0.554016
0.553555
0.552805
0.551771
0.550457
0.54886
0.546971
0.54478
0.542267
0.539413
0.536187
0.532558
0.528482
0.523909
0.518778
0.513015
0.50653
0.499216
0.490931
0.481526
0.470755
0.458447
0.444068
0.427644
0.407608
0.385448
0.355243
0.326344
0.273398
0.243647
0.125384
0.134688
0.123771
0.253666
0.267425
0.290666
0.297191
0.300617
0.296858
0.304428
0.328401
0.364437
0.400958
0.432062
0.45646
0.4758
0.491759
0.505364
0.516887
0.526289
0.533633
0.53922
0.543465
0.546722
0.549226
0.551118
0.552487
0.553405
0.553925
0.55409
0.55393
0.553467
0.552713
0.551677
0.550359
0.548758
0.546865
0.544669
0.542151
0.539291
0.536059
0.532422
0.528338
0.523755
0.518614
0.512839
0.506341
0.499011
0.490707
0.481282
0.470486
0.458149
0.443738
0.427271
0.407192
0.384963
0.35471
0.325673
0.272719
0.242638
0.124593
0.13356
0.130562
0.252184
0.267605
0.290662
0.297307
0.300667
0.296549
0.303647
0.327431
0.36359
0.400353
0.431639
0.45612
0.475491
0.491475
0.505119
0.516693
0.526144
0.53352
0.539123
0.543373
0.546632
0.549136
0.551027
0.552397
0.553313
0.553832
0.553995
0.553833
0.553367
0.552611
0.551572
0.550251
0.548647
0.54675
0.544548
0.542026
0.539159
0.535921
0.532277
0.528184
0.523593
0.518441
0.512655
0.506143
0.498798
0.490477
0.48103
0.470211
0.457846
0.443403
0.426894
0.406773
0.384475
0.354177
0.325004
0.272045
0.241645
0.123832
0.132512
0.136985
0.25088
0.267788
0.290652
0.297411
0.300691
0.296213
0.302842
0.326445
0.362739
0.39975
0.431214
0.455774
0.475169
0.491172
0.504853
0.516481
0.525982
0.533394
0.539016
0.543272
0.546533
0.549038
0.550928
0.552297
0.553212
0.55373
0.553891
0.553728
0.55326
0.552501
0.551459
0.550136
0.548527
0.546626
0.544421
0.541893
0.539021
0.535777
0.532126
0.528025
0.523424
0.518262
0.512465
0.505939
0.498579
0.49024
0.480774
0.469932
0.457538
0.443064
0.426514
0.406352
0.383987
0.353644
0.324339
0.271377
0.24067
0.123101
0.131535
0.1431
0.249757
0.267971
0.290633
0.297499
0.300683
0.295859
0.302027
0.32546
0.361896
0.399155
0.430792
0.455424
0.474836
0.490853
0.504569
0.51625
0.525806
0.533256
0.538898
0.543164
0.546427
0.548932
0.550822
0.55219
0.553105
0.553621
0.553782
0.553616
0.553146
0.552386
0.551341
0.550014
0.548402
0.546498
0.544288
0.541755
0.538878
0.535627
0.531968
0.527861
0.523252
0.518079
0.51227
0.505732
0.498357
0.490001
0.480515
0.46965
0.457228
0.442723
0.426133
0.405931
0.3835
0.353114
0.323681
0.270718
0.239715
0.122396
0.13062
0.148952
0.248815
0.268155
0.290603
0.297566
0.300639
0.295495
0.301221
0.324491
0.361071
0.398575
0.430376
0.455074
0.474495
0.490519
0.504267
0.516003
0.525616
0.533108
0.538773
0.543048
0.546315
0.548821
0.550711
0.552079
0.552993
0.553508
0.553667
0.5535
0.553029
0.552266
0.551219
0.549889
0.548274
0.546366
0.544152
0.541615
0.538732
0.535475
0.53181
0.527694
0.523077
0.517895
0.512074
0.505523
0.498133
0.489761
0.480255
0.469368
0.456919
0.442384
0.425754
0.405513
0.383017
0.352588
0.323031
0.270067
0.238783
0.121718
0.129762
0.154579
0.248054
0.268341
0.290561
0.29761
0.30056
0.295125
0.300438
0.323556
0.360274
0.398015
0.429972
0.454727
0.47415
0.490175
0.503951
0.515742
0.525415
0.532952
0.538642
0.542929
0.5462
0.548707
0.550598
0.551965
0.552878
0.553393
0.55355
0.553382
0.552909
0.552144
0.551094
0.549762
0.548144
0.546232
0.544014
0.541473
0.538585
0.535322
0.531651
0.527528
0.522901
0.51771
0.511879
0.505315
0.497911
0.489522
0.479997
0.469087
0.456612
0.442047
0.425378
0.405098
0.38254
0.352068
0.322391
0.269425
0.237874
0.121063
0.128953
0.160006
0.247473
0.268533
0.290507
0.297628
0.30045
0.294754
0.299693
0.322672
0.359521
0.397483
0.429583
0.454388
0.473805
0.489823
0.503622
0.515469
0.525204
0.532789
0.538507
0.542807
0.546084
0.548593
0.550483
0.551849
0.552762
0.553276
0.553432
0.553263
0.552788
0.552021
0.550969
0.549635
0.548014
0.546099
0.543877
0.541331
0.538438
0.53517
0.531492
0.527362
0.522727
0.517526
0.511684
0.505109
0.49769
0.489285
0.479741
0.46881
0.456309
0.441715
0.425008
0.404689
0.382069
0.351556
0.321762
0.268794
0.236989
0.12043
0.12819
0.165255
0.247066
0.268734
0.290443
0.297622
0.300311
0.294391
0.299
0.321858
0.358825
0.396987
0.429215
0.454061
0.473463
0.489466
0.503284
0.515185
0.524986
0.532623
0.538371
0.542686
0.545968
0.548478
0.550368
0.551734
0.552646
0.553159
0.553314
0.553144
0.552667
0.551899
0.550845
0.549508
0.547884
0.545966
0.54374
0.54119
0.538293
0.535019
0.531335
0.527198
0.522555
0.517345
0.511493
0.504905
0.497473
0.489053
0.47949
0.468538
0.456011
0.441388
0.424644
0.404288
0.381608
0.351053
0.321146
0.268176
0.236131
0.119819
0.127468
0.170341
0.24683
0.268951
0.290373
0.297594
0.300148
0.294047
0.298374
0.321133
0.358198
0.396536
0.428872
0.453748
0.473129
0.489109
0.502939
0.514893
0.524763
0.532455
0.538235
0.542565
0.545854
0.548366
0.550255
0.55162
0.552531
0.553043
0.553198
0.553025
0.552548
0.551778
0.550722
0.549383
0.547756
0.545835
0.543606
0.541052
0.53815
0.534871
0.531181
0.527037
0.522386
0.517168
0.511305
0.504706
0.497261
0.488825
0.479244
0.468271
0.45572
0.441069
0.424288
0.403895
0.381157
0.350562
0.320545
0.267572
0.235298
0.11923
0.126785
0.175277
0.246756
0.269189
0.2903
0.297548
0.299966
0.293734
0.297833
0.320511
0.357653
0.396135
0.428559
0.453454
0.472805
0.488754
0.50259
0.514595
0.524535
0.532286
0.538101
0.542448
0.545743
0.548256
0.550145
0.551509
0.552419
0.552929
0.553083
0.552909
0.55243
0.551658
0.550601
0.549259
0.547631
0.545706
0.543474
0.540916
0.538009
0.534726
0.53103
0.526879
0.522221
0.516994
0.511122
0.504511
0.497053
0.488602
0.479004
0.468011
0.455435
0.440757
0.423941
0.403512
0.380717
0.350082
0.31996
0.266983
0.234494
0.118662
0.126136
0.180073
0.246838
0.269455
0.290231
0.29749
0.299777
0.293467
0.297394
0.320009
0.357202
0.395793
0.428279
0.453182
0.472494
0.488405
0.50224
0.514292
0.524305
0.532119
0.537971
0.542335
0.545636
0.548151
0.550039
0.551401
0.552309
0.552818
0.552971
0.552796
0.552315
0.551542
0.550483
0.549139
0.547508
0.54558
0.543345
0.540783
0.537872
0.534583
0.530882
0.526725
0.52206
0.516824
0.510942
0.504321
0.49685
0.488385
0.47877
0.467758
0.455159
0.440454
0.423604
0.40314
0.38029
0.349616
0.319393
0.266411
0.233719
0.118116
0.125521
0.184736
0.247066
0.269755
0.290172
0.297428
0.29959
0.293258
0.297071
0.319641
0.356855
0.395514
0.428036
0.452933
0.472201
0.488066
0.501892
0.513988
0.524075
0.531954
0.537846
0.542227
0.545535
0.54805
0.549937
0.551297
0.552203
0.552711
0.552861
0.552685
0.552203
0.551428
0.550367
0.549021
0.547388
0.545458
0.543219
0.540653
0.537738
0.534445
0.530738
0.526575
0.521903
0.516659
0.510768
0.504136
0.496653
0.488174
0.478543
0.467512
0.45489
0.44016
0.423276
0.402779
0.379876
0.349164
0.318843
0.265857
0.232972
0.117594
0.124939
0.189272
0.247432
0.270092
0.29013
0.297369
0.299419
0.293122
0.29688
0.319419
0.356621
0.395305
0.427833
0.452711
0.471928
0.487739
0.501549
0.513684
0.523845
0.531793
0.537727
0.542127
0.54544
0.547955
0.54984
0.551197
0.552101
0.552607
0.552756
0.552578
0.552095
0.551318
0.550255
0.548907
0.547271
0.545338
0.543096
0.540527
0.537608
0.53431
0.530598
0.526429
0.52175
0.516498
0.510599
0.503956
0.496462
0.487969
0.478322
0.467273
0.454629
0.439874
0.422959
0.402429
0.379475
0.348727
0.318312
0.265322
0.232255
0.117094
0.124386
0.193689
0.247927
0.270471
0.290111
0.297322
0.299277
0.293075
0.296836
0.319354
0.356506
0.395169
0.427672
0.452516
0.471675
0.487427
0.501214
0.513383
0.523617
0.531637
0.537615
0.542033
0.545351
0.547866
0.549748
0.551102
0.552003
0.552507
0.552654
0.552475
0.551989
0.551211
0.550146
0.548796
0.547158
0.545223
0.542978
0.540405
0.537482
0.53418
0.530462
0.526287
0.521602
0.516343
0.510434
0.503782
0.496276
0.487771
0.478108
0.467042
0.454377
0.439598
0.422652
0.40209
0.379087
0.348303
0.317799
0.264805
0.231567
0.116619
0.123863
0.197989
0.24854
0.270895
0.290122
0.297297
0.299177
0.293129
0.29695
0.319455
0.356517
0.395108
0.427552
0.452349
0.471446
0.487134
0.500889
0.513086
0.523392
0.531486
0.537511
0.541948
0.54527
0.547783
0.549661
0.551012
0.55191
0.552411
0.552556
0.552375
0.551888
0.551107
0.550041
0.548689
0.547048
0.545111
0.542863
0.540287
0.53736
0.534053
0.530331
0.52615
0.521458
0.516192
0.510275
0.503614
0.496097
0.487579
0.477901
0.466818
0.454132
0.439331
0.422355
0.401763
0.378712
0.347895
0.317304
0.264308
0.230907
0.116166
0.123367
0.20218
0.249263
0.271365
0.29017
0.297302
0.299132
0.293299
0.297232
0.319727
0.356655
0.395123
0.427475
0.45221
0.471241
0.48686
0.500578
0.512797
0.523173
0.531342
0.537415
0.541872
0.545197
0.547707
0.549581
0.550927
0.551821
0.552319
0.552462
0.552279
0.55179
0.551008
0.549939
0.548585
0.546943
0.545002
0.542752
0.540173
0.537242
0.533931
0.530204
0.526018
0.52132
0.516047
0.510122
0.503451
0.495923
0.487393
0.477702
0.466602
0.453897
0.439073
0.422068
0.401447
0.37835
0.347501
0.316828
0.263829
0.230276
0.115736
0.122897
0.206264
0.250087
0.271882
0.290257
0.297345
0.299153
0.293593
0.297691
0.320174
0.356923
0.395214
0.427439
0.452099
0.471059
0.486608
0.500283
0.512516
0.522959
0.531205
0.537328
0.541804
0.545132
0.547638
0.549506
0.550847
0.551737
0.552232
0.552372
0.552186
0.551695
0.550912
0.549841
0.548485
0.54684
0.544898
0.542644
0.540062
0.537128
0.533813
0.530082
0.52589
0.521186
0.515906
0.509973
0.503294
0.495756
0.487214
0.477509
0.466393
0.453669
0.438824
0.421792
0.401142
0.378002
0.347121
0.31637
0.263369
0.229673
0.115329
0.122451
0.210247
0.251003
0.272445
0.29039
0.297433
0.29925
0.29402
0.298328
0.320796
0.357318
0.395379
0.427444
0.452014
0.470902
0.486379
0.500005
0.512247
0.522753
0.531075
0.53725
0.541746
0.545075
0.547576
0.549438
0.550773
0.551658
0.552149
0.552286
0.552098
0.551605
0.550819
0.549747
0.548389
0.546742
0.544797
0.542541
0.539956
0.537018
0.5337
0.529964
0.525767
0.521057
0.515771
0.50983
0.503142
0.495595
0.487041
0.477323
0.466192
0.45345
0.438584
0.421525
0.400849
0.377666
0.346756
0.31593
0.262928
0.229097
0.114942
0.122028
0.214133
0.252003
0.273055
0.290568
0.29757
0.299429
0.294583
0.299145
0.32159
0.357836
0.395616
0.427488
0.451956
0.470769
0.486173
0.499747
0.511991
0.522556
0.530954
0.537181
0.541696
0.545026
0.547521
0.549375
0.550704
0.551584
0.552071
0.552205
0.552014
0.551519
0.550731
0.549657
0.548297
0.546648
0.544701
0.542442
0.539854
0.536913
0.53359
0.52985
0.525649
0.520933
0.51564
0.509693
0.502997
0.495439
0.486875
0.477144
0.465999
0.453239
0.438354
0.421269
0.400567
0.377344
0.346405
0.315509
0.262505
0.228547
0.114576
0.121628
0.217927
0.25308
0.273709
0.290796
0.297762
0.299695
0.295285
0.300137
0.322548
0.358472
0.395922
0.427569
0.451921
0.470659
0.485991
0.49951
0.51175
0.522369
0.530842
0.537121
0.541657
0.544986
0.547473
0.549319
0.550641
0.551515
0.551997
0.552127
0.551934
0.551436
0.550647
0.54957
0.548209
0.546557
0.544608
0.542347
0.539756
0.536812
0.533485
0.529741
0.525535
0.520814
0.515515
0.509561
0.502857
0.495291
0.486716
0.476973
0.465813
0.453037
0.438132
0.421024
0.400296
0.377035
0.346068
0.315105
0.2621
0.228023
0.11423
0.121248
0.221633
0.254225
0.274405
0.291072
0.298009
0.300049
0.29612
0.301296
0.323661
0.359219
0.39629
0.427684
0.451909
0.47057
0.485833
0.499295
0.511525
0.522193
0.53074
0.537072
0.541627
0.544954
0.547433
0.549269
0.550582
0.55145
0.551927
0.552054
0.551858
0.551358
0.550566
0.549488
0.548124
0.546471
0.544519
0.542255
0.539662
0.536715
0.533385
0.529637
0.525426
0.5207
0.515396
0.509435
0.502723
0.495148
0.486563
0.476808
0.465635
0.452843
0.43792
0.420788
0.400037
0.376739
0.345746
0.314718
0.261714
0.227525
0.113903
0.120888
0.225255
0.255434
0.275142
0.291396
0.298313
0.300492
0.297084
0.302611
0.324917
0.360066
0.396717
0.42783
0.451917
0.470503
0.485698
0.499102
0.511318
0.52203
0.530648
0.537032
0.541606
0.544931
0.5474
0.549226
0.55053
0.551391
0.551863
0.551985
0.551786
0.551283
0.550489
0.549409
0.548043
0.546388
0.544434
0.542168
0.539572
0.536622
0.533289
0.529537
0.525322
0.520591
0.515281
0.509314
0.502595
0.495011
0.486417
0.476651
0.465465
0.452657
0.437718
0.420563
0.399789
0.376457
0.345438
0.31435
0.261345
0.227051
0.113595
0.120547
0.228799
0.256699
0.275916
0.291768
0.298674
0.301021
0.298168
0.304068
0.3263
0.361004
0.397196
0.428004
0.451944
0.470454
0.485586
0.498933
0.51113
0.52188
0.530567
0.537003
0.541595
0.544916
0.547373
0.549188
0.550483
0.551336
0.551802
0.551921
0.551718
0.551213
0.550416
0.549334
0.547967
0.546309
0.544353
0.542085
0.539486
0.536534
0.533197
0.529442
0.525223
0.520487
0.515172
0.509199
0.502473
0.494881
0.486278
0.476501
0.465303
0.45248
0.437524
0.420349
0.399552
0.376187
0.345145
0.313999
0.260994
0.226602
0.113304
0.120224
0.232268
0.258015
0.276726
0.292186
0.29909
0.30163
0.299359
0.30565
0.327796
0.362021
0.39772
0.428203
0.451988
0.470424
0.485497
0.498788
0.510962
0.521745
0.530497
0.536984
0.541594
0.54491
0.547354
0.549156
0.550441
0.551286
0.551746
0.55186
0.551654
0.551146
0.550347
0.549263
0.547894
0.546234
0.544276
0.542006
0.539405
0.536449
0.53311
0.529351
0.525128
0.520389
0.515068
0.509089
0.502356
0.494758
0.486145
0.476359
0.465149
0.452312
0.43734
0.420144
0.399327
0.37593
0.344866
0.313665
0.260661
0.226177
0.11303
0.119919
0.235667
0.259376
0.277568
0.292647
0.299558
0.302315
0.300647
0.307338
0.329386
0.363105
0.398285
0.428425
0.452047
0.47041
0.485428
0.498666
0.510814
0.521626
0.530439
0.536976
0.541602
0.544912
0.547342
0.549131
0.550404
0.551241
0.551695
0.551804
0.551594
0.551083
0.550282
0.549196
0.547825
0.546164
0.544204
0.541931
0.539328
0.53637
0.533027
0.529265
0.525039
0.520295
0.514969
0.508985
0.502246
0.49464
0.48602
0.476223
0.465002
0.452152
0.437165
0.419951
0.399114
0.375687
0.344601
0.313349
0.260345
0.225776
0.112773
0.119632
0.239001
0.260778
0.27844
0.29315
0.300076
0.303069
0.302017
0.309116
0.331053
0.364245
0.398883
0.428665
0.452119
0.470411
0.48538
0.498567
0.510689
0.521523
0.530394
0.536979
0.54162
0.544922
0.547337
0.549111
0.550373
0.551201
0.551648
0.551752
0.551538
0.551025
0.550221
0.549133
0.54776
0.546097
0.544135
0.54186
0.539255
0.536294
0.532949
0.529184
0.524954
0.520206
0.514876
0.508887
0.502142
0.494529
0.485901
0.476095
0.464864
0.452001
0.437
0.419767
0.398912
0.375457
0.34435
0.313051
0.260047
0.225399
0.112532
0.119361
0.242273
0.262216
0.279341
0.293693
0.30064
0.303885
0.303455
0.310964
0.332782
0.365429
0.399509
0.428923
0.452203
0.470426
0.485351
0.498491
0.510584
0.521438
0.530362
0.536993
0.541647
0.54494
0.547339
0.549098
0.550347
0.551165
0.551605
0.551704
0.551487
0.55097
0.550164
0.549074
0.547699
0.546034
0.54407
0.541794
0.539186
0.536223
0.532876
0.529107
0.524874
0.520122
0.514788
0.508794
0.502043
0.494424
0.485789
0.475975
0.464733
0.451859
0.436844
0.419594
0.398722
0.37524
0.344114
0.31277
0.259767
0.225045
0.112308
0.119107
0.245489
0.263687
0.280266
0.294272
0.301247
0.304756
0.30495
0.312866
0.334555
0.366648
0.400157
0.429194
0.452297
0.470453
0.485339
0.498437
0.510502
0.52137
0.530344
0.537017
0.541685
0.544966
0.547348
0.54909
0.550326
0.551134
0.551567
0.551661
0.551439
0.550919
0.550111
0.549018
0.547641
0.545975
0.544009
0.541731
0.539121
0.536156
0.532807
0.529035
0.524799
0.520044
0.514706
0.508707
0.501951
0.494326
0.485683
0.475861
0.464611
0.451725
0.436698
0.419432
0.398543
0.375037
0.343893
0.312506
0.259505
0.224714
0.112098
0.11887
0.248651
0.265185
0.281215
0.294885
0.301893
0.305674
0.306488
0.314806
0.336358
0.36789
0.400822
0.429476
0.4524
0.470491
0.485345
0.498406
0.510442
0.521321
0.53034
0.537054
0.541731
0.545001
0.547363
0.549088
0.55031
0.551108
0.551534
0.551621
0.551396
0.550873
0.550062
0.548967
0.547588
0.54592
0.543953
0.541673
0.539061
0.536094
0.532742
0.528968
0.524729
0.519971
0.514629
0.508625
0.501865
0.494234
0.485585
0.475756
0.464496
0.4516
0.436562
0.419281
0.398376
0.374847
0.343686
0.31226
0.259259
0.224405
0.111904
0.118648
0.251765
0.266707
0.282184
0.29553
0.302576
0.306634
0.308059
0.316768
0.338179
0.369149
0.4015
0.429768
0.452511
0.470539
0.485366
0.498395
0.510404
0.52129
0.53035
0.537101
0.541787
0.545043
0.547385
0.549091
0.550299
0.551087
0.551504
0.551586
0.551356
0.55083
0.550016
0.54892
0.547539
0.545869
0.5439
0.541619
0.539005
0.536036
0.532682
0.528906
0.524664
0.519903
0.514557
0.50855
0.501785
0.494149
0.485494
0.475657
0.46439
0.451484
0.436435
0.41914
0.398221
0.37467
0.343494
0.312032
0.259032
0.22412
0.111725
0.118443
0.254834
0.268251
0.283172
0.296205
0.303292
0.30763
0.309653
0.318743
0.340006
0.370415
0.402187
0.430067
0.452628
0.470596
0.485402
0.498404
0.510387
0.521278
0.530376
0.537161
0.541853
0.545093
0.547413
0.549101
0.550294
0.55107
0.551479
0.551555
0.551321
0.550791
0.549975
0.548876
0.547494
0.545822
0.543852
0.541569
0.538954
0.535983
0.532627
0.528848
0.524604
0.51984
0.514491
0.50848
0.501711
0.49407
0.485409
0.475566
0.464291
0.451377
0.436317
0.41901
0.398077
0.374507
0.343316
0.311821
0.258822
0.223857
0.11156
0.118254
0.257861
0.269812
0.284177
0.296908
0.304037
0.308656
0.311262
0.320717
0.34183
0.371683
0.402878
0.430373
0.452751
0.470661
0.485451
0.498432
0.510393
0.521286
0.530416
0.537232
0.541928
0.545151
0.547448
0.549115
0.550293
0.551057
0.551458
0.551528
0.551289
0.550756
0.549937
0.548837
0.547452
0.545779
0.543808
0.541523
0.538906
0.535934
0.532576
0.528795
0.524549
0.519782
0.51443
0.508416
0.501643
0.493997
0.485332
0.475483
0.464201
0.451279
0.43621
0.41889
0.397946
0.374357
0.343153
0.311627
0.258629
0.223616
0.11141
0.11808
0.260852
0.271388
0.285197
0.297636
0.304809
0.309708
0.312879
0.322684
0.343643
0.372947
0.403572
0.430682
0.452878
0.470733
0.485512
0.498479
0.510419
0.521313
0.530472
0.537315
0.542012
0.545216
0.547489
0.549135
0.550297
0.55105
0.551442
0.551505
0.551262
0.550725
0.549904
0.548801
0.547415
0.54574
0.543767
0.541481
0.538863
0.535889
0.532529
0.528747
0.524498
0.519729
0.514375
0.508357
0.501581
0.493932
0.485261
0.475407
0.464119
0.451189
0.436112
0.418781
0.397826
0.374221
0.343005
0.311451
0.258454
0.223398
0.111275
0.117922
0.263809
0.272975
0.286229
0.298387
0.305607
0.310781
0.314497
0.324637
0.345438
0.374203
0.404266
0.430995
0.453009
0.470811
0.485585
0.498543
0.510466
0.52136
0.530543
0.537409
0.542106
0.545288
0.547536
0.54916
0.550305
0.551046
0.551429
0.551486
0.551238
0.550698
0.549874
0.548769
0.547382
0.545706
0.543731
0.541444
0.538824
0.535849
0.532488
0.528704
0.524453
0.519682
0.514325
0.508305
0.501525
0.493872
0.485198
0.475338
0.464045
0.451108
0.436023
0.418683
0.397718
0.374098
0.342871
0.311293
0.258297
0.223202
0.111153
0.11778
0.266737
0.274572
0.287273
0.299159
0.306426
0.311872
0.316113
0.32657
0.347212
0.375448
0.404957
0.431309
0.453144
0.470895
0.485668
0.498623
0.510533
0.521426
0.53063
0.537516
0.542208
0.545368
0.547589
0.549191
0.550319
0.551047
0.551421
0.551472
0.551219
0.550675
0.549849
0.548742
0.547352
0.545675
0.543699
0.541411
0.53879
0.535813
0.532451
0.528665
0.524413
0.51964
0.514281
0.508258
0.501476
0.493819
0.485141
0.475278
0.463979
0.451036
0.435945
0.418596
0.397622
0.373989
0.342752
0.311152
0.258157
0.223028
0.111045
0.117654
0.269637
0.276175
0.288327
0.299952
0.307265
0.312979
0.317723
0.328478
0.34896
0.376678
0.405645
0.431625
0.453281
0.470983
0.485761
0.49872
0.51062
0.521512
0.530733
0.537635
0.542319
0.545454
0.547647
0.549226
0.550337
0.551052
0.551417
0.551461
0.551203
0.550656
0.549827
0.548718
0.547327
0.545648
0.543671
0.541381
0.53876
0.535782
0.532418
0.528632
0.524378
0.519603
0.514242
0.508217
0.501432
0.493773
0.485092
0.475224
0.463922
0.450974
0.435876
0.41852
0.397538
0.373893
0.342648
0.311029
0.258034
0.222875
0.110951
0.117543
0.272515
0.277782
0.289389
0.300763
0.308123
0.314099
0.319324
0.33036
0.35068
0.377892
0.406327
0.43194
0.45342
0.471076
0.485863
0.498831
0.510726
0.521616
0.530852
0.537765
0.54244
0.545547
0.547711
0.549266
0.550359
0.551062
0.551417
0.551454
0.551192
0.550641
0.549809
0.548698
0.547306
0.545625
0.543647
0.541357
0.538734
0.535755
0.53239
0.528603
0.524347
0.519571
0.514209
0.508182
0.501395
0.493734
0.485049
0.475179
0.463872
0.45092
0.435817
0.418455
0.397466
0.373811
0.342559
0.310924
0.257929
0.222745
0.110871
0.117449
0.275374
0.279389
0.290456
0.30159
0.308998
0.315229
0.320914
0.332214
0.35237
0.379089
0.407002
0.432255
0.45356
0.471172
0.485973
0.498955
0.51085
0.52174
0.530986
0.537907
0.542568
0.545647
0.547781
0.549311
0.550386
0.551075
0.551422
0.551452
0.551184
0.55063
0.549795
0.548682
0.547288
0.545607
0.543628
0.541336
0.538713
0.535733
0.532367
0.528578
0.524322
0.519545
0.514181
0.508153
0.501364
0.4937
0.485014
0.475141
0.463831
0.450875
0.435768
0.4184
0.397406
0.373743
0.342485
0.310836
0.257842
0.222637
0.110804
0.117369
0.278216
0.280996
0.291529
0.302432
0.309887
0.316368
0.322492
0.334038
0.354029
0.380267
0.407671
0.432569
0.453701
0.471271
0.486089
0.499093
0.510992
0.521882
0.531137
0.538061
0.542705
0.545753
0.547856
0.549361
0.550417
0.551093
0.55143
0.551453
0.55118
0.550622
0.549785
0.54867
0.547275
0.545592
0.543612
0.54132
0.538696
0.535715
0.532349
0.528559
0.524302
0.519523
0.514159
0.508129
0.501339
0.493674
0.484986
0.47511
0.463798
0.450839
0.435728
0.418356
0.397358
0.373688
0.342425
0.310765
0.257772
0.22255
0.110751
0.117306
0.281045
0.282599
0.292605
0.303288
0.31079
0.317515
0.324056
0.335832
0.355657
0.381425
0.408332
0.43288
0.453842
0.471372
0.486213
0.499243
0.511151
0.522042
0.531303
0.538226
0.54285
0.545865
0.547935
0.549415
0.550452
0.551115
0.551442
0.551458
0.551181
0.550619
0.549779
0.548662
0.547265
0.545582
0.543601
0.541308
0.538683
0.535702
0.532335
0.528544
0.524287
0.519507
0.514142
0.508112
0.50132
0.493654
0.484964
0.475087
0.463773
0.450812
0.435699
0.418324
0.397321
0.373647
0.342381
0.310712
0.257719
0.222485
0.110711
0.117258
0.283865
0.284195
0.293683
0.304156
0.311705
0.318668
0.325607
0.337595
0.357254
0.382564
0.408984
0.433189
0.453982
0.471476
0.486342
0.499405
0.511327
0.522221
0.531484
0.538402
0.543003
0.545983
0.54802
0.549473
0.550491
0.551141
0.551458
0.551468
0.551185
0.550619
0.549777
0.548658
0.54726
0.545575
0.543594
0.5413
0.538674
0.535693
0.532325
0.528535
0.524276
0.519497
0.514131
0.5081
0.501308
0.493641
0.48495
0.475072
0.463757
0.450794
0.435679
0.418302
0.397297
0.37362
0.342351
0.310677
0.257684
0.222441
0.110685
0.117226
0.286678
0.285783
0.294761
0.305035
0.312632
0.319826
0.327144
0.339329
0.35882
0.383683
0.409627
0.433494
0.454122
0.47158
0.486477
0.499578
0.511519
0.522417
0.531681
0.53859
0.543164
0.546106
0.548108
0.549536
0.550535
0.55117
0.551478
0.551481
0.551193
0.550624
0.549779
0.548658
0.547258
0.545573
0.54359
0.541296
0.53867
0.535689
0.532321
0.52853
0.524271
0.519491
0.514125
0.508094
0.501302
0.493634
0.484943
0.475064
0.463748
0.450785
0.435669
0.418291
0.397285
0.373606
0.342336
0.31066
0.257667
0.22242
0.110671
0.11721
0.289489
0.28736
0.295837
0.305923
0.313568
0.320989
0.328666
0.341033
0.360356
0.384782
0.410261
0.433795
0.45426
0.471685
0.486616
0.499761
0.511726
0.52263
0.531892
0.538787
0.543331
0.546235
0.548202
0.549602
0.550582
0.551204
0.551502
0.551497
0.551205
0.550632
0.549784
0.548662
0.547261
0.545574
0.543591
0.541297
0.538671
0.535689
0.532321
0.52853
0.524271
0.519491
0.514125
0.508094
0.501301
0.493634
0.484943
0.475064
0.463748
0.450785
0.435669
0.418291
0.397285
0.373606
0.342336
0.31066
0.257667
0.22242
0.110671
0.11721
0.292299
0.288924
0.296911
0.30682
0.314513
0.322155
0.330175
0.342708
0.361862
0.385862
0.410885
0.434092
0.454395
0.47179
0.48676
0.499954
0.511948
0.522861
0.532118
0.538995
0.543505
0.546368
0.548299
0.549672
0.550633
0.551241
0.55153
0.551518
0.55122
0.550644
0.549794
0.54867
0.547267
0.54558
0.543596
0.541301
0.538675
0.535693
0.532325
0.528534
0.524276
0.519496
0.51413
0.508099
0.501308
0.49364
0.48495
0.475072
0.463756
0.450794
0.435679
0.418302
0.397297
0.37362
0.342351
0.310677
0.257684
0.222441
0.110685
0.117226
0.295113
0.290472
0.297981
0.307723
0.315465
0.323324
0.331669
0.344356
0.363339
0.386923
0.411499
0.434384
0.454528
0.471895
0.486906
0.500155
0.512184
0.523107
0.532358
0.539213
0.543685
0.546506
0.5484
0.549746
0.550688
0.551283
0.551561
0.551543
0.55124
0.55066
0.549807
0.548681
0.547278
0.54559
0.543606
0.54131
0.538684
0.535702
0.532335
0.528544
0.524286
0.519507
0.514141
0.508111
0.50132
0.493654
0.484964
0.475087
0.463773
0.450812
0.435699
0.418323
0.397321
0.373647
0.342381
0.310712
0.257719
0.222485
0.110711
0.117258
0.297933
0.292001
0.299045
0.308633
0.316425
0.324495
0.33315
0.345977
0.364789
0.387964
0.412102
0.434669
0.454656
0.471998
0.487056
0.500366
0.512434
0.523369
0.532611
0.53944
0.543871
0.546647
0.548505
0.549824
0.550746
0.551327
0.551596
0.551571
0.551263
0.55068
0.549825
0.548697
0.547292
0.545604
0.543619
0.541324
0.538697
0.535716
0.532348
0.528558
0.524301
0.519522
0.514158
0.508128
0.501338
0.493673
0.484985
0.47511
0.463798
0.450838
0.435728
0.418356
0.397357
0.373688
0.342425
0.310765
0.257772
0.22255
0.110751
0.117306
0.300764
0.29351
0.300103
0.309548
0.31739
0.325668
0.334617
0.347572
0.366212
0.388987
0.412695
0.434948
0.45478
0.472099
0.487209
0.500584
0.512697
0.523646
0.532877
0.539675
0.544063
0.546793
0.548612
0.549904
0.550808
0.551376
0.551635
0.551603
0.55129
0.550703
0.549846
0.548716
0.547311
0.545621
0.543637
0.541341
0.538715