/*--------------------------------*- C++ -*----------------------------------*\
| =========                 |                                                 |
| \\      /  F ield         | OpenFOAM: The Open Source CFD Toolbox           |
|  \\    /   O peration     | Version:  2.4.0                                 |
|   \\  /    A nd           | Web:      www.OpenFOAM.org                      |
|    \\/     M anipulation  |                                                 |
\*---------------------------------------------------------------------------*/
FoamFile
{
    version     2.0;
    format      ascii;
    class       surfaceScalarField;
    location    "5";
    object      phi;
}
// * * * * * * * * * * * * * * * * * * * * * * * * * * * * * * * * * * * * * //

dimensions      [0 3 -1 0 0 0 0];

internalField   nonuniform List<scalar> 
1435
(
8.23764e-08
-4.90451e-09
8.80093e-08
-5.63291e-09
9.22054e-08
-4.19614e-09
9.50401e-08
-2.83472e-09
9.72425e-08
-2.20232e-09
9.91552e-08
-1.91272e-09
1.00911e-07
-1.75567e-09
1.02544e-07
-1.63288e-09
1.0407e-07
-1.52593e-09
1.05503e-07
-1.43368e-09
1.06863e-07
-1.35935e-09
1.08157e-07
-1.2943e-09
1.09397e-07
-1.23984e-09
1.10586e-07
-1.18881e-09
1.11732e-07
-1.14628e-09
1.12837e-07
-1.10492e-09
1.13907e-07
-1.06991e-09
1.14941e-07
-1.0347e-09
1.15947e-07
-1.00507e-09
1.16921e-07
-9.74162e-10
1.17869e-07
-9.4829e-10
1.18789e-07
-9.20423e-10
1.19687e-07
-8.97326e-10
1.20558e-07
-8.71636e-10
1.21409e-07
-8.50748e-10
1.22236e-07
-8.26537e-10
1.23043e-07
-8.07733e-10
1.23828e-07
-7.84309e-10
1.24595e-07
-7.6703e-10
1.2534e-07
-7.4508e-10
1.26068e-07
-7.28525e-10
1.26776e-07
-7.07756e-10
1.27468e-07
-6.92161e-10
1.2814e-07
-6.72248e-10
1.28798e-07
-6.57611e-10
1.29437e-07
-6.38456e-10
1.30061e-07
-6.24731e-10
1.30668e-07
-6.06261e-10
1.31261e-07
-5.93436e-10
1.31837e-07
-5.75579e-10
1.324e-07
-5.63665e-10
1.32946e-07
-5.46258e-10
1.33482e-07
-5.35427e-10
1.34e-07
-5.18308e-10
1.3451e-07
-5.09647e-10
1.34999e-07
-4.89326e-10
1.35483e-07
-4.83719e-10
1.35949e-07
-4.66073e-10
1.36475e-07
-5.26231e-10
-3.82697e-10
2.48507e-07
-2.09963e-08
2.65145e-07
-2.22707e-08
2.76084e-07
-1.51354e-08
2.84607e-07
-1.1357e-08
2.91683e-07
-9.27821e-09
2.97556e-07
-7.78613e-09
3.0279e-07
-6.98974e-09
3.07669e-07
-6.51177e-09
3.12249e-07
-6.10627e-09
3.16555e-07
-5.73983e-09
3.20634e-07
-5.43841e-09
3.24517e-07
-5.17676e-09
3.28233e-07
-4.95644e-09
3.31796e-07
-4.75133e-09
3.35229e-07
-4.57909e-09
3.38536e-07
-4.41182e-09
3.41735e-07
-4.26914e-09
3.44826e-07
-4.12617e-09
3.47826e-07
-4.00474e-09
3.50731e-07
-3.87878e-09
3.53555e-07
-3.77224e-09
3.56293e-07
-3.65843e-09
3.58958e-07
-3.56303e-09
3.61545e-07
-3.45795e-09
3.64066e-07
-3.37173e-09
3.66511e-07
-3.27237e-09
3.68899e-07
-3.19553e-09
3.71213e-07
-3.09849e-09
3.73475e-07
-3.02871e-09
3.75668e-07
-2.93831e-09
3.77811e-07
-2.87068e-09
3.79889e-07
-2.78613e-09
3.81919e-07
-2.72241e-09
3.83889e-07
-2.64163e-09
3.85813e-07
-2.58209e-09
3.87679e-07
-2.50459e-09
3.89504e-07
-2.44909e-09
3.91272e-07
-2.37447e-09
3.93001e-07
-2.323e-09
3.94677e-07
-2.25083e-09
3.96317e-07
-2.20368e-09
3.97903e-07
-2.13308e-09
3.99459e-07
-2.09107e-09
4.00959e-07
-2.01854e-09
4.02438e-07
-1.98844e-09
4.03862e-07
-1.91364e-09
4.05297e-07
-1.91856e-09
4.06548e-07
-1.7168e-09
4.0806e-07
-2.03847e-09
-1.59889e-09
4.14908e-07
-4.85447e-08
4.42539e-07
-4.99018e-08
4.60046e-07
-3.26429e-08
4.74269e-07
-2.55798e-08
4.86278e-07
-2.12868e-08
4.9613e-07
-1.76385e-08
5.0484e-07
-1.56998e-08
5.12963e-07
-1.4635e-08
5.20598e-07
-1.37405e-08
5.27774e-07
-1.29166e-08
5.34567e-07
-1.22308e-08
5.41027e-07
-1.16367e-08
5.47203e-07
-1.11326e-08
5.53116e-07
-1.06644e-08
5.58804e-07
-1.02672e-08
5.64274e-07
-9.88192e-09
5.69555e-07
-9.54959e-09
5.74646e-07
-9.21791e-09
5.79574e-07
-8.93256e-09
5.84334e-07
-8.63874e-09
5.88949e-07
-8.38678e-09
5.93411e-07
-8.12055e-09
5.97742e-07
-7.89413e-09
6.01932e-07
-7.64831e-09
6.06004e-07
-7.44356e-09
6.09943e-07
-7.21147e-09
6.13777e-07
-7.02966e-09
6.17482e-07
-6.80316e-09
6.21093e-07
-6.63931e-09
6.24584e-07
-6.42944e-09
6.27984e-07
-6.2709e-09
6.31274e-07
-6.07629e-09
6.34479e-07
-5.92766e-09
6.37581e-07
-5.74291e-09
6.40604e-07
-5.60502e-09
6.43528e-07
-5.42874e-09
6.4638e-07
-5.30127e-09
6.49138e-07
-5.13235e-09
6.5183e-07
-5.0152e-09
6.54432e-07
-4.85244e-09
6.56974e-07
-4.74623e-09
6.59428e-07
-4.58719e-09
6.61832e-07
-4.49472e-09
6.64146e-07
-4.3324e-09
6.66422e-07
-4.26457e-09
6.6858e-07
-4.0721e-09
6.70759e-07
-4.09712e-09
6.72891e-07
-3.84888e-09
6.75142e-07
-4.28976e-09
-3.17208e-09
5.81577e-07
-8.78187e-08
6.20117e-07
-8.84421e-08
6.44369e-07
-5.6895e-08
6.64316e-07
-4.5526e-08
6.81197e-07
-3.81679e-08
6.95005e-07
-3.14468e-08
7.07191e-07
-2.78861e-08
7.18555e-07
-2.59986e-08
7.2923e-07
-2.44157e-08
7.39256e-07
-2.29426e-08
7.48728e-07
-2.17028e-08
7.5772e-07
-2.0628e-08
7.66292e-07
-1.97051e-08
7.74477e-07
-1.88496e-08
7.82324e-07
-1.81136e-08
7.89843e-07
-1.74013e-08
7.97072e-07
-1.67781e-08
8.04014e-07
-1.61598e-08
8.10701e-07
-1.56199e-08
8.17132e-07
-1.50696e-08
8.23336e-07
-1.45906e-08
8.29307e-07
-1.40917e-08
8.35074e-07
-1.36609e-08
8.40627e-07
-1.32017e-08
8.45996e-07
-1.28128e-08
8.51167e-07
-1.23819e-08
8.56175e-07
-1.20379e-08
8.60992e-07
-1.16201e-08
8.65665e-07
-1.13128e-08
8.70164e-07
-1.09284e-08
8.74527e-07
-1.06335e-08
8.78731e-07
-1.02807e-08
8.8281e-07
-1.00064e-08
8.86742e-07
-9.67447e-09
8.90559e-07
-9.42234e-09
8.94238e-07
-9.10822e-09
8.97815e-07
-8.87744e-09
9.01261e-07
-8.57863e-09
9.04614e-07
-8.36873e-09
9.07845e-07
-8.08262e-09
9.10993e-07
-7.89443e-09
9.14022e-07
-7.61619e-09
9.16982e-07
-7.4546e-09
9.19822e-07
-7.17272e-09
9.22612e-07
-7.05411e-09
9.25248e-07
-6.70823e-09
9.27904e-07
-6.75354e-09
9.30492e-07
-6.43628e-09
9.33226e-07
-7.02387e-09
-5.08555e-09
7.48762e-07
-1.39333e-07
7.98054e-07
-1.37734e-07
8.29155e-07
-8.79967e-08
8.54872e-07
-7.12424e-08
8.76584e-07
-5.988e-08
8.94322e-07
-4.91854e-08
9.09968e-07
-4.35319e-08
9.24535e-07
-4.0566e-08
9.38193e-07
-3.80738e-08
9.5098e-07
-3.57296e-08
9.63007e-07
-3.37297e-08
9.74377e-07
-3.19972e-08
9.85159e-07
-3.04874e-08
9.95397e-07
-2.90873e-08
1.00515e-06
-2.78639e-08
1.01443e-06
-2.66851e-08
1.02329e-06
-2.56386e-08
1.03174e-06
-2.461e-08
1.03982e-06
-2.3699e-08
1.04753e-06
-2.27835e-08
1.05492e-06
-2.19757e-08
1.06198e-06
-2.11493e-08
1.06874e-06
-2.04261e-08
1.07521e-06
-1.96712e-08
1.08142e-06
-1.90228e-08
1.08736e-06
-1.83221e-08
1.09308e-06
-1.77529e-08
1.09854e-06
-1.70808e-08
1.1038e-06
-1.65782e-08
1.10884e-06
-1.59661e-08
1.1137e-06
-1.54893e-08
1.11835e-06
-1.49345e-08
1.12284e-06
-1.44954e-08
1.12714e-06
-1.39798e-08
1.1313e-06
-1.35803e-08
1.13529e-06
-1.30976e-08
1.13915e-06
-1.27358e-08
1.14285e-06
-1.22809e-08
1.14644e-06
-1.19554e-08
1.14988e-06
-1.15232e-08
1.15322e-06
-1.12349e-08
1.15642e-06
-1.08175e-08
1.15954e-06
-1.0572e-08
1.16252e-06
-1.01498e-08
1.16544e-06
-9.9743e-09
1.16822e-06
-9.48934e-09
1.17102e-06
-9.55233e-09
1.17342e-06
-8.84126e-09
1.17631e-06
-9.91763e-09
-7.42284e-09
9.1666e-07
-2.03803e-07
9.76466e-07
-1.9754e-07
1.01453e-06
-1.26059e-07
1.04609e-06
-1.028e-07
1.07258e-06
-8.63726e-08
1.09417e-06
-7.07795e-08
1.11319e-06
-6.25511e-08
1.13081e-06
-5.81878e-08
1.14721e-06
-5.44668e-08
1.16247e-06
-5.09886e-08
1.1767e-06
-4.79671e-08
1.19004e-06
-4.53304e-08
1.20255e-06
-4.30026e-08
1.21431e-06
-4.08474e-08
1.22539e-06
-3.89381e-08
1.23582e-06
-3.71144e-08
1.24565e-06
-3.54771e-08
1.25493e-06
-3.38898e-08
1.2637e-06
-3.24689e-08
1.27199e-06
-3.10671e-08
1.27983e-06
-2.98174e-08
1.28725e-06
-2.85659e-08
1.29428e-06
-2.74596e-08
1.30094e-06
-2.63314e-08
1.30727e-06
-2.53521e-08
1.31327e-06
-2.43198e-08
1.31898e-06
-2.34714e-08
1.3244e-06
-2.24941e-08
1.32958e-06
-2.17567e-08
1.33449e-06
-2.08779e-08
1.33919e-06
-2.01875e-08
1.34366e-06
-1.94036e-08
1.34793e-06
-1.87743e-08
1.35201e-06
-1.80562e-08
1.35592e-06
-1.74896e-08
1.35965e-06
-1.6826e-08
1.36323e-06
-1.63178e-08
1.36665e-06
-1.56998e-08
1.36994e-06
-1.52471e-08
1.37308e-06
-1.46656e-08
1.37612e-06
-1.4269e-08
1.37901e-06
-1.37109e-08
1.38182e-06
-1.33771e-08
1.38448e-06
-1.2818e-08
1.38709e-06
-1.2583e-08
1.38955e-06
-1.19422e-08
1.39199e-06
-1.1993e-08
1.39423e-06
-1.10819e-08
1.39677e-06
-1.24639e-08
-9.33664e-09
1.08547e-06
-2.82137e-07
1.15547e-06
-2.67538e-07
1.20066e-06
-1.7125e-07
1.2382e-06
-1.4034e-07
1.26929e-06
-1.17469e-07
1.29439e-06
-9.58775e-08
1.31636e-06
-8.45215e-08
1.33651e-06
-7.83357e-08
1.35501e-06
-7.29682e-08
1.37197e-06
-6.79453e-08
1.38753e-06
-6.35287e-08
1.40185e-06
-5.96504e-08
1.41505e-06
-5.62022e-08
1.42723e-06
-5.30278e-08
1.43849e-06
-5.01977e-08
1.4489e-06
-4.75307e-08
1.45855e-06
-4.51247e-08
1.4675e-06
-4.28346e-08
1.4758e-06
-4.07738e-08
1.48352e-06
-3.87851e-08
1.4907e-06
-3.70012e-08
1.4974e-06
-3.52582e-08
1.50364e-06
-3.37055e-08
1.50947e-06
-3.21631e-08
1.51493e-06
-3.08122e-08
1.52004e-06
-2.94245e-08
1.52484e-06
-2.82772e-08
1.52933e-06
-2.69778e-08
1.53357e-06
-2.60015e-08
1.53754e-06
-2.48505e-08
1.54131e-06
-2.39481e-08
1.54484e-06
-2.29397e-08
1.54819e-06
-2.21253e-08
1.55135e-06
-2.12163e-08
1.55435e-06
-2.04899e-08
1.55719e-06
-1.96621e-08
1.55989e-06
-1.90158e-08
1.56244e-06
-1.82556e-08
1.56488e-06
-1.76833e-08
1.56719e-06
-1.69773e-08
1.5694e-06
-1.64791e-08
1.5715e-06
-1.5807e-08
1.57351e-06
-1.53934e-08
1.57542e-06
-1.47219e-08
1.57727e-06
-1.44327e-08
1.57899e-06
-1.36631e-08
1.58071e-06
-1.37165e-08
1.5823e-06
-1.26699e-08
1.58403e-06
-1.41939e-08
-1.06047e-08
1.25538e-06
-3.75444e-07
1.3352e-06
-3.47355e-07
1.38778e-06
-2.23831e-07
1.43151e-06
-1.84061e-07
1.46589e-06
-1.51857e-07
1.49363e-06
-1.23613e-07
1.5174e-06
-1.08292e-07
1.53862e-06
-9.95544e-08
1.55759e-06
-9.19345e-08
1.57445e-06
-8.48125e-08
1.58945e-06
-7.85285e-08
1.60283e-06
-7.30238e-08
1.61477e-06
-6.81417e-08
1.62543e-06
-6.36935e-08
1.63498e-06
-5.97514e-08
1.64356e-06
-5.61028e-08
1.65125e-06
-5.28181e-08
1.65817e-06
-4.97576e-08
1.66441e-06
-4.70078e-08
1.67004e-06
-4.4416e-08
1.67512e-06
-4.20869e-08
1.67974e-06
-3.98704e-08
1.68391e-06
-3.78834e-08
1.68772e-06
-3.59675e-08
1.69118e-06
-3.42691e-08
1.69433e-06
-3.25803e-08
1.69722e-06
-3.11685e-08
1.69984e-06
-2.95967e-08
1.70227e-06
-2.8433e-08
1.70448e-06
-2.70583e-08
1.70653e-06
-2.59968e-08
1.7084e-06
-2.48127e-08
1.71014e-06
-2.38635e-08
1.71174e-06
-2.28125e-08
1.71322e-06
-2.19733e-08
1.71459e-06
-2.10301e-08
1.71586e-06
-2.02885e-08
1.71704e-06
-1.94351e-08
1.71814e-06
-1.87799e-08
1.71916e-06
-1.80014e-08
1.72011e-06
-1.74273e-08
1.721e-06
-1.67026e-08
1.72183e-06
-1.62222e-08
1.72261e-06
-1.55009e-08
1.72334e-06
-1.5165e-08
1.72402e-06
-1.43385e-08
1.72469e-06
-1.43909e-08
1.72524e-06
-1.32137e-08
1.72587e-06
-1.48283e-08
-1.10809e-08
1.42665e-06
-4.85075e-07
1.51447e-06
-4.35172e-07
1.57685e-06
-2.86206e-07
1.62319e-06
-2.30408e-07
1.65929e-06
-1.87954e-07
1.68703e-06
-1.51353e-07
1.70952e-06
-1.3078e-07
1.72853e-06
-1.18572e-07
1.74457e-06
-1.07968e-07
1.75797e-06
-9.82118e-08
1.76911e-06
-8.96762e-08
1.7784e-06
-8.231e-08
1.78611e-06
-7.58542e-08
1.7925e-06
-7.0084e-08
1.79781e-06
-6.50628e-08
1.8022e-06
-6.04854e-08
1.8058e-06
-5.64171e-08
1.80874e-06
-5.27047e-08
1.81113e-06
-4.93937e-08
1.81306e-06
-4.6344e-08
1.81458e-06
-4.361e-08
1.81578e-06
-4.10721e-08
1.81669e-06
-3.87873e-08
1.81737e-06
-3.66504e-08
1.81782e-06
-3.47247e-08
1.81814e-06
-3.28953e-08
1.81825e-06
-3.1277e-08
1.81829e-06
-2.96428e-08
1.81823e-06
-2.83688e-08
1.81805e-06
-2.68766e-08
1.81782e-06
-2.57698e-08
1.81751e-06
-2.4498e-08
1.81716e-06
-2.35149e-08
1.81675e-06
-2.24037e-08
1.81632e-06
-2.15409e-08
1.81584e-06
-2.05564e-08
1.81535e-06
-1.98e-08
1.81484e-06
-1.89186e-08
1.81431e-06
-1.82558e-08
1.81377e-06
-1.74609e-08
1.81322e-06
-1.68772e-08
1.81267e-06
-1.61486e-08
1.81211e-06
-1.56634e-08
1.81155e-06
-1.49388e-08
1.81099e-06
-1.46113e-08
1.81043e-06
-1.37725e-08
1.80989e-06
-1.38487e-08
1.8093e-06
-1.26297e-08
1.80865e-06
-1.41794e-08
-1.06825e-08
1.59743e-06
-6.10536e-07
1.69499e-06
-5.32738e-07
1.76167e-06
-3.52883e-07
1.80642e-06
-2.75158e-07
1.83873e-06
-2.2027e-07
1.8602e-06
-1.72815e-07
1.87522e-06
-1.45806e-07
1.8861e-06
-1.29447e-07
1.89366e-06
-1.15536e-07
1.89858e-06
-1.03124e-07
1.90141e-06
-9.25119e-08
1.9027e-06
-8.35955e-08
1.90273e-06
-7.5887e-08
1.90196e-06
-6.93095e-08
1.90058e-06
-6.36886e-08
1.89858e-06
-5.84881e-08
1.89624e-06
-5.40716e-08
1.89364e-06
-5.01108e-08
1.89086e-06
-4.66066e-08
1.88795e-06
-4.34409e-08
1.88496e-06
-4.06201e-08
1.88194e-06
-3.80514e-08
1.8789e-06
-3.57419e-08
1.87587e-06
-3.36263e-08
1.87286e-06
-3.17115e-08
1.8699e-06
-2.99347e-08
1.86697e-06
-2.83504e-08
1.86411e-06
-2.67787e-08
1.86129e-06
-2.55528e-08
1.85855e-06
-2.41369e-08
1.85587e-06
-2.30857e-08
1.85326e-06
-2.18894e-08
1.85071e-06
-2.09657e-08
1.84824e-06
-1.99298e-08
1.84582e-06
-1.9126e-08
1.84348e-06
-1.82164e-08
1.8412e-06
-1.7516e-08
1.83899e-06
-1.67092e-08
1.83683e-06
-1.60977e-08
1.83475e-06
-1.53775e-08
1.83271e-06
-1.48405e-08
1.83075e-06
-1.41835e-08
1.82882e-06
-1.37409e-08
1.82697e-06
-1.3088e-08
1.82516e-06
-1.27935e-08
1.82342e-06
-1.20377e-08
1.82168e-06
-1.21113e-08
1.82006e-06
-1.10036e-08
1.8182e-06
-1.23252e-08
-9.36601e-09
1.76972e-06
-7.53343e-07
1.8714e-06
-6.34419e-07
1.92771e-06
-4.09196e-07
1.95936e-06
-3.0681e-07
1.97546e-06
-2.36366e-07
1.97951e-06
-1.76864e-07
1.9776e-06
-1.43894e-07
1.97252e-06
-1.24375e-07
1.96514e-06
-1.08152e-07
1.95647e-06
-9.44574e-08
1.94709e-06
-8.31268e-08
1.93739e-06
-7.38976e-08
1.92766e-06
-6.61559e-08
1.91805e-06
-5.96966e-08
1.90866e-06
-5.43045e-08
1.89959e-06
-4.94169e-08
1.89084e-06
-4.532e-08
1.88244e-06
-4.17076e-08
1.87438e-06
-3.85474e-08
1.86667e-06
-3.57336e-08
1.85929e-06
-3.32451e-08
1.85225e-06
-3.10076e-08
1.84551e-06
-2.90056e-08
1.83908e-06
-2.71926e-08
1.83293e-06
-2.55573e-08
1.82704e-06
-2.40534e-08
1.82141e-06
-2.27187e-08
1.81604e-06
-2.14021e-08
1.81086e-06
-2.03775e-08
1.80593e-06
-1.92055e-08
1.80118e-06
-1.83339e-08
1.79664e-06
-1.73519e-08
1.79227e-06
-1.65918e-08
1.78808e-06
-1.57478e-08
1.78405e-06
-1.50896e-08
1.78019e-06
-1.43542e-08
1.77645e-06
-1.37821e-08
1.77288e-06
-1.31352e-08
1.76942e-06
-1.26362e-08
1.7661e-06
-1.20634e-08
1.76289e-06
-1.16254e-08
1.75981e-06
-1.11061e-08
1.75681e-06
-1.07452e-08
1.75396e-06
-1.02313e-08
1.75115e-06
-9.98932e-09
1.74851e-06
-9.39478e-09
1.74585e-06
-9.45342e-09
1.7434e-06
-8.55549e-09
1.74064e-06
-9.55652e-09
-7.36145e-09
1.94123e-06
-9.12717e-07
2.0143e-06
-7.07492e-07
2.0317e-06
-4.26598e-07
2.02972e-06
-3.04826e-07
2.01e-06
-2.16649e-07
1.98212e-06
-1.48977e-07
1.95428e-06
-1.16062e-07
1.9275e-06
-9.75892e-08
1.90234e-06
-8.29929e-08
1.87891e-06
-7.10283e-08
1.85723e-06
-6.14509e-08
1.83723e-06
-5.38889e-08
1.81879e-06
-4.77246e-08
1.80177e-06
-4.267e-08
1.78599e-06
-3.85276e-08
1.7714e-06
-3.48303e-08
1.75785e-06
-3.17617e-08
1.74523e-06
-2.90879e-08
1.73345e-06
-2.67689e-08
1.72244e-06
-2.47215e-08
1.71211e-06
-2.29229e-08
1.70242e-06
-2.13164e-08
1.6933e-06
-1.98871e-08
1.68471e-06
-1.85985e-08
1.6766e-06
-1.74434e-08
1.66893e-06
-1.63823e-08
1.66165e-06
-1.54483e-08
1.65478e-06
-1.45254e-08
1.64821e-06
-1.3814e-08
1.64201e-06
-1.29974e-08
1.63607e-06
-1.23943e-08
1.63043e-06
-1.17154e-08
1.62503e-06
-1.11908e-08
1.61989e-06
-1.06111e-08
1.61496e-06
-1.01574e-08
1.61026e-06
-9.65572e-09
1.60574e-06
-9.26081e-09
1.60143e-06
-8.82307e-09
1.59727e-06
-8.47758e-09
1.5933e-06
-8.09337e-09
1.58946e-06
-7.78854e-09
1.5858e-06
-7.44372e-09
1.58225e-06
-7.19006e-09
1.57887e-06
-6.8515e-09
1.57555e-06
-6.67701e-09
1.57244e-06
-6.28509e-09
1.56931e-06
-6.32319e-09
1.56645e-06
-5.69591e-09
1.56323e-06
-6.33514e-09
-4.99506e-09
2.04227e-06
-1.01819e-06
2.02662e-06
-6.91849e-07
1.98116e-06
-3.81133e-07
1.91018e-06
-2.3385e-07
1.83556e-06
-1.42034e-07
1.77545e-06
-8.8866e-08
1.72571e-06
-6.63152e-08
1.68339e-06
-5.52687e-08
1.64695e-06
-4.6558e-08
1.61526e-06
-3.93329e-08
1.58746e-06
-3.36534e-08
1.56285e-06
-2.92784e-08
1.5409e-06
-2.57804e-08
1.52117e-06
-2.29395e-08
1.50328e-06
-2.06375e-08
1.48704e-06
-1.85845e-08
1.47217e-06
-1.68983e-08
1.45852e-06
-1.54361e-08
1.44593e-06
-1.41748e-08
1.43427e-06
-1.30639e-08
1.42344e-06
-1.20934e-08
1.41335e-06
-1.1227e-08
1.40393e-06
-1.04612e-08
1.3951e-06
-9.76931e-09
1.38681e-06
-9.15441e-09
1.37901e-06
-8.586e-09
1.37165e-06
-8.09203e-09
1.36473e-06
-7.598e-09
1.35814e-06
-7.22631e-09
1.35193e-06
-6.78877e-09
1.34601e-06
-6.47327e-09
1.34041e-06
-6.11275e-09
1.33505e-06
-5.83723e-09
1.32997e-06
-5.53154e-09
1.32511e-06
-5.29237e-09
1.32048e-06
-5.02969e-09
1.31604e-06
-4.82029e-09
1.31181e-06
-4.59329e-09
1.30774e-06
-4.4086e-09
1.30386e-06
-4.21166e-09
1.30012e-06
-4.0466e-09
1.29655e-06
-3.87275e-09
1.29309e-06
-3.73278e-09
1.2898e-06
-3.56397e-09
1.28659e-06
-3.46346e-09
1.28358e-06
-3.26893e-09
1.28054e-06
-3.28417e-09
1.27778e-06
-2.94398e-09
1.27469e-06
-3.24458e-09
-2.67264e-09
1.9948e-06
-9.21248e-07
1.76613e-06
-4.63172e-07
1.58219e-06
-1.97198e-07
1.44408e-06
-9.5739e-08
1.3476e-06
-4.55517e-08
1.2832e-06
-2.44663e-08
1.23557e-06
-1.86834e-08
1.19674e-06
-1.64441e-08
1.16421e-06
-1.40224e-08
1.13663e-06
-1.17584e-08
1.11297e-06
-9.99596e-09
1.09237e-06
-8.67719e-09
1.07423e-06
-7.63541e-09
1.05808e-06
-6.78794e-09
1.04355e-06
-6.10681e-09
1.03045e-06
-5.48753e-09
1.01854e-06
-4.98705e-09
1.00765e-06
-4.55239e-09
9.97657e-07
-4.17857e-09
9.88441e-07
-3.84818e-09
9.79909e-07
-3.56128e-09
9.71986e-07
-3.30373e-09
9.64603e-07
-3.07817e-09
9.57706e-07
-2.87227e-09
9.51243e-07
-2.69201e-09
9.4518e-07
-2.52232e-09
9.39466e-07
-2.37853e-09
9.34098e-07
-2.23012e-09
9.28996e-07
-2.12433e-09
9.24199e-07
-1.99166e-09
9.19627e-07
-1.90129e-09
9.15308e-07
-1.79342e-09
9.11184e-07
-1.71346e-09
9.07275e-07
-1.6229e-09
9.03536e-07
-1.55272e-09
8.99982e-07
-1.47564e-09
8.96575e-07
-1.41339e-09
8.93329e-07
-1.34784e-09
8.90213e-07
-1.292e-09
8.87237e-07
-1.23619e-09
8.84376e-07
-1.18514e-09
8.8164e-07
-1.13736e-09
8.79e-07
-1.09268e-09
8.76483e-07
-1.04694e-09
8.74033e-07
-1.01301e-09
8.71725e-07
-9.61274e-10
8.69403e-07
-9.61312e-10
8.67319e-07
-8.60071e-10
8.64998e-07
-9.23498e-10
-8.34403e-10
1.32544e-06
8.62264e-07
6.65066e-07
5.69327e-07
5.23775e-07
4.99309e-07
4.80625e-07
4.64181e-07
4.50159e-07
4.384e-07
4.28405e-07
4.19727e-07
4.12092e-07
4.05304e-07
3.99197e-07
3.9371e-07
3.88723e-07
3.8417e-07
3.79992e-07
3.76143e-07
3.72582e-07
3.69278e-07
3.662e-07
3.63328e-07
3.60636e-07
3.58114e-07
3.55735e-07
3.53505e-07
3.51381e-07
3.49389e-07
3.47488e-07
3.45694e-07
3.43981e-07
3.42358e-07
3.40805e-07
3.3933e-07
3.37916e-07
3.36568e-07
3.35276e-07
3.3404e-07
3.32855e-07
3.31718e-07
3.30625e-07
3.29578e-07
3.28565e-07
3.27604e-07
3.26642e-07
3.25782e-07
3.24859e-07
)
;

boundaryField
{
    inlet
    {
        type            calculated;
        value           nonuniform List<scalar> 
15
(
-7.74719e-08
-2.32416e-07
-3.87359e-07
-5.42303e-07
-6.97247e-07
-8.5219e-07
-1.00713e-06
-1.16208e-06
-1.31702e-06
-1.47197e-06
-1.62691e-06
-1.78185e-06
-1.9368e-06
-2.09174e-06
-2.24668e-06
)
;
    }
    outlet
    {
        type            calculated;
        value           nonuniform List<scalar> 
15
(
1.36858e-07
4.09276e-07
6.76715e-07
9.35139e-07
1.17865e-06
1.39869e-06
1.5853e-06
1.72635e-06
1.80826e-06
1.81689e-06
1.73863e-06
1.56087e-06
1.27237e-06
8.63159e-07
3.24024e-07
)
;
    }
    wall
    {
        type            calculated;
        value           uniform 0;
    }
    frontWedge
    {
        type            wedge;
        value           nonuniform List<scalar> 
750
(
-2.46562e-19
1.449e-18
-1.55261e-18
-2.12329e-18
5.55842e-18
-3.46418e-18
-4.24545e-18
2.74304e-17
-2.54397e-17
-3.06102e-17
8.54202e-17
-4.08588e-17
-4.72478e-17
2.74565e-17
4.4753e-18
-5.41066e-19
5.78671e-18
-7.10335e-18
-1.01495e-17
2.66493e-17
-1.63814e-17
-1.95159e-17
1.06162e-16
-9.56973e-17
-1.03562e-16
2.27605e-16
-1.31411e-16
-1.0819e-16
1.80263e-16
-1.70264e-17
-4.48729e-19
4.96419e-18
-6.20885e-18
-8.62408e-18
2.16622e-17
-1.32606e-17
-1.55269e-17
8.31997e-17
-7.08374e-17
-7.82606e-17
1.7657e-16
-9.74389e-17
-7.698e-17
1.15431e-16
-9.11135e-18
-3.45204e-19
3.63205e-18
-4.15055e-18
-5.65285e-18
1.46221e-17
-8.78726e-18
-1.04317e-17
5.59331e-17
-4.99691e-17
-5.66121e-17
1.1803e-16
-5.22151e-17
-5.22262e-17
6.19615e-17
-4.2369e-18
-2.59874e-19
2.54918e-18
-3.42002e-18
-4.74363e-18
1.19117e-17
-7.37528e-18
-8.59571e-18
4.70219e-17
-4.21064e-17
-4.58446e-17
9.4506e-17
-4.16363e-17
-3.57509e-17
3.46824e-17
-2.18562e-18
-1.19874e-19
2.34274e-18
-2.47218e-18
-3.60356e-18
9.71985e-18
-5.83661e-18
-6.84105e-18
3.7192e-17
-3.31225e-17
-3.54237e-17
7.02673e-17
-3.14168e-17
-2.19483e-17
1.93885e-17
-1.23215e-18
-2.05733e-19
1.67944e-18
-2.25596e-18
-3.10917e-18
7.70614e-18
-4.74968e-18
-5.54345e-18
3.02082e-17
-2.62391e-17
-2.75418e-17
5.16972e-17
-2.21508e-17
-1.44497e-17
1.25123e-17
-8.89492e-19
-7.33088e-20
1.83151e-18
-1.75872e-18
-2.56129e-18
7.00097e-18
-4.1063e-18
-4.82711e-18
2.65636e-17
-2.28148e-17
-2.35609e-17
4.369e-17
-1.77497e-17
-1.11945e-17
9.93998e-18
-7.61553e-19
-2.06933e-19
1.54072e-18
-1.91457e-18
-2.59119e-18
6.35761e-18
-3.93809e-18
-4.57284e-18
2.44586e-17
-2.08271e-17
-2.10711e-17
3.85092e-17
-1.50939e-17
-9.38846e-18
8.43925e-18
-6.55937e-19
-8.86088e-20
1.52019e-18
-1.53754e-18
-2.21558e-18
6.1077e-18
-3.54075e-18
-4.18697e-18
2.26493e-17
-1.89498e-17
-1.89107e-17
3.38267e-17
-1.29183e-17
-7.93292e-18
7.16668e-18
-5.45745e-19
-2.17303e-19
1.30269e-18
-1.7177e-18
-2.28593e-18
5.55546e-18
-3.43581e-18
-3.97776e-18
2.08146e-17
-1.73605e-17
-1.69374e-17
2.96835e-17
-1.12024e-17
-6.79173e-18
6.06081e-18
-4.74733e-19
-1.08195e-19
1.31902e-18
-1.50414e-18
-2.05449e-18
5.30823e-18
-3.17406e-18
-3.69661e-18
1.9301e-17
-1.58974e-17
-1.53016e-17
2.63056e-17
-9.76551e-18
-5.84398e-18
5.24448e-18
-4.00269e-19
-2.06611e-19
1.20393e-18
-1.46597e-18
-1.95715e-18
5.02963e-18
-3.00091e-18
-3.45313e-18
1.79964e-17
-1.45756e-17
-1.36516e-17
2.34627e-17
-8.59233e-18
-5.13042e-18
4.60554e-18
-3.56584e-19
-1.25035e-19
1.11684e-18
-1.26562e-18
-1.75697e-18
4.86109e-18
-2.76895e-18
-3.2175e-18
1.68594e-17
-1.34925e-17
-1.23332e-17
2.11875e-17
-7.64757e-18
-4.52668e-18
4.08377e-18
-3.14422e-19
-1.59443e-19
1.12008e-18
-1.34654e-18
-1.79673e-18
4.55278e-18
-2.70578e-18
-3.08692e-18
1.57479e-17
-1.25549e-17
-1.15518e-17
1.92515e-17
-6.89383e-18
-4.06912e-18
3.64324e-18
-2.88927e-19
-1.31747e-19
9.89987e-19
-1.3258e-18
-1.71091e-18
4.36731e-18
-2.57123e-18
-2.92291e-18
1.47923e-17
-1.16701e-17
-1.06929e-17
1.74905e-17
-6.23793e-18
-3.65301e-18
3.28254e-18
-2.52251e-19
-1.10472e-19
1.15054e-18
-1.13737e-18
-1.5742e-18
4.23609e-18
-2.40683e-18
-2.72437e-18
1.39468e-17
-1.08357e-17
-9.84869e-18
1.60125e-17
-5.63442e-18
-3.30024e-18
2.99265e-18
-2.29811e-19
-1.47843e-19
1.01873e-18
-1.10961e-18
-1.49029e-18
4.08852e-18
-2.27953e-18
-2.58677e-18
1.31438e-17
-1.01397e-17
-9.12962e-18
1.47138e-17
-5.16024e-18
-3.0159e-18
2.72101e-18
-2.12148e-19
-1.20632e-19
8.83425e-19
-1.10422e-18
-1.47928e-18
3.9006e-18
-2.20229e-18
-2.46406e-18
1.24362e-17
-9.49185e-18
-8.4733e-18
1.35958e-17
-4.73062e-18
-2.75627e-18
2.49831e-18
-1.93711e-19
-1.2295e-19
9.91256e-19
-1.05087e-18
-1.39694e-18
3.77708e-18
-2.09046e-18
-2.34147e-18
1.17482e-17
-8.92163e-18
-7.90484e-18
1.2583e-17
-4.37209e-18
-2.54579e-18
2.29276e-18
-1.80448e-19
-1.28925e-19
9.35467e-19
-1.05937e-18
-1.39708e-18
3.60064e-18
-2.02722e-18
-2.23628e-18
1.11505e-17
-8.37898e-18
-7.37511e-18
1.17031e-17
-4.03506e-18
-2.34193e-18
2.12609e-18
-1.65144e-19
-1.41168e-19
8.60518e-19
-1.006e-18
-1.31162e-18
3.50563e-18
-1.92344e-18
-2.1294e-18
1.05569e-17
-7.9117e-18
-6.91713e-18
1.09034e-17
-3.76186e-18
-2.18502e-18
1.96342e-18
-1.55702e-19
-1.75566e-19
7.11004e-19
-1.02619e-18
-1.32341e-18
3.32734e-18
-1.87159e-18
-2.03848e-18
1.00494e-17
-7.44787e-18
-6.48104e-18
1.02156e-17
-3.48444e-18
-2.01775e-18
1.83575e-18
-1.42742e-19
-1.53367e-19
8.76384e-19
-9.45855e-19
-1.23976e-18
3.20832e-18
-1.77656e-18
-1.94288e-18
9.53518e-18
-7.03304e-18
-6.10963e-18
9.52999e-18
-3.26386e-18
-1.89757e-18
1.70577e-18
-1.35209e-19
-8.7478e-20
7.90873e-19
-9.56717e-19
-1.23169e-18
3.13106e-18
-1.72223e-18
-1.86395e-18
9.09664e-18
-6.68927e-18
-5.7527e-18
8.96078e-18
-3.06759e-18
-1.77176e-18
1.59982e-18
-1.26019e-19
-8.32061e-20
8.25014e-19
-9.02539e-19
-1.16699e-18
3.03497e-18
-1.64005e-18
-1.77806e-18
8.63988e-18
-6.32896e-18
-5.43866e-18
8.4182e-18
-2.88991e-18
-1.66843e-18
1.49388e-18
-1.19538e-19
1.82203e-20
6.59336e-19
-9.20046e-19
-1.1574e-18
2.9513e-18
-1.59353e-18
-1.70973e-18
8.27407e-18
-6.07854e-18
-5.14306e-18
7.95103e-18
-2.71936e-18
-1.56559e-18
1.41087e-18
-1.12317e-19
-1.28892e-19
6.46105e-19
-8.56945e-19
-1.10961e-18
2.8059e-18
-1.52876e-18
-1.63461e-18
7.8398e-18
-5.47886e-18
-4.82771e-18
7.4878e-18
-2.54795e-18
-1.47028e-18
1.32035e-18
-1.05274e-19
-1.32958e-19
7.041e-19
-8.64015e-19
-1.09576e-18
2.7084e-18
-1.48131e-18
-1.5734e-18
7.588e-18
-5.39259e-18
-4.64961e-18
7.13152e-18
-2.41081e-18
-1.39083e-18
1.2583e-18
-9.99296e-20
-9.64567e-20
6.95761e-19
-8.16973e-19
-1.05173e-18
2.62374e-18
-1.4213e-18
-1.50501e-18
7.18583e-18
-5.08615e-18
-4.36818e-18
6.71451e-18
-2.27786e-18
-1.31204e-18
1.18103e-18
-9.38399e-20
-1.22606e-19
6.21227e-19
-8.23638e-19
-1.03514e-18
2.53148e-18
-1.37885e-18
-1.45005e-18
6.92372e-18
-4.93121e-18
-4.17862e-18
6.40378e-18
-2.15805e-18
-1.24393e-18
1.12641e-18
-8.93486e-20
-9.29101e-20
5.73727e-19
-7.87391e-19
-9.97543e-19
2.45528e-18
-1.32257e-18
-1.39e-18
6.59354e-18
-4.66933e-18
-3.95668e-18
6.07115e-18
-2.04886e-18
-1.17851e-18
1.06293e-18
-8.43505e-20
-1.18755e-19
6.1476e-19
-7.70373e-19
-9.76619e-19
2.36373e-18
-1.28545e-18
-1.34133e-18
6.3557e-18
-4.50545e-18
-3.79375e-18
5.78243e-18
-1.94829e-18
-1.12137e-18
1.01467e-18
-8.06281e-20
-1.81115e-19
6.21834e-19
-7.48088e-19
-9.46324e-19
2.26937e-18
-1.23541e-18
-1.28701e-18
6.06705e-18
-4.27221e-18
-3.5986e-18
5.4958e-18
-1.84502e-18
-1.06494e-18
9.61702e-19
-7.60377e-20
-1.03522e-19
5.92997e-19
-7.23057e-19
-9.14498e-19
2.22692e-18
-1.19505e-18
-1.24382e-18
5.84859e-18
-4.13722e-18
-3.46281e-18
5.25055e-18
-1.77527e-18
-1.02139e-18
9.16497e-19
-7.38757e-20
-1.42938e-19
5.74951e-19
-7.1353e-19
-8.94691e-19
2.13321e-18
-1.15384e-18
-1.194e-18
5.59607e-18
-3.92482e-18
-3.28532e-18
5.0087e-18
-1.67685e-18
-9.66615e-19
8.74534e-19
-6.90728e-20
1.96578e-20
5.58811e-19
-6.82972e-19
-8.58782e-19
2.13041e-18
-1.11235e-18
-1.15599e-18
5.39432e-18
-3.82588e-18
-3.17622e-18
4.78455e-18
-1.63498e-18
-9.35771e-19
8.30551e-19
-6.83297e-20
-1.00523e-19
5.02799e-19
-6.75438e-19
-8.49157e-19
1.99295e-18
-1.08292e-18
-1.10995e-18
5.17418e-18
-3.62004e-18
-3.0113e-18
4.57362e-18
-1.52558e-18
-8.78207e-19
7.98399e-19
-6.30851e-20
-1.21043e-19
5.31813e-19
-6.5011e-19
-8.16499e-19
1.9537e-18
-1.04406e-18
-1.07706e-18
4.99541e-18
-3.50697e-18
-2.91162e-18
4.39256e-18
-1.47859e-18
-8.53752e-19
7.60857e-19
-6.19053e-20
-1.67166e-20
4.80281e-19
-6.37143e-19
-7.98267e-19
1.89304e-18
-1.01085e-18
-1.03315e-18
4.79045e-18
-3.35653e-18
-2.77146e-18
4.20258e-18
-1.4083e-18
-8.05525e-19
7.30972e-19
-5.81386e-20
-1.22573e-19
4.94096e-19
-6.19492e-19
-7.76444e-19
1.82849e-18
-9.81233e-19
-1.00473e-18
4.63946e-18
-3.23916e-18
-2.67981e-18
4.04244e-18
-1.35327e-18
-7.80195e-19
6.99415e-19
-5.63951e-20
-8.56915e-20
4.61954e-19
-6.01438e-19
-7.49507e-19
1.76714e-18
-9.43275e-19
-9.61762e-19
4.44167e-18
-3.09458e-18
-2.55224e-18
3.86014e-18
-1.28872e-18
-7.40235e-19
6.71228e-19
-5.34778e-20
-1.0384e-19
4.6537e-19
-5.89202e-19
-7.36433e-19
1.72776e-18
-9.22205e-19
-9.40034e-19
4.31762e-18
-3.01101e-18
-2.48257e-18
3.73918e-18
-1.25145e-18
-7.19339e-19
6.45796e-19
-5.17393e-20
-2.84033e-20
4.39981e-19
-5.60216e-19
-7.01354e-19
1.66785e-18
-8.78709e-19
-8.94213e-19
4.11322e-18
-2.8648e-18
-2.35142e-18
3.544e-18
-1.19086e-18
-6.82648e-19
6.15844e-19
-4.97909e-20
-1.03664e-19
4.37682e-19
-5.60577e-19
-7.04383e-19
1.63431e-18
-8.745e-19
-8.87159e-19
4.04273e-18
-2.81848e-18
-2.31888e-18
3.48699e-18
-1.16076e-18
-6.65691e-19
6.00784e-19
-4.74485e-20
-5.13016e-20
4.19656e-19
-5.2204e-19
-6.56778e-19
1.53153e-18
-8.08369e-19
-8.24881e-19
3.7728e-18
-2.60371e-18
-2.1368e-18
3.2164e-18
-1.08077e-18
-6.22269e-19
5.61578e-19
-4.57865e-20
-4.07291e-20
4.21531e-19
-5.37288e-19
-6.71631e-19
1.5863e-18
-8.39731e-19
-8.44859e-19
3.81505e-18
-2.69683e-18
-2.20525e-18
3.30889e-18
-1.10403e-18
-6.32294e-19
5.69939e-19
-4.59086e-20
-6.98308e-20
3.27853e-19
-4.29564e-19
-5.44391e-19
1.26738e-18
-6.69307e-19
-6.84026e-19
3.22868e-18
-2.16809e-18
-1.81026e-18
2.78707e-18
-9.46888e-19
-5.54337e-19
5.10238e-19
-4.20013e-20
-6.23851e-20
4.54397e-19
-5.59408e-19
-7.04588e-19
1.69025e-18
-8.73691e-19
-8.649e-19
3.84935e-18
-2.86214e-18
-2.32291e-18
3.4139e-18
-1.1152e-18
-6.26643e-19
5.5425e-19
-4.24236e-20
-5.19607e-20
3.85487e-19
-4.77539e-19
-5.95951e-19
1.3907e-18
-7.41381e-19
-7.48241e-19
3.3677e-18
-2.3158e-18
-1.8652e-18
2.77115e-18
-9.08851e-19
-5.06354e-19
4.39623e-19
-3.85375e-20
)
;
    }
    backWedge
    {
        type            wedge;
        value           nonuniform List<scalar> 
750
(
-2.29833e-19
1.49751e-18
-1.47259e-18
-2.03684e-18
5.61891e-18
-3.45251e-18
-4.29519e-18
2.73849e-17
-2.55097e-17
-3.0658e-17
8.53908e-17
-4.08681e-17
-4.7249e-17
2.74453e-17
4.48203e-18
-5.61485e-19
5.72441e-18
-7.23072e-18
-1.02997e-17
2.65281e-17
-1.64443e-17
-1.9523e-17
1.06292e-16
-9.56065e-17
-1.03486e-16
2.27667e-16
-1.31343e-16
-1.08162e-16
1.80258e-16
-1.70225e-17
-4.39092e-19
5.00299e-18
-6.07853e-18
-8.46832e-18
2.17844e-17
-1.32126e-17
-1.56041e-17
8.30921e-17
-7.0978e-17
-7.83295e-17
1.76542e-16
-9.74531e-17
-7.6966e-17
1.15392e-16
-9.1304e-18
-3.40589e-19
3.64299e-18
-4.30958e-18
-5.84053e-18
1.44614e-17
-8.91765e-18
-1.05424e-17
5.58811e-17
-5.00101e-17
-5.66284e-17
1.18089e-16
-5.21589e-17
-5.21678e-17
6.19879e-17
-4.23508e-18
-2.62782e-19
3.00431e-18
-3.23428e-18
-4.55367e-18
1.2042e-17
-7.32585e-18
-8.65229e-18
4.69904e-17
-4.20646e-17
-4.58391e-17
9.45247e-17
-4.15417e-17
-3.56809e-17
3.46852e-17
-2.18397e-18
-2.82156e-19
1.92442e-18
-2.7765e-18
-3.83091e-18
9.53436e-18
-5.99274e-18