/*--------------------------------*- C++ -*----------------------------------*\
| =========                 |                                                 |
| \\      /  F ield         | OpenFOAM: The Open Source CFD Toolbox           |
|  \\    /   O peration     | Version:  2.4.0                                 |
|   \\  /    A nd           | Web:      www.OpenFOAM.org                      |
|    \\/     M anipulation  |                                                 |
\*---------------------------------------------------------------------------*/
FoamFile
{
    version     2.0;
    format      ascii;
    class       volScalarField;
    location    "3.32";
    object      k;
}
// * * * * * * * * * * * * * * * * * * * * * * * * * * * * * * * * * * * * * //

dimensions      [0 2 -2 0 0 0 0];

internalField   nonuniform List<scalar> 
6000
(
0.011712
0.00656507
0.00175748
0.000440829
0.000125145
0.000316276
0.000212058
0.000340146
0.000399542
0.000622409
0.000920883
0.00133423
0.00179136
0.00229668
0.00286003
0.00351122
0.00413854
0.00471066
0.00423514
0.00312554
0.00203656
0.00155042
0.00278108
0.00430899
0.006054
0.00759724
0.00872967
0.00954174
0.0101354
0.0105732
0.0108878
0.0111172
0.0112654
0.0113461
0.0113685
0.0113395
0.0112619
0.0111324
0.0109396
0.0106635
0.0102651
0.0103288
0.0107467
0.0110417
0.0112118
0.011273
0.0112469
0.0111472
0.0109521
0.0106209
0.0101156
0.00947891
0.00877201
0.00810946
0.00748154
0.00709173
0.00674191
0.00718263
0.0074591
0.00928305
0.0120371
0.0117177
0.00208818
0.000679525
0.000144591
0.000275323
0.000361536
0.000505118
0.00072946
0.00110711
0.00162338
0.00228903
0.00307334
0.00403218
0.00520546
0.00662493
0.00819744
0.00935589
0.00778615
0.00525994
0.00349794
0.0032391
0.00711673
0.0094162
0.0108499
0.0125232
0.0139363
0.0149862
0.0157877
0.0164373
0.0169915
0.0174844
0.0179318
0.0183635
0.0187949
0.0192359
0.0196878
0.0201383
0.0205552
0.0208815
0.0210179
0.0209734
0.0206589
0.0199817
0.0189798
0.0177374
0.0163596
0.0149387
0.0135406
0.0123032
0.0113731
0.0107512
0.0103177
0.00983512
0.00918488
0.00830286
0.0074701
0.00669438
0.00627016
0.00603149
0.0115679
0.0151693
0.00288013
0.0006506
0.000198365
0.000328842
0.000466197
0.00064561
0.000946513
0.00142717
0.00208362
0.00292048
0.00389865
0.00506617
0.00647036
0.00817428
0.0100801
0.011454
0.00956056
0.00660218
0.00451296
0.00456994
0.0097594
0.0118392
0.0138014
0.0161728
0.0179865
0.0192702
0.0202136
0.0209489
0.0215582
0.0220943
0.0225806
0.0230489
0.0235206
0.0240102
0.0245226
0.0250457
0.0255418
0.0259423
0.0261264
0.0260188
0.0255149
0.0245617
0.0232053
0.0215516
0.0197324
0.0178698
0.0160508
0.0143187
0.0127864
0.0115285
0.0105502
0.0097737
0.00904953
0.00829507
0.00747827
0.0067501
0.00608613
0.00561088
0.0114636
0.0160726
0.00400517
0.000537815
0.00024977
0.000380792
0.000545925
0.000757773
0.00111364
0.00167453
0.00243917
0.00340106
0.0045035
0.00578657
0.00731101
0.0091638
0.0112374
0.0127011
0.0106524
0.00741344
0.00525754
0.005813
0.0116762
0.0137549
0.0163125
0.0191126
0.0211658
0.0225954
0.0236239
0.0244026
0.0250286
0.0255639
0.0260372
0.0264842
0.0269313
0.0273978
0.0278922
0.0284046
0.0288959
0.029291
0.0294587
0.0292839
0.0286558
0.0275338
0.0259682
0.0240769
0.022008
0.0199011
0.0178546
0.0159102
0.0141348
0.0125872
0.0112923
0.0102439
0.0093471
0.00853725
0.00771176
0.00697207
0.00628223
0.00574401
0.0113762
0.0157668
0.00531817
0.000493661
0.000296585
0.000427029
0.000613132
0.000854339
0.00125446
0.0018819
0.00273539
0.00379514
0.00498607
0.00634124
0.007933
0.00986462
0.0120162
0.0134958
0.0113781
0.00791569
0.0058106
0.00701033
0.0131544
0.0154029
0.018472
0.0216002
0.0238574
0.025417
0.0265205
0.027333
0.0279626
0.0284783
0.0289147
0.0293122
0.0297014
0.0301057
0.0305378
0.030991
0.0314263
0.031766
0.0318749
0.0316195
0.0308883
0.0296439
0.0279377
0.025893
0.0236662
0.0214061
0.0192187
0.017149
0.0152428
0.0135415
0.0120654
0.0108286
0.00977339
0.00886391
0.00799225
0.00722591
0.00652961
0.00598266
0.0113033
0.0149414
0.00671968
0.000624025
0.000341291
0.000469373
0.000672911
0.000940807
0.00137817
0.0020625
0.00299158
0.00413163
0.00538956
0.00679063
0.0084154
0.0103777
0.0125444
0.0139869
0.0118604
0.00820305
0.00622184
0.00812691
0.0143445
0.0168528
0.0203663
0.0237891
0.0262456
0.0279363
0.029115
0.0299585
0.030584
0.031067
0.0314494
0.0317756
0.0320801
0.0323902
0.0327229
0.0330755
0.0334107
0.0336506
0.0336626
0.0333109
0.0324841
0.0311455
0.0293453
0.027207
0.0248881
0.0225399
0.020271
0.0181282
0.0161462
0.0143549
0.0127673
0.0114015
0.0102199
0.0092109
0.00827835
0.00747723
0.00677231
0.00622721
0.0112435
0.0139418
0.007755
0.00115599
0.00039215
0.000509753
0.000728062
0.00102006
0.00148946
0.00222322
0.00321811
0.00442635
0.0057372
0.00716646
0.00879937
0.0107561
0.0128911
0.0142565
0.0121691
0.00833155
0.00652521
0.00914759
0.0153259
0.0181402
0.0220555
0.0257624
0.0284223
0.0302497
0.0315066
0.03238
0.0329956
0.0334357
0.0337494
0.0339851
0.0341811
0.0343683
0.0345681
0.0347824
0.0349772
0.0350764
0.034957
0.0344923
0.0335708
0.0321569
0.0302983
0.0281141
0.0257576
0.0233756
0.021075
0.018901
0.0168818
0.0150404
0.0133833
0.0119282
0.0106492
0.00955233
0.00855725
0.00771775
0.00700056
0.00645742
0.0111888
0.0129396
0.00845655
0.00208576
0.000469839
0.000550372
0.000780646
0.00109403
0.00159121
0.00236825
0.00342137
0.00468915
0.00604343
0.00748861
0.00911118
0.0110346
0.0131035
0.0143614
0.0123535
0.00834514
0.00674766
0.0100681
0.0161469
0.0192901
0.0235798
0.0275682
0.0304378
0.0324085
0.0337472
0.0346501
0.0352509
0.0356389
0.0358706
0.0359985
0.0360642
0.0361021
0.0361383
0.03618
0.0361971
0.0361175
0.0358366
0.0352417
0.0342223
0.0327457
0.0308565
0.0286667
0.0263195
0.0239522
0.0216646
0.0194973
0.0174739
0.0156128
0.0139163
0.0124008
0.0110479
0.00987712
0.00882372
0.00794545
0.00721362
0.00667032
0.011136
0.0120146
0.00887368
0.00320484
0.000618576
0.000594444
0.000832596
0.00116428
0.00168543
0.00250041
0.00360567
0.00492672
0.00631816
0.00777101
0.00937012
0.01124
0.0132194
0.0143555
0.0124433
0.00828587
0.00691383
0.0108891
0.0168402
0.020322
0.0249668
0.0292362
0.0323217
0.0344418
0.0358657
0.0367975
0.0373792
0.0377066
0.0378442
0.0378483
0.0377638
0.0376285
0.0374733
0.037311
0.0371166
0.0368231
0.0363557
0.0356127
0.0344894
0.0329576
0.0310597
0.0288979
0.0266013
0.0242924
0.0220595
0.0199348
0.0179376
0.0160835
0.0143721
0.0128189
0.0114117
0.0101804
0.00907535
0.00815998
0.00741252
0.00686691
0.0110858
0.0111984
0.00905431
0.00433747
0.000924714
0.000647552
0.000886107
0.00123231
0.0017737
0.00262175
0.0037741
0.00514384
0.0065686
0.00802421
0.00959163
0.0113946
0.0132709
0.0142837
0.0124659
0.00819903
0.00704935
0.0116123
0.0174297
0.0212515
0.0262357
0.0307858
0.0340921
0.036367
0.0378788
0.0388389
0.0393972
0.0396564
0.0396887
0.0395545
0.0393018
0.0389718
0.0386001
0.0382057
0.0377694
0.0372316
0.0365566
0.035648
0.0344125
0.0328292
0.0309389
0.0288328
0.0266227
0.0244117
0.0222721
0.020224
0.0182822
0.0164601
0.0147555
0.013184
0.0117392
0.01046
0.00931087
0.0083614
0.00759839
0.00704878
0.0110394
0.0104975
0.0090482
0.00533877
0.00149489
0.000720275
0.000944027
0.00129981
0.00185737
0.00273386
0.00392891
0.00534403
0.00680016
0.00825646
0.00978794
0.0115176
0.0132871
0.0141848
0.0124472
0.00813498
0.00718435
0.0122357
0.0179342
0.0220914
0.0274007
0.0322299
0.0357607
0.0381941
0.0397958
0.0407836
0.0413145
0.0414983
0.0414152
0.0411296
0.0406927
0.0401488
0.0395387
0.0388877
0.0381826
0.0373761
0.0364757
0.0353849
0.0340277
0.032393
0.0305216
0.0284931
0.0263996
0.0243215
0.0223111
0.0203722
0.018514
0.0167476
0.0150701
0.013498
0.0120306
0.0107151
0.0095296
0.00854978
0.00777212
0.00721739
0.0109971
0.00990607
0.00890387
0.00615288
0.00223797
0.000832466
0.00101046
0.0013688
0.00193781
0.00283804
0.00407181
0.00552984
0.00701686
0.00847425
0.00996959
0.0116262
0.0132934
0.0140921
0.012415
0.00814265
0.00735816
0.0127507
0.0183689
0.0228521
0.0284722
0.0335777
0.0373348
0.0399294
0.0416223
0.0426366
0.0431364
0.0432385
0.0430307
0.0425821
0.0419469
0.0411727
0.0403052
0.0393765
0.0383799
0.0372873
0.0361466
0.0348586
0.0333696
0.0316808
0.0298347
0.0278999
0.0259475
0.0240325
0.0221834
0.0203844
0.0186372
0.0169497
0.0153187
0.0137623
0.0122862
0.0109453
0.00973111
0.00872515
0.00793431
0.00737386
0.010959
0.00941275
0.00866508
0.00675982
0.0030624
0.00102226
0.00109176
0.00144194
0.00201649
0.00293548
0.00420409
0.00570312
0.00722165
0.00868255
0.0101453
0.0117346
0.013312
0.0140344
0.0124133
0.00823402
0.00757161
0.0131739
0.0187466
0.0235422
0.0294586
0.0348358
0.0388193
0.0415764
0.043361
0.0444005
0.0448658
0.0448801
0.0445397
0.0439179
0.0430723
0.0420539
0.0409132
0.0396897
0.0383828
0.0369951
0.0356014
0.0341033
0.0324725
0.030725
0.0289062
0.0270752
0.0252822
0.0235551
0.0218957
0.0202649
0.0186549
0.0170689
0.0155032
0.0139783
0.0125064
0.0111505
0.0099151
0.00888749
0.00808535
0.00751904
0.0109251
0.00900462
0.00836862
0.00716444
0.00387222
0.0013642
0.00119821
0.00152291
0.00209522
0.00302741
0.0043268
0.00586513
0.00741648
0.00888492
0.0103217
0.0118544
0.013361
0.0140345
0.012477
0.00842173
0.00782354
0.0135225
0.0190782
0.0241692
0.0303661
0.0360088
0.0402171
0.0431367
0.0450129
0.0460764
0.0465038
0.0464253
0.0459452
0.0451415
0.0440756
0.0428014
0.0413751
0.039843
0.0382111
0.036529
0.0348709
0.0331527
0.0313714
0.0295589
0.0277659
0.0260433
0.0244215
0.0229012
0.0214553
0.0200181
0.0185699
0.0171072
0.0156252
0.0141468
0.0126916
0.0113305
0.0100813
0.0090367
0.00822544
0.00765352
0.010895
0.00866898
0.00804368
0.00738604
0.00462141
0.00188501
0.00134615
0.00161699
0.00217634
0.00311518
0.00444082
0.00601668
0.0076025
0.00908358
0.0105034
0.0119943
0.0134538
0.0141096
0.0126309
0.00871827
0.00810906
0.0138127
0.019373
0.024739
0.0311999
0.0371003
0.0415303
0.0446112
0.0465783
0.0476642
0.0480509
0.047875
0.0472492
0.0462566
0.0449621
0.0434234
0.0417019
0.0398513
0.037887
0.0359152
0.033985
0.0320399
0.0301014
0.0282177
0.0264457
0.0248307
0.0233854
0.0220843
0.0208703
0.0196488
0.0183851
0.0170665
0.015686
0.0142688
0.0128421
0.0114854
0.0102296
0.00917263
0.00835468
0.00777772
0.0108685
0.00839418
0.00771222
0.00745161
0.00527486
0.00255089
0.00156124
0.00173193
0.00226302
0.00320046
0.00454703
0.00615824
0.00778011
0.0092795
0.0106928
0.0121594
0.0135988
0.0142699
0.0128903
0.00912925
0.00842649
0.0140604
0.0196394
0.025257
0.0319644
0.0381129
0.0427597
0.0459999
0.0480566
0.0491634
0.0495067
0.0492297
0.0484533
0.0472661
0.045737
0.0439272
0.0419039
0.0397282
0.0374338
0.035177
0.0329721
0.0307976
0.028698
0.0267376
0.02498
0.0234668
0.0221966
0.0211201
0.0201506
0.0191628
0.0181038
0.0169486
0.0156866
0.014345
0.0129585
0.0116153
0.0103597
0.00929515
0.00847306
0.00789193
0.0108453
0.00817001
0.0073898
0.0073913
0.00580731
0.00329022
0.00188497
0.00187916
0.00235969
0.00328546
0.00464641
0.00629009
0.00794912
0.0094725
0.0108904
0.0123516
0.0137996
0.0145198
0.0132619
0.00965503
0.00877806
0.0142803
0.0198845
0.0257279
0.0326629
0.0390484
0.0439061
0.0473023
0.0494469
0.050573
0.0508708
0.0504897
0.0495589
0.0481729
0.0464046
0.0443194
0.0419905
0.0394865
0.0368746
0.0343368
0.0318594
0.0294571
0.0271962
0.0251556
0.0234049
0.0219838
0.0208807
0.020027
0.019308
0.0185669
0.0177298
0.0167559
0.0156285
0.014376
0.0130408
0.0117201
0.0104715
0.00940406
0.00858053
0.00799631
0.010825
0.0079877
0.00708672
0.00723539
0.00620489
0.00403506
0.00234237
0.00207516
0.00247265
0.00337312
0.00474028
0.00641246
0.00810887
0.00966144
0.0110946
0.0125698
0.0140549
0.0148575
0.013745
0.0102926
0.00917032
0.0144867
0.020115
0.0261559
0.0332985
0.0399083
0.0449694
0.0485177
0.050748
0.0518919
0.0521423
0.0516549
0.0505671
0.0489792
0.0469691
0.0446065
0.0419707
0.039138
0.0362322
0.0334151
0.0306718
0.0280481
0.0256302
0.0235088
0.0217581
0.0204165
0.0194665
0.018826
0.0183562
0.0178698
0.0172681
0.0164909
0.015513
0.0143627
0.0130897
0.0118
0.0105649
0.00949923
0.00867699
0.00809098
0.0108073
0.00783983
0.00680915
0.00701216
0.00646466
0.0047335
0.00291953
0.00234255
0.00261095
0.00346749
0.00483041
0.00652567
0.00825842
0.00984439
0.0113024
0.0128096
0.0143593
0.0152765
0.0143337
0.0110375
0.00961412
0.0146926
0.0203368
0.0265448
0.0338737
0.0406936
0.0459496
0.0496451
0.0519587
0.0531189
0.0533207
0.0527253
0.0514787
0.0496875
0.0474344
0.0447941
0.0418527
0.0387
0.0355217
0.032431
0.0294323
0.0265982
0.0240322
0.0218334
0.0200775
0.0188012
0.0179853
0.0175411
0.0173116
0.0170814
0.0167245
0.0161569
0.0153419
0.0143061
0.0131054
0.0118551
0.0106399
0.00958049
0.00876236
0.00817598
0.0107919
0.00772023
0.00656011
0.00674649
0.00659293
0.00534647
0.00357175
0.00270944
0.00278741
0.00357419
0.00491934
0.00663039
0.00839672
0.0100189
0.0115095
0.0130648
0.0147039
0.0157666
0.0150187
0.0118848
0.0101241
0.0149108
0.0205554
0.0268983
0.0343909
0.0414051
0.0468462
0.0506835
0.0530776
0.0542529
0.054405
0.0537008
0.0522947
0.0502998
0.0478041
0.0448878
0.0416439
0.0381913
0.0347552
0.0314011
0.0281614
0.0251323
0.0224319
0.0201639
0.0184007
0.0171756
0.0164707
0.0161989
0.0161927
0.0162138
0.016106
0.0157578
0.0151174
0.0142072
0.0130886
0.0118855
0.0106963
0.00964774
0.00883654
0.00825136
0.0107785
0.00762378
0.00634039
0.00645921
0.00660309
0.00584696
0.00425211
0.00319033
0.0030198
0.0037011
0.00501063
0.00672777
0.00852282
0.0101823
0.0117111
0.0133273
0.0150777
0.0163151
0.0157883
0.0128296
0.0107177
0.0151536
0.0207766
0.0272201
0.0348522
0.0420432
0.0476587
0.0516316
0.0541033
0.0552924
0.0553944
0.0545814
0.053016
0.0508181
0.0480814
0.0448923
0.0413509
0.0376297
0.0339441
0.03034
0.0268768
0.0236719
0.0208556
0.0185314
0.016763
0.0155768
0.0149578
0.0148283
0.0150205
0.0152809
0.0154211
0.0152983
0.0148419
0.0140674
0.0130399
0.0118916
0.0107343
0.0097009
0.00889943
0.00831714
0.0107669
0.00754623
0.00614927
0.00616683
0.00651336
0.00621903
0.00491621
0.00377348
0.00333156
0.00385915
0.00510932
0.00681973
0.00863609
0.0103318
0.0119017
0.013588
0.0154675
0.0169073
0.0166296
0.0138663
0.011413
0.0154332
0.0210059
0.0275141
0.0352596
0.0426083
0.0483865
0.0524883
0.0550344
0.0562363
0.0562881
0.0553669
0.0536432
0.0512442
0.0482693
0.0448121
0.0409875
0.0370242
0.033098
0.0292601
0.0255935
0.0222355
0.0193256
0.0169627
0.0151962
0.01404
0.0134816
0.0134598
0.0138182
0.0142983
0.0146793
0.014784
0.0145186
0.0138883
0.0129602
0.0118738
0.0107539
0.00973994
0.00895098
0.00837322
0.0107568
0.00748412
0.00598504
0.00588176
0.00634447
0.00645682
0.00552487
0.0044251
0.00374454
0.00406335
0.00522251
0.00690922
0.00873649
0.010465
0.0120764
0.0138377
0.0158596
0.0175276
0.0175286
0.0149878
0.0122263
0.0157624
0.0212496
0.0277842
0.0356149
0.0431007
0.0490287
0.0532521
0.0558693
0.0570832
0.0570852
0.0560571
0.0541771
0.0515796
0.0483706
0.0446514
0.0405696
0.03638
0.0322255
0.0281717
0.0243237
0.0208375
0.0178596
0.0154795
0.0137266
0.0125964
0.0120758
0.0121248
0.0126107
0.0132835
0.0138917
0.0142213
0.014151
0.0136719
0.0128505
0.0118326
0.0107554
0.00976486
0.00899115
0.00841957
0.0107481
0.00743459
0.00584542
0.00561269
0.00611767
0.00656341
0.0060458
0.00510339
0.00426432
0.00433398
0.00535785
0.00700187
0.00882518
0.0105799
0.0122306
0.0140674
0.01624
0.0181596
0.0184705
0.0161851
0.0131697
0.0161549
0.0215149
0.0280354
0.0359204
0.0435203
0.0495844
0.0539218
0.0566066
0.0578318
0.0577847
0.0566518
0.054618
0.0518259
0.0483877
0.0444169
0.0401083
0.0357021
0.0313336
0.0270831
0.0230771
0.0194894
0.0164708
0.0140978
0.0123743
0.0112716
0.0107704
0.0108537
0.0114239
0.0122557
0.0130707
0.0136174
0.0137431
0.0134203
0.0127119
0.0117685
0.0107389
0.00977576
0.00901995
0.00845624
0.0107405
0.00739531
0.00572789
0.00536521
0.00585317
0.0065493
0.00645475
0.00576616
0.00487509
0.00468839
0.00552597
0.00710199
0.00890854
0.0106765
0.0123609
0.0142671
0.0165951
0.0187866
0.01944
0.0174469
0.0142489
0.0166248
0.0218103
0.0282732
0.0361782
0.0438673
0.0500526
0.0544958
0.0572448
0.0584807
0.0583858
0.0571504
0.0549664
0.0519843
0.0483226
0.0441233
0.0396059
0.0349947
0.0304279
0.0260007
0.0218609
0.0181992
0.0151681
0.0128275
0.0111518
0.0100832
0.00958986
0.00967449
0.010284
0.0112349
0.0122296
0.0129806
0.0132997
0.0131363
0.012546
0.0116823
0.0107049
0.00977276
0.00903741
0.00848331
0.010734
0.00736437
0.00562987
0.00514234
0.00556893
0.00643065
0.00673635
0.00637463
0.00554571
0.00513894
0.00574032
0.00721552
0.00898926
0.010761
0.0124648
0.0144306
0.0169119
0.0193916
0.0204205
0.0187598
0.0154625
0.0171874
0.022146
0.0285047
0.0363908
0.0441415
0.0504322
0.0549726
0.057782
0.0590283
0.0588874
0.0575527
0.0552226
0.0520556
0.0481818
0.0437791
0.0390648
0.0342616
0.0295131
0.0249296
0.0206803
0.0169719
0.0139563
0.0116731
0.0100646
0.0090406
0.00855079
0.00861067
0.00921608
0.0102418
0.0113828
0.0123198
0.012826
0.0128226
0.0123542
0.0115748
0.0106538
0.00975607
0.00904364
0.00850088
0.0107283
0.00734021
0.00554885
0.0049452
0.00527995
0.00622725
0.00688437
0.00689544
0.00623657
0.00568645
0.00601654
0.00735035
0.00907116
0.0108352
0.0125478
0.0145535
0.0171792
0.0199576
0.0213951
0.020108
0.0168019
0.0178574
0.0225344
0.0287391
0.0365613
0.044343
0.0507217
0.0553505
0.0582167
0.0594732
0.0592882
0.057858
0.0553865
0.0520406
0.0479781
0.0433858
0.038487
0.0335059
0.0285926
0.0238733
0.0195387
0.0158104
0.0128368
0.0106344
0.00911157
0.00814502
0.00766119
0.00767919
0.00824236
0.00929646
0.010545
0.0116444
0.0123276
0.0124826
0.0121385
0.0114472
0.0105861
0.00972596
0.00903876
0.00850907
0.0107234
0.00732154
0.00548251
0.00477348
0.00499802
0.00596058
0.00690134
0.00730205
0.0069059
0.006316
0.00636999
0.0075165
0.0091594
0.0109017
0.0126158
0.0146366
0.0173873
0.0204681
0.0223459
0.0214746
0.0182517
0.0186479
0.0229908
0.0289856
0.0366949
0.0444715
0.0509198
0.0556277
0.0585469
0.0598136
0.059587
0.0580656
0.0554581
0.05195
0.0477133
0.0429447
0.0378745
0.0327301
0.0276692
0.0228344
0.0184382
0.0147157
0.0118085
0.00970763
0.00828694
0.0073907
0.00692039
0.00688922
0.00738221
0.00841731
0.00973104
0.0109646
0.0118107
0.0121198
0.0119009
0.0113005
0.0105025
0.00968277
0.00902297
0.00850802
0.0107191
0.00730732
0.0054287
0.00462593
0.00473173
0.00565199
0.0067976
0.00757584
0.007514
0.00699781
0.00681153
0.00772605
0.00926062
0.010964
0.01267
0.01469
0.0175292
0.0209075
0.0232542
0.0228416
0.0197916
0.0195683
0.0235192
0.0292431
0.0367998
0.0445372
0.0510291
0.0558022
0.0587706
0.0600477
0.0597824
0.0581752
0.0554442
0.0517865
0.0473887
0.0424571
0.0372291
0.0319363
0.0267449
0.0218147
0.01738
0.0136874
0.0108688
0.00888702
0.00758179
0.00676722
0.00632058
0.00624179
0.00664523
0.00761991
0.00895515
0.0102906
0.0112818
0.0117381
0.0116436
0.011136
0.0104037
0.00962693
0.00899651
0.00849793
0.0107153
0.0072967
0.00538553
0.0045007
0.00448679
0.00532121
0.00658976
0.00770692
0.00802583
0.00769209
0.00734207
0.00799218
0.00938307
0.0110271
0.0127131
0.0147235
0.017604
0.0212613
0.0241008
0.02419
0.0213965
0.0206224
0.0241153
0.0295155
0.0368793
0.0445434
0.0510544
0.0558779
0.0588884
0.060175
0.0598751
0.0581903
0.0553463
0.0515516
0.0470057
0.0419244
0.0365522
0.0311261
0.0258211
0.0208152
0.0163644
0.0127243
0.0100138
0.00816551
0.00698586
0.00626188
0.0058493
0.00573077
0.00603556
0.00691619
0.00823028
0.00963261
0.0107476
0.0113417
0.011369
0.0109551
0.0102905
0.00955891
0.00895969
0.00847902
0.0107121
0.00728897
0.00535131
0.00439561
0.00426643
0.00498526
0.00629871
0.00769445
0.00841281
0.00835515
0.00794836
0.00832712
0.00953652
0.011097
0.0127488
0.0147391
0.0176249
0.021517
0.0248661
0.0255005
0.0230392
0.0218056
0.0247746
0.0298067
0.036937
0.0444935
0.0509986
0.0558572
0.0589023
0.0601972
0.0598668
0.0581125
0.0551663
0.0512467
0.0465655
0.0413477
0.0358453
0.0303009
0.0248992
0.0198367
0.0153912
0.0118246
0.0092391
0.00753573
0.00648878
0.00586166
0.00549216
0.00534499
0.00555131
0.00631373
0.00756758
0.00900038
0.0102152
0.0109348
0.0110798
0.0107595
0.010164
0.0094793
0.00891286
0.00845155
0.0107093
0.00728354
0.00532459
0.0043084
0.0040719
0.00465787
0.00594759
0.00754635
0.00865423
0.00894448
0.00860217
0.0087387
0.00973183
0.0111812
0.012782
0.0147398
0.0176098
0.0216648
0.0255302
0.0267533
0.0246908
0.023097
0.0254986
0.0301205
0.0369764
0.0443912
0.0508649
0.0557427
0.0588146
0.0601166
0.0597596
0.0579436
0.0549055
0.0508732
0.0460693
0.0407283
0.0351096
0.0294619
0.0239798
0.0188797
0.0144601
0.0109862
0.00854032
0.00699052
0.0060809
0.00555455
0.00523498
0.00507072
0.00518553
0.00581555
0.0069758
0.008403
0.00969119
0.010522
0.0107789
0.0105508
0.010025
0.00938873
0.00885644
0.00841583
0.0107068
0.00727996
0.00530411
0.0042368
0.00390298
0.00434924
0.00555961
0.00727826
0.00873834
0.00942229
0.00926356
0.009226
0.00997979
0.0112882
0.0128189
0.0147302
0.0175661
0.0217118
0.0260738
0.0279279
0.0263228
0.0244707
0.0262863
0.03046
0.0370013
0.0442402
0.0506568
0.0555374
0.0586279
0.0599352
0.0595553
0.0576854
0.0545656
0.0504323
0.0455185
0.0400675
0.0343462
0.0286099
0.0230637
0.0179446
0.0135706
0.0102071
0.00791302
0.00652321
0.00575358
0.00533007
0.00506514
0.004894
0.00492795
0.00542045
0.00646094
0.00784846
0.0091824
0.0101079
0.010469
0.0103309
0.00987483
0.00928792
0.00879091
0.00837221
0.0107046
0.00727783
0.00528878
0.00417868
0.00375845
0.00406622
0.00515634
0.00691187
0.00866302
0.00975791
0.00988654
0.00977566
0.0102891
0.0114275
0.0128665
0.0147156
0.0174975
0.0216764
0.0264782
0.0290031
0.027908
0.025898
0.0271338
0.0308277
0.0370156
0.0440447
0.050378
0.0552445
0.0583448
0.0596555
0.0592561
0.0573396
0.0541483
0.0499257
0.0449143
0.0393664
0.0335563
0.027746
0.0221517
0.0170316
0.0127222
0.009485
0.00735299
0.00612775
0.00549936
0.00517942
0.00497202
0.00480205
0.00476686
0.00512382
0.00602618
0.00734339
0.00869507
0.00969709
0.0101533
0.0101016
0.00971464
0.00917766
0.0087168
0.00832109
0.0107027
0.00727683
0.00527767
0.00413208
0.0036364
0.00381268
0.00475631
0.00647278
0.00843588
0.00992937
0.0104249
0.0103605
0.0106633
0.011608
0.0129325
0.0147022
0.0174094
0.0215839
0.0267264
0.0299562
0.0294188
0.0273493
0.0280343
0.0312248
0.0370229
0.0438088
0.0500325
0.0548674
0.0579683
0.0592799
0.0588641
0.0569082
0.0536551
0.0493547
0.0442582
0.0386262
0.032741
0.0268709
0.0212443
0.0161411
0.0119144
0.00881783
0.0068563
0.00579868
0.00531181
0.00509531
0.00494691
0.00478395
0.0046906
0.00491873
0.00567202
0.0068929
0.00823492
0.00929403
0.00983474
0.00986505
0.00954576
0.00905883
0.0086347
0.00826288
0.010701
0.00727671
0.00526999
0.00409524
0.00353459
0.00359009
0.0043742
0.0059881
0.00807352
0.00992468
0.0108369
0.0109413
0.0110974
0.0118374
0.013025
0.0146971
0.0173091
0.0214413
0.0268269
0.0307636
0.0308176
0.0287953
0.0289774
0.0316514
0.0370269
0.0435369
0.0496244
0.0544099
0.0575017
0.0588113
0.0583818
0.0563933
0.053088
0.048721
0.0435514
0.0378483
0.0319013
0.0259856
0.0203422
0.0152735
0.0111466
0.00820356
0.00641926
0.00553121
0.00518548
0.00507168
0.00498263
0.00483056
0.00468841
0.00479697
0.00539666
0.00650043
0.00780703
0.0089031
0.00951658
0.00962325
0.00936958
0.00893234
0.00854527
0.00819809
0.0106995
0.00727726
0.00526508
0.00406658
0.00345067
0.00339805
0.00402056
0.00548405
0.00760008
0.00974257
0.0110888
0.011472
0.0115746
0.0121197
0.0131515
0.0147072
0.0172035
0.0212554
0.0267986
0.0314003
0.0320846
0.0302073
0.0299499
0.0321058
0.0370305
0.0432334
0.0491582
0.053876
0.0569483
0.0582526
0.0578117
0.055797
0.0524488
0.0480262
0.0427956
0.0370339
0.0310383
0.0250909
0.0194461
0.0144292
0.0104183
0.00764021
0.00603849
0.00532108
0.00511575
0.00510343
0.00507314
0.00493419
0.00475073
0.00474988
0.00519652
0.00616779
0.00741561
0.00852843
0.00920189
0.0093784
0.00918756
0.00879922
0.00844921
0.00812724
0.0106983
0.0072783
0.00526238
0.00404474
0.00338231
0.0032349
0.00370195
0.00498396
0.00704498
0.00939267
0.0111572
0.0119048
0.012066
0.0124523
0.0133176
0.0147395
0.0170999
0.0210337
0.0266612
0.0318482
0.0332034
0.0315554
0.0309355
0.0325845
0.0370362
0.0429027
0.0486386
0.0532699
0.0563121
0.0576072
0.0571566
0.0551218
0.0517396
0.0472722
0.0419922
0.0361844
0.0301532
0.0241878
0.018557
0.0136088
0.00972921
0.00712587
0.00571088
0.00516459
0.00509864
0.00518613
0.0052131
0.00508811
0.00486908
0.00476891
0.00506674
0.00589531
0.00706401
0.0081738
0.00889373
0.00913269
0.00900125
0.00866051
0.0083473
0.0080509
0.0106971
0.00727971
0.00526142
0.00402853
0.00332729
0.00309819
0.00342146
0.00450683
0.00644015
0.00889487
0.0110301
0.0121963
0.0125319
0.0128235
0.0135258
0.0147996
0.0170051
0.0207845
0.0264231
0.0321091
0.0341559
0.0328126
0.0319155
0.0330818
0.0370456
0.0425489
0.0480703
0.0525963
0.055597
0.0568785
0.0564195
0.0543702
0.0509626
0.0464608
0.0411431
0.0353013
0.0292473
0.0232774
0.0176758
0.0128129
0.00907879
0.00665872
0.00543358
0.00505851
0.00513076
0.00531585
0.00539761
0.00528617
0.00503583
0.00484584
0.00500166
0.00568195
0.00675465
0.00784259
0.00859508
0.00888835
0.00881222
0.00851736
0.00824036
0.0079697
0.0106961
0.00728138
0.00526181
0.00401692
0.0032836
0.00298508
0.00317943
0.00406655
0.00581711
0.00827781
0.0107084
0.012311
0.0129262
0.0132107
0.0137725
0.0148907
0.0169249
0.0205157
0.0260933
0.0321842
0.0349286
0.0339553
0.0328698
0.03359
0.0370593
0.042176
0.0474581
0.0518599
0.0548073
0.0560702
0.0556037
0.053545
0.0501201
0.0455942
0.0402499
0.0343861
0.0283218
0.0223607
0.0168035
0.0120423
0.00846661
0.00623702
0.00520404
0.00500007
0.00520911
0.0054889
0.00562195
0.00552255
0.00524397
0.00497291
0.00499515
0.0055256
0.006489
0.00753775
0.00830877
0.00864761
0.00862213
0.00837095
0.00812926
0.00788431
0.0106952
0.00728322
0.00526322
0.00400904
0.00324943
0.0028926
0.0029742
0.00367185
0.00520429
0.0075764
0.0102053
0.0122256
0.013202
0.0135808
0.0140466
0.0150125
0.0168632
0.0202347
0.0256824
0.0320772
0.0355093
0.034963
0.0337771
0.0340991
0.0370764
0.0417874
0.0468071
0.0510656
0.0539477
0.0551864
0.0547126
0.0526492
0.0492149
0.0446745
0.0393145
0.0334404
0.0273782
0.0214389
0.0159413
0.0112974
0.00789219
0.00585909
0.00501997
0.00498686
0.00533096
0.00570174
0.00588152
0.00579161
0.0054869
0.00514283
0.00504092
0.00542329
0.00626766
0.0072617
0.00803745
0.00841266
0.00843263
0.00822251
0.00801494
0.00779544
0.0106945
0.00728517
0.0052654
0.00400416
0.00322318
0.00281785
0.0028028
0.0033268
0.00462492
0.0068286
0.00954592
0.0119296
0.0133169
0.0138924
0.0143276
0.0151589
0.0168208
0.0199473
0.0252008
0.031794
0.0358872
0.0358184
0.0346164
0.0345974
0.0370949
0.0413862
0.0461219
0.0502185
0.0530228
0.0542314
0.0537499
0.0516859
0.0482495
0.043704
0.038339
0.0324661
0.0264178
0.0205134
0.0150905
0.0105792
0.00735506
0.00552338
0.00487939
0.0050168
0.00549377
0.00595079
0.00617174
0.00608793
0.00575841
0.00534876
0.00513275
0.00537144
0.00609045
0.00701636
0.00778355
0.00818566
0.00824543
0.00807334
0.0078984
0.00770386
0.0106938
0.00728718
0.00526813
0.00400164
0.00320348
0.00275817
0.00266158
0.00303166
0.00409579
0.00607181
0.00876543
0.0114276
0.0132378
0.0141001
0.0145857
0.0153168
0.0167944
0.0196564
0.0246587
0.0313425
0.0360523
0.0365063
0.0353672
0.0350711
0.0371108
0.0409743
0.0454071
0.0493239
0.0520377
0.0532097
0.0527196
0.0506586
0.047227
0.0426853
0.0373255
0.0314648
0.0254421
0.0195856
0.0142524
0.00988826
0.00685469
0.00522842
0.00478055
0.00508805
0.005695
0.00623246
0.00648811
0.00640638
0.0060528
0.00558442
0.00526458
0.00536604
0.00595645
0.00680314
0.00754928
0.00796869
0.00806223
0.00792475
0.00778065
0.00761039
0.0106932
0.0072892
0.00527125
0.00400097
0.00318912
0.00271112
0.00254665
0.00278392
0.00362704
0.00533949
0.00790579
0.0107384
0.0129446
0.0141602
0.0147831
0.0154652
0.0167751
0.0193646
0.0240653
0.0307323
0.0359966
0.0370129
0.0360102
0.0355053
0.0371185
0.0405528
0.0446669
0.0483869
0.0509975
0.0521259
0.0516258
0.0495709
0.0461503
0.0416209
0.0362762
0.0304384
0.0244529
0.018657
0.0134285
0.00922528
0.00639056
0.0049729
0.00472197
0.00519894
0.00593208
0.00654307
0.00682635
0.00674233
0.00636496
0.0058441
0.0054307
0.0054029
0.00586423
0.00662291
0.00733655
0.00776375
0.00788475
0.00777812
0.00766279
0.00751587
0.0106927
0.00729121
0.00527462
0.00400172
0.00317908
0.00267457
0.00245419
0.00257934
0.00322272
0.00465837
0.00701194
0.00989449
0.0124324
0.0140353
0.0148779
0.0155752
0.0167476
0.0190681
0.0234272
0.029974
0.0357136
0.0373244
0.0365275
0.035884
0.0371109
0.0401216
0.0439048
0.0474123
0.0499073
0.050985
0.0504729
0.0484264
0.0450226
0.0405136
0.0351934
0.0293889
0.0234517
0.0177292
0.0126203
0.00859088
0.00596211
0.00475564
0.00470242
0.00534787
0.00620231
0.0068789
0.0071825
0.00709177
0.00669058
0.00612285
0.00562584
0.0054778
0.00581188
0.00647608
0.00714701
0.00757274
0.00771469
0.00763484
0.00754596
0.00742123
0.0106922
0.00729318
0.00527813
0.00400354
0.0031725
0.00264665
0.00238066
0.00241276
0.00288196
0.00404694
0.00612732
0.0089389
0.0117126
0.0136994
0.0148282
0.0156114
0.0166898
0.0187573
0.0227482
0.029079
0.035199
0.0374266
0.0369021
0.0361905
0.0370787
0.0396792
0.0431238
0.0464051
0.0487724
0.0497917
0.0492653
0.0472292
0.0438474
0.0393663
0.0340794
0.0283183
0.0224402
0.0168039
0.0118293
0.00798567
0.00556882
0.00457562
0.00472084
0.00553324
0.00650277
0.00723628
0.00755306
0.00745153
0.00702627
0.00641652
0.00584531
0.00558663
0.00579719
0.00636266
0.00698201
0.0073974
0.00755372
0.00749633
0.00743132
0.00732742
0.0106918
0.0072951
0.00528172
0.00400615
0.00316865
0.00262578
0.00232286
0.00227884
0.00260043
0.00351514
0.00528962
0.00792182
0.0108129
0.0131412
0.0145973
0.0155354
0.0165735
0.0184168
0.0220275
0.0280582
0.0344514
0.0373046
0.0371179
0.036408
0.0370114
0.0392227
0.0423258
0.0453694
0.0475977
0.0485513
0.0480075
0.0459831
0.0426281
0.0381817
0.0329367
0.0272285
0.0214203
0.015883
0.0110572
0.00741015
0.00521019
0.004432
0.00477634
0.00575333
0.00683037
0.00761165
0.00793513
0.00781932
0.00736964
0.00672189
0.00608506
0.00572549
0.00581777
0.00628226
0.00684262
0.00723938
0.00740348
0.00736403
0.0073201
0.00723543
0.0106915
0.00729696
0.0052853
0.00400932
0.00316694
0.00261059
0.00227802
0.00217239
0.00237176
0.00306528