/*--------------------------------*- C++ -*----------------------------------*\
| =========                 |                                                 |
| \\      /  F ield         | OpenFOAM: The Open Source CFD Toolbox           |
|  \\    /   O peration     | Version:  2.4.0                                 |
|   \\  /    A nd           | Web:      www.OpenFOAM.org                      |
|    \\/     M anipulation  |                                                 |
\*---------------------------------------------------------------------------*/
FoamFile
{
    version     2.0;
    format      ascii;
    class       volScalarField;
    location    "4.1";
    object      p;
}
// * * * * * * * * * * * * * * * * * * * * * * * * * * * * * * * * * * * * * //

dimensions      [0 2 -2 0 0 0 0];

internalField   nonuniform List<scalar> 
6000
(
-0.153094
0.207418
0.2077
0.213756
0.212931
0.215164
0.215241
0.216374
0.216713
0.217383
0.217591
0.217929
0.218157
0.218865
0.220146
0.221599
0.22273
0.223623
0.225281
0.225301
0.224259
0.224687
0.225246
0.226549
0.228006
0.229948
0.232098
0.234574
0.237224
0.240063
0.242979
0.24598
0.248968
0.251932
0.254839
0.257688
0.260472
0.263228
0.265931
0.268702
0.271401
0.274356
0.277091
0.280483
0.283149
0.287312
0.289469
0.294819
0.295612
0.30241
0.300629
0.3086
0.301048
0.309875
0.290353
0.300685
0.248559
0.27908
0.127458
0.273539
-0.122105
0.204192
0.207662
0.213704
0.212908
0.215135
0.215225
0.216354
0.216703
0.217376
0.217595
0.217933
0.218145
0.218814
0.220016
0.221405
0.222569
0.223618
0.225362
0.225488
0.224377
0.22475
0.225286
0.226569
0.228012
0.229941
0.232079
0.234546
0.237187
0.240018
0.242948
0.245926
0.248908
0.251866
0.254766
0.257606
0.260378
0.263122
0.265809
0.268562
0.271242
0.274172
0.276883
0.28024
0.282878
0.28699
0.289112
0.2944
0.295118
0.301829
0.300015
0.307799
0.300236
0.308748
0.289231
0.299013
0.247242
0.276559
0.126155
0.268534
-0.111819
0.202139
0.207656
0.213716
0.212903
0.215128
0.21522
0.216351
0.216703
0.217383
0.217612
0.217953
0.21814
0.218783
0.219898
0.221227
0.222442
0.223625
0.225483
0.225687
0.224523
0.224858
0.225367
0.226633
0.228058
0.229975
0.232099
0.234555
0.237185
0.240007
0.242919
0.24589
0.24886
0.251805
0.254691
0.257515
0.260268
0.262991
0.265653
0.268379
0.271026
0.273924
0.27659
0.279909
0.282488
0.286556
0.2886
0.293826
0.294453
0.301081
0.299156
0.30682
0.299134
0.307455
0.287778
0.297294
0.24555
0.274208
0.124409
0.265077
-0.0976869
0.199983
0.207683
0.213697
0.212914
0.21512
0.215216
0.216349
0.216703
0.217391
0.21763
0.217972
0.218131
0.218746
0.219787
0.221069
0.222348
0.223623
0.225587
0.225842
0.224643
0.224958
0.225442
0.226693
0.2281
0.230005
0.232115
0.234559
0.237177
0.239987
0.242888
0.24585
0.248809
0.251742
0.254614
0.257421
0.260154
0.262854
0.265489
0.268188
0.270799
0.273663
0.276282
0.279562
0.282079
0.286102
0.288065
0.293231
0.293757
0.300307
0.298246
0.305799
0.297948
0.306091
0.286192
0.295476
0.243633
0.271734
0.122268
0.261474
-0.0844966
0.197679
0.207681
0.213679
0.212943
0.215119
0.215215
0.216348
0.216704
0.217398
0.217645
0.217989
0.218123
0.218712
0.219689
0.220941
0.222286
0.223619
0.225677
0.225947
0.224739
0.225047
0.225508
0.226745
0.228136
0.230029
0.232127
0.23456
0.237168
0.239969
0.24286
0.245813
0.248763
0.251684
0.254542
0.257333
0.260047
0.262726
0.265335
0.268007
0.270583
0.273415
0.27599
0.279231
0.281692
0.285669
0.287559
0.292664
0.293095
0.299571
0.297372
0.30482
0.296793
0.304767
0.284636
0.293687
0.241708
0.269284
0.120043
0.258
-0.0725096
0.195307
0.207618
0.213669
0.21298
0.215127
0.215217
0.216349
0.216706
0.217405
0.217658
0.218003
0.218119
0.218677
0.219604
0.220837
0.222236
0.223625
0.225761
0.226018
0.224818
0.225124
0.225566
0.22679
0.228167
0.23005
0.232136
0.234561
0.23716
0.239953
0.242836
0.245782
0.248722
0.251633
0.254479
0.257255
0.259951
0.26261
0.265194
0.267839
0.270384
0.273184
0.275718
0.278921
0.28133
0.285263
0.287088
0.292128
0.292473
0.298878
0.296549
0.303896
0.295696
0.303509
0.283155
0.291972
0.239857
0.266923
0.117886
0.254739
-0.0615016
0.192952
0.207479
0.213657
0.213023
0.215146
0.215223
0.216353
0.216709
0.217412
0.21767
0.218016
0.218117
0.218642
0.21953
0.22075
0.222194
0.223642
0.225843
0.226069
0.224887
0.225196
0.22562
0.226833
0.228196
0.230069
0.232146
0.234563
0.237154
0.239941
0.242818
0.245757
0.248689
0.251591
0.254425
0.257186
0.259865
0.262504
0.265064
0.267685
0.270199
0.272968
0.275464
0.278629
0.28099
0.284879
0.286645
0.291621
0.291889
0.29822
0.295772
0.303022
0.294654
0.302315
0.281748
0.290338
0.238093
0.264667
0.115846
0.251687
-0.0512588
0.190658
0.20726
0.213632
0.213074
0.215177
0.215235
0.216359
0.216714
0.217421
0.217683
0.218028
0.218117
0.218609
0.219465
0.220675
0.222161
0.223671
0.225915
0.226109
0.224953
0.225263
0.225672
0.226873
0.228224
0.230089
0.232157
0.234567
0.237152
0.239934
0.242805
0.245738
0.248664
0.251557
0.254379
0.257127
0.259789
0.262409
0.264946
0.267542
0.270027
0.272766
0.275224
0.278353
0.28067
0.284512
0.286227
0.291137
0.291335
0.297592
0.295034
0.30219
0.293659
0.301178
0.280408
0.288779
0.236415
0.26251
0.113931
0.248812
-0.0416668
0.188448
0.20696
0.213585
0.213134
0.215215
0.215252
0.216368
0.216721
0.21743
0.217695
0.21804
0.218117
0.218579
0.219404
0.220611
0.222137
0.223719
0.225967
0.226143
0.225018
0.225328
0.225723
0.226913
0.228253
0.230109
0.232169
0.234574
0.237154
0.239932
0.242798
0.245727
0.248646
0.251531
0.254343
0.257078
0.259723
0.262324
0.264839
0.267411
0.269867
0.272575
0.274999
0.278091
0.280366
0.284162
0.285829
0.290673
0.290809
0.296991
0.294332
0.301395
0.292708
0.300093
0.27913
0.287288
0.234816
0.260443
0.112135
0.24609
-0.0326571
0.186332
0.206581
0.213507
0.213205
0.215257
0.215277
0.216382
0.216731
0.217442
0.21771
0.218052
0.218117
0.21855
0.219343
0.220559
0.222119
0.223787
0.226
0.226175
0.225082
0.225392
0.225774
0.226953
0.228282
0.23013
0.232183
0.234584
0.23716
0.239935
0.242797
0.245722
0.248636
0.251513
0.254315
0.257037
0.259666
0.262249
0.264741
0.267289
0.269718
0.272396
0.274786
0.277842
0.280077
0.283826
0.28545
0.290227
0.290307
0.296412
0.293661
0.300631
0.291798
0.299053
0.277907
0.285858
0.233291
0.258459
0.110452
0.243501
-0.0241736
0.184317
0.206131
0.213394
0.213284
0.215304
0.21531
0.216399
0.216743
0.217455
0.217726
0.218065
0.218118
0.218525
0.219276
0.220519
0.222105
0.223865
0.22602
0.226206
0.225148
0.225455
0.225825
0.226993
0.228312
0.230153
0.232201
0.234598
0.237171
0.239943
0.242803
0.245725
0.248634
0.251504
0.254297
0.257005
0.259619
0.262183
0.264653
0.267177
0.269578
0.272227
0.274584
0.277604
0.279802
0.283503
0.285087
0.289796
0.289825
0.295851
0.293018
0.299894
0.290923
0.298055
0.276732
0.284481
0.231834
0.256551
0.108875
0.24103
-0.0161656
0.182409
0.205616
0.213242
0.213363
0.215356
0.215351
0.216422
0.21676
0.217471
0.217744
0.218079
0.21812
0.218501
0.219208
0.220485
0.222097
0.223947
0.22604
0.226235
0.225216
0.225519
0.225878
0.227035
0.228344
0.230179
0.232221
0.234615
0.237186
0.239958
0.242816
0.245736
0.24864
0.251503
0.254286
0.256982
0.25958
0.262126
0.264574
0.267074
0.269449
0.272067
0.274393
0.277375
0.279539
0.283191
0.284737
0.289378
0.28936
0.295307
0.292398
0.29918
0.290079
0.297092
0.275602
0.283153
0.230439
0.254711
0.107396
0.238663
-0.00858796
0.180613
0.205047
0.213048
0.213438
0.215412
0.215401
0.21645
0.21678
0.21749
0.217765
0.218096
0.218124
0.218481
0.219144
0.220453
0.222091
0.224027
0.226066
0.226263
0.225284
0.225584
0.225933
0.227078
0.228379
0.230207
0.232245
0.234637
0.237207
0.239978
0.242836
0.245754
0.248655
0.251511
0.254285
0.256968
0.259551
0.262077
0.264504
0.266979
0.269328
0.271916
0.27421
0.277155
0.279286
0.282889
0.2844
0.288971
0.288911
0.294777
0.291798
0.298486
0.289264
0.296159
0.274512
0.281868
0.229101
0.252933
0.106007
0.236386
-0.00140191
0.178929
0.204436
0.212812
0.213502
0.215471
0.215458
0.216483
0.216804
0.217512
0.217788
0.218115
0.218131
0.218463
0.219086
0.220419
0.222087
0.224101
0.226095
0.226293
0.225355
0.225651
0.22599
0.227124
0.228417
0.230239
0.232273
0.234664
0.237234
0.240005
0.242863
0.24578
0.248677
0.251528
0.254292
0.256962
0.25953
0.262037
0.264442
0.266893
0.269215
0.271773
0.274037
0.276943
0.279043
0.282596
0.284074
0.288573
0.288475
0.294258
0.291217
0.297808
0.288473
0.295252
0.273457
0.280619
0.227814
0.25121
0.104701
0.234189
0.00542585
0.177358
0.20379
0.212535
0.213551
0.215532
0.215524
0.216522
0.216832
0.217537
0.217815
0.218137
0.21814
0.218447
0.219036
0.220383
0.222086
0.224169
0.22613
0.226327
0.225428
0.22572
0.22605
0.227173
0.228458
0.230274
0.232306
0.234695
0.237266
0.240039
0.242897
0.245813
0.248708
0.251553
0.254308
0.256966
0.259517
0.262005
0.264388
0.266815
0.269111
0.271637
0.273871
0.276739
0.278807
0.28231
0.283757
0.288184
0.288051
0.293749
0.29065
0.297144
0.287704
0.294367
0.272434
0.279404
0.226574
0.249537
0.103474
0.232059
0.0119239
0.175898
0.203121
0.212223
0.213578
0.215592
0.215596
0.216566
0.216865
0.217566
0.217845
0.218162
0.218152
0.218435
0.218993
0.220344
0.222086
0.224228
0.226171
0.226364
0.225505
0.225791
0.226113
0.227225
0.228502
0.230313
0.232342
0.234732
0.237304
0.240079
0.242939
0.245855
0.248748
0.251586
0.254333
0.256977
0.259513
0.261981
0.264342
0.266744
0.269013
0.271509
0.273713
0.276541
0.27858
0.282031
0.283448
0.287801
0.287635
0.293248
0.290097
0.296491
0.286953
0.2935
0.271439
0.278218
0.225376
0.247908
0.102319
0.229987
0.018117
0.174549
0.202437
0.211878
0.213583
0.215649
0.215672
0.216616
0.216903
0.217598
0.217878
0.218192
0.218168
0.218426
0.218958
0.220303
0.222089
0.22428
0.226219
0.226403
0.225585
0.225865
0.22618
0.22728
0.22855
0.230356
0.232384
0.234774
0.237349
0.240127
0.242988
0.245905
0.248796
0.251629
0.254367
0.256997
0.259517
0.261965
0.264304
0.26668
0.268924
0.271387
0.273562
0.27635
0.278359
0.281758
0.283146
0.287425
0.287229
0.292755
0.289555
0.295849
0.286219
0.292649
0.27047
0.277058
0.224216
0.246318
0.101233
0.227963
0.0240268
0.173307
0.201746
0.211505
0.213565
0.215697
0.215752
0.216672
0.216947
0.217633
0.217915
0.218225
0.218188
0.218422
0.21893
0.220262
0.222094
0.224324
0.226274
0.226446
0.22567
0.225941
0.22625
0.227338
0.228602
0.230403
0.232431
0.234822
0.2374
0.240181
0.243046
0.245964
0.248852
0.25168
0.254409
0.257026
0.25953
0.261958
0.264274
0.266624
0.268841
0.271272
0.273417
0.276164
0.278145
0.28149
0.28285
0.287055
0.286829
0.292267
0.289022
0.295213
0.285499
0.29181
0.269523
0.27592
0.223092
0.244763
0.100212
0.225981
0.0296721
0.172171
0.201057
0.211105
0.213528
0.215734
0.215837
0.216734
0.216995
0.217671
0.217955
0.218262
0.218212
0.218423
0.218908
0.220223
0.222101
0.224362
0.226337
0.226491
0.225759
0.226021
0.226324
0.227401
0.228658
0.230456
0.232483
0.234876
0.237458
0.240243
0.243111
0.246031
0.248918
0.25174
0.25446
0.257064
0.259551
0.261958
0.264251
0.266575
0.268765
0.271164
0.273279
0.275985
0.277936
0.281228
0.28256
0.286689
0.286436
0.291783
0.288499
0.294585
0.284792
0.290983
0.268597
0.274803
0.222
0.24324
0.099251
0.224032
0.0350698
0.171137
0.200374
0.210686
0.213468
0.215756
0.215927
0.216799
0.21705
0.217713
0.217999
0.218303
0.218242
0.218429
0.218891
0.220187
0.22211
0.224393
0.226405
0.22654
0.225852
0.226104
0.226402
0.227467
0.228719
0.230513
0.232541
0.234936
0.237523
0.240313
0.243185
0.246106
0.248992
0.251809
0.25452
0.25711
0.25958
0.261966
0.264236
0.266533
0.268697
0.271062
0.273147
0.27581
0.277734
0.280971
0.282276
0.286328
0.286049
0.291304
0.287983
0.293961
0.284097
0.290163
0.267689
0.273703
0.220938
0.241747
0.0983455
0.222111
0.0402346
0.170203
0.199702
0.210252
0.213386
0.215768
0.216019
0.216869
0.21711
0.217759
0.218046
0.218348
0.218277
0.218441
0.21888
0.220156
0.22212
0.224423
0.226474
0.226592
0.225949
0.22619
0.226484
0.227538
0.228785
0.230575
0.232604
0.235003
0.237595
0.240391
0.243267
0.246191
0.249076
0.251887
0.25459
0.257165
0.259618
0.261983
0.264229
0.266499
0.268635
0.270966
0.273022
0.275642
0.277537
0.280718
0.281998
0.285971
0.285668
0.290829
0.287475
0.293342
0.283412
0.289351
0.266798
0.272618
0.219904
0.240279
0.0974912
0.220212
0.0451798
0.169367
0.199047
0.209808
0.213282
0.215767
0.216112
0.216943
0.217176
0.21781
0.218097
0.218398
0.218317
0.21846
0.218875
0.220133
0.22213
0.224453
0.226542
0.226651
0.226052
0.226281
0.226571
0.227613
0.228856
0.230642
0.232674
0.235077
0.237674
0.240476
0.243358
0.246284
0.249168
0.251975
0.254668
0.257229
0.259665
0.262007
0.264229
0.266471
0.26858
0.270876
0.272903
0.275479
0.277346
0.28047
0.281724
0.285618
0.285292
0.290357
0.286973
0.292727
0.282737
0.288545
0.265923
0.271546
0.218897
0.238835
0.0966843
0.218332
0.0499177
0.168627
0.198409
0.209359
0.21316
0.215753
0.216203
0.217022
0.217246
0.217865
0.218152
0.218452
0.218364
0.218486
0.218876
0.220118
0.22214
0.224482
0.226606
0.226716
0.226159
0.226375
0.226662
0.227693
0.228932
0.230716
0.23275
0.235157
0.237762
0.24057
0.243457
0.246387
0.249271
0.252072
0.254756
0.257302
0.25972
0.26204
0.264237
0.266451
0.268532
0.270793
0.272791
0.275321
0.27716
0.280226
0.281455
0.285268
0.284921
0.289888
0.286477
0.292114
0.282072
0.287743
0.265063
0.270486
0.217913
0.237412
0.0959223
0.216464
0.0544593
0.167979
0.197793
0.20891
0.213021
0.215727
0.216292
0.217107
0.217321
0.217927
0.21821
0.21851
0.218416
0.21852
0.218886
0.220112
0.222149
0.224512
0.226667
0.226789
0.22627
0.226474
0.226758
0.227778
0.229013
0.230795
0.232832
0.235245
0.237857
0.240673
0.243566
0.2465
0.249383
0.252178
0.254853
0.257384
0.259784
0.262081
0.264254
0.266439
0.268492
0.270716
0.272684
0.275169
0.276979
0.279987
0.281192
0.284922
0.284554
0.289422
0.285987
0.291503
0.281416
0.286945
0.264216
0.269435
0.216952
0.236008
0.0952022
0.214607
0.0588156
0.16742
0.197199
0.208465
0.212867
0.215695
0.216373
0.217201
0.217401
0.217994
0.218273
0.218572
0.218474
0.218562
0.218904
0.220115
0.22216
0.224539
0.226725
0.22687
0.226387
0.226578
0.226859
0.227869
0.229101
0.230881
0.232922
0.23534
0.237961
0.240784
0.243684
0.246622
0.249504
0.252295
0.25496
0.257475
0.259857
0.26213
0.264278
0.266434
0.268458
0.270646
0.272585
0.275023
0.276804
0.279752
0.280933
0.28458
0.284193
0.288959
0.285504
0.290894
0.280768
0.286149
0.263382
0.268392
0.216013
0.234622
0.0945214
0.212756
0.0629966
0.166947
0.19663
0.208027
0.212701
0.21566
0.216439
0.217302
0.217487
0.218069
0.218342
0.218638
0.218538
0.218612
0.218932
0.220126
0.222173
0.224565
0.226781
0.226957
0.226508
0.226688
0.226966
0.227965
0.229194
0.230973
0.233019
0.235443
0.238073
0.240905
0.243812
0.246754
0.249636
0.252421
0.255077
0.257576
0.259939
0.262189
0.26431
0.266436
0.268432
0.270583
0.272492
0.274883
0.276634
0.279522
0.28068
0.284242
0.283836
0.288498
0.285026
0.290287
0.280128
0.285356
0.262561
0.267358
0.215093
0.233252
0.0938778
0.210909
0.0670123
0.166554
0.196087
0.2076
0.212526
0.215617
0.216493
0.217407
0.217583
0.218149
0.218415
0.218709
0.218607
0.21867
0.21897
0.220145
0.222189
0.22459
0.226835
0.227049
0.226635
0.226803
0.227079
0.228068
0.229295
0.231073
0.233124
0.235555
0.238194
0.241035
0.24395
0.246896
0.249778
0.252558
0.255203
0.257686
0.26003
0.262256
0.264351
0.266447
0.268414
0.270526
0.272407
0.274749
0.276471
0.279297
0.280432
0.283907
0.283485
0.288041
0.284554
0.289682
0.279496
0.284565
0.261751
0.26633
0.214192
0.231897
0.0932689
0.209062
0.0708724
0.166238
0.19557
0.207187
0.212346
0.215568
0.216543
0.217509
0.217691
0.218236
0.218495
0.218783
0.218683
0.218737
0.219019
0.220174
0.222208
0.224618
0.226885
0.227145
0.226767
0.226926
0.227198
0.228178
0.229403
0.23118
0.233237
0.235675
0.238325
0.241175
0.244098
0.247049
0.249931
0.252705
0.25534
0.257806
0.260131
0.262331
0.2644
0.266465
0.268403
0.270477
0.272328
0.274622
0.276313
0.279077
0.280189
0.283577
0.283138
0.287587
0.284088
0.289078
0.278871
0.283776
0.260953
0.265309
0.213307
0.230554
0.092693
0.207213
0.0745864
0.165993
0.19508
0.206789
0.212162
0.215512
0.216599
0.217598
0.21781
0.218329
0.21858
0.218863
0.218764
0.218812
0.219079
0.220214
0.222231
0.22465
0.22693
0.227242
0.226903
0.227056
0.227325
0.228295
0.229518
0.231295
0.233358
0.235805
0.238465
0.241326
0.244256
0.247212
0.250094
0.252863
0.255487
0.257936
0.260241
0.262416
0.264458
0.266492
0.2684
0.270435
0.272257
0.274501
0.276162
0.278862
0.279953
0.28325
0.282796
0.287136
0.283629
0.288478
0.278253
0.282989
0.260166
0.264295
0.212438
0.229224
0.0921483
0.205361
0.0781632
0.165812
0.19462
0.206409
0.211978
0.215453
0.216661
0.217674
0.217936
0.218431
0.218671
0.218949
0.218851
0.218895
0.21915
0.220264
0.222261
0.224687
0.226967
0.227341
0.227044
0.227194
0.22746
0.22842
0.229642
0.231419
0.233489
0.235944
0.238615
0.241486
0.244426
0.247387
0.250269
0.253031
0.255645
0.258077
0.260362
0.262511
0.264525
0.266527
0.268405
0.2704
0.272194
0.274387
0.276017
0.278653
0.279723
0.282929
0.28246
0.286689
0.283176
0.28788
0.277642
0.282204
0.25939
0.263285
0.211584
0.227904
0.0916331
0.203502
0.0816118
0.165691
0.194188
0.206046
0.211797
0.215393
0.216725
0.217743
0.218067
0.218546
0.218767
0.21904
0.218944
0.218986
0.219233
0.220326
0.222298
0.224726
0.227003
0.227438
0.227188
0.227339
0.227603
0.228553
0.229774
0.231552
0.233629
0.236093
0.238776
0.241658
0.244606
0.247573
0.250455
0.253211
0.255814
0.258228
0.260492
0.262615
0.264601
0.266572
0.268419
0.270374
0.272139
0.27428
0.275878
0.278451
0.279499
0.282612
0.28213
0.286246
0.282729
0.287284
0.277038
0.281423
0.258625
0.26228
0.210744
0.226594
0.0911461
0.201635
0.0849402
0.165624
0.193787
0.205702
0.211621
0.215336
0.216787
0.217814
0.218199
0.21867
0.218869
0.219139
0.219043
0.219085
0.219327
0.220399
0.222344
0.224763
0.227043
0.22753
0.227335
0.227493
0.227755
0.228696
0.229916
0.231694
0.233779
0.236252
0.238948
0.241842
0.244799
0.24777
0.250652
0.253402
0.255994
0.258389
0.260632
0.262728
0.264686
0.266624
0.268441
0.270355
0.272092
0.274181
0.275747
0.278254
0.279283
0.282301
0.281805
0.285808
0.282289
0.286693
0.276442
0.280645
0.25787
0.261279
0.209918
0.225293
0.0906861
0.199759
0.0881561
0.165605
0.193415
0.205378
0.211453
0.215284
0.216845
0.217891
0.218326
0.218801
0.218981
0.219243
0.219149
0.219192
0.219433
0.220484
0.222399
0.224798
0.227093
0.227614
0.227484
0.227652
0.227917
0.228848
0.230068
0.231847
0.23394
0.236423
0.239132
0.242037
0.245004
0.24798
0.250862
0.253605
0.256185
0.258561
0.260783
0.262852
0.264781
0.266687
0.268472
0.270345
0.272053
0.274091
0.275623
0.278064
0.279074
0.281996
0.281487
0.285374
0.281856
0.286105
0.275852
0.279872
0.257126
0.260281
0.209103
0.224
0.090252
0.197871
0.0912663
0.165628
0.193073
0.205074
0.211294
0.215238
0.216902
0.217981
0.218448
0.218938
0.219106
0.219354
0.219261
0.219308
0.219549
0.220582
0.222466
0.224838
0.227148
0.22769
0.227634
0.227818
0.228089
0.229011
0.230231
0.232012
0.234113
0.236606
0.239328
0.242245
0.245221
0.248203
0.251084
0.253821
0.256388
0.258745
0.260945
0.262986
0.264886
0.266758
0.268512
0.270343
0.272024
0.274008
0.275507
0.277881
0.278872
0.281697
0.281175
0.284946
0.281429
0.285521
0.275269
0.279103
0.256394
0.259286
0.208301
0.222715
0.0898427
0.19597
0.0942769
0.165691
0.19276
0.204791
0.211146
0.215199
0.216961
0.218082
0.21857
0.219083
0.219243
0.219472
0.219381
0.219434
0.219675
0.220692
0.222544
0.224885
0.227207
0.227756
0.227784
0.227988
0.228272
0.229185
0.230405
0.232188
0.234298
0.236801
0.239537
0.242466
0.245452
0.248439
0.251319
0.254048
0.256604
0.25894
0.261118
0.26313
0.265
0.26684
0.268561
0.270351
0.272004
0.273934
0.275399
0.277706
0.278678
0.281406
0.28087
0.284524
0.28101
0.284943
0.274693
0.27834
0.255672
0.258295
0.207509
0.221437
0.0894571
0.194056
0.0971931
0.165788
0.192476
0.204529
0.211009
0.215167
0.217025
0.218192
0.218696
0.219231
0.219389
0.219602
0.219507
0.219568
0.219812
0.220814
0.222635
0.224941
0.227266
0.227819
0.227935
0.228161
0.228464
0.229371
0.230592
0.232376
0.234496
0.237009
0.239759
0.2427
0.245696
0.248688
0.251567
0.254289
0.256831
0.259147
0.261302
0.263286
0.265125
0.266931
0.26862
0.270367
0.271993
0.273869
0.275299
0.277539
0.278493
0.281121
0.280573
0.284109
0.280598
0.28437
0.274125
0.277582
0.254961
0.257308
0.206727
0.220167
0.0890936
0.19213
0.100019
0.165916
0.192221
0.204288
0.210885
0.215143
0.217097
0.218308
0.218833
0.219382
0.219544
0.219745
0.21964
0.219713
0.219959
0.220949
0.222738
0.225009
0.227316
0.22789
0.228083
0.228335
0.228664
0.229568
0.230791
0.232578
0.234707
0.237232
0.239996
0.242949
0.245954
0.248952
0.251829
0.254542
0.257071
0.259365
0.261498
0.263452
0.265261
0.267033
0.268689
0.270394
0.271992
0.273814
0.275208
0.27738
0.278316
0.280844
0.280283
0.2837
0.280195
0.283803
0.273563
0.276828
0.254259
0.256326
0.205955
0.218902
0.0887511
0.19019
0.102759
0.166073
0.191993
0.20407
0.210772
0.215128
0.217178
0.218429
0.218988
0.219532
0.21971
0.2199
0.219785
0.219867
0.220117
0.221096
0.222855
0.225088
0.227361
0.227972
0.228227
0.228511
0.228871
0.229778
0.231002
0.232793
0.234933
0.237468
0.240247
0.243213
0.246227
0.24923
0.252105
0.254809
0.257324
0.259596
0.261706
0.26363
0.265408
0.267146
0.268768
0.27043
0.272002
0.273768
0.275127
0.27723
0.278149
0.280576
0.280002
0.283299
0.279799
0.283243
0.27301
0.276081
0.253566
0.25535
0.205193
0.217642
0.0884286
0.188237
0.105416
0.166257
0.191792
0.203872
0.210672
0.215123
0.217268
0.218559
0.219161
0.219685
0.219889
0.220067
0.219945
0.22003
0.220286
0.221256
0.222986
0.225181
0.227411
0.228056
0.228365
0.228689
0.229084
0.229999
0.231227
0.233022
0.235173
0.23772
0.240514
0.243492
0.246516
0.249523
0.252395
0.255091
0.257591
0.25984
0.261925
0.26382
0.265566
0.26727
0.268858
0.270476
0.272022
0.273733
0.275055
0.27709
0.277991
0.280316
0.279729
0.282907
0.279411
0.28269
0.272465
0.275339
0.252881
0.25438
0.204441
0.216386
0.0881252
0.18627
0.107991
0.166466
0.191618
0.203697
0.210586
0.215128
0.217366
0.218701
0.219346
0.219849
0.220079
0.220249
0.22012
0.220205
0.220465
0.221427
0.22313
0.225288
0.22747
0.22814
0.228498
0.228873
0.2293
0.230231
0.231465
0.233266
0.235429
0.237988
0.240797
0.243788
0.24682
0.249831
0.252701
0.255386
0.257871
0.260097
0.262158
0.264021
0.265735
0.267405
0.268959
0.270533
0.272053
0.273708
0.274993
0.27696
0.277844
0.280065
0.279466
0.282523
0.279033
0.282145
0.271929
0.274604
0.252203
0.253419
0.2037
0.215134
0.0878404
0.184289
0.110487
0.166699
0.191471
0.203541
0.210512
0.215145
0.217472
0.218856
0.219539
0.220033
0.220276
0.220445
0.220311
0.220394
0.220656
0.221612
0.223289
0.225409
0.227541
0.228227
0.228625
0.229058
0.229522
0.230473
0.231716
0.233525
0.2357
0.238272
0.241097
0.2441
0.247141
0.250156
0.253022
0.255697
0.258165
0.260368
0.262403
0.264235
0.265916
0.267551
0.269071
0.270601
0.272095
0.273694
0.274941
0.27684
0.277707
0.279825
0.279212
0.282149
0.278664
0.281609
0.271402
0.273876
0.251532
0.252465
0.202969
0.213886
0.087574
0.182294
0.112905
0.166955
0.191349
0.203406
0.210453
0.215171
0.217586
0.219024
0.219742
0.220241
0.220478
0.220657
0.220519
0.220598
0.220859
0.221809
0.223463
0.225546
0.227625
0.228321
0.228757
0.229238
0.229747
0.230722
0.23198
0.233798
0.235988
0.238574
0.241414
0.24443
0.24748
0.250498
0.253359
0.256023
0.258474
0.260652
0.262662
0.264462
0.26611
0.26771
0.269195
0.27068
0.272149
0.273692
0.274901
0.276731
0.277581
0.279594
0.27897
0.281785
0.278306
0.281081
0.270884
0.273157
0.250867
0.25152
0.202245
0.212643
0.0873261
0.180284
0.115247
0.167234
0.191253
0.20329
0.210408
0.215208
0.217708
0.219204
0.219957
0.22047
0.220692
0.220885
0.220746
0.22082
0.221078
0.22202
0.223652
0.225697
0.227723
0.228425
0.228895
0.229415
0.22997
0.230976
0.232256
0.234085
0.236292
0.238892
0.241749
0.244777
0.247836
0.250857
0.253713
0.256364
0.258799
0.26095
0.262934
0.264701
0.266316
0.267881
0.269331
0.270771
0.272215
0.273701
0.274873
0.276634
0.277466
0.279375
0.278738
0.281433
0.277957
0.280562
0.270376
0.272446
0.250209
0.250583
0.201527
0.211406
0.087097
0.178259
0.117514
0.167535
0.191182
0.203194
0.210378
0.215255
0.217839
0.219395
0.220186
0.220714
0.220932
0.221123
0.220994
0.22106
0.221316
0.222245
0.223856
0.225863
0.227839
0.228541
0.229039
0.229595
0.230194
0.231235
0.232543
0.234387
0.236611
0.239228
0.242103
0.245144
0.24821
0.251234
0.254084
0.256722
0.259138
0.261263
0.26322
0.264955
0.266534
0.268066
0.269479
0.270874
0.272293
0.273723
0.274856
0.276549
0.277364
0.279167
0.278517
0.281091
0.27762
0.280054
0.269878
0.271744
0.249558
0.249654
0.200814
0.210178
0.0868875
0.176218
0.119707
0.167857
0.191135
0.203117
0.210361
0.215311
0.217979
0.219595
0.220429
0.220973
0.2212
0.22137
0.221265
0.221323
0.221573
0.222487
0.224076
0.226043
0.227973
0.228672
0.22919
0.229779
0.23042
0.231498
0.232838
0.234702
0.236946
0.23958
0.242474
0.245528
0.248603
0.251629
0.254472
0.257097
0.259493
0.261591
0.263521
0.265222
0.266767
0.268263
0.26964
0.27099
0.272385
0.273758
0.274852
0.276477
0.277274
0.278971
0.278309
0.280763
0.277295
0.279556
0.269392
0.271053
0.248915
0.248734
0.200103
0.208958
0.0866988
0.17416
0.12183
0.1682
0.191112
0.203058
0.210359
0.215378
0.218127
0.219804
0.220685
0.221248
0.221491
0.221635
0.221556
0.22161
0.221852
0.222747
0.224311
0.226239
0.228126
0.228821
0.229352
0.229968
0.23065
0.231765
0.233141
0.235031
0.237297
0.23995
0.242864
0.245932
0.249015
0.252042
0.254878
0.257488
0.259865
0.261934
0.263836
0.265503
0.267012
0.268474
0.269814
0.271118
0.272489
0.273806
0.274861
0.276418
0.277197
0.278788
0.278113
0.280447
0.276981
0.27907
0.268916
0.270372
0.248279
0.247823
0.199394
0.207747
0.0865321
0.172085
0.123882
0.168562
0.191111
0.203019
0.210371
0.215455
0.218283
0.220021
0.220951
0.22154
0.221799
0.221929
0.221861
0.221924
0.222155
0.223029
0.224563
0.226452
0.228299
0.22899
0.229528
0.230163
0.230885
0.232036
0.233449
0.23537
0.237662
0.240336
0.243272
0.246355
0.249446
0.252475
0.255302
0.257897
0.260253
0.262293
0.264166
0.265799
0.267272
0.2687
0.270002
0.27126
0.272607
0.273867
0.274883
0.276374
0.277133
0.278619
0.277931
0.280145
0.276681
0.278596
0.268453
0.269703
0.24765
0.246921
0.198687
0.206544
0.0863878
0.169993
0.125868
0.168941
0.191132
0.202999
0.210396
0.215543
0.218448
0.220247
0.221227
0.221846
0.222123
0.222255
0.222184
0.222263
0.222484
0.223335
0.224834
0.226683
0.228491
0.229181
0.229722
0.23037
0.231127
0.232312
0.233764
0.235719
0.238041
0.240738
0.243698
0.246796
0.249896
0.252926
0.255745
0.258324
0.260658
0.262668
0.264513
0.266109
0.267546
0.268939
0.270204
0.271416
0.272738
0.273943
0.27492
0.276343
0.277084
0.278463
0.277762
0.279857
0.276393
0.278135
0.268001
0.269046
0.24703
0.246028
0.197983
0.205349
0.0862637
0.167886
0.12779
0.169336
0.191174
0.202998
0.210435
0.215641
0.218622
0.220481
0.221511
0.222165
0.222465
0.222607
0.222536
0.222623
0.222842
0.223668
0.225127
0.226933
0.228704
0.229396
0.229937
0.23059
0.231378
0.232596
0.234085
0.236076
0.238432
0.241155
0.24414
0.247256
0.250365
0.253397
0.256207
0.258769
0.261081
0.263059
0.264874
0.266436
0.267836
0.269194
0.27042
0.271586
0.272884
0.274033
0.274972
0.276328
0.277048
0.278322
0.277609
0.279585
0.27612
0.277687
0.267563
0.268402
0.246417
0.245146
0.197281
0.204161
0.0861571
0.165768
0.12965
0.169745
0.191237
0.203016
0.210488
0.21575
0.218805
0.220723
0.221803
0.222495
0.222821
0.222981
0.222922
0.222999
0.22323
0.224031
0.225445
0.227205
0.228939
0.229635
0.230176
0.23083
0.231641
0.232889
0.234413
0.23644
0.238834
0.241586
0.244599
0.247734
0.250852
0.253886
0.256687
0.259233
0.261521
0.263467
0.265253
0.266778
0.26814
0.269464
0.270652
0.271771
0.273044
0.274139
0.275039
0.276328
0.277028
0.278196
0.27747
0.279329
0.27586
0.277254
0.267138
0.267771
0.245813
0.244273
0.196582
0.202981
0.0860673
0.163641
0.13145
0.170166
0.191318
0.203052
0.210556
0.21587
0.218997
0.220973
0.222103
0.222833
0.223192
0.223372
0.223339
0.223402
0.223645
0.224424
0.22579
0.227501
0.229197
0.2299
0.230442
0.231092
0.231919
0.233193
0.234751
0.236814
0.239246
0.24203
0.245072
0.248228
0.251357
0.254395
0.257186
0.259714
0.261978
0.263893
0.265648
0.267136
0.26846
0.26975
0.270898
0.271971
0.273219
0.27426
0.275122
0.276345
0.277024
0.278087
0.277347
0.27909
0.275616
0.276837
0.266728
0.267154
0.245217
0.243411
0.195885
0.201809
0.085995
0.161506
0.133195
0.170597
0.191418
0.203106
0.210638
0.216001
0.219199
0.221232
0.222411
0.22318
0.223574
0.223778
0.223779
0.223841
0.224082
0.224849
0.226165
0.227823
0.22948
0.230192
0.230735
0.23138
0.232217
0.233511
0.235099
0.237196
0.239667
0.242486
0.24556
0.248737
0.25188
0.254921
0.257703
0.260214
0.262454
0.264335
0.266059
0.267511
0.268796
0.270052
0.271161
0.272187
0.27341
0.274397
0.275222
0.276378
0.277036
0.277994
0.27724
0.278868
0.275387
0.276435
0.266332
0.266553
0.244629
0.242559
0.195191
0.200644
0.0859415
0.159363
0.134886
0.171036
0.191537
0.203178
0.210734
0.216143
0.219411
0.221499
0.222727
0.223533
0.223965
0.224198
0.224235
0.224314
0.224546
0.225302
0.226572
0.228173
0.22979
0.230512
0.231057
0.231697
0.232538
0.233846
0.235461
0.237589
0.240098
0.242951
0.246061
0.249261
0.252418
0.255465
0.258239
0.260733
0.262948
0.264795
0.266489
0.267903
0.269148
0.270371
0.27144
0.272419
0.273616
0.27455
0.275339
0.276429
0.277064
0.277918
0.277151
0.278664
0.275175
0.276051
0.265951
0.265967
0.24405
0.241718
0.194499
0.199488
0.0859082
0.157214
0.136525
0.17148
0.191672
0.203268
0.210845
0.216297
0.219633
0.221776
0.223052
0.223895
0.224365
0.22463
0.224705
0.224808
0.225049
0.225782
0.22701
0.228555
0.230127
0.230862
0.23141
0.232046
0.232888
0.234203
0.235839
0.237994
0.240538
0.243426
0.246572
0.249798
0.252971
0.256025
0.258792
0.261269
0.26346
0.265273
0.266935
0.268312
0.269517
0.270707
0.271736
0.272669
0.273838
0.27472
0.275473
0.276498
0.27711
0.27786
0.277079
0.27848
0.274979
0.275684
0.265586
0.265397
0.24348
0.240887
0.193811
0.198339
0.0858969
0.155061
0.138115
0.171929
0.191825
0.203375
0.210969
0.216463
0.219865
0.222061
0.223386
0.224265
0.224772
0.225071
0.225187
0.225314
0.225588
0.226291
0.227475
0.228969
0.230493
0.231242
0.231796
0.232427
0.233269
0.234585
0.236235
0.238414
0.24099
0.24391