/*--------------------------------*- C++ -*----------------------------------*\
| =========                 |                                                 |
| \\      /  F ield         | OpenFOAM: The Open Source CFD Toolbox           |
|  \\    /   O peration     | Version:  2.4.0                                 |
|   \\  /    A nd           | Web:      www.OpenFOAM.org                      |
|    \\/     M anipulation  |                                                 |
\*---------------------------------------------------------------------------*/
FoamFile
{
    version     2.0;
    format      ascii;
    class       surfaceScalarField;
    location    "3.51";
    object      phi;
}
// * * * * * * * * * * * * * * * * * * * * * * * * * * * * * * * * * * * * * //

dimensions      [0 3 -1 0 0 0 0];

internalField   nonuniform List<scalar> 
11840
(
7.85155e-07
9.21485e-06
-2.02625e-08
8.05417e-07
-4.80281e-08
2.77655e-08
-7.30406e-08
2.50125e-08
-8.38171e-08
1.07765e-08
-8.52803e-08
1.46315e-09
-8.93243e-08
4.04406e-09
-8.89502e-08
-3.74152e-10
-9.14921e-08
2.54189e-09
-9.21861e-08
6.93965e-10
-9.51089e-08
2.92285e-09
-9.8054e-08
2.94513e-09
-1.03401e-07
5.34678e-09
-1.1015e-07
6.74938e-09
-1.18981e-07
8.83075e-09
-1.28626e-07
9.64483e-09
-1.38656e-07
1.00298e-08
-1.48405e-07
9.74923e-09
-1.58483e-07
1.00786e-08
-1.70113e-07
1.163e-08
-1.85221e-07
1.51077e-08
-2.05664e-07
2.04429e-08
-2.32938e-07
2.72741e-08
-2.67675e-07
3.47364e-08
-3.09536e-07
4.18615e-08
-3.57269e-07
4.77326e-08
-4.09047e-07
5.17782e-08
-4.62769e-07
5.3722e-08
-5.16273e-07
5.35044e-08
-5.67369e-07
5.10955e-08
-6.13782e-07
4.64134e-08
-6.53064e-07
3.9282e-08
-6.82497e-07
2.94326e-08
-6.99018e-07
1.65208e-08
-6.99367e-07
3.49965e-10
-6.79708e-07
-1.96594e-08
-6.36361e-07
-4.33469e-08
-5.65917e-07
-7.04438e-08
-4.65877e-07
-1.00041e-07
-3.35979e-07
-1.29898e-07
-1.78591e-07
-1.57388e-07
-4.82486e-09
-1.73766e-07
1.68717e-07
-1.73542e-07
3.39923e-07
-1.71206e-07
5.03866e-07
-1.63942e-07
6.52192e-07
-1.48326e-07
7.76291e-07
-1.241e-07
8.72203e-07
-9.59114e-08
9.3694e-07
-6.47378e-08
9.75824e-07
-3.88834e-08
9.88161e-07
-1.23371e-08
9.89167e-07
-1.0065e-09
9.68485e-07
2.06829e-08
9.59653e-07
8.83191e-09
9.19264e-07
4.03888e-08
9.29923e-07
-1.06592e-08
8.65897e-07
6.40262e-08
9.34014e-07
-6.81171e-08
8.22236e-07
1.11778e-07
-2.56095e-07
1.91821e-06
1.72966e-05
1.02408e-07
2.62122e-06
-7.41702e-08
2.04344e-07
-1.77813e-07
1.28655e-07
-2.09793e-07
4.2757e-08
-2.27493e-07
1.91626e-08
-2.38185e-07
1.47361e-08
-2.43388e-07
4.82836e-09
-2.50011e-07
9.1657e-09
-2.5504e-07
5.72266e-09
-2.63038e-07
1.09206e-08
-2.72832e-07
1.27388e-08
-2.87674e-07
2.01889e-08
-3.06951e-07
2.60271e-08
-3.30862e-07
3.27411e-08
-3.5683e-07
3.56128e-08
-3.83089e-07
3.62891e-08
-4.08533e-07
3.51936e-08
-4.3496e-07
3.65052e-08
-4.66279e-07
4.29489e-08
-5.07847e-07
5.66764e-08
-5.64657e-07
7.72523e-08
-6.40099e-07
1.02716e-07
-7.34885e-07
1.29522e-07
-8.46914e-07
1.5389e-07
-9.71805e-07
1.72624e-07
-1.10396e-06
1.83935e-07
-1.23744e-06
1.87198e-07
-1.36643e-06
1.82493e-07
-1.48529e-06
1.69959e-07
-1.58837e-06
1.49492e-07
-1.66973e-06
1.20647e-07
-1.72296e-06
8.26562e-08
-1.74099e-06
3.45579e-08
-1.71606e-06
-2.45804e-08
-1.64012e-06
-9.56039e-08
-1.50481e-06
-1.78659e-07
-1.30279e-06
-2.72464e-07
-1.02896e-06
-3.73867e-07
-6.83152e-07
-4.75707e-07
-2.73462e-07
-5.67078e-07
1.65173e-07
-6.12401e-07
5.9921e-07
-6.0758e-07
1.02175e-06
-5.93747e-07
1.4212e-06
-5.63395e-07
1.77871e-06
-5.05835e-07
2.07682e-06
-4.22203e-07
2.30628e-06
-3.25371e-07
2.46319e-06
-2.21652e-07
2.55562e-06
-1.31308e-07
2.58895e-06
-4.5673e-08
2.58531e-06
2.63221e-09
2.54352e-06
6.24776e-08
2.50257e-06
4.97767e-08
2.42827e-06
1.14691e-07
2.40486e-06
1.27468e-08
2.31349e-06
1.55397e-07
2.3681e-06
-1.22722e-07
2.23893e-06
2.40944e-07
-6.41769e-07
2.91734e-06
2.43793e-05
3.96799e-07
5.14176e-06
-4.02119e-08
6.41354e-07
-2.39186e-07
3.27629e-07
-3.02499e-07
1.0607e-07
-3.445e-07
6.1164e-08
-3.64883e-07
3.51188e-08
-3.79366e-07
1.93115e-08
-3.91319e-07
2.11186e-08
-4.02409e-07
1.68128e-08
-4.15989e-07
2.45003e-08
-4.3327e-07
3.00204e-08
-4.57441e-07
4.43593e-08
-4.88784e-07
5.73706e-08
-5.2654e-07
7.0497e-08
-5.67158e-07
7.62305e-08
-6.07567e-07
7.66978e-08
-6.46641e-07
7.42679e-08
-6.87556e-07
7.74202e-08
-7.37059e-07
9.24522e-08
-8.03754e-07
1.23371e-07
-8.95297e-07
1.68795e-07
-1.01618e-06
2.23603e-07
-1.1663e-06
2.79638e-07
-1.34098e-06
3.28572e-07
-1.53224e-06
3.63884e-07
-1.73058e-06
3.8227e-07
-1.92634e-06
3.82962e-07
-2.1104e-06
3.66553e-07
-2.2741e-06
3.33657e-07
-2.40893e-06
2.84322e-07
-2.50616e-06
2.1788e-07
-2.55656e-06
1.33049e-07
-2.55019e-06
2.81911e-08
-2.47657e-06
-9.82033e-08
-2.32512e-06
-2.47053e-07
-2.08571e-06
-4.18068e-07
-1.75028e-06
-6.07891e-07
-1.31514e-06
-8.09004e-07
-7.85129e-07
-1.00572e-06
-1.80321e-07
-1.17189e-06
4.53176e-07
-1.2459e-06
1.08701e-06
-1.24141e-06
1.71264e-06
-1.21938e-06
2.30602e-06
-1.15677e-06
2.83839e-06
-1.03821e-06
3.28511e-06
-8.68922e-07
3.63162e-06
-6.71876e-07
3.87265e-06
-4.62689e-07
4.01606e-06
-2.74714e-07
4.07279e-06
-1.02406e-07
4.06681e-06
8.61479e-09
4.00948e-06
1.1981e-07
3.93555e-06
1.23707e-07
3.83484e-06
2.15397e-07
3.76684e-06
8.07453e-08
3.66341e-06
2.58835e-07
3.67321e-06
-1.32524e-07
3.56614e-06
3.48011e-07
-1.04386e-06
3.80913e-06
3.05702e-05
8.13671e-07
8.13722e-06
5.28824e-08
1.40214e-06
-2.5298e-07
6.33491e-07
-3.61876e-07
2.14967e-07
-4.34089e-07
1.33377e-07
-4.69125e-07
7.01546e-08
-4.95555e-07
4.57416e-08
-5.15002e-07
4.05665e-08
-5.33359e-07
3.51695e-08
-5.53429e-07
4.45704e-08
-5.7851e-07
5.51015e-08
-6.11919e-07
7.77676e-08
-6.54602e-07
1.00054e-07
-7.04941e-07
1.20836e-07
-7.58453e-07
1.29742e-07
-8.11048e-07
1.29292e-07
-8.61799e-07
1.25019e-07
-9.15396e-07
1.31018e-07
-9.81276e-07
1.58331e-07
-1.07085e-06
2.12948e-07
-1.19369e-06
2.91636e-07
-1.35445e-06
3.84358e-07
-1.55125e-06
4.76442e-07
-1.77625e-06
5.53568e-07
-2.01766e-06
6.05295e-07
-2.26232e-06
6.26928e-07
-2.49742e-06
6.18064e-07
-2.71122e-06
5.80359e-07
-2.8929e-06
5.15335e-07
-3.03206e-06
4.23481e-07
-3.11831e-06
3.04129e-07
-3.14096e-06
1.55695e-07
-3.08892e-06
-2.38417e-08
-2.95109e-06
-2.36038e-07
-2.71682e-06
-4.81317e-07
-2.37697e-06
-7.57921e-07
-1.92582e-06
-1.05905e-06
-1.36402e-06
-1.3708e-06
-7.03215e-07
-1.66652e-06
2.75764e-08
-1.90268e-06
7.90276e-07
-2.0086e-06
1.57168e-06
-2.02281e-06
2.35585e-06
-2.00356e-06
3.10529e-06
-1.90621e-06
3.78212e-06
-1.71505e-06
4.35531e-06
-1.44211e-06
4.80537e-06
-1.12194e-06
5.12471e-06
-7.82029e-07
5.31982e-06
-4.69818e-07
5.40419e-06
-1.86777e-07
5.40313e-06
9.6764e-09
5.33593e-06
1.87008e-07
5.23685e-06
2.22786e-07
5.11058e-06
3.41664e-07
5.00506e-06
1.8627e-07
4.88216e-06
3.81736e-07
4.85408e-06
-1.04447e-07
4.75603e-06
4.46058e-07
-1.42754e-06
4.61557e-06
3.59546e-05
1.32474e-06
1.14281e-05
2.13094e-07
2.51379e-06
-2.18013e-07
1.0646e-06
-3.86726e-07
3.8368e-07
-4.95427e-07
2.42077e-07
-5.50186e-07
1.24914e-07
-5.91399e-07
8.69551e-08
-6.20546e-07
6.97129e-08
-6.47431e-07
6.20548e-08
-6.74866e-07
7.20059e-08
-7.08005e-07
8.82405e-08
-7.5044e-07
1.20202e-07
-8.03617e-07
1.53231e-07
-8.65183e-07
1.82403e-07
-9.29825e-07
1.94384e-07
-9.92701e-07
1.92168e-07
-1.05323e-06
1.85544e-07
-1.11755e-06
1.95344e-07
-1.19742e-06
2.38202e-07
-1.30639e-06
3.21913e-07
-1.455e-06
4.40247e-07
-1.64709e-06
5.76446e-07
-1.87828e-06
7.07636e-07
-2.13725e-06
8.1254e-07
-2.4087e-06
8.76746e-07
-2.67653e-06
8.94759e-07
-2.92581e-06
8.67339e-07
-3.14335e-06
7.97898e-07
-3.31739e-06
6.89377e-07
-3.437e-06
5.43087e-07
-3.49157e-06
3.58697e-07
-3.47056e-06
1.34689e-07
-3.36358e-06
-1.30817e-07
-3.16063e-06
-4.38994e-07
-2.85264e-06
-7.89303e-07
-2.43279e-06
-1.17777e-06
-1.89839e-06
-1.59345e-06
-1.25369e-06
-2.01551e-06
-5.1379e-07
-2.40642e-06
2.91262e-07
-2.70773e-06
1.13807e-06
-2.85541e-06
2.02269e-06
-2.90743e-06
2.92066e-06
-2.90152e-06
3.78694e-06
-2.77249e-06
4.57772e-06
-2.50583e-06
5.2566e-06
-2.12099e-06
5.79896e-06
-1.6643e-06
6.19355e-06
-1.17661e-06
6.44386e-06
-7.2013e-07
6.56331e-06
-3.06232e-07
6.57725e-06
-4.25989e-09
6.50934e-06
2.54918e-07
6.3951e-06
3.37026e-07
6.2479e-06
4.88866e-07
6.11265e-06
3.21513e-07
5.96686e-06
5.2753e-07
5.90713e-06
-4.47152e-08
5.80658e-06
5.46606e-07
-1.77044e-06
5.34707e-06
4.06075e-05
1.90256e-06
1.48726e-05
4.48502e-07
3.96785e-06
-1.33138e-07
1.64624e-06
-3.75881e-07
6.26423e-07
-5.2768e-07
3.93876e-07
-6.07368e-07
2.04602e-07
-6.66388e-07
1.45975e-07
-7.07494e-07
1.10818e-07
-7.44233e-07
9.87941e-08
-7.79885e-07
1.07658e-07
-8.21288e-07
1.29643e-07
-8.72422e-07
1.71336e-07
-9.35139e-07
2.15948e-07
-1.00649e-06
2.53756e-07
-1.08049e-06
2.6838e-07
-1.15177e-06
2.63445e-07
-1.22012e-06
2.53894e-07
-1.29294e-06
2.68166e-07
-1.38372e-06
3.28982e-07
-1.50734e-06
4.45532e-07
-1.67442e-06
6.07332e-07
-1.88721e-06
7.89232e-07
-2.13846e-06
9.58887e-07
-2.41363e-06
1.08771e-06
-2.69474e-06
1.15786e-06
-2.964e-06
1.16402e-06
-3.20573e-06
1.10906e-06
-3.40667e-06
9.98847e-07
-3.55546e-06
8.38163e-07
-3.64181e-06
6.29434e-07
-3.65602e-06
3.72912e-07
-3.58876e-06
6.74248e-08
-3.43101e-06
-2.88562e-07
-3.17421e-06
-6.95798e-07
-2.8109e-06
-1.15262e-06
-2.33604e-06
-1.65262e-06
-1.74868e-06
-2.18081e-06
-1.05442e-06
-2.70977e-06
-2.68566e-07
-3.19227e-06
5.82357e-07
-3.55865e-06
1.48584e-06
-3.7589e-06
2.43934e-06
-3.86092e-06
3.41177e-06
-3.87396e-06
4.35639e-06
-3.71711e-06
5.22788e-06
-3.37731e-06
5.9875e-06
-2.88061e-06
6.60694e-06
-2.28374e-06
7.07094e-06
-1.64061e-06
7.37857e-06
-1.02776e-06
7.54076e-06
-4.68419e-07
7.58073e-06
-4.42316e-08
7.52361e-06
3.12039e-07
7.40581e-06
4.54829e-07
7.24577e-06
6.48909e-07
7.08933e-06
4.77945e-07
6.92163e-06
6.95233e-07
6.83556e-06
4.13541e-08
6.72461e-06
6.57553e-07
-2.06001e-06
6.00915e-06
4.45984e-05
2.52423e-06
1.83575e-05
7.5749e-07
5.73459e-06
-1.57355e-09
2.4053e-06
-3.28164e-07
9.53013e-07
-5.29934e-07
5.95646e-07
-6.39935e-07
3.14603e-07
-7.19989e-07
2.2603e-07
-7.75394e-07
1.66223e-07
-8.2339e-07
1.4679e-07
-8.68101e-07
1.52368e-07
-9.17931e-07
1.79473e-07
-9.77339e-07
2.30744e-07
-1.04854e-06
2.8715e-07
-1.12817e-06
3.33388e-07
-1.20974e-06
3.49947e-07
-1.28754e-06
3.4125e-07
-1.36172e-06
3.28071e-07
-1.44058e-06
3.47025e-07
-1.53873e-06
4.27129e-07
-1.6716e-06
5.78407e-07
-1.84918e-06
7.84913e-07
-2.07171e-06
1.01176e-06
-2.32927e-06
1.21644e-06
-2.60488e-06
1.36332e-06
-2.87915e-06
1.43213e-06
-3.13398e-06
1.41885e-06
-3.35422e-06
1.3293e-06
-3.52757e-06
1.1722e-06
-3.64376e-06
9.54353e-07
-3.69366e-06
6.79334e-07
-3.66874e-06
3.47998e-07
-3.56087e-06
-4.04484e-08
-3.36207e-06
-4.87358e-07
-3.06473e-06
-9.93147e-07
-2.6624e-06
-1.55494e-06
-2.151e-06
-2.16403e-06
-1.53018e-06
-2.80163e-06
-8.05614e-07
-3.43434e-06
8.66162e-09
-4.00655e-06
8.9063e-07
-4.44062e-06
1.83357e-06
-4.70184e-06
2.83163e-06
-4.85899e-06
3.84954e-06
-4.89187e-06
4.8416e-06
-4.70917e-06
5.76367e-06
-4.29938e-06
6.5774e-06
-3.69435e-06
7.25338e-06
-2.95972e-06
7.77399e-06
-2.16123e-06
8.1343e-06
-1.38806e-06
8.34171e-06
-6.75834e-07
8.41544e-06
-1.17956e-07
8.37965e-06
3.47828e-07
8.26965e-06
5.64827e-07
8.1068e-06
8.11765e-07
7.93818e-06
6.46558e-07
7.75332e-06
8.80098e-07
7.64579e-06
1.48878e-07
7.52063e-06
7.82712e-07
-2.29087e-06
6.60563e-06
4.79927e-05
3.17074e-06
2.17924e-05
1.13641e-06
7.76892e-06
1.94434e-07
3.34728e-06
-2.42308e-07
1.38975e-06
-5.01156e-07
8.54495e-07
-6.47061e-07
4.60507e-07
-7.51597e-07
3.30566e-07
-8.23754e-07
2.3838e-07
-8.84506e-07
2.07543e-07
-9.39129e-07
2.06991e-07
-9.97525e-07
2.3787e-07
-1.0647e-06
2.97924e-07
-1.14327e-06
3.65716e-07
-1.22964e-06
4.19758e-07
-1.31703e-06
4.37337e-07
-1.39958e-06
4.23796e-07
-1.47767e-06
4.06166e-07
-1.56017e-06
4.29523e-07
-1.66219e-06
5.29149e-07
-1.79908e-06
7.15294e-07
-1.97971e-06
9.65549e-07
-2.20237e-06
1.23442e-06
-2.45503e-06
1.4691e-06
-2.71941e-06
1.6277e-06
-2.97594e-06
1.68866e-06
-3.20728e-06
1.6502e-06
-3.39952e-06
1.52154e-06
-3.54167e-06
1.31435e-06
-3.62462e-06
1.0373e-06
-3.64027e-06
6.94986e-07
-3.58101e-06
2.88738e-07
-3.43946e-06
-1.82e-07
-3.20821e-06
-7.18604e-07
-2.88022e-06
-1.32115e-06
-2.44964e-06
-1.98551e-06
-1.91282e-06
-2.70085e-06
-1.26953e-06
-3.44492e-06
-5.24986e-07
-4.17888e-06
3.08358e-07
-4.83989e-06
1.2129e-06
-5.34516e-06
2.18354e-06
-5.67248e-06
3.20949e-06
-5.88494e-06
4.25327e-06
-5.93565e-06
5.27116e-06
-5.72705e-06
6.22107e-06
-5.24929e-06
7.06634e-06
-4.53961e-06
7.77818e-06
-3.67156e-06
8.3386e-06
-2.72165e-06
8.74036e-06
-1.78982e-06
8.9881e-06
-9.23574e-07
9.09667e-06
-2.26526e-07
9.08796e-06
3.56539e-07
8.99403e-06
6.58759e-07
8.83757e-06
9.68216e-07
8.66515e-06
8.1898e-07
8.46997e-06
1.07528e-06
8.34572e-06
2.73128e-07
8.20613e-06
9.22297e-07
-2.46239e-06
7.1401e-06
5.08526e-05
3.82626e-06
2.51062e-05
1.57847e-06
1.00167e-05
4.39659e-07
4.4861e-06
-1.16389e-07
1.9458e-06
-4.40162e-07
1.17827e-06
-6.27815e-07
6.4816e-07
-7.60506e-07
4.63258e-07
-8.52011e-07
3.29885e-07
-9.27138e-07
2.8267e-07
-9.9257e-07
2.72422e-07
-1.05968e-06
3.04981e-07
-1.1341e-06
3.72341e-07
-1.2189e-06
4.50518e-07
-1.31052e-06
5.11373e-07
-1.40213e-06
5.28949e-07
-1.48787e-06
5.09535e-07
-1.56829e-06
4.86592e-07
-1.65241e-06
5.13641e-07
-1.75528e-06
6.32017e-07
-1.89164e-06
8.51655e-07
-2.0691e-06
1.14301e-06
-2.28429e-06
1.44961e-06
-2.52394e-06
1.70875e-06
-2.76948e-06
1.87324e-06
-3.0021e-06
1.92127e-06
-3.20579e-06
1.85389e-06
-3.36803e-06
1.68378e-06
-3.47904e-06
1.42535e-06
-3.53064e-06
1.0889e-06
-3.51545e-06
6.79799e-07
-3.42646e-06
1.99744e-07
-3.25666e-06
-3.51796e-07
-2.99896e-06
-9.76305e-07
-2.64669e-06
-1.67341e-06
-2.19441e-06
-2.43779e-06
-1.63864e-06
-3.25663e-06
-9.79052e-07
-4.1045e-06
-2.20301e-07
-4.93763e-06
6.26828e-07
-5.68702e-06
1.54816e-06
-6.26649e-06
2.53794e-06
-6.66226e-06
3.58031e-06
-6.92731e-06
4.63691e-06
-6.99226e-06
5.6662e-06
-6.75634e-06
6.62825e-06
-6.21134e-06
7.48834e-06
-5.3997e-06
8.21912e-06
-4.40235e-06
8.80335e-06
-3.30588e-06
9.23308e-06
-2.21955e-06
9.51152e-06
-1.20201e-06
9.65008e-06
-3.65089e-07
9.6683e-06
3.38323e-07
9.59387e-06
7.3318e-07
9.44981e-06
1.11228e-06
9.27985e-06
9.88943e-07
9.08109e-06
1.27404e-06
8.94438e-06
4.09832e-07
8.79255e-06
1.07413e-06
-2.57677e-06
7.61636e-06
5.32363e-05
4.47762e-06
2.8245e-05
2.07487e-06
1.24195e-05
7.39711e-07
5.82125e-06
5.16568e-08
2.63386e-06
-3.45629e-07
1.57555e-06
-5.81147e-07
8.83678e-07
-7.45894e-07
6.28005e-07
-8.59519e-07
4.4351e-07
-9.50786e-07
3.73937e-07
-1.02801e-06
3.49644e-07
-1.10404e-06
3.81017e-07
-1.18521e-06
4.53506e-07
-1.2752e-06
5.40508e-07
-1.37073e-06
6.06906e-07
-1.46525e-06
6.2347e-07
-1.55303e-06
5.97316e-07
-1.63467e-06
5.68224e-07
-1.71889e-06
5.97865e-07
-1.82018e-06
7.33304e-07
-1.9523e-06
9.83782e-07
-2.12165e-06
1.31235e-06
-2.32372e-06
1.65168e-06
-2.54482e-06
1.92986e-06
-2.76694e-06
2.09536e-06
-2.97254e-06
2.12687e-06
-3.1471e-06
2.02845e-06
-3.27939e-06
1.81607e-06
-3.36056e-06
1.50652e-06
-3.38309e-06
1.11144e-06
-3.34008e-06
6.36788e-07
-3.22486e-06
8.45172e-08
-3.0306e-06
-5.46057e-07
-2.7504e-06
-1.2565e-06
-2.37791e-06
-2.04589e-06
-1.90793e-06
-2.90778e-06
-1.33705e-06
-3.8275e-06
-6.64828e-07
-4.77672e-06
1.04688e-07
-5.70715e-06
9.62211e-07
-6.54454e-06
1.89604e-06
-7.20032e-06
2.89851e-06
-7.66473e-06
3.94923e-06
-7.97803e-06
5.00986e-06
-8.05289e-06
6.04087e-06
-7.78735e-06
7.00436e-06
-7.17483e-06
7.86749e-06
-6.26283e-06
8.60458e-06
-5.13943e-06
9.1996e-06
-3.90091e-06
9.64492e-06
-2.66487e-06
9.94332e-06
-1.50041e-06
1.0104e-05
-5.25813e-07
1.01448e-05
2.97526e-07
1.00891e-05
7.88943e-07
9.95952e-06
1.24184e-06
9.79547e-06
1.153e-06
9.59814e-06
1.47138e-06
9.45226e-06
5.55708e-07
9.29124e-06
1.23515e-06
-2.63766e-06
8.03849e-06
5.51978e-05
5.11408e-06
3.11694e-05
2.61547e-06
1.49181e-05
1.09416e-06
7.34256e-06
2.63186e-07
3.46483e-06
-2.16122e-07
2.05486e-06
-5.0589e-07
1.17345e-06
-7.06808e-07
8.28922e-07
-8.45533e-07
5.82235e-07
-9.54882e-07
4.83286e-07
-1.04501e-06
4.39772e-07
-1.1303e-06
4.66309e-07
-1.21785e-06
5.41055e-07
-1.31217e-06
6.34824e-07
-1.41057e-06
7.0531e-07
-1.50706e-06
7.19962e-07
-1.59617e-06
6.86428e-07
-1.67834e-06
6.50386e-07
-1.7616e-06
6.81124e-07
-1.85938e-06
8.31092e-07
-1.98431e-06
1.10871e-06
-2.14171e-06
1.46976e-06
-2.32657e-06
1.83653e-06
-2.52548e-06
2.12877e-06
-2.72155e-06
2.29143e-06
-2.89874e-06
2.30406e-06
-3.04396e-06
2.17367e-06
-3.14706e-06
1.91917e-06
-3.19989e-06
1.55935e-06
-3.19537e-06
1.10691e-06
-3.12687e-06
5.68288e-07
-2.98791e-06
-5.44384e-08
-2.77177e-06
-7.622e-07
-2.4717e-06
-1.55657e-06
-2.08161e-06
-2.43598e-06
-1.59644e-06
-3.39295e-06
-1.01286e-06
-4.41108e-06
-3.30265e-07
-5.45932e-06
4.47833e-07
-6.48525e-06
1.31339e-06
-7.4101e-06
2.25631e-06
-8.14324e-06
3.26648e-06
-8.6749e-06
4.31981e-06
-9.03135e-06
5.37839e-06
-9.11146e-06
6.40447e-06
-8.81344e-06
7.36196e-06
-8.13232e-06
8.21982e-06
-7.12068e-06
8.95398e-06
-5.87359e-06
9.54986e-06
-4.49679e-06
1.00006e-05
-3.1156e-06
1.03092e-05
-1.80906e-06
1.04838e-05
-7.00383e-07
1.0541e-05
2.40361e-07
1.05004e-05
8.29528e-07
1.03844e-05
1.3578e-06
1.02272e-05
1.31021e-06
1.0034e-05
1.66454e-06
9.88108e-06
7.0867e-07
9.71355e-06
1.40268e-06
-2.64935e-06
8.41073e-06
5.67871e-05
5.72715e-06
3.38529e-05
3.1895e-06
1.74557e-05
1.50105e-06
9.03101e-06
5.21122e-07
4.44475e-06
-5.02862e-08
2.62627e-06
-4.00757e-07
1.52392e-06
-6.4216e-07
1.07033e-06
-8.09205e-07
7.4928e-07
-9.38791e-07
6.12873e-07
-1.04313e-06
5.44114e-07
-1.13821e-06
5.61386e-07
-1.232e-06
6.34842e-07
-1.33005e-06
7.32877e-07
-1.43061e-06
8.05871e-07
-1.52852e-06
8.17866e-07
-1.61861e-06
7.76518e-07
-1.70093e-06
7.32712e-07
-1.78245e-06
7.62647e-07
-1.87522e-06
9.23855e-07
-1.99058e-06
1.22406e-06
-2.13313e-06
1.61231e-06
-2.29786e-06
2.00127e-06
-2.47224e-06
2.30314e-06
-2.6408e-06
2.45999e-06
-2.7891e-06
2.45236e-06
-2.90533e-06
2.28991e-06
-2.98019e-06
1.99404e-06
-3.00604e-06
1.58519e-06
-2.97606e-06
1.07693e-06
-2.88382e-06
4.76051e-07
-2.72292e-06
-2.15337e-07
-2.48668e-06
-9.98439e-07
-2.16853e-06
-1.87473e-06
-1.76256e-06
-2.84195e-06
-1.26385e-06
-3.89165e-06
-6.69102e-07
-5.00583e-06
2.24346e-08
-6.15086e-06
8.07662e-07
-7.27047e-06
1.67949e-06
-8.28193e-06
2.62872e-06
-9.09247e-06
3.64274e-06
-9.68893e-06
4.6945e-06
-1.00831e-05
5.74671e-06
-1.01637e-05
6.76315e-06
-9.82988e-06
7.70934e-06
-9.07852e-06
8.55588e-06
-7.96722e-06
9.28031e-06
-6.59802e-06
9.86951e-06
-5.08599e-06
1.03177e-05
-3.56375e-06
1.06284e-05
-2.11982e-06
1.08093e-05
-8.81247e-07
1.08764e-05
1.73288e-07
1.08464e-05
8.59516e-07
1.07414e-05
1.46282e-06
1.05902e-05
1.46138e-06
1.0402e-05
1.85276e-06
1.0243e-05
8.67668e-07
1.00707e-05
1.57497e-06
-2.61636e-06
8.73734e-06
5.80497e-05
6.31032e-06
3.628e-05
3.78606e-06
1.998e-05
1.95683e-06
1.08602e-05
8.26644e-07
5.57494e-06
1.54548e-07
3.29837e-06
-2.64325e-07
1.94279e-06
-5.50714e-07
1.35672e-06
-7.49566e-07
9.48131e-07
-9.01786e-07
7.65092e-07
-1.0219e-06
6.64226e-07
-1.12755e-06
6.67037e-07
-1.22771e-06
7.35004e-07
-1.32923e-06
8.34392e-07
-1.43156e-06
9.08202e-07
-1.53061e-06
9.1692e-07
-1.62156e-06
8.67465e-07
-1.70386e-06
8.15014e-07
-1.78307e-06
8.41856e-07
-1.8696e-06
1.01038e-06
-1.97356e-06
1.32802e-06
-2.0991e-06
1.73785e-06
-2.24168e-06
2.14385e-06
-2.39005e-06
2.4515e-06
-2.53039e-06
2.60033e-06
-2.64979e-06
2.57177e-06
-2.73758e-06
2.3777e-06
-2.78513e-06
2.04158e-06
-2.78513e-06
1.58519e-06
-2.73097e-06
1.02277e-06
-2.61631e-06
3.61393e-07
-2.43477e-06
-3.96881e-07
-2.1797e-06
-1.25351e-06
-1.8447e-06
-2.20973e-06
-1.42402e-06
-3.26263e-06
-9.12844e-07
-4.40282e-06
-3.07907e-07
-5.61077e-06
3.9163e-07
-6.8504e-06
1.18299e-06
-8.06184e-06
2.05974e-06
-9.15868e-06
3.01302e-06
-1.00457e-05
4.02787e-06
-1.07038e-05
5.075e-06
-1.11302e-05
6.1177e-06
-1.12064e-05
7.12105e-06
-1.08332e-05
8.05201e-06
-1.00095e-05
8.8827e-06
-8.79791e-06
9.59224e-06
-7.30757e-06
1.0169e-05
-5.66274e-06
1.06083e-05
-4.00306e-06
1.09146e-05
-2.42615e-06
1.10954e-05
-1.06199e-06
1.11664e-05
1.02237e-07
1.11423e-05
8.83616e-07
1.10448e-05
1.56032e-06
1.0898e-05
1.60824e-06
1.07142e-05
2.03653e-06
1.05495e-05
1.03237e-06
1.03733e-05
1.75119e-06
-2.54312e-06
9.02257e-06
5.90271e-05
6.8589e-06
3.84436e-05
4.3946e-06
2.24443e-05
2.45648e-06
1.27984e-05
1.18028e-06
6.85114e-06
3.99407e-07
4.07923e-06
-9.48137e-08
2.43701e-06
-4.31061e-07
1.69296e-06
-6.65503e-07
1.18257e-06
-8.43018e-07
9.42608e-07
-9.80744e-07
8.01952e-07
-1.09807e-06
7.84359e-07
-1.20506e-06
8.42004e-07
-1.31009e-06
9.39414e-07
-1.41408e-06
1.0122e-06
-1.51422e-06
1.01706e-06
-1.60602e-06
9.59266e-07
-1.68819e-06
8.97187e-07
-1.76465e-06
9.18319e-07
-1.84403e-06
1.08976e-06
-1.93522e-06
1.41921e-06
-2.0422e-06
1.84483e-06
-2.1613e-06
2.26295e-06
-2.2828e-06
2.57301e-06
-2.39466e-06
2.71219e-06
-2.48542e-06
2.66253e-06
-2.54538e-06
2.43766e-06
-2.56645e-06
2.06265e-06
-2.54157e-06
1.56032e-06
-2.46423e-06
9.45432e-07
-2.32815e-06
2.25315e-07
-2.12692e-06
-5.98112e-07
-1.85395e-06
-1.52648e-06
-1.50297e-06
-2.56071e-06
-1.06838e-06
-3.69723e-06
-5.45441e-07
-4.92576e-06
6.90628e-08
-6.22527e-06
7.76001e-07
-7.55734e-06
1.5728e-06
-8.85863e-06
2.45341e-06
-1.00393e-05
3.4089e-06
-1.10012e-05
4.42225e-06
-1.17171e-05
5.46244e-06
-1.21704e-05
6.49331e-06
-1.22372e-05
7.48098e-06
-1.18209e-05
8.39369e-06
-1.09222e-05
9.20502e-06
-9.60924e-06
9.89565e-06
-7.9982e-06
1.04554e-05
-6.2225e-06
1.08809e-05
-4.42856e-06
1.11775e-05
-2.72275e-06
1.13528e-05
-1.2373e-06
1.14227e-05
3.23431e-08
1.14001e-05
9.06193e-07
1.13066e-05
1.65384e-06
1.11619e-05
1.75293e-06
1.09813e-05
2.21713e-06
1.08108e-05
1.20287e-06
1.06308e-05
1.93126e-06
-2.43382e-06
9.27052e-06
5.97566e-05
7.36977e-06
4.03444e-05
5.00528e-06
2.48088e-05
2.99367e-06
1.481e-05
1.58145e-06
8.26336e-06
6.86124e-07
4.97456e-06
1.09641e-07
3.01349e-06
-2.81623e-07
2.08423e-06
-5.5573e-07
1.45668e-06
-7.61473e-07
1.14835e-06
-9.18972e-07
9.59451e-07
-1.04939e-06
9.1478e-07
-1.16403e-06
9.56638e-07
-1.2729e-06
1.04829e-06
-1.37867e-06
1.11796e-06
-1.47994e-06
1.11834e-06
-1.57263e-06
1.05196e-06
-1.65462e-06
9.7917e-07
-1.72803e-06
9.91733e-07
-1.79961e-06
1.16134e-06
-1.87711e-06
1.49671e-06
-1.96453e-06
1.93225e-06
-2.05934e-06
2.35775e-06
-2.15357e-06
2.66724e-06
-2.23698e-06
2.79559e-06
-2.29948e-06
2.72503e-06
-2.33223e-06
2.47041e-06
-2.32757e-06
2.05799e-06
-2.27862e-06
1.51136e-06
-2.17892e-06
8.45729e-07
-2.02219e-06
6.85925e-08
-1.802e-06
-8.18303e-07
-1.5118e-06
-1.81668e-06
-1.14547e-06
-2.92704e-06
-6.97503e-07
-4.1452e-06
-1.63256e-07
-5.46e-06
4.60437e-07
-6.84896e-06
1.1744e-06
-8.2713e-06
1.97614e-06
-9.66037e-06
2.85979e-06
-1.09229e-05
3.81604e-06
-1.19575e-05
4.82606e-06
-1.27272e-05
5.85758e-06
-1.3202e-05
6.87486e-06
-1.32545e-05
7.84482e-06
-1.27909e-05
8.7369e-06
-1.18143e-05
9.52606e-06
-1.03984e-05
1.01945e-05
-8.66667e-06
1.07336e-05
-6.7616e-06
1.11413e-05
-4.83625e-06
1.14239e-05
-3.00535e-06
1.15894e-05
-1.40281e-06
1.16538e-05
-3.20467e-08
1.16289e-05
9.31097e-07
1.1536e-05
1.74672e-06
1.13913e-05
1.89766e-06
1.12123e-05
2.39617e-06
1.10357e-05
1.37947e-06
1.08514e-05
2.11555e-06
-2.29231e-06
9.48515e-06
6.02715e-05
7.84117e-06
4.19884e-05
5.60918e-06
2.70408e-05
3.56106e-06
1.68581e-05
2.02837e-06
9.79605e-06
1.01613e-06
5.9868e-06
3.51102e-07
3.67852e-06
-1.00701e-07
2.53603e-06
-4.18783e-07
1.77476e-06
-6.55937e-07
1.38551e-06
-8.35693e-07
1.13921e-06
-9.80983e-07
1.06007e-06
-1.10439e-06
1.08005e-06
-1.21774e-06
1.16164e-06
-1.32557e-06
1.22579e-06
-1.42812e-06
1.22088e-06
-1.52175e-06
1.14559e-06
-1.60352e-06
1.06094e-06
-1.67372e-06
1.06194e-06
-1.73715e-06
1.22477e-06
-1.80043e-06
1.55999e-06
-1.86775e-06
1.99957e-06
-1.9379e-06
2.4279e-06
-2.00481e-06
2.73415e-06
-2.05999e-06
2.85077e-06
-2.09471e-06
2.75974e-06
-2.10086e-06
2.47656e-06
-2.07115e-06
2.02828e-06
-1.99881e-06
1.43903e-06
-1.87742e-06
7.24332e-07
-1.70066e-06
-1.08159e-07
-1.46207e-06
-1.0569e-06
-1.15516e-06
-2.1236e-06
-7.73911e-07
-3.30829e-06
-3.12918e-07
-4.60619e-06
2.32377e-07
-6.0053e-06
8.6504e-07
-7.48163e-06
1.5858e-06
-8.99205e-06
2.39216e-06
-1.04667e-05
3.27822e-06
-1.1809e-05
4.23408e-06
-1.29134e-05
5.23938e-06
-1.37325e-05
6.26089e-06
-1.42235e-05
7.26318e-06
-1.42568e-05
8.21383e-06
-1.37415e-05
9.08332e-06
-1.26838e-05
9.84799e-06
-1.11631e-05
1.04916e-05
-9.3103e-06
1.10071e-05
-7.27703e-06
1.13936e-05
-5.22283e-06
1.16587e-05
-3.2704e-06
1.18108e-05
-1.5549e-06
1.1866e-05
-8.72841e-08
1.18355e-05
9.61645e-07
1.17402e-05
1.84198e-06
1.15933e-05
2.04451e-06
1.14141e-05
2.57539e-06
1.1231e-05
1.56257e-06
1.10419e-05
2.30466e-06
-2.12204e-06
9.67018e-06
6.06013e-05
8.27248e-06
4.33861e-05
6.1985e-06
2.91148e-05
4.15063e-06
1.8906e-05
2.51794e-06
1.14287e-05
1.3902e-06
7.11454e-06
6.31614e-07
4.4371e-06
1.13637e-07
3.05401e-06
-2.53035e-07
2.14143e-06
-5.24985e-07
1.65746e-06
-7.29787e-07
1.34401e-06
-8.92051e-07
1.22233e-06
-1.02571e-06
1.2137e-06
-1.14443e-06
1.28036e-06
-1.25479e-06
1.33615e-06
-1.35879e-06
1.32488e-06
-1.45343e-06
1.24023e-06
-1.535e-06
1.14251e-06
-1.60197e-06
1.12891e-06
-1.65717e-06
1.27997e-06
-1.70609e-06
1.60891e-06
-1.75318e-06
2.04666e-06
-1.79868e-06
2.4734e-06
-1.83846e-06
2.77393e-06
-1.86582e-06
2.87814e-06
-1.87327e-06
2.76719e-06
-1.85342e-06
2.45671e-06
-1.79927e-06
1.97413e-06
-1.70414e-06
1.34391e-06
-1.56162e-06
5.81803e-07
-1.36533e-06
-3.04442e-07
-1.10877e-06
-1.31346e-06
-7.85525e-07
-2.44684e-06
-3.89675e-07
-3.70414e-06
8.41202e-08
-5.07999e-06
6.40318e-07
-6.5615e-06
1.28185e-06
-8.12315e-06
2.00929e-06
-9.7195e-06
2.82006e-06
-1.12775e-05
3.70807e-06
-1.2697e-05
4.66266e-06
-1.38679e-05
5.66214e-06
-1.47319e-05
6.6726e-06
-1.52339e-05
7.65878e-06
-1.5243e-05
8.58876e-06
-1.46715e-05
9.43402e-06
-1.3529e-05
1.01722e-05
-1.19013e-05
1.07888e-05
-9.92681e-06
1.1278e-05
-7.76624e-06
1.16407e-05
-5.58553e-06
1.18852e-05
-3.51497e-06
1.20209e-05
-1.69054e-06
1.20639e-05
-1.30304e-07
1.20249e-05
1.00067e-06
1.19246e-05
1.94227e-06
1.17737e-05
2.1954e-06
1.15926e-05
2.75645e-06
1.14026e-05
1.75257e-06
1.1208e-05
2.49932e-06
-1.92607e-06
9.82912e-06
6.07722e-05
8.66399e-06
4.45512e-05
6.76667e-06
3.10121e-05
4.75406e-06
2.09186e-05
3.0458e-06
1.3137e-05
1.80827e-06
8.35207e-06
9.52844e-07
5.29253e-06
3.63284e-07
3.64357e-06
-5.66447e-08
2.56136e-06
-3.66996e-07
1.96781e-06
-5.99908e-07
1.57692e-06
-7.81557e-07
1.40398e-06
-9.27275e-07
1.35942e-06
-1.05255e-06
1.40564e-06
-1.16607e-06
1.44967e-06
-1.27179e-06
1.43061e-06
-1.36752e-06
1.33595e-06
-1.44896e-06
1.22394e-06
-1.51282e-06
1.19278e-06
-1.55997e-06
1.32712e-06
-1.59474e-06
1.64368e-06
-1.62185e-06
2.07377e-06
-1.64302e-06
2.49457e-06
-1.6561e-06
2.78701e-06
-1.65615e-06
2.87819e-06
-1.6369e-06
2.74794e-06
-1.59163e-06
2.41144e-06
-1.5136e-06
1.89611e-06
-1.39622e-06
1.22653e-06
-1.23304e-06
4.1862e-07
-1.01763e-06
-5.19848e-07
-7.43456e-07
-1.58763e-06
-4.04166e-07
-2.78613e-06
6.07858e-09
-4.11438e-06
4.9255e-07
-5.56646e-06
1.05959e-06
-7.12853e-06
1.70995e-06
-8.77352e-06
2.44405e-06
-1.04536e-05
3.25914e-06
-1.20926e-05
4.14875e-06
-1.35866e-05
5.10139e-06
-1.48206e-05
6.09421e-06
-1.57247e-05
7.09277e-06
-1.62325e-05
8.06188e-06
-1.62121e-05
8.97004e-06
-1.55797e-05
9.78963e-06
-1.43486e-05
1.04997e-05
-1.26113e-05
1.10871e-05
-1.05143e-05
1.15479e-05
-8.22705e-06
1.18844e-05
-5.922e-06
1.2106e-05
-3.73655e-06
1.22226e-05
-1.80719e-06
1.22508e-05
-1.58521e-07
1.22009e-05
1.05057e-06
1.20933e-05
2.0499e-06
1.19367e-05
2.35201e-06
1.17522e-05
2.94096e-06
1.15549e-05
1.94987e-06
1.13539e-05
2.70028e-06
-1.70707e-06
9.96524e-06
6.08069e-05
9.0168e-06
4.54996e-05
7.30834e-06
3.27205e-05
5.363e-06
2.28639e-05
3.60643e-06
1.48936e-05
2.26925e-06
9.68925e-06
1.31601e-06
6.24578e-06
6.5006e-07
4.30952e-06
1.72305e-07
3.03912e-06
-1.80194e-07
2.32031e-06
-4.44495e-07
1.84122e-06
-6.48213e-07
1.6077e-06
-8.08121e-07
1.51933e-06
-9.41418e-07
1.53894e-06
-1.05893e-06
1.56718e-06
-1.16674e-06
1.53841e-06
-1.26368e-06
1.4329e-06
-1.34511e-06
1.30537e-06
-1.40614e-06
1.2538e-06
-1.44565e-06
1.36664e-06
-1.4668e-06
1.66483e-06
-1.47451e-06
2.08148e-06
-1.47195e-06
2.49201e-06
-1.45895e-06
2.77401e-06
-1.43233e-06
2.85157e-06
-1.387e-06
2.70261e-06
-1.31687e-06
2.34132e-06
-1.21551e-06
1.79474e-06
-1.07635e-06
1.08736e-06
-8.92921e-07
2.35196e-07
-6.58736e-07
-7.54033e-07
-3.67225e-07
-1.87914e-06
-1.21134e-08
-3.14124e-06
4.12392e-07
-4.53889e-06
9.11476e-07
-6.06554e-06
1.48934e-06
-7.7064e-06
2.14857e-06
-9.43275e-06
2.88937e-06
-1.11944e-05
3.70873e-06
-1.29119e-05
4.59971e-06
-1.44776e-05
5.54989e-06
-1.57708e-05
6.53538e-06
-1.67102e-05
7.52131e-06
-1.72184e-05
8.47251e-06
-1.71633e-05
9.35778e-06
-1.64649e-05
1.01504e-05
-1.51412e-05
1.08308e-05
-1.32917e-05
1.13874e-05
-1.10709e-05
1.18179e-05
-8.65758e-06
1.21261e-05
-6.23023e-06
1.23226e-05
-3.93303e-06
1.24181e-05
-1.90271e-06
1.24294e-05
-1.69752e-07
1.23665e-05
1.1134e-06
1.22496e-05
2.16685e-06
1.20858e-05
2.51581e-06
1.18964e-05
3.13033e-06
1.16914e-05
2.15483e-06
1.14834e-05
2.90828e-06
-1.4674e-06
1.00815e-05
6.07254e-05
9.33256e-06
4.62486e-05
7.8194e-06
3.42337e-05
5.96945e-06
2.47139e-05
4.19337e-06
1.66696e-05
2.7709e-06
1.11117e-05
1.72173e-06
7.29494e-06
9.75718e-07
5.05553e-06
4.35887e-07
3.57895e-06
3.72928e-08
2.7189e-06
-2.6181e-07
2.14032e-06
-4.90495e-07
1.83639e-06
-6.67028e-07
1.69586e-06
-8.10098e-07
1.68201e-06
-9.32661e-07
1.68974e-06
-1.04305e-06
1.6488e-06
-1.14141e-06
1.53126e-06
-1.22302e-06
1.38698e-06
-1.2816e-06
1.31238e-06
-1.31413e-06
1.39917e-06
-1.32248e-06
1.67317e-06
-1.31166e-06
2.07067e-06
-1.28625e-06
2.46659e-06
-1.24798e-06
2.73574e-06
-1.19541e-06
2.799e-06
-1.12465e-06
2.63185e-06
-1.03026e-06
2.24693e-06
-9.06064e-07
1.67054e-06
-7.45562e-07
9.26863e-07
-5.42261e-07
3.18946e-08
-2.89591e-07
-1.0067e-06
1.90183e-08
-2.18775e-06
3.89794e-07
-3.51202e-06
8.2847e-07
-4.97756e-06
1.34014e-06
-6.57721e-06
1.92886e-06
-8.29511e-06
2.59702e-06
-1.01009e-05
3.34461e-06
-1.1942e-05
4.16826e-06
-1.37356e-05
5.06045e-06
-1.53698e-05
6.00777e-06
-1.67181e-05
6.98538e-06
-1.76878e-05
7.95803e-06
-1.81911e-05
8.89051e-06
-1.80958e-05
9.7519e-06
-1.73263e-05
1.05164e-05
-1.59057e-05
1.11656e-05
-1.39409e-05
1.16899e-05
-1.15951e-05
1.20884e-05
-9.05614e-06
1.23667e-05