/*--------------------------------*- C++ -*----------------------------------*\
| =========                 |                                                 |
| \\      /  F ield         | OpenFOAM: The Open Source CFD Toolbox           |
|  \\    /   O peration     | Version:  2.4.0                                 |
|   \\  /    A nd           | Web:      www.OpenFOAM.org                      |
|    \\/     M anipulation  |                                                 |
\*---------------------------------------------------------------------------*/
FoamFile
{
    version     2.0;
    format      ascii;
    class       volVectorField;
    location    "0.85";
    object      U;
}
// * * * * * * * * * * * * * * * * * * * * * * * * * * * * * * * * * * * * * //

dimensions      [0 1 -1 0 0 0 0];

internalField   nonuniform List<vector> 
6000
(
(0.165179 -0.00672967 1.50345e-18)
(-0.00949802 0.00180063 0)
(0.00100895 -0.000273266 7.44946e-18)
(-0.00660156 0.0012793 0)
(-0.00530608 0.00104488 0)
(-0.00616044 0.0011313 0)
(-0.00370392 0.000636955 4.16289e-18)
(-0.00173745 0.000302792 -3.73967e-22)
(-0.00236193 0.000544359 0)
(-0.00929572 0.00181128 0)
(-0.0217448 0.00374108 3.59531e-18)
(-0.0357692 0.00548899 -7.11088e-18)
(-0.045379 0.00626033 0)
(-0.047182 0.00593833 0)
(-0.0417565 0.00465968 -2.19515e-18)
(-0.0324662 0.00321665 0)
(-0.0226242 0.00197107 0)
(-0.0141463 0.00105146 -2.58641e-18)
(-0.00757311 0.000431972 -2.64802e-18)
(-0.00267714 3.26959e-05 0)
(0.00105987 -0.000229013 2.71312e-18)
(0.00411102 -0.000398528 1.36564e-18)
(0.00681022 -0.000511168 -1.37317e-18)
(0.00935602 -0.000578952 0)
(0.0118155 -0.000603852 0)
(0.0141585 -0.000584244 0)
(0.0163115 -0.000520352 6.97243e-19)
(0.0182109 -0.000416608 -6.98451e-19)
(0.019836 -0.000280581 0)
(0.021211 -0.000120201 0)
(0.0223858 5.83837e-05 8.74432e-20)
(0.0234147 0.000251369 0)
(0.0243437 0.000456781 6.99719e-19)
(0.0252075 0.000673759 -6.99931e-19)
(0.0260315 0.000902071 0)
(0.0268349 0.00114189 0)
(0.0276331 0.0013937 1.40276e-18)
(0.0284387 0.00165826 0)
(0.029263 0.00193659 1.40573e-18)
(0.0301161 0.00222998 0)
(0.0310076 0.00253996 0)
(0.0319474 0.00286838 2.81979e-18)
(0.0329453 0.00321742 -5.64175e-18)
(0.034013 0.00358969 0)
(0.035161 0.00398821 0)
(0.0364065 0.00441676 2.81182e-18)
(0.0377575 0.0048793 0)
(0.0392494 0.00537994 0)
(0.0408671 0.00592338 -5.52116e-18)
(0.0427133 0.00652413 -5.45579e-18)
(0.0446571 0.0071758 -5.36174e-18)
(0.0470729 0.00792499 -2.37333e-21)
(0.0493171 0.00870702 5.06169e-18)
(0.0528492 0.00971224 0)
(0.0549587 0.0105945 -3.73395e-21)
(0.0612236 0.0121616 -4.21403e-18)
(0.0613117 0.0128712 3.55762e-18)
(0.0751378 0.0159514 3.2165e-18)
(0.068021 0.0155471 5.69266e-21)
(0.0992932 0.0221879 0)
(0.360434 -0.0165013 -2.04087e-18)
(0.00371718 0.00633654 4.41778e-18)
(0.00608085 -0.00100748 -4.46683e-18)
(-0.0147112 0.0033515 -4.73554e-18)
(-0.0130151 0.00270968 0)
(-0.015686 0.00291136 0)
(-0.0100313 0.00157777 -4.75513e-18)
(-0.00655288 0.00104854 9.35307e-18)
(-0.0108957 0.0025061 0)
(-0.0308151 0.00666467 0)
(-0.0615998 0.0118693 -3.95489e-18)
(-0.0922413 0.015624 3.88314e-18)
(-0.110012 0.0162455 2.01455e-18)
(-0.109723 0.0140181 0)
(-0.0943207 0.0100969 2.37264e-18)
(-0.0714518 0.00625335 0)
(-0.047987 0.00323991 0)
(-0.0277351 0.00116901 0)
(-0.0117025 -0.000153456 0)
(0.000605583 -0.000979979 0)
(0.0102292 -0.0015106 -7.39106e-22)
(0.0181956 -0.00185466 0)
(0.0252633 -0.00207871 -1.46601e-18)
(0.0318349 -0.00219339 0)
(0.0380211 -0.00218993 0)
(0.0437462 -0.00205936 7.39224e-19)
(0.0488754 -0.00180553 -7.40514e-19)
(0.0533197 -0.00144751 3.5252e-23)
(0.0570868 -0.00101227 3.70751e-19)
(0.0602689 -0.000524508 0)
(0.0629976 -7.81358e-07 -9.26957e-20)
(0.0654014 0.000550564 -3.70797e-19)
(0.0675845 0.00112648 -2.70605e-23)
(0.0696251 0.00172649 7.42286e-19)
(0.0715813 0.00235122 -7.42954e-19)
(0.0734976 0.00300191 0)
(0.0754102 0.0036804 0)
(0.0773497 0.00438904 0)
(0.0793429 0.00513079 0)
(0.0814149 0.00590917 0)
(0.0835897 0.00672833 -3.0081e-18)
(0.0858921 0.00759317 0)
(0.0883472 0.00850942 3.02372e-18)
(0.0909843 0.00948392 3.02954e-18)
(0.0938313 0.0105245 0)
(0.0969304 0.0116411 0)
(0.100306 0.0128438 0)
(0.10404 0.0141467 0)
(0.108112 0.0155602 6.03227e-18)
(0.112748 0.0171212 0)
(0.117693 0.0188147 0)
(0.123739 0.0207572 -5.81302e-18)
(0.129576 0.0227934 -5.65726e-18)
(0.138267 0.0253852 0)
(0.144196 0.0277106 -1.02785e-17)
(0.159085 0.0316881 0)
(0.161291 0.0336978 -8.24176e-18)
(0.192944 0.0412756 -3.74485e-18)
(0.180597 0.0409368 1.99242e-18)
(0.251428 0.056311 2.16797e-18)
(0.501017 -0.0114561 -1.73962e-19)
(0.0424125 0.00877476 -4.37975e-18)
(0.0151867 -0.00149032 0)
(-0.0182636 0.00478452 4.74283e-18)
(-0.0181049 0.00388342 0)
(-0.022964 0.00414337 0)
(-0.0155391 0.00222 0)
(-0.0123839 0.0021454 -4.67645e-18)
(-0.0219824 0.00568854 0)
(-0.0540005 0.0130735 -4.19648e-18)
(-0.09909 0.0208874 0)
(-0.140111 0.0251306 0)
(-0.160291 0.0239252 -2.01868e-18)
(-0.154804 0.018558 0)
(-0.129426 0.0117889 0)
(-0.0950962 0.00590602 0)
(-0.0608441 0.00174128 0)
(-0.0314562 -0.00085841 0)
(-0.00806294 -0.00236974 0)
(0.0101285 -0.00324838 2.88337e-18)
(0.0246165 -0.00378639 -2.90367e-18)
(0.0368151 -0.00413658 0)
(0.0476984 -0.00434921 2.4217e-22)
(0.0577507 -0.00440702 -1.46861e-18)
(0.0670783 -0.00427766 0)
(0.0755701 -0.00394328 -1.47676e-18)
(0.0830698 -0.00341612 0)
(0.0895044 -0.00273566 7.40529e-19)
(0.094933 -0.00195149 -3.70452e-19)
(0.0995178 -0.00110491 0)
(0.103459 -0.000220356 0)
(0.106943 0.00069237 3.70569e-19)
(0.110117 0.00163175 -3.18252e-23)
(0.113092 0.00259946 0)
(0.115952 0.00359806 1.48517e-18)
(0.118762 0.00463055 0)
(0.121575 0.00570043 1.48965e-18)
(0.124436 0.00681185 0)
(0.127385 0.00796967 0)
(0.13046 0.00917953 0)
(0.133699 0.010448 3.00799e-18)
(0.137138 0.0117825 0)
(0.140816 0.0131921 0)
(0.144779 0.0146872 -3.03051e-18)
(0.149071 0.0162796 0)
(0.153754 0.0179847 0)
(0.158872 0.0198178 3.03654e-18)
(0.16454 0.0218037 -3.03047e-18)
(0.17075 0.0239574 -3.01724e-18)
(0.177807 0.0263312 0)
(0.185403 0.0289107 0)
(0.19459 0.0318541 0)
(0.203696 0.0349681 5.66174e-18)
(0.216751 0.0388625 5.46849e-18)
(0.226454 0.0424831 5.15498e-18)
(0.24827 0.0483376 0)
(0.253717 0.0517421 4.13705e-18)
(0.298801 0.0624997 7.52543e-18)
(0.285732 0.0632451 0)
(0.386305 0.0839241 -2.18782e-18)
(0.605278 0.000114975 -1.44552e-19)
(0.0985256 0.0106005 4.25337e-18)
(0.0295043 -0.0015202 -4.45465e-18)
(-0.0172082 0.00575057 0)
(-0.0204582 0.00466588 0)
(-0.0280068 0.00497011 0)
(-0.0201759 0.00267784 0)
(-0.0187482 0.00359318 0)
(-0.0343141 0.00978106 0)
(-0.0767526 0.0204137 4.18271e-18)
(-0.131873 0.0300236 3.94032e-18)
(-0.177795 0.0334172 0)
(-0.196187 0.0292241 0)
(-0.184042 0.0202485 0)
(-0.149812 0.010621 2.36307e-18)
(-0.10648 0.00308615 0)
(-0.064117 -0.00172939 2.67978e-18)
(-0.0278895 -0.00439378 -2.77832e-18)
(0.0011122 -0.00572978 0)
(0.0239736 -0.00640258 -2.87497e-18)
(0.0425129 -0.00678104 0)
(0.0583404 -0.00702121 -1.45437e-18)
(0.0725186 -0.007132 2.92024e-18)
(0.0855447 -0.00705316 1.46523e-18)
(0.0974979 -0.00672293 0)
(0.108241 -0.00611548 7.36735e-19)
(0.11762 -0.0052555 0)
(0.125599 -0.00420671 7.38965e-19)
(0.132299 -0.00304301 0)
(0.137948 -0.00182151 0)
(0.142806 -0.000572437 0)
(0.147105 0.000695421 3.69874e-19)
(0.151029 0.00198404 -1.48008e-18)
(0.154713 0.00329863 0)
(0.15826 0.00464462 -7.41317e-19)
(0.161753 0.00602729 0)
(0.165259 0.0074522 -1.48726e-18)
(0.168835 0.00892543 0)
(0.172533 0.0104538 0)
(0.176401 0.012045 0)
(0.180487 0.0137077 3.0029e-18)
(0.18484 0.0154518 0)
(0.189511 0.017289 3.01874e-18)
(0.194557 0.0192328 -3.02559e-18)
(0.200038 0.0212986 0)
(0.206033 0.023506 -3.03366e-18)
(0.212603 0.025875 -6.06669e-18)
(0.219891 0.0284372 3.0282e-18)
(0.227906 0.0312127 6.02946e-18)
(0.237003 0.0342664 -5.98413e-18)
(0.246873 0.0375854 -5.91311e-18)
(0.258701 0.0413591 0)
(0.270689 0.0453719 -5.66324e-18)
(0.287328 0.0503313 -5.47193e-18)
(0.300604 0.0550496 -5.14453e-18)
(0.327778 0.0623826 0)
(0.337176 0.0670667 0)
(0.391777 0.0801058 -3.76484e-18)
(0.381455 0.0822347 0)
(0.502867 0.105909 2.14003e-18)
(0.684461 0.0141735 -1.25836e-19)
(0.164761 0.0126239 -3.18487e-20)
(0.0500706 -0.00101048 4.42795e-18)
(-0.0115069 0.006381 4.73489e-18)
(-0.0199728 0.00514657 0)
(-0.0308193 0.00548652 -4.79594e-18)
(-0.023826 0.00304285 0)
(-0.0251124 0.00535895 0)
(-0.0466741 0.0144912 0)
(-0.0973688 0.0281168 4.17241e-18)
(-0.158463 0.0386388 -3.92443e-18)
(-0.205008 0.040118 0)
(-0.219102 0.0322495 0)
(-0.200202 0.0195461 0)
(-0.158774 0.0072972 -2.35811e-18)
(-0.108759 -0.00149562 0)
(-0.060536 -0.00656558 -2.67272e-18)
(-0.0193271 -0.00895877 2.77126e-18)
(0.0139 -0.00987916 0)
(0.0404758 -0.0101761 0)
(0.0623744 -0.0102843 1.44226e-18)
(0.0812823 -0.0103316 1.44977e-18)
(0.0982821 -0.0102723 -2.91076e-18)
(0.113846 -0.00999513 -1.46038e-18)
(0.12801 -0.00940636 0)
(0.140609 -0.0084742 7.34466e-19)
(0.151498 -0.00723931 0)
(0.160683 -0.00579247 -7.36937e-19)
(0.168347 -0.00423268 3.68707e-19)
(0.174786 -0.0026318 0)
(0.180315 -0.00102371 0)
(0.185205 0.000585815 -7.37912e-19)
(0.189668 0.00220382 7.38241e-19)
(0.193862 0.00384004 0)
(0.197906 0.0055034 -7.3948e-19)
(0.201895 0.00720188 0)
(0.20591 0.00894333 1.48362e-18)
(0.210018 0.0107359 0)
(0.214281 0.0125884 0)
(0.218755 0.0145103 0)
(0.223497 0.0165123 -2.99664e-18)
(0.228566 0.0186066 -3.00429e-18)
(0.234021 0.0208067 -3.01275e-18)
(0.239933 0.0231291 7.27607e-22)
(0.246372 0.0255918 -3.02438e-18)
(0.253433 0.0282183 3.02822e-18)
(0.261192 0.0310319 6.05417e-18)
(0.269811 0.0340699 0)
(0.279321 0.0373565 -3.00944e-18)
(0.290106 0.0409662 5.97571e-18)
(0.301888 0.0448893 5.90555e-18)
(0.315898 0.049336 0)
(0.330367 0.0540822 0)
(0.349908 0.0598919 0)
(0.366436 0.0655188 5.14185e-18)
(0.397694 0.0739876 0)
(0.411282 0.0798012 0)
(0.472389 0.0944129 3.73547e-18)
(0.466886 0.097997 -1.95726e-18)
(0.602137 0.123075 -2.14119e-18)
(0.745811 0.0288565 -1.12697e-19)
(0.235598 0.015354 -4.07559e-18)
(0.0774189 4.77872e-05 0)
(-0.00109053 0.00683217 -4.72418e-18)
(-0.016557 0.005416 -4.75254e-18)
(-0.0313813 0.00577538 8.4517e-22)
(-0.0263282 0.00337363 0)
(-0.0309385 0.0073741 0)
(-0.0580034 0.0195363 0)
(-0.114598 0.0357274 -4.15312e-18)
(-0.178163 0.0463239 0)
(-0.222375 0.0451323 0)
(-0.23111 0.0332872 2.00145e-18)
(-0.206237 0.0169785 0)
(-0.159379 0.00242955 0)
(-0.104664 -0.00727876 0)
(-0.052378 -0.0123077 0)
(-0.00764437 -0.0142005 -2.75703e-18)
(0.0287351 -0.0145483 0)
(0.0582331 -0.014364 2.85064e-18)
(0.0828675 -0.0141271 -1.43663e-18)
(0.10435 -0.0139245 -1.44381e-18)
(0.12375 -0.013648 2.8996e-18)
(0.141495 -0.0131293 2.90998e-18)
(0.15756 -0.0122414 0)
(0.17174 -0.010948 -7.31928e-19)
(0.183883 -0.00930905 0)
(0.194033 -0.00744521 0)
(0.202434 -0.00548168 -7.35115e-19)
(0.20945 -0.00350425 0)
(0.215451 -0.0015486 0)
(0.220747 0.000384479 7.3577e-19)
(0.225576 0.00230848 0)
(0.230113 0.00423852 0)
(0.234493 0.00618747 7.37503e-19)
(0.238823 0.00816637 0)
(0.243193 0.0101855 -1.47978e-18)
(0.24768 0.0122553 0)
(0.252353 0.0143864 0)
(0.257276 0.0165902 0)
(0.262514 0.0188792 0)
(0.268132 0.0212673 2.99716e-18)
(0.274199 0.02377 3.00439e-18)
(0.280793 0.0264058 7.88972e-22)
(0.287996 0.0291953 3.01765e-18)
(0.295912 0.0321645 3.01972e-18)
(0.304633 0.0353399 -3.02019e-18)
(0.314334 0.0387626 0)
(0.32507 0.0424609 -3.00063e-18)
(0.337239 0.046516 2.97889e-18)
(0.350606 0.0509219 -5.88725e-18)
(0.366404 0.0559018 0)
(0.382969 0.061233 0)
(0.404849 0.0677051 -5.44114e-18)
(0.424241 0.074066 -5.12071e-18)
(0.458608 0.0833832 4.80184e-18)
(0.476264 0.0901581 4.09934e-18)
(0.541745 0.105801 -3.73417e-18)
(0.541946 0.110755 1.95656e-18)
(0.68598 0.136194 0)
(0.794087 0.0433668 -1.01831e-19)
(0.307159 0.0190145 0)
(0.111445 0.00165808 4.35284e-18)
(0.0141498 0.00725608 4.70612e-18)
(-0.010128 0.00556641 2.09602e-22)
(-0.0296429 0.00590819 4.79523e-18)
(-0.0274917 0.00370272 0)
(-0.035719 0.00955031 0)
(-0.0674409 0.0246632 0)
(-0.127636 0.0429112 2.06885e-18)
(-0.190903 0.0528682 1.94106e-18)
(-0.231049 0.0485423 0)
(-0.234415 0.032698 -2.00133e-18)
(-0.204788 0.0130364 2.14368e-18)
(-0.154146 -0.00349608 0)
(-0.0963402 -0.013847 0)
(-0.0413897 -0.0186225 0)
(0.00574518 -0.0198685 9.1885e-22)
(0.0444186 -0.0195397 0)
(0.0761354 -0.0188077 -5.6739e-18)
(0.102922 -0.0181759 1.42975e-18)
(0.126501 -0.0176881 1.43773e-18)
(0.147924 -0.0171668 -2.82963e-22)
(0.167561 -0.0163818 -1.44899e-18)
(0.18531 -0.0151698 0)
(0.200898 -0.0134909 0)
(0.21414 -0.0114274 0)
(0.225101 -0.00913376 3.6593e-19)
(0.234082 -0.00676348 7.32584e-19)
(0.241516 -0.00441621 0)
(0.247833 -0.00212771 0)
(0.253389 0.000108179 -7.33454e-19)
(0.258444 0.00231291 -3.66902e-19)
(0.263192 0.00450783 0)
(0.267779 0.00671021 0)
(0.272325 0.00893434 0)
(0.276927 0.0111932 0)
(0.28167 0.0134996 0)
(0.286631 0.0158661 0)
(0.291879 0.0183059 0)
(0.297485 0.0208331 0)
(0.30352 0.0234633 0)
(0.31006 0.0262135 -7.64432e-22)
(0.317189 0.029104 3.00402e-18)
(0.324997 0.0321572 0)
(0.333599 0.0354012 -6.02428e-18)
(0.343096 0.038865 -3.01097e-18)
(0.353676 0.0425927 0)
(0.365413 0.0466154 2.99421e-18)
(0.378711 0.0510192 -2.97275e-18)
(0.393386 0.0558023 5.87562e-18)
(0.410644 0.0611942 -5.77178e-18)
(0.428961 0.0669806 0)
(0.452726 0.0739544 6.66882e-21)
(0.474579 0.0808921 5.11301e-18)
(0.511336 0.0908222 -9.58164e-18)
(0.532712 0.0983862 -1.02009e-20)
(0.601135 0.114654 -3.69959e-18)
(0.607104 0.120799 1.92876e-18)
(0.756466 0.145947 2.07287e-18)
(0.832481 0.0572705 3.33347e-18)
(0.37686 0.0236311 0)
(0.15148 0.00383902 2.61051e-21)
(0.034319 0.00778213 -3.77859e-22)
(-0.000595508 0.00569772 4.73706e-18)
(-0.0255252 0.00594858 4.79028e-18)
(-0.0271139 0.00404623 0)
(-0.0390075 0.0117918 4.662e-18)
(-0.0743431 0.029656 0)
(-0.136076 0.0494413 -2.05851e-18)
(-0.197054 0.0582086 -2.68584e-21)
(-0.232386 0.0505377 -1.89549e-18)
(-0.231027 0.0308537 0)
(-0.197979 0.00813961 -4.26088e-18)
(-0.144963 -0.0101023 0)
(-0.0853261 -0.0208917 0)
(-0.0287819 -0.0252696 0)
(0.0198829 -0.0257794 2.7261e-18)
(0.0601136 -0.0247084 0)
(0.0933935 -0.023382 2.8223e-18)
(0.121768 -0.0223246 -2.8456e-18)
(0.146981 -0.0215344 0)
(0.170073 -0.0207592 -3.1877e-22)
(0.191358 -0.0197003 0)
(0.210639 -0.0181538 0)
(0.227539 -0.0160753 -7.25904e-19)
(0.241807 -0.0135728 0)
(0.253497 -0.0108393 -7.29089e-19)
(0.26296 -0.00806067 -3.64971e-19)
(0.270702 -0.00535141 -9.12946e-20)
(0.277222 -0.002746 9.1334e-20)
(0.282924 -0.000229061 3.65537e-19)
(0.288099 0.00223058 7.31474e-19)
(0.292955 0.00466147 0)
(0.297652 0.00708571 7.32927e-19)
(0.302316 0.00952111 0)
(0.307055 0.0119836 0)
(0.311961 0.0144881 0)
(0.317115 0.0170497 1.47763e-18)
(0.322593 0.0196832 0)
(0.328469 0.0224042 0)
(0.33482 0.0252296 2.97967e-18)
(0.341726 0.0281782 -2.98844e-18)
(0.349277 0.0312712 0)
(0.357569 0.0345326 0)
(0.366723 0.0379923 3.00433e-18)
(0.376851 0.0416808 3.00388e-18)
(0.388147 0.0456445 -2.99706e-18)
(0.400704 0.049917 0)
(0.414929 0.0545868 0)
(0.43068 0.0596568 0)
(0.449133 0.0653581 4.8669e-21)
(0.468906 0.0714885 0)
(0.494197 0.0788302 5.41621e-18)
(0.518132 0.0862071 0)
(0.556749 0.0965607 4.77905e-18)
(0.581396 0.104748 -4.07885e-18)
(0.651828 0.121344 7.37566e-18)
(0.663151 0.128456 -1.92662e-18)
(0.815563 0.152929 -2.06967e-18)
(0.863214 0.070306 8.51423e-20)
(0.443062 0.0291028 -3.75297e-18)
(0.196462 0.00661413 -4.24482e-18)
(0.0594079 0.00852826 -3.13111e-22)
(0.0121942 0.00589769 -4.7233e-18)
(-0.0189238 0.00595448 -4.78444e-18)
(-0.0249943 0.00441108 0)
(-0.0404388 0.0140069 -4.65124e-18)
(-0.0782812 0.034344 0)
(-0.139828 0.0551842 -2.04952e-18)
(-0.197239 0.0623833 -1.92132e-18)
(-0.227727 0.0513551 1.88995e-18)
(-0.222611 0.0280923 -1.97417e-18)
(-0.187386 0.00262109 2.11451e-18)
(-0.133118 -0.0171122 -2.2855e-18)
(-0.0726003 -0.0281985 2.46304e-18)
(-0.0152732 -0.0320884 0)
(0.0342101 -0.031804 0)
(0.0753257 -0.0299441 0)
(0.109542 -0.0279902 1.40309e-18)
(0.13895 -0.0264908 1.41557e-18)
(0.165337 -0.0253964 0)
(0.189749 -0.0243744 -1.42994e-18)
(0.212452 -0.02305 0)
(0.233143 -0.0211719 0)
(0.251309 -0.0186883 7.22795e-19)
(0.266586 -0.015736 -7.24693e-19)
(0.278983 -0.012553 3.63118e-19)
(0.288881 -0.00936337 0)
(0.296862 -0.00629892 1.81938e-19)
(0.303505 -0.00339195 -1.8204e-19)
(0.309272 -0.000615409 0)
(0.314486 0.00207381 -3.64554e-19)
(0.319374 0.00471267 7.29682e-19)
(0.324106 0.00732862 -7.30711e-19)
(0.328818 0.0099432 0)
(0.333623 0.0125753 0)
(0.338622 0.0152426 0)
(0.3439 0.0179622 -1.47348e-18)
(0.349537 0.0207507 0)
(0.355612 0.0236254 0)
(0.362204 0.0266044 -2.97169e-18)
(0.369397 0.0297074 0)
(0.377285 0.0329572 2.986e-18)
(0.385969 0.0363787 -2.99152e-18)
(0.395575 0.0400027 0)
(0.406222 0.0438615 2.99406e-18)
(0.418109 0.0480024 5.97856e-18)
(0.431345 0.0524612 -2.97594e-18)
(0.446335 0.0573276 0)
(0.462979 0.0626086 0)
(0.482419 0.0685338 2.87441e-18)
(0.5034 0.0749147 0)
(0.529938 0.0825141 5.39302e-18)
(0.555618 0.0902127 0)
(0.595708 0.100839 4.7523e-18)
(0.623156 0.1095 4.05303e-18)
(0.694996 0.126206 -3.67568e-18)
(0.711035 0.134059 0)
(0.865032 0.157651 2.03169e-18)
(0.8879 0.08234 -3.58217e-18)
(0.504796 0.0352618 1.95603e-20)
(0.245123 0.00999511 4.18921e-18)
(0.0892804 0.00959821 -3.01048e-22)
(0.0284046 0.00624311 -4.28435e-22)
(-0.00971163 0.00597808 0)
(-0.0209462 0.00480076 0)
(-0.0397403 0.0161163 0)
(-0.0790215 0.0386037 -2.19809e-18)
(-0.139035 0.0600829 4.07856e-18)
(-0.192197 0.0654942 0)
(-0.218266 0.0512365 1.8693e-18)
(-0.210437 0.0246941 8.93282e-21)
(-0.17406 -0.00327801 -2.08546e-18)
(-0.119371 -0.0243446 5.47628e-21)
(-0.0586689 -0.0356345 -2.4464e-18)
(-0.00119475 -0.0389775 0)
(0.0484862 -0.0378496 0)
(0.0898566 -0.0351647 0)
(0.124409 -0.0325595 -1.39563e-18)
(0.154306 -0.0306125 0)
(0.1814 -0.0292242 1.41597e-18)
(0.206771 -0.0279762 1.42236e-18)
(0.230655 -0.0264087 -1.42815e-18)
(0.252637 -0.0242136 0)
(0.272039 -0.0213274 0)
(0.28834 -0.0179174 7.21692e-19)
(0.30146 -0.0142742 0)
(0.311787 -0.010668 3.6217e-19)
(0.319973 -0.00725232 -9.06434e-20)
(0.326687 -0.00405709 9.07069e-20)
(0.33246 -0.00104094 -3.63007e-19)
(0.337656 0.00185384 0)
(0.342522 0.00467427 -7.27427e-19)
(0.347237 0.00745377 0)
(0.351944 0.0102178 0)
(0.356767 0.0129883 1.46168e-18)
(0.361808 0.0157859 0)
(0.36716 0.0186298 0)
(0.372906 0.0215387 0)
(0.379127 0.0245312 0)
(0.385906 0.0276266 0)
(0.393328 0.0308458 0)
(0.401491 0.0342122 -5.95525e-18)
(0.410499 0.0377518 2.98377e-18)
(0.420481 0.0414963 2.98578e-18)
(0.431563 0.0454787 -5.97189e-18)
(0.443946 0.0497471 -2.9813e-18)
(0.457753 0.0543388 2.96893e-18)
(0.473385 0.0593435 -2.94572e-18)
(0.490778 0.0647722 0)
(0.511041 0.0708507 2.48449e-21)
(0.533032 0.0774046 -5.56845e-18)
(0.5606 0.0851718 -5.38298e-18)
(0.587737 0.0930939 -5.05716e-18)
(0.629014 0.103873 -9.47996e-18)
(0.658823 0.112877 -4.0472e-18)
(0.731684 0.129535 3.64092e-18)
(0.751743 0.137922 1.88641e-18)
(0.906398 0.160532 -2.02871e-18)
(0.907754 0.0933301 -7.40637e-20)
(0.561551 0.0419161 3.61094e-18)
(0.296148 0.0139699 2.41299e-21)
(0.123638 0.0110719 -3.27295e-22)
(0.0481941 0.00680383 4.67832e-18)
(0.00225066 0.00607132 4.76015e-18)
(-0.0148013 0.00521996 -4.7454e-18)
(-0.0367324 0.0180589 2.32004e-18)
(-0.0764948 0.0423564 -2.66237e-21)
(-0.133993 0.0641385 -2.02898e-18)
(-0.182677 0.0676758 -1.89234e-18)
(-0.204991 0.0504021 -1.86189e-18)
(-0.195384 0.0208701 3.89421e-18)
(-0.1586 -0.00940387 8.09152e-21)
(-0.10407 -0.0316939 2.2488e-18)
(-0.0437099 -0.0431207 0)
(0.0133772 -0.0458669 2.57134e-18)
(0.0626937 -0.0438523 0)
(0.103735 -0.0403097 -2.73467e-18)
(0.138056 -0.0370362 -1.38768e-18)
(0.167911 -0.0346432 -1.40034e-18)
(0.195243 -0.0329805 -4.47775e-22)
(0.221196 -0.0315382 -1.41564e-18)
(0.245996 -0.0297618 1.42151e-18)
(0.269127 -0.0272756 0)
(0.289726 -0.0239967 -7.16163e-19)
(0.307074 -0.0201239 0)
(0.320956 -0.0160082 0)
(0.331731 -0.011976 -3.60851e-19)
(0.340115 -0.00820894 0)
(0.346872 -0.00473549 0)
(0.352613 -0.00149736 3.61848e-19)
(0.357752 0.00158098 0)
(0.362557 0.00455866 0)
(0.367218 0.00747592 7.25934e-19)
(0.371887 0.0103623 0)
(0.376692 0.0132432 -1.45747e-18)
(0.381742 0.0161418 0)
(0.387133 0.0190799 1.46414e-18)
(0.392952 0.0220781 0)
(0.399282 0.0251565 0)
(0.406208 0.0283356 0)
(0.413817 0.0316372 0)
(0.42221 0.0350855 2.96914e-18)
(0.431491 0.038707 0)
(0.441793 0.0425341 -5.95472e-18)
(0.453246 0.0466004 2.97761e-18)
(0.466054 0.0509542 -2.97078e-18)
(0.480347 0.0556339 2.95826e-18)
(0.496528 0.0607285 2.9387e-18)
(0.514557 0.0662524 0)
(0.535517 0.072426 2.85468e-18)
(0.558359 0.079089 8.33235e-18)
(0.58679 0.0869511 -5.35891e-18)
(0.615148 0.0950154 5.04792e-18)
(0.657399 0.105852 4.72724e-18)
(0.689184 0.115089 0)
(0.762814 0.13158 -3.63599e-18)
(0.786229 0.140326 -3.75703e-18)
(0.940963 0.161918 0)
(0.923715 0.103291 3.80946e-18)
(0.613135 0.0488759 0)
(0.348284 0.0184985 2.28641e-21)
(0.162013 0.0130051 -3.75827e-22)
(0.0716732 0.00764086 -4.65009e-18)
(0.0171181 0.00628551 -9.48583e-18)
(-0.00641039 0.00567983 9.47197e-18)
(-0.0313196 0.0197941 -2.31331e-18)
(-0.0707611 0.045562 2.18161e-18)
(-0.125082 0.0673916 0)
(-0.169371 0.0690717 4.28779e-21)
(-0.188648 0.0490332 0)
(-0.177974 0.016762 -3.8576e-18)
(-0.141275 -0.0156669 2.05312e-18)
(-0.0873201 -0.0390983 0)
(-0.0277252 -0.050604 0)
(0.0285043 -0.0527054 -2.55685e-18)
(0.0769533 -0.0497639 0)
(0.11714 -0.0453342 2.72021e-18)
(0.150704 -0.0413797 1.38085e-18)
(0.180012 -0.0385474 4.38867e-22)
(0.207118 -0.0366358 -1.40222e-18)
(0.233257 -0.0350391 -1.40825e-18)
(0.258677 -0.0330981 0)
(0.282778 -0.0303566 0)
(0.304507 -0.0267028 7.13128e-19)
(0.322912 -0.0223654 0)
(0.337599 -0.0177639 3.5876e-19)
(0.348858 -0.0132923 -3.59477e-19)
(0.357452 -0.00916894 8.99903e-20)
(0.36424 -0.00542331 -9.0077e-20)
(0.369927 -0.00197779 3.60612e-19)
(0.374982 0.00126458 -3.60944e-19)
(0.379702 0.00437762 7.22697e-19)
(0.384287 0.00740947 -7.23858e-19)
(0.388895 0.0103941 0)
(0.393659 0.0133601 0)
(0.398694 0.0163337 0)
(0.404101 0.0193394 -3.78561e-22)
(0.409968 0.0223996 1.4637e-18)
(0.41638 0.025536 0)
(0.423424 0.0287702 0)
(0.43119 0.0321248 0)
(0.439777 0.0356247 0)
(0.449294 0.0392971 0)
(0.459873 0.0431744 1.26489e-21)
(0.471648 0.0472906 0)
(0.484825 0.0516942 5.92449e-18)
(0.499541 0.0564241 -5.89959e-18)
(0.516197 0.0615681 -2.92746e-18)
(0.534774 0.0671435 0)
(0.556333 0.0733642 0)
(0.579901 0.0800837 -5.53579e-18)
(0.609066 0.0879816 6.70507e-21)
(0.638453 0.0961215 -5.02295e-18)
(0.681519 0.106941 4.69953e-18)
(0.714953 0.11632 4.00512e-18)
(0.789184 0.132557 -3.60171e-18)
(0.815368 0.141518 3.73043e-18)
(0.969826 0.162091 1.97915e-18)
(0.936525 0.112268 6.6503e-20)
(0.659569 0.0559681 -3.46914e-18)
(0.400411 0.0235151 -8.02623e-18)
(0.203793 0.0154301 -4.36949e-22)
(0.0988672 0.00880674 4.61633e-18)
(0.0350317 0.00667313 4.7207e-18)
(0.00438119 0.00619511 -2.36063e-18)
(-0.0234745 0.0213034 0)
(-0.0619747 0.0482116 0)
(-0.112718 0.0699067 2.00795e-18)
(-0.152878 0.0698169 1.86897e-18)
(-0.169752 0.0472653 0)
(-0.158478 0.0124569 1.91675e-18)
(-0.122177 -0.0220127 0)
(-0.0691143 -0.0465142 0)
(-0.010652 -0.0580411 0)
(0.0443067 -0.0594531 0)
(0.0914498 -0.0555468 2.63869e-18)
(0.13032 -0.0502035 1.35279e-18)
(0.162658 -0.0455582 -1.37382e-18)
(0.19095 -0.0422963 4.60639e-22)
(0.217384 -0.0401654 0)
(0.243307 -0.0384599 1.4022e-18)
(0.269023 -0.0364064 0)
(0.293874 -0.0334544 0)
(0.316624 -0.0294513 7.09911e-19)
(0.336069 -0.0246521 -7.12633e-19)
(0.351591 -0.0195515 -3.5748e-19)
(0.363376 -0.0146236 3.58282e-19)
(0.372203 -0.0101345 -1.79403e-19)
(0.379026 -0.00611832 1.79601e-19)
(0.384647 -0.00247655 -3.59578e-19)
(0.389603 0.000913077 3.59937e-19)
(0.394223 0.00414211 -1.56126e-22)
(0.398718 0.00726808 -7.21592e-19)
(0.403252 0.0103297 0)
(0.407962 0.0133589 0)
(0.412968 0.0163849 0)
(0.418374 0.0194347 -2.91137e-18)
(0.424271 0.0225331 -1.45984e-18)
(0.430748 0.0257031 0)
(0.437889 0.0289676 0)
(0.445787 0.0323499 -2.94306e-18)
(0.454543 0.0358755 0)
(0.464264 0.0395718 0)
(0.475087 0.0434716 5.91772e-18)
(0.487145 0.0476089 -2.95754e-18)
(0.500647 0.052032 -5.90542e-18)
(0.515735 0.0567802 1.72022e-21)
(0.532807 0.0619396 5.83747e-18)
(0.551863 0.0675301 2.88288e-18)
(0.573942 0.0737585 0)
(0.598138 0.080491 2.7597e-18)
(0.627934 0.0883767 5.32828e-18)
(0.658198 0.0965378 5.01188e-18)
(0.701954 0.10728 -4.68991e-18)
(0.736771 0.116726 -3.9977e-18)
(0.811488 0.132643 3.59561e-18)
(0.839943 0.141706 -1.85707e-18)
(0.993913 0.161279 -1.97621e-18)
(0.946784 0.120326 6.35766e-20)
(0.701016 0.0630443 3.42906e-18)
(0.451573 0.0289342 -2.04955e-21)
(0.248255 0.0183553 -5.04294e-22)
(0.12969 0.0103444 0)
(0.0560911 0.00728931 0)
(0.0177444 0.00678213 1.03435e-21)
(-0.0132152 0.0225896 0)
(-0.05035 0.0503203 0)
(-0.0973115 0.0717583 -2.80626e-22)
(-0.133675 0.070027 0)
(-0.148627 0.045192 0)
(-0.137022 0.00800823 1.89171e-18)
(-0.101323 -0.0284034 0)
(-0.0494186 -0.0539062 0)
(0.00757588 -0.0653949 0)
(0.0609127 -0.0660745 0)
(0.106375 -0.0611697 -8.04658e-22)
(0.143539 -0.0548893 -1.34675e-18)
(0.174244 -0.0495455 2.73594e-18)
(0.201103 -0.0458653 4.77617e-22)
(0.226444 -0.0435464 1.38921e-18)
(0.251756 -0.0417812 0)
(0.277425 -0.0396731 1.40156e-18)
(0.302767 -0.0365634 0)
(0.326386 -0.0322446 -7.07189e-19)
(0.346818 -0.0269921 1.49494e-22)
(0.363189 -0.0213805 0)
(0.375534 -0.0159775 0)
(0.384621 -0.0111088 1.67109e-23)
(0.39149 -0.00681949 -1.76289e-23)
(0.397043 -0.00298907 1.79244e-19)
(0.401894 0.00053389 0)
(0.406405 0.00386215 -7.18759e-19)
(0.410804 0.00706437 7.19806e-19)
(0.415257 0.0101845 0)
(0.419907 0.0132579 -1.44463e-18)
(0.424876 0.0163166 0)
(0.430272 0.0193906 3.97276e-22)
(0.436189 0.0225066 0)
(0.442715 0.0256895 1.4594e-18)
(0.449939 0.028963 1.46343e-18)
(0.457951 0.0323512 1.00877e-21)
(0.466853 0.0358802 -2.94121e-18)
(0.476755 0.0395775 0)
(0.487793 0.043476 -1.27853e-21)
(0.500102 0.04761 2.94953e-18)
(0.513892 0.0520269 1.54487e-21)
(0.529309 0.0567664 2.93123e-18)
(0.546749 0.0619128 -1.91948e-21)
(0.566226 0.0674878 -2.15443e-21)
(0.588764 0.073691 0)
(0.613506 0.0804006 0)
(0.643852 0.088235 0)
(0.674868 0.0963724 0)
(0.719221 0.10699 0)
(0.755203 0.116442 3.97025e-18)
(0.830324 0.131992 0)
(0.86064 0.141068 0)
(1.014 0.159671 -1.94786e-18)
(0.954978 0.127538 -2.03794e-18)
(0.737733 0.0699828 0)
(0.500991 0.0346578 -1.98513e-21)
(0.294614 0.0217659 -5.71312e-22)
(0.163931 0.0122853 0)
(0.0803561 0.00818305 2.33383e-18)
(0.0338391 0.00747381 -2.34515e-18)
(-0.000579331 0.0236668 0)
(-0.0361333 0.0519205 0)
(-0.0792416 0.0730211 -1.98791e-18)
(-0.112131 0.0697934 0)
(-0.125476 0.0428751 0)
(-0.113674 0.003451 -1.88772e-18)
(-0.0787186 -0.0348087 0)
(-0.0282081 -0.0612434 -2.18283e-18)
(0.0270081 -0.0726272 0)
(0.07842 -0.0725392 0)
(0.121888 -0.0666052 -7.85856e-22)
(0.157028 -0.0593672 0)
(0.185764 -0.0533189 -1.36272e-18)
(0.210828 -0.0492319 1.37598e-18)
(0.2347 -0.046757 -2.76819e-18)
(0.259022 -0.0449827 1.39005e-18)
(0.284295 -0.0428816 -1.39646e-18)
(0.309845 -0.0396736 0)
(0.334143 -0.0350808 -7.04291e-19)
(0.355469 -0.0293899 1.41488e-18)
(0.372672 -0.0232588 0)
(0.3856 -0.017361 -1.77983e-19)
(0.394976 -0.0120957 8.91831e-20)
(0.401906 -0.00752667 -8.93081e-20)
(0.407396 -0.00351172 -1.7882e-19)
(0.412138 0.000133445 0)
(0.416539 0.0035466 -7.16815e-19)
(0.42084 0.00680968 7.17866e-19)
(0.425212 0.0099726 0)
(0.429799 0.0130739 1.44143e-18)
(0.434727 0.0161487 0)
(0.440108 0.0192297 1.44825e-18)
(0.446037 0.0223459 0)
(0.452605 0.0255238 -1.45603e-18)
(0.459898 0.0287882 -1.45998e-18)
(0.46801 0.0321639 1.00934e-21)
(0.477041 0.0356773 2.93397e-18)
(0.487104 0.0393563 0)
(0.498332 0.0432335 -2.94142e-18)
(0.510866 0.0473433 0)
(0.524911 0.0517324 2.93437e-18)
(0.540621 0.0564404 0)
(0.558388 0.0615496 -2.89964e-18)
(0.578239 0.0670836 -5.72713e-18)
(0.601181 0.0732342 0)
(0.626403 0.079891 0)
(0.657233 0.0876419 0)
(0.6889 0.0957185 2.48194e-18)
(0.733773 0.106174 0)
(0.770742 0.115583 -9.19362e-21)
(0.846207 0.130728 0)
(0.878051 0.139749 1.82055e-18)
(1.03075 0.157419 1.94393e-18)
(0.961507 0.133983 0)
(0.770038 0.0766884 3.34232e-18)
(0.548058 0.0405826 3.86185e-18)
(0.342068 0.025626 -6.29896e-22)
(0.201255 0.0146479 0)
(0.107827 0.00939714 -2.31775e-18)
(0.0527909 0.00830845 0)
(0.0144206 0.0245634 2.29374e-18)
(-0.0195784 0.0530577 2.15841e-18)
(-0.0588436 0.0737638 1.97838e-18)
(-0.0885223 0.0691854 1.82693e-18)
(-0.100433 0.0403555 1.78655e-18)
(-0.0884815 -0.00118961 0)
(-0.0543791 -0.0412045 0)
(-0.00548314 -0.0684807 2.17383e-18)
(0.047665 -0.0797102 0)
(0.0968838 -0.0788179 0)
(0.138099 -0.0718285 -2.60055e-18)
(0.170965 -0.0636162 0)
(0.197467 -0.0568585 -1.35744e-18)
(0.22044 -0.052376 0)
(0.242515 -0.0497758 1.37956e-18)
(0.2655 -0.0480427 -1.38565e-18)
(0.290035 -0.0460127 0)
(0.315494 -0.0427707 0)
(0.340249 -0.0379529 2.04591e-22)
(0.362343 -0.0318459 -7.05163e-19)
(0.380333 -0.0251912 0)
(0.393848 -0.0187797 1.77525e-19)
(0.403534 -0.0130988 8.89383e-20)
(0.410542 -0.00824021 -8.90758e-20)
(0.415977 -0.0040417 0)
(0.420613 -0.000282805 0)
(0.424905 0.00320321 1.67225e-22)
(0.429109 0.00651398 -1.72732e-22)
(0.433401 0.00970616 0)
(0.437927 0.0128217 0)
(0.442816 0.0158986 1.44107e-18)
(0.448179 0.0189721 0)
(0.454117 0.0220738 0)
(0.460718 0.0252318 0)
(0.468072 0.0284718 0)
(0.476272 0.0318195 2.92001e-18)
(0.485418 0.0353014 2.92519e-18)
(0.495623 0.0389456 0)
(0.507022 0.0427847 0)
(0.519755 0.0468526 2.93022e-18)
(0.53403 0.0511956 0)
(0.55 0.055853 0)
(0.568058 0.0609049 -2.88782e-18)
(0.588241 0.0663762 2.85431e-18)
(0.611543 0.0724514 0)
(0.637187 0.0790302 0)
(0.668444 0.0866714 0)
(0.700679 0.0946563 -2.47445e-18)
(0.746008 0.104919 2.30811e-18)
(0.783822 0.114243 -7.87048e-18)
(0.859583 0.128959 0)
(0.892687 0.137873 -1.81573e-18)
(1.04469 0.154647 -1.91687e-18)
(0.966702 0.139736 0)
(0.798283 0.0830909 -3.31765e-18)
(0.592327 0.0466071 0)
(0.389834 0.0298819 -6.38816e-18)
(0.241212 0.0174359 0)
(0.138428 0.0109664 -2.30094e-18)
(0.0746937 0.009325 0)
(0.0318018 0.025333 -2.28275e-18)
(-0.000931536 0.0537763 -2.14926e-18)
(-0.0364083 0.074047 -1.97082e-18)
(-0.0630671 0.0682538 -1.82136e-18)