/*--------------------------------*- C++ -*----------------------------------*\
| =========                 |                                                 |
| \\      /  F ield         | OpenFOAM: The Open Source CFD Toolbox           |
|  \\    /   O peration     | Version:  2.4.0                                 |
|   \\  /    A nd           | Web:      www.OpenFOAM.org                      |
|    \\/     M anipulation  |                                                 |
\*---------------------------------------------------------------------------*/
FoamFile
{
    version     2.0;
    format      ascii;
    class       surfaceScalarField;
    location    "0.08";
    object      phi;
}
// * * * * * * * * * * * * * * * * * * * * * * * * * * * * * * * * * * * * * //

dimensions      [0 3 -1 0 0 0 0];

internalField   nonuniform List<scalar> 
11830
(
2.94856e-06
5.14413e-08
2.88506e-06
6.35008e-08
2.83309e-06
5.19721e-08
2.79442e-06
3.86658e-08
2.7702e-06
2.42183e-08
2.75794e-06
1.22601e-08
2.75308e-06
4.86169e-09
2.7518e-06
1.28367e-09
2.75162e-06
1.71206e-10
2.75147e-06
1.52415e-10
2.75123e-06
2.45316e-10
2.75104e-06
1.84658e-10
2.75094e-06
1.01765e-10
2.75089e-06
5.52908e-11
2.75086e-06
2.84748e-11
2.75084e-06
1.44065e-11
2.75083e-06
1.03586e-11
2.75082e-06
8.86479e-12
2.75082e-06
7.4974e-12
2.75081e-06
7.46305e-12
2.7508e-06
8.6625e-12
2.75079e-06
1.05379e-11
2.75078e-06
1.31827e-11
2.75076e-06
1.68634e-11
2.75074e-06
2.1766e-11
2.75071e-06
2.81706e-11
2.75067e-06
3.65091e-11
2.75063e-06
4.73416e-11
2.75056e-06
6.13886e-11
2.75048e-06
7.95914e-11
2.75038e-06
1.03175e-10
2.75025e-06
1.3373e-10
2.75007e-06
1.73316e-10
2.74985e-06
2.24604e-10
2.74956e-06
2.91054e-10
2.74918e-06
3.77151e-10
2.74869e-06
4.88699e-10
2.74806e-06
6.33221e-10
2.74724e-06
8.20462e-10
2.74618e-06
1.06305e-09
2.7448e-06
1.37733e-09
2.74301e-06
1.78452e-09
2.7407e-06
2.31208e-09
2.73771e-06
2.99567e-09
2.73382e-06
3.88153e-09
2.7288e-06
5.02981e-09
2.72228e-06
6.51892e-09
2.71382e-06
8.4515e-09
2.70286e-06
1.0963e-08
2.68863e-06
1.42343e-08
2.67012e-06
1.85114e-08
2.64598e-06
2.41401e-08
2.61435e-06
3.16279e-08
2.57257e-06
4.17801e-08
2.51661e-06
5.59594e-08
2.43962e-06
7.69912e-08
2.32912e-06
1.105e-07
2.16075e-06
1.68368e-07
1.85824e-06
3.02508e-07
3.35981e-07
1.52226e-06
3.02728e-06
2.41577e-08
3.04635e-06
4.44332e-08
3.05272e-06
4.56057e-08
3.04699e-06
4.43905e-08
3.03188e-06
3.93336e-08
3.01322e-06
3.0918e-08
2.99676e-06
2.13232e-08
2.98564e-06
1.24051e-08
2.97987e-06
5.9341e-09
2.97761e-06
2.42124e-09
2.97689e-06
9.59851e-10
2.97664e-06
4.30289e-10
2.9765e-06
2.4306e-10
2.97639e-06
1.66573e-10
2.97631e-06
1.13382e-10
2.97625e-06
6.96658e-11
2.97622e-06
4.20316e-11
2.9762e-06
2.76051e-11
2.97619e-06
2.01086e-11
2.97618e-06
1.67321e-11
2.97617e-06
1.62525e-11
2.97617e-06
1.77964e-11
2.97616e-06
2.10574e-11
2.97615e-06
2.61038e-11
2.97614e-06
3.31433e-11
2.97612e-06
4.25565e-11
2.9761e-06
5.49383e-11
2.97608e-06
7.11002e-11
2.97605e-06
9.21114e-11
2.97601e-06
1.19374e-10
2.97596e-06
1.54715e-10
2.97589e-06
2.00511e-10
2.9758e-06
2.59844e-10
2.97569e-06
3.36712e-10
2.97555e-06
4.36296e-10
2.97536e-06
5.65313e-10
2.97512e-06
7.32464e-10
2.9748e-06
9.49026e-10
2.97439e-06
1.22961e-09
2.97386e-06
1.59316e-09
2.97317e-06
2.06421e-09
2.97228e-06
2.67462e-09
2.97113e-06
3.46567e-09
2.96963e-06
4.491e-09
2.9677e-06
5.82031e-09
2.96518e-06
7.54435e-09
2.96192e-06
9.78161e-09
2.95768e-06
1.26875e-08
2.95218e-06
1.64672e-08
2.94502e-06
2.13945e-08
2.93569e-06
2.78414e-08
2.9235e-06
3.63259e-08
2.90753e-06
4.76011e-08
2.88649e-06
6.28202e-08
2.85851e-06
8.39393e-08
2.82108e-06
1.1442e-07
2.7685e-06
1.63077e-07
2.69703e-06
2.39842e-07
2.55685e-06
4.42686e-07
6.04874e-07
2.28796e-06
3.00534e-06
1.88159e-08
3.01252e-06
3.72524e-08
3.01789e-06
4.02341e-08
3.02164e-06
4.06455e-08
3.02233e-06
3.86381e-08
3.02026e-06
3.29894e-08
3.01682e-06
2.47698e-08
3.01338e-06
1.58381e-08
3.01083e-06
8.48402e-09
3.00934e-06
3.91857e-09
3.00859e-06
1.70544e-09
3.00824e-06
7.79693e-10
3.00807e-06
4.1188e-10
3.00798e-06
2.58531e-10
3.00792e-06
1.72348e-10
3.00788e-06
1.0948e-10
3.00786e-06
6.75639e-11
3.00784e-06
4.39434e-11
3.00783e-06
3.16205e-11
3.00782e-06
2.58908e-11
3.00781e-06
2.4553e-11
3.0078e-06
2.64257e-11
3.00779e-06
3.09898e-11
3.00778e-06
3.82107e-11
3.00777e-06
4.83595e-11
3.00775e-06
6.19866e-11
3.00772e-06
7.99399e-11
3.00769e-06
1.03386e-10
3.00765e-06
1.33876e-10
3.00759e-06
1.73444e-10
3.00752e-06
2.24743e-10
3.00743e-06
2.91221e-10
3.00731e-06
3.7735e-10
3.00716e-06
4.88932e-10
3.00697e-06
6.33483e-10
3.00671e-06
8.20747e-10
3.00638e-06
1.06334e-09
3.00595e-06
1.37761e-09
3.0054e-06
1.78474e-09
3.00468e-06
2.31216e-09
3.00374e-06
2.99541e-09
3.00254e-06
3.88052e-09
3.00098e-06
5.02719e-09
2.99896e-06
6.51276e-09
2.99634e-06
8.4376e-09
2.99295e-06
1.09321e-08
2.98857e-06
1.41658e-08
2.98289e-06
1.83603e-08
2.97555e-06
2.38063e-08
2.96606e-06
3.08889e-08
2.95378e-06
4.01261e-08
2.93787e-06
5.22283e-08
2.91726e-06
6.8213e-08
2.8905e-06
8.95851e-08
2.85556e-06
1.18872e-07
2.80989e-06
1.60097e-07
2.74926e-06
2.23706e-07
2.66973e-06
3.19365e-07
2.57169e-06
5.40728e-07
8.00083e-07
2.37648e-06
3.00345e-06
1.53671e-08
3.00777e-06
3.29327e-08
3.01083e-06
3.71728e-08
3.01357e-06
3.79062e-08
3.01543e-06
3.67766e-08
3.01609e-06
3.23264e-08
3.01578e-06
2.50806e-08
3.01486e-06
1.67631e-08
3.01378e-06
9.56211e-09
3.0129e-06
4.79437e-09
3.01233e-06
2.27789e-09
3.012e-06
1.11185e-09
3.01182e-06
5.92574e-10
3.01172e-06
3.55675e-10
3.01167e-06
2.28206e-10
3.01163e-06
1.4447e-10
3.01161e-06
9.01509e-11
3.01159e-06
5.89136e-11
3.01158e-06
4.23882e-11
3.01157e-06
3.46347e-11
3.01157e-06
3.27025e-11
3.01156e-06
3.50775e-11
3.01155e-06
4.10656e-11
3.01153e-06
5.05795e-11
3.01152e-06
6.39675e-11
3.0115e-06
8.19557e-11
3.01147e-06
1.05657e-10
3.01144e-06
1.36609e-10
3.0114e-06
1.76857e-10
3.01134e-06
2.29089e-10
3.01127e-06
2.96807e-10
3.01118e-06
3.84564e-10
3.01105e-06
4.98266e-10
3.0109e-06
6.45571e-10
3.0107e-06
8.36403e-10
3.01043e-06
1.08362e-09
3.01009e-06
1.40388e-09
3.00965e-06
1.81877e-09
3.00908e-06
2.35624e-09
3.00834e-06
3.05249e-09
3.00738e-06
3.95442e-09
3.00614e-06
5.12282e-09
3.00453e-06
6.6364e-09
3.00244e-06
8.59723e-09
2.99974e-06
1.11377e-08
2.99625e-06
1.44295e-08
2.99172e-06
1.86963e-08
2.98585e-06
2.42294e-08
2.97824e-06
3.1411e-08
2.96839e-06
4.07459e-08
2.9556e-06
5.29107e-08
2.939e-06
6.8828e-08
2.91741e-06
8.98088e-08
2.88923e-06
1.17764e-07
2.85226e-06
1.55835e-07
2.80344e-06
2.08917e-07
2.73853e-06
2.88617e-07
2.65016e-06
4.07736e-07
2.54456e-06
6.46325e-07
9.61877e-07
2.38277e-06
3.00259e-06
1.27755e-08
3.00625e-06
2.92721e-08
3.00902e-06
3.44097e-08
3.01143e-06
3.54879e-08
3.01336e-06
3.48548e-08
3.01446e-06
3.12199e-08
3.01477e-06
2.4772e-08
3.01444e-06
1.70919e-08
3.0138e-06
1.0208e-08
3.01316e-06
5.42829e-09
3.0127e-06
2.74021e-09
3.01241e-06
1.40056e-09
3.01225e-06
7.57959e-10
3.01215e-06
4.47001e-10
3.0121e-06
2.80488e-10
3.01207e-06
1.7676e-10
3.01205e-06
1.11004e-10
3.01203e-06
7.28678e-11
3.01202e-06
5.25232e-11
3.01202e-06
4.29711e-11
3.01201e-06
4.05868e-11
3.012e-06
4.35371e-11
3.01199e-06
5.09769e-11
3.01198e-06
6.27876e-11
3.01196e-06
7.94002e-11
3.01194e-06
1.01717e-10
3.01192e-06
1.31117e-10
3.01188e-06
1.69505e-10
3.01184e-06
2.19419e-10
3.01179e-06
2.84192e-10
3.01172e-06
3.6817e-10
3.01162e-06
4.77e-10
3.0115e-06
6.18007e-10
3.01135e-06
8.00687e-10
3.01115e-06
1.03735e-09
3.01089e-06
1.34394e-09
3.01055e-06
1.74112e-09
3.01011e-06
2.25565e-09
3.00955e-06
2.92218e-09
3.00881e-06
3.78563e-09
3.00786e-06
4.90416e-09
3.00663e-06
6.3531e-09
3.00504e-06
8.23008e-09
3.00298e-06
1.06616e-08
3.0003e-06
1.38118e-08
2.99684e-06
1.78934e-08
2.99235e-06
2.31833e-08
2.98654e-06
3.00422e-08
2.97901e-06
3.89427e-08
2.96924e-06
5.05077e-08
2.95658e-06
6.55701e-08
2.94015e-06
8.52613e-08
2.91878e-06
1.11177e-07
2.89092e-06
1.45622e-07
2.85445e-06
1.92308e-07
2.80641e-06
2.56962e-07
2.7429e-06
3.52119e-07
2.6576e-06
4.93037e-07
2.55293e-06
7.50996e-07
1.09934e-06
2.41547e-06
3.00198e-06
1.07932e-08
3.00524e-06
2.60125e-08
3.00792e-06
3.17323e-08
3.01022e-06
3.31874e-08
3.01214e-06
3.293e-08
3.0134e-06
2.99612e-08
3.01395e-06
2.42272e-08
3.0139e-06
1.7145e-08
3.0135e-06
1.06069e-08
3.01303e-06
5.89206e-09
3.01266e-06
3.10841e-09
3.01242e-06
1.64525e-09
3.01227e-06
9.05355e-10
3.01219e-06
5.30986e-10
3.01214e-06
3.28826e-10
3.01211e-06
2.06393e-10
3.01209e-06
1.30113e-10
3.01208e-06
8.57368e-11
3.01207e-06
6.19709e-11
3.01206e-06
5.08546e-11
3.01205e-06
4.81487e-11
3.01205e-06
5.1732e-11
3.01204e-06
6.06348e-11
3.01202e-06
7.47217e-11
3.01201e-06
9.4511e-11
3.01199e-06
1.21082e-10
3.01196e-06
1.56075e-10
3.01193e-06
2.01757e-10
3.01189e-06
2.61151e-10
3.01184e-06
3.38223e-10
3.01177e-06
4.38146e-10
3.01168e-06
5.67639e-10
3.01156e-06
7.35419e-10
3.01141e-06
9.52788e-10
3.01121e-06
1.23439e-09
3.01095e-06
1.5992e-09
3.01062e-06
2.0718e-09
3.01019e-06
2.68403e-09
3.00964e-06
3.47713e-09
3.00892e-06
4.50453e-09
3.00799e-06
5.83543e-09
3.00678e-06
7.55947e-09
3.00522e-06
9.79277e-09
3.0032e-06
1.26858e-08
3.00057e-06
1.64338e-08
2.99718e-06
2.12897e-08
2.99278e-06
2.75825e-08
2.98708e-06
3.57408e-08
2.9797e-06
4.63249e-08
2.97013e-06
6.00729e-08
2.95773e-06
7.79685e-08
2.94165e-06
1.01342e-07
2.92077e-06
1.32058e-07
2.89361e-06
1.72782e-07
2.8582e-06
2.2772e-07
2.81189e-06
3.03273e-07
2.7514e-06
4.12608e-07
2.67238e-06
5.72058e-07
2.57701e-06
8.46363e-07
1.21451e-06
2.46184e-06
3.00156e-06
9.23528e-09
3.00445e-06
2.31239e-08
3.007e-06
2.91739e-08
3.00921e-06
3.09788e-08
3.01113e-06
3.10095e-08
3.01251e-06
2.85817e-08
3.01325e-06
2.34916e-08
3.01341e-06
1.69829e-08
3.0132e-06
1.0815e-08
3.01287e-06
6.22176e-09
3.01258e-06
3.39795e-09
3.01238e-06
1.84866e-09
3.01225e-06
1.03258e-09
3.01218e-06
6.05165e-10
3.01214e-06
3.71846e-10
3.01211e-06
2.32794e-10
3.01209e-06
1.47233e-10
3.01208e-06
9.73838e-11
3.01207e-06
7.06394e-11
3.01206e-06
5.82158e-11
3.01206e-06
5.53309e-11
3.01205e-06
5.96102e-11
3.01204e-06
6.99858e-11
3.01203e-06
8.63207e-11
3.01201e-06
1.09226e-10
3.012e-06
1.39955e-10
3.01197e-06
1.8041e-10
3.01194e-06
2.33211e-10
3.0119e-06
3.01854e-10
3.01185e-06
3.90925e-10
3.01178e-06
5.06402e-10
3.01169e-06
6.56052e-10
3.01157e-06
8.49949e-10
3.01143e-06
1.10115e-09
3.01123e-06
1.42659e-09
3.01099e-06
1.84819e-09
3.01066e-06
2.39436e-09
3.01024e-06
3.1019e-09
3.0097e-06
4.01846e-09
3.009e-06
5.20579e-09
3.00809e-06
6.74385e-09
3.00692e-06
8.73623e-09
3.00539e-06
1.13171e-08
3.00342e-06
1.46604e-08
3.00086e-06
1.89913e-08
2.99755e-06
2.46024e-08
2.99326e-06
3.18733e-08
2.9877e-06
4.12981e-08
2.9805e-06
5.35229e-08
2.97118e-06
6.93965e-08
2.9591e-06
9.00472e-08
2.94345e-06
1.16995e-07
2.92315e-06
1.52351e-07
2.89683e-06
1.99107e-07
2.86266e-06
2.61888e-07
2.81833e-06
3.47605e-07
2.76121e-06
4.69725e-07
2.68848e-06
6.44789e-07
2.60395e-06
9.30891e-07
1.31041e-06
2.50805e-06
3.00125e-06
7.98192e-09
3.0038e-06
2.05773e-08
3.00623e-06
2.67457e-08
3.00837e-06
2.88414e-08
3.01027e-06
2.91001e-08
3.01174e-06
2.71152e-08
3.01263e-06
2.26072e-08
3.01296e-06
1.66474e-08
3.01291e-06
1.08616e-08
3.01271e-06
6.43015e-09
3.01249e-06
3.6112e-09
3.01233e-06
2.00933e-09
3.01223e-06
1.1377e-09
3.01216e-06
6.68242e-10
3.01213e-06
4.08861e-10
3.0121e-06
2.55591e-10
3.01209e-06
1.62128e-10
3.01208e-06
1.07656e-10
3.01207e-06
7.84297e-11
3.01206e-06
6.49858e-11
3.01206e-06
6.20803e-11
3.01205e-06
6.71255e-11
3.01204e-06
7.89836e-11
3.01203e-06
9.75328e-11
3.01202e-06
1.23481e-10
3.012e-06
1.5826e-10
3.01197e-06
2.04024e-10
3.01194e-06
2.63741e-10
3.0119e-06
3.41366e-10
3.01185e-06
4.42086e-10
3.01179e-06
5.72664e-10
3.0117e-06
7.41882e-10
3.01159e-06
9.61133e-10
3.01145e-06
1.24519e-09
3.01126e-06
1.61318e-09
3.01102e-06
2.08992e-09
3.0107e-06
2.70751e-09
3.0103e-06
3.50756e-09
3.00977e-06
4.54398e-09
3.00909e-06
5.88657e-09
3.00821e-06
7.62575e-09
3.00707e-06
9.87864e-09
3.00559e-06
1.27969e-08
3.00367e-06
1.65772e-08
3.00119e-06
2.14742e-08
2.99797e-06
2.78183e-08
2.99381e-06
3.60383e-08
2.98841e-06
4.66921e-08
2.98143e-06
6.05079e-08
2.97238e-06
7.84411e-08
2.96067e-06
1.01758e-07
2.94551e-06
1.32155e-07
2.92589e-06
1.71974e-07
2.9005e-06
2.24493e-07
2.86771e-06
2.94679e-07
2.82551e-06
3.89812e-07
2.77188e-06
5.23354e-07
2.70511e-06
7.11561e-07
2.63038e-06
1.00562e-06
1.39051e-06
2.55028e-06
3.00103e-06
6.95324e-09
3.00328e-06
1.83307e-08
3.00557e-06
2.44493e-08
3.00765e-06
2.67672e-08
3.00954e-06
2.7211e-08
3.01106e-06
2.559e-08
3.01206e-06
2.1604e-08
3.01255e-06
1.61655e-08
3.01264e-06
1.07666e-08
3.01254e-06
6.52862e-09
3.0124e-06
3.75288e-09
3.01228e-06
2.12824e-09
3.0122e-06
1.22005e-09
3.01215e-06
7.19255e-10
3.01212e-06
4.3918e-10
3.0121e-06
2.74385e-10
3.01209e-06
1.74571e-10
3.01208e-06
1.16419e-10
3.01207e-06
8.52572e-11
3.01206e-06
7.11047e-11
3.01206e-06
6.8349e-11
3.01205e-06
7.42352e-11
3.01204e-06
8.75849e-11
3.01203e-06
1.08309e-10
3.01202e-06
1.37219e-10
3.012e-06
1.75922e-10
3.01198e-06
2.26822e-10
3.01195e-06
2.93224e-10
3.01191e-06
3.79528e-10
3.01186e-06
4.91504e-10
3.0118e-06
6.36669e-10
3.01171e-06
8.2479e-10
3.01161e-06
1.06853e-09
3.01147e-06
1.38432e-09
3.01129e-06
1.79342e-09
3.01105e-06
2.32341e-09
3.01075e-06
3.01e-09
3.01036e-06
3.89943e-09
3.00985e-06
5.05163e-09
3.00919e-06
6.5442e-09
3.00834e-06
8.47765e-09
3.00724e-06
1.09822e-08
3.00581e-06
1.42265e-08
3.00396e-06
1.84289e-08
3.00156e-06
2.38726e-08
2.99845e-06
3.09246e-08
2.99443e-06
4.00612e-08
2.98922e-06
5.19014e-08
2.98248e-06
6.72524e-08
2.97375e-06
8.71713e-08
2.96245e-06
1.13054e-07
2.94784e-06
1.46765e-07
2.92896e-06
1.9085e-07
2.90461e-06
2.48843e-07
2.87332e-06
3.25977e-07
2.83335e-06
4.29773e-07
2.78326e-06
5.73448e-07
2.72217e-06
7.72647e-07
2.65598e-06
1.07182e-06
1.45784e-06
2.58864e-06
3.00086e-06
6.09294e-09
3.00285e-06
1.63409e-08
3.00502e-06
2.2284e-08
3.00703e-06
2.47531e-08
3.00889e-06
2.53462e-08
3.01046e-06
2.40253e-08
3.01156e-06
2.05057e-08
3.01216e-06
1.55603e-08
3.01238e-06
1.05489e-08
3.01238e-06
6.52838e-09
3.01231e-06
3.82764e-09
3.01223e-06
2.20636e-09
3.01217e-06
1.27914e-09
3.01213e-06
7.57483e-10
3.01211e-06
4.62308e-10
3.01209e-06
2.88892e-10
3.01208e-06
1.84393e-10
3.01208e-06
1.23564e-10
3.01207e-06
9.10504e-11
3.01206e-06
7.65207e-11
3.01206e-06
7.4095e-11
3.01205e-06
8.09007e-11
3.01204e-06
9.57496e-11
3.01203e-06
1.18603e-10
3.01202e-06
1.50383e-10
3.012e-06
1.92871e-10
3.01198e-06
2.48715e-10
3.01195e-06
3.21545e-10
3.01192e-06
4.16191e-10
3.01187e-06
5.38983e-10
3.01181e-06
6.98166e-10
3.01173e-06
9.04451e-10
3.01162e-06
1.17173e-09
3.01149e-06
1.518e-09
3.01132e-06
1.96661e-09
3.01109e-06
2.54777e-09
3.0108e-06
3.30064e-09
3.01043e-06
4.27595e-09
3.00994e-06
5.5394e-09
3.00931e-06
7.17608e-09
3.00849e-06
9.29622e-09
3.00743e-06
1.20426e-08
3.00605e-06
1.56e-08
3.00427e-06
2.02081e-08
3.00197e-06
2.61771e-08
2.99899e-06
3.39093e-08
2.99512e-06
4.39262e-08
2.99012e-06
5.69057e-08
2.98364e-06
7.37302e-08
2.97526e-06
9.55531e-08
2.96442e-06
1.23893e-07
2.95042e-06
1.60767e-07
2.93236e-06
2.0891e-07
2.90913e-06
2.7207e-07
2.87942e-06
3.55683e-07
2.8418e-06
4.674e-07
2.79523e-06
6.20013e-07
2.73955e-06
8.28324e-07
2.68085e-06
1.13052e-06
1.51478e-06
2.62391e-06
3.00073e-06
5.36057e-09
3.0025e-06
1.45686e-08
3.00454e-06
2.0246e-08
3.0065e-06
2.27974e-08
3.00834e-06
2.35072e-08
3.00993e-06
2.24351e-08
3.0111e-06
1.93317e-08
3.01181e-06
1.48514e-08
3.01214e-06
1.02244e-08
3.01222e-06
6.43944e-09
3.01221e-06
3.84016e-09
3.01217e-06
2.24521e-09
3.01214e-06
1.31505e-09
3.01211e-06
7.82561e-10
3.0121e-06
4.77915e-10
3.01209e-06
2.98903e-10
3.01208e-06
1.9146e-10
3.01207e-06
1.29006e-10
3.01207e-06
9.57526e-11
3.01206e-06
8.11919e-11
3.01206e-06
7.92824e-11
3.01205e-06
8.70876e-11
3.01205e-06
1.03441e-10
3.01204e-06
1.28371e-10
3.01202e-06
1.62919e-10
3.01201e-06
2.09039e-10
3.01199e-06
2.69614e-10
3.01196e-06
3.48591e-10
3.01192e-06
4.5121e-10
3.01188e-06
5.84337e-10
3.01182e-06
7.56912e-10
3.01174e-06
9.8055e-10
3.01164e-06
1.27031e-09
3.01152e-06
1.64571e-09
3.01135e-06
2.13205e-09
3.01114e-06
2.76209e-09
3.01086e-06
3.5783e-09
3.0105e-06
4.63565e-09
3.01003e-06
6.00537e-09
3.00943e-06
7.77973e-09
3.00865e-06
1.00782e-08
3.00764e-06
1.30556e-08
3.00632e-06
1.69122e-08
3.00462e-06
2.19078e-08
3.00242e-06
2.83787e-08
2.99957e-06
3.67605e-08
2.99588e-06
4.76183e-08
2.9911e-06
6.16855e-08
2.98491e-06
7.9916e-08
2.97691e-06
1.03554e-07
2.96657e-06
1.34233e-07
2.95323e-06
1.74111e-07
2.93605e-06
2.26088e-07
2.91402e-06
2.94097e-07
2.88599e-06
3.83716e-07
2.85076e-06
5.02632e-07
2.80768e-06
6.63089e-07
2.75711e-06
8.78896e-07
2.70505e-06
1.18258e-06
1.56317e-06
2.65666e-06
3.00063e-06
4.72675e-09
3.00222e-06
1.29791e-08
3.00414e-06
1.83283e-08
3.00604e-06
2.08983e-08
3.00785e-06
2.16943e-08
3.00946e-06
2.08295e-08
3.01069e-06
1.80978e-08
3.01149e-06
1.40552e-08
3.01191e-06
9.80712e-09
3.01207e-06
6.27109e-09
3.01212e-06
3.7952e-09
3.01212e-06
2.24668e-09
3.0121e-06
1.32818e-09
3.01209e-06
7.9437e-10
3.01208e-06
4.85816e-10
3.01208e-06
3.0429e-10
3.01208e-06
1.95689e-10
3.01207e-06
1.32687e-10
3.01207e-06
9.93232e-11
3.01206e-06
8.50864e-11
3.01206e-06
8.3882e-11
3.01205e-06
9.2766e-11
3.01205e-06
1.10624e-10
3.01204e-06
1.37574e-10
3.01203e-06
1.74777e-10
3.01201e-06
2.24361e-10
3.01199e-06
2.89439e-10
3.01196e-06
3.74257e-10
3.01193e-06
4.84447e-10
3.01189e-06
6.27387e-10
3.01183e-06
8.12677e-10
3.01176e-06
1.05279e-09
3.01167e-06
1.36389e-09
3.01155e-06
1.76694e-09
3.01139e-06
2.2891e-09
3.01119e-06
2.96555e-09
3.01092e-06
3.84187e-09
3.01058e-06
4.9771e-09
3.01014e-06
6.44772e-09
3.00956e-06
8.35278e-09
3.00882e-06
1.08206e-08
3.00786e-06
1.40172e-08
3.00661e-06
1.8158e-08
3.005e-06
2.35214e-08
3.00291e-06
3.04686e-08
3.0002e-06
3.94671e-08
2.9967e-06
5.1123e-08
2.99216e-06
6.62222e-08
2.98629e-06
8.5786e-08
2.9787e-06
1.11144e-07
2.9689e-06
1.44035e-07
2.95627e-06
1.86747e-07
2.94003e-06
2.42326e-07
2.91927e-06
3.14856e-07
2.89297e-06
4.10011e-07
2.86017e-06
5.35432e-07
2.82052e-06
7.02744e-07
2.77474e-06
9.24675e-07
2.72859e-06
1.22874e-06
1.60447e-06
2.68729e-06
3.00056e-06
4.16988e-09
3.00199e-06
1.15428e-08
3.0038e-06
1.65219e-08
3.00564e-06
1.90544e-08
3.00743e-06
1.99073e-08
3.00904e-06
1.92157e-08
3.01033e-06
1.68168e-08
3.01119e-06
1.31856e-08
3.01169e-06
9.30924e-09
3.01193e-06
6.03188e-09
3.01203e-06
3.69753e-09
3.01206e-06
2.21293e-09
3.01207e-06
1.3193e-09
3.01207e-06
7.93036e-10
3.01207e-06
4.85973e-10
3.01207e-06
3.05006e-10
3.01207e-06
1.97041e-10
3.01207e-06
1.34575e-10
3.01207e-06
1.01738e-10
3.01206e-06
8.81825e-11
3.01206e-06
8.78713e-11
3.01205e-06
9.79107e-11
3.01205e-06
1.17271e-10
3.01204e-06
1.46173e-10
3.01203e-06
1.8591e-10
3.01201e-06
2.38777e-10
3.012e-06
3.08109e-10
3.01197e-06
3.9844e-10
3.01194e-06
5.15772e-10
3.0119e-06
6.67963e-10
3.01185e-06
8.6524e-10
3.01178e-06
1.12088e-09
3.01169e-06
1.4521e-09
3.01158e-06
1.88121e-09
3.01143e-06
2.43714e-09
3.01124e-06
3.15733e-09
3.01099e-06
4.09032e-09
3.01067e-06
5.29897e-09
3.01025e-06
6.8647e-09
3.00971e-06
8.89297e-09
3.00901e-06
1.15204e-08
3.0081e-06
1.49238e-08
3.00693e-06
1.93323e-08
3.00541e-06
2.50426e-08
3.00344e-06
3.24388e-08
3.00089e-06
4.20186e-08
2.99758e-06
5.44266e-08
2.99331e-06
7.04982e-08
2.98777e-06
9.13177e-08
2.98062e-06
1.18294e-07
2.9714e-06
1.53263e-07
2.95951e-06
1.9863e-07
2.94427e-06
2.57571e-07
2.92483e-06
3.3429e-07
2.90033e-06
4.34515e-07
2.86998e-06
5.65785e-07
2.83366e-06
7.39061e-07
2.79237e-06
9.65968e-07
2.75149e-06
1.26961e-06
1.63985e-06
2.71611e-06
3.0005e-06
3.67376e-09
3.0018e-06
1.02346e-08
3.00351e-06
1.4817e-08
3.0053e-06
1.72635e-08
3.00706e-06
1.81456e-08
3.00868e-06
1.75986e-08
3.01e-06
1.54987e-08
3.01093e-06
1.22543e-08
3.0115e-06
8.74151e-09
3.0118e-06
5.72971e-09
3.01194e-06
3.55183e-09
3.01201e-06
2.14632e-09
3.01204e-06
1.28939e-09
3.01205e-06
7.78891e-10
3.01206e-06
4.78482e-10
3.01207e-06
3.01085e-10
3.01207e-06
1.95525e-10
3.01207e-06
1.34667e-10
3.01207e-06
1.02989e-10
3.01206e-06
9.04691e-11
3.01206e-06
9.12347e-11
3.01206e-06
1.02501e-10
3.01205e-06
1.23354e-10
3.01204e-06
1.54135e-10
3.01203e-06
1.96273e-10
3.01202e-06
2.5223e-10
3.012e-06
3.25553e-10
3.01198e-06
4.21045e-10
3.01195e-06
5.45061e-10
3.01191e-06
7.05907e-10
3.01186e-06
9.14395e-10
3.0118e-06
1.18456e-09
3.01172e-06
1.53459e-09
3.01161e-06
1.98808e-09
3.01147e-06
2.57558e-09
3.01129e-06
3.33669e-09
3.01106e-06
4.32268e-09
3.01076e-06
5.59999e-09
3.01037e-06
7.25467e-09
3.00986e-06
9.39817e-09
3.00921e-06
1.21748e-08
3.00836e-06
1.57716e-08
3.00726e-06
2.04306e-08
3.00584e-06
2.64652e-08
3.004e-06
3.42815e-08
3.00161e-06
4.4405e-08
2.99852e-06
5.75163e-08
2.99452e-06
7.4497e-08
2.98935e-06
9.64897e-08
2.98267e-06
1.24977e-07
2.97405e-06
1.61884e-07
2.96296e-06
2.0972e-07
2.94875e-06
2.71774e-07
2.93069e-06
3.52348e-07
2.90802e-06
4.57188e-07
2.88012e-06
5.93687e-07
2.84705e-06
7.72134e-07
2.80995e-06
1.00307e-06
2.77381e-06
1.30576e-06
1.67025e-06
2.74341e-06
3.00045e-06
3.22607e-09
3.00165e-06
9.03327e-09
3.00326e-06
1.32031e-08
3.005e-06
1.55229e-08
3.00674e-06
1.64083e-08
3.00836e-06
1.59816e-08
3.0097e-06
1.41515e-08
3.01069e-06
1.12714e-08
3.01132e-06
8.11342e-09
3.01167e-06
5.37182e-09
3.01186e-06
3.36268e-09
3.01196e-06
2.04937e-09
3.01201e-06
1.23968e-09
3.01204e-06
7.52453e-10
3.01205e-06
4.63558e-10
3.01206e-06
2.92632e-10
3.01206e-06
1.91194e-10
3.01207e-06
1.32987e-10
3.01207e-06
1.03086e-10
3.01206e-06
9.19455e-11
3.01206e-06
9.39636e-11
3.01206e-06
1.06522e-10
3.01205e-06
1.28851e-10
3.01204e-06
1.61429e-10
3.01203e-06
2.05826e-10
3.01202e-06
2.64667e-10
3.01201e-06
3.41701e-10
3.01199e-06
4.41985e-10
3.01196e-06
5.72198e-10
3.01192e-06
7.41069e-10
3.01188e-06
9.59948e-10
3.01182e-06
1.24357e-09
3.01174e-06
1.61104e-09
3.01164e-06
2.08712e-09
3.01151e-06
2.70389e-09
3.01135e-06
3.50292e-09
3.01113e-06
4.53803e-09
3.01085e-06
5.87898e-09
3.01049e-06
7.6161e-09
3.01002e-06
9.8664e-09
3.00942e-06
1.27814e-08
3.00863e-06
1.65574e-08
3.00761e-06
2.14486e-08
3.0063e-06
2.77839e-08
3.00459e-06
3.59895e-08
3.00238e-06
4.66168e-08
2.99951e-06
6.038e-08
2.99581e-06
7.82031e-08
2.99101e-06
1.01283e-07
2.98482e-06
1.31168e-07
2.97684e-06
1.69866e-07
2.96658e-06
2.1998e-07
2.95346e-06
2.84893e-07
2.93682e-06
3.68987e-07
2.91601e-06
4.77997e-07
2.89055e-06
6.19146e-07
2.86063e-06
8.02061e-07
2.82746e-06
1.03624e-06
2.79557e-06
1.33764e-06
1.69643e-06
2.76938e-06
3.00041e-06
2.81727e-09
3.00152e-06
7.92086e-09
3.00305e-06
1.16699e-08
3.00475e-06
1.38295e-08
3.00646e-06
1.46943e-08
3.00808e-06
1.43669e-08
3.00945e-06
1.27818e-08
3.01047e-06
1.02454e-08
3.01115e-06
7.43339e-09
3.01156e-06
4.96494e-09
3.01179e-06
3.13457e-09
3.01191e-06
1.92469e-09
3.01198e-06
1.17154e-09
3.01202e-06
7.14397e-10
3.01204e-06
4.41532e-10
3.01205e-06
2.79822e-10
3.01206e-06
1.84144e-10
3.01206e-06
1.29586e-10
3.01206e-06
1.02053e-10
3.01206e-06
9.26212e-11
3.01206e-06
9.60563e-11
3.01206e-06
1.09963e-10
3.01205e-06
1.33744e-10
3.01205e-06
1.68029e-10
3.01204e-06
2.14533e-10
3.01203e-06
2.76041e-10
3.01201e-06
3.5649e-10
3.01199e-06
4.61176e-10
3.01197e-06
5.97078e-10
3.01194e-06
7.7331e-10
3.01189e-06
1.00172e-09
3.01184e-06
1.29769e-09
3.01177e-06
1.68115e-09
3.01168e-06
2.17795e-09
3.01156e-06
2.82156e-09
3.01141e-06
3.65535e-09
3.01121e-06
4.73552e-09
3.01096e-06
6.13483e-09
3.01062e-06
7.94756e-09
3.01019e-06
1.02958e-08
3.00964e-06
1.33377e-08
3.00892e-06
1.72781e-08
3.00798e-06
2.23822e-08
3.00677e-06
2.89933e-08
3.00521e-06
3.7556e-08
3.00318e-06
4.86456e-08
3.00055e-06
6.30066e-08
2.99715e-06
8.16022e-08
2.99276e-06
1.05678e-07
2.98708e-06
1.36844e-07
2.97977e-06
1.77181e-07
2.97037e-06
2.29374e-07
2.95837e-06
2.9689e-07
2.94319e-06
3.84169e-07
2.92427e-06
4.96921e-07
2.90124e-06
6.42179e-07
2.87436e-06
8.2894e-07
2.84487e-06
1.06573e-06
2.81683e-06
1.36568e-06
1.71902e-06
2.79424e-06
3.00038e-06
2.43985e-09
3.00142e-06
6.88233e-09
3.00288e-06
1.02072e-08
3.00453e-06
1.21794e-08
3.00622e-06
1.3002e-08
3.00783e-06
1.27558e-08
3.00922e-06
1.13945e-08
3.01028e-06
9.18367e-09
3.01101e-06
6.70892e-09
3.01146e-06
4.51529e-09
3.01172e-06
2.87184e-09
3.01187e-06
1.77497e-09
3.01195e-06
1.08652e-09
3.012e-06
6.65538e-10
3.01203e-06
4.12832e-10
3.01205e-06
2.62895e-10
3.01206e-06
1.74512e-10
3.01206e-06
1.24539e-10
3.01206e-06
9.99319e-11
3.01206e-06
9.25157e-11
3.01206e-06
9.75176e-11
3.01206e-06
1.12817e-10
3.01206e-06
1.38018e-10
3.01205e-06
1.73912e-10
3.01204e-06
2.22362e-10
3.01203e-06
2.86307e-10
3.01202e-06
3.69864e-10
3.012e-06
4.78545e-10
3.01198e-06
6.19603e-10
3.01195e-06
8.02503e-10
3.01191e-06
1.03955e-09
3.01186e-06
1.3467e-09
3.0118e-06
1.74464e-09
3.01172e-06
2.2602e-09
3.01161e-06
2.92812e-09
3.01147e-06
3.79341e-09
3.01129e-06
4.91436e-09
3.01106e-06
6.36653e-09
3.01076e-06
8.24774e-09
3.01037e-06
1.06847e-08
3.00987e-06
1.38416e-08
3.00922e-06
1.79309e-08
3.00837e-06
2.32278e-08
3.00727e-06
3.00888e-08
3.00586e-06
3.8975e-08
3.00402e-06
5.04833e-08
3.00164e-06
6.5386e-08
2.99856e-06
8.46813e-08
2.99458e-06
1.09659e-07
2.98944e-06
1.41985e-07
2.98281e-06
1.83804e-07
2.97431e-06
2.37874e-07
2.96347e-06
3.07733e-07
2.94978e-06
3.97864e-07
2.93276e-06
5.13941e-07
2.91213e-06
6.62805e-07
2.88821e-06
8.52865e-07
2.86217e-06
1.09176e-06
2.83763e-06
1.39023e-06
1.73851e-06
2.81814e-06
3.00035e-06
2.08778e-09
3.00133e-06
5.90487e-09
3.00273e-06
8.80546e-09
3.00434e-06
1.05687e-08
3.00601e-06
1.13299e-08
3.00762e-06
1.11491e-08
3.00902e-06
9.99355e-09
3.01011e-06
8.09236e-09
3.01088e-06
5.94673e-09
3.01136e-06
4.02864e-09
3.01166e-06
2.5787e-09
3.01183e-06
1.60296e-09
3.01193e-06
9.86261e-10
3.01199e-06
6.06806e-10
3.01202e-06
3.77974e-10
3.01204e-06
2.42148e-10
3.01205e-06
1.62472e-10
3.01206e-06
1.17946e-10
3.01206e-06
9.67775e-11
3.01206e-06
9.16582e-11
3.01206e-06
9.83591e-11
3.01206e-06
1.15085e-10
3.01206e-06
1.41662e-10
3.01205e-06
1.79058e-10
3.01205e-06
2.29284e-10
3.01204e-06
2.95427e-10
3.01202e-06
3.81769e-10
3.01201e-06
4.94021e-10
3.01199e-06
6.39684e-10
3.01196e-06
8.28535e-10
3.01193e-06
1.07328e-09
3.01189e-06
1.3904e-09
3.01183e-06
1.80127e-09
3.01176e-06
2.33356e-09
3.01166e-06
3.02316e-09
3.01154e-06
3.91653e-09
3.01138e-06
5.07387e-09
3.01117e-06
6.57318e-09
3.0109e-06
8.51547e-09
3.01056e-06
1.10316e-08
3.01011e-06
1.4291e-08
3.00952e-06
1.85131e-08
3.00877e-06
2.39821e-08
3.00779e-06
3.1066e-08
3.00653e-06
4.02408e-08
3.00489e-06
5.21229e-08
3.00277e-06
6.75088e-08
3.00002e-06
8.74286e-08
2.99647e-06
1.13212e-07
2.99188e-06
1.46571e-07
2.98597e-06
1.89711e-07
2.97839e-06
2.45453e-07
2.96874e-06
3.17391e-07
2.95655e-06
4.10046e-07
2.94145e-06
5.29046e-07
2.92321e-06
6.81046e-07
2.90215e-06
8.73925e-07
2.87938e-06
1.11453e-06
2.85804e-06
1.41157e-06
1.75532e-06
2.84123e-06
3.00033e-06
1.75614e-09
3.00126e-06
4.9775e-09
3.00261e-06
7.45565e-09
3.00418e-06
8.99275e-09
3.00584e-06
9.67597e-09
3.00744e-06
9.54685e-09
3.00885e-06
8.58219e-09
3.00997e-06
6.97691e-09
3.01076e-06
5.15287e-09
3.01128e-06
3.51039e-09
3.0116e-06
2.25924e-09
3.01179e-06
1.41143e-09
3.0119e-06
8.72498e-10
3.01197e-06
5.3923e-10
3.01201e-06
3.37554e-10
3.01204e-06
2.17931e-10
3.01205e-06
1.48232e-10
3.01206e-06
1.09929e-10
3.01206e-06
9.26596e-11
3.01206e-06
9.00864e-11
3.01206e-06
9.85981e-11
3.01206e-06
1.16769e-10
3.01206e-06
1.4467e-10
3.01206e-06
1.83451e-10
3.01205e-06
2.35274e-10
3.01204e-06
3.03366e-10
3.01203e-06
3.92161e-10
3.01202e-06
5.07547e-10
3.012e-06
6.57242e-10
3.01198e-06
8.51303e-10
3.01195e-06
1.10279e-09
3.01191e-06
1.42863e-09
3.01186e-06
1.8508e-09
3.0118e-06
2.39773e-09
3.01171e-06
3.10629e-09
3.0116e-06
4.02423e-09
3.01147e-06
5.21341e-09
3.01128e-06
6.75397e-09
3.01105e-06
8.74969e-09
3.01075e-06
1.1335e-08
3.01035e-06
1.46841e-08
3.00984e-06
1.90225e-08
3.00918e-06
2.46421e-08
3.00833e-06
3.19211e-08
3.00722e-06
4.13486e-08
3.00579e-06
5.35578e-08
3.00393e-06
6.9367e-08
3.00152e-06
8.98335e-08
2.99841e-06
1.16321e-07
2.9944e-06
1.50587e-07
2.98923e-06
1.94883e-07
2.98259e-06
2.52086e-07
2.97414e-06
3.2584e-07
2.9635e-06
4.20693e-07
2.95032e-06
5.42226e-07
2.93444e-06
6.96925e-07
2.91616e-06
8.92199e-07
2.89649e-06
1.13421e-06
2.87809e-06
1.42997e-06
1.76978e-06
2.86363e-06
3.00032e-06
1.44082e-09
3.0012e-06
4.09071e-09
3.00251e-06
6.14919e-09
3.00405e-06
7.44701e-09
3.00569e-06
8.03812e-09
3.00729e-06
7.94903e-09
3.00871e-06
7.16287e-09
3.00984e-06
5.84199e-09
3.01066e-06
4.33285e-09
3.01121e-06
2.96563e-09
3.01155e-06
1.91745e-09
3.01176e-06
1.20316e-09
3.01188e-06
7.47043e-10
3.01196e-06
4.63923e-10
3.01201e-06
2.92235e-10
3.01203e-06
1.90641e-10
3.01205e-06
1.32031e-10
3.01206e-06
1.00628e-10
3.01206e-06
8.76604e-11
3.01207e-06
8.78465e-11
3.01207e-06
9.82581e-11
3.01206e-06
1.17878e-10
3.01206e-06
1.47038e-10
3.01206e-06
1.87079e-10
3.01205e-06
2.40312e-10
3.01205e-06
3.10096e-10
3.01204e-06
4.01e-10
3.01203e-06
5.19068e-10
3.01201e-06
6.7221e-10
3.01199e-06
8.70717e-10
3.01197e-06
1.12795e-09
3.01193e-06
1.46124e-09
3.01189e-06
1.89305e-09
3.01184e-06
2.45246e-09
3.01177e-06
3.1772e-09
3.01167e-06
4.1161e-09
3.01156e-06
5.33243e-09
3.0114e-06
6.90817e-09
3.0112e-06
8.94948e-09
3.01094e-06
1.15939e-08
3.01061e-06
1.50195e-08
3.01017e-06
1.94571e-08
3.00961e-06
2.52052e-08
3.00888e-06
3.26507e-08
3.00793e-06
4.22939e-08
3.00671e-06
5.47824e-08
3.00512e-06
7.09531e-08
3.00307e-06
9.18868e-08
3.00041e-06
1.18977e-07
2.99698e-06
1.54016e-07
2.99257e-06
1.99301e-07
2.9869e-06
2.57753e-07
2.97968e-06
3.33059e-07
2.97059e-06
4.29786e-07
2.95934e-06
5.53476e-07
2.9458e-06
7.10464e-07
2.93024e-06
9.07759e-07
2.91351e-06
1.15094e-06
2.89785e-06
1.44563e-06
1.78216e-06
2.88547e-06
3.0003e-06
1.13834e-09
3.00116e-06
3.23618e-09
3.00243e-06
4.87807e-09
3.00395e-06
5.92666e-09
3.00557e-06
6.41399e-09
3.00717e-06
6.35516e-09
3.00859e-06
5.73757e-09
3.00974e-06
4.69169e-09
3.01058e-06
3.49168e-09
3.01115e-06
2.39916e-09
3.01151e-06
1.5572e-09
3.01173e-06
9.80938e-10
3.01187e-06
6.11764e-10
3.01195e-06
3.82066e-10
3.012e-06
2.42735e-10
3.01203e-06
1.60711e-10
3.01205e-06
1.14133e-10
3.01206e-06
9.02045e-11
3.01206e-06
8.18734e-11
3.01207e-06
8.4992e-11
3.01207e-06
9.73674e-11
3.01207e-06
1.18423e-10
3.01206e-06
1.48768e-10
3.01206e-06
1.89935e-10
3.01206e-06
2.44382e-10