/*--------------------------------*- C++ -*----------------------------------*\
| =========                 |                                                 |
| \\      /  F ield         | OpenFOAM: The Open Source CFD Toolbox           |
|  \\    /   O peration     | Version:  2.4.0                                 |
|   \\  /    A nd           | Web:      www.OpenFOAM.org                      |
|    \\/     M anipulation  |                                                 |
\*---------------------------------------------------------------------------*/
FoamFile
{
    version     2.0;
    format      ascii;
    class       surfaceScalarField;
    location    "0.82";
    object      phi_0;
}
// * * * * * * * * * * * * * * * * * * * * * * * * * * * * * * * * * * * * * //

dimensions      [0 3 -1 0 0 0 0];

internalField   nonuniform List<scalar> 
4456
(
2.72612e-06
-2.26121e-07
2.70504e-06
2.10823e-08
1.89086e-06
8.14178e-07
2.51408e-06
-6.23222e-07
2.39028e-06
1.23807e-07
1.93774e-06
4.52537e-07
2.94686e-06
-1.00912e-06
2.59964e-06
3.47222e-07
2.32468e-06
2.74955e-07
2.95073e-06
-6.26047e-07
1.98193e-06
9.688e-07
2.51414e-06
-5.3221e-07
2.34111e-06
1.73023e-07
2.38837e-06
-4.72571e-08
2.73807e-06
-3.49701e-07
2.52414e-06
2.13935e-07
2.86877e-06
-3.4463e-07
2.25426e-06
6.14511e-07
3.11527e-06
-8.61012e-07
3.48642e-07
2.76663e-06
2.56406e-06
-2.90183e-07
2.84064e-06
-2.55495e-07
2.45544e-06
1.19938e-06
2.35396e-06
-5.21746e-07
2.49107e-06
-1.3302e-08
2.55503e-06
3.88572e-07
2.40588e-06
-8.59968e-07
2.57384e-06
1.79266e-07
2.73948e-06
1.09311e-07
2.38358e-06
-2.70147e-07
2.60016e-06
7.52226e-07
2.87079e-06
-8.02846e-07
2.41263e-06
6.31185e-07
2.37463e-06
-9.25536e-09
2.64506e-06
-6.20127e-07
2.63108e-06
2.27917e-07
2.32382e-06
-3.73697e-08
2.68556e-06
2.52765e-07
2.70387e-06
-8.79317e-07
4.3864e-07
2.61387e-06
2.36418e-06
-1.54366e-07
2.4011e-06
-2.92409e-07
2.89942e-06
7.01061e-07
2.57669e-06
-1.9902e-07
2.37632e-06
1.87067e-07
2.76201e-06
2.88402e-09
2.40293e-06
-5.00889e-07
2.41477e-06
1.67423e-07
2.65862e-06
-1.3454e-07
2.50653e-06
-1.18055e-07
2.65787e-06
6.00885e-07
2.56571e-06
-7.10683e-07
2.69445e-06
5.02449e-07
2.53387e-06
1.51322e-07
2.26207e-06
-3.48322e-07
2.50956e-06
-1.95742e-08
2.62152e-06
-1.49335e-07
2.53404e-06
3.40245e-07
2.21442e-06
-5.59699e-07
1.53773e-08
2.63769e-06
2.40002e-06
-5.43881e-08
2.24629e-06
-1.38672e-07
2.70303e-06
2.44312e-07
2.61954e-06
-1.15529e-07
2.56204e-06
2.44567e-07
2.64133e-06
-7.63981e-08
2.46056e-06
-3.20123e-07
2.55475e-06
7.32348e-08
2.40615e-06
1.40603e-08
2.34074e-06
-5.2644e-08
2.55197e-06
3.89656e-07
2.50473e-06
-6.63444e-07
2.65217e-06
3.55002e-07
2.50675e-06
2.9675e-07
2.44764e-06
-2.89212e-07
2.5729e-06
-1.44837e-07
2.56861e-06
-1.45045e-07
2.66152e-06
2.47332e-07
2.59302e-06
-4.91195e-07
-3.84129e-08
2.64681e-06
2.48262e-06
-3.70047e-08
2.36271e-06
-1.87661e-08
2.59637e-06
1.06563e-08
2.57241e-06
-9.15759e-08
2.52734e-06
2.89644e-07
2.49368e-06
-4.27391e-08
2.42448e-06
-2.50926e-07
2.49114e-06
6.5737e-09
2.39195e-06
1.13251e-07
2.41746e-06
-7.81526e-08
2.45196e-06
3.55152e-07
2.45572e-06
-6.67204e-07
2.62086e-06
1.89861e-07
2.57261e-06
3.45001e-07
2.36595e-06
-8.25468e-08
2.55521e-06
-3.34095e-07
2.6077e-06
-1.97537e-07
2.60114e-06
2.53891e-07
2.43396e-06
-3.24013e-07
-1.63968e-07
2.55951e-06
2.46172e-06
1.27712e-09
2.40795e-06
3.50034e-08
2.56218e-06
-1.43576e-07
2.52947e-06
-5.88689e-08
2.51024e-06
3.08881e-07
2.44964e-06
1.78604e-08
2.43905e-06
-2.40342e-07
2.54845e-06
-1.02819e-07
2.45963e-06
2.02072e-07
2.46493e-06
-8.34558e-08
2.5666e-06
2.53478e-07
2.4452e-06
-5.45798e-07
2.55967e-06
7.53869e-08
2.62426e-06
2.80409e-07
2.38613e-06
1.55584e-07
2.49298e-06
-4.40943e-07
2.60767e-06
-3.12222e-07
2.60134e-06
2.60215e-07
2.56765e-06
-2.90324e-07
-2.96092e-07
2.69978e-06
2.51031e-06
-9.02857e-09
2.36861e-06
1.767e-07
2.47453e-06
-2.49494e-07
2.59804e-06
-1.82383e-07
2.56002e-06
3.46902e-07
2.53478e-06
4.31003e-08
2.45682e-06
-1.62384e-07
2.50426e-06
-1.50254e-07
2.53801e-06
1.68325e-07
2.42006e-06
3.44934e-08
2.42541e-06
2.48119e-07
2.44077e-06
-5.61151e-07
2.53912e-06
-2.29701e-08
2.54457e-06
2.74964e-07
2.50993e-06
1.90221e-07
2.58091e-06
-5.11922e-07
2.5153e-06
-2.4661e-07
2.60419e-06
1.71327e-07
2.65507e-06
-3.41205e-07
-2.53313e-07
2.61229e-06
2.51415e-06
-2.31786e-08
2.54077e-06
1.50081e-07
2.4836e-06
-1.92328e-07
2.50744e-06
-2.06219e-07
2.53665e-06
3.17696e-07
2.44776e-06
1.31991e-07
2.44302e-06
-1.57652e-07
2.57521e-06
-2.82437e-07
2.5746e-06
1.68934e-07
2.46317e-06
1.45918e-07
2.45128e-06
2.60017e-07
2.47031e-06
-5.80185e-07
2.53412e-06
-8.6782e-08
2.55011e-06
2.58974e-07
2.58446e-06
1.55867e-07
2.5898e-06
-5.17256e-07
2.51529e-06
-1.72099e-07
2.59386e-06
9.27565e-08
2.541e-06
-2.88342e-07
-2.97635e-07
2.58532e-06
2.54565e-06
-6.88308e-08
2.55182e-06
1.43915e-07
2.3896e-06
-3.0109e-08
2.43364e-06
-2.50257e-07
2.55759e-06
1.93747e-07
2.48006e-06
2.09516e-07
2.52738e-06
-2.04971e-07
2.62798e-06
-3.83039e-07
2.54454e-06
2.52376e-07
2.44692e-06
2.43541e-07
2.51842e-06
1.88513e-07
2.51387e-06
-5.75638e-07
2.52423e-06
-9.71392e-08
2.53626e-06
2.4694e-07
2.6448e-06
4.7333e-08
2.54507e-06
-4.1753e-07
2.49823e-06
-1.25254e-07
2.62e-06
-2.90173e-08
2.52896e-06
-1.97305e-07
-3.5107e-07
2.5824e-06
2.51474e-06
-8.35702e-08
2.54192e-06
1.16733e-07
2.48475e-06
2.70651e-08
2.46232e-06
-2.27828e-07
2.51219e-06
1.43875e-07
2.49328e-06
2.28431e-07
2.58884e-06
-3.0053e-07
2.5784e-06
-3.72602e-07
2.51643e-06
3.14348e-07
2.4718e-06
2.88165e-07
2.54835e-06
1.11965e-07
2.58249e-06
-6.09777e-07
2.53504e-06
-4.96914e-08
2.56639e-06
2.15588e-07
2.58423e-06
2.94992e-08
2.54118e-06
-3.74485e-07
2.51585e-06
-9.99193e-08
2.60842e-06
-1.2159e-07
2.61173e-06
-2.00615e-07
-2.72294e-07
2.53295e-06
2.4891e-06
-7.26724e-08
2.52052e-06
8.5316e-08
2.58971e-06
-4.21268e-08
2.47036e-06
-1.08473e-07
2.39428e-06
2.1995e-07
2.49879e-06
1.2392e-07
2.58015e-06
-3.81884e-07
2.5358e-06
-3.28255e-07
2.47153e-06
3.78614e-07
2.46945e-06
2.90241e-07
2.64931e-06
-6.78903e-08
2.55326e-06
-5.13725e-07
2.52771e-06
-2.41455e-08
2.53713e-06
2.06167e-07
2.47673e-06
8.98975e-08
2.4664e-06
-3.64151e-07
2.51004e-06
-1.4356e-07
2.63126e-06
-2.42808e-07
2.57335e-06
-1.4271e-07
-1.7926e-07
2.48032e-06
2.4667e-06
-3.93676e-08
2.54168e-06
1.03288e-08
2.6245e-06
-1.24942e-07
2.3823e-06
1.33729e-07
2.40173e-06
2.00516e-07
2.59641e-06
-7.07629e-08
2.52325e-06
-3.08721e-07
2.47014e-06
-2.75146e-07
2.45722e-06
3.91535e-07
2.46325e-06
2.84215e-07
2.65231e-06
-2.56949e-07
2.48432e-06
-3.4574e-07
2.49821e-06
-3.8034e-08
2.51819e-06
1.86182e-07
2.46331e-06
1.44784e-07
2.5213e-06
-4.22146e-07
2.52521e-06
-1.4747e-07
2.59895e-06
-3.16542e-07
2.55058e-06
-9.43393e-08
-7.22994e-08
2.44362e-06
2.50624e-06
-4.56111e-08
2.58997e-06
-7.33997e-08
2.47248e-06
-7.45064e-09
2.37966e-06
2.2655e-07
2.54241e-06
3.77649e-08
2.60449e-06
-1.32844e-07
2.52956e-06
-2.33789e-07
2.42581e-06
-1.71391e-07
2.37817e-06
4.39167e-07
2.48888e-06
1.73509e-07
2.6386e-06
-4.06669e-07
2.48944e-06
-1.96577e-07
2.50552e-06
-5.41206e-08
2.49561e-06
1.96091e-07
2.48518e-06
1.55213e-07
2.53444e-06
-4.71407e-07
2.48525e-06
-9.8272e-08
2.49546e-06
-3.2676e-07
2.4858e-06
-8.46744e-08
-4.91641e-08
2.46266e-06
2.56121e-06
-1.06824e-07
2.54398e-06
-5.61634e-08
2.31868e-06
2.17846e-07
2.50103e-06
4.42004e-08
2.64153e-06
-1.02735e-07
2.51899e-06
-1.03062e-08
2.5055e-06
-2.203e-07
2.37664e-06
-4.25276e-08
2.3951e-06
4.20704e-07
2.54955e-06
1.90596e-08
2.60208e-06
-4.59202e-07
2.42242e-06
-1.69088e-08
2.47353e-06
-1.05236e-07
2.45108e-06
2.18546e-07
2.4879e-06
1.1839e-07
2.50087e-06
-4.84373e-07
2.42469e-06
-2.20911e-08
2.45471e-06
-3.56781e-07
2.40107e-06
-3.10398e-08
-3.2309e-08
2.38422e-06
2.56659e-06
-1.73411e-07
2.44364e-06
6.6783e-08
2.36559e-06
2.95898e-07
2.56671e-06
-1.56922e-07
2.58001e-06
-1.16035e-07
2.50119e-06
6.85162e-08
2.44174e-06
-1.60853e-07
2.3616e-06
3.76131e-08
2.48212e-06
3.00189e-07
2.58926e-06
-8.80846e-08
2.55638e-06
-4.26317e-07
2.40623e-06
1.33241e-07
2.42723e-06
-1.26235e-07
2.48176e-06
1.64015e-07
2.55062e-06
4.95271e-08
2.44887e-06
-3.82619e-07
2.36499e-06
6.17813e-08
2.44288e-06
-4.34665e-07
2.39102e-06
2.082e-08
9.35364e-09
2.34936e-06
2.52749e-06
-2.00898e-07
2.40128e-06
1.92994e-07
2.43451e-06
2.62662e-07
2.58675e-06
-3.09165e-07
2.53074e-06
-6.00231e-08
2.50553e-06
9.37238e-08
2.45243e-06
-1.07753e-07
2.37073e-06
1.19317e-07
2.51382e-06
1.57094e-07
2.59752e-06
-1.7178e-07
2.46418e-06
-2.92976e-07
2.3863e-06
2.11117e-07
2.47177e-06
-2.11697e-07
2.47499e-06
1.60794e-07
2.52143e-06
3.08333e-09
2.4075e-06
-2.6869e-07
2.35443e-06
1.14854e-07
2.39622e-06
-4.76458e-07
2.34826e-06
6.87827e-08
-7.842e-09
2.36545e-06
2.48813e-06
-1.89026e-07
2.40615e-06
2.7497e-07
2.49264e-06
1.7617e-07
2.55445e-06
-3.70973e-07
2.49745e-06
-3.02181e-09
2.52815e-06
6.30265e-08
2.48671e-06
-6.63192e-08
2.41853e-06
1.87498e-07
2.51176e-06
6.38675e-08
2.54058e-06
-2.00601e-07
2.42257e-06
-1.74964e-07
2.38787e-06
2.45813e-07
2.45515e-06
-2.78974e-07
2.50648e-06
1.09467e-07
2.48118e-06
2.83823e-08
2.40529e-06
-1.92798e-07
2.42712e-06
9.30207e-08
2.30956e-06
-3.58894e-07
2.33476e-06
4.35776e-08
-5.50103e-08
2.38193e-06
2.4313e-06
-1.20331e-07
2.42111e-06
2.85162e-07
2.57538e-06
2.19023e-08
2.48504e-06
-2.80634e-07
2.4847e-06
-2.67632e-09
2.54784e-06
-1.19243e-10
2.47601e-06
5.51093e-09
2.48881e-06
1.74699e-07
2.49759e-06
5.5087e-08
2.50822e-06
-2.11226e-07
2.40688e-06
-7.36276e-08
2.45419e-06
1.985e-07
2.4321e-06
-2.56884e-07
2.45182e-06
8.97515e-08
2.4435e-06
3.66992e-08
2.40302e-06
-1.52312e-07
2.47736e-06
1.86802e-08
2.27463e-06
-1.56165e-07
2.30018e-06
1.80227e-08
-1.36679e-07
2.38185e-06
2.41175e-06
-3.20838e-08
2.52828e-06
1.68636e-07
2.60591e-06
-5.57237e-08
2.45489e-06
-1.29619e-07
2.46382e-06
-1.16099e-08
2.48224e-06
-1.85322e-08
2.46627e-06
2.1479e-08
2.52448e-06
1.1649e-07
2.52618e-06
5.33855e-08
2.44317e-06
-1.28218e-07
2.41186e-06
-4.23191e-08
2.51441e-06
9.59487e-08
2.40465e-06
-1.47117e-07
2.42997e-06
6.44275e-08
2.4468e-06
1.98705e-08
2.38909e-06
-9.45995e-08
2.43995e-06
-3.21857e-08
2.28129e-06
2.50077e-09
2.30524e-06
-5.92764e-09
-1.02164e-07
2.27072e-06
2.46792e-06
2.63655e-06
2.58083e-06
2.45121e-06
2.4396e-06
2.42107e-06
2.44255e-06
2.55904e-06
2.61242e-06
2.4842e-06
2.44188e-06
2.53783e-06
2.39072e-06
2.45514e-06
2.47501e-06
2.38041e-06
2.34823e-06
2.35073e-06
2.3448e-06
2.24264e-06
2.34343e-06
4.23192e-07
3.32579e-06
-9.82351e-07
3.29881e-06
2.69724e-08
2.80203e-06
4.96784e-07
2.88351e-06
-8.1476e-08
3.88544e-06
-1.00194e-06
3.67759e-06
2.07847e-07
-1.12977e-07
3.79057e-06
2.84237e-06
1.94691e-07
2.44517e-06
-5.8515e-07
2.86995e-06
-3.97814e-07
2.93874e-06
4.27992e-07
2.93527e-06
-7.79978e-08
3.35175e-06
-1.41842e-06
3.51961e-06
3.99867e-08
-3.5622e-07
3.76286e-06
2.8549e-06
-2.25206e-08
2.69099e-06
-4.21237e-07
2.56786e-06
-2.74686e-07
2.77958e-06
2.16276e-07
2.96907e-06
-2.67494e-07
2.9951e-06
-1.44445e-06
3.69555e-06
-6.60464e-07
-4.93467e-07
3.8328e-06
2.76006e-06
-1.35774e-07
2.99358e-06
-6.5476e-07
2.88358e-06
-1.64687e-07
3.06173e-06
3.81297e-08
3.28683e-06
-4.9259e-07
3.2061e-06
-1.36372e-06
3.4149e-06
-8.69268e-07
-7.69372e-07
3.69081e-06
2.8045e-06
-3.80766e-07
2.62661e-06
-4.7687e-07
2.70878e-06
-2.4685e-07
3.01908e-06
-2.72173e-07
3.18816e-06
-6.61676e-07
3.07898e-06
-1.25454e-06
3.28674e-06
-1.07703e-06
-1.0948e-06
3.61217e-06
2.67853e-06
-3.59522e-07
2.67477e-06
-4.73108e-07
2.78074e-06
-3.52819e-07
2.91741e-06
-4.08841e-07
3.12171e-06
-8.65982e-07
3.06689e-06
-1.19972e-06
3.26165e-06
-1.27179e-06
-1.39707e-06
3.56392e-06
2.70476e-06
-4.51995e-07
2.64072e-06
-4.09065e-07
2.72042e-06
-4.32521e-07
3.00897e-06
-6.9739e-07
2.97629e-06
-8.33304e-07
3.02836e-06
-1.25178e-06
3.24255e-06
-1.48598e-06
-1.59255e-06
3.43803e-06
2.75151e-06
-6.18193e-07
2.67127e-06
-3.28824e-07
2.73567e-06
-4.96916e-07
2.82092e-06
-7.82643e-07
2.90588e-06
-9.18259e-07
3.04555e-06
-1.39145e-06
3.12075e-06
-1.56118e-06
-1.79715e-06
3.32535e-06
2.64453e-06
-6.80322e-07
2.67023e-06
-3.54524e-07
2.80616e-06
-6.32848e-07
2.80043e-06
-7.76909e-07
2.90209e-06
-1.01992e-06
2.94719e-06
-1.43656e-06
3.02742e-06
-1.6414e-06
-2.08855e-06
3.31882e-06
2.54794e-06
-6.95303e-07
2.64327e-06
-4.49857e-07
2.73255e-06
-7.22128e-07
2.74881e-06
-7.9317e-07
2.82883e-06
-1.09994e-06
2.82761e-06
-1.43533e-06
2.9833e-06
-1.79709e-06
-2.23651e-06
3.13125e-06
2.44543e-06
-6.60413e-07
2.58548e-06
-5.89902e-07
2.63e-06
-7.66654e-07
2.67481e-06
-8.3798e-07
2.73185e-06
-1.15698e-06
2.79392e-06
-1.4974e-06
2.97722e-06
-1.9804e-06
-2.22691e-06
2.96762e-06
2.47568e-06
-6.9247e-07
2.55365e-06
-6.67878e-07
2.5652e-06
-7.78206e-07
2.59544e-06
-8.68221e-07
2.62749e-06
-1.18902e-06
2.74871e-06
-1.61862e-06
2.76122e-06
-1.99291e-06
-2.29475e-06
2.82906e-06
2.51598e-06
-7.45784e-07
2.48579e-06
-6.37691e-07
2.49468e-06
-7.87092e-07
2.50942e-06
-8.82965e-07
2.49283e-06
-1.17243e-06
2.5322e-06
-1.658e-06
2.56931e-06
-2.03001e-06
-2.38884e-06
2.66339e-06
2.47273e-06
-8.34298e-07
2.40112e-06
-5.66077e-07
2.38852e-06
-7.74495e-07
2.41444e-06
-9.08891e-07
2.38363e-06
-1.14162e-06
2.42899e-06
-1.70335e-06
2.47753e-06
-2.07856e-06
-2.39696e-06
2.48566e-06
2.42303e-06
-9.0797e-07
2.31749e-06
-4.60543e-07
2.36964e-06
-8.26646e-07
2.34992e-06
-8.89168e-07
2.31032e-06
-1.10201e-06
2.3122e-06
-1.70523e-06
2.3138e-06
-2.08016e-06
-2.26504e-06
2.18188e-06
2.35399e-06
-8.9651e-07
2.23106e-06
-3.37608e-07
2.28562e-06
-8.81212e-07
2.31788e-06
-9.21426e-07
2.30304e-06
-1.08717e-06
2.23692e-06
-1.63911e-06
2.06191e-06
-1.90515e-06
-1.84788e-06
1.64475e-06
2.28109e-06
-7.95668e-07
2.19133e-06
-2.47855e-07
2.23504e-06
-9.24921e-07
2.18399e-06
-8.70375e-07
2.21042e-06
-1.11359e-06
2.16549e-06
-1.59417e-06
1.7576e-06
-1.49726e-06
-1.08748e-06
9.97196e-07
2.21731e-06
-6.31123e-07
2.17129e-06
-2.01835e-07
2.14922e-06
-9.02856e-07
2.06587e-06
-7.87023e-07
1.93798e-06
-9.85707e-07
1.75966e-06
-1.41585e-06
1.18529e-06
-9.22892e-07
-1.50551e-07
2.48359e-07
2.20133e-06
-5.61727e-07
2.15518e-06
-1.55683e-07
2.01088e-06
-7.58555e-07
1.84941e-06
-6.25561e-07
1.44551e-06
-5.81799e-07
1.07646e-06
-1.04681e-06
4.6806e-07
-3.14491e-07
7.82309e-07
-4.648e-07
2.07457e-06
-3.93658e-07
1.95345e-06
-3.45684e-08
1.5493e-06
-3.54397e-07
1.16829e-06
-2.44559e-07
6.07367e-07
-2.08722e-08
2.8857e-07
-7.28011e-07
-1.96745e-07
1.70824e-07
-1.01968e-06
1.60524e-06
3.73814e-06
5.24305e-08
4.64589e-06
-9.07753e-07
5.09198e-06
-4.46082e-07
5.7486e-06
-6.56627e-07
6.09777e-06
-3.49166e-07
6.42496e-06
-3.27188e-07
7.36988e-06
-9.44929e-07
7.90966e-06
-5.39779e-07
8.86424e-06
-9.54579e-07
9.54577e-06
-6.81528e-07
1.02103e-05
-6.64559e-07
1.07078e-05
-4.97513e-07
1.12173e-05
-5.09485e-07
1.13955e-05
-1.78159e-07
1.15352e-05
-1.3973e-07
1.15077e-05
2.75577e-08
1.13018e-05
2.05817e-07
1.09823e-05
3.19574e-07
1.05143e-05
4.6796e-07
1.00217e-05
4.92622e-07
9.3324e-06
6.8929e-07
8.83188e-06
5.00518e-07
8.10206e-06
7.29815e-07
7.70595e-06
3.96118e-07
7.01721e-06
6.88738e-07
6.5107e-06
5.06511e-07
5.76339e-06
7.47302e-07
5.48506e-07
5.21489e-06
3.8847e-06
-6.94081e-08
4.37144e-06
-1.39449e-06
4.71513e-06
-7.89771e-07
5.38349e-06
-1.32499e-06
5.84031e-06
-8.05981e-07
6.47782e-06
-9.64704e-07
7.33844e-06
-1.80555e-06
8.00375e-06
-1.20509e-06
8.9525e-06
-1.90333e-06
9.57355e-06
-1.30258e-06
1.022e-05
-1.31104e-06
1.07112e-05
-9.88648e-07
1.10967e-05
-8.9505e-07
1.12662e-05
-3.47655e-07
1.13904e-05
-2.63938e-07
1.13863e-05
3.16689e-08
1.12077e-05
3.8439e-07
1.09734e-05
5.53888e-07
1.05166e-05
9.248e-07
1.00626e-05
9.46657e-07
9.44723e-06
1.30461e-06
8.83236e-06
1.11539e-06
8.06753e-06
1.49465e-06
7.38164e-06
1.08201e-06
6.70362e-06
1.36677e-06
5.94097e-06
1.26916e-06
5.47407e-06
1.2142e-06
8.92358e-07
5.13022e-06
4.38394e-06
-6.20552e-07
4.33919e-06
-1.34974e-06
4.74927e-06
-1.19986e-06
5.41558e-06
-1.9913e-06
5.85707e-06
-1.24748e-06
6.78501e-06
-1.89264e-06
7.47902e-06
-2.49955e-06
8.25531e-06
-1.98138e-06
9.02875e-06
-2.67677e-06
9.62185e-06
-1.89568e-06
1.02408e-05
-1.92998e-06
1.07466e-05
-1.49443e-06
1.09994e-05
-1.14785e-06
1.13123e-05
-6.60617e-07
1.13476e-05
-2.99149e-07
1.14441e-05
-6.49004e-08
1.12504e-05
5.78094e-07
1.10594e-05
7.44857e-07
1.06627e-05
1.32159e-06
1.01738e-05
1.43551e-06
9.65886e-06
1.81956e-06
8.99349e-06
1.78076e-06
8.31302e-06
2.17512e-06
7.48841e-06
1.90661e-06
6.73109e-06
2.12409e-06
5.9006e-06
2.09965e-06
5.52608e-06
1.58872e-06
1.45007e-06
4.96837e-06
4.34331e-06
-1.27306e-06
4.42374e-06
-1.43016e-06
5.08227e-06
-1.85838e-06
5.26715e-06
-2.17618e-06
5.83592e-06
-1.81625e-06
6.79939e-06
-2.85611e-06
7.30274e-06
-3.0029e-06
8.27841e-06
-2.95705e-06
8.97592e-06
-3.37428e-06
9.56404e-06
-2.48381e-06
1.0231e-05
-2.59696e-06
1.06926e-05
-1.95605e-06
1.0996e-05
-1.45117e-06
1.12853e-05
-9.49904e-07
1.1389e-05
-4.02929e-07
1.13904e-05
-6.62344e-08
1.12449e-05
7.23561e-07
1.09941e-05
9.95672e-07
1.05908e-05
1.7249e-06
1.0124e-05
1.90229e-06
9.57549e-06
2.36807e-06
8.92942e-06
2.42683e-06
8.25972e-06
2.84481e-06
7.55246e-06
2.61387e-06
6.85849e-06
2.81805e-06
6.17602e-06
2.78213e-06
5.51027e-06
2.25447e-06
1.96513e-06
4.99521e-06
3.92522e-06
-1.58611e-06
4.23304e-06
-1.73798e-06
4.79941e-06
-2.42475e-06
5.0288e-06
-2.40557e-06
5.99697e-06
-2.78442e-06
6.6622e-06
-3.52134e-06
7.34504e-06
-3.68574e-06
8.43546e-06
-4.04747e-06
8.96497e-06
-3.90379e-06
9.65911e-06
-3.17795e-06
1.01673e-05
-3.10515e-06
1.05763e-05
-2.36509e-06
1.08759e-05
-1.75076e-06
1.11324e-05
-1.20643e-06
1.12539e-05
-5.24425e-07
1.12641e-05
-7.63943e-08
1.11371e-05
8.50575e-07
1.08744e-05
1.25836e-06
1.06269e-05
1.97242e-06
1.01783e-05
2.35091e-06
9.69216e-06
2.85417e-06
9.04311e-06
3.07589e-06
8.38058e-06
3.50735e-06
7.53234e-06
3.46211e-06
6.79708e-06
3.55331e-06
6.16743e-06
3.41178e-06
5.32411e-06
3.09778e-06
2.29961e-06
4.98964e-06
3.91059e-06
-1.93278e-06
4.35444e-06
-2.18183e-06
4.68604e-06
-2.75634e-06
5.21436e-06
-2.9339e-06
6.02025e-06
-3.59031e-06
6.54456e-06
-4.04565e-06
7.49335e-06
-4.63453e-06
8.26898e-06
-4.82311e-06
8.69691e-06
-4.33171e-06
9.41635e-06
-3.8974e-06
9.80514e-06
-3.49393e-06
1.01582e-05
-2.7181e-06
1.04676e-05
-2.06026e-06
1.06711e-05
-1.40985e-06
1.07861e-05
-6.39498e-07
1.07726e-05
-6.28639e-08
1.06951e-05
9.28128e-07
1.05037e-05
1.44968e-06
1.02528e-05
2.22338e-06
9.85615e-06
2.74754e-06
9.39755e-06
3.31277e-06
8.8774e-06
3.59604e-06
8.33879e-06
4.04596e-06
7.68159e-06
4.11931e-06
6.84214e-06
4.39276e-06
6.22746e-06
4.02646e-06
5.35336e-06
3.97189e-06
2.8816e-06
4.77137e-06
3.72397e-06
-2.21872e-06
4.0922e-06
-2.55007e-06
4.42098e-06
-3.08512e-06
5.09884e-06
-3.61176e-06
5.7525e-06
-4.24397e-06
6.56475e-06
-4.85791e-06
7.36122e-06
-5.431e-06
7.74892e-06
-5.21081e-06
8.1987e-06
-4.78149e-06
8.72359e-06
-4.4223e-06
8.92723e-06
-3.69757e-06
9.27145e-06
-3.06233e-06
9.50426e-06
-2.29306e-06
9.58582e-06
-1.49142e-06
9.71126e-06
-7.64938e-07
9.66912e-06
-2.07198e-08
9.65519e-06
9.42059e-07
9.50709e-06
1.59778e-06
9.33464e-06
2.39583e-06
9.01806e-06
3.06411e-06
8.64718e-06
3.68366e-06
8.23294e-06
4.01028e-06
7.85534e-06
4.42356e-06
7.40181e-06
4.57283e-06
6.71553e-06
5.07904e-06
6.10223e-06
4.63976e-06
5.36114e-06
4.71298e-06
3.60266e-06
4.64008e-06
3.65271e-06
-2.54608e-06
3.9649e-06
-2.86226e-06
4.3389e-06
-3.45911e-06
4.98508e-06
-4.25793e-06
5.6764e-06
-4.93529e-06
6.35823e-06
-5.53975e-06
6.68657e-06
-5.75933e-06
6.95527e-06
-5.47951e-06
7.37203e-06
-5.19825e-06
7.57172e-06
-4.62198e-06
7.78111e-06
-3.90696e-06
8.09241e-06
-3.37363e-06
8.20106e-06
-2.40171e-06
8.34167e-06
-1.63202e-06
8.4034e-06
-8.26672e-07
8.3612e-06
2.14837e-08
8.33664e-06
9.66618e-07
8.20241e-06
1.732e-06
8.11709e-06
2.48115e-06
7.87717e-06
3.30404e-06
7.63776e-06
3.92307e-06
7.25359e-06
4.39444e-06
7.01003e-06
4.66711e-06
6.7347e-06
4.84817e-06
6.28178e-06
5.53196e-06
5.80122e-06
5.12032e-06
5.23032e-06
5.28388e-06
4.24922e-06
4.58376e-06
3.4638e-06
-2.69106e-06
3.74524e-06
-3.14371e-06
4.25192e-06
-3.96579e-06
4.81742e-06
-4.82344e-06
5.29028e-06
-5.40814e-06
5.59929e-06
-5.84876e-06
5.79387e-06
-5.95391e-06
6.10033e-06
-5.78597e-06
6.2676e-06
-5.36552e-06
6.31868e-06
-4.67306e-06
6.60474e-06
-4.19303e-06
6.735e-06
-3.50388e-06
6.78348e-06
-2.4502e-06
6.90785e-06
-1.75638e-06
6.91342e-06
-8.32244e-07
6.89094e-06
4.39663e-08
6.88875e-06
9.68806e-07
6.82282e-06
1.79792e-06
6.73179e-06
2.57218e-06
6.52883e-06
3.507e-06
6.45005e-06
4.00184e-06
6.16409e-06
4.68041e-06
5.99325e-06
4.83795e-06
5.8019e-06
5.03952e-06
5.53242e-06
5.80144e-06
5.18409e-06
5.46865e-06
4.74278e-06
5.7252e-06
4.65197e-06
4.34002e-06
3.24063e-06
-2.80044e-06
3.67877e-06
-3.58184e-06
4.08938e-06
-4.3764e-06
4.34241e-06
-5.07647e-06
4.53979e-06
-5.60552e-06
4.72617e-06
-6.03514e-06
4.88361e-06
-6.11135e-06
4.93755e-06
-5.83991e-06
4.9104e-06
-5.33837e-06
5.0203e-06
-4.78295e-06
5.12242e-06
-4.29515e-06
5.0374e-06
-3.41887e-06
5.10911e-06
-2.5219e-06
5.14036e-06
-1.78764e-06
5.14359e-06
-8.35469e-07
5.19755e-06
-9.99338e-09
5.16707e-06
9.99283e-07
5.1863e-06
1.7787e-06
5.08029e-06
2.67818e-06
5.02363e-06
3.56367e-06
5.02526e-06
4.00021e-06
4.86764e-06
4.83803e-06
4.76179e-06
4.94381e-06
4.67233e-06
5.12898e-06
4.69406e-06
5.7797e-06
4.50376e-06
5.65895e-06
4.14541e-06
6.08355e-06
4.89042e-06
3.90696e-06
3.1649e-06
-2.99771e-06
3.48555e-06
-3.9025e-06
3.59957e-06
-4.49042e-06
3.66971e-06
-5.14661e-06
3.7929e-06
-5.72872e-06
3.82695e-06
-6.06919e-06
3.65183e-06
-5.93623e-06
3.51354e-06
-5.70162e-06
3.47525e-06
-5.30008e-06
3.40283e-06
-4.71053e-06
3.2876e-06
-4.17991e-06
3.31224e-06
-3.44351e-06
3.40547e-06
-2.61513e-06
3.26651e-06
-1.64868e-06
3.27444e-06
-8.43399e-07
3.32276e-06
-5.83159e-08
3.3266e-06
9.9544e-07
3.42218e-06
1.68312e-06
3.34361e-06
2.75676e-06
3.36424e-06
3.54304e-06
3.44592e-06
3.91853e-06
3.5339e-06
4.75004e-06
3.57222e-06
4.90549e-06
3.40867e-06
5.29253e-06
3.62081e-06
5.56757e-06
3.6443e-06
5.63546e-06
3.51065e-06
6.2172e-06
4.97079e-06
3.43028e-06
3.00801e-06
-3.17666e-06
3.03451e-06
-3.929e-06
2.99785e-06
-4.45376e-06
2.96331e-06
-5.11207e-06
2.85355e-06
-5.61896e-06
2.57794e-06
-5.79359e-06
2.39041e-06
-5.74869e-06
2.23236e-06
-5.54358e-06
2.0201e-06
-5.08782e-06
1.84422e-06
-4.53466e-06
1.65165e-06
-3.98734e-06
1.50804e-06
-3.2999e-06
1.34742e-06
-2.45451e-06
1.29585e-06
-1.5971e-06
1.40731e-06
-9.54866e-07
1.31829e-06
3.07093e-08
1.3537e-06
9.60032e-07
1.44602e-06
1.5908e-06
1.62181e-06
2.58097e-06
1.72766e-06
3.4372e-06
1.74103e-06
3.90516e-06
1.92073e-06
4.57034e-06
2.17771e-06
4.64851e-06
2.23818e-06
5.23206e-06
2.50696e-06
5.29879e-06
2.65388e-06
5.48854e-06
2.6902e-06
6.18088e-06
4.9023e-06
2.75869e-06
2.69711e-06
-3.21038e-06
2.52543e-06
-3.75732e-06
2.3841e-06
-4.31242e-06
2.17314e-06
-4.90112e-06
1.87304e-06
-5.31885e-06
1.52191e-06
-5.44246e-06
1.05371e-06
-5.2805e-06
6.58144e-07
-5.148e-06
3.9296e-07
-4.82263e-06
1.2227e-07
-4.26397e-06
-2.02978e-07
-3.66209e-06
-4.37654e-07
-3.06522e-06
-5.63861e-07
-2.3283e-06
-6.36368e-07
-1.5246e-06
-7.24373e-07
-8.66861e-07
-7.20616e-07
2.69519e-08
-4.73343e-07
7.12759e-07
-5.45773e-07
1.66323e-06
-3.90678e-07
2.42587e-06
-1.8219e-07
3.22871e-06
1.30397e-07
3.59257e-06
4.19535e-07
4.2812e-06
5.62198e-07
4.50585e-06
8.37702e-07
4.95656e-06
1.20342e-06
4.93307e-06
1.65365e-06
5.03831e-06
1.95774e-06
5.87679e-06
4.75411e-06
2.10593e-06
2.27691e-06
-3.00164e-06
1.97178e-06
-3.45218e-06
1.68276e-06
-4.0234e-06
1.27658e-06
-4.49494e-06
8.20271e-07
-4.86254e-06
2.33757e-07
-4.85594e-06
-3.02747e-07
-4.744e-06
-8.0364e-07
-4.64711e-06
-1.2539e-06
-4.37237e-06
-1.59264e-06
-3.92523e-06
-1.90195e-06
-3.35279e-06
-2.2181e-06
-2.74907e-06
-2.45516e-06
-2.09125e-06
-2.58802e-06
-1.39174e-06
-2.6745e-06
-7.80386e-07
-2.62826e-06
-1.92817e-08
-2.63176e-06
7.16258e-07
-2.52759e-06
1.55906e-06
-2.16124e-06
2.05952e-06
-1.95068e-06
3.01815e-06
-1.64989e-06
3.29177e-06
-1.18944e-06
3.82075e-06
-7.58204e-07
4.07461e-06
-3.04045e-07
4.5024e-06
-6.7083e-08
4.6961e-06
5.36889e-07
4.43434e-06
1.13022e-06
5.28346e-06
4.39228e-06
1.49206e-06
1.74768e-06
-2.56744e-06
1.29504e-06
-2.99954e-06
8.39505e-07
-3.56787e-06
2.79308e-07
-3.93474e-06
-2.99255e-07
-4.28398e-06
-9.21042e-07
-4.23416e-06
-1.63065e-06
-4.03439e-06
-2.29054e-06
-3.98722e-06
-2.8482e-06
-3.8147e-06
-3.312e-06
-3.46143e-06
-3.696e-06
-2.96879e-06
-4.00154e-06
-2.44353e-06
-4.25528e-06
-1.83751e-06
-4.40446e-06
-1.24256e-06
-4.51819e-06
-6.66652e-07
-4.5489e-06
1.1429e-08
-4.4687e-06
6.36054e-07
-4.20461e-06
1.29497e-06
-3.97227e-06
1.82718e-06
-3.68469e-06
2.73056e-06
-3.1159e-06
2.72298e-06
-2.67056e-06
3.37541e-06
-2.2531e-06
3.65715e-06
-1.71985e-06
3.96914e-06
-1.18925e-06
4.1655e-06
-5.90521e-07
3.83561e-06
-3.71476e-08
4.73009e-06
3.83511e-06
5.2002e-07
1.08887e-06
-2.01156e-06
4.76768e-07
-2.38744e-06
-9.12526e-08
-2.99985e-06
-7.12677e-07
-3.31332e-06
-1.48912e-06
-3.50754e-06
-2.19178e-06
-3.5315e-06
-2.79274e-06
-3.43343e-06
-3.48298e-06
-3.29699e-06
-4.18462e-06
-3.11306e-06
-4.78797e-06
-2.85808e-06
-5.28069e-06
-2.47607e-06
-5.66935e-06
-2.05486e-06
-5.96002e-06
-1.54685e-06
-6.13569e-06
-1.06689e-06
-6.27221e-06
-5.30131e-07
-6.28099e-06
2.02102e-08
-6.18256e-06
5.37625e-07
-5.94484e-06
1.05726e-06
-5.69736e-06
1.5797e-06
-5.18181e-06
2.21501e-06
-4.66036e-06
2.20153e-06
-4.25344e-06
2.9685e-06
-3.5821e-06
2.98581e-06
-2.94604e-06
3.33308e-06
-2.47908e-06
3.69855e-06
-1.82168e-06
3.17821e-06
-9.50124e-07
3.85853e-06
3.11065e-06
-2.25672e-07
2.77588e-07
-1.29195e-06
-3.08641e-07
-1.80121e-06
-9.30061e-07
-2.37843e-06
-1.66068e-06
-2.58269e-06
-2.54073e-06
-2.62749e-06
-3.43297e-06
-2.63926e-06
-4.18289e-06
-2.68351e-06
-4.88174e-06
-2.59814e-06
-5.55396e-06
-2.44083e-06
-6.18711e-06
-2.22493e-06
-6.7413e-06
-1.92188e-06
-7.18915e-06
-1.60701e-06
-7.53395e-06
-1.20204e-06
-7.77102e-06
-8.29816e-07
-7.89956e-06
-4.01593e-07
-7.90584e-06
2.64942e-08
-7.78516e-06
4.16948e-07
-7.55838e-06
8.30473e-07
-7.22292e-06
1.24424e-06
-6.64059e-06
1.63267e-06
-6.21766e-06
1.77861e-06
-5.61908e-06
2.36991e-06
-4.86532e-06
2.23206e-06
-4.29684e-06
2.7646e-06
-3.51981e-06
2.92152e-06
-2.66494e-06
2.32335e-06
-1.80987e-06
3.00346e-06
2.34799e-06
-1.0472e-06
-3.39165e-07
-7.04428e-07
-8.95432e-07
-1.24494e-06
-1.5936e-06
-1.68026e-06
-2.43803e-06
-1.73827e-06
-3.39076e-06
-1.67476e-06
-4.2318e-06
-1.79821e-06
-5.04928e-06
-1.86604e-06
-5.87508e-06
-1.77233e-06
-6.62456e-06
-1.69135e-06
-7.30313e-06
-1.54636e-06
-7.89789e-06
-1.32713e-06
-8.39062e-06
-1.11428e-06
-8.77238e-06
-8.20281e-07
-9.03616e-06
-5.66039e-07
-9.1878e-06
-2.49953e-07
-9.18789e-06
2.65793e-08
-9.07788e-06
3.06938e-07
-8.83918e-06
5.91777e-07
-8.46011e-06
8.65172e-07
-7.92102e-06
1.09358e-06
-7.41561e-06
1.2732e-06
-6.63031e-06
1.58461e-06
-5.91396e-06
1.5157e-06
-5.16644e-06
2.01708e-06
-4.11243e-06
1.86751e-06
-3.35175e-06
1.56266e-06
-2.44037e-06
2.09208e-06
1.36304e-06
-1.45541e-06
-8.56764e-07
-3.12464e-07
-1.44159e-06
-6.6012e-07
-2.25561e-06
-8.66236e-07
-3.15517e-06
-8.38707e-07
-4.06253e-06
-7.674e-07
-4.95473e-06
-9.06009e-07
-5.82109e-06
-9.99682e-07
-6.6665e-06
-9.2692e-07
-7.4696e-06
-8.88253e-07
-8.21433e-06
-8.01632e-07
-8.86019e-06
-6.81268e-07
-9.40556e-06
-5.68906e-07
-9.81476e-06
-4.11075e-07
-1.01016e-05
-2.79185e-07
-1.02409e-05
-1.10662e-07
-1.02428e-05
2.85026e-08
-1.01124e-05
1.76512e-07
-9.84312e-06
3.22496e-07
-9.4298e-06
4.51845e-07
-8.89827e-06
5.62053e-07
-8.29557e-06
6.70507e-07
-7.49184e-06
7.80883e-07
-6.76001e-06
7.83872e-07
-5.80419e-06
1.06125e-06
-4.81041e-06
8.73734e-07
-4.08963e-06
8.41878e-07
-3.07197e-06
1.07442e-06
5.56423e-07
-2.26536e-06
-1.33214e-06
-1.99226e-06
-2.8585e-06
-3.6972e-06
-4.4646e-06
-5.37061e-06
-6.37029e-06
-7.29721e-06
-8.18547e-06
-8.9871e-06
-9.66837e-06
-1.02373e-05
-1.06483e-05
-1.09275e-05
-1.10382e-05
-1.10097e-05
-1.08332e-05
-1.05107e-05
-1.00588e-05
-9.49679e-06
-8.82628e-06
-8.0454e-06
-7.26152e-06
-6.20027e-06
-5.32654e-06
-4.48466e-06
-3.41024e-06
-2.85382e-06
4.37202e-06
1.51702e-06
-6.74151e-07
4.02116e-06
-8.2839e-07
1.17924e-06
4.40987e-06
-2.14963e-07
-1.73747e-07
4.52423e-06
-1.13128e-06
1.01693e-06
4.26478e-06
-2.52042e-06
2.77987e-06
1.94791e-06
-2.62107e-06
4.93794e-06
5.95557e-07
-2.30779e-06
3.66015e-06
-1.60727e-06
2.98438e-07
1.90439e-06
4.70522e-06
1.94202e-06
3.93998e-06
-6.31438e-08
3.9798e-06
-2.54782e-07
3.81025e-06
-9.61727e-07
2.51333e-06
-1.22351e-06
1.22836e-06
-1.3361e-06
1.03109e-06
-2.11051e-06
-1.59156e-06
1.01537e-06
4.96805e-06
1.94233e-06
4.23488e-06
6.70023e-07
3.66714e-06
3.12961e-07
3.62192e-06
-9.16507e-07
3.27852e-06
-8.80105e-07
3.64369e-06
-1.70128e-06
3.3055e-06
-1.77232e-06
-2.28436e-07
1.94238e-06
4.71377e-06
2.22377e-06
4.31612e-06
1.06768e-06
3.85976e-06
7.69324e-07
3.33576e-06
-3.92511e-07
3.1166e-06
-6.60949e-07
1.87096e-06
-4.55629e-07
-9.1742e-07
1.01605e-06
-4.03543e-07
-7.42313e-07
4.62509e-06
2.58831e-06
4.08761e-06
1.60515e-06
3.84118e-06
1.01575e-06
3.31736e-06
1.31312e-07
3.0549e-06
-3.98493e-07
2.73455e-06
-1.35276e-07
2.33943e-06
1.41118e-06
-6.98561e-07
2.63444e-06
4.53652e-06
2.82317e-06
3.98305e-06
2.15862e-06
3.66959e-06
1.32921e-06
3.22268e-06
5.78221e-07
2.7639e-06
6.02855e-08
2.34012e-06
2.88511e-07
2.4645e-06
1.2868e-06
-5.02909e-07
2.26885e-06
4.39368e-06
3.06957e-06
3.94398e-06
2.60832e-06
3.4359e-06
1.83729e-06
3.16789e-06
8.46225e-07
2.61084e-06
6.17334e-07
2.49616e-06
4.03194e-07
2.2636e-06
1.51935e-06
9.59244e-08
1.66477e-06
4.15331e-06
3.50002e-06
3.87162e-06
2.89001e-06
3.38757e-06
2.32134e-06
3.05525e-06
1.17854e-06
2.73516e-06
9.37429e-07
2.43994e-06
6.98416e-07
2.476e-06
1.48329e-06
2.18018e-07
2.35391e-06
3.94201e-06
3.89803e-06
3.69926e-06
3.13276e-06
3.39424e-06
2.62635e-06
3.0922e-06
1.48058e-06
2.87401e-06
1.15562e-06
2.67647e-06
8.95959e-07
2.68919e-06
1.47057e-06
5.01447e-07
2.40576e-06
3.6475e-06
4.15749e-06
3.5326e-06
3.24766e-06
3.34004e-06
2.81891e-06
3.05678e-06
1.76385e-06
2.87133e-06
1.34107e-06
2.73297e-06
1.03431e-06
2.7832e-06
1.42034e-06
6.50647e-07
2.634e-06
3.23717e-06
4.3506e-06
3.16026e-06
3.32457e-06
3.00631e-06
2.97286e-06
2.89037e-06
1.87979e-06
2.792e-06
1.43944e-06
2.68873e-06
1.13758e-06
2.76844e-06
1.34063e-06
7.61342e-07
2.65774e-06
2.66937e-06
4.43992e-06
2.76659e-06