/*--------------------------------*- C++ -*----------------------------------*\
| =========                 |                                                 |
| \\      /  F ield         | OpenFOAM: The Open Source CFD Toolbox           |
|  \\    /   O peration     | Version:  2.4.0                                 |
|   \\  /    A nd           | Web:      www.OpenFOAM.org                      |
|    \\/     M anipulation  |                                                 |
\*---------------------------------------------------------------------------*/
FoamFile
{
    version     2.0;
    format      ascii;
    class       volScalarField;
    location    "7.05";
    object      nut;
}
// * * * * * * * * * * * * * * * * * * * * * * * * * * * * * * * * * * * * * //

dimensions      [0 2 -1 0 0 0 0];

internalField   nonuniform List<scalar> 
6000
(
1.24054e-05
1.01564e-05
5.68947e-06
3.08036e-06
1.71851e-06
2.89874e-06
2.66038e-06
3.51284e-06
3.82784e-06
4.49087e-06
4.98887e-06
5.62385e-06
6.21863e-06
6.87875e-06
7.53288e-06
8.20968e-06
8.88028e-06
9.55103e-06
1.02109e-05
1.08605e-05
1.14981e-05
1.21457e-05
1.27955e-05
1.34224e-05
1.40244e-05
1.45992e-05
1.51445e-05
1.56582e-05
1.61384e-05
1.65831e-05
1.6992e-05
1.7362e-05
1.76899e-05
1.79742e-05
1.82131e-05
1.84048e-05
1.85476e-05
1.86403e-05
1.86813e-05
1.86702e-05
1.8605e-05
1.84874e-05
1.83134e-05
1.80886e-05
1.78071e-05
1.74716e-05
1.7315e-05
1.72011e-05
1.7008e-05
1.68368e-05
1.65447e-05
1.63394e-05
1.59321e-05
1.57375e-05
1.51842e-05
1.50787e-05
1.43246e-05
1.44503e-05
1.34354e-05
1.42803e-05
2.33582e-05
3.47754e-05
1.72156e-05
7.9116e-06
4.12787e-06
6.65487e-06
1.21411e-05
1.43771e-05
1.86837e-05
2.28233e-05
2.70882e-05
3.20651e-05
3.69094e-05
4.25444e-05
4.82592e-05
5.44984e-05
6.08384e-05
6.7419e-05
7.40451e-05
8.07355e-05
8.73348e-05
9.36416e-05
9.96703e-05
0.000105611
0.00011147
0.00011724
0.000122905
0.000128458
0.000133889
0.000139183
0.000144286
0.000148989
0.000153492
0.000157784
0.000161848
0.00016567
0.000169229
0.00017251
0.000175491
0.000178159
0.000180484
0.000182465
0.000184055
0.000185265
0.000186019
0.000186199
0.000182471
0.000177241
0.000171495
0.000164986
0.000158029
0.000150402
0.000142315
0.000133808
0.000124669
0.000115643
0.000104961
9.63204e-05
8.43222e-05
7.92228e-05
2.89001e-05
5.03112e-05
2.44388e-05
9.91195e-06
9.50135e-06
1.56797e-05
2.64128e-05
3.28238e-05
4.16293e-05
5.12209e-05
6.04628e-05
7.14386e-05
8.20952e-05
9.43821e-05
0.000106911
0.000120474
0.000134286
0.000148556
0.000162917
0.000177363
0.000191611
0.000205418
0.00021881
0.000232007
0.000245001
0.000257763
0.000270257
0.000282452
0.000294317
0.000305799
0.000316775
0.000326998
0.000336735
0.000345959
0.000354633
0.000362717
0.000370169
0.000376953
0.000383017
0.000388336
0.000392841
0.000396528
0.0003993
0.000401158
0.000401907
0.000401152
0.00039463
0.000385666
0.000375348
0.000363713
0.000350679
0.000336711
0.000320979
0.000305207
0.000286719
0.000270038
0.000248132
0.000232214
0.000206251
0.000201264
3.21952e-05
5.72155e-05
2.78244e-05
1.071e-05
1.5678e-05
2.60841e-05
4.0722e-05
5.19785e-05
6.5172e-05
8.01465e-05
9.44907e-05
0.000111228
0.000127718
0.000146376
0.000165551
0.000186113
0.000207111
0.00022872
0.000250476
0.000272318
0.000293902
0.000314995
0.000335605
0.000355902
0.000375856
0.000395416
0.000414517
0.000433108
0.000451132
0.000468508
0.000485066
0.00050059
0.000515328
0.000529241
0.000542269
0.000554355
0.000565432
0.000575445
0.000584319
0.000592012
0.000598429
0.000603552
0.000607246
0.000609478
0.000609902
0.000608036
0.000599859
0.000588667
0.00057534
0.000560274
0.000542918
0.000524448
0.000503027
0.000481895
0.00045625
0.000433776
0.000403257
0.000381731
0.000346836
0.000342317
3.39567e-05
5.94461e-05
3.42343e-05
1.13967e-05
2.09613e-05
3.55155e-05
5.34812e-05
6.94465e-05
8.69507e-05
0.000106891
0.000126203
0.000148265
0.000170309
0.00019486
0.000220243
0.000247271
0.000274931
0.000303318
0.00033191
0.000360588
0.000388976
0.00041685
0.000444186
0.00047109
0.000497507
0.00052336
0.000548561
0.000573037
0.000596712
0.000619485
0.000641145
0.00066153
0.000680846
0.000699041
0.000716039
0.000731763
0.000746132
0.000759071
0.000770489
0.000780328
0.000788473
0.000794889
0.000799413
0.000801959
0.00080204
0.0007993
0.000790187
0.000777654
0.000762355
0.000744929
0.000724531
0.000702756
0.00067721
0.000651944
0.000621082
0.000593896
0.000557236
0.000530808
0.000490259
0.000485404
3.49043e-05
5.90453e-05
4.15988e-05
1.17895e-05
2.39288e-05
4.3151e-05
6.41863e-05
8.46453e-05
0.000106352
0.000130872
0.000154934
0.000181923
0.000209187
0.000239183
0.000270314
0.00030329
0.00033708
0.00037169
0.000406559
0.000441511
0.000476154
0.000510264
0.000543778
0.000576741
0.000609072
0.000640667
0.000671419
0.000701233
0.00073002
0.000757669
0.000783923
0.000808689
0.000832125
0.000854165
0.00087472
0.000893702
0.000911014
0.00092657
0.000940265
0.000952027
0.000961728
0.000969315
0.000974604
0.000977444
0.000977268
0.000973934
0.000964354
0.000951047
0.000934494
0.000915443
0.000892939
0.000868716
0.000840233
0.000811734
0.000777165
0.000746065
0.000705196
0.00067435
0.000630364
0.000624151
3.5415e-05
5.72035e-05
4.7123e-05
1.43933e-05
2.33426e-05
4.86489e-05
7.26519e-05
9.74626e-05
0.000123242
0.000152025
0.0001806
0.000212176
0.000244334
0.000279371
0.000315823
0.000354271
0.000393697
0.000434014
0.000474637
0.000515338
0.000555713
0.000595532
0.00063469
0.000673179
0.000710889
0.000747694
0.000783465
0.000818093
0.000851474
0.000883504
0.00091386
0.00094254
0.000969647
0.000995107
0.00101882
0.00104069
0.0010606
0.00107847
0.00109419
0.00110765
0.00111874
0.00112738
0.00113337
0.00113648
0.00113618
0.00113249
0.00112275
0.00110905
0.00109175
0.00107161
0.00104769
0.00102167
0.00099116
0.000960145
0.00092303
0.000888693
0.000845085
0.000810287
0.000764467
0.000755984
3.56743e-05
5.46513e-05
5.08096e-05
2.14579e-05
2.04661e-05
5.17387e-05
7.87881e-05
0.000107899
0.00013762
0.000170421
0.000203276
0.000239149
0.000275897
0.00031562
0.000357
0.000400493
0.000445103
0.00049066
0.00053656
0.000582527
0.000628152
0.000673188
0.000717494
0.000761013
0.000803606
0.000845127
0.000885427
0.000924383
0.000961881
0.000997822
0.00103184
0.001064
0.00109436
0.00112284
0.00114934
0.00117374
0.00119595
0.00121585
0.00123333
0.00124829
0.0012606
0.00127017
0.00127678
0.00128014
0.00127986
0.00127598
0.00126629
0.00125245
0.00123477
0.00121393
0.00118913
0.00116183
0.00112998
0.00109705
0.00105828
0.00102131
0.00097607
0.000937805
0.000891305
0.000879885
3.57842e-05
5.18377e-05
5.29263e-05
2.99131e-05
1.85342e-05
5.21178e-05
8.25362e-05
0.000115971
0.000149521
0.000186147
0.000223069
0.000262989
0.000304051
0.000348146
0.000394102
0.000442256
0.000491645
0.000542019
0.000592763
0.00064356
0.000693994
0.0007438
0.000792802
0.000840897
0.000887924
0.000933712
0.000978097
0.00102094
0.00106213
0.00110155
0.00113883
0.00117407
0.00120731
0.00123845
0.00126739
0.00129402
0.00131822
0.00133989
0.00135891
0.00137517
0.00138854
0.00139892
0.00140608
0.00140968
0.00140951
0.00140558
0.00139606
0.00138227
0.00136446
0.00134323
0.00131793
0.00128975
0.0012571
0.00122274
0.00118301
0.00114395
0.00109793
0.00105669
0.00101034
0.000995554
3.58064e-05
4.9033e-05
5.37467e-05
3.79927e-05
1.92388e-05
4.94977e-05
8.38589e-05
0.000121684
0.000158973
0.000199284
0.000240081
0.000283833
0.00032896
0.000377148
0.000427366
0.000479838
0.000533639
0.000588452
0.000643652
0.000698886
0.000753731
0.000807903
0.000861193
0.000913457
0.000964511
0.00101416
0.00106224
0.00110858
0.00115307
0.00119559
0.00123578
0.00127375
0.00130953
0.00134301
0.00137409
0.00140265
0.00142858
0.00145178
0.00147212
0.00148951
0.00150379
0.00151486
0.00152248
0.00152632
0.00152634
0.00152244
0.00151317
0.00149953
0.00148178
0.00146037
0.00143487
0.00140615
0.0013731
0.00133775
0.00129758
0.00125692
0.00121075
0.00116704
0.00112142
0.00110305
3.57786e-05
4.63918e-05
5.35444e-05
4.46928e-05
2.31768e-05
4.40889e-05
8.27632e-05
0.000125034
0.000165999
0.00020989
0.000254395
0.000301793
0.000350764
0.000402797
0.000456994
0.00051348
0.000571368
0.000630279
0.000689586
0.000748905
0.000807803
0.000865978
0.000923189
0.00097926
0.00103398
0.00108714
0.00113855
0.00118804
0.00123549
0.00128078
0.00132356
0.00136395
0.00140197
0.0014375
0.00147044
0.00150069
0.00152812
0.00155263
0.0015741
0.00159244
0.0016075
0.00161914
0.00162714
0.00163124
0.00163147
0.00162765
0.00161867
0.00160525
0.00158768
0.00156626
0.00154078
0.00151177
0.00147864
0.00144265
0.00140245
0.00136064
0.00131481
0.0012691
0.00122463
0.0012026
3.57236e-05
4.39935e-05
5.25784e-05
4.98109e-05
2.97958e-05
3.76702e-05
7.9357e-05
0.000126022
0.00017061
0.00021801
0.000266077
0.000316961
0.000369576
0.000425236
0.000483161
0.000543389
0.000605071
0.000667778
0.000730881
0.000793968
0.000856599
0.000918452
0.000979259
0.00103881
0.00109688
0.00115323
0.00120767
0.00126
0.00131011
0.00135787
0.00140296
0.0014455
0.00148549
0.00152282
0.00155739
0.00158909
0.00161781
0.00164345
0.00166588
0.00168501
0.00170071
0.00171284
0.00172115
0.0017255
0.00172592
0.00172221
0.00171353
0.00170037
0.00168306
0.00166175
0.00163644
0.00160736
0.00157439
0.00153806
0.00149815
0.00145557
0.00141046
0.00136321
0.00132017
0.00129453
3.5655e-05
4.18696e-05
5.10795e-05
5.33646e-05
3.69697e-05
3.25883e-05
7.3934e-05
0.000124673
0.000172821
0.000223675
0.000275177
0.000329408
0.00038549
0.000444582
0.000506011
0.000569738
0.000634954
0.000701186
0.000767807
0.00083438
0.000900458
0.0009657
0.00102981
0.00109256
0.00115369
0.00121296
0.00127014
0.00132506
0.00137756
0.00142754
0.00147469
0.00151914
0.00156087
0.00159978
0.00163577
0.00166873
0.00169856
0.00172514
0.00174838
0.00176818
0.00178439
0.00179689
0.00180547
0.00181005
0.00181065
0.00180706
0.00179866
0.00178578
0.00176876
0.00174765
0.00172262
0.00169363
0.001661
0.00162458
0.00158521
0.0015422
0.00149808
0.00144971
0.00140831
0.00137921
3.55811e-05
4.00228e-05
4.92428e-05
5.54926e-05
4.35871e-05
3.05404e-05
6.70668e-05
0.000121074
0.000172665
0.000226916
0.000281738
0.000339194
0.00039858
0.00046093
0.000525662
0.000592674
0.000661192
0.000730709
0.000800599
0.000870406
0.000939677
0.00100805
0.00107522
0.00114091
0.00120485
0.00126679
0.00132648
0.00138374
0.00143841
0.00149037
0.00153937
0.00158552
0.00162879
0.0016691
0.00170632
0.00174037
0.00177114
0.00179853
0.00182243
0.00184276
0.00185939
0.00187217
0.00188097
0.00188574
0.00188648
0.001883
0.00187486
0.00186226
0.00184556
0.0018247
0.00180002
0.00177124
0.00173908
0.00170278
0.00166413
0.00162101
0.00157809
0.001529
0.00148935
0.00145699
3.55071e-05
3.84385e-05
4.72259e-05
5.63897e-05
4.92807e-05
3.36421e-05
5.98614e-05
0.000115429
0.000170208
0.00022777
0.0002858
0.000346368
0.000408912
0.000474362
0.000542218
0.000612321
0.000683935
0.000756523
0.000829461
0.000902279
0.000974515
0.00104579
0.00111578
0.00118419
0.00125073
0.00131513
0.00137712
0.00143651
0.00149315
0.00154691
0.00159757
0.00164524
0.00168988
0.0017314
0.00176971
0.00180469
0.00183626
0.00186432
0.00188877
0.00190952
0.00192646
0.00193945
0.00194843
0.00195333
0.00195418
0.00195079
0.00194287
0.00193052
0.00191413
0.00189356
0.00186929
0.00184082
0.00180923
0.00177322
0.00173542
0.00169244
0.00165089
0.00160142
0.0015636
0.00152824
3.54358e-05
3.70934e-05
4.51509e-05
5.62708e-05
5.38792e-05
3.96046e-05
5.37248e-05
0.000108119
0.000165582
0.000226298
0.000287412
0.000350981
0.000416543
0.000484949
0.000555766
0.000628788
0.000703313
0.00077878
0.000854571
0.000930201
0.0010052
0.00107918
0.0011518
0.00122273
0.00129167
0.00135834
0.00142245
0.00148379
0.00154223
0.00159761
0.00164977
0.0016988
0.00174466
0.00178726
0.0018265
0.0018623
0.00189454
0.00192315
0.00194804
0.00196912
0.00198627
0.00199941
0.00200851
0.00201349
0.0020144
0.00201108
0.00200334
0.00199122
0.00197513
0.00195485
0.00193101
0.00190291
0.00187196
0.00183638
0.00179955
0.00175694
0.00171686
0.00166734
0.0016314
0.00159332
3.53691e-05
3.59604e-05
4.31079e-05
5.53503e-05
5.7308e-05
4.64918e-05
4.98408e-05
9.97612e-05
0.000159015
0.000222605
0.00028664
0.000353093
0.000421535
0.000492759
0.000566386
0.000642171
0.000719442
0.000797618
0.000876086
0.00095435
0.00103194
0.00110844
0.0011835
0.00125678
0.00132796
0.00139673
0.0014628
0.00152595
0.00158602
0.00164288
0.00169641
0.00174666
0.00179361
0.00183716
0.00187723
0.00191371
0.00194653
0.00197559
0.00200081
0.00202213
0.00203942
0.00205266
0.00206181
0.00206682
0.00206775
0.00206446
0.00205685
0.00204492
0.0020291
0.00200913
0.00198572
0.00195805
0.00192777
0.00189274
0.00185694
0.00181489
0.00177638
0.0017271
0.00169304
0.00165255
3.53077e-05
3.50121e-05
4.11602e-05
5.38298e-05
5.95692e-05
5.31602e-05
5.02906e-05
9.12858e-05
0.000150863
0.000216853
0.000283586
0.000352779
0.000423955
0.000497861
0.000574156
0.000652559
0.000732426
0.000813157
0.000894146
0.000974886
0.0010549
0.00113377
0.00121112
0.0012866
0.00135987
0.00143059
0.00149848
0.0015633
0.00162488
0.00168309
0.00173786
0.00178922
0.00183715
0.00188155
0.00192233
0.0019594
0.00199269
0.00202212
0.0020476
0.00206906
0.00208645
0.00209971
0.00210886
0.00211385
0.00211475
0.00211145
0.00210393
0.00209215
0.00207657
0.00205688
0.0020339
0.00200669
0.00197711
0.00194271
0.001908
0.00186667
0.00182978
0.00178099
0.00174883
0.00170625
3.5252e-05
3.42225e-05
3.93486e-05
5.18908e-05
6.07247e-05
5.90213e-05
5.41769e-05
8.37858e-05
0.00014164
0.000209293
0.000278393
0.000350141
0.000423888
0.000500335
0.000579157
0.00066004
0.000742365
0.000825511
0.000908878
0.000991953
0.00107425
0.00115535
0.00123485
0.00131239
0.00138761
0.00146018
0.00152976
0.00159612
0.0016591
0.00171856
0.00177446
0.00182683
0.00187564
0.00192079
0.0019622
0.00199978
0.00203346
0.00206317
0.00208883
0.00211039
0.0021278
0.00214104
0.00215014
0.00215505
0.00215587
0.00215252
0.00214503
0.00213336
0.00211799
0.00209857
0.002076
0.00204926
0.00202038
0.00198668
0.00195309
0.00191263
0.0018774
0.00182933
0.00179905
0.00175471
3.52019e-05
3.35678e-05
3.76968e-05
4.96905e-05
6.08813e-05
6.37753e-05
5.98039e-05
7.86134e-05
0.000132022
0.000200279
0.00027127
0.000345322
0.000421444
0.000500274
0.000581477
0.000664706
0.000749356
0.000834788
0.000920404
0.00100569
0.00109014
0.00117334
0.00125487
0.00133435
0.00141141
0.00148571
0.00155688
0.00162468
0.00168895
0.00174956
0.00180651
0.0018598
0.00190941
0.00195523
0.00199719
0.00203521
0.00206921
0.00209913
0.00212491
0.0021465
0.00216388
0.00217705
0.00218603
0.00219082
0.00219153
0.00218808
0.00218058
0.00216898
0.00215376
0.00213459
0.0021124
0.00208614
0.00205798
0.00202503
0.00199257
0.00195309
0.00191953
0.00187239
0.00184396
0.00179821
3.51572e-05
3.30269e-05
3.62149e-05
4.73603e-05
6.01759e-05
6.72877e-05
6.58523e-05
7.73189e-05
0.000122825
0.00019028
0.000262499
0.000338513
0.000416766
0.000497796
0.000581222
0.000666657
0.000753503
0.000841096
0.00092884
0.00101621
0.00110271
0.00118789
0.00127133
0.00135265
0.00143146
0.00150738
0.00158005
0.0016492
0.00171467
0.00177635
0.00183427
0.00188841
0.00193874
0.00198517
0.00202761
0.002066
0.00210026
0.00213033
0.00215617
0.00217774
0.00219505
0.00220809
0.00221692
0.00222154
0.00222208
0.0022185
0.00221094
0.00219936
0.00218426
0.0021653
0.00214348
0.00211769
0.00209023
0.00205806
0.00202674
0.00198833
0.00195646
0.00191042
0.00188383
0.00183698
3.51175e-05
3.25816e-05
3.49035e-05
4.50054e-05
5.87621e-05
6.95296e-05
7.15545e-05
7.95248e-05
0.000114903
0.000179872
0.000252446
0.000329962
0.000410038
0.000493047
0.000578517
0.000666007
0.000754915
0.000844546
0.000934302
0.00102365
0.00111208
0.00119914
0.0012844
0.00136745
0.00144791
0.00152537
0.00159945
0.00166988
0.00173646
0.00179915
0.00185797
0.0019129
0.00196389
0.00201086
0.00205373
0.00209243
0.00212689
0.00215707
0.00218292
0.00220443
0.00222162
0.00223449
0.00224313
0.00224753
0.00224787
0.00224411
0.00223645
0.00222485
0.00220982
0.00219105
0.00216956
0.00214423
0.00211744
0.00208608
0.0020559
0.00201864
0.00198845
0.00194367
0.0019189
0.00187128
3.50825e-05
3.2216e-05
3.37566e-05
4.2707e-05
5.67993e-05
7.05457e-05
7.64479e-05
8.37702e-05
0.000110099
0.000169706
0.00024156
0.000319985
0.000401493
0.000486212
0.000573515
0.000662889
0.000753717
0.000845259
0.00093691
0.00102812
0.00111838
0.00120722
0.00129421
0.00137891
0.00146093
0.00153985
0.00161528
0.0016869
0.00175453
0.00181817
0.00187783
0.00193349
0.00198508
0.00203255
0.00207579
0.00211475
0.00214937
0.0021796
0.00220542
0.00222684
0.00224386
0.00225653
0.00226492
0.00226908
0.00226917
0.0022652
0.0022574
0.00224573
0.00223074
0.00221211
0.00219092
0.00216604
0.00213991
0.00210936
0.00208031
0.00204425
0.00201574
0.00197236
0.00194938
0.00190131
3.50517e-05
3.19169e-05
3.27636e-05
4.0524e-05
5.44424e-05
7.04343e-05
8.02553e-05
8.88398e-05
0.000108866
0.000160741
0.000230362
0.000308959
0.000391417
0.000477513
0.000566398
0.000657461
0.000750048
0.000843365
0.000936789
0.00102976
0.00112175
0.00121228
0.00130089
0.00138716
0.00147067
0.00155098
0.00162767
0.00170042
0.00176904
0.00183358
0.00189403
0.00195036
0.00200252
0.00205042
0.00209399
0.00213317
0.00216791
0.00219816
0.00222391
0.00224519
0.00226202
0.00227445
0.00228257
0.00228644
0.00228626
0.00228204
0.00227405
0.00226228
0.00224728
0.00222877
0.00220784
0.00218338
0.00215789
0.00212816
0.00210022
0.00206541
0.00203856
0.00199669
0.00197548
0.00192728
3.50247e-05
3.16728e-05
3.19116e-05
3.84962e-05
5.18352e-05
6.93313e-05
8.28268e-05
9.38642e-05
0.00011045
0.000154288
0.000219409
0.000297315
0.000380145
0.000467219
0.000557386
0.000649905
0.000744069
0.00083901
0.000934077
0.00102869
0.0011223
0.00121442
0.00130458
0.00139234
0.00147726
0.00155889
0.00163678
0.00171059
0.00178015
0.00184553
0.00190673
0.00196369
0.00201637
0.00206467
0.00210853
0.00214789
0.0021827
0.00221294
0.0022386
0.00225971
0.00227631
0.00228847
0.00229628
0.00229984
0.00229935
0.00229485
0.00228664
0.00227473
0.00225969
0.00224127
0.00222056
0.00219651
0.00217161
0.0021427
0.00211585
0.00208233
0.00205711
0.00201686
0.00199741
0.00194938
3.5001e-05
3.14743e-05
3.11864e-05
3.66475e-05
4.91045e-05
6.73977e-05
8.41089e-05
9.8256e-05
0.000113802
0.00015067
0.000209898
0.000285515
0.000368059
0.000455637
0.000546733
0.000640437
0.000735966
0.000832357
0.000928923
0.00102506
0.00112019
0.0012138
0.00130541
0.00139457
0.00148083
0.00156371
0.00164274
0.00171756
0.00178801
0.00185419
0.00191609
0.00197364
0.00202679
0.00207546
0.00211956
0.00215907
0.00219393
0.00222412
0.00224967
0.00227058
0.00228693
0.00229878
0.00230627
0.00230949
0.00230865
0.00230385
0.00229538
0.0022833
0.00226819
0.00224981
0.0022293
0.00220562
0.0021813
0.0021532
0.00212741
0.00209521
0.0020716
0.00203306
0.00201534
0.00196779
3.49803e-05
3.13134e-05
3.05737e-05
3.49889e-05
4.63576e-05
6.48076e-05
8.41246e-05
0.000101632
0.000117937
0.000149667
0.000202449
0.000274465
0.000355603
0.000443113
0.000534728
0.000629298
0.000725946
0.000823589
0.000921491
0.00101901
0.00111553
0.00121054
0.00130351
0.00139399
0.00148151
0.00156558
0.00164569
0.00172145
0.00179275
0.00185968
0.00192225
0.00198033
0.00203392
0.00208291
0.00212724
0.00216686
0.00220174
0.00223187
0.00225727
0.00227797
0.00229404
0.00230557
0.0023127
0.00231555
0.00231435
0.00230921
0.00230047
0.00228818
0.00227296
0.00225461
0.00223426
0.00221094
0.00218716
0.00215986
0.0021351
0.00210423
0.0020822
0.00204544
0.00202945
0.00198266
3.49623e-05
3.11836e-05
3.00596e-05
3.35214e-05
4.36805e-05
6.17371e-05
8.29595e-05
0.000103756
0.000122057
0.000150669
0.000197363
0.000264711
0.00034347
0.000430143
0.000521691
0.000616761
0.000714244
0.00081291
0.00091196
0.00101071
0.0011085
0.00120478
0.00129901
0.00139073
0.00147943
0.00156461
0.00164573
0.00172238
0.00179448
0.00186213
0.0019253
0.0019839
0.00203788
0.00208717
0.00213169
0.0021714
0.00220629
0.00223633
0.00226156
0.00228202
0.00229779
0.00230898
0.00231574
0.0023182
0.00231662
0.00231112
0.00230207
0.00228955
0.0022742
0.00225584
0.00223562
0.00221263
0.00218937
0.00216285
0.0021391
0.00210956
0.00208909
0.00205418
0.00203991
0.00199415
3.49465e-05
3.10792e-05
2.96311e-05
3.22388e-05
4.11386e-05
5.83552e-05
8.07475e-05
0.000104511
0.000125568
0.000152905
0.000194574
0.000256671
0.000332143
0.000417204
0.000508098
0.000603211
0.000701124
0.000800542
0.000900528
0.00100033
0.00109924
0.00119667
0.00129206
0.00138491
0.00147471
0.00156093
0.00164299
0.00172045
0.00179331
0.00186163
0.00192537
0.00198444
0.0020388
0.00208835
0.00213304
0.00217282
0.00220768
0.00223762
0.00226266
0.00228286
0.00229833
0.00230915
0.00231552
0.00231758
0.00231559
0.00230972
0.00230034
0.00228757
0.00227206
0.00225367
0.00223356
0.00221087
0.0021881
0.00216234
0.00213956
0.00211137
0.00209242
0.00205942
0.00204686
0.00200241
3.49327e-05
3.09956e-05
2.92763e-05
3.11302e-05
3.87775e-05
5.48161e-05
7.7658e-05
0.00010387
0.000128044
0.000155612
0.000193693
0.00025055
0.000322032
0.00040471
0.000494327
0.000588978
0.000686924
0.000786774
0.000887437
0.000988078
0.00108793
0.00118636
0.00128278
0.00137666
0.00146747
0.00155464
0.00163757
0.00171578
0.00178936
0.0018583
0.00192258
0.00198208
0.00203678
0.00208657
0.0021314
0.00217123
0.00220605
0.00223586
0.00226069
0.00228063
0.00229576
0.00230621
0.00231217
0.00231381
0.00231141
0.00230514
0.00229542
0.00228238
0.00226668
0.00224824
0.00222822
0.00220581
0.0021835
0.00215849
0.00213666
0.0021098
0.00209234
0.0020613
0.00205045
0.00200755
3.49206e-05
3.09292e-05
2.89844e-05
3.01813e-05
3.66259e-05
5.12543e-05
7.38819e-05
0.000101885
0.000129203
0.000158128
0.000194138
0.000246312
0.00031342
0.000393031
0.000480745
0.0005744
0.000671943
0.000771867
0.000872917
0.000974162
0.00107476
0.00117403
0.00127133
0.00136611
0.00145782
0.00154587
0.00162958
0.00170849
0.00178272
0.00185224
0.00191701
0.00197692
0.00203192
0.00208192
0.00212687
0.00216673
0.00220148
0.00223115
0.00225576
0.00227541
0.0022902
0.00230026
0.00230581
0.00230701
0.00230418
0.00229752
0.00228743
0.00227411
0.00225821
0.0022397
0.00221974
0.0021976
0.00217572
0.00215144
0.00213052
0.002105
0.002089
0.00205996
0.00205081
0.00200972
3.49101e-05
3.08767e-05
2.87459e-05
2.93765e-05
3.46976e-05
4.77805e-05
6.96186e-05
9.86757e-05
0.000128882
0.000159917
0.00019525
0.000243685
0.000306422
0.000382455
0.000467687
0.000559801
0.000656483
0.000756093
0.000857209
0.000958793
0.00105992
0.00115983
0.00125786
0.00135342
0.00144591
0.00153472
0.00161913
0.00169868
0.00177351
0.00184356
0.00190878
0.00196905
0.00202432
0.0020745
0.00211954
0.0021594
0.00219408
0.00222358
0.00224796
0.0022673
0.00228174
0.00229141
0.00229653
0.0022973
0.00229403
0.00228695
0.00227649
0.00226288
0.00224677
0.00222817
0.00220825
0.00218636
0.00216489
0.00214132
0.00212129
0.0020971
0.00208252
0.00205552
0.00204807
0.00200902
3.49009e-05
3.08355e-05
2.85525e-05
2.86997e-05
3.29949e-05
4.44809e-05
6.50636e-05
9.44125e-05
0.000127022
0.000160571
0.000196395
0.000242231
0.00030097
0.000373156
0.000455426
0.00054548
0.000640833
0.000739719
0.000840556
0.000942188
0.00104359
0.00114395
0.00124254
0.00133871
0.00143187
0.00152133
0.00160634
0.00168646
0.00176182
0.00183236
0.00189797
0.00195857
0.00201407
0.0020644
0.0021095
0.00214934
0.00218391
0.00221324
0.00223737
0.00225641
0.00227048
0.00227974
0.00228443
0.00228475
0.00228104
0.00227355
0.00226271
0.00224879
0.00223246
0.00221377
0.00219388
0.00217222
0.00215114
0.00212827
0.00210909
0.00208622
0.00207303
0.0020481
0.00204236
0.00200557
3.48929e-05
3.08035e-05
2.83967e-05
2.8135e-05
3.15112e-05
4.14176e-05
6.03979e-05
8.93046e-05
0.000123655
0.000159805
0.00019701
0.000241415
0.000296822
0.000365174
0.000444149
0.000531689
0.000625262
0.000723006
0.000823199
0.000924568
0.00102599
0.00112657
0.00122552
0.00132215
0.00141582
0.00150582
0.00159132
0.00167193
0.00174777
0.00181871
0.00188468
0.00194555
0.00200125
0.0020517
0.00209683
0.00213663
0.00217108
0.0022002
0.00222408
0.00224279
0.00225649
0.00226534
0.00226959
0.00226947
0.00226531
0.00225739
0.00224618
0.00223195
0.00221539
0.0021966
0.00217673
0.00215528
0.00213458
0.00211238
0.00209405
0.00207249
0.00206065
0.00203781
0.00203378
0.00199946
3.48858e-05
3.07789e-05
2.82725e-05
2.76677e-05
3.02335e-05
3.863e-05
5.57798e-05
8.3584e-05
0.000118896
0.000157445
0.000196628
0.00024068
0.000293602
0.000358403
0.00043394
0.000518612
0.000609996
0.000706191
0.000805369
0.000906147
0.0010073
0.00110786
0.00120696
0.00130387
0.0013979
0.00148831
0.00157417
0.0016552
0.00173143
0.00180273
0.00186898
0.00193008
0.00198593
0.00203646
0.0020816
0.00212133
0.00215563
0.00218455
0.00220814
0.00222652
0.00223985
0.00224829
0.00225209
0.00225152
0.00224692
0.00223858
0.00222699
0.00221245
0.00219566
0.00217675
0.0021569
0.00213566
0.00211532
0.00209379
0.00207626
0.002056
0.00204549
0.00202476
0.00202244
0.00199079
3.48797e-05
3.07603e-05
2.81743e-05
2.72839e-05
2.91453e-05
3.61382e-05
5.13396e-05
7.74893e-05
0.000112927
0.000153424
0.000194888
0.000239496
0.000290853
0.000352608
0.00042477
0.000506352
0.000595209
0.000689478
0.000787277
0.00088713
0.000987723
0.001088
0.00118702
0.00128402
0.00137825
0.00146891
0.00155502
0.00163638
0.00171292
0.00178449
0.00185097
0.00191224
0.0019682
0.00201877
0.00206388
0.00210351
0.00213765
0.00216633
0.00218964
0.00220768
0.00222062
0.00222864
0.002232
0.00223098
0.00222593
0.00221718
0.00220521
0.00219036
0.00217334
0.00215433
0.00213449
0.00211345
0.00209346
0.00207258
0.00205584
0.00203686
0.00202766
0.00200906
0.00200845
0.00197967
3.48743e-05
3.07464e-05
2.80976e-05
2.69713e-05
2.82275e-05
3.3946e-05
4.71771e-05
7.12508e-05
0.000105985
0.000147775
0.000191536
0.000237392
0.000288081
0.000347453
0.000416493
0.000494921
0.000581007
0.000673025
0.000769102
0.000867701
0.00096743
0.00106715
0.00116587
0.00126274
0.00135699
0.00144776
0.00153399
0.00161556
0.00169231
0.00176408
0.00183072
0.0018921
0.00194812
0.00199869
0.00204373
0.00208323
0.00211718
0.00214562
0.00216863
0.00218632
0.00219886
0.00220646
0.00220939
0.00220792
0.00220243
0.00219326
0.00218092
0.00216577
0.00214852
0.00212941
0.00210958
0.00208874
0.00206909
0.00204886
0.00203289
0.00201518
0.00200725
0.00199079
0.00199191
0.00196616
3.48695e-05
3.07364e-05
2.80384e-05
2.67188e-05
2.74607e-05
3.20451e-05
4.33612e-05
6.50768e-05
9.83455e-05
0.000140625
0.000186422
0.000233977
0.000284802
0.000342531
0.000408869
0.000484235
0.000567421
0.000656935
0.000750987
0.000848019
0.000946586
0.00104548
0.00114365
0.00124018
0.00133425
0.00142495
0.00151119
0.00159284
0.00166971
0.00174158
0.00180831
0.00186974
0.00192576
0.00197628
0.00202122
0.00206056
0.0020943
0.00212247
0.00214516
0.00216249
0.00217464
0.00218181
0.0021843
0.00218239
0.00217646
0.00216689
0.00215419
0.00213874
0.00212128
0.00210207
0.00208225
0.00206162
0.0020423
0.00202271
0.00200749
0.00199105
0.00198436
0.00197006
0.0019729
0.00195036
3.48654e-05
3.07294e-05
2.79936e-05
2.65168e-05
2.68257e-05
3.0418e-05
3.99327e-05
5.91433e-05
9.02981e-05
0.000132183
0.000179507
0.000228948
0.000280568
0.000337403
0.000401574
0.00047412
0.000554402
0.000641248
0.000733025
0.000828209
0.00092533
0.00102313
0.00112049
0.00121646
0.00131015
0.00140061
0.00148671
0.00156833
0.00164519
0.00171708
0.00178381
0.00184522
0.00190118
0.0019516
0.0019964
0.00203555
0.00206905
0.00209693
0.00211929
0.00213625
0.00214799
0.00215475
0.0021568
0.00215445
0.0021481
0.00213814
0.00212508
0.00210935
0.00209168
0.00207238
0.00205258
0.00203216
0.00201318
0.00199423
0.00197974
0.00196455
0.00195908
0.00194695
0.00195152
0.00193235
3.48617e-05
3.07248e-05
2.79604e-05
2.63567e-05
2.63044e-05
2.90415e-05
3.69076e-05
5.35882e-05
8.21311e-05
0.000122727
0.000170857
0.000222104
0.000274991
0.000331629
0.000394236
0.000464325
0.000541823
0.000625935
0.000715258
0.000808353
0.000903767
0.00100021
0.00109653
0.00119171
0.00128481
0.00137484
0.00146065
0.0015421
0.00161884
0.00169064
0.00175729
0.0018186
0.00187445
0.00192472
0.00196933
0.00200825
0.00204148
0.00206905
0.00209106
0.00210764
0.00211898
0.00212531
0.00212693
0.00212415
0.00211739
0.00210704
0.00209365
0.00207765
0.00205979
0.00204042
0.00202065
0.00200044
0.0019818
0.00196348
0.00194972
0.00193578
0.0019315
0.00192155
0.00192784
0.00191219
3.48586e-05
3.07221e-05
2.79364e-05
2.62313e-05
2.58803e-05
2.78895e-05
3.42819e-05
4.85084e-05
7.41092e-05
0.000112585
0.00016064
0.000213345
0.000267755
0.000324794
0.000386455
0.00045454
0.000529485
0.0006109
0.000697669
0.000788491
0.000881972
0.00097682
0.00107185
0.00116601
0.00125833
0.00134774
0.00143311
0.00151424
0.00159075
0.00166235
0.00172882
0.00178996
0.00184562
0.00189568
0.00194006
0.00197871
0.00201164
0.00203888
0.00206053
0.00207672
0.00208765
0.00209356
0.00209474
0.00209154
0.00208438
0.00207366
0.00205995
0.0020437
0.00202566
0.00200623
0.00198651
0.00196653
0.00194823
0.00193055
0.00191751
0.00190481
0.00190171
0.00189394
0.00190196
0.00188996
3.48558e-05
3.07209e-05
2.79199e-05
2.61343e-05
2.55382e-05
2.6935e-05
3.20364e-05
4.39615e-05
6.64583e-05
0.000102109
0.000149122
0.000202687
0.000258634
0.000316527
0.000377828
0.000444415
0.00051713
0.000595984
0.000680181
0.00076861
0.000859975
0.000953015
0.00104654
0.00113946
0.00123079
0.00131938
0.00140417
0.00148483
0.00156097
0.00163227
0.00169846
0.00175935
0.00181475
0.00186454
0.00190863
0.00194698
0.00197957
0.00200646
0.00202772
0.00204352
0.00205404
0.00205952
0.00206028
0.00205667
0.00204912
0.00203805
0.00202403
0.00200755
0.00198936
0.00196989
0.00195023
0.00193049
0.00191255
0.00189551
0.00188319
0.00187172
0.00186978
0.0018642
0.00187395
0.00186572
3.48533e-05
3.07208e-05
2.79092e-05
2.60606e-05
2.52649e-05
2.61516e-05
3.01418e-05
3.99704e-05
5.9354e-05
9.16517e-05
0.000136649
0.000190259
0.0002475
0.000306522
0.000367976
0.000433583
0.000504458
0.000580972
0.000662664
0.000748648
0.000837766
0.000928822
0.00102064
0.00111213
0.00120226
0.00128985
0.00137389
0.00145395
0.00152959
0.00160046
0.00166628
0.00172681
0.00178188
0.00183134
0.0018751
0.00191309
0.00194532
0.00197182
0.0019927
0.00200808
0.00201818
0.00202324
0.00202359
0.00201958
0.00201165
0.00200024
0.00198594
0.00196925
0.00195093