/*--------------------------------*- C++ -*----------------------------------*\
| =========                 |                                                 |
| \\      /  F ield         | OpenFOAM: The Open Source CFD Toolbox           |
|  \\    /   O peration     | Version:  2.4.0                                 |
|   \\  /    A nd           | Web:      www.OpenFOAM.org                      |
|    \\/     M anipulation  |                                                 |
\*---------------------------------------------------------------------------*/
FoamFile
{
    version     2.0;
    format      ascii;
    class       volScalarField;
    location    "2850";
    object      k;
}
// * * * * * * * * * * * * * * * * * * * * * * * * * * * * * * * * * * * * * //

dimensions      [0 2 -2 0 0 0 0];

internalField   nonuniform List<scalar> 
48900
(
0.983999
1.35222
1.51128
1.52778
1.46462
1.36222
1.24612
1.12954
1.02124
0.923252
0.838099
0.764228
0.701802
0.648035
0.603457
0.565099
0.534071
0.507122
0.486089
0.467271
0.453425
0.440197
0.431524
0.422024
0.417086
0.409917
0.407771
0.401952
0.40207
0.396941
0.399133
0.394297
0.398676
0.394522
0.402016
0.39885
0.397316
0.425874
0.448687
0.46553
0.478051
0.488303
0.49901
0.511595
0.526503
0.54305
0.56129
0.577916
0.592677
0.606057
0.618526
0.63037
0.641692
0.652765
0.663368
0.673917
0.683866
0.693963
0.703186
0.712663
0.720888
0.729608
0.736674
0.744631
0.750492
0.757801
0.762519
0.769413
0.773178
0.779336
0.781523
0.786364
0.374646
0.371955
0.36636
0.358737
0.350153
0.341678
0.334277
0.32878
0.325544
0.324828
0.326529
0.330434
0.336068
0.3434
0.352026
0.362068
0.373081
0.385301
0.39818
0.412094
0.426371
0.440479
0.454131
0.467648
0.480663
0.493547
0.505844
0.518004
0.529487
0.540835
0.551425
0.561884
0.571494
0.580887
0.589221
0.597298
0.374265
0.371889
0.367971
0.362556
0.355899
0.348288
0.340106
0.331759
0.32359
0.315947
0.309017
0.303023
0.297978
0.294016
0.291058
0.289202
0.28832
0.288495
0.289579
0.291644
0.294482
0.298037
0.302098
0.306692
0.311648
0.317019
0.32264
0.32858
0.334664
0.34098
0.347321
0.353797
0.360128
0.36645
0.372351
0.378054
0.374508
0.373001
0.370677
0.367544
0.363712
0.359228
0.354217
0.348784
0.343078
0.337227
0.331356
0.325584
0.319989
0.314668
0.309657
0.305033
0.300796
0.297011
0.293645
0.290749
0.288266
0.286237
0.284586
0.283351
0.282452
0.281931
0.281702
0.281813
0.282169
0.282823
0.283665
0.284757
0.285964
0.287356
0.288747
0.290235
0.374621
0.373591
0.372047
0.370025
0.367613
0.364819
0.361695
0.358272
0.354618
0.350777
0.346814
0.342774
0.338713
0.334672
0.33069
0.326803
0.323034
0.319413
0.31595
0.31267
0.309567
0.306663
0.303941
0.30142
0.299077
0.296932
0.294955
0.293169
0.291541
0.290091
0.288785
0.287641
0.286619
0.285737
0.284947
0.284284
0.374631
0.373858
0.372733
0.371294
0.369614
0.367697
0.365569
0.363244
0.360759
0.358132
0.355398
0.352579
0.349707
0.3468
0.343886
0.340982
0.338107
0.335277
0.332503
0.329798
0.327169
0.324627
0.322171
0.319811
0.317542
0.315374
0.313299
0.311326
0.309446
0.307665
0.305977
0.304385
0.302882
0.30147
0.300144
0.298918
0.374583
0.373942
0.373064
0.371968
0.370709
0.369291
0.367729
0.366032
0.364221
0.362309
0.360314
0.358249
0.356134
0.353979
0.351801
0.349611
0.347421
0.345241
0.343079
0.340944
0.338843
0.33678
0.334761
0.332791
0.33087
0.329004
0.327192
0.325437
0.32374
0.322102
0.320524
0.319006
0.317548
0.316151
0.314816
0.313555
0.374511
0.373923
0.373191
0.37231
0.371317
0.37021
0.368999
0.36769
0.366299
0.364831
0.3633
0.361713
0.360084
0.35842
0.356732
0.355025
0.353311
0.351593
0.34988
0.348176
0.346486
0.344816
0.343169
0.341548
0.339956
0.338396
0.33687
0.335379
0.333925
0.33251
0.331134
0.329799
0.328505
0.327253
0.326045
0.324894
0.374434
0.373852
0.373198
0.372452
0.37163
0.370729
0.369751
0.3687
0.367586
0.366414
0.365192
0.363925
0.362623
0.361291
0.359937
0.358564
0.357181
0.355791
0.354399
0.353008
0.351625
0.35025
0.348889
0.347543
0.346215
0.344907
0.343621
0.342359
0.341122
0.339912
0.338729
0.337576
0.336452
0.335357
0.334295
0.333278
0.374363
0.373763
0.373138
0.372469
0.371757
0.370993
0.370174
0.369302
0.368381
0.367414
0.366408
0.365366
0.364295
0.363198
0.362081
0.360947
0.359802
0.358649
0.357491
0.356332
0.355176
0.354024
0.352879
0.351744
0.350621
0.349511
0.348417
0.34734
0.346281
0.345242
0.344223
0.343225
0.342249
0.341295
0.340364
0.339472
0.374301
0.373672
0.373049
0.372415
0.371766
0.371089
0.370377
0.369628
0.368844
0.368026
0.367176
0.366298
0.365394
0.36447
0.363527
0.36257
0.361602
0.360626
0.359644
0.35866
0.357675
0.356693
0.355715
0.354744
0.35378
0.352827
0.351884
0.350955
0.350039
0.349137
0.348252
0.347382
0.34653
0.345694
0.344876
0.344091
0.374251
0.373591
0.372953
0.372327
0.371706
0.371078
0.370433
0.369767
0.369079
0.368366
0.36763
0.366872
0.366094
0.365298
0.364488
0.363665
0.362832
0.361991
0.361144
0.360294
0.359444
0.358593
0.357746
0.356903
0.356066
0.355236
0.354414
0.353603
0.352802
0.352013
0.351236
0.350471
0.34972
0.348982
0.348258
0.347562
0.374211
0.373522
0.372863
0.372228
0.371612
0.371004
0.370396
0.369781
0.369155
0.368515
0.367859
0.367189
0.366504
0.365806
0.365095
0.364375
0.363646
0.36291
0.362169
0.361425
0.360679
0.359934
0.35919
0.358449
0.357713
0.356982
0.356258
0.355542
0.354835
0.354137
0.353448
0.35277
0.352102
0.351445
0.3508
0.350179
0.374183
0.373473
0.372794
0.372145
0.371521
0.370915
0.370319
0.369726
0.369131
0.36853
0.367922
0.367305
0.366678
0.366042
0.365397
0.364744
0.364085
0.36342
0.362751
0.36208
0.361407
0.360734
0.360063
0.359394
0.358729
0.358068
0.357414
0.356766
0.356125
0.355492
0.354868
0.354252
0.353644
0.353045
0.352457
0.351891
0.374163
0.373436
0.372741
0.372077
0.371442
0.370831
0.370235
0.36965
0.369071
0.368493
0.367913
0.367329
0.36674
0.366146
0.365547
0.364942
0.364332
0.363719
0.363102
0.362484
0.361865
0.361246
0.360629
0.360014
0.359402
0.358795
0.358193
0.357596
0.357006
0.356423
0.355847
0.355278
0.354717
0.354164
0.353619
0.353095
0.374146
0.373405
0.372694
0.372015
0.371367
0.370744
0.370143
0.369558
0.368984
0.368417
0.367854
0.367293
0.366732
0.366169
0.365604
0.365037
0.364467
0.363896
0.363323
0.36275
0.362176
0.361604
0.361033
0.360465
0.3599
0.359339
0.358782
0.358231
0.357686
0.357147
0.356614
0.356088
0.355568
0.355055
0.35455
0.354064
0.374131
0.373377
0.372653
0.37196
0.371297
0.370661
0.370049
0.369457
0.368881
0.368317
0.367762
0.367213
0.366669
0.366127
0.365586
0.365047
0.364507
0.363969
0.363431
0.362893
0.362357
0.361823
0.361291
0.360762
0.360237
0.359716
0.359199
0.358687
0.358181
0.35768
0.357185
0.356696
0.356213
0.355736
0.355267
0.354814
0.374119
0.373354
0.372618
0.371911
0.371234
0.370584
0.36996
0.369357
0.368774
0.368205
0.36765
0.367105
0.366568
0.366037
0.365512
0.36499
0.364472
0.363957
0.363444
0.362934
0.362427
0.361923
0.361422
0.360925
0.360432
0.359944
0.35946
0.358982
0.358508
0.35804
0.357578
0.357121
0.356669
0.356223
0.355785
0.355362
0.374108
0.373334
0.372588
0.371869
0.371179
0.370516
0.369878
0.369263
0.368669
0.368092
0.367531
0.366982
0.366446
0.365918
0.365399
0.364887
0.364381
0.36388
0.363385
0.362894
0.362407
0.361925
0.361448
0.360975
0.360507
0.360045
0.359587
0.359135
0.358688
0.358247
0.357811
0.357381
0.356956
0.356536
0.356124
0.355726
0.374099
0.373318
0.372562
0.371833
0.371132
0.370457
0.369806
0.369178
0.368571
0.367984
0.367413
0.366858
0.366316
0.365786
0.365267
0.364757
0.364255
0.363761
0.363275
0.362795
0.362321
0.361853
0.361392
0.360936
0.360486
0.360042
0.359604
0.359171
0.358745
0.358324
0.357909
0.357499
0.357095
0.356697
0.356305
0.355928
0.374092
0.373304
0.372541
0.371803
0.371092
0.370406
0.369743
0.369104
0.368485
0.367886
0.367304
0.366739
0.366189
0.365652
0.365128
0.364615
0.364113
0.363619
0.363135
0.362659
0.362192
0.361731
0.361278
0.360832
0.360393
0.359961
0.359536
0.359117
0.358704
0.358298
0.357898
0.357503
0.357115
0.356732
0.356356
0.355994
0.374086
0.373292
0.372522
0.371778
0.371058
0.370362
0.36969
0.369039
0.36841
0.367799
0.367207
0.366632
0.366072
0.365527
0.364995
0.364476
0.363968
0.363471
0.362985
0.362508
0.362041
0.361582
0.361132
0.36069
0.360256
0.35983
0.359411
0.358999
0.358595
0.358197
0.357806
0.357421
0.357043
0.356671
0.356306
0.355955
0.37408
0.373282
0.372507
0.371756
0.37103
0.370326
0.369645
0.368985
0.368346
0.367725
0.367123
0.366538
0.365968
0.365414
0.364873
0.364346
0.363832
0.363329
0.362837
0.362356
0.361885
0.361424
0.360973
0.36053
0.360097
0.359671
0.359254
0.358845
0.358444
0.35805
0.357663
0.357283
0.35691
0.356544
0.356186
0.355841
0.374076
0.373274
0.372495
0.371739
0.371006
0.370296
0.369607
0.36894
0.368292
0.367663
0.367052
0.366458
0.365879
0.365316
0.364767
0.364232
0.363709
0.363199
0.362701
0.362214
0.361738
0.361272
0.360816
0.36037
0.359934
0.359506
0.359088
0.358678
0.358276
0.357882
0.357495
0.357116
0.356745
0.35638
0.356024
0.355683
0.374072
0.373267
0.372484
0.371724
0.370986
0.37027
0.369576
0.368902
0.368247
0.36761
0.366992
0.36639
0.365804
0.365233
0.364676
0.364133
0.363603
0.363086
0.362581
0.362087
0.361605
0.361133
0.360672
0.360221
0.35978
0.359349
0.358926
0.358513
0.358108
0.357711
0.357323
0.356942
0.356569
0.356204
0.355847
0.355505
0.374069
0.373261
0.372475
0.371712
0.37097
0.370249
0.36955
0.36887
0.368209
0.367567
0.366942
0.366333
0.36574
0.365163
0.364599
0.364049
0.363513
0.362989
0.362478
0.361978
0.36149
0.361012
0.360546
0.360089
0.359643
0.359206
0.358779
0.358361
0.357952
0.357552
0.35716
0.356776
0.3564
0.356032
0.355673
0.35533
0.374067
0.373257
0.372468
0.371702
0.370956
0.370232
0.369528
0.368844
0.368178
0.367531
0.3669
0.366286
0.365688
0.365104
0.364535
0.36398
0.363438
0.362908
0.362391
0.361886
0.361392
0.36091
0.360438
0.359976
0.359525
0.359084
0.358652
0.358229
0.357816
0.357411
0.357015
0.356628
0.356248
0.355877
0.355515
0.355168
0.374065
0.373253
0.372463
0.371694
0.370945
0.370218
0.369511
0.368822
0.368153
0.367501
0.366866
0.366248
0.365645
0.365057
0.364483
0.363923
0.363376
0.362841
0.36232
0.36181
0.361311
0.360824
0.360347
0.359881
0.359426
0.35898
0.358544
0.358117
0.3577
0.357291
0.356891
0.3565
0.356117
0.355742
0.355377
0.355027
0.374063
0.37325
0.372458
0.371687
0.370937
0.370207
0.369496
0.368805
0.368132
0.367477
0.366839
0.366216
0.365609
0.365017
0.36444
0.363876
0.363325
0.362787
0.362261
0.361747
0.361245
0.360753
0.360273
0.359803
0.359344
0.358894
0.358455
0.358024
0.357603
0.357191
0.356788
0.356393
0.356007
0.355629
0.355261
0.354909
0.374062
0.373248
0.372455
0.371682
0.37093
0.370198
0.369485
0.368791
0.368116
0.367458
0.366816
0.366191
0.365581
0.364986
0.364405
0.363838
0.363283
0.362742
0.362213
0.361696
0.36119
0.360696
0.360213
0.35974
0.359277
0.358825
0.358382
0.357949
0.357525
0.35711
0.356704
0.356306
0.355917
0.355537
0.355166
0.354812
0.374061
0.373246
0.372452
0.371678
0.370925
0.370191
0.369477
0.368781
0.368103
0.367443
0.366799
0.366171
0.365559
0.364961
0.364377
0.363807
0.363251
0.362707
0.362175
0.361655
0.361147
0.36065
0.360164
0.359689
0.359224
0.358769
0.358324
0.357888
0.357462
0.357045
0.356637
0.356237
0.355846
0.355463
0.355091
0.354734
0.374061
0.373245
0.37245
0.371676
0.370921
0.370186
0.36947
0.368773
0.368094
0.367432
0.366786
0.366156
0.365542
0.364942
0.364356
0.363784
0.363226
0.36268
0.362146
0.361624
0.361114
0.360615
0.360127
0.35965
0.359183
0.358726
0.358279
0.357842
0.357413
0.356995
0.356584
0.356183
0.35579
0.355406
0.355032
0.354674
0.37406
0.373244
0.372449
0.371674
0.370919
0.370183
0.369466
0.368768
0.368087
0.367424
0.366777
0.366146
0.36553
0.364929
0.364341
0.363768
0.363208
0.36266
0.362125
0.361602
0.36109
0.36059
0.3601
0.359621
0.359153
0.358695
0.358246
0.357807
0.357378
0.356958
0.356546
0.356144
0.35575
0.355365
0.354989
0.35463
0.37406
0.373244
0.372449
0.371673
0.370918
0.370182
0.369465
0.368766
0.368084
0.36742
0.366772
0.36614
0.365523
0.364921
0.364333
0.363759
0.363197
0.362649
0.362112
0.361588
0.361075
0.360574
0.360084
0.359604
0.359134
0.358675
0.358226
0.357786
0.357356
0.356935
0.356523
0.356119
0.355725
0.355339
0.354962
0.354603
0.37406
0.373245
0.372449
0.371674
0.370918
0.370182
0.369465
0.368766
0.368084
0.36742
0.366772
0.366139
0.365522
0.364919
0.364331
0.363756
0.363194
0.362645
0.362108
0.361583
0.36107
0.360568
0.360077
0.359597
0.359127
0.358668
0.358218
0.357778
0.357347
0.356926
0.356513
0.356109
0.355714
0.355328
0.354952
0.354592
0.374061
0.373245
0.37245
0.371675
0.37092
0.370184
0.369467
0.368768
0.368087
0.367422
0.366774
0.366142
0.365525
0.364922
0.364334
0.363759
0.363197
0.362648
0.362111
0.361586
0.361073
0.360571
0.36008
0.3596
0.35913
0.35867
0.35822
0.35778
0.357349
0.356928
0.356515
0.356112
0.355717
0.35533
0.354954
0.354594
0.374061
0.373246
0.372452
0.371677
0.370923
0.370187
0.369471
0.368772
0.368092
0.367428
0.36678
0.366148
0.365532
0.364929
0.364341
0.363767
0.363205
0.362656
0.36212
0.361595
0.361083
0.360581
0.36009
0.35961
0.359141
0.358681
0.358232
0.357792
0.357362
0.356941
0.356529
0.356125
0.355731
0.355345
0.354969
0.354609
0.374062
0.373248
0.372454
0.37168
0.370926
0.370192
0.369476
0.368779
0.368099
0.367436
0.366789
0.366158
0.365542
0.364941
0.364353
0.363779
0.363219
0.362671
0.362135
0.361611
0.361099
0.360598
0.360108
0.359629
0.35916
0.358702
0.358253
0.357814
0.357384
0.356964
0.356552
0.35615
0.355756
0.35537
0.354995
0.354636
0.374063
0.37325
0.372457
0.371684
0.370931
0.370198
0.369484
0.368787
0.368109
0.367447
0.366801
0.366171
0.365557
0.364956
0.36437
0.363798
0.363238
0.362691
0.362157
0.361634
0.361123
0.360623
0.360134
0.359656
0.359189
0.358731
0.358283
0.357845
0.357416
0.356997
0.356586
0.356184
0.355791
0.355407
0.355032
0.354674
0.374065
0.373252
0.372461
0.371689
0.370938
0.370206
0.369493
0.368798
0.368121
0.367461
0.366817
0.366189
0.365576
0.364977
0.364393
0.363822
0.363264
0.362718
0.362185
0.361664
0.361155
0.360656
0.360169
0.359692
0.359226
0.358769
0.358323
0.357886
0.357458
0.35704
0.35663
0.356229
0.355836
0.355452
0.355078
0.35472
0.374066
0.373255
0.372465
0.371695
0.370946
0.370216
0.369505
0.368812
0.368137
0.367479
0.366837
0.366211
0.3656
0.365004
0.364421
0.363852
0.363297
0.362753
0.362222
0.361703
0.361195
0.360698
0.360212
0.359737
0.359272
0.358816
0.358371
0.357935
0.357507
0.357089
0.35668
0.356279
0.355886
0.355502
0.355127
0.354769
0.374069
0.373259
0.372471
0.371703
0.370956
0.370228
0.36952
0.36883
0.368157
0.367502
0.366863
0.36624
0.365631
0.365037
0.364457
0.363891
0.363337
0.362796
0.362267
0.361749
0.361243
0.360747
0.360262
0.359788
0.359323
0.358868
0.358422
0.357985
0.357557
0.357138
0.356727
0.356324
0.35593
0.355543
0.355166
0.354805
0.374071
0.373264
0.372478
0.371713
0.370969
0.370244
0.369539
0.368852
0.368183
0.367531
0.366895
0.366275
0.365669
0.365078
0.364501
0.363936
0.363385
0.362845
0.362317
0.3618
0.361293
0.360798
0.360312
0.359836
0.359369
0.358911
0.358463
0.358022
0.357591
0.357167
0.356751
0.356344
0.355943
0.355551
0.355168
0.3548
0.374075
0.373271
0.372488
0.371726
0.370985
0.370264
0.369562
0.36888
0.368214
0.367566
0.366934
0.366317
0.365714
0.365125
0.364549
0.363985
0.363434
0.362893
0.362364
0.361844
0.361335
0.360835
0.360344
0.359862
0.359389
0.358924
0.358467
0.358019
0.357577
0.357144
0.356718
0.356299
0.355887
0.355483
0.355087
0.354707
0.374079
0.373279
0.3725
0.371742
0.371005
0.370289
0.369592
0.368914
0.368253
0.367608
0.366978
0.366363
0.365761
0.365172
0.364594
0.364028
0.363472
0.362925
0.362389
0.361861
0.361342
0.360831
0.360328
0.359833
0.359345
0.358865
0.358392
0.357927
0.357468
0.357016
0.356571
0.356133
0.355701
0.355277
0.354861
0.35446
0.374085
0.373289
0.372515
0.371763
0.371032
0.370321
0.369629
0.368954
0.368296
0.367652
0.367023
0.366405
0.365799
0.365203
0.364617
0.36404
0.363471
0.36291
0.362357
0.36181
0.361271
0.360738
0.360212
0.359693
0.35918
0.358673
0.358173
0.357679
0.357192
0.356711
0.356236
0.355767
0.355305
0.35485
0.354403
0.353972
0.374093
0.373303
0.372536
0.371789
0.371064
0.370358
0.36967
0.368997
0.368337
0.367689
0.367052
0.366423
0.365803
0.36519
0.364583
0.363982
0.363387
0.362797
0.362213
0.361633
0.361059
0.36049
0.359926
0.359367
0.358814
0.358266
0.357724
0.357188
0.356658
0.356134
0.355615
0.355104
0.354598
0.3541
0.353609
0.353136
0.374103
0.373322
0.372562
0.371823
0.371102
0.370399
0.369709
0.369029
0.368359
0.367694
0.367036
0.366381
0.36573
0.365082
0.364436
0.363793
0.363152
0.362514
0.361879
0.361247
0.360618
0.359993
0.359372
0.358756
0.358144
0.357538
0.356936
0.356341
0.355751
0.355167
0.35459
0.354019
0.353455
0.352898
0.352351
0.351822
0.374117
0.373346
0.372595
0.371861
0.371141
0.370431
0.369727
0.369026
0.368327
0.367626
0.366924
0.36622
0.365514
0.364806
0.364096
0.363385
0.362673
0.361962
0.361251
0.360542
0.359834
0.35913
0.358429
0.357732
0.357039
0.356351
0.355669
0.354993
0.354323
0.35366
0.353004
0.352355
0.351714
0.351081
0.350458
0.349855
0.374136
0.373378
0.372633
0.371896
0.371164
0.37043
0.369691
0.368943
0.368186
0.367419
0.366642
0.365856
0.365062
0.364261
0.363453
0.362642
0.361826
0.361008
0.36019
0.359371
0.358553
0.357738
0.356926
0.356118
0.355315
0.354517
0.353726
0.352942
0.352165
0.351396
0.350636
0.349884
0.349142
0.348409
0.347688
0.34699
0.374161
0.373415
0.372668
0.371912
0.371141
0.370353
0.369542
0.368708
0.367852
0.366976
0.36608
0.365168
0.364241
0.363301
0.362351
0.361393
0.360428
0.359458
0.358487
0.357514
0.356542
0.355572
0.354607
0.353646
0.352691
0.351744
0.350804
0.349873
0.348952
0.348042
0.347142
0.346253
0.345377
0.344512
0.343662
0.342839
0.374192
0.373451
0.372681
0.37187
0.371019
0.370126
0.369191
0.368214
0.367201
0.366153
0.365075
0.363971
0.362844
0.361698
0.360536
0.359362
0.358178
0.356988
0.355794
0.3546
0.353407
0.352217
0.351034
0.349858
0.34869
0.347533
0.346388
0.345256
0.344137
0.343033
0.341944
0.340871
0.339815
0.338776
0.337755
0.336766
0.374227
0.373468
0.372632
0.371709
0.37071
0.369638
0.368496
0.367288
0.366021
0.364703
0.363338
0.361933
0.360494
0.359028
0.357539
0.356034
0.354517
0.352993
0.351466
0.349941
0.348421
0.346909
0.345408
0.343921
0.342449
0.340996
0.339562
0.338149
0.336758
0.335391
0.334048
0.33273
0.331437
0.33017
0.328931
0.327731
0.374255
0.373431
0.372454
0.371325
0.370066
0.368685
0.367189
0.365589
0.363896
0.36212
0.360274
0.358368
0.356414
0.354422
0.352403
0.350365
0.348318
0.34627
0.344228
0.342199
0.340188
0.3382
0.336239
0.334309
0.332414
0.330554
0.328734
0.326954
0.325216
0.323521
0.32187
0.320264
0.318702
0.317186
0.315716
0.314301
0.374259
0.373281
0.372033
0.370523
0.368782
0.36683
0.364679
0.362352
0.359872
0.357264
0.354552
0.351759
0.348909
0.346025
0.343126
0.340232
0.33736
0.334523
0.331735
0.329005
0.326343
0.323754
0.321245
0.318818
0.316478
0.314225
0.312064
0.309994
0.308016
0.30613
0.304336
0.302632
0.30102
0.299495
0.298059
0.296714
0.374231
0.372961
0.371181
0.368912
0.366202
0.363097
0.359645
0.355907
0.351947
0.347832
0.343629
0.339398
0.335198
0.331077
0.327082
0.323246
0.319605
0.316178
0.312984
0.310023
0.307305
0.304822
0.302579
0.300564
0.298782
0.297216
0.29587
0.294728
0.293793
0.293047
0.292494
0.292115
0.291916
0.291877
0.292004
0.292277
0.374444
0.373038
0.370573
0.367187
0.363067
0.358382
0.35333
0.348119
0.342955
0.338014
0.333464
0.329432
0.326038
0.32335
0.321433
0.320298
0.319962
0.320384
0.321453
0.323066
0.325172
0.32769
0.330592
0.333814
0.337341
0.341119
0.345143
0.349363
0.353783
0.358355
0.36309
0.367941
0.372925
0.377995
0.383176
0.388412
0.382616
0.391983
0.401166
0.410028
0.418196
0.425407
0.431843
0.437875
0.443894
0.450264
0.457308
0.465288
0.474419
0.484841
0.496645
0.509804
0.524222
0.539521
0.554086
0.567985
0.581259
0.593949
0.606087
0.617705
0.628833
0.639492
0.649713
0.659512
0.668916
0.677937
0.686603
0.694919
0.702914
0.710588
0.717972
0.725048
0.690163
0.947965
1.13653
1.26043
1.33219
1.36509
1.37008
1.35601
1.32938
1.29507
1.25633
1.21565
1.1745
1.13414
1.09512
1.05805
1.02299
0.990202
0.95955
0.931028
0.904397
0.879667
0.856594
0.835202
0.815251
0.796781
0.779554
0.763626
0.74876
0.735031
0.722203
0.710367
0.699289
0.689073
0.679488
0.670658
6.7154e-08
7.73387e-07
2.65171e-06
6.58406e-06
1.32687e-05
2.34182e-05
3.80002e-05
5.89845e-05
9.2462e-05
0.000137523
0.000190107
0.000250951
0.000340589
0.000455644
0.000582923
0.000716549
0.000852154
0.00098707
0.001119
0.0012472
0.00137053
0.00148785
0.00159852
0.00170213
0.00179846
0.00188739
0.00196886
0.00204285
0.00210936
0.00216841
0.00222006
0.00226436
0.00230138
0.00233122
0.00235398
0.00236978
0.00237875
0.00238107
0.00237687
0.00236636
0.00234974
0.00232791
0.00230687
0.00228294
0.00225428
0.00222023
0.00218114
0.0021372
0.00208863
0.00203569
0.0019787
0.00191799
0.00185398
0.00178708
0.00171777
0.00164654
0.00157389
0.00150034
0.00142644
0.0013527
0.00127967
0.00120785
0.00113775
0.00106985
0.00100457
0.000942331
0.000883477
0.000828315
0.000777096
0.000730016
0.000687216
0.000648789
0.000614781
0.000585206
0.000560047
0.000539277
0.000522862
0.000510781
0.000503122
0.000501376
0.000505434
0.000514343
0.000528308
0.000548005
0.000573765
0.000605924
0.000644901
0.00069116
0.000745182
0.000807434
0.000878319
0.000958123
0.00104695
0.00114467
0.00125093
0.00136513
0.00148647
0.00161395
0.00174649
0.00188295
0.00202235
0.00216404
0.00230781
0.00245321
0.00260009
0.00274822
0.00289654
0.00304205
0.00318345
0.00332305
0.00345897
0.00358501
0.00369964
0.00380802
0.00389914
0.00398059
0.00403825
0.00404189
0.00399777
0.00392706
0.00390555
0.00415879
0.00532442
0.0069654
0.00755192
0.00676135
0.00630667
0.00573245
0.0051421
0.0059222
0.0129189
0.0218619
0.0313425
0.0407946
0.0498884
0.0585107
0.0666123
0.0742128
0.0813379
0.0880353
0.0943446
0.100312
0.105975
0.11137
0.116527
0.121476
0.126239
0.130839
0.135293
0.139617
0.143825
0.147928
0.151937
0.15586
0.159705
0.163478
0.167184
0.170827
0.174412
0.177941
0.181419
0.18485
0.188237
0.191583
0.194889
0.198157
0.201388
0.204584
0.207744
0.21087
0.213962
0.21702
0.220045
0.223037
0.225996
0.228921
0.231812
0.23467
0.237492
0.240279
0.24303
0.245744
0.24842
0.251057
0.253655
0.256212
0.258728
0.2612
0.263629
0.266012
0.26835
0.27064
0.272883
0.275077
0.277223
0.27932
0.281369
0.28337
0.285326
0.287237
0.289107
0.290947
0.292775
0.294549
0.29626
0.297907
0.299488
0.301002
0.302448
0.303823
0.305127
0.306357
0.307514
0.308596
0.309602
0.310532
0.311383
0.312157
0.312851
0.313466
0.314001
0.314456
0.314829
0.315118
0.315319
0.31543
0.315458
0.315404
0.315272
0.315061
0.314774
0.314411
0.313975
0.313467
0.312889
0.312242
0.311528
0.310749
0.309907
0.309004
0.308042
0.307022
0.305946
0.304816
0.303634
0.3024
0.301117
0.299785
0.298405
0.296978
0.295505
0.293986
0.292422
0.290811
0.289155
0.287453
0.285704
0.283907
0.282061
0.280165
0.278218
0.276219
0.274164
0.272054
0.269886
0.267657
0.265367
0.263014
0.260594
0.258108
0.255553
0.252927
0.25023
0.24746
0.244616
0.241698
0.238705
0.235638
0.232498
0.229286
0.226003
0.222652
0.219236
0.215757
0.212221
0.208632
0.204995
0.201317
0.197605
0.193867
0.190109
0.186343
0.182575
0.178818
0.175081
0.171375
0.16771
0.1641
0.160554
0.157084
0.153702
0.150419
0.147246
0.144194
0.141273
0.138493
0.135866
0.133404
0.131132
0.129094
0.12739
0.126019
0.124903
0.124055
0.123484
0.123197
0.123196
0.123484
0.124059
0.124917
0.126052
0.127455
0.129114
0.131014
0.133139
0.135472
0.137995
0.140691
0.143538
0.146518
0.149608
0.152789
0.156039
0.159341
0.162673
0.166017
0.169357
0.172674
0.175953
0.179179
0.182337
0.185416
0.188404
0.19129
0.194068
0.196729
0.199272
0.201697
0.204006
0.206206
0.208435
0.210576
0.212637
0.214618
0.216501
0.21827
0.219835
0.220639
0.220066
0.218234
7.95285e-07
2.21721e-06
1.28941e-05
4.05847e-05
9.77824e-05
0.000208549
0.000414288
0.000779037
0.0012993
0.00197386
0.0027151
0.00349816
0.00429505
0.00508139
0.00583826
0.00655267
0.00721729
0.00782697
0.0083798
0.00887599
0.00931703
0.00970528
0.0100436
0.0103351
0.0105829
0.0107899
0.0109591
0.0110932
0.0111946
0.0112656
0.0113084
0.0113248
0.0113166
0.0112854
0.0112327
0.0111597
0.0110678
0.0109581
0.0108317
0.0106895
0.0105323
0.0103589
0.0101599
0.00993582
0.00968839
0.00942513
0.00916271
0.00889805
0.00863053
0.00835996
0.00808655
0.00781076
0.00753327
0.0072549
0.00697659
0.00669931
0.0064241
0.00615199
0.00588401
0.00562119
0.00536448
0.00511483
0.00487311
0.00464015
0.0044167
0.00420344
0.00400098
0.00380988
0.0036306
0.00346356
0.00330912
0.00316759
0.00303928
0.00292447
0.0028235
0.00273676
0.00266473
0.00260803
0.00256718
0.00254009
0.00252608
0.00252742
0.00255723
0.00262575
0.00273122
0.00287523
0.00306107
0.00329235
0.00357299
0.00390704
0.00429818
0.00474911
0.00526109
0.00583368
0.00646482
0.00715115
0.00788789
0.00866911
0.00948795
0.0103372
0.0112107
0.0121064
0.0130262
0.0139676
0.0149291
0.0159094
0.0169009
0.0178901
0.0188858
0.0199515
0.0210654
0.022218
0.0234109
0.0246954
0.026082
0.0274058
0.0284667
0.0291909
0.0299125
0.0309133
0.0331713
0.0393062
0.0502267
0.0564645
0.058316
0.0588231
0.0594418
0.0622661
0.0677223
0.0758829
0.0865858
0.0991587
0.112155
0.125142
0.137942
0.150441
0.162598
0.174374
0.185764
0.196763
0.207387
0.21765
0.22758
0.237199
0.246535
0.255613
0.264459
0.273097
0.281548
0.289832
0.297968
0.30597
0.313854
0.321633
0.329318
0.336919
0.344445
0.351905
0.359306
0.366655
0.373953
0.381204
0.38841
0.395575
0.402704
0.409799
0.416862
0.423895
0.430899
0.437877
0.44483
0.451757
0.458661
0.46554
0.472395
0.479226
0.486033
0.492816
0.499572
0.506303
0.513005
0.519679
0.526323
0.532936
0.539514
0.546058
0.552564
0.559031
0.565456
0.571837
0.578172
0.584459
0.590695
0.59688
0.603011
0.609088
0.61511
0.621079
0.626998
0.632869
0.638653
0.644306
0.649818
0.655242
0.660589
0.665855
0.671037
0.676131
0.681133
0.686042
0.690852
0.695563
0.700169
0.70467
0.709061
0.713342
0.71751
0.721562
0.725499
0.729318
0.73302
0.736603
0.74007
0.74342
0.746656
0.749783
0.752785
0.755658
0.758405
0.761026
0.763521
0.765891
0.768139
0.770265
0.772271
0.774158
0.775929
0.777585
0.779128
0.780561
0.781883
0.783098
0.784207
0.785211
0.786111
0.786907
0.787601
0.788193
0.788681
0.789066
0.789347
0.789522
0.789589
0.789545
0.789389
0.789116
0.788723
0.788206
0.787559
0.786779
0.78586
0.784795
0.78358
0.782208
0.780673
0.778968
0.777086
0.775023
0.77277
0.770323
0.767674
0.764819
0.761752
0.758469
0.754965
0.751237
0.747282
0.743099
0.738687
0.734046
0.729178
0.724086
0.718773
0.713246
0.707511
0.701576
0.695453
0.689153
0.682689
0.676076
0.66933
0.662471
0.655516
0.648487
0.641405
0.634294
0.627177
0.620078
0.613024
0.606038
0.599147
0.592376
0.585749
0.579291
0.573026
0.566976
0.561165
0.555618
0.55038
0.545524
0.54088
0.536485
0.532582
0.529222
0.526438
0.524253
0.522687
0.521754
0.521462
0.521813
0.522801
0.524416
0.526644
0.529459
0.532833
0.53673
0.541117
0.545962
0.551227
0.556873
0.562861
0.569153
0.575708
0.58249
0.589461
0.596586
0.603831
0.611163
0.618552
0.625968
0.633384
0.640776
0.64812
0.655398
0.662589
0.669684
0.676673
0.683543
0.690376
0.696867
0.702961
0.708975
0.71492
0.720764
0.726418
0.73171
0.73628
0.739207
0.739269
0.735183
1.98937e-06
6.50495e-06
4.19485e-05
0.000145094
0.000373166
0.000834961
0.00160869
0.00263994
0.00387413
0.00524591
0.00669412
0.00817088
0.00963943
0.0110727
0.0124514
0.0137624
0.0149976
0.0161527
0.0172269
0.0182212
0.0191381
0.0199809
0.0207534
0.0214593
0.0221024
0.0226864
0.0232146
0.02369
0.0241156
0.0244939
0.0248271
0.0251172
0.0253661
0.0255753
0.0257462
0.0258801
0.0259782
0.0260414
0.0260707
0.0260669
0.0260308
0.0259627
0.0258625
0.0257296
0.0255622
0.0253534
0.0250913
0.0247863
0.0244517
0.0240876
0.0236946
0.0232737
0.0228263
0.0223543
0.0218597
0.0213448
0.0208123
0.0202647
0.0197051
0.0191365
0.018562
0.0179849
0.0174084
0.0168358
0.0162705
0.0157158
0.015175
0.0146513
0.0141478
0.0136676
0.0132138
0.0127894
0.0123974
0.0120407
0.0117225
0.0114463
0.0112158
0.011035
0.010909
0.0108429
0.0108427
0.0109144
0.011055
0.0112655
0.0115614
0.0119751
0.0125226
0.013209
0.0140408
0.0150243
0.0161627
0.0174548
0.0188957
0.0204778
0.0221924
0.0240326
0.0259885
0.0280485
0.0302009
0.0324351
0.034745
0.0371447
0.0396619
0.0422835
0.0450081
0.0478394
0.0507887
0.0538754
0.0570937
0.0604285
0.0639145
0.0675933
0.0714655
0.0758919
0.0809672
0.086633
0.0920219
0.0968289
0.101183
0.104437
0.10649
0.107756
0.108644
0.109301
0.110687
0.11363
0.1192
0.128174
0.140437
0.155646
0.173241
0.192321
0.212009
0.231797
0.251332
0.2704
0.288865
0.306658
0.323754
0.34016
0.355906
0.371035
0.385594
0.399636
0.413211
0.426367
0.439147
0.451593
0.46374
0.475621
0.487265
0.498696
0.509937
0.521008
0.531925
0.542704
0.553357
0.563896
0.57433
0.58467
0.594921
0.605091
0.615185
0.625209
0.635167
0.645062
0.654899
0.664681
0.674409
0.684086
0.693713
0.703292
0.712825
0.72231
0.73175
0.741144
0.750493
0.759795
0.76905
0.778258
0.787418
0.796528
0.805587
0.814594
0.823547
0.832444
0.841284
0.850064
0.858783
0.867438
0.876027
0.884549
0.893001
0.901382
0.909689
0.917923
0.926082
0.934167
0.942179
0.950038
0.95776
0.965375
0.972886
0.980294
0.987596
0.994789
1.00187
1.00883
1.01567
1.02238
1.02896
1.03541
1.04172
1.0479
1.05392
1.05981
1.06554
1.07112
1.07654
1.08181
1.08692
1.09188
1.09667
1.1013
1.10577
1.11007
1.11421
1.11819
1.122
1.12566
1.12914
1.13247
1.13565
1.13866
1.14152
1.14423
1.14679
1.14921
1.15147
1.1536
1.15559
1.15744
1.15915
1.16073
1.16217
1.16348
1.16466
1.16571
1.16662
1.16739
1.16803
1.16853
1.16889
1.1691
1.16916
1.16906
1.1688
1.16838
1.16778
1.16699
1.16602
1.16485
1.16348
1.16189
1.16008
1.15804
1.15576
1.15322
1.15044
1.14738
1.14406
1.14045
1.13656
1.13237
1.12789
1.12311
1.11803
1.11265
1.10696
1.10098
1.09469
1.08812
1.08126
1.07413
1.06674
1.0591
1.05123
1.04314
1.03486
1.02641
1.01782
1.0091
1.00029
0.99142
0.982518
0.973617
0.96475
0.955953
0.947259
0.938705
0.930324
0.922153
0.914227
0.906579
0.899244
0.892256
0.885653
0.879475
0.873773
0.868589
0.863763
0.859483
0.85585
0.85291
0.850691
0.849212
0.848489
0.848531
0.849337
0.850904
0.853217
0.856259
0.860005
0.864423
0.869477
0.875124
0.881319
0.88802
0.89518
0.902751
0.910686
0.918937