/*--------------------------------*- C++ -*----------------------------------*\
| =========                 |                                                 |
| \\      /  F ield         | OpenFOAM: The Open Source CFD Toolbox           |
|  \\    /   O peration     | Version:  2.4.0                                 |
|   \\  /    A nd           | Web:      www.OpenFOAM.org                      |
|    \\/     M anipulation  |                                                 |
\*---------------------------------------------------------------------------*/
FoamFile
{
    version     2.0;
    format      ascii;
    class       volScalarField;
    location    "0.1";
    object      p;
}
// * * * * * * * * * * * * * * * * * * * * * * * * * * * * * * * * * * * * * //

dimensions      [0 2 -2 0 0 0 0];

internalField   nonuniform List<scalar> 
1600
(
1.76071e-07
2.35745
3.47521
3.92476
4.15902
4.29814
4.38421
4.44116
4.48184
4.51286
4.53793
4.5593
4.57836
4.59604
4.61293
4.62943
4.6458
4.66218
4.67869
4.69539
4.71231
4.72952
4.74706
4.76504
4.78358
4.80292
4.82335
4.84535
4.8696
4.89709
4.92931
4.96858
5.01867
5.08628
5.18427
5.33715
5.58914
6.06261
7.20871
9.59539
1.85444
2.79674
3.41992
3.78347
4.02277
4.18459
4.29453
4.37167
4.42815
4.4713
4.50568
4.53424
4.55892
4.58104
4.60147
4.62083
4.63954
4.65789
4.6761
4.69433
4.71273
4.73144
4.75059
4.77039
4.79108
4.81302
4.83669
4.86275
4.89218
4.92635
4.96728
5.01799
5.08316
5.17019
5.2914
5.46632
5.72139
6.1036
6.74868
7.71709
2.95488
3.24772
3.55736
3.80893
4.00286
4.14799
4.25537
4.33568
4.39707
4.44526
4.48425
4.51682
4.54491
4.56988
4.59271
4.61409
4.63451
4.65434
4.67386
4.6933
4.71285
4.73271
4.75308
4.77422
4.79644
4.82017
4.84596
4.87456
4.90703
4.9448
4.9899
5.04518
5.11473
5.20434
5.32225
5.47928
5.68653
5.95205
6.27569
6.58328
3.52171
3.59295
3.74574
3.90673
4.04643
4.16098
4.25281
4.32601
4.38477
4.43264
4.47243
4.5063
4.53586
4.56229
4.5865
4.60913
4.63069
4.65156
4.67203
4.69235
4.71276
4.73346
4.7547
4.77675
4.79995
4.82474
4.85167
4.88148
4.91514
4.95392
4.99951
5.05413
5.12064
5.20261
5.30417
5.42931
5.58008
5.75163
5.91328
5.99127
3.85432
3.84641
3.91565
4.01298
4.10847
4.19426
4.26839
4.33116
4.38405
4.42886
4.46729
4.50077
4.53051
4.55743
4.58228
4.60561
4.62788
4.64945
4.67059
4.69157
4.71261
4.73393
4.75578
4.77844
4.80224
4.8276
4.85502
4.88515
4.91882
4.95704
5.00107
5.05241
5.11276
5.18385
5.26698
5.36212
5.46673
5.572
5.64672
5.64068
4.06719
4.03227
4.05716
4.11276
4.17554
4.23745
4.29495
4.34656
4.39218
4.43238
4.468
4.49987
4.52877
4.55535
4.58017
4.60368
4.62624
4.64816
4.66969
4.69107
4.71251
4.73422
4.75644
4.77942
4.80346
4.82894
4.8563
4.88605
4.91885
4.95541
4.99658
5.04321
5.09607
5.1556
5.22142
5.29155
5.3618
5.42328
5.45122
5.41549
4.2114
4.16997
4.17232
4.20171
4.24127
4.28442
4.32756
4.3686
4.40664
4.44154
4.47352
4.50296
4.53027
4.55587
4.58011
4.60333
4.6258
4.64775
4.6694
4.69094
4.71255
4.73443
4.75677
4.77981
4.8038
4.82904
4.85589
4.88474
4.91603
4.95024
4.98782
5.02912
5.07424
5.12282
5.17359
5.22392
5.26957
5.30324
5.30704
5.26352
4.31504
4.27419
4.26525
4.27842
4.30192
4.3309
4.36231
4.39406
4.42498
4.45453
4.48256
4.50913
4.5344
4.55856
4.58183
4.6044
4.62646
4.64817
4.6697
4.69118
4.71277
4.73462
4.7569
4.77978
4.80348
4.82822
4.85426
4.88186
4.9113
4.94281
4.97654
5.01248
5.0503
5.0892
5.12758
5.16278
5.19121
5.20745
5.19896
5.15554
4.39341
4.35497
4.34035
4.34345
4.35596
4.37448
4.39665
4.42062
4.44521
4.46975
4.49388
4.51745
4.54045
4.56293
4.58495
4.60662
4.62804
4.6493
4.67051
4.69177
4.71318
4.73485
4.75691
4.77949
4.80274
4.82681
4.85185
4.87803
4.90545
4.93418
4.96413
4.99504
5.02635
5.05705
5.08552
5.10941
5.12587
5.13112
5.11635
5.07529
4.45482
4.41884
4.40131
4.3981
4.4031
4.41399
4.429
4.44664
4.46584
4.48589
4.50638
4.52703
4.54773
4.56841
4.58905
4.60967
4.63029
4.65096
4.67172
4.69263
4.71375
4.73514
4.75688
4.77906
4.80175
4.82505
4.84903
4.87372
4.89914
4.92517
4.9516
4.97801
5.0037
5.02763
5.04831
5.06379
5.07193
5.07018
5.05216
5.01377
4.50401
4.47004
4.45099
4.44375
4.44357
4.44889
4.45845
4.47104
4.48574
4.50192
4.51914
4.53709
4.55558
4.57448
4.5937
4.6132
4.63295
4.65294
4.67317
4.69365
4.7144
4.73545
4.75682
4.77854
4.80066
4.82317
4.84608
4.86935
4.89286
4.91641
4.93968
4.96217
4.98313
5.00157
5.0162
5.02543
5.02773
5.02143
5.00172
4.96566
4.54381
4.51134
4.49144
4.48155
4.47778
4.47905
4.48446
4.49306
4.5041
4.51703
4.53141
4.54694
4.56339
4.58061
4.59846
4.61685
4.63572
4.65501
4.67468
4.69471
4.71507
4.73575
4.75673
4.77801
4.79955
4.82132
4.84324
4.86519
4.88698
4.90834
4.92887
4.94803
4.96509
4.97914
4.98907
4.99365
4.99181
4.98249
4.96188
4.92767
4.576
4.54456
4.52414
4.51246
4.50615
4.50446
4.50673
4.51223
4.52034
4.53058
4.54256
4.556
4.57065
4.58635
4.60293
4.62029
4.63831
4.65693
4.67606
4.69564
4.71563
4.73597
4.7566
4.77747
4.79851
4.81962
4.84066
4.86147
4.88178
4.90127
4.91949
4.9359
4.94979
4.96037
4.96669
4.9678
4.96297
4.95158
4.93045
4.89765
4.60171
4.57093
4.55014
4.53721
4.52908
4.52521
4.52513
4.52824
4.53403
4.5421
4.55211
4.56379
4.57691
4.59128
4.60675
4.62319
4.64046
4.65847
4.67712
4.69631
4.71598
4.73603
4.75638
4.77693
4.79757
4.81814
4.83848
4.85834
4.87744
4.8954
4.91175
4.92594
4.93733
4.94519
4.94876
4.94727
4.94026
4.9274
4.90593
4.87414
4.62169
4.59128
4.57018
4.55634
4.54689
4.54141
4.53957
4.54087
4.54487
4.55124
4.55967
4.56992
4.58178
4.59506
4.60961
4.62527
4.64192
4.65942
4.67768
4.69658
4.71601
4.73587
4.75603
4.77637
4.79673
4.81693
4.83675
4.85591
4.87408
4.89086
4.90577
4.91826
4.92772
4.93351
4.93499
4.93156
4.92295
4.90901
4.88727
4.85611
4.63643
4.60614
4.58474
4.57022
4.5598
4.55316
4.55002
4.54997
4.55263
4.55771
4.56494
4.57409
4.58497
4.5974
4.61122
4.62629
4.64246
4.65961
4.6776
4.69631
4.71562
4.7354
4.7555
4.77576
4.79601
4.81602
4.83554
4.85425
4.8718
4.88776
4.90163
4.91288
4.92093
4.92521
4.92516
4.9203
4.9105
4.89574
4.8737
4.84287
4.64622
4.61586
4.59417
4.57912
4.56799
4.56051
4.55645
4.55544
4.55715
4.56131
4.56767
4.57604
4.58622
4.59805
4.61138
4.62605
4.64192
4.65886
4.67673
4.69539
4.71472
4.73455
4.75473
4.77508
4.79539
4.81541
4.83486
4.8534
4.87064
4.88613
4.89938
4.90983
4.91695
4.9202
4.91908
4.91321
4.90252
4.88711
4.86475
4.83394
4.65125
4.62067
4.59866
4.58319
4.57155
4.5635
4.55883
4.55719
4.55829
4.56186
4.56769
4.57557
4.58534
4.59683
4.60989
4.62437
4.64013
4.65704
4.67495
4.69372
4.71321
4.73326
4.75368
4.77429
4.79486
4.81511
4.83475
4.8534
4.87065
4.88604
4.89905
4.90914
4.91576
4.91841
4.91664
4.91009
4.89878
4.88284
4.86008
4.82902
4.65159
4.62064
4.59829
4.58249
4.57051
4.56211
4.5571
4.55514
4.55594
4.55925
4.56485
4.57255
4.58218
4.59359
4.60662
4.62114
4.637
4.65406
4.67219
4.69124
4.71105
4.73147
4.75231
4.77337
4.7944
4.81511
4.83519
4.85425
4.87184
4.88749
4.90067
4.91081
4.91738
4.91986
4.9178
4.91089
4.89917
4.88279
4.85956
4.82798
4.64725
4.6158
4.59309
4.57702
4.56484
4.5563
4.5512
4.54921
4.55001
4.55336
4.55904
4.56686
4.57664
4.58824
4.60149
4.61627
4.63244
4.64985
4.66838
4.68787
4.70819
4.72916
4.7506
4.77229
4.79399
4.81541
4.8362
4.85596
4.87425
4.89054
4.90429
4.91492
4.92185
4.92456
4.92259
4.91563
4.90369
4.88695
4.86316
4.83079
4.63814
4.60605
4.58295
4.5667
4.55446
4.54598
4.54105
4.53931
4.54043
4.54414
4.55021
4.55845
4.56867
4.58073
4.59446
4.60974
4.62643
4.64439
4.6635
4.68362
4.70461
4.7263
4.74851
4.77103
4.79362
4.81598
4.83776
4.85855
4.87788
4.8952
4.90995
4.9215
4.92925
4.93262
4.93113
4.92441
4.91246
4.89544
4.87102
4.8376
4.62412
4.59125
4.56772
4.55136
4.53923
4.53104
4.52655
4.52536
4.52712
4.53153
4.53832
4.5473
4.55827
4.57107
4.58554
4.60155
4.61898
4.63769
4.65757
4.67849
4.70031
4.72289
4.74606
4.76961
4.7933
4.81685
4.83989
4.86203
4.88275
4.90152
4.91771
4.93065
4.93969
4.9442
4.94359
4.93745
4.92573
4.90854
4.88341
4.84864
4.60496
4.57114
4.54715
4.53077
4.51893
4.51129
4.50756
4.50729
4.51005
4.51552
4.5234
4.53346
4.54549
4.55932
4.5748
4.59179
4.61017
4.62983
4.65065
4.67253
4.69535
4.71898
4.74326
4.76802
4.79302
4.81799
4.84259
4.86639
4.8889
4.90953
4.92763
4.94249
4.95335
4.95949
4.96025
4.95509
4.94388
4.92665
4.90073
4.86433
4.58036
4.54536
4.52089
4.50461
4.4933
4.48654
4.48395
4.485
4.48919
4.49614
4.5055
4.51701
4.53045
4.54562
4.56237
4.58058
4.60012
4.62091
4.64284
4.66584
4.6898
4.71462
4.74017
4.76631
4.79281
4.81944
4.84586
4.87166
4.89634
4.91929
4.93981
4.95713
4.9704
4.97878
4.98147
4.97776
4.96741
4.95033
4.92357
4.88522
4.54986
4.51342
4.48843
4.47244
4.46198
4.45651
4.45555
4.45843
4.46456
4.47347
4.48477
4.49814
4.51334
4.53017
4.54848
4.56813
4.58904
4.61113
4.63432
4.65856
4.68379
4.70992
4.73687
4.76452
4.79271
4.8212
4.84971
4.87783
4.90507
4.93082
4.95432
4.97472
4.99108
5.0024
5.00768
5.00604
4.997
4.98034
4.95272
4.91206
4.51288
4.47466
4.44913
4.43368
4.42452
4.42091
4.42219
4.42754
4.43623
4.44768
4.46143
4.47712
4.49447
4.51329
4.53341
4.55475
4.5772
4.60074
4.62531
4.6509
4.67748
4.70502
4.73347
4.76276
4.79277
4.82332
4.85415
4.88491
4.91512
4.94415
4.97122
4.99541
5.01564
5.03073
5.03945
5.04063
5.03354
5.01768
4.98923
4.94586
4.4686
4.42814
4.40208
4.38759
4.38035
4.37937
4.38373
4.39236
4.40436
4.41903
4.43582
4.45432
4.47424
4.49537
4.51759
4.5408
4.56496
4.59006
4.6161
4.64311
4.6711
4.70009
4.7301
4.7611
4.79304
4.82581
4.85919
4.89289
4.92645
4.95928
4.99057
5.01932
5.04432
5.06419
5.0774
5.08242
5.07813
5.06364
5.03446
4.98791
4.41588
4.37258
4.34609
4.33319
4.3288
4.33151
4.34003
4.35297
4.36922
4.38791
4.4084
4.43025
4.45317
4.47695
4.50149
4.52676
4.55275
4.57949
4.60704
4.63548
4.66489
4.69535
4.72693
4.75968
4.79361
4.8287
4.8648
4.9017
4.93901
4.97615
5.01235
5.04654
5.07738
5.10325
5.12228
5.13246
5.13216
5.11991
5.09023
5.03995
4.35309
4.30619
4.27952
4.26921
4.26903
4.27692
4.29105
4.30963
4.33125
4.35489
4.37983
4.40561
4.43194
4.45867
4.48575
4.5132
4.54107
4.56948
4.59853
4.62837
4.65916
4.69102
4.72413
4.7586
4.79453
4.83199
4.87094
4.91125
4.95264
4.99463
5.03645
5.07704
5.11495
5.14832
5.17487
5.19201
5.19739
5.18868
5.15898
5.10429
4.27785
4.22637
4.20011
4.19402
4.20009
4.21524
4.23691
4.26279
4.29115
4.3208
4.35099
4.38126
4.41139
4.44132
4.47107
4.50075
4.5305
4.56052
4.59099
4.62214
4.65418
4.68735
4.72187
4.75796
4.79583
4.83563
4.87747
4.92135
4.96712
5.01442
5.06261
5.11065
5.15705
5.19974
5.23599
5.2625
5.27598
5.27284
5.24402
5.18415
4.18652
4.12936
4.10476
4.10557
4.12093
4.14625
4.17801
4.21325
4.24993
4.28675
4.32299
4.35828
4.39252
4.42579
4.45825
4.49011
4.52165
4.55314
4.58487
4.61714
4.65025
4.68453
4.72027
4.75782
4.79746
4.83951
4.88419
4.93168
4.98202
5.03505
5.09031
5.14691
5.20341
5.25759
5.30632
5.3455
5.37059
5.37621
5.35
5.28416
4.0734
4.00953
3.98921
4.00135
4.03056
4.07011
4.11523
4.16232
4.20908
4.25425
4.29726
4.33797
4.37649
4.4131
4.44814
4.48202
4.51511
4.54782
4.58055
4.61367
4.64759
4.6827
4.71941
4.75814
4.79932
4.84338
4.89073
4.94175
4.99671
5.05575
5.11869
5.18494
5.25327
5.32153
5.38627
5.44256
5.48439
5.50386
5.48357
5.41126
3.92902
3.85835
3.84768
3.87847
3.92834
3.98763
4.05024
4.11202
4.17068
4.22527
4.27558
4.32185
4.36456
4.40429
4.44163
4.47716
4.51144
4.54501
4.57836
4.61198
4.64634
4.68193
4.71924
4.7588
4.80114
4.84686
4.89655
4.95082
5.01027
5.07537
5.1464
5.22326
5.3052
5.39042
5.47551
5.55489
5.62095
5.66249
5.65447
5.57648
3.73688
3.66274
3.67259
3.73412
3.81461
3.90094
3.98593
4.06539
4.13759
4.20229
4.26001
4.31162
4.3581
4.40042
4.4395
4.47614
4.51109
4.545
4.5785
4.61215
4.64651
4.68213
4.71959
4.7595
4.80253
4.84939
4.9009
4.95792
5.0214
5.09228
5.17145
5.25953
5.35663
5.46185
5.5724
5.68267
5.78378
5.86062
5.87723
5.79846
3.46668
3.40258
3.45499
3.5669
3.69211
3.81457
3.9272
4.02696
4.11362
4.18839
4.25295
4.30908
4.35843
4.40246
4.44243
4.47941
4.51432
4.54795
4.581
4.61412
4.64794
4.68306
4.72012
4.75982
4.80289
4.85022
4.90279
4.96175
5.02842
5.10429
5.191
5.29022
5.40339
5.53122
5.67268
5.82348
5.97477
6.10813
6.17368
6.11058
3.06263
3.04839
3.18635
3.37928
3.56798
3.73676
3.88158
4.0029
4.10355
4.18709
4.25692
4.31597
4.36672
4.41115
4.45087
4.4872
4.5212
4.55377
4.5857
4.61767
4.65033
4.68435
4.72038
4.75916
4.80153
4.84845
4.90106
4.96078
5.02929
5.10867
5.20143
5.31053
5.43929
5.59103
5.76813
5.97021
6.19172
6.41422
6.57479
6.57249
2.42295
2.561
2.86208
3.1795
3.45447
3.67935
3.85865
4.00022
4.11219
4.20154
4.27384
4.3334
4.3835
4.42664
4.46473
4.49926
4.5314
4.56211
4.59218
4.62233
4.65322
4.68549
4.71983
4.75696
4.79776
4.84325
4.89467
4.95362
5.0221
5.10274
5.19891
5.31504
5.4568
5.63122
5.84641
6.11011
6.42603
6.78351
7.12056
7.28976
1.31938
1.89191
2.50134
2.99651
3.37777
3.66258
3.87233
4.02778
4.14481
4.23465
4.30517
4.36191
4.4088
4.44866
4.48357
4.51506
4.54435
4.57235
4.59986
4.62755
4.65603
4.68593
4.71788
4.7526
4.7909
4.83382
4.88261
4.93892
5.00495
5.08363
5.17907
5.297
5.44553
5.63623
5.88548
6.21492
6.64659
7.19569
7.86139
8.49639
-0.846415
1.01335
2.24219
2.95717
3.42739
3.74512
3.96001
4.10925
4.21662
4.29642
4.35765
4.40616
4.44588
4.47952
4.50899
4.5357
4.5607
4.58482
4.60872
4.633
4.65818
4.68477
4.71333
4.74448
4.77893
4.81759
4.86159
4.91245
4.9722
5.04369
5.13101
5.24027
5.38079
5.5674
5.82471
6.19202
6.72283
7.51101
8.82785
10.7948
-4.5324
0.154559
2.36673
3.24966
3.70929
3.98257
4.15067
4.26022
4.3364
4.39214
4.43469
4.4685
4.49643
4.52043
4.54188
4.56177
4.58084
4.59969
4.61879
4.63854
4.65932
4.6815
4.70549
4.73172
4.76074
4.7932
4.82996
4.87212
4.9212
4.97931
5.04953
5.13653
5.2479
5.39697
5.60942
5.93456
6.46266
7.44028
9.76689
14.5734
)
;

boundaryField
{
    movingWallTop
    {
        type            zeroGradient;
    }
    movingWallBottom
    {
        type            zeroGradient;
    }
    fixedWalls
    {
        type            zeroGradient;
    }
    frontAndBack
    {
        type            empty;
    }
}


// ************************************************************************* //
