/*--------------------------------*- C++ -*----------------------------------*\
| =========                 |                                                 |
| \\      /  F ield         | OpenFOAM: The Open Source CFD Toolbox           |
|  \\    /   O peration     | Version:  2.4.0                                 |
|   \\  /    A nd           | Web:      www.OpenFOAM.org                      |
|    \\/     M anipulation  |                                                 |
\*---------------------------------------------------------------------------*/
FoamFile
{
    version     2.0;
    format      ascii;
    class       volVectorField;
    location    "100";
    object      U;
}
// * * * * * * * * * * * * * * * * * * * * * * * * * * * * * * * * * * * * * //

dimensions      [0 1 -1 0 0 0 0];

internalField   nonuniform List<vector> 
12225
(
(9.84201 0.0265336 0)
(9.55051 0.0503801 0)
(9.28326 0.0541563 0)
(8.98896 0.0551943 0)
(8.743 0.0529942 0)
(8.48561 0.0515564 0)
(8.27344 0.0473869 0)
(8.04606 0.0459197 0)
(7.86383 0.0412787 0)
(7.66372 0.0406916 0)
(7.50765 0.0357652 0)
(7.32992 0.0364373 0)
(7.19615 0.0310615 0)
(7.0348 0.0335604 0)
(6.91903 0.0272765 0)
(6.76652 0.0330874 0)
(6.6602 0.0252199 0)
(6.50579 0.0360698 0)
(10.02 0.0454452 0)
(10.0629 0.0682917 0)
(10.0806 0.0668148 0)
(10.0586 0.0654447 0)
(10.0394 0.0664953 0)
(10.001 0.065198 0)
(9.96511 0.0662606 0)
(9.91407 0.0644284 0)
(9.86693 0.066068 0)
(9.80903 0.0636547 0)
(9.75448 0.0660273 0)
(9.69218 0.0629425 0)
(9.6322 0.0665148 0)
(9.5661 0.0629876 0)
(9.50131 0.068323 0)
(9.43053 0.065383 0)
(9.3603 0.0736682 0)
(9.28295 0.0748567 0)
(10.0103 0.0388716 0)
(10.0452 0.0565865 0)
(10.0687 0.0579147 0)
(10.074 0.0619784 0)
(10.0817 0.0651684 0)
(10.0825 0.0676801 0)
(10.0843 0.068603 0)
(10.0789 0.0703232 0)
(10.0754 0.070523 0)
(10.0652 0.0721962 0)
(10.057 0.0721641 0)
(10.042 0.0741217 0)
(10.029 0.0746288 0)
(10.0089 0.077242 0)
(9.99054 0.0794351 0)
(9.9645 0.0835618 0)
(9.94025 0.0898549 0)
(9.9078 0.0973618 0)
(10.007 0.0317589 0)
(10.0347 0.0512937 0)
(10.0547 0.0559653 0)
(10.0628 0.0603193 0)
(10.0713 0.0639995 0)
(10.0767 0.0659525 0)
(10.0819 0.0679056 0)
(10.0836 0.0689722 0)
(10.0856 0.0708716 0)
(10.0845 0.0717534 0)
(10.0837 0.0740224 0)
(10.0795 0.0751803 0)
(10.0755 0.0783945 0)
(10.0679 0.0805865 0)
(10.0601 0.0854926 0)
(10.0487 0.0901933 0)
(10.0365 0.0982304 0)
(10.0214 0.107813 0)
(10.0045 0.0256903 0)
(10.027 0.0460432 0)
(10.0447 0.0522848 0)
(10.0536 0.0572928 0)
(10.0619 0.0613304 0)
(10.0684 0.0640444 0)
(10.0738 0.0662798 0)
(10.0771 0.0681727 0)
(10.0799 0.0701746 0)
(10.081 0.0720175 0)
(10.0813 0.0743353 0)
(10.0799 0.0766412 0)
(10.0776 0.0800371 0)
(10.0735 0.0835061 0)
(10.0682 0.0889969 0)
(10.0611 0.0949046 0)
(10.0527 0.104004 0)
(10.0428 0.114319 0)
(10.0028 0.0206885 0)
(10.0207 0.0406655 0)
(10.0365 0.0483393 0)
(10.0457 0.0540862 0)
(10.0538 0.0586581 0)
(10.0606 0.0618428 0)
(10.0661 0.0645373 0)
(10.0701 0.0667994 0)
(10.0732 0.069246 0)
(10.075 0.0714966 0)
(10.0759 0.0743397 0)
(10.0755 0.0772303 0)
(10.0741 0.0812307 0)
(10.0714 0.085576 0)
(10.0675 0.0917192 0)
(10.0624 0.0987714 0)
(10.0561 0.108464 0)
(10.0491 0.11979 0)
(10.0019 0.0167528 0)
(10.0154 0.0355875 0)
(10.0292 0.0442311 0)
(10.0384 0.0505933 0)
(10.0464 0.0556255 0)
(10.0532 0.0593039 0)
(10.0589 0.0624223 0)
(10.0632 0.0651405 0)
(10.0666 0.0679797 0)
(10.0689 0.0707385 0)
(10.0702 0.0740343 0)
(10.0705 0.0775545 0)
(10.0698 0.0820988 0)
(10.0682 0.0872183 0)
(10.0654 0.0939845 0)
(10.0619 0.101876 0)
(10.0574 0.11213 0)
(10.0525 0.124148 0)
(10.0013 0.0140476 0)
(10.0119 0.0316531 0)
(10.024 0.0407527 0)
(10.0327 0.0474869 0)
(10.0404 0.0528398 0)
(10.0473 0.0568901 0)
(10.053 0.0603646 0)
(10.0575 0.0634567 0)
(10.0611 0.066642 0)
(10.0638 0.0698122 0)
(10.0655 0.0734944 0)
(10.0664 0.0775052 0)
(10.0663 0.0824812 0)
(10.0654 0.0881694 0)
(10.0637 0.0953775 0)
(10.0614 0.103816 0)
(10.0584 0.114402 0)
(10.0553 0.126743 0)
(10.001 0.012033 0)
(10.0094 0.028418 0)
(10.0199 0.0377069 0)
(10.0281 0.0446849 0)
(10.0355 0.0502685 0)
(10.0422 0.054609 0)
(10.0479 0.0583811 0)
(10.0525 0.0617942 0)
(10.0563 0.0652803 0)
(10.0593 0.068803 0)
(10.0614 0.0728163 0)
(10.0627 0.0772293 0)
(10.0633 0.0825606 0)
(10.0631 0.0886826 0)
(10.0623 0.0962205 0)
(10.061 0.105024 0)
(10.0594 0.115791 0)
(10.0578 0.128246 0)
(10.0008 0.0102626 0)
(10.0072 0.0252677 0)
(10.0162 0.0345466 0)
(10.0238 0.0416372 0)
(10.0307 0.0473925 0)
(10.0371 0.0519942 0)
(10.0427 0.0560464 0)
(10.0474 0.0597755 0)
(10.0514 0.0635637 0)
(10.0547 0.0674386 0)
(10.0572 0.0717789 0)
(10.059 0.0765753 0)
(10.0602 0.0822347 0)
(10.0609 0.0887299 0)
(10.0611 0.0965226 0)
(10.061 0.105566 0)
(10.0608 0.116361 0)
(10.0609 0.128724 0)
(10.0006 0.00871261 0)
(10.0055 0.0222427 0)
(10.013 0.0313258 0)
(10.0198 0.0383905 0)
(10.0262 0.0442353 0)
(10.0323 0.0490488 0)
(10.0377 0.0533431 0)
(10.0425 0.0573601 0)
(10.0466 0.06143 0)
(10.0502 0.0656329 0)
(10.0531 0.0702726 0)
(10.0555 0.0754046 0)
(10.0575 0.081333 0)
(10.059 0.0881021 0)
(10.0603 0.0960308 0)
(10.0616 0.10514 0)
(10.0629 0.115753 0)
(10.0648 0.127758 0)
(10.0004 0.00737388 0)
(10.0041 0.0193745 0)
(10.0103 0.0280716 0)
(10.0164 0.0349796 0)
(10.0223 0.0408139 0)
(10.028 0.0457655 0)
(10.0333 0.0502439 0)
(10.038 0.0544957 0)
(10.0423 0.0587991 0)
(10.0462 0.0632717 0)
(10.0496 0.068148 0)
(10.0526 0.073525 0)
(10.0553 0.0796166 0)
(10.0579 0.0865081 0)
(10.0604 0.0943958 0)
(10.063 0.10334 0)
(10.0659 0.1135 0)
(10.0695 0.124827 0)
(10.0003 0.00622499 0)
(10.0031 0.0166814 0)
(10.0082 0.0247977 0)
(10.0136 0.0314148 0)
(10.019 0.0371206 0)
(10.0244 0.0421084 0)
(10.0295 0.0466881 0)
(10.0343 0.0510926 0)
(10.0388 0.0555498 0)
(10.043 0.0601956 0)
(10.0469 0.0652031 0)
(10.0506 0.0706869 0)
(10.0541 0.0767831 0)
(10.0577 0.0835918 0)
(10.0614 0.091205 0)
(10.0654 0.099701 0)
(10.0699 0.109098 0)
(10.0751 0.1194 0)
(10.0002 0.00522285 0)
(10.0024 0.0141519 0)
(10.0066 0.0214993 0)
(10.0114 0.0276762 0)
(10.0164 0.0331162 0)
(10.0215 0.0380058 0)
(10.0265 0.0425694 0)
(10.0314 0.0470095 0)
(10.0362 0.0515027 0)
(10.0407 0.0561839 0)
(10.0452 0.0611718 0)
(10.0496 0.0665779 0)
(10.0541 0.0724719 0)
(10.0587 0.0789489 0)
(10.0635 0.0860153 0)
(10.0688 0.0937539 0)
(10.0747 0.102068 0)
(10.0813 0.111009 0)
(10.0002 0.00431086 0)
(10.0019 0.0117345 0)
(10.0055 0.0181378 0)
(10.0098 0.0237046 0)
(10.0145 0.0287182 0)
(10.0194 0.033342 0)
(10.0245 0.0377317 0)
(10.0295 0.0420476 0)
(10.0346 0.0464155 0)
(10.0396 0.0509513 0)
(10.0446 0.0557253 0)
(10.0498 0.0608298 0)
(10.0551 0.0662804 0)
(10.0606 0.072154 0)
(10.0665 0.0783938 0)
(10.0729 0.0850753 0)
(10.0799 0.0920295 0)
(10.0876 0.0993312 0)
(10.0002 0.00342708 0)
(10.0017 0.00933245 0)
(10.0048 0.0146212 0)
(10.0088 0.0193834 0)
(10.0134 0.0237822 0)
(10.0182 0.027941 0)
(10.0234 0.03196 0)
(10.0286 0.0359519 0)
(10.034 0.0399928 0)
(10.0395 0.0441669 0)
(10.0451 0.0485022 0)
(10.051 0.0530614 0)
(10.057 0.0578205 0)
(10.0634 0.0628293 0)
(10.0701 0.0679954 0)
(10.0773 0.0733757 0)
(10.085 0.0787759 0)
(10.0934 0.0842682 0)
(10.0002 0.00250517 0)
(10.0015 0.00680322 0)
(10.0045 0.0107885 0)
(10.0084 0.0145249 0)
(10.0129 0.0180895 0)
(10.0179 0.0215557 0)
(10.0232 0.0249758 0)
(10.0288 0.0284137 0)
(10.0345 0.0318998 0)
(10.0405 0.0354789 0)
(10.0466 0.0391453 0)
(10.053 0.042927 0)
(10.0596 0.0467768 0)
(10.0665 0.0507135 0)
(10.0738 0.0546374 0)
(10.0815 0.0585772 0)
(10.0895 0.062358 0)
(10.098 0.0660203 0)
(10.0002 0.00153091 0)
(10.0016 0.00412775 0)
(10.0046 0.00667294 0)
(10.0086 0.00922334 0)
(10.0133 0.0117898 0)
(10.0185 0.0143921 0)
(10.024 0.0170418 0)
(10.0299 0.0197557 0)
(10.036 0.0225264 0)
(10.0423 0.0253601 0)
(10.0489 0.0282288 0)
(10.0556 0.0311287 0)
(10.0626 0.0340049 0)
(10.0698 0.0368483 0)
(10.0772 0.0395722 0)
(10.0849 0.0421761 0)
(10.0929 0.0445298 0)
(10.1012 0.0466296 0)
(10.0002 0.000549406 0)
(10.0017 0.00143481 0)
(10.0051 0.00254301 0)
(10.0094 0.00390996 0)
(10.0143 0.00547516 0)
(10.0198 0.00720424 0)
(10.0257 0.00907543 0)
(10.0319 0.0110624 0)
(10.0383 0.0131278 0)
(10.0448 0.0152478 0)
(10.0516 0.0173808 0)
(10.0586 0.0195007 0)
(10.0657 0.0215526 0)
(10.0729 0.0235085 0)
(10.0803 0.0252998 0)
(10.0879 0.0269043 0)
(10.0956 0.0282348 0)
(10.1034 0.0292517 0)
(10.0002 -0.000439157 0)
(10.002 -0.00126487 0)
(10.0058 -0.00150683 0)
(10.0106 -0.00121394 0)
(10.0159 -0.000546074 0)
(10.0218 0.000407731 0)
(10.028 0.00159895 0)
(10.0344 0.0029575 0)
(10.0411 0.00442328 0)
(10.0479 0.00595043 0)
(10.0548 0.00748999 0)
(10.0619 0.00900126 0)
(10.069 0.0104322 0)
(10.0762 0.0117438 0)
(10.0835 0.0128827 0)
(10.0908 0.0138131 0)
(10.0982 0.01448 0)
(10.1055 0.0148209 0)
(10.0003 -0.00148973 0)
(10.0025 -0.00409173 0)
(10.0069 -0.00557696 0)
(10.0123 -0.00622457 0)
(10.0181 -0.00632826 0)
(10.0244 -0.00603088 0)
(10.031 -0.00540154 0)
(10.0377 -0.00456115 0)
(10.0446 -0.00358382 0)
(10.0516 -0.00253135 0)
(10.0586 -0.0014555 0)
(10.0657 -0.000405873 0)
(10.0729 0.000568856 0)
(10.08 0.00142468 0)
(10.0871 0.00211917 0)
(10.0942 0.00260969 0)
(10.1012 0.00286252 0)
(10.1081 0.00280381 0)
(10.0003 -0.00267506 0)
(10.0032 -0.00716387 0)
(10.0086 -0.00973889 0)
(10.0147 -0.0111729 0)
(10.0211 -0.0119087 0)
(10.0278 -0.0121395 0)
(10.0347 -0.0119488 0)
(10.0417 -0.0115196 0)
(10.0488 -0.0109269 0)
(10.056 -0.0102438 0)
(10.0631 -0.00952143 0)
(10.0703 -0.0088132 0)
(10.0774 -0.0081659 0)
(10.0844 -0.0076225 0)
(10.0914 -0.00722027 0)
(10.0983 -0.00700237 0)
(10.105 -0.0069917 0)
(10.1116 -0.00726415 0)
(10.0004 -0.00409829 0)
(10.0043 -0.0105946 0)
(10.011 -0.0140345 0)
(10.0179 -0.0160848 0)
(10.0248 -0.017304 0)
(10.032 -0.0179316 0)
(10.0393 -0.0180587 0)
(10.0466 -0.0179425 0)
(10.0539 -0.0176416 0)
(10.0611 -0.0172365 0)
(10.0684 -0.016776 0)
(10.0755 -0.0163108 0)
(10.0826 -0.0158909 0)
(10.0895 -0.0155499 0)
(10.0963 -0.015329 0)
(10.103 -0.0152633 0)
(10.1095 -0.0153764 0)
(10.1157 -0.0157362 0)
(10.0006 -0.00589979 0)
(10.0061 -0.0144853 0)
(10.0144 -0.0184813 0)
(10.0221 -0.0209599 0)
(10.0296 -0.0225016 0)
(10.0372 -0.0233914 0)
(10.0448 -0.023718 0)
(10.0522 -0.0238225 0)
(10.0596 -0.0237302 0)
(10.0669 -0.0235229 0)
(10.0741 -0.0232504 0)
(10.0812 -0.0229483 0)
(10.0881 -0.0226831 0)
(10.0949 -0.0224618 0)
(10.1015 -0.0223489 0)
(10.1079 -0.0223524 0)
(10.1141 -0.0225166 0)
(10.1201 -0.0228841 0)
(10.0009 -0.00827639 0)
(10.0087 -0.0189273 0)
(10.019 -0.0230836 0)
(10.0274 -0.025764 0)
(10.0352 -0.0274426 0)
(10.0431 -0.0284563 0)
(10.0508 -0.0288717 0)
(10.0582 -0.0291148 0)
(10.0656 -0.0291623 0)
(10.0728 -0.0290832 0)
(10.0799 -0.0289418 0)
(10.0868 -0.0287344 0)
(10.0936 -0.0285725 0)
(10.1002 -0.028402 0)
(10.1066 -0.0283487 0)
(10.1127 -0.0283558 0)
(10.1187 -0.028525 0)
(10.1243 -0.028839 0)
(10.0014 -0.011554 0)
(10.0127 -0.0239466 0)
(10.0248 -0.0277426 0)
(10.0336 -0.0303393 0)
(10.0416 -0.0319367 0)
(10.0496 -0.0329393 0)
(10.0571 -0.0333678 0)
(10.0645 -0.0337127 0)
(10.0716 -0.0338858 0)
(10.0787 -0.0339152 0)
(10.0856 -0.0339034 0)
(10.0923 -0.0337678 0)
(10.0988 -0.0337113 0)
(10.1051 -0.0335625 0)
(10.1112 -0.0335708 0)
(10.117 -0.0335494 0)
(10.1226 -0.033724 0)
(10.1278 -0.0339569 0)
(10.0024 -0.0161066 0)
(10.0182 -0.0292683 0)
(10.0318 -0.0322085 0)
(10.0409 -0.0346851 0)
(10.0486 -0.0361295 0)
(10.0566 -0.0370045 0)
(10.0638 -0.0373268 0)
(10.0709 -0.0376573 0)
(10.0775 -0.0378512 0)
(10.0843 -0.0378762 0)
(10.0906 -0.037913 0)
(10.0969 -0.037747 0)
(10.1028 -0.0377412 0)
(10.1087 -0.0375212 0)
(10.1141 -0.037559 0)
(10.1193 -0.0374299 0)
(10.1241 -0.0375934 0)
(10.1287 -0.0376787 0)
(10.0042 -0.0216972 0)
(10.0263 -0.0342804 0)
(10.041 -0.0350931 0)
(10.0503 -0.0372973 0)
(10.0568 -0.0389377 0)
(10.0647 -0.0400875 0)
(10.0701 -0.0406946 0)
(10.0764 -0.0413019 0)
(10.0808 -0.041759 0)
(10.0865 -0.0419068 0)
(10.0903 -0.0421067 0)
(10.0951 -0.0419379 0)
(10.0983 -0.0420191 0)
(10.1022 -0.0416978 0)
(10.1049 -0.0417457 0)
(10.1079 -0.041451 0)
(10.11 -0.0415458 0)
(10.1122 -0.0414573 0)
(10.008 -0.0272228 0)
(10.0418 -0.044553 0)
(10.0538 -0.0432554 0)
(10.0587 -0.0427406 0)
(10.0546 -0.0423107 0)
(10.0555 -0.0420618 0)
(10.0475 -0.0416827 0)
(10.0442 -0.0416731 0)
(10.0339 -0.0417162 0)
(10.028 -0.0415283 0)
(10.0163 -0.0414968 0)
(10.0083 -0.0410858 0)
(9.99582 -0.0410117 0)
(9.98618 -0.0404918 0)
(9.97355 -0.0404158 0)
(9.9627 -0.0399302 0)
(9.95008 -0.0399133 0)
(9.93848 -0.0396643 0)
(9.91945 -0.0175347 0)
(9.79613 -0.0342235 0)
(9.66252 -0.0380356 0)
(9.53276 -0.039615 0)
(9.40105 -0.0399469 0)
(9.28777 -0.0396965 0)
(9.16961 -0.0389434 0)
(9.06784 -0.0382433 0)
(8.96036 -0.0374167 0)
(8.86885 -0.0364255 0)
(8.77273 -0.0354346 0)
(8.69064 -0.034255 0)
(8.60569 -0.033217 0)
(8.53225 -0.031995 0)
(8.45765 -0.0310022 0)
(8.39187 -0.0298442 0)
(8.32628 -0.0289699 0)
(8.26721 -0.0280065 0)
(0.0696895 -0.221888 0)
(0.315348 -0.418737 0)
(0.550012 -0.378475 0)
(0.714149 -0.291197 0)
(0.826901 -0.198392 0)
(0.853397 -0.0960485 0)
(0.815922 -0.0447703 -1.27354e-21)
(0.806744 0.00221228 5.91279e-22)
(0.707946 -0.0522263 0)
(0.675898 -0.125963 -6.20646e-22)
(0.485251 -0.122415 0)
(0.352602 -0.145202 0)
(0.243007 0.217018 0)
(-0.273658 0.440087 4.94839e-21)
(-0.718994 0.434367 0)
(-1.12394 0.420286 0)
(-1.48692 0.391358 2.2203e-21)
(-1.83264 0.361776 0)
(-2.1482 0.332828 0)
(-2.44329 0.305205 0)
(-2.71794 0.280717 -8.46352e-21)
(-2.97439 0.258971 0)
(-3.21599 0.240303 -1.09083e-20)
(-3.44386 0.224179 0)
(-3.66018 0.210158 0)
(-3.8658 0.197619 -1.39583e-20)
(-4.06142 0.185956 0)
(-4.24719 0.174654 1.56066e-20)
(-4.42291 0.163261 0)
(-4.58802 0.151478 -1.6855e-20)
(-4.74173 0.139089 0)
(-4.88311 0.125928 0)
(-5.01105 0.111969 0)
(-5.12451 0.0971693 0)
(-5.22229 0.0816367 0)
(-5.30341 0.0654774 1.79003e-20)
(-5.36689 0.0488074 0)
(-5.41191 0.0319067 -3.44678e-20)
(-5.43803 0.0148596 0)
(-5.44472 -0.00195775 3.19558e-20)
(-5.43217 -0.0184176 0)
(-5.40042 -0.0342661 0)
(-5.35009 -0.0492164 -2.58719e-20)
(-5.28206 -0.0632681 0)
(-5.1971 -0.0760148 -2.02886e-20)
(-5.09706 -0.0876435 1.70613e-20)
(-4.98274 -0.0977811 0)
(-4.85656 -0.106642 9.79362e-21)
(-4.7193 -0.114136 5.77665e-21)
(-4.57319 -0.120375 0)
(-4.41917 -0.125519 0)
(-4.25896 -0.129448 0)
(-4.094 -0.132499 0)
(-3.92515 -0.134498 0)
(-3.75413 -0.135899 2.35199e-20)
(-3.5809 -0.136448 0)
(-3.40747 -0.136584 -3.54385e-20)
(-3.2331 -0.136066 0)
(-3.05988 -0.13521 0)
(-2.88684 -0.133769 5.6051e-20)
(-2.71616 -0.131894 0)
(-2.54699 -0.129337 -7.21841e-20)
(-2.38121 -0.126119 0)
(-2.21767 -0.122188 0)
(-2.057 -0.118719 0)
(-1.89774 -0.116427 1.13677e-19)
(-1.74092 -0.11447 0)
(-1.58638 -0.112598 0)
(-1.4352 -0.110737 1.58959e-19)
(-1.28745 -0.109073 0)
(-1.14329 -0.107665 2.01576e-19)
(-1.00255 -0.106567 0)
(-0.864962 -0.105834 0)
(-0.730187 -0.105838 0)
(-0.598027 -0.107014 -3.54442e-19)
(-0.468865 -0.109533 0)
(-0.344242 -0.113171 0)
(-0.225682 -0.116925 -6.59197e-19)
(-0.111892 -0.119028 -8.64797e-19)
(0.00495401 -0.117447 0)
(0.12698 -0.112228 -7.24484e-19)
(0.25192 -0.10523 0)
(0.375716 -0.0985983 -9.16105e-19)
(0.499756 -0.0934306 0)
(0.623137 -0.0898378 -6.70941e-19)
(0.749121 -0.089287 0)
(0.880443 -0.0905682 5.22689e-19)
(1.0172 -0.0943067 0)
(1.16354 -0.0982757 0)
(1.31471 -0.102049 0)
(1.47657 -0.107478 -3.46624e-19)
(1.64271 -0.113754 0)
(1.8172 -0.118767 2.91999e-19)
(1.99588 -0.119243 0)
(2.17616 -0.118786 -2.51895e-19)
(2.36039 -0.115093 -2.3583e-19)
(2.53896 -0.110595 -2.21885e-19)
(2.7203 -0.103983 0)
(2.89016 -0.096032 0)
(3.05923 -0.0876515 0)
(3.2144 -0.0776843 0)
(3.36318 -0.0683999 0)
(3.49823 -0.0579671 0)
(3.62115 -0.0483366 0)
(3.7308 -0.0385547 0)
(3.82496 -0.0292087 1.5898e-19)
(3.90521 -0.0206798 1.56436e-19)
(3.97009 -0.0124927 0)
(4.02004 -0.0053932 0)
(4.05683 0.00103898 0)
(4.07914 0.00664733 1.51484e-19)
(4.09044 0.0111905 0)
(4.08995 0.0149995 0)
(4.08021 0.0177376 0)
(4.06244 0.0197095 0)
(4.03761 0.0210593 -1.53564e-19)
(4.00741 0.0217814 0)
(3.97286 0.0221476 0)
(3.93461 0.0222187 1.57227e-19)
(3.89401 0.0219221 -1.5869e-19)
(3.85166 0.0216101 0)
(3.80752 0.0209094 -1.61871e-19)
(3.76406 0.0203095 0)
(3.71865 0.0193082 1.65279e-19)
(3.67614 0.0185488 0)
(3.6312 0.0173337 0)
(3.59139 0.0164674 0)
(3.54788 0.0153141 0)
(3.5118 0.014306 0)
(3.47061 0.0134272 -3.51551e-19)
(3.43801 0.0124367 -3.54956e-19)
(3.39968 0.0116698 0)
(3.37046 0.0109955 0)
(3.33397 0.0101103 0)
(3.30945 0.00967383 3.68141e-19)
(3.27355 0.008848 0)
(3.25401 0.00793926 0)
(3.22162 0.00790465 0)
(3.20195 0.00534108 3.79584e-19)
(3.1834 0.00715533 -3.82209e-19)
(3.15219 0.00231424 0)
(3.16111 0.00559303 0)
(3.10961 0.000923017 -3.87417e-19)
(3.14601 0.00184701 -3.89441e-19)
(3.08752 0.00210421 0)
(3.12249 -0.00205931 0)
(3.09089 0.00226124 3.92994e-19)
(3.09363 -0.00176507 -3.93216e-19)
(3.09625 -0.000350799 0)
(3.08038 0.000696022 0)
(3.08371 0.000196347 -3.97395e-19)
(3.07033 0.00118594 0)
(3.06918 0.00511746 0)
(3.02998 0.00499155 -4.05755e-19)
(3.04498 0.00885661 0)
(2.96566 0.014085 -4.17293e-19)
(2.97621 0.0129618 0)
(2.88363 0.0196756 0)
(2.88071 0.0163547 0)
(2.7867 0.0142581 4.47231e-19)
(2.77363 0.00404796 0)
(2.74075 -0.00511915 0)
(2.76686 -0.0192418 0)
(2.81432 -0.0333137 0)
(2.94388 -0.0207846 0)
(2.98903 -0.0073115 0)
(2.81327 0.0600572 4.74178e-19)
(2.46251 0.126432 5.36955e-19)
(1.68701 0.121966 0)
(-0.145913 0.297038 0)
(-0.201151 0.170082 0)
(-0.0135197 -0.147371 -1.27734e-18)
(1.22121 -0.198219 0)
(1.08964 -0.19635 1.32516e-18)
(2.16362 -0.132226 -1.13952e-18)
(1.81376 -0.130413 -1.04147e-18)
(2.78396 -0.0550493 9.82938e-19)
(2.18178 -0.0803379 -9.50002e-19)
(3.1154 0.0156501 9.58662e-19)
(2.20671 -0.0261738 0)
(0.100856 -0.982614 0)
(0.326771 -0.997018 0)
(0.410383 -0.748355 5.90471e-22)
(0.454703 -0.496669 0)
(0.463324 -0.282039 -7.48344e-21)
(0.450594 -0.105856 -1.00229e-20)
(0.360327 -0.010313 -7.35373e-21)
(0.303842 0.0639092 -8.49999e-22)
(0.0600303 0.331199 0)
(-0.497642 0.650477 4.85663e-22)
(-0.971246 0.832665 0)
(-1.29581 0.952661 0)
(-1.55677 1.03428 1.49254e-21)
(-1.82519 1.03551 -1.24469e-21)
(-2.06647 0.999329 -2.6774e-21)
(-2.30962 0.946336 -4.22717e-21)
(-2.53893 0.885999 -1.24465e-21)
(-2.76045 0.824732 0)
(-2.97171 0.766422 0)
(-3.17373 0.712755 0)
(-3.36836 0.664801 -8.69694e-21)
(-3.55549 0.622344 0)
(-3.73655 0.585023 2.86809e-20)
(-3.91161 0.551828 0)
(-4.08094 0.5217 0)
(-4.24429 0.493447 1.2303e-20)
(-4.40112 0.465936 0)
(-4.55069 0.438334 -1.40005e-20)
(-4.69217 0.409925 -3.05723e-20)
(-4.8247 0.380199 1.53054e-20)
(-4.94735 0.34878 0)
(-5.0591 0.315397 0)
(-5.15888 0.279923 0)
(-5.24557 0.242345 -3.47874e-20)
(-5.31806 0.202777 -3.49737e-20)
(-5.37527 0.161462 -1.67472e-20)
(-5.41621 0.118723 0)
(-5.44005 0.0750199 3.24487e-20)
(-5.44609 0.0308637 0)
(-5.4339 -0.0131352 -3.02456e-20)
(-5.40336 -0.0563079 0)
(-5.3547 -0.0980186 0)
(-5.28847 -0.137626 2.46122e-20)
(-5.20547 -0.174649 0)
(-5.10677 -0.208591 6.06169e-20)
(-4.99363 -0.239086 -1.62733e-20)
(-4.86757 -0.265825 0)
(-4.73025 -0.28867 -9.34658e-21)
(-4.58333 -0.307707 -5.51257e-21)
(-4.42826 -0.323119 0)
(-4.26627 -0.335204 0)
(-4.0987 -0.343984 0)
(-3.92684 -0.34978 0)
(-3.75194 -0.35322 0)
(-3.575 -0.354833 -2.23678e-20)
(-3.39689 -0.35466 -5.401e-20)
(-3.21823 -0.352981 3.36086e-20)
(-3.03951 -0.349995 0)
(-2.86108 -0.345894 -9.03759e-20)
(-2.68331 -0.340851 5.10543e-20)
(-2.50666 -0.334992 0)
(-2.33166 -0.328472 6.76766e-20)
(-2.1588 -0.321406 0)
(-1.98834 -0.314133 0)
(-1.82027 -0.307027 1.86793e-19)
(-1.65406 -0.300402 -1.0515e-19)
(-1.48999 -0.29418 2.31343e-19)
(-1.32817 -0.288075 -2.57414e-19)
(-1.16932 -0.281932 -1.44797e-19)
(-1.01331 -0.275518 0)
(-0.857782 -0.26853 -1.71613e-19)
(-0.704675 -0.260963 0)
(-0.555117 -0.253033 0)
(-0.409436 -0.245081 0)
(-0.267546 -0.237567 -1.83981e-19)
(-0.129358 -0.230726 0)
(0.00563229 -0.225251 -3.84651e-19)
(0.137326 -0.221644 5.87707e-19)
(0.265464 -0.219176 1.9957e-19)
(0.389475 -0.216788 0)
(0.509636 -0.213693 2.04607e-19)
(0.626338 -0.209543 0)
(0.74209 -0.205777 4.09405e-19)
(0.860429 -0.203422 0)
(0.979845 -0.20256 3.55412e-19)
(1.10219 -0.204611 -6.61947e-19)
(1.22796 -0.209319 -3.12297e-19)
(1.35694 -0.216133 0)
(1.4891 -0.22351 0)
(1.62389 -0.230807 0)
(1.76092 -0.237185 2.46894e-19)
(1.89961 -0.242579 0)
(2.03984 -0.247385 -2.2256e-19)
(2.1816 -0.250067 0)
(2.32488 -0.251615 6.05499e-19)
(2.47091 -0.251025 1.93904e-19)
(2.61859 -0.248899 1.8568e-19)
(2.76893 -0.24416 0)
(2.92067 -0.237405 0)
(3.0743 -0.228653 0)
(3.22862 -0.217525 0)
(3.38292 -0.204975 0)
(3.53593 -0.189963 2.93025e-19)
(3.68587 -0.173838 2.83822e-19)
(3.83121 -0.15585 0)
(3.96984 -0.136969 -1.3472e-19)
(4.10001 -0.117507 -1.31475e-19)
(4.22009 -0.0976476 0)
(4.3284 -0.0783826 -2.51859e-19)
(4.42426 -0.0596487 0)
(4.50658 -0.042175 1.22192e-19)
(4.57558 -0.0262801 0)
(4.63103 -0.0118315 0)
(4.6735 0.000675017 -2.39892e-19)
(4.70352 0.0115705 0)
(4.72193 0.0207214 1.19801e-19)
(4.72991 0.0281429 0)
(4.72856 0.0341946 0)
(4.71912 0.0388485 1.2073e-19)
(4.70279 0.0422687 1.21387e-19)
(4.68078 0.0448417 0)
(4.65379 0.0462623 -1.22914e-19)
(4.62352 0.0471906 0)
(4.58959 0.0471741 1.24748e-19)
(4.55445 0.0468964 2.51423e-19)
(4.51663 0.0458128 0)
(4.47927 0.0447799 0)
(4.43986 0.0430914 0)
(4.40233 0.0415328 0)
(4.36293 0.0397694 2.61929e-19)
(4.32657 0.0379209 7.9242e-19)
(4.28821 0.0361499 0)
(4.25395 0.0345226 0)
(4.21685 0.0324083 0)
(4.18588 0.0312075 -2.72551e-19)
(4.14977 0.028775 0)
(4.12288 0.0272859 0)
(4.08872 0.0253151 5.56876e-19)
(4.06468 0.0220549 2.8031e-19)
(4.03606 0.0220596 2.8188e-19)
(4.01126 0.0155783 0)
(3.99306 0.0184014 0)
(3.96441 0.0102868 2.86207e-19)
(3.95721 0.0123002 -2.87739e-19)
(3.92845 0.00921552 0)
(3.92214 0.00471877 0)
(3.90522 0.00921334 -2.91164e-19)
(3.88631 0.00265134 8.76446e-19)
(3.88469 0.00545999 0)
(3.85671 0.00636776 0)
(3.85497 0.0055149 2.96328e-19)
(3.82931 0.00731167 0)
(3.82138 0.014786 6.00277e-19)
(3.78858 0.0113806 -3.02336e-19)
(3.78373 0.0235399 0)
(3.7355 0.0253133 3.08238e-19)
(3.72915 0.0326954 6.23886e-19)
(3.66641 0.0361787 0)
(3.66536 0.0356625 0)
(3.57722 0.0314724 -3.24175e-19)
(3.56994 0.0164376 0)
(3.5058 -0.00251375 6.62811e-19)
(3.48687 -0.0141158 0)
(3.47025 -0.0406546 0)
(3.46386 -0.0224171 0)
(3.38449 0.073508 0)
(3.07575 0.281285 -3.88237e-19)
(2.27675 0.489508 -4.59317e-19)
(0.948134 0.578413 0)
(0.0456954 0.502355 0)
(0.981952 -0.00399716 0)
(1.66646 -0.303078 4.65336e-19)
(2.14125 -0.351777 0)
(2.38616 -0.320388 -8.09061e-19)
(2.78035 -0.254273 7.41685e-19)
(2.89924 -0.203447 7.18399e-19)
(3.21424 -0.141607 6.78185e-19)
(3.23325 -0.101105 6.78088e-19)
(3.44988 -0.0353823 6.59716e-19)
(3.4164 0.0196077 0)
(-0.0489942 -1.09282 0)
(-0.0242598 -0.772938 0)
(-0.110749 -0.524206 -5.60125e-22)
(-0.181608 -0.237319 3.99636e-21)
(-0.314364 0.103378 6.57313e-21)
(-0.566269 0.445252 5.55927e-21)
(-0.860026 0.721213 1.75076e-21)
(-1.11272 0.954303 0)
(-1.36668 1.15098 0)
(-1.62713 1.28812 0)
(-1.85056 1.37375 0)
(-2.03958 1.42924 0)
(-2.19471 1.44361 -8.86878e-21)
(-2.33307 1.41696 0)
(-2.46857 1.36525 2.20499e-21)
(-2.60608 1.29914 3.62255e-21)
(-2.74842 1.22801 0)
(-2.89562 1.15738 0)
(-3.04778 1.0907 0)
(-3.20357 1.02942 0)
(-3.36234 0.974008 1.45101e-20)
(-3.52275 0.924036 0)
(-3.68403 0.878706 -1.90637e-20)
(-3.84524 0.837244 0)
(-4.00556 0.798039 0)
(-4.16398 0.75952 0)
(-4.31927 0.720224 -5.77033e-20)
(-4.46993 0.679118 0)
(-4.61456 0.635315 2.97226e-20)
(-4.75182 0.588626 -6.55639e-20)
(-4.88045 0.538689 0)
(-4.99909 0.485197 0)
(-5.10631 0.427957 0)
(-5.2006 0.366983 3.36092e-20)
(-5.28046 0.302476 3.3747e-20)
(-5.34443 0.234831 0)
(-5.39119 0.164627 0)
(-5.41957 0.0926421 -6.97554e-20)
(-5.42861 0.0198038 -6.78562e-20)
(-5.41772 -0.0528143 6.53127e-20)
(-5.38668 -0.124078 0)
(-5.33573 -0.192874 0)
(-5.26551 -0.258147 0)
(-5.17696 -0.318967 0)
(-5.07129 -0.374429 -3.95068e-20)
(-4.94993 -0.423802 -3.66311e-20)
(-4.81461 -0.466546 2.98146e-20)
(-4.66755 -0.502441 0)
(-4.51078 -0.531818 0)
(-4.34595 -0.555058 0)
(-4.17424 -0.573658 0)
(-3.99735 -0.587587 1.07573e-20)
(-3.81614 -0.597036 0)
(-3.63149 -0.602263 0)
(-3.44501 -0.603944 4.02419e-20)
(-3.25788 -0.602632 5.22157e-20)
(-3.07059 -0.598697 0)
(-2.88359 -0.592508 -1.47588e-19)
(-2.69719 -0.584469 8.7299e-20)
(-2.5117 -0.574992 -1.00269e-19)
(-2.32748 -0.564538 0)
(-2.14498 -0.553589 0)
(-1.9647 -0.542546 0)
(-1.78654 -0.531696 0)
(-1.60971 -0.520821 -1.80272e-19)
(-1.43232 -0.509423 -3.7918e-19)
(-1.25694 -0.497791 -1.97756e-19)
(-1.08467 -0.486168 2.03219e-19)
(-0.916149 -0.474465 0)
(-0.751736 -0.46241 -4.21243e-19)
(-0.591532 -0.449451 -4.28452e-19)
(-0.43555 -0.435558 -4.34753e-19)
(-0.28364 -0.421115 4.40333e-19)
(-0.135778 -0.406526 0)
(0.00788876 -0.392417 6.7597e-19)
(0.147668 -0.379119 0)
(0.284043 -0.366812 -2.29519e-19)
(0.416948 -0.355997 -2.35322e-19)
(0.54632 -0.346876 0)
(0.672077 -0.339222 0)
(0.794739 -0.332725 -4.83325e-19)
(0.915057 -0.327437 0)
(1.03414 -0.324049 -4.91983e-19)
(1.15306 -0.32375 0)
(1.27336 -0.326434 4.9956e-19)
(1.39853 -0.331728 9.56889e-19)
(1.52624 -0.338832 0)
(1.6552 -0.346987 0)
(1.78457 -0.355061 0)
(1.91381 -0.362599 3.98084e-19)
(2.04257 -0.36917 0)
(2.17064 -0.374375 3.65679e-19)
(2.29772 -0.378417 0)
(2.42418 -0.380982 0)
(2.55066 -0.382348 -6.5241e-19)
(2.6773 -0.382042 0)
(2.8037 -0.379763 -3.04494e-19)
(2.93072 -0.375271 0)
(3.0587 -0.368955 -2.86682e-19)
(3.18809 -0.360697 0)
(3.31907 -0.350119 0)
(3.45155 -0.337355 0)
(3.58523 -0.321676 -7.68685e-19)
(3.71943 -0.303453 -2.50302e-19)
(3.8532 -0.282235 0)
(3.98539 -0.258518 0)
(4.11445 -0.232634 0)
(4.23889 -0.204989 0)
(4.35692 -0.176479 2.23606e-19)
(4.46702 -0.147563 -4.38424e-19)
(4.56771 -0.119121 -2.16765e-19)
(4.65788 -0.091816 4.27321e-19)
(4.7367 -0.0660376 4.2342e-19)
(4.80377 -0.042429 2.1067e-19)
(4.85894 -0.0210537 0)
(4.90244 -0.00216163 4.17852e-19)
(4.93471 0.0141641 0)
(4.95645 0.0280815 -4.18374e-19)
(4.9686 0.0395919 -2.09916e-19)
(4.9721 0.0488761 0)
(4.96809 0.0562694 4.23191e-19)
(4.95749 0.0616871 2.12844e-19)
(4.94155 0.0657192 0)
(4.92084 0.0681372 2.15509e-19)
(4.89674 0.0695973 -6.51176e-19)
(4.8694 0.0697766 0)
(4.84021 0.0694517 0)
(4.80904 0.0681562 0)
(4.77722 0.0666309 0)
(4.7442 0.0646119 -4.50688e-19)
(4.71166 0.0623591 -4.54025e-19)
(4.67816 0.0599605 0)
(4.64625 0.0575791 0)
(4.61327 0.0546593 0)
(4.58306 0.0524955 0)
(4.55119 0.0490155 0)
(4.52349 0.0466234 0)
(4.49352 0.0430945 -4.76324e-19)
(4.46812 0.0394078 9.89221e-23)
(4.44163 0.0370033 0)
(4.41726 0.0308607 0)
(4.39563 0.0308256 -4.86783e-19)
(4.37157 0.0229389 0)
(4.35401 0.0233916 4.91255e-19)
(4.3314 0.0191836 4.9336e-19)
(4.31385 0.0149402 0)
(4.29621 0.0184151 0)
(4.27189 0.0117238 -5.00027e-19)
(4.26212 0.015532 -1.0059e-18)
(4.22818 0.0161165 0)
(4.22089 0.0158976 0)
(4.18329 0.019988 0)
(4.16919 0.0262814 -5.16224e-19)
(4.13013 0.0268377 5.20792e-19)
(4.11058 0.0378646 0)
(4.06514 0.0432934 1.06328e-18)
(4.04298 0.0513774 5.38035e-19)
(3.98946 0.0534055 -1.0889e-18)
(3.97212 0.0550703 0)
(3.88887 0.0522057 0)
(3.88062 0.0329404 -1.13799e-18)
(3.79856 0.0191678 -5.78676e-19)
(3.75567 0.0197206 0)
(3.69247 -0.00486123 0)
(3.57878 0.0409169 0)
(3.25899 0.29647 0)
(2.58693 0.675913 -1.40925e-18)
(1.62392 0.894118 0)
(0.938878 0.835254 0)
(1.33975 0.314656 0)
(2.18514 -0.268692 0)
(2.63251 -0.525863 0)
(2.95818 -0.519501 0)
(3.15013 -0.465266 -1.26612e-18)
(3.39855 -0.363673 0)
(3.50626 -0.295536 0)
(3.69526 -0.207048 -2.24228e-18)
(3.72601 -0.152435 1.10899e-18)
(3.8668 -0.0686414 -1.10412e-18)
(3.83546 0.00232933 1.09736e-18)
(-0.177622 -0.764683 0)
(-0.302553 -0.440856 -5.347e-20)
(-0.534371 -0.106875 0)
(-0.786088 0.306529 -2.55607e-21)
(-1.03729 0.655269 0)
(-1.26934 0.947392 0)
(-1.48179 1.18217 3.53006e-21)
(-1.66086 1.36803 0)
(-1.81245 1.49849 0)
(-1.94507 1.58063 0)
(-2.06465 1.62799 0)
(-2.17363 1.64886 0)
(-2.2756 1.644 1.87638e-20)
(-2.37644 1.61716 1.4267e-20)
(-2.48118 1.57509 -1.72604e-20)
(-2.59212 1.52356 0)
(-2.71132 1.46784 0)
(-2.83882 1.41139 0)
(-2.97427 1.35641 0)
(-3.11637 1.30403 0)
(-3.2638 1.25453 3.91419e-20)
(-3.4152 1.20843 4.31565e-20)
(-3.57051 1.16466 -4.71545e-20)
(-3.72837 1.12213 5.09536e-20)
(-3.88676 1.07951 0)
(-4.04474 1.03547 0)
(-4.2007 0.988616 5.71229e-20)
(-4.35279 0.937588 0)
(-4.49989 0.881671 0)
(-4.64097 0.820149 6.52951e-20)
(-4.77416 0.753263 7.29007e-20)
(-4.89762 0.680467 7.47815e-20)
(-5.00949 0.60154 0)
(-5.10792 0.516495 0)
(-5.19099 0.42563 -7.78603e-20)
(-5.25693 0.329543 0)
(-5.30404 0.229138 0)
(-5.33087 0.125629 6.95176e-20)
(-5.33629 0.0205004 -8.05331e-20)
(-5.3196 -0.0845699 7.7769e-20)
(-5.28065 -0.187814 0)
(-5.21986 -0.287485 0)
(-5.13806 -0.381907 1.18683e-19)
(-5.03645 -0.469488 0)
(-4.91646 -0.548809 9.56252e-20)
(-4.77984 -0.618782 1.1921e-19)
(-4.62928 -0.678886 -9.79123e-20)
(-4.46767 -0.729296 5.22807e-20)
(-4.29741 -0.77048 0)
(-4.11802 -0.803398 0)
(-3.93148 -0.828147 7.57163e-22)
(-3.74158 -0.846073 -1.12508e-20)
(-3.54923 -0.857751 0)
(-3.35584 -0.863611 0)
(-3.16226 -0.864241 -4.25365e-20)
(-2.96905 -0.860594 -1.0551e-19)
(-2.77667 -0.853403 0)
(-2.58541 -0.843392 1.57944e-19)
(-2.39554 -0.83131 -1.82416e-19)
(-2.20741 -0.817969 2.10903e-19)
(-2.02147 -0.804145 0)
(-1.83794 -0.790447 0)
(-1.65622 -0.776959 0)
(-1.47536 -0.763077 0)
(-1.2949 -0.748139 0)
(-1.11766 -0.731867 3.71355e-19)
(-0.943851 -0.714297 0)
(-0.773685 -0.695985 0)
(-0.607497 -0.677171 0)
(-0.445482 -0.657852 8.036e-19)
(-0.287667 -0.637867 4.08468e-19)
(-0.13393 -0.61736 4.13253e-19)
(0.0159014 -0.596546 -8.32733e-19)
(0.161936 -0.57567 4.18909e-19)
(0.304286 -0.555161 -4.24276e-19)
(0.443248 -0.53573 0)
(0.578737 -0.517719 4.29807e-19)
(0.710823 -0.501536 0)
(0.839824 -0.487609 0)
(0.965842 -0.475958 0)
(1.09008 -0.466746 8.88567e-19)
(1.21335 -0.46027 -4.49384e-19)
(1.33609 -0.456748 -4.53019e-19)
(1.46141 -0.456814 -8.73641e-19)
(1.58756 -0.460232 -1.25935e-18)
(1.71322 -0.465644 -4.03894e-19)
(1.83732 -0.47185 0)
(1.95925 -0.478145 -7.41049e-19)
(2.07876 -0.483845 0)
(2.19586 -0.488647 -1.03034e-18)
(2.31065 -0.492321 0)
(2.42337 -0.494704 -9.57402e-19)
(2.53413 -0.495744 0)