/*--------------------------------*- C++ -*----------------------------------*\
| =========                 |                                                 |
| \\      /  F ield         | OpenFOAM: The Open Source CFD Toolbox           |
|  \\    /   O peration     | Version:  2.4.0                                 |
|   \\  /    A nd           | Web:      www.OpenFOAM.org                      |
|    \\/     M anipulation  |                                                 |
\*---------------------------------------------------------------------------*/
FoamFile
{
    version     2.0;
    format      ascii;
    class       volScalarField;
    location    "240";
    object      epsilon;
}
// * * * * * * * * * * * * * * * * * * * * * * * * * * * * * * * * * * * * * //

dimensions      [0 2 -3 0 0 0 0];

internalField   nonuniform List<scalar> 
6000
(
61.377
3.06578
0.157219
0.0682388
0.176395
0.123032
0.124517
0.0959081
0.0857458
0.0709541
0.0635452
0.056294
0.052588
0.0497362
0.0487714
0.0486316
0.0496705
0.051499
0.0542644
0.0577873
0.0620089
0.0666266
0.0713139
0.0756573
0.0792505
0.0819344
0.0839893
0.0860726
0.0890901
0.093958
0.101411
0.111796
0.124858
0.13964
0.154512
0.167468
0.176143
0.177997
0.170886
0.153748
0.127242
0.0945456
0.0611039
0.0390059
0.0740742
0.133562
0.224965
0.358396
0.538565
0.782734
1.0854
1.50395
1.97688
2.74208
3.43113
5.1147
5.8545
10.7209
10.0201
31.2991
19.5967
1.8711
0.122572
0.0418709
0.0926059
0.0658743
0.0648401
0.0504142
0.0446876
0.0371309
0.0331129
0.0293324
0.0272688
0.0256874
0.0250173
0.0247686
0.0250759
0.0257562
0.026858
0.0282929
0.0300236
0.0319162
0.033833
0.035609
0.0370908
0.0382303
0.0391537
0.0401343
0.0415379
0.043727
0.0469795
0.0514043
0.0568668
0.0629685
0.0690847
0.0744783
0.0782885
0.079603
0.0775934
0.0717326
0.0619964
0.0491931
0.0350632
0.0252483
0.0423809
0.0690259
0.107139
0.159874
0.228589
0.319171
0.430184
0.580811
0.753098
1.02286
1.28091
1.85789
2.17838
3.78013
3.79201
10.3553
7.67367
1.15359
0.103573
0.0283732
0.0517423
0.037275
0.0356934
0.027959
0.0245866
0.0205149
0.0182445
0.0161902
0.0150208
0.0141407
0.0137329
0.0135603
0.0136748
0.0139876
0.0145146
0.015212
0.0160579
0.0169891
0.0179424
0.0188455
0.0196346
0.0202956
0.0208917
0.0215511
0.022442
0.0237285
0.0255309
0.0278852
0.0307126
0.0338196
0.0369256
0.0397139
0.041825
0.0428796
0.042505
0.0404184
0.0364895
0.030883
0.0241686
0.0194372
0.0289436
0.0426423
0.0607506
0.0842438
0.113554
0.150968
0.196255
0.25654
0.326453
0.432449
0.540116
0.760757
0.910512
1.49814
1.60051
3.83801
3.57175
0.750556
0.0922041
0.021837
0.0308988
0.0222757
0.020702
0.0162879
0.0142115
0.0119088
0.0105815
0.00943042
0.0087647
0.00828251
0.00806227
0.0079838
0.00806742
0.00826847
0.00859255
0.00901747
0.00953068
0.0101001
0.0106938
0.0112761
0.0118174
0.0123142
0.0128025
0.0133519
0.0140522
0.0149894
0.0162227
0.0177617
0.0195528
0.0214844
0.0234077
0.0251601
0.02658
0.0274738
0.0276563
0.0269707
0.0253102
0.0226783
0.0192491
0.0169219
0.0226985
0.0306078
0.0404008
0.0523352
0.0665133
0.083877
0.104464
0.131175
0.162432
0.208259
0.257405
0.350146
0.424711
0.661195
0.744851
1.57203
1.92778
0.521922
0.085194
0.0192757
0.0199592
0.0141222
0.0126556
0.00995468
0.00861161
0.00724722
0.00644849
0.00579111
0.00541764
0.00516676
0.00507108
0.00506681
0.00516178
0.00533309
0.00558303
0.00590022
0.00627719
0.0066962
0.00713926
0.0075869
0.00802407
0.00845216
0.00889585
0.00939971
0.0100192
0.0108052
0.0117891
0.012969
0.0143032
0.0157176
0.0171218
0.0184238
0.0195411
0.0203641
0.0207924
0.0207346
0.0201135
0.0188831
0.0170745
0.015959
0.0197112
0.0246733
0.0305291
0.0373289
0.0450876
0.0542087
0.0647559
0.0779804
0.0934573
0.115263
0.139673
0.182229
0.221513
0.324937
0.380606
0.708735
1.18203
0.387646
0.080884
0.019039
0.0142381
0.00959921
0.00819204
0.00639583
0.00547435
0.0046251
0.0041317
0.00375366
0.00355362
0.00343956
0.00342346
0.00346975
0.00358149
0.00374683
0.00396717
0.00423668
0.00455075
0.00489892
0.00527043
0.00565433
0.00604369
0.00644317
0.00687267
0.00736461
0.00795712
0.00868311
0.00955968
0.0105793
0.0117079
0.0128912
0.0140688
0.0151845
0.0161867
0.0170067
0.0175822
0.017852
0.0177549
0.0172241
0.0162625
0.0157725
0.0183296
0.0216242
0.0253707
0.029568
0.0342297
0.0395484
0.0455894
0.0529163
0.061463
0.0729679
0.0862565
0.107637
0.129646
0.1787
0.213937
0.35327
0.808446
0.305568
0.0782817
0.0201666
0.0114507
0.0071156
0.0056689
0.0043454
0.00366438
0.00310415
0.00279036
0.00257436
0.00247864
0.00244631
0.00247991
0.00255864
0.00268382
0.00284954
0.00305712
0.00330379
0.0035869
0.00390028
0.00423779
0.00459394
0.00496698
0.00536373
0.00580141
0.00630543
0.00690418
0.00762055
0.00846421
0.00942547
0.0104751
0.0115706
0.0126663
0.0137233
0.0146995
0.0155461
0.0162176
0.0166658
0.0168378
0.0166612
0.0161574
0.0159917
0.0177835
0.0200445
0.0225384
0.0252531
0.028215
0.031534
0.0352815
0.0397261
0.0449242
0.0516325
0.0595837
0.0713933
0.0846455
0.109948
0.132388
0.195856
0.606168
0.253511
0.0767612
0.0220716
0.0104161
0.0058616
0.00425481
0.00315359
0.00260085
0.00220236
0.00199426
0.00187344
0.00184094
0.0018581
0.00192301
0.00202287
0.0021585
0.00232728
0.00253077
0.00276808
0.00303809
0.0033376
0.00366378
0.00401489
0.00439248
0.00480446
0.00526604
0.00579826
0.00642389
0.00716032
0.00801336
0.00897253
0.0100118
0.0110944
0.0121819
0.0132388
0.0142274
0.0151075
0.0158401
0.0163833
0.0166872
0.016687
0.0164355
0.0164282
0.0176915
0.0192574
0.0209392
0.0227246
0.0246483
0.0267839
0.0292068
0.0320568
0.0354339
0.0396669
0.0448211
0.0519504
0.0605363
0.0747353
0.0895086
0.120493
0.489937
0.219487
0.0759318
0.0243784
0.0104891
0.00539674
0.00352029
0.00247798
0.00197729
0.00166402
0.00151596
0.00145087
0.00145703
0.00150515
0.00159099
0.00170617
0.00185135
0.00202583
0.00223143
0.00246859
0.00273744
0.00303696
0.00336671
0.00372756
0.00412311
0.00456174
0.00505722
0.00562788
0.00629342
0.00706823
0.00795605
0.00894594
0.0100133
0.0111235
0.0122392
0.0133231
0.0143391
0.0152497
0.0160184
0.0166052
0.0169611
0.0170421
0.0169259
0.0169794
0.0178532
0.018918
0.0200326
0.0211881
0.0224224
0.0237905
0.0253665
0.027231
0.0294955
0.0323003
0.0358257
0.0404473
0.0463562
0.0549657
0.065091
0.081166
0.420114
0.19676
0.0755563
0.0268406
0.0112761
0.00547056
0.00324258
0.00213634
0.00162914
0.00135078
0.00123271
0.00119916
0.00122925
0.00129797
0.00139945
0.00152761
0.00168299
0.00186599
0.00207869
0.00232245
0.00259845
0.00290727
0.00325024
0.00363011
0.0040519
0.00452426
0.00506008
0.00567609
0.00639037
0.00721572
0.00815459
0.00919532
0.0103133
0.0114735
0.0126349
0.0137575
0.0148047
0.0157387
0.0165232
0.0171181
0.0174758
0.0175845
0.0175315
0.0175849
0.0181557
0.0188387
0.0195326
0.020233
0.0209788
0.0218138
0.0228072
0.0240102
0.025531
0.0274258
0.0299027
0.0330449
0.0372803
0.0428457
0.0500283
0.0587789
0.376774
0.181372
0.0754932
0.0292976
0.0125145
0.00593522
0.0032916
0.00203251
0.00146802
0.00118731
0.00107759
0.00105983
0.00110477
0.00118836
0.00130303
0.00144368
0.00161059
0.00180475
0.00202844
0.00228371
0.00257255
0.00289678
0.00325912
0.00366384
0.00411707
0.00462786
0.00520861
0.00587506
0.00664448
0.00752886
0.00852966
0.00963403
0.0108161
0.0120384
0.0132528
0.0144176
0.0154935
0.0164412
0.0172234
0.0177979
0.0181268
0.0182302
0.0181922
0.0182065
0.0185312
0.0189109
0.0192774
0.0196322
0.0200135
0.0204583
0.0210294
0.0217621
0.0227549
0.0240259
0.0257758
0.027966
0.0310712
0.0348428
0.040064
0.0449987
0.349225
0.170898
0.0756576
0.0316506
0.0140179
0.00668687
0.00358594
0.00211741
0.00144742
0.00113304
0.00101419
0.00100084
0.00105459
0.00114973
0.00127657
0.00143
0.00160986
0.00181743
0.00205504
0.0023253
0.00263085
0.00297455
0.00336026
0.00379361
0.00428179
0.00483435
0.00546345
0.00618429
0.00701357
0.00796294
0.00903293
0.0102089
0.0114627
0.0127518
0.014021
0.0152262
0.0163245
0.0172744
0.0180365
0.0185673
0.0188501
0.0189251
0.0188687
0.0188188
0.0189367
0.0190676
0.0191703
0.019252
0.0193502
0.0194974
0.0197502
0.0201344
0.0207373
0.021559
0.0227807
0.0243165
0.0266153
0.0292506
0.0331071
0.035954
0.331415
0.163787
0.0759956
0.0338451
0.015651
0.00764307
0.00407456
0.00235616
0.0015441
0.00116694
0.00102304
0.00100469
0.00106263
0.00116713
0.00130572
0.00147247
0.00166657
0.00188931
0.00214305
0.00243078
0.00275572
0.00312162
0.00353335
0.00399791
0.0045235
0.00512026
0.0058
0.00657819
0.0074709
0.00848916
0.0096328
0.0108848
0.0122138
0.0135694
0.0148913
0.0161314
0.0172431
0.018182
0.0189059
0.0193773
0.0196031
0.0196326
0.0195341
0.0194039
0.0193435
0.0192653
0.0191498
0.0190093
0.0188809
0.0187939
0.0187992
0.0189168
0.0192235
0.0197105
0.0205373
0.0216025
0.0233065
0.0251786
0.0280573
0.0297123
0.319768
0.159011
0.07647
0.035858
0.0173165
0.00873372
0.004716
0.0027227
0.00174679
0.00127909
0.00109438
0.00106219
0.00112013
0.00123223
0.00138231
0.00156291
0.00177229
0.00201161
0.00228309
0.00259008
0.00293629
0.00332624
0.00376581
0.0042633
0.00482794
0.00547043
0.00620232
0.00703975
0.00799843
0.00908765
0.0103071
0.0116367
0.0130408
0.0144591
0.0158282
0.0170952
0.0182091
0.0191228
0.0197915
0.0201954
0.0203555
0.0203266
0.0201691
0.0199488
0.0197316
0.0194746
0.0191751
0.0188502
0.0185361
0.0182601
0.0180685
0.0179772
0.0180539
0.0182854
0.018811
0.0195272
0.0207841
0.0221205
0.0242863
0.0252334
0.312097
0.155874
0.0770518
0.0376864
0.0189473
0.00989854
0.00547194
0.00319848
0.00204321
0.00146587
0.00122412
0.00116898
0.00122267
0.00134061
0.00150188
0.00169675
0.00192224
0.00217919
0.00246962
0.00279713
0.00316591
0.00358115
0.00404968
0.00458118
0.00518583
0.00587463
0.00665947
0.00755698
0.00858263
0.00974374
0.0110389
0.0124451
0.0139202
0.0153957
0.0168043
0.0180879
0.0191914
0.0200635
0.020667
0.0209973
0.0210852
0.0209882
0.0207596
0.0204442
0.0200869
0.0196749
0.0192182
0.0187377
0.0182691
0.0178381
0.0174869
0.0172288
0.0171238
0.0171565
0.017449
0.0179007
0.0188172
0.0197655
0.0214058
0.0219166
0.307027
0.153889
0.0777161
0.03934
0.0205004
0.0110871
0.00630548
0.0037642
0.00242244
0.00172451
0.00141135
0.00132363
0.00136845
0.00149027
0.00166229
0.0018717
0.00211391
0.00238928
0.0026995
0.0030484
0.00344057
0.00388184
0.00437991
0.00494591
0.00559091
0.0063258
0.00716352
0.00812093
0.00921315
0.0104459
0.011815
0.0132944
0.0148332
0.0163583
0.0177966
0.0190851
0.0201628
0.020981
0.0215132
0.0217651
0.0217754
0.0216033
0.0212956
0.020883
0.0203993
0.0198516
0.0192593
0.0186463
0.0180476
0.0174878
0.0170057
0.0166127
0.0163622
0.016238
0.0163478
0.0165958
0.0172503
0.0179111
0.0191606
0.0193931
0.303675
0.152712
0.0784409
0.0408346
0.0219511
0.0122595
0.0071816
0.00439842
0.00287413
0.0020489
0.00165643
0.00152618
0.00155711
0.00168064
0.00186283
0.0020869
0.00234624
0.00264057
0.00297114
0.00334196
0.00375794
0.00422553
0.00475324
0.00535367
0.00603876
0.00681877
0.00770846
0.00872453
0.00988169
0.0111836
0.0126234
0.0141696
0.0157642
0.0173293
0.018786
0.0200644
0.0211029
0.0218593
0.022315
0.0224849
0.0224139
0.0221615
0.0217695
0.02126
0.0206614
0.0199941
0.0192839
0.0185573
0.0178485
0.0171811
0.0165907
0.0160876
0.0157196
0.0154703
0.0154355
0.0155248
0.0159759
0.0164198
0.0173761
0.0174257
0.301466
0.1521
0.0792063
0.0421883
0.0232886
0.0133863
0.00806874
0.00507792
0.00338511
0.00243323
0.00195646
0.00177701
0.0017889
0.00191179
0.00210351
0.00234226
0.00261902
0.00293268
0.00328391
0.00367684
0.00411674
0.00461054
0.00516753
0.00580182
0.00652576
0.00734959
0.00828951
0.00936203
0.0105813
0.0119484
0.0134533
0.0150586
0.0166993
0.0182934
0.0197531
0.021008
0.021998
0.0226859
0.0230611
0.0231463
0.0229913
0.0226551
0.0221762
0.0215715
0.020868
0.0200945
0.0192816
0.0184572
0.0176549
0.0168972
0.0162172
0.0156239
0.0151606
0.0148109
0.014661
0.0146253
0.0149172
0.0151955
0.0159299
0.0158564
0.30002
0.151876
0.0799946
0.0434187
0.0245114
0.0144479
0.00894022
0.00577903
0.0039393
0.00286894
0.00230706
0.00207496
0.00206362
0.00218374
0.00238443
0.00263798
0.0029324
0.00326565
0.00363766
0.00405267
0.00451626
0.00503579
0.00562129
0.00628844
0.00704938
0.00791509
0.00890275
0.0100286
0.0113058
0.0127328
0.0142957
0.015951
0.0176264
0.0192332
0.0206837
0.0219043
0.0228373
0.0234512
0.0237428
0.0237415
0.0235007
0.0230789
0.022512
0.0218151
0.0210154
0.0201473
0.0192445
0.0183359
0.0174543
0.016621
0.0158669
0.0151999
0.0146593
0.014229
0.013987
0.0138526
0.0140189
0.0141695
0.0147344
0.0145768
0.299085
0.151914
0.0807904
0.0445419
0.0256241
0.015433
0.00977528
0.00647934
0.00451857
0.00334435
0.00270186
0.00241658
0.00237996
0.00249562
0.00270523
0.00297398
0.00328648
0.00363958
0.00403239
0.00446926
0.00495607
0.00550057
0.00611345
0.00681198
0.00760758
0.00851262
0.00954483
0.0107199
0.0120502
0.0135305
0.0151427
0.0168349
0.0185309
0.0201382
0.0215674
0.0227437
0.0236126
0.024148
0.0243538
0.024265
0.0239376
0.0234293
0.0227748
0.0219893
0.0211013
0.0201486
0.019167
0.0181861
0.0172373
0.0163412
0.0155262
0.0147994
0.0141964
0.0137018
0.0133861
0.0131736
0.0132406
0.0132922
0.0137263
0.0135111
0.298489
0.152123
0.0815808
0.0455721
0.0266349
0.0163372
0.0105593
0.00715926
0.00510416
0.00384509
0.00313147
0.00279616
0.00273456
0.00284557
0.00306425
0.00334938
0.00368079
0.00405423
0.00446791
0.00492635
0.00543574
0.00600418
0.006643
0.00737108
0.00819853
0.00913981
0.0102128
0.0114323
0.0128096
0.0143341
0.0159835
0.0177006
0.0194044
0.0209998
0.0223964
0.0235194
0.0243178
0.0247712
0.0248897
0.0247129
0.0242987
0.0237041
0.0229635
0.0220933
0.021124
0.0200957
0.0190452
0.0180022
0.0169971
0.0160492
0.0151849
0.0144102
0.0137576
0.013212
0.012838
0.0125639
0.012552
0.0125268
0.0128592
0.0126051
0.298119
0.152439
0.0823552
0.0465207
0.0275537
0.0171611
0.0112835
0.00780324
0.00567823
0.00435515
0.00358378
0.00320519
0.00312129
0.00322962
0.00345928
0.00376174
0.00411374
0.00450858
0.00494346
0.00542325
0.00595453
0.00654573
0.00720884
0.00796427
0.00882041
0.00979441
0.0109037
0.0121616
0.0135765
0.015136
0.0168114
0.018541
0.0202398
0.0218113
0.0231646
0.024226
0.0249487
0.0253173
0.0253476
0.025083
0.0245824
0.0239023
0.0230776
0.0221271
0.021083
0.0199869
0.0188761
0.0177802
0.0167283
0.0157385
0.014835
0.014023
0.0133318
0.0127467
0.012327
0.012005
0.0119305
0.011846
0.0120988
0.0118194
0.297897
0.152817
0.0831053
0.0473974
0.0283905
0.0179088
0.011944
0.00840021
0.00622528
0.00485823
0.00404466
0.00363251
0.00353141
0.00364075
0.00388494
0.00420811
0.00458299
0.00500029
0.00545729
0.00595854
0.00651114
0.00712389
0.0078095
0.00858968
0.00947122
0.0104732
0.0116126
0.0129019
0.0143465
0.0159309
0.0176209
0.0193505
0.0210317
0.0225675
0.0238676
0.0248602
0.0255025
0.0257843
0.0257261
0.025374
0.0247878
0.0240238
0.0231177
0.0220911
0.0209782
0.0198214
0.0186581
0.0175175
0.0164273
0.0154045
0.0144709
0.0136308
0.0129107
0.0122961
0.0118413
0.0114828
0.011359
0.0112291
0.0114195
0.0111253
0.297773
0.153224
0.0838248
0.04821
0.029155
0.0185863
0.012541
0.00894364
0.00673315
0.00533922
0.00449913
0.00406489
0.00395364
0.0040693
0.00433307
0.00468183
0.00508361
0.00552619
0.00600686
0.00652999
0.00710339
0.00773634
0.00844234
0.00924365
0.0101469
0.011172
0.0123358
0.0136494
0.0151151
0.0167142
0.0184071
0.0201241
0.0217755
0.0232646
0.0245024
0.0254198
0.025978
0.0261715
0.0260245
0.0255858
0.0249153
0.0240691
0.0230845
0.0219861
0.02081
0.0195989
0.0183901
0.0172122
0.0160916
0.0150436
0.0140882
0.0132284
0.012488
0.0118527
0.0113721
0.0109866
0.0108246
0.0106607
0.010802
0.0105012
0.29771
0.153638
0.0845095
0.0489647
0.029856
0.0192005
0.0130774
0.00943098
0.00719355
0.0057854
0.00493267
0.00448804
0.00437476
0.00450315
0.00479277
0.00517357
0.0056079
0.00608002
0.00658702
0.00713329
0.00772749
0.00837957
0.00910396
0.00992293
0.010844
0.0118875
0.0130696
0.0144002
0.0158782
0.0174815
0.0191656
0.020858
0.0224679
0.0239001
0.0250673
0.0259037
0.0263747
0.0264787
0.0262433
0.0257187
0.0249653
0.0240392
0.0229793
0.0218134
0.0205793
0.0193198
0.0180719
0.0168636
0.0157195
0.0146537
0.0136839
0.012812
0.0120589
0.0114106
0.0109124
0.0105083
0.0103173
0.0101287
0.0102316
0.00993088
0.297685
0.154046
0.0851565
0.0496667
0.0305013
0.0197589
0.0135581
0.00986297
0.007602
0.00618726
0.00533246
0.00488782
0.00478052
0.00492826
0.00525062
0.00567116
0.00614534
0.00665299
0.00719046
0.00776226
0.00837808
0.00904878
0.00978988
0.0106233
0.0115584
0.0126153
0.0138098
0.0151499
0.0166314
0.0182287
0.0198927
0.0215489
0.0231065
0.0244722
0.0255614
0.0263119
0.026693
0.0267066
0.0263831
0.0257738
0.0249391
0.0239353
0.0228034
0.0215742
0.020287
0.0189848
0.0177038
0.0164713
0.0153102
0.0142334
0.0132561
0.0123789
0.0116201
0.0109659
0.0104572
0.0100417
0.00982947
0.00962417
0.0096974
0.00940217
0.297683
0.154437
0.0857645
0.0503204
0.0310975
0.0202684
0.0139889
0.0102428
0.00795754
0.00653892
0.00568843
0.00525147
0.00515677
0.0053296
0.00569128
0.0061598
0.00668255
0.00723352
0.00780735
0.00840853
0.00904792
0.00973755
0.0104943
0.0113393
0.0122848
0.0133505
0.0145514
0.015894
0.0173703
0.0189515
0.0205848
0.022194
0.0236892
0.0249798
0.0259844
0.0266447
0.0269336
0.0268562
0.026445
0.0257521
0.0248379
0.023759
0.0225584
0.0212701
0.0199347
0.0185949
0.0172865
0.0160357
0.0148638
0.0137821
0.0128035
0.0119275
0.0111693
0.0105155
0.0100026
0.00958216
0.00935549
0.00914019
0.0091909
0.00890579
0.297694
0.154807
0.086333
0.0509293
0.0316503
0.0207355
0.0143761
0.0105752
0.00826198
0.00683802
0.00599383
0.0055687
0.00549073
0.0056924
0.00609843
0.00662267
0.00720341
0.00780705
0.00842499
0.00906116
0.00972752
0.0104375
0.0112095
0.0120642
0.0130168
0.0140868
0.0152887
0.0166267
0.0180898
0.0196456
0.0212381
0.0227905
0.0242144
0.0254222
0.0263364
0.0269027
0.0270975
0.0269287
0.0264303
0.0256549
0.024663
0.0235117
0.022246
0.0209027
0.0195238
0.0181516
0.0168212
0.0155577
0.0143807
0.0133
0.0123259
0.0114568
0.0107052
0.0100574
0.00954623
0.00912638
0.00889114
0.0086716
0.00870581
0.00843473
0.297712
0.155152
0.0868627
0.0514966
0.0321644
0.0211659
0.0147257
0.010866
0.00851928
0.00708531
0.00624544
0.0058324
0.00577208
0.00600336
0.00645605
0.00704185
0.00768966
0.00835629
0.00902777
0.00970639
0.0104048
0.011138
0.0119262
0.0127892
0.0137463
0.0148168
0.0160147
0.0173419
0.0187842
0.020306
0.0218489
0.0233356
0.0246802
0.0257986
0.0266175
0.0270866
0.0271857
0.0269251
0.02634
0.0254834
0.0244158
0.0231947
0.0218675
0.0204736
0.0190558
0.0176564
0.0163093
0.0150386
0.0138621
0.0127878
0.0118238
0.010967
0.0102272
0.00959071
0.00908629
0.00867209
0.00843346
0.00821464
0.00823745
0.00798373
0.297731
0.155471
0.0873546
0.0520252
0.0326437
0.0215645
0.0150434
0.011121
0.00873471
0.00728405
0.00644333
0.00603905
0.00599377
0.00625191
0.00674982
0.00739972
0.00812184
0.00886168
0.0095973
0.0103276
0.011065
0.0118259
0.0126324
0.0135039
0.0144636
0.0155316
0.016721
0.0180318
0.0194468
0.0209272
0.0224126
0.0238262
0.0250847
0.026108
0.0268274
0.0271966
0.0271988
0.0268461
0.026175
0.0252385
0.0240972
0.0228094
0.0214245
0.0199843
0.0185326
0.0171111
0.0157527
0.0144802
0.0133095
0.0122469
0.0112982
0.0104587
0.00973554
0.00911502
0.00862203
0.00821793
0.00798045
0.00776665
0.00778242
0.00754891
0.297751
0.155765
0.0878104
0.0525176
0.0330916
0.0219355
0.0153343
0.0113462
0.00891426
0.00743928
0.00659038
0.00618855
0.00615249
0.0064311
0.00696848
0.00768046
0.00848066
0.00930237
0.0101129
0.0109054
0.0116905
0.0124853
0.013314
0.0141952
0.015157
0.0162202
0.0173977
0.0186876
0.0200696
0.0215023
0.0229238
0.0242581
0.0254249
0.0263487
0.0269652
0.0272325
0.0271368
0.0266921
0.0259355
0.0249206
0.023708
0.0223568
0.0209183
0.0194365
0.017956
0.0165177
0.0151535
0.0138846
0.0127251
0.0116793
0.0107506
0.00993306
0.00923105
0.00863077
0.00815336
0.00776332
0.00753099
0.00732591
0.00733841
0.0071275
0.297768
0.156034
0.088232
0.0529762
0.0335109
0.0222823
0.0156028
0.0115469
0.00906406
0.00755709
0.00669158
0.00628387
0.00624863
0.00653813
0.00710488
0.00787164
0.00874868
0.00965759
0.0105527
0.0114183
0.012261
0.0130978
0.0139541
0.0148481
0.0158127
0.01687
0.0180331
0.0192985
0.0206432
0.0220234
0.023376
0.0246262
0.0256974
0.0265182
0.0270294
0.0271933
0.0269991
0.0264625
0.0256216
0.02453
0.0232487
0.0218377
0.02035
0.0188318
0.017328
0.0158786
0.0145142
0.0132545
0.0121113
0.0110872
0.0101832
0.00939197
0.00871519
0.00813896
0.00768083
0.00730831
0.00708464
0.00689148
0.00690397
0.00671765
0.297784
0.15628
0.0886215
0.0534033
0.0339038
0.0226079
0.0158526
0.0117279
0.00919001
0.00764404
0.00675332
0.0063304
0.00628588
0.00657433
0.00715667
0.00796547
0.00891199
0.00990838
0.0108947
0.0118434
0.0127543
0.0136423
0.0145332
0.0154449
0.0164145
0.0174662
0.0186136
0.0198521
0.0211566
0.0224808
0.0237612
0.0249243
0.025897
0.0266127
0.0270172
0.0270769
0.0267842
0.0261563
0.0252323
0.0240662
0.0227193
0.0212526
0.0197209
0.0181718
0.0166506
0.0151961
0.0138376
0.0125927
0.0114712
0.0104737
0.00959882
0.00883783
0.00818996
0.00764117
0.00720559
0.00685358
0.00664163
0.00646306
0.00647836
0.00631822
0.297796
0.156504
0.0889813
0.0538011
0.0342725
0.0229145
0.0160868
0.0118936
0.0092975
0.0077066
0.00678268
0.00633514
0.00627063
0.00654479
0.00712634
0.00795969
0.00896184
0.0100394
0.0111188
0.0121579
0.0131471
0.0140962
0.0150301
0.0159658
0.0169441
0.0179918
0.0191235
0.0203341
0.0215968
0.0228634
0.0240698
0.0251443
0.0260174
0.0266272
0.0269246
0.0268803
0.0264895
0.0257716
0.0247663
0.0235284
0.0221196
0.0206021
0.019032
0.0174583
0.0159261
0.0144733
0.0131269
0.0119028
0.0108083
0.00984207
0.00900053
0.00827349
0.00765786
0.00713947
0.00672925
0.00640029
0.00620268
0.00604094
0.00606147
0.00592873
0.297807
0.156709
0.0893135
0.0541716
0.0346187
0.0232041
0.0163078
0.0120472
0.00939127
0.00775084
0.00678684
0.00630601
0.00621108
0.00645761
0.00702082
0.00785781
0.00889571
0.0100409
0.0112084
0.0123411
0.0134161
0.0144357
0.0154215
0.0163891
0.0173814
0.0184281
0.0195454
0.0207284
0.0219491
0.0231579
0.0242904
0.0252766
0.0260505
0.0265551
0.0267462
0.0265989
0.0261115
0.0253054
0.0242216
0.0229153
0.0214493
0.0198866
0.0182846
0.0166933
0.0151574
0.0137132
0.0123857
0.0111884
0.0101264
0.00919622
0.00839201
0.00770231
0.00712185
0.0066364
0.00625391
0.00595008
0.00576901
0.00562587
0.0056537
0.00554922
0.297814
0.156896
0.0896205
0.0545169
0.034944
0.0234782
0.0165176
0.0121917
0.00947529
0.00778218
0.00677264
0.00625109
0.00611641
0.00632293
0.00685055
0.00766871
0.00871782
0.00990974
0.0111529
0.0123757
0.0135401
0.0146377
0.015684
0.016692
0.0177047
0.0187547
0.0198602
0.0210173
0.0221972
0.0233496
0.0244099
0.0253098
0.0259868
0.0263883
0.0264752
0.0262271
0.0256457
0.0247543
0.0235954
0.0222253
0.0207077
0.0191064
0.01748
0.0158792
0.0143476
0.0129196
0.0116181
0.0104541
0.0094301
0.00854049
0.00777738
0.00712806
0.00658532
0.00613488
0.00578204
0.00550497
0.0053422
0.00521903
0.00525586
0.00518018
0.29782
0.157067
0.0899044
0.0548388
0.03525
0.0237381
0.0167177
0.0123291
0.00955284
0.00780523
0.00674623
0.00617814
0.00599601
0.00615191
0.00662839
0.00740559
0.00843884
0.00965074
0.010949
0.0122507
0.0135021
0.0146813
0.0157948
0.0168516
0.0178918
0.0189503
0.0200477
0.0211815
0.0223233
0.0234221
0.0244135
0.0252308
0.0258147
0.026117
0.0261035
0.0257583
0.0250865
0.0241139
0.0228848
0.0214567
0.0198943
0.0182625
0.0166204
0.0150188
0.0135003
0.012097
0.010829
0.00970483
0.00872425
0.00787968
0.00716116
0.00655491
0.00605199
0.0056382
0.00531646
0.0050673
0.00492418
0.00482192
0.00486915
0.00482247
0.297824
0.157224
0.0901673
0.0551392
0.0355378
0.0239848
0.0169093
0.0124612
0.00962648
0.00782381
0.00671294
0.00609419
0.00585884
0.00595583
0.00636829
0.00708464
0.00807486
0.00927614
0.0106018
0.0119627
0.0132911
0.01455
0.015734
0.0168464
0.0179208
0.0189935
0.0200872
0.0212014
0.0223085
0.0233579
0.0242852
0.0250254
0.0255218
0.0257304
0.0256218
0.0251847
0.0244277
0.0233796
0.0220867
0.0206079
0.0190092
0.017356
0.0157081
0.0141158
0.01262
0.0112503
0.0100238
0.00894607
0.00801436
0.00721904
0.00654828
0.00598735
0.00552591
0.00514991
0.00486024
0.00463969
0.00451716
0.00443634
0.00449505
0.00447729
0.297826
0.157368
0.0904114
0.0554198
0.0358089
0.0242192
0.0170932
0.0125893
0.00969817
0.00784093
0.00667714
0.00600529
0.00571295
0.0057453
0.00608419
0.00672338
0.00764574
0.00880481
0.0101251
0.0115177
0.0129046
0.0142339
0.0154865
0.016658
0.0177719
0.0188641
0.0199587
0.0210573
0.0221341
0.023139
0.0240083
0.0246781
0.0250942
0.0252165
0.02502
0.0244979
0.0236629
0.0225467
0.0211981
0.0196778
0.0180528
0.0163892
0.0147468
0.0131749
0.0117123
0.0103855
0.00920857
0.00818403
0.00730643
0.00656422
0.00594396
0.00543017
0.00501134
0.00467377
0.00441667
0.00422495
0.00412352
0.0040643
0.00413531
0.00414612
0.297827
0.157501
0.0906384
0.0556822
0.0360643
0.0244422
0.0172701
0.0127141
0.0097693
0.00785887
0.00664231
0.0059164
0.0055652
0.00552972
0.00578899
0.00633921
0.00717318
0.00826043
0.00954045
0.0109311
0.0123496
0.013732
0.0150442
0.0162736
0.0174293
0.0185447
0.0196441
0.0207312
0.0217821
0.022748
0.0235662
0.0241736
0.0245183
0.0245631
0.0242877
0.0236896
0.0227857
0.021611
0.020217
0.0186663
0.0170269
0.0153655
0.0137411
0.0122018
0.0107835
0.00950958
0.00839039
0.00742551
0.0066069
0.00592125
0.0053537
0.00488828
0.00451268
0.00421364
0.0039891
0.00382599
0.00374578
0.00370797
0.00379183
0.00383067
0.297827
0.157624
0.0908501
0.0559282
0.0363052
0.0246545
0.0174405
0.0128363
0.00984085
0.00787926
0.00661104
0.00583143
0.00542115
0.00531693
0.0054939
0.00594807
0.00667873
0.00766918
0.00887546
0.0102273
0.0116439
0.0130534
0.0144085
0.0156877
0.0168831
0.0180226
0.0191292
0.0202079
0.021237
0.0221695
0.0229437
0.0234976
0.0237807
0.0237588
0.0234153
0.0227523
0.0217907
0.0205693
0.0191424
0.0175745
0.0159348
0.0142898
0.0126975
0.0112038
0.00984159
0.00863038
0.00757698
0.00667789
0.00592263
0.00529634
0.0047831
0.00436668
0.00403433
0.00377339
0.00358091
0.00344574
0.0033865
0.00336959
0.00346666
0.00353283
0.297826
0.157739
0.0910482
0.056159
0.0365327
0.0248567
0.0176049
0.0129563
0.00991339
0.00790319
0.00658517
0.00575324
0.00528505
0.00511312
0.00520803
0.00556357
0.00618209
0.00705729
0.00816087
0.00943775
0.0108149
0.0122187
0.0135919
0.0149048
0.0161317
0.0172921
0.0184056
0.0194773
0.0204875
0.0213913
0.0221285
0.0226379
0.0228703
0.0227936
0.0223948
0.02168
0.0206743
0.0194204
0.0179754
0.016406
0.0147819
0.0131691
0.011624
0.0101898
0.00889553
0.00775685
0.00677683
0.005949
0.0052607
0.00469582
0.00423774
0.00387028
0.00358058
0.00335677
0.00319538
0.00308708
0.00304822
0.00305145
0.00316192
0.00325468
0.297825
0.157847
0.0912342
0.0563763
0.0367478
0.0250494
0.0177634
0.0130742
0.00998725
0.00793129
0.0065659
0.00568379
0.00515994
0.00492283
0.00493829
0.00519649
0.00569989
0.00644876
0.00742781
0.00859781
0.00989805
0.0112589
0.0126184
0.0139409
0.0151838
0.0163566
0.0174728
0.0185362
0.0195284
0.0204068
0.021113
0.0215867
0.0217795
0.021661
0.021221
0.0204695
0.0194357
0.0181659
0.0167202
0.015167
0.0135762
0.0120129
0.010531
0.00917028
0.00795579
0.00689888
0.00599901
0.00524696
0.00462825
0.0041259
0.00372299
0.00340369
0.00315544
0.00296726
0.00283554
0.0027527
0.00273335
0.00275578
0.00287978
0.00299839
0.297823
0.157948
0.0914094
0.0565812
0.0369514
0.0252332
0.0179164
0.01319
0.0100625
0.00796385
0.00655387
0.0056243
0.00504777
0.00474912
0.0046895
0.00485465
0.00524498
0.0058637
0.00670489
0.00774355
0.00893336
0.0102137
0.0115236
0.0128236
0.0140604
0.0152309
0.0163408
0.0173908
0.018363
0.0192171
0.0198965
0.0203422
0.0205062
0.0203593
0.0198936
0.0191223
0.0180783
0.0168115
0.0153846
0.0138672
0.0123291
0.0108334
0.00943106
0.00815769
0.00703399
0.00606705
0.00525288
0.00457987
0.00403218
0.00359241
0.00324377
0.00297111
0.00276247
0.00260795
0.00250411
0.00244502
0.00244411
0.00248473
0.00262236
0.00276625
0.29782
0.158044
0.0915752
0.056775
0.0371446
0.0254086
0.018064
0.0133039
0.0101391
0.00800087
0.00654931
0.00557535
0.00494961
0.00459375
0.00446456
0.00454311
0.0048263
0.00531739
0.00601597
0.0069082
0.0079617
0.00912792
0.0103516
0.0115913
0.012795
0.0139426
0.0150318
0.0160588
0.0170054
0.017833
0.0184875
0.018911
0.019056
0.0188939
0.0184184
0.0176454
0.0166109
0.0153679
0.013981
0.0125206
0.0110553
0.0096458
0.00833891
0.00716585
0.00614265
0.0052723
0.00454774
0.00395547
0.00347885
0.00310053
0.00280432
0.00257603
0.00240463
0.0022814
0.00220334
0.00216612
0.00218246
0.00224027
0.00239178
0.00256063
0.297818
0.158136
0.0917327
0.0569589
0.0373282
0.0255763
0.0182066
0.0134158
0.0102168
0.00804218
0.00655214
0.00553703
0.00486583
0.00445746
0.00426484
0.0042645
0.00444914
0.00482002
0.00537887
0.00611929
0.00702061
0.00804683
0.00915192
0.0102957
0.0114336
0.0125323
0.0135811
0.0145708
0.015482
0.0162775
0.0169056
0.0173102
0.0174441
0.0172791
0.0168097
0.0160537
0.0150494
0.0138521
0.0125275
0.0111458
0.00977367
0.00846806
0.00727133
0.00620975
0.0052947
0.00452541
0.00389232
0.00338071
0.00297369
0.00265451
0.00240797
0.00222115
0.00208414
0.0019895
0.00193494
0.00191765
0.00195006
0.00202423
0.00219009
0.00238399
0.297815
0.158224
0.0918831
0.057134
0.0375031
0.0257367
0.0183442
0.0135256
0.0102955
0.00808744
0.00656201
0.00550906
0.00479623
0.00434017
0.00409047
0.00401952
0.00411569
0.00437706
0.00480498
0.00539699
0.00614086
0.00701173
0.00797402
0.00899213
0.0100312
0.0110523
0.012037
0.012971
0.0138329
0.0145869
0.0151838
0.0155695
0.0156977
0.0155401
0.0150916
0.0143709
0.0134176
0.012288
0.011048
0.00976621
0.0085063
0.00732063
0.00624638
0.00530474
0.00450269
0.00383632
0.00329425
0.00286124
0.00252085
0.00225738
0.00205696
0.00190814
0.00180235
0.00173347
0.00170007
0.0017008
0.00174823
0.00183822
0.00201929
0.00223887
0.297812
0.158309
0.0920274
0.0573012
0.0376702
0.0258905
0.0184772
0.0136332
0.0103747
0.00813625
0.00657845
0.00549091
0.00474022
0.00424121
0.00394067
0.00380741
0.00382572
0.00399005
0.00429975
0.00475357
0.00534437
0.00605577
0.00686192
0.0077337
0.00864642
0.0095621
0.010458
0.0113153
0.0121111
0.0128108
0.0133682
0.0137318
0.0138565
0.0137141
0.0132993
0.0126306
0.0117478
0.0107068
0.00957214
0.00840954
0.00727828
0.00622536