/*--------------------------------*- C++ -*----------------------------------*\
| =========                 |                                                 |
| \\      /  F ield         | OpenFOAM: The Open Source CFD Toolbox           |
|  \\    /   O peration     | Version:  2.4.0                                 |
|   \\  /    A nd           | Web:      www.OpenFOAM.org                      |
|    \\/     M anipulation  |                                                 |
\*---------------------------------------------------------------------------*/
FoamFile
{
    version     2.0;
    format      ascii;
    class       volScalarField;
    location    "0.87";
    object      epsilon;
}
// * * * * * * * * * * * * * * * * * * * * * * * * * * * * * * * * * * * * * //

dimensions      [0 2 -3 0 0 0 0];

internalField   nonuniform List<scalar> 
6000
(
0.0973386
0.138493
0.180973
0.220958
0.255594
0.283296
0.303639
0.317075
0.324589
0.327384
0.326657
0.323466
0.318686
0.312994
0.306891
0.300734
0.294761
0.289126
0.283913
0.279161
0.274878
0.271045
0.267631
0.264594
0.261889
0.259467
0.257282
0.255288
0.253445
0.251715
0.250066
0.248473
0.246914
0.245372
0.243834
0.242291
0.240736
0.239162
0.237563
0.23593
0.234253
0.232516
0.230699
0.228774
0.226704
0.224443
0.221929
0.219086
0.215816
0.211996
0.207469
0.202043
0.195481
0.187492
0.177761
0.165873
0.151739
0.134609
0.117329
0.0950989
0.0250664
0.0270522
0.0301034
0.0338734
0.0379301
0.0418889
0.045528
0.0487672
0.0516128
0.0541207
0.0563697
0.0584422
0.0604113
0.0623356
0.0642566
0.0661993
0.0681742
0.0701793
0.0722025
0.0742245
0.0762208
0.0781643
0.0800276
0.0817845
0.0834119
0.084891
0.0862083
0.0873555
0.0883303
0.0891353
0.0897781
0.0902698
0.0906247
0.0908588
0.090989
0.0910326
0.0910063
0.0909262
0.0908073
0.0906639
0.0905096
0.0903579
0.0902224
0.090118
0.090061
0.0900708
0.0901711
0.0903913
0.0907698
0.091357
0.092221
0.0934556
0.0951934
0.0976293
0.10105
0.105916
0.112906
0.123216
0.137902
0.172152
0.0219104
0.0195999
0.0179097
0.0167133
0.0158962
0.0153459
0.0149704
0.0147045
0.0145063
0.0143524
0.0142332
0.0141487
0.0141044
0.0141082
0.0141685
0.0142933
0.0144892
0.0147612
0.0151129
0.0155464
0.0160619
0.0166584
0.0173334
0.018083
0.018902
0.0197839
0.0207213
0.0217056
0.0227275
0.0237773
0.0248448
0.0259199
0.0269929
0.0280544
0.029096
0.0301104
0.0310915
0.0320346
0.0329363
0.0337951
0.0346107
0.0353846
0.03612
0.0368217
0.0374966
0.0381541
0.0388064
0.0394697
0.0401652
0.0409222
0.0417812
0.0428004
0.044067
0.0457163
0.0479651
0.0511844
0.0560059
0.063666
0.0761532
0.10376
0.0217582
0.0190981
0.0169124
0.0151094
0.0136187
0.0123813
0.011348
0.0104783
0.00973956
0.00910585
0.00855707
0.00807804
0.00765752
0.0072874
0.00696189
0.00667698
0.00642995
0.00621899
0.00604295
0.00590117
0.00579331
0.00571923
0.00567898
0.00567267
0.00570048
0.00576257
0.00585911
0.00599021
0.00615588
0.00635605
0.0065905
0.00685886
0.00716058
0.00749491
0.00786091
0.00825747
0.00868327
0.00913691
0.00961691
0.0101218
0.0106503
0.0112013
0.0117743
0.0123693
0.0129875
0.0136314
0.0143056
0.0150174
0.0157778
0.0166032
0.0175173
0.0185552
0.0197689
0.021238
0.0230889
0.0255336
0.0289495
0.0340758
0.0424257
0.0593905
0.0217509
0.019066
0.0168344
0.0149634
0.0133833
0.0120402
0.0108917
0.00990394
0.00904968
0.00830685
0.00765745
0.00708677
0.0065828
0.00613572
0.00573748
0.00538151
0.00506244
0.00477585
0.00451811
0.00428627
0.00407788
0.00389093
0.00372379
0.0035751
0.00344378
0.00332896
0.00322993
0.00314615
0.00307722
0.00302287
0.0029829
0.00295725
0.00294591
0.00294896
0.00296656
0.00299894
0.00304641
0.00310936
0.00318832
0.00328392
0.00339701
0.00352868
0.00368036
0.00385398
0.00405211
0.00427826
0.00453728
0.00483584
0.00518328
0.00559271
0.0060828
0.00668042
0.00742503
0.00837577
0.00962491
0.0113192
0.0137161
0.0172645
0.0229784
0.0334856
0.0217506
0.0190635
0.0168276
0.0149497
0.0133592
0.0120023
0.0108367
0.00982909
0.0089531
0.00818746
0.00751493
0.00692144
0.0063954
0.00592722
0.00550894
0.00513388
0.00479645
0.00449193
0.00421632
0.00396625
0.00373883
0.00353159
0.00334243
0.00316954
0.00301137
0.00286659
0.00273404
0.00261273
0.00250182
0.00240057
0.00230836
0.00222466
0.00214902
0.00208108
0.00202054
0.00196718
0.00192083
0.00188141
0.00184892
0.00182345
0.00180519
0.0017945
0.00179191
0.00179821
0.00181454
0.00184254
0.00188454
0.00194388
0.00202541
0.00213616
0.00228658
0.00249235
0.0027776
0.00318017
0.00376176
0.00462395
0.00595036
0.00805117
0.0116479
0.0181236
0.0217505
0.019063
0.0168264
0.0149476
0.0133559
0.0119972
0.0108293
0.00981882
0.00893941
0.00816985
0.00749299
0.00689486
0.00636398
0.00589085
0.00546756
0.00508752
0.00474514
0.00443572
0.00415525
0.00390031
0.00366798
0.00345572
0.00326137
0.00308302
0.00291905
0.00276801
0.00262866
0.00249989
0.00238076
0.00227042
0.00216811
0.00207319
0.00198508
0.00190326
0.0018273
0.00175679
0.00169141
0.00163085
0.00157488
0.0015233
0.00147597
0.00143281
0.00139381
0.00135907
0.0013288
0.00130341
0.00128354
0.00127027
0.00126522
0.00127096
0.00129158
0.0013336
0.00140782
0.00153246
0.00173951
0.00208602
0.00268242
0.00372821
0.00570429
0.00943688
0.0217505
0.0190628
0.0168258
0.0149465
0.0133545
0.0119955
0.0108272
0.00981625
0.00893631
0.00816614
0.00748859
0.00688968
0.00635793
0.00588386
0.00545958
0.00507848
0.00473501
0.00442446
0.00414284
0.00388672
0.00365317
0.00343967
0.00324403
0.00306435
0.00289898
0.00274646
0.00260553
0.00247508
0.00235412
0.00224177
0.00213728
0.00203995
0.00194917
0.0018644
0.00178516
0.00171101
0.00164156
0.00157647
0.00151544
0.00145819
0.00140448
0.00135412
0.00130693
0.00126279
0.00122164
0.00118345
0.00114833
0.00111649
0.00108835
0.00106469
0.00104683
0.00103706
0.00103945
0.00106136
0.00111672
0.00123255
0.00146543
0.00192855
0.00290741
0.00491305
0.0217505
0.0190626
0.0168253
0.0149458
0.0133535
0.0119943
0.0108258
0.00981472
0.00893466
0.00816437
0.0074867
0.00688766
0.00635578
0.00588157
0.00545713
0.00507586
0.00473221
0.00442146
0.00413963
0.00388329
0.0036495
0.00343575
0.00323985
0.00305989
0.00289422
0.00274139
0.00260012
0.00246931
0.00234795
0.00223518
0.00213022
0.00203237
0.00194102
0.00185562
0.00177568
0.00170075
0.00163042
0.00156435
0.00150221
0.00144371
0.00138858
0.00133659
0.00128754
0.00124123
0.00119752
0.00115628
0.00111743
0.00108094
0.00104686
0.00101536
0.000986831
0.000962015
0.000942356
0.000930637
0.000932453
0.000959459
0.00103777
0.00122565
0.0016771
0.00270388
0.0217505
0.0190624
0.0168249
0.0149451
0.0133527
0.0119933
0.0108246
0.00981349
0.00893335
0.008163
0.00748529
0.00688622
0.00635432
0.0058801
0.00545565
0.00507437
0.00473071
0.00441996
0.00413811
0.00388175
0.00364795
0.00343418
0.00323825
0.00305826
0.00289255
0.00273968
0.00259837
0.0024675
0.00234608
0.00223325
0.00212821
0.00203027
0.00193883
0.00185332
0.00177324
0.00169816
0.00162767
0.00156141
0.00149905
0.00144029
0.00138487
0.00133254
0.00128309
0.00123631
0.00119203
0.00115009
0.00111037
0.00107276
0.0010372
0.0010037
0.000972327
0.000943335
0.000917243
0.000895129
0.000879235
0.000874465
0.000892235
0.000960803
0.00115724
0.00166504
0.0217504
0.0190623
0.0168246
0.0149446
0.013352
0.0119925
0.0108237
0.00981245
0.00893224
0.00816185
0.0074841
0.00688502
0.00635311
0.00587889
0.00545445
0.00507319
0.00472954
0.0044188
0.00413698
0.00388064
0.00364686
0.0034331
0.00323719
0.00305722
0.00289153
0.00273867
0.00259737
0.00246652
0.00234511
0.00223228
0.00212725
0.00202931
0.00193787
0.00185235
0.00177227
0.00169718
0.00162668
0.00156039
0.00149801
0.00143922
0.00138375
0.00133137
0.00128185
0.00123499
0.0011906
0.00114853
0.00110863
0.00107078
0.0010349
0.00100093
0.000968865
0.000938794
0.000910941
0.00088579
0.00086434
0.000848767
0.000844042
0.000863551
0.000943876
0.00118812
0.0217504
0.0190622
0.0168243
0.0149442
0.0133514
0.0119917
0.0108229
0.00981155
0.00893128
0.00816085
0.00748307
0.00688398
0.00635207
0.00587784
0.00545341
0.00507217
0.00472854
0.00441782
0.00413601
0.0038797
0.00364594
0.00343221
0.00323632
0.00305637
0.0028907
0.00273787
0.00259659
0.00246576
0.00234437
0.00223156
0.00212654
0.00202863
0.0019372
0.0018517
0.00177163
0.00169656
0.00162606
0.00155979
0.00149741
0.00143863
0.00138318
0.0013308
0.00128128
0.00123442
0.00119003
0.00114795
0.00110803
0.00107016
0.00103423
0.00100018
0.00096798
0.000937672
0.00090939
0.000883423
0.000860331
0.00084125
0.000828508
0.00082856
0.000858227
0.000973089
0.0217504
0.0190622
0.0168241
0.0149439
0.0133509
0.0119911
0.0108222
0.00981078
0.00893045
0.00815998
0.00748218
0.00688307
0.00635115
0.00587693
0.00545251
0.00507127
0.00472766
0.00441696
0.00413517
0.00387888
0.00364514
0.00343144
0.00323557
0.00305564
0.00288999
0.00273718
0.00259592
0.0024651
0.00234374
0.00223094
0.00212595
0.00202805
0.00193664
0.00185115
0.0017711
0.00169604
0.00162556
0.00155931
0.00149695
0.00143818
0.00138274
0.00133038
0.00128087
0.00123403
0.00118965
0.00114759
0.00110769
0.00106983
0.00103392
0.000999874
0.000967675
0.000937345
0.000908991
0.000882842
0.000859306
0.000839133
0.000823616
0.000816108
0.000824275
0.000877308
0.0217504
0.0190621
0.0168239
0.0149436
0.0133505
0.0119906
0.0108216
0.00981011
0.00892974
0.00815922
0.0074814
0.00688228
0.00635035
0.00587614
0.00545172
0.00507049
0.00472689
0.00441621
0.00413444
0.00387816
0.00364444
0.00343076
0.00323491
0.003055
0.00288937
0.00273657
0.00259533
0.00246453
0.00234318
0.00223041
0.00212543
0.00202754
0.00193615
0.00185068
0.00177064
0.0016956
0.00162513
0.00155889
0.00149654
0.00143779
0.00138236
0.00133002
0.00128053
0.0012337
0.00118934
0.0011473
0.00110742
0.00106959
0.0010337
0.000999682
0.000967512
0.00093721
0.000908873
0.00088271
0.000859077
0.000838575
0.000822101
0.00081164
0.000810767
0.000834723
0.0217504
0.0190621
0.0168238
0.0149433
0.0133502
0.0119902
0.0108211
0.00980954
0.00892911
0.00815857
0.00748073
0.00688159
0.00634966
0.00587544
0.00545103
0.00506981
0.00472622
0.00441555
0.00413379
0.00387753
0.00364383
0.00343016
0.00323433
0.00305443
0.00288882
0.00273604
0.00259482
0.00246404
0.0023427
0.00222994
0.00212497
0.0020271
0.00193572
0.00185026
0.00177024
0.00169521
0.00162476
0.00155853
0.00149619
0.00143745
0.00138204
0.00132971
0.00128023
0.00123342
0.00118908
0.00114705
0.0011072
0.00106939
0.00103352
0.00099954
0.000967405
0.00093714
0.00090884
0.000882705
0.00085907
0.000838473
0.000821649
0.000809971
0.000805226
0.000815497
0.0217504
0.019062
0.0168237
0.0149431
0.0133499
0.0119898
0.0108206
0.00980904
0.00892858
0.008158
0.00748014
0.00688099
0.00634905
0.00587483
0.00545042
0.00506921
0.00472563
0.00441497
0.00413323
0.00387698
0.0036433
0.00342964
0.00323382
0.00305394
0.00288834
0.00273558
0.00259437
0.0024636
0.00234228
0.00222953
0.00212457
0.00202672
0.00193535
0.0018499
0.00176989
0.00169487
0.00162443
0.00155821
0.00149589
0.00143716
0.00138176
0.00132944
0.00127998
0.00123318
0.00118886
0.00114685
0.00110701
0.00106923
0.00103339
0.000999439
0.000967338
0.000937112
0.000908853
0.000882757
0.000859145
0.000838521
0.000821549
0.000809301
0.00080279
0.000806455
0.0217504
0.019062
0.0168236
0.0149429
0.0133496
0.0119895
0.0108203
0.00980861
0.00892811
0.00815751
0.00747963
0.00688046
0.00634852
0.00587431
0.0054499
0.0050687
0.00472512
0.00441447
0.00413274
0.00387651
0.00364283
0.00342919
0.00323338
0.00305351
0.00288793
0.00273517
0.00259398
0.00246322
0.00234191
0.00222917
0.00212423
0.00202638
0.00193502
0.00184959
0.00176959
0.00169458
0.00162415
0.00155794
0.00149563
0.00143691
0.00138152
0.00132921
0.00127977
0.00123298
0.00118867
0.00114668
0.00110687
0.0010691
0.0010333
0.000999373
0.000967307
0.00093712
0.000908904
0.000882849
0.000859268
0.000838643
0.000821593
0.000809024
0.000801604
0.000801889
0.0217504
0.019062
0.0168235
0.0149428
0.0133494
0.0119892
0.0108199
0.00980825
0.00892772
0.00815709
0.00747919
0.00688002
0.00634807
0.00587385
0.00544945
0.00506825
0.00472468
0.00441404
0.00413232
0.00387609
0.00364243
0.00342879
0.003233
0.00305314
0.00288757
0.00273483
0.00259364
0.00246289
0.00234159
0.00222887
0.00212393
0.0020261
0.00193474
0.00184932
0.00176933
0.00169433
0.00162391
0.00155771
0.0014954
0.0014367
0.00138132
0.00132902
0.00127959
0.00123282
0.00118853
0.00114655
0.00110676
0.00106902
0.00103323
0.000999341
0.00096731
0.000937162
0.000908989
0.000882977
0.000859433
0.000838819
0.000821722
0.000808938
0.000800971
0.000799365
0.0217504
0.019062
0.0168235
0.0149427
0.0133492
0.011989
0.0108197
0.00980794
0.00892738
0.00815673
0.00747882
0.00687964
0.00634769
0.00587347
0.00544906
0.00506787
0.00472431
0.00441367
0.00413196
0.00387574
0.00364209
0.00342846
0.00323268
0.00305283
0.00288726
0.00273453
0.00259335
0.00246262
0.00234132
0.0022286
0.00212368
0.00202585
0.00193451
0.00184909
0.00176911
0.00169411
0.0016237
0.00155751
0.00149522
0.00143652
0.00138115
0.00132887
0.00127945
0.00123269
0.00118841
0.00114645
0.00110668
0.00106896
0.0010332
0.00099934
0.000967344
0.000937236
0.000909107
0.00088314
0.000859636
0.000839042
0.000821918
0.000808981
0.000800638
0.000797853
0.0217504
0.019062
0.0168234
0.0149426
0.0133491
0.0119888
0.0108194
0.00980769
0.0089271
0.00815644
0.00747851
0.00687932
0.00634736
0.00587314
0.00544874
0.00506755
0.00472399
0.00441336
0.00413166
0.00387545
0.0036418
0.00342818
0.0032324
0.00305257
0.00288701
0.00273428
0.00259311
0.00246238
0.0023411
0.00222839
0.00212347
0.00202565
0.00193431
0.0018489
0.00176893
0.00169394
0.00162353
0.00155735
0.00149507
0.00143638
0.00138102
0.00132874
0.00127933
0.00123258
0.00118832
0.00114638
0.00110662
0.00106893
0.0010332
0.000999367
0.000967406
0.000937339
0.000909254
0.000883335
0.000859875
0.00083931
0.000822178
0.00080913
0.000800511
0.000796923
0.0217504
0.019062
0.0168234
0.0149425
0.013349
0.0119887
0.0108193
0.00980748
0.00892687
0.00815619
0.00747826
0.00687906
0.0063471
0.00587288
0.00544848
0.00506729
0.00472374
0.00441311
0.00413141
0.0038752
0.00364156
0.00342795
0.00323218
0.00305235
0.0028868
0.00273408
0.00259292
0.00246219
0.00234091
0.00222821
0.00212329
0.00202548
0.00193415
0.00184875
0.00176878
0.0016938
0.0016234
0.00155722
0.00149494
0.00143626
0.00138091
0.00132865
0.00127925
0.00123251
0.00118826
0.00114634
0.0011066
0.00106893
0.00103322
0.00099942
0.000967495
0.000937468
0.00090943
0.000883559
0.000860149
0.000839621
0.000822498
0.000809379
0.000800555
0.000796389
0.0217504
0.0190619
0.0168234
0.0149424
0.0133489
0.0119885
0.0108191
0.00980732
0.00892669
0.008156
0.00747806
0.00687886
0.00634689
0.00587267
0.00544827
0.00506708
0.00472353
0.00441291
0.00413121
0.00387501
0.00364138
0.00342777
0.00323201
0.00305218
0.00288663
0.00273392
0.00259276
0.00246204
0.00234077
0.00222807
0.00212316
0.00202535
0.00193403
0.00184863
0.00176866
0.00169369
0.00162329
0.00155713
0.00149485
0.00143618
0.00138083
0.00132858
0.00127919
0.00123247
0.00118823
0.00114632
0.0011066
0.00106895
0.00103327
0.000999499
0.000967609
0.000937623
0.000909631
0.000883812
0.000860455
0.000839974
0.000822877
0.000809723
0.000800759
0.000796173
0.0217504
0.0190619
0.0168233
0.0149424
0.0133488
0.0119885
0.010819
0.0098072
0.00892656
0.00815586
0.00747791
0.0068787
0.00634674
0.00587251
0.00544812
0.00506693
0.00472338
0.00441277
0.00413107
0.00387487
0.00364124
0.00342764
0.00323188
0.00305205
0.00288651
0.0027338
0.00259265
0.00246193
0.00234066
0.00222796
0.00212306
0.00202526
0.00193393
0.00184854
0.00176858
0.00169361
0.00162322
0.00155706
0.00149479
0.00143612
0.00138079
0.00132854
0.00127916
0.00123245
0.00118822
0.00114633
0.00110663
0.001069
0.00103334
0.000999601
0.000967746
0.000937801
0.000909857
0.000884091
0.000860791
0.000840367
0.000823315
0.000810161
0.000801118
0.000796239
0.0217504
0.0190619
0.0168233
0.0149424
0.0133488
0.0119884
0.0108189
0.00980712
0.00892648
0.00815577
0.00747781
0.0068786
0.00634664
0.00587241
0.00544802
0.00506683
0.00472328
0.00441267
0.00413097
0.00387478
0.00364115
0.00342755
0.00323179
0.00305197
0.00288643
0.00273372
0.00259257
0.00246186
0.00234059
0.0022279
0.002123
0.0020252
0.00193388
0.00184849
0.00176853
0.00169356
0.00162318
0.00155702
0.00149476
0.00143609
0.00138076
0.00132852
0.00127915
0.00123245
0.00118824
0.00114636
0.00110668
0.00106907
0.00103344
0.000999725
0.000967906
0.000938002
0.000910106
0.000884395
0.000861157
0.000840799
0.000823809
0.000810692
0.000801629
0.000796571
0.0217504
0.0190619
0.0168233
0.0149423
0.0133488
0.0119884
0.0108189
0.00980708
0.00892643
0.00815572
0.00747777
0.00687855
0.00634659
0.00587236
0.00544796
0.00506678
0.00472323
0.00441262
0.00413093
0.00387473
0.0036411
0.0034275
0.00323175
0.00305193
0.00288639
0.00273368
0.00259254
0.00246182
0.00234056
0.00222787
0.00212297
0.00202517
0.00193385
0.00184846
0.00176851
0.00169354
0.00162316
0.00155701
0.00149475
0.00143609
0.00138077
0.00132853
0.00127917
0.00123248
0.00118828
0.00114642
0.00110675
0.00106916
0.00103355
0.000999871
0.000968087
0.000938224
0.000910377
0.000884723
0.000861552
0.000841268
0.00082436
0.000811316
0.000802294
0.000797162
0.0217504
0.0190619
0.0168233
0.0149423
0.0133488
0.0119884
0.0108189
0.00980708
0.00892643
0.00815572
0.00747777
0.00687855
0.00634659
0.00587236
0.00544796
0.00506678
0.00472323
0.00441262
0.00413093
0.00387473
0.0036411
0.00342751
0.00323175
0.00305193
0.00288639
0.00273369
0.00259254
0.00246183
0.00234056
0.00222787
0.00212297
0.00202517
0.00193386
0.00184847
0.00176852
0.00169355
0.00162318
0.00155702
0.00149477
0.00143612
0.0013808
0.00132857
0.00127921
0.00123253
0.00118834
0.00114649
0.00110684
0.00106927
0.00103369
0.00100004
0.000968288
0.000938467
0.000910668
0.000885074
0.000861973
0.000841774
0.000824967
0.000812034
0.000803113
0.000798013
0.0217504
0.0190619
0.0168233
0.0149424
0.0133488
0.0119884
0.0108189
0.00980712
0.00892648
0.00815577
0.00747781
0.0068786
0.00634664
0.00587241
0.00544802
0.00506683
0.00472328
0.00441267
0.00413098
0.00387478
0.00364115
0.00342755
0.00323179
0.00305197
0.00288644
0.00273373
0.00259258
0.00246187
0.0023406
0.00222791
0.00212301
0.00202521
0.0019339
0.00184851
0.00176856
0.0016936
0.00162322
0.00155707
0.00149482
0.00143617
0.00138085
0.00132863
0.00127928
0.00123261
0.00118843
0.00114659
0.00110696
0.00106941
0.00103385
0.00100023
0.000968509
0.000938729
0.00091098
0.000885446
0.00086242
0.000842316
0.000825629
0.000812845
0.00080409
0.000799128
0.0217504
0.0190619
0.0168233
0.0149424
0.0133488
0.0119885
0.010819
0.0098072
0.00892656
0.00815586
0.00747791
0.0068787
0.00634674
0.00587252
0.00544812
0.00506693
0.00472339
0.00441277
0.00413107
0.00387488
0.00364124
0.00342764
0.00323188
0.00305206
0.00288652
0.00273381
0.00259266
0.00246194
0.00234068
0.00222798
0.00212308
0.00202528
0.00193397
0.00184858
0.00176863
0.00169367
0.00162329
0.00155714
0.00149489
0.00143624
0.00138093
0.00132872
0.00127937
0.00123271
0.00118854
0.00114672
0.0011071
0.00106956
0.00103403
0.00100043
0.000968749
0.00093901
0.000911311
0.000885838
0.000862892
0.000842893
0.000826347
0.000813753
0.00080523
0.000800517
0.0217504
0.0190619
0.0168234
0.0149424
0.0133489
0.0119885
0.0108191
0.00980732
0.0089267
0.008156
0.00747806
0.00687886
0.0063469
0.00587267
0.00544827
0.00506708
0.00472354
0.00441292
0.00413122
0.00387502
0.00364138
0.00342778
0.00323201
0.00305219
0.00288664
0.00273393
0.00259278
0.00246206
0.00234079
0.00222809
0.00212319
0.00202539
0.00193407
0.00184868
0.00176873
0.00169377
0.00162339
0.00155724
0.00149499
0.00143635
0.00138104
0.00132883
0.00127949
0.00123283
0.00118868
0.00114686
0.00110726
0.00106974
0.00103423
0.00100066
0.000969009
0.00093931
0.00091166
0.000886251
0.000863387
0.000843504
0.00082712
0.000814759
0.000806539
0.000802196
0.0217504
0.019062
0.0168234
0.0149425
0.013349
0.0119887
0.0108193
0.00980748
0.00892687
0.00815619
0.00747826
0.00687906
0.0063471
0.00587288
0.00544848
0.00506729
0.00472374
0.00441312
0.00413141
0.00387521
0.00364157
0.00342796
0.00323219
0.00305236
0.00288681
0.0027341
0.00259294
0.00246222
0.00234094
0.00222824
0.00212334
0.00202553
0.00193421
0.00184882
0.00176887
0.0016939
0.00162352
0.00155737
0.00149513
0.00143648
0.00138118
0.00132897
0.00127963
0.00123298
0.00118883
0.00114703
0.00110744
0.00106994
0.00103445
0.00100091
0.000969287
0.000939628
0.000912028
0.000886683
0.000863907
0.000844148
0.000827949
0.000815866
0.000808025
0.000804184
0.0217504
0.019062
0.0168234
0.0149426
0.0133491
0.0119888
0.0108194
0.00980769
0.0089271
0.00815644
0.00747851
0.00687932
0.00634737
0.00587314
0.00544874
0.00506755
0.004724
0.00441337
0.00413166
0.00387545
0.00364181
0.00342819
0.00323242
0.00305258
0.00288703
0.0027343
0.00259314
0.00246241
0.00234113
0.00222843
0.00212352
0.00202571
0.00193438
0.00184899
0.00176903
0.00169406
0.00162369
0.00155754
0.00149529
0.00143664
0.00138134
0.00132913
0.0012798
0.00123316
0.00118902
0.00114722
0.00110764
0.00107016
0.00103469
0.00100117
0.000969585
0.000939964
0.000912414
0.000887135
0.000864449
0.000844826
0.000828833
0.000817079
0.000809698
0.000806509
0.0217504
0.019062
0.0168235
0.0149427
0.0133492
0.011989
0.0108197
0.00980794
0.00892738
0.00815673
0.00747882
0.00687964
0.00634769
0.00587347
0.00544907
0.00506787
0.00472431
0.00441368
0.00413197
0.00387575
0.0036421
0.00342847
0.00323269
0.00305285
0.00288728
0.00273455
0.00259338
0.00246265
0.00234137
0.00222865
0.00212374
0.00202592
0.00193459
0.0018492
0.00176923
0.00169426
0.00162388
0.00155773
0.00149548
0.00143683
0.00138153
0.00132933
0.00128
0.00123336
0.00118922
0.00114744
0.00110787
0.00107041
0.00103495
0.00100146
0.000969902
0.00094032
0.000912818
0.000887605
0.000865014
0.000845536
0.000829775
0.000818402
0.00081157
0.000809209
0.0217504
0.019062
0.0168235
0.0149428
0.0133494
0.0119892
0.0108199
0.00980825
0.00892772
0.00815709
0.00747919
0.00688002
0.00634807
0.00587385
0.00544945
0.00506825
0.00472469
0.00441405
0.00413233
0.0038761
0.00364244
0.00342881
0.00323302
0.00305316
0.00288759
0.00273485
0.00259367
0.00246293
0.00234164
0.00222892
0.002124
0.00202618
0.00193484
0.00184944
0.00176947
0.0016945
0.00162411
0.00155795
0.0014957
0.00143706
0.00138175
0.00132955
0.00128022
0.00123359
0.00118946
0.00114768
0.00110813
0.00107067
0.00103524
0.00100177
0.00097024
0.000940694
0.000913241
0.000888094
0.0008656
0.000846279
0.000830773
0.000819841
0.000813656
0.000812331
0.0217504
0.019062
0.0168236
0.0149429
0.0133496
0.0119895
0.0108203
0.00980861
0.00892811
0.00815751
0.00747963
0.00688047
0.00634853
0.00587431
0.0054499
0.0050687
0.00472513
0.00441448
0.00413275
0.00387652
0.00364284
0.0034292
0.0032334
0.00305354
0.00288795
0.00273521
0.00259402
0.00246326
0.00234196
0.00222924
0.0021243
0.00202648
0.00193513
0.00184972
0.00176975
0.00169477
0.00162438
0.00155822
0.00149596
0.00143731
0.00138201
0.0013298
0.00128048
0.00123385
0.00118972
0.00114795
0.00110841
0.00107097
0.00103555
0.0010021
0.0009706
0.000941089
0.000913683
0.000888602
0.000866209
0.000847054
0.00083183
0.000821403
0.000815974
0.000815935
0.0217504
0.019062
0.0168237
0.0149431
0.0133499
0.0119898
0.0108206
0.00980904
0.00892858
0.008158
0.00748014
0.00688099
0.00634905
0.00587484
0.00545043
0.00506922
0.00472564
0.00441498
0.00413324
0.003877
0.00364331
0.00342966
0.00323384
0.00305397
0.00288837
0.00273561
0.00259441
0.00246365
0.00234234
0.0022296
0.00212466
0.00202682
0.00193547
0.00185005
0.00177007
0.00169508
0.00162468
0.00155852
0.00149626
0.00143761
0.0013823
0.00133009
0.00128077
0.00123414
0.00119002
0.00114825
0.00110872
0.00107129
0.00103589
0.00100246
0.000970982
0.000941506
0.000914145
0.000889131
0.000866841
0.000847862
0.000832946
0.000823097
0.000818543
0.000820102
0.0217504
0.0190621
0.0168238
0.0149433
0.0133502
0.0119902
0.0108211
0.00980954
0.00892912
0.00815857
0.00748073
0.00688159
0.00634966
0.00587544
0.00545103
0.00506982
0.00472623
0.00441556
0.00413381
0.00387755
0.00364385
0.00343018
0.00323435
0.00305446
0.00288885
0.00273608
0.00259486
0.00246409
0.00234276
0.00223001
0.00212506
0.00202721
0.00193585
0.00185042
0.00177043
0.00169544
0.00162503
0.00155886
0.00149659
0.00143794
0.00138263
0.00133042
0.0012811
0.00123446
0.00119035
0.00114859
0.00110906
0.00107164
0.00103625
0.00100284
0.00097139
0.000941946
0.00091463
0.000889681
0.000867495
0.000848703
0.000834121
0.000824931
0.000821388
0.000824938
0.0217504
0.0190621
0.0168239
0.0149436
0.0133505
0.0119906
0.0108216
0.00981011
0.00892974
0.00815923
0.00748141
0.00688228
0.00635036
0.00587614
0.00545173
0.0050705
0.0047269
0.00441622
0.00413445
0.00387818
0.00364446
0.00343078
0.00323493
0.00305503
0.0028894
0.00273661
0.00259538
0.00246459
0.00234325
0.00223049
0.00212552
0.00202766
0.00193629
0.00185085
0.00177085
0.00169584
0.00162543
0.00155925
0.00149698
0.00143832
0.001383
0.00133079
0.00128146
0.00123483
0.00119071
0.00114896
0.00110943
0.00107202
0.00103665
0.00100325
0.000971826
0.000942412
0.000915138
0.000890253
0.000868174
0.000849576
0.000835358
0.000826918
0.000824535
0.000830584
0.0217504
0.0190622
0.0168241
0.0149439
0.0133509
0.0119911
0.0108222
0.00981078
0.00893046
0.00815998
0.00748218
0.00688307
0.00635116
0.00587694
0.00545252
0.00507128
0.00472767
0.00441697
0.00413519
0.0038789
0.00364516
0.00343146
0.00323559
0.00305567
0.00289003
0.00273722
0.00259597
0.00246517
0.00234381
0.00223103
0.00212605
0.00202818
0.00193679
0.00185134
0.00177132
0.00169631
0.00162588
0.0015597
0.00149741
0.00143874
0.00138342
0.0013312
0.00128187
0.00123524
0.00119112
0.00114937
0.00110985
0.00107245
0.00103708
0.0010037
0.000972294
0.000942908
0.000915675
0.000890852
0.000868878
0.000850485
0.000836658
0.000829069
0.000828018
0.000837229
0.0217504
0.0190622
0.0168243
0.0149442
0.0133514
0.0119917
0.0108229
0.00981155
0.00893128
0.00816085
0.00748308
0.00688398
0.00635207
0.00587785
0.00545342
0.00507217
0.00472855
0.00441783
0.00413603
0.00387972
0.00364596
0.00343223
0.00323635
0.0030564
0.00289074
0.00273791
0.00259665
0.00246582
0.00234445
0.00223165
0.00212665
0.00202876
0.00193736
0.00185189
0.00177187
0.00169684
0.0016264
0.0015602
0.00149791
0.00143923
0.0013839
0.00133168
0.00128234
0.0012357
0.00119159
0.00114983
0.00111031
0.00107292
0.00103756
0.0010042
0.000972809
0.000943448
0.000916253
0.00089149
0.000869621
0.000851437
0.000838029
0.000831405
0.000831876
0.00084514
0.0217504
0.0190623
0.0168246
0.0149446
0.013352
0.0119925
0.0108237
0.00981245
0.00893224
0.00816185
0.00748411
0.00688502
0.00635312
0.00587889
0.00545446
0.0050732
0.00472955
0.00441882
0.00413699
0.00388066
0.00364688
0.00343313
0.00323722
0.00305725
0.00289157
0.00273872
0.00259743
0.00246659
0.00234519
0.00223238
0.00212736
0.00202946
0.00193804
0.00185256
0.00177252
0.00169748
0.00162703
0.00156082
0.00149852
0.00143984
0.0013845
0.00133228
0.00128294
0.0012363
0.00119218
0.00115043
0.00111092
0.00107353
0.00103819
0.00100483
0.000973463
0.000944125
0.000916962
0.00089225
0.000870477
0.000852497
0.000839524
0.000833977
0.000836182
0.000854708
0.0217505
0.0190624
0.0168249
0.0149451
0.0133527
0.0119933
0.0108247
0.0098135
0.00893335
0.00816301
0.00748529
0.00688623
0.00635433
0.0058801
0.00545566
0.00507438
0.00473072
0.00441997
0.00413812
0.00388177
0.00364797
0.0034342
0.00323828
0.00305829
0.00289259
0.00273973
0.00259843
0.00246757
0.00234617
0.00223335
0.00212833
0.00203042
0.001939
0.00185352
0.00177349
0.00169846
0.00162802
0.00156183
0.00149955
0.00144088
0.00138557
0.00133337
0.00128406
0.00123744
0.00119335
0.00115163
0.00111214
0.00107479
0.00103947
0.00100614
0.000974785
0.000945463
0.000918313
0.000893621
0.000871897
0.000854065
0.000841483
0.000837069
0.00084118
0.000866592
0.0217505
0.0190626
0.0168253
0.0149458
0.0133535
0.0119943
0.0108258
0.00981472
0.00893466
0.00816437
0.0074867
0.00688766
0.00635578
0.00588157
0.00545714
0.00507587
0.00473222
0.00442148
0.00413964
0.0038833
0.00364953
0.00343578
0.00323988
0.00305993
0.00289426
0.00274144
0.00260018
0.00246938
0.00234803
0.00223528
0.00213033
0.0020325
0.00194118
0.0018558
0.00177588
0.00170098
0.00163068
0.00156464
0.00150252
0.00144403
0.0013889
0.00133688
0.00128775
0.0012413
0.00119737
0.0011558
0.00111646
0.00107924
0.00104404
0.0010108
0.000979497
0.000950181
0.000922983
0.000898188
0.000876322
0.000858369
0.000845857
0.000842297
0.00084816
0.000882437
0.0217505
0.0190628
0.0168258
0.0149465
0.0133545
0.0119955
0.0108272
0.00981625
0.00893631
0.00816614
0.00748859
0.00688968
0.00635793
0.00588386
0.00545958
0.00507849
0.00473502
0.00442448
0.00414285
0.00388674
0.00365319
0.0034397
0.00324406
0.00306438
0.00289901
0.0027465
0.00260558
0.00247513
0.00235417
0.00224183
0.00213733
0.00204
0.00194921
0.00186441
0.00178513
0.00171091
0.00164137
0.00157613
0.00151486
0.00145727
0.00140307
0.001352
0.0013038
0.00125824
0.00121509
0.00117428
0.00113568
0.00109914
0.00106453
0.00103177
0.00100079
0.000971579
0.000944211
0.000918916
0.000896181
0.000877002
0.000863067
0.000858548
0.000864238
0.000908562
0.0217505
0.019063
0.0168264
0.0149476
0.0133559
0.0119972
0.0108293
0.00981883
0.00893942
0.00816985
0.007493
0.00689487
0.00636398
0.00589085
0.00546757
0.00508752
0.00474515
0.00443572
0.00415526
0.00390032
0.00366799
0.00345573
0.00326138
0.00308303
0.00291904
0.002768
0.00262863
0.00249985
0.00238068
0.00227028
0.0021679
0.00207288
0.00198461
0.00190257
0.00182629
0.00175534
0.00168932
0.00162787
0.00157064
0.00151731
0.00146755
0.00142101
0.00137735
0.00133619
0.00129707
0.00125996
0.00122503
0.00119204
0.00116076
0.00113088
0.00110213
0.0010742
0.00104684
0.00101994
0.000993645
0.000968693
0.000946733
0.000932509
0.000927435
0.000975157
0.0217506
0.0190635
0.0168276
0.0149497
0.0133592
0.0120023
0.0108367
0.00982909
0.0089531
0.00818746
0.00751494
0.00692144
0.0063954
0.00592723
0.00550894
0.00513388
0.00479644
0.00449192
0.00421631
0.00396623
0.00373879
0.00353154
0.00334236
0.00316943
0.00301122
0.00286637
0.00273372
0.00261228
0.00250118
0.00239967
0.00230709
0.00222287
0.00214651
0.00207756
0.00201561
0.00196028
0.00191121
0.00186803
0.00183035
0.00179773
0.00176967
0.00174558
0.00172473
0.00170622
0.00168894
0.00167136
0.00165658
0.00164381
0.00163197
0.00161968
0.00160529
0.00158691