/*--------------------------------*- C++ -*----------------------------------*\
| =========                 |                                                 |
| \\      /  F ield         | OpenFOAM: The Open Source CFD Toolbox           |
|  \\    /   O peration     | Version:  2.4.0                                 |
|   \\  /    A nd           | Web:      www.OpenFOAM.org                      |
|    \\/     M anipulation  |                                                 |
\*---------------------------------------------------------------------------*/
FoamFile
{
    version     2.0;
    format      ascii;
    class       volVectorField;
    location    "0.87";
    object      U;
}
// * * * * * * * * * * * * * * * * * * * * * * * * * * * * * * * * * * * * * //

dimensions      [0 1 -1 0 0 0 0];

internalField   nonuniform List<vector> 
6000
(
(0.990441 -0.000273757 0)
(0.970231 0.0020497 0)
(0.948316 0.00334879 0)
(0.925587 0.00413663 0)
(0.903364 0.00452022 0)
(0.882322 0.00453153 0)
(0.862685 0.00428822 0)
(0.844554 0.00390126 0)
(0.82799 0.00344515 0)
(0.812998 0.00296861 0)
(0.79952 0.00250384 0)
(0.78746 0.00207081 0)
(0.776701 0.00168047 0)
(0.767118 0.00133758 0)
(0.758587 0.00104289 0)
(0.750984 0.000794625 0)
(0.744196 0.0005896 0)
(0.738113 0.000423869 0)
(0.732639 0.000293192 0)
(0.727685 0.000193287 0)
(0.723174 0.000119981 0)
(0.719035 6.92795e-05 0)
(0.715209 3.74247e-05 0)
(0.711644 2.09445e-05 0)
(0.708296 1.66786e-05 0)
(0.705126 2.18404e-05 0)
(0.702104 3.40033e-05 0)
(0.699204 5.10758e-05 0)
(0.696402 7.12906e-05 0)
(0.693682 9.32062e-05 0)
(0.691027 0.000115695 0)
(0.688425 0.00013792 0)
(0.685863 0.000159308 0)
(0.683331 0.000179538 0)
(0.680818 0.000198544 0)
(0.678312 0.000216534 0)
(0.675801 0.000234021 0)
(0.673267 0.000251852 0)
(0.67069 0.000271221 0)
(0.668039 0.000293685 0)
(0.665279 0.000321168 0)
(0.662361 0.000355995 0)
(0.659221 0.000400963 0)
(0.655779 0.000459467 0)
(0.651932 0.00053571 0)
(0.647548 0.000634989 0)
(0.642455 0.000764089 0)
(0.636436 0.000931811 0)
(0.629206 0.00114969 0)
(0.6204 0.00143303 0)
(0.609541 0.00180223 0)
(0.595998 0.00228501 0)
(0.578959 0.00291847 0)
(0.557294 0.00375515 0)
(0.529697 0.00485603 0)
(0.493819 0.00632584 0)
(0.44891 0.00813679 0)
(0.386713 0.0105688 0)
(0.324587 0.0127554 0)
(0.181142 0.0115637 0)
(1.00417 0.00480515 0)
(1.01373 0.00718215 0)
(1.0207 0.00682435 0)
(1.02486 0.00641226 0)
(1.02687 0.00609189 0)
(1.02702 0.00572671 0)
(1.02543 0.0053509 0)
(1.02232 0.004999 0)
(1.01792 0.00467251 0)
(1.01248 0.00436639 0)
(1.00623 0.0040788 0)
(0.999349 0.00380933 0)
(0.992003 0.00355758 0)
(0.984333 0.00332292 0)
(0.976458 0.0031046 0)
(0.968478 0.00290174 0)
(0.960478 0.00271342 0)
(0.952526 0.00253866 0)
(0.944683 0.00237653 0)
(0.936995 0.00222611 0)
(0.929504 0.00208662 0)
(0.922239 0.0019573 0)
(0.915224 0.00183752 0)
(0.908478 0.00172672 0)
(0.902011 0.00162439 0)
(0.895828 0.00153006 0)
(0.889928 0.00144343 0)
(0.884307 0.0013644 0)
(0.878956 0.00129291 0)
(0.873864 0.00122895 0)
(0.869016 0.00117249 0)
(0.864396 0.0011235 0)
(0.859986 0.00108194 0)
(0.855766 0.00104779 0)
(0.851716 0.00102112 0)
(0.847813 0.00100216 0)
(0.844036 0.000991448 0)
(0.840361 0.000989872 0)
(0.836762 0.000998834 0)
(0.833211 0.00102035 0)
(0.829676 0.00105717 0)
(0.826121 0.00111298 0)
(0.822501 0.00119262 0)
(0.818762 0.00130236 0)
(0.814836 0.00145042 0)
(0.810635 0.00164749 0)
(0.806052 0.00190756 0)
(0.800943 0.00224904 0)
(0.795125 0.00269628 0)
(0.788357 0.00328176 0)
(0.780321 0.00404929 0)
(0.770588 0.00505844 0)
(0.758587 0.00639183 0)
(0.743478 0.00816262 0)
(0.724237 0.0105308 0)
(0.698775 0.0136982 0)
(0.666065 0.0179312 0)
(0.616977 0.0233048 0)
(0.565042 0.0310171 0)
(0.429911 0.0312641 0)
(1.00036 0.00116234 0)
(1.00263 0.00202372 0)
(1.00544 0.00239372 0)
(1.00803 0.00304093 0)
(1.01052 0.00370471 0)
(1.013 0.00418587 0)
(1.01529 0.00450999 0)
(1.01726 0.00472084 0)
(1.01884 0.00483322 0)
(1.02001 0.00486108 0)
(1.02076 0.00482366 0)
(1.02109 0.00473961 0)
(1.021 0.00462409 0)
(1.02051 0.00448869 0)
(1.01964 0.0043421 0)
(1.01841 0.0041906 0)
(1.01683 0.00403855 0)
(1.01492 0.00388882 0)
(1.0127 0.00374322 0)
(1.01019 0.00360277 0)
(1.00741 0.00346798 0)
(1.00437 0.00333903 0)
(1.00111 0.00321595 0)
(0.997633 0.00309859 0)
(0.993971 0.00298661 0)
(0.990148 0.00287959 0)
(0.986188 0.00277725 0)
(0.982117 0.00267949 0)
(0.97796 0.0025863 0)
(0.973743 0.00249777 0)
(0.96949 0.00241411 0)
(0.965221 0.00233562 0)
(0.960956 0.00226277 0)
(0.95671 0.00219619 0)
(0.952497 0.00213675 0)
(0.948323 0.00208562 0)
(0.944192 0.00204436 0)
(0.940101 0.002015 0)
(0.936044 0.00200021 0)
(0.932004 0.00200341 0)
(0.927962 0.00202901 0)
(0.923888 0.00208263 0)
(0.91974 0.00217152 0)
(0.915468 0.00230496 0)
(0.911004 0.00249491 0)
(0.906262 0.00275686 0)
(0.901132 0.00311099 0)
(0.895475 0.00358369 0)
(0.88911 0.00420987 0)
(0.881807 0.00503592 0)
(0.873273 0.00612444 0)
(0.863127 0.00756045 0)
(0.850887 0.00946266 0)
(0.835891 0.0119932 0)
(0.817416 0.0153951 0)
(0.793996 0.0199571 0)
(0.765396 0.0262633 0)
(0.724806 0.0342707 0)
(0.684462 0.0472354 0)
(0.58051 0.0520814 0)
(1.00025 0.00137449 0)
(1.00159 0.00317762 0)
(1.00312 0.00385962 0)
(1.00435 0.00422169 0)
(1.00551 0.0044898 0)
(1.00681 0.00462059 0)
(1.00821 0.00464383 0)
(1.00962 0.00461184 0)
(1.01101 0.00454651 0)
(1.01236 0.00445804 0)
(1.01365 0.00435675 0)
(1.01486 0.00425144 0)
(1.01598 0.00414769 0)
(1.017 0.0040487 0)
(1.0179 0.00395625 0)
(1.01869 0.00387117 0)
(1.01935 0.00379365 0)
(1.01989 0.00372338 0)
(1.02031 0.00365973 0)
(1.02059 0.00360188 0)
(1.02075 0.00354889 0)
(1.02077 0.00349982 0)
(1.02065 0.00345381 0)
(1.02039 0.00340994 0)
(1.01999 0.00336739 0)
(1.01945 0.00332551 0)
(1.01875 0.0032838 0)
(1.0179 0.00324197 0)
(1.0169 0.00319986 0)
(1.01574 0.00315754 0)
(1.01442 0.00311527 0)
(1.01294 0.00307356 0)
(1.01131 0.00303317 0)
(1.00952 0.00299517 0)
(1.00758 0.00296099 0)
(1.00547 0.00293246 0)
(1.00322 0.00291194 0)
(1.00081 0.00290246 0)
(0.998246 0.00290784 0)
(0.995517 0.00293292 0)
(0.992615 0.00298385 0)
(0.989523 0.00306842 0)
(0.986217 0.00319651 0)
(0.982661 0.00338075 0)
(0.978805 0.0036373 0)
(0.974581 0.00398696 0)
(0.969896 0.00445665 0)
(0.96463 0.00508135 0)
(0.958622 0.00590693 0)
(0.951662 0.00699381 0)
(0.943476 0.00842266 0)
(0.933707 0.0103016 0)
(0.921902 0.0127798 0)
(0.907443 0.0160568 0)
(0.88966 0.0204333 0)
(0.867288 0.0262444 0)
(0.840197 0.034268 0)
(0.803163 0.0443288 0)
(0.767108 0.0610226 0)
(0.684533 0.070278 0)
(1.00018 0.00117351 0)
(1.00125 0.00265202 0)
(1.00255 0.00313695 0)
(1.00361 0.00339465 0)
(1.00455 0.00368378 0)
(1.00554 0.00390458 0)
(1.00659 0.00402483 0)
(1.00763 0.00408061 0)
(1.00866 0.00409621 0)
(1.00967 0.00408006 0)
(1.01068 0.00403959 0)
(1.01168 0.00398299 0)
(1.01266 0.0039169 0)
(1.01361 0.00384615 0)
(1.01453 0.00377428 0)
(1.01543 0.0037039 0)
(1.0163 0.00363681 0)
(1.01714 0.00357409 0)
(1.01793 0.00351631 0)
(1.0187 0.00346365 0)
(1.01942 0.00341601 0)
(1.02011 0.00337313 0)
(1.02075 0.00333459 0)
(1.02135 0.00329996 0)
(1.0219 0.00326884 0)
(1.0224 0.00324091 0)
(1.02285 0.00321592 0)
(1.02324 0.00319368 0)
(1.02357 0.00317412 0)
(1.02384 0.00315731 0)
(1.02404 0.00314347 0)
(1.02416 0.00313299 0)
(1.0242 0.00312651 0)
(1.02415 0.00312492 0)
(1.02401 0.0031295 0)
(1.02377 0.00314202 0)
(1.02341 0.00316486 0)
(1.02292 0.00320121 0)
(1.02229 0.00325524 0)
(1.02151 0.00333245 0)
(1.02054 0.00343994 0)
(1.01936 0.00358688 0)
(1.01795 0.00378509 0)
(1.01625 0.00404976 0)
(1.01422 0.00440052 0)
(1.01178 0.0048627 0)
(1.00885 0.00546912 0)
(1.00531 0.00626248 0)
(1.00102 0.00729859 0)
(0.995777 0.00865084 0)
(0.989343 0.0104166 0)
(0.981391 0.0127257 0)
(0.971512 0.0157552 0)
(0.959147 0.0197393 0)
(0.943679 0.0250259 0)
(0.92397 0.0319889 0)
(0.899813 0.041512 0)
(0.866829 0.053325 0)
(0.833947 0.0725054 0)
(0.765148 0.0849203 0)
(1.00014 0.000986938 0)
(1.00102 0.00234199 0)
(1.00218 0.00292823 0)
(1.00322 0.00327081 0)
(1.00413 0.00359504 0)
(1.00506 0.00382755 0)
(1.00603 0.00394149 0)
(1.00699 0.00398006 0)
(1.00792 0.00397615 0)
(1.00883 0.00394139 0)
(1.00972 0.00388354 0)
(1.01059 0.00381139 0)
(1.01145 0.00373244 0)
(1.01229 0.00365194 0)
(1.01311 0.00357345 0)
(1.01392 0.00349932 0)
(1.01471 0.00343101 0)
(1.01549 0.0033692 0)
(1.01626 0.00331408 0)
(1.01701 0.00326546 0)
(1.01776 0.00322292 0)
(1.01849 0.00318593 0)
(1.01921 0.00315389 0)
(1.01991 0.00312624 0)
(1.0206 0.00310248 0)
(1.02127 0.00308221 0)
(1.02193 0.00306512 0)
(1.02256 0.00305101 0)
(1.02317 0.00303988 0)
(1.02376 0.00303188 0)
(1.02433 0.00302739 0)
(1.02486 0.00302698 0)
(1.02536 0.00303154 0)
(1.02582 0.0030423 0)
(1.02623 0.0030609 0)
(1.02659 0.00308956 0)
(1.0269 0.0031312 0)
(1.02713 0.00318965 0)
(1.02728 0.00326987 0)
(1.02732 0.0033783 0)
(1.02725 0.00352319 0)
(1.02704 0.00371518 0)
(1.02665 0.00396791 0)
(1.02605 0.00429896 0)
(1.02519 0.00473096 0)
(1.024 0.00529314 0)
(1.02241 0.00602338 0)
(1.02032 0.0069709 0)
(1.0176 0.00820002 0)
(1.01408 0.00979511 0)
(1.00956 0.0118679 0)
(1.00376 0.0145665 0)
(0.996341 0.0180923 0)
(0.986838 0.0227095 0)
(0.974743 0.0288071 0)
(0.959092 0.0368008 0)
(0.939707 0.0476507 0)
(0.912855 0.0610743 0)
(0.885557 0.0822238 0)
(0.829636 0.0971577 0)
(1.00011 0.000842191 0)
(1.00084 0.00209722 0)
(1.00189 0.00272308 0)
(1.00289 0.00306789 0)
(1.00378 0.00335926 0)
(1.00468 0.00357135 0)
(1.00563 0.00368003 0)
(1.00656 0.00371975 0)
(1.00748 0.00372115 0)
(1.00836 0.00369491 0)
(1.00923 0.00364712 0)
(1.01007 0.0035854 0)
(1.0109 0.00351667 0)
(1.0117 0.00344576 0)
(1.01248 0.00337588 0)
(1.01324 0.00330921 0)
(1.01399 0.00324714 0)
(1.01473 0.00319046 0)
(1.01546 0.00313946 0)
(1.01617 0.00309413 0)
(1.01688 0.00305423 0)
(1.01758 0.00301939 0)
(1.01827 0.0029892 0)
(1.01896 0.00296325 0)
(1.01963 0.00294117 0)
(1.02031 0.00292267 0)
(1.02097 0.00290756 0)
(1.02162 0.00289576 0)
(1.02227 0.00288738 0)
(1.0229 0.00288269 0)
(1.02352 0.00288218 0)
(1.02412 0.00288656 0)
(1.0247 0.00289687 0)
(1.02526 0.00291453 0)
(1.02579 0.00294143 0)
(1.02629 0.00298006 0)
(1.02675 0.00303373 0)
(1.02715 0.00310671 0)
(1.0275 0.00320456 0)
(1.02777 0.00333447 0)
(1.02795 0.00350566 0)
(1.02802 0.00372999 0)
(1.02794 0.00402272 0)
(1.02769 0.00440344 0)
(1.02722 0.0048974 0)
(1.02647 0.00553715 0)
(1.02538 0.00636482 0)
(1.02386 0.00743509 0)
(1.0218 0.00881916 0)
(1.01906 0.0106102 0)
(1.01548 0.0129312 0)
(1.01082 0.0159446 0)
(1.00484 0.0198696 0)
(0.997185 0.0249931 0)
(0.987511 0.0317341 0)
(0.975125 0.0405432 0)
(0.960059 0.0524358 0)
(0.939417 0.0671871 0)
(0.918823 0.0898726 0)
(0.877056 0.107336 0)
(1.00009 0.000728812 0)
(1.00071 0.00188098 0)
(1.00166 0.00251236 0)
(1.00261 0.00285663 0)
(1.00348 0.00313201 0)
(1.00436 0.00334174 0)
(1.00529 0.00345879 0)
(1.00621 0.00350668 0)
(1.00711 0.00351442 0)
(1.00799 0.0034942 0)
(1.00885 0.00345222 0)
(1.00969 0.00339573 0)
(1.0105 0.00333157 0)
(1.01129 0.0032646 0)
(1.01207 0.00319809 0)
(1.01282 0.00313425 0)
(1.01356 0.00307457 0)
(1.01428 0.00301992 0)
(1.01499 0.00297069 0)
(1.01569 0.00292693 0)
(1.01638 0.00288845 0)
(1.01706 0.00285497 0)
(1.01774 0.00282611 0)
(1.01841 0.0028015 0)
(1.01907 0.00278083 0)
(1.01972 0.00276385 0)
(1.02037 0.00275043 0)
(1.02101 0.00274054 0)
(1.02165 0.00273437 0)
(1.02227 0.00273225 0)
(1.02289 0.00273476 0)
(1.02349 0.00274276 0)
(1.02408 0.00275742 0)
(1.02464 0.00278034 0)
(1.02519 0.00281366 0)
(1.02571 0.00286016 0)
(1.02619 0.00292351 0)
(1.02664 0.00300846 0)
(1.02703 0.00312115 0)
(1.02735 0.00326948 0)
(1.02759 0.0034636 0)
(1.02773 0.00371655 0)
(1.02774 0.00404501 0)
(1.02759 0.00447045 0)
(1.02723 0.00502041 0)
(1.02663 0.00573036 0)
(1.0257 0.00664606 0)
(1.02438 0.00782668 0)
(1.02256 0.00934902 0)
(1.02011 0.0113131 0)
(1.01688 0.0138499 0)
(1.01269 0.0171316 0)
(1.00732 0.0213887 0)
(1.00048 0.0269202 0)
(0.991947 0.0341583 0)
(0.981248 0.0435689 0)
(0.968613 0.0561783 0)
(0.952099 0.0718502 0)
(0.936322 0.0953849 0)
(0.907293 0.115368 0)
(1.00007 0.000636572 0)
(1.00061 0.00168643 0)
(1.00146 0.00230827 0)
(1.00237 0.00265443 0)
(1.00322 0.00291891 0)
(1.00409 0.00312324 0)
(1.00499 0.00324226 0)
(1.0059 0.00329257 0)
(1.00679 0.0033023 0)
(1.00766 0.00328525 0)
(1.00852 0.00324765 0)
(1.00935 0.00319606 0)
(1.01016 0.00313688 0)
(1.01095 0.00307484 0)
(1.01172 0.00301305 0)
(1.01248 0.00295363 0)
(1.01321 0.00289799 0)
(1.01393 0.00284698 0)
(1.01464 0.00280099 0)
(1.01534 0.00276009 0)
(1.01602 0.00272414 0)
(1.0167 0.00269288 0)
(1.01737 0.00266601 0)
(1.01803 0.00264321 0)
(1.01869 0.00262423 0)
(1.01933 0.0026089 0)
(1.01998 0.00259713 0)
(1.02061 0.00258901 0)
(1.02124 0.00258477 0)
(1.02185 0.00258485 0)
(1.02246 0.00258994 0)
(1.02306 0.00260101 0)
(1.02364 0.00261939 0)
(1.0242 0.00264688 0)
(1.02475 0.00268584 0)
(1.02527 0.00273935 0)
(1.02575 0.00281142 0)
(1.0262 0.00290726 0)
(1.0266 0.00303355 0)
(1.02693 0.00319891 0)
(1.02719 0.00341437 0)
(1.02736 0.00369406 0)
(1.0274 0.00405609 0)
(1.02728 0.00452368 0)
(1.02698 0.00512658 0)
(1.02644 0.00590304 0)
(1.02559 0.00690225 0)
(1.02437 0.00818759 0)
(1.02268 0.00984095 0)
(1.02039 0.0119684 0)
(1.01736 0.014708 0)
(1.01343 0.0182394 0)
(1.00839 0.0228005 0)
(1.002 0.0286962 0)
(0.994067 0.0363597 0)
(0.984232 0.0462556 0)
(0.972767 0.0593699 0)
(0.958471 0.075659 0)
(0.944976 0.0993855 0)
(0.924616 0.121515 0)
(1.00006 0.000559605 0)
(1.00052 0.00151227 0)
(1.0013 0.00211482 0)
(1.00216 0.00246017 0)
(1.003 0.00271329 0)
(1.00385 0.00290874 0)
(1.00473 0.00302689 0)
(1.00563 0.00307917 0)
(1.00651 0.00309148 0)
(1.00738 0.00307823 0)
(1.00823 0.00304553 0)
(1.00906 0.00299918 0)
(1.00987 0.00294517 0)
(1.01066 0.00288806 0)
(1.01143 0.00283088 0)
(1.01218 0.00277565 0)
(1.01291 0.00272378 0)
(1.01363 0.0026761 0)
(1.01434 0.00263305 0)
(1.01504 0.00259473 0)
(1.01572 0.00256106 0)
(1.0164 0.00253183 0)
(1.01707 0.0025068 0)
(1.01773 0.00248571 0)
(1.01838 0.00246837 0)
(1.01903 0.00245466 0)
(1.01967 0.00244456 0)
(1.0203 0.00243821 0)
(1.02092 0.00243593 0)
(1.02154 0.00243823 0)
(1.02214 0.00244589 0)
(1.02273 0.00246 0)
(1.02331 0.00248205 0)
(1.02388 0.00251399 0)
(1.02442 0.00255841 0)
(1.02494 0.00261866 0)
(1.02543 0.0026991 0)
(1.02588 0.00280534 0)
(1.02628 0.00294462 0)
(1.02662 0.0031262 0)
(1.0269 0.00336197 0)
(1.02707 0.00366713 0)
(1.02714 0.00406113 0)
(1.02705 0.00456884 0)
(1.02679 0.00522216 0)
(1.02629 0.00606194 0)
(1.02551 0.00714061 0)
(1.02437 0.00852555 0)
(1.02278 0.0103035 0)
(1.02063 0.0125861 0)
(1.01778 0.0155178 0)
(1.01408 0.0192853 0)
(1.00933 0.0241325 0)
(1.00332 0.0303686 0)
(0.995865 0.0384228 0)
(0.986684 0.0487543 0)
(0.97599 0.062278 0)
(0.963047 0.0790435 0)
(0.950553 0.102615 0)
(0.934931 0.126304 0)
(1.00005 0.000494161 0)
(1.00046 0.00135607 0)
(1.00117 0.00193158 0)
(1.00199 0.00227172 0)
(1.00281 0.00251314 0)
(1.00364 0.00269856 0)
(1.00451 0.00281461 0)
(1.00539 0.00286853 0)
(1.00626 0.00288318 0)
(1.00712 0.00287314 0)
(1.00797 0.00284464 0)
(1.00879 0.00280293 0)
(1.0096 0.0027536 0)
(1.01039 0.00270104 0)
(1.01116 0.00264819 0)
(1.01191 0.00259701 0)
(1.01265 0.00254882 0)
(1.01337 0.00250447 0)
(1.01408 0.0024644 0)
(1.01477 0.00242875 0)
(1.01546 0.00239747 0)
(1.01614 0.0023704 0)
(1.0168 0.00234734 0)
(1.01746 0.00232809 0)
(1.01812 0.0023125 0)
(1.01876 0.0023005 0)
(1.0194 0.00229215 0)
(1.02003 0.00228764 0)
(1.02066 0.00228735 0)
(1.02127 0.00229187 0)
(1.02188 0.00230209 0)
(1.02247 0.00231921 0)
(1.02305 0.00234483 0)
(1.02361 0.0023811 0)
(1.02416 0.0024308 0)
(1.02468 0.00249755 0)
(1.02517 0.00258602 0)
(1.02563 0.00270225 0)
(1.02604 0.00285396 0)
(1.02639 0.00305107 0)
(1.02667 0.00330626 0)
(1.02687 0.00363573 0)
(1.02696 0.00406021 0)
(1.0269 0.00460618 0)
(1.02668 0.0053075 0)
(1.02623 0.00620751 0)
(1.02552 0.0073617 0)
(1.02446 0.00884117 0)
(1.02298 0.0107371 0)
(1.02097 0.0131664 0)
(1.0183 0.0162796 0)
(1.01482 0.0202691 0)
(1.01037 0.0253845 0)
(1.00474 0.0319385 0)
(0.997768 0.0403545 0)
(0.98922 0.0510873 0)
(0.979256 0.0649733 0)
(0.967413 0.0821516 0)
(0.955703 0.10549 0)
(0.942531 0.130177 0)
(1.00005 0.000437553 0)
(1.00041 0.0012151 0)
(1.00106 0.00175793 0)
(1.00184 0.00208869 0)
(1.00264 0.00231826 0)
(1.00346 0.00249309 0)
(1.00431 0.00260571 0)
(1.00518 0.00266032 0)
(1.00605 0.00267669 0)
(1.0069 0.00266928 0)
(1.00774 0.00264448 0)
(1.00856 0.00260712 0)
(1.00937 0.00256228 0)
(1.01016 0.00251417 0)
(1.01093 0.0024656 0)
(1.01168 0.00241842 0)
(1.01241 0.00237392 0)
(1.01314 0.00233291 0)
(1.01384 0.00229583 0)
(1.01454 0.00226286 0)
(1.01523 0.00223397 0)
(1.0159 0.00220906 0)
(1.01657 0.00218796 0)
(1.01723 0.00217054 0)
(1.01789 0.00215668 0)
(1.01853 0.00214638 0)
(1.01917 0.00213975 0)
(1.0198 0.00213704 0)
(1.02043 0.0021387 0)
(1.02104 0.00214541 0)
(1.02165 0.00215812 0)
(1.02224 0.00217815 0)
(1.02282 0.00220724 0)
(1.02339 0.00224768 0)
(1.02394 0.00230247 0)
(1.02446 0.00237546 0)
(1.02496 0.00247164 0)
(1.02542 0.00259742 0)
(1.02584 0.00276101 0)
(1.02621 0.00297293 0)
(1.02651 0.00324661 0)
(1.02672 0.00359922 0)
(1.02683 0.00405267 0)
(1.02681 0.00463494 0)
(1.02663 0.00538177 0)
(1.02624 0.00633881 0)
(1.02559 0.00756442 0)
(1.02462 0.00913316 0)
(1.02326 0.0111404 0)
(1.02139 0.0137078 0)
(1.01891 0.0169911 0)
(1.01567 0.0211885 0)
(1.01153 0.0265538 0)
(1.00629 0.0334026 0)
(0.99982 0.0421516 0)
(0.991911 0.053251 0)
(0.982697 0.0674627 0)
(0.971885 0.0850004 0)
(0.961072 0.108137 0)
(0.949434 0.133394 0)
(1.00004 0.000387796 0)
(1.00037 0.00108696 0)
(1.00097 0.00159329 0)
(1.00172 0.00191092 0)
(1.0025 0.00212823 0)
(1.0033 0.00229198 0)
(1.00413 0.00239985 0)
(1.00499 0.00245419 0)
(1.00585 0.00247178 0)
(1.0067 0.00246659 0)
(1.00754 0.00244516 0)
(1.00836 0.00241186 0)
(1.00916 0.00237132 0)
(1.00995 0.0023275 0)
(1.01072 0.00228308 0)
(1.01147 0.00223982 0)
(1.01221 0.00219893 0)
(1.01293 0.00216121 0)
(1.01364 0.0021271 0)
(1.01433 0.00209679 0)
(1.01502 0.0020703 0)
(1.0157 0.00204755 0)
(1.01637 0.00202843 0)
(1.01703 0.00201284 0)
(1.01768 0.00200072 0)
(1.01833 0.00199213 0)
(1.01897 0.00198721 0)
(1.0196 0.00198629 0)
(1.02022 0.00198987 0)
(1.02084 0.0019987 0)
(1.02145 0.00201384 0)
(1.02204 0.00203669 0)
(1.02263 0.00206912 0)
(1.0232 0.00211358 0)
(1.02375 0.00217323 0)
(1.02428 0.00225219 0)
(1.02478 0.00235571 0)
(1.02525 0.00249057 0)
(1.02568 0.00266544 0)
(1.02606 0.0028914 0)
(1.02637 0.00318259 0)
(1.02661 0.00355706 0)
(1.02675 0.00403786 0)
(1.02676 0.00465437 0)
(1.02662 0.00544407 0)
(1.02629 0.00645479 0)
(1.02572 0.00774751 0)
(1.02485 0.00940003 0)
(1.0236 0.0115115 0)
(1.02189 0.014208 0)
(1.01961 0.0176502 0)
(1.01662 0.0220409 0)
(1.0128 0.0276377 0)
(1.00797 0.0347582 0)
(1.002 0.0438118 0)
(0.994734 0.0552431 0)
(0.986283 0.0697464 0)
(0.976461 0.0875876 0)
(0.966628 0.110566 0)
(0.956249 0.136106 0)
(1.00004 0.000343415 0)
(1.00034 0.000969604 0)
(1.00089 0.001437 0)
(1.00161 0.00173819 0)
(1.00237 0.00194255 0)
(1.00316 0.0020948 0)
(1.00398 0.00219685 0)
(1.00483 0.00225004 0)
(1.00568 0.0022684 0)
(1.00652 0.00226507 0)
(1.00736 0.00224663 0)
(1.00817 0.00221711 0)
(1.00898 0.00218067 0)
(1.00976 0.00214098 0)
(1.01053 0.00210059 0)
(1.01128 0.00206117 0)
(1.01202 0.00202385 0)
(1.01274 0.0019894 0)
(1.01345 0.00195825 0)
(1.01415 0.00193061 0)
(1.01484 0.00190652 0)
(1.01552 0.00188594 0)
(1.01619 0.0018688 0)
(1.01685 0.00185504 0)
(1.0175 0.00184466 0)
(1.01815 0.00183776 0)
(1.01879 0.00183454 0)
(1.01942 0.00183537 0)
(1.02005 0.00184083 0)
(1.02066 0.00185173 0)
(1.02127 0.00186921 0)
(1.02187 0.00189477 0)
(1.02246 0.0019304 0)
(1.02303 0.00197868 0)
(1.02358 0.00204297 0)
(1.02412 0.00212758 0)
(1.02463 0.00223805 0)
(1.02511 0.0023815 0)
(1.02555 0.00256701 0)
(1.02594 0.00280618 0)
(1.02627 0.00311383 0)
(1.02653 0.00350884 0)
(1.0267 0.0040153 0)
(1.02675 0.00466388 0)
(1.02666 0.00549368 0)
(1.02639 0.00655453 0)
(1.02589 0.00790987 0)
(1.02512 0.00964042 0)
(1.024 0.0118488 0)
(1.02245 0.0146652 0)
(1.02037 0.0182544 0)
(1.01765 0.0228236 0)
(1.01415 0.0286335 0)
(1.00974 0.0360027 0)
(1.00429 0.0453336 0)
(0.997667 0.0570633 0)
(0.989979 0.0718268 0)
(0.98111 0.0899191 0)
(0.972263 0.11277 0)
(0.963046 0.138409 0)
(1.00003 0.000303298 0)
(1.00031 0.000861296 0)
(1.00083 0.00128831 0)
(1.00151 0.00157023 0)
(1.00226 0.00176078 0)
(1.00303 0.0019012 0)
(1.00385 0.00199655 0)
(1.00468 0.00204778 0)
(1.00553 0.00206642 0)
(1.00637 0.00206462 0)
(1.0072 0.00204884 0)
(1.00801 0.00202283 0)
(1.00881 0.00199028 0)
(1.0096 0.00195458 0)
(1.01037 0.00191813 0)
(1.01112 0.00188248 0)
(1.01186 0.00184868 0)
(1.01258 0.00181747 0)
(1.01329 0.00178927 0)
(1.01399 0.00176429 0)
(1.01468 0.0017426 0)
(1.01535 0.00172419 0)
(1.01602 0.00170903 0)
(1.01669 0.00169711 0)
(1.01734 0.00168847 0)
(1.01799 0.00168324 0)
(1.01863 0.00168169 0)
(1.01926 0.00168425 0)
(1.01989 0.00169153 0)
(1.02051 0.00170444 0)
(1.02112 0.00172417 0)
(1.02172 0.00175233 0)
(1.02231 0.00179101 0)
(1.02288 0.00184293 0)
(1.02344 0.0019116 0)
(1.02398 0.00200154 0)
(1.0245 0.00211856 0)
(1.02498 0.00227006 0)
(1.02544 0.00246553 0)
(1.02584 0.00271706 0)
(1.02619 0.00304008 0)
(1.02648 0.00345423 0)
(1.02668 0.00398456 0)
(1.02677 0.00466294 0)
(1.02673 0.00552996 0)
(1.02652 0.00663727 0)
(1.02611 0.00805054 0)
(1.02544 0.00985318 0)
(1.02445 0.012151 0)
(1.02307 0.0150776 0)
(1.0212 0.0188019 0)
(1.01875 0.0235346 0)
(1.01559 0.0295389 0)
(1.0116 0.0371343 0)
(1.00667 0.0467158 0)
(1.00069 0.0587125 0)
(0.993761 0.0737071 0)
(0.985812 0.092006 0)
(0.977919 0.114749 0)
(0.969784 0.140373 0)
(1.00003 0.000266595 0)
(1.00029 0.000760563 0)
(1.00078 0.00114642 0)
(1.00143 0.00140673 0)
(1.00216 0.00158254 0)
(1.00293 0.00171081 0)
(1.00373 0.00179876 0)
(1.00456 0.00184727 0)
(1.0054 0.00186574 0)
(1.00623 0.00186513 0)
(1.00706 0.00185173 0)
(1.00787 0.00182898 0)
(1.00867 0.00180015 0)
(1.00945 0.00176831 0)
(1.01022 0.0017357 0)
(1.01097 0.00170375 0)
(1.01171 0.00167344 0)
(1.01243 0.00164544 0)
(1.01315 0.00162017 0)
(1.01384 0.00159785 0)
(1.01453 0.00157856 0)
(1.01521 0.00156232 0)
(1.01588 0.00154915 0)
(1.01654 0.00153905 0)
(1.0172 0.00153214 0)
(1.01785 0.00152857 0)
(1.01849 0.00152867 0)
(1.01912 0.00153291 0)
(1.01975 0.00154197 0)
(1.02037 0.00155682 0)
(1.02098 0.00157871 0)
(1.02159 0.00160934 0)
(1.02218 0.00165091 0)
(1.02276 0.00170625 0)
(1.02332 0.00177904 0)
(1.02387 0.00187399 0)
(1.02439 0.00199711 0)
(1.02489 0.00215612 0)
(1.02535 0.00236085 0)
(1.02577 0.00262385 0)
(1.02614 0.00296109 0)
(1.02645 0.00339293 0)
(1.02668 0.00394528 0)
(1.02681 0.0046511 0)
(1.02682 0.00555234 0)
(1.02668 0.0067023 0)
(1.02635 0.00816866 0)
(1.02579 0.0100373 0)
(1.02494 0.0124167 0)
(1.02373 0.0154439 0)
(1.02208 0.0192909 0)
(1.0199 0.024172 0)
(1.01709 0.0303522 0)
(1.01353 0.0381513 0)
(1.00913 0.0479578 0)
(1.00379 0.0601917 0)
(0.997616 0.0753907 0)
(0.990553 0.0938606 0)
(0.983573 0.116508 0)
(0.976431 0.142054 0)
(1.00003 0.000232642 0)
(1.00027 0.000666152 0)
(1.00073 0.00101056 0)
(1.00137 0.00124733 0)
(1.00208 0.00140746 0)
(1.00283 0.00152329 0)
(1.00363 0.00160326 0)
(1.00445 0.00164837 0)
(1.00528 0.00166622 0)
(1.00611 0.00166653 0)
(1.00693 0.00165524 0)
(1.00774 0.00163552 0)
(1.00854 0.00161024 0)
(1.00933 0.00158215 0)
(1.01009 0.00155329 0)
(1.01085 0.00152498 0)
(1.01158 0.00149811 0)
(1.01231 0.0014733 0)
(1.01302 0.00145095 0)
(1.01372 0.00143128 0)
(1.01441 0.00141439 0)
(1.01509 0.00140032 0)
(1.01576 0.00138913 0)
(1.01642 0.00138086 0)
(1.01708 0.00137566 0)
(1.01773 0.00137373 0)
(1.01837 0.00137545 0)
(1.019 0.00138134 0)
(1.01963 0.00139212 0)
(1.02025 0.00140883 0)
(1.02087 0.00143278 0)
(1.02147 0.00146576 0)
(1.02207 0.00151005 0)
(1.02265 0.00156861 0)
(1.02322 0.00164525 0)
(1.02377 0.00174484 0)
(1.0243 0.00187363 0)
(1.02481 0.00203957 0)
(1.02528 0.00225283 0)
(1.02572 0.00252636 0)
(1.02611 0.00287665 0)
(1.02645 0.00332467 0)
(1.02671 0.00389713 0)
(1.02688 0.00462796 0)
(1.02695 0.00556033 0)
(1.02688 0.006749 0)
(1.02663 0.00826348 0)
(1.02618 0.0101917 0)
(1.02547 0.0126448 0)
(1.02444 0.0157626 0)
(1.02302 0.01972 0)
(1.02112 0.0247341 0)
(1.01866 0.0310717 0)
(1.01553 0.0390526 0)
(1.01166 0.049059 0)
(1.00697 0.0615025 0)
(1.00153 0.0768815 0)
(0.995327 0.0954939 0)
(0.989218 0.11806 0)
(0.982983 0.143494 0)
(1.00003 0.000200912 0)
(1.00025 0.000577002 0)
(1.0007 0.00087997 0)
(1.00131 0.00109166 0)
(1.00201 0.00123521 0)
(1.00275 0.0013383 0)
(1.00354 0.00140982 0)
(1.00435 0.00145093 0)
(1.00518 0.00146775 0)
(1.00601 0.00146871 0)
(1.00683 0.00145931 0)
(1.00764 0.00144242 0)
(1.00843 0.00142054 0)
(1.00922 0.00139609 0)
(1.00998 0.0013709 0)
(1.01074 0.00134617 0)
(1.01147 0.0013227 0)
(1.0122 0.00130106 0)
(1.01291 0.00128162 0)
(1.01361 0.00126459 0)
(1.0143 0.00125009 0)
(1.01498 0.0012382 0)
(1.01565 0.00122898 0)
(1.01631 0.00122253 0)
(1.01697 0.00121902 0)
(1.01762 0.00121872 0)
(1.01826 0.00122203 0)
(1.0189 0.00122952 0)
(1.01953 0.00124197 0)
(1.02015 0.00126045 0)
(1.02077 0.00128637 0)
(1.02137 0.00132156 0)
(1.02197 0.00136841 0)
(1.02256 0.00142996 0)
(1.02313 0.00151016 0)
(1.02369 0.00161404 0)
(1.02423 0.00174802 0)
(1.02474 0.00192031 0)
(1.02523 0.00214135 0)
(1.02569 0.00242446 0)
(1.0261 0.00278657 0)
(1.02646 0.00324922 0)
(1.02676 0.00383981 0)
(1.02698 0.00459316 0)
(1.0271 0.00555346 0)
(1.0271 0.00677682 0)
(1.02694 0.0083343 0)
(1.0266 0.0103158 0)
(1.02604 0.0128345 0)
(1.02519 0.0160327 0)
(1.02399 0.0200879 0)
(1.02238 0.0252196 0)
(1.02028 0.0316961 0)
(1.01759 0.039837 0)
(1.01426 0.0500193 0)
(1.0102 0.0626462 0)
(1.0055 0.0781832 0)
(1.00013 0.0969161 0)
(0.994854 0.119414 0)
(0.989447 0.144729 0)
(1.00003 0.000170977 0)
(1.00024 0.0004922 0)
(1.00067 0.000753912 0)
(1.00126 0.000939321 0)
(1.00195 0.00106546 0)
(1.00268 0.00115552 0)
(1.00346 0.0012182 0)
(1.00427 0.00125482 0)
(1.00509 0.00127023 0)
(1.00592 0.0012716 0)
(1.00673 0.00126387 0)
(1.00754 0.00124965 0)
(1.00834 0.00123103 0)
(1.00912 0.00121011 0)
(1.00989 0.00118853 0)
(1.01064 0.00116733 0)
(1.01138 0.00114723 0)
(1.0121 0.00112873 0)
(1.01282 0.00111218 0)
(1.01352 0.00109779 0)
(1.01421 0.00108568 0)
(1.01489 0.00107595 0)
(1.01556 0.0010687 0)
(1.01622 0.00106406 0)
(1.01688 0.00106224 0)
(1.01753 0.00106354 0)
(1.01817 0.0010684 0)
(1.01881 0.00107744 0)
(1.01944 0.0010915 0)
(1.02007 0.00111168 0)
(1.02068 0.00113945 0)
(1.02129 0.00117672 0)
(1.02189 0.00122593 0)
(1.02248 0.00129026 0)
(1.02306 0.00137373 0)
(1.02363 0.00148152 0)
(1.02417 0.00162022 0)
(1.0247 0.00179824 0)
(1.0252 0.00202629 0)
(1.02567 0.00231799 0)
(1.02611 0.00269067 0)
(1.0265 0.00316637 0)
(1.02683 0.00377307 0)
(1.02709 0.00454635 0)
(1.02727 0.00553134 0)
(1.02734 0.00678526 0)
(1.02728 0.00838053 0)
(1.02706 0.0104086 0)
(1.02664 0.0129847 0)
(1.02597 0.016253 0)
(1.02501 0.0203933 0)
(1.02369 0.0256272 0)
(1.02195 0.0322241 0)
(1.01971 0.0405036 0)
(1.01691 0.0508383 0)
(1.01349 0.0636242 0)
(1.00952 0.0792991 0)
(1.00495 0.0981356 0)
(1.00048 0.120581 0)
(0.995835 0.145784 0)
(1.00003 0.000142486 0)
(1.00023 0.000410956 0)
(1.00064 0.000631694 0)
(1.00122 0.000789884 0)
(1.0019 0.000897885 0)
(1.00263 0.000974641 0)
(1.0034 0.00102817 0)
(1.0042 0.00105986 0)
(1.00502 0.00107352 0)
(1.00584 0.00107509 0)
(1.00666 0.00106888 0)
(1.00746 0.00105715 0)
(1.00826 0.00104168 0)
(1.00904 0.00102422 0)
(1.00981 0.00100617 0)
(1.01056 0.000988464 0)
(1.0113 0.0009717 0)
(1.01202 0.000956325 0)
(1.01274 0.000942653 0)
(1.01344 0.000930886 0)
(1.01413 0.000921159 0)
(1.01481 0.000913587 0)
(1.01548 0.000908295 0)
(1.01615 0.000905452 0)
(1.0168 0.000905296 0)
(1.01745 0.00090817 0)
(1.0181 0.000914553 0)
(1.01874 0.000925101 0)
(1.01937 0.000940692 0)
(1.02 0.000962489 0)
(1.02061 0.000992005 0)
(1.02123 0.0010312 0)
(1.02183 0.00108261 0)
(1.02242 0.00114946 0)
(1.02301 0.0012359 0)
(1.02358 0.00134722 0)
(1.02413 0.00149016 0)
(1.02467 0.00167329 0)
(1.02519 0.00190756 0)
(1.02568 0.00220685 0)
(1.02613 0.00258882 0)
(1.02655 0.00307593 0)
(1.02692 0.00369668 0)
(1.02723 0.00448728 0)
(1.02746 0.00549363 0)
(1.02761 0.0067739 0)
(1.02764 0.00840165 0)
(1.02753 0.0104697 0)
(1.02726 0.0130947 0)
(1.02679 0.0164228 0)
(1.02606 0.0206354 0)
(1.02504 0.0259558 0)
(1.02366 0.0326547 0)
(1.02187 0.0410517 0)
(1.01961 0.0515159 0)
(1.01683 0.0644375 0)
(1.01358 0.0802322 0)
(1.0098 0.09916 0)
(1.0061 0.121571 0)
(1.00216 0.146681 0)
(1.00002 0.00011514 0)
(1.00022 0.00033258 0)
(1.00062 0.000512654 0)
(1.00119 0.000642917 0)
(1.00186 0.00073215 0)
(1.00258 0.000795347 0)
(1.00335 0.000839481 0)
(1.00414 0.000865895 0)
(1.00496 0.000877504 0)
(1.00578 0.000879088 0)
(1.00659 0.00087425 0)
(1.0074 0.000864899 0)
(1.00819 0.000852464 0)
(1.00898 0.000838383 0)
(1.00974 0.000823828 0)
(1.0105 0.000809566 0)
(1.01123 0.000796111 0)
(1.01196 0.000783842 0)
(1.01267 0.000773036 0)
(1.01337 0.000763887 0)
(1.01406 0.000756536 0)
(1.01475 0.000751113 0)
(1.01542 0.000747772 0)
(1.01608 0.00074671 0)
(1.01674 0.0007482 0)
(1.01739 0.000752619 0)
(1.01804 0.000760484 0)
(1.01868 0.000772487 0)
(1.01931 0.000789548 0)
(1.01994 0.00081287 0)
(1.02056 0.000844016 0)
(1.02117 0.000885 0)
(1.02178 0.000938409 0)
(1.02238 0.00100755 0)
(1.02297 0.00109666 0)
(1.02355 0.00121111 0)
(1.02411 0.00135778 0)
(1.02466 0.00154539 0)
(1.02519 0.00178507 0)
(1.0257 0.00209091 0)
(1.02617 0.00248087 0)
(1.02662 0.00297774 0)
(1.02702 0.00361044 0)
(1.02738 0.00441568 0)
(1.02767 0.00544001 0)
(1.02789 0.00674237 0)
(1.02802 0.00839721 0)
(1.02804 0.0104984 0)
(1.02792 0.013164 0)
(1.02763 0.0165412 0)
(1.02715 0.0208132 0)
(1.02642 0.0262046 0)
(1.02541 0.0329871 0)
(1.02407 0.0414806 0)
(1.02235 0.0520518 0)
(1.02021 0.065087 0)
(1.01767 0.080985 0)
(1.01467 0.0999953 0)
(1.01172 0.122391 0)
(1.00844 0.147438 0)
(1.00002 8.86851e-05 0)
(1.00022 0.000256455 0)
(1.00061 0.000396167 0)
(1.00116 0.000497978 0)
(1.00182 0.000567928 0)
(1.00254 0.000617344 0)
(1.00331 0.000651889 0)
(1.0041 0.000672744 0)
(1.00491 0.000682065 0)
(1.00573 0.000683509 0)
(1.00654 0.000679927 0)
(1.00735 0.000672841 0)
(1.00814 0.00066336 0)