/*--------------------------------*- C++ -*----------------------------------*\
| =========                 |                                                 |
| \\      /  F ield         | OpenFOAM: The Open Source CFD Toolbox           |
|  \\    /   O peration     | Version:  2.4.0                                 |
|   \\  /    A nd           | Web:      www.OpenFOAM.org                      |
|    \\/     M anipulation  |                                                 |
\*---------------------------------------------------------------------------*/
FoamFile
{
    version     2.0;
    format      ascii;
    class       volScalarField;
    location    "0.48";
    object      p;
}
// * * * * * * * * * * * * * * * * * * * * * * * * * * * * * * * * * * * * * //

dimensions      [0 2 -2 0 0 0 0];

internalField   nonuniform List<scalar> 
2320
(
-0.0815518
-0.0661549
-0.0490037
-0.0353499
-0.0234325
-0.0112246
0.00147262
0.0141337
0.0264666
0.0384527
0.0500841
0.0612483
0.0717513
0.0813445
0.0897099
0.0964217
0.100904
0.102384
0.099837
0.0919101
-0.0815433
-0.0661418
-0.0489896
-0.0353345
-0.0234122
-0.0111966
0.00151019
0.0141838
0.0265337
0.0385428
0.0502048
0.0614094
0.0719647
0.0816253
0.0900756
0.096892
0.101499
0.103124
0.100735
0.0929698
-0.0815236
-0.0661187
-0.0489634
-0.0353032
-0.0233711
-0.0111413
0.0015842
0.0142827
0.0266664
0.0387211
0.0504439
0.0617283
0.0723879
0.0821823
0.0908019
0.0978274
0.102686
0.1046
0.102527
0.095087
-0.0814941
-0.0660861
-0.0489253
-0.0352563
-0.0233102
-0.0110601
0.00169281
0.0144282
0.0268619
0.0389839
0.0507963
0.0621992
0.0730133
0.0830069
0.091879
0.0992173
0.104452
0.106801
0.105207
0.098256
-0.0814556
-0.0660441
-0.048876
-0.0351951
-0.023231
-0.010955
0.00183355
0.0146171
0.0271158
0.0393254
0.051255
0.0628127
0.0738296
0.0840856
0.0932915
0.101045
0.106782
0.109715
0.108764
0.102468
-0.0814092
-0.0659939
-0.0488168
-0.0351215
-0.0231355
-0.0108282
0.00200316
0.0148449
0.0274224
0.0397384
0.0518103
0.0635569
0.074822
0.0854004
0.0950186
0.103288
0.109653
0.11332
0.113182
0.107713
-0.081356
-0.0659364
-0.0487491
-0.035037
-0.0230259
-0.0106829
0.00219767
0.0151064
0.0277748
0.0402137
0.0524505
0.0644166
0.0759716
0.0869285
0.0970339
0.105918
0.113036
0.11759
0.118443
0.113978
-0.0812974
-0.0658732
-0.0486746
-0.0349438
-0.0229049
-0.0105225
0.00241246
0.0153954
0.028165
0.0407407
0.0531616
0.0653739
0.0772557
0.0886422
0.0993045
0.108896
0.116894
0.12249
0.124525
0.121251
-0.0812348
-0.0658056
-0.0485951
-0.0348441
-0.0227754
-0.0103509
0.00264243
0.0157053
0.0285837
0.0413072
0.0539278
0.0664084
0.0786484
0.0905088
0.101791
0.11218
0.121178
0.127978
0.1314
0.129515
-0.0811697
-0.0657355
-0.0485125
-0.0347404
-0.0226406
-0.0101721
0.00288203
0.0160284
0.0290212
0.0419003
0.0547318
0.0674971
0.0801198
0.0924908
0.104449
0.115714
0.125833
0.133997
0.139031
0.138756
-0.0811038
-0.0656645
-0.0484288
-0.0346353
-0.0225038
-0.00999059
0.00312544
0.0163571
0.0294668
0.0425056
0.0555544
0.0686149
0.0816371
0.0945458
0.107223
0.119436
0.130786
0.140476
0.147369
0.148955
-0.0810386
-0.0655943
-0.0483461
-0.0345312
-0.0223683
-0.00981083
0.00336667
0.0166833
0.0299097
0.0431084
0.0563759
0.0697349
0.0831645
0.0966267
0.110054
0.123268
0.135952
0.147321
0.156351
0.160088
-0.0809758
-0.0655267
-0.0482665
-0.0344309
-0.0222375
-0.00963725
0.00359973
0.0169988
0.0303388
0.0436936
0.0571755
0.0708291
0.084664
0.0986824
0.112875
0.127123
0.141224
0.154404
0.165905
0.172122
-0.0809169
-0.0654634
-0.0481918
-0.0343367
-0.0221146
-0.0094742
0.00381876
0.0172956
0.0307432
0.0442462
0.0579326
0.071869
0.0860964
0.100659
0.115612
0.1309
0.146478
0.161538
0.175914
0.184907
-0.0808633
-0.065406
-0.0481241
-0.034251
-0.0220028
-0.00932578
0.00401821
0.0175662
0.0311124
0.0447517
0.058627
0.0728261
0.0874217
0.1025
0.118187
0.134489
0.151568
0.168484
0.186173
0.197696
-0.0808164
-0.0653558
-0.0480649
-0.034176
-0.0219047
-0.00919575
0.00419297
0.0178036
0.0314368
0.0451966
0.0592396
0.0736733
0.0886008
0.104149
0.120519
0.137777
0.156328
0.174986
0.19638
0.208933
-0.0807774
-0.0653142
-0.0480158
-0.0341135
-0.021823
-0.00908746
0.00433854
0.0180015
0.0317076
0.0455685
0.0597528
0.0743854
0.0895966
0.105552
0.122529
0.140652
0.160587
0.180836
0.206074
0.21825
-0.080747
-0.0652823
-0.0479779
-0.0340648
-0.0217596
-0.00900376
0.0044511
0.0181548
0.0319175
0.0458572
0.0601518
0.0749404
0.090376
0.106658
0.124133
0.143005
0.164192
0.185952
0.214622
0.226938
-0.0807258
-0.0652615
-0.0479524
-0.0340311
-0.021716
-0.00894674
0.00452772
0.0182594
0.0320609
0.0460545
0.0604247
0.0753207
0.0909116
0.107423
0.125253
0.144702
0.166962
0.190443
0.222324
0.222006
-0.0807137
-0.0652523
-0.0479402
-0.0340135
-0.0216934
-0.00891774
0.00456651
0.0183124
0.0321337
0.0461547
0.0605634
0.0755143
0.0911843
0.107814
0.125823
0.145607
0.168451
0.194183
0.229703
0.257039
0.0768411
0.0523622
0.0155828
-0.0371726
-0.110647
-0.211159
-0.347286
-0.530556
0.0780534
0.0537059
0.0170342
-0.035613
-0.108928
-0.20919
-0.344985
-0.527902
0.0804751
0.056386
0.0199203
-0.0325204
-0.105518
-0.205277
-0.340411
-0.522609
0.0840984
0.060385
0.024202
-0.0279552
-0.10049
-0.199507
-0.333626
-0.514595
0.0889127
0.0656774
0.0298197
-0.0220168
-0.0939721
-0.19198
-0.324577
-0.503583
0.0949066
0.0722316
0.036686
-0.0148548
-0.0861067
-0.182709
-0.313141
-0.489682
0.102071
0.08001
0.0446748
-0.00664607
-0.0769798
-0.171704
-0.299655
-0.474048
0.110404
0.0889679
0.0536262
0.0024571
-0.0666794
-0.159391
-0.285361
-0.458388
0.119927
0.0990518
0.0633679
0.0123097
-0.0555953
-0.146977
-0.271991
-0.4435
0.13069
0.11019
0.0737132
0.0225987
-0.0447762
-0.136233
-0.260641
-0.428053
0.142769
0.122294
0.0844205
0.0325248
-0.035961
-0.128642
-0.250798
-0.409017
0.156269
0.135345
0.0950257
0.0405033
-0.0309646
-0.124553
-0.240616
-0.383794
0.171432
0.14941
0.104266
0.0444157
-0.0308115
-0.123065
-0.228333
-0.352051
0.188822
0.163922
0.109597
0.0425093
-0.0352918
-0.122601
-0.213336
-0.315789
0.209507
0.176451
0.108108
0.0342636
-0.0430595
-0.121795
-0.196236
-0.277664
0.235391
0.183598
0.0982789
0.0206382
-0.0524067
-0.120567
-0.178906
-0.239258
0.269368
0.183433
0.0800428
0.00312229
-0.0624264
-0.120509
-0.16463
-0.202789
0.311639
0.172458
0.0530611
-0.0172783
-0.0732362
-0.123169
-0.156203
-0.175509
0.347612
0.141822
0.019231
-0.0392433
-0.0848446
-0.127696
-0.152252
-0.165542
0.341702
0.093233
-0.0115931
-0.0604447
-0.0967791
-0.132622
-0.149639
-0.165772
-0.776061
-1.10285
-1.53372
-2.09362
-2.80602
-3.68704
-4.73805
-5.93919
-7.24707
-8.59747
-9.91207
-11.1072
-12.1034
-12.8342
-13.2522
-13.3327
-13.0734
-12.4922
-11.6292
-10.5428
-9.30376
-7.98805
-6.66858
-5.40627
-4.2448
-3.19957
-2.27391
-1.3851
-0.77317
-1.10009
-1.53189
-2.09408
-2.81082
-3.69876
-4.7592
-5.97154
-7.29125
-8.65305
-9.97768
-11.1808
-12.1827
-12.9167
-13.336
-13.4161
-13.1552
-12.5704
-11.7018
-10.6078
-9.3595
-8.03352
-6.70385
-5.43292
-4.26584
-3.22462
-2.32042
-1.56062
-0.767316
-1.0943
-1.52768
-2.09438
-2.82014
-3.72272
-4.80312
-6.03894
-7.38328
-8.76862
-10.1139
-11.3333
-12.3466
-13.0873
-13.5088
-13.5876
-13.3224
-12.7296
-11.8491
-10.7395
-9.47216
-8.12516
-6.77463
-5.48583
-4.3069
-3.26664
-2.38264
-1.67906
-0.75815
-1.08495
-1.52092
-2.09532
-2.83627
-3.76295
-4.87544
-6.14834
-7.53097
-8.95242
-10.3289
-11.5728
-12.6029
-13.3531
-13.7778
-13.8546
-13.5831
-12.9784
-12.0799
-10.946
-9.64897
-8.26888
-6.88521
-5.56726
-4.36708
-3.31766
-2.43742
-1.74067
-0.745447
-1.07249
-1.51321
-2.09969
-2.86299
-3.82379
-4.98038
-6.30283
-7.73557
-9.20356
-10.6197
-11.8943
-12.9451
-13.7066
-14.1349
-14.2092
-13.9303
-13.3113
-12.3905
-11.2257
-9.88963
-8.46516
-7.03611
-5.67689
-4.44398
-3.37299
-2.4811
-1.77485
-0.730119
-1.05875
-1.50669
-2.10892
-2.90009
-3.90265
-5.11237
-6.49396
-7.98629
-9.50961
-10.9729
-12.2834
-13.358
-14.1321
-14.5637
-14.6346
-14.347
-13.7119
-12.7659
-11.5653
-10.1832
-8.70537
-7.22056
-5.80913
-4.53255
-3.42887
-2.51437
-1.79048
-0.713929
-1.04495
-1.50047
-2.11864
-2.93963
-3.98904
-5.25967
-6.70937
-8.27002
-9.85587
-11.3711
-12.7199
-13.8187
-14.6046
-15.0387
-15.1056
-14.8089
-14.1576
-13.1852
-11.946
-10.5131
-8.97514
-7.42643
-5.95399
-4.62485
-3.47986
-2.53471
-1.78642
-0.697622
-1.02901
-1.4885
-2.11934
-2.97092
-4.07285
-5.41239
-6.93725
-8.5702
-10.2192
-11.7843
-13.1679
-14.287
-15.0813
-15.5161
-15.5795
-15.2757
-14.6113
-13.6157
-12.3396
-10.8556
-9.25497
-7.63781
-6.09872
-4.71107
-3.51899
-2.53792
-1.76124
-0.679186
-1.00522
-1.46259
-2.10241
-2.98644
-4.14667
-5.55973
-7.15931
-8.85903
-10.563
-12.17
-13.5817
-14.7162
-15.5157
-15.9493
-16.0093
-15.7014
-15.0286
-14.0158
-12.709
-11.1796
-9.5198
-7.83533
-6.22876
-4.78067
-3.53929
-2.52039
-1.71482
-0.654239
-0.967692
-1.41721
-2.06258
-2.98076
-4.20181
-5.68511
-7.34893
-9.10206
-10.8495
-12.4901
-13.925
-15.0717
-15.8743
-16.3056
-16.3618
-16.0512
-15.3734
-14.3488
-13.0187
-11.4528
-9.74272
-7.9981
-6.32906
-4.82359
-3.53489
-2.47984
-1.64776
-0.618785
-0.913592
-1.3499
-1.99587
-2.94817
-4.22659
-5.76796
-7.47875
-9.27037
-11.0513
-12.7199
-14.1746
-15.3313
-16.1361
-16.5648
-16.6177
-16.3048
-15.6239
-14.591
-13.243
-11.65
-9.90081
-8.10762
-6.38641
-4.83164
-3.50189
-2.41568
-1.56168
-0.571467
-0.842864
-1.259
-1.89888
-2.88327
-4.20833
-5.7892
-7.52897
-9.3468
-11.1533
-12.8441
-14.3146
-15.4798
-16.2868
-16.7146
-16.7658
-16.4522
-15.7695
-14.7307
-13.3683
-11.7566
-9.97959
-8.15156
-6.39209
-4.80005
-3.43919
-2.32948
-1.4598
-0.513893
-0.756427
-1.14279
-1.77123
-2.7825
-4.13637
-5.73679
-7.49185
-9.32667
-11.1511
-12.8574
-14.3405
-15.5147
-16.3274
-16.7584
-16.8102
-16.4956
-15.8105
-14.7676
-13.3923
-11.7687
-9.9744
-8.12574
-6.34366
-4.72879
-3.34912
-2.2253
-1.34714
-0.449642
-0.655519
-1.00168
-1.61742
-2.64449
-4.00648
-5.61135
-7.37365
-9.21898
-11.0556
-12.7739
-14.2674
-15.4516
-16.2728
-16.7094
-16.7633
-16.4475
-15.7582
-14.7082
-13.3302
-11.6958
-9.89259
-8.0357
-6.24588
-4.62317
-3.23759
-2.10957
-1.23026
-0.381664
-0.541777
-0.843045
-1.44495
-2.47121
-3.82566
-5.42718
-7.19064
-9.03998
-10.8817
-12.6064
-14.1081
-15.3019
-16.1333
-16.578
-16.6344
-16.3159
-15.6211
-14.5648
-13.1841
-11.5476
-9.74604
-7.89364
-6.10936
-4.49394
-3.11326
-1.99043
-1.11668
-0.30934
-0.41827
-0.682632
-1.26256
-2.2711
-3.60885
-5.20196
-6.96283
-8.81182
-10.6538
-12.3808
-13.888
-15.0906
-15.9329
-16.3869
-16.448
-16.1267
-15.4258
-14.3637
-12.9813
-11.3478
-9.55576
-7.71801
-5.95079
-4.35265
-2.98656
-1.87614
-1.01317
-0.23314
-0.293317
-0.533557
-1.08576
-2.06143
-3.37692
-4.95935
-6.7169
-8.56433
-10.4044
-12.1308
-13.6408
-14.8504
-15.702
-16.165
-16.2314
-15.9089
-15.2036
-14.1376
-12.7557
-11.129
-9.35133
-7.53444
-5.79109
-4.21613
-2.87026
-1.77614
-0.92625
-0.169908
-0.181207
-0.414674
-0.927968
-1.86515
-3.15557
-4.7273
-6.48293
-8.33026
-10.1691
-11.8944
-13.4058
-14.6201
-15.4788
-15.9488
-16.0194
-15.6966
-14.9887
-13.9213
-12.5424
-10.9247
-9.16348
-7.36913
-5.65125
-4.10082
-2.77599
-1.69859
-0.861563
-0.15226
-0.107577
-0.328801
-0.808326
-1.70923
-2.97603
-4.53802
-6.293
-8.14208
-9.98188
-11.7076
-13.2204
-14.4382
-15.3019
-15.7766
-15.85
-15.5268
-14.8175
-13.7502
-12.3748
-10.7659
-9.01928
-7.24428
-5.54802
-4.01835
-2.7112
-1.64785
-0.821367
-0.182566
-0.0786069
-0.284043
-0.744647
-1.62234
-2.87325
-4.42779
-6.18132
-8.03097
-9.8713
-11.5975
-13.1115
-14.3318
-15.1989
-15.6771
-15.7528
-15.4304
-14.7208
-13.6541
-12.2816
-10.6784
-8.941
-7.17777
-5.49445
-3.97712
-2.68042
-1.62529
-0.804824
-0.738664
-0.893076
-1.0849
-1.12607
-1.01106
-0.694557
-0.015467
0.792122
-1.03617
-0.979017
-1.04589
-1.01279
-0.817927
-0.40342
0.299067
1.12117
-1.1907
-0.993785
-0.926895
-0.79885
-0.533375
-0.0967779
0.540841
1.23368
-1.23624
-0.950982
-0.783644
-0.585259
-0.2853
0.129535
0.674585
1.22785
-1.25107
-0.907783
-0.669512
-0.425025
-0.1148
0.274334
0.735928
1.17615
-1.24574
-0.860017
-0.572173
-0.298899
0.0107065
0.366254
0.757731
1.10986
-1.2169
-0.797177
-0.475405
-0.186925
0.112138
0.431961
0.763321
1.04832
-1.16629
-0.720087
-0.376572
-0.0829256
0.199698
0.483573
0.763809
0.995542
-1.0969
-0.631483
-0.275605
0.0163589
0.279927
0.529769
0.765839
0.954902
-1.01092
-0.532659
-0.17151
0.114011
0.357367
0.575641
0.773106
0.92775
-0.910833
-0.42534
-0.0643673
0.211369
0.43423
0.623636
0.787379
0.91399
-0.800402
-0.312721
0.0439302
0.307804
0.510771
0.674369
0.809026
0.912616
-0.684774
-0.199229
0.150195
0.401339
0.58585
0.727028
0.837128
0.921702
-0.570064
-0.0900475
0.250448
0.489086
0.657271
0.779661
0.869664
0.938548
-0.462799
0.00943576
0.340401
0.567662
0.72217
0.829595
0.903861
0.960059
-0.368998
0.0942431
0.416068
0.63383
0.777632
0.873995
0.936606
0.982846
-0.292937
0.161201
0.474506
0.684971
0.821336
0.9105
0.965012
1.00412
-0.238184
0.20796
0.515195
0.720192
0.852154
0.937303
0.986738
1.02188
-0.205674
0.234879
0.538297
0.740229
0.870359
0.954182
1.00044
1.035
-0.193273
0.24465
0.546631
0.747608
0.877605
0.960214
1.00783
1.04223
1.82029
1.5842
1.31459
1.10508
0.832906
0.444226
0.31414
0.495393
0.595901
0.612517
0.588003
0.557155
0.519371
0.464945
0.392867
0.306985
0.208721
0.0900804
-0.0628499
-0.32764
1.89938
1.47778
1.15393
0.983146
0.777874
0.497208
0.412661
0.561976
0.634861
0.632498
0.599098
0.563386
0.522411
0.466125
0.393531
0.307508
0.209391
0.0914349
-0.0387938
-0.211293
1.7361
1.37627
1.08689
0.961851
0.795538
0.559475
0.461086
0.56359
0.62877
0.626614
0.593589
0.559907
0.520947
0.465694
0.393427
0.307824
0.210579
0.0965268
-0.0150168
-0.156159
1.5964
1.30456
1.02947
0.913854
0.778559
0.589066
0.505305
0.591852
0.649288
0.643902
0.608245
0.570163
0.525961
0.468208
0.395326
0.309867
0.213767
0.104347
0.00382408
-0.113839
1.45409
1.22722
0.979995
0.880592
0.778444
0.630662
0.556958
0.620395
0.662731
0.649644
0.60873
0.567317
0.525103
0.468031
0.395543
0.310905
0.216471
0.111863
0.0188291
-0.0792851
1.33324
1.16082
0.947116
0.861859
0.783711
0.666802
0.598824
0.641325
0.67208
0.65604
0.615151
0.574854
0.529458
0.470787
0.398011
0.313883
0.220985
0.120591
0.0327912
-0.0516124
1.23171
1.10188
0.924406
0.852131
0.792432
0.700397
0.638932
0.664426
0.684384
0.664891
0.622591
0.578843
0.531004
0.471732
0.399205
0.315971
0.224781
0.128397
0.0439897
-0.0301904
1.14774
1.05315
0.912184
0.852152
0.805643
0.732477
0.676277
0.687037
0.69635
0.672883
0.628949
0.582971
0.533725
0.473916
0.401607
0.319242
0.229663
0.136636
0.0543278
-0.0127314
1.08024
1.01561
0.909041
0.859697
0.821852
0.762537
0.710573
0.708863
0.708049
0.680618
0.635453
0.587699
0.536768
0.476093
0.403852
0.322325
0.234228
0.14405
0.0626127
0.00120213
1.02817
0.989396
0.913743
0.873264
0.840448
0.790794
0.742061
0.72995
0.71963
0.688247
0.641927
0.592461
0.539712
0.478292
0.406277
0.325676
0.23902
0.151223
0.0701234
0.0125386
0.991127
0.974128
0.924798
0.891169
0.860533
0.817093
0.770609
0.74996
0.730793
0.695507
0.648061
0.597052
0.542665
0.480511
0.408855
0.329153
0.243749
0.157857
0.0765132
0.0216237
0.96883
0.968856
0.940421
0.911689
0.881225
0.841289
0.796013
0.768542
0.74131
0.702264
0.653733
0.601392
0.545557
0.482805
0.411451
0.332621
0.248344
0.163971
0.0820395
0.0289007
0.960327
0.972124
0.958717
0.933143
0.901654
0.863244
0.818365
0.785107
0.750849
0.708384
0.658821
0.60535
0.548278
0.485029
0.414004
0.336034
0.25277
0.169573
0.0868439
0.0346815
0.963689
0.982001
0.977794
0.95394
0.921006
0.88269
0.837403
0.799294
0.759188
0.713744
0.6632
0.608792
0.550721
0.487104
0.416452
0.339305
0.256923
0.1746
0.0909515
0.0391157
0.976942
0.996398
0.995925
0.972838
0.938601
0.89946
0.85302
0.810936
0.766177
0.718217
0.666762
0.61163
0.552838
0.48902
0.418803
0.342463
0.260871
0.179187
0.094613
0.0425256
0.995241
1.01284
1.01195
0.98897
0.95376
0.913155
0.865177
0.819871
0.771619
0.721615
0.669325
0.613668
0.554412
0.490537
0.420779
0.345184
0.264269
0.183022
0.0975395
0.0448276
1.01579
1.02889
1.02501
1.0018
0.965915
0.923481
0.873914
0.826134
0.775563
0.724055
0.671116
0.615209
0.555819
0.492114
0.422903
0.348025
0.267679
0.186664
0.100316
0.0465143
1.03471
1.04207
1.03451
1.01102
0.97459
0.930164
0.879072
0.829319
0.777324
0.724716
0.671236
0.615226
0.555904
0.492538
0.423989
0.349893
0.270138
0.189316
0.102256
0.0474243
1.04883
1.05104
1.04054
1.01664
0.979594
0.933736
0.882149
0.831262
0.778627
0.725437
0.671788
0.61596
0.556877
0.493829
0.425755
0.352196
0.272732
0.191731
0.103717
0.0477077
1.05505
1.05486
1.04305
1.01817
0.979229
0.931256
0.879577
0.828726
0.77577
0.722192
0.668678
0.613463
0.555231
0.493201
0.426201
0.353639
0.27509
0.194257
0.105407
0.0480293
-1.76877
-0.988297
-1.83416
-0.619454
-0.368664
-0.225026
-0.182544
-0.176348
-1.67506
-1.4218
-1.68462
-1.19226
-0.806187
-0.608348
-0.508602
-0.458046
-1.61251
-1.32827
-1.59846
-1.4303
-1.23321
-1.02289
-0.90143
-0.822158
-1.63485
-1.52087
-1.7811
-1.78806
-1.65034
-1.43383
-1.29496
-1.19284
-1.75683
-1.86983
-2.14769
-2.2163
-2.07086
-1.8553
-1.69883
-1.58023
-1.956
-2.20939
-2.5407
-2.63344
-2.48724
-2.27349
-2.10353
-1.97207
-2.21722
-2.53906
-2.91976
-3.03029
-2.89458
-2.68364
-2.50524
-2.36409
-2.53538
-2.89473
-3.29616
-3.41447
-3.29051
-3.08174
-2.89884
-2.75042
-2.8963
-3.27475
-3.67045
-3.78725
-3.67434
-3.46551
-3.28026
-3.12639
-3.27662
-3.65652
-4.03364
-4.14666
-4.04452
-3.83288
-3.64561
-3.4875
-3.655
-4.02307
-4.37937
-4.49049
-4.39841
-4.18151
-3.99117
-3.82951
-4.01712
-4.3668
-4.70433
-4.81576
-4.73236
-4.50834
-4.3131
-4.14827
-4.35347
-4.68318
-5.00488
-5.1182
-5.04202
-4.80958
-4.60734
-4.43964
-4.65639
-4.9672
-5.27624
-5.3927
-5.32254
-5.08104
-4.86979
-4.69957
-4.91926
-5.21356
-5.5132
-5.63379
-5.5689
-5.31864
-5.09659
-4.92422
-5.13681
-5.41749
-5.71084
-5.83606
-5.77608
-5.51853
-5.28418
-5.10992
-5.30513
-5.57488
-5.8648
-5.99451
-5.93934
-5.67584
-5.42848
-5.253
-5.42151
-5.68224
-5.97151
-6.10477
-6.05447
-5.78389
-5.52468
-5.35002
-5.48452
-5.73687
-6.02866
-6.1632
-6.11777
-5.83845
-5.56993
-5.39878
-5.49417
-5.73786
-6.03447
-6.16814
-6.12473
-5.84546
-5.56756
-5.39941
-5.45011
-5.68449
-5.98683
-6.12046
-6.07811
-5.80251
-5.51709
-5.35086
-5.35001
-5.57804
-5.88672
-6.02283
-5.98057
-5.70817
-5.41844
-5.25407
-5.19717
-5.42112
-5.73635
-5.87719
-5.8344
-5.56347
-5.27271
-5.11093
-4.99645
-5.21682
-5.53772
-5.6842
-5.64075
-5.37056
-5.08206
-4.92431
-4.75254
-4.96872
-5.29302
-5.44495
-5.40119
-5.13262
-4.84991
-4.69809
-4.47074
-4.68167
-5.00588
-5.1624
-5.11882
-4.85418
-4.58093
-4.43719
-4.15772
-4.36221
-4.68213
-4.8418
-4.79891
-4.54128
-4.28109
-4.1475
-3.82146
-4.0184
-4.32976
-4.49065
-4.44882
-4.20152
-3.95735
-3.83569
-3.47077
-3.65932
-3.95845
-4.1183
-4.07764
-3.84366
-3.61738
-3.50869
-3.11481
-3.29456
-3.57878
-3.73533
-3.69553
-3.47724
-3.26908
-3.17322
-2.7626
-2.93364
-3.20152
-3.35271
-3.31303
-3.11195
-2.92028
-2.83577
-2.42259
-2.58558
-2.83691
-2.98105
-2.94036
-2.75707
-2.57853
-2.50285
-2.10219
-2.25837
-2.49409
-2.62989
-2.58675
-2.42083
-2.25039
-2.17982
-1.80751
-1.9587
-2.1807
-2.30714
-2.26003
-2.11012
-1.94011
-1.86667
-1.54322
-1.69179
-1.90253
-2.01872
-1.9665
-1.83025
-1.64915
-1.55539
-1.31251
-1.46149
-1.66362
-1.76862
-1.711
-1.58404
-1.3786
-1.24003
-1.11763
-1.27035
-1.46584
-1.55787
-1.49643
-1.36986
-1.13123
-0.937622
-0.959392
-1.12101
-1.3111
-1.38966
-1.3232
-1.18265
-0.90255
-0.676481
-0.841247
-1.01254
-1.19299
-1.25535
-1.18373
-1.02133
-0.661856
-0.407248
-0.761283
-0.958944
-1.1284
-1.16986
-1.09144
-0.883064
-0.361743
0.0604529
0.254776
0.0583911
-0.0306733
-0.0796529
-0.109565
-0.140247
-0.15246
-0.158175
0.128567
0.027746
-0.0445402
-0.0953119
-0.122226
-0.149146
-0.15817
-0.154039
0.0335171
-0.0173535
-0.0672598
-0.114054
-0.137684
-0.161688
-0.168422
-0.158819
-0.0436663
-0.0636202
-0.0942274
-0.134559
-0.154784
-0.17643
-0.181506
-0.168685
-0.104004
-0.10772
-0.124227
-0.156812
-0.173336
-0.192762
-0.196615
-0.182037
-0.153031
-0.147685
-0.154907
-0.179915
-0.192808
-0.20994
-0.212869
-0.197347
-0.193595
-0.183411
-0.184967
-0.2032
-0.212771
-0.227447
-0.229662
-0.213646
-0.227974
-0.215238
-0.213581
-0.226099
-0.232805
-0.244884
-0.246552
-0.230245
-0.257815
-0.243669
-0.240351
-0.248247
-0.252571
-0.261989
-0.263253
-0.246708
-0.284492
-0.269156
-0.265105
-0.269441
-0.271824
-0.278638
-0.279573
-0.262779
-0.308662
-0.292242
-0.2879
-0.289621
-0.290424
-0.294808
-0.295412
-0.278343
-0.330116
-0.313801
-0.308857
-0.308816
-0.30828
-0.310425
-0.310842
-0.293374
-0.349405
-0.334116
-0.328076
-0.327099
-0.325307
-0.325323
-0.326037
-0.307906
-0.36704
-0.353173
-0.345928
-0.344582
-0.34146
-0.339668
-0.340758
-0.322064
-0.383362
-0.371045
-0.362652
-0.361394
-0.356796
-0.353959
-0.354595
-0.33595
-0.39861
-0.387872
-0.378423
-0.377562
-0.371505
-0.368132
-0.367894
-0.349547
-0.412954
-0.403778
-0.393379
-0.393137
-0.385729
-0.382123
-0.380911
-0.362905
-0.426528
-0.418863
-0.407619
-0.408174
-0.399568
-0.395921
-0.393776
-0.376077
-0.43942
-0.433211
-0.421217
-0.42273
-0.413095
-0.409538
-0.406566
-0.389112
-0.45164
-0.446904
-0.434221
-0.436856
-0.426363
-0.422998
-0.419329
-0.402051
-0.463157
-0.46
-0.446662
-0.450592
-0.439416
-0.436333
-0.432108
-0.414933
-0.473925
-0.472518
-0.458553
-0.463965
-0.452285
-0.449571
-0.444938
-0.427791
-0.483877
-0.484446
-0.469882
-0.476986
-0.464994
-0.462739
-0.457853
-0.440659
-0.492919
-0.495751
-0.480621
-0.48965
-0.477561
-0.475861
-0.470888
-0.453566
-0.500932
-0.506378
-0.490723
-0.501937
-0.489997
-0.488959
-0.484082
-0.466544
-0.507763
-0.516254
-0.500124
-0.513806
-0.502307
-0.502057
-0.497484
-0.479627
-0.513201
-0.525263
-0.508735
-0.52519
-0.514484
-0.515175
-0.511154
-0.492864
-0.516961
-0.53324
-0.516428
-0.535993
-0.526507
-0.528329
-0.525151
-0.506326
-0.518713
-0.539993
-0.523069
-0.546099
-0.538348
-0.541526
-0.539529
-0.520105
-0.518154
-0.545398
-0.528569
-0.555388
-0.549971
-0.554779
-0.554345
-0.534272
-0.514962
-0.549372
-0.532878
-0.563719
-0.561324
-0.568128
-0.569686
-0.548875
-0.508411
-0.551557
-0.535832
-0.570871
-0.572305
-0.581627
-0.585688
-0.564112
-0.496924
-0.55096
-0.537035
-0.576565
-0.582773
-0.595255
-0.602437
-0.580656
-0.478812
-0.546525
-0.536184
-0.580629
-0.592609
-0.608841
-0.619767
-0.599474
-0.454701
-0.538936
-0.533772
-0.583092
-0.601754
-0.622199
-0.637108
-0.620489
-0.427874
-0.530879
-0.530944
-0.583887
-0.610143
-0.635531
-0.653838
-0.641717
-0.395827
-0.521486
-0.527703
-0.582682
-0.617731
-0.649476
-0.670587
-0.663609
-0.337977
-0.498935
-0.521896
-0.579948
-0.624722
-0.663879
-0.69038
-0.699676
-0.231046
-0.449904
-0.512775
-0.578034
-0.631232
-0.676089
-0.714806
-0.771611
-0.111838
-0.393424
-0.505177
-0.578167
-0.63557
-0.682026
-0.734731
-0.861491
)
;

boundaryField
{
    wall
    {
        type            zeroGradient;
    }
    inlet1
    {
        type            zeroGradient;
    }
    inlet2
    {
        type            zeroGradient;
    }
    outlet1
    {
        type            fixedValue;
        value           uniform 0;
    }
    outlet2
    {
        type            outletInlet;
        outletValue     uniform 0;
        value           nonuniform List<scalar> 8(-1.76877 0 -1.83416 0 -0.368664 0 0 0);
    }
    defaultFaces
    {
        type            empty;
    }
}


// ************************************************************************* //
