/*--------------------------------*- C++ -*----------------------------------*\
| =========                 |                                                 |
| \\      /  F ield         | OpenFOAM: The Open Source CFD Toolbox           |
|  \\    /   O peration     | Version:  2.4.0                                 |
|   \\  /    A nd           | Web:      www.OpenFOAM.org                      |
|    \\/     M anipulation  |                                                 |
\*---------------------------------------------------------------------------*/
FoamFile
{
    version     2.0;
    format      ascii;
    class       volVectorField;
    location    "0.37";
    object      U;
}
// * * * * * * * * * * * * * * * * * * * * * * * * * * * * * * * * * * * * * //

dimensions      [0 1 -1 0 0 0 0];

internalField   nonuniform List<vector> 
6000
(
(0.519918 -0.044734 -1.11088e-17)
(-0.276469 0.0588248 0)
(-0.0132067 0.00386084 4.8911e-18)
(-0.185736 0.0374988 0)
(-0.131855 0.0229886 0)
(-0.106984 0.0154182 0)
(-0.0572763 0.00559027 4.47814e-18)
(-0.0139582 -0.00306408 7.16597e-21)
(0.0381143 -0.0126331 0)
(0.096806 -0.0220242 0)
(0.155934 -0.0298827 5.60777e-18)
(0.206866 -0.0351273 -1.14708e-17)
(0.243516 -0.0374762 0)
(0.265823 -0.0375891 0)
(0.278445 -0.0364777 -2.88362e-18)
(0.286301 -0.0348351 0)
(0.291938 -0.0329212 0)
(0.296114 -0.0308102 -2.8274e-18)
(0.299083 -0.0285522 -2.80628e-18)
(0.301075 -0.0261946 0)
(0.30237 -0.0237803 2.76516e-18)
(0.303212 -0.0213375 1.37362e-18)
(0.303774 -0.0188828 -1.36514e-18)
(0.30418 -0.0164261 0)
(0.304525 -0.0139728 0)
(0.304883 -0.0115249 0)
(0.305311 -0.00908202 6.70184e-19)
(0.305857 -0.00664174 -6.68415e-19)
(0.306558 -0.00420034 0)
(0.307447 -0.00175292 0)
(0.308549 0.000706313 8.32995e-20)
(0.309891 0.00318404 0)
(0.311494 0.00568781 6.67846e-19)
(0.313381 0.00822623 -6.6942e-19)
(0.315574 0.0108067 0)
(0.318092 0.0134347 0)
(0.320952 0.0161068 1.35544e-18)
(0.324162 0.0188284 0)
(0.327749 0.0216163 1.372e-18)
(0.331777 0.0244885 0)
(0.336293 0.0274611 0)
(0.341339 0.0305549 2.81004e-18)
(0.346963 0.0337872 -5.67117e-18)
(0.353225 0.037177 0)
(0.360194 0.0407467 0)
(0.367954 0.0445224 2.92286e-18)
(0.376604 0.0485349 0)
(0.386261 0.0528209 0)
(0.397068 0.0574237 -6.01805e-18)
(0.409204 0.0623966 -6.06979e-18)
(0.422875 0.0678021 -6.10547e-18)
(0.438388 0.0737259 -5.21868e-21)
(0.455975 0.0802503 6.09943e-18)
(0.476377 0.0875584 0)
(0.49911 0.0956161 -8.65382e-21)
(0.527783 0.105155 -5.67058e-18)
(0.555499 0.115022 5.22758e-18)
(0.60525 0.129325 4.63085e-18)
(0.624127 0.1392 1.90478e-20)
(0.741853 0.166643 0)
(0.731412 -0.111577 9.10887e-18)
(-0.182861 0.0606022 3.76181e-18)
(-0.0104517 0.00292325 -2.3781e-18)
(-0.192723 0.0464897 -2.82649e-18)
(-0.123284 0.0242389 0)
(-0.0955619 0.0156529 0)
(-0.0411583 0.00447317 -4.39433e-18)
(0.00699001 -0.00515435 9.46194e-18)
(0.0642951 -0.0163861 0)
(0.129716 -0.0277241 0)
(0.197431 -0.0372259 -5.48976e-18)
(0.258107 -0.043387 5.61938e-18)
(0.303643 -0.0458233 2.8369e-18)
(0.331792 -0.0454364 0)
(0.346601 -0.0436015 2.83663e-18)
(0.354199 -0.0412469 0)
(0.358755 -0.0386904 0)
(0.361827 -0.0359768 0)
(0.363713 -0.0331285 0)
(0.364559 -0.0301963 0)
(0.364642 -0.0272322 -9.77298e-22)
(0.364263 -0.0242685 0)
(0.363652 -0.021321 -1.34745e-18)
(0.362967 -0.0183969 0)
(0.362316 -0.0154988 0)
(0.361781 -0.0126258 6.64323e-19)
(0.361422 -0.0097748 -6.62345e-19)
(0.361289 -0.00694061 2.00712e-22)
(0.361418 -0.00411698 3.29659e-19)
(0.361841 -0.00129673 0)
(0.362584 0.00152798 -8.23509e-20)
(0.36367 0.00436547 -3.29528e-19)
(0.365121 0.00722449 -2.08591e-22)
(0.366961 0.0101141 6.61803e-19)
(0.36921 0.013043 -6.63678e-19)
(0.37189 0.0160147 0)
(0.375031 0.0190667 0)
(0.37868 0.0222215 0)
(0.382888 0.0254793 0)
(0.387669 0.0288498 0)
(0.393061 0.0323539 -2.75015e-18)
(0.399117 0.0360049 0)
(0.405898 0.0398255 2.79947e-18)
(0.413474 0.0438424 2.82453e-18)
(0.421932 0.0480853 0)
(0.431369 0.0525887 0)
(0.441903 0.0573925 0)
(0.453676 0.0625437 0)
(0.466855 0.0680981 5.93066e-18)
(0.481648 0.0741226 0)
(0.498296 0.0806977 0)
(0.517134 0.0879245 -6.01829e-18)
(0.538475 0.0959229 -5.99859e-18)
(0.563042 0.104869 0)
(0.590813 0.114911 -1.15748e-17)
(0.624527 0.126479 0)
(0.659911 0.139371 -1.02328e-17)
(0.714723 0.156236 -4.49478e-18)
(0.747529 0.171217 3.21198e-18)
(0.882573 0.205372 2.1243e-18)
(0.801375 -0.0940448 -3.41509e-19)
(-0.0571067 0.049897 -3.51384e-18)
(0.00340218 0.00419106 0)
(-0.169817 0.0425059 2.74841e-18)
(-0.107036 0.0158981 0)
(-0.0812821 0.0071132 0)
(-0.0287376 -0.00367279 0)
(0.0182205 -0.0134288 -4.63924e-18)
(0.0744516 -0.0252289 0)
(0.139936 -0.0370961 -5.16625e-18)
(0.209757 -0.0467353 0)
(0.274985 -0.0524644 0)
(0.326574 -0.0539698 -2.79686e-18)
(0.360087 -0.0524268 0)
(0.377808 -0.0495062 0)
(0.385844 -0.0462849 0)
(0.389523 -0.0430636 0)
(0.391431 -0.0398011 0)
(0.392247 -0.0364626 0)
(0.392111 -0.0330874 2.72303e-18)
(0.391241 -0.0297325 -2.70647e-18)
(0.389936 -0.0264309 0)
(0.388457 -0.023192 4.09195e-22)
(0.386981 -0.0200149 -1.33004e-18)
(0.385622 -0.0168952 0)
(0.384461 -0.013827 -1.31905e-18)
(0.383554 -0.0108024 0)
(0.382947 -0.00781268 6.55908e-19)
(0.382674 -0.00484818 -3.274e-19)
(0.382761 -0.00189882 0)
(0.383232 0.00104584 0)
(0.384107 0.0039966 3.27291e-19)
(0.385406 0.00696472 -1.93445e-22)
(0.387148 0.00996209 0)
(0.389355 0.0130026 1.31803e-18)
(0.392053 0.0161042 0)
(0.395274 0.0192699 1.32917e-18)
(0.399053 0.0224974 0)
(0.403425 0.0258125 0)
(0.408428 0.0292405 0)
(0.414104 0.0328085 2.72942e-18)
(0.420511 0.0365304 0)
(0.427715 0.0404287 0)
(0.435794 0.0445299 -2.80158e-18)
(0.444841 0.0488645 0)
(0.454965 0.053468 0)
(0.466295 0.0583817 2.88167e-18)
(0.478987 0.0636545 -2.90819e-18)
(0.493226 0.0693444 -2.93258e-18)
(0.509242 0.0755213 0)
(0.527305 0.0822695 0)
(0.547783 0.0896943 0)
(0.571027 0.0979217 5.91769e-18)
(0.597817 0.107132 5.84779e-18)
(0.62818 0.117489 5.71518e-18)
(0.665041 0.129442 0)
(0.703987 0.142806 5.04712e-18)
(0.763455 0.159534 8.86361e-18)
(0.799936 0.175643 0)
(0.943685 0.207617 -2.09521e-18)
(0.837811 -0.0626711 -2.69798e-19)
(0.0610069 0.0433806 3.14802e-18)
(0.0185091 0.00742563 -2.26749e-18)
(-0.140954 0.0392528 0)
(-0.0866616 0.0100932 0)
(-0.0650666 0.0012596 0)
(-0.0164594 -0.00912372 0)
(0.0275941 -0.0187156 0)
(0.0809764 -0.0309743 0)
(0.144405 -0.0433701 5.09139e-18)
(0.21358 -0.0531822 5.28966e-18)
(0.280081 -0.0585029 0)
(0.334674 -0.059049 0)
(0.371664 -0.0562843 0)
(0.391786 -0.0522475 2.77705e-18)
(0.400557 -0.0482286 0)
(0.403824 -0.0445097 2.75513e-18)
(0.404954 -0.0409177 -2.73928e-18)
(0.40504 -0.0373159 0)
(0.404284 -0.0337115 -2.70655e-18)
(0.402854 -0.0301647 0)
(0.401021 -0.0267112 -1.33662e-18)
(0.399053 -0.0233551 2.65909e-18)
(0.397135 -0.0200871 1.32316e-18)
(0.395386 -0.016896 0)
(0.393882 -0.013771 6.56185e-19)
(0.392677 -0.0107013 0)
(0.391814 -0.00767548 6.52398e-19)
(0.391323 -0.00468181 0)
(0.391228 -0.00170859 0)
(0.391551 0.00125589 0)
(0.392308 0.00422337 3.2557e-19)
(0.393519 0.00720573 -1.3044e-18)
(0.395202 0.0102152 0)
(0.397378 0.0132634 -6.55774e-19)
(0.40007 0.0163605 0)
(0.403304 0.0195215 -1.3226e-18)
(0.407114 0.022775 0)
(0.411541 0.0261223 0)
(0.416622 0.0295769 0)
(0.422405 0.0331622 2.71183e-18)
(0.428946 0.036903 0)
(0.436313 0.0408235 2.75639e-18)
(0.444585 0.0449508 -2.78078e-18)
(0.453857 0.0493163 0)
(0.46424 0.0539564 -2.83202e-18)
(0.475868 0.0589136 -5.71741e-18)
(0.4889 0.0642379 2.88452e-18)
(0.503527 0.069989 5.81163e-18)
(0.519986 0.0762388 -5.84532e-18)
(0.538554 0.0830736 -5.86784e-18)
(0.55961 0.0906026 0)
(0.583522 0.0989539 -5.84775e-18)
(0.611075 0.108315 -5.77275e-18)
(0.642354 0.118844 -5.61356e-18)
(0.680221 0.130983 0)
(0.720534 0.144581 0)
(0.781118 0.161492 -4.34141e-18)
(0.819955 0.177847 0)
(0.963769 0.207511 1.99186e-18)
(0.861869 -0.0374472 -2.52971e-19)
(0.168994 0.0401952 -9.77369e-20)
(0.0464332 0.0106739 2.20173e-18)
(-0.106455 0.0352853 2.60571e-18)
(-0.0624206 0.00360025 0)
(-0.0463854 -0.00488191 -3.79595e-18)
(-0.00300411 -0.0147391 0)
(0.0373586 -0.0240547 0)
(0.0871762 -0.0366809 0)
(0.147669 -0.0495455 5.02241e-18)
(0.215006 -0.0594788 -5.23589e-18)
(0.281195 -0.0643213 0)
(0.337024 -0.0638087 0)
(0.37609 -0.0597129 0)
(0.398004 -0.0544768 -2.76019e-18)
(0.407596 -0.0496299 0)
(0.410825 -0.0454414 -2.74235e-18)
(0.411542 -0.0415882 2.72762e-18)
(0.411191 -0.0378052 0)
(0.410069 -0.0340508 0)
(0.408322 -0.0303837 1.33948e-18)
(0.406199 -0.0268444 1.3324e-18)
(0.403962 -0.0234337 -2.6503e-18)
(0.401801 -0.0201345 -1.31856e-18)
(0.399836 -0.0169292 0)
(0.398145 -0.0138029 6.54073e-19)
(0.39678 -0.010742 0)
(0.39578 -0.00773304 -6.50815e-19)
(0.395174 -0.00476291 3.24794e-19)
(0.394984 -0.00181877 0)
(0.39523 0.00111189 0)
(0.395929 0.00404134 -6.4954e-19)
(0.397099 0.00698177 6.50589e-19)
(0.398756 0.00994545 0)
(0.40092 0.0129455 -6.5379e-19)
(0.403616 0.0159963 0)
(0.406876 0.0191111 1.3184e-18)
(0.410725 0.0223045 0)
(0.415195 0.0256037 0)
(0.420331 0.0290184 0)
(0.426182 0.0325654 -2.7038e-18)
(0.432807 0.0362647 -2.72359e-18)
(0.440274 0.0401398 -2.74716e-18)
(0.448662 0.0442183 1.34086e-21)
(0.458067 0.0485311 -2.7938e-18)
(0.468602 0.0531144 2.82008e-18)
(0.4804 0.05801 5.68736e-18)
(0.493623 0.0632672 0)
(0.508463 0.0689446 -2.88828e-18)
(0.525158 0.0751124 5.80869e-18)
(0.54399 0.0818558 5.82658e-18)
(0.56534 0.0892796 0)
(0.58958 0.0975138 0)
(0.617501 0.106727 0)
(0.649194 0.117118 5.547e-18)
(0.687527 0.128977 0)
(0.728413 0.142532 0)
(0.789419 0.158925 4.21953e-18)
(0.829319 0.175405 -2.94557e-18)
(0.971812 0.203387 -1.93602e-18)
(0.879972 -0.0169453 -2.34402e-19)
(0.26652 0.0393674 -2.84549e-18)
(0.0871839 0.0132873 0)
(-0.0655229 0.0305761 -2.57168e-18)
(-0.0342112 -0.00303031 -3.0607e-18)
(-0.0245147 -0.0110104 8.99604e-21)
(0.0125323 -0.0203482 0)
(0.0486513 -0.0293099 0)
(0.0943974 -0.0422398 0)
(0.15136 -0.0555433 -4.98786e-18)
(0.216131 -0.0656028 0)
(0.281107 -0.069983 0)
(0.337153 -0.0683978 2.71313e-18)
(0.377403 -0.0629103 0)
(0.400628 -0.0563928 0)
(0.411001 -0.0506578 0)
(0.414389 -0.0459842 0)
(0.414918 -0.0418904 -2.71885e-18)
(0.414303 -0.0379612 0)
(0.412954 -0.0340911 2.68851e-18)
(0.41102 -0.0303336 -1.33715e-18)
(0.40873 -0.0267348 -1.32941e-18)
(0.406339 -0.0232931 2.64563e-18)
(0.404039 -0.0199841 2.63322e-18)
(0.401954 -0.0167835 0)
(0.400158 -0.0136721 -6.5332e-19)
(0.398704 -0.0106335 0)
(0.397629 -0.00765228 0)
(0.396961 -0.00471383 -6.48836e-19)
(0.396722 -0.00180402 0)
(0.396929 0.0010907 0)
(0.397601 0.00398352 6.48724e-19)
(0.398752 0.00688759 0)
(0.400401 0.00981636 0)
(0.402568 0.0127835 6.53164e-19)
(0.405275 0.0158035 0)
(0.408545 0.0188894 -1.31706e-18)
(0.412413 0.0220347 0)
(0.416917 0.0252689 0)
(0.422096 0.0286163 0)
(0.427999 0.0320959 0)
(0.434685 0.0357286 2.71991e-18)
(0.442223 0.0395373 2.74064e-18)
(0.450693 0.0435483 1.35203e-21)
(0.460191 0.0477922 2.7889e-18)
(0.470831 0.0523043 2.81141e-18)
(0.482746 0.0571259 -2.83662e-18)
(0.4961 0.0623055 0)
(0.511085 0.0679008 -2.8759e-18)
(0.527941 0.0739813 2.89017e-18)
(0.546949 0.0806307 -5.79387e-18)
(0.568493 0.0879532 0)
(0.592946 0.0960746 0)
(0.621098 0.105167 -5.65126e-18)
(0.653055 0.115406 -5.48537e-18)
(0.691642 0.127144 5.22026e-18)
(0.732892 0.140434 4.76802e-18)
(0.794097 0.15648 -4.16213e-18)
(0.834694 0.172588 2.89447e-18)
(0.975969 0.198919 0)
(0.894515 0.00156204 -2.11582e-19)
(0.353938 0.0404818 0)
(0.137382 0.0156156 2.07322e-18)
(-0.0181911 0.0253415 2.50911e-18)
(-0.00235641 -0.00966139 1.26323e-20)
(0.000784426 -0.0170961 3.77303e-18)
(0.0304642 -0.0258636 0)
(0.0618397 -0.03448 0)
(0.103087 -0.0476647 0)
(0.156046 -0.0613852 2.46964e-18)
(0.217724 -0.0715905 2.56969e-18)
(0.280903 -0.0755559 0)
(0.33653 -0.0729348 -2.69862e-18)
(0.37738 -0.0660512 2.72502e-18)
(0.401548 -0.0582135 0)
(0.412614 -0.0515476 0)
(0.416248 -0.0463667 0)
(0.416721 -0.0420345 9.93289e-22)
(0.415953 -0.0379757 0)
(0.41446 -0.0340102 -5.3703e-18)
(0.412411 -0.0301806 1.33501e-18)
(0.410025 -0.0265383 1.32835e-18)
(0.407548 -0.0230803 -4.19912e-22)
(0.405171 -0.0197751 -1.31559e-18)
(0.403018 -0.0165921 0)
(0.401165 -0.0135078 0)
(0.399663 -0.0105032 0)
(0.398548 -0.00756155 3.2463e-19)
(0.397849 -0.00466678 6.48373e-19)
(0.397585 -0.00180404 0)
(0.397775 0.00104064 0)
(0.398434 0.00388055 -6.48285e-19)
(0.399579 0.00672849 -3.24566e-19)
(0.401228 0.00959692 0)
(0.403398 0.0124977 0)
(0.406115 0.0154411 0)
(0.409406 0.0184446 0)
(0.413297 0.0215418 0)
(0.417825 0.02473 0)
(0.423034 0.028025 0)
(0.428974 0.0314464 0)
(0.435704 0.0350159 0)
(0.443292 0.038757 -1.22097e-21)
(0.451821 0.0426964 2.76185e-18)
(0.461387 0.0468645 0)
(0.472103 0.0512962 -5.61663e-18)
(0.484105 0.0560323 -2.83051e-18)
(0.497555 0.0611208 0)
(0.51265 0.0666184 2.87233e-18)
(0.529628 0.0725934 -2.88597e-18)
(0.548773 0.0791282 5.78389e-18)
(0.570469 0.0863248 -5.76678e-18)
(0.595091 0.0943071 0)
(0.623429 0.103242 8.38495e-21)
(0.655596 0.113304 5.4642e-18)
(0.694401 0.124819 -1.03777e-17)
(0.735934 0.13787 -1.45604e-20)
(0.797299 0.153568 -4.09209e-18)
(0.838437 0.169243 2.81988e-18)
(0.978636 0.194229 1.80088e-18)
(0.906378 0.0185822 -4.17725e-18)
(0.431758 0.0431142 0)
(0.19432 0.0177445 4.45945e-22)
(0.0347689 0.0199155 -1.34826e-20)
(0.032807 -0.015823 3.02431e-18)
(0.0292678 -0.0231885 3.74006e-18)
(0.050835 -0.0311662 0)
(0.0769498 -0.0395015 4.43064e-18)
(0.113342 -0.0529124 0)
(0.161908 -0.0670411 -2.45758e-18)
(0.22007 -0.0774244 -4.70505e-21)
(0.281027 -0.0810402 -2.62772e-18)
(0.335815 -0.0774457 0)
(0.37688 -0.0691933 -5.42813e-18)
(0.401725 -0.0600232 0)
(0.413385 -0.0523957 0)
(0.417294 -0.0466828 0)
(0.417783 -0.0421044 2.71114e-18)
(0.416925 -0.0379214 0)
(0.415338 -0.0338705 2.68283e-18)
(0.413217 -0.0299787 -2.66809e-18)
(0.410775 -0.0263011 0)
(0.408248 -0.0228335 -4.06325e-22)
(0.405829 -0.0195383 0)
(0.403638 -0.0163783 0)
(0.401753 -0.0133259 -6.52234e-19)
(0.400225 -0.0103598 0)
(0.399089 -0.00746123 -6.49036e-19)
(0.398373 -0.00461327 -3.24079e-19)
(0.398097 -0.00180016 -8.09331e-20)
(0.398279 0.000992701 8.09298e-20)
(0.398934 0.00377907 3.24044e-19)
(0.400079 0.00657227 6.48939e-19)
(0.40173 0.00938555 0)
(0.403908 0.012233 6.52205e-19)
(0.406633 0.0151323 0)
(0.409934 0.018088 0)
(0.413841 0.0211091 0)
(0.418391 0.0242216 1.32925e-18)
(0.423624 0.0274438 0)
(0.429592 0.0307929 0)
(0.436354 0.0342886 2.71437e-18)
(0.443981 0.0379533 -2.73711e-18)
(0.452553 0.041813 0)
(0.462168 0.0458975 0)
(0.47294 0.0502411 2.80656e-18)
(0.485006 0.0548838 2.82938e-18)
(0.498529 0.0598727 -2.84871e-18)
(0.513706 0.0652636 0)
(0.530778 0.0711235 0)
(0.550029 0.0775333 0)
(0.571845 0.0845933 6.02317e-21)
(0.596604 0.0924245 0)
(0.625093 0.10119 5.61716e-18)
(0.657437 0.111061 0)
(0.696427 0.122352 5.17023e-18)
(0.738204 0.135137 -4.70836e-18)
(0.799713 0.150486 8.13211e-18)
(0.841312 0.165669 -2.80365e-18)
(0.980551 0.189485 -1.78583e-18)
(0.916011 0.0339081 1.78588e-19)
(0.500529 0.0467919 -2.33371e-18)
(0.255193 0.0198009 -1.97256e-18)
(0.0916411 0.0147754 -1.23178e-20)
(0.0720647 -0.0215929 -2.98975e-18)
(0.060497 -0.0291585 -3.72536e-18)
(0.0734636 -0.0362149 0)
(0.0938715 -0.0443164 -4.41789e-18)
(0.125127 -0.0579446 0)
(0.16898 -0.072482 -2.4353e-18)
(0.223265 -0.0830838 -2.53765e-18)
(0.281647 -0.0864258 2.61393e-18)
(0.335285 -0.081936 -2.66637e-18)
(0.376306 -0.0723602 2.70361e-18)
(0.40164 -0.0618617 -2.7204e-18)
(0.413807 -0.0532509 2.72435e-18)
(0.417987 -0.0469819 0)
(0.418524 -0.0421446 0)
(0.417611 -0.0378363 0)
(0.415957 -0.0337046 1.33986e-18)
(0.413784 -0.0297557 1.33328e-18)
(0.411304 -0.0260467 0)
(0.408747 -0.0225727 -1.32e-18)
(0.4063 -0.0192901 0)
(0.404086 -0.0161555 0)
(0.402181 -0.0131371 6.52138e-19)
(0.400637 -0.0102111 -6.50101e-19)
(0.399489 -0.00735739 3.24435e-19)
(0.398763 -0.00455764 0)
(0.398481 -0.00179536 1.61829e-19)
(0.398659 0.000944583 -1.61823e-19)
(0.399313 0.00367633 0)
(0.400459 0.00641343 -3.24398e-19)
(0.402113 0.00916918 6.50039e-19)
(0.404297 0.0119564 -6.52163e-19)
(0.407032 0.0147847 0)
(0.410345 0.0176748 0)
(0.414265 0.0206389 0)
(0.41883 0.0236895 -1.32914e-18)
(0.424083 0.0268444 0)
(0.430073 0.0301224 0)
(0.436862 0.0335437 -2.71408e-18)
(0.444518 0.0371306 0)
(0.453124 0.0409086 2.75687e-18)
(0.462777 0.0449069 -2.77995e-18)
(0.473593 0.0491593 0)
(0.485709 0.053705 2.82556e-18)
(0.49929 0.0585902 5.69441e-18)
(0.514532 0.0638697 -2.86388e-18)
(0.531678 0.0696093 0)
(0.551013 0.0758883 0)
(0.572925 0.0828049 2.87937e-18)
(0.597795 0.0904777 0)
(0.626411 0.0990666 5.59714e-18)
(0.658903 0.108737 0)
(0.698052 0.119797 5.14113e-18)
(0.740043 0.132301 4.67316e-18)
(0.801677 0.147297 -4.04873e-18)
(0.843676 0.16197 0)
(0.982031 0.184724 1.74202e-18)
(0.92381 0.0475581 3.34739e-18)
(0.560844 0.0511248 7.83704e-20)
(0.317502 0.021908 1.93769e-18)
(0.151155 0.0101595 -1.04206e-20)
(0.114997 -0.0269219 4.93817e-21)
(0.0941457 -0.0347788 0)
(0.0981073 -0.040935 0)
(0.112449 -0.0488646 0)
(0.138358 -0.062719 -2.31067e-18)
(0.177243 -0.0776727 4.84425e-18)
(0.227336 -0.0885391 0)
(0.282825 -0.0916907 2.59361e-18)
(0.335049 -0.0863941 2.26675e-21)
(0.375825 -0.0755528 -2.69124e-18)
(0.401515 -0.0637409 1.03316e-21)
(0.414117 -0.0541323 -2.72017e-18)
(0.418551 -0.0472852 0)
(0.419146 -0.0421745 0)
(0.418192 -0.0377367 0)
(0.41648 -0.0335256 -1.33924e-18)
(0.414264 -0.0295222 0)
(0.411754 -0.0257841 1.32532e-18)
(0.409172 -0.0223052 1.31895e-18)
(0.406704 -0.0190362 -1.31309e-18)
(0.404472 -0.015928 0)
(0.402552 -0.0129446 0)
(0.400996 -0.0100597 6.50041e-19)
(0.399838 -0.00725149 0)
(0.399106 -0.00450063 3.23749e-19)
(0.398819 -0.00178983 -8.08982e-20)
(0.398995 0.000896572 8.08958e-20)
(0.399649 0.00357305 -3.23722e-19)
(0.400796 0.00625326 0)
(0.402455 0.00895039 -6.50012e-19)
(0.404645 0.0116777 0)
(0.407387 0.0144499 0)
(0.41071 0.0172761 1.31399e-18)
(0.414643 0.0201724 0)
(0.419223 0.0231546 0)
(0.424493 0.0262397 0)
(0.430503 0.0294454 0)
(0.437314 0.0327912 0)
(0.444996 0.0362992 0)
(0.453631 0.0399942 -5.51211e-18)
(0.463318 0.0439049 2.77973e-18)
(0.474172 0.0480645 2.80139e-18)
(0.48633 0.0525112 -5.64897e-18)
(0.499959 0.0572905 -2.84599e-18)
(0.515255 0.062456 2.86352e-18)
(0.532464 0.0680722 -2.87368e-18)
(0.55187 0.0742167 0)
(0.573864 0.0809859 2.8849e-21)
(0.598828 0.0884956 -5.68901e-18)
(0.627551 0.0969023 -5.5953e-18)
(0.660171 0.106366 -5.40849e-18)
(0.699457 0.117188 -1.02653e-17)
(0.741636 0.129404 -4.66968e-18)
(0.803378 0.144043 4.01136e-18)
(0.845725 0.158202 2.73464e-18)
(0.983243 0.179966 -1.73773e-18)
(0.930146 0.059746 -1.57854e-19)
(0.613328 0.0558333 2.20297e-18)
(0.379166 0.0241553 1.92928e-21)
(0.212177 0.00618128 -7.82859e-21)
(0.160843 -0.0316812 2.96928e-18)
(0.129826 -0.0398941 3.68023e-18)
(0.124493 -0.0452484 -4.08935e-18)
(0.132506 -0.0530899 2.18436e-18)
(0.152933 -0.0671954 5.33917e-21)
(0.18666 -0.0825787 -2.40963e-18)
(0.23229 -0.0937591 -2.49864e-18)
(0.284591 -0.0968094 -2.58095e-18)
(0.33515 -0.0908028 5.27817e-18)
(0.375507 -0.0787631 1.36783e-21)
(0.401441 -0.065661 2.70633e-18)
(0.41442 -0.0550455 0)
(0.419085 -0.0476004 2.71129e-18)
(0.419735 -0.0422017 0)
(0.418743 -0.0376289 -2.68907e-18)
(0.416977 -0.0333386 -1.3379e-18)
(0.414718 -0.0292826 -1.3312e-18)
(0.412178 -0.0255166 -3.67193e-22)
(0.409573 -0.0220335 -1.3187e-18)
(0.407086 -0.0187789 1.3129e-18)
(0.404837 -0.0156977 0)
(0.402903 -0.0127498 -6.51456e-19)
(0.401335 -0.00990649 0)
(0.400169 -0.00714429 0)
(0.399431 -0.00444278 -3.2373e-19)
(0.39914 -0.00178391 0)
(0.399313 0.000848525 0)
(0.399967 0.00346928 3.2371e-19)
(0.401117 0.00609219 0)
(0.402779 0.00873063 0)
(0.404975 0.0113976 6.51532e-19)
(0.407725 0.0141054 0)
(0.411058 0.016869 -1.31394e-18)
(0.415003 0.0197009 0)
(0.419596 0.0226159 1.32766e-18)
(0.424882 0.0256311 0)
(0.430911 0.0287638 0)
(0.437743 0.0320336 0)
(0.445449 0.0354619 0)
(0.454112 0.0390732 2.7553e-18)
(0.463829 0.0428955 0)
(0.474717 0.0469611 -5.60103e-18)
(0.486914 0.0513077 2.8235e-18)
(0.500587 0.0559798 -2.84229e-18)
(0.515933 0.0610296 2.8594e-18)
(0.533197 0.0665205 2.87343e-18)
(0.552667 0.0725284 0)
(0.574733 0.0791475 2.86966e-18)
(0.599781 0.086491 8.5291e-18)
(0.628601 0.0947118 -5.5789e-18)
(0.661335 0.103964 5.40737e-18)
(0.700743 0.114544 5.12568e-18)
(0.743089 0.126467 0)
(0.804922 0.140743 -4.00939e-18)
(0.847574 0.154395 -5.44698e-18)
(0.984288 0.175219 0)
(0.935339 0.0706842 -2.65474e-18)
(0.658642 0.0607135 0)
(0.438516 0.0265911 3.3812e-21)
(0.273482 0.00292023 -4.67074e-21)
(0.208681 -0.0357348 -2.97146e-18)
(0.167064 -0.0443759 -7.34235e-18)
(0.152319 -0.0490829 8.15962e-18)
(0.153854 -0.056943 -2.17949e-18)
(0.168733 -0.0713378 2.29138e-18)
(0.197173 -0.0871678 0)
(0.238117 -0.0987136 5.02384e-21)
(0.286958 -0.101756 0)
(0.335611 -0.0951429 -5.25061e-18)
(0.375378 -0.0819797 2.67117e-18)
(0.401454 -0.0676171 0)
(0.414756 -0.0559899 0)
(0.419628 -0.0479294 -2.70859e-18)
(0.420325 -0.0422286 0)
(0.419294 -0.0375149 2.68763e-18)
(0.41747 -0.0331452 1.33735e-18)
(0.415167 -0.0290378 3.52377e-22)
(0.412595 -0.0252451 -1.3243e-18)
(0.409967 -0.0217586 -1.31775e-18)
(0.407459 -0.0185188 0)
(0.405192 -0.0154649 0)
(0.403244 -0.012553 6.51396e-19)
(0.401666 -0.00975173 0)
(0.400491 -0.00703595 3.24012e-19)
(0.399746 -0.00438418 -3.2354e-19)
(0.399451 -0.00177759 8.08244e-20)
(0.399622 0.000800518 -8.08224e-20)
(0.400276 0.00336522 3.2352e-19)
(0.401428 0.00593055 -3.23992e-19)
(0.403094 0.00850988 6.49413e-19)
(0.405295 0.0111163 -6.51514e-19)
(0.408053 0.0137629 0)
(0.411395 0.016462 0)
(0.415351 0.0192276 0)
(0.419958 0.0220746 -4.32807e-22)
(0.42526 0.0250192 1.33556e-18)
(0.431307 0.0280787 0)
(0.438159 0.0312719 0)
(0.445888 0.03462 0)
(0.454577 0.0381469 0)
(0.464323 0.04188 0)
(0.475244 0.045851 1.39401e-21)
(0.487478 0.0500967 0)
(0.501192 0.0546605 5.68258e-18)
(0.516584 0.0595936 -5.71659e-18)
(0.533901 0.0649579 -2.86896e-18)
(0.553431 0.0708276 0)
(0.575565 0.0772949 0)
(0.600692 0.0844701 -5.67805e-18)
(0.6296 0.0925024 7.48344e-21)
(0.662439 0.101541 -5.38888e-18)
(0.701959 0.111875 5.1035e-18)
(0.744458 0.123501 4.62825e-18)
(0.806369 0.137411 -3.97713e-18)
(0.849293 0.150563 5.40918e-18)
(0.985227 0.170491 1.68686e-18)
(0.939654 0.080532 1.41712e-19)
(0.697468 0.0656126 -1.97334e-18)
(0.494278 0.0292289 -3.75524e-18)
(0.333754 0.000440904 -1.1181e-21)
(0.257467 -0.0389641 2.97046e-18)
(0.205299 -0.0481159 3.66621e-18)
(0.181254 -0.0523762 -2.03753e-18)
(0.17629 -0.0603824 0)
(0.185624 -0.0751151 0)
(0.208713 -0.0914114 2.37579e-18)
(0.244797 -0.103374 2.47222e-18)
(0.289935 -0.106503 0)
(0.336446 -0.0993943 2.61298e-18)
(0.375452 -0.0851897 0)
(0.401569 -0.0696024 0)
(0.41514 -0.056963 0)
(0.420195 -0.0482716 0)
(0.42093 -0.0422554 2.6964e-18)
(0.419853 -0.0373951 1.34242e-18)
(0.417969 -0.0329456 -1.33612e-18)
(0.415618 -0.0287881 3.33655e-22)
(0.413012 -0.0249698 0)
(0.410357 -0.0214804 1.31751e-18)
(0.407827 -0.0182559 0)
(0.405543 -0.0152299 0)
(0.40358 -0.0123544 6.51e-19)
(0.40199 -0.00959546 -6.49199e-19)
(0.400806 -0.00692648 -3.23992e-19)
(0.400054 -0.00432481 3.23523e-19)
(0.399755 -0.00177085 -1.61621e-19)
(0.399924 0.000752599 1.61617e-19)
(0.400578 0.00326093 -3.23509e-19)
(0.401731 0.00576834 3.23982e-19)
(0.403401 0.00828827 -1.77195e-22)
(0.405608 0.0108337 -6.51128e-19)
(0.408373 0.0134175 0)
(0.411724 0.0160524 0)
(0.415691 0.018752 0)
(0.420311 0.0215306 -2.65384e-18)
(0.425628 0.0244044 -1.33551e-18)
(0.431692 0.0273901 0)
(0.438564 0.0305064 0)
(0.446316 0.0337738 -2.72945e-18)
(0.455029 0.0372158 0)
(0.464804 0.0408592 0)
(0.475757 0.0447349 5.59494e-18)
(0.488027 0.0488789 -2.81864e-18)
(0.501781 0.0533336 -5.67897e-18)
(0.517218 0.0581492 1.84598e-21)
(0.534586 0.0633858 5.73557e-18)
(0.554174 0.0691162 2.86994e-18)
(0.576373 0.0754302 0)
(0.601573 0.0824355 2.83727e-18)
(0.630566 0.0902775 5.57055e-18)
(0.663505 0.0990997 5.38853e-18)
(0.70313 0.109185 -5.10311e-18)
(0.745773 0.120513 -4.628e-18)
(0.807751 0.134052 3.97676e-18)
(0.85092 0.146714 -2.69508e-18)
(0.986097 0.165783 -1.68635e-18)
(0.943311 0.0894213 1.34956e-19)
(0.730512 0.0704218 1.96194e-18)
(0.545557 0.0320609 -7.13451e-21)
(0.391688 -0.00120963 2.63547e-21)
(0.306068 -0.0412742 0)
(0.243897 -0.0510291 0)
(0.21094 -0.0550809 -9.51039e-22)
(0.1996 -0.0633757 0)
(0.203465 -0.0785015 0)
(0.221197 -0.0952846 -5.15139e-21)
(0.252299 -0.107715 0)
(0.293522 -0.111028 0)
(0.337666 -0.103537 2.59758e-18)
(0.37574 -0.0883797 0)
(0.401793 -0.0716094 0)
(0.415579 -0.0579609 0)
(0.420793 -0.0486254 0)
(0.421553 -0.0422814 -5.92608e-22)
(0.420426 -0.0372692 -1.34172e-18)
(0.418476 -0.0327394 2.67085e-18)
(0.416074 -0.0285332 3.14952e-22)
(0.413429 -0.0246903 1.32268e-18)
(0.410746 -0.0211989 0)
(0.408193 -0.0179901 1.31098e-18)
(0.405889 -0.0149924 0)
(0.403911 -0.0121537 -6.50943e-19)
(0.402308 -0.00943765 1.60252e-22)
(0.401115 -0.00681586 0)
(0.400357 -0.00426466 0)
(0.400053 -0.00176367 2.02872e-23)
(0.40022 0.000704793 -2.04881e-23)
(0.400873 0.00315644 1.61665e-19)
(0.402028 0.00560561 0)
(0.403701 0.00806581 -6.49199e-19)
(0.405912 0.01055 6.51111e-19)
(0.408685 0.0130709 0)
(0.412044 0.0156413 -1.31225e-18)
(0.416022 0.0182743 0)
(0.420655 0.0209842 4.12127e-22)
(0.425986 0.0237867 0)
(0.432068 0.0266983 1.34374e-18)
(0.438959 0.0297371 1.35363e-18)
(0.446733 0.0329234 1.04422e-21)
(0.455471 0.03628 -2.7503e-18)
(0.465273 0.0398332 0)
(0.476257 0.043613 -1.32914e-21)
(0.488562 0.0476547 2.81853e-18)
(0.502355 0.0519996 1.6159e-21)
(0.517836 0.0566967 2.85525e-18)
(0.535254 0.0618049 -2.02704e-21)
(0.554897 0.0673948 -2.30016e-21)
(0.577159 0.0735544 0)
(0.602432 0.0803884 0)
(0.631506 0.0880384 0)
(0.664541 0.0966428 0)
(0.704267 0.106477 0)
(0.747047 0.117505 4.60344e-18)
(0.809083 0.130672 0)
(0.852477 0.142855 0)
(0.986919 0.161099 -1.65764e-18)
(0.946489 0.0974742 9.55891e-19)
(0.758483 0.0750715 0)
(0.591815 0.0350671 -9.16709e-21)
(0.446125 -0.00200919 6.38871e-21)
(0.353339 -0.0426056 0)
(0.28219 -0.0530646 1.83421e-18)
(0.241006 -0.0571681 -2.03121e-18)
(0.223563 -0.0659006 0)
(0.222104 -0.0814774 0)
(0.234531 -0.0987674 -2.35617e-18)
(0.260582 -0.111713 0)
(0.297713 -0.115306 0)
(0.339279 -0.107551 -2.58711e-18)
(0.376249 -0.0915358 0)
(0.402131 -0.0736298 -2.67605e-18)
(0.416077 -0.0589796 0)
(0.421421 -0.0489888 0)
(0.422196 -0.0423057 -5.3495e-22)
(0.421011 -0.0371365 0)
(0.418992 -0.0325262 -1.33474e-18)
(0.416533 -0.0282725 1.32856e-18)
(0.413848 -0.0244065 -2.64445e-18)
(0.411134 -0.0209138 1.31608e-18)
(0.408556 -0.0177213 -1.3108e-18)
(0.406232 -0.0147524 0)
(0.404237 -0.011951 -6.50572e-19)
(0.402621 -0.00927823 1.29774e-18)
(0.401418 -0.00670405 0)
(0.400653 -0.00420368 -1.61624e-19)
(0.400344 -0.00175602 8.07726e-20)
(0.400508 0.000657125 -8.07715e-20)
(0.401161 0.00305176 -1.61659e-19)
(0.402317 0.00544239 0)
(0.403993 0.00784255 -6.48839e-19)
(0.40621 0.0102652 6.50744e-19)
(0.408989 0.0127229 0)
(0.412357 0.0152283 1.31221e-18)
(0.416345 0.0177945 0)
(0.42099 0.0204353 1.32621e-18)
(0.426336 0.0231662 0)
(0.432434 0.0260033 -1.3437e-18)
(0.439345 0.0289643 -1.35359e-18)
(0.447139 0.032069 1.01813e-21)
(0.455902 0.0353398 2.7502e-18)
(0.465731 0.0388021 0)
(0.476745 0.0424855 -2.79525e-18)
(0.489084 0.0464243 0)
(0.502915 0.0506587 2.83681e-18)
(0.518439 0.0552366 0)
(0.535905 0.0602153 -2.86448e-18)
(0.555603 0.0656639 -5.73256e-18)
(0.577926 0.0716679 0)
(0.60327 0.0783293 0)
(0.632422 0.085786 0)
(0.66555 0.0941708 2.6814e-18)
(0.705374 0.103752 0)
(0.748284 0.114479 -1.17772e-20)
(0.810373 0.127272 0)
(0.853973 0.138987 2.6473e-18)
(0.987703 0.156439 1.65767e-18)
(0.949332 0.104802 0)
(0.782082 0.0795229 1.80621e-18)
(0.632839 0.0382219 1.86321e-18)
(0.496171 -0.00196741 9.95395e-21)
(0.398298 -0.042947 0)
(0.319559 -0.0542139 -1.83816e-18)
(0.271088 -0.0586304 0)
(0.247954 -0.0679458 2.15126e-18)
(0.241385 -0.0840294 2.24857e-18)
(0.248614 -0.101844 2.34062e-18)
(0.269596 -0.11535 2.42636e-18)
(0.302495 -0.119315 2.50407e-18)
(0.341291 -0.111416 0)
(0.376987 -0.0946439 0)
(0.402588 -0.0756554 2.66949e-18)
(0.416634 -0.0600145 0)
(0.422083 -0.0493598 0)
(0.422859 -0.0423273 -2.68961e-18)
(0.421611 -0.0369963 0)
(0.419517 -0.0323054 -1.33365e-18)
(0.416998 -0.0280058 0)
(0.414269 -0.0241179 1.32177e-18)
(0.411521 -0.0206248 -1.31586e-18)
(0.408916 -0.0174493 0)
(0.40657 -0.0145098 0)
(0.404558 -0.0117462 1.49058e-22)
(0.402929 -0.00911716 -6.48746e-19)
(0.401715 -0.006591 0)
(0.400942 -0.00414185 1.61617e-19)
(0.400629 -0.00174786 8.07303e-20)
(0.40079 0.000609624 -8.07293e-20)
(0.401442 0.00294692 0)
(0.402599 0.0052787 0)
(0.404278 0.00761852 1.63549e-22)
(0.406499 0.00997929 -1.67932e-22)
(0.409285 0.0123736 0)
(0.412661 0.0148137 0)
(0.41666 0.0173126 1.31796e-18)
(0.421317 0.0198841 0)
(0.426677 0.022543 0)
(0.432791 0.0253051 0)
(0.43972 0.028188 0)
(0.447535 0.0312107 2.7271e-18)
(0.456321 0.0343951 2.74794e-18)
(0.466177 0.0377661 0)
(0.477221 0.0413525 0)
(0.489593 0.0451877 2.81405e-18)
(0.503461 0.049311 0)
(0.519027 0.0537689 0)
(0.53654 0.0586174 -2.86047e-18)
(0.556291 0.0639237 2.86506e-18)
(0.578674 0.0697711 0)
(0.604086 0.0762587 0)
(0.633316 0.0835206 0)
(0.666535 0.0916845 -2.68133e-18)
(0.706452 0.101011 2.53133e-18)
(0.749488 0.111436 -9.17214e-18)
(0.811624 0.123853 0)
(0.855415 0.135112 -2.64685e-18)
(0.988456 0.151802 -1.63153e-18)
(0.951948 0.111504 0)
(0.801978 0.083759 -1.80098e-18)
(0.668693 0.041497 0)
(0.541273 -0.0011285 -3.45257e-18)
(0.440221 -0.0423344 0)
(0.355494 -0.0545096 -1.84605e-18)
(0.300852 -0.059482 0)
(0.272555 -0.0695108 -2.14955e-18)
(0.261151 -0.0861503 -2.2449e-18)
(0.26334 -0.104504 -2.33514e-18)
(0.279285 -0.118608 -2.41893e-18)
(0.307852 -0.123036 -2.49496e-18)
(0.343701 -0.115113 0)
(0.37796 -0.0976895 0)
(0.403167 -0.0776772 0)
(0.417254 -0.0610611 0)
(0.422779 -0.0497362 0)
(0.423543 -0.0423451 1.34342e-18)
(0.422224 -0.0368481 0)
(0.42005 -0.0320766 1.33313e-18)
(0.417467 -0.0277326 0)
(0.41469 -0.0238242 1.32092e-18)
(0.411906 -0.0203317 1.31506e-18)
(0.409273 -0.017174 0)
(0.406905 -0.0142644 6.5231e-19)
(0.404875 -0.0115393 6.50313e-19)
(0.403231 -0.00895438 6.48408e-19)
(0.402007 -0.00647667 0)
(0.401226 -0.00407913 -1.61534e-19)