/*--------------------------------*- C++ -*----------------------------------*\
| =========                 |                                                 |
| \\      /  F ield         | OpenFOAM: The Open Source CFD Toolbox           |
|  \\    /   O peration     | Version:  2.4.0                                 |
|   \\  /    A nd           | Web:      www.OpenFOAM.org                      |
|    \\/     M anipulation  |                                                 |
\*---------------------------------------------------------------------------*/
FoamFile
{
    version     2.0;
    format      ascii;
    class       surfaceScalarField;
    location    "50";
    object      phi;
}
// * * * * * * * * * * * * * * * * * * * * * * * * * * * * * * * * * * * * * //

dimensions      [0 3 -1 0 0 0 0];

internalField   nonuniform List<scalar> 
19800
(
0.000192365
2.19519e-09
0.00019236
4.85593e-09
0.000192354
6.49692e-09
0.000192346
7.52545e-09
0.000192338
8.29273e-09
0.000192329
9.00743e-09
0.000192319
9.77589e-09
0.000192308
1.06559e-08
0.000192297
1.16513e-08
0.000192284
1.279e-08
0.00019227
1.4023e-08
0.000192254
1.53961e-08
0.000192238
1.67291e-08
0.00019222
1.80653e-08
0.000192201
1.85222e-08
0.000192183
1.80601e-08
0.000192171
1.22922e-08
0.00019217
8.05108e-10
0.000192219
-4.85371e-08
7.55965e-08
0.000192143
0.0001977
4.43736e-09
0.000197695
9.8906e-09
0.000197688
1.33081e-08
0.00019768
1.54787e-08
0.000197671
1.70866e-08
0.000197661
1.85614e-08
0.000197651
2.01227e-08
0.00019764
2.18948e-08
0.000197628
2.38926e-08
0.000197614
2.61701e-08
0.0001976
2.8643e-08
0.000197584
3.13823e-08
0.000197566
3.40905e-08
0.000197547
3.6832e-08
0.000197528
3.84589e-08
0.000197506
3.93484e-08
0.000197482
3.61008e-08
0.000197447
3.62299e-08
0.000197359
3.93512e-08
1.75126e-07
0.00019726
0.000203182
6.72365e-09
0.000203177
1.50993e-08
0.00020317
2.04343e-08
0.000203161
2.38648e-08
0.000203152
2.63968e-08
0.000203142
2.86816e-08
0.000203131
3.1061e-08
0.000203119
3.37336e-08
0.000203106
3.67311e-08
0.000203092
4.01357e-08
0.000203077
4.38314e-08
0.000203061
4.79149e-08
0.000203043
5.20082e-08
0.000203023
5.62519e-08
0.000203002
5.95439e-08
0.000202979
6.29315e-08
0.00020295
6.47579e-08
0.000202911
7.56542e-08
0.000202849
1.00441e-07
1.9749e-07
0.000202827
0.000208817
9.0563e-09
0.000208811
2.04788e-08
0.000208804
2.78761e-08
0.000208795
3.26938e-08
0.000208785
3.62396e-08
0.000208775
3.93874e-08
0.000208763
4.26086e-08
0.000208751
4.6184e-08
0.000208737
5.01684e-08
0.000208723
5.46711e-08
0.000208707
5.95511e-08
0.00020869
6.49244e-08
0.000208671
7.03741e-08
0.000208652
7.61239e-08
0.00020863
8.12796e-08
0.000208605
8.73314e-08
0.000208576
9.38698e-08
0.000208542
1.10347e-07
0.000208502
1.39673e-07
2.04862e-07
0.000208495
0.000214608
1.14295e-08
0.000214602
2.6018e-08
0.000214594
3.56216e-08
0.000214585
4.19572e-08
0.000214575
4.66147e-08
0.000214563
5.06831e-08
0.000214551
5.47704e-08
0.000214538
5.92452e-08
0.000214524
6.4192e-08
0.000214509
6.97459e-08
0.000214493
7.57454e-08
0.000214475
8.23179e-08
0.000214457
8.90336e-08
0.000214437
9.61721e-08
0.000214415
1.03065e-07
0.000214391
1.11289e-07
0.000214364
1.20955e-07
0.000214335
1.38862e-07
0.000214309
1.65811e-07
2.09298e-07
0.000214305
0.000220559
1.38485e-08
0.000220553
3.17128e-08
0.000220545
4.36636e-08
0.000220536
5.16525e-08
0.000220525
5.75225e-08
0.000220513
6.25717e-08
0.0002205
6.75468e-08
0.000220486
7.29107e-08
0.000220472
7.87831e-08
0.000220456
8.53212e-08
0.00022044
9.23477e-08
0.000220422
9.99877e-08
0.000220403
1.07812e-07
0.000220383
1.16105e-07
0.000220362
1.24371e-07
0.000220339
1.33989e-07
0.000220315
1.45133e-07
0.000220292
1.62036e-07
0.000220273
1.84146e-07
2.12456e-07
0.00022027
0.000226675
1.63061e-08
0.00022667
3.75483e-08
0.000226661
5.19795e-08
0.000226651
6.17546e-08
0.00022664
6.89434e-08
0.000226627
7.50369e-08
0.000226614
8.09225e-08
0.0002266
8.7159e-08
0.000226585
9.39073e-08
0.000226569
1.01342e-07
0.000226552
1.09275e-07
0.000226534
1.1781e-07
0.000226515
1.26523e-07
0.000226496
1.35645e-07
0.000226475
1.44777e-07
0.000226454
1.54949e-07
0.000226433
1.66173e-07
0.000226414
1.807e-07
0.000226401
1.97322e-07
2.14815e-07
0.000226399
0.000232962
1.88119e-08
0.000232956
4.35209e-08
0.000232947
6.05564e-08
0.000232937
7.2249e-08
0.000232925
8.08618e-08
0.000232912
8.80634e-08
0.000232898
9.48783e-08
0.000232883
1.01964e-07
0.000232867
1.09525e-07
0.000232851
1.17751e-07
0.000232834
1.26439e-07
0.000232816
1.35663e-07
0.000232797
1.4499e-07
0.000232778
1.54559e-07
0.000232759
1.63994e-07
0.00023274
1.73938e-07
0.000232722
1.84184e-07
0.000232707
1.95659e-07
0.000232698
2.07016e-07
2.16677e-07
0.000232696
0.000239422
2.13569e-08
0.000239416
4.9614e-08
0.000239407
6.93642e-08
0.000239396
8.30966e-08
0.000239384
9.32389e-08
0.00023937
1.01614e-07
0.000239356
1.09377e-07
0.00023934
1.17282e-07
0.000239324
1.25581e-07
0.000239308
1.34472e-07
0.00023929
1.43742e-07
0.000239273
1.53417e-07
0.000239255
1.63049e-07
0.000239236
1.72657e-07
0.000239219
1.81845e-07
0.000239202
1.90901e-07
0.000239186
1.99447e-07
0.000239174
2.07641e-07
0.000239167
2.143e-07
2.18159e-07
0.000239166
0.000246062
2.39533e-08
0.000246055
5.58272e-08
0.000246046
7.83886e-08
0.000246035
9.42743e-08
0.000246022
1.06045e-07
0.000246008
1.15655e-07
0.000245993
1.24381e-07
0.000245978
1.33069e-07
0.000245961
1.42017e-07
0.000245944
1.51431e-07
0.000245927
1.61088e-07
0.000245909
1.70956e-07
0.000245892
1.80567e-07
0.000245875
1.8981e-07
0.000245858
1.98252e-07
0.000245843
2.05907e-07
0.00024583
2.12308e-07
0.000245821
2.17252e-07
0.000245815
2.19849e-07
2.19296e-07
0.000245814
0.000252885
2.65892e-08
0.000252879
6.21427e-08
0.00025287
8.75949e-08
0.000252858
1.05733e-07
0.000252845
1.19224e-07
0.000252831
1.30129e-07
0.000252815
1.3983e-07
0.000252799
1.49259e-07
0.000252782
1.58759e-07
0.000252765
1.68543e-07
0.000252748
1.78376e-07
0.000252731
1.88168e-07
0.000252714
1.9743e-07
0.000252698
2.05931e-07
0.000252683
2.13204e-07
0.000252669
2.19089e-07
0.000252659
2.23113e-07
0.000252651
2.24973e-07
0.000252647
2.24096e-07
2.20106e-07
0.000252646
0.000259898
2.92801e-08
0.000259892
6.85638e-08
0.000259882
9.69705e-08
0.000259871
1.17444e-07
0.000259857
1.32736e-07
0.000259842
1.44985e-07
0.000259827
1.55667e-07
0.00025981
1.65788e-07
0.000259793
1.75735e-07
0.000259776
1.85722e-07
0.000259759
1.95513e-07
0.000259742
2.04958e-07
0.000259726
2.13556e-07
0.000259711
2.20981e-07
0.000259697
2.26748e-07
0.000259686
2.30618e-07
0.000259677
2.32181e-07
0.00025967
2.31182e-07
0.000259667
2.27339e-07
2.20604e-07
0.000259667
0.000267106
3.20094e-08
0.000267099
7.50713e-08
0.00026709
1.06479e-07
0.000267078
1.29351e-07
0.000267064
1.46511e-07
0.000267049
1.6015e-07
0.000267033
1.71814e-07
0.000267016
1.82573e-07
0.000266999
1.92855e-07
0.000266982
2.02877e-07
0.000266965
2.12405e-07
0.000266948
2.21242e-07
0.000266933
2.28885e-07
0.000266919
2.3495e-07
0.000266907
2.3896e-07
0.000266897
2.40672e-07
0.000266889
2.39788e-07
0.000266884
2.36173e-07
0.000266882
2.29786e-07
2.20815e-07
0.000266882
0.000274513
3.47943e-08
0.000274506
8.16729e-08
0.000274497
1.16112e-07
0.000274485
1.41429e-07
0.000274471
1.60503e-07
0.000274455
1.75559e-07
0.000274439
1.88198e-07
0.000274422
1.99535e-07
0.000274405
2.10036e-07
0.000274388
2.19922e-07
0.000274371
2.2897e-07
0.000274355
2.36953e-07
0.000274341
2.43384e-07
0.000274328
2.47859e-07
0.000274317
2.49936e-07
0.000274308
2.49429e-07
0.000274302
2.46174e-07
0.000274298
2.4018e-07
0.000274296
2.31596e-07
2.20765e-07
0.000274296
0.000282126
3.76125e-08
0.000282119
8.83466e-08
0.000282109
1.25832e-07
0.000282097
1.53618e-07
0.000282083
1.74638e-07
0.000282067
1.91128e-07
0.000282051
2.04726e-07
0.000282034
2.16575e-07
0.000282017
2.27177e-07
0.000282
2.36761e-07
0.000281984
2.45125e-07
0.000281969
2.52032e-07
0.000281955
2.57033e-07
0.000281943
2.59743e-07
0.000281933
2.59781e-07
0.000281926
2.57052e-07
0.00028192
2.51539e-07
0.000281917
2.43386e-07
0.000281916
2.32889e-07
2.20488e-07
0.000281916
0.000289949
4.04832e-08
0.000289943
9.51025e-08
0.000289933
1.35638e-07
0.000289921
1.65894e-07
0.000289906
1.88865e-07
0.000289891
2.06788e-07
0.000289874
2.21315e-07
0.000289857
2.33605e-07
0.00028984
2.44189e-07
0.000289824
2.53311e-07
0.000289808
2.60802e-07
0.000289793
2.66438e-07
0.000289781
2.69831e-07
0.00028977
2.70652e-07
0.000289761
2.686e-07
0.000289754
2.63692e-07
0.00028975
2.56049e-07
0.000289747
2.45943e-07
0.000289746
2.33765e-07
2.2002e-07
0.000289747
0.00029799
4.33777e-08
0.000297983
1.01914e-07
0.000297974
1.4549e-07
0.000297961
1.78201e-07
0.000297947
2.03111e-07
0.000297931
2.22447e-07
0.000297915
2.37864e-07
0.000297898
2.50518e-07
0.000297881
2.60969e-07
0.000297865
2.6948e-07
0.00029785
2.75931e-07
0.000297836
2.80133e-07
0.000297824
2.81782e-07
0.000297814
2.80638e-07
0.000297806
2.76492e-07
0.000297801
2.69478e-07
0.000297797
2.59847e-07
0.000297795
2.47967e-07
0.000297794
2.34306e-07
2.19394e-07
0.000297795
0.000306254
4.63165e-08
0.000306247
1.08792e-07
0.000306237
1.55391e-07
0.000306225
1.9052e-07
0.000306211
2.17329e-07
0.000306195
2.38039e-07
0.000306179
2.54287e-07
0.000306162
2.67222e-07
0.000306146
2.77427e-07
0.00030613
2.8519e-07
0.000306115
2.90456e-07
0.000306102
2.93094e-07
0.000306091
2.92904e-07
0.000306082
2.89757e-07
0.000306075
2.8355e-07
0.00030607
2.74525e-07
0.000306067
2.63046e-07
0.000306065
2.4956e-07
0.000306065
2.34578e-07
2.18645e-07
0.000306066
0.000314747
4.92644e-08
0.00031474
1.15703e-07
0.00031473
1.65299e-07
0.000314718
2.02797e-07
0.000314704
2.3145e-07
0.000314688
2.53473e-07
0.000314672
2.70485e-07
0.000314656
2.83612e-07
0.00031464
2.93462e-07
0.000314625
3.00358e-07
0.000314611
3.04319e-07
0.000314598
3.05297e-07
0.000314588
3.03212e-07
0.00031458
2.9806e-07
0.000314574
2.89853e-07
0.000314569
2.78928e-07
0.000314566
2.6574e-07
0.000314565
2.50799e-07
0.000314565
2.34638e-07
2.17805e-07
0.000314566
0.000323476
5.22443e-08
0.000323469
1.22658e-07
0.000323459
1.75219e-07
0.000323446
2.15019e-07
0.000323432
2.45435e-07
0.000323417
2.68691e-07
0.000323401
2.86377e-07
0.000323385
2.99601e-07
0.00032337
3.08992e-07
0.000323355
3.14914e-07
0.000323342
3.17477e-07
0.000323331
3.1673e-07
0.000323321
3.12727e-07
0.000323314
3.056e-07
0.000323308
2.95474e-07
0.000323304
2.82765e-07
0.000323302
2.68007e-07
0.000323301
2.51746e-07
0.000323301
2.34531e-07
2.16898e-07
0.000323302
0.000332446
5.52151e-08
0.000332439
1.29616e-07
0.000332429
1.85104e-07
0.000332417
2.27132e-07
0.000332403
2.59219e-07
0.000332388
2.83611e-07
0.000332373
3.01873e-07
0.000332357
3.15093e-07
0.000332342
3.23926e-07
0.000332329
3.28787e-07
0.000332316
3.29883e-07
0.000332306
3.27379e-07
0.000332297
3.21466e-07
0.00033229
3.12416e-07
0.000332285
3.00468e-07
0.000332282
2.86102e-07
0.00033228
2.69904e-07
0.000332279
2.52452e-07
0.000332279
2.34292e-07
2.15949e-07
0.00033228
0.000341665
5.82022e-08
0.000341658
1.36585e-07
0.000341649
1.94959e-07
0.000341637
2.39127e-07
0.000341623
2.72774e-07
0.000341609
2.98184e-07
0.000341593
3.16906e-07
0.000341579
3.30016e-07
0.000341564
3.38197e-07
0.000341551
3.41922e-07
0.00034154
3.41506e-07
0.00034153
3.37237e-07
0.000341522
3.29448e-07
0.000341516
3.18549e-07
0.000341511
3.04886e-07
0.000341508
2.88986e-07
0.000341507
2.71479e-07
0.000341506
2.52953e-07
0.000341507
2.33947e-07
2.14973e-07
0.000341508
0.00035114
6.11595e-08
0.000351134
1.43515e-07
0.000351124
2.04728e-07
0.000351112
2.50949e-07
0.000351099
2.86041e-07
0.000351084
3.12342e-07
0.00035107
3.31401e-07
0.000351056
3.44292e-07
0.000351042
3.51731e-07
0.00035103
3.54262e-07
0.000351019
3.52311e-07
0.00035101
3.46296e-07
0.000351003
3.36688e-07
0.000350997
3.24027e-07
0.000350993
3.08763e-07
0.000350991
2.91456e-07
0.00035099
2.72763e-07
0.000350989
2.53273e-07
0.00035099
2.33516e-07
2.13982e-07
0.000350991
0.000360878
6.41163e-08
0.000360871
1.50416e-07
0.000360862
2.14414e-07
0.00036085
2.62589e-07
0.000360837
2.98997e-07
0.000360823
3.26049e-07
0.000360809
3.4531e-07
0.000360796
3.57867e-07
0.000360783
3.64481e-07
0.000360772
3.65771e-07
0.000360762
3.62278e-07
0.000360753
3.54554e-07
0.000360747
3.43199e-07
0.000360742
3.28877e-07
0.000360739
3.12129e-07
0.000360737
2.9354e-07
0.000360736
2.73778e-07
0.000360735
2.53431e-07
0.000360736
2.33007e-07
2.12981e-07
0.000360737
0.000370886
6.70224e-08
0.000370879
1.57231e-07
0.00037087
2.23954e-07
0.000370858
2.7399e-07
0.000370846
3.11587e-07
0.000370833
3.39246e-07
0.000370819
3.58573e-07
0.000370806
3.70685e-07
0.000370795
3.76397e-07
0.000370784
3.76413e-07
0.000370775
3.7139e-07
0.000370767
3.62008e-07
0.000370762
3.48995e-07
0.000370757
3.33118e-07
0.000370754
3.15005e-07
0.000370753
2.95254e-07
0.000370752
2.74539e-07
0.000370752
2.53432e-07
0.000370752
2.32425e-07
2.1197e-07
0.000370754
0.000381171
6.99106e-08
0.000381165
1.63968e-07
0.000381155
2.33347e-07
0.000381144
2.8514e-07
0.000381132
3.23791e-07
0.000381119
3.51909e-07
0.000381107
3.71163e-07
0.000381095
3.82715e-07
0.000381084
3.87452e-07
0.000381074
3.86169e-07
0.000381066
3.79638e-07
0.000381059
3.68665e-07
0.000381054
3.54087e-07
0.00038105
3.36768e-07
0.000381048
3.17407e-07
0.000381047
2.96612e-07
0.000381046
2.7505e-07
0.000381046
2.53279e-07
0.000381047
2.31767e-07
2.10944e-07
0.000381048
0.000391742
7.27274e-08
0.000391735
1.70565e-07
0.000391726
2.42526e-07
0.000391715
2.95978e-07
0.000391704
3.35557e-07
0.000391692
3.6399e-07
0.00039168
3.83034e-07
0.000391669
3.93922e-07
0.000391658
3.97621e-07
0.000391649
3.95025e-07
0.000391642
3.87021e-07
0.000391636
3.74528e-07
0.000391632
3.58488e-07
0.000391629
3.3984e-07
0.000391627
3.19347e-07
0.000391626
2.9762e-07
0.000391626
2.75315e-07
0.000391626
2.52969e-07
0.000391627
2.31025e-07
2.09893e-07
0.000391628
0.000402606
7.5509e-08
0.000402599
1.77035e-07
0.00040259
2.51486e-07
0.00040258
3.0649e-07
0.000402569
3.46865e-07
0.000402557
3.75473e-07
0.000402546
3.94175e-07
0.000402536
4.04296e-07
0.000402526
4.06899e-07
0.000402518
4.02983e-07
0.000402512
3.93545e-07
0.000402507
3.79612e-07
0.000402503
3.62212e-07
0.000402501
3.42349e-07
0.000402499
3.20834e-07
0.000402498
2.98281e-07
0.000402498
2.7533e-07
0.000402499
2.52493e-07
0.0004025
2.3019e-07
2.08806e-07
0.000402501
0.000413771
7.81988e-08
0.000413765
1.83312e-07
0.000413756
2.6016e-07
0.000413746
3.16613e-07
0.000413735
3.57662e-07
0.000413724
3.86314e-07
0.000413714
4.04554e-07
0.000413704
4.13818e-07
0.000413696
4.15279e-07
0.000413689
4.10046e-07
0.000413683
3.99223e-07
0.000413679
3.83932e-07
0.000413676
3.65275e-07
0.000413674
3.44307e-07
0.000413673
3.21878e-07
0.000413672
2.986e-07
0.000413673
2.75092e-07
0.000413673
2.51845e-07
0.000413674
2.29249e-07
2.07667e-07
0.000413675
0.000425246
8.08351e-08
0.00042524
1.8941e-07
0.000425231
2.68541e-07
0.000425221
3.26329e-07
0.000425211
3.6793e-07
0.000425201
3.96502e-07
0.000425191
4.1417e-07
0.000425183
4.22495e-07
0.000425175
4.22776e-07
0.000425169
4.16233e-07
0.000425164
4.04075e-07
0.000425161
3.87509e-07
0.000425158
3.67697e-07
0.000425157
3.45729e-07
0.000425156
3.22488e-07
0.000425156
2.98577e-07
0.000425157
2.74599e-07
0.000425157
2.51015e-07
0.000425159
2.28191e-07
2.06463e-07
0.00042516
0.000437038
8.33595e-08
0.000437033
1.95266e-07
0.000437025
2.76563e-07
0.000437015
3.35575e-07
0.000437006
3.77615e-07
0.000436996
4.05996e-07
0.000436987
4.22998e-07
0.000436979
4.30321e-07
0.000436973
4.29397e-07
0.000436968
4.21563e-07
0.000436963
4.08126e-07
0.000436961
3.90367e-07
0.000436959
3.69498e-07
0.000436958
3.46634e-07
0.000436958
3.22673e-07
0.000436958
2.98219e-07
0.000436959
2.73848e-07
0.00043696
2.49996e-07
0.000436961
2.27002e-07
2.05179e-07
0.000436962
0.000449158
8.58112e-08
0.000449153
2.00893e-07
0.000449145
2.84222e-07
0.000449136
3.44336e-07
0.000449127
3.86702e-07
0.000449119
4.14791e-07
0.00044911
4.31042e-07
0.000449104
4.37311e-07
0.000449098
4.35166e-07
0.000449093
4.26065e-07
0.00044909
4.11406e-07
0.000449088
3.92535e-07
0.000449087
3.70704e-07
0.000449086
3.47039e-07
0.000449086
3.22448e-07
0.000449087
2.97531e-07
0.000449088
2.72839e-07
0.000449089
2.48783e-07
0.000449091
2.25675e-07
2.03802e-07
0.000449092
0.000461614
8.81306e-08
0.000461609
2.06233e-07
0.000461602
2.91457e-07
0.000461594
3.52553e-07
0.000461585
3.95138e-07
0.000461577
4.22847e-07
0.00046157
4.38285e-07
0.000461564
4.43464e-07
0.000461559
4.401e-07
0.000461555
4.29765e-07
0.000461553
4.13946e-07
0.000461551
3.94045e-07
0.00046155
3.7134e-07
0.000461551
3.46964e-07
0.000461551
3.21828e-07
0.000461552
2.96522e-07
0.000461553
2.71576e-07
0.000461555
2.47372e-07
0.000461556
2.24201e-07
2.02321e-07
0.000461558
0.000474416
9.03582e-08
0.000474411
2.11301e-07
0.000474404
2.98267e-07
0.000474396
3.60214e-07
0.000474389
4.02913e-07
0.000474381
4.30162e-07
0.000474375
4.44732e-07
0.00047437
4.488e-07
0.000474365
4.44226e-07
0.000474363
4.32697e-07
0.000474361
4.15782e-07
0.00047436
3.94928e-07
0.00047436
3.71435e-07
0.00047436
3.46435e-07
0.000474361
3.20828e-07
0.000474363
2.95203e-07
0.000474364
2.70062e-07
0.000474366
2.45766e-07
0.000474367
2.22576e-07
2.0073e-07
0.000474369
0.000487572
9.24334e-08
0.000487568
2.16041e-07
0.000487561
3.04595e-07
0.000487554
3.67265e-07
0.000487547
4.0998e-07
0.000487541
4.36702e-07
0.000487535
4.5037e-07
0.000487531
4.53323e-07
0.000487527
4.47564e-07
0.000487525
4.34891e-07
0.000487524
4.16946e-07
0.000487524
3.95219e-07
0.000487524
3.7102e-07
0.000487525
3.45473e-07
0.000487526
3.19469e-07
0.000487528
2.93588e-07
0.00048753
2.68308e-07
0.000487531
2.43966e-07
0.000487533
2.208e-07
1.99023e-07
0.000487535
0.000501094
9.43985e-08
0.000501089
2.20468e-07
0.000501084
3.10445e-07
0.000501077
3.73704e-07
0.000501071
4.16336e-07
0.000501065
4.4247e-07
0.00050106
4.55208e-07
0.000501056
4.57052e-07
0.000501054
4.50142e-07
0.000501052
4.36379e-07
0.000501052
4.17475e-07
0.000501052
3.94951e-07
0.000501053
3.70124e-07
0.000501054
3.44105e-07
0.000501056
3.17771e-07
0.000501058
2.91692e-07
0.00050106
2.66324e-07
0.000501062
2.41979e-07
0.000501064
2.18874e-07
1.97199e-07
0.000501066
0.00051499
9.61919e-08
0.000514986
2.24529e-07
0.000514981
3.15765e-07
0.000514975
3.79484e-07
0.000514969
4.21943e-07
0.000514964
4.47438e-07
0.00051496
4.59237e-07
0.000514957
4.59993e-07
0.000514956
4.51977e-07
0.000514955
4.37189e-07
0.000514955
4.17399e-07
0.000514956
3.94155e-07
0.000514957
3.68774e-07
0.000514959
3.42356e-07
0.000514961
3.15754e-07
0.000514963
2.89532e-07
0.000514965
2.64121e-07
0.000514967
2.39813e-07
0.000514969
2.16803e-07
1.95259e-07
0.000514971
0.000529272
9.78581e-08
0.000529268
2.28242e-07
0.000529263
3.20564e-07
0.000529258
3.84609e-07
0.000529253
4.26804e-07
0.000529249
4.51615e-07
0.000529246
4.62469e-07
0.000529244
4.62166e-07
0.000529243
4.53097e-07
0.000529243
4.37352e-07
0.000529243
4.1675e-07
0.000529244
3.92861e-07
0.000529246
3.67001e-07
0.000529248
3.40248e-07
0.000529251
3.13438e-07
0.000529253
2.87123e-07
0.000529255
2.61713e-07
0.000529258
2.37477e-07
0.00052926
2.14593e-07
1.93205e-07
0.000529262
0.00054395
9.93356e-08
0.000543946
2.31554e-07
0.000543942
3.24797e-07
0.000543938
3.89041e-07
0.000543934
4.30892e-07
0.00054393
4.54985e-07
0.000543928
4.64901e-07
0.000543926
4.63578e-07
0.000543926
4.53519e-07
0.000543926
4.3689e-07
0.000543928
4.15555e-07
0.000543929
3.91098e-07
0.000543931
3.64829e-07
0.000543934
3.37807e-07
0.000543937
3.10844e-07
0.000543939
2.84484e-07
0.000543942
2.59112e-07
0.000543944
2.34981e-07
0.000543947
2.1225e-07
1.91041e-07
0.000543949
0.000559034
1.00671e-07
0.000559032
2.34488e-07
0.000559028
3.28475e-07
0.000559024
3.92792e-07
0.000559021
4.3422e-07
0.000559018
4.57563e-07
0.000559017
4.66552e-07
0.000559016
4.64253e-07
0.000559016
4.53268e-07
0.000559017
4.35831e-07
0.000559019
4.13842e-07
0.000559021
3.88892e-07
0.000559024
3.62283e-07
0.000559026
3.35052e-07
0.000559029
3.0799e-07
0.000559032
2.81628e-07
0.000559035
2.56333e-07
0.000559038
2.32337e-07
0.00055904
2.09782e-07
1.88774e-07
0.000559042
0.000574538
1.01803e-07
0.000574535
2.36995e-07
0.000574532
3.3156e-07
0.000574529
3.95833e-07
0.000574526
4.36769e-07
0.000574525
4.59341e-07
0.000574524
4.67424e-07
0.000574524
4.642e-07
0.000574525
4.52361e-07
0.000574526
4.34196e-07
0.000574529
4.11632e-07
0.000574531
3.86264e-07
0.000574534
3.59383e-07
0.000574537
3.32004e-07
0.00057454
3.04893e-07
0.000574543
2.78572e-07
0.000574546
2.53387e-07
0.000574549
2.29554e-07
0.000574552
2.07198e-07
1.86408e-07
0.000574554
0.000590471
1.02783e-07
0.000590469
2.39099e-07
0.000590466
3.34068e-07
0.000590464
3.9818e-07
0.000590462
4.3856e-07
0.000590461
4.60342e-07
0.000590461
4.6754e-07
0.000590462
4.63446e-07
0.000590463
4.50824e-07
0.000590465
4.32009e-07
0.000590468
4.08949e-07
0.000590471
3.83239e-07
0.000590474
3.56151e-07
0.000590478
3.2868e-07
0.000590481
3.01568e-07
0.000590484
2.75329e-07
0.000590487
2.50286e-07
0.00059049
2.26642e-07
0.000590493
2.04505e-07
1.83949e-07
0.000590495
0.000606846
1.03549e-07
0.000606844
2.40758e-07
0.000606842
3.35967e-07
0.00060684
3.99814e-07
0.000606839
4.39582e-07
0.000606839
4.60567e-07
0.00060684
4.66912e-07
0.000606841
4.62004e-07
0.000606843
4.48674e-07
0.000606846
4.29291e-07
0.000606849
4.05815e-07
0.000606853
3.79832e-07
0.000606856
3.52603e-07
0.00060686
3.25095e-07
0.000606863
2.98029e-07
0.000606867
2.71909e-07
0.00060687
2.4704e-07
0.000606873
2.23608e-07
0.000606876
2.01711e-07
1.81404e-07
0.000606878
0.000623675
1.04153e-07
0.000623673
2.41999e-07
0.000623672
3.37281e-07
0.000623671
4.00756e-07
0.000623671
4.39862e-07
0.000623671
4.60045e-07
0.000623673
4.65567e-07
0.000623675
4.59903e-07
0.000623677
4.45938e-07
0.000623681
4.26066e-07
0.000623684
4.02249e-07
0.000623688
3.76066e-07
0.000623692
3.48756e-07
0.000623696
3.21264e-07
0.000623699
2.94289e-07
0.000623703
2.68324e-07
0.000623706
2.43658e-07
0.00062371
2.20462e-07
0.000623712
1.98821e-07
1.78778e-07
0.000623715
0.00064097
1.04539e-07
0.000640969
2.4279e-07
0.000640969
3.37984e-07
0.000640968
4.00994e-07
0.000640969
4.39399e-07
0.00064097
4.58783e-07
0.000640972
4.63521e-07
0.000640975
4.57163e-07
0.000640978
4.42636e-07
0.000640982
4.22352e-07
0.000640986
3.9827e-07
0.00064099
3.71956e-07
0.000640994
3.44625e-07
0.000640998
3.172e-07
0.000641002
2.90357e-07
0.000641006
2.64584e-07
0.000641009
2.40148e-07
0.000641013
2.1721e-07
0.000641016
1.95842e-07
1.76076e-07
0.000641018
0.000658746
1.04762e-07
0.000658745
2.4316e-07
0.000658745
3.38104e-07
0.000658746
4.00556e-07
0.000658747
4.38222e-07
0.000658749
4.56814e-07
0.000658751
4.60806e-07
0.000658755
4.53813e-07
0.000658759
4.38796e-07
0.000658763
4.18174e-07
0.000658767
3.939e-07
0.000658772
3.67518e-07
0.000658776
3.40224e-07
0.00065878
3.12914e-07
0.000658784
2.86245e-07
0.000658788
2.60695e-07
0.000658792
2.36518e-07
0.000658795
2.13858e-07
0.000658798
1.9278e-07
1.73302e-07
0.000658801
0.000677014
1.04766e-07
0.000677014
2.43082e-07
0.000677014
3.37624e-07
0.000677015
3.99437e-07
0.000677017
4.36337e-07
0.00067702
4.54152e-07
0.000677023
4.57441e-07
0.000677027
4.49876e-07
0.000677032
4.3444e-07
0.000677036
4.13554e-07
0.000677041
3.89155e-07
0.000677046
3.6277e-07
0.00067705
3.35567e-07
0.000677055
3.08418e-07
0.000677059
2.81961e-07
0.000677063
2.56666e-07
0.000677067
2.32771e-07
0.00067707
2.10411e-07
0.000677074
1.89638e-07
1.70461e-07
0.000677076
0.000695789
1.04612e-07
0.000695789
2.42592e-07
0.00069579
3.36578e-07
0.000695792
3.97669e-07
0.000695795
4.33778e-07
0.000695798
4.5083e-07
0.000695802
4.53461e-07
0.000695806
4.45383e-07
0.000695811
4.29595e-07
0.000695816
4.08514e-07
0.000695821
3.84058e-07
0.000695826
3.57727e-07
0.000695831
3.30666e-07
0.000695836
3.03722e-07
0.00069584
2.77513e-07
0.000695845
2.52503e-07
0.000695848
2.28916e-07
0.000695852
2.06873e-07
0.000695855
1.8642e-07
1.67556e-07
0.000695858
0.000715084
1.04245e-07
0.000715085
2.41668e-07
0.000715087
3.34956e-07
0.000715089
3.95256e-07
0.000715092
4.30558e-07
0.000715096
4.4687e-07
0.000715101
4.48889e-07
0.000715106
4.40359e-07
0.000715111
4.24288e-07
0.000715117
4.03078e-07
0.000715122
3.78626e-07
0.000715127
3.52406e-07
0.000715133
3.25535e-07
0.000715137
2.98837e-07
0.000715142
2.72911e-07
0.000715146
2.48214e-07
0.00071515
2.24956e-07
0.000715154
2.0325e-07
0.000715157
1.83131e-07
1.6459e-07
0.00071516
0.000734915
1.03728e-07
0.000734916
2.40349e-07
0.000734918
3.32797e-07
0.000734921
3.92233e-07
0.000734925
4.26711e-07
0.00073493
4.42305e-07
0.000734935
4.43758e-07
0.00073494
4.34836e-07
0.000734946
4.18545e-07
0.000734952
3.97268e-07
0.000734958
3.7288e-07
0.000734963
3.46822e-07
0.000734969
3.20187e-07
0.000734974
2.93773e-07
0.000734978
2.68161e-07
0.000734983
2.43804e-07
0.000734987
2.20897e-07
0.000734991
1.99544e-07
0.000734994
1.79773e-07
1.61566e-07
0.000734997
0.000755295
1.03006e-07
0.000755297
2.38619e-07
0.0007553
3.30097e-07
0.000755303
3.88611e-07
0.000755308
4.22257e-07
0.000755313
4.37161e-07
0.000755319
4.38096e-07
0.000755325
4.2884e-07
0.000755331
4.1239e-07
0.000755337
3.91107e-07
0.000755343
3.66837e-07
0.000755349
3.40992e-07
0.000755354
3.14636e-07
0.00075536
2.88542e-07
0.000755364
2.63275e-07
0.000755369
2.39281e-07
0.000755373
2.16746e-07
0.000755377
1.95762e-07
0.00075538
1.76351e-07
1.58488e-07
0.000755383
0.000776241
1.02146e-07
0.000776243
2.36519e-07
0.000776246
3.26898e-07
0.000776251
3.84429e-07
0.000776256
4.17235e-07
0.000776261
4.31472e-07
0.000776267
4.31936e-07
0.000776274
4.22402e-07
0.00077628
4.0585e-07
0.000776287
3.84619e-07
0.000776293
3.60517e-07
0.000776299
3.34931e-07
0.000776305
3.08893e-07
0.00077631
2.83153e-07
0.000776315
2.58258e-07
0.00077632
2.34652e-07
0.000776324
2.12506e-07
0.000776328
1.91907e-07
0.000776332
1.72868e-07
1.55358e-07
0.000776335
0.000797768
1.01093e-07
0.00079777
2.34039e-07
0.000797774
3.23203e-07
0.000797778
3.79702e-07
0.000797784
4.11666e-07
0.00079779
4.25267e-07
0.000797797
4.25306e-07
0.000797804
4.15549e-07
0.000797811
3.98954e-07
0.000797817
3.77825e-07
0.000797824
3.53942e-07
0.00079783
3.28657e-07
0.000797836
3.02973e-07
0.000797842
2.77618e-07
0.000797847
2.53121e-07
0.000797852
2.29923e-07
0.000797856
2.08184e-07
0.00079786
1.87983e-07
0.000797863
1.69328e-07
1.5218e-07
0.000797867
0.000819891
9.99163e-08
0.000819894
2.31223e-07
0.000819898
3.19056e-07
0.000819903
3.74473e-07
0.000819909
4.05591e-07
0.000819916
4.18583e-07
0.000819923
4.18241e-07
0.00081993
4.08313e-07
0.000819938
3.91725e-07
0.000819945
3.7075e-07
0.000819951
3.4713e-07
0.000819958
3.22185e-07
0.000819964
2.96889e-07
0.00081997
2.71947e-07
0.000819975
2.47872e-07
0.00081998
2.25101e-07
0.000819984
2.03785e-07
0.000819988
1.83996e-07
0.000819992
1.65734e-07
1.48956e-07
0.000819995
0.000842628
9.85596e-08
0.000842631
2.28062e-07
0.000842636
3.14466e-07
0.000842642
3.68761e-07
0.000842648
3.99036e-07
0.000842655
4.11449e-07
0.000842663
4.10771e-07
0.00084267
4.00721e-07
0.000842678
3.8419e-07
0.000842685
3.63415e-07
0.000842692
3.40101e-07
0.000842699
3.15531e-07
0.000842705
2.90655e-07
0.000842711
2.66153e-07
0.000842716
2.42522e-07
0.000842721
2.20196e-07
0.000842726
1.99317e-07
0.00084273
1.7995e-07
0.000842733
1.62092e-07
1.45691e-07
0.000842737
0.000865996
9.70973e-08
0.000865999
2.24602e-07
0.000866004
3.09478e-07
0.00086601
3.62611e-07
0.000866017
3.92042e-07
0.000866025
4.03902e-07
0.000866033
4.02928e-07
0.000866041
3.92802e-07
0.000866048
3.76377e-07
0.000866056
3.55843e-07
0.000866063
3.32872e-07
0.00086607
3.08713e-07
0.000866076
2.84285e-07
0.000866082
2.60246e-07
0.000866088
2.37079e-07
0.000866093
2.15213e-07
0.000866097
1.94785e-07
0.000866101
1.75851e-07
0.000866105
1.58404e-07
1.42386e-07
0.000866108
0.000890011
9.54714e-08
0.000890015
2.2084e-07
0.00089002
3.04104e-07
0.000890027
3.56044e-07
0.000890034
3.84639e-07
0.000890042
3.95974e-07
0.00089005
3.94745e-07
0.000890059
3.84588e-07
0.000890067
3.68308e-07
0.000890074
3.48058e-07
0.000890082
3.25465e-07
0.000890089
3.01746e-07
0.000890095
2.77792e-07
0.000890101
2.54238e-07
0.000890107
2.31553e-07
0.000890112
2.10163e-07
0.000890116
1.90197e-07
0.000890121
1.71705e-07
0.000890124
1.54676e-07
1.39048e-07
0.000890128
0.000914693
9.37607e-08
0.000914697
2.16822e-07
0.000914702
2.9839e-07
0.000914709
3.49105e-07
0.000914717
3.76867e-07
0.000914725
3.87703e-07
0.000914734
3.86254e-07
0.000914742
3.76105e-07
0.000914751
3.60013e-07
0.000914759
3.40081e-07
0.000914766
3.17898e-07
0.000914773
2.94646e-07
0.00091478
2.71189e-07
0.000914786
2.4814e-07
0.000914792
2.25953e-07
0.000914797
2.05052e-07
0.000914801
1.85558e-07
0.000914805
1.67516e-07
0.000914809
1.50911e-07
1.35678e-07
0.000914813
0.000940059
9.19061e-08
0.000940063
2.12549e-07
0.000940069
2.92352e-07
0.000940076
3.4182e-07
0.000940084
3.68757e-07
0.000940093
3.7912e-07
0.000940102
3.77487e-07
0.00094011
3.67383e-07
0.000940119
3.51514e-07
0.000940127
3.31934e-07
0.000940135
3.10191e-07
0.000940142
2.87431e-07
0.000940149
2.64492e-07
0.000940155
2.41965e-07
0.00094016
2.20291e-07
0.000940166
1.9989e-07
0.00094017
1.80877e-07
0.000940174
1.63293e-07
0.000940178
1.47117e-07
1.32282e-07
0.000940182
0.000966128
8.99887e-08
0.000966132
2.08064e-07
0.000966139
2.86034e-07
0.000966146
3.34231e-07
0.000966155
3.6035e-07
0.000966164
3.70262e-07
0.000966173
3.68475e-07
0.000966182
3.58453e-07
0.00096619
3.42838e-07
0.000966199
3.2364e-07
0.000966206
3.02361e-07
0.000966214
2.80116e-07
0.00096622
2.57713e-07
0.000966227
2.35724e-07
0.000966232
2.14575e-07
0.000966238
1.94685e-07
0.000966242
1.7616e-07
0.000966247
1.59039e-07
0.00096625
1.43297e-07
1.28864e-07
0.000966254
0.00099292
8.79484e-08
0.000992925
2.03372e-07
0.000992932
2.79456e-07
0.000992939
3.26367e-07
0.000992948
3.51676e-07
0.000992957
3.61162e-07
0.000992966
3.59253e-07
0.000992975
3.49339e-07
0.000992984
3.34011e-07
0.000992993
3.1522e-07
0.000993001
2.94429e-07
0.000993008
2.72718e-07
0.000993015
2.50867e-07
0.000993021
2.2943e-07
0.000993027
2.08818e-07
0.000993032
1.89447e-07
0.000993037
1.71417e-07
0.000993041
1.54763e-07
0.000993045
1.39458e-07
1.25429e-07
0.000993048
0.00102046
8.58653e-08
0.00102046
1.98512e-07
0.00102047
2.72658e-07
0.00102048
3.18266e-07
0.00102048
3.42774e-07