/*--------------------------------*- C++ -*----------------------------------*\
| =========                 |                                                 |
| \\      /  F ield         | OpenFOAM: The Open Source CFD Toolbox           |
|  \\    /   O peration     | Version:  2.4.0                                 |
|   \\  /    A nd           | Web:      www.OpenFOAM.org                      |
|    \\/     M anipulation  |                                                 |
\*---------------------------------------------------------------------------*/
FoamFile
{
    version     2.0;
    format      ascii;
    class       surfaceScalarField;
    location    "5.44";
    object      phi;
}
// * * * * * * * * * * * * * * * * * * * * * * * * * * * * * * * * * * * * * //

dimensions      [0 3 -1 0 0 0 0];

internalField   nonuniform List<scalar> 
11840
(
7.83515e-07
9.21648e-06
-9.36212e-07
1.71973e-06
6.58474e-07
-1.59469e-06
1.46163e-07
5.12311e-07
-2.05557e-07
3.5172e-07
-3.0557e-07
1.00013e-07
-4.11969e-07
1.06398e-07
-5.07969e-07
9.6e-08
-6.9336e-07
1.85391e-07
-8.47027e-07
1.53667e-07
-1.07281e-06
2.25781e-07
-1.24245e-06
1.69639e-07
-1.42324e-06
1.80794e-07
-1.55755e-06
1.34308e-07
-1.71092e-06
1.53365e-07
-1.89142e-06
1.80507e-07
-2.12972e-06
2.38294e-07
-2.39867e-06
2.68956e-07
-2.66941e-06
2.70742e-07
-2.91323e-06
2.43817e-07
-3.12553e-06
2.12296e-07
-3.31104e-06
1.85508e-07
-3.47501e-06
1.63976e-07
-3.61747e-06
1.42455e-07
-3.73804e-06
1.20574e-07
-3.83566e-06
9.76192e-08
-3.90913e-06
7.347e-08
-3.95675e-06
4.76185e-08
-3.97597e-06
1.92186e-08
-3.96452e-06
-1.14484e-08
-3.92246e-06
-4.2059e-08
-3.84936e-06
-7.31031e-08
-3.74376e-06
-1.05594e-07
-3.60433e-06
-1.39432e-07
-3.43001e-06
-1.74318e-07
-3.21973e-06
-2.10285e-07
-2.97313e-06
-2.46593e-07
-2.6894e-06
-2.83732e-07
-2.36961e-06
-3.19788e-07
-2.01267e-06
-3.56941e-07
-1.62265e-06
-3.90025e-07
-1.19662e-06
-4.2603e-07
-7.44245e-07
-4.52374e-07
-2.59003e-07
-4.85242e-07
2.39593e-07
-4.98596e-07
7.67606e-07
-5.28014e-07
1.28788e-06
-5.20271e-07
1.84871e-06
-5.60834e-07
2.36245e-06
-5.13736e-07
2.9469e-06
-5.8445e-07
3.41028e-06
-4.63383e-07
4.02574e-06
-6.15465e-07
4.37407e-06
-3.48324e-07
5.06265e-06
-6.88577e-07
5.19731e-06
-1.34667e-07
6.04614e-06
-8.48823e-07
5.81634e-06
2.29797e-07
7.02285e-06
-1.20651e-06
6.34398e-06
6.7887e-07
-2.37386e-06
2.45139e-06
1.67651e-05
-5.06839e-07
4.67796e-06
3.68247e-07
-2.46977e-06
-8.67314e-08
9.6729e-07
-3.12339e-07
5.77328e-07
-4.69281e-07
2.56955e-07
-5.7289e-07
2.10007e-07
-6.91653e-07
2.14763e-07
-8.79244e-07
3.72982e-07
-1.05429e-06
3.2871e-07
-1.26845e-06
4.3994e-07
-1.44607e-06
3.47265e-07
-1.61472e-06
3.49442e-07
-1.75949e-06
2.79082e-07
-1.92157e-06
3.15438e-07
-2.11899e-06
3.77927e-07
-2.36054e-06
4.79848e-07
-2.6194e-06
5.27819e-07
-2.86783e-06
5.19171e-07
-3.0903e-06
4.66283e-07
-3.28702e-06
4.09017e-07
-3.46077e-06
3.59256e-07
-3.61286e-06
3.16073e-07
-3.74287e-06
2.72462e-07
-3.8501e-06
2.27807e-07
-3.93345e-06
1.80966e-07
-3.9917e-06
1.31715e-07
-4.02349e-06
7.94143e-08
-4.02792e-06
2.36437e-08
-4.00407e-06
-3.52977e-08
-3.95005e-06
-9.60749e-08
-3.86399e-06
-1.5916e-07
-3.74448e-06
-2.25108e-07
-3.59021e-06
-2.93702e-07
-3.40011e-06
-3.64421e-07
-3.17326e-06
-4.3713e-07
-2.90918e-06
-5.10678e-07
-2.60752e-06
-5.85392e-07
-2.26871e-06
-6.58595e-07
-1.89316e-06
-7.32495e-07
-1.48265e-06
-8.0053e-07
-1.03853e-06
-8.70157e-07
-5.64216e-07
-9.26683e-07
-6.26229e-08
-9.86834e-07
4.60233e-07
-1.02145e-06
1.00363e-06
-1.07141e-06
1.55718e-06
-1.07383e-06
2.12536e-06
-1.12902e-06
2.68646e-06
-1.07484e-06
3.26072e-06
-1.15871e-06
3.7998e-06
-1.00246e-06
4.36763e-06
-1.1833e-06
4.84723e-06
-8.27918e-07
5.41488e-06
-1.25623e-06
5.7805e-06
-5.0028e-07
6.39941e-06
-1.46774e-06
6.56773e-06
6.14756e-08
7.35916e-06
-1.99793e-06
7.33305e-06
7.04973e-07
-3.86685e-06
3.60691e-06
2.31582e-05
1.72573e-08
8.26761e-06
5.85193e-08
-2.51103e-06
-3.04797e-07
1.33061e-06
-3.68537e-07
6.41069e-07
-5.34487e-07
4.22905e-07
-6.25443e-07
3.00963e-07
-7.52199e-07
3.41519e-07
-9.23425e-07
5.44208e-07
-1.10244e-06
5.07728e-07
-1.30067e-06
6.38163e-07
-1.4795e-06
5.26104e-07
-1.64361e-06
5.13551e-07
-1.79324e-06
4.28712e-07
-1.95538e-06
4.7758e-07
-2.14939e-06
5.71936e-07
-2.37895e-06
7.09404e-07
-2.62262e-06
7.71487e-07
-2.85656e-06
7.53116e-07
-3.0686e-06
6.7832e-07
-3.25776e-06
5.98182e-07
-3.42516e-06
5.26655e-07
-3.57113e-06
4.62037e-07
-3.6952e-06
3.96539e-07
-3.79661e-06
3.29217e-07
-3.87426e-06
2.58607e-07
-3.92693e-06
1.84387e-07
-3.95341e-06
1.05892e-07
-3.95258e-06
2.28138e-08
-3.92325e-06
-6.46207e-08
-3.86364e-06
-1.55686e-07
-3.77201e-06
-2.50793e-07
-3.64698e-06
-3.50135e-07
-3.48729e-06
-4.53396e-07
-3.29185e-06
-5.59857e-07
-3.05981e-06
-6.6917e-07
-2.79064e-06
-7.7985e-07
-2.48412e-06
-8.91912e-07
-2.14054e-06
-1.00218e-06
-1.76061e-06
-1.11242e-06
-1.34567e-06
-1.21547e-06
-8.97879e-07
-1.31795e-06
-4.19503e-07
-1.40506e-06
8.50387e-08
-1.49138e-06
6.12686e-07
-1.5491e-06
1.15897e-06
-1.61769e-06
1.71915e-06
-1.63401e-06
2.28813e-06
-1.698e-06
2.85891e-06
-1.64561e-06
3.42885e-06
-1.72865e-06
3.98544e-06
-1.55905e-06
4.53678e-06
-1.73464e-06
5.05297e-06
-1.3441e-06
5.57547e-06
-1.77874e-06
6.02149e-06
-9.463e-07
6.52891e-06
-1.97516e-06
6.8712e-06
-2.80818e-07
7.41899e-06
-2.54572e-06
7.72611e-06
3.97855e-07
-4.85857e-06
4.52843e-06
2.86298e-05
7.56514e-07
1.20395e-05
-2.33611e-07
-1.52091e-06
-4.60401e-07
1.5574e-06
-3.99062e-07
5.79729e-07
-5.65822e-07
5.89665e-07
-6.46383e-07
3.81524e-07
-7.76719e-07
4.71854e-07
-9.34144e-07
7.01633e-07
-1.1117e-06
6.85281e-07
-1.29945e-06
8.25914e-07
-1.47732e-06
7.03971e-07
-1.63995e-06
6.76186e-07
-1.79225e-06
5.81008e-07
-1.95359e-06
6.38917e-07
-2.14216e-06
7.60511e-07
-2.36031e-06
9.2755e-07
-2.59092e-06
1.0021e-06
-2.81347e-06
9.75663e-07
-3.01708e-06
8.81939e-07
-3.19967e-06
7.80768e-07
-3.36129e-06
6.88271e-07
-3.50179e-06
6.02537e-07
-3.62067e-06
5.15424e-07
-3.71711e-06
4.2565e-07
-3.78999e-06
3.3149e-07
-3.83813e-06
2.32535e-07
-3.86034e-06
1.28095e-07
-3.85541e-06
1.78889e-08
-3.82202e-06
-9.80172e-08
-3.75845e-06
-2.19252e-07
-3.66309e-06
-3.4615e-07
-3.53458e-06
-4.78653e-07
-3.37164e-06
-6.16329e-07
-3.17322e-06
-7.58277e-07
-2.93847e-06
-9.03918e-07
-2.66686e-06
-1.05146e-06
-2.35821e-06
-1.20056e-06
-2.01275e-06
-1.34763e-06
-1.63133e-06
-1.49385e-06
-1.2151e-06
-1.6317e-06
-7.66481e-07
-1.76657e-06
-2.87423e-07
-1.88412e-06
2.17452e-07
-1.99625e-06
7.45854e-07
-2.0775e-06
1.29226e-06
-2.1641e-06
1.85344e-06
-2.19519e-06
2.42148e-06
-2.26604e-06
2.99382e-06
-2.21795e-06
3.56073e-06
-2.29556e-06
4.1212e-06
-2.11951e-06
4.66494e-06
-2.27838e-06
5.19161e-06
-1.87077e-06
5.69565e-06
-2.28278e-06
6.16895e-06
-1.4196e-06
6.631e-06
-2.4372e-06
7.03964e-06
-6.89453e-07
7.48406e-06
-2.99015e-06
7.92442e-06
-4.25007e-08
-5.60683e-06
5.30454e-06
3.33252e-05
1.49053e-06
1.58535e-05
-2.59688e-07
2.29305e-07
-5.5158e-07
1.84929e-06
-4.19559e-07
4.47708e-07
-5.82279e-07
7.52385e-07
-6.54681e-07
4.53926e-07
-7.85229e-07
6.02403e-07
-9.31683e-07
8.48087e-07
-1.10509e-06
8.58688e-07
-1.28492e-06
1.00575e-06
-1.4609e-06
8.79948e-07
-1.62284e-06
8.38125e-07
-1.77669e-06
7.34863e-07
-1.93668e-06
7.98909e-07
-2.11925e-06
9.43083e-07
-2.32654e-06
1.13484e-06
-2.54513e-06
1.22069e-06
-2.75735e-06
1.18789e-06
-2.9531e-06
1.07769e-06
-3.12933e-06
9.56994e-07
-3.2853e-06
8.44244e-07
-3.42054e-06
7.37775e-07
-3.53447e-06
6.29354e-07
-3.62621e-06
5.17389e-07
-3.69466e-06
3.9994e-07
-3.73864e-06
2.7652e-07
-3.75696e-06
1.46406e-07
-3.74836e-06
9.29455e-09
-3.71145e-06
-1.34926e-07
-3.6446e-06
-2.86107e-07
-3.54625e-06
-4.44499e-07
-3.41504e-06
-6.0986e-07
-3.24973e-06
-7.81638e-07
-3.04926e-06
-9.58752e-07
-2.81279e-06
-1.14039e-06
-2.53977e-06
-1.32447e-06
-2.23007e-06
-1.51027e-06
-1.88388e-06
-1.69382e-06
-1.50209e-06
-1.87564e-06
-1.08581e-06
-2.04798e-06
-6.37502e-07
-2.21488e-06
-1.59037e-07
-2.36258e-06
3.45058e-07
-2.50035e-06
8.7266e-07
-2.6051e-06
1.41789e-06
-2.70933e-06
1.97799e-06
-2.75529e-06
2.54406e-06
-2.8321e-06
3.11519e-06
-2.78909e-06
3.67892e-06
-2.85929e-06
4.23887e-06
-2.67946e-06
4.7772e-06
-2.81671e-06
5.30612e-06
-2.3997e-06
5.79975e-06
-2.77641e-06
6.28297e-06
-1.90282e-06
6.72207e-06
-2.8763e-06
7.15872e-06
-1.1261e-06
7.55316e-06
-3.38459e-06
8.04822e-06
-5.37565e-07
-6.22004e-06
5.97544e-06
3.73498e-05
2.24005e-06
1.95889e-05
-6.29502e-08
2.53231e-06
-5.83094e-07
2.36943e-06
-4.36567e-07
3.01181e-07
-5.90191e-07
9.06009e-07
-6.55954e-07
5.19689e-07
-7.84623e-07
7.31072e-07
-9.21709e-07
9.85172e-07
-1.08974e-06
1.02672e-06
-1.26274e-06
1.17875e-06
-1.43635e-06
1.05355e-06
-1.59767e-06
9.99445e-07
-1.75237e-06
8.89563e-07
-1.91061e-06
9.57148e-07
-2.08696e-06
1.11944e-06
-2.28378e-06
1.33166e-06
-2.49092e-06
1.42782e-06
-2.69328e-06
1.39025e-06
-2.88132e-06
1.26573e-06
-3.05119e-06
1.12687e-06
-3.20152e-06
9.94575e-07
-3.33154e-06
8.67793e-07
-3.44058e-06
7.38399e-07
-3.52773e-06
6.04536e-07
-3.59188e-06
4.64085e-07
-3.63185e-06
3.16492e-07
-3.64643e-06
1.60993e-07
-3.63437e-06
-2.76909e-09
-3.59423e-06
-1.7507e-07
-3.52442e-06
-3.55912e-07
-3.42346e-06
-5.45463e-07
-3.28998e-06
-7.43338e-07
-3.12275e-06
-9.48864e-07
-2.92072e-06
-1.16079e-06
-2.68305e-06
-1.37806e-06
-2.40921e-06
-1.59832e-06
-2.09904e-06
-1.82044e-06
-1.75276e-06
-2.0401e-06
-1.37124e-06
-2.25716e-06
-9.55582e-07
-2.46364e-06
-5.08247e-07
-2.66221e-06
-3.10785e-08
-2.83975e-06
4.71552e-07
-3.00298e-06
9.97485e-07
-3.13104e-06
1.54072e-06
-3.25257e-06
2.09866e-06
-3.31322e-06
2.66201e-06
-3.39545e-06
3.23059e-06
-3.35767e-06
3.79073e-06
-3.41944e-06
4.34823e-06
-3.23696e-06
4.88166e-06
-3.35014e-06
5.40942e-06
-2.92746e-06
5.89548e-06
-3.26247e-06
6.38161e-06
-2.38894e-06
6.80649e-06
-3.30118e-06
7.25567e-06
-1.57528e-06
7.62178e-06
-3.75071e-06
8.13936e-06
-1.05514e-06
-6.74495e-06
6.5607e-06
4.07891e-05
2.97395e-06
2.31757e-05
2.30146e-07
5.27612e-06
-5.36379e-07
3.13596e-06
-4.51328e-07
2.1613e-07
-5.92175e-07
1.04686e-06
-6.52293e-07
5.79807e-07
-7.77886e-07
8.56666e-07
-9.0649e-07
1.11378e-06
-1.06854e-06
1.18877e-06
-1.23518e-06
1.34539e-06
-1.40606e-06
1.22444e-06
-1.5666e-06
1.15998e-06
-1.7216e-06
1.04456e-06
-1.87777e-06
1.11332e-06
-2.04785e-06
1.28951e-06
-2.23452e-06
1.51834e-06
-2.43057e-06
1.62387e-06
-2.62328e-06
1.58295e-06
-2.8036e-06
1.44606e-06
-2.96704e-06
1.29031e-06
-3.11166e-06
1.13919e-06
-3.23643e-06
9.92557e-07
-3.34058e-06
8.42548e-07
-3.42314e-06
6.87101e-07
-3.48301e-06
5.23955e-07
-3.51902e-06
3.52497e-07
-3.52995e-06
1.7192e-07
-3.51451e-06
-1.82062e-08
-3.47128e-06
-2.18304e-07
-3.39871e-06
-4.2848e-07
-3.29535e-06
-6.48825e-07
-3.15984e-06
-8.78839e-07
-2.99098e-06
-1.11773e-06
-2.7877e-06
-1.36407e-06
-2.54918e-06
-1.61658e-06
-2.27487e-06
-1.87262e-06
-1.96464e-06
-2.13067e-06
-1.61867e-06
-2.38607e-06
-1.23787e-06
-2.63796e-06
-8.23287e-07
-2.87822e-06
-3.77379e-07
-3.10812e-06
9.80076e-08
-3.31514e-06
5.98673e-07
-3.50364e-06
1.12234e-06
-3.6547e-06
1.66299e-06
-3.79323e-06
2.21804e-06
-3.86827e-06
2.77812e-06
-3.95553e-06
3.3433e-06
-3.92285e-06
3.89945e-06
-3.97559e-06
4.45338e-06
-3.79088e-06
4.98195e-06
-3.87871e-06
5.50677e-06
-3.45228e-06
5.98642e-06
-3.74212e-06
6.472e-06
-2.87453e-06
6.88667e-06
-3.71585e-06
7.34091e-06
-2.02952e-06
7.68886e-06
-4.09866e-06
8.21369e-06
-1.57997e-06
-7.20509e-06
7.07175e-06
4.37173e-05
3.68653e-06
2.65609e-05
6.53559e-07
8.30909e-06
-4.06567e-07
4.19608e-06
-4.59966e-07
2.69529e-07
-5.89309e-07
1.1762e-06
-6.44578e-07
6.35077e-07
-7.66472e-07
9.7856e-07
-8.87126e-07
1.23443e-06
-1.04286e-06
1.34451e-06
-1.20333e-06
1.50586e-06
-1.37118e-06
1.39228e-06
-1.53065e-06
1.31945e-06
-1.68548e-06
1.1994e-06
-1.83934e-06
1.26718e-06
-2.00315e-06
1.45332e-06
-2.17998e-06
1.69517e-06
-2.36522e-06
1.80911e-06
-2.54837e-06
1.76609e-06
-2.72089e-06
1.61858e-06
-2.87777e-06
1.44719e-06
-3.01657e-06
1.27799e-06
-3.136e-06
1.11199e-06
-3.2352e-06
9.41743e-07
-3.31314e-06
7.65044e-07
-3.36871e-06
5.79529e-07
-3.40075e-06
3.84531e-07
-3.40803e-06
1.79199e-07
-3.38925e-06
-3.69796e-08
-3.343e-06
-2.64554e-07
-3.26778e-06
-5.03704e-07
-3.16215e-06
-7.54453e-07
-3.02479e-06
-1.0162e-06
-2.85447e-06
-1.28804e-06
-2.65015e-06
-1.56839e-06
-2.41102e-06
-1.85571e-06
-2.13651e-06
-2.14712e-06
-1.8265e-06
-2.44068e-06
-1.48116e-06
-2.73141e-06
-1.10139e-06
-3.01773e-06
-6.88245e-07
-3.29136e-06
-2.44121e-07
-3.55224e-06
2.29108e-07
-3.78837e-06
7.27393e-07
-4.00193e-06
1.24832e-06
-4.17563e-06
1.78591e-06
-4.33082e-06
2.33753e-06
-4.41989e-06
2.89386e-06
-4.51186e-06
3.45504e-06
-4.48402e-06
4.00681e-06
-4.52737e-06
4.55642e-06
-4.3405e-06
5.07999e-06
-4.40228e-06
5.60077e-06
-3.97306e-06
6.07448e-06
-4.21583e-06
6.55754e-06
-3.35759e-06
6.96403e-06
-4.12234e-06
7.41922e-06
-2.48472e-06
7.75426e-06
-4.4337e-06
8.27829e-06
-2.10399e-06
-7.61391e-06
7.51719e-06
4.62001e-05
4.37149e-06
2.97066e-05
1.18016e-06
1.15004e-05
-2.07645e-07
5.58389e-06
-4.53094e-07
5.14978e-07
-5.81651e-07
1.30476e-06
-6.33131e-07
6.86557e-07
-7.51107e-07
1.09654e-06
-8.64186e-07
1.34751e-06
-1.01344e-06
1.49376e-06
-1.16778e-06
1.6602e-06
-1.33227e-06
1.55677e-06
-1.49034e-06
1.47752e-06
-1.64459e-06
1.35365e-06
-1.79593e-06
1.41852e-06
-1.95354e-06
1.61093e-06
-2.12081e-06
1.86243e-06
-2.29547e-06
1.98378e-06
-2.46909e-06
1.93971e-06
-2.6337e-06
1.7832e-06
-2.78386e-06
1.59735e-06
-2.9167e-06
1.41083e-06
-3.03069e-06
1.22597e-06
-3.12484e-06
1.03589e-06
-3.19809e-06
8.38295e-07
-3.24931e-06
6.30749e-07
-3.27733e-06
4.1255e-07
-3.28094e-06
1.82805e-07
-3.25882e-06
-5.909e-08
-3.20959e-06
-3.1379e-07
-3.13177e-06
-5.81526e-07
-3.02395e-06
-8.62266e-07
-2.88483e-06
-1.15533e-06
-2.71319e-06
-1.45968e-06
-2.50799e-06
-1.77359e-06
-2.26842e-06
-2.09529e-06
-1.99392e-06
-2.42162e-06
-1.68435e-06
-2.75024e-06
-1.3399e-06
-3.07587e-06
-9.61434e-07
-3.3962e-06
-5.5001e-07
-3.70279e-06
-1.07973e-07
-3.99428e-06
3.62775e-07
-4.25912e-06
8.58317e-07
-4.49747e-06
1.37611e-06
-4.69342e-06
1.91022e-06
-4.86493e-06
2.45796e-06
-4.96764e-06
3.01013e-06
-5.06403e-06
3.56681e-06
-5.0407e-06
4.11384e-06
-5.07439e-06
4.65858e-06
-4.88523e-06
5.17691e-06
-4.92061e-06
5.69291e-06
-4.48906e-06
6.16084e-06
-4.68375e-06
6.64011e-06
-3.83686e-06
7.03951e-06
-4.52174e-06
7.49314e-06
-2.93835e-06
7.81816e-06
-4.75871e-06
8.33675e-06
-2.62258e-06
-7.97993e-06
7.90472e-06
4.82954e-05
5.02296e-06
3.25884e-05
1.77298e-06
1.47504e-05
5.74754e-08
7.29939e-06
-4.20666e-07
9.9312e-07
-5.68234e-07
1.45232e-06
-6.17917e-07
7.36239e-07
-7.32109e-07
1.21073e-06
-8.37945e-07
1.45335e-06
-9.80643e-07
1.63646e-06
-1.12882e-06
1.80837e-06
-1.28964e-06
1.7176e-06
-1.44595e-06
1.63383e-06
-1.59923e-06
1.50692e-06
-1.74788e-06
1.56717e-06
-1.89939e-06
1.76245e-06
-2.05736e-06
2.02041e-06
-2.22166e-06
2.14808e-06
-2.38576e-06
2.10381e-06
-2.54232e-06
1.93976e-06
-2.6856e-06
1.74062e-06
-2.81233e-06
1.53756e-06
-2.92074e-06
1.33438e-06
-3.00973e-06
1.12489e-06
-3.07819e-06
9.06759e-07
-3.12498e-06
6.77536e-07
-3.14892e-06
4.3649e-07
-3.14881e-06
1.82688e-07
-3.12333e-06
-8.45633e-08
-3.07111e-06
-3.66012e-07
-2.99071e-06
-6.61924e-07
-2.88076e-06
-9.7222e-07
-2.73994e-06
-1.29614e-06
-2.56707e-06
-1.63255e-06
-2.36111e-06
-1.97955e-06
-2.12124e-06
-2.33515e-06
-1.84692e-06
-2.69595e-06
-1.53799e-06
-3.05917e-06
-1.19463e-06
-3.41923e-06
-8.1771e-07
-3.77312e-06
-4.08265e-07
-4.11223e-06
3.14145e-08
-4.43396e-06
4.9939e-07
-4.72709e-06
9.91857e-07
-4.98994e-06
1.50615e-06
-5.20771e-06
2.03642e-06
-5.39519e-06
2.57989e-06
-5.51111e-06
3.12752e-06
-5.61166e-06
3.67928e-06
-5.59247e-06
4.22121e-06
-5.61632e-06
4.76061e-06
-5.42463e-06
5.27345e-06
-5.43345e-06
5.7841e-06
-4.99971e-06
6.24622e-06
-5.14588e-06
6.72083e-06
-4.31147e-06
7.11372e-06
-4.91462e-06
7.56414e-06
-3.38877e-06
7.88078e-06
-5.07535e-06
8.39109e-06
-3.1329e-06
-8.30897e-06
8.24129e-06
5.00541e-05
5.63632e-06
3.51933e-05
2.41034e-06
1.79764e-05
4.34412e-07
9.27532e-06
-3.52013e-07
1.77954e-06
-5.46701e-07
1.64701e-06
-5.98564e-07
7.88102e-07
-7.09505e-07
1.32167e-06
-8.08478e-07
1.55232e-06
-9.44645e-07
1.77263e-06
-1.08659e-06
1.95032e-06
-1.24344e-06
1.87445e-06
-1.39761e-06
1.78799e-06
-1.54954e-06
1.65886e-06
-1.69534e-06
1.71297e-06
-1.84087e-06
1.90798e-06
-1.98984e-06
2.16938e-06
-2.14397e-06
2.3022e-06
-2.29855e-06
2.25839e-06
-2.44693e-06
2.08813e-06
-2.58314e-06
1.87683e-06
-2.70359e-06
1.65801e-06
-2.80628e-06
1.43708e-06
-2.88999e-06
1.2086e-06
-2.95356e-06
9.70326e-07
-2.99582e-06
7.19796e-07
-3.0156e-06
4.5627e-07
-3.0117e-06
1.78785e-07
-2.98282e-06
-1.13444e-07
-2.92759e-06
-4.21241e-07
-2.84461e-06
-7.44897e-07
-2.73254e-06
-1.08429e-06
-2.59008e-06
-1.4386e-06
-2.41605e-06
-1.80659e-06
-2.20941e-06
-2.18619e-06
-1.96937e-06
-2.5752e-06
-1.69536e-06
-2.96995e-06
-1.38724e-06
-3.36729e-06
-1.04517e-06
-3.7613e-06
-6.69997e-07
-4.14829e-06
-2.62764e-07
-4.51946e-06
1.74304e-07
-4.87103e-06
6.39232e-07
-5.19202e-06
1.12831e-06
-5.47901e-06
1.63878e-06
-5.71818e-06
2.16485e-06
-5.92126e-06
2.70369e-06
-6.04995e-06
3.24641e-06
-6.15439e-06
3.79288e-06
-6.13894e-06
4.32936e-06
-6.1528e-06
4.86302e-06
-5.9583e-06
5.3701e-06
-5.94052e-06
5.87492e-06
-5.50454e-06
6.33113e-06
-5.60209e-06
6.80042e-06
-4.78076e-06
7.18708e-06
-5.30128e-06
7.63314e-06
-3.83483e-06
7.94233e-06
-5.38454e-06
8.44256e-06
-3.63313e-06
-8.60525e-06
8.53313e-06
5.1521e-05
6.2083e-06
3.75182e-05
3.07002e-06
2.11147e-05
8.67744e-07
1.14776e-05
-2.21019e-07
2.86831e-06
-5.12356e-07
1.93835e-06
-5.74258e-07
8.50004e-07
-6.83077e-07
1.43049e-06
-7.75704e-07
1.64495e-06
-9.05462e-07
1.90238e-06
-1.0411e-06
2.08595e-06
-1.1937e-06
2.02705e-06
-1.34533e-06
1.93963e-06
-1.49557e-06
1.80909e-06
-1.63838e-06
1.85578e-06
-1.77806e-06
2.04766e-06
-1.91831e-06
2.30962e-06
-2.06247e-06
2.44636e-06
-2.20754e-06
2.40347e-06
-2.34759e-06
2.22818e-06
-2.47656e-06
2.0058e-06
-2.59056e-06
1.77201e-06
-2.68738e-06
1.5339e-06
-2.76568e-06
1.2869e-06
-2.82423e-06
1.02888e-06
-2.86185e-06
7.57422e-07
-2.87738e-06
4.71798e-07
-2.86962e-06
1.71017e-07
-2.83727e-06
-1.4579e-07
-2.779e-06
-4.79514e-07
-2.69343e-06
-8.30461e-07
-2.57925e-06
-1.19848e-06
-2.43517e-06
-1.58268e-06
-2.26002e-06
-1.98173e-06
-2.05279e-06
-2.39342e-06
-1.81267e-06
-2.81532e-06
-1.53911e-06
-3.24352e-06
-1.23194e-06
-3.67445e-06
-8.91329e-07
-4.10192e-06
-5.18112e-07
-4.52151e-06
-1.13309e-07
-4.92427e-06
3.20904e-07
-5.30524e-06
7.82518e-07
-5.65363e-06
1.26791e-06
-5.9644e-06
1.77424e-06
-6.22451e-06
2.29577e-06
-6.44279e-06
2.82964e-06
-6.58381e-06
3.36712e-06
-6.69186e-06
3.90794e-06
-6.67976e-06
4.43863e-06
-6.6835e-06
4.96619e-06
-6.48585e-06
5.4672e-06
-6.44153e-06
5.96581e-06
-6.00315e-06
6.41593e-06
-6.05221e-06
6.87937e-06
-5.2442e-06
7.25992e-06
-5.68183e-06
7.70074e-06
-4.27566e-06
8.003e-06
-5.68679e-06
8.49193e-06
-4.12206e-06
-8.87196e-06
8.78578e-06
5.27352e-05
6.73692e-06
3.9567e-05
3.73598e-06
2.41156e-05
1.3618e-06
1.38518e-05
-6.97263e-09
4.23708e-06
-4.56627e-07
2.388e-06
-5.43492e-07
9.36869e-07
-6.52337e-07
1.53933e-06
-7.39381e-07
1.73199e-06
-8.62986e-07
2.02599e-06
-9.92289e-07
2.21526e-06
-1.14036e-06
2.17512e-06
-1.28908e-06
2.08835e-06
-1.43727e-06
1.95728e-06
-1.57696e-06
1.99547e-06
-1.71094e-06
2.18165e-06
-1.84275e-06
2.44144e-06
-1.97715e-06
2.58075e-06
-2.11274e-06
2.53906e-06
-2.24434e-06
2.35979e-06
-2.36589e-06
2.12734e-06
-2.47327e-06
1.87939e-06
-2.56406e-06
1.62469e-06
-2.6368e-06
1.35964e-06
-2.6902e-06
1.08228e-06
-2.72308e-06
7.90299e-07
-2.73426e-06
4.82973e-07
-2.72254e-06
1.593e-07
-2.68666e-06
-1.81668e-07
-2.6253e-06
-5.40877e-07
-2.53712e-06
-9.18643e-07
-2.42081e-06
-1.31479e-06
-2.27512e-06
-1.72837e-06
-2.09891e-06
-2.15795e-06
-1.89114e-06
-2.60119e-06
-1.65103e-06
-3.05543e-06
-1.37803e-06
-3.51653e-06
-1.07196e-06
-3.98052e-06
-7.32972e-07
-4.44091e-06
-3.61894e-07
-4.89258e-06
4.02652e-08
-5.32643e-06
4.71385e-07
-5.73636e-06
9.29426e-07
-6.11167e-06
1.41084e-06
-6.44582e-06
1.91271e-06
-6.72639e-06
2.4294e-06
-6.95948e-06
2.95796e-06
-7.11237e-06
3.48985e-06
-7.22376e-06
4.02468e-06
-7.21459e-06
4.54927e-06
-7.20808e-06
5.07037e-06
-7.00695e-06
5.56502e-06
-6.93619e-06
6.05704e-06
-6.49517e-06
6.50088e-06
-6.49604e-06
6.95803e-06
-5.70136e-06
7.33245e-06
-6.05625e-06
7.76738e-06
-4.71059e-06
8.06295e-06
-5.98236e-06
8.53978e-06
-4.5989e-06
-9.11162e-06
9.00426e-06
5.3731e-05
7.22146e-06
4.13498e-05
4.39608e-06
2.6941e-05
1.90619e-06
1.63417e-05
2.37602e-07
5.90567e-06
-3.65943e-07
2.99155e-06
-5.0363e-07
1.07456e-06
-6.16456e-07
1.65216e-06
-6.99102e-07
1.81464e-06
-8.16982e-07
2.14387e-06
-9.3998e-07
2.33826e-06
-1.08329e-06
2.31842e-06
-1.22873e-06
2.23379e-06
-1.37454e-06
2.10309e-06
-1.51099e-06
2.13192e-06
-1.63942e-06
2.31007e-06
-1.76309e-06
2.56511e-06
-1.88795e-06
2.70561e-06
-2.01408e-06
2.66519e-06
-2.13712e-06
2.48283e-06
-2.25109e-06
2.24131e-06
-2.35168e-06
1.97998e-06
-2.43628e-06
1.70929e-06
-2.50332e-06
1.42668e-06
-2.55145e-06
1.13041e-06
-2.57946e-06
8.1831e-07
-2.58618e-06
4.8969e-07
-2.57042e-06
1.43543e-07
-2.53094e-06
-2.21153e-07
-2.46643e-06
-6.05386e-07
-2.37559e-06
-1.00948e-06
-2.25715e-06
-1.43323e-06
-2.10986e-06
-1.87565e-06
-1.9326e-06
-2.33521e-06
-1.72436e-06
-2.80943e-06
-1.48434e-06
-3.29544e-06
-1.212e-06
-3.78887e-06
-9.0716e-07
-4.28535e-06
-5.69959e-07
-4.77811e-06
-2.01202e-07
-5.26134e-06
1.98107e-07
-5.72574e-06
6.25899e-07
-6.16415e-06
1.08011e-06
-6.56589e-06
1.55726e-06
-6.92296e-06
2.05438e-06
-7.22351e-06
2.5659e-06
-7.47099e-06
3.08883e-06
-7.63531e-06
3.61481e-06
-7.74974e-06
4.14331e-06
-7.74309e-06
4.66145e-06
-7.72623e-06
5.17577e-06
-7.52126e-06
5.66376e-06
-7.42418e-06
6.14886e-06
-6.98026e-06
6.58617e-06
-6.93335e-06
7.03665e-06
-6.15185e-06
7.40486e-06
-6.42446e-06
7.83335e-06
-5.13907e-06
8.1223e-06
-6.27131e-06
8.58649e-06
-5.06309e-06
-9.3263e-06
9.19306e-06
5.45379e-05
7.6622e-06
4.28807e-05
5.04077e-06
2.95624e-05
2.49198e-06
1.88905e-05
5.75416e-07
7.82222e-06
-2.27614e-07
3.79458e-06
-4.50383e-07
1.29733e-06
-5.74121e-07
1.7759e-06
-6.54247e-07
1.89476e-06
-7.67084e-07
2.25671e-06
-8.83914e-07
2.45509e-06
-1.02229e-06
2.4568e-06
-1.16412e-06
2.37562e-06
-1.30723e-06
2.24621e-06
-1.44033e-06
2.26502e-06
-1.56336e-06
2.4331e-06
-1.67919e-06
2.68094e-06
-1.79473e-06
2.82115e-06
-1.91147e-06
2.78193e-06
-2.02586e-06
2.59722e-06
-2.1321e-06
2.34754e-06
-2.22573e-06
2.07362e-06
-2.30399e-06
1.78755e-06
-2.36518e-06
1.48786e-06
-2.4079e-06
1.17314e-06
-2.43093e-06
8.41333e-07
-2.43308e-06
4.9184e-07
-2.41319e-06
1.23651e-07
-2.37002e-06
-2.64321e-07
-2.3023e-06
-6.73101e-07
-2.20877e-06
-1.10301e-06
-2.08817e-06
-1.55383e-06
-1.93928e-06
-2.02454e-06
-1.761e-06
-2.51349e-06
-1.55233e-06
-3.0181e-06
-1.31248e-06
-3.53529e-06
-1.0409e-06
-4.06046e-06
-7.37419e-07
-4.58883e-06
-4.02158e-07
-5.11337e-06
-3.59034e-08
-5.62759e-06
3.60351e-07
-6.12199e-06
7.84579e-07
-6.58838e-06
1.2347e-06
-7.01601e-06
1.7073e-06
-7.39556e-06
2.19937e-06
-7.71558e-06
2.70541e-06
-7.97703e-06
3.22239e-06
-8.15229e-06
3.74213e-06
-8.26948e-06
4.26398e-06
-8.26494e-06
4.77535e-06
-8.2376e-06
5.28254e-06
-8.02846e-06
5.76358e-06
-7.90522e-06
6.24143e-06
-7.45811e-06
6.67196e-06
-7.36389e-06
7.11543e-06
-6.59531e-06
7.47729e-06
-6.78632e-06
7.89887e-06
-5.56065e-06
8.18117e-06
-6.55361e-06
8.63234e-06
-5.51425e-06
-9.51769e-06
9.35625e-06
5.51816e-05
8.06025e-06
4.41767e-05
5.66245e-06
3.19602e-05
3.1088e-06
2.14441e-05
9.93184e-07
9.93784e-06
-3.88775e-08
4.82664e-06
-3.77455e-07
1.6359e-06
-5.23308e-07
1.92175e-06
-6.03926e-07
1.97538e-06
-7.12761e-07
2.36554e-06
-8.23726e-07
2.56605e-06
-9.57088e-07
2.59016e-06
-1.095e-06
2.51352e-06
-1.23513e-06
2.38634e-06
-1.36477e-06
2.39465e-06
-1.48255e-06
2.55088e-06
-1.59085e-06
2.78923e-06
-1.69734e-06
2.92765e-06
-1.80475e-06
2.88934e-06
-1.91044e-06
2.70291e-06
-2.0088e-06
2.4459e-06
-2.09533e-06
2.16015e-06
-2.1671e-06
1.85932e-06
-2.22229e-06
1.54306e-06
-2.25948e-06
1.21032e-06
-2.27739e-06
8.59248e-07
-2.27487e-06
4.89316e-07
-2.25074e-06
9.95297e-08
-2.20381e-06
-3.11255e-07
-2.13283e-06
-7.44086e-07
-2.03655e-06
-1.19929e-06
-1.91376e-06
-1.67662e-06
-1.76328e-06
-2.17502e-06
-1.584e-06
-2.69277e-06
-1.37494e-06
-3.22716e-06
-1.13533e-06
-3.7749e-06
-8.64612e-07
-4.33118e-06
-5.62614e-07
-4.89083e-06
-2.29447e-07
-5.44653e-06
1.34128e-07
-5.99117e-06
5.27122e-07
-6.51498e-06
9.47551e-07
-7.00881e-06
1.39333e-06
-7.46179e-06
1.86109e-06
-7.86332e-06
2.34781e-06
-8.2023e-06
2.84806e-06
-8.47727e-06
3.35877e-06
-8.66301e-06
3.87194e-06
-8.78264e-06
4.3868e-06
-8.7798e-06
4.89108e-06
-8.74187e-06
5.39083e-06
-8.52821e-06
5.86459e-06
-8.37898e-06
6.33488e-06
-7.9284e-06
6.75838e-06
-7.78739e-06
7.19451e-06
-7.03144e-06
7.54984e-06
-7.14165e-06
7.96412e-06
-5.97493e-06
8.23966e-06
-6.82915e-06
8.67756e-06
-5.95215e-06
-9.68724e-06
9.49748e-06
5.56842e-05
8.41739e-06
4.52568e-05
6.2551e-06
3.41225e-05
3.7459e-06
2.39533e-05
1.48183e-06
1.22019e-05
2.31564e-07
6.0769e-06
-2.76577e-07
2.14404e-06
-4.60926e-07
2.1061e-06
-5.46879e-07
2.06133e-06
-6.53282e-07
2.47195e-06
-7.58925e-07
2.67169e-06
-8.87306e-07
2.71854e-06
-1.02107e-06
2.64728e-06
-1.15796e-06
2.52324e-06
-1.28405e-06
2.52074e-06
-1.39675e-06
2.66359e-06
-1.49782e-06
2.89031e-06
-1.59553e-06
3.02536e-06
-1.69375e-06
2.98755e-06
-1.79068e-06
2.79985e-06
-1.88106e-06
2.53628e-06
-1.96034e-06
2.23943e-06
-2.02547e-06
1.92445e-06
-2.07454e-06
1.59213e-06
-2.10605e-06
1.24183e-06
-2.11874e-06
8.71938e-07
-2.11143e-06
4.82011e-07
-2.08299e-06
7.10844e-08
-2.03221e-06
-3.62032e-07
-1.95789e-06
-8.18404e-07
-1.85883e-06
-1.29835e-06
-1.73383e-06
-1.80162e-06
-1.58174e-06
-2.32711e-06
-1.40148e-06
-2.87303e-06
-1.19208e-06
-3.43656e-06
-9.52775e-07
-4.0142e-06
-6.83014e-07
-4.60094e-06
-3.82624e-07
-5.19122e-06
-5.17025e-08
-5.77746e-06
3.09013e-07
-6.35189e-06
6.98538e-07
-6.90451e-06
1.11493e-06
-7.4252e-06
1.55611e-06
-7.90297e-06
2.01875e-06
-8.32596e-06
2.49982e-06
-8.68337e-06
2.99395e-06
-8.97141e-06
3.49809e-06
-9.16714e-06
4.00434e-06
-9.28889e-06
4.5119e-06
-9.28735e-06
5.00874e-06
-9.23872e-06
5.50074e-06
-9.0202e-06
5.96691e-06
-8.84516e-06
6.42933e-06
-8.39082e-06
6.84553e-06
-8.20359e-06
7.274e-06
-7.45991e-06
7.62261e-06
-7.49026e-06
8.02923e-06
-6.38155e-06
8.29785e-06
-7.09777e-06
8.72231e-06
-6.37662e-06
-9.8362e-06
9.62e-06
5.60642e-05
8.73591e-06
4.61409e-05
6.81414e-06
3.60443e-05
4.3928e-06
2.63747e-05
2.02869e-06
1.4566e-05
5.63045e-07
7.54255e-06
-1.33523e-07
2.84061e-06
-3.8233e-07
2.3549e-06
-4.81331e-07
2.16033e-06
-5.87655e-07
2.57827e-06
-6.88865e-07
2.7729e-06
-8.12469e-07
2.84215e-06
-9.41943e-07
2.77676e-06
-1.07538e-06
2.65668e-06
-1.19786e-06
2.64321e-06
-1.30564e-06
2.77137e-06
-1.39982e-06
2.98448e-06
-1.48905e-06
3.11459e-06
-1.5782e-06
3.0767e-06
-1.66638e-06
2.88803e-06
-1.74869e-06
2.61858e-06
-1.82059e-06
2.31134e-06
-1.87895e-06
1.9828e-06
-1.92176e-06
1.63495e-06
-1.94749e-06
1.26756e-06
-1.95484e-06
8.7929e-07
-1.94265e-06
4.69822e-07
-1.90979e-06
3.82242e-08
-1.85509e-06
-4.16732e-07
-1.77738e-06
-8.96118e-07
-1.67548e-06
-1.40025e-06
-1.54825e-06
-1.92885e-06
-1.39454e-06
-2.48082e-06
-1.21331e-06
-3.05426e-06
-1.00361e-06
-3.64626e-06
-7.64688e-07
-4.25313e-06
-4.95985e-07
-4.86964e-06
-1.97327e-07
-5.48988e-06
1.31196e-07
-6.10598e-06
4.8887e-07
-6.70956e-06
8.74716e-07
-7.29036e-06
1.28684e-06
-7.83732e-06
1.72315e-06
-8.33928e-06
2.18039e-06
-8.7832e-06
2.6555e-06
-9.15848e-06
3.14321e-06
-9.45911e-06
3.64043e-06
-9.66436e-06
4.13945e-06
-9.78792e-06
4.63936e-06
-9.78726e-06
5.12844e-06
-9.7278e-06
5.61235e-06
-9.50411e-06
6.07063e-06
-9.30343e-06
6.52487e-06
-8.84506e-06
6.93348e-06
-8.61219e-06
7.354e-06
-7.88044e-06
7.69566e-06
-7.83191e-06
8.0943e-06
-6.78019e-06
8.35581e-06
-7.35928e-06
8.76674e-06
-6.78755e-06
-9.96565e-06
9.72668e-06
5.63375e-05
9.01849e-06
4.6849e-05
7.33626e-06
3.77265e-05
5.03963e-06
2.86713e-05
2.6218e-06
1.69838e-05
9.58356e-07
9.206e-06
6.13989e-08
3.73757e-06
-2.80909e-07
2.69721e-06
-4.04789e-07
2.28421e-06
-5.1454e-07
2.68802e-06
-6.12706e-07
2.87107e-06
-7.3197e-07
2.96141e-06
-8.57149e-07
2.90194e-06
-9.86996e-07
2.78653e-06
-1.10581e-06
2.76203e-06
-1.20887e-06
2.87444e-06
-1.29649e-06
3.0721e-06
-1.37756e-06
3.19566e-06
-1.45783e-06
3.15697e-06
-1.53729e-06
2.96749e-06
-1.61146e-06
2.69275e-06
-1.67589e-06
2.37577e-06
-1.72736e-06
2.03428e-06
-1.76381e-06
1.67139e-06
-1.78363e-06
1.28738e-06
-1.78554e-06
8.81199e-07
-1.76837e-06
4.52654e-07
-1.73101e-06
8.63096e-10
-1.67231e-06
-4.75429e-07
-1.59114e-06
-9.77286e-07
-1.48637e-06
-1.50502e-06
-1.35687e-06
-2.05835e-06
-1.20155e-06
-2.63614e-06
-1.01938e-06
-3.23643e-06
-8.09424e-07
-3.85622e-06
-5.70946e-07
-4.4916e-06
-3.03398e-07
-5.13719e-06
-6.59904e-09
-5.78668e-06
3.19369e-07
-6.43195e-06
6.73816e-07
-7.06401e-06
1.05577e-06
-7.67231e-06
1.46337e-06
-8.24492e-06
1.89455e-06
-8.77046e-06
2.3461e-06
-9.23474e-06
2.81495e-06
-9.62733e-06
3.29591e-06
-9.94008e-06
3.78589e-06
-1.01543e-05
4.27734e-06
-1.02794e-05
4.76927e-06
-1.02792e-05
5.25026e-06
-1.02088e-05
5.72575e-06
-9.97961e-06
6.17581e-06
-9.75349e-06
6.62157e-06
-9.29082e-06
7.0223e-06
-9.01292e-06
7.43459e-06
-8.29273e-06
7.76905e-06
-8.16638e-06
8.15941e-06
-7.17055e-06
8.4136e-06
-7.61347e-06
8.81095e-06
-7.18489e-06
-1.00766e-05
9.82005e-06
5.65174e-05
9.26806e-06
4.7401e-05
7.81931e-06
3.91752e-05
5.67743e-06
3.08132e-05
3.25021e-06
1.94111e-05
1.41603e-06
1.10402e-05
3.07903e-07
4.8457e-06
-1.48259e-07
3.15337e-06
-3.13781e-07
2.44974e-06
-4.32138e-07
2.80638e-06
-5.2936e-07
2.96829e-06
-6.45041e-07
3.07709e-06
-7.66095e-07
3.02299e-06
-8.92299e-07
2.91273e-06
-1.00746e-06
2.87719e-06
-1.106e-06
2.97297e-06
-1.18742e-06
3.15352e-06
-1.26069e-06
3.26892e-06
-1.3323e-06
3.22858e-06
-1.40311e-06
3.03831e-06
-1.46912e-06
2.75876e-06
-1.526e-06
2.43265e-06
-1.57049e-06
2.07877e-06
-1.60046e-06
1.70136e-06
-1.61428e-06
1.3012e-06
-1.61065e-06
8.77571e-07
-1.58842e-06
4.3042e-07
-1.54648e-06
-4.10773e-08
-1.48372e-06
-5.38189e-07
-1.39904e-06
-1.06196e-06
-1.29135e-06
-1.61271e-06
-1.15957e-06
-2.19013e-06
-1.00263e-06
-2.79308e-06
-8.19536e-07
-3.41953e-06
-6.09373e-07
-4.06638e-06
-3.71417e-07
-4.72956e-06
-1.05126e-07
-5.40348e-06
1.89685e-07