/*--------------------------------*- C++ -*----------------------------------*\
| =========                 |                                                 |
| \\      /  F ield         | OpenFOAM: The Open Source CFD Toolbox           |
|  \\    /   O peration     | Version:  2.4.0                                 |
|   \\  /    A nd           | Web:      www.OpenFOAM.org                      |
|    \\/     M anipulation  |                                                 |
\*---------------------------------------------------------------------------*/
FoamFile
{
    version     2.0;
    format      ascii;
    class       surfaceScalarField;
    location    "0.56";
    object      phi;
}
// * * * * * * * * * * * * * * * * * * * * * * * * * * * * * * * * * * * * * //

dimensions      [0 3 -1 0 0 0 0];

internalField   nonuniform List<scalar> 
11830
(
2.94679e-06
5.32098e-08
2.8769e-06
6.98927e-08
2.80965e-06
6.72433e-08
2.74329e-06
6.63684e-08
2.6787e-06
6.459e-08
2.61758e-06
6.1117e-08
2.56086e-06
5.67226e-08
2.50882e-06
5.20322e-08
2.46153e-06
4.72964e-08
2.41887e-06
4.26611e-08
2.38062e-06
3.82456e-08
2.34649e-06
3.41302e-08
2.31614e-06
3.03549e-08
2.28921e-06
2.69301e-08
2.26536e-06
2.38482e-08
2.24427e-06
2.10921e-08
2.22562e-06
1.86427e-08
2.20914e-06
1.64853e-08
2.19453e-06
1.46116e-08
2.18151e-06
1.30198e-08
2.1698e-06
1.17088e-08
2.15913e-06
1.06709e-08
2.14924e-06
9.88376e-09
2.13994e-06
9.30751e-09
2.13105e-06
8.88737e-09
2.12249e-06
8.56227e-09
2.11421e-06
8.27571e-09
2.10622e-06
7.98606e-09
2.09855e-06
7.67075e-09
2.09123e-06
7.32474e-09
2.08427e-06
6.95474e-09
2.0777e-06
6.57218e-09
2.07151e-06
6.18778e-09
2.0657e-06
5.80927e-09
2.06026e-06
5.44217e-09
2.05517e-06
5.09251e-09
2.0504e-06
4.77033e-09
2.04591e-06
4.4927e-09
2.04162e-06
4.28573e-09
2.03744e-06
4.18527e-09
2.0332e-06
4.23616e-09
2.02871e-06
4.49106e-09
2.0237e-06
5.00905e-09
2.01784e-06
5.85568e-09
2.01074e-06
7.1057e-09
2.00189e-06
8.84867e-09
1.99069e-06
1.11987e-08
1.97638e-06
1.43078e-08
1.958e-06
1.83837e-08
1.93429e-06
2.37137e-08
1.90359e-06
3.06996e-08
1.86368e-06
3.99097e-08
1.81152e-06
5.21584e-08
1.74289e-06
6.86279e-08
1.65189e-06
9.1004e-08
1.53025e-06
1.21638e-07
1.3675e-06
1.62752e-07
1.15132e-06
2.16178e-07
8.66107e-07
2.8521e-07
2.63138e-07
6.02969e-07
3.02862e-06
2.45862e-08
3.05191e-06
4.66055e-08
3.06774e-06
5.141e-08
3.07746e-06
5.66549e-08
3.08094e-06
6.11119e-08
3.07874e-06
6.33177e-08
3.07162e-06
6.38352e-08
3.06034e-06
6.33162e-08
3.04559e-06
6.20408e-08
3.02806e-06
6.01913e-08
3.00836e-06
5.79518e-08
2.98701e-06
5.54791e-08
2.96448e-06
5.28882e-08
2.94115e-06
5.02578e-08
2.91736e-06
4.76399e-08
2.89338e-06
4.50672e-08
2.86946e-06
4.25606e-08
2.84581e-06
4.0136e-08
2.82261e-06
3.7809e-08
2.80004e-06
3.5597e-08
2.77823e-06
3.35181e-08
2.75731e-06
3.15873e-08
2.73738e-06
2.98118e-08
2.7185e-06
2.81872e-08
2.70069e-06
2.66975e-08
2.68394e-06
2.5318e-08
2.66819e-06
2.40199e-08
2.6534e-06
2.27774e-08
2.6395e-06
2.15721e-08
2.62643e-06
2.03944e-08
2.61414e-06
1.92433e-08
2.60259e-06
1.81235e-08
2.59174e-06
1.70419e-08
2.58154e-06
1.60036e-08
2.57198e-06
1.50101e-08
2.56301e-06
1.40579e-08
2.55464e-06
1.31419e-08
2.54687e-06
1.22629e-08
2.53972e-06
1.1438e-08
2.53319e-06
1.07111e-08
2.52727e-06
1.01595e-08
2.52186e-06
9.89332e-09
2.51683e-06
1.0048e-08
2.51191e-06
1.07738e-08
2.50678e-06
1.22289e-08
2.50105e-06
1.458e-08
2.49424e-06
1.80145e-08
2.48578e-06
2.27654e-08
2.47502e-06
2.91464e-08
2.46113e-06
3.76005e-08
2.44306e-06
4.8766e-08
2.4194e-06
6.35715e-08
2.38816e-06
8.33983e-08
2.3465e-06
1.1029e-07
2.29e-06
1.47501e-07
2.2122e-06
1.99437e-07
2.10038e-06
2.74581e-07
1.94267e-06
3.73886e-07
1.68798e-06
5.39898e-07
5.65132e-07
1.38599e-06
3.00532e-06
1.92658e-08
3.01285e-06
3.90791e-08
3.01981e-06
4.4443e-08
3.02758e-06
4.8886e-08
3.03534e-06
5.33511e-08
3.0425e-06
5.61611e-08
3.04882e-06
5.75126e-08
3.05413e-06
5.80094e-08
3.05827e-06
5.7905e-08
3.06115e-06
5.73052e-08
3.06277e-06
5.63367e-08
3.06312e-06
5.51222e-08
3.06226e-06
5.37564e-08
3.06021e-06
5.23061e-08
3.05703e-06
5.08165e-08
3.05278e-06
4.93172e-08
3.04751e-06
4.7827e-08
3.04129e-06
4.63587e-08
3.03418e-06
4.49225e-08
3.02625e-06
4.35279e-08
3.01758e-06
4.21831e-08
3.00828e-06
4.08922e-08
2.99844e-06
3.96524e-08
2.98817e-06
3.8452e-08
2.9776e-06
3.72716e-08
2.96683e-06
3.60871e-08
2.95597e-06
3.48745e-08
2.94514e-06
3.36159e-08
2.93441e-06
3.23021e-08
2.92387e-06
3.09343e-08
2.91359e-06
2.95229e-08
2.90362e-06
2.80851e-08
2.89402e-06
2.66417e-08
2.88482e-06
2.52126e-08
2.87601e-06
2.38124e-08
2.86762e-06
2.24467e-08
2.85965e-06
2.1114e-08
2.8521e-06
1.98135e-08
2.84498e-06
1.85605e-08
2.83829e-06
1.74045e-08
2.832e-06
1.64434e-08
2.82607e-06
1.58278e-08
2.82036e-06
1.57535e-08
2.81469e-06
1.6447e-08
2.80877e-06
1.81518e-08
2.80222e-06
2.11236e-08
2.7946e-06
2.56414e-08
2.78533e-06
3.20352e-08
2.77374e-06
4.07311e-08
2.75903e-06
5.23132e-08
2.74018e-06
6.76105e-08
2.71594e-06
8.78122e-08
2.68467e-06
1.14672e-07
2.64423e-06
1.50725e-07
2.59168e-06
2.00056e-07
2.52333e-06
2.67787e-07
2.43204e-06
3.65869e-07
2.31249e-06
4.93437e-07
2.13097e-06
7.21417e-07
8.09885e-07
1.88622e-06
3.00342e-06
1.58459e-08
3.00771e-06
3.47895e-08
3.01095e-06
4.12026e-08
3.01456e-06
4.52791e-08
3.01853e-06
4.93811e-08
3.0226e-06
5.20872e-08
3.02675e-06
5.33652e-08
3.03093e-06
5.38313e-08
3.03504e-06
5.37887e-08
3.03901e-06
5.33368e-08
3.04277e-06
5.25786e-08
3.04627e-06
5.16232e-08
3.04947e-06
5.05557e-08
3.05234e-06
4.94332e-08
3.05486e-06
4.82938e-08
3.05702e-06
4.71621e-08
3.05879e-06
4.60533e-08
3.06017e-06
4.49778e-08
3.06115e-06
4.39432e-08
3.06173e-06
4.29561e-08
3.06189e-06
4.20215e-08
3.06164e-06
4.11401e-08
3.06099e-06
4.03055e-08
3.05993e-06
3.95028e-08
3.0585e-06
3.87093e-08
3.05669e-06
3.78977e-08
3.05452e-06
3.70404e-08
3.05202e-06
3.61152e-08
3.04921e-06
3.51091e-08
3.04613e-06
3.40191e-08
3.0428e-06
3.28528e-08
3.03926e-06
3.16266e-08
3.03554e-06
3.03632e-08
3.03166e-06
2.90881e-08
3.02765e-06
2.78251e-08
3.0235e-06
2.65914e-08
3.01922e-06
2.5396e-08
3.01479e-06
2.4245e-08
3.0102e-06
2.31546e-08
3.00543e-06
2.217e-08
3.00049e-06
2.13842e-08
2.99537e-06
2.09492e-08
2.99004e-06
2.10774e-08
2.98446e-06
2.20329e-08
2.97849e-06
2.4121e-08
2.97193e-06
2.76826e-08
2.96447e-06
3.31016e-08
2.95568e-06
4.08291e-08
2.94498e-06
5.14284e-08
2.93165e-06
6.5642e-08
2.91477e-06
8.44912e-08
2.89317e-06
1.0941e-07
2.86536e-06
1.4248e-07
2.82943e-06
1.86655e-07
2.78284e-06
2.46652e-07
2.72251e-06
3.28114e-07
2.64367e-06
4.44709e-07
2.54287e-06
5.94243e-07
2.40707e-06
8.57213e-07
1.00302e-06
2.21394e-06
3.00258e-06
1.3266e-08
3.00624e-06
3.11328e-08
3.00912e-06
3.83151e-08
3.01204e-06
4.23665e-08
3.01515e-06
4.62667e-08
3.01826e-06
4.89819e-08
3.02133e-06
5.02883e-08
3.02442e-06
5.07486e-08
3.02749e-06
5.07105e-08
3.03054e-06
5.0286e-08
3.03355e-06
4.95692e-08
3.03651e-06
4.86666e-08
3.0394e-06
4.76635e-08
3.04222e-06
4.6617e-08
3.04495e-06
4.55639e-08
3.04758e-06
4.45285e-08
3.05011e-06
4.35257e-08
3.05252e-06
4.25653e-08
3.05481e-06
4.16542e-08
3.05697e-06
4.0798e-08
3.05899e-06
4e-08
3.06087e-06
3.926e-08
3.06261e-06
3.85711e-08
3.06419e-06
3.79188e-08
3.06562e-06
3.72817e-08
3.06688e-06
3.6634e-08
3.06797e-06
3.59499e-08
3.06888e-06
3.52081e-08
3.06959e-06
3.43952e-08
3.0701e-06
3.35075e-08
3.07041e-06
3.25511e-08
3.07049e-06
3.15407e-08
3.07036e-06
3.04987e-08
3.06999e-06
2.94526e-08
3.06939e-06
2.84315e-08
3.06851e-06
2.74629e-08
3.06734e-06
2.65688e-08
3.06582e-06
2.57683e-08
3.06389e-06
2.50846e-08
3.0615e-06
2.45611e-08
3.0586e-06
2.42791e-08
3.05518e-06
2.43742e-08
3.05121e-06
2.50468e-08
3.04668e-06
2.65651e-08
3.04153e-06
2.92628e-08
3.03568e-06
3.35386e-08
3.02892e-06
3.98622e-08
3.02095e-06
4.87949e-08
3.01135e-06
6.10294e-08
2.99954e-06
7.74564e-08
2.98476e-06
9.92666e-08
2.96608e-06
1.28094e-07
2.94229e-06
1.66269e-07
2.91189e-06
2.17048e-07
2.87298e-06
2.85563e-07
2.82323e-06
3.77865e-07
2.75949e-06
5.08449e-07
2.67805e-06
6.75684e-07
2.57655e-06
9.58717e-07
1.15684e-06
2.42272e-06
3.00198e-06
1.12874e-08
3.00526e-06
2.78517e-08
3.00809e-06
3.54897e-08
3.01084e-06
3.96159e-08
3.01376e-06
4.33399e-08
3.01669e-06
4.60593e-08
3.01954e-06
4.74357e-08
3.02235e-06
4.79399e-08
3.02511e-06
4.7944e-08
3.02782e-06
4.75746e-08
3.03048e-06
4.69171e-08
3.03307e-06
4.60715e-08
3.03561e-06
4.51229e-08
3.0381e-06
4.41287e-08
3.04054e-06
4.31262e-08
3.04293e-06
4.21401e-08
3.04527e-06
4.11865e-08
3.04756e-06
4.02759e-08
3.04979e-06
3.94157e-08
3.05198e-06
3.86112e-08
3.05411e-06
3.78659e-08
3.0562e-06
3.7179e-08
3.05822e-06
3.65442e-08
3.06019e-06
3.59483e-08
3.0621e-06
3.53719e-08
3.06395e-06
3.47918e-08
3.06571e-06
3.41851e-08
3.06739e-06
3.35327e-08
3.06896e-06
3.2823e-08
3.07041e-06
3.20533e-08
3.07173e-06
3.12298e-08
3.07291e-06
3.03672e-08
3.07392e-06
2.94878e-08
3.07475e-06
2.86203e-08
3.07538e-06
2.77978e-08
3.07579e-06
2.70556e-08
3.07593e-06
2.6428e-08
3.07575e-06
2.59478e-08
3.07519e-06
2.56513e-08
3.07416e-06
2.55881e-08
3.0726e-06
2.58368e-08
3.07045e-06
2.65234e-08
3.06766e-06
2.78368e-08
3.06419e-06
3.00411e-08
3.05996e-06
3.34835e-08
3.0549e-06
3.85996e-08
3.04884e-06
4.59226e-08
3.04154e-06
5.61028e-08
3.03262e-06
6.99437e-08
3.02161e-06
8.84654e-08
3.00787e-06
1.13006e-07
2.9906e-06
1.45366e-07
2.96881e-06
1.88059e-07
2.94132e-06
2.44537e-07
2.90675e-06
3.2013e-07
2.86356e-06
4.21059e-07
2.81026e-06
5.61745e-07
2.74395e-06
7.42e-07
2.66846e-06
1.03421e-06
1.27778e-06
2.54752e-06
3.00156e-06
9.72674e-09
3.00449e-06
2.49209e-08
3.00722e-06
3.27647e-08
3.00985e-06
3.698e-08
3.01266e-06
4.05296e-08
3.01551e-06
4.32081e-08
3.01831e-06
4.46401e-08
3.02106e-06
4.5193e-08
3.02376e-06
4.52444e-08
3.02639e-06
4.49373e-08
3.02896e-06
4.43495e-08
3.03146e-06
4.35731e-08
3.03389e-06
4.26904e-08
3.03626e-06
4.17584e-08
3.03857e-06
4.08139e-08
3.04083e-06
3.98814e-08
3.04304e-06
3.89777e-08
3.0452e-06
3.81137e-08
3.04732e-06
3.72971e-08
3.0494e-06
3.65335e-08
3.05144e-06
3.58261e-08
3.05344e-06
3.51743e-08
3.05542e-06
3.45725e-08
3.05736e-06
3.40089e-08
3.05926e-06
3.34662e-08
3.06113e-06
3.2924e-08
3.06295e-06
3.2362e-08
3.06472e-06
3.1764e-08
3.06642e-06
3.11204e-08
3.06805e-06
3.04297e-08
3.06958e-06
2.96993e-08
3.071e-06
2.89442e-08
3.0723e-06
2.81872e-08
3.07346e-06
2.74582e-08
3.07447e-06
2.67934e-08
3.07529e-06
2.62339e-08
3.07589e-06
2.58237e-08
3.07623e-06
2.56087e-08
3.07625e-06
2.56385e-08
3.07586e-06
2.59739e-08
3.075e-06
2.6699e-08
3.07358e-06
2.79393e-08
3.07154e-06
2.98803e-08
3.06879e-06
3.27857e-08
3.06526e-06
3.7013e-08
3.06084e-06
4.30256e-08
3.05535e-06
5.14065e-08
3.04858e-06
6.28784e-08
3.04018e-06
7.83401e-08
3.02972e-06
9.89265e-08
3.01662e-06
1.26109e-07
3.00015e-06
1.61834e-07
2.97944e-06
2.08772e-07
2.95345e-06
2.70522e-07
2.92109e-06
3.52497e-07
2.88117e-06
4.60971e-07
2.83324e-06
6.0968e-07
2.77527e-06
7.99971e-07
2.71505e-06
1.09443e-06
1.37287e-06
2.61996e-06
3.00126e-06
8.46449e-09
3.00387e-06
2.23154e-08
3.00648e-06
3.01574e-08
3.00902e-06
3.44361e-08
3.01173e-06
3.78194e-08
3.01452e-06
4.04213e-08
3.01727e-06
4.18862e-08
3.01998e-06
4.24824e-08
3.02265e-06
4.25761e-08
3.02526e-06
4.23256e-08
3.02781e-06
4.1805e-08
3.03028e-06
4.10976e-08
3.03269e-06
4.02824e-08
3.03503e-06
3.94154e-08
3.03731e-06
3.85325e-08
3.03954e-06
3.7658e-08
3.04171e-06
3.68083e-08
3.04382e-06
3.59947e-08
3.0459e-06
3.52249e-08
3.04793e-06
3.45045e-08
3.04992e-06
3.38363e-08
3.05187e-06
3.32202e-08
3.05379e-06
3.26509e-08
3.05568e-06
3.21178e-08
3.05754e-06
3.16057e-08
3.05937e-06
3.10966e-08
3.06116e-06
3.0573e-08
3.0629e-06
3.00208e-08
3.06459e-06
2.94324e-08
3.06621e-06
2.8808e-08
3.06776e-06
2.81558e-08
3.06921e-06
2.74916e-08
3.07056e-06
2.68389e-08
3.07179e-06
2.62286e-08
3.07288e-06
2.56995e-08
3.07382e-06
2.52973e-08
3.07457e-06
2.50739e-08
3.07509e-06
2.50858e-08
3.07533e-06
2.53956e-08
3.07523e-06
2.6076e-08
3.07471e-06
2.72208e-08
3.07369e-06
2.89614e-08
3.07208e-06
3.14867e-08
3.0698e-06
3.50654e-08
3.06675e-06
4.00668e-08
3.06279e-06
4.69789e-08
3.05777e-06
5.64268e-08
3.05146e-06
6.91954e-08
3.04353e-06
8.6266e-08
3.03358e-06
1.08876e-07
3.02107e-06
1.38617e-07
3.00534e-06
1.77569e-07
2.98557e-06
2.28539e-07
2.96084e-06
2.95252e-07
2.93019e-06
3.83151e-07
2.89262e-06
4.98541e-07
2.84806e-06
6.54235e-07
2.79501e-06
8.53022e-07
2.7425e-06
1.14694e-06
1.44917e-06
2.6662e-06
3.00104e-06
7.42168e-09
3.00336e-06
1.99975e-08
3.00584e-06
2.76733e-08
3.00831e-06
3.19714e-08
3.01093e-06
3.51991e-08
3.01365e-06
3.76997e-08
3.01636e-06
3.91741e-08
3.01904e-06
3.98053e-08
3.02168e-06
3.99349e-08
3.02427e-06
3.97336e-08
3.0268e-06
3.92745e-08
3.02927e-06
3.86325e-08
3.03167e-06
3.78826e-08
3.03401e-06
3.70793e-08
3.03628e-06
3.62578e-08
3.0385e-06
3.54415e-08
3.04066e-06
3.46468e-08
3.04277e-06
3.38849e-08
3.04483e-06
3.31635e-08
3.04685e-06
3.24878e-08
3.04882e-06
3.18609e-08
3.05076e-06
3.12823e-08
3.05266e-06
3.07473e-08
3.05453e-06
3.02467e-08
3.05637e-06
2.97669e-08
3.05818e-06
2.92921e-08
3.05994e-06
2.88071e-08
3.06166e-06
2.83001e-08
3.06333e-06
2.77653e-08
3.06493e-06
2.72041e-08
3.06646e-06
2.66258e-08
3.06791e-06
2.60469e-08
3.06926e-06
2.54916e-08
3.07049e-06
2.49921e-08
3.0716e-06
2.4589e-08
3.07257e-06
2.4332e-08
3.07336e-06
2.42793e-08
3.07395e-06
2.44964e-08
3.07429e-06
2.5057e-08
3.07432e-06
2.60457e-08
3.07398e-06
2.75674e-08
3.07317e-06
2.97626e-08
3.07183e-06
3.28279e-08
3.06986e-06
3.70412e-08
3.06714e-06
4.27859e-08
3.06354e-06
5.0574e-08
3.0589e-06
6.10685e-08
3.05299e-06
7.51091e-08
3.0455e-06
9.37506e-08
3.03606e-06
1.18322e-07
3.02415e-06
1.50523e-07
3.00917e-06
1.92553e-07
2.99037e-06
2.47339e-07
2.96691e-06
3.18712e-07
2.93795e-06
4.12111e-07
2.90263e-06
5.33855e-07
2.86106e-06
6.95804e-07
2.81213e-06
9.01958e-07
2.76426e-06
1.19481e-06
1.5119e-06
2.70153e-06
3.00088e-06
6.54309e-09
3.00295e-06
1.79268e-08
3.00531e-06
2.5314e-08
3.0077e-06
2.95799e-08
3.01024e-06
3.26592e-08
3.0129e-06
3.50417e-08
3.01557e-06
3.65029e-08
3.01822e-06
3.71592e-08
3.02083e-06
3.73188e-08
3.0234e-06
3.71598e-08
3.02592e-06
3.67565e-08
3.02838e-06
3.61762e-08
3.03077e-06
3.54888e-08
3.03311e-06
3.47472e-08
3.03538e-06
3.39857e-08
3.03759e-06
3.32269e-08
3.03975e-06
3.24868e-08
3.04186e-06
3.17764e-08
3.04392e-06
3.11034e-08
3.04594e-06
3.04729e-08
3.04791e-06
2.98877e-08
3.04984e-06
2.93474e-08
3.05174e-06
2.8848e-08
3.05361e-06
2.83812e-08
3.05544e-06
2.7935e-08
3.05724e-06
2.74958e-08
3.05899e-06
2.70504e-08
3.0607e-06
2.65891e-08
3.06236e-06
2.61077e-08
3.06396e-06
2.5609e-08
3.06548e-06
2.51029e-08
3.06692e-06
2.4607e-08
3.06827e-06
2.41461e-08
3.0695e-06
2.37534e-08
3.07062e-06
2.34715e-08
3.0716e-06
2.33533e-08
3.07242e-06
2.34621e-08
3.07304e-06
2.38712e-08
3.07344e-06
2.46638e-08
3.07355e-06
2.59356e-08
3.07331e-06
2.78027e-08
3.07266e-06
3.04159e-08
3.0715e-06
3.39827e-08
3.06975e-06
3.87923e-08
3.06729e-06
4.5244e-08
3.06399e-06
5.38737e-08
3.05968e-06
6.53794e-08
3.05414e-06
8.06507e-08
3.04708e-06
1.00808e-07
3.03814e-06
1.27263e-07
3.02685e-06
1.61813e-07
3.01264e-06
2.06763e-07
2.99484e-06
2.65143e-07
2.97268e-06
3.40868e-07
2.94544e-06
4.39354e-07
2.9124e-06
5.66894e-07
2.87376e-06
7.34441e-07
2.82885e-06
9.46866e-07
2.78492e-06
1.23874e-06
1.5644e-06
2.73242e-06
3.00075e-06
5.78916e-09
3.00261e-06
1.60659e-08
3.00485e-06
2.30774e-08
3.00717e-06
2.72582e-08
3.00964e-06
3.0191e-08
3.01224e-06
3.2444e-08
3.01487e-06
3.38715e-08
3.01749e-06
3.45421e-08
3.02008e-06
3.4726e-08
3.02264e-06
3.46035e-08
3.02514e-06
3.42506e-08
3.02759e-06
3.3728e-08
3.02998e-06
3.31004e-08
3.03231e-06
3.24185e-08
3.03458e-06
3.17155e-08
3.03679e-06
3.10132e-08
3.03895e-06
3.03269e-08
3.04106e-06
2.96677e-08
3.04312e-06
2.90428e-08
3.04514e-06
2.84574e-08
3.04711e-06
2.7914e-08
3.04905e-06
2.74124e-08
3.05094e-06
2.69491e-08
3.05281e-06
2.65168e-08
3.05464e-06
2.61051e-08
3.05643e-06
2.57022e-08
3.05819e-06
2.5297e-08
3.05989e-06
2.48816e-08
3.06155e-06
2.44534e-08
3.06314e-06
2.40163e-08
3.06466e-06
2.35813e-08
3.0661e-06
2.31664e-08
3.06745e-06
2.27975e-08
3.0687e-06
2.25087e-08
3.06982e-06
2.23443e-08
3.07082e-06
2.23599e-08
3.07165e-06
2.26234e-08
3.07231e-06
2.32145e-08
3.07275e-06
2.42248e-08
3.07293e-06
2.576e-08
3.07278e-06
2.7947e-08
3.07225e-06
3.09481e-08
3.07125e-06
3.49822e-08
3.06969e-06
4.03519e-08
3.06746e-06
4.74734e-08
3.06443e-06
5.69057e-08
3.06043e-06
6.938e-08
3.05525e-06
8.58311e-08
3.04862e-06
1.07439e-07
3.04019e-06
1.3569e-07
3.02954e-06
1.72466e-07
3.01613e-06
2.2017e-07
2.99935e-06
2.81918e-07
2.97853e-06
3.61691e-07
2.95303e-06
4.64859e-07
2.92226e-06
5.97659e-07
2.88651e-06
7.70195e-07
2.84552e-06
9.87852e-07
2.80545e-06
1.27881e-06
1.6088e-06
2.76104e-06
3.00066e-06
5.13118e-09
3.00234e-06
1.43821e-08
3.00446e-06
2.09582e-08
3.00672e-06
2.50033e-08
3.00912e-06
2.77866e-08
3.01166e-06
2.99025e-08
3.01425e-06
3.12787e-08
3.01684e-06
3.19524e-08
3.01942e-06
3.2155e-08
3.02196e-06
3.20634e-08
3.02445e-06
3.17558e-08
3.02689e-06
3.12874e-08
3.02927e-06
3.07169e-08
3.0316e-06
3.00928e-08
3.03387e-06
2.94469e-08
3.03608e-06
2.88001e-08
3.03824e-06
2.81671e-08
3.04035e-06
2.75584e-08
3.04241e-06
2.69814e-08
3.04443e-06
2.64408e-08
3.0464e-06
2.59392e-08
3.04834e-06
2.54765e-08
3.05024e-06
2.50496e-08
3.0521e-06
2.46523e-08
3.05393e-06
2.42757e-08
3.05573e-06
2.39096e-08
3.05748e-06
2.35449e-08
3.05918e-06
2.31754e-08
3.06084e-06
2.27999e-08
3.06243e-06
2.24236e-08
3.06395e-06
2.20581e-08
3.0654e-06
2.17224e-08
3.06675e-06
2.1443e-08
3.06801e-06
2.12551e-08
3.06915e-06
2.12045e-08
3.07016e-06
2.13492e-08
3.07102e-06
2.1761e-08
3.07171e-06
2.2525e-08
3.07219e-06
2.37402e-08
3.07243e-06
2.55215e-08
3.07237e-06
2.80062e-08
3.07195e-06
3.1368e-08
3.0711e-06
3.5838e-08
3.06971e-06
4.17331e-08
3.0677e-06
4.94866e-08
3.06493e-06
5.96803e-08
3.06123e-06
7.30759e-08
3.05641e-06
9.06496e-08
3.05022e-06
1.13635e-07
3.04232e-06
1.43585e-07
3.03233e-06
1.8246e-07
3.01975e-06
2.32745e-07
3.00404e-06
2.9763e-07
2.98458e-06
3.81149e-07
2.96083e-06
4.88609e-07
2.93233e-06
6.26158e-07
2.8994e-06
8.03125e-07
2.86216e-06
1.0251e-06
2.82587e-06
1.3151e-06
1.64664e-06
2.78804e-06
3.00058e-06
4.54806e-09
3.00212e-06
1.28469e-08
3.00413e-06
1.89486e-08
3.00632e-06
2.28124e-08
3.00867e-06
2.54393e-08
3.01116e-06
2.74127e-08
3.01371e-06
2.8723e-08
3.01628e-06
2.93886e-08
3.01883e-06
2.9604e-08
3.02135e-06
2.95386e-08
3.02384e-06
2.92717e-08
3.02627e-06
2.88538e-08
3.02865e-06
2.8338e-08
3.03097e-06
2.77698e-08
3.03324e-06
2.71796e-08
3.03545e-06
2.65874e-08
3.03761e-06
2.6007e-08
3.03972e-06
2.54485e-08
3.04178e-06
2.4919e-08
3.0438e-06
2.4423e-08
3.04578e-06
2.39631e-08
3.04771e-06
2.35394e-08
3.04961e-06
2.31493e-08
3.05148e-06
2.27874e-08
3.05331e-06
2.24462e-08
3.0551e-06
2.21173e-08
3.05685e-06
2.17932e-08
3.05856e-06
2.14694e-08
3.06021e-06
2.11462e-08
3.06181e-06
2.08295e-08
3.06333e-06
2.05321e-08
3.06478e-06
2.02736e-08
3.06614e-06
2.00812e-08
3.06741e-06
1.99911e-08
3.06856e-06
2.00505e-08
3.06959e-06
2.03195e-08
3.07048e-06
2.08731e-08
3.0712e-06
2.18011e-08
3.07173e-06
2.32091e-08
3.07203e-06
2.52202e-08
3.07206e-06
2.79817e-08
3.07175e-06
3.16786e-08
3.07103e-06
3.65547e-08
3.06982e-06
4.29412e-08
3.06802e-06
5.12886e-08
3.0655e-06
6.22003e-08
3.06211e-06
7.64666e-08
3.05766e-06
9.5101e-08
3.05191e-06
1.19385e-07
3.04456e-06
1.50932e-07
3.03525e-06
1.9177e-07
3.02354e-06
2.44458e-07
3.00892e-06
3.12249e-07
2.99086e-06
3.99211e-07
2.96888e-06
5.10586e-07
2.94263e-06
6.52406e-07
2.91247e-06
8.33289e-07
2.87876e-06
1.05881e-06
2.84609e-06
1.34777e-06
1.67905e-06
2.81367e-06
3.00052e-06
4.02407e-09
3.00193e-06
1.14364e-08
3.00384e-06
1.70396e-08
3.00597e-06
2.06825e-08
3.00827e-06
2.31434e-08
3.01071e-06
2.49702e-08
3.01323e-06
2.62022e-08
3.01577e-06
2.68491e-08
3.0183e-06
2.70716e-08
3.02082e-06
2.70279e-08
3.02329e-06
2.67974e-08
3.02572e-06
2.64268e-08
3.02809e-06
2.59633e-08
3.03041e-06
2.54493e-08
3.03268e-06
2.49136e-08
3.03489e-06
2.43751e-08
3.03705e-06
2.38466e-08
3.03916e-06
2.33378e-08
3.04122e-06
2.28555e-08
3.04324e-06
2.2404e-08
3.04522e-06
2.19857e-08
3.04716e-06
2.16011e-08
3.04906e-06
2.12479e-08
3.05093e-06
2.09218e-08
3.05276e-06
2.06164e-08
3.05455e-06
2.0325e-08
3.0563e-06
2.00416e-08
3.05801e-06
1.97632e-08
3.05966e-06
1.94915e-08
3.06126e-06
1.92335e-08
3.06279e-06
1.90027e-08
3.06424e-06
1.88194e-08
3.06561e-06
1.87114e-08
3.06689e-06
1.8716e-08
3.06805e-06
1.88814e-08
3.0691e-06
1.92697e-08
3.07002e-06
1.99585e-08
3.07078e-06
2.10417e-08
3.07136e-06
2.26306e-08
3.07172e-06
2.48558e-08
3.07183e-06
2.7874e-08
3.07163e-06
3.18814e-08
3.07105e-06
3.71343e-08
3.07001e-06
4.39784e-08
3.06842e-06
5.28809e-08
3.06615e-06
6.44657e-08
3.06307e-06
7.95491e-08
3.05899e-06
9.91781e-08
3.0537e-06
1.24678e-07
3.04692e-06
1.57713e-07
3.03832e-06
2.00373e-07
3.02749e-06
2.55282e-07
3.014e-06
3.25743e-07
2.99736e-06
4.15851e-07
2.97717e-06
5.30776e-07
2.95316e-06
6.76416e-07
2.9257e-06
8.60749e-07
2.89533e-06
1.08918e-06
2.86605e-06
1.37704e-06
1.70694e-06
2.83816e-06
3.00048e-06
3.54723e-09
3.00178e-06
1.01302e-08
3.0036e-06
1.52213e-08
3.00567e-06
1.86101e-08
3.00792e-06
2.08938e-08
3.01032e-06
2.25703e-08
3.01281e-06
2.37141e-08
3.01533e-06
2.43324e-08
3.01784e-06
2.45562e-08
3.02034e-06
2.45301e-08
3.02281e-06
2.43324e-08
3.02523e-06
2.40058e-08
3.0276e-06
2.35925e-08
3.02992e-06
2.31311e-08
3.03218e-06
2.26487e-08
3.03439e-06
2.2163e-08
3.03655e-06
2.16858e-08
3.03867e-06
2.12263e-08
3.04073e-06
2.07909e-08
3.04275e-06
2.03837e-08
3.04473e-06
2.0007e-08
3.04667e-06
1.96615e-08
3.04857e-06
1.93454e-08
3.05044e-06
1.90553e-08
3.05227e-06
1.8786e-08
3.05406e-06
1.85322e-08
3.05581e-06
1.82894e-08
3.05752e-06
1.80563e-08
3.05918e-06
1.78354e-08
3.06077e-06
1.7635e-08
3.06231e-06
1.74692e-08
3.06377e-06
1.7359e-08
3.06515e-06
1.7333e-08
3.06643e-06
1.7429e-08
3.06762e-06
1.76965e-08
3.06869e-06
1.8199e-08
3.06963e-06
1.90163e-08
3.07043e-06
2.02459e-08
3.07105e-06
2.2004e-08
3.07148e-06
2.4428e-08
3.07167e-06
2.76835e-08
3.07158e-06
3.19772e-08
3.07113e-06
3.75782e-08
3.07026e-06
4.48461e-08
3.06888e-06
5.42642e-08
3.06687e-06
6.64755e-08
3.0641e-06
8.23197e-08
3.06041e-06
1.02874e-07
3.05558e-06
1.295e-07
3.04938e-06
1.63911e-07
3.04151e-06
2.08249e-07
3.0316e-06
2.65192e-07
3.01925e-06
3.38088e-07
3.00406e-06
4.31048e-07
2.98567e-06
5.49168e-07
2.96387e-06
6.98208e-07
2.93906e-06
8.85566e-07
2.91185e-06
1.11639e-06
2.88575e-06
1.40314e-06
1.73103e-06
2.86166e-06
3.00044e-06
3.10828e-09
3.00166e-06
8.91103e-09
3.0034e-06
1.34838e-08
3.00541e-06
1.65912e-08
3.00762e-06
1.86859e-08
3.00998e-06
2.02086e-08
3.01244e-06
2.12562e-08
3.01494e-06
2.18367e-08
3.01744e-06
2.20563e-08
3.01992e-06
2.20443e-08
3.02238e-06
2.18757e-08
3.0248e-06
2.15905e-08
3.02716e-06
2.12252e-08
3.02948e-06
2.08149e-08
3.03174e-06
2.03848e-08
3.03395e-06
1.9951e-08
3.03612e-06
1.95247e-08
3.03823e-06
1.91141e-08
3.04029e-06
1.87252e-08
3.04232e-06
1.83621e-08
3.0443e-06
1.8027e-08
3.04624e-06
1.77206e-08
3.04814e-06
1.74418e-08
3.05001e-06
1.71879e-08
3.05184e-06
1.69548e-08
3.05363e-06
1.67387e-08
3.05539e-06
1.65365e-08
3.05709e-06
1.63482e-08
3.05875e-06
1.61775e-08
3.06035e-06
1.60336e-08
3.06189e-06
1.59313e-08
3.06336e-06
1.58922e-08
3.06474e-06
1.59455e-08
3.06604e-06
1.61297e-08
3.06725e-06
1.64952e-08
3.06834e-06
1.71068e-08
3.06931e-06
1.8046e-08
3.07014e-06
1.94132e-08
3.07082e-06
2.13288e-08
3.07131e-06
2.39366e-08
3.07158e-06
2.74102e-08
3.07159e-06
3.19667e-08
3.07128e-06
3.78873e-08
3.07058e-06
4.55451e-08
3.06941e-06
5.54387e-08
3.06766e-06
6.82283e-08
3.0652e-06
8.47747e-08
3.06189e-06
1.06181e-07
3.05755e-06
1.33843e-07
3.05195e-06
1.69512e-07
3.04482e-06
2.15378e-07
3.03585e-06
2.74166e-07
3.02468e-06
3.49259e-07
3.01094e-06
4.44781e-07
2.99436e-06
5.65755e-07
2.97476e-06
7.17801e-07
2.95253e-06
9.07802e-07
2.92832e-06
1.1406e-06
2.90518e-06
1.42628e-06
1.75187e-06
2.88434e-06
3.00041e-06
2.69993e-09
3.00155e-06
7.76438e-09
3.00322e-06
1.18173e-08
3.00519e-06
1.46213e-08
3.00736e-06
1.65154e-08
3.00969e-06
1.78808e-08
3.01212e-06
1.88256e-08
3.0146e-06
1.93605e-08
3.01708e-06
1.95704e-08
3.01956e-06
1.9569e-08
3.02201e-06
1.94268e-08
3.02442e-06
1.91802e-08
3.02678e-06
1.88611e-08
3.0291e-06
1.85006e-08
3.03136e-06
1.81217e-08
3.03357e-06
1.77392e-08
3.03573e-06
1.73631e-08
3.03784e-06
1.7001e-08
3.03991e-06
1.66585e-08
3.04193e-06
1.63393e-08
3.04392e-06
1.60457e-08
3.04586e-06
1.57784e-08
3.04776e-06
1.5537e-08
3.04963e-06
1.53193e-08
3.05146e-06
1.51227e-08
3.05326e-06
1.49443e-08
3.05501e-06
1.47826e-08
3.05672e-06
1.46386e-08
3.05838e-06
1.45174e-08
3.05999e-06
1.44288e-08
3.06153e-06
1.43885e-08
3.063e-06
1.44185e-08
3.0644e-06
1.45485e-08
3.06571e-06
1.48178e-08
3.06693e-06
1.52772e-08
3.06804e-06
1.59926e-08
3.06904e-06
1.70469e-08
3.06991e-06
1.85429e-08
3.07064e-06
2.06047e-08
3.07119e-06
2.33814e-08
3.07155e-06
2.70544e-08
3.07166e-06
3.18505e-08
3.07149e-06
3.80624e-08
3.07096e-06
4.6076e-08
3.06999e-06
5.64042e-08
3.0685e-06
6.97227e-08
3.06636e-06
8.69108e-08
3.06345e-06
1.09094e-07
3.0596e-06
1.37696e-07
3.05461e-06
1.74502e-07
3.04824e-06
2.21743e-07
3.04022e-06
2.82184e-07
3.03024e-06
3.59238e-07
3.01799e-06
4.57034e-07
3.00321e-06
5.80532e-07
2.9858e-06
7.35216e-07
2.96609e-06
9.27516e-07
2.94473e-06
1.16195e-06
2.92437e-06
1.44665e-06
1.76992e-06
2.90631e-06
3.00038e-06
2.31634e-09
3.00147e-06
6.67783e-09
3.00307e-06
1.02125e-08
3.005e-06
1.26956e-08
3.00714e-06
1.43782e-08
3.00944e-06
1.55826e-08
3.01184e-06
1.64194e-08
3.0143e-06
1.69017e-08
3.01677e-06
1.70971e-08
3.01924e-06
1.71033e-08
3.02168e-06
1.69848e-08
3.02409e-06
1.67745e-08
3.02645e-06
1.64998e-08
3.02876e-06
1.61879e-08
3.03102e-06
1.58594e-08
3.03324e-06
1.55275e-08
3.0354e-06
1.52012e-08
3.03751e-06
1.48872e-08
3.03958e-06
1.45908e-08
3.0416e-06
1.43154e-08
3.04359e-06
1.40631e-08
3.04553e-06
1.3835e-08
3.04744e-06
1.36309e-08
3.0493e-06
1.34497e-08
3.05114e-06
1.32895e-08
3.05293e-06
1.31488e-08
3.05469e-06
1.30273e-08
3.0564e-06
1.29273e-08
3.05806e-06
1.28547e-08
3.05967e-06
1.28204e-08
3.06122e-06
1.28405e-08
3.0627e-06
1.29376e-08
3.06411e-06
1.31418e-08
3.06543e-06
1.34928e-08
3.06667e-06
1.4042e-08
3.0678e-06
1.4856e-08
3.06883e-06
1.60188e-08
3.06974e-06
1.76349e-08
3.07051e-06
1.98314e-08
3.07113e-06
2.27624e-08
3.07157e-06
2.66163e-08
3.07179e-06
3.16291e-08
3.07175e-06
3.81041e-08
3.07139e-06
4.64394e-08
3.07063e-06
5.71607e-08
3.0694e-06
7.09576e-08
3.06758e-06
8.87247e-08
3.06507e-06
1.11606e-07
3.06171e-06
1.4105e-07
3.05735e-06
1.7887e-07
3.05176e-06
2.2733e-07
3.04471e-06
2.89229e-07
3.03594e-06
3.68007e-07
3.02518e-06
4.67795e-07
3.01222e-06
5.93495e-07
2.99697e-06
7.50471e-07
2.97972e-06
9.44763e-07
2.96109e-06
1.18057e-06
2.94332e-06
1.46443e-06
1.78554e-06
2.9277e-06
3.00036e-06
1.95271e-09
3.0014e-06
5.64072e-09
3.00295e-06
8.66022e-09
3.00484e-06
1.08089e-08
3.00695e-06
1.227e-08
3.00922e-06
1.33101e-08
3.01161e-06
1.40346e-08
3.01405e-06
1.44585e-08
3.01651e-06
1.46349e-08
3.01897e-06
1.46459e-08
3.0214e-06
1.45488e-08
3.02381e-06
1.43729e-08
3.02616e-06
1.41411e-08
3.02848e-06
1.38767e-08
3.03074e-06
1.35977e-08
3.03295e-06
1.33158e-08
3.03511e-06
1.30388e-08
3.03723e-06
1.27727e-08
3.03929e-06
1.25222e-08
3.04132e-06
1.22903e-08
3.0433e-06
1.20793e-08
3.04525e-06
1.18903e-08
3.04715e-06
1.17237e-08
3.04903e-06
1.15789e-08
3.05086e-06
1.14551e-08
3.05266e-06
1.1352e-08
3.05441e-06
1.12704e-08
3.05613e-06
1.12139e-08
3.05779e-06
1.11893e-08
3.0594e-06
1.12081e-08
3.06096e-06
1.1287e-08
3.06245e-06
1.14492e-08
3.06386e-06
1.1725e-08
3.0652e-06
1.21545e-08
3.06645e-06
1.27895e-08
3.06761e-06
1.36968e-08
3.06867e-06
1.49614e-08
3.06962e-06
1.66888e-08
3.07044e-06
1.90088e-08
3.07112e-06
2.20797e-08
3.07164e-06
2.60964e-08
3.07197e-06
3.1303e-08
3.07206e-06
3.80131e-08
3.07186e-06
4.66359e-08
3.07132e-06
5.77083e-08
3.07034e-06
7.19319e-08
3.06885e-06
9.02141e-08
3.06674e-06
1.13715e-07
3.06389e-06
1.43899e-07
3.06016e-06
1.82607e-07
3.05536e-06
2.32127e-07
3.0493e-06
2.95288e-07
3.04176e-06
3.75551e-07
3.0325e-06
4.77052e-07
3.02135e-06
6.04643e-07
3.00824e-06
7.63584e-07
2.99341e-06
9.59591e-07
2.97741e-06
1.19658e-06
2.96207e-06
1.47976e-06
1.79901e-06
2.9486e-06
3.00035e-06
1.60507e-09
3.00134e-06
4.64378e-09
3.00285e-06
7.15204e-09
3.00471e-06
8.95597e-09
3.00679e-06
1.01869e-08
3.00904e-06
1.10595e-08
3.01141e-06
1.16682e-08
3.01384e-06
1.20288e-08
3.01629e-06
1.21822e-08
3.01874e-06
1.21957e-08
3.02117e-06
1.21181e-08
3.02357e-06
1.19747e-08
3.02592e-06
1.17845e-08
3.02823e-06
1.15667e-08
3.0305e-06
1.13366e-08
3.03271e-06
1.11042e-08
3.03487e-06
1.08761e-08
3.03698e-06
1.06576e-08
3.03905e-06
1.04527e-08
3.04108e-06
1.02643e-08
3.04306e-06
1.00944e-08
3.04501e-06
9.94453e-09
3.04692e-06
9.81527e-09
3.04879e-06
9.70688e-09
3.05063e-06
9.6195e-09
3.05243e-06
9.55381e-09
3.05418e-06
9.51191e-09
3.0559e-06
9.49829e-09
3.05757e-06
9.5208e-09
3.05918e-06
9.59156e-09
3.06074e-06
9.72785e-09
3.06224e-06
9.95304e-09
3.06367e-06
1.02979e-08
3.06502e-06
1.08027e-08
3.06629e-06
1.15194e-08
3.06747e-06
1.25149e-08
3.06856e-06
1.38744e-08
3.06954e-06
1.57046e-08
3.07041e-06
1.8137e-08
3.07116e-06
2.13336e-08
3.07176e-06
2.5495e-08
3.07219e-06
3.0873e-08
3.07241e-06
3.77903e-08
3.07238e-06
4.66662e-08
3.07204e-06
5.80473e-08
3.07133e-06
7.26452e-08
3.07017e-06
9.13772e-08
3.06847e-06
1.15414e-07
3.06613e-06
1.46237e-07
3.06303e-06
1.85703e-07
3.05904e-06
2.36122e-07
3.05398e-06
3.00348e-07
3.04767e-06
3.81858e-07
3.03993e-06
4.84795e-07
3.0306e-06
6.13973e-07
3.01961e-06
7.74571e-07
3.00716e-06
9.72043e-07
2.99368e-06
1.21007e-06
2.98065e-06
1.49278e-06
1.81057e-06
2.9691e-06
3.00034e-06
1.26999e-09
3.0013e-06
3.67881e-09
3.00277e-06
5.67984e-09
3.0046e-06
7.1312e-09
3.00666e-06
8.12477e-09
3.00889e-06
8.82683e-09
3.01124e-06
9.31713e-09
3.01366e-06
9.61042e-09
3.01611e-06
9.73763e-09
3.01855e-06
9.75142e-09
3.02098e-06
9.69183e-09
3.02337e-06
9.57956e-09
3.02573e-06
9.42972e-09
3.02804e-06
9.25766e-09
3.0303e-06
9.07586e-09
3.03251e-06
8.89249e-09
3.03467e-06
8.71305e-09
3.03679e-06
8.54187e-09
3.03886e-06
8.38241e-09
3.04088e-06
8.2373e-09
3.04287e-06
8.10853e-09
3.04482e-06
7.99761e-09
3.04673e-06
7.90568e-09
3.0486e-06
7.83364e-09
3.05044e-06
7.78253e-09
3.05224e-06