/*--------------------------------*- C++ -*----------------------------------*\
| =========                 |                                                 |
| \\      /  F ield         | OpenFOAM: The Open Source CFD Toolbox           |
|  \\    /   O peration     | Version:  2.4.0                                 |
|   \\  /    A nd           | Web:      www.OpenFOAM.org                      |
|    \\/     M anipulation  |                                                 |
\*---------------------------------------------------------------------------*/
FoamFile
{
    version     2.0;
    format      ascii;
    class       volScalarField;
    location    "405";
    object      k;
}
// * * * * * * * * * * * * * * * * * * * * * * * * * * * * * * * * * * * * * //

dimensions      [0 2 -2 0 0 0 0];

internalField   nonuniform List<scalar> 
6000
(
0.0139122
0.00612131
0.00167806
0.00124499
0.00114068
0.00110794
0.00108623
0.00107906
0.0010788
0.00108296
0.00108892
0.00109504
0.00109997
0.00110342
0.00110527
0.00110536
0.00110338
0.00109925
0.00109365
0.00108876
0.00108894
0.00109894
0.00112432
0.00117136
0.00124681
0.00135164
0.00148434
0.00164181
0.00182305
0.00203072
0.00224664
0.00246373
0.00267463
0.00287252
0.00305164
0.00320789
0.00334099
0.00344836
0.00352645
0.00357641
0.00360005
0.00360024
0.00357964
0.00354286
0.00349197
0.00343356
0.00337169
0.00327326
0.00330726
0.0034707
0.00365919
0.00393315
0.00418601
0.00459276
0.00491289
0.00556666
0.00595839
0.00717985
0.00769993
0.0105889
0.0108007
0.00614831
0.00349461
0.0018754
0.00150224
0.00147462
0.00148983
0.00152094
0.00155746
0.00159336
0.0016244
0.00164782
0.00166149
0.00166562
0.00166186
0.00165283
0.00164148
0.00163137
0.00162689
0.00163392
0.00166035
0.00171423
0.0018051
0.00194082
0.00212605
0.00235869
0.00263315
0.00294096
0.00327289
0.00361992
0.00397104
0.00431898
0.00465676
0.00497831
0.00527859
0.00555387
0.00580228
0.00601558
0.00619671
0.00634726
0.00646955
0.00656734
0.00664436
0.00670716
0.00675982
0.00681119
0.00686995
0.00687177
0.0068616
0.00693153
0.00705335
0.00722189
0.00739294
0.00760323
0.0077536
0.00797361
0.0080345
0.00831573
0.0082041
0.00879726
0.0105284
0.0064356
0.0041622
0.00286924
0.00217118
0.00199311
0.00196187
0.00197819
0.00201279
0.00205209
0.00208839
0.00211686
0.00213394
0.00213906
0.00213365
0.00212061
0.00210359
0.00208725
0.00207762
0.00208273
0.00211318
0.00218036
0.00229768
0.00247634
0.00272173
0.00303043
0.0033933
0.00379743
0.00422888
0.00467432
0.00512121
0.00556039
0.00598371
0.00638431
0.00675674
0.00709699
0.00740266
0.00766497
0.0078867
0.00806982
0.00821727
0.00833361
0.00842373
0.0084952
0.008554
0.00860863
0.00866939
0.00864988
0.00862567
0.00868246
0.00880439
0.00896524
0.00914137
0.00932367
0.00945904
0.0095923
0.00961057
0.00971407
0.0096288
0.00999059
0.0106764
0.00664304
0.00447294
0.0035354
0.00289619
0.0025053
0.00239267
0.00237578
0.00239654
0.00243099
0.00246681
0.00249662
0.00251513
0.00252061
0.00251388
0.00249765
0.00247585
0.00245383
0.00243876
0.00244033
0.00247133
0.00254604
0.00268142
0.00289198
0.00318382
0.00355245
0.00398531
0.00446553
0.00497541
0.00549845
0.0060203
0.00653019
0.00701892
0.00747892
0.00790435
0.00829089
0.00863563
0.00892954
0.00917512
0.00937467
0.00953163
0.00965123
0.00973921
0.00980392
0.00985273
0.0098932
0.00993434
0.00988039
0.00984417
0.00988888
0.0100075
0.0101611
0.0103404
0.0105044
0.0106344
0.0107146
0.0107214
0.0107286
0.010722
0.0109643
0.010787
0.00678393
0.00463055
0.00386647
0.00362636
0.00305097
0.00282366
0.00275677
0.00275407
0.00277762
0.00280903
0.0028377
0.00285627
0.00286157
0.00285357
0.00283461
0.00280872
0.00278174
0.00276167
0.00275944
0.00278967
0.00286924
0.00301864
0.00325571
0.00358767
0.00400879
0.00450325
0.00505052
0.00562955
0.00622119
0.00680937
0.00738186
0.00792838
0.00844053
0.00891194
0.00933782
0.00971431
0.0100323
0.0102941
0.0105023
0.0106609
0.0107756
0.010853
0.010902
0.0109309
0.0109461
0.0109526
0.0108594
0.0108094
0.0108391
0.0109492
0.0110925
0.0112701
0.0114167
0.0115395
0.0115766
0.011575
0.0115101
0.0115679
0.0117184
0.0108513
0.00688297
0.004715
0.00400054
0.00421018
0.00364425
0.00327806
0.0031439
0.00310797
0.00311471
0.00313799
0.00316325
0.00318065
0.00318528
0.00317604
0.00315477
0.00312546
0.00309424
0.00306969
0.00306361
0.00309215
0.0031746
0.00333501
0.0035948
0.00396278
0.00443198
0.00498344
0.00559304
0.00623668
0.00689278
0.00754358
0.00817536
0.00877664
0.009338
0.0098523
0.0103141
0.0107181
0.0110554
0.0113282
0.0115395
0.0116937
0.0117971
0.0118569
0.0118825
0.0118831
0.011863
0.0118218
0.0116883
0.0116212
0.0116322
0.0117291
0.0118596
0.0120317
0.0121618
0.0122756
0.0122761
0.0122657
0.0121434
0.0122465
0.0123288
0.0108871
0.00695334
0.00476238
0.00402506
0.00455427
0.00426436
0.00376748
0.0035497
0.00347044
0.00345422
0.00346555
0.00348509
0.00350005
0.0035035
0.00349306
0.00346992
0.00343785
0.00340315
0.00337468
0.00336481
0.00339089
0.00347447
0.00364324
0.00392256
0.00432332
0.00483753
0.00544309
0.0061124
0.00681836
0.00753707
0.00824902
0.0089389
0.00959381
0.0102031
0.0107586
0.0112542
0.0116825
0.0120353
0.0123148
0.0125243
0.0126687
0.012755
0.0127909
0.0127861
0.0127504
0.0126857
0.0125863
0.0124133
0.0123248
0.0123134
0.0123929
0.0125085
0.0126724
0.0127872
0.0128915
0.0128612
0.0128424
0.0126742
0.012812
0.0128431
0.0109042
0.00700328
0.00479066
0.00399374
0.00467419
0.00483973
0.00429397
0.00398147
0.00384896
0.00380338
0.00379872
0.00381008
0.00382124
0.00382295
0.00381133
0.00378672
0.0037526
0.00371519
0.00368342
0.00366991
0.00369291
0.00377604
0.00395066
0.00424645
0.0046771
0.00523381
0.00589147
0.00661892
0.00738607
0.0081667
0.0089394
0.0096871
0.0103953
0.0110518
0.0116474
0.0121749
0.0126245
0.0129893
0.0132715
0.0134747
0.0136044
0.0136681
0.0136741
0.0136326
0.0135533
0.0134348
0.0132706
0.0130591
0.0129448
0.0129071
0.0129654
0.0130642
0.0132184
0.0133195
0.0134152
0.0133599
0.0133341
0.0131298
0.0132962
0.0132904
0.0109089
0.00703892
0.00480924
0.00393801
0.0046365
0.00527882
0.0048467
0.00444266
0.00424826
0.00416694
0.00414209
0.00414262
0.00414848
0.0041478
0.00413495
0.00410929
0.0040738
0.0040345
0.00400014
0.00398326
0.0040027
0.00408391
0.00426191
0.00457114
0.00502881
0.00562576
0.00633389
0.00711844
0.00794624
0.00878861
0.00962211
0.0104277
0.0111891
0.0118922
0.0125265
0.0130843
0.0135522
0.0139255
0.0142064
0.014399
0.0145092
0.0145453
0.0145163
0.014432
0.0143024
0.0141217
0.0138907
0.0136409
0.0134961
0.0134283
0.013462
0.0135423
0.0136858
0.0137755
0.0138645
0.0137901
0.0137598
0.0135285
0.0137203
0.0136897
0.0109057
0.00706479
0.00482312
0.00387541
0.00450049
0.00553264
0.00539234
0.00493219
0.00467103
0.00454808
0.00449878
0.00448568
0.0044846
0.00448074
0.00446655
0.0044402
0.00440403
0.00436369
0.00432751
0.00430767
0.00432324
0.00440124
0.00458022
0.00489977
0.00538149
0.00601635
0.00677342
0.00761422
0.00850233
0.00940647
0.0103009
0.0111645
0.0119787
0.0127277
0.0133994
0.0139849
0.0144683
0.0148468
0.0151225
0.0153002
0.0153867
0.0153906
0.0153215
0.0151892
0.0150031
0.0147534
0.0144575
0.0141685
0.0139887
0.0138874
0.0138932
0.0139535
0.0140858
0.0141667
0.0142517
0.0141644
0.0141331
0.0138832
0.0140994
0.0140541
0.0108979
0.00708403
0.00483494
0.00381525
0.0043123
0.00560852
0.00587208
0.00544222
0.0051178
0.00494873
0.00487092
0.00484134
0.00483152
0.00482358
0.00480783
0.00478108
0.00474491
0.00470438
0.00466724
0.00464499
0.00465657
0.00473025
0.00490792
0.0052346
0.00573718
0.00640743
0.00721179
0.00810795
0.00905603
0.0100219
0.0109773
0.0118986
0.0127653
0.013559
0.0142663
0.0148769
0.0153729
0.015753
0.0160197
0.0161786
0.0162371
0.0162046
0.0160912
0.0159063
0.0156581
0.0153356
0.0149786
0.014649
0.0144303
0.0142919
0.0142668
0.0143058
0.0144268
0.0145017
0.0145863
0.0144925
0.0144643
0.0142038
0.0144446
0.0143932
0.0108874
0.00709873
0.00484611
0.00376205
0.0041045
0.00553474
0.00623361
0.00595363
0.00558625
0.00536955
0.00525982
0.00521096
0.00519052
0.00517747
0.00515984
0.00513292
0.00509734
0.0050575
0.00502032
0.00499637
0.00500406
0.00507258
0.00524676
0.00557732
0.00609732
0.00680014
0.00764987
0.00860028
0.00960777
0.0106351
0.0116512
0.0126299
0.013548
0.0143851
0.0151258
0.0157587
0.016264
0.0166421
0.0168962
0.0170325
0.0170593
0.0169867
0.0168251
0.0165834
0.0162682
0.0158739
0.0154595
0.0150877
0.0148265
0.014648
0.0145894
0.0146056
0.0147154
0.0147873
0.0148756
0.0147817
0.0147616
0.0144981
0.0147646
0.0147142
0.0108755
0.00711036
0.00485732
0.00371757
0.00389837
0.00534799
0.00645098
0.00643145
0.00606969
0.00580964
0.00566596
0.00559535
0.00556241
0.00554313
0.00552316
0.00549619
0.00546176
0.00542344
0.0053872
0.00536242
0.00536655
0.00542935
0.00559811
0.00592928
0.00646301
0.00719516
0.00808796
0.00909118
0.0101572
0.0112453
0.0123215
0.0133566
0.0143249
0.0152036
0.0159755
0.0166274
0.0171389
0.0175114
0.0177492
0.0178594
0.0178511
0.017735
0.017522
0.01722
0.0168347
0.0163729
0.0159041
0.0154885
0.0151822
0.0149609
0.0148662
0.0148584
0.0149573
0.0150292
0.0151256
0.0150383
0.0150314
0.0147722
0.0150662
0.0150226
0.0108631
0.00711988
0.00486889
0.00368208
0.00370652
0.00508558
0.00651943
0.00683708
0.00655463
0.00626598
0.00608881
0.00599469
0.00594754
0.00592085
0.00589801
0.005871
0.00583818
0.0058022
0.00576792
0.00574332
0.00574447
0.00580132
0.005963
0.0062916
0.00683509
0.00759294
0.00852601
0.00958012
0.0107034
0.0118513
0.0129864
0.0140767
0.0150936
0.0160116
0.0168119
0.0174798
0.0179938
0.0183574
0.0185755
0.0186563
0.0186099
0.0184474
0.0181802
0.0178148
0.01736
0.0168359
0.0163154
0.015855
0.0155013
0.015235
0.015102
0.0150687
0.015157
0.015232
0.0153411
0.015267
0.0152791
0.0150311
0.0153547
0.0153223
0.0108507
0.00712797
0.00488092
0.00365509
0.00353549
0.00478081
0.00644878
0.00714171
0.0070178
0.00673235
0.00652658
0.00640853
0.00634582
0.00631063
0.0062843
0.00625715
0.00622632
0.00619343
0.00616215
0.00613887
0.00613787
0.00618891
0.00634223
0.00666521
0.00721434
0.00799378
0.00896378
0.0100663
0.011245
0.0124512
0.0136438
0.0147875
0.0158507
0.0168056
0.0176317
0.0183119
0.0188253
0.0191764
0.0193716
0.01942
0.0193327
0.0191214
0.0187975
0.0183669
0.0178467
0.0172653
0.0166954
0.0161896
0.0157872
0.0154744
0.0153011
0.0152409
0.0153188
0.0153996
0.0155261
0.015472
0.0155088
0.0152786
0.0156344
0.0156165
0.0108386
0.0071351
0.00489342
0.0036357
0.00338775
0.00446081
0.00625906
0.00732652
0.00743285
0.00719777
0.0069757
0.00683551
0.00675668
0.00671207
0.00668164
0.00665418
0.00662562
0.0065965
0.00656927
0.00654855
0.00654648
0.00659222
0.0067363
0.00705091
0.00760141
0.00839793
0.00940094
0.0105489
0.0117806
0.0130429
0.014291
0.015486
0.0165932
0.0175821
0.0184308
0.01912
0.0196293
0.0199649
0.0201342
0.0201475
0.0200169
0.0197546
0.019372
0.0188774
0.018297
0.0176627
0.0170458
0.0164944
0.0160428
0.0156822
0.015467
0.0153787
0.015446
0.0155354
0.015684
0.0156563
0.0157239
0.0155179
0.0159084
0.0159073
0.0108269
0.00714156
0.00490633
0.00362291
0.00326327
0.00414587
0.00597614
0.00738281
0.00777671
0.00764528
0.00743003
0.00727318
0.00717893
0.00712443
0.00708937
0.00706139
0.00703528
0.00701054
0.00698837
0.00697156
0.00696971
0.00701103
0.00714549
0.00744937
0.00799697
0.00880567
0.00983716
0.0110267
0.0123084
0.0136244
0.0149255
0.016169
0.0173174
0.0183374
0.0192056
0.0199002
0.0204022
0.0207192
0.0208599
0.0208357
0.0206598
0.0203447
0.0199027
0.0193482
0.0187123
0.0180293
0.0173676
0.0167712
0.0162705
0.0158617
0.0156033
0.0154855
0.015542
0.0156421
0.0158172
0.0158225
0.015927
0.0157512
0.0161791
0.0161962
0.0108159
0.00714758
0.00491955
0.00361574
0.00316057
0.00384989
0.00562786
0.00731191
0.00802903
0.00805676
0.00787972
0.0077175
0.00761058
0.0075465
0.00750654
0.00747784
0.00745429
0.00743446
0.00741831
0.0074068
0.00740668
0.00744482
0.0075698
0.00786108
0.00840161
0.00921731
0.0102722
0.011499
0.012827
0.0141934
0.0155444
0.0168335
0.0180199
0.0190678
0.0199524
0.0206489
0.0211405
0.0214361
0.0215457
0.021482
0.021259
0.0208897
0.0203906
0.0197805
0.0190937
0.0183657
0.0176615
0.0170213
0.0164722
0.0160152
0.0157128
0.0155641
0.0156092
0.0157219
0.0159278
0.0159724
0.0161199
0.0159802
0.016448
0.0164842
0.0108055
0.0071533
0.004933
0.00361324
0.00307746
0.0035813
0.00524111
0.00712383
0.00817449
0.00841387
0.00831237
0.00816221
0.00804859
0.00797648
0.00793181
0.00790233
0.00788145
0.00786696
0.00785774
0.00785292
0.00785623
0.00789276
0.00800894
0.00828638
0.00881591
0.00963325
0.0107059
0.0119648
0.0133348
0.0147478
0.0161451
0.0174765
0.0186974
0.0197698
0.0206674
0.0213625
0.0218408
0.0221125
0.0221888
0.0220837
0.0218122
0.0213895
0.0208367
0.0201754
0.0194419
0.0186726
0.0179283
0.0172456
0.0166494
0.016145
0.0157982
0.0156173
0.0156502
0.0157768
0.0160173
0.0161072
0.0163037
0.0162059
0.016716
0.0167717
0.0107958
0.00715882
0.00494658
0.00361458
0.00301147
0.00334424
0.00483971
0.0068353
0.00820421
0.00869865
0.00871446
0.00859883
0.0084885
0.00841184
0.00836344
0.0083334
0.00831531
0.00830655
0.00830508
0.00830835
0.00831693
0.00835368
0.0084623
0.0087254
0.00924035
0.010054
0.0111383
0.0124235
0.0138304
0.0152855
0.0167252
0.0180948
0.0193467
0.02044
0.0213474
0.0220377
0.0225001
0.0227455
0.0227867
0.0226388
0.0223186
0.021845
0.021242
0.0205335
0.0197575
0.0189501
0.0181681
0.0174448
0.0168035
0.0162528
0.0158616
0.0156474
0.015667
0.0158081
0.0160866
0.0162276
0.0164793
0.0164286
0.0169835
0.0170586
0.0107868
0.00716419
0.00496022
0.00361904
0.00296016
0.00313972
0.00444322
0.0064674
0.00811634
0.00889519
0.00907111
0.00901773
0.00892425
0.00884902
0.00879909
0.00876921
0.0087542
0.00875154
0.00875857
0.00877126
0.00878707
0.00882613
0.00892893
0.00917779
0.00967533
0.0104799
0.0115696
0.0128748
0.0143126
0.0158047
0.0172822
0.0186859
0.0199647
0.0210753
0.0219892
0.0226716
0.0231155
0.0233326
0.0233371
0.0231458
0.0227785
0.0222569
0.0216074
0.0208557
0.0200409
0.0191985
0.0183814
0.0176197
0.0169355
0.0163402
0.0159049
0.0156564
0.0156612
0.015817
0.0161364
0.0163339
0.0166465
0.0166482
0.0172503
0.0173445
0.0107785
0.00716945
0.00497383
0.003626
0.00292125
0.00296664
0.00406644
0.00604331
0.00791589
0.00899108
0.00936703
0.00940764
0.00934874
0.00928343
0.00923572
0.0092075
0.00919618
0.00920002
0.00921622
0.00923961
0.0092647
0.00930831
0.00940753
0.00964295
0.010121
0.0109117
0.0120001
0.0133182
0.0147806
0.0163039
0.017814
0.0192472
0.0205487
0.0216727
0.0225897
0.0232612
0.0236844
0.0238715
0.0238385
0.0236047
0.0231926
0.022626
0.0219335
0.0211426
0.0202924
0.019418
0.0185682
0.0177706
0.0170461
0.0164081
0.0159297
0.0156461
0.0156343
0.0158044
0.0161668
0.0164258
0.0168051
0.0168643
0.0175158
0.0176286
0.0107708
0.00717464
0.00498735
0.00363493
0.00289268
0.00282262
0.00371953
0.00558621
0.00761393
0.00897851
0.0095876
0.00975613
0.00975346
0.00970958
0.00966962
0.00964551
0.00963895
0.00964986
0.00967589
0.00971113
0.00974763
0.00979813
0.00989642
0.01012
0.0105775
0.0113498
0.0124304
0.0137541
0.0152337
0.0167818
0.0183187
0.0197763
0.021096
0.0222295
0.0231461
0.023804
0.0242045
0.0243605
0.0242906
0.024016
0.0235615
0.0229531
0.0222212
0.0213946
0.0205124
0.0196088
0.0187289
0.0178979
0.0171358
0.0164576
0.0159373
0.015618
0.0155877
0.0157709
0.0161778
0.0165028
0.0169542
0.0170758
0.0177789
0.0179099
0.0107636
0.00717975
0.00500074
0.00364539
0.00287264
0.00270462
0.00340846
0.00511759
0.00722633
0.00885494
0.00971996
0.0100501
0.0101286
0.0101208
0.0100963
0.01008
0.0100799
0.0100987
0.0101352
0.0101833
0.0102334
0.0102932
0.0103935
0.0106075
0.0110443
0.0117943
0.0128605
0.0141825
0.015672
0.0172376
0.018795
0.0202714
0.0216044
0.0227433
0.0236556
0.0242975
0.0246743
0.0247993
0.0246935
0.0243799
0.0238858
0.0232388
0.022471
0.0216123
0.0207013
0.0197712
0.0188637
0.0180019
0.0172051
0.0164893
0.0159286
0.0155732
0.0155224
0.015717
0.0161691
0.0165639
0.0170926
0.0172813
0.0180382
0.018187
0.0107571
0.00718481
0.00501393
0.00365701
0.0028596
0.00260936
0.00313579
0.00465603
0.00677232
0.00862327
0.00975407
0.0102764
0.0104634
0.0105094
0.0105103
0.0105071
0.010516
0.0105439
0.0105917
0.0106537
0.0107193
0.0107908
0.0108964
0.0111035
0.0115198
0.0122442
0.0132902
0.0146032
0.016095
0.0176707
0.0192417
0.0207309
0.022072
0.0232121
0.0241166
0.0247409
0.0250932
0.0251877
0.0250473
0.024697
0.0241662
0.0234841
0.0226839
0.0217963
0.0208594
0.0199053
0.0189727
0.0180829
0.0172543
0.0165037
0.0159044
0.0155129
0.0154395
0.0156429
0.0161401
0.016608
0.0172188
0.0174793
0.018292
0.0184583
0.0107511
0.0071898
0.0050269
0.00366949
0.00285225
0.00253361
0.00290142
0.00421642
0.00627289
0.0082916
0.00968355
0.010423
0.0107463
0.0108664
0.0109053
0.0109221
0.0109437
0.0109825
0.0110425
0.0111193
0.011202
0.0112878
0.0114019
0.0116052
0.0120021
0.0126986
0.013719
0.0150158
0.0165021
0.0180804
0.0196581
0.0211538
0.0224978
0.0236348
0.0245282
0.0251335
0.025461
0.0255259
0.0253525
0.0249681
0.0244035
0.0236896
0.0228603
0.021947
0.0209871
0.0200116
0.0190563
0.0181411
0.0172838
0.0165012
0.0158655
0.015438
0.0153396
0.0155489
0.0160901
0.0166338
0.017331
0.0176677
0.0185384
0.0187223
0.0107456
0.00719473
0.00503962
0.00368258
0.00284947
0.00247436
0.00270344
0.00380963
0.00574921
0.00787264
0.00950623
0.0104795
0.0109657
0.0111823
0.011274
0.0113197
0.0113589
0.0114112
0.0114847
0.0115773
0.0116786
0.0117812
0.0119069
0.0121097
0.0124892
0.0131561
0.0141462
0.01542
0.016893
0.0184661
0.0200434
0.0215394
0.0228808
0.0240107
0.0248897
0.0254752
0.0257779
0.0258141
0.0256098
0.0251939
0.0245986
0.0238561
0.023001
0.0220651
0.0210849
0.0200903
0.0191148
0.0181769
0.0172937
0.0164821
0.0158122
0.0153492
0.0152237
0.0154352
0.0160184
0.0166396
0.0174272
0.0178443
0.0187751
0.018977
0.0107405
0.00719959
0.00505205
0.00369607
0.00285037
0.00242888
0.00253879
0.00344263
0.00522122
0.0073828
0.00922451
0.0104378
0.0111104
0.0114466
0.0116083
0.0116938
0.0117568
0.0118261
0.011915
0.0120246
0.0121456
0.0122676
0.012408
0.0126139
0.0129785
0.0136153
0.0145709
0.0158152
0.0172674
0.0188277
0.0203972
0.0218871
0.0232208
0.0243396
0.0252013
0.0257661
0.0260442
0.026053
0.0258199
0.0253751
0.0247522
0.0239845
0.0231067
0.0221512
0.0211532
0.020142
0.0191486
0.0181906
0.0172844
0.0164465
0.0157449
0.015247
0.0150924
0.015302
0.0159243
0.0166238
0.017505
0.0180068
0.0189998
0.0192204
0.0107359
0.00720438
0.00506419
0.00370979
0.00285416
0.0023948
0.00240379
0.00311889
0.00470651
0.006841
0.0088453
0.0102931
0.0111703
0.0116489
0.0118993
0.0120374
0.0121322
0.0122229
0.0123296
0.0124576
0.0125998
0.0127435
0.0129015
0.0131142
0.0134671
0.014074
0.0149921
0.0162011
0.0176252
0.019165
0.0207195
0.0221968
0.0235177
0.0246214
0.0254633
0.0260065
0.0262604
0.0262433
0.0259836
0.0255127
0.0248654
0.0240755
0.0231781
0.0222057
0.0211926
0.020167
0.0191581
0.0181824
0.017256
0.0163948
0.0156638
0.0151321
0.0149463
0.0151496
0.0158069
0.0165846
0.0175623
0.0181526
0.0192099
0.0194504
0.0107317
0.00720908
0.005076
0.00372361
0.00286024
0.00237008
0.00229462
0.00283899
0.00421944
0.00626748
0.00837978
0.0100444
0.0111369
0.0117789
0.0121375
0.0123428
0.012479
0.0125969
0.0127247
0.0128728
0.0130375
0.0132051
0.0133837
0.0136068
0.0139517
0.01453
0.0154084
0.0165769
0.0179661
0.0194781
0.0210104
0.0224688
0.0237716
0.0248566
0.0256764
0.0261973
0.0264274
0.0263859
0.0261018
0.0256077
0.0249389
0.0241299
0.023216
0.0222294
0.0212035
0.0201657
0.0191436
0.0181528
0.0172088
0.0163269
0.0155691
0.0150048
0.0147861
0.0149783
0.0156657
0.0165205
0.0175965
0.0182791
0.0194028
0.019665
0.0107278
0.0072137
0.0050875
0.00373742
0.00286808
0.00235296
0.00220752
0.00260132
0.00377071
0.00568241
0.00784282
0.00969433
0.0110043
0.011827
0.0123134
0.0126018
0.0127906
0.0129427
0.0130956
0.0132661
0.0134548
0.0136486
0.0138504
0.0140878
0.0144288
0.0149807
0.015818
0.0169418
0.0182898
0.0197669
0.0212702
0.0227036
0.0239832
0.0250459
0.0258415
0.0263393
0.0265462
0.0264818
0.0261757
0.0256611
0.0249739
0.0241488
0.0232211
0.0222228
0.0211866
0.0201388
0.0191056
0.018102
0.017143
0.0162431
0.015461
0.0148655
0.0146125
0.0147884
0.0155001
0.0164295
0.0176052
0.0183834
0.0195758
0.0198618
0.0107243
0.00721823
0.00509865
0.00375113
0.00287727
0.002342
0.00213902
0.00240276
0.00336726
0.00510466
0.00725211
0.00924998
0.0107693
0.0117849
0.0124173
0.0128056
0.0130595
0.0132543
0.0134375
0.0136334
0.0138478
0.0140699
0.0142976
0.0145529
0.0148945
0.0154228
0.0162191
0.0172948
0.0185961
0.0200317
0.0214993
0.0229017
0.0241534
0.0251902
0.0259596
0.0264336
0.026618
0.0265323
0.0262065
0.0256741
0.0249712
0.0241329
0.0231941
0.0221868
0.0211424
0.0200868
0.0190446
0.0180305
0.0170589
0.0161434
0.0153396
0.0147144
0.014426
0.0145805
0.0153097
0.0163103
0.0175858
0.0184629
0.0197262
0.0200388
0.0107211
0.00722265
0.00510947
0.00376466
0.00288746
0.00233597
0.00208598
0.00223934
0.00301252
0.00455076
0.00662719
0.00872221
0.0104323
0.0116462
0.0124405
0.0129454
0.013278
0.0135253
0.013745
0.01397
0.0142122
0.0144648
0.0147209
0.0149978
0.0153446
0.0158532
0.0166092
0.0176346
0.0188845
0.0202726
0.0216983
0.023064
0.0242832
0.0252908
0.0260321
0.0264817
0.0266441
0.0265388
0.0261953
0.0256477
0.0249319
0.0240831
0.023136
0.0221218
0.0210716
0.0200101
0.018961
0.0179385
0.0169565
0.0160281
0.0152049
0.0145518
0.0142271
0.0143551
0.0150942
0.0161612
0.017536
0.0185148
0.0198512
0.0201936
0.0107182
0.00722697
0.00511994
0.00377797
0.00289836
0.00233388
0.00204569
0.00210668
0.00270689
0.00403402
0.00598824
0.00812549
0.00999731
0.0114069
0.0123749
0.0130122
0.0134381
0.0137486
0.0140122
0.0142709
0.0145435
0.0148285
0.0151157
0.0154178
0.0157745
0.0162679
0.0169858
0.0179597
0.0191544
0.0204898
0.021868
0.0231916
0.0243739
0.0253491
0.0260605
0.0264852
0.0266262
0.0265025
0.0261436
0.0255832
0.0248572
0.0240005
0.0230474
0.0220288
0.0209747
0.0199093
0.0188553
0.0178264
0.0168363
0.015897
0.015057
0.0143778
0.0140166
0.0141131
0.0148537
0.015981
0.0174533
0.0185363
0.0199481
0.0203243
0.0107155
0.00723118
0.00513006
0.003791
0.00290976
0.00233489
0.0020158
0.00200042
0.00244843
0.00356409
0.00535486
0.00747722
0.0094721
0.0110659
0.0122141
0.0129979
0.0135313
0.013917
0.014233
0.0145307
0.0148369
0.0151561
0.0154774
0.015808
0.0161794
0.0166628
0.0173458
0.0182682
0.019405
0.0206834
0.0220088
0.0232855
0.0244268
0.0253666
0.0260465
0.0264456
0.0265657
0.0264252
0.0260528
0.025482
0.0247481
0.0238859
0.0229292
0.0219083
0.0208524
0.019785
0.0187279
0.0176946
0.0166983
0.0157504
0.0148958
0.0141926
0.0137948
0.0138552
0.0145884
0.0157687
0.0173356
0.0185247
0.0200142
0.0204285
0.0107131
0.00723528
0.00513984
0.00380373
0.00292148
0.00233834
0.00199434
0.00191642
0.00223354
0.0031468
0.00474487
0.00679685
0.00886831
0.0106253
0.011954
0.012895
0.0135497
0.0140228
0.0144005
0.0147436
0.0150873
0.0154428
0.015801
0.0161637
0.0165544
0.0170335
0.0176857
0.0185578
0.0196352
0.0208531
0.0221216
0.023347
0.0244435
0.025345
0.0259917
0.0263648
0.0264646
0.0263085
0.0259244
0.0253452
0.0246059
0.0237405
0.0227823
0.0217611
0.0207052
0.0196376
0.0185793
0.0175433
0.0165427
0.0155882
0.0147213
0.0139963
0.0135622
0.0135824
0.0142988
0.0155234
0.0171809
0.0184774
0.020047
0.0205043
0.0107109
0.00723926
0.00514928
0.00381613
0.00293335
0.00234367
0.00197965
0.00185093
0.00205763
0.00278442
0.00417329
0.00610484
0.00820102
0.0100909
0.0115925
0.0126975
0.0134854
0.0140584
0.0145079
0.0149035
0.0152893
0.0156838
0.0160817
0.0164796
0.0168944
0.0173753
0.0180017
0.0188262
0.0198438
0.0209987
0.0222067
0.023377
0.0244255
0.0252859
0.0258982
0.0262448
0.0263246
0.026154
0.0257599
0.0251744
0.0244316
0.0235652
0.0226075
0.0215879
0.0205339
0.0194677
0.0184097
0.0173728
0.0163697
0.0154105
0.0145334
0.0137887
0.0133193
0.0132956
0.0139857
0.0152446
0.0169873
0.0183921
0.0200438
0.0205497
0.0107089
0.00724311
0.00515837
0.00382817
0.00294527
0.00235043
0.00197036
0.00180064
0.00191568
0.00247618
0.00365156
0.0054214
0.00748821
0.00947226
0.011131
0.012401
0.0133318
0.0140161
0.014548
0.0150042
0.0154373
0.0158738
0.0163141
0.0167506
0.017194
0.017683
0.0182897
0.0190702
0.020029
0.0211196
0.0222645
0.0233767
0.0243742
0.0251909
0.0257677
0.0260873
0.0261476
0.0259635
0.0255609
0.0249708
0.0242266
0.023361
0.0224058
0.0213896
0.0203389
0.0192758
0.0182197
0.0171834
0.0161794
0.0152172
0.014332
0.0135698
0.0130664
0.0129959
0.0136501
0.0149322
0.0167533
0.0182663
0.0200025
0.0205628
0.0107071
0.00724685
0.00516712
0.00383984
0.00295714
0.00235827
0.00196537
0.00176273
0.00180267
0.00221893
0.00318715
0.00476523
0.00674997
0.00878247
0.0105739
0.0120036
0.0130831
0.0138891
0.0145138
0.015039
0.0155254
0.0160076
0.0164929
0.0169713
0.0174479
0.0179514
0.0185451
0.0192865
0.0201887
0.0212149
0.0222951
0.0233469
0.0242912
0.0250618
0.0256022
0.0258945
0.0259354
0.0257388
0.025329
0.0247359
0.0239919
0.023129
0.0221779
0.0211666
0.020121
0.0190623
0.0180095
0.0169753
0.0159719
0.0150084
0.0141169
0.0133396
0.0128038
0.0126842
0.0132934
0.0145864
0.0164775
0.0180982
0.0199207
0.0205417
0.0107054
0.00725046
0.00517554
0.00385114
0.00296888
0.0023669
0.00196374
0.00173478
0.00171389
0.00200797
0.00278352
0.00415236
0.00600745
0.0080381
0.00992951
0.0115061
0.0127355
0.0136712
0.0143984
0.0150014
0.0155475
0.0160797
0.0166123
0.0171363
0.0176506
0.018175
0.0187629
0.0194712
0.0203205
0.0212835
0.0222983
0.0232883
0.0241777
0.0249004
0.0254036
0.0256682
0.0256901
0.0254816
0.0250657
0.0244711
0.0237289
0.0228701
0.0219247
0.0209198
0.0198805
0.0188276
0.0177795
0.0167487
0.0157472
0.0147838
0.013888
0.0130977
0.0125315
0.0123617
0.0129169
0.0142077
0.0161592
0.0178857
0.0197963
0.0204849
0.0107039
0.00725394
0.00518362
0.00386206
0.00298044
0.00237607
0.00196475
0.00171481
0.00164506
0.00183771
0.00244055
0.00359519
0.00528155
0.00725857
0.00920962
0.0109125
0.0122873
0.0133574
0.0141955
0.0148848
0.0154977
0.0160845
0.0166671
0.01724
0.0177963
0.0183479
0.0189379
0.0196202
0.0204214
0.0213236
0.0222737
0.0232012
0.0240348
0.0247084
0.0251737
0.0254103
0.0254133
0.0251936
0.0247726
0.0241776
0.0234385
0.0225853
0.021647
0.0206497
0.019618
0.018572
0.0175297
0.0165035
0.0155053
0.0145434
0.0136449
0.0128438
0.0122497
0.0120291
0.0125225
0.0137972
0.0157977
0.0176274
0.0196274
0.0203906
0.0107026
0.00725729
0.00519139
0.00387259
0.00299177
0.00238561
0.00196779
0.00170117
0.00159247
0.00170231
0.0021552
0.00310183
0.00459163
0.00646525
0.00842983
0.0102304
0.0117394
0.0129445
0.0138998
0.0146832
0.0153699
0.0160163
0.016652
0.0172768
0.0178794
0.0184644
0.0190644
0.0197288
0.0204879
0.0213332
0.0222203
0.0230858
0.0238631
0.0244871
0.0249139
0.0251224
0.0251066
0.0248763
0.024451
0.0238567
0.023122
0.0222755
0.0213454
0.020357
0.0193339
0.0182959
0.0172605
0.01624
0.015246
0.0142869
0.0133874
0.0125778
0.0119581
0.0116875
0.0121121
0.0133563
0.0153929
0.0173219
0.0194124
0.0202575
0.0107014
0.00726052
0.00519883
0.00388273
0.00300283
0.00239535
0.00197238
0.00169253
0.00155295
0.00159611
0.00192234
0.002676
0.00395412
0.00568036
0.00760899
0.00947109
0.0110959
0.0124313
0.0135071
0.0143912
0.0151582
0.0158696
0.0165619
0.017241
0.017894
0.0185185
0.0191367
0.0197917
0.0205162
0.0213096
0.0221367
0.0229416
0.023663
0.0242374
0.0246257
0.024806
0.0247717
0.0245311
0.0241024
0.0235096
0.0227801
0.0219415
0.0210205
0.0200419
0.0190285
0.0179994
0.0169718
0.0159579
0.0149693
0.014014
0.013115
0.012299
0.0116566
0.0113373
0.0116875
0.0128868
0.0149453
0.0169683
0.0191498
0.0200842
0.0107003
0.00726362
0.00520595
0.00389249
0.00301359
0.00240518
0.00197814
0.00168779
0.00152384
0.00151392
0.00173565
0.00231731
0.0033814
0.00492558
0.00676865
0.0086497
0.0103642
0.0118192
0.013015
0.0140043
0.0148575
0.015639
0.0163915
0.0171274
0.0178347
0.0185041
0.0191486
0.0198035
0.0205018
0.0212497
0.022021
0.0227679
0.0234343
0.02396
0.02431
0.0244623
0.0244098
0.0241594
0.0237277
0.0231373
0.0224139
0.0215838
0.0206729
0.0197049
0.0187019
0.0176825
0.0166636
0.0156571
0.0146748
0.0137245
0.0128273
0.012007
0.0113449
0.0109792
0.0112508
0.0123909
0.0144556
0.0165659
0.0188382
0.0198695
0.0106992
0.00726659
0.00521277
0.00390187
0.00302403
0.00241501
0.00198475
0.00168609
0.00150296
0.00145116
0.00158835
0.00202203
0.00288109
0.00422047
0.00593196
0.00778502
0.00955589
0.011113
0.0124233
0.0135193
0.0144633
0.0153197
0.016136
0.016931
0.0176956
0.0184154
0.0190941
0.0197583
0.0204396
0.0211496
0.0218707
0.0225632
0.0231762
0.023655
0.0239674
0.0240922
0.0240219
0.0237622
0.023328
0.0227405
0.0220238
0.0212031
0.0203029
0.0193462
0.0183543
0.0173453
0.0163357
0.0153375
0.0143622
0.0134178
0.0125238
0.0117012
0.0110225
0.0106135
0.010804
0.0118714
0.0139251
0.0161146
0.0184768
0.0196125
0.0106983
0.00726943
0.00521929
0.00391086
0.00303414
0.00242475
0.00199197
0.00168673
0.00148853
0.00140393
0.00147384
0.00178401
0.00245586
0.003581
0.00512237
0.00689897
0.00868623
0.0103208
0.0117344
0.0129351
0.0139722
0.0149072
0.0157907
0.0166472
0.0174716
0.0182466
0.0189668
0.01965
0.0203243
0.0210051
0.0216827
0.0223255
0.0228878
0.0233218
0.023598
0.0236962
0.0236086
0.02334
0.0229039
0.0223198
0.0216104
0.0207995
0.0199107
0.0189658
0.0179855
0.0169875
0.0159878
0.0149985
0.0140311
0.0130935
0.0122039
0.011381
0.0106889
0.0102403
0.0103491
0.0113311
0.0133558
0.0156146
0.0180647
0.0193121
0.0106975
0.00727215
0.00522552
0.00391949
0.00304391
0.00243435
0.0019996
0.00168916
0.00147915
0.00136897
0.00138604
0.00159579
0.00210382
0.00301828
0.00436195
0.00601573
0.00777453
0.00945462
0.0109541
0.0122525
0.0133824
0.0143983
0.0153516
0.0162718
0.0171581
0.017992
0.0187606
0.0194722
0.02015
0.0208113
0.0214532
0.0220521
0.0225675
0.0229598
0.0232016
0.0232743
0.0231703
0.0228933
0.0224557
0.0218755
0.0211738
0.0203733
0.0194961
0.0185636
0.0175954
0.0166088
0.0156196
0.0146398
0.0136809
0.0127511
0.0118671
0.0110457
0.0103433
0.00985961
0.00988774
0.0107734
0.0127502
0.0150665
0.0176016
0.0189677
0.0106968
0.00727474
0.00523146
0.00392775
0.00305334
0.00244377
0.00200749
0.00169293
0.00147366
0.00134363
0.00131962
0.00144949
0.00181947
0.00253782
0.00366957
0.00516037
0.00684363
0.00853088
0.0100917