/*--------------------------------*- C++ -*----------------------------------*\
| =========                 |                                                 |
| \\      /  F ield         | OpenFOAM: The Open Source CFD Toolbox           |
|  \\    /   O peration     | Version:  2.4.0                                 |
|   \\  /    A nd           | Web:      www.OpenFOAM.org                      |
|    \\/     M anipulation  |                                                 |
\*---------------------------------------------------------------------------*/
FoamFile
{
    version     2.0;
    format      ascii;
    class       volScalarField;
    location    "3.64";
    object      p;
}
// * * * * * * * * * * * * * * * * * * * * * * * * * * * * * * * * * * * * * //

dimensions      [0 2 -2 0 0 0 0];

internalField   nonuniform List<scalar> 
6000
(
-0.134926
0.221925
0.17918
0.199042
0.191664
0.196481
0.193555
0.195661
0.19449
0.195273
0.194304
0.19372
0.192215
0.191112
0.190621
0.191878
0.19477
0.197487
0.196781
0.193062
0.194472
0.19963
0.197448
0.186581
0.172317
0.160874
0.152444
0.146745
0.143285
0.142016
0.142936
0.1462
0.151957
0.160398
0.171712
0.18605
0.203505
0.224083
0.247653
0.273905
0.302248
0.331721
0.360793
0.387367
0.408871
0.422582
0.426004
0.417917
0.398686
0.370993
0.337881
0.303927
0.270185
0.241266
0.211028
0.19043
0.154507
0.143332
0.0725255
0.0846888
-0.108586
0.21851
0.179254
0.198889
0.191685
0.196464
0.193562
0.195655
0.194506
0.195306
0.194369
0.193803
0.192292
0.19114
0.190539
0.191623
0.194301
0.196854
0.196213
0.192859
0.194548
0.199958
0.198237
0.187419
0.172868
0.161203
0.152646
0.146852
0.1433
0.141939
0.142771
0.145934
0.151621
0.160011
0.171268
0.185552
0.202952
0.223469
0.24697
0.273134
0.301364
0.33069
0.359576
0.38594
0.407255
0.420773
0.424021
0.415803
0.39651
0.368834
0.335805
0.301972
0.268332
0.239747
0.209741
0.189232
0.15345
0.142063
0.0714008
0.0831951
-0.0916978
0.215056
0.179283
0.198798
0.191692
0.196456
0.193563
0.195656
0.194521
0.195347
0.194432
0.19389
0.192373
0.191177
0.190468
0.191363
0.1938
0.196174
0.19561
0.192646
0.19463
0.200243
0.198866
0.188078
0.173404
0.161656
0.153004
0.147104
0.143442
0.141974
0.1427
0.145769
0.151336
0.159604
0.170743
0.184907
0.202184
0.222574
0.245937
0.271948
0.300005
0.329134
0.357801
0.383935
0.405039
0.418379
0.421506
0.413257
0.394036
0.366532
0.333748
0.300222
0.266943
0.238511
0.208636
0.188339
0.1525
0.141351
0.0702986
0.0827006
-0.0794742
0.211203
0.179494
0.198714
0.191691
0.196447
0.193562
0.195658
0.194535
0.195388
0.194491
0.193971
0.192445
0.191207
0.190391
0.191111
0.193334
0.195574
0.195099
0.192454
0.194678
0.200435
0.199261
0.188463
0.173781
0.162052
0.153344
0.147353
0.143585
0.142007
0.142618
0.145575
0.151024
0.159165
0.170176
0.184212
0.201361
0.221618
0.244842
0.270706
0.298602
0.327555
0.356034
0.381974
0.402868
0.416022
0.419009
0.410698
0.391511
0.364146
0.331578
0.298329
0.265267
0.237125
0.207421
0.187393
0.151476
0.140644
0.0690933
0.0823126
-0.0676661
0.207077
0.179876
0.198633
0.191689
0.196435
0.193562
0.195661
0.194547
0.195424
0.194543
0.194043
0.192507
0.191229
0.190313
0.190877
0.192922
0.195075
0.194705
0.192302
0.194696
0.200532
0.199444
0.188597
0.173987
0.162339
0.153606
0.147543
0.143681
0.142002
0.142505
0.14535
0.150687
0.158712
0.169606
0.183526
0.20056
0.220702
0.243807
0.269548
0.297313
0.326128
0.354459
0.38024
0.400946
0.41392
0.416751
0.408339
0.389126
0.361835
0.32942
0.296399
0.263544
0.235691
0.206141
0.186403
0.150387
0.139943
0.0678048
0.0820525
-0.0560805
0.20284
0.180384
0.198538
0.191694
0.196419
0.193562
0.195662
0.194558
0.195457
0.194588
0.194105
0.192559
0.191243
0.190234
0.190656
0.192549
0.194648
0.194397
0.192192
0.194709
0.200555
0.199462
0.188544
0.174068
0.162536
0.153796
0.147676
0.14373
0.141957
0.142361
0.145101
0.150331
0.15825
0.169037
0.182853
0.199784
0.219825
0.242829
0.268465
0.296123
0.324825
0.353038
0.378683
0.399225
0.412032
0.414703
0.406166
0.386889
0.359624
0.327316
0.294489
0.261834
0.234253
0.204843
0.185408
0.149274
0.13927
0.0664836
0.0819115
-0.045339
0.198592
0.180922
0.198414
0.191713
0.196399
0.193563
0.195662
0.194569
0.195487
0.194629
0.194162
0.192607
0.191254
0.190155
0.190443
0.192201
0.194266
0.194148
0.192127
0.194734
0.200532
0.199355
0.188357
0.174065
0.162666
0.153932
0.147763
0.143742
0.141882
0.142191
0.144832
0.149961
0.157778
0.168466
0.182184
0.19902
0.218968
0.241881
0.267426
0.294989
0.323595
0.351707
0.377232
0.397633
0.410285
0.412798
0.404124
0.384759
0.357492
0.325262
0.292608
0.260142
0.232824
0.203549
0.184425
0.148163
0.138636
0.065164
0.0818755
-0.0354984
0.194407
0.181419
0.198273
0.191738
0.196378
0.193564
0.195661
0.194579
0.195515
0.194668
0.194216
0.19265
0.191262
0.190075
0.190235
0.191869
0.193917
0.19395
0.192107
0.194787
0.200487
0.199156
0.188079
0.174002
0.162744
0.154025
0.147816
0.143724
0.141781
0.141999
0.144545
0.149576
0.157296
0.167888
0.181513
0.198258
0.21812
0.240947
0.266407
0.293886
0.322407
0.350429
0.375848
0.396123
0.408631
0.410989
0.40217
0.3827
0.355411
0.32324
0.290744
0.258458
0.231401
0.202261
0.183458
0.147065
0.138043
0.0638633
0.0819293
-0.0263288
0.190346
0.181826
0.198127
0.191758
0.196356
0.193566
0.19566
0.19459
0.195541
0.194706
0.194266
0.192692
0.191267
0.189996
0.190031
0.191548
0.193591
0.193795
0.192136
0.194883
0.200441
0.198896
0.187743
0.1739
0.162784
0.154085
0.14784
0.143682
0.14166
0.141789
0.144242
0.149179
0.156803
0.167302
0.180836
0.197495
0.217272
0.240018
0.265398
0.292798
0.321241
0.349182
0.374508
0.394668
0.407042
0.409246
0.400274
0.380686
0.353357
0.321232
0.288884
0.256773
0.22998
0.200979
0.182506
0.145984
0.13749
0.0625902
0.0820622
-0.0176756
0.18645
0.182119
0.197978
0.191773
0.196336
0.19357
0.195658
0.194601
0.195567
0.194742
0.194315
0.192732
0.191272
0.189916
0.18983
0.191235
0.193282
0.193674
0.192219
0.195034
0.200409
0.198605
0.187377
0.173774
0.162795
0.154118
0.147841
0.14362
0.141521
0.141564
0.143926
0.148769
0.156301
0.166708
0.180153
0.196726
0.21642
0.239086
0.264389
0.291714
0.320086
0.347952
0.373193
0.393249
0.405494
0.407544
0.398412
0.378693
0.351313
0.319223
0.287018
0.255082
0.228556
0.1997
0.181567
0.144923
0.136974
0.0613499
0.0822666
-0.00948616
0.182741
0.182295
0.197809
0.19181
0.196318
0.193576
0.195657
0.194613
0.195593
0.194779
0.194364
0.192772
0.191277
0.189838
0.189631
0.190928
0.192986
0.193582
0.192357
0.195249
0.200409
0.198306
0.187005
0.173638
0.162786
0.154133
0.147824
0.143543
0.141368
0.141326
0.143599
0.14835
0.15579
0.166106
0.179462
0.195949
0.215561
0.238147
0.263374
0.290626
0.318931
0.346725
0.371889
0.391847
0.403967
0.405862
0.396564
0.376704
0.349262
0.317201
0.285137
0.253378
0.227126
0.198424
0.180641
0.143881
0.136497
0.0601452
0.0825366
-0.00173178
0.179233
0.182355
0.197615
0.191877
0.196301
0.193586
0.195655
0.194626
0.195618
0.194816
0.194412
0.192812
0.191282
0.189761
0.189435
0.190625
0.192698
0.193513
0.192549
0.195535
0.200455
0.198022
0.186646
0.173504
0.162766
0.154135
0.147796
0.143455
0.141206
0.14108
0.143264
0.147923
0.15527
0.165495
0.178762
0.195162
0.214692
0.237198
0.262348
0.289527
0.317767
0.345492
0.370584
0.390449
0.402446
0.404184
0.394713
0.374703
0.34719
0.315154
0.283232
0.251657
0.225687
0.197149
0.179727
0.142861
0.136055
0.0589777
0.0828675
0.00562273
0.175935
0.182307
0.197388
0.191976
0.196277
0.193601
0.195654
0.19464
0.195644
0.194854
0.194461
0.192853
0.191289
0.189687
0.189243
0.190325
0.192415
0.193463
0.192791
0.195894
0.200558
0.197769
0.186316
0.173381
0.162743
0.15413
0.147761
0.14336
0.141037
0.140828
0.142923
0.14749
0.154745
0.164877
0.178054
0.194366
0.213811
0.236236
0.261307
0.288413
0.316588
0.344246
0.369268
0.389041
0.400917
0.402494
0.392843
0.372674
0.345086
0.313074
0.281298
0.249914
0.224235
0.195874
0.178823
0.141862
0.13565
0.0578481
0.0832553
0.0126124
0.172855
0.182161
0.197121
0.192108
0.19624
0.193622
0.195654
0.194656
0.195669
0.194893
0.194511
0.192896
0.191298
0.189617
0.189055
0.190029
0.192136
0.193428
0.193081
0.196324
0.200726
0.197563
0.186028
0.173278
0.162724
0.154125
0.147722
0.143262
0.140865
0.140572
0.142578
0.147053
0.154214
0.164253
0.177338
0.193561
0.212919
0.23526
0.26025
0.287282
0.315389
0.342981
0.367933
0.387616
0.399368
0.40078
0.39094
0.370606
0.342938
0.310951
0.279326
0.248144
0.222768
0.194596
0.17793
0.140885
0.13528
0.0567563
0.0836968
0.0192649
0.169993
0.181927
0.19681
0.192254
0.196201
0.193648
0.195657
0.194674
0.195696
0.194933
0.194562
0.192941
0.19131
0.189551
0.188872
0.189737
0.19186
0.193405
0.193413
0.19682
0.200962
0.197414
0.185791
0.173201
0.162715
0.154123
0.147685
0.143164
0.140693
0.140316
0.142233
0.146615
0.153681
0.163625
0.176616
0.192748
0.212016
0.234269
0.259176
0.286131
0.314167
0.341693
0.366574
0.386165
0.397791
0.399031
0.388995
0.368487
0.340736
0.308778
0.277313
0.246344
0.221284
0.193316
0.177047
0.13993
0.134944
0.055702
0.0841893
0.0256021
0.167348
0.181619
0.196456
0.192401
0.196169
0.193673
0.195664
0.194695
0.195725
0.194975
0.194614
0.192989
0.191326
0.189491
0.188697
0.189452
0.191587
0.193391
0.193783
0.197373
0.201268
0.19733
0.185613
0.173158
0.162721
0.15413
0.147653
0.14307
0.140523
0.140062
0.141889
0.146177
0.153147
0.162995
0.17589
0.191927
0.211102
0.233265
0.258085
0.28496
0.312921
0.340379
0.365186
0.384681
0.396175
0.397237
0.386995
0.366308
0.338473
0.306548
0.275252
0.244511
0.21978
0.192032
0.176173
0.138997
0.134643
0.0546846
0.0847307
0.0316424
0.164917
0.181248
0.19606
0.192541
0.196144
0.193701
0.195675
0.19472
0.195755
0.19502
0.194668
0.193039
0.191346
0.189437
0.18853
0.189174
0.191319
0.193384
0.194184
0.197974
0.201639
0.197317
0.185499
0.173151
0.162747
0.154148
0.147629
0.142982
0.140359
0.139812
0.141549
0.145742
0.152615
0.162364
0.175161
0.1911
0.21018
0.232249
0.256978
0.283768
0.311651
0.339038
0.363765
0.383159
0.394515
0.395388
0.384932
0.364058
0.33614
0.304255
0.27314
0.242642
0.218256
0.190743
0.175308
0.138086
0.134376
0.0537034
0.0853192
0.0374025
0.162693
0.180827
0.195627
0.192668
0.196127
0.193732
0.195691
0.194751
0.195788
0.195067
0.194725
0.193093
0.19137
0.189391
0.188373
0.188907
0.191057
0.193384
0.19461
0.198611
0.202069
0.197375
0.185452
0.173186
0.162797
0.154183
0.147616
0.142903
0.140203
0.13957
0.141215
0.145312
0.152086
0.161735
0.174431
0.19027
0.209251
0.231221
0.255856
0.282556
0.310356
0.337667
0.362309
0.381595
0.392803
0.393477
0.382795
0.36173
0.333729
0.301894
0.270973
0.240735
0.216709
0.189449
0.174451
0.137197
0.134142
0.0527575
0.0859536
0.0428972
0.160671
0.180369
0.195161
0.192777
0.196116
0.193776
0.195709
0.194787
0.195826
0.195118
0.194784
0.193151
0.1914
0.189354
0.188229
0.188653
0.190804
0.19339
0.195055
0.199273
0.202548
0.197506
0.185474
0.173264
0.162874
0.154236
0.147617
0.142837
0.140058
0.139338
0.14089
0.144889
0.151564
0.16111
0.173703
0.189439
0.208316
0.230185
0.25472
0.281325
0.309039
0.336266
0.360816
0.379984
0.391033
0.391495
0.380576
0.359314
0.331233
0.299458
0.268747
0.238787
0.215139
0.18815
0.173603
0.13633
0.133941
0.051846
0.0866327
0.0481402
0.158842
0.179885
0.194669
0.192864
0.196107
0.193839
0.195723
0.194828
0.195868
0.195174
0.194846
0.193212
0.191435
0.189326
0.188098
0.188415
0.190563
0.193401
0.195513
0.199947
0.203067
0.197705
0.185566
0.173387
0.162982
0.154311
0.147635
0.142785
0.139925
0.139118
0.140576
0.144477
0.15105
0.160492
0.172979
0.188608
0.20738
0.229142
0.253573
0.280078
0.3077
0.334836
0.359284
0.378324
0.3892
0.389435
0.378267
0.356801
0.328645
0.296942
0.266459
0.236796
0.213544
0.186843
0.172763
0.135486
0.133774
0.050968
0.0873558
0.0531438
0.157198
0.179386
0.194156
0.192926
0.196097
0.193919
0.195737
0.194874
0.195917
0.195235
0.194912
0.193278
0.191477
0.189308
0.187982
0.188195
0.190335
0.193416
0.195977
0.200625
0.203614
0.19797
0.185725
0.173556
0.163121
0.154409
0.147672
0.142749
0.139808
0.138911
0.140275
0.144076
0.150546
0.159883
0.172262
0.187782
0.206443
0.228096
0.252418
0.278817
0.306341
0.333378
0.357713
0.376611
0.387299
0.387291
0.375858
0.354185
0.325959
0.294343
0.264106
0.234761
0.211925
0.185531
0.171933
0.134663
0.133641
0.0501224
0.0881224
0.0579199
0.15573
0.17888
0.193631
0.192962
0.196083
0.194014
0.195753
0.194925
0.195972
0.195304
0.194983
0.193349
0.191525
0.189302
0.187883
0.187995
0.190124
0.193436
0.196442
0.201298
0.204178
0.198293
0.185949
0.173772
0.163293
0.154533
0.14773
0.142732
0.139708
0.138722
0.139989
0.14369
0.150056
0.159285
0.171554
0.186962
0.20551
0.227048
0.251256
0.277545
0.304963
0.331892
0.356102
0.374843
0.385326
0.385054
0.373343
0.351457
0.323168
0.291656
0.261685
0.23268
0.210281
0.184211
0.171111
0.133863
0.133542
0.0493082
0.0889324
0.0624794
0.154429
0.178377
0.193099
0.192973
0.196063
0.194121
0.195776
0.194978
0.196032
0.195381
0.19506
0.193426
0.19158
0.189306
0.187802
0.187818
0.189932
0.193461
0.196903
0.201959
0.204748
0.198668
0.186234
0.174033
0.1635
0.154684
0.147811
0.142736
0.139627
0.13855
0.139722
0.143321
0.149581
0.158701
0.170858
0.186151
0.204583
0.226003
0.250092
0.276265
0.30357
0.33038
0.354451
0.37302
0.383276
0.38272
0.370713
0.34861
0.320267
0.288877
0.259195
0.230553
0.208611
0.182884
0.1703
0.133085
0.133477
0.0485244
0.0897855
0.0668327
0.153285
0.177882
0.192565
0.192958
0.196035
0.194237
0.195809
0.195034
0.196095
0.195468
0.195144
0.193509
0.191643
0.189323
0.18774
0.187664
0.189761
0.193489
0.197354
0.202601
0.205314
0.199085
0.186576
0.174337
0.163742
0.154863
0.147917
0.142761
0.139566
0.138399
0.139473
0.142971
0.149125
0.158134
0.170176
0.185353
0.203665
0.224963
0.248929
0.27498
0.302164
0.328844
0.352763
0.371139
0.381147
0.380282
0.367962
0.345637
0.31725
0.286002
0.256635
0.228378
0.206916
0.181551
0.169498
0.132329
0.133446
0.0477699
0.090682
0.07099
0.152288
0.177401
0.192036
0.192921
0.196
0.194361
0.19585
0.195097
0.196157
0.195564
0.195236
0.1936
0.191713
0.189353
0.187696
0.187536
0.189611
0.193522
0.197791
0.20322
0.20587
0.199537
0.186968
0.174682
0.164018
0.155072
0.148048
0.142811
0.139529
0.138269
0.139247
0.142642
0.148688
0.157586
0.169512
0.18457
0.202759
0.223932
0.24777
0.273693
0.300748
0.327287
0.351037
0.369201
0.378935
0.377735
0.365083
0.342532
0.314114
0.28303
0.254002
0.226156
0.205196
0.180211
0.168708
0.131595
0.133451
0.0470435
0.0916221
0.0749608
0.151429
0.176939
0.191516
0.192864
0.195956
0.194489
0.195901
0.195171
0.196219
0.195666
0.195338
0.193699
0.191793
0.189396
0.187673
0.187434
0.189484
0.193558
0.198209
0.203812
0.206408
0.200015
0.187405
0.175066
0.164329
0.155311
0.148206
0.142885
0.139516
0.138164
0.139044
0.142336
0.148275
0.157059
0.168869
0.183805
0.201869
0.222913
0.24662
0.272409
0.299326
0.325711
0.349275
0.367205
0.376639
0.375076
0.362071
0.33929
0.310855
0.279959
0.251298
0.223887
0.203453
0.178864
0.167929
0.130883
0.133491
0.0463443
0.0926063
0.0787545
0.1507
0.1765
0.191009
0.192791
0.195905
0.194619
0.19596
0.195257
0.196282
0.195772
0.19545
0.19381
0.191883
0.189451
0.18767
0.187359
0.189382
0.193598
0.198606
0.204373
0.206924
0.200509
0.187878
0.175488
0.164674
0.155579
0.148391
0.142986
0.139528
0.138084
0.138866
0.142056
0.147886
0.156557
0.168248
0.183061
0.200998
0.221911
0.245481
0.27113
0.297901
0.32412
0.34748
0.365153
0.374257
0.372302
0.358923
0.33591
0.307471
0.276789
0.248523
0.221572
0.201687
0.177511
0.167163
0.130192
0.133567
0.0456709
0.0936351
0.0823799
0.150091
0.176087
0.19052
0.192705
0.195848
0.19475
0.196027
0.195356
0.196346
0.195878
0.195571
0.193932
0.191983
0.189522
0.187687
0.187311
0.189304
0.193641
0.198977
0.2049
0.207415
0.201008
0.188381
0.175945
0.165051
0.155878
0.148605
0.143114
0.139568
0.138031
0.138716
0.141802
0.147524
0.156082
0.167654
0.182343
0.20015
0.220928
0.244357
0.26986
0.296476
0.322516
0.345655
0.363046
0.371791
0.369412
0.355638
0.332389
0.303963
0.273521
0.245679
0.219213
0.199899
0.176153
0.16641
0.129524
0.13368
0.0450223
0.0947092
0.0858454
0.149593
0.1757
0.19005
0.19261
0.195787
0.194879
0.196102
0.195467
0.196415
0.195982
0.195698
0.194066
0.192097
0.189606
0.187724
0.187291
0.189251
0.193689
0.199322
0.205391
0.207879
0.201505
0.18891
0.176435
0.165461
0.156206
0.148847
0.143271
0.139635
0.138007
0.138595
0.141578
0.147192
0.155635
0.167088
0.181652
0.199328
0.219968
0.243253
0.268604
0.295056
0.320903
0.343801
0.360886
0.369241
0.366408
0.352218
0.328732
0.300336
0.270158
0.242771
0.216811
0.198094
0.174789
0.165672
0.128876
0.133831
0.0443972
0.0958293
0.0891594
0.149198
0.175343
0.189603
0.192509
0.195724
0.195007
0.196183
0.195592
0.196492
0.196086
0.195828
0.194211
0.192223
0.189707
0.187781
0.187297
0.189225
0.193741
0.199637
0.205843
0.208314
0.201995
0.189458
0.176953
0.165901
0.156565
0.149118
0.143456
0.139732
0.138012
0.138503
0.141385
0.146892
0.155221
0.166554
0.180992
0.198536
0.219036
0.242172
0.267366
0.293645
0.319286
0.341924
0.358676
0.36661
0.363292
0.348668
0.324946
0.296596
0.266709
0.239802
0.214371
0.196272
0.173422
0.164951
0.12825
0.13402
0.0437944
0.0969962
0.0923294
0.148898
0.175015
0.189181
0.192405
0.195662
0.195132
0.19627
0.195728
0.196578
0.196191
0.195957
0.194367
0.192364
0.189825
0.18786
0.187329
0.189227
0.193798
0.199923
0.206254
0.208721
0.202474
0.190019
0.177496
0.166368
0.156952
0.149419
0.143671
0.139859
0.138049
0.138444
0.141226
0.146625
0.154841
0.166054
0.180365
0.197776
0.218133
0.241118
0.266149
0.292246
0.317667
0.340026
0.356421
0.363903
0.36007
0.344995
0.32104
0.292756
0.263182
0.236782
0.211897
0.194439
0.172052
0.164247
0.127645
0.134248
0.0432125
0.0982109
0.0953631
0.148687
0.174718
0.188784
0.192302
0.195603
0.195257
0.196363
0.195875
0.196673
0.196301
0.196083
0.19453
0.192519
0.18996
0.187959
0.187386
0.189257
0.193864
0.200179
0.206623
0.2091
0.202939
0.190588
0.17806
0.166863
0.157368
0.149748
0.143916
0.140017
0.138117
0.138419
0.1411
0.146394
0.154498
0.165592
0.179776
0.197052
0.217266
0.240094
0.264957
0.290865
0.316053
0.338113
0.354125
0.361125
0.356749
0.341211
0.31703
0.288831
0.259593
0.23372
0.209396
0.192597
0.17068
0.163563
0.127059
0.134515
0.0426504
0.0994741
0.0982672
0.148556
0.17445
0.188413
0.192202
0.195548
0.195381
0.196461
0.196033
0.19678
0.196418
0.196206
0.194696
0.192688
0.190113
0.188081
0.187469
0.189311
0.193942
0.200405
0.20695
0.209453
0.203386
0.191161
0.178641
0.167381
0.157811
0.150107
0.144191
0.140207
0.13822
0.138428
0.141012
0.146201
0.154193
0.165169
0.179228
0.196368
0.216436
0.239106
0.263796
0.289506
0.314446
0.336188
0.351793
0.358282
0.35334
0.337331
0.312934
0.284842
0.255956
0.23063
0.206875
0.190753
0.169309
0.1629
0.126494
0.134823
0.0421065
0.100787
0.101049
0.1485
0.174213
0.18807
0.192106
0.1955
0.195506
0.196565
0.1962
0.196898
0.196545
0.196328
0.194862
0.192868
0.190286
0.188226
0.187579
0.18939
0.194034
0.200605
0.207236
0.209778
0.203813
0.191734
0.179236
0.167922
0.15828
0.150494
0.144497
0.140429
0.138356
0.138474
0.140961
0.146047
0.15393
0.164789
0.178722
0.195727
0.215647
0.238157
0.262669
0.288172
0.312852
0.334258
0.349431
0.355384
0.349853
0.33337
0.308773
0.280809
0.252294
0.227525
0.204344
0.188912
0.167941
0.162259
0.125948
0.135172
0.0415797
0.10215
0.103713
0.148511
0.174005
0.187753
0.192018
0.19546
0.195633
0.196676
0.196375
0.197027
0.196681
0.196453
0.195027
0.193057
0.190476
0.188394
0.187715
0.189493
0.194138
0.200784
0.207484
0.210071
0.20422
0.192302
0.179842
0.168483
0.158774
0.15091
0.144834
0.140685
0.138528
0.138557
0.14095
0.145936
0.153711
0.164453
0.178262
0.195132
0.214904
0.23725
0.261581
0.286869
0.311275
0.332327
0.347046
0.352437
0.346303
0.329347
0.304568
0.276755
0.248624
0.224422
0.201813
0.187081
0.166579
0.161643
0.12542
0.135562
0.0410685
0.103564
0.106268
0.148586
0.173826
0.187464
0.191939
0.195429
0.195764
0.196795
0.196557
0.197168
0.19683
0.196582
0.195192
0.193251
0.190684
0.188586
0.18788
0.189622
0.194254
0.200948
0.207698
0.210327
0.204603
0.192865
0.180457
0.169063
0.159293
0.151354
0.145202
0.140974
0.138736
0.138679
0.14098
0.145868
0.153537
0.164166
0.177851
0.194586
0.21421
0.236391
0.260535
0.285601
0.309721
0.3304
0.344645
0.349453
0.342702
0.32528
0.300341
0.272703
0.244969
0.221339
0.199294
0.185268
0.165225
0.161055
0.124911
0.135995
0.0405716
0.10503
0.108717
0.148717
0.173675
0.187201
0.191869
0.195409
0.195899
0.196923
0.196748
0.19732
0.196991
0.196719
0.195356
0.193448
0.190906
0.188802
0.188072
0.189778
0.194384
0.201101
0.207878
0.210544
0.204962
0.193417
0.181077
0.169659
0.159835
0.151825
0.145601
0.141298
0.138981
0.13884
0.141053
0.145845
0.153412
0.163929
0.177492
0.194093
0.213568
0.235582
0.259537
0.284373
0.308195
0.328485
0.342235
0.346441
0.339067
0.321189
0.296114
0.268674
0.241345
0.21829
0.196799
0.18348
0.163884
0.160495
0.12442
0.13647
0.0400878
0.106549
0.111066
0.1489
0.173552
0.186965
0.19181
0.1954
0.196039
0.197061
0.196946
0.197483
0.197164
0.196865
0.195524
0.193648
0.191142
0.189042
0.188295
0.189963
0.194531
0.201246
0.208026
0.210724
0.205295
0.193957
0.181701
0.170271
0.160399
0.152324
0.146032
0.141656
0.139264
0.139043
0.14117
0.145869
0.153336
0.163744
0.177188
0.193656
0.212982
0.234828
0.25859
0.28319
0.3067
0.326585
0.339824
0.343413
0.33541
0.317093
0.291908
0.264687
0.237771
0.215289
0.194337
0.181724
0.162559
0.159966
0.123947
0.136988
0.0396157
0.108121
0.11332
0.14913
0.173456
0.186754
0.191763
0.195403
0.196186
0.19721
0.197154
0.197657
0.19735
0.197023
0.195698
0.19385
0.191387
0.189304
0.188546
0.190179
0.194696
0.201385
0.208146
0.210867
0.205599
0.194482
0.182325
0.170896
0.160984
0.152849
0.146493
0.142049
0.139585
0.139287
0.141332
0.145942
0.153312
0.163614
0.176941
0.193278
0.212456
0.234133
0.257699
0.282055
0.305243
0.324708
0.33742
0.34038
0.33175
0.313012
0.287743
0.260762
0.234261
0.212349
0.191919
0.180008
0.161255
0.159471
0.123491
0.137548
0.0391544
0.109746
0.115485
0.149403
0.173386
0.186569
0.191727
0.195418
0.196339
0.197371
0.197371
0.197842
0.197548
0.197194
0.195881
0.194057
0.191642
0.189586
0.188827
0.190425
0.194884
0.201521
0.208239
0.210972
0.205874
0.194989
0.182948
0.171533
0.16159
0.153401
0.146986
0.142477
0.139946
0.139574
0.141541
0.146066
0.153342
0.163542
0.176755
0.192963
0.211993
0.2335
0.256868
0.280974
0.303827
0.32286
0.33503
0.337353
0.3281
0.308964
0.283638
0.256913
0.230828
0.209479
0.189553
0.178337
0.159975
0.15901
0.123053
0.138151
0.0387027
0.111424
0.117563
0.149715
0.173342
0.186409
0.191704
0.195445
0.1965
0.197544
0.197598
0.19804
0.197759
0.197379
0.196076
0.194271
0.191906
0.189887
0.189136
0.190703
0.195095
0.20166
0.20831
0.211043
0.206117
0.195476
0.183566
0.17218
0.162215
0.15398
0.14751
0.142941
0.140346
0.139905
0.141798
0.146241
0.153429
0.163529
0.176631
0.192712
0.211596
0.232934
0.256101
0.27995
0.302459
0.321045
0.332664
0.334343
0.324477
0.304967
0.27961
0.253156
0.227482
0.206687
0.187245
0.176718
0.158723
0.158587
0.122632
0.138795
0.0382598
0.113155
0.119559
0.150062
0.173322
0.186272
0.191694
0.195485
0.196669
0.19773
0.197836
0.198251
0.197982
0.197579
0.196285
0.194494
0.192179
0.190204
0.189472
0.191012
0.195332
0.201804
0.208363
0.211081
0.206327
0.195939
0.184178
0.172835
0.162859
0.154584
0.148065
0.143441
0.140786
0.140281
0.142103
0.14647
0.153573
0.163578
0.176573
0.19253
0.21127
0.232439
0.255403
0.278989
0.301141
0.31927
0.330329
0.331363
0.320897
0.301039
0.275677
0.249504
0.224231
0.203979
0.185
0.175155
0.157503
0.158201
0.122229
0.139481
0.037825
0.114938
0.121477
0.15044
0.173326
0.18616
0.191696
0.195538
0.196845
0.197927
0.198086
0.198476
0.198218
0.197793
0.196509
0.194731
0.192463
0.190537
0.189833
0.191353
0.195596
0.201958
0.208402
0.211089
0.206504
0.196375
0.184779
0.173497
0.16352
0.155213
0.148652
0.143978
0.141268
0.140703
0.14246
0.146754
0.153777
0.163692
0.176583
0.19242
0.211017
0.232018
0.254778
0.278094
0.299879
0.317541
0.328034
0.328425
0.317373
0.297197
0.271852
0.245966
0.221084
0.20136
0.182823
0.173651
0.156318
0.157854
0.121843
0.140207
0.0373976
0.116773
0.12332
0.150847
0.173354
0.18607
0.191711
0.195603
0.19703
0.198137
0.198347
0.198716
0.198467
0.198022
0.19675
0.194984
0.19276
0.190886
0.190218
0.191724
0.195888
0.202124
0.208432
0.211071
0.206648
0.196784
0.185368
0.174163
0.164197
0.155867
0.14927
0.144551
0.141791
0.141171
0.142867
0.147094
0.154042
0.163872
0.176664
0.192383
0.210841
0.231675
0.254228
0.277268
0.298676
0.315863
0.325785
0.325538
0.313922
0.293456
0.268149
0.242552
0.218044
0.198832
0.180716
0.172208
0.15517
0.157547
0.121476
0.140972
0.0369772
0.118657
0.125093
0.151278
0.173404
0.186003
0.19174
0.19568
0.197222
0.198358
0.198619
0.198972
0.198731
0.198267
0.197008
0.195255
0.193074
0.191252
0.190624
0.192122
0.196208
0.202305
0.208457
0.211032
0.20676
0.197163
0.18594
0.17483
0.164889
0.156546
0.14992
0.145161
0.142357
0.141686
0.143327
0.147493
0.154371
0.164121
0.176819
0.192425
0.210745
0.231414
0.25376
0.276516
0.297537
0.31424
0.323592
0.322715
0.310556
0.28983
0.264579
0.239267
0.215115
0.196398
0.17868
0.170827
0.154062
0.157282
0.121127
0.141773
0.0365636
0.120589
0.126797
0.151732
0.173476
0.185957
0.191781
0.19577
0.197423
0.198591
0.198903
0.199242
0.19901
0.198529
0.197284
0.195545
0.193407
0.191635
0.19105
0.192545
0.196555
0.202504
0.208482
0.210975
0.206843
0.19751
0.186494
0.175496
0.165594
0.157248
0.1506
0.145808
0.142965
0.142249
0.143841
0.147951
0.154765
0.16444
0.177049
0.192546
0.210734
0.231238
0.253375
0.275841
0.296464
0.31268
0.321462
0.319966
0.30729
0.286332
0.26115
0.236117
0.212299
0.194058
0.176717
0.169511
0.152995
0.157057
0.120797
0.14261
0.0361566
0.122566
0.128437
0.152205
0.173569
0.185933
0.191835
0.195871
0.197632
0.198834
0.199197
0.199529
0.199305
0.198808
0.197578
0.195857
0.193761
0.192038
0.191496
0.192992
0.196927
0.202722
0.20851
0.210905
0.206899
0.197826
0.187027
0.176157
0.166311
0.157972
0.151311
0.146493
0.143617
0.142862
0.14441
0.148469
0.155225
0.164832
0.177358
0.192752
0.210809
0.231152
0.253078
0.275245
0.295461
0.311185
0.319401
0.317301
0.304135
0.282974
0.257869
0.233105
0.209597
0.191813
0.174827
0.168259
0.151972
0.156875
0.120486
0.14348
0.0357564
0.124585
0.130014
0.152695
0.173681
0.18593
0.191903
0.195985
0.197849
0.199088
0.199502
0.19983
0.199616
0.199105
0.197891
0.196191
0.194138
0.192463
0.191963
0.193461
0.197321
0.202959
0.208546
0.210827
0.206932
0.198112
0.187536
0.176812
0.167035
0.158717
0.152052
0.147214
0.144311
0.143524
0.145034
0.149049
0.155755
0.1653
0.177749
0.193043
0.210975
0.231159
0.252871
0.274732
0.29453
0.30976
0.317416
0.314731
0.301102
0.279764
0.254743
0.230231
0.207008
0.189661
0.17301
0.167072
0.150992
0.156734
0.120196
0.144382
0.0353632
0.126642
0.131532
0.1532
0.173813
0.185948
0.191984
0.19611
0.198074
0.199353
0.199816
0.200145
0.199943
0.199422
0.198225
0.196548
0.19454
0.192912
0.192451
0.193949
0.197737
0.203214
0.208592
0.210746
0.206946
0.19837
0.18802
0.177456
0.167766
0.159482
0.152822
0.147973
0.14505
0.144236
0.145715
0.149693
0.156354
0.165844
0.178222
0.193424
0.211234
0.231262
0.252758
0.274302
0.293674
0.30841
0.315514
0.312263
0.298202
0.27671
0.251773
0.227496
0.204531
0.187602
0.171265
0.165949
0.150058
0.156635
0.119927
0.145313
0.0349774
0.128734
0.132993
0.153718
0.173964
0.185985
0.192077
0.196247
0.198306
0.199627
0.20014
0.200473
0.200286
0.199758
0.198579
0.196928
0.194968
0.193386
0.192962
0.194456
0.19817
0.203487
0.20865
0.210667
0.206947
0.198602
0.18848
0.178089
0.168501
0.160264
0.153621
0.148769
0.145833
0.144999
0.146453
0.150402
0.157025
0.166468
0.178782
0.193896
0.211591
0.231464
0.252742
0.273958
0.292895
0.307138
0.313701
0.309906
0.295443
0.273819
0.248962
0.224897
0.202164
0.185633
0.169593
0.16489
0.149169
0.156578
0.119679
0.146272
0.0345996
0.130856
0.134399
0.154246
0.174133
0.186041
0.192184
0.196396
0.198547
0.19991
0.200473
0.200814
0.200643
0.200113
0.198955
0.197332
0.195423
0.193888
0.193496
0.194982
0.198619
0.203775
0.208721
0.210592
0.206939
0.198812
0.188917
0.178708
0.169237
0.161062
0.154447
0.149601
0.14666
0.145814
0.14725
0.151176
0.15777
0.167173
0.179431
0.194464
0.212048
0.231769
0.252823
0.2737
0.292194
0.305946
0.31198
0.307668
0.292834
0.271095
0.246308
0.222433
0.199905
0.183755
0.167993
0.163895
0.148326
0.156561
0.119454
0.147256
0.0342307
0.133003
0.135752
0.154784
0.174318
0.186116
0.192304
0.196557
0.198796
0.200202
0.200814
0.201167
0.201014
0.200487
0.199352
0.197761
0.195904
0.194417
0.194055
0.195528
0.199083
0.204076
0.208805
0.210525
0.206928
0.199005
0.189331
0.179312
0.169972
0.161874
0.155299
0.150469
0.147531
0.14668
0.148107
0.152017
0.15859
0.16796
0.18017
0.19513
0.212609
0.23218
0.253004
0.273528
0.291572
0.304837
0.310357
0.305554
0.29038
0.268541
0.243811
0.220099
0.197751
0.181966
0.166466
0.162964
0.14753
0.156586
0.119253
0.148263
0.0338716
0.13517
0.137056
0.15533
0.174521
0.186209
0.192437
0.196729
0.199053
0.200504
0.201164
0.201532
0.201398
0.200879
0.19977
0.198214
0.196411
0.194975
0.194639
0.196092
0.199559
0.204388
0.208901
0.210469
0.206918
0.199186
0.189728
0.179902
0.170704
0.162697
0.156176
0.151372
0.148445
0.147598
0.149023
0.152926
0.159486
0.168834
0.181003
0.195897
0.213276
0.232699
0.253285
0.273443
0.29103
0.303813
0.308836
0.303571
0.288086
0.266155
0.241467
0.217893
0.1957
0.180264
0.165009
0.162096
0.146781
0.156651
0.119075
0.149293
0.0335235
0.137352
0.138311
0.155881
0.174739
0.18632
0.192583
0.196913
0.199318
0.200814
0.201522
0.201907
0.201794
0.201286
0.200208
0.198692
0.196946
0.19556
0.19525
0.196677
0.200049
0.204709
0.209009
0.210426
0.206913
0.199361
0.19011
0.180479
0.171432
0.163529
0.157074
0.152308
0.149403
0.148568
0.149999
0.153905
0.160461
0.169794
0.181931
0.196767
0.214053
0.233328
0.253667
0.273444
0.290568
0.302875
0.307418
0.301722
0.285955
0.263938
0.239271
0.215809
0.193749
0.178647
0.163625
0.161291
0.146079
0.156756
0.118922
0.150343
0.0331878
0.139544
0.139519
0.156438
0.174972
0.186447
0.192741
0.197108
0.199591
0.201133
0.201888
0.202292
0.202202
0.201709
0.200665
0.199193
0.197507
0.196173
0.195887
0.197282
0.200551
0.205039
0.209128
0.210397
0.206918
0.199536