/*--------------------------------*- C++ -*----------------------------------*\
| =========                 |                                                 |
| \\      /  F ield         | OpenFOAM: The Open Source CFD Toolbox           |
|  \\    /   O peration     | Version:  2.4.0                                 |
|   \\  /    A nd           | Web:      www.OpenFOAM.org                      |
|    \\/     M anipulation  |                                                 |
\*---------------------------------------------------------------------------*/
FoamFile
{
    version     2.0;
    format      ascii;
    class       volScalarField;
    location    "1.7";
    object      p;
}
// * * * * * * * * * * * * * * * * * * * * * * * * * * * * * * * * * * * * * //

dimensions      [0 2 -2 0 0 0 0];

internalField   nonuniform List<scalar> 
5625
(
0.0750688
0.255782
0.276598
0.30124
0.310023
0.318231
0.32262
0.326509
0.329075
0.331217
0.33273
0.33413
0.335603
0.337415
0.33942
0.341004
0.341226
0.339352
0.335016
0.327924
0.317583
0.303614
0.286612
0.269384
0.256486
0.25217
0.259076
0.277962
0.307763
0.345062
0.385486
0.42412
0.457328
0.483054
0.501213
0.512541
0.518689
0.520911
0.520593
0.518626
0.515923
0.512848
0.50997
0.507258
0.505119
0.503234
0.501988
0.500839
0.500246
0.499495
0.499184
0.498412
0.497948
0.496661
0.4955
0.493068
0.490566
0.486309
0.48189
0.475265
0.468566
0.459188
0.449973
0.437436
0.425304
0.408855
0.392962
0.371134
0.349878
0.319969
0.290492
0.247369
0.20454
0.136729
0.0709531
0.103035
0.256718
0.276776
0.301022
0.309858
0.318086
0.322507
0.326415
0.328999
0.331157
0.332685
0.334084
0.335527
0.33729
0.339257
0.340842
0.341112
0.339311
0.335104
0.328179
0.318165
0.304447
0.28761
0.270377
0.257232
0.252495
0.259007
0.27754
0.307017
0.343961
0.384393
0.423152
0.456543
0.482459
0.50079
0.512246
0.518493
0.520787
0.520515
0.518577
0.515888
0.512821
0.509944
0.507233
0.505085
0.503199
0.501936
0.500782
0.500184
0.499425
0.499103
0.49832
0.497838
0.496534
0.495349
0.492892
0.490357
0.486063
0.481602
0.47493
0.46818
0.458777
0.449486
0.436942
0.424708
0.408232
0.392227
0.370347
0.34896
0.318955
0.289296
0.246025
0.202904
0.134846
0.0682301
0.124121
0.257259
0.277055
0.300977
0.309785
0.317999
0.322434
0.326346
0.328946
0.33112
0.332658
0.334049
0.335464
0.337194
0.339134
0.340726
0.341046
0.339341
0.335257
0.328562
0.318644
0.305071
0.288239
0.270784
0.257239
0.252077
0.258214
0.276483
0.305715
0.342808
0.38341
0.42241
0.45604
0.482144
0.500614
0.512136
0.518436
0.520757
0.520495
0.518557
0.515865
0.512788
0.509907
0.507189
0.505043
0.503149
0.501885
0.500725
0.500125
0.499359
0.499033
0.498239
0.497752
0.496435
0.495242
0.492767
0.490218
0.485901
0.481419
0.474719
0.467943
0.458483
0.449171
0.436538
0.424287
0.407733
0.391666
0.369694
0.348196
0.318085
0.28827
0.244829
0.201455
0.133128
0.0658901
0.137703
0.257711
0.277378
0.300983
0.309762
0.317947
0.322384
0.326299
0.328907
0.331092
0.332633
0.334011
0.335395
0.33709
0.339014
0.340634
0.341025
0.339427
0.335475
0.328952
0.319204
0.305683
0.288635
0.270679
0.256513
0.25084
0.256658
0.27477
0.303945
0.341202
0.382155
0.421559
0.455544
0.481907
0.50055
0.512123
0.518467
0.520788
0.52051
0.518551
0.515838
0.512741
0.50985
0.507124
0.504975
0.503066
0.501815
0.500653
0.500056
0.499283
0.498958
0.498154
0.497664
0.496332
0.495132
0.492637
0.490074
0.485728
0.481222
0.474482
0.467675
0.45817
0.448819
0.436137
0.423839
0.407198
0.391099
0.369023
0.34747
0.317221
0.287287
0.243668
0.200066
0.131537
0.0639183
0.148004
0.258283
0.277736
0.301018
0.30978
0.317918
0.32235
0.326263
0.328877
0.33107
0.332612
0.333971
0.335318
0.336974
0.338885
0.340547
0.341033
0.339565
0.335755
0.329436
0.319828
0.306221
0.288716
0.269997
0.255051
0.248849
0.254442
0.272528
0.301677
0.339195
0.380603
0.420523
0.454958
0.481648
0.500472
0.512173
0.518531
0.520843
0.520535
0.518541
0.515797
0.512676
0.509776
0.507038
0.504879
0.502973
0.501727
0.500564
0.499972
0.499194
0.49887
0.498056
0.497564
0.496218
0.495011
0.492495
0.489917
0.48554
0.48101
0.474231
0.467393
0.457842
0.448455
0.43572
0.42338
0.40668
0.39052
0.368353
0.346728
0.316346
0.286314
0.242518
0.198739
0.130118
0.0620774
0.156899
0.258926
0.278116
0.30108
0.309828
0.31791
0.322334
0.326238
0.328857
0.331056
0.332594
0.33393
0.335233
0.336844
0.338744
0.340462
0.341067
0.339763
0.336115
0.330024
0.320504
0.306633
0.288411
0.26871
0.252907
0.246226
0.251692
0.269779
0.298996
0.336846
0.378785
0.419303
0.454262
0.481333
0.500376
0.512216
0.5186
0.520899
0.520555
0.518519
0.515738
0.512587
0.50967
0.506933
0.504766
0.502862
0.501624
0.500461
0.499875
0.499092
0.49877
0.497945
0.497452
0.49609
0.494878
0.492339
0.489747
0.485339
0.480786
0.473966
0.467098
0.4575
0.448079
0.435289
0.422911
0.406144
0.389935
0.367684
0.345986
0.315493
0.285347
0.241409
0.197436
0.128773
0.0603707
0.164851
0.259572
0.278506
0.301154
0.309901
0.317923
0.322334
0.326225
0.328847
0.33105
0.332582
0.333888
0.33514
0.3367
0.338589
0.340376
0.341132
0.340038
0.336732
0.330741
0.321226
0.306897
0.287716
0.266877
0.250205
0.243121
0.248534
0.266602
0.295997
0.334204
0.376726
0.417908
0.453447
0.480947
0.500237
0.51223
0.518652
0.520942
0.520558
0.518475
0.515653
0.512472
0.509539
0.506806
0.504633
0.502733
0.501504
0.500344
0.499765
0.498978
0.498657
0.49782
0.497326
0.495947
0.49473
0.492169
0.489564
0.485123
0.480547
0.473684
0.466788
0.457141
0.44769
0.434844
0.422432
0.405597
0.389344
0.367005
0.345244
0.314635
0.28439
0.240313
0.196162
0.12751
0.058799
0.172069
0.260209
0.278897
0.30123
0.309993
0.317951
0.322351
0.326224
0.328846
0.331051
0.332575
0.333847
0.335041
0.33654
0.338417
0.340289
0.341235
0.340403
0.337369
0.331605
0.322002
0.307018
0.286677
0.264613
0.247101
0.239688
0.245094
0.263199
0.292762
0.331323
0.374461
0.416352
0.452514
0.480472
0.500043
0.512199
0.518671
0.520954
0.520532
0.518402
0.515539
0.512329
0.50938
0.506618
0.50448
0.502587
0.501371
0.500214
0.499643
0.498851
0.498532
0.497683
0.497186
0.495791
0.494568
0.491983
0.489366
0.48489
0.480293
0.473387
0.466464
0.456768
0.44729
0.434387
0.421945
0.405041
0.38875
0.366323
0.344505
0.313781
0.283443
0.239236
0.19492
0.126329
0.0573509
0.178766
0.260858
0.279285
0.3013
0.310095
0.317992
0.322381
0.326233
0.328855
0.33106
0.332573
0.333807
0.334941
0.336366
0.338228
0.340202
0.34138
0.340872
0.338175
0.332632
0.322836
0.307016
0.285373
0.262052
0.243745
0.236063
0.241495
0.259654
0.28936
0.328261
0.372026
0.414654
0.451465
0.479905
0.499776
0.512105
0.51864
0.520924
0.520468
0.518292
0.515391
0.512155
0.509195
0.506434
0.504308
0.502426
0.501224
0.500073
0.49951
0.498713
0.498395
0.497533
0.497034
0.49562
0.494393
0.491782
0.489153
0.484642
0.480025
0.473074
0.466128
0.456382
0.44688
0.433921
0.421453
0.404481
0.388156
0.365641
0.343771
0.312934
0.28251
0.238184
0.19371
0.125226
0.0560158
0.185107
0.261543
0.279673
0.301359
0.310203
0.318042
0.322422
0.326252
0.328871
0.331076
0.332577
0.33377
0.334807
0.336179
0.338023
0.340113
0.341571
0.341455
0.339158
0.333827
0.323735
0.306926
0.283893
0.259323
0.240272
0.232363
0.237845
0.256053
0.285867
0.325081
0.369463
0.412835
0.45031
0.479241
0.499423
0.511934
0.518544
0.520838
0.520355
0.51814
0.515206
0.511949
0.508983
0.50623
0.504118
0.50225
0.501066
0.499921
0.499367
0.498565
0.498248
0.497371
0.496869
0.495436
0.494204
0.491568
0.488927
0.48438
0.479744
0.472749
0.465782
0.455984
0.446463
0.433447
0.420957
0.403917
0.387563
0.364961
0.343045
0.312098
0.281593
0.237162
0.192535
0.124197
0.0547848
0.191193
0.262288
0.280068
0.301407
0.310309
0.318096
0.322473
0.32628
0.328895
0.331098
0.332587
0.333738
0.334705
0.335982
0.337802
0.340023
0.341807
0.342154
0.340313
0.335186
0.3247
0.306787
0.282329
0.256546
0.236796
0.228691
0.234244
0.25248
0.282362
0.321846
0.366814
0.41092
0.449058
0.478472
0.49897
0.511669
0.518365
0.520682
0.520183
0.517938
0.51498
0.511709
0.508744
0.506004
0.503912
0.502061
0.500897
0.49976
0.499216
0.498408
0.498091
0.497199
0.496693
0.49524
0.494003
0.49134
0.48869
0.484106
0.479453
0.472412
0.465426
0.455579
0.44604
0.432969
0.420462
0.403354
0.386976
0.364288
0.342329
0.311277
0.280694
0.23617
0.191396
0.123237
0.05365
0.197069
0.263112
0.28048
0.301446
0.310411
0.318151
0.32253
0.326314
0.328926
0.331126
0.332603
0.333711
0.334602
0.335779
0.337568
0.339931
0.342085
0.342962
0.341631
0.336694
0.325731
0.30664
0.280764
0.253821
0.233415
0.225137
0.230783
0.249015
0.278921
0.318617
0.364124
0.408942
0.447709
0.477592
0.498399
0.511291
0.518088
0.520441
0.519942
0.51768
0.514709
0.511433
0.508476
0.505723
0.503691
0.501861
0.500718
0.499591
0.499057
0.498244
0.497926
0.497017
0.496507
0.495032
0.493791
0.491101
0.488441
0.48382
0.479152
0.472065
0.465063
0.455166
0.445614
0.432488
0.419968
0.402795
0.386395
0.363625
0.341626
0.310475
0.279816
0.235213
0.190293
0.122342
0.0526037
0.202758
0.264031
0.280923
0.30148
0.310506
0.318203
0.322592
0.326354
0.328962
0.331158
0.332624
0.333691
0.334502
0.335576
0.337324
0.339836
0.342397
0.343865
0.343087
0.338327
0.326822
0.306521
0.279272
0.251235
0.230213
0.221779
0.227507
0.245736
0.275616
0.315447
0.361462
0.406924
0.446265
0.476589
0.497694
0.51078
0.517691
0.520099
0.519618
0.517356
0.514387
0.51112
0.508186
0.505467
0.503456
0.50165
0.500532
0.499416
0.498893
0.498074
0.497754
0.496827
0.496312
0.494815
0.493569
0.490851
0.488183
0.483524
0.478842
0.47171
0.464695
0.454749
0.445187
0.432008
0.419477
0.402241
0.385823
0.362974
0.340938
0.309695
0.27896
0.234292
0.18923
0.121506
0.051639
0.208271
0.265054
0.281409
0.301518
0.310593
0.318251
0.322656
0.326398
0.329002
0.331192
0.332649
0.333678
0.334409
0.335378
0.337073
0.339736
0.342733
0.344841
0.344651
0.340054
0.327965
0.306461
0.277912
0.24886
0.227262
0.218685
0.224443
0.242712
0.272508
0.312402
0.358903
0.40487
0.444731
0.475452
0.496835
0.510115
0.517153
0.519637
0.519198
0.516958
0.51401
0.510767
0.50787
0.50519
0.503208
0.50143
0.500339
0.499236
0.498724
0.497899
0.497576
0.496629
0.496108
0.494588
0.493337
0.490592
0.487916
0.48322
0.478526
0.471349
0.464322
0.454329
0.44476
0.43153
0.418992
0.401695
0.385261
0.362338
0.340265
0.308937
0.278129
0.233408
0.188206
0.120728
0.0507498
0.213615
0.266184
0.281948
0.301569
0.310676
0.318293
0.32272
0.326445
0.329046
0.33123
0.332679
0.333673
0.334327
0.335183
0.336821
0.33963
0.343079
0.345866
0.346285
0.341837
0.329148
0.306484
0.276734
0.246753
0.224626
0.215919
0.221737
0.239996
0.269656
0.309604
0.356402
0.402817
0.44311
0.47417
0.495802
0.509271
0.516452
0.519036
0.518665
0.516474
0.513571
0.510371
0.507525
0.50489
0.502945
0.501203
0.500142
0.499053
0.498552
0.497721
0.497393
0.496426
0.495896
0.494352
0.493096
0.490324
0.487641
0.482908
0.478203
0.470983
0.463946
0.453908
0.444334
0.431055
0.418513
0.401159
0.384711
0.361718
0.339611
0.308205
0.277323
0.232562
0.187223
0.120002
0.0499302
0.218794
0.267417
0.282551
0.301642
0.310756
0.31833
0.322784
0.326494
0.329092
0.331268
0.33271
0.333675
0.334259
0.335008
0.336574
0.339519
0.343423
0.34691
0.347947
0.34364
0.330356
0.306606
0.275773
0.244963
0.222356
0.213537
0.219417
0.237637
0.267124
0.307041
0.354029
0.400786
0.441407
0.472732
0.494576
0.508227
0.515565
0.518273
0.518004
0.515892
0.513063
0.509929
0.507148
0.50457
0.502676
0.500971
0.499943
0.498869
0.498379
0.497541
0.497207
0.496219
0.495678
0.494109
0.492848
0.490048
0.487358
0.48259
0.477875
0.470612
0.463568
0.453486
0.44391
0.430585
0.418041
0.400633
0.384174
0.361116
0.338976
0.3075
0.276544
0.231755
0.186283
0.119326
0.049175
0.223811
0.268748
0.28322
0.301747
0.310839
0.318363
0.322846
0.326543
0.32914
0.331308
0.332744
0.333684
0.334204
0.33485
0.336342
0.339405
0.343753
0.347941
0.349595
0.345421
0.331572
0.306836
0.275057
0.243525
0.220496
0.211585
0.217525
0.235682
0.264933
0.304748
0.351821
0.398795
0.439623
0.471128
0.493139
0.50696
0.514468
0.51733
0.517196
0.5152
0.512477
0.509436
0.506739
0.504232
0.502399
0.500736
0.499743
0.498687
0.498208
0.497363
0.49702
0.496008
0.495455
0.493861
0.492591
0.489765
0.487069
0.482265
0.477541
0.470238
0.463188
0.453066
0.443489
0.430122
0.417578
0.400121
0.383652
0.360533
0.338361
0.306822
0.275794
0.230985
0.185384
0.118696
0.0484794
0.228673
0.270167
0.28396
0.301892
0.31093
0.318395
0.322907
0.326595
0.32919
0.331348
0.332779
0.333699
0.334165
0.334714
0.336133
0.33929
0.344057
0.348933
0.351186
0.347145
0.33278
0.307177
0.274601
0.242467
0.21908
0.210099
0.216079
0.234144
0.263126
0.30276
0.349809
0.39686
0.437761
0.46935
0.491476
0.505451
0.51314
0.516184
0.516223
0.514385
0.511804
0.508887
0.506297
0.503875
0.502113
0.5005
0.499546
0.498509
0.498041
0.497188
0.496835
0.495797
0.495228
0.493607
0.492329
0.489476
0.486773
0.481936
0.477204
0.469862
0.462808
0.452647
0.443071
0.429666
0.417123
0.399621
0.383144
0.359971
0.337768
0.306173
0.275073
0.230254
0.184529
0.118109
0.0478392
0.233385
0.271661
0.28477
0.302083
0.311036
0.318431
0.32297
0.326648
0.329244
0.33139
0.332815
0.33372
0.334142
0.334606
0.335948
0.33918
0.344326
0.349858
0.352683
0.348775
0.333959
0.307625
0.274413
0.241804
0.21814
0.209098
0.215098
0.233043
0.261724
0.301104
0.348015
0.394994
0.435824
0.46739
0.489572
0.50368
0.511561
0.514815
0.51507
0.513434
0.511039
0.508279
0.505821
0.503502
0.501822
0.500265
0.499354
0.498337
0.497881
0.497018
0.496652
0.495588
0.494999
0.49335
0.492061
0.489181
0.486471
0.481602
0.476863
0.469484
0.462427
0.45223
0.442658
0.429218
0.416679
0.399136
0.382653
0.359429
0.337197
0.305552
0.274383
0.229562
0.183716
0.117564
0.0472504
0.237953
0.273221
0.285645
0.302325
0.311163
0.318475
0.323036
0.326705
0.329302
0.331435
0.332853
0.333747
0.334137
0.334531
0.335807
0.339086
0.344553
0.350695
0.354051
0.35028
0.335087
0.308168
0.274499
0.241559
0.217689
0.208599
0.214594
0.232391
0.260742
0.299802
0.346458
0.393205
0.433811
0.465244
0.487417
0.501634
0.509711
0.513205
0.513718
0.512334
0.510171
0.507606
0.50531
0.503114
0.501528
0.500036
0.499171
0.498176
0.49773
0.496858
0.496476
0.495382
0.494771
0.493092
0.491789
0.488883
0.486165
0.481264
0.476518
0.469104
0.462046
0.451817
0.44225
0.428779
0.416246
0.398666
0.382178
0.35891
0.336649
0.30496
0.273724
0.228907
0.182947
0.117059
0.0467095
0.242385
0.274834
0.286583
0.30262
0.311315
0.318532
0.32311
0.326769
0.329366
0.331486
0.332896
0.333781
0.334149
0.334492
0.335708
0.339015
0.344765
0.351406
0.355262
0.351625
0.336149
0.308817
0.274848
0.24172
0.217733
0.208612
0.214572
0.232191
0.260189
0.298866
0.345149
0.391501
0.431725
0.462907
0.485004
0.499299
0.507574
0.511336
0.512151
0.511072
0.509193
0.506867
0.504764
0.502712
0.501234
0.499815
0.498999
0.498029
0.497592
0.496709
0.496309
0.495182
0.494545
0.492834
0.491515
0.488581
0.485854
0.480923
0.47617
0.468724
0.461665
0.451408
0.441848
0.428349
0.415823
0.398211
0.38172
0.358412
0.336125
0.304399
0.273097
0.22829
0.182221
0.116589
0.0462131
0.246688
0.276492
0.287576
0.302967
0.311495
0.318607
0.323193
0.326843
0.329441
0.331545
0.332947
0.333824
0.33418
0.334489
0.335657
0.338961
0.344943
0.352008
0.356288
0.352794
0.337128
0.30955
0.275447
0.242282
0.218277
0.209138
0.215031
0.232445
0.260071
0.298307
0.344096
0.389885
0.429566
0.460379
0.482326
0.496666
0.505138
0.509192
0.510354
0.509636
0.508097
0.506057
0.504183
0.502299
0.500943
0.499605
0.498843
0.497899
0.497471
0.496576
0.496153
0.494992
0.494325
0.492579
0.49124
0.488279
0.48554
0.48058
0.47582
0.468345
0.461286
0.451003
0.441452
0.42793
0.415412
0.397773
0.381279
0.357937
0.335625
0.303866
0.272502
0.22771
0.181539
0.116156
0.0457585
0.25087
0.278185
0.28862
0.303366
0.311708
0.318703
0.323292
0.32693
0.329528
0.331617
0.333009
0.33388
0.334232
0.334527
0.335664
0.338966
0.345096
0.352492
0.357112
0.353766
0.338005
0.310342
0.276285
0.243234
0.219312
0.210175
0.215967
0.23315
0.260393
0.298131
0.343301
0.38836
0.427336
0.45766
0.479382
0.493727
0.502388
0.506757
0.508313
0.508016
0.506877
0.505174
0.503566
0.501877
0.500659
0.49941
0.498705
0.497789
0.49737
0.496461
0.496013
0.494813
0.494112
0.492329
0.490967
0.487976
0.485224
0.480236
0.475469
0.467966
0.460909
0.450603
0.441062
0.427521
0.415013
0.397351
0.380857
0.357484
0.33515
0.303364
0.27194
0.227167
0.180899
0.115755
0.0453428
0.254938
0.279907
0.289707
0.303814
0.311953
0.318823
0.323408
0.327033
0.329633
0.331706
0.333088
0.333955
0.334311
0.334608
0.335733
0.339024
0.345231
0.352711
0.357721
0.354524
0.338761
0.311171
0.277339
0.244557
0.220825
0.211709
0.217369
0.234304
0.261153
0.298338
0.342765
0.386923
0.425038
0.454754
0.47617
0.490476
0.499314
0.504018
0.506015
0.506201
0.505526
0.504216
0.502916
0.501448
0.500385
0.499234
0.498591
0.497704
0.497293
0.496367
0.495891
0.49465
0.493909
0.492086
0.490696
0.487675
0.484907
0.479892
0.475116
0.467588
0.460533
0.450209
0.440679
0.427123
0.414627
0.396946
0.380454
0.357055
0.3347
0.302892
0.271412
0.22666
0.180302
0.115386
0.0449639
0.258901
0.281651
0.290832
0.304307
0.312231
0.318971
0.323544
0.327157
0.329758
0.331818
0.333191
0.334054
0.33442
0.334734
0.335865
0.339139
0.345356
0.352958
0.358117
0.355056
0.339381
0.312016
0.278582
0.246223
0.222788
0.213722
0.219226
0.235899
0.262352
0.298927
0.342481
0.385574
0.422675
0.451666
0.472694
0.486909
0.495905
0.50096
0.503445
0.504181
0.504039
0.503181
0.502234
0.501016
0.500126
0.499082
0.498506
0.497648
0.497241
0.496298
0.495789
0.494504
0.493719
0.491852
0.490431
0.487378
0.484591
0.479548
0.474764
0.467213
0.460161
0.449822
0.440304
0.426736
0.414254
0.396559
0.38007
0.35665
0.334276
0.302449
0.270918
0.22619
0.179748
0.115048
0.0446195
0.262768
0.283412
0.29199
0.30484
0.31254
0.319146
0.323703
0.327304
0.329909
0.331958
0.333323
0.334185
0.334567
0.33491
0.336065
0.339318
0.345507
0.35311
0.358311
0.355359
0.339853
0.312855
0.27998
0.248198
0.225169
0.216186
0.221521
0.23793
0.263986
0.299891
0.342442
0.384308
0.420251
0.448403
0.468956
0.483021
0.492151
0.497571
0.500593
0.501947
0.502412
0.502069
0.501521
0.500585
0.499886
0.498959
0.498452
0.497622
0.49722
0.496256
0.495711
0.494378
0.493545
0.491631
0.490173
0.487085
0.484277
0.479206
0.474412
0.466841
0.459792
0.449441
0.439937
0.426362
0.413895
0.396189
0.379705
0.356268
0.333879
0.302037
0.270457
0.225755
0.179236
0.11474
0.0443076
0.266546
0.285186
0.293177
0.305411
0.31288
0.319349
0.323887
0.327476
0.330087
0.332129
0.333491
0.334356
0.334759
0.335142
0.336332
0.339564
0.345677
0.353181
0.35832
0.355437
0.340169
0.313666
0.281502
0.250441
0.227924
0.219067
0.224235
0.240389
0.26605
0.301222
0.342637
0.383124
0.417773
0.444975
0.464958
0.478806
0.488038
0.493834
0.497443
0.49949
0.50064
0.50088
0.50078
0.500158
0.499669
0.498868
0.498433
0.497633
0.497232
0.496244
0.49566
0.494275
0.493388
0.491424
0.489925
0.486799
0.483965
0.478868
0.474062
0.466472
0.459428
0.449068
0.43958
0.426001
0.413551
0.395838
0.379361
0.355911
0.333508
0.301655
0.270032
0.225355
0.178766
0.114459
0.0440266
0.270245
0.28697
0.294388
0.306014
0.313248
0.319579
0.324094
0.327674
0.330296
0.332335
0.333699
0.334573
0.335005
0.335436
0.33667
0.339878
0.345875
0.353192
0.358171
0.355306
0.340329
0.314434
0.283113
0.25291
0.231007
0.22233
0.227351
0.24327
0.268536
0.302907
0.343052
0.382016
0.415249
0.44139
0.460704
0.474257
0.483552
0.489732
0.493981
0.496803
0.49872
0.499614
0.500016
0.499741
0.49948
0.498813
0.498453
0.497681
0.497279
0.496265
0.495637
0.494197
0.493252
0.491233
0.489687
0.486521
0.483659
0.478533
0.473715
0.466109
0.459069
0.448704
0.439232
0.425654
0.413221
0.395506
0.379037
0.355578
0.333164
0.301303
0.26964
0.224991
0.178338
0.114206
0.0437748
0.273874
0.288761
0.295619
0.306647
0.313641
0.319834
0.324325
0.327899
0.330535
0.33258
0.333953
0.334843
0.33531
0.335797
0.337082
0.340261
0.346107
0.353163
0.357895
0.354995
0.340343
0.315151
0.284787
0.255565
0.234372
0.22594
0.230857
0.246567
0.271433
0.304928
0.343674
0.380984
0.412689
0.437659
0.456194
0.469363
0.478674
0.485244
0.490192
0.493874
0.49665
0.498273
0.49923
0.499338
0.499324
0.498801
0.498517
0.497771
0.497365
0.49632
0.495644
0.494145
0.493137
0.491059
0.489462
0.486254
0.483358
0.478203
0.473372
0.465751
0.458716
0.448349
0.438895
0.42532
0.412907
0.395193
0.378734
0.355269
0.332848
0.300982
0.269284
0.224661
0.177951
0.113979
0.043551
0.27744
0.290556
0.296868
0.307305
0.314058
0.320114
0.324579
0.32815
0.330805
0.332863
0.334256
0.33517
0.335681
0.336232
0.33757
0.340714
0.346379
0.353114
0.357524
0.354542
0.340235
0.315821
0.286509
0.258373
0.237989
0.229876
0.234744
0.250276
0.274727
0.307264
0.344486
0.380026
0.410101
0.43379
0.451425
0.464109
0.473381
0.480347
0.486056
0.490695
0.494426
0.496859
0.498428
0.498954
0.499207
0.498835
0.498627
0.497906
0.497492
0.496413
0.495683
0.494121
0.493046
0.490906
0.489252
0.485997
0.483065
0.47788
0.473033
0.465399
0.45837
0.448004
0.438569
0.425001
0.412609
0.3949
0.378453
0.354986
0.33256
0.300691
0.268963
0.224365
0.177606
0.113778
0.0433539
0.280951
0.292352
0.298132
0.307987
0.314495
0.320415
0.324854
0.328425
0.331106
0.333185
0.334606
0.335556
0.336121
0.336743
0.338136
0.341236
0.346694
0.353062
0.357094
0.353992
0.340044
0.316466
0.288282
0.261317
0.241835
0.234127
0.239011
0.254391
0.278399
0.30989
0.345471
0.379143
0.407499
0.42979
0.446391
0.458477
0.467647
0.475013
0.481553
0.487255
0.492047
0.495374
0.497614
0.498595
0.499133
0.498919
0.498789
0.498089
0.497661
0.496543
0.495756
0.494127
0.492979
0.490773
0.489058
0.485753
0.48278
0.477565
0.472701
0.465056
0.458033
0.44767
0.438256
0.424698
0.412329
0.394627
0.378194
0.354729
0.3323
0.300431
0.268678
0.224104
0.177301
0.113602
0.0431825
0.284415
0.294148
0.299407
0.308688
0.314952
0.320737
0.325149
0.328724
0.331436
0.333545
0.335005
0.336003
0.336632
0.337331
0.338781
0.34183
0.347058
0.353025
0.356642
0.353397
0.33982
0.317124
0.290128
0.264405
0.245903
0.238696
0.243663
0.258902
0.28242
0.312776
0.346615
0.378337
0.404892
0.425664
0.441083
0.452444
0.461442
0.469211
0.476659
0.483543
0.489512
0.493822
0.496795
0.498267
0.499108
0.499058
0.499005
0.498322
0.497876
0.496713
0.495864
0.494163
0.492939
0.490662
0.488881
0.485522
0.482505
0.477258
0.472376
0.464721
0.457705
0.447348
0.437955
0.424411
0.412065
0.394375
0.377957
0.354497
0.332068
0.300202
0.268428
0.223877
0.177038
0.113451
0.0430359
0.28784
0.295941
0.300691
0.309407
0.315425
0.321077
0.325462
0.329043
0.331791
0.33394
0.33545
0.336506
0.337212
0.337996
0.339504
0.342494
0.347475
0.353019
0.356202
0.352808
0.339622
0.317847
0.29209
0.267667
0.250217
0.243594
0.248703
0.263794
0.286758
0.31589
0.347902
0.377613
0.402294
0.421415
0.435489
0.445986
0.454734
0.462908
0.471351
0.479547
0.486817
0.492206
0.495975
0.497975
0.499137
0.499257
0.499279
0.498608
0.498137
0.496924
0.496007
0.494231
0.492925
0.490574
0.488721
0.485306
0.482241
0.476961
0.47206
0.464396
0.457387
0.44704
0.437669
0.424141
0.411821
0.394144
0.377744
0.354291
0.331865
0.300003
0.268214
0.223684
0.176814
0.113324
0.0429133
0.291232
0.297729
0.301981
0.31014
0.315914
0.321433
0.325792
0.329382
0.33217
0.334366
0.335937
0.337064
0.337857
0.338733
0.3403
0.343227
0.34795
0.353062
0.355808
0.352273
0.339508
0.318693
0.294219
0.271145
0.254807
0.248836
0.254125
0.269038
0.29137
0.319198
0.349321
0.376979
0.399715
0.417043
0.429594
0.439079
0.447494
0.456076
0.465605
0.475255
0.483964
0.490533
0.495163
0.497726
0.499225
0.499521
0.499614
0.498949
0.498446
0.497177
0.496186
0.49433
0.492938
0.490509
0.488581
0.485106
0.481988
0.476674
0.471753
0.464081
0.457081
0.446745
0.437399
0.423889
0.411595
0.393935
0.377554
0.354111
0.331692
0.299836
0.268036
0.223526
0.176632
0.11322
0.0428139
0.294598
0.299509
0.303275
0.310886
0.316415
0.321805
0.326137
0.329739
0.332571
0.334821
0.336461
0.337669
0.33856
0.339536
0.341163
0.344027
0.348485
0.353168
0.355488
0.351835
0.339529
0.319713
0.296565
0.274882
0.259698
0.254428
0.259909
0.274592
0.296209
0.322665
0.350863
0.376444
0.397166
0.412546
0.423387
0.431705
0.439698
0.448686
0.459399
0.470657
0.480951
0.488808
0.494364
0.497527
0.49938
0.499853
0.500013
0.499348
0.498805
0.497473
0.496402
0.494461
0.492978
0.490467
0.488459
0.48492
0.481748
0.476398
0.471456
0.463779
0.456787
0.446466
0.437144
0.423656
0.411389
0.393749
0.377389
0.353958
0.331548
0.2997
0.267895
0.223403
0.176491
0.113141
0.0427376
0.297945
0.301278
0.304569
0.311642
0.316928
0.322191
0.326496
0.330112
0.332991
0.335301
0.337018
0.338317
0.339315
0.340395
0.342085
0.344886
0.349084
0.35335
0.355267
0.35153
0.339725
0.320948
0.299164
0.27891
0.264903
0.260352
0.266014
0.280402
0.301225
0.326262
0.352523
0.376019
0.394659
0.407927
0.416863
0.423859
0.431335
0.440724
0.452719
0.465747
0.477781
0.487037
0.493588
0.497385
0.499605
0.500257
0.50048
0.499806
0.499214
0.497812
0.496655
0.494624
0.493046
0.490449
0.488356
0.484751
0.481521
0.476135
0.471172
0.46349
0.456507
0.446203
0.436906
0.423442
0.411204
0.393585
0.377248
0.353833
0.331434
0.299595
0.267791
0.223304
0.176393
0.113089
0.0426849
0.301279
0.303035
0.305862
0.312406
0.317451
0.32259
0.326869
0.330499
0.333428
0.335802
0.337603
0.339001
0.340113
0.341303
0.343058
0.3458
0.349746
0.353618
0.355166
0.351385
0.340122
0.32242
0.30203
0.28322
0.270408
0.266571
0.27238
0.286407
0.306369
0.329963
0.354301
0.375718
0.392205
0.403192
0.410028
0.41555
0.422416
0.43219
0.445558
0.460521
0.474457
0.48523
0.492843
0.497309
0.499908
0.500739
0.501017
0.500326
0.499676
0.498194
0.496944
0.494819
0.493141
0.490454
0.488273
0.484598
0.481308
0.475885
0.470899
0.463215
0.456243
0.445957
0.436687
0.423249
0.41104
0.393446
0.377132
0.353735
0.331351
0.299521
0.267711
0.223243
0.176315
0.113038
0.0426549
0.304607
0.304777
0.307149
0.313174
0.317981
0.323
0.327254
0.330901
0.333881
0.336323
0.338213
0.339714
0.340946
0.342249
0.344072
0.346762
0.350471
0.353978
0.355197
0.351416
0.340732
0.324133
0.305157
0.287795
0.276171
0.273022
0.278936
0.292543
0.311597
0.333748
0.356201
0.375557
0.38982
0.398355
0.402906
0.406815
0.412975
0.423103
0.437924
0.454984
0.470988
0.483395
0.492138
0.497304
0.500293
0.501302
0.501628
0.50091
0.50019
0.498621
0.49727
0.495045
0.493263
0.490483
0.488208
0.484461
0.481108
0.475648
0.470641
0.462956
0.455994
0.445729
0.436487
0.423077
0.410898
0.39333
0.377041
0.353664
0.331299
0.299479
0.267688
0.223227
0.176303
0.113038
0.0426401
0.307935
0.3065
0.308428
0.313945
0.318518
0.32342
0.327651
0.331316
0.334348
0.336862
0.338843
0.340452
0.341807
0.343226
0.345118
0.347764
0.351256
0.354434
0.35537
0.351634
0.341558
0.326079
0.308517
0.292593
0.282131
0.279633
0.285608
0.29875
0.316874
0.337604
0.358232
0.375554
0.387523
0.393445
0.395542
0.397718
0.403079
0.413514
0.429844
0.449152
0.467386
0.481546
0.491485
0.497381
0.500766
0.50195
0.502314
0.501558
0.500758
0.499093
0.497633
0.495302
0.49341
0.490533
0.488163
0.48434
0.480923
0.475425
0.470397
0.462712
0.455763
0.445521
0.436306
0.422927
0.410778
0.393237
0.376976
0.35362
0.331276
0.299478
0.267693
0.223237
0.176323
0.113051
0.0426529
0.31127
0.308201
0.309697
0.314715
0.319059
0.32385
0.328059
0.331743
0.33483
0.337417
0.339492
0.341211
0.342691
0.344226
0.34619
0.348799
0.352098
0.354986
0.355688
0.352039
0.342591
0.328237
0.312073
0.297557
0.288221
0.286328
0.292326
0.304978
0.322173
0.341527
0.360408
0.375728
0.385339
0.388506
0.388009
0.388352
0.392825
0.4035
0.421367
0.443049
0.463667
0.479694
0.490893
0.497546
0.501334
0.502686
0.503078
0.502272
0.501381
0.499608
0.498032
0.49559
0.493583
0.490605
0.488135
0.484235
0.480752
0.475217
0.470168
0.462486
0.455551
0.445333
0.436147
0.422799
0.410681
0.39317
0.376936
0.353603
0.331282
0.299503
0.267733
0.223279
0.176381
0.113084
0.042687
0.314619
0.309878
0.310951
0.315483
0.319602
0.324288
0.328478
0.332183
0.335325
0.337986
0.340157
0.341987
0.343592
0.345243
0.34728
0.349863
0.352992
0.355632
0.356149
0.352628
0.34382
0.33058
0.315781
0.302632
0.294373
0.293038
0.299033
0.311189
0.327475
0.345518
0.362745
0.3761
0.383302
0.3836
0.380403
0.378841
0.382344
0.393172
0.412565
0.436718
0.459855
0.477857
0.490375
0.497808
0.502
0.503514
0.503921
0.503053
0.502058
0.500169
0.498467
0.495907
0.493781
0.490698
0.488125
0.484145
0.480595
0.475024
0.469956
0.462278
0.455358
0.445167
0.43601
0.422695
0.410608
0.393129
0.376923
0.353616
0.331315
0.299558
0.267812
0.223357
0.17648
0.113141
0.0427429
0.317988
0.311528
0.312189
0.316244
0.320146
0.324733
0.328906
0.332635
0.335834
0.338571
0.340837
0.342779
0.344509
0.346274
0.348385
0.35095
0.353935
0.356366
0.356747
0.35339
0.345226
0.333081
0.319602
0.307766
0.300527
0.29971
0.305684
0.317355
0.33277
0.349585
0.365261
0.376694
0.381451
0.378804
0.372844
0.369327
0.371783
0.382664
0.403533
0.430214
0.455981
0.476054
0.489944
0.498174
0.50277
0.504436
0.504846
0.503902
0.502789
0.500773
0.498936
0.496253
0.494002
0.49081
0.488131
0.48407
0.480454
0.474847
0.469761
0.46209
0.455185
0.445023
0.435895
0.422615
0.41056
0.393113
0.376939
0.353654
0.331374
0.299644
0.267927
0.223469
0.17662
0.113222
0.0428215
0.321384
0.313146
0.313408
0.316998
0.32069
0.325183
0.329343
0.333099
0.336355
0.339169
0.341532
0.343585
0.345437
0.347316
0.349501
0.352057
0.354923
0.357184
0.357475
0.354314
0.346791
0.335714
0.3235
0.312915
0.306636
0.306301
0.31225
0.323458
0.338055
0.353738
0.367974
0.377536
0.379834
0.374209
0.365459
0.359964
0.361305
0.372125
0.394385
0.423604
0.452083
0.474305
0.48961
0.498653
0.503648
0.505455
0.505852
0.504818
0.503574
0.50142
0.49944
0.496627
0.494246
0.490941
0.488153
0.48401
0.480327
0.474686
0.469583
0.461922
0.455034
0.444903
0.435805
0.42256
0.410537
0.393124
0.376984
0.353716
0.331487
0.29976
0.268079
0.223615
0.176802
0.113327
0.0429231
0.324813
0.31473
0.314604
0.317741
0.32123
0.325639
0.329789
0.333574
0.336889
0.339781
0.342241
0.344405
0.346378
0.348367
0.350626
0.353183
0.355953
0.358081
0.358324
0.355385
0.348497
0.33845
0.327445
0.318046
0.312667
0.312785
0.318712
0.329489
0.343332
0.35799
0.370899
0.378652
0.378501
0.369908
0.358381
0.3509
0.351069
0.361712
0.385248
0.416972
0.448204
0.472633
0.489388
0.499251
0.504637
0.506572
0.506941
0.505802
0.504413