/*--------------------------------*- C++ -*----------------------------------*\
| =========                 |                                                 |
| \\      /  F ield         | OpenFOAM: The Open Source CFD Toolbox           |
|  \\    /   O peration     | Version:  2.4.0                                 |
|   \\  /    A nd           | Web:      www.OpenFOAM.org                      |
|    \\/     M anipulation  |                                                 |
\*---------------------------------------------------------------------------*/
FoamFile
{
    version     2.0;
    format      ascii;
    class       volScalarField;
    location    "6.12";
    object      epsilon;
}
// * * * * * * * * * * * * * * * * * * * * * * * * * * * * * * * * * * * * * //

dimensions      [0 2 -3 0 0 0 0];

internalField   nonuniform List<scalar> 
6000
(
0.995191
0.381697
0.0487496
0.00579624
0.000783522
0.0030555
0.00200632
0.00378722
0.00425286
0.00589028
0.00698209
0.00852172
0.00981362
0.0114334
0.0132354
0.0155038
0.018121
0.0210785
0.0242465
0.0275908
0.031114
0.0351511
0.0393085
0.0435903
0.0479901
0.0525048
0.0571318
0.0618719
0.0667261
0.0716946
0.0768115
0.0820363
0.0873703
0.0928109
0.0983515
0.103987
0.109708
0.115512
0.121384
0.127332
0.133324
0.139405
0.14549
0.151696
0.157904
0.165323
0.180359
0.198277
0.217228
0.241575
0.26609
0.301594
0.333996
0.390944
0.434487
0.537546
0.596436
0.814378
0.899984
1.54277
0.558285
0.355021
0.0228234
0.00519106
0.000372738
0.00094046
0.000899955
0.00142335
0.0017706
0.00232783
0.00283853
0.00340669
0.00398721
0.00465528
0.00545123
0.00641054
0.00752678
0.00877051
0.010109
0.0115204
0.0130087
0.0146185
0.0162762
0.017978
0.0197226
0.0215098
0.0233408
0.0252173
0.027142
0.0291196
0.0311769
0.0332977
0.0354767
0.0377157
0.0400159
0.0423787
0.0448055
0.0472986
0.0498591
0.0524925
0.0551974
0.0579884
0.0608575
0.0638353
0.0669475
0.0704983
0.0759129
0.0820804
0.0887575
0.0967074
0.105224
0.116063
0.127398
0.14333
0.159317
0.185085
0.210724
0.257096
0.309755
0.419493
0.416734
0.411466
0.0305984
0.00378814
0.000302714
0.000559465
0.000661038
0.000973847
0.00126743
0.0016462
0.00202881
0.00243731
0.00287393
0.00337576
0.00397931
0.0047034
0.00554425
0.00647862
0.00748329
0.00854157
0.00965147
0.0108216
0.0120243
0.0132566
0.0145182
0.0158092
0.0171309
0.0184852
0.0198749
0.0213048
0.022791
0.0243215
0.0258956
0.0275151
0.0291818
0.0308976
0.0326645
0.0344851
0.0363618
0.038299
0.0402992
0.0423711
0.0445183
0.0467586
0.049146
0.0517786
0.0553003
0.0592046
0.063475
0.0683292
0.0736867
0.0800129
0.0870801
0.0958547
0.105857
0.119037
0.135008
0.156768
0.189252
0.233536
0.367367
0.406302
0.0520375
0.00234725
0.00029351
0.000449528
0.000579216
0.000830325
0.00109563
0.00141827
0.0017518
0.00210715
0.00249118
0.00293525
0.00346934
0.00410888
0.00484892
0.0056696
0.00655067
0.00747757
0.00844565
0.00945488
0.0104906
0.0115505
0.0126343
0.0137424
0.014876
0.0160369
0.0172279
0.0184535
0.0197234
0.0210294
0.0223718
0.0237522
0.0251724
0.0266341
0.0281391
0.0296899
0.0312889
0.0329396
0.0346455
0.0364132
0.03825
0.04017
0.0422323
0.0444486
0.0472173
0.0502356
0.0535514
0.0572165
0.0613243
0.0659669
0.0713404
0.0775578
0.0851453
0.0940847
0.106153
0.120168
0.144127
0.170407
0.343017
0.37637
0.0745232
0.00180432
0.000311578
0.000412278
0.000549016
0.000774872
0.00102482
0.00132388
0.00163461
0.00196724
0.00232772
0.00274621
0.00324837
0.00384855
0.00454109
0.00530816
0.00613091
0.00699579
0.0078967
0.00883062
0.00978806
0.0107671
0.0117675
0.0127896
0.0138346
0.0149043
0.0160013
0.0171297
0.0182953
0.0194925
0.020722
0.0219851
0.0232831
0.0246177
0.0259904
0.0274034
0.0288586
0.0303594
0.031909
0.0335132
0.0351808
0.0369256
0.0387992
0.0407748
0.0431402
0.0456884
0.0484907
0.0515316
0.0549674
0.0587439
0.0632064
0.0681489
0.0744332
0.0813466
0.0913263
0.10182
0.121376
0.139972
0.329443
0.340309
0.0979074
0.00276875
0.000362944
0.000405058
0.000543577
0.000756538
0.000998045
0.00128638
0.0015864
0.00190929
0.00225925
0.00266607
0.00315261
0.00373302
0.00440144
0.0051415
0.00593512
0.00676921
0.00763673
0.00853332
0.00945199
0.010391
0.0113501
0.0123296
0.0133307
0.014355
0.0154049
0.0164843
0.0175964
0.0187374
0.0199077
0.0211086
0.0223412
0.0236066
0.0249063
0.0262418
0.0276151
0.0290289
0.0304862
0.0319923
0.033557
0.0351946
0.0369408
0.0387598
0.0408732
0.0431292
0.0456076
0.0482621
0.051273
0.0545209
0.0584075
0.0625899
0.0680517
0.0737958
0.082471
0.0910055
0.107893
0.122329
0.321262
0.305842
0.115087
0.00804122
0.0004933
0.000416984
0.000554229
0.000758768
0.000995719
0.00127959
0.00157552
0.0018956
0.00224214
0.00264468
0.00312425
0.00369519
0.00435197
0.00507931
0.00585967
0.00668006
0.00753276
0.00841268
0.0093141
0.0102353
0.0111762
0.0121369
0.0131184
0.0141224
0.0151511
0.0162079
0.0172945
0.0184079
0.0195487
0.0207177
0.0219158
0.0231439
0.024403
0.0256945
0.0270196
0.0283808
0.0297811
0.0312249
0.0327232
0.0342901
0.0359421
0.0376513
0.0395916
0.0416469
0.0438995
0.046289
0.0490026
0.0518913
0.0553753
0.0590513
0.0639406
0.0689262
0.076704
0.084004
0.0990827
0.110922
0.315829
0.275753
0.126884
0.0179686
0.000819297
0.000448135
0.000578633
0.000775394
0.00100984
0.00129262
0.00158853
0.00190999
0.00225754
0.00266029
0.00313805
0.0037057
0.00435831
0.00508163
0.00585845
0.00667574
0.00752518
0.00840117
0.00929867
0.010216
0.0111529
0.0121095
0.0130867
0.014086
0.0151095
0.0161602
0.0172384
0.0183421
0.0194716
0.0206276
0.0218104
0.0230207
0.0242593
0.0255269
0.0268246
0.0281543
0.0295189
0.0309223
0.0323762
0.0338924
0.0354718
0.037099
0.038912
0.0408196
0.0429033
0.045097
0.0475873
0.0502128
0.0533949
0.056706
0.0611689
0.0656208
0.0727384
0.0791909
0.0929453
0.102997
0.311896
0.250635
0.134085
0.0307437
0.00162966
0.000507022
0.000617823
0.000804486
0.00103713
0.0013206
0.0016191
0.00194473
0.00229628
0.00270224
0.00318161
0.00374995
0.00440328
0.0051283
0.00590807
0.00672939
0.00758339
0.00846406
0.00936667
0.0102895
0.0112321
0.0121946
0.0131778
0.0141831
0.0152123
0.016268
0.0173496
0.0184556
0.0195861
0.0207414
0.0219218
0.0231274
0.0243585
0.0256156
0.0268995
0.0282115
0.0295542
0.0309313
0.0323552
0.0338314
0.0353534
0.0369161
0.0386302
0.0404229
0.0423733
0.0444138
0.0467269
0.0491479
0.0520913
0.0551234
0.0592519
0.0633049
0.0699118
0.075744
0.0884729
0.0972066
0.3089
0.230186
0.137434
0.0445378
0.00371053
0.000616666
0.000675803
0.00084648
0.00107666
0.00136152
0.00166427
0.00199602
0.00235373
0.00276505
0.00324841
0.00382022
0.00447764
0.00520836
0.00599567
0.00682613
0.00769034
0.00858188
0.00949611
0.0104312
0.0113866
0.0123623
0.013359
0.0143778
0.0154206
0.0164893
0.0175827
0.0186996
0.0198398
0.0210035
0.0221903
0.0234003
0.0246332
0.0258892
0.0271685
0.0284721
0.0298023
0.0311626
0.032566
0.0340071
0.0354831
0.0369928
0.0386268
0.0403256
0.0421658
0.0440807
0.0462469
0.0485012
0.0512476
0.0540558
0.0579114
0.0616512
0.0678469
0.0732015
0.0851009
0.0928099
0.306552
0.213783
0.137736
0.0574669
0.00840968
0.000832241
0.000760589
0.000903718
0.00112912
0.00141506
0.00172298
0.00206216
0.00242765
0.00284596
0.00333508
0.00391234
0.00457629
0.00531561
0.00611387
0.00695731
0.00783599
0.00874308
0.00967389
0.0106264
0.0115999
0.0125943
0.0136102
0.0146485
0.0157108
0.0167986
0.0179101
0.0190443
0.0202007
0.0213792
0.0225792
0.0238001
0.0250414
0.0263028
0.0275841
0.0288859
0.0302102
0.0315601
0.0329479
0.0343581
0.0357957
0.0372599
0.0388261
0.0404452
0.0421907
0.0439983
0.0460381
0.048151
0.0507289
0.0533501
0.0569751
0.0604591
0.0663122
0.0712838
0.0824884
0.0893692
0.304675
0.200744
0.135801
0.0685393
0.0149607
0.00127298
0.000886991
0.000980699
0.00119652
0.00148212
0.00179538
0.00214284
0.00251728
0.00294384
0.00344007
0.00402427
0.00469655
0.00544666
0.00625844
0.00711782
0.00801432
0.00894064
0.00989193
0.010866
0.0118619
0.0128794
0.0139189
0.0149812
0.0160677
0.0171794
0.0183139
0.0194703
0.0206479
0.0218462
0.0230642
0.024301
0.0255556
0.0268272
0.0281152
0.0294197
0.0307425
0.0320864
0.0334604
0.0348433
0.0362475
0.0376712
0.0391779
0.0407268
0.0423881
0.0441008
0.0460284
0.048017
0.0504465
0.052906
0.0563305
0.0595981
0.0651574
0.0698109
0.0804168
0.086608
0.303153
0.190437
0.132365
0.0772373
0.022779
0.00222703
0.00108282
0.00108497
0.0012824
0.00156468
0.00188264
0.0022387
0.00262292
0.00305867
0.00356304
0.00415531
0.00483725
0.0055998
0.00642711
0.00730479
0.00822177
0.0091703
0.0101452
0.0111441
0.0121658
0.01321
0.0142768
0.0153669
0.0164815
0.0176208
0.0187821
0.0199645
0.0211672
0.0223891
0.0236289
0.0248852
0.0261567
0.027442
0.02874
0.0300504
0.0313748
0.0327158
0.0340749
0.035434
0.0368081
0.0381943
0.039647
0.0411319
0.0427164
0.0443425
0.0461676
0.0480437
0.0503391
0.0526545
0.0559003
0.0589794
0.0642806
0.0686617
0.0787398
0.0843434
0.301904
0.18232
0.128047
0.0834314
0.030984
0.00444572
0.00140287
0.00122891
0.00139221
0.00166599
0.00198689
0.00235126
0.00274566
0.00319129
0.00370457
0.00430573
0.00499833
0.00577457
0.00661898
0.00751682
0.00845647
0.00942962
0.0104308
0.0114573
0.0125077
0.0135814
0.0146785
0.0157995
0.0169453
0.0181152
0.0193064
0.020518
0.0217487
0.0229972
0.0242617
0.0255403
0.0268312
0.0281326
0.029443
0.0307615
0.0320894
0.0334278
0.0347718
0.0361094
0.0374552
0.0388056
0.0402079
0.0416328
0.0431451
0.0446902
0.0464196
0.0481915
0.0503628
0.0525467
0.0556297
0.0585402
0.0636096
0.0677516
0.0773554
0.0824495
0.300871
0.175944
0.123331
0.0872483
0.0390839
0.0082307
0.00195258
0.00143319
0.00153421
0.0017908
0.00211133
0.00248293
0.00288743
0.00334329
0.00386596
0.00447657
0.00518052
0.00597137
0.00683407
0.00775358
0.00871767
0.00971746
0.0107471
0.0118035
0.012885
0.0139907
0.0151206
0.016275
0.0174546
0.0186576
0.0198813
0.0211245
0.0223855
0.0236629
0.0249541
0.026257
0.0275692
0.0288884
0.0302125
0.0315404
0.0328731
0.0342069
0.0355366
0.0368537
0.038172
0.0394873
0.0408412
0.0422085
0.0436517
0.0451192
0.0467576
0.0484307
0.0504853
0.0525464
0.0554784
0.0582348
0.0630919
0.0670192
0.0761904
0.0808365
0.300012
0.170948
0.118572
0.0889718
0.0465941
0.0134799
0.00293936
0.00173306
0.00172088
0.00194597
0.00226045
0.0026371
0.00305096
0.00351699
0.00404926
0.0046696
0.0053853
0.00619136
0.00707324
0.00801558
0.00900553
0.0100336
0.0110935
0.0121818
0.0132963
0.0144362
0.015601
0.0167909
0.0180065
0.0192445
0.0205026
0.0217793
0.0230726
0.0243804
0.0257
0.0270285
0.0283631
0.0297011
0.0310398
0.0323776
0.0337146
0.0350419
0.0363577
0.0376546
0.0389453
0.0402254
0.0415319
0.0428428
0.0442186
0.0456106
0.0471609
0.0487388
0.0506817
0.0526262
0.0554159
0.0580287
0.0626885
0.0664193
0.0751908
0.0794391
0.299295
0.167041
0.114012
0.0889699
0.0531002
0.0197286
0.00479274
0.00219058
0.0019713
0.0021413
0.00244045
0.00281836
0.0032399
0.00371552
0.00425718
0.00488723
0.00561479
0.00643638
0.007338
0.00830402
0.00932095
0.0103787
0.0114703
0.012592
0.0137414
0.0149171
0.0161185
0.0173456
0.0185988
0.0198736
0.0211678
0.0224794
0.0238061
0.0251457
0.0264945
0.0278495
0.0292071
0.0305642
0.0319178
0.0332655
0.0346044
0.0359242
0.0372258
0.0385021
0.0397647
0.0410088
0.0422679
0.0435226
0.0448317
0.0461492
0.0476131
0.049098
0.0509327
0.0527649
0.0554186
0.0578956
0.0623692
0.0659174
0.074316
0.0782082
0.298693
0.163993
0.109805
0.08764
0.058311
0.0264722
0.00777162
0.00291474
0.00231525
0.00239087
0.00265983
0.00303282
0.00345905
0.00394291
0.00449328
0.00513261
0.00587179
0.00670888
0.00763049
0.00862074
0.00966547
0.0107538
0.0118785
0.0130349
0.0142204
0.0154333
0.0166728
0.0179386
0.0192308
0.0205436
0.0218748
0.0232224
0.0245835
0.0259554
0.0273341
0.0287158
0.0300965
0.0314727
0.0328408
0.0341972
0.035535
0.0368468
0.0381335
0.0393881
0.0406213
0.0418282
0.0430392
0.0442374
0.0454796
0.0467228
0.0481011
0.0494941
0.051223
0.0529456
0.055468
0.0578148
0.0621107
0.0654871
0.0735347
0.0771064
0.298187
0.161623
0.106031
0.0853673
0.0620763
0.0332258
0.0118511
0.00409727
0.00280001
0.00271521
0.00293023
0.00328858
0.00371461
0.00420432
0.00476196
0.00540966
0.0061598
0.00701201
0.00795351
0.00896819
0.0100412
0.011161
0.0123194
0.0135115
0.0147342
0.0159855
0.0172642
0.0185698
0.0199019
0.0212535
0.0226227
0.0240069
0.0254027
0.0268073
0.0282158
0.0296241
0.0310276
0.0324223
0.033804
0.0351659
0.0365011
0.0378036
0.0390741
0.0403055
0.0415078
0.0426757
0.0438376
0.044978
0.0461528
0.0473211
0.0486139
0.0499155
0.0515399
0.0531547
0.0555491
0.0577697
0.0618945
0.0651073
0.0728226
0.0761046
0.297761
0.159788
0.102725
0.0824978
0.0643786
0.0395469
0.0167849
0.0060206
0.00350159
0.00314446
0.00326776
0.00359638
0.00401454
0.00450619
0.00506874
0.00572322
0.00648313
0.00734961
0.00831049
0.00934944
0.0104509
0.0116024
0.0127952
0.0140238
0.0152844
0.0165747
0.0178934
0.0192396
0.0206122
0.0220033
0.0234108
0.0248317
0.0262625
0.0276995
0.0291375
0.0305718
0.0319973
0.0334093
0.0348023
0.0361666
0.0374978
0.0387895
0.040042
0.0412483
0.0424176
0.0435445
0.0446555
0.0457368
0.0468431
0.0479355
0.0491424
0.0503522
0.0518728
0.0533809
0.0556497
0.0577469
0.0617056
0.0647615
0.0721604
0.0751797
0.2974
0.158373
0.0998822
0.0793218
0.0653127
0.0450686
0.0223053
0.00886985
0.00454228
0.0037234
0.00369479
0.0039705
0.0043691
0.00485665
0.00542039
0.00607917
0.00684696
0.00772632
0.00870558
0.0097682
0.0108978
0.0120811
0.0133085
0.0145738
0.0158728
0.0172027
0.0185619
0.0199491
0.0213625
0.0227932
0.0242389
0.0256965
0.0271617
0.0286307
0.0300974
0.0315566
0.0330027
0.0344304
0.0358307
0.0371957
0.0385209
0.0397998
0.0410322
0.042211
0.0433449
0.0444285
0.0454867
0.046507
0.0475431
0.0485582
0.0496784
0.050796
0.0522129
0.0536146
0.0557594
0.0577354
0.0615317
0.064436
0.0715325
0.0743134
0.297095
0.157289
0.0974793
0.0760687
0.0650559
0.0495204
0.0280833
0.0126504
0.00611226
0.00451877
0.00424268
0.00442998
0.00479149
0.00526588
0.00582524
0.00648461
0.00725752
0.00814766
0.0091437
0.0102289
0.0113859
0.0126006
0.0138624
0.0151645
0.0165019
0.0178714
0.0192711
0.0206996
0.0221536
0.0236236
0.0251073
0.026601
0.0280998
0.0295997
0.0310939
0.0325765
0.0340416
0.035481
0.0368861
0.0382496
0.0395666
0.0408302
0.0420399
0.0431886
0.0442845
0.045322
0.0463251
0.0472823
0.0482464
0.0491827
0.0502151
0.0512393
0.0525524
0.0538478
0.0558697
0.0577258
0.0613628
0.0641199
0.0709262
0.0734907
0.296836
0.156467
0.0954785
0.0729076
0.0638361
0.0527395
0.0337615
0.0172437
0.00837331
0.00562929
0.0049555
0.00500031
0.00529876
0.00574666
0.00629351
0.00694817
0.00772224
0.00862015
0.00963065
0.0107366
0.0119198
0.0131649
0.0144606
0.0157989
0.0171744
0.0185832
0.0200232
0.0214929
0.0229868
0.0244956
0.0260164
0.0275452
0.0290764
0.0306059
0.0321258
0.03363
0.0351103
0.0365582
0.0379657
0.0393252
0.0406313
0.0418767
0.0430608
0.0441764
0.0452313
0.04622
0.0471654
0.0480571
0.0489473
0.0498029
0.050746
0.0516759
0.0528846
0.0540735
0.055973
0.0577102
0.0611902
0.063804
0.0703313
0.0726993
0.296615
0.155852
0.0938362
0.0699541
0.0619016
0.0546726
0.0389908
0.0224218
0.0114247
0.00718231
0.00589523
0.00571556
0.0059129
0.00631501
0.00683774
0.00748019
0.00824995
0.0091515
0.0101732
0.0112974
0.0125048
0.0137789
0.0151072
0.0164809
0.0178936
0.0193411
0.0208207
0.0223309
0.0238637
0.0254103
0.0269669
0.0285293
0.0300913
0.0316485
0.0331921
0.034714
0.0362061
0.0376598
0.0390669
0.0404193
0.0417114
0.0429355
0.0440907
0.0451701
0.0461807
0.0471174
0.0480024
0.048826
0.0496401
0.0504131
0.0512655
0.0520998
0.0532035
0.0542854
0.056063
0.0576821
0.0610068
0.0634807
0.069739
0.0719291
0.296427
0.155399
0.0925072
0.0672786
0.0594947
0.0553668
0.0434639
0.0278896
0.0152739
0.00930161
0.0071466
0.00662121
0.00666231
0.006991
0.00747327
0.00809315
0.00885114
0.00975072
0.0107792
0.0119182
0.0131471
0.014448
0.0158071
0.0172146
0.0186633
0.0201481
0.0216662
0.023216
0.0247862
0.0263689
0.0279598
0.029554
0.0311445
0.0327272
0.0342902
0.0358264
0.0373272
0.0387836
0.0401871
0.0415291
0.0428035
0.0440028
0.0451257
0.0461652
0.0471282
0.0480097
0.0488313
0.0495842
0.0503199
0.0510081
0.0517682
0.0525056
0.0535037
0.0544781
0.0561339
0.0576354
0.0608065
0.0631434
0.0691423
0.0711713
0.296266
0.155074
0.0914475
0.0649163
0.0568335
0.0549517
0.0469432
0.0333191
0.0198202
0.0120909
0.00880474
0.00777679
0.00758352
0.00779966
0.00821885
0.00880197
0.00953819
0.0104284
0.0114577
0.0126069
0.0138535
0.0151782
0.0165657
0.0180049
0.0194876
0.021008
0.022563
0.0241507
0.0257562
0.0273731
0.028996
0.0306196
0.0322361
0.0338394
0.0354187
0.036966
0.0384721
0.0399276
0.0413237
0.0426514
0.0439045
0.0450751
0.0461617
0.0471576
0.0480695
0.0488922
0.0496474
0.0503268
0.0509817
0.0515831
0.0522493
0.0528885
0.05378
0.0546466
0.0561807
0.0575652
0.0605839
0.0627868
0.068535
0.070419
0.296128
0.15485
0.0906163
0.0628757
0.0541
0.053616
0.0492798
0.0383784
0.0248703
0.0155967
0.0109701
0.00925205
0.00872282
0.0087721
0.00909728
0.0096245
0.0103257
0.0111967
0.0122193
0.0133727
0.0146321
0.0159766
0.017389
0.018857
0.0203712
0.0219248
0.0235143
0.0251376
0.026776
0.0284246
0.0300768
0.0317259
0.0333643
0.0349849
0.0365768
0.0381313
0.0396388
0.0410895
0.042474
0.0437833
0.0450108
0.0461485
0.0471949
0.0481432
0.049
0.0497605
0.0504461
0.0510492
0.0516207
0.0521333
0.052704
0.0532437
0.0540281
0.0547863
0.0561988
0.0574667
0.0603344
0.0624061
0.0679119
0.0696657
0.296009
0.154706
0.0899769
0.061147
0.0514351
0.0515809
0.0504228
0.0427605
0.0301624
0.0197843
0.0137288
0.0111249
0.0101344
0.00994649
0.0101361
0.0105819
0.0112307
0.0120698
0.0130759
0.0142257
0.0154917
0.0168508
0.0182839
0.0197768
0.021319
0.0229027
0.0245239
0.0261796
0.027848
0.0295244
0.0312018
0.0328728
0.0345292
0.0361632
0.0377637
0.0393212
0.0408257
0.0422669
0.0436355
0.0449217
0.0461191
0.0472195
0.0482212
0.0491177
0.0499155
0.0506101
0.0512227
0.0517466
0.0522325
0.0526542
0.0531278
0.0535669
0.0542434
0.054893
0.0561841
0.0573361
0.0600539
0.0619972
0.0672685
0.0689064
0.295906
0.154624
0.0894969
0.0597086
0.048939
0.0490743
0.0504158
0.0462101
0.0353934
0.0245326
0.0171286
0.0134736
0.0118793
0.0113662
0.011368
0.0116995
0.0122733
0.0130641
0.0140413
0.0151776
0.0164423
0.0178095
0.0192576
0.0207707
0.0223367
0.0239464
0.0255954
0.027279
0.0289734
0.0306736
0.0323721
0.0340608
0.035731
0.0373738
0.0389782
0.040534
0.0420307
0.0434576
0.0448052
0.0460635
0.0472259
0.0482841
0.0492365
0.0500769
0.0508115
0.0514365
0.0519729
0.0524147
0.0528124
0.0531414
0.0535165
0.0538539
0.054422
0.0549629
0.0561328
0.0571696
0.0597388
0.0615567
0.0666011
0.0681363
0.295817
0.154591
0.0891484
0.0585324
0.0466755
0.0463105
0.0493843
0.0485466
0.0402456
0.0296435
0.0211578
0.0163631
0.0140217
0.0130798
0.0128293
0.0130051
0.0134759
0.0141981
0.015131
0.0162416
0.017495
0.0188619
0.020318
0.0218452
0.0234294
0.0250602
0.0267323
0.028439
0.0301548
0.0318742
0.033589
0.0352906
0.0369696
0.0386163
0.0402194
0.0417682
0.0432517
0.044659
0.0459802
0.0472052
0.0483274
0.0493384
0.0502368
0.0510164
0.0516837
0.0522352
0.0526921
0.0530488
0.0533561
0.0535904
0.0538657
0.0541007
0.05456
0.0549921
0.0560414
0.0569639
0.059386
0.0610814
0.0659064
0.0673515
0.295739
0.154596
0.0889074
0.0575872
0.0446779
0.043474
0.0475141
0.0496796
0.044415
0.0348601
0.0257333
0.0198276
0.0166212
0.0151391
0.0145601
0.0145297
0.0148632
0.015492
0.0163615
0.0174315
0.0186614
0.020018
0.0214736
0.0230074
0.0246032
0.026249
0.0279389
0.0296628
0.0313945
0.0331277
0.0348535
0.0365626
0.0382447
0.0398897
0.0414858
0.0430218
0.0444864
0.0458682
0.0471573
0.0483435
0.0494199
0.0503785
0.0512177
0.0519318
0.0525276
0.0530017
0.0533756
0.0536446
0.0538592
0.053997
0.0541713
0.0543032
0.0546536
0.0549774
0.0559066
0.056716
0.0589925
0.0605687
0.0651813
0.0665484
0.295671
0.154629
0.0887538
0.056842
0.0429557
0.0407117
0.0450254
0.0496151
0.04764
0.0398882
0.0307008
0.0238549
0.0197224
0.0175942
0.0166026
0.0163071
0.0164621
0.0169675
0.0177509
0.0187624
0.0199543
0.0212885
0.0227333
0.0242649
0.0258644
0.0275181
0.0292194
0.0309538
0.0326951
0.0344359
0.0361666
0.0378769
0.039556
0.041193
0.0427759
0.0442928
0.0457321
0.0470823
0.0483331
0.0494744
0.0504993
0.0513999
0.0521748
0.0528187
0.0533384
0.0537313
0.054019
0.0541974
0.0543171
0.054357
0.0544294
0.0544578
0.0546993
0.0549153
0.0557253
0.056423
0.0585558
0.0600161
0.0644234
0.065724
0.295612
0.154684
0.0886706
0.0562668
0.0415019
0.0381298
0.0421472
0.0484505
0.0497268
0.0444208
0.0358431
0.0283742
0.0233415
0.0204866
0.0189981
0.0183719
0.0183011
0.018648
0.0193186
0.0202503
0.021387
0.0226847
0.0241067
0.0256255
0.0272194
0.0288727
0.0305782
0.032315
0.0340587
0.0358002
0.0375287
0.0392334
0.0409027
0.0425249
0.0440877
0.0455787
0.046986
0.0482978
0.0495039
0.050594
0.0515613
0.0523982
0.0531034
0.0536721
0.0541114
0.0544192
0.0546174
0.0547027
0.0547255
0.0546662
0.0546358
0.0545606
0.0546936
0.0548027
0.0554946
0.0560825
0.0580735
0.0594216
0.0636303
0.0648755
0.29556
0.154754
0.0886435
0.0558344
0.040298
0.0357962
0.0390935
0.0463582
0.0505697
0.0481656
0.0408958
0.0332532
0.0274546
0.02384
0.0217814
0.0207575
0.0204089
0.0205575
0.0210845
0.0219119
0.0229735
0.024218
0.0256032
0.0270972
0.0286749
0.030318
0.0320189
0.0337494
0.0354874
0.0372216
0.0389403
0.0406317
0.0422836
0.0438836
0.0454188
0.0468766
0.0482447
0.0495111
0.0506655
0.0516978
0.0526013
0.0533686
0.0539987
0.0544873
0.0548418
0.0550607
0.0551662
0.0551558
0.05508
0.0549203
0.0547867
0.054608
0.0546331
0.0546366
0.0552119
0.0556919
0.0575435
0.0587832
0.0628003
0.0640006
0.295514
0.154836
0.0886606
0.0555207
0.0393194
0.0337461
0.0360474
0.0435622
0.0501621
0.0508722
0.0455667
0.0383007
0.031988
0.0276509
0.0249753
0.0234923
0.0228121
0.0227194
0.0230684
0.0237639
0.0247279
0.0259003
0.0272326
0.0286878
0.030237
0.031859
0.0335448
0.0352596
0.0369826
0.0387007
0.0404011
0.0420709
0.0436972
0.0452668
0.0467665
0.0481832
0.0495044
0.0507181
0.0518137
0.0527813
0.0536145
0.0543061
0.0548556
0.055259
0.0555243
0.0556506
0.0556605
0.0555521
0.055376
0.0551151
0.0548781
0.0545964
0.0545146
0.0544139
0.0548744
0.0552492
0.0569638
0.0580992
0.0619314
0.0630969
0.295474
0.154924
0.0887121
0.0553045
0.0385386
0.0319887
0.0331505
0.0403097
0.048596
0.0523589
0.0495593
0.043277
0.0368146
0.0318786
0.0285824
0.0265945
0.0255327
0.0251545
0.025289
0.0258224
0.0266634
0.0277426
0.029004
0.0304047
0.0319116
0.0335002
0.035159
0.0368475
0.0385454
0.0402377
0.0419103
0.0435494
0.0451411
0.0466717
0.0481274
0.0494948
0.050761
0.051914
0.0529434
0.0538393
0.0545956
0.0552054
0.0556686
0.055982
0.0561538
0.056184
0.0560952
0.0558869
0.0556092
0.0552465
0.0549061
0.0545223
0.0543349
0.0541321
0.0544799
0.0547521
0.0563327
0.0573682
0.0610221
0.0621626
0.295439
0.155018
0.0887896
0.0551675
0.0379278
0.0305145
0.0305006
0.0368429
0.0460496
0.0525344
0.0525994
0.0479088
0.0417552
0.036439
0.0325778
0.0300672
0.0285839
0.0278788
0.0277617
0.0281011
0.0287922
0.0297551
0.0309256
0.0322546
0.0337038
0.0352454
0.0368639
0.0385144
0.0401759
0.0418318
0.0434665
0.045065
0.0466125
0.0480948
0.0494975
0.0508067
0.0520096
0.0530939
0.0540493
0.0548663
0.0555388
0.0560608
0.0564322
0.0566506
0.0567248
0.0566554
0.0564655
0.0561553
0.055775
0.0553102
0.054867
0.0543822
0.0540908
0.0537882
0.0540258
0.0541987
0.0556485
0.0565889
0.0600711
0.061196
0.295408
0.155113
0.0888864
0.0550943
0.0374609
0.029302
0.0281547
0.0333762
0.0427634
0.0514105
0.0544623
0.0519092
0.0465852
0.041201
0.0369016
0.0338911
0.0319659
0.0309003
0.030497
0.0306107
0.0311238
0.0319459
0.0330042
0.0342426
0.0356174
0.037097
0.0386609
0.0402604
0.0418735
0.0434814
0.0450671
0.0466144
0.0481076
0.0495317
0.0508718
0.0521138
0.0532445
0.0542518
0.0551255
0.0558562
0.0564383
0.0568661
0.0571404
0.0572591
0.0572317
0.0570595
0.0567661
0.0563525
0.0558688
0.055302
0.0547568
0.0541726
0.0537793
0.0533797
0.0535101
0.0535873
0.0549099
0.0557601
0.0590773
0.0601956
0.29538
0.155209
0.0889968
0.0550719
0.0371138
0.0283228
0.0261349
0.03008
0.03901
0.0491031
0.0550002
0.0550007
0.0510469
0.0459878
0.041455
0.0380193
0.0356605
0.0342152
0.0334976
0.0333562
0.0336639
0.0343202
0.035244
0.036372
0.0376544
0.0390563
0.0405499
0.0420845
0.0436359
0.0451835
0.0467085
0.0481934
0.0496216
0.0509772
0.0522449
0.0534101
0.0544597
0.0553815
0.0561654
0.0568024
0.0572873
0.0576151
0.0577867
0.0578013
0.0576685
0.0573906
0.0569917
0.0564735
0.0558862
0.0552179
0.0545718
0.0538902
0.0533976
0.0529042
0.0529306
0.0529162
0.0541155
0.0548807
0.0580395
0.0591599
0.295356
0.155303
0.0891163
0.0550893
0.0368654
0.0275462
0.0244377
0.0270737
0.0350609
0.0458201
0.0541627
0.0569424
0.0548663
0.0505828
0.0460976
0.0423723
0.0396266
0.037804
0.0367553
0.0363353
0.0364124
0.036879
0.0376459
0.038643
0.0398147
0.0411222
0.0425289
0.0439836
0.0454597
0.0469339
0.0483858
0.0497966
0.0511485
0.0524249
0.0536099
0.0546888
0.0556481
0.0564756
0.0571618
0.0576978
0.0580789
0.0583007
0.0583647
0.0582708
0.0580292
0.0576432
0.0571369
0.0565135
0.0558224
0.0550537
0.0543083
0.0535318
0.0529428
0.0523592
0.0522854
0.0521838
0.0532641
0.05395
0.056957
0.0580879
0.295335
0.155395
0.0892411
0.0551372
0.0366972
0.0269415
0.0230415
0.024427
0.0311583
0.0418355
0.0520088
0.0575575
0.0577734
0.0547398
0.0506498
0.0468347
0.0437955
0.0416271
0.0402477
0.039535
0.0393619
0.0396172
0.0402061
0.0410524
0.0420946
0.0432911
0.0445933
0.0459529
0.0473391
0.0487264
0.0500925
0.0514169
0.052681
0.0538672
0.0549592
0.0559417
0.0568015
0.0575263
0.0581068
0.0585346
0.0588055
0.0589156
0.0588672
0.0586609
0.0583075
0.0578111
0.0571964
0.0564673
0.0556731
0.0548052
0.0539628
0.0530943
0.0524122
0.0517425
0.0515727
0.0513888
0.0523547
0.0529671
0.0558289
0.0569784
0.295316
0.155485
0.0893683
0.0552082
0.0365936
0.0264804
0.021915
0.0221663
0.0274936
0.0374554
0.0487061
0.0567584
0.059528
0.0581977
0.0548981
0.0512552
0.0480677
0.0456216
0.0439349
0.0429296
0.0424948
0.0425223
0.042915
0.0435919
0.0444866
0.0455539
0.0467358
0.0479847
0.0492664
0.050553
0.05182
0.0530458
0.0542103
0.0552951
0.0562835
0.05716
0.057911
0.0585246
0.0589917
0.0593043
0.0594588
0.059452
0.0592868
0.0589646
0.0584968
0.0578884
0.0571644
0.0563298
0.0554335
0.0544684
0.0535315
0.0525744
0.0518031
0.0510519
0.0507908
0.0505299
0.0513865
0.0519315
0.0546548
0.0558306
0.2953
0.155571
0.0894957
0.0552959
0.0365413
0.0261373
0.0210219
0.020285
0.0241974
0.03298
0.0445144
0.0545658
0.059946
0.0607
0.0586052
0.0554493
0.0523122
0.049698
0.0477564
0.0464775
0.0457817
0.0455725
0.0457554
0.0462473
0.0469782
0.0478992
0.0489452
0.0500681
0.0512308
0.0524028
0.0535578
0.0546724
0.0557256
0.0566981
0.0575725
0.0583332
0.0589665
0.0594607
0.0598069
0.0599978
0.0600302
0.0599017
0.0596157
0.0591746
0.0585903
0.0578689
0.0570355
0.0560961
0.0550993
0.0540394
0.0530112
0.0519694
0.0511133
0.0502857
0.0499382
0.0496061
0.0503587
0.0508427
0.0534342
0.0546438
0.295285
0.155653
0.0896215
0.0553952
0.0365293
0.02589
0.020326
0.0187546
0.0213406
0.02867
0.0397545
0.0511161
0.0589265
0.062018
0.0615236
0.0592053
0.056367
0.0537388
0.0516286
0.0501188
0.0491786
0.0487345
0.0487008
0.0489967
0.0495508
0.0503104
0.0512061
0.0521887
0.0532184
0.0542625
0.0552927
0.056284
0.0572144
0.0580637
0.0588141
0.0594496
0.0599566
0.0603236
0.060542
0.0606051
0.0605102
0.0602557
0.0598457
0.0592833
0.0585812
0.0577462
0.0568038
0.055761
0.0546658
0.0535142
0.0523984
0.0512764
0.0503404
0.0494418
0.0490137
0.0486164
0.0492708
0.0497006
0.0521668
0.0534174
0.295272
0.155732
0.0897444
0.0555019
0.0365483
0.0257196
0.0197932
0.0175339
0.0189421
0.0247225
0.0347683
0.0466534
0.0564738
0.0619765
0.063414
0.0622947
0.0600434
0.057599
0.0554432
0.0537731
0.0526251
0.0519615
0.0517143
0.0518099
0.0521784
0.0527649
0.0534981
0.0543276
0.0552116
0.0561153
0.0570086
0.0578652
0.0586619
0.0593778
0.0599945
0.060496
0.0608687
0.0611013
0.0611856
0.0611154
0.0608888
0.0605048
0.0599681
0.0592828
0.0584621
0.0575138
0.0564636
0.0553195
0.0541288
0.0528891
0.05169
0.0504929
0.0494823
0.0485189
0.0480159
0.0475601
0.0481225
0.0485048
0.0508527
0.052151
0.295261
0.155807
0.0898635
0.0556129
0.0365906
0.0256104
0.0193934
0.0165775
0.0169828
0.0212608
0.0298747
0.0415054
0.0527106
0.0604812
0.064068
0.0644855
0.0631331
0.0611086
0.0590677
0.0573385
0.0560425
0.0551921
0.0547466
0.0546461
0.0548268
0.0552332
0.0557949
0.056461
0.0571884
0.0579407
0.0586863
0.0593977
0.0600507
0.0606238
0.0610982
0.0614577
0.0616888
0.0617806
0.0617253
0.0615173
0.0611553
0.060639
0.059974
0.059165
0.0582259
0.0571653
0.0560092
0.0547666
0.0534839
0.0521605
0.050883
0.0496164
0.0485373
0.0475155
0.0469442
0.0464368
0.0469136
0.0472556
0.0494917
0.0508443
0.295251
0.155877
0.0899781
0.0557255
0.0366502
0.0255491
0.0191003
0.0158404
0.0154194
0.0183376
0.0253332
0.0360424
0.0478763
0.0575417
0.0633325
0.065561
0.065419
0.0640781
0.0623468
0.0606916
0.0593333
0.0583485
0.0577348
0.0574537
0.0574524
0.0576778
0.0580635
0.0585594
0.0591221
0.0597142
0.0603031
0.0608604
0.061361
0.0617831
0.0621075
0.0623181
0.0624015
0.0623471
0.0621477
0.0617984
0.0612983
0.060648
0.0598538
0.0589213
0.0578649
0.056694
0.0554348
0.0540973
0.052727
0.051325
0.0499747
0.0486448
0.0475037
0.0464306
0.0457978
0.0452462
0.0456441
0.0459531
0.0480843
0.0494973
0.295242
0.155944
0.0900879
0.0558379
0.0367219
0.0255249
0.0188921
0.0152815
0.0141966
0.0159481
0.0213202
0.0306289
0.0423067
0.0532871
0.0611365
0.065341
0.0666895
0.0663067
0.0651074
0.0636891
0.0623812
0.0613365
0.0606019
0.0601687
0.0600013
0.0600527
0.0602638
0.0605873
0.0609808
0.0614068
0.0618323
0.0622286
0.06257
0.0628345
0.0630029
0.063059
0.0629899
0.0627853
0.0624385
0.0619454
0.0613058
0.060521
0.059598
0.0585433
0.0573716
0.0560934
0.0547348
0.0533068
0.0518542
0.0503794
0.0489627
0.0475763
0.0463801
0.0452632
0.0445763
0.0439882
0.0443144
0.0445979
0.0466309
0.04811
0.295234
0.156007
0.0901925
0.0559485
0.0368016
0.025529
0.0187506
0.0148649
0.0132569
0.0140483
0.0179245
0.025576
0.036396
0.0479675
0.0575143
0.0637066
0.0667569
0.0675944
0.0671645
0.0661714
0.0650524
0.0640452
0.0632558
0.0627143
0.0624086
0.0623026
0.0623479
0.0625025
0.0627268
0.0629845
0.0632433
0.0634743
0.063652
0.0637544
0.0637625
0.0636604
0.0634355
0.0630781