/*--------------------------------*- C++ -*----------------------------------*\
| =========                 |                                                 |
| \\      /  F ield         | OpenFOAM: The Open Source CFD Toolbox           |
|  \\    /   O peration     | Version:  2.4.0                                 |
|   \\  /    A nd           | Web:      www.OpenFOAM.org                      |
|    \\/     M anipulation  |                                                 |
\*---------------------------------------------------------------------------*/
FoamFile
{
    version     2.0;
    format      ascii;
    class       volScalarField;
    location    "65";
    object      p;
}
// * * * * * * * * * * * * * * * * * * * * * * * * * * * * * * * * * * * * * //

dimensions      [0 2 -2 0 0 0 0];

internalField   nonuniform List<scalar> 
10000
(
0.151403
0.156907
0.156949
0.134701
0.111903
0.0911888
0.0751793
0.0621423
0.0519979
0.0437674
0.0371028
0.0315201
0.026735
0.0224763
0.0185604
0.0148858
0.0114532
0.00841303
0.00599667
0.00595125
0.151066
0.15675
0.156768
0.134694
0.111804
0.0910423
0.0749879
0.0619553
0.051818
0.0436097
0.0369656
0.0314059
0.0266387
0.0223885
0.0184544
0.0146943
0.0110354
0.00756924
0.0047626
0.0046581
0.150585
0.156425
0.15635
0.134507
0.111578
0.0907825
0.074696
0.0616718
0.0515475
0.0433634
0.036743
0.0312083
0.0264623
0.0222259
0.0182837
0.0144621
0.0106404
0.00685968
0.00351449
0.00195698
0.149958
0.155817
0.155537
0.134037
0.111195
0.090435
0.0743483
0.0613463
0.0512404
0.0430816
0.0364839
0.0309737
0.0262508
0.0220367
0.0181121
0.0142978
0.0104783
0.00670552
0.0032976
0.00104117
0.149179
0.154962
0.154387
0.133321
0.110672
0.0900121
0.0739547
0.0609897
0.0509073
0.0427755
0.0362009
0.0307159
0.0260198
0.021839
0.01796
0.0142159
0.0105158
0.00692101
0.00366492
0.00115242
0.148251
0.153893
0.152968
0.132396
0.110026
0.0895248
0.073523
0.0606089
0.0505547
0.042452
0.0359006
0.0304417
0.025776
0.0216387
0.017828
0.0141956
0.0106722
0.00730811
0.00424325
0.00164428
0.147175
0.152625
0.151325
0.131296
0.109278
0.088988
0.0730662
0.0602139
0.0501913
0.0421183
0.0355897
0.0301571
0.0255245
0.0214381
0.0177096
0.0142082
0.010875
0.00773424
0.0048385
0.00221203
0.145962
0.151173
0.149498
0.130045
0.108444
0.0884133
0.0725944
0.059814
0.049826
0.0417822
0.0352753
0.0298679
0.0252695
0.0212375
0.0175964
0.0142276
0.0110725
0.00812317
0.00536308
0.00273639
0.144616
0.149544
0.147518
0.128671
0.107541
0.0878144
0.0721197
0.0594199
0.0494678
0.0414519
0.0349643
0.0295802
0.025015
0.021037
0.0174809
0.0142345
0.0112323
0.00843573
0.00577907
0.00316509
0.143153
0.147749
0.145411
0.127192
0.10658
0.0871999
0.0716509
0.0590402
0.0491252
0.0411351
0.0346635
0.0292992
0.024764
0.0208359
0.0173566
0.0142157
0.0113371
0.00865677
0.00607716
0.00348251
0.141578
0.145797
0.143194
0.125629
0.105574
0.0865799
0.0711977
0.058684
0.0488067
0.0408396
0.0343798
0.0290308
0.0245203
0.0206349
0.0172205
0.0141649
0.0113814
0.00878662
0.00626486
0.00369412
0.139908
0.1437
0.140882
0.123992
0.10453
0.0859596
0.0707661
0.0583587
0.0485203
0.0405731
0.0341203
0.0287806
0.024288
0.0204357
0.017072
0.0140815
0.0113677
0.00883484
0.00635799
0.0038167
0.138148
0.14147
0.138481
0.122294
0.103455
0.0853435
0.0703624
0.0580713
0.0482737
0.0403435
0.0338928
0.0285558
0.024073
0.020243
0.016915
0.0139702
0.0113053
0.0088168
0.00637807
0.00387262
0.136311
0.139128
0.135995
0.120538
0.102351
0.0847321
0.0699888
0.0578261
0.0480731
0.0401579
0.0337044
0.0283633
0.0238817
0.0200627
0.0167562
0.0138404
0.0112079
0.00875234
0.0063488
0.00388733
0.134403
0.136692
0.133424
0.118725
0.101217
0.0841235
0.0696458
0.0576265
0.0479239
0.0400231
0.0335631
0.0282116
0.0237227
0.019904
0.0166061
0.0137056
0.0110935
0.00866381
0.00629613
0.0038876
0.132431
0.134191
0.130769
0.11685
0.10005
0.0835121
0.0693301
0.0574719
0.047829
0.0399442
0.0334754
0.0281082
0.0236047
0.0197772
0.0164774
0.0135821
0.0109826
0.00857524
0.00624696
0.00390019
0.130398
0.131648
0.128035
0.114906
0.0988419
0.0828889
0.0690353
0.0573597
0.047789
0.0399251
0.0334475
0.0280615
0.0235378
0.0196943
0.0163849
0.0134879
0.0108968
0.00851219
0.00622749
0.00395262
0.128312
0.129088
0.125236
0.112883
0.0975821
0.0822424
0.0687506
0.0572827
0.0478008
0.0399661
0.0334829
0.0280774
0.0235305
0.0196667
0.0163434
0.0134417
0.0108584
0.00849862
0.00626395
0.00406987
0.126174
0.126526
0.122392
0.110775
0.0962568
0.0815568
0.0684619
0.0572299
0.0478581
0.040065
0.0335832
0.0281606
0.0235907
0.0197054
0.016367
0.0134608
0.0108874
0.00855713
0.00637932
0.0042744
0.123991
0.123975
0.119534
0.10858
0.0948519
0.0808152
0.0681513
0.0571858
0.0479491
0.0402147
0.0337452
0.0283119
0.0237225
0.0198179
0.0164669
0.0135594
0.0110004
0.00870603
0.00659168
0.00458411
0.121765
0.121437
0.116696
0.106308
0.0933544
0.0799983
0.067798
0.057131
0.0480582
0.0404038
0.0339618
0.0285282
0.0239264
0.0200081
0.0166496
0.0137464
0.0112088
0.00895682
0.00691368
0.00500942
0.119503
0.118914
0.113906
0.103981
0.0917598
0.0790891
0.0673799
0.0570424
0.0481641
0.0406148
0.0342197
0.0288001
0.0241967
0.0202734
0.0169152
0.0140243
0.0115154
0.00931389
0.00734847
0.00555317
0.117209
0.116403
0.111185
0.101633
0.0900739
0.078075
0.0668758
0.0568956
0.0482427
0.0408258
0.0345005
0.0291128
0.0245217
0.0206045
0.0172563
0.0143863
0.0119146
0.00977098
0.00788913
0.00620695
0.11489
0.113903
0.108539
0.0992993
0.088319
0.076955
0.0662699
0.0566674
0.0482673
0.0410104
0.0347794
0.029444
0.0248816
0.0209837
0.0176562
0.014816
0.0123895
0.0103099
0.00851693
0.00694993
0.11255
0.111414
0.105963
0.0970109
0.0865278
0.0757417
0.0655569
0.0563411
0.0482146
0.041142
0.0350292
0.0297671
0.0252508
0.021386
0.0180896
0.0152875
0.0129119
0.0109017
0.00919979
0.00774942
0.110197
0.108938
0.10345
0.0947838
0.084738
0.0744631
0.0647462
0.0559111
0.0480686
0.0411976
0.035223
0.0300533
0.0255994
0.0217805
0.0185247
0.0157664
0.0134456
0.0115063
0.0098957
0.00856021
0.107835
0.106476
0.100993
0.0926196
0.0829779
0.0731553
0.0638625
0.0553879
0.0478273
0.0411663
0.0353426
0.0302793
0.0259005
0.0221372
0.0189279
0.0162164
0.0139497
0.0120787
0.0105558
0.00933083
0.105471
0.104033
0.0985872
0.0905135
0.0812626
0.0718516
0.06294
0.0547963
0.0475041
0.0410511
0.035383
0.0304335
0.0261372
0.0224348
0.019274
0.0166069
0.0143892
0.0125788
0.0111353
0.0100128
0.10311
0.10161
0.0962304
0.0884582
0.0795937
0.0705733
0.0620126
0.0541709
0.0471277
0.0408727
0.0353574
0.0305227
0.0263106
0.0226698
0.0195552
0.0169266
0.0147482
0.0129863
0.0116093
0.0105775
0.100757
0.0992126
0.0939208
0.0864491
0.0779669
0.0693277
0.0611023
0.0535436
0.0467323
0.0406632
0.0352938
0.0305705
0.0264413
0.0228603
0.0197878
0.0171909
0.0150409
0.0133145
0.0119891
0.0110346
0.0984173
0.0968435
0.0916592
0.0844832
0.0763771
0.0681138
0.0602186
0.0529357
0.0463483
0.040458
0.0352292
0.0306144
0.0265665
0.0230439
0.0200119
0.0174423
0.0153147
0.013614
0.0123299
0.0114406
0.0960965
0.0945059
0.0894454
0.0825602
0.0748212
0.0669275
0.059361
0.0523543
0.045992
0.0402819
0.0351958
0.0306922
0.0267291
0.0232693
0.0202816
0.0177434
0.0156401
0.0139656
0.01272
0.0118905
0.0937992
0.0922042
0.0872813
0.0806808
0.0732986
0.0657671
0.0585274
0.0517999
0.0456689
0.0401472
0.0352129
0.0308309
0.0269641
0.0235794
0.0206496
0.0181565
0.0160912
0.0144544
0.0132551
0.0124878
0.0915305
0.0899407
0.0851672
0.0788459
0.0718099
0.0646315
0.0577155
0.0512698
0.0453774
0.040055
0.0352863
0.0310417
0.0272892
0.0239992
0.0211491
0.0187237
0.0167194
0.0151411
0.0140041
0.0133071
0.0892945
0.0877201
0.0831054
0.0770578
0.0703573
0.063523
0.0569263
0.0507636
0.0451162
0.0400038
0.0354151
0.0313255
0.0277073
0.0245353
0.0217894
0.0194587
0.0175415
0.016046
0.0149893
0.0143737
0.0870959
0.0855444
0.0810963
0.0753175
0.0689424
0.062443
0.0561608
0.0502812
0.0448837
0.0399909
0.0355955
0.0316775
0.0282134
0.025181
0.0225634
0.0203518
0.0185456
0.0171537
0.016193
0.0156671
0.0849388
0.0834181
0.0791425
0.0736276
0.0675686
0.0613953
0.0554223
0.049825
0.0446811
0.0400153
0.0358242
0.0320921
0.0287987
0.0259244
0.0234546
0.0213811
0.0197035
0.0184294
0.0175744
0.0171418
0.082827
0.0813426
0.0772443
0.071989
0.066237
0.0603816
0.0547128
0.0493963
0.0445085
0.0400756
0.0360979
0.0325627
0.0294525
0.0267505
0.0244421
0.0225198
0.0209812
0.0198322
0.0190857
0.0187453
0.0807645
0.0793224
0.0754045
0.0704044
0.0649513
0.0594058
0.0540357
0.0489982
0.0443675
0.0401715
0.0364131
0.0330825
0.0301646
0.027643
0.0255045
0.0237397
0.0223447
0.0213218
0.0206822
0.0204277
0.0787544
0.0773586
0.0736231
0.0688741
0.063712
0.0584689
0.0533925
0.0486313
0.044258
0.0403012
0.0367658
0.0336444
0.0309228
0.0285861
0.0266203
0.0250144
0.023762
0.0228625
0.0223242
0.022148
0.0768004
0.075455
0.0719029
0.0674008
0.0625223
0.0575743
0.0527859
0.0482979
0.0441805
0.040463
0.0371519
0.0342407
0.0317164
0.0295642
0.0277693
0.0263193
0.0252052
0.0244232
0.0239791
0.0238725
0.0749049
0.0736127
0.0702438
0.0659843
0.0613822
0.0567222
0.0522163
0.0479975
0.0441338
0.0406543
0.0375661
0.0348634
0.032534
0.0305624
0.0289337
0.0276332
0.0266503
0.0259782
0.0256206
0.0255753
0.0730713
0.0718349
0.0686483
0.064627
0.0602943
0.0559149
0.0516854
0.0477311
0.0441172
0.0408722
0.0380033
0.0355053
0.0333652
0.0315681
0.0300977
0.0289386
0.0280778
0.0275075
0.0272281
0.0272373
0.0713011
0.070122
0.0671159
0.0633283
0.0592581
0.0551522
0.0511926
0.0474973
0.0441283
0.041113
0.0384585
0.0361586
0.0342011
0.0325701
0.0312489
0.0302213
0.0294732
0.0289956
0.028787
0.0288441
0.0695972
0.0684771
0.0656492
0.0620902
0.0582754
0.0544354
0.0507387
0.0472958
0.0441655
0.0413738
0.0389266
0.0368174
0.0350338
0.0335594
0.0323773
0.031471
0.0308258
0.0304319
0.0302868
0.0303862
0.0679605
0.0668999
0.0642471
0.0609116
0.0573452
0.0537634
0.0503222
0.0471247
0.0442261
0.0416505
0.0394025
0.0374757
0.0358562
0.0345288
0.0334755
0.0326804
0.0321283
0.0318097
0.0317211
0.0318579
0.0663935
0.0653931
0.0629116
0.0597941
0.0564687
0.0531369
0.049943
0.0469828
0.0443078
0.0419398
0.0398825
0.0381281
0.0366635
0.0354726
0.0345382
0.0338441
0.0333765
0.0331248
0.0330864
0.0332555
0.0648959
0.0639557
0.0616415
0.0587361
0.0556441
0.0525542
0.0495992
0.0468679
0.0444078
0.0422386
0.0403621
0.0387708
0.0374511
0.0363869
0.0355617
0.0349597
0.0345677
0.0343758
0.0343814
0.0345786
0.0634702
0.0625898
0.0604383
0.0577386
0.0548722
0.0520153
0.0492902
0.0467785
0.044524
0.0425436
0.0408387
0.0394004
0.0382157
0.0372687
0.0365434
0.0360249
0.0357009
0.0355619
0.0356058
0.0358268
0.0621151
0.0612938
0.0593002
0.0567997
0.0541509
0.0515181
0.0490136
0.0467121
0.0446533
0.0428525
0.0413089
0.0400141
0.0389548
0.0381158
0.037482
0.0370392
0.0367761
0.0366839
0.0367608
0.0370016
0.0608326
0.0600695
0.0582282
0.0559198
0.0534801
0.051062
0.0487682
0.046667
0.0447942
0.0431625
0.0417706
0.0406096
0.0396665
0.038927
0.0383766
0.0380022
0.0377933
0.0377422
0.0378473
0.0381039
0.0596206
0.0589144
0.0572198
0.0550964
0.0528574
0.0506446
0.0485517
0.0466407
0.0449438
0.0434713
0.0422216
0.0411849
0.0403496
0.0397012
0.039227
0.0389143
0.038754
0.0387387
0.0388676
0.0391364
0.0584805
0.0578296
0.0562758
0.0543296
0.0522822
0.0502649
0.0483627
0.0466317
0.0451001
0.0437773
0.0426596
0.0417388
0.0410026
0.0404382
0.0400329
0.0397759
0.0396582
0.0396741
0.0398225
0.0401001
0.0574094
0.0568122
0.0553929
0.0536164
0.0517518
0.0499202
0.0481986
0.0466372
0.0452615
0.044078
0.0430838
0.04227
0.0416252
0.0411374
0.0407949
0.0405879
0.0405082
0.0405508
0.0407151
0.0409982
0.0564081
0.0558625
0.0545715
0.0529563
0.0512652
0.0496092
0.0480578
0.0466559
0.0454257
0.0443724
0.0434925
0.0427775
0.0422167
0.0417987
0.0415129
0.0413504
0.0413039
0.0413692
0.0415457
0.0418313
0.0554729
0.0549769
0.0538077
0.0523459
0.0508192
0.0493289
0.0479377
0.0466854
0.0455908
0.0446587
0.0438844
0.0432606
0.0427765
0.0424224
0.0421877
0.0420653
0.0420479
0.0421324
0.0423181
0.0426036
0.0546041
0.0541553
0.0531013
0.0517845
0.0504125
0.049078
0.0478367
0.0467236
0.0457556
0.0449351
0.0442587
0.0437184
0.0433047
0.043008
0.0428197
0.042732
0.0427396
0.0428388
0.0430306
0.043313
0.0537971
0.0533934
0.0524481
0.051268
0.0500419
0.0488533
0.047752
0.0467689
0.0459176
0.0452008
0.0446141
0.0441503
0.0438005
0.0435556
0.0434079
0.0433506
0.0433793
0.0434908
0.0436862
0.0439636
0.0530519
0.0526906
0.0518473
0.0507954
0.0497055
0.0486531
0.047682
0.0468192
0.046076
0.0454543
0.0449498
0.0445556
0.0442633
0.0440647
0.0439531
0.0439224
0.0439688
0.0440894
0.0442856
0.0445559
0.0523631
0.052042
0.0512942
0.0503625
0.0494
0.0484743
0.0476241
0.0468722
0.0462288
0.0456942
0.045265
0.0449337
0.0446935
0.0445363
0.0444569
0.0444492
0.0445104
0.0446377
0.0448327
0.0450941
0.0517304
0.0514466
0.0507877
0.0499676
0.0491233
0.0483149
0.0475759
0.0469266
0.0463742
0.0459195
0.0455583
0.0452842
0.0450903
0.0449704
0.0449185
0.0449306
0.0450029
0.0451344
0.0453257
0.0455764
0.0511476
0.050899
0.0503227
0.0496064
0.0488717
0.0481716
0.0475356
0.0469796
0.0465109
0.0461288
0.0458294
0.0456069
0.0454549
0.0453679
0.0453406
0.0453693
0.0454509
0.0455844
0.0457705
0.0460093
0.0506141
0.0503977
0.0498974
0.0492769
0.048643
0.0480426
0.0475004
0.0470302
0.0466372
0.0463209
0.0460774
0.0459012
0.0457865
0.0457282
0.0457217
0.0457639
0.0458519
0.0459851
0.0461642
0.0463893
0.0501232
0.049937
0.049507
0.0489747
0.0484336
0.0479244
0.0474678
0.0470756
0.0467513
0.0464947
0.0463012
0.0461665
0.0460847
0.0460517
0.0460631
0.0461163
0.0462087
0.0463401
0.0465109
0.0467215
0.049674
0.0495149
0.049149
0.0486973
0.0482408
0.0478143
0.0474359
0.0471137
0.0468518
0.0466485
0.0465001
0.0464017
0.0463488
0.046337
0.046363
0.046424
0.0465185
0.0466455
0.0468064
0.0470008
0.0492592
0.0491255
0.0488183
0.0484402
0.0480607
0.0477097
0.0474011
0.0471429
0.0469368
0.0467814
0.0466729
0.0466068
0.0465791
0.0465858
0.046624
0.0466911
0.046786
0.0469077
0.0470576
0.0472353
0.0488776
0.0487666
0.0485123
0.0482007
0.0478908
0.0476075
0.0473622
0.0471607
0.0470045
0.0468915
0.0468181
0.0467801
0.0467737
0.0467954
0.0468427
0.0469133
0.0470064
0.0471209
0.0472584
0.0474186
0.0485222
0.0484321
0.0482259
0.0479745
0.0477272
0.0475044
0.0473158
0.047165
0.0470531
0.0469774
0.0469349
0.0469211
0.0469332
0.0469675
0.047022
0.0470947
0.0471848
0.0472916
0.0474162
0.0475584
0.0481913
0.0481196
0.0479562
0.0477584
0.0475667
0.0473984
0.0472594
0.0471536
0.0470805
0.0470376
0.0470213
0.0470283
0.0470551
0.0470993
0.0471583
0.047231
0.0473162
0.0474137
0.047524
0.0476476
0.0478779
0.0478231
0.047698
0.0475481
0.0474062
0.047285
0.0471907
0.0471242
0.0470849
0.0470702
0.0470765
0.0471009
0.04714
0.0471916
0.0472536
0.0473248
0.047404
0.0474914
0.047587
0.0476913
0.0475805
0.04754
0.0474484
0.0473407
0.0472419
0.0471631
0.0471069
0.0470746
0.0470643
0.0470735
0.0470988
0.0471372
0.0471858
0.0472426
0.0473056
0.0473737
0.047446
0.0475224
0.047603
0.0476881
0.0472918
0.0472645
0.0472026
0.0471317
0.0470714
0.0470283
0.0470056
0.0470024
0.047017
0.0470463
0.0470871
0.0471367
0.0471925
0.0472523
0.0473146
0.0473784
0.047443
0.0475078
0.0475732
0.0476391
0.0470105
0.0469938
0.0469573
0.0469184
0.0468906
0.0468789
0.0468842
0.0469057
0.0469408
0.0469865
0.0470398
0.0470978
0.0471583
0.0472193
0.0472795
0.0473376
0.0473934
0.0474459
0.0474956
0.047542
0.0467296
0.0467224
0.0467079
0.0466966
0.0466964
0.0467111
0.0467401
0.0467819
0.0468337
0.0468924
0.046955
0.0470187
0.0470816
0.0471415
0.0471977
0.0472486
0.0472942
0.0473335
0.0473669
0.0473937
0.0464474
0.0464476
0.0464513
0.0464626
0.0464861
0.0465221
0.0465705
0.0466287
0.0466936
0.046762
0.0468309
0.0468978
0.0469608
0.0470181
0.0470684
0.0471112
0.0471455
0.0471712
0.0471875
0.047195
0.0461572
0.0461641
0.046183
0.0462136
0.0462554
0.0463094
0.0463731
0.0464441
0.0465187
0.046594
0.0466668
0.046735
0.0467963
0.0468495
0.0468933
0.0469271
0.0469499
0.0469618
0.0469616
0.04695
0.0458577
0.0458692
0.0459004
0.0459458
0.046003
0.0460701
0.0461456
0.0462257
0.0463071
0.0463865
0.046461
0.0465285
0.0465868
0.0466349
0.0466711
0.0466954
0.0467065
0.0467046
0.0466881
0.046658
0.0455426
0.0455584
0.0455993
0.0456562
0.0457246
0.0458019
0.0458853
0.0459717
0.0460567
0.0461379
0.0462116
0.0462768
0.0463303
0.0463722
0.0464001
0.0464145
0.0464136
0.0463982
0.046366
0.0463182
0.045211
0.0452292
0.0452766
0.0453424
0.0454182
0.045502
0.0455905
0.0456797
0.045766
0.045846
0.0459175
0.0459778
0.0460258
0.0460596
0.046079
0.0460823
0.04607
0.0460404
0.0459934
0.045928
0.0448574
0.0448776
0.04493
0.0450005
0.0450815
0.0451687
0.0452592
0.0453487
0.0454338
0.045511
0.0455782
0.0456328
0.0456739
0.0456994
0.0457093
0.045702
0.0456778
0.0456351
0.0455736
0.0454923
0.0444812
0.044502
0.0445565
0.0446299
0.0447123
0.0448001
0.0448897
0.044977
0.0450584
0.0451307
0.0451917
0.045239
0.0452718
0.0452881
0.0452879
0.0452697
0.0452338
0.0451786
0.0451036
0.0450077
0.0440782
0.0440991
0.0441539
0.0442275
0.0443092
0.0443947
0.0444813
0.044564
0.0446402
0.0447059
0.0447598
0.0447991
0.0448232
0.0448301
0.0448201
0.0447913
0.0447444
0.0446775
0.0445902
0.0444811
0.043648
0.0436673
0.0437211
0.0437921
0.0438705
0.0439518
0.0440327
0.0441092
0.0441777
0.0442357
0.0442806
0.044311
0.0443252
0.0443227
0.0443021
0.0442635
0.0442056
0.0441283
0.0440291
0.0439086
0.0431871
0.0432054
0.0432555
0.0433227
0.0433957
0.0434706
0.043544
0.0436126
0.0436725
0.0437215
0.0437571
0.0437781
0.0437826
0.0437704
0.0437401
0.0436918
0.0436241
0.0435369
0.0434275
0.0432964
0.0426964
0.042712
0.042758
0.0428187
0.0428843
0.0429507
0.0430151
0.0430739
0.0431239
0.0431628
0.0431882
0.0431992
0.0431939
0.0431721
0.0431322
0.0430745
0.0429975
0.042901
0.0427822
0.0426414
0.042174
0.0421869
0.0422271
0.0422802
0.0423364
0.0423929
0.0424463
0.0424944
0.0425331
0.0425612
0.0425756
0.0425762
0.0425605
0.0425288
0.0424793
0.0424124
0.0423262
0.0422208
0.0420932
0.0419435
0.041621
0.0416309
0.0416638
0.0417074
0.0417529
0.0417974
0.0418388
0.041874
0.0419007
0.0419164
0.0419198
0.0419089
0.0418834
0.0418414
0.0417831
0.0417068
0.0416126
0.0414985
0.0413633
0.0412055
0.0410381
0.0410439
0.0410691
0.0411019
0.041135
0.0411663
0.0411941
0.0412157
0.0412292
0.0412319
0.041223
0.0412005
0.041164
0.0411118
0.0410439
0.0409588
0.0408566
0.0407352
0.0405931
0.0404292
0.0404274
0.0404294
0.0404451
0.0404657
0.040485
0.0405015
0.0405145
0.0405214
0.0405208
0.0405103
0.0404892
0.0404555
0.0404088
0.0403475
0.0402715
0.0401793
0.0400708
0.0399441
0.0397977
0.0396303
0.0397918
0.0397889
0.0397948
0.0398018
0.0398058
0.0398063
0.0398031
0.0397939
0.0397776
0.0397521
0.0397168
0.0396699
0.0396113
0.0395394
0.0394543
0.0393542
0.0392394
0.0391078
0.0389579
0.0387882
0.0391352
0.0391276
0.0391219
0.039114
0.0391015
0.0390851
0.0390652
0.0390402
0.0390094
0.038971
0.0389243
0.0388676
0.0388006
0.0387216
0.0386307
0.0385261
0.038408
0.0382744
0.0381238
0.0379547
0.0384626
0.0384495
0.0384316
0.0384071
0.0383764
0.0383406
0.0383011
0.0382563
0.0382063
0.0381491
0.0380852
0.0380126
0.0379318
0.037841
0.0377405
0.0376284
0.037505
0.037368
0.0372161
0.0370476
0.037781
0.0377618
0.0377303
0.0376884
0.0376387
0.0375846
0.0375275
0.0374678
0.0374045
0.0373373
0.0372645
0.0371858
0.0370995
0.0370054
0.0369018
0.0367889
0.036665
0.0365297
0.0363802
0.0362164
0.0370978
0.0370721
0.0370253
0.036963
0.0368903
0.0368116
0.0367286
0.0366423
0.0365523
0.0364592
0.0363623
0.036262
0.036157
0.0360475
0.0359321
0.0358108
0.0356817
0.0355445
0.035396
0.035236
0.0364245
0.0363914
0.0363284
0.0362457
0.0361524
0.0360551
0.0359569
0.0358595
0.0357622
0.0356652
0.0355667
0.0354664
0.0353623
0.0352545
0.0351411
0.0350225
0.034897
0.0347644
0.0346222
0.0344702
0.0357727
0.0357306
0.0356467
0.0355361
0.0354101
0.035277
0.0351395
0.035001
0.0348619
0.0347246
0.0345887
0.0344556
0.0343239
0.0341943
0.0340648
0.0339356
0.0338046
0.0336713
0.0335328
0.0333888
0.0351605
0.0351093
0.0350058
0.0348723
0.0347271
0.0345801
0.0344364
0.0342976
0.0341643
0.0340352
0.0339097
0.0337859
0.0336635
0.0335409
0.0334182
0.0332944
0.0331696
0.0330426
0.0329126
0.0327783
0.0346058
0.0345383
0.0343991
0.0342172
0.0340154
0.0338053
0.033594
0.0333857
0.0331844
0.0329917
0.0328095
0.0326374
0.0324758
0.032323
0.0321788
0.0320411
0.0319097
0.0317826
0.0316588
0.0315368
0.034146
0.0340677
0.0339096
0.033712
0.033503
0.0332951
0.0330947
0.032904
0.0327241
0.0325542
0.0323934
0.0322401
0.0320936
0.0319527
0.0318173
0.0316864
0.0315604
0.0314383
0.0313197
0.0312039
0.0337977
0.0336477
0.0333903
0.0330858
0.0327658
0.0324441
0.0321307
0.0318319
0.0315533
0.0312966
0.0310631
0.0308513
0.0306606
0.0304883
0.0303333
0.0301931
0.0300669
0.0299526
0.0298493
0.0297556
0.00431768
0.00261082
0.000776096
-0.00089617
-0.00240408
-0.00379132
-0.0050732
-0.00625589
-0.00734614
-0.00835058
-0.00927485
-0.0101238
-0.0109017
-0.0116123
-0.012259
-0.0128449
-0.0133725
-0.0138445
-0.0142628
-0.0146297
-0.0149468
-0.0152158
-0.0154382
-0.0156155
-0.0157489
-0.0158394
-0.0158882
-0.0158959
-0.0158633
-0.0157906
-0.0156782
-0.0155251
-0.0153315
-0.0150948
-0.0148146
-0.0144862
-0.0141094
-0.0136787
-0.013195
-0.012651
-0.01205
-0.0113905
-0.0106899
-0.00995955
-0.00922705
-0.00849839
-0.00778449
-0.00708488
-0.00642106
-0.00578374
-0.00517248
-0.00458694
-0.00402312
-0.00347714
-0.00293342
-0.00241943
-0.00191022
-0.00140966
-0.000898613
-0.000427323
3.84815e-05
0.000484322
0.000931727
0.00131189
0.0016764
0.00200865
0.00230033
0.00255762
0.00276766
0.00291813
0.00296428
0.00292982
0.00282716
0.00257966
0.00215655
0.00158271
0.00103983
-4.36994e-05
0.00015613
-0.00292689
0.00485581
0.00279238
0.000808363
-0.000888262
-0.00240142
-0.00378432
-0.00505594
-0.00622712
-0.00730695
-0.00830281
-0.00922046
-0.0100646
-0.0108391
-0.0115475
-0.012193
-0.0127783
-0.0133059
-0.0137781
-0.014197
-0.0145646
-0.0148826
-0.0151526
-0.0153761
-0.0155545
-0.015689
-0.0157808
-0.0158308
-0.0158398
-0.0158086
-0.0157374
-0.0156266
-0.0154754
-0.0152838
-0.0150495
-0.014772
-0.0144469
-0.0140743
-0.0136485
-0.0131705
-0.0126325
-0.0120379
-0.0113857
-0.0106928
-0.00996924
-0.00924223
-0.00851754
-0.00780648
-0.00710849
-0.00644501
-0.00580706
-0.00519452
-0.0046071
-0.0040409
-0.00349235
-0.00294612
-0.0024292
-0.00191715
-0.00141413
-0.000901319
-0.000427965
3.96149e-05
0.000486994
0.000935331
0.00131687
0.00168232
0.0020152
0.00230737
0.00256499
0.00277518
0.00292538
0.0029716
0.00293687
0.00283377
0.00258571
0.00216277
0.00158801
0.00104647
-4.07925e-05
0.000167761
-0.00293259
0.0018135
0.00104533
-0.000150078
-0.00143731
-0.002723
-0.00397066
-0.005159
-0.00627794
-0.00732437
-0.0082984
-0.00920149
-0.0100357
-0.0108034
-0.0115071
-0.0121492
-0.012732
-0.0132577
-0.0137284
-0.0141461
-0.0145126
-0.0148295
-0.0150985
-0.0153209
-0.0154982
-0.0156316
-0.0157222
-0.0157709
-0.0157787
-0.0157462
-0.0156738
-0.0155619
-0.0154098
-0.0152178
-0.0149837
-0.0147072
-0.0143843
-0.0140154
-0.0135954
-0.0131248
-0.0125953
-0.0120106
-0.0113701
-0.0106893
-0.00997704
-0.00925941
-0.00854193
-0.0078365
-0.00714246
-0.00648079
-0.00584313
-0.00522983
-0.00464068
-0.00407182
-0.00352019
-0.00297113
-0.00245032
-0.00193443
-0.00142793
-0.000912952
-0.000436373
3.405e-05
0.000483963
0.000933524
0.00131769
0.00168497
0.00201924
0.00231257
0.00257126
0.00278235
0.00293209
0.00297907
0.00294436
0.00284104
0.00259202
0.00216981
0.00159301
0.00105457
-4.32271e-05
0.000185772
-0.00296689
0.000101707
-0.000440517
-0.00122604
-0.0022115
-0.00328565
-0.0043815
-0.00546002
-0.00649872
-0.00748551
-0.00841443
-0.00928288
-0.0100902
-0.0108368
-0.0115238
-0.0121526
-0.0127247
-0.0132419
-0.0137058
-0.014118
-0.0144801
-0.0147935
-0.0150597
-0.0152799
-0.0154554
-0.0155874
-0.0156768
-0.0157246
-0.0157315
-0.0156984
-0.0156253
-0.015513
-0.0153605
-0.0151683
-0.0149344
-0.0146586
-0.0143373
-0.013971
-0.0135551
-0.0130898
-0.0125663
-0.0119889
-0.0113578
-0.0106877
-0.00998576
-0.00927709
-0.00856673
-0.00786733
-0.00717781
-0.00651858
-0.00588173
-0.0052683
-0.0046779
-0.00410669
-0.00355222
-0.00300058
-0.0024757
-0.00195579
-0.00144554
-0.000928352
-0.000448061
2.5464e-05
0.000478175
0.000928847
0.00131625
0.00168567
0.00202158
0.00231649
0.00257657
0.00278878
0.00293821
0.00298649
0.00295206
0.00284844
0.00259847
0.00217763
0.00159787
0.00106319
-5.03737e-05
0.000203421
-0.00302525
-0.000430401
-0.00136392
-0.0021744
-0.00304512
-0.00397816
-0.00494298
-0.00591084
-0.00685975
-0.00777467
-0.00864612
-0.00946843
-0.0102385
-0.0109548
-0.0116169
-0.0122253
-0.0127805
-0.0132836
-0.0137358
-0.0141383
-0.0144922
-0.0147989
-0.0150595
-0.0152751
-0.0154468
-0.0155756
-0.0156624
-0.015708
-0.0157131
-0.0156784
-0.0156041
-0.0154906
-0.0153373
-0.0151444
-0.01491
-0.0146341
-0.0143135
-0.0139488
-0.0135353
-0.0130726
-0.0125521
-0.0119788
-0.0113539
-0.0106912
-0.00999714
-0.00929538
-0.00859088
-0.0078967
-0.00721153
-0.00655464
-0.00591882
-0.00530555
-0.00471432
-0.00414112
-0.00358419
-0.00303042
-0.00250161
-0.00197782
-0.00146381
-0.000944576
-0.000460379
1.63169e-05
0.000471931
0.000923507
0.00131449
0.00168618
0.00202394
0.00232059
0.00258237
0.0027961
0.002945
0.00299505
0.00296107
0.0028575
0.00260646
0.00218724
0.00160382
0.00107303
-6.09817e-05
0.000220473
-0.003103
-0.000358334
-0.00175123
-0.00279899
-0.00373166
-0.00463744
-0.00553734
-0.0064294
-0.00730448
-0.00815274
-0.00896611
-0.00973865
-0.0104664
-0.0111468
-0.0117786
-0.0123611
-0.0128945
-0.0133791
-0.0138155
-0.0142047
-0.0145474
-0.0148446
-0.0150972
-0.0153061
-0.0154723
-0.0155965
-0.0156794
-0.0157218
-0.0157242
-0.0156871
-0.0156108
-0.0154955
-0.0153407
-0.0151463
-0.0149108
-0.0146339
-0.0143129
-0.0139481
-0.0135353
-0.0130725
-0.0125522
-0.0119802
-0.0113587
-0.0107004
-0.0100118
-0.00931496
-0.00861505
-0.00792513
-0.00724389
-0.00658907
-0.00595432
-0.00534128
-0.00474939
-0.00417435
-0.00361511
-0.00305932
-0.00252668
-0.0019991
-0.00148133
-0.000960009
-0.000471757
8.16532e-06
0.000466783
0.00091931
0.00131411
0.00168823
0.00202798
0.0023267
0.00259031
0.00280555
0.00295433
0.00300643
0.00297314
0.00286947
0.00261753
0.00220058
0.00161267
0.00108616
-7.26907e-05
0.000239192
-0.0031961
-5.32224e-05
-0.00180588
-0.00312658
-0.00421338
-0.00518251
-0.00608755
-0.00695185
-0.00778336
-0.00858252
-0.00934686
-0.0100733
-0.010759
-0.0114018
-0.0120004
-0.0125538
-0.0130618
-0.0135243
-0.0139417
-0.0143145
-0.0146431
-0.0149284
-0.0151708
-0.0153712
-0.0155301
-0.0156482
-0.015726
-0.0157641
-0.0157629
-0.0157226
-0.0156435
-0.0155256
-0.0153684
-0.0151717
-0.014934
-0.0146549
-0.014332
-0.0139655
-0.0135509
-0.0130853
-0.012563
-0.0119901
-0.0113696
-0.0107134
-0.0100284
-0.00933517
-0.00863901
-0.00795273
-0.00727517
-0.0066222
-0.00598847
-0.00537554
-0.00478303
-0.00420614
-0.0036446
-0.00308679
-0.00255033
-0.00201888
-0.00149727
-0.000973857
-0.00048144
1.8148e-06
0.000463581
0.000917077
0.00131588
0.00169256
0.00203454
0.00233546
0.00260119
0.00281836
0.00296689
0.00302138
0.00298898
0.00288572
0.00263294
0.00221828
0.00162545
0.00110326
-8.42264e-05
0.00026096
-0.00330185
0.000312113
-0.00169552
-0.00325413
-0.0045168
-0.00559584
-0.00655582
-0.00743523
-0.00825601
-0.00902927
-0.00975992
-0.0104496
-0.0110984
-0.0117059
-0.0122716
-0.0127949
-0.0132758
-0.0137142
-0.0141102
-0.0144643
-0.0147767
-0.0150479
-0.0152783
-0.0154683
-0.0156184
-0.0157291
-0.0158005
-0.0158332
-0.0158272
-0.0157828
-0.0156999
-0.0155784
-0.0154178
-0.0152176
-0.0149763
-0.0146934
-0.0143668
-0.0139963
-0.0135774
-0.0131067
-0.0125805
-0.012005
-0.0113836
-0.0107281
-0.0100458
-0.00935531
-0.00866262
-0.00797963
-0.00730563
-0.00665445
-0.00602182
-0.00540893
-0.00481577
-0.00423693
-0.00367304
-0.00311306
-0.00257272
-0.00203731
-0.00151178
-0.000986088
-0.00048941
-2.74719e-06
0.000462273
0.000916969
0.00131988
0.00169928
0.00204361
0.00234708
0.00261497
0.00283395
0.00298284
0.00303985
0.00300865
0.00290563
0.00265227
0.00224062
0.00164218
0.00112467
-9.48658e-05
0.00028586
-0.00341888
0.000647553
-0.00153377
-0.00327753
-0.00469966
-0.00589865
-0.00693745
-0.00785997
-0.00869626
-0.00946553
-0.0101794
-0.0108446
-0.011465
-0.0120426
-0.0125784
-0.0130732
-0.0135273
-0.013941
-0.0143148
-0.014649
-0.0149437
-0.0151993
-0.0154162
-0.0155944
-0.0157344
-0.0158362
-0.0159001
-0.0159261
-0.0159143
-0.0158645
-0.0157767
-0.0156505
-0.0154851
-0.0152798
-0.0150333
-0.0147447
-0.0144123
-0.0140353
-0.0136095
-0.0131318
-0.0126003
-0.0120208
-0.0113978
-0.0107423
-0.0100622
-0.00937443
-0.00868535
-0.0080057
-0.00733541
-0.00668602
-0.00605456
-0.0054416
-0.00484769
-0.00426677
-0.00370044
-0.00313809
-0.00259381
-0.00205423
-0.00152471
-0.000996622
-0.000495635
-5.45714e-06
0.000462938
0.00091897
0.00132606
0.00170828
0.00205519
0.00236124
0.00263154
0.00285272
0.00300186
0.00306165
0.0030318
0.00292958
0.00267579
0.00226687
0.00166257
0.00114949
-0.000104821
0.000313212
-0.00354609
0.000913793
-0.00138253
-0.00326218
-0.00481421
-0.00612302
-0.00724504
-0.00822353
-0.0090917
-0.00987345
-0.0105853
-0.0112383
-0.0118399
-0.0123947
-0.0129059
-0.0133755
-0.013805
-0.0141954
-0.0145474
-0.0148615
-0.0151381
-0.0153775
-0.0155799
-0.0157454
-0.0158742
-0.0159662
-0.0160213
-0.0160396
-0.0160208
-0.0159645
-0.0158705
-0.015738
-0.0155662
-0.0153542
-0.0151005
-0.0148041
-0.0144634
-0.0140773
-0.0136423
-0.0131561
-0.0126183
-0.0120344
-0.0114095
-0.010754
-0.0100766
-0.00939203
-0.00870711
-0.00803107
-0.00736474
-0.00671733
-0.00608714
-0.00547407
-0.00487936
-0.00429621
-0.00372733
-0.00316233
-0.00261396
-0.00207012
-0.00153659
-0.00100582
-0.000500461
-6.68786e-06
0.00046517
0.000922874
0.00133419
0.00171938
0.00206897
0.00237792
0.0026506
0.00287376
0.0030238
0.00308639
0.0030582
0.00295652
0.00270245
0.00229693
0.00168611
0.00117764
-0.000114006
0.000342322
-0.00368294
0.00110284
-0.0012665
-0.00324202
-0.0048938
-0.00629465
-0.0074935
-0.00853018
-0.00943784
-0.0102424
-0.0109632
-0.0116145
-0.0122064
-0.0127461
-0.0132388
-0.0136881
-0.0140965
-0.014466
-0.0147979
-0.015093
-0.0153521
-0.0155754
-0.0157632
-0.0159156
-0.0160325
-0.0161139
-0.0161595
-0.016169
-0.0161421
-0.0160781