/*--------------------------------*- C++ -*----------------------------------*\
| =========                 |                                                 |
| \\      /  F ield         | OpenFOAM: The Open Source CFD Toolbox           |
|  \\    /   O peration     | Version:  2.4.0                                 |
|   \\  /    A nd           | Web:      www.OpenFOAM.org                      |
|    \\/     M anipulation  |                                                 |
\*---------------------------------------------------------------------------*/
FoamFile
{
    version     2.0;
    format      ascii;
    class       volScalarField;
    location    "3.68";
    object      epsilon;
}
// * * * * * * * * * * * * * * * * * * * * * * * * * * * * * * * * * * * * * //

dimensions      [0 2 -3 0 0 0 0];

internalField   nonuniform List<scalar> 
6000
(
54.1736
1.09721
0.0203372
0.134424
0.0725725
0.0864362
0.0617741
0.0578054
0.046422
0.0423093
0.0368882
0.0346415
0.0327729
0.0328324
0.0336988
0.0356795
0.0380737
0.0408895
0.0440442
0.0480337
0.0534677
0.0611627
0.0718558
0.0861787
0.1045
0.126891
0.153099
0.182607
0.214672
0.248356
0.28249
0.315639
0.346023
0.371483
0.389443
0.396889
0.390914
0.369007
0.329911
0.274958
0.20959
0.14284
0.0868443
0.158502
0.280559
0.467051
0.724971
1.05677
1.44979
1.90976
2.40319
2.99786
3.58371
4.47396
5.17535
6.96808
7.65978
12.4631
12.2579
27.0648
17.7231
0.975331
0.0253991
0.0741915
0.0418359
0.0474409
0.0344597
0.0317471
0.0256528
0.0232006
0.0202422
0.018889
0.0177955
0.0176694
0.0179637
0.0187919
0.0198143
0.021024
0.0223897
0.0241397
0.0265479
0.0299578
0.0346513
0.0408328
0.0485723
0.05781
0.068367
0.0799868
0.0923618
0.105146
0.117945
0.130299
0.141654
0.151343
0.158539
0.162314
0.161668
0.155655
0.143579
0.125404
0.102292
0.0767012
0.0546905
0.0879906
0.138976
0.210463
0.303408
0.418192
0.551386
0.705679
0.8728
1.07393
1.2802
1.58387
1.84961
2.45093
2.76885
4.33249
4.51598
9.18543
7.13603
0.711101
0.0303288
0.0435287
0.0252968
0.0273374
0.0201225
0.0182709
0.0148497
0.0133467
0.0116697
0.0108502
0.0102141
0.0100969
0.010221
0.0106272
0.0111445
0.0117676
0.0124904
0.0134344
0.0147444
0.0165914
0.0191057
0.022366
0.0263755
0.0310715
0.0363401
0.0420419
0.0480283
0.0541475
0.0602401
0.066131
0.0716169
0.0764532
0.0803319
0.0829241
0.0838011
0.0825335
0.0787186
0.0721191
0.0628907
0.0517156
0.0425146
0.0606692
0.0861228
0.118701
0.157989
0.203893
0.255487
0.314182
0.378071
0.454623
0.53602
0.652241
0.764011
0.989846
1.14313
1.71178
1.8813
3.51497
3.42006
0.518214
0.0345532
0.0274487
0.016068
0.0164994
0.0122579
0.0109734
0.00896665
0.00802205
0.00704253
0.00654694
0.00618497
0.00612078
0.00620858
0.00646154
0.00679085
0.00719451
0.00767833
0.0083168
0.00920018
0.0104296
0.0120789
0.0141844
0.0167336
0.0196736
0.0229247
0.0263986
0.030008
0.0336712
0.0373091
0.0408412
0.0441786
0.0472116
0.0498309
0.0518804
0.0531555
0.0534446
0.0525237
0.0502073
0.0464325
0.0413284
0.0376835
0.0487732
0.0633474
0.0806973
0.100322
0.122011
0.145405
0.171149
0.198875
0.231526
0.26708
0.316255
0.367485
0.460928
0.538513
0.766078
0.878638
1.50279
1.89782
0.395518
0.0386653
0.0190387
0.0107938
0.0104371
0.00778124
0.00686344
0.00563467
0.00502702
0.00444216
0.00414676
0.00395203
0.00394045
0.00403279
0.00423205
0.00449048
0.00480883
0.00519828
0.00571159
0.00641414
0.00737594
0.0086461
0.0102429
0.012148
0.014315
0.016682
0.019185
0.0217657
0.0243741
0.0269664
0.0295024
0.0319409
0.0342311
0.0363443
0.0381853
0.0396512
0.0406275
0.040979
0.040566
0.039267
0.0370394
0.035968
0.043357
0.0525384
0.0628272
0.0739139
0.0856937
0.0980383
0.111217
0.125177
0.141111
0.158582
0.181729
0.207357
0.249847
0.291147
0.390566
0.459946
0.718431
1.19136
0.318417
0.0429898
0.0149644
0.00777353
0.00694963
0.00515506
0.00447058
0.00368328
0.00328315
0.00292901
0.00275925
0.00266794
0.00269735
0.00280289
0.00298404
0.00321444
0.00349705
0.00384623
0.0043047
0.00492578
0.00576383
0.00685466
0.00820673
0.00979911
0.0115902
0.0135297
0.0155694
0.0176688
0.0197958
0.0219258
0.0240381
0.0261132
0.0281305
0.0300757
0.0318874
0.033504
0.034852
0.0358385
0.0363547
0.0362722
0.0355273
0.0357045
0.0409513
0.0471298
0.0536642
0.0603916
0.0673191
0.0744789
0.0820372
0.0900448
0.0989726
0.108802
0.121152
0.135408
0.156816
0.180336
0.227747
0.270413
0.386415
0.829179
0.268834
0.0475797
0.0135388
0.00612803
0.00491448
0.00358069
0.00303946
0.00250809
0.00223739
0.00202153
0.00193137
0.00190448
0.00196275
0.00208026
0.00225562
0.00247437
0.00274168
0.0030744
0.00351058
0.00409709
0.00487924
0.00588478
0.00711675
0.00855394
0.0101599
0.0118939
0.0137186
0.0156047
0.0175301
0.0194787
0.0214378
0.0233954
0.0253432
0.0272615
0.0291086
0.0308405
0.0324043
0.0337309
0.0347355
0.0353007
0.0353778
0.036173
0.0400626
0.0443973
0.0487145
0.0529329
0.0571196
0.0613952
0.0659201
0.0708213
0.0763064
0.0824823
0.0899279
0.0988191
0.11089
0.12547
0.150246
0.177441
0.233893
0.628415
0.235882
0.0523428
0.0138471
0.00540947
0.00374316
0.00262926
0.00216753
0.00178496
0.00159492
0.00146318
0.0014236
0.00143702
0.00151477
0.00164142
0.00181586
0.00203085
0.00229372
0.00262332
0.00305538
0.00363281
0.00439532
0.00536599
0.00654551
0.0079143
0.00944107
0.011092
0.0128371
0.0146522
0.0165195
0.0184253
0.020359
0.0223107
0.0242705
0.0262173
0.0281189
0.0299405
0.0316408
0.033166
0.0344494
0.0353838
0.0359406
0.0370269
0.0399878
0.0430934
0.0459828
0.0486212
0.0511006
0.0535776
0.0562175
0.0591939
0.0626377
0.0667125
0.0715848
0.0776444
0.0852205
0.0950655
0.109289
0.127583
0.157243
0.510216
0.21325
0.0571231
0.015366
0.00537001
0.00312476
0.00206563
0.00163398
0.00133473
0.00119353
0.00111299
0.00110546
0.00114439
0.00123549
0.00136945
0.00154596
0.0017625
0.00202827
0.00236358
0.0028028
0.00338629
0.00415054
0.00511639
0.00628434
0.00763728
0.00914815
0.0107877
0.0125291
0.0143505
0.0162343
0.0181666
0.0201363
0.0221323
0.0241393
0.0261375
0.0280995
0.029995
0.0317903
0.0334415
0.0348947
0.0360437
0.0368853
0.0380798
0.0403633
0.0425926
0.0444937
0.0460614
0.0473968
0.0486663
0.0500338
0.0516907
0.0537499
0.0564016
0.0596701
0.0639775
0.069122
0.0762169
0.085142
0.098134
0.114808
0.437368
0.197245
0.0617498
0.0177529
0.00587606
0.00289978
0.00176072
0.00131576
0.00105627
0.000941904
0.000891771
0.000904376
0.000959864
0.00106078
0.00120158
0.00138281
0.00160517
0.00187935
0.00222658
0.00268031
0.00327949
0.00405908
0.00503947
0.0062222
0.00759266
0.00912676
0.0107975
0.0125792
0.0144495
0.0163897
0.0183843
0.0204206
0.0224838
0.0245546
0.0266141
0.0286374
0.0305965
0.0324621
0.0341971
0.0357524
0.037023
0.038026
0.0392204
0.0409823
0.0425519
0.0437275
0.044524
0.0450461
0.0454591
0.0459217
0.0466259
0.0476801
0.0492797
0.0514121
0.0544734
0.0581044
0.0634034
0.0694365
0.0790538
0.0889824
0.3909
0.185657
0.0660685
0.020753
0.00684819
0.00299217
0.00164599
0.00114443
0.000892142
0.000788052
0.000754428
0.000779337
0.000846026
0.000955007
0.00110304
0.00129151
0.00152332
0.00181016
0.00217376
0.00264704
0.00326837
0.00407249
0.0050805
0.00629555
0.00770518
0.00928701
0.0110148
0.0128622
0.0148055
0.0168239
0.0188997
0.0210188
0.0231588
0.0253007
0.027425
0.0295075
0.0315213
0.0334398
0.0352301
0.0368366
0.038169
0.0392486
0.0403756
0.0417171
0.0427676
0.0433841
0.0435972
0.0435122
0.0432903
0.0430837
0.0430778
0.043378
0.0441728
0.0454469
0.0475519
0.0501222
0.0541226
0.0584126
0.065723
0.0719203
0.360494
0.177121
0.0699613
0.0241535
0.00823666
0.00336199
0.00168929
0.00108333
0.000810158
0.000702416
0.000675194
0.000706956
0.000781545
0.000897843
0.00105399
0.00125205
0.00149634
0.00179919
0.00218251
0.002679
0.00332709
0.00416217
0.00520678
0.00646588
0.00792867
0.00957352
0.0113738
0.0133017
0.0153314
0.0174397
0.0196064
0.0218147
0.0240356
0.0262506
0.028439
0.0305766
0.0326362
0.034593
0.0364135
0.0380318
0.0393836
0.0404776
0.041494
0.0424827
0.0431091
0.0432778
0.0430314
0.0424755
0.0417662
0.0410495
0.0405018
0.0402251
0.0403958
0.0410043
0.0423549
0.044126
0.0471282
0.0502604
0.055898
0.059907
0.340225
0.170762
0.0733567
0.0277639
0.0099954
0.00398921
0.00188224
0.00111511
0.000793256
0.000668608
0.000639485
0.000673867
0.000754134
0.000877494
0.00104279
0.00125252
0.0015119
0.00183353
0.00223928
0.0027618
0.00344003
0.00431062
0.00539793
0.0067087
0.0082334
0.00995041
0.0118321
0.0138485
0.0159715
0.0181752
0.0204368
0.0227354
0.0250374
0.0273239
0.0295728
0.0317594
0.0338554
0.0358365
0.0376598
0.0392628
0.040599
0.0416599
0.0425374
0.0432191
0.0434878
0.0432858
0.0426659
0.0417339
0.0406405
0.0395262
0.038558
0.0378343
0.0375175
0.0376048
0.0383565
0.0395042
0.0417181
0.044021
0.048398
0.0510524
0.326533
0.166002
0.0762293
0.0314122
0.0120706
0.0048662
0.00222507
0.00123513
0.000833904
0.000678275
0.000639417
0.000672612
0.000756782
0.000887105
0.00106255
0.00128583
0.00156259
0.00190541
0.00233592
0.00288679
0.00359772
0.00450693
0.00564083
0.00700788
0.00859944
0.0103934
0.0123608
0.0144692
0.016688
0.0189885
0.0213456
0.0237321
0.0261124
0.0284663
0.0307702
0.032998
0.0351199
0.0371088
0.0389092
0.040476
0.0417669
0.042757
0.0434757
0.0438822
0.0438402
0.043323
0.0423918
0.0411525
0.0397512
0.0383226
0.0370249
0.0359522
0.0352538
0.0349318
0.0352085
0.0358633
0.0374494
0.0391282
0.0425354
0.0443097
0.317203
0.162444
0.0785935
0.0349485
0.0143951
0.00598766
0.00272111
0.00144821
0.000931138
0.000728303
0.000671353
0.000699403
0.000785738
0.000922868
0.00110935
0.00134785
0.00164407
0.00201031
0.00246773
0.00304893
0.00379445
0.00474428
0.00592694
0.00735251
0.00901304
0.0108857
0.0129398
0.0151405
0.0174545
0.0198505
0.0223009
0.0247702
0.0272241
0.0296396
0.031991
0.0342509
0.0363876
0.0383612
0.0401213
0.0416321
0.0428512
0.04374
0.0442854
0.044438
0.0441193
0.0433275
0.0421315
0.0406376
0.0389869
0.0373088
0.0357525
0.0344078
0.0334113
0.0327686
0.03267
0.0329337
0.0340198
0.0352155
0.0378687
0.0390477
0.310814
0.159805
0.0804932
0.0382516
0.0168877
0.00734188
0.00337698
0.00176329
0.00108914
0.000819375
0.000734608
0.000752939
0.000839431
0.000983006
0.00118122
0.00143643
0.00175407
0.00214588
0.00263224
0.00324553
0.00402704
0.00501854
0.00625073
0.00773518
0.00946458
0.0114152
0.0135547
0.0158454
0.0182519
0.0207398
0.0232786
0.0258249
0.0283459
0.0308156
0.0332059
0.0354877
0.037622
0.0395609
0.0412657
0.0427013
0.0438247
0.0445866
0.0449474
0.0448605
0.0442894
0.0432534
0.0418286
0.0401215
0.0382685
0.0363933
0.034636
0.0330815
0.0318547
0.0309629
0.0305701
0.0305246
0.0312135
0.03203
0.0340942
0.0348574
0.30643
0.157875
0.0819903
0.0412335
0.0194569
0.00890588
0.00420062
0.00218837
0.00131675
0.000955326
0.000830801
0.000833785
0.000917892
0.00106721
0.00127761
0.00155082
0.00189171
0.00231123
0.00282855
0.00347553
0.00429403
0.0053275
0.00660882
0.008151
0.0099474
0.0119733
0.0141948
0.0165717
0.0190662
0.0216407
0.0242608
0.0268774
0.0294579
0.0319732
0.0343926
0.0366838
0.0387941
0.0406852
0.0423192
0.043661
0.0446668
0.0452799
0.0454465
0.0451289
0.044323
0.0430659
0.0414408
0.0395544
0.0375383
0.0355101
0.0336004
0.0318882
0.0304874
0.0294056
0.0287852
0.0284973
0.0288726
0.0293901
0.0309932
0.0314591
0.303425
0.156497
0.0831546
0.0438417
0.022008
0.0106428
0.00519501
0.00273281
0.0016245
0.00114294
0.000963592
0.000944069
0.00102245
0.00117634
0.00139903
0.00169134
0.0020572
0.00250652
0.00305684
0.00373904
0.00459522
0.00567034
0.00699945
0.00859698
0.0104571
0.0125541
0.0148529
0.0173104
0.019887
0.0225419
0.0252346
0.027914
0.0305453
0.0330966
0.0355344
0.0378138
0.039887
0.0417166
0.0432642
0.0444939
0.0453617
0.045807
0.0457704
0.0452274
0.044199
0.0427386
0.0409361
0.038899
0.0367536
0.0346105
0.0325905
0.0307657
0.0292391
0.0280174
0.0272248
0.0267503
0.0268802
0.0271624
0.0284045
0.0286549
0.301374
0.155548
0.0840559
0.0460566
0.0244516
0.0125017
0.00635475
0.00340663
0.00202124
0.00139202
0.00113865
0.00108738
0.00115559
0.00131225
0.00154694
0.00185913
0.00225154
0.00273275
0.00331812
0.00403705
0.0049314
0.00604739
0.00742219
0.00907169
0.0109911
0.0131538
0.0155239
0.0180553
0.0207071
0.023435
0.0261908
0.0289242
0.0315968
0.0341738
0.0366112
0.0388645
0.0408879
0.0426419
0.044087
0.0451869
0.0458977
0.0461581
0.0459101
0.0451438
0.0439016
0.0422518
0.0402912
0.0381279
0.0358827
0.0336589
0.0315659
0.0296683
0.0280579
0.0267397
0.025822
0.0252077
0.0251486
0.0252477
0.0262074
0.0263012
0.299985
0.15493
0.0847583
0.0478867
0.0267109
0.0144206
0.00766336
0.0042161
0.00251724
0.00171224
0.00136375
0.00126875
0.0013209
0.00147772
0.00172357
0.00205611
0.00247641
0.00299154
0.00361406
0.00437125
0.00530416
0.00645987
0.00787771
0.00957501
0.0115483
0.0137704
0.0162048
0.0188024
0.0215216
0.024314
0.0271227
0.0299007
0.0326043
0.0351892
0.0376117
0.0398267
0.0417871
0.0434509
0.0447776
0.0457304
0.0462663
0.0463262
0.0458587
0.0448693
0.0434195
0.0415914
0.0394892
0.0372213
0.0349031
0.032629
0.0304969
0.0285623
0.0269056
0.025529
0.0245268
0.023813
0.0236118
0.023571
0.0243111
0.0242924
0.299055
0.154567
0.0853171
0.0493616
0.0287285
0.0163309
0.00909186
0.00516108
0.00312216
0.00211242
0.00164859
0.0014948
0.00152312
0.00167644
0.00193196
0.00228485
0.00273408
0.00328501
0.00394681
0.00474387
0.0057157
0.00690982
0.00836764
0.010108
0.0121291
0.0144034
0.0168942
0.0195497
0.0223276
0.025174
0.0280259
0.0308384
0.0335551
0.0361344
0.0385299
0.0406939
0.0425774
0.0441362
0.0453285
0.0461173
0.0464613
0.0463065
0.0456115
0.0443982
0.0427451
0.0407482
0.0385188
0.0361661
0.0337991
0.0315028
0.0293624
0.0274234
0.025754
0.0243531
0.0233017
0.0225235
0.02222
0.0220757
0.0226467
0.0225494
0.298441
0.154396
0.0857773
0.0505249
0.030469
0.0181641
0.0105992
0.00623266
0.00384236
0.00260247
0.00200176
0.00177377
0.00176815
0.00191303
0.00217589
0.00254856
0.00302734
0.00361577
0.00431892
0.00515756
0.00616877
0.00739992
0.00889443
0.0106726
0.0127349
0.0150536
0.0175924
0.0202965
0.023124
0.0260129
0.0288977
0.0317257
0.0344437
0.0370053
0.0393613
0.0414612
0.0432538
0.0446924
0.0457343
0.0463425
0.0464787
0.0460961
0.0451661
0.0437273
0.0418745
0.0397174
0.0373743
0.0349549
0.0325614
0.0302689
0.0281483
0.0262345
0.024583
0.0231882
0.022119
0.0213071
0.0209353
0.0207186
0.0211617
0.021013
0.298046
0.154367
0.0861736
0.0514268
0.0319195
0.0198585
0.0121347
0.00741144
0.00467868
0.00319064
0.00243232
0.00211425
0.00206312
0.00219299
0.00245989
0.00285108
0.00335948
0.00398675
0.00473326
0.00561528
0.00666649
0.00793339
0.00946123
0.0112718
0.0133682
0.0157231
0.0183007
0.0210438
0.0239113
0.0268277
0.0297291
0.0325611
0.0352681
0.0377996
0.0401032
0.0421253
0.0438124
0.0451156
0.0459913
0.0464029
0.0463162
0.0456937
0.0445219
0.0428561
0.0408073
0.0384984
0.0360546
0.0335857
0.0311867
0.0289215
0.0268467
0.0249851
0.0233789
0.0220177
0.0209584
0.02014
0.0197291
0.0194671
0.0198161
0.0196382
0.2978
0.154441
0.0865312
0.0521192
0.0330868
0.0213647
0.0136422
0.00866706
0.00562434
0.00388175
0.00294865
0.00252451
0.00241622
0.00252277
0.00278921
0.00319684
0.00373424
0.00440123
0.00519288
0.00612014
0.00721224
0.00851381
0.0100717
0.0119092
0.0140325
0.0164149
0.0190219
0.0217937
0.0246842
0.0276141
0.03052
0.0333439
0.0360275
0.038516
0.0407537
0.042684
0.0442508
0.0454032
0.0460967
0.0462962
0.0459727
0.0450995
0.0436798
0.0417866
0.0395462
0.0370944
0.0345632
0.0320616
0.0296767
0.0274608
0.0254551
0.0236699
0.0221338
0.0208304
0.0198056
0.0190048
0.0185802
0.0182962
0.0185795
0.0183909
0.297654
0.154587
0.0868674
0.0526506
0.0339937
0.0226498
0.0150656
0.00995928
0.00666334
0.00467534
0.00355688
0.00301224
0.00283513
0.00291006
0.00316976
0.00359078
0.00415576
0.00486271
0.00570093
0.00667531
0.00780942
0.00914495
0.01073
0.012589
0.0147318
0.0171329
0.0197554
0.0225423
0.0254422
0.0283733
0.0312714
0.0340746
0.0367217
0.0391538
0.0413117
0.0431357
0.0445671
0.0455531
0.0460489
0.0460214
0.045448
0.0443148
0.0426428
0.0405228
0.0380967
0.0355126
0.032908
0.0303904
0.0280384
0.0258917
0.0239761
0.0222887
0.0208443
0.0196203
0.0186515
0.0178893
0.017473
0.0171874
0.0174287
0.0172452
0.297576
0.154779
0.0871928
0.0530641
0.0346735
0.0236987
0.0163543
0.0112408
0.00776972
0.00556378
0.00425931
0.00358348
0.00332653
0.0033616
0.00360922
0.00403842
0.00462848
0.00537483
0.00626052
0.00728377
0.00846131
0.00983057
0.0114402
0.0133157
0.015468
0.0178753
0.020502
0.0232921
0.0261877
0.0291073
0.0319845
0.034754
0.037351
0.0397129
0.0417767
0.0434793
0.0447599
0.0455639
0.0458466
0.045578
0.044743
0.043342
0.0414152
0.0390715
0.0364679
0.0337639
0.0311012
0.0285849
0.0262836
0.0242243
0.022417
0.0208458
0.0195116
0.0183852
0.017491
0.0167857
0.0163967
0.0161271
0.0163466
0.0161814
0.297541
0.155
0.0875132
0.0533955
0.0351654
0.0245132
0.0174686
0.0124615
0.00890819
0.00653082
0.0050526
0.00424123
0.00389565
0.00388287
0.00411273
0.00454621
0.00515863
0.00594166
0.00687456
0.00794814
0.00917076
0.0105741
0.0122041
0.0140889
0.0162421
0.0186455
0.021265
0.0240465
0.0269233
0.0298181
0.032661
0.0353831
0.037916
0.0401931
0.0421478
0.0437138
0.0448279
0.0454341
0.0454888
0.0449657
0.043859
0.0421847
0.040003
0.0374415
0.0346717
0.0318629
0.0291595
0.0266622
0.0244289
0.0224733
0.0207898
0.0193499
0.0181409
0.0171271
0.016323
0.0156901
0.0153444
0.0151059
0.0153206
0.0151848
0.297533
0.155235
0.0878308
0.0536733
0.0355096
0.0251099
0.0183829
0.0135733
0.0100362
0.00755101
0.00592621
0.00498391
0.00454501
0.00447776
0.00468441
0.00511803
0.00574955
0.00656705
0.0075462
0.00867034
0.00993858
0.0113753
0.0130228
0.0149112
0.0170572
0.0194465
0.0220477
0.0248065
0.0276514
0.0305077
0.0333024
0.0359628
0.0384169
0.0405942
0.0424242
0.0438377
0.0447692
0.0451621
0.0449743
0.0441848
0.042798
0.0408474
0.038414
0.0356444
0.0327233
0.0298282
0.0271038
0.0246442
0.0224954
0.0206578
0.0191107
0.0178136
0.0167412
0.0158512
0.0151494
0.0146015
0.0143124
0.0141177
0.0143418
0.0142448
0.297542
0.155474
0.0881456
0.0539188
0.0357446
0.0255157
0.0190874
0.0145355
0.0111076
0.00859028
0.00686124
0.00580378
0.00527308
0.00514755
0.00532659
0.00575642
0.00640357
0.0072527
0.00827633
0.00945062
0.0107649
0.0122347
0.0138975
0.0157845
0.0179155
0.0202813
0.0228531
0.0255746
0.0283741
0.0311778
0.0339097
0.0364935
0.0388535
0.0409152
0.0426045
0.0438492
0.044582
0.0447461
0.0443021
0.0432354
0.0415627
0.0393359
0.0366581
0.0336941
0.0306413
0.0276823
0.0249591
0.022557
0.0205087
0.0188012
0.0173997
0.0162531
0.0153246
0.0145659
0.0139755
0.013522
0.0132999
0.0131593
0.0134045
0.0133551
0.29756
0.155711
0.0884561
0.0541468
0.0359042
0.0257639
0.0195871
0.0153188
0.0120771
0.00960787
0.00783012
0.0066856
0.0060728
0.00588961
0.00603872
0.00646179
0.0071213
0.0079989
0.00906455
0.0102879
0.0116482
0.0131513
0.0148278
0.0167092
0.0188185
0.0211517
0.023683
0.0263523
0.0290928
0.0318293
0.0344832
0.0369747
0.0392246
0.0411543
0.0426863
0.0437455
0.0442633
0.0441835
0.0434706
0.0421181
0.0401563
0.0376574
0.034747
0.0316078
0.0284477
0.0254512
0.0227544
0.0204305
0.0184981
0.0169304
0.0156805
0.014688
0.0139066
0.0132823
0.0128088
0.012456
0.0123085
0.0122298
0.0125057
0.0125119
0.297583
0.15594
0.0887604
0.0543673
0.0360164
0.02589
0.0198998
0.015908
0.0129049
0.0105597
0.00879752
0.007606
0.00693034
0.00669611
0.0068163
0.00723136
0.00790086
0.00880385
0.00990861
0.0111792
0.0125854
0.0141219
0.0158115
0.0176842
0.019766
0.0220582
0.0245357
0.0271402
0.0298074
0.0324617
0.0350219
0.037405
0.0395281
0.0413087
0.0426661
0.0435228
0.0438094
0.0434714
0.0424783
0.0408335
0.0385832
0.0358209
0.0326951
0.0294057
0.026168
0.0231651
0.0205223
0.0182983
0.0164958
0.0150755
0.0139795
0.0131404
0.0125048
0.0120139
0.0116593
0.0114102
0.011342
0.0113306
0.0116444
0.0117124
0.297606
0.156159
0.0890564
0.0545858
0.0361035
0.0259284
0.0200526
0.0163023
0.0135617
0.0114028
0.00972257
0.00853365
0.00782426
0.00755286
0.00764961
0.00805815
0.0087368
0.00966281
0.0108037
0.0121194
0.0135708
0.0151412
0.0168438
0.0187059
0.0207555
0.0229993
0.0254097
0.0279365
0.0305163
0.033073
0.0355232
0.037781
0.0397599
0.0413739
0.042539
0.0431761
0.0432156
0.0426059
0.0413233
0.039383
0.0368488
0.0338372
0.0305196
0.0271113
0.0238317
0.0208572
0.0182984
0.0161963
0.0145367
0.0132683
0.0123249
0.0116346
0.0111391
0.0107761
0.0105389
0.010393
0.0104058
0.0104646
0.0108215
0.0109557
0.297629
0.156365
0.0893424
0.0548051
0.0361815
0.0259103
0.0200776
0.0165144
0.014031
0.0120997
0.0105623
0.00943075
0.00872541
0.00843852
0.00852278
0.00892984
0.00961915
0.0105671
0.0117416
0.0131
0.0145955
0.0162002
0.0179167
0.0197672
0.0217814
0.0239676
0.0263006
0.0287373
0.0312155
0.0336588
0.0359825
0.0380976
0.0399143
0.0413435
0.0422986
0.0426989
0.0424762
0.0415829
0.0400039
0.0377685
0.0349604
0.03172
0.0282411
0.0247518
0.0214713
0.0185638
0.0161205
0.0141616
0.0126559
0.0115413
0.0107455
0.0101953
0.00983033
0.00958623
0.00946103
0.00941444
0.00950683
0.00963649
0.0100395
0.0102426
0.29765
0.156558
0.0896167
0.0550257
0.0362615
0.0258615
0.0200085
0.0165677
0.0143105
0.012623
0.011276
0.0102557
0.009598
0.00932443
0.00941307
0.00982793
0.0105324
0.0115034
0.0127099
0.0141087
0.0156471
0.0172866
0.0190182
0.0208576
0.0228346
0.0249544
0.027201
0.0295355
0.031898
0.0342123
0.0363924
0.038347
0.0399834
0.0412094
0.0419364
0.0420835
0.0415844
0.0403976
0.0385187
0.0359934
0.0329275
0.029486
0.0258838
0.0223583
0.0191226
0.0163231
0.0140269
0.0122312
0.0108878
0.00992568
0.00926957
0.0088472
0.00859933
0.00846387
0.00843988
0.00848526
0.00865328
0.00885193
0.00930213
0.00957534
0.297669
0.156739
0.0898786
0.0552472
0.0363502
0.0258026
0.0198775
0.0164922
0.0144115
0.0129584
0.0118298
0.0109669
0.0104017
0.0101755
0.0102909
0.0107273
0.0114549
0.0124523
0.0136911
0.0151286
0.0167087
0.0183834
0.0201318
0.0219616
0.0238985
0.0259469
0.028099
0.0303203
0.0325534
0.0347231
0.0367427
0.0385188
0.0399563
0.0409608
0.0414423
0.0413204
0.0405327
0.0390454
0.0368673
0.0340632
0.0307625
0.0271557
0.0234761
0.0199652
0.0168236
0.0141738
0.0120546
0.0104391
0.00926343
0.00844962
0.0079222
0.00761281
0.00746593
0.0074253
0.00748952
0.00761681
0.00785392
0.00811761
0.00861431
0.00895725
0.297686
0.156907
0.0901274
0.0554681
0.0364507
0.0257484
0.0197128
0.0163214
0.0143568
0.0131055
0.0122006
0.0115271
0.0110951
0.0109521
0.0111205
0.0115962
0.0123583
0.0133887
0.0146619
0.0161376
0.0177584
0.0194687
0.0212359
0.0230587
0.0249531
0.0269273
0.0289783
0.0310764
0.0331673
0.0351774
0.0370196
0.0385995
0.0398199
0.0405849
0.0408042
0.0403994
0.0393132
0.0375222
0.0350509
0.0319859
0.028482
0.024754
0.0210502
0.0176097
0.0146133
0.0121532
0.0102372
0.00881486
0.00780835
0.00713581
0.00672415
0.00651119
0.00644753
0.00648571
0.00662331
0.00682031
0.00711789
0.00744078
0.00798164
0.00839257
0.297699
0.157063
0.0903632
0.0556869
0.0365639
0.0257088
0.0195378
0.0160881
0.0141763
0.013078
0.0123791
0.0119082
0.0116397
0.0116132
0.0118623
0.0123976
0.0132084
0.0142807
0.0155929
0.0171079
0.018769
0.0205153
0.0223035
0.0241216
0.0259737
0.0278722
0.0298173
0.0317836
0.0337206
0.0355568
0.0372056
0.0385721
0.0395579
0.0400666
0.0400085
0.0393089
0.0379181
0.0358251
0.0330733
0.0297733
0.0261067
0.0223106
0.0186425
0.0153311
0.0125295
0.0102946
0.0086023
0.0073803
0.00654042
0.00599969
0.00568979
0.0055564
0.00555788
0.00565799
0.00585317
0.00610633
0.00645423
0.00682901
0.0074103
0.00788622
0.297711
0.157209
0.090586
0.0559021
0.0366891
0.0256894
0.0193699
0.015822
0.013904
0.0129002
0.0123703
0.0120944
0.0120046
0.0121199
0.0124751
0.013091
0.0139661
0.0150914
0.016449
0.0180059
0.0197077
0.0214906
0.023302
0.0251167
0.0269293
0.0287524
0.0305884
0.0324163
0.0341894
0.0358388
0.0372793
0.0384163
0.0391513
0.0393884
0.0390402
0.0380375
0.0363404
0.0339535
0.0309417
0.0274422
0.0236629
0.0198599
0.0162921
0.0131686
0.0106068
0.00862516
0.00716913
0.00614836
0.00546842
0.00504828
0.0048261
0.00475639
0.00480612
0.0049519
0.0051889
0.00548423
0.00587146
0.00628982
0.00690674
0.00744359
0.29772
0.157344
0.0907965
0.0561124
0.0368244
0.0256927
0.0192214
0.0155481
0.0135737
0.0126045
0.0121928
0.0120843
0.0121703
0.0124407
0.0129209
0.0136353
0.0145897
0.0157795
0.0171902
0.0187928
0.0205365
0.0223566
0.0241932
0.0260065
0.0277831
0.0295327
0.0312587
0.0329435
0.0345445
0.035996
0.0372152
0.0381085
0.0385786
0.0385314
0.0378839
0.0365742
0.0345752
0.03191
0.0286682
0.0250148
0.0211828
0.0174408
0.01404
0.011159
0.00887364
0.00716349
0.00594722
0.00512202
0.00459175
0.00428
0.00413251
0.00411273
0.00419632
0.00437339
0.00463765
0.00496167
0.0053772
0.00583037
0.00647747
0.00707033
0.297728
0.15747
0.0909952
0.0563168
0.0369677
0.0257186
0.0190999
0.0152857
0.0132162
0.0122261
0.0118754
0.0118914
0.0121317
0.0125546
0.0131682
0.0139931
0.0150384
0.0163026
0.0177737
0.0194262
0.0212133
0.0230711
0.0249344
0.0267486
0.0284932
0.0301726
0.0317894
0.0333288
0.034752
0.0359972
0.0369844
0.0376223
0.0378164
0.037476
0.0365243
0.0349098
0.0326208
0.0297025
0.0262712
0.0225203
0.0187042
0.0150957
0.0119259
0.00933394
0.00735018
0.00591805
0.00493595
0.00429493
0.00390147
0.00368587
0.0036018
0.00362113
0.00372806
0.00392459
0.00420364
0.00454434
0.00497783
0.0054572
0.00612874
0.00677209
0.297734
0.157588
0.0911829
0.0565147
0.0371165
0.0257654
0.0190089
0.0150484
0.0128575
0.0118004
0.011454
0.0115417
0.011899
0.0124553
0.013197
0.0141347
0.015276
0.0166204
0.0181569
0.0198624
0.0216937
0.0235889
0.0254797
0.027297
0.0290135
0.030627
0.0321374
0.0335315
0.034774
0.0358072
0.0365548
0.0369295
0.0368403
0.0362026
0.0349481
0.0330384
0.0304807
0.0273449
0.0237762
0.019995
0.0162704
0.0128678
0.00998619
0.00771724
0.00604632
0.00488713
0.00412575
0.00365334
0.00338259
0.00325169
0.00322201
0.00327288
0.00339788
0.003604
0.00388819
0.00423578
0.00467827
0.00517592
0.00586634
0.00655429
0.297738
0.157698
0.0913604
0.0567056
0.0372686
0.0258305
0.018949
0.0148447
0.0125176
0.0113586
0.0109663
0.0110703
0.0114964
0.0121519
0.0130018
0.0140424
0.0152757
0.016699
0.0183011
0.0200595
0.0219338
0.0238647
0.0257819
0.0276035
0.0292956
0.0308479
0.0322563
0.0335077
0.0345697
0.0353887
0.0358934
0.0360011
0.0356269
0.0346941
0.0331456
0.0309595
0.0281651
0.0248596
0.0212177
0.0174822
0.0139278
0.0107987
0.00825007
0.00632256
0.00496156
0.00406014
0.00350042
0.00317894
0.00301689
0.00296074
0.00297878
0.00305673
0.00319671
0.00340709
0.00369015
0.00403749
0.00448193
0.00499107
0.00569537
0.00642189
0.297742
0.157802
0.0915286
0.0568893
0.0374222
0.0259108
0.0189186
0.0146785
0.0122103
0.0109269
0.0104483
0.0105171
0.010959
0.0116687
0.0125933
0.0137139
0.0150238
0.0165158
0.0181763
0.0199821
0.0218945
0.023856
0.0257959
0.0276213
0.0292915
0.0307873
0.0320992
0.0332126
0.0340974
0.0347043
0.0349672
0.0348098
0.0341554
0.0329372
0.031113
0.0286802
0.0256933
0.0222787
0.0186385
0.0150313
0.0117236
0.00892457
0.00673701
0.00515262
0.00408602
0.00342003
0.0030401
0.00285177
0.00278571
0.00279626
0.00285762
0.00296084
0.00311489
0.00332765
0.00360646
0.00394917
0.00439067
0.00490594
0.00561998
0.00637916
0.297744
0.157901
0.0916883
0.057066
0.0375757
0.0260033
0.0189149
0.0145507
0.0119439
0.0105246
0.00993137
0.00992194
0.0103287
0.0110422
0.0119979
0.0131639
0.0145233
0.016063
0.0177656
0.019606
0.0215453
0.0235279
0.0254826
0.0273084
0.028957
0.0304001
0.0316213
0.0326035
0.0333178
0.0337187
0.0337465
0.0333327
0.0324103
0.0309261
0.0288551
0.0262175
0.0230956
0.0196449
0.0160902
0.0126946
0.00970146
0.00727225
0.00545491
0.00419986
0.00340288
0.00294626
0.00272413
0.00265277
0.00267213
0.0027434
0.00284556
0.0029743
0.00314325
0.00335886
0.00363289
0.00396902
0.00440484
0.00492247
0.00564324
0.0064294
0.297746
0.157994
0.0918403
0.0572357
0.0377278
0.026105
0.0189343
0.0144595
0.0117222
0.0101647
0.00944023
0.00932072
0.00964863
0.0103167
0.0112553
0.0124232
0.0137951
0.0153512
0.0170697
0.0189226
0.0208702
0.0228576
0.0248137
0.0266322
0.0282562
0.0296483
0.0307847
0.0316438
0.0321971
0.0324031
0.0322084
0.0315541
0.0303854
0.0286648
0.0263882
0.0236013
0.020415
0.0170116
0.01363
0.0105234
0.00789711
0.00585678
0.00440012
0.00344859
0.00289134
0.00261769
0.00253337
0.0025655
0.00266219
0.00279016
0.00293212
0.0030881
0.00327364
0.00349394
0.00376444
0.00409404
0.00452341
0.00504113
0.00576691
0.00657476
0.297747
0.158083
0.0919853
0.0573988
0.0378775
0.0262133
0.018973
0.0144017
0.0115453
0.00985426
0.00899233
0.00874296
0.00895899
0.00953901
0.0104134
0.0115365
0.0128771
0.0144098
0.0161089
0.0179432
0.0198719
0.0218401
0.0237773
0.0255747
0.0271667
0.0285067
0.0295625
0.0303075
0.0307122
0.0307386
0.0303408
0.0294703
0.0280867
0.0261714
0.0237434
0.0208758
0.0177073
0.0144407
0.0113169
0.00856327
0.0063343
0.00468012
0.00355914
0.00287802
0.00252955
0.00241474
0.00245161
0.00257697
0.00274538
0.0029277
0.00310946
0.00329535
0.00349913
0.00372647
0.00399571
0.00432015
0.00474392
0.00526089
0.00599125
0.00681597
0.297748
0.158168
0.0921242
0.0575557
0.0380244
0.026326
0.0190274
0.014373
0.0114109
0.00959572
0.00859829
0.00821036
0.00829351
0.00875313
0.00952294
0.0105568
0.0118205
0.0132857
0.0149234
0.0167005
0.018575
0.0204923
0.0223827
0.0241384
0.0256852
0.0269678
0.0279452
0.0285848
0.0288555
0.0287224
0.0281472
0.0270936
0.0255374
0.0234811
0.0209687
0.0181007
0.0150397
0.011999
0.00920628
0.00684775
0.00502227
0.00373218
0.00291158
0.00246539
0.00229698
0.00232085
0.00246629
0.00267779
0.0029145
0.00315002
0.00337207
0.00359061
0.00381369
0.00405029
0.0043209
0.00464232
0.00506256
0.00557907
0.00631495
0.00715227
0.297749
0.158249
0.0922576
0.0577068
0.0381679
0.0264413
0.019094
0.0143692
0.0113149
0.00938789
0.0082628
0.00773671
0.0076775
0.00799648
0.00863181
0.00953925
0.0106847
0.0120387
0.0135712
0.0152481
0.0170275
0.0188556
0.0206643
0.0223506
0.0238329
0.0250478
0.0259457
0.0264878
0.0266406
0.0263721
0.025652
0.0244569
0.0227809
0.0206487
0.0181301
0.0153499
0.0124869
0.00975162
0.00734236
0.00539489
0.00395575
0.00299363
0.00243364
0.00218862
0.00217594
0.00232308
0.00256848
0.0028619
0.00316511
0.00345328
0.00371608
0.00396778
0.00421168
0.00445927
0.00473371
0.00505453
0.00547418
0.00599142
0.00673499
0.00758123
0.297749
0.158328
0.0923863
0.0578526
0.0383078