/*--------------------------------*- C++ -*----------------------------------*\
| =========                 |                                                 |
| \\      /  F ield         | OpenFOAM: The Open Source CFD Toolbox           |
|  \\    /   O peration     | Version:  2.4.0                                 |
|   \\  /    A nd           | Web:      www.OpenFOAM.org                      |
|    \\/     M anipulation  |                                                 |
\*---------------------------------------------------------------------------*/
FoamFile
{
    version     2.0;
    format      ascii;
    class       volVectorField;
    location    "0.8";
    object      U;
}
// * * * * * * * * * * * * * * * * * * * * * * * * * * * * * * * * * * * * * //

dimensions      [0 1 -1 0 0 0 0];

internalField   nonuniform List<vector> 
5625
(
(0.789581 -0.0902707 -6.00842e-18)
(0.123221 -0.0276943 -5.01491e-18)
(0.0353573 -0.00613311 0)
(-0.025594 0.00644163 0)
(-0.0556709 0.0118871 0)
(-0.0684722 0.0148182 0)
(-0.0877357 0.0187374 5.3522e-18)
(-0.107084 0.0223571 2.57017e-18)
(-0.12947 0.0258031 2.46376e-18)
(-0.150573 0.0283779 0)
(-0.169418 0.0299484 2.27825e-18)
(-0.183209 0.0305113 -2.19232e-18)
(-0.191243 0.0301154 -2.14573e-18)
(-0.193123 0.0285576 0)
(-0.184084 0.0242626 0)
(-0.165366 0.0190673 0)
(-0.137515 0.0132494 0)
(-0.102863 0.00734449 0)
(-0.0641568 0.00179291 2.76385e-18)
(-0.0239755 -0.00312415 2.86963e-18)
(0.0158141 -0.00732022 -1.48184e-18)
(0.0541761 -0.010784 0)
(0.0905952 -0.0135527 -1.54993e-18)
(0.12476 -0.0156269 -1.57332e-18)
(0.15625 -0.0169844 0)
(0.184479 -0.0176143 -1.60705e-18)
(0.208776 -0.0175527 0)
(0.228715 -0.0169193 0)
(0.244449 -0.0158836 0)
(0.256479 -0.0145925 8.15341e-19)
(0.265754 -0.0131546 0)
(0.272958 -0.0115995 0)
(0.278784 -0.00996591 0)
(0.283628 -0.00825414 8.13702e-19)
(0.287774 -0.00648278 -8.12849e-19)
(0.29142 -0.00466065 0)
(0.294713 -0.00280074 1.01494e-19)
(0.297772 -0.000903306 0)
(0.300674 0.00103244 -1.01546e-19)
(0.303432 0.00299726 -2.03245e-19)
(0.30621 0.00498477 8.1434e-19)
(0.308937 0.00701211 -8.16043e-19)
(0.311847 0.00907422 0)
(0.31462 0.0111831 0)
(0.317825 0.0133235 0)
(0.320612 0.0155018 -8.27373e-19)
(0.324486 0.0177383 1.66339e-18)
(0.32724 0.0199905 0)
(0.332307 0.0223946 -3.36431e-18)
(0.334717 0.024725 1.69336e-18)
(0.341483 0.0273699 1.70466e-18)
(0.343251 0.0297561 1.71741e-18)
(0.351913 0.0326864 1.73113e-18)
(0.353224 0.0351162 0)
(0.363696 0.0383951 1.76101e-18)
(0.364936 0.0408725 -3.55388e-18)
(0.377343 0.0445718 -3.58939e-18)
(0.378685 0.047163 0)
(0.393391 0.051352 2.41228e-21)
(0.394904 0.054111 3.69241e-18)
(0.412397 0.0588821 0)
(0.414316 0.0619448 -3.75482e-18)
(0.434918 0.0673042 0)
(0.437894 0.0709291 0)
(0.462036 0.0769668 3.82733e-18)
(0.466696 0.0813941 0)
(0.49532 0.0882934 -3.8153e-18)
(0.502236 0.0938062 3.77745e-18)
(0.537033 0.101856 0)
(0.5471 0.108932 3.59504e-18)
(0.591018 0.118517 -3.4386e-18)
(0.605513 0.128115 0)
(0.666217 0.139467 0)
(0.686216 0.153701 0)
(0.856538 0.189012 2.45919e-18)
(0.826327 -0.128747 0)
(0.276678 -0.0265695 0)
(0.126587 -0.00997209 0)
(0.023548 0.00378499 2.69648e-18)
(-0.027538 0.0100522 -2.65697e-18)
(-0.0502846 0.0137679 -2.58273e-18)
(-0.0735248 0.0183656 1.94493e-21)
(-0.0954939 0.0227108 2.25905e-21)
(-0.119494 0.026791 -2.31181e-18)
(-0.14199 0.0299288 2.22616e-18)
(-0.162222 0.0318645 0)
(-0.178027 0.0324563 2.09147e-18)
(-0.186325 0.0315028 4.09037e-18)
(-0.188312 0.0288201 0)
(-0.17926 0.0240494 0)
(-0.160145 0.017627 2.22857e-18)
(-0.131662 0.0104503 0)
(-0.0961449 0.00333346 0)
(-0.0563676 -0.00314322 0)
(-0.0149138 -0.00867654 -4.01867e-18)
(0.0263307 -0.0132518 2.76669e-18)
(0.0662472 -0.0168989 -1.4179e-18)
(0.104245 -0.019718 3.7922e-21)
(0.140064 -0.021736 1.47343e-18)
(0.173483 -0.0229134 0)
(0.204139 -0.0232377 0)
(0.231519 -0.0227465 0)
(0.25525 -0.0215865 0)
(0.275241 -0.0199523 0)
(0.291553 -0.0180319 -7.85635e-19)
(0.30459 -0.0159754 7.9001e-19)
(0.314827 -0.0138473 0)
(0.32291 -0.011692 -7.95391e-19)
(0.32937 -0.00951198 -7.96628e-19)
(0.334653 -0.00730927 3.9866e-19)
(0.339088 -0.00508824 -1.99316e-19)
(0.342922 -0.00285378 -9.96979e-20)
(0.346333 -0.000603249 0)
(0.349481 0.00166701 9.98491e-20)
(0.35243 0.00395471 4.00012e-19)
(0.35534 0.00625521 -4.00805e-19)
(0.358163 0.00858052 8.0323e-19)
(0.361186 0.0109367 8.05265e-19)
(0.364088 0.0133276 0)
(0.367495 0.0157624 -8.10982e-19)
(0.370483 0.0182153 8.1488e-19)
(0.3746 0.0207512 0)
(0.377616 0.0232727 -1.6456e-18)
(0.382937 0.0259783 3.3116e-18)
(0.385859 0.0285886 0)
(0.392773 0.0315255 -1.67839e-18)
(0.395619 0.0342467 -1.69073e-18)
(0.404068 0.0374324 -1.14315e-21)
(0.407394 0.0403928 0)
(0.417128 0.0438029 -1.73182e-18)
(0.421109 0.0471199 5.23738e-18)
(0.432477 0.0508024 0)
(0.437268 0.0545532 -3.55248e-18)
(0.450607 0.0585747 3.58972e-21)
(0.456373 0.0628398 3.61574e-18)
(0.47216 0.0673053 0)
(0.479143 0.0722554 4.67486e-21)
(0.498035 0.0772336 0)
(0.506565 0.0831127 0)
(0.529423 0.0887298 0)
(0.539954 0.0958695 3.73147e-18)
(0.568033 0.102302 3.72779e-18)
(0.581205 0.111165 0)
(0.616374 0.118681 3.61384e-18)
(0.633196 0.129925 0)
(0.678612 0.139022 6.67444e-18)
(0.700642 0.153739 0)
(0.763282 0.165064 -2.68185e-18)
(0.795426 0.181481 0)
(0.924532 0.205011 -2.16928e-18)
(0.856592 -0.0991823 0)
(0.377588 -0.0263313 0)
(0.199793 -0.0102404 0)
(0.0731378 0.00253764 2.75132e-21)
(0.00240408 0.00861989 2.48917e-18)
(-0.0301386 0.012777 4.81151e-18)
(-0.0569456 0.0179405 2.22574e-21)
(-0.0806714 0.0228624 -2.23217e-18)
(-0.105541 0.0272595 -2.14974e-18)
(-0.128812 0.0304929 -2.06964e-18)
(-0.149915 0.032254 0)
(-0.166888 0.0322936 -1.95756e-18)
(-0.176477 0.0304965 -1.93063e-18)
(-0.179247 0.0263271 0)
(-0.171197 0.0200958 -1.9971e-18)
(-0.152934 0.0123434 -7.50869e-21)
(-0.125089 0.00398968 0)
(-0.0899742 -0.0039659 -2.27377e-18)
(-0.0503854 -0.0108995 0)
(-0.00893471 -0.0165637 2.47599e-18)
(0.0324421 -0.02105 -3.85462e-21)
(0.0725565 -0.0244673 3.64303e-21)
(0.110752 -0.0269741 1.33744e-18)
(0.146787 -0.0286459 0)
(0.180556 -0.0294538 0)
(0.211784 -0.0293472 0)
(0.240022 -0.0283496 0)
(0.264924 -0.0266324 0)
(0.286355 -0.0244142 7.30723e-19)
(0.304291 -0.021903 0)
(0.318925 -0.0192776 -7.54019e-19)
(0.330579 -0.0166349 7.61811e-19)
(0.33977 -0.0140378 4.22957e-22)
(0.347016 -0.0114909 3.86079e-19)
(0.352809 -0.00898446 0)
(0.35754 -0.00651299 1.94113e-19)
(0.361519 -0.00406864 9.72173e-20)
(0.364965 -0.00164164 0)
(0.368081 0.00077789 -3.93056e-23)
(0.370969 0.00319416 -1.95338e-19)
(0.37379 0.00560544 0)
(0.376527 0.00802333 -3.92383e-19)
(0.379437 0.0104608 -3.30548e-22)
(0.382282 0.0129222 -7.89161e-19)
(0.385597 0.0154255 7.92493e-19)
(0.388637 0.0179358 0)
(0.392634 0.0205295 -7.99268e-19)
(0.395853 0.0230922 7.83071e-22)
(0.400906 0.0258346 -3.23247e-18)
(0.404292 0.0284947 0)
(0.410716 0.0314311 0)
(0.414355 0.0342842 0)
(0.422243 0.0374087 -1.66095e-18)
(0.426396 0.0405315 0)
(0.435799 0.0439204 0)
(0.440616 0.0472466 -3.40098e-18)
(0.451806 0.0509748 3.4297e-18)
(0.457503 0.0546731 2.87053e-21)
(0.470757 0.0587445 3.49075e-18)
(0.477557 0.0629911 -3.37805e-21)
(0.493365 0.0674098 -3.54241e-18)
(0.501541 0.0724376 3.56985e-18)
(0.520554 0.0772458 0)
(0.530478 0.0833441 0)
(0.553573 0.0885802 0)
(0.565755 0.0961939 -3.61115e-18)
(0.594184 0.101885 0)
(0.609378 0.111658 0)
(0.644987 0.117834 -1.02401e-20)
(0.664396 0.130727 0)
(0.710298 0.137381 -3.17736e-18)
(0.735757 0.155329 0)
(0.799308 0.16141 2.53071e-18)
(0.834765 0.182069 0)
(0.95612 0.203063 0)
(0.884223 -0.0646846 0)
(0.456112 -0.0201482 1.94998e-18)
(0.266996 -0.00693911 0)
(0.12444 0.00328577 -2.4446e-18)
(0.0356289 0.00833481 -2.38621e-18)
(-0.00789055 0.0123065 -2.28535e-18)
(-0.0391997 0.0177641 -2.18917e-18)
(-0.0649811 0.0231051 0)
(-0.0907825 0.0277864 4.03382e-18)
(-0.11474 0.0310993 0)
(-0.136511 0.032712 0)
(-0.154337 0.0323014 0)
(-0.165275 0.0298304 0)
(-0.16892 0.0247028 0)
(-0.16216 0.0169581 6.07602e-21)
(-0.144996 0.00774149 -7.16512e-21)
(-0.118067 -0.00190768 -2.04578e-18)
(-0.08363 -0.0108269 7.60058e-21)
(-0.0445159 -0.0183234 1.12062e-18)
(-0.00338953 -0.0241836 -2.33046e-18)
(0.0377695 -0.0286026 -1.20211e-18)
(0.077739 -0.0317908 2.4558e-18)
(0.115802 -0.0339752 0)
(0.151719 -0.0352931 0)
(0.185441 -0.0357191 0)
(0.21674 -0.0351629 -1.29405e-18)
(0.245208 -0.0336437 0)
(0.270496 -0.0313527 0)
(0.292445 -0.0285349 -6.84624e-19)
(0.311014 -0.0254169 0)
(0.326319 -0.0221997 7.13408e-19)
(0.338608 -0.0190111 -5.15855e-22)
(0.348311 -0.0159373 7.36007e-19)
(0.35591 -0.012995 0)
(0.361903 -0.0101709 0)
(0.366711 -0.00744824 0)
(0.37068 -0.00480633 0)
(0.374059 -0.00222478 0)
(0.37707 0.000314897 -9.45869e-20)
(0.379842 0.002825 0)
(0.382537 0.00531072 0)
(0.385162 0.00778405 0)
(0.38794 0.0102652 -7.63779e-19)
(0.390703 0.0127562 3.7257e-22)
(0.393884 0.0152873 0)
(0.396927 0.0178135 0)
(0.400762 0.0204249 1.55025e-18)
(0.404113 0.0229926 1.55805e-18)
(0.408887 0.025735 9.25012e-22)
(0.412586 0.028402 1.57371e-18)
(0.41857 0.0313124 0)
(0.422713 0.0341919 0)
(0.430074 0.0372513 0)
(0.434822 0.0403847 -1.61418e-18)
(0.443693 0.0437008 0)
(0.449186 0.0471044 3.27632e-18)
(0.459876 0.0507045 -4.95402e-18)
(0.466238 0.054485 3.3267e-18)
(0.479135 0.0584424 0)
(0.486526 0.0627281 -3.91337e-21)
(0.502165 0.0670752 3.39642e-18)
(0.510852 0.0721 0)
(0.529848 0.0768368 0)
(0.540303 0.0829412 0)
(0.563421 0.0880545 -3.42007e-18)
(0.57621 0.0957209 0)
(0.604686 0.101185 -3.36858e-18)
(0.620635 0.111112 3.32081e-18)
(0.65627 0.116877 -3.23246e-18)
(0.676686 0.130072 0)
(0.722552 0.13602 2.8946e-18)
(0.749363 0.154437 0)
(0.813615 0.159132 0)
(0.849148 0.180452 0)
(0.972864 0.198299 -9.61972e-19)
(0.904323 -0.0380103 -9.81842e-19)
(0.521139 -0.0117909 -1.8831e-18)
(0.32979 -0.00161858 0)
(0.177591 0.00563164 0)
(0.0728847 0.00910396 2.31619e-18)
(0.0174768 0.0123676 0)
(-0.0194763 0.0178251 0)
(-0.0478463 0.023446 0)
(-0.0748138 0.0283675 -1.92349e-18)
(-0.0995197 0.0317424 0)
(-0.121915 0.0332049 0)
(-0.140465 0.0323604 -1.75936e-18)
(-0.152742 0.0291779 -1.74745e-18)
(-0.157365 0.022967 0)
(-0.151987 0.0138889 1.81253e-18)
(-0.136085 0.00321062 -1.88384e-18)
(-0.110244 -0.00776462 1.97301e-18)
(-0.0766622 -0.0176767 2.06799e-18)
(-0.0382027 -0.0257593 -1.07925e-18)
(0.00239998 -0.0318229 2.23442e-18)
(0.0431359 -0.0361799 0)
(0.0827737 -0.039138 -2.50291e-21)
(0.120546 -0.0409969 -1.18532e-18)
(0.156188 -0.0419544 1.19532e-18)
(0.189686 -0.0419938 1.20569e-18)
(0.220848 -0.040988 1.22158e-18)
(0.249288 -0.0389437 1.23712e-18)
(0.274641 -0.0360685 -1.2598e-18)
(0.29673 -0.0326381 0)
(0.315513 -0.028902 0)
(0.33108 -0.0250866 -6.76458e-19)
(0.343647 -0.0213479 -5.05116e-22)
(0.353587 -0.0177946 -7.03203e-19)
(0.361348 -0.0144574 0)
(0.367415 -0.0113226 0)
(0.372226 -0.00836301 0)
(0.376143 -0.0055443 0)
(0.379438 -0.00283415 0)
(0.382345 -0.000204068 0)
(0.385008 0.00236684 0)
(0.387592 0.00489191 0)
(0.390123 0.00738495 0)
(0.392796 0.00987185 7.39103e-19)
(0.395495 0.0123531 3.56525e-22)
(0.398566 0.0148679 0)
(0.401605 0.0173671 0)
(0.40531 0.0199484 -7.49672e-19)
(0.408755 0.0224795 0)
(0.413323 0.0251743 1.51287e-18)
(0.417243 0.0277977 -1.52003e-18)
(0.422907 0.0306403 0)
(0.427406 0.033459 0)
(0.434361 0.0364552 1.54417e-18)
(0.439556 0.0395175 1.11742e-21)
(0.448004 0.0427701 -1.56247e-18)
(0.454018 0.0461177 -3.14352e-18)
(0.46425 0.0496346 1.58274e-18)
(0.471197 0.0533887 -3.17938e-18)
(0.48364 0.05722 0)
(0.491662 0.0615033 -3.64017e-21)
(0.506868 0.0656848 0)
(0.516179 0.0707197 3.23454e-18)
(0.534842 0.0752723 0)
(0.545787 0.0813686 0)
(0.568812 0.0862895 6.43456e-18)
(0.581985 0.0939481 0)
(0.610486 0.0991531 3.14168e-18)
(0.626841 0.109115 -3.0804e-18)
(0.66251 0.11449 0)
(0.683464 0.127783 0)
(0.729347 0.133138 -2.61051e-18)
(0.756852 0.151658 0)
(0.821766 0.155457 0)
(0.857059 0.176037 -1.12972e-18)
(0.980889 0.192147 9.53242e-19)
(0.919783 -0.015748 9.86995e-19)
(0.576002 -0.00229939 0)
(0.388277 0.00492437 0)
(0.231469 0.00930192 0)
(0.113757 0.0108663 -2.27155e-18)
(0.0462702 0.0130093 0)
(0.0026532 0.0181306 0)
(-0.0289394 0.0238521 -1.946e-18)
(-0.0573809 0.028944 0)
(-0.0829465 0.0323582 0)
(-0.105964 0.0336721 0)
(-0.12519 0.0324216 3.39424e-18)
(-0.138618 0.028542 3.44216e-21)
(-0.144333 0.0212657 0)
(-0.140396 0.0108877 0)
(-0.125893 -0.00123776 1.8252e-18)
(-0.101302 -0.0135467 0)
(-0.0687508 -0.0244644 0)
(-0.0311244 -0.033137 1.04872e-18)
(0.00877359 -0.0394077 -2.17438e-18)
(0.0488997 -0.043707 0)
(0.088039 -0.0464353 -2.06773e-21)
(0.125394 -0.0479703 1.1461e-18)
(0.160642 -0.0485676 -1.89582e-21)
(0.193795 -0.0482257 -1.81864e-21)
(0.224691 -0.0467801 0)
(0.252954 -0.0442182 -1.17994e-18)
(0.278199 -0.0407621 1.79783e-18)
(0.300232 -0.0367213 -6.11404e-19)
(0.319015 -0.0323694 6.26524e-19)
(0.334631 -0.0279582 0)
(0.347285 -0.0236705 -6.59364e-19)
(0.357312 -0.0196363 6.73386e-19)
(0.365132 -0.015901 3.42131e-19)
(0.371214 -0.0124533 0)
(0.375994 -0.0092577 0)
(0.379847 -0.00626633 0)
(0.383058 -0.00343437 0)
(0.385871 -0.000722322 0)
(0.38844 0.00189986 0)
(0.39093 0.0044541 0)
(0.393384 0.00695733 -3.56914e-19)
(0.395972 0.00944058 -7.15918e-19)
(0.39862 0.0119042 7.17817e-19)
(0.401607 0.0143943 0)
(0.404638 0.0168602 -7.21799e-19)
(0.408246 0.0194044 0)
(0.411755 0.0218939 7.27227e-19)
(0.416178 0.0245385 0)
(0.420254 0.0271146 0)
(0.425696 0.0298934 0)
(0.430446 0.0326651 0)
(0.437118 0.0355857 -1.48768e-18)
(0.442636 0.0386214 1.4941e-18)
(0.450758 0.0417713 1.17201e-21)
(0.457183 0.0450566 3.01573e-18)
(0.467043 0.0484878 -1.51479e-18)
(0.474478 0.0521578 3.04352e-18)
(0.48651 0.0558981 0)
(0.495098 0.0600911 -3.44782e-21)
(0.509865 0.0641562 3.06634e-18)
(0.519792 0.0691045 -3.06948e-18)
(0.538033 0.0735124 0)
(0.549575 0.07952 0)
(0.572275 0.0842662 -5.77841e-21)
(0.585923 0.0918231 0)
(0.614333 0.096821 0)
(0.631036 0.106678 0)
(0.666763 0.11176 0)
(0.688106 0.124962 0)
(0.734052 0.129878 0)
(0.762047 0.148196 2.00903e-18)
(0.82751 0.151361 -1.65439e-18)
(0.862564 0.170996 9.38886e-19)
(0.98476 0.185503 0)
(0.932271 0.00404374 0)
(0.622668 0.00782327 0)
(0.442727 0.0122724 -2.19548e-18)
(0.284742 0.0140701 0)
(0.157661 0.0135828 2.23497e-18)
(0.0784471 0.0143129 -2.12715e-18)
(0.0273897 0.018747 0)
(-0.0080736 0.024355 -1.46903e-21)
(-0.038332 0.0295177 0)
(-0.0648884 0.0329316 0)
(-0.0885328 0.0340881 0)
(-0.108371 0.0324545 -1.65073e-18)
(-0.122756 0.0278898 3.74994e-21)
(-0.129588 0.0195889 0)
(-0.127101 0.0079381 0)
(-0.114109 -0.00561715 -1.79926e-18)
(-0.0909365 -0.0192565 -9.42845e-19)
(-0.0596095 -0.0311862 -9.90726e-19)
(-0.0230138 -0.0404527 -1.03663e-18)
(0.0159809 -0.0469266 2.14108e-18)
(0.0552919 -0.0511659 0)
(0.0937488 -0.0536667 -1.11282e-18)
(0.130553 -0.0548753 1.11785e-18)
(0.165296 -0.0551088 -1.12136e-18)
(0.197991 -0.0543899 -1.12196e-18)
(0.228519 -0.0525175 0)
(0.256499 -0.0494466 -1.13418e-18)
(0.281522 -0.0454153 -1.14995e-18)
(0.303377 -0.0407694 5.86001e-19)
(0.322029 -0.0358082 -1.19874e-18)
(0.337565 -0.0308081 6.14735e-19)
(0.350186 -0.0259764 0)
(0.360206 -0.0214632 0)
(0.368018 -0.0173291 -3.29255e-19)
(0.374074 -0.013567 3.33925e-19)
(0.378804 -0.0101348 0)
(0.382586 -0.00697221 0)
(0.385717 -0.00402182 0)
(0.388443 -0.00123253 0)
(0.39093 0.00143528 0)
(0.393339 0.00401222 -3.45153e-19)
(0.395726 0.00651942 3.46141e-19)
(0.398244 0.00899262 0)
(0.40085 0.0114333 0)
(0.403772 0.0138924 -6.97178e-19)
(0.406794 0.0163199 6.99405e-19)
(0.41033 0.0188201 0)
(0.413884 0.0212631 -3.73138e-22)
(0.418205 0.0238516 0)
(0.422393 0.0263745 0)
(0.427682 0.029086 0)
(0.432614 0.0317966 0)
(0.439085 0.0346443 -1.43329e-18)
(0.44485 0.0376002 0)
(0.452732 0.040673 2.8889e-18)
(0.459474 0.0438882 -2.89763e-18)
(0.469051 0.0472183 1.45464e-18)
(0.476883 0.0508131 1.45635e-18)
(0.488581 0.0544408 1.45968e-18)
(0.497651 0.0585496 -2.92312e-18)
(0.512034 0.0624961 -2.92311e-18)
(0.522516 0.0673415 0)
(0.54035 0.0716148 0)
(0.552489 0.0775032 0)
(0.574806 0.08209 -2.84022e-18)
(0.589024 0.08951 -2.78505e-18)
(0.61718 0.0943104 2.70891e-18)
(0.634293 0.104007 0)
(0.670046 0.108835 0)
(0.691722 0.121858 0)
(0.737772 0.12641 -2.08587e-18)
(0.766166 0.144366 -1.78611e-18)
(0.832047 0.147044 1.33406e-20)
(0.866904 0.165629 0)
(0.986781 0.178682 -8.92235e-19)
(0.942675 0.0220188 0)
(0.662325 0.0180558 0)
(0.493035 0.0201041 2.16484e-18)
(0.336481 0.0196916 0)
(0.203791 0.0172319 2.20669e-18)
(0.113758 0.0163353 2.09995e-18)
(0.0548216 0.019762 0)
(0.0148815 0.0250163 1.86617e-18)
(-0.0175629 0.0301191 0)
(-0.0452664 0.0334725 0)
(-0.0695524 0.0344481 0)
(-0.0899181 0.0324407 0)
(-0.10506 0.0272067 1.61158e-18)
(-0.112925 0.0179262 0)
(-0.11183 0.00503335 1.68955e-18)
(-0.100408 -0.00993007 0)
(-0.078809 -0.0248917 9.39174e-19)
(-0.0489274 -0.0378293 9.88529e-19)
(-0.0136008 -0.0476877 -1.02943e-18)
(0.0242474 -0.0543534 -2.12855e-18)
(0.0625076 -0.058527 1.08721e-18)
(0.100061 -0.0608065 -1.10036e-18)
(0.136159 -0.061695 -1.10452e-18)
(0.17028 -0.061568 -1.10109e-18)
(0.202403 -0.0604707 -1.09756e-18)
(0.232464 -0.0581831 0)
(0.260073 -0.0546142 1.10249e-18)
(0.284789 -0.0500138 5.56608e-19)
(0.306376 -0.0447682 -5.64771e-19)
(0.324807 -0.0392044 5.7712e-19)
(0.340173 -0.033624 -5.91417e-19)
(0.352678 -0.0282559 6.0646e-19)
(0.362621 -0.0232687 -3.10725e-19)
(0.370375 -0.0187378 0)
(0.376374 -0.0146615 -3.22738e-19)
(0.381038 -0.0109926 0)
(0.384744 -0.00766002 8.23626e-20)
(0.387795 -0.00459352 0)
(0.39044 -0.00173031 -8.32541e-20)
(0.392851 0.000979146 0)
(0.395187 0.00357414 3.35254e-19)
(0.397516 0.0060808 0)
(0.399975 0.00853925 0)
(0.402544 0.0109531 0)
(0.405414 0.0133764 1.35352e-18)
(0.408427 0.0157619 0)
(0.411908 0.018213 6.80137e-19)
(0.415493 0.0206059 -1.36462e-18)
(0.419743 0.0231339 1.3685e-18)
(0.424012 0.0255997 0)
(0.429197 0.0282408 0)
(0.434263 0.0308844 0)
(0.440592 0.0336568 1.38555e-18)
(0.446546 0.0365365 1.38791e-18)
(0.454254 0.0395245 -1.39313e-18)
(0.461246 0.0426581 2.79045e-18)
(0.470609 0.045894 1.3977e-18)
(0.478763 0.0493989 -1.39981e-18)
(0.490199 0.0529215 -1.40074e-18)
(0.499674 0.0569293 0)
(0.513739 0.0607591 0)
(0.52471 0.0654876 0)
(0.542182 0.0696328 0)
(0.554879 0.0753828 0)
(0.576821 0.0798208 0)
(0.591622 0.0870793 5.46659e-21)
(0.619466 0.0916976 -2.53983e-18)
(0.637091 0.101206 0)
(0.672727 0.105791 0)
(0.694754 0.118585 0)
(0.740939 0.122819 1.90105e-18)
(0.769671 0.140316 0)
(0.835851 0.1426 1.13391e-20)
(0.870536 0.160123 0)
(0.987968 0.171877 8.84496e-19)
(0.951468 0.03833 0)
(0.696386 0.0281808 -1.69164e-18)
(0.538902 0.0281444 0)
(0.386526 0.026028 0)
(0.251019 0.0217496 8.79225e-22)
(0.151921 0.0191014 2.08538e-18)
(0.0849447 0.0212637 0)
(0.0400123 0.0259047 0)
(0.00500292 0.0307912 -1.7448e-18)
(-0.0240281 0.0340025 0)
(-0.0489867 0.0347575 0)
(-0.0697871 0.0323685 -1.58119e-18)
(-0.0854786 0.0264791 0)
(-0.0942047 0.0162568 0)
(-0.0943573 0.00215913 -1.67743e-18)
(-0.0844748 -0.014183 0)
(-0.0645604 -0.0304479 0)
(-0.036353 -0.0443821 9.87641e-19)
(-0.0025906 -0.0548133 1.03494e-18)
(0.0338166 -0.0616574 2.13372e-18)
(0.0707473 -0.0657589 -1.0895e-18)
(0.107128 -0.0678237 1.10044e-18)
(0.142319 -0.0684054 -1.09799e-18)
(0.175689 -0.0679254 1.18364e-21)
(0.207123 -0.0664588 1.11409e-21)
(0.236608 -0.0637621 0)
(0.263766 -0.0597107 0)
(0.288099 -0.0545472 5.4188e-19)
(0.30935 -0.0487077 5.4886e-19)
(0.327488 -0.0425483 0)
(0.342616 -0.0363964 5.71127e-19)
(0.35494 -0.0305011 -5.85929e-19)
(0.364751 -0.0250471 3.00268e-19)
(0.372407 -0.0201236 3.06778e-19)
(0.37832 -0.0157352 0)
(0.382902 -0.011831 1.58319e-19)
(0.386527 -0.0083299 -1.59938e-19)
(0.389497 -0.00514948 0)
(0.392064 -0.00221516 1.619e-19)
(0.394403 0.000532723 -1.62482e-19)
(0.396673 0.00314206 0)
(0.398948 0.00564458 -3.26762e-19)
(0.401356 0.00808454 0)
(0.403891 0.0104684 0)
(0.406718 0.0128524 -1.31602e-18)
(0.409722 0.0151929 0)
(0.41316 0.0175912 -6.61165e-19)
(0.416768 0.0199312 3.33257e-22)
(0.420966 0.0223954 -1.99349e-18)
(0.425296 0.0248013 0)
(0.43041 0.02737 0)
(0.435576 0.0299429 0)
(0.441808 0.032639 1.34062e-18)
(0.447908 0.0354377 -1.34365e-18)
(0.455491 0.0383405 -1.34535e-18)
(0.46268 0.0413869 -2.69399e-18)
(0.471885 0.0445299 -1.34877e-18)
(0.480302 0.0479367 0)
(0.491536 0.0513567 0)
(0.50135 0.0552535 -1.34068e-18)
(0.515159 0.0589709 0)
(0.526554 0.0635702 -2.6489e-18)
(0.543717 0.0675919 0)
(0.556921 0.0731896 0)
(0.578519 0.0774866 -2.53534e-18)
(0.593882 0.0845652 5.0525e-21)
(0.621408 0.0890137 0)
(0.639575 0.0983102 -2.26644e-18)
(0.675037 0.10267 0)
(0.697427 0.115193 0)
(0.743744 0.119138 1.7287e-18)
(0.772773 0.13612 0)
(0.839151 0.138069 1.14047e-18)
(0.873683 0.154562 0)
(0.988766 0.165169 0)
(0.95895 0.0531118 0)
(0.725973 0.0380396 3.37423e-18)
(0.580441 0.0362554 0)
(0.434516 0.0328461 0)
(0.298186 0.0269979 -2.15353e-18)
(0.192585 0.0226184 -2.07183e-18)
(0.117669 0.0233177 0)
(0.0673617 0.027089 -1.82682e-18)
(0.0294193 0.0315819 3.4476e-18)
(-0.00114035 0.0345493 0)
(-0.0268256 0.0350267 0)
(-0.047979 0.0322316 3.11578e-18)
(-0.0640171 0.0256936 0)
(-0.0733684 0.0145604 0)
(-0.0745386 -0.000703967 0)
(-0.0660595 -0.0183857 0)
(-0.0478484 -0.0359211 0)
(-0.0215096 -0.0508252 -1.99176e-18)
(0.0103641 -0.0618001 0)
(0.0449765 -0.0688056 -1.07802e-18)
(0.0802404 -0.0728254 -1.09688e-18)
(0.115123 -0.0746882 -1.10631e-18)
(0.149141 -0.0749808 1.10251e-18)
(0.181599 -0.0741557 2.17922e-18)
(0.212223 -0.0723361 2.15588e-18)
(0.241016 -0.0692431 -1.06715e-18)
(0.267634 -0.064723 0)
(0.291518 -0.0590053 -5.31651e-19)
(0.31237 -0.0525782 0)
(0.330158 -0.0458313 0)
(0.344989 -0.0391173 -1.10953e-18)
(0.35708 -0.0327048 0)
(0.366713 -0.0267927 0)
(0.374233 -0.0214829 -1.41741e-22)
(0.380036 -0.0167862 0)
(0.384522 -0.0126492 -1.53898e-19)
(0.388057 -0.00898171 7.77969e-20)
(0.390944 -0.00568971 0)
(0.393433 -0.00268693 -7.88562e-20)
(0.395703 9.65331e-05 1.58365e-19)
(0.397911 0.00271708 0)
(0.400135 0.0052124 1.29624e-22)
(0.402496 0.00763081 0)
(0.405001 0.00998202 0)
(0.407791 0.0123238 1.28202e-18)
(0.410784 0.0146172 0)
(0.41419 0.0169598 0)
(0.417813 0.0192448 6.45119e-19)
(0.421976 0.0216427 3.29902e-22)
(0.42635 0.0239865 1.29475e-18)
(0.431416 0.0264812 0)
(0.436659 0.0289813 -1.29877e-18)
(0.442825 0.0315995 -1.30178e-18)
(0.449038 0.0343148 1.30213e-18)
(0.456535 0.0371312 2.60762e-18)
(0.463881 0.0400865 1.30427e-18)
(0.472972 0.0431361 0)
(0.481603 0.0464399 0)
(0.492684 0.0497579 0)
(0.502782 0.0535372 1.29199e-18)
(0.516389 0.0571441 -1.28291e-18)
(0.528149 0.0616058 3.15649e-21)
(0.545055 0.0655071 0)
(0.558713 0.0709417 0)
(0.580008 0.0751037 2.41667e-18)
(0.595898 0.0819872 2.34149e-18)
(0.623122 0.0862762 0)
(0.641828 0.0953395 2.1343e-18)
(0.677092 0.0994921 0)
(0.699873 0.111715 -1.8004e-18)
(0.74628 0.115386 -1.60212e-18)
(0.775578 0.131815 0)
(0.842077 0.133476 -1.02358e-18)
(0.876465 0.148987 0)
(0.989373 0.158582 -8.39712e-19)
(0.965361 0.0665279 0)
(0.751783 0.0474574 -1.68587e-18)
(0.617892 0.0443189 0)
(0.480048 0.0399097 2.17298e-18)
(0.344721 0.0328721 0)
(0.235046 0.0268579 0)
(0.152858 0.0259589 0)
(0.0969285 0.0286367 3.62985e-18)
(0.0557195 0.0325414 -1.70847e-18)
(0.023416 0.0351448 -1.6252e-18)
(-0.00307756 0.0352711 0)
(-0.0245301 0.0320304 -1.53868e-18)
(-0.0407341 0.0248399 -1.53559e-18)
(-0.050453 0.012819 0)
(-0.0523549 -0.00357495 8.20933e-19)
(-0.0450421 -0.0225505 0)
(-0.028423 -0.041309 0)
(-0.00404144 -0.0571333 1.007e-18)
(0.0256426 -0.0686146 0)
(0.0580527 -0.0757525 1.09353e-18)
(0.091244 -0.0796748 1.11386e-18)
(0.124244 -0.0813506 1.12149e-18)
(0.15674 -0.0813846 1.11297e-18)
(0.188087 -0.0802377 -2.18909e-18)
(0.217757 -0.0780767 -1.07763e-18)
(0.245742 -0.0746109 1.06349e-18)
(0.271716 -0.0696361 0)
(0.295086 -0.0633784 5.23601e-19)
(0.315483 -0.0563707 0)
(0.332869 -0.0490444 5.31568e-19)
(0.347355 -0.0417791 5.41176e-19)
(0.359165 -0.0348603 -5.52666e-19)
(0.36858 -0.0285001 0)
(0.375931 -0.0228116 -1.3024e-22)
(0.381601 -0.0178119 -2.94934e-19)
(0.385975 -0.0134458 0)
(0.389411 -0.00961481 -7.57893e-20)
(0.392211 -0.0062139 0)
(0.394622 -0.00314536 7.69153e-20)
(0.396824 -0.000329033 0)
(0.398971 0.00229986 3.10079e-19)
(0.401147 0.00478527 1.22502e-22)
(0.403465 0.00717947 0)
(0.40594 0.00949581 6.24353e-19)
(0.408699 0.0117931 -6.25782e-19)
(0.411681 0.0140373 -6.26501e-19)
(0.415061 0.0163221 6.27637e-19)
(0.418694 0.0185499 0)
(0.422832 0.0208799 1.26012e-18)
(0.42724 0.0231597 -1.26222e-18)
(0.432275 0.0255791 0)
(0.437577 0.0280046 1.26486e-18)
(0.443699 0.0305436 -1.26535e-18)
(0.450003 0.0331734 -2.53224e-18)
(0.45744 0.0359022 -1.26657e-18)
(0.464914 0.0387639 -1.26468e-18)
(0.473923 0.0417189 0)
(0.482731 0.0449165 -1.25912e-18)
(0.493698 0.0481319 0)
(0.504034 0.0517897 0)
(0.517484 0.0552863 1.23796e-18)
(0.529558 0.0596048 2.44688e-18)
(0.546254 0.0633871 0)
(0.560316 0.0686504 0)
(0.58135 0.0726815 2.30465e-18)
(0.597725 0.0793574 0)
(0.624672 0.0834951 2.13519e-18)
(0.643899 0.0923068 0)
(0.678961 0.0962679 0)
(0.70217 0.108168 1.68872e-18)
(0.748593 0.111575 1.48066e-18)
(0.778152 0.127427 0)
(0.844709 0.128836 1.88143e-18)
(0.878959 0.143417 -4.90541e-19)
(0.98988 0.152116 8.34813e-19)
(0.970881 0.0787365 0)
(0.774445 0.0564074 0)
(0.651352 0.0521676 -2.05724e-18)
(0.522991 0.0471195 -5.90574e-21)
(0.390428 0.0392537 0)
(0.278382 0.0317419 0)
(0.190347 0.02921 0)
(0.128664 0.0306059 9.20866e-22)
(0.0839143 0.0337211 -1.69826e-18)
(0.0496485 0.035825 3.22337e-18)
(0.0222374 0.0355119 0)
(0.000500551 0.0317724 -1.51818e-18)
(-0.0157303 0.0239141 1.52227e-18)
(-0.0255797 0.0110206 0)
(-0.0279209 -0.00646798 -3.51444e-21)
(-0.0214836 -0.0266879 0)
(-0.00622395 -0.0466088 0)
(0.0162827 -0.0632845 -1.01464e-18)
(0.0435901 -0.0752168 -1.07567e-18)
(0.073388 -0.0824413 -2.23243e-18)
(0.104042 -0.0862461 0)
(0.134716 -0.0877477 0)
(0.165258 -0.0875674 -2.26415e-18)
(0.195226 -0.0861392 1.10664e-18)
(0.223779 -0.0836564 0)
(0.250835 -0.0798453 0)
(0.276051 -0.0744363 0)
(0.298834 -0.0676553 -5.18831e-19)
(0.318723 -0.0600767 5.18259e-19)
(0.335658 -0.0521799 -2.7008e-22)
(0.349753 -0.0443739 -5.29563e-19)
(0.361241 -0.0369608 5.40152e-19)
(0.3704 -0.0301635 0)
(0.377553 -0.0241055 -5.64154e-19)
(0.383066 -0.0188094 2.8775e-19)
(0.387312 -0.0142189 0)
(0.390642 -0.0102281 7.4037e-20)
(0.393349 -0.00672145 0)
(0.39568 -0.00359005 -7.52185e-20)
(0.397813 -0.000743594 0)
(0.399901 0.00189093 -3.03389e-19)
(0.40203 0.00436386 6.08307e-19)
(0.404307 0.00673142 0)
(0.406754 0.00901082 -6.10881e-19)
(0.409484 0.0112615 6.11686e-19)
(0.412455 0.0134548 2.58846e-22)
(0.415814 0.01568 -6.13741e-19)
(0.419453 0.017849 -6.14442e-19)
(0.423574 0.0201094 -2.92983e-22)
(0.428007 0.0223236 0)
(0.433024 0.0246664 0)
(0.438371 0.027016 0)
(0.444466 0.0294744 2.46759e-18)
(0.450844 0.0320171 1.23388e-18)
(0.458241 0.0346572 -1.23204e-18)
(0.465819 0.0374232 2.46122e-18)
(0.474772 0.0402825 1.22688e-18)
(0.483728 0.0433715 1.22335e-18)
(0.494611 0.0464834 0)
(0.505148 0.0500165 0)
(0.518478 0.0534024 0)
(0.530823 0.0575736 0)
(0.547351 0.0612371 0)
(0.561768 0.0663232 0)
(0.582583 0.0702255 -4.42372e-18)
(0.5994 0.0766841 2.12676e-18)
(0.626101 0.0806765 -2.03977e-18)
(0.64582 0.089221 1.908e-18)
(0.680687 0.0930028 -1.77103e-18)
(0.704333 0.104561 0)
(0.750738 0.107717 -1.39183e-18)
(0.780536 0.122972 1.11101e-18)
(0.847099 0.124158 -1.73897e-18)
(0.881216 0.137861 4.634e-19)
(0.990329 0.145763 0)
(0.97565 0.0898739 0)
(0.794494 0.0648892 -1.67892e-18)
(0.681134 0.0597253 2.06207e-18)
(0.563039 0.0543291 -4.32621e-18)
(0.434944 0.0459591 -2.1349e-18)
(0.321877 0.0371883 0)
(0.229742 0.0330653 0)
(0.162504 0.0330369 -1.80697e-18)
(0.11399 0.0351726 -1.19326e-22)
(0.0775533 0.0366293 -1.60209e-18)
(0.0490927 0.0357755 0)
(0.0270426 0.0314719 1.50672e-18)
(0.0108691 0.0229206 0)
(0.0010732 0.00916262 0)
(-0.00146001 -0.00938798 -8.11329e-19)
(0.00437431 -0.0307994 -8.67472e-19)
(0.0185521 -0.0518168 0)
(0.0394336 -0.0692664 1.02672e-18)
(0.0644031 -0.0815636 1.096e-18)
(0.0912819 -0.0888071 1.30487e-21)
(0.118922 -0.0924675 -1.16189e-18)
(0.146782 -0.0938044 0)
(0.174865 -0.0934666 1.15756e-18)
(0.203093 -0.0918169 0)
(0.230339 -0.0890492 -5.45764e-19)
(0.256332 -0.0849221 0)
(0.280679 -0.0791087 5.24096e-19)
(0.30278 -0.0718218 0)
(0.322113 -0.0636877 -5.13198e-19)
(0.338551 -0.0552297 -1.0295e-18)
(0.352213 -0.0468944 5.20547e-19)
(0.363339 -0.0389997 2.64576e-19)
(0.372208 -0.0317775 -2.69977e-19)
(0.379133 -0.02536 1.0887e-22)
(0.384467 -0.0197755 0)
(0.388571 -0.0149664 -1.42939e-19)
(0.391783 -0.0108204 0)
(0.394392 -0.00721156 0)
(0.39664 -0.0040205 0)
(0.398704 -0.00114676 1.48022e-19)
(0.400733 0.00149068 0)
(0.402815 0.00394866 -1.09315e-22)
(0.405053 0.0062873 2.98617e-19)
(0.407472 0.00852778 -2.99154e-19)
(0.410176 0.0107301 -5.99494e-19)
(0.413135 0.0128707 1.2002e-18)
(0.416476 0.0150348 -6.00761e-19)
(0.42012 0.0171432 1.20335e-18)
(0.424228 0.019333 -6.02405e-19)
(0.428682 0.0214799 0)
(0.433687 0.0237453 0)
(0.439072 0.0260176 -1.20531e-18)
(0.445151 0.028394 -1.20559e-18)
(0.451589 0.0308485 1.20397e-18)
(0.458961 0.0333986 2.40474e-18)
(0.466627 0.0360676 -8.07623e-22)
(0.475542 0.0388297 -1.19584e-18)
(0.484621 0.0418084 0)
(0.495445 0.0448156 0)
(0.506154 0.0482218 0)
(0.519394 0.0514959 0)
(0.531971 0.0555167 0)
(0.548368 0.0590607 0)
(0.563098 0.0639652 0)
(0.583731 0.0677395 2.13021e-18)
(0.600947 0.073973 -2.04473e-18)
(0.627434 0.0778244 0)
(0.647614 0.0860885 -1.82396e-18)
(0.682298 0.0897006 4.98994e-21)
(0.706374 0.100898 0)
(0.752746 0.103818 0)
(0.782761 0.118463 -2.08295e-18)
(0.849285 0.119451 8.13219e-19)
(0.883273 0.132325 0)
(0.990741 0.139514 0)
(0.979777 0.100053 0)
(0.812347 0.0729177 3.3716e-18)
(0.707723 0.0669749 -2.05196e-18)
(0.599893 0.061397 6.61184e-21)
(0.477926 0.0528551 3.14914e-21)
(0.365189 0.043115 0)
(0.270373 0.0374811 0)
(0.198355 0.0359559 0)
(0.14592 0.0369422 1.68998e-18)
(0.107114 0.0375994 1.59483e-18)
(0.077457 0.0360928 0)
(0.0550242 0.0311499 -7.45995e-19)
(0.0389328 0.0218716 0)
(0.0293032 0.00725223 7.62373e-19)
(0.026747 -0.0123271 0)
(0.0321701 -0.0348735 8.66623e-19)
(0.0454808 -0.0569237 9.42881e-19)
(0.0650402 -0.0750676 0)