/*--------------------------------*- C++ -*----------------------------------*\
| =========                 |                                                 |
| \\      /  F ield         | OpenFOAM: The Open Source CFD Toolbox           |
|  \\    /   O peration     | Version:  2.4.0                                 |
|   \\  /    A nd           | Web:      www.OpenFOAM.org                      |
|    \\/     M anipulation  |                                                 |
\*---------------------------------------------------------------------------*/
FoamFile
{
    version     2.0;
    format      ascii;
    class       volScalarField;
    location    "4.18";
    object      epsilon;
}
// * * * * * * * * * * * * * * * * * * * * * * * * * * * * * * * * * * * * * //

dimensions      [0 2 -3 0 0 0 0];

internalField   nonuniform List<scalar> 
6000
(
0.995192
0.381706
0.0487489
0.00578133
0.000783168
0.00309511
0.00198733
0.00385427
0.00470952
0.00742963
0.0103752
0.0144069
0.0183519
0.0223813
0.0258143
0.0286898
0.0302173
0.0291536
0.0238889
0.015858
0.0154997
0.0304366
0.0556982
0.0855976
0.114416
0.139737
0.161865
0.181393
0.198757
0.214226
0.227986
0.240174
0.250905
0.260297
0.268656
0.275911
0.282238
0.287766
0.292618
0.296911
0.300729
0.304159
0.307185
0.309835
0.311848
0.313089
0.312934
0.319055
0.344141
0.372614
0.40148
0.436443
0.470465
0.519582
0.564543
0.649468
0.717498
0.898438
1.00302
1.50011
0.558281
0.355065
0.0228233
0.00518824
0.000375665
0.000951414
0.000919156
0.0015386
0.00215673
0.00329794
0.0046769
0.00627955
0.00787628
0.00937836
0.0107042
0.0118935
0.0126989
0.0126036
0.0109664
0.00832042
0.00979713
0.018393
0.0294291
0.0410043
0.0519593
0.0616838
0.0702176
0.0777198
0.0843228
0.0901215
0.0951902
0.0995924
0.103392
0.106665
0.109614
0.112191
0.114465
0.116511
0.118399
0.120197
0.121963
0.123749
0.125581
0.127479
0.129393
0.131263
0.132975
0.136619
0.144078
0.151907
0.159564
0.167858
0.175955
0.186078
0.196471
0.21214
0.229872
0.258667
0.307197
0.370043
0.416729
0.411491
0.0306005
0.00378397
0.000307365
0.000572782
0.000704399
0.00112104
0.00166772
0.00252857
0.00358635
0.00476625
0.00592953
0.00700403
0.00796507
0.00884343
0.00949279
0.00956501
0.00862664
0.00718837
0.00913134
0.0161923
0.024415
0.0327171
0.0405137
0.0474401
0.0535062
0.058812
0.0634466
0.0674782
0.0709632
0.0739541
0.0765064
0.0786918
0.0806357
0.0823227
0.0838111
0.0851613
0.086432
0.0876793
0.088954
0.0903008
0.0917507
0.0933241
0.095008
0.0967646
0.0985844
0.101427
0.105681
0.109845
0.11372
0.117424
0.120886
0.124586
0.128595
0.133699
0.140711
0.149602
0.169183
0.185114
0.367363
0.406312
0.052038
0.00234748
0.000300753
0.000468465
0.000638394
0.000998374
0.00151336
0.00228542
0.0032304
0.00426811
0.00527454
0.00619124
0.00700959
0.00776182
0.00834637
0.00848274
0.00783352
0.00695392
0.00912994
0.0155203
0.0226712
0.0297565
0.0363869
0.0422807
0.0474357
0.0519303
0.0558381
0.059218
0.0621203
0.0645932
0.0666893
0.0684746
0.0700392
0.0713861
0.0725678
0.0736391
0.0746535
0.0756626
0.0767141
0.0778505
0.0791045
0.0804987
0.0820344
0.083686
0.0854788
0.0879026
0.0909685
0.0937986
0.0962997
0.0983903
0.100206
0.101777
0.103585
0.105494
0.108946
0.112472
0.122875
0.128655
0.343014
0.37637
0.0745301
0.00181148
0.000321946
0.000437338
0.000620683
0.000959951
0.00145989
0.00219628
0.00309268
0.00406938
0.00500398
0.00584562
0.00659259
0.00728054
0.00783433
0.00800998
0.00752962
0.00698799
0.00928533
0.015281
0.0218976
0.0283963
0.0344732
0.0398808
0.0446084
0.0487228
0.0522902
0.0553651
0.057995
0.0602262
0.062109
0.0637049
0.0650854
0.0662639
0.0672898
0.0682149
0.0690902
0.0699652
0.0708862
0.0718952
0.0730263
0.0743043
0.0757387
0.0773119
0.0790567
0.0812043
0.0836531
0.0857974
0.0875868
0.0888616
0.0898345
0.0903734
0.0910923
0.0915689
0.0933589
0.0946993
0.101201
0.103557
0.32944
0.340303
0.0979134
0.00278735
0.000376973
0.000436632
0.000626231
0.000956586
0.00144927
0.00217051
0.0030458
0.00399603
0.00489716
0.00570178
0.00641137
0.00706489
0.00760548
0.00781264
0.00745009
0.00713574
0.00948325
0.0152039
0.0215193
0.0277088
0.0335037
0.0386694
0.0431867
0.0471149
0.0505158
0.0534417
0.0559387
0.0580519
0.05983
0.0613307
0.0626142
0.0637008
0.0646382
0.0654762
0.0662646
0.0670518
0.0678837
0.0688026
0.069844
0.0710346
0.0723897
0.0738981
0.0755826
0.0775209
0.0795797
0.0812927
0.0826289
0.0833936
0.0838322
0.0837463
0.0837986
0.0834633
0.084297
0.0844937
0.0889488
0.089745
0.32126
0.305834
0.11509
0.0080743
0.000511886
0.0004557
0.000647229
0.000972344
0.00146138
0.00217671
0.00304485
0.00398673
0.00487574
0.00566517
0.00635767
0.00699489
0.00753388
0.00777097
0.00750001
0.00734528
0.00969351
0.0151986
0.021331
0.0273564
0.0330146
0.0380704
0.0424961
0.0463445
0.0496746
0.0525373
0.054978
0.057041
0.0587737
0.0602305
0.0614644
0.0625006
0.0633853
0.0641675
0.0648962
0.0656194
0.0663831
0.0672302
0.0681975
0.0693139
0.070599
0.0720469
0.0736573
0.0754218
0.0771979
0.0785999
0.0796051
0.080003
0.0800536
0.0795312
0.0791162
0.0782465
0.0784508
0.0779455
0.0811706
0.0810887
0.315827
0.275744
0.126886
0.0180065
0.000843812
0.000495128
0.000681976
0.0010015
0.00148809
0.0022017
0.00307043
0.00401466
0.00490508
0.00569384
0.00638338
0.00701736
0.00756408
0.00783273
0.00763872
0.00759796
0.0099106
0.0152294
0.0212424
0.0271872
0.0327945
0.0378208
0.0422278
0.0460623
0.049381
0.052234
0.0546662
0.0567212
0.0584451
0.0598898
0.0611033
0.062114
0.0629676
0.0637124
0.0643968
0.065069
0.0657753
0.0665595
0.0674597
0.0685066
0.0697238
0.0711085
0.0726321
0.0742413
0.0757906
0.0769443
0.0776826
0.0777896
0.0775311
0.0766729
0.0758998
0.0746411
0.0743918
0.0734071
0.0758203
0.0751628
0.311894
0.250626
0.134086
0.0307799
0.00166116
0.000564345
0.000732175
0.00104259
0.00152622
0.00223955
0.00311313
0.00406647
0.00496764
0.00576632
0.00646391
0.00710539
0.00766844
0.0079725
0.00784729
0.00788827
0.0101374
0.015282
0.0212089
0.0271225
0.0327331
0.0377818
0.0422186
0.0460835
0.049431
0.0523104
0.0547664
0.0568419
0.0585819
0.0600359
0.0612482
0.06225
0.0630864
0.063805
0.0644544
0.0650828
0.0657371
0.066462
0.067297
0.0682747
0.0694219
0.0707354
0.0721617
0.0736241
0.0749763
0.0759158
0.0764232
0.0762826
0.0757617
0.0746272
0.0735623
0.0720006
0.0714032
0.0700666
0.0718976
0.0708291
0.308898
0.230177
0.137434
0.0445684
0.00374745
0.000687983
0.000802679
0.00109667
0.00157513
0.00228779
0.00316829
0.00413503
0.00505367
0.00587056
0.00658546
0.00724411
0.00783206
0.00817707
0.00811682
0.00821644
0.0103797
0.0153507
0.0212065
0.0271182
0.0327666
0.0378731
0.0423732
0.0462999
0.0497048
0.0526367
0.0551398
0.0572563
0.05903
0.0605085
0.0617334
0.0627376
0.063566
0.0642658
0.0648856
0.065474
0.0660784
0.0667446
0.0675134
0.0684191
0.0694918
0.0707231
0.0720428
0.0733607
0.0745316
0.0752757
0.0755726
0.0752102
0.0744562
0.0730837
0.071771
0.069962
0.0690855
0.0674777
0.0688649
0.067486
0.30655
0.213775
0.137735
0.0574918
0.00844137
0.000923854
0.000902651
0.00116685
0.00163595
0.00234597
0.0032338
0.00421651
0.00515754
0.00599936
0.00673968
0.00742471
0.00804643
0.00843939
0.00844338
0.00858515
0.0106442
0.0154348
0.0212223
0.0271475
0.0328558
0.0380441
0.0426317
0.0466431
0.0501269
0.0531306
0.0556981
0.057871
0.0596917
0.0612061
0.0624535
0.0634683
0.0642951
0.0649809
0.0655743
0.0661242
0.0666788
0.0672848
0.0679847
0.0688141
0.0698061
0.0709421
0.072147
0.0733194
0.074316
0.0748742
0.0749723
0.0744039
0.0734363
0.0718517
0.0703223
0.0683053
0.0671979
0.0653746
0.066408
0.0647866
0.304674
0.200737
0.135798
0.0685589
0.0149873
0.00139467
0.00104848
0.00125864
0.00171131
0.00241511
0.00330925
0.00430908
0.00527599
0.00614823
0.00692129
0.00764169
0.0083064
0.00875561
0.00882559
0.00899806
0.0109377
0.0155358
0.0212492
0.0271939
0.0329751
0.0382615
0.0429541
0.0470674
0.0506462
0.0537367
0.056382
0.0586231
0.0605011
0.06206
0.0633374
0.0643689
0.0651986
0.0658735
0.066442
0.0669536
0.0674572
0.0680004
0.0686273
0.069375
0.0702785
0.0713068
0.0723886
0.0734119
0.0742365
0.0746127
0.0745179
0.0737533
0.0725853
0.0708077
0.0690848
0.0668892
0.0655868
0.0635892
0.0643312
0.0625175
0.303152
0.190431
0.132361
0.0772524
0.0228017
0.00238918
0.0012701
0.00138092
0.0018055
0.00249752
0.00339547
0.00441232
0.00540735
0.00631442
0.00712678
0.00789146
0.00860869
0.00912359
0.00926338
0.00945909
0.0112666
0.0156569
0.021284
0.0272473
0.0331077
0.0385027
0.0433125
0.0475405
0.0512268
0.0544158
0.0571495
0.059468
0.0614112
0.0630215
0.0643347
0.0653873
0.0662232
0.066889
0.0674333
0.0679058
0.0683563
0.0688334
0.0693825
0.0700424
0.0708479
0.0717581
0.0727082
0.0735774
0.0742286
0.0744233
0.074138
0.0731831
0.0718242
0.0698677
0.0679698
0.065619
0.0641496
0.06201
0.0625064
0.0605403
0.301904
0.182314
0.128042
0.0834423
0.031004
0.00464161
0.00162467
0.00154782
0.00192499
0.00259691
0.00349448
0.00452695
0.0055511
0.00649639
0.00735383
0.00817156
0.008951
0.00954203
0.00975728
0.00997203
0.0116372
0.0158024
0.0213263
0.0273014
0.033242
0.0387514
0.0436869
0.0480392
0.0518426
0.0551391
0.0579696
0.0603729
0.0623877
0.0640547
0.0654082
0.0664854
0.0673296
0.0679874
0.0685073
0.0689394
0.0693341
0.0697412
0.0702075
0.0707732
0.0714701
0.0722533
0.0730629
0.073772
0.0742467
0.0742578
0.0737822
0.0726402
0.0710973
0.0689733
0.0669154
0.064429
0.0628154
0.0605605
0.0608467
0.0587617
0.300871
0.175939
0.123326
0.0872555
0.0391031
0.00844288
0.00221913
0.00178219
0.00207924
0.00271865
0.0036095
0.00465474
0.00570774
0.00669354
0.00760095
0.00847984
0.00933158
0.01001
0.010308
0.0105404
0.0120553
0.0159775
0.0213775
0.0273531
0.0333705
0.0389963
0.0440626
0.0485459
0.0524736
0.0558848
0.0588185
0.0613126
0.0634041
0.065132
0.0665294
0.0676337
0.0684879
0.0691381
0.0696329
0.0700228
0.0703588
0.0706918
0.0710699
0.0715346
0.0721128
0.0727607
0.0734212
0.0739635
0.0742571
0.0740813
0.0734139
0.0720865
0.0703647
0.0680826
0.0658775
0.0632724
0.0615339
0.0591867
0.0592915
0.057117
0.300012
0.170943
0.118566
0.0889755
0.0466128
0.0136934
0.00325793
0.00212193
0.00228221
0.00287033
0.00374515
0.00479858
0.00587874
0.00690615
0.00786736
0.0088144
0.00974893
0.0105267
0.0109163
0.0111675
0.0125264
0.016188
0.0214408
0.0274016
0.0334884
0.0392291
0.0444287
0.0490473
0.0531047
0.0566358
0.0596781
0.0622675
0.0644398
0.066232
0.0676759
0.0688092
0.0696744
0.0703171
0.0707858
0.0711315
0.0714058
0.0716604
0.0719449
0.072301
0.0727518
0.0732565
0.0737594
0.0741282
0.0742351
0.0738679
0.0730063
0.071494
0.0695974
0.0671653
0.0648243
0.0621153
0.0602689
0.0578498
0.0577973
0.0555599
0.299294
0.167037
0.114007
0.0889707
0.053118
0.019935
0.00515354
0.00263153
0.00255478
0.00306261
0.00390784
0.00496268
0.00606661
0.00713535
0.00815299
0.00917428
0.0102017
0.0110913
0.0115826
0.0118563
0.013056
0.0164403
0.0215206
0.0274478
0.0335934
0.0394445
0.044777
0.0495333
0.0537238
0.0573789
0.0605336
0.063222
0.0654781
0.0673373
0.0688299
0.0699937
0.0708704
0.0715053
0.0719468
0.0722461
0.0724554
0.0726273
0.072813
0.0730528
0.0733688
0.0737225
0.0740597
0.0742478
0.074162
0.0735984
0.0725396
0.0708422
0.068774
0.066199
0.0637322
0.0609332
0.0589941
0.0565215
0.0563328
0.0540572
0.298693
0.16399
0.109799
0.0876382
0.0583272
0.0266652
0.00816124
0.00342063
0.00292873
0.00331053
0.00410625
0.00515275
0.00627503
0.00738326
0.00845852
0.00955895
0.0106888
0.0117026
0.0123074
0.0126095
0.013649
0.0167412
0.0216225
0.0274946
0.0336848
0.039639
0.0451019
0.0499961
0.0543216
0.0581033
0.0613731
0.0641632
0.0665057
0.0684337
0.0699767
0.0711719
0.0720605
0.0726872
0.0731002
0.0733508
0.0734919
0.0735771
0.0736584
0.0737751
0.0739491
0.0741446
0.0743084
0.0743086
0.0740238
0.0732584
0.071999
0.070116
0.0678789
0.0651675
0.0625844
0.059708
0.05769
0.0551811
0.0548752
0.0525844
0.298187
0.161621
0.106026
0.0853634
0.0620898
0.0334021
0.0122626
0.00467558
0.00345331
0.00363558
0.00435221
0.00537649
0.00650909
0.0076531
0.00878549
0.00996848
0.0112092
0.0123596
0.0130907
0.0134296
0.0143105
0.017098
0.0217534
0.0275459
0.0337638
0.039811
0.0453992
0.0504299
0.0548907
0.0588005
0.0621872
0.0650809
0.0675113
0.0695098
0.0711042
0.0723315
0.0732321
0.0738499
0.074233
0.0744327
0.0745026
0.0744969
0.0744686
0.0744562
0.0744817
0.0745119
0.0744948
0.0743002
0.0738101
0.0728374
0.0713737
0.0693042
0.0669007
0.0640589
0.0613684
0.0584267
0.0563428
0.0538136
0.0534078
0.0511234
0.29776
0.159785
0.102719
0.0824923
0.0643889
0.0397046
0.0172123
0.0066675
0.00420575
0.00406887
0.0046619
0.00564411
0.0067756
0.00794939
0.00913648
0.0104036
0.0117622
0.013061
0.0139325
0.0143189
0.0150452
0.0175179
0.021921
0.0276075
0.033833
0.0399604
0.0456668
0.0508305
0.0554256
0.0594635
0.0629681
0.0659663
0.068486
0.0705557
0.0722024
0.0734622
0.0743747
0.074983
0.0753348
0.0754814
0.0754771
0.0753767
0.075234
0.0750868
0.0749577
0.074816
0.0746109
0.0742149
0.0735129
0.0723274
0.0706558
0.0683988
0.0658313
0.0628652
0.0600757
0.0570802
0.0549425
0.052408
0.0519186
0.0496611
0.2974
0.158371
0.0998773
0.0793152
0.0653193
0.0452066
0.0227397
0.00957372
0.00530708
0.00465591
0.00505757
0.00596917
0.00708355
0.00827828
0.00951533
0.0108661
0.0123479
0.0138057
0.0148324
0.0152793
0.0158578
0.0180087
0.022134
0.0276863
0.0338966
0.0400886
0.0459037
0.0511952
0.0559221
0.0600872
0.0637095
0.0668126
0.069422
0.0715634
0.0732629
0.0745554
0.0754795
0.0760774
0.0763966
0.0764881
0.0764068
0.0762083
0.0759467
0.0756596
0.0753702
0.0750505
0.0746508
0.0740467
0.0731267
0.0717228
0.0698398
0.0673946
0.0646655
0.0615807
0.0587006
0.0556621
0.0534824
0.0509569
0.0503993
0.0481879
0.297095
0.157287
0.0974747
0.0760613
0.0650586
0.0496384
0.028514
0.0133993
0.00694119
0.00546363
0.00557027
0.00636969
0.00744466
0.00864785
0.00992738
0.0113588
0.0129669
0.0145926
0.0157899
0.0163118
0.0167529
0.0185779
0.0224019
0.0277905
0.0339601
0.0401984
0.0461104
0.0515226
0.0563773
0.0606674
0.0644064
0.067614
0.0703132
0.0725263
0.0742786
0.0756037
0.0765391
0.0771259
0.077411
0.0774456
0.0772849
0.0769852
0.0766006
0.0761689
0.075714
0.0752104
0.07461
0.0737914
0.0726474
0.0710199
0.068922
0.066288
0.0633998
0.0602022
0.0572396
0.0541689
0.0519583
0.0494554
0.0488443
0.0466972
0.296836
0.156466
0.0954744
0.0728999
0.0638353
0.0528377
0.0341778
0.0180255
0.00926547
0.00658988
0.00624355
0.00686976
0.00787424
0.00906863
0.0103798
0.0118859
0.0136212
0.015421
0.0168042
0.0174183
0.017735
0.0192333
0.0227347
0.0279294
0.0340304
0.0402939
0.0462887
0.0518125
0.0567894
0.0612013
0.065055
0.0683661
0.0711545
0.0734389
0.0752437
0.0766012
0.0775474
0.0781223
0.0783721
0.078348
0.0781059
0.0777022
0.0771909
0.0766102
0.0759849
0.0752922
0.0744853
0.0734462
0.0720723
0.0702162
0.0679004
0.0650773
0.0620328
0.0587284
0.0556913
0.0525988
0.0503681
0.0479009
0.0472501
0.0451845
0.296615
0.15585
0.0938325
0.0699464
0.0618975
0.0547516
0.039383
0.0232231
0.0123796
0.00815841
0.00713883
0.00750173
0.00839223
0.00955414
0.0108822
0.0124535
0.0143132
0.0162908
0.0178749
0.0186003
0.0188084
0.0199824
0.0231433
0.0281138
0.0341156
0.0403806
0.0464415
0.0520659
0.0571579
0.0616871
0.0656525
0.0690652
0.0719415
0.0742965
0.0761534
0.0775429
0.0784993
0.0790612
0.0792748
0.079191
0.0788656
0.078355
0.0777137
0.0769802
0.0761802
0.0752934
0.0742744
0.0730092
0.0713998
0.0693105
0.0667742
0.0637621
0.0605644
0.0571593
0.054056
0.0509518
0.0487116
0.0462923
0.0456155
0.0436474
0.296427
0.155397
0.0925039
0.0672712
0.0594879
0.0554277
0.0438239
0.0286954
0.0162902
0.0102965
0.00833762
0.00830923
0.00902474
0.0101218
0.0114466
0.0130697
0.0150453
0.0172028
0.0190013
0.019859
0.0199773
0.020833
0.023639
0.0283554
0.0342252
0.0404653
0.046573
0.052285
0.0574834
0.0621239
0.0661972
0.0697088
0.0726712
0.0750956
0.0770038
0.0784243
0.0793901
0.0799388
0.0801155
0.0799707
0.0795603
0.0789406
0.0781662
0.0772763
0.0762976
0.0752121
0.0739761
0.0724794
0.0706294
0.0683027
0.0655436
0.0623431
0.0589959
0.0554966
0.0523354
0.0492296
0.04699
0.0446304
0.0439404
0.0420847
0.296266
0.155073
0.0914446
0.0649093
0.0568248
0.0549962
0.047265
0.034113
0.0208937
0.0131122
0.00993624
0.00934811
0.00980685
0.0107942
0.0120888
0.0137454
0.015824
0.0181591
0.0201829
0.0211952
0.0212454
0.0217924
0.0242335
0.0286669
0.03437
0.0405557
0.0466887
0.052473
0.0577672
0.0625119
0.0666881
0.070295
0.0733406
0.0758328
0.0777913
0.0792423
0.0802171
0.080752
0.0808911
0.0806844
0.0801875
0.0794565
0.0785464
0.0774969
0.0763359
0.0750474
0.0735896
0.0718564
0.069761
0.0671931
0.0642097
0.0608222
0.0573297
0.0537431
0.0505323
0.0474347
0.0452058
0.0429171
0.0422264
0.0404969
0.296128
0.154849
0.0906138
0.0628692
0.05409
0.0536462
0.0495596
0.039144
0.0259912
0.0166578
0.0120406
0.0106869
0.0107802
0.0116007
0.0128302
0.0144946
0.016658
0.0191633
0.0214198
0.0226092
0.022616
0.0228679
0.024938
0.0290552
0.034559
0.0406607
0.0467952
0.0526344
0.0580122
0.0628524
0.0671254
0.0708232
0.0739489
0.0765069
0.0785144
0.079995
0.0809782
0.0814987
0.0815996
0.08133
0.0807451
0.079901
0.0788527
0.0776409
0.0762941
0.0747988
0.0731148
0.0711405
0.0687954
0.0659832
0.0627745
0.0592018
0.0555689
0.0519024
0.0486509
0.0455714
0.0433627
0.0411555
0.0404761
0.0388855
0.296009
0.154705
0.0899748
0.061141
0.0514244
0.0515988
0.0506589
0.0434823
0.0313147
0.0209013
0.0147476
0.012407
0.0119966
0.0125747
0.0136963
0.0153378
0.0175589
0.020221
0.0227126
0.024101
0.0240921
0.0240667
0.0257567
0.0295309
0.0348027
0.0407894
0.0469002
0.0527751
0.0582224
0.063148
0.0675104
0.071294
0.0744961
0.0771173
0.079172
0.0806811
0.0816718
0.0821774
0.0822394
0.081906
0.0812319
0.0802729
0.0790843
0.0777074
0.0761719
0.0744663
0.072552
0.0703323
0.0677336
0.0646746
0.0612404
0.0574855
0.0537179
0.0499794
0.0466963
0.0436445
0.0414657
0.0393499
0.0386933
0.037253
0.295906
0.154624
0.0894951
0.0597033
0.0489282
0.0490824
0.050609
0.046875
0.0365558
0.025718
0.0181192
0.0145961
0.0135181
0.0137573
0.0147152
0.0162987
0.0185456
0.0213407
0.0240628
0.0256699
0.0256753
0.0253932
0.0266969
0.0301047
0.0351122
0.0409521
0.0470121
0.0529017
0.0584027
0.0634021
0.0678456
0.0717088
0.0749828
0.0776642
0.0797638
0.0813
0.0822972
0.0827871
0.0828094
0.0824113
0.0816468
0.0805715
0.0792406
0.0776964
0.0759693
0.0740501
0.0719019
0.069433
0.0665772
0.0632695
0.0596107
0.0556774
0.0517818
0.0479799
0.0446746
0.0416601
0.0395206
0.0375054
0.0368827
0.035603
0.295817
0.154591
0.0891468
0.0585277
0.046665
0.0463109
0.0495369
0.0491443
0.0413937
0.030901
0.022155
0.0173352
0.015415
0.0151971
0.0159205
0.0174012
0.0196414
0.0225366
0.0254733
0.0273149
0.0273665
0.0268517
0.0277677
0.0307875
0.0354992
0.0411596
0.0471402
0.0530215
0.0585588
0.063619
0.068134
0.0720697
0.0754103
0.0781481
0.0802902
0.0818515
0.0828541
0.0833273
0.0833091
0.0828455
0.0819895
0.0807964
0.0793215
0.0776078
0.0756866
0.0735507
0.0711653
0.0684436
0.0653282
0.0617708
0.0578891
0.0537823
0.0497663
0.0459104
0.0425928
0.0396254
0.0375342
0.0356282
0.03505
0.0339399
0.295739
0.154595
0.0889061
0.0575831
0.0446679
0.0434689
0.04763
0.0502035
0.0455241
0.0361817
0.0267756
0.0206793
0.0177601
0.0169498
0.0173517
0.0186733
0.0208667
0.023831
0.0269501
0.0290344
0.0291657
0.0284472
0.0289777
0.0315906
0.0359757
0.0414233
0.0472944
0.0531428
0.0586973
0.0638038
0.0683793
0.0723793
0.0757805
0.0785703
0.0807517
0.082336
0.0833424
0.0837978
0.0837384
0.0832083
0.0822599
0.0809477
0.0793272
0.077442
0.0753244
0.072969
0.0703432
0.0673658
0.0639886
0.0601814
0.0560798
0.0518057
0.047678
0.0437784
0.0404589
0.0375481
0.0355143
0.0337254
0.0332017
0.032269
0.295671
0.154628
0.0887527
0.0568384
0.0429466
0.0407029
0.0451095
0.0500623
0.0486868
0.0412551
0.0318204
0.0246349
0.0206179
0.0190752
0.0190535
0.0201476
0.0222451
0.0252374
0.0285083
0.0308288
0.0310732
0.0301839
0.0303358
0.0325254
0.0365539
0.0417552
0.0474854
0.0532747
0.0588254
0.0639621
0.0685858
0.0726409
0.0760959
0.0789328
0.0811498
0.0827545
0.0837629
0.0841992
0.0840973
0.0835
0.082458
0.0810255
0.0792578
0.0771993
0.0748831
0.0723057
0.0694367
0.0662012
0.0625607
0.0585048
0.0541875
0.0497536
0.0455245
0.0415922
0.0382818
0.0354372
0.0334695
0.0318048
0.0313452
0.0305967
0.295612
0.154683
0.0886696
0.0562637
0.0414936
0.0381187
0.0422046
0.0488215
0.0506914
0.0458066
0.0370589
0.0291432
0.0240291
0.0216312
0.0210739
0.02186
0.0238029
0.0267749
0.0301608
0.0327034
0.0330897
0.0320653
0.0318501
0.033603
0.0372466
0.0421676
0.0477245
0.0534266
0.058951
0.0641003
0.0687587
0.0728586
0.0763595
0.0792377
0.0814861
0.0831081
0.0841163
0.0845319
0.0843865
0.0837208
0.0825842
0.0810302
0.0791139
0.0768803
0.0743634
0.0715617
0.0684472
0.0649514
0.0610472
0.0567446
0.0522172
0.0476329
0.0433138
0.039361
0.0360712
0.0333024
0.0314095
0.0298754
0.029489
0.0289299
0.29556
0.154754
0.0886427
0.0558318
0.0402907
0.0357842
0.0391296
0.046657
0.0514369
0.0495392
0.04221
0.0340713
0.0279932
0.0246644
0.0234609
0.023849
0.0255693
0.028465
0.0319225
0.0346646
0.0352156
0.034094
0.0335281
0.0348345
0.0380662
0.0426733
0.0480233
0.0536089
0.0590827
0.0642253
0.0689035
0.0730366
0.0765748
0.0794877
0.0817627
0.0833985
0.0844039
0.0847971
0.0846067
0.0838714
0.0826391
0.0809623
0.078896
0.0764857
0.0737662
0.070738
0.0673758
0.0636183
0.0594506
0.0549048
0.0501748
0.0454508
0.0410549
0.0370948
0.0338378
0.0311545
0.0293446
0.0279468
0.0276422
0.0272767
0.295514
0.154835
0.08866
0.0555185
0.039313
0.0337341
0.0360672
0.0437953
0.050922
0.0522018
0.0469657
0.039217
0.032453
0.0281972
0.026256
0.0261527
0.0275744
0.0303302
0.0338099
0.03672
0.0374511
0.0362713
0.0353761
0.0362303
0.0390252
0.043285
0.048394
0.0538321
0.0592295
0.0643446
0.0690262
0.07318
0.0767458
0.079686
0.081982
0.0836275
0.0846272
0.0849956
0.0847587
0.0839524
0.0826232
0.0808224
0.0786046
0.0760159
0.0730919
0.0698353
0.0662237
0.0622037
0.0577739
0.0529897
0.0480662
0.0432154
0.0387575
0.0348046
0.0315933
0.029005
0.0272863
0.0260296
0.0258149
0.025646
0.295474
0.154924
0.0887115
0.0553026
0.0385331
0.0319772
0.0331586
0.0404852
0.0492446
0.0536149
0.0510172
0.044322
0.0372862
0.0322137
0.0294859
0.0288046
0.0298474
0.0323935
0.0358403
0.0388778
0.0397961
0.0385969
0.0373991
0.0378
0.0401359
0.0440155
0.0488486
0.0541072
0.0594008
0.0644662
0.0691335
0.0732939
0.0768765
0.0798359
0.0821467
0.0837973
0.0847878
0.085129
0.0848435
0.0839648
0.0825372
0.0806109
0.0782402
0.0754714
0.0723413
0.0688545
0.0649922
0.0607095
0.0560201
0.051004
0.0458982
0.0409354
0.0364321
0.0325021
0.02935
0.0268665
0.0252469
0.0241353
0.0240182
0.0240475
0.295439
0.155018
0.0887892
0.0551659
0.0379232
0.0305039
0.0305007
0.03697
0.046588
0.0536913
0.054082
0.0490919
0.0423056
0.0366475
0.0331512
0.0318278
0.0324136
0.0346761
0.038024
0.0411459
0.0422494
0.0410682
0.0395994
0.0395514
0.0414093
0.0448773
0.0493995
0.0544455
0.0596065
0.0645982
0.069232
0.073384
0.0769717
0.0799411
0.0822597
0.0839102
0.0848875
0.0851985
0.0848622
0.0839092
0.0823816
0.0803284
0.0778031
0.0748527
0.0715147
0.0677962
0.0636822
0.0591374
0.0541922
0.0489527
0.043678
0.0386204
0.0340903
0.0302001
0.0271216
0.0247523
0.0232395
0.0222763
0.022264
0.0224921
0.295408
0.155113
0.0888861
0.055093
0.037457
0.0292924
0.0281496
0.0334643
0.0431976
0.0524488
0.055932
0.0532197
0.0472695
0.0413745
0.0372157
0.0352264
0.0352894
0.0371954
0.0403745
0.0435318
0.0448086
0.0436798
0.0419766
0.0414904
0.0428557
0.0458823
0.0500587
0.054858
0.0598563
0.0647492
0.0693289
0.0734561
0.077036
0.0800054
0.0823242
0.0839685
0.0849282
0.0852056
0.0848159
0.0837865
0.0821571
0.0799752
0.0772937
0.0741599
0.0706125
0.066661
0.0622948
0.0574895
0.0522938
0.0468411
0.0414134
0.0362805
0.0317442
0.0279122
0.0249223
0.0226769
0.0212784
0.020466
0.0205653
0.0209927
0.29538
0.155208
0.0889965
0.0550708
0.0371105
0.0283144
0.026127
0.0301379
0.0393497
0.0500105
0.0564193
0.0564124
0.0518969
0.0462123
0.041597
0.0389774
0.0384769
0.0399607
0.0429011
0.0460399
0.047469
0.0464231
0.0445264
0.0436197
0.0444829
0.0470411
0.0508375
0.0553556
0.0601601
0.0649275
0.0694314
0.0735161
0.0770743
0.0800328
0.0823431
0.0839747
0.0849118
0.0851517
0.0847055
0.0835973
0.0818641
0.0795516
0.076712
0.0733931
0.0696347
0.0654491
0.0608308
0.0557677
0.0503282
0.0446752
0.0391129
0.0339268
0.029407
0.025653
0.0227674
0.0206555
0.0193786
0.0187187
0.0189361
0.0195648
0.295356
0.155303
0.089116
0.0550884
0.0368626
0.027539
0.0244285
0.0271093
0.0353185
0.0465913
0.0554965
0.0584181
0.05589
0.0509284
0.0461613
0.0430216
0.0419567
0.0429696
0.0456058
0.0486664
0.0502223
0.0492851
0.0472396
0.0459379
0.0462963
0.0483628
0.0517463
0.0559487
0.0605273
0.0651416
0.0695465
0.0735701
0.0770915
0.0800271
0.0823196
0.0839312
0.08484
0.0850381
0.084532
0.0833422
0.0815027
0.0790575
0.0760579
0.0725521
0.0685813
0.0641608
0.0592912
0.0539738
0.0482994
0.0424612
0.0367859
0.0315714
0.027093
0.0234379
0.020673
0.0187041
0.0175558
0.0170496
0.0173914
0.0182219
0.295335
0.155395
0.0892409
0.0551365
0.0366949
0.0269354
0.0230322
0.0244467
0.0313473
0.0424723
0.0532285
0.059054
0.0589576
0.0552539
0.0507241
0.0472575
0.0456808
0.0462019
0.0484803
0.051404
0.0530558
0.0522481
0.0501013
0.0484384
0.0482971
0.0498539
0.052794
0.0566467
0.0609669
0.0653993
0.0696812
0.0736236
0.0770923
0.0799921
0.0822566
0.0838403
0.0847145
0.0848659
0.084296
0.0830214
0.081073
0.0784927
0.075331
0.0716365
0.0674518
0.0627961
0.0576766
0.0521101
0.0462116
0.0402063
0.0344423
0.029227
0.0248169
0.021283
0.0186559
0.0168394
0.0158267
0.0154749
0.0159469
0.0169788
0.295316
0.155485
0.0893681
0.0552076
0.0365917
0.0264753
0.0219061
0.0221752
0.0276276
0.0379658
0.0497903
0.0582306
0.0608424
0.0589027
0.0550574
0.0515385
0.0495673
0.0496147
0.0515014
0.0542365
0.0559504
0.0552878
0.0530899
0.0511082
0.0504818
0.0515173
0.0539871
0.0574573
0.0614867
0.065708
0.0698418
0.0736822
0.077081
0.0799314
0.082157
0.083704
0.0845368
0.0846359
0.0839979
0.0826349
0.0805746
0.0778567
0.0745306
0.0706455
0.0662459
0.0613549
0.0559878
0.0501788
0.0440694
0.0379181
0.032093
0.0269074
0.0225946
0.0192051
0.0167332
0.0150788
0.0142084
0.0140114
0.0146196
0.0158511
0.2953
0.155571
0.0894955
0.0552953
0.0365397
0.026133
0.0210138
0.0202871
0.0242892
0.0333769
0.0454499
0.0559706
0.0613485
0.0615943
0.0589027
0.055675
0.0534957
0.0531368
0.0546272
0.057135
0.0588785
0.0583729
0.0561756
0.0539263
0.0528403
0.0533515
0.0553291
0.0583865
0.0620933
0.066074
0.070034
0.0737506
0.0770616
0.079848
0.0820229
0.0835239
0.0843078
0.0843488
0.0836378
0.0821825
0.0800068
0.0771484
0.0736556
0.0695781
0.0649625
0.0598368
0.0542255
0.0481824
0.041878
0.035605
0.0297501
0.0246271
0.0204424
0.0172214
0.0149226
0.0134396
0.0127185
0.0126767
0.0134268
0.0148553
0.295285
0.155653
0.0896213
0.0553947
0.036528
0.0258864
0.0203188
0.0187526
0.0214009
0.0289694
0.0405373
0.0524156
0.060368
0.0630796
0.0619885
0.0594424
0.057307
0.0566652
0.0577924
0.0600549
0.0618016
0.0614633
0.0593196
0.0568629
0.0553544
0.0553487
0.0568191
0.0594371
0.0627911
0.0665023
0.0702622
0.0738328
0.0770375
0.0797445
0.0818564
0.0833013
0.0840283
0.0840045
0.0832153
0.0816632
0.0793687
0.0763667
0.0727045
0.0684328
0.0636006
0.0582413
0.0523905
0.0461236
0.0396432
0.0332765
0.0274262
0.0224016
0.0183772
0.0153493
0.0132413
0.0119392
0.0113746
0.0114887
0.0123868
0.0140082
0.295272
0.155732
0.0897442
0.0555015
0.0365472
0.0257167
0.0197871
0.0175298
0.01898
0.0249415
0.0354029
0.0478176
0.0579028
0.0631679
0.0640519
0.0625932
0.0608079
0.0600638
0.0609057
0.0629329
0.0646683
0.0645084
0.0624731
0.0598776
0.0579967
0.0574939
0.058451
0.0606082
0.063582
0.0669958
0.0705296
0.0739316
0.0770108
0.0796227
0.0816586
0.0830368
0.0836982
0.0836028
0.0827295
0.081076
0.0786586
0.0755097
0.0716757
0.0672081
0.0621589
0.0565681
0.0504837
0.0440058
0.0373715
0.0309429
0.0251352
0.020247
0.0164158
0.0136056
0.011706
0.0105943
0.0101937
0.0104654
0.0115175
0.0133266
0.295261
0.155807
0.0898633
0.0556125
0.0365897
0.025608
0.0193882
0.0165725
0.0170053
0.0214163
0.0303727
0.0425139
0.0540774
0.061754
0.0648636
0.0648743
0.063779
0.0631653
0.0638474
0.0656836
0.0674114
0.0674458
0.0655759
0.0629184
0.0607289
0.0597627
0.0602117
0.0618941
0.0644644
0.0675548
0.0708374
0.0740483
0.0769829
0.0794834
0.0814297
0.0827302
0.0833169
0.0831423
0.082179
0.080419
0.0778744
0.0745752
0.0705667
0.0659018
0.0606359
0.0548163
0.0485061
0.0418328
0.0350705
0.0286156
0.0228918
0.0181796
0.0145751
0.0120063
0.0103318
0.00942012
0.00919173
0.00962402
0.0108369
0.0128264
0.295251
0.155877
0.0899779
0.0557252
0.0366494
0.0255471
0.0190959
0.0158352
0.0154317
0.0184447
0.0257115
0.0368861
0.0491367
0.0588418
0.0642541
0.0660483
0.0659878
0.0657768
0.0664712
0.0681992
0.0699464
0.0701998
0.0685558
0.0659213
0.0635007
0.0621206
0.0620797
0.0632827
0.0654322
0.0681762
0.0711842
0.0741825
0.0769532
0.079326
0.0811691
0.0823804
0.082883
0.0826215
0.0815615
0.0796896
0.0770135
0.0735604
0.0693749
0.0645115
0.0590296
0.0529856
0.0464591
0.0396091
0.0327486
0.0263074
0.0207116
0.0162161
0.0128706
0.0105656
0.00913159
0.0084294
0.00838248
0.00898041
0.0103611
0.0125213
0.295242
0.155944
0.0900877
0.0558376
0.0367212
0.0255233
0.0188884
0.0152765
0.0142024
0.0160199
0.0215987
0.0313097
0.043426
0.0545593
0.0621406
0.0659166
0.0672062
0.0676899
0.0686076
0.0703491
0.0721704
0.0726805
0.0713282
0.0688092
0.0662485
0.0645206
0.0640239
0.0647546
0.0664738
0.0688529
0.0715656
0.0743309
0.0769194
0.0791485
0.0808745
0.0819851
0.0823939
0.0820373
0.0808741
0.0788846
0.0760724
0.0724619
0.0680971
0.0630344
0.0573383
0.0510753
0.0443448
0.0373399
0.0304156
0.024032
0.0186107
0.0143726
0.0113168
0.0092951
0.00811501
0.00763156
0.00777635
0.00854725
0.0101031
0.0124215
0.295234
0.156007
0.0901924
0.0559482
0.0368011
0.0255276
0.0187475
0.0148603
0.0132587
0.014095
0.0181233
0.0261055
0.0373512
0.0491603
0.0585505
0.0643462
0.0672308
0.0686943
0.0700718
0.0719833
0.0739629
0.0747836
0.0737955
0.0714922
0.0688954
0.066903
0.0660015
0.0662812
0.0675703
0.0695725
0.0719733
0.0744878
0.076877
0.0789469
0.0805425
0.0815408
0.081846
0.0813862
0.0801127
0.0780001
0.0750472
0.0712758
0.0667297
0.0614676
0.0555599
0.0490852
0.0421654
0.0350319
0.0280826
0.0218044
0.0166058
0.0126644