/*--------------------------------*- C++ -*----------------------------------*\
| =========                 |                                                 |
| \\      /  F ield         | OpenFOAM: The Open Source CFD Toolbox           |
|  \\    /   O peration     | Version:  2.4.0                                 |
|   \\  /    A nd           | Web:      www.OpenFOAM.org                      |
|    \\/     M anipulation  |                                                 |
\*---------------------------------------------------------------------------*/
FoamFile
{
    version     2.0;
    format      ascii;
    class       volScalarField;
    location    "7.23";
    object      p;
}
// * * * * * * * * * * * * * * * * * * * * * * * * * * * * * * * * * * * * * //

dimensions      [0 2 -2 0 0 0 0];

internalField   nonuniform List<scalar> 
6000
(
0.0489795
0.278147
0.275098
0.298426
0.303865
0.311543
0.314579
0.318193
0.320126
0.322203
0.32359
0.324985
0.326083
0.327164
0.328124
0.32908
0.330003
0.330947
0.331912
0.33293
0.334015
0.335192
0.336481
0.337908
0.339498
0.341276
0.343271
0.345507
0.348012
0.350808
0.353916
0.357352
0.361123
0.36523
0.369666
0.374404
0.379407
0.384621
0.389969
0.395366
0.400685
0.405811
0.410565
0.414875
0.418326
0.420892
0.422135
0.422277
0.420229
0.417064
0.409984
0.402758
0.387398
0.376296
0.345185
0.33426
0.267238
0.274598
0.111415
0.198599
0.0639987
0.276362
0.275141
0.298278
0.303782
0.311457
0.314522
0.318139
0.320088
0.322168
0.323564
0.324962
0.326065
0.327149
0.328113
0.329071
0.329996
0.330941
0.331908
0.332928
0.334014
0.335191
0.336481
0.337909
0.3395
0.341279
0.343274
0.345512
0.348017
0.350815
0.353924
0.357362
0.361135
0.365246
0.369681
0.37442
0.379422
0.384635
0.38998
0.395372
0.400682
0.405796
0.410535
0.414828
0.418275
0.42083
0.422059
0.422175
0.420101
0.41689
0.409774
0.402468
0.387074
0.375823
0.344714
0.333477
0.266663
0.273207
0.110763
0.195969
0.0778432
0.274286
0.275238
0.29816
0.30371
0.31139
0.314473
0.318097
0.320055
0.32214
0.323541
0.324942
0.326049
0.327136
0.328102
0.329062
0.329988
0.330936
0.331904
0.332925
0.334012
0.33519
0.336481
0.337909
0.3395
0.34128
0.343276
0.345514
0.348019
0.350817
0.353927
0.357365
0.361139
0.36525
0.369686
0.374424
0.379425
0.384635
0.389975
0.395358
0.400656
0.405753
0.410469
0.414735
0.418177
0.420723
0.42194
0.422037
0.419939
0.416692
0.40954
0.402173
0.386736
0.375372
0.344239
0.332759
0.266012
0.271958
0.109906
0.193644
0.0893113
0.272109
0.275377
0.29807
0.303656
0.311335
0.314431
0.318061
0.320025
0.322115
0.32352
0.324924
0.326034
0.327123
0.328091
0.329053
0.329981
0.33093
0.331899
0.332921
0.334008
0.335187
0.336478
0.337907
0.339498
0.341278
0.343273
0.34551
0.348016
0.350813
0.353923
0.35736
0.361133
0.365243
0.369677
0.374412
0.379409
0.384612
0.389944
0.395314
0.400594
0.40567
0.410362
0.414591
0.418017
0.420556
0.421762
0.421847
0.419731
0.416459
0.409275
0.401861
0.38638
0.374928
0.343754
0.332086
0.265353
0.270832
0.109022
0.191723
0.0992979
0.269936
0.275539
0.298002
0.303619
0.311289
0.314396
0.318028
0.319999
0.322092
0.3235
0.324908
0.32602
0.327111
0.328081
0.329044
0.329974
0.330923
0.331893
0.332915
0.334003
0.335182
0.336473
0.337901
0.339491
0.341271
0.343265
0.345501
0.348005
0.350801
0.353909
0.357344
0.361115
0.365221
0.36965
0.37438
0.379368
0.384561
0.389879
0.395233
0.400493
0.405546
0.410212
0.414399
0.417795
0.420317
0.421508
0.421579
0.419444
0.416152
0.40894
0.40149
0.385966
0.374445
0.343221
0.331401
0.264657
0.269743
0.10812
0.190053
0.108367
0.267836
0.275709
0.297958
0.303597
0.311251
0.314366
0.318
0.319976
0.322071
0.323483
0.324892
0.326007
0.327099
0.328071
0.329035
0.329965
0.330916
0.331886
0.332909
0.333996
0.335175
0.336466
0.337893
0.339482
0.34126
0.343253
0.345487
0.347989
0.350782
0.353887
0.357318
0.361083
0.365183
0.369605
0.374325
0.379303
0.384482
0.389784
0.395118
0.400358
0.405389
0.410032
0.414178
0.417527
0.420019
0.421183
0.421231
0.41907
0.415754
0.40851
0.401027
0.38546
0.373881
0.342603
0.330658
0.263885
0.26864
0.107168
0.188531
0.11669
0.265849
0.275881
0.297934
0.303589
0.31122
0.314343
0.317975
0.319955
0.322052
0.323466
0.324878
0.325994
0.327088
0.32806
0.329026
0.329957
0.330907
0.331878
0.332901
0.333988
0.335167
0.336456
0.337883
0.33947
0.341246
0.343237
0.345469
0.347967
0.350756
0.353856
0.357281
0.36104
0.365131
0.369544
0.374252
0.379216
0.384381
0.389666
0.394983
0.400204
0.405217
0.409839
0.413947
0.41724
0.419691
0.420815
0.420826
0.418626
0.415276
0.40799
0.40047
0.38485
0.373221
0.341877
0.329832
0.263005
0.267493
0.106131
0.187103
0.124353
0.263998
0.276055
0.297912
0.303605
0.311197
0.314326
0.317954
0.319937
0.322035
0.323451
0.324864
0.325982
0.327077
0.32805
0.329016
0.329948
0.330899
0.33187
0.332892
0.333979
0.335157
0.336446
0.337871
0.339457
0.34123
0.343218
0.345447
0.347941
0.350725
0.353819
0.357237
0.360987
0.365069
0.369471
0.374167
0.379118
0.384269
0.389539
0.39484
0.400046
0.405042
0.409645
0.413717
0.416953
0.419356
0.42043
0.420393
0.418143
0.414745
0.407404
0.399837
0.384153
0.372469
0.341046
0.328915
0.262006
0.266281
0.104985
0.185728
0.131456
0.262295
0.276228
0.297898
0.303633
0.311183
0.314316
0.317937
0.319923
0.32202
0.323438
0.324851
0.32597
0.327066
0.32804
0.329007
0.329939
0.33089
0.331861
0.332883
0.33397
0.335147
0.336434
0.337857
0.339441
0.341212
0.343197
0.345421
0.347911
0.350689
0.353776
0.357186
0.360928
0.365001
0.369392
0.374078
0.379017
0.384154
0.389411
0.394699
0.399891
0.404873
0.409457
0.413494
0.416676
0.419028
0.420048
0.419956
0.417647
0.414192
0.406785
0.399158
0.383398
0.37165
0.340131
0.327916
0.260899
0.265
0.103727
0.184378
0.138097
0.260745
0.276397
0.297887
0.303672
0.311177
0.314311
0.317925
0.319911
0.322007
0.323427
0.32484
0.32596
0.327057
0.328031
0.328998
0.32993
0.330881
0.331851
0.332873
0.333959
0.335136
0.336421
0.337843
0.339424
0.341192
0.343173
0.345393
0.347877
0.350649
0.35373
0.357133
0.360867
0.36493
0.369312
0.373988
0.378917
0.384043
0.389289
0.394566
0.399746
0.404714
0.409279
0.413282
0.416413
0.418715
0.41968
0.41953
0.417157
0.413637
0.406157
0.398461
0.382613
0.370791
0.339162
0.326859
0.259708
0.263661
0.10237
0.18304
0.144353
0.259354
0.276558
0.297876
0.303721
0.311179
0.314314
0.317916
0.319903
0.321997
0.323417
0.32483
0.325951
0.327047
0.328022
0.328989
0.329921
0.330872
0.331842
0.332864
0.333949
0.335124
0.336408
0.337827
0.339406
0.341171
0.343147
0.345363
0.347842
0.350608
0.353682
0.357078
0.360804
0.36486
0.369234
0.373901
0.378821
0.383938
0.389174
0.39444
0.399609
0.404564
0.409109
0.413082
0.416166
0.418419
0.41933
0.41912
0.416683
0.413094
0.405537
0.397764
0.381823
0.369918
0.338167
0.32577
0.258466
0.262283
0.100942
0.181721
0.150287
0.258122
0.276708
0.29786
0.30378
0.311187
0.314322
0.317912
0.319899
0.321989
0.323409
0.324822
0.325943
0.327039
0.328014
0.328981
0.329913
0.330864
0.331834
0.332855
0.333939
0.335112
0.336394
0.337811
0.339386
0.341147
0.34312
0.345331
0.347805
0.350565
0.353633
0.357023
0.360743
0.364792
0.369158
0.373818
0.378731
0.38384
0.389068
0.394324
0.399483
0.404424
0.40895
0.412892
0.415935
0.418141
0.418999
0.418731
0.416229
0.41257
0.404934
0.397081
0.381042
0.369046
0.337169
0.324669
0.257201
0.260888
0.0994768
0.18043
0.155945
0.257051
0.276843
0.297837
0.303845
0.311201
0.314337
0.317912
0.319898
0.321984
0.323404
0.324816
0.325936
0.327033
0.328007
0.328974
0.329906
0.330856
0.331826
0.332845
0.333928
0.3351
0.33638
0.337794
0.339366
0.341124
0.343092
0.345298
0.347767
0.350523
0.353585
0.356969
0.360683
0.364726
0.369087
0.373741
0.378646
0.383749
0.388969
0.394217
0.399365
0.404294
0.4088
0.412713
0.415718
0.417881
0.418687
0.418362
0.415796
0.412067
0.404352
0.396416
0.38028
0.368189
0.336184
0.323574
0.255937
0.259496
0.0980061
0.17918
0.161365
0.25614
0.276963
0.297806
0.303916
0.31122
0.314358
0.317916
0.3199
0.321982
0.323401
0.324811
0.325931
0.327027
0.328002
0.328968
0.3299
0.33085
0.331818
0.332837
0.333918
0.335088
0.336365
0.337776
0.339345
0.341099
0.343064
0.345265
0.34773
0.350481
0.353538
0.356917
0.360626
0.364664
0.369019
0.373668
0.378568
0.383665
0.388877
0.394118
0.399256
0.404171
0.408658
0.412544
0.415515
0.417636
0.418394
0.418013
0.415384
0.411585
0.403794
0.395774
0.379542
0.367352
0.335221
0.322495
0.254691
0.258121
0.0965572
0.17798
0.166575
0.255388
0.27707
0.297764
0.303989
0.311243
0.314385
0.317924
0.319906
0.321982
0.3234
0.324809
0.325929
0.327024
0.327998
0.328964
0.329895
0.330844
0.331811
0.332829
0.333908
0.335076
0.336351
0.337759
0.339325
0.341075
0.343036
0.345233
0.347694
0.35044
0.353493
0.356867
0.360571
0.364605
0.368956
0.3736
0.378495
0.383587
0.388793
0.394026
0.399155
0.404057
0.408524
0.412384
0.415323
0.417405
0.418117
0.417681
0.414993
0.411125
0.40326
0.395155
0.37883
0.366539
0.334288
0.321439
0.253478
0.256773
0.095151
0.176834
0.171598
0.254792
0.277165
0.297709
0.304064
0.31127
0.314417
0.317936
0.319915
0.321985
0.323402
0.324809
0.325928
0.327022
0.327996
0.328961
0.329891
0.330839
0.331805
0.332821
0.333899
0.335065
0.336337
0.337742
0.339305
0.341052
0.343009
0.345203
0.347659
0.350401
0.35345
0.35682
0.36052
0.36455
0.368897
0.373537
0.378428
0.383515
0.388716
0.393941
0.39906
0.403949
0.408397
0.412232
0.415142
0.417186
0.417854
0.417366
0.41462
0.410685
0.402748
0.39456
0.378146
0.365751
0.333386
0.32041
0.252303
0.255459
0.0938028
0.175743
0.176451
0.254348
0.277253
0.297641
0.304137
0.311298
0.314454
0.317951
0.319929
0.321991
0.323406
0.324811
0.325929
0.327023
0.327995
0.32896
0.329889
0.330836
0.331801
0.332815
0.333892
0.335055
0.336325
0.337727
0.339287
0.34103
0.342984
0.345174
0.347626
0.350365
0.353409
0.356776
0.360473
0.3645
0.368843
0.37348
0.378367
0.383449
0.388644
0.393863
0.398973
0.403848
0.408277
0.412088
0.41497
0.416979
0.417604
0.417065
0.414264
0.410263
0.402257
0.393986
0.377488
0.364989
0.332519
0.319411
0.251174
0.254181
0.0925228
0.174706
0.181147
0.25405
0.27734
0.297561
0.304207
0.311327
0.314496
0.31797
0.319945
0.321999
0.323413
0.324815
0.325933
0.327025
0.327997
0.328961
0.329889
0.330834
0.331798
0.332811
0.333885
0.335046
0.336314
0.337713
0.33927
0.34101
0.34296
0.345147
0.347596
0.350331
0.353372
0.356736
0.36043
0.364453
0.368794
0.373427
0.378311
0.383389
0.388579
0.39379
0.39889
0.403752
0.408162
0.41195
0.414806
0.416781
0.417365
0.416777
0.413922
0.409857
0.401785
0.393433
0.376856
0.364253
0.331687
0.318442
0.250093
0.252942
0.0913173
0.173719
0.185697
0.253892
0.27743
0.297469
0.304272
0.311355
0.314543
0.317993
0.319966
0.322011
0.323423
0.324822
0.325939
0.32703
0.328001
0.328964
0.32989
0.330835
0.331797
0.332808
0.333881
0.33504
0.336305
0.337701
0.339255
0.340992
0.342939
0.345123
0.347568
0.3503
0.353339
0.356699
0.36039
0.364411
0.36875
0.37338
0.378261
0.383334
0.388519
0.393723
0.398814
0.403662
0.408053
0.411819
0.414649
0.41659
0.417136
0.4165
0.413594
0.409465
0.401332
0.392898
0.376248
0.363539
0.330888
0.317502
0.249061
0.251742
0.0901898
0.172777
0.19011
0.253867
0.27753
0.297367
0.304329
0.311382
0.314593
0.318019
0.31999
0.322025
0.323436
0.324832
0.325948
0.327038
0.328008
0.328969
0.329895
0.330838
0.331798
0.332808
0.333879
0.335035
0.336298
0.337692
0.339243
0.340977
0.342921
0.345102
0.347545
0.350274
0.353309
0.356667
0.360356
0.364374
0.36871
0.373338
0.378216
0.383285
0.388465
0.393662
0.398743
0.403577
0.407949
0.411692
0.414499
0.416407
0.416915
0.416232
0.413277
0.409086
0.400894
0.39238
0.375663
0.362848
0.330122
0.316591
0.248078
0.250581
0.0891417
0.171875
0.194391
0.253967
0.277644
0.297258
0.304378
0.311407
0.314645
0.318048
0.320018
0.322043
0.323451
0.324844
0.325959
0.327048
0.328017
0.328977
0.329901
0.330843
0.331802
0.33281
0.333879
0.335034
0.336294
0.337685
0.339234
0.340966
0.342907
0.345085
0.347525
0.350251
0.353284
0.35664
0.360326
0.364343
0.368676
0.373302
0.378176
0.383242
0.388416
0.393606
0.398676
0.403496
0.40785
0.41157
0.414353
0.41623
0.4167
0.415972
0.412969
0.408718
0.40047
0.391877
0.375099
0.362178
0.329387
0.315707
0.247145
0.249456
0.088173
0.171008
0.198549
0.254185
0.277778
0.297145
0.304418
0.311428
0.314701
0.31808
0.32005
0.322063
0.323469
0.324858
0.325973
0.32706
0.328029
0.328988
0.329911
0.330851
0.331809
0.332815
0.333882
0.335035
0.336293
0.337682
0.339228
0.340957
0.342896
0.345071
0.347509
0.350233
0.353264
0.356617
0.360302
0.364316
0.368648
0.373271
0.378143
0.383204
0.388373
0.393555
0.398615
0.40342
0.407755
0.411453
0.414212
0.416057
0.416492
0.415718
0.41267
0.408359
0.400058
0.391388
0.374554
0.361527
0.328683
0.314849
0.246261
0.248367
0.0872825
0.170171
0.202588
0.254512
0.277935
0.297033
0.304449
0.311445
0.314757
0.318114
0.320086
0.322087
0.323491
0.324876
0.32599
0.327076
0.328044
0.329001
0.329923
0.330862
0.331819
0.332824
0.333889
0.33504
0.336296
0.337683
0.339226
0.340954
0.34289
0.345063
0.347498
0.35022
0.353249
0.3566
0.360283
0.364296
0.368626
0.373247
0.378115
0.383172
0.388335
0.393509
0.398558
0.403348
0.407663
0.411339
0.414075
0.415889
0.416288
0.41547
0.412377
0.408009
0.399657
0.390911
0.374026
0.360894
0.328008
0.314016
0.245424
0.247311
0.0864688
0.16936
0.206514
0.25494
0.278119
0.296924
0.304472
0.311457
0.314815
0.318152
0.320126
0.322114
0.323516
0.324896
0.32601
0.327094
0.328062
0.329018
0.329939
0.330877
0.331832
0.332836
0.333899
0.335048
0.336302
0.337688
0.339229
0.340954
0.342889
0.345059
0.347492
0.350212
0.353239
0.356589
0.360271
0.364282
0.36861
0.373229
0.378094
0.383147
0.388303
0.393469
0.398506
0.40328
0.407576
0.411229
0.413941
0.415724
0.416089
0.415226
0.412091
0.407665
0.399266
0.390445
0.373515
0.360277
0.32736
0.313207
0.244633
0.246288
0.0857296
0.168569
0.210331
0.255462
0.278331
0.296823
0.304487
0.311463
0.314873
0.318192
0.320169
0.322145
0.323544
0.32492
0.326033
0.327116
0.328083
0.329039
0.329959
0.330895
0.331849
0.332851
0.333914
0.335061
0.336314
0.337697
0.339237
0.34096
0.342892
0.345061
0.347493
0.350211
0.353236
0.356585
0.360265
0.364275
0.368601
0.373217
0.378079
0.383127
0.388277
0.393433
0.398458
0.403216
0.407492
0.411121
0.41381
0.415561
0.415892
0.414986
0.411809
0.407326
0.398884
0.389988
0.373019
0.359675
0.326739
0.312419
0.243886
0.245295
0.0850627
0.167795
0.214045
0.256069
0.278573
0.296734
0.304496
0.311464
0.31493
0.318234
0.320218
0.322179
0.323577
0.324947
0.326059
0.327141
0.328108
0.329063
0.329982
0.330918
0.331871
0.332872
0.333933
0.335079
0.33633
0.337712
0.33925
0.340971
0.342902
0.345069
0.347499
0.350216
0.35324
0.356587
0.360266
0.364274
0.368599
0.373212
0.37807
0.383113
0.388257
0.393403
0.398415
0.403156
0.407411
0.411017
0.413681
0.415401
0.415698
0.414749
0.411531
0.406993
0.398509
0.38954
0.372537
0.359087
0.326142
0.311652
0.243183
0.24433
0.0844656
0.167034
0.21766
0.256755
0.278846
0.296659
0.304502
0.311461
0.314986
0.318278
0.32027
0.322219
0.323614
0.324978
0.326089
0.32717
0.328137
0.329091
0.33001
0.330945
0.331897
0.332897
0.333957
0.335102
0.336351
0.337732
0.339269
0.340989
0.342918
0.345084
0.347512
0.350228
0.353251
0.356597
0.360275
0.364282
0.368604
0.373215
0.378069
0.383107
0.388242
0.393378
0.398377
0.4031
0.407334
0.410915
0.413554
0.415242
0.415505
0.414513
0.411256
0.406663
0.39814
0.389099
0.372068
0.358512
0.325569
0.310906
0.242522
0.243392
0.083936
0.166282
0.221181
0.257513
0.279151
0.2966
0.304506
0.311454
0.31504
0.318324
0.320327
0.322263
0.323656
0.325013
0.326123
0.327203
0.32817
0.329124
0.330043
0.330977
0.331928
0.332927
0.333986
0.33513
0.336379
0.337758
0.339294
0.341012
0.34294
0.345105
0.347533
0.350247
0.35327
0.356615
0.360291
0.364297
0.368617
0.373225
0.378075
0.383107
0.388234
0.393359
0.398343
0.403048
0.407259
0.410816
0.413429
0.415085
0.415314
0.414279
0.410984
0.406336
0.397777
0.388665
0.371611
0.357948
0.325018
0.310177
0.241902
0.24248
0.0834713
0.165537
0.224612
0.258336
0.279485
0.296561
0.304511
0.311444
0.315094
0.318372
0.320389
0.322312
0.323704
0.325053
0.326163
0.32724
0.328208
0.329161
0.33008
0.331014
0.331965
0.332963
0.334021
0.335165
0.336412
0.337791
0.339326
0.341043
0.34297
0.345134
0.347561
0.350275
0.353297
0.356641
0.360317
0.364321
0.368639
0.373244
0.378089
0.383114
0.388233
0.393346
0.398314
0.402999
0.407188
0.410718
0.413306
0.414929
0.415124
0.414046
0.410713
0.406012
0.397419
0.388236
0.371164
0.357396
0.32449
0.309467
0.241321
0.241591
0.0830691
0.164797
0.227958
0.259217
0.27985
0.296543
0.304519
0.311434
0.315146
0.318422
0.320455
0.322367
0.323758
0.325099
0.326207
0.327282
0.32825
0.329204
0.330123
0.331057
0.332007
0.333005
0.334063
0.335206
0.336453
0.337831
0.339365
0.341082
0.343008
0.345172
0.347598
0.350311
0.353332
0.356676
0.360351
0.364353
0.368669
0.373271
0.378111
0.383129
0.388238
0.393338
0.39829
0.402954
0.407119
0.410623
0.413183
0.414773
0.414934
0.413813
0.410443
0.40569
0.397065
0.387813
0.370728
0.356855
0.323982
0.308774
0.240779
0.240726
0.0827273
0.164059
0.231224
0.260152
0.280243
0.296547
0.304531
0.311423
0.315198
0.318475
0.320526
0.322428
0.323818
0.325151
0.326258
0.32733
0.328299
0.329252
0.330172
0.331106
0.332056
0.333054
0.334112
0.335254
0.336501
0.337879
0.339412
0.341129
0.343055
0.345218
0.347644
0.350357
0.353378
0.356721
0.360395
0.364396
0.368709
0.373307
0.378141
0.383152
0.38825
0.393336
0.398271
0.402913
0.407053
0.410529
0.413062
0.414617
0.414743
0.41358
0.410174
0.405368
0.396715
0.387395
0.370302
0.356323
0.323494
0.308097
0.240273
0.239881
0.0824435
0.16332
0.234414
0.261135
0.280662
0.296573
0.30455
0.311415
0.31525
0.31853
0.320602
0.322496
0.323886
0.325211
0.326315
0.327384
0.328353
0.329307
0.330227
0.331161
0.332112
0.33311
0.334168
0.33531
0.336557
0.337935
0.339468
0.341184
0.34311
0.345273
0.347699
0.350412
0.353433
0.356776
0.360449
0.364448
0.368759
0.373352
0.378181
0.383182
0.388269
0.39334
0.398257
0.402876
0.40699
0.410437
0.412941
0.414461
0.414553
0.413346
0.409906
0.405048
0.396367
0.38698
0.369885
0.355801
0.323026
0.307435
0.239805
0.239058
0.0822157
0.162581
0.237533
0.262161
0.281108
0.296621
0.304577
0.31141
0.315303
0.318589
0.320683
0.322571
0.323962
0.325278
0.32638
0.327446
0.328415
0.329368
0.33029
0.331224
0.332176
0.333174
0.334232
0.335374
0.336622
0.337999
0.339533
0.341249
0.343175
0.345339
0.347765
0.350478
0.353499
0.356842
0.360514
0.364511
0.368819
0.373407
0.378229
0.383221
0.388296
0.393351
0.398247
0.402843
0.406929
0.410346
0.41282
0.414304
0.414361
0.413111
0.409637
0.404728
0.396023
0.38657
0.369476
0.355287
0.322576
0.30679
0.239371
0.238254
0.0820418
0.161839
0.240584
0.263226
0.281577
0.296693
0.304613
0.31141
0.315358
0.318651
0.320771
0.322654
0.324046
0.325354
0.326454
0.327515
0.328484
0.329437
0.33036
0.331295
0.332247
0.333246
0.334304
0.335448
0.336695
0.338074
0.339608
0.341324
0.343251
0.345415
0.347842
0.350555
0.353576
0.356919
0.36059
0.364585
0.36889
0.373473
0.378287
0.383269
0.38833
0.393368
0.398243
0.402813
0.406871
0.410257
0.4127
0.414147
0.414169
0.412875
0.409367
0.404408
0.39568
0.386162
0.369075
0.354783
0.322145
0.306159
0.238972
0.23747
0.0819198
0.161093
0.243574
0.264324
0.282069
0.296786
0.30466
0.311417
0.315417
0.318719
0.320865
0.322745
0.324141
0.325441
0.326537
0.327594
0.328562
0.329515
0.330439
0.331375
0.332328
0.333327
0.334387
0.335531
0.336779
0.338158
0.339693
0.34141
0.343337
0.345502
0.34793
0.350644
0.353666
0.357008
0.360678
0.364671
0.368972
0.373549
0.378355
0.383326
0.388372
0.393392
0.398244
0.402787
0.406816
0.410169
0.412579
0.413989
0.413975
0.412638
0.409096
0.404087
0.39534
0.385758
0.368683
0.354287
0.321732
0.305543
0.238606
0.236704
0.0818479
0.160342
0.246505
0.265452
0.28258
0.296902
0.304717
0.311431
0.31548
0.318791
0.320966
0.322846
0.324245
0.325538
0.326631
0.327683
0.32865
0.329602
0.330527
0.331464
0.332418
0.333418
0.334479
0.335624
0.336874
0.338254
0.339789
0.341508
0.343436
0.345602
0.348031
0.350746
0.353768
0.35711
0.360779
0.364769
0.369066
0.373637
0.378434
0.383392
0.388423
0.393422
0.398251
0.402765
0.406762
0.410081
0.412458
0.413829
0.413779
0.412398
0.408824
0.403766
0.395001
0.385357
0.368297
0.353799
0.321336
0.304941
0.238273
0.235956
0.0818242
0.159587
0.249382
0.266607
0.28311
0.297038
0.304786
0.311454
0.315548
0.318871
0.321075
0.322957
0.324362
0.325647
0.326737
0.327784
0.328749
0.3297
0.330625
0.331563
0.332519
0.33352
0.334582
0.335729
0.33698
0.338361
0.339898
0.341617
0.343547
0.345715
0.348145
0.350861
0.353883
0.357225
0.360893
0.364881
0.369172
0.373736
0.378523
0.383468
0.388481
0.393459
0.398263
0.402747
0.406711
0.409994
0.412336
0.413667
0.41358
0.412156
0.40855
0.403444
0.394663
0.384958
0.367919
0.353319
0.320958
0.304354
0.237973
0.235226
0.081847
0.158827
0.25221
0.267785
0.283657
0.297194
0.304867
0.311486
0.315622
0.318957
0.321192
0.323079
0.32449
0.32577
0.326857
0.327897
0.32886
0.329809
0.330735
0.331674
0.332631
0.333634
0.334697
0.335845
0.337098
0.338481
0.340019
0.34174
0.343672
0.345841
0.348273
0.35099
0.354013
0.357355
0.361021
0.365005
0.369292
0.373847
0.378623
0.383554
0.388549
0.393504
0.39828
0.402732
0.406662
0.409908
0.412214
0.413504
0.41338
0.411912
0.408274
0.403121
0.394326
0.384562
0.367548
0.352847
0.320596
0.303782
0.237703
0.234513
0.0819147
0.158061
0.254992
0.268982
0.284219
0.297368
0.304958
0.311527
0.315703
0.319052
0.321319
0.323212
0.324631
0.325906
0.32699
0.328025
0.328985
0.329932
0.330858
0.331797
0.332756
0.33376
0.334825
0.335975
0.33723
0.338614
0.340155
0.341878
0.343811
0.345982
0.348415
0.351134
0.354158
0.357499
0.361163
0.365144
0.369425
0.373972
0.378736
0.38365
0.388625
0.393556
0.398302
0.402721
0.406615
0.409822
0.41209
0.413339
0.413176
0.411664
0.407996
0.402797
0.39399
0.384168
0.367184
0.352384
0.32025
0.303223
0.237465
0.233817
0.0820254
0.157291
0.257732
0.270196
0.284794
0.297561
0.305061
0.311579
0.315791
0.319155
0.321455
0.323358
0.324787
0.326058
0.32714
0.328168
0.329125
0.330068
0.330994
0.331934
0.332894
0.3339
0.334967
0.336119
0.337376
0.338763
0.340305
0.34203
0.343966
0.346139
0.348574
0.351294
0.354319
0.35766
0.361321
0.365299
0.369572
0.37411
0.37886
0.383757
0.388711
0.393615
0.398331
0.402714
0.40657
0.409736
0.411965
0.413171
0.41297
0.411414
0.407715
0.40247
0.393654
0.383777
0.366827
0.351928
0.319921
0.302679
0.237256
0.233139
0.0821776
0.156515
0.260435
0.271423
0.285381
0.29777
0.305175
0.31164
0.315888
0.319267
0.321601
0.323516
0.324957
0.326226
0.327306
0.328328
0.329281
0.330221
0.331146
0.332085
0.333047
0.334055
0.335124
0.336278
0.337537
0.338927
0.340471
0.342199
0.344137
0.346312
0.34875
0.351471
0.354496
0.357836
0.361496
0.365468
0.369735
0.374261
0.378997
0.383876
0.388806
0.393681
0.398364
0.40271
0.406526
0.40965
0.411838
0.413
0.41276
0.411159
0.407431
0.402142
0.393319
0.383387
0.366475
0.35148
0.319608
0.30215
0.237077
0.232478
0.0823697
0.155734
0.263104
0.272661
0.285978
0.297995
0.3053
0.311712
0.315992
0.319389
0.321758
0.323687
0.325142
0.326411
0.32749
0.328506
0.329455
0.330391
0.331315
0.332254
0.333217
0.334226
0.335297
0.336454
0.337716
0.339107
0.340654
0.342385
0.344326
0.346504
0.348943
0.351666
0.354692
0.358031
0.361687
0.365655
0.369913
0.374427
0.379148
0.384006
0.38891
0.393755
0.398404
0.40271
0.406484
0.409564
0.41171
0.412826
0.412546
0.410901
0.407144
0.401812
0.392984
0.383
0.36613
0.351041
0.31931
0.301635
0.236927
0.231834
0.0825999
0.15495
0.265742
0.273908
0.286584
0.298234
0.305435
0.311794
0.316105
0.31952
0.321925
0.323872
0.325343
0.326614
0.327693
0.328704
0.329648
0.33058
0.331501
0.33244
0.333403
0.334414
0.335488
0.336647
0.337912
0.339306
0.340856
0.34259
0.344533
0.346714
0.349155
0.35188
0.354906
0.358244
0.361897
0.365858
0.370107
0.374609
0.379311
0.384147
0.389025
0.393837
0.398448
0.402713
0.406443
0.409478
0.411579
0.412649
0.412329
0.410639
0.406854
0.401479
0.392649
0.382615
0.365791
0.35061
0.319028
0.301136
0.236805
0.231208
0.0828666
0.154163
0.268353
0.27516
0.287197
0.298487
0.305579
0.311886
0.316226
0.31966
0.322103
0.32407
0.32556
0.326836
0.327916
0.328923
0.329863
0.33079
0.331708
0.332645
0.333609
0.334622
0.335698
0.336859
0.338127
0.339525
0.341078
0.342814
0.344761
0.346944
0.349388
0.352114
0.35514
0.358476
0.362126
0.36608
0.370318
0.374806
0.379489
0.384301
0.389149
0.393927
0.398499
0.40272
0.406403
0.40939
0.411445
0.412468
0.412106
0.410372
0.40656
0.401144
0.392313
0.382232
0.365459
0.350187
0.318761
0.300652
0.23671
0.230599
0.083168
0.153374
0.270942
0.276415
0.287816
0.298752
0.305732
0.311987
0.316355
0.31981
0.322292
0.324282
0.325793
0.327076
0.32816
0.329163
0.3301
0.331022
0.331937
0.332872
0.333836
0.33485
0.335928
0.337092
0.338363
0.339764
0.34132
0.34306
0.34501
0.347196
0.349642
0.35237
0.355395
0.358729
0.362374
0.366321
0.370547
0.375019
0.379682
0.384468
0.389285
0.394026
0.398555
0.40273
0.406365
0.409301
0.411309
0.412283
0.411879
0.410101
0.406261
0.400807
0.391977
0.381851
0.365132
0.349773
0.31851
0.300183
0.236642
0.230009
0.0835024
0.152584
0.27351
0.277671
0.288439
0.299028
0.305895
0.312097
0.316493
0.31997
0.322491
0.324508
0.326042
0.327336
0.328426
0.329427
0.33036
0.331277
0.332189
0.333122
0.334085
0.3351
0.33618
0.337347
0.338621
0.340026
0.341585
0.343329
0.345282
0.347471
0.349919
0.352647
0.355673
0.359004
0.362643
0.366581
0.370795
0.375249
0.37989
0.384647
0.38943
0.394132
0.398617
0.402743
0.406327
0.409211
0.41117
0.412093
0.411648
0.409824
0.405959
0.400466
0.39164
0.381471
0.36481
0.349368
0.318272
0.29973
0.236599
0.229438
0.0838677
0.151795
0.276063
0.278925
0.289066
0.299315
0.306065
0.312217
0.316639
0.320139
0.3227
0.324746
0.326307
0.327614
0.328712
0.329714
0.330645
0.331558
0.332466
0.333396
0.334359
0.335373
0.336456
0.337625
0.338903
0.340311
0.341874
0.343621
0.345578
0.347769
0.35022
0.352949
0.355973
0.359302
0.362934
0.366862
0.371062
0.375497
0.380113
0.38484
0.389587
0.394247
0.398685
0.402759
0.40629
0.40912
0.411027
0.411899
0.41141
0.409543
0.405652
0.400123
0.391302
0.381094
0.364494
0.348972
0.318049
0.299294
0.236582
0.228886
0.084262
0.151007
0.278603
0.280175
0.289694
0.29961
0.306242
0.312345
0.316792
0.320316
0.32292
0.324996
0.326587
0.327911
0.32902
0.330025
0.330955
0.331865
0.33277
0.333696
0.334658
0.335673
0.336756
0.337929
0.33921
0.340621
0.342189
0.343939
0.345899
0.348094
0.350546
0.353276
0.356299
0.359623
0.363249
0.367165
0.371349
0.375763
0.380353
0.385047
0.389755
0.39437
0.398758
0.402778
0.406253
0.409027
0.410881
0.4117
0.411168
0.409256
0.40534
0.399776
0.390964
0.380719
0.364184
0.348584
0.31784
0.298873
0.236588
0.228354
0.0846832
0.150224
0.281133
0.281419
0.290322
0.299914
0.306427
0.312482
0.316954
0.320503
0.323149
0.325259
0.326881
0.328226
0.329349
0.330359
0.331291
0.332199
0.333101
0.334025
0.334984
0.335999
0.337084
0.338259
0.339543
0.340959
0.34253
0.344285
0.346248
0.348445
0.350899
0.353629
0.35665
0.359969
0.363587
0.367491
0.371657
0.376048
0.380609
0.385268
0.389935
0.394502
0.398837
0.4028
0.406217
0.408932
0.410731
0.411496
0.410919
0.408963
0.405024
0.399427
0.390624
0.380346
0.363879
0.348206
0.317645
0.29847
0.236617
0.227842
0.0851287
0.149445
0.283657
0.282655
0.290949
0.300225
0.306617
0.312626
0.317123
0.320698
0.323387
0.325533
0.327189
0.328558
0.329699
0.330717
0.331653
0.33256
0.33346
0.334382
0.33534
0.336354
0.33744
0.338617
0.339905
0.341325
0.3429
0.344658
0.346625
0.348825
0.351281
0.35401
0.357028
0.360342
0.36395
0.36784
0.371987
0.376353
0.380882
0.385504
0.390126
0.394642
0.398922
0.402825
0.406181
0.408835
0.410577
0.411287
0.410665
0.408665
0.404702
0.399074
0.390283
0.379975
0.363578
0.347838
0.317462
0.298084
0.236668
0.227352
0.0855962
0.148674
0.286179
0.283879
0.291573
0.300543
0.306814
0.312778
0.317299
0.320901
0.323634
0.325817
0.327511
0.328905
0.330067
0.331098
0.332041
0.332949
0.333849
0.334769
0.335726
0.33674
0.337826
0.339005
0.340296
0.34172
0.3433
0.345062
0.347033
0.349235
0.351691
0.35442
0.357435
0.360742
0.364339
0.368213
0.372339
0.376678
0.381174
0.385754
0.390329
0.394792
0.399013
0.402854
0.406146
0.408736
0.410419
0.411073
0.410405
0.408361
0.404376
0.398718
0.389941
0.379606
0.363283
0.347478
0.317292
0.297716
0.236738
0.226883
0.0860826
0.147913
0.288701
0.285091
0.292194
0.300865
0.307016
0.312937
0.317482
0.321112
0.32389
0.326112
0.327844
0.329268
0.330454
0.3315
0.332453
0.333366
0.334267
0.335187
0.336143
0.337157
0.338244
0.339425
0.340719
0.342147
0.343731
0.345497
0.347471
0.349676
0.352133
0.354861
0.357871
0.36117
0.364755
0.368612
0.372715
0.377024
0.381483
0.38602
0.390544
0.39495
0.399109
0.402884
0.40611
0.408635
0.410257
0.410853
0.410139
0.408052
0.404045
0.398359
0.389598
0.37924
0.362992
0.347129
0.317133
0.297365
0.236827
0.226437
0.0865851
0.147164
0.291227
0.286287
0.29281
0.301192
0.307223
0.313103
0.317673
0.321331
0.324153
0.326417
0.328189
0.329646
0.330858
0.331923
0.332889
0.333809
0.334714
0.335635
0.336592
0.337606
0.338695
0.339878
0.341175
0.342606
0.344195
0.345965
0.347942
0.350149
0.352607
0.355332
0.358337
0.361627
0.365198
0.369036
0.373114
0.377391
0.381811
0.386301
0.390772
0.395118
0.399212
0.402918
0.406075
0.408531
0.410092
0.410629
0.409867
0.407738
0.403709
0.397999
0.389254
0.378876
0.362706
0.346789
0.316985
0.297033
0.236933
0.226015
0.0871002
0.146428
0.29376
0.287465
0.29342
0.301523
0.307433
0.313276
0.31787
0.321558
0.324425
0.32673
0.328544
0.330036
0.331278
0.332365
0.333347
0.334277
0.335189
0.336114
0.337073
0.338089
0.339179
0.340364
0.341664
0.3431
0.344693
0.346467
0.348447
0.350656
0.353113
0.355836
0.358835
0.362115
0.365671
0.369487
0.373538
0.37778
0.382157
0.386598
0.391012
0.395295
0.399321
0.402956
0.406041
0.408427
0.409923
0.410401
0.409591
0.407419
0.40337
0.397636
0.38891
0.378516
0.362424
0.34646
0.316847
0.296719
0.237053
0.225617
0.0876243
0.14571
0.296304
0.288623
0.294022
0.301857
0.307648
0.313456
0.318074
0.321792
0.324704
0.327053
0.32891
0.330438
0.331712
0.332824
0.333825
0.33477
0.335691
0.336622
0.337585
0.338604
0.339697
0.340885
0.342188
0.343628
0.345225
0.347003
0.348986
0.351197
0.353654
0.356373
0.359365
0.362633
0.366172
0.369966
0.373986
0.378191
0.382523
0.386911