/*--------------------------------*- C++ -*----------------------------------*\
| =========                 |                                                 |
| \\      /  F ield         | OpenFOAM: The Open Source CFD Toolbox           |
|  \\    /   O peration     | Version:  2.4.0                                 |
|   \\  /    A nd           | Web:      www.OpenFOAM.org                      |
|    \\/     M anipulation  |                                                 |
\*---------------------------------------------------------------------------*/
FoamFile
{
    version     2.0;
    format      ascii;
    class       surfaceScalarField;
    location    "7.23";
    object      phi;
}
// * * * * * * * * * * * * * * * * * * * * * * * * * * * * * * * * * * * * * //

dimensions      [0 3 -1 0 0 0 0];

internalField   nonuniform List<scalar> 
11840
(
7.85112e-07
9.21489e-06
-2.03287e-08
8.05441e-07
-4.80749e-08
2.77462e-08
-7.30511e-08
2.49762e-08
-8.37742e-08
1.07231e-08
-8.51703e-08
1.39613e-09
-8.9125e-08
3.95462e-09
-8.86285e-08
-4.96431e-10
-9.1013e-08
2.38449e-09
-9.15501e-08
5.37063e-10
-9.42765e-08
2.7264e-09
-9.67991e-08
2.52259e-09
-1.01203e-07
4.40406e-09
-1.06381e-07
5.17751e-09
-1.1332e-07
6.93895e-09
-1.21529e-07
8.20915e-09
-1.31459e-07
9.9305e-09
-1.42909e-07
1.14498e-08
-1.56072e-07
1.3163e-08
-1.70849e-07
1.47769e-08
-1.8727e-07
1.64212e-08
-2.05202e-07
1.79322e-08
-2.2451e-07
1.9308e-08
-2.44931e-07
2.04204e-08
-2.66139e-07
2.12083e-08
-2.87715e-07
2.15759e-08
-3.09169e-07
2.14545e-08
-3.29918e-07
2.07489e-08
-3.49283e-07
1.93649e-08
-3.665e-07
1.72164e-08
-3.80737e-07
1.42369e-08
-3.91108e-07
1.03717e-08
-3.96708e-07
5.59964e-09
-3.9668e-07
-2.76599e-11
-3.90115e-07
-6.56479e-09
-3.76251e-07
-1.3864e-08
-3.54432e-07
-2.18193e-08
-3.24078e-07
-3.03538e-08
-2.84879e-07
-3.9199e-08
-2.36533e-07
-4.83468e-08
-1.79288e-07
-5.72442e-08
-1.13395e-07
-6.58937e-08
-4.04287e-08
-7.2966e-08
3.59609e-08
-7.63896e-08
1.10015e-07
-7.40546e-08
1.84397e-07
-7.43814e-08
2.56146e-07
-7.1749e-08
3.29579e-07
-7.3433e-08
3.96218e-07
-6.66391e-08
4.6709e-07
-7.08718e-08
5.22787e-07
-5.56972e-08
5.91362e-07
-6.85746e-08
6.28019e-07
-3.66578e-08
7.0034e-07
-7.23203e-08
7.05764e-07
-5.42383e-09
7.98821e-07
-9.30571e-08
7.54006e-07
4.48146e-08
9.07129e-07
-1.53123e-07
7.87293e-07
1.19836e-07
-3.99185e-07
1.9181e-06
1.72968e-05
1.02182e-07
2.62136e-06
-7.43365e-08
2.04264e-07
-1.77887e-07
1.28527e-07
-2.09728e-07
4.25639e-08
-2.27243e-07
1.89118e-08
-2.3769e-07
1.44013e-08
-2.42553e-07
4.36623e-09
-2.48749e-07
8.58067e-09
-2.53329e-07
5.11719e-09
-2.60727e-07
1.01241e-08
-2.69238e-07
1.10337e-08
-2.81381e-07
1.65469e-08
-2.96384e-07
2.0181e-08
-3.15478e-07
2.60323e-08
-3.383e-07
3.10319e-08
-3.65403e-07
3.70335e-08
-3.96612e-07
4.26582e-08
-4.32115e-07
4.86657e-08
-4.71734e-07
5.43967e-08
-5.1535e-07
6.00369e-08
-5.62568e-07
6.51506e-08
-6.12877e-07
6.96163e-08
-6.65496e-07
7.30391e-08
-7.19457e-07
7.51697e-08
-7.73583e-07
7.57024e-08
-8.26524e-07
7.43948e-08
-8.76716e-07
7.09414e-08
-9.22392e-07
6.50403e-08
-9.61605e-07
5.64297e-08
-9.92283e-07
4.49152e-08
-1.01226e-06
3.03528e-08
-1.01938e-06
1.2716e-08
-1.01148e-06
-7.9276e-09
-9.86619e-07
-3.14262e-08
-9.42933e-07
-5.75498e-08
-8.78887e-07
-8.58656e-08
-7.93177e-07
-1.16064e-07
-6.84978e-07
-1.47399e-07
-5.53706e-07
-1.79618e-07
-3.99735e-07
-2.11215e-07
-2.24278e-07
-2.41351e-07
-3.12715e-08
-2.65973e-07
1.66158e-07
-2.73819e-07
3.57607e-07
-2.65504e-07
5.47763e-07
-2.64538e-07
7.32979e-07
-2.56965e-07
9.16808e-07
-2.57262e-07
1.08923e-06
-2.39058e-07
1.26074e-06
-2.42388e-07
1.40979e-06
-2.04741e-07
1.56543e-06
-2.24213e-07
1.67926e-06
-1.50494e-07
1.82363e-06
-2.16692e-07
1.88829e-06
-7.0078e-08
2.04118e-06
-2.45952e-07
2.03976e-06
4.62327e-08
2.25668e-06
-3.70034e-07
2.17529e-06
2.0122e-07
-1.04428e-06
2.91716e-06
2.43796e-05
3.96465e-07
5.14206e-06
-4.05382e-08
6.41267e-07
-2.39367e-07
3.27355e-07
-3.02468e-07
1.05665e-07
-3.44182e-07
6.06258e-08
-3.64177e-07
3.43959e-08
-3.78122e-07
1.83111e-08
-3.89399e-07
1.98581e-08
-3.99758e-07
1.54757e-08
-4.12311e-07
2.26772e-08
-4.27418e-07
2.61415e-08
-4.47192e-07
3.63202e-08
-4.71827e-07
4.48167e-08
-5.02401e-07
5.66058e-08
-5.38949e-07
6.75799e-08
-5.81925e-07
8.00097e-08
-6.31265e-07
9.19979e-08
-6.87033e-07
1.04434e-07
-7.48967e-07
1.16331e-07
-8.16704e-07
1.27774e-07
-8.89548e-07
1.37995e-07
-9.6654e-07
1.46608e-07
-1.04635e-06
1.52847e-07
-1.12733e-06
1.56153e-07
-1.20755e-06
1.55926e-07
-1.28482e-06
1.51664e-07
-1.35665e-06
1.42772e-07
-1.42028e-06
1.28671e-07
-1.47274e-06
1.08883e-07
-1.5109e-06
8.30756e-08
-1.53158e-06
5.10355e-08
-1.53164e-06
1.27778e-08
-1.50807e-06
-3.14971e-08
-1.45816e-06
-8.1341e-08
-1.37947e-06
-1.3624e-07
-1.27005e-06
-1.95282e-07
-1.12843e-06
-2.57682e-07
-9.53857e-07
-3.21976e-07
-7.46265e-07
-3.8721e-07
-5.07045e-07
-4.50435e-07
-2.39703e-07
-5.08693e-07
4.82067e-08
-5.53882e-07
3.39605e-07
-5.65217e-07
6.26312e-07
-5.52211e-07
9.12785e-07
-5.51011e-07
1.195e-06
-5.39183e-07
1.47289e-06
-5.35153e-07
1.73813e-06
-5.04292e-07
1.99545e-06
-4.99714e-07
2.22899e-06
-4.38277e-07
2.45705e-06
-4.52273e-07
2.64538e-06
-3.38823e-07
2.84431e-06
-4.15625e-07
2.97553e-06
-2.01291e-07
3.16127e-06
-4.317e-07
3.22727e-06
-1.97611e-08
3.457e-06
-5.99769e-07
3.47148e-06
1.86742e-07
-1.77453e-06
3.80889e-06
3.05707e-05
8.13208e-07
8.13774e-06
5.24378e-08
1.40204e-06
-2.53311e-07
6.33104e-07
-3.61939e-07
2.14293e-07
-4.33776e-07
1.32463e-07
-4.68298e-07
6.89176e-08
-4.94014e-07
4.40276e-08
-5.12565e-07
3.84087e-08
-5.29921e-07
3.28321e-08
-5.48533e-07
4.12889e-08
-5.70562e-07
4.81701e-08
-5.97995e-07
6.37535e-08
-6.31858e-07
7.86798e-08
-6.73191e-07
9.79384e-08
-7.22341e-07
1.16731e-07
-7.79689e-07
1.37358e-07
-8.45206e-07
1.57514e-07
-9.18799e-07
1.78028e-07
-1.00004e-06
1.97577e-07
-1.08828e-06
2.16008e-07
-1.18243e-06
2.32146e-07
-1.28104e-06
2.45219e-07
-1.38219e-06
2.53994e-07
-1.48355e-06
2.57514e-07
-1.58245e-06
2.54824e-07
-1.6759e-06
2.45113e-07
-1.76059e-06
2.27465e-07
-1.83293e-06
2.01008e-07
-1.88911e-06
1.6507e-07
-1.92527e-06
1.19229e-07
-1.93752e-06
6.32855e-08
-1.92215e-06
-2.59475e-09
-1.87574e-06
-7.79032e-08
-1.79533e-06
-1.61751e-07
-1.67845e-06
-2.53114e-07
-1.52334e-06
-3.50395e-07
-1.32898e-06
-4.52046e-07
-1.09537e-06
-5.55584e-07
-8.23714e-07
-6.58866e-07
-5.17099e-07
-7.5705e-07
-1.81526e-07
-8.44265e-07
1.72867e-07
-9.08276e-07
5.32037e-07
-9.24387e-07
8.92733e-07
-9.12907e-07
1.25669e-06
-9.14968e-07
1.61901e-06
-9.01499e-07
1.97607e-06
-8.92216e-07
2.32046e-06
-8.48679e-07
2.65185e-06
-8.31111e-07
2.95851e-06
-7.44935e-07
3.25029e-06
-7.44049e-07
3.5031e-06
-5.91636e-07
3.75147e-06
-6.63996e-07
3.93896e-06
-3.88781e-07
4.15705e-06
-6.49784e-07
4.27646e-06
-1.3918e-07
4.52201e-06
-8.45317e-07
4.61324e-06
9.55179e-08
-2.53392e-06
4.61529e-06
3.59554e-05
1.32414e-06
1.14289e-05
2.12441e-07
2.51374e-06
-2.18536e-07
1.06408e-06
-3.86942e-07
3.827e-07
-4.95197e-07
2.40718e-07
-5.49335e-07
1.23056e-07
-5.89686e-07
8.43787e-08
-6.17744e-07
6.64669e-08
-6.43382e-07
5.84699e-08
-6.68943e-07
6.68498e-08
-6.98206e-07
7.74331e-08
-7.33263e-07
9.88103e-08
-7.75864e-07
1.21281e-07
-8.27099e-07
1.49173e-07
-8.87555e-07
1.77186e-07
-9.57538e-07
2.07341e-07
-1.03698e-06
2.36959e-07
-1.12559e-06
2.66639e-07
-1.22271e-06
2.94689e-07
-1.32729e-06
3.20594e-07
-1.43784e-06
3.42693e-07
-1.55235e-06
3.59728e-07
-1.66828e-06
3.69931e-07
-1.78267e-06
3.71894e-07
-1.89213e-06
3.64291e-07
-1.99302e-06
3.46003e-07
-2.08138e-06
3.1582e-07
-2.153e-06
2.72632e-07
-2.20359e-06
2.15662e-07
-2.22889e-06
1.44522e-07
-2.22477e-06
5.91685e-08
-2.18746e-06
-3.98995e-08
-2.11369e-06
-1.51679e-07
-2.00075e-06
-2.74686e-07
-1.84668e-06
-4.07191e-07
-1.65034e-06
-5.46734e-07
-1.41157e-06
-6.90812e-07
-1.13139e-06
-8.3577e-07
-8.12211e-07
-9.78042e-07
-4.58397e-07
-1.11086e-06
-7.72239e-08
-1.22544e-06
3.20905e-07
-1.3064e-06
7.2737e-07
-1.33085e-06
1.14266e-06
-1.3282e-06
1.5652e-06
-1.33751e-06
1.98963e-06
-1.32593e-06
2.40978e-06
-1.31237e-06
2.81898e-06
-1.25787e-06
3.21254e-06
-1.22468e-06
3.58197e-06
-1.11436e-06
3.92959e-06
-1.09167e-06
4.23948e-06
-9.01527e-07
4.53288e-06
-9.57399e-07
4.77016e-06
-6.26055e-07
5.01955e-06
-8.99173e-07
5.18321e-06
-3.02844e-07
5.44595e-06
-1.10806e-06
5.5964e-06
-5.49256e-08
-3.28297e-06
5.34676e-06
4.06087e-05
1.90184e-06
1.48738e-05
4.47635e-07
3.96794e-06
-1.33891e-07
1.64561e-06
-3.7631e-07
6.25119e-07
-5.27611e-07
3.92019e-07
-6.06595e-07
2.0204e-07
-6.64633e-07
1.42417e-07
-7.04494e-07
1.06327e-07
-7.39769e-07
9.37456e-08
-7.7317e-07
1.00251e-07
-8.09973e-07
1.14236e-07
-8.52556e-07
1.41393e-07
-9.0332e-07
1.72046e-07
-9.63465e-07
2.09318e-07
-1.03375e-06
2.47473e-07
-1.1144e-06
2.87991e-07
-1.20524e-06
3.27796e-07
-1.30571e-06
3.67115e-07
-1.41485e-06
4.03823e-07
-1.5312e-06
4.36942e-07
-1.65277e-06
4.64264e-07
-1.77701e-06
4.83974e-07
-1.90083e-06
4.93744e-07
-2.02065e-06
4.91717e-07
-2.13259e-06
4.76236e-07
-2.23253e-06
4.45943e-07
-2.31614e-06
3.99426e-07
-2.37897e-06
3.35462e-07
-2.41662e-06
2.53313e-07
-2.42488e-06
1.52785e-07
-2.39987e-06
3.41527e-08
-2.33818e-06
-1.01586e-07
-2.23702e-06
-2.52842e-07
-2.09423e-06
-4.17468e-07
-1.90848e-06
-5.92948e-07
-1.67929e-06
-7.75923e-07
-1.40719e-06
-9.62909e-07
-1.09385e-06
-1.14911e-06
-7.42351e-07
-1.32954e-06
-3.57493e-07
-1.49572e-06
5.331e-08
-1.63624e-06
4.80694e-07
-1.73379e-06
9.2045e-07
-1.77061e-06
1.37462e-06
-1.78238e-06
1.83901e-06
-1.80189e-06
2.30821e-06
-1.79513e-06
2.77471e-06
-1.77887e-06
3.23276e-06
-1.71592e-06
3.6747e-06
-1.66662e-06
4.09486e-06
-1.53452e-06
4.48913e-06
-1.48594e-06
4.84876e-06
-1.26117e-06
5.18243e-06
-1.29106e-06
5.46574e-06
-9.09365e-07
5.7448e-06
-1.17823e-06
5.94925e-06
-5.07297e-07
6.22843e-06
-1.38724e-06
6.42675e-06
-2.53238e-07
-3.99476e-06
6.0088e-06
4.45999e-05
2.52338e-06
1.83592e-05
7.56393e-07
5.73493e-06
-2.60366e-09
2.4046e-06
-3.28863e-07
9.51378e-07
-5.30107e-07
5.93264e-07
-6.39343e-07
3.11275e-07
-7.18328e-07
2.21402e-07
-7.7237e-07
1.60369e-07
-8.18726e-07
1.40102e-07
-8.60873e-07
1.42398e-07
-9.0552e-07
1.58882e-07
-9.55478e-07
1.91351e-07
-1.01375e-06
2.30319e-07
-1.08169e-06
2.77252e-07
-1.16017e-06
3.25955e-07
-1.24931e-06
3.77132e-07
-1.34877e-06
4.27253e-07
-1.4577e-06
4.76043e-07
-1.57476e-06
5.20889e-07
-1.69809e-06
5.6027e-07
-1.82523e-06
5.914e-07
-1.95314e-06
6.11893e-07
-2.07829e-06
6.18892e-07
-2.19673e-06
6.10151e-07
-2.30428e-06
5.83786e-07
-2.39665e-06
5.38315e-07
-2.46948e-06
4.72258e-07
-2.51843e-06
3.84415e-07
-2.53935e-06
2.74227e-07
-2.52837e-06
1.41811e-07
-2.48208e-06
-1.21392e-08
-2.39758e-06
-1.86089e-07
-2.27254e-06
-3.77881e-07
-2.10529e-06
-5.84719e-07
-1.89493e-06
-8.03308e-07
-1.64141e-06
-1.02944e-06
-1.34561e-06
-1.2587e-06
-1.00948e-06
-1.48524e-06
-6.36298e-07
-1.70273e-06
-2.30863e-07
-1.90116e-06
1.99819e-07
-2.06692e-06
6.47771e-07
-2.18174e-06
1.11146e-06
-2.2343e-06
1.59297e-06
-2.26389e-06
2.08636e-06
-2.29528e-06
2.5863e-06
-2.29506e-06
3.0847e-06
-2.27728e-06
3.5767e-06
-2.20791e-06
4.05302e-06
-2.14295e-06
4.51039e-06
-1.99189e-06
4.94011e-06
-1.91566e-06
5.33966e-06
-1.66071e-06
5.70661e-06
-1.65801e-06
6.03102e-06
-1.23378e-06
6.33644e-06
-1.48365e-06
6.58066e-06
-7.51511e-07
6.8737e-06
-1.68028e-06
7.11423e-06
-4.93774e-07
-4.65186e-06
6.60527e-06
4.79946e-05
3.16978e-06
2.17947e-05
1.13508e-06
7.76963e-06
1.9309e-07
3.34659e-06
-2.43335e-07
1.3878e-06
-5.01652e-07
8.51581e-07
-6.46756e-07
4.56379e-07
-7.5017e-07
3.24816e-07
-8.20886e-07
2.31085e-07
-8.79873e-07
1.99089e-07
-9.31706e-07
1.9423e-07
-9.84517e-07
2.11694e-07
-1.04166e-06
2.48499e-07
-1.10673e-06
2.95385e-07
-1.18124e-06
3.51761e-07
-1.26617e-06
4.10882e-07
-1.3615e-06
4.72469e-07
-1.46671e-06
5.32462e-07
-1.58064e-06
5.89975e-07
-1.70162e-06
6.41869e-07
-1.8274e-06
6.86046e-07
-1.95515e-06
7.19153e-07
-2.08153e-06
7.38272e-07
-2.20274e-06
7.40097e-07
-2.31468e-06
7.22099e-07
-2.41318e-06
6.82284e-07
-2.49403e-06
6.19168e-07
-2.55309e-06
5.31312e-07
-2.58631e-06
4.17639e-07
-2.58992e-06
2.77837e-07
-2.56049e-06
1.1238e-07
-2.49503e-06
-7.75998e-08
-2.39103e-06
-2.90094e-07
-2.24647e-06
-5.22431e-07
-2.06001e-06
-7.71184e-07
-1.83099e-06
-1.03233e-06
-1.55957e-06
-1.30086e-06
-1.24679e-06
-1.57148e-06
-8.94665e-07
-1.83737e-06
-5.06479e-07
-2.09091e-06
-8.68546e-08
-2.32078e-06
3.57794e-07
-2.51157e-06
8.20822e-07
-2.64477e-06
1.30198e-06
-2.71545e-06
1.80264e-06
-2.76455e-06
2.31583e-06
-2.80847e-06
2.83627e-06
-2.81551e-06
3.35573e-06
-2.79674e-06
3.86997e-06
-2.72214e-06
4.36901e-06
-2.642e-06
4.85137e-06
-2.47424e-06
5.30551e-06
-2.3698e-06
5.73383e-06
-2.08903e-06
6.1254e-06
-2.04959e-06
6.483e-06
-1.59138e-06
6.8093e-06
-1.80996e-06
7.09025e-06
-1.03246e-06
7.39296e-06
-1.98299e-06
7.67214e-06
-7.72953e-07
-5.24406e-06
7.13972e-06
5.08549e-05
3.8252e-06
2.51092e-05
1.57689e-06
1.00179e-05
4.37978e-07
4.4855e-06
-1.17805e-07
1.94359e-06
-4.4106e-07
1.17484e-06
-6.27903e-07
6.43222e-07
-7.59455e-07
4.56367e-07
-8.49486e-07
3.21116e-07
-9.22779e-07
2.72382e-07
-9.853e-07
2.56752e-07
-1.04664e-06
2.7303e-07
-1.11078e-06
3.12646e-07
-1.18191e-06
3.66507e-07
-1.26174e-06
4.31593e-07
-1.35135e-06
5.00488e-07
-1.45061e-06
5.71737e-07
-1.55882e-06
6.40674e-07
-1.67458e-06
7.05725e-07
-1.79592e-06
7.63213e-07
-1.92034e-06
8.10466e-07
-2.0448e-06
8.43617e-07
-2.16582e-06
8.59286e-07
-2.27953e-06
8.53814e-07
-2.38193e-06
8.24492e-07
-2.46896e-06
7.69319e-07
-2.53668e-06
6.86885e-07
-2.58123e-06
5.7586e-07
-2.59891e-06
4.35324e-07
-2.58631e-06
2.65234e-07
-2.54035e-06
6.64168e-08
-2.45834e-06
-1.59603e-07
-2.33803e-06
-4.10411e-07
-2.17761e-06
-6.82849e-07
-1.97591e-06
-9.72882e-07
-1.73244e-06
-1.27579e-06
-1.44745e-06
-1.58586e-06
-1.12204e-06
-1.89689e-06
-7.58233e-07
-2.20118e-06
-3.5924e-07
-2.48991e-06
7.05539e-08
-2.75058e-06
5.25364e-07
-2.96638e-06
9.99675e-07
-3.11908e-06
1.49362e-06
-3.2094e-06
2.00756e-06
-3.27849e-06
2.534e-06
-3.3349e-06
3.06773e-06
-3.34924e-06
3.60052e-06
-3.32953e-06
4.12855e-06
-3.25017e-06
4.64166e-06
-3.1551e-06
5.13953e-06
-2.97211e-06
5.60906e-06
-2.83932e-06
6.05617e-06
-2.53615e-06
6.46405e-06
-2.45746e-06
6.84558e-06
-1.97291e-06
7.18633e-06
-2.1507e-06
7.49771e-06
-1.34384e-06
7.80505e-06
-2.29033e-06
8.11793e-06
-1.08583e-06
-5.76735e-06
7.61599e-06
5.32389e-05
4.47647e-06
2.82488e-05
2.07304e-06
1.24214e-05
7.37663e-07
5.82088e-06
4.98174e-08
2.63143e-06
-3.47008e-07
1.57166e-06
-5.81734e-07
8.77949e-07
-7.45358e-07
6.19991e-07
-8.57521e-07
4.33279e-07
-9.46948e-07
3.6181e-07
-1.02126e-06
3.3106e-07
-1.09155e-06
3.43326e-07
-1.16256e-06
3.83648e-07
-1.23905e-06
4.43e-07
-1.32302e-06
5.15568e-07
-1.41567e-06
5.93136e-07
-1.51682e-06
6.72889e-07
-1.62565e-06
7.49499e-07
-1.74057e-06
8.20645e-07
-1.85948e-06
8.82122e-07
-1.97972e-06
9.30712e-07
-2.09821e-06
9.621e-07
-2.21144e-06
9.72519e-07
-2.31567e-06
9.58043e-07
-2.40704e-06
9.15859e-07
-2.48174e-06
8.44019e-07
-2.53608e-06
7.41229e-07
-2.56651e-06
6.06287e-07
-2.56963e-06
4.38442e-07
-2.5423e-06
2.37905e-07
-2.48171e-06
5.83512e-09
-2.3854e-06
-2.55915e-07
-2.25125e-06
-5.44568e-07
-2.07762e-06
-8.5648e-07
-1.86346e-06
-1.18704e-06
-1.60838e-06
-1.53087e-06
-1.31269e-06
-1.88155e-06
-9.77514e-07
-2.23206e-06
-6.04849e-07
-2.57384e-06
-1.97817e-07
-2.89694e-06
2.39451e-07
-3.18784e-06
7.01771e-07
-3.4287e-06
1.18453e-06
-3.60184e-06
1.68771e-06
-3.71258e-06
2.2106e-06
-3.80138e-06
2.74554e-06
-3.86984e-06
3.28738e-06
-3.89107e-06
3.82801e-06
-3.87017e-06
4.36387e-06
-3.78603e-06
4.88484e-06
-3.67607e-06
5.39136e-06
-3.47863e-06
5.86954e-06
-3.3175e-06
6.32767e-06
-2.99428e-06
6.74507e-06
-2.87487e-06
7.14213e-06
-2.36997e-06
7.49137e-06
-2.49994e-06
7.82533e-06
-1.6778e-06
8.13265e-06
-2.59764e-06
8.47208e-06
-1.42527e-06
-6.22299e-06
8.03813e-06
5.52008e-05
5.11288e-06
3.1174e-05
2.61342e-06
1.49208e-05
1.09172e-06
7.34258e-06
2.60838e-07
3.46232e-06
-2.18056e-07
2.05056e-06
-5.07079e-07
1.16697e-06
-7.06924e-07
8.19836e-07
-8.44241e-07
5.70597e-07
-9.5181e-07
4.69378e-07
-1.03914e-06
4.18395e-07
-1.11896e-06
4.23144e-07
-1.19679e-06
4.61473e-07
-1.2781e-06
5.24308e-07
-1.36521e-06
6.02679e-07
-1.45951e-06
6.87442e-07
-1.56087e-06
7.74246e-07
-1.66842e-06
8.57049e-07
-1.78051e-06
9.32737e-07
-1.89499e-06
9.96601e-07
-2.00918e-06
1.0449e-06
-2.12003e-06
1.07295e-06
-2.22414e-06
1.07663e-06
-2.31793e-06
1.05183e-06
-2.39775e-06
9.95678e-07
-2.46003e-06
9.06301e-07
-2.50134e-06
7.82539e-07
-2.51838e-06
6.2332e-07
-2.50798e-06
4.2805e-07
-2.46726e-06
1.97181e-07
-2.39359e-06
-6.78316e-08
-2.28465e-06
-3.64859e-07
-2.13844e-06
-6.90777e-07
-1.95346e-06
-1.04146e-06
-1.72876e-06
-1.41174e-06
-1.46402e-06
-1.79562e-06
-1.15959e-06
-2.18598e-06
-8.16612e-07
-2.57504e-06
-4.37048e-07
-2.95341e-06
-2.39232e-08
-3.31006e-06
4.18886e-07
-3.63065e-06
8.86726e-07
-3.89654e-06
1.37568e-06
-4.09079e-06
1.8853e-06
-4.2222e-06
2.41386e-06
-4.32995e-06
2.95375e-06
-4.40973e-06
3.49988e-06
-4.43721e-06
4.04434e-06
-4.41463e-06
4.58372e-06
-4.32541e-06
5.10809e-06
-4.20044e-06
5.61834e-06
-3.98889e-06
6.10027e-06
-3.79943e-06
6.5637e-06
-3.4577e-06
6.98551e-06
-3.29668e-06
7.39138e-06
-2.77583e-06
7.74437e-06
-2.85294e-06
8.09338e-06
-2.02681e-06
8.39708e-06
-2.90135e-06
8.75499e-06
-1.78317e-06
-6.61579e-06
8.41038e-06
5.67904e-05
5.7259e-06
3.38585e-05
3.18724e-06
1.74595e-05
1.49821e-06
9.03161e-06
5.18232e-07
4.4423e-06
-5.28327e-08
2.62162e-06
-4.02644e-07
1.51678e-06
-6.43059e-07
1.06025e-06
-8.0879e-07
7.36327e-07
-9.36714e-07
5.97302e-07
-1.0385e-06
5.20176e-07
-1.12857e-06
5.13223e-07
-1.21337e-06
5.46271e-07
-1.29915e-06
6.10088e-07
-1.38866e-06
6.92182e-07
-1.48358e-06
7.8236e-07
-1.58388e-06
8.74555e-07
-1.6888e-06
9.6196e-07
-1.79668e-06
1.04062e-06
-1.90541e-06
1.10534e-06
-2.01239e-06
1.15188e-06
-2.11465e-06
1.17521e-06
-2.20898e-06
1.17095e-06
-2.29195e-06
1.13481e-06
-2.36016e-06
1.06388e-06
-2.41025e-06
9.56389e-07
-2.43901e-06
8.11304e-07
-2.44336e-06
6.27672e-07
-2.42036e-06
4.05049e-07
-2.36729e-06
1.4411e-07
-2.28168e-06
-1.53437e-07
-2.16132e-06
-4.85219e-07
-2.00434e-06
-8.47759e-07
-1.80934e-06
-1.23645e-06
-1.57547e-06
-1.64562e-06
-1.30245e-06
-2.06864e-06
-9.90673e-07
-2.49776e-06
-6.41309e-07
-2.9244e-06
-2.56282e-07
-3.33843e-06
1.61488e-07
-3.72783e-06
6.08362e-07
-4.07753e-06
1.08014e-06
-4.36832e-06
1.57341e-06
-4.58406e-06
2.08719e-06
-4.73599e-06
2.61886e-06
-4.86161e-06
3.16094e-06
-4.95182e-06
3.70848e-06
-4.98474e-06
4.25374e-06
-4.95988e-06
4.79344e-06
-4.86511e-06
5.3179e-06
-4.7249e-06
5.82829e-06
-4.49928e-06
6.31039e-06
-4.28152e-06
6.77493e-06
-3.92225e-06
7.19738e-06
-3.71913e-06
7.60699e-06
-3.18544e-06
7.96017e-06
-3.20611e-06
8.31796e-06
-2.38461e-06
8.61559e-06
-3.19898e-06
8.98436e-06
-2.15194e-06
-6.95214e-06
8.73701e-06
5.80534e-05
6.30905e-06
3.62865e-05
3.78362e-06
1.99849e-05
1.9536e-06
1.08616e-05
8.23173e-07
5.57272e-06
1.51283e-07
3.29351e-06
-2.67006e-07
1.93507e-06
-5.52519e-07
1.34576e-06
-7.50185e-07
9.33993e-07
-9.00911e-07
7.48029e-07
-1.01879e-06
6.38057e-07
-1.1201e-06
6.14535e-07
-1.21227e-06
6.38433e-07
-1.30244e-06
7.00264e-07
-1.3939e-06
7.83642e-07
-1.48875e-06
8.77205e-07
-1.58716e-06
9.72974e-07
-1.68853e-06
1.06332e-06
-1.7913e-06
1.1434e-06
-1.89348e-06
1.20751e-06
-1.99256e-06
1.25096e-06
-2.08574e-06
1.26839e-06
-2.16996e-06
1.25518e-06
-2.24203e-06
1.20689e-06
-2.29873e-06
1.12058e-06
-2.33692e-06
9.94582e-07
-2.3536e-06
8.27983e-07
-2.34587e-06
6.19941e-07
-2.31097e-06
3.70146e-07
-2.24634e-06
7.94819e-08
-2.14964e-06
-2.50137e-07
-2.01876e-06
-6.16103e-07
-1.85194e-06
-1.01458e-06
-1.64789e-06
-1.4405e-06
-1.40583e-06
-1.88768e-06
-1.12555e-06
-2.34891e-06
-8.07487e-07
-2.81582e-06
-4.5281e-07
-3.27908e-06
-6.34231e-08
-3.72782e-06
3.57858e-07
-4.14911e-06
8.0761e-07
-4.52728e-06
1.282e-06
-4.84271e-06
1.778e-06
-5.08005e-06
2.29404e-06
-5.25203e-06
2.82673e-06
-5.39431e-06
3.36883e-06
-5.49392e-06
3.91547e-06
-5.53139e-06
4.45917e-06
-5.50358e-06
4.99673e-06
-5.40267e-06
5.51876e-06
-5.24694e-06
6.02659e-06
-5.00711e-06
6.50614e-06
-4.76108e-06
6.96872e-06
-4.38482e-06
7.38898e-06
-4.1394e-06
7.79858e-06
-3.59504e-06
8.14929e-06
-3.55682e-06
8.51097e-06
-2.74629e-06
8.80092e-06
-3.48893e-06
9.17417e-06
-2.5252e-06
-7.23862e-06
9.02226e-06
5.90311e-05
6.85762e-06
3.84511e-05
4.39202e-06
2.24505e-05
2.45286e-06
1.28008e-05
1.1762e-06
6.84939e-06
3.95383e-07
4.07433e-06
-9.83848e-08
2.42884e-06
-4.3389e-07
1.68127e-06
-6.67299e-07
1.1674e-06
-8.43529e-07
9.24259e-07
-9.79426e-07
7.73953e-07
-1.09321e-06
7.2832e-07
-1.19341e-06
7.38627e-07
-1.28819e-06
7.95052e-07
-1.38148e-06
8.76932e-07
-1.4759e-06
9.71617e-07
-1.57193e-06
1.06901e-06
-1.66919e-06
1.16059e-06
-1.76632e-06
1.24052e-06
-1.86145e-06
1.30264e-06
-1.95225e-06
1.34175e-06
-2.03609e-06
1.35223e-06
-2.1101e-06
1.32919e-06
-2.1713e-06
1.26808e-06
-2.21665e-06
1.16593e-06
-2.24323e-06
1.02116e-06
-2.24822e-06
8.32968e-07
-2.22888e-06
6.00603e-07
-2.18262e-06
3.23886e-07
-2.10703e-06
3.88949e-09
-1.99986e-06
-3.57301e-07
-1.85912e-06
-7.56845e-07
-1.68316e-06
-1.19053e-06
-1.4708e-06
-1.65287e-06
-1.22131e-06
-2.13716e-06
-9.34566e-07
-2.63566e-06
-6.11028e-07
-3.13936e-06
-2.51889e-07
-3.63822e-06
1.40973e-07
-4.12068e-06
5.64841e-07
-4.57298e-06
1.01648e-06
-4.97891e-06
1.49235e-06
-5.31858e-06
1.98967e-06
-5.57738e-06
2.50635e-06
-5.76871e-06
3.03836e-06
-5.92631e-06
3.57869e-06
-6.03424e-06
4.12258e-06
-6.07528e-06
4.66281e-06
-6.04381e-06
5.19625e-06
-5.93611e-06
5.71385e-06
-5.76454e-06
6.217e-06
-5.51025e-06
6.69191e-06
-5.23598e-06
7.15015e-06
-4.84306e-06
7.56607e-06
-4.55532e-06
7.97283e-06
-4.00179e-06
8.31909e-06
-3.90308e-06
8.68093e-06
-3.10813e-06
8.96215e-06
-3.77015e-06
9.33484e-06
-2.89789e-06
-7.48116e-06
9.27024e-06
5.97609e-05
7.36851e-06
4.03528e-05
5.00258e-06
2.48165e-05
2.98969e-06
1.48137e-05
1.57675e-06
8.26233e-06
6.81281e-07
4.96979e-06
1.05096e-07
3.00502e-06
-2.85588e-07
2.07195e-06
-5.58839e-07
1.44065e-06
-7.63533e-07
1.12895e-06
-9.19655e-07
9.30075e-07
-1.04745e-06
8.56114e-07
-1.15664e-06
8.47818e-07
-1.25655e-06
8.94963e-07
-1.35184e-06
9.72217e-07
-1.44575e-06
1.06553e-06
-1.53918e-06
1.16244e-06
-1.63207e-06
1.25347e-06
-1.72325e-06
1.33171e-06
-1.81108e-06
1.39047e-06
-1.8934e-06
1.42407e-06
-1.96779e-06
1.42661e-06
-2.03157e-06
1.39298e-06
-2.08197e-06
1.31848e-06
-2.11615e-06
1.20011e-06
-2.13137e-06
1.03638e-06
-2.12498e-06
8.26576e-07
-2.09441e-06
5.70033e-07
-2.03721e-06
2.6669e-07
-1.95111e-06
-8.22151e-08
-1.83396e-06
-4.7445e-07
-1.68387e-06
-9.06932e-07
-1.49932e-06
-1.37508e-06
-1.27921e-06
-1.87299e-06
-1.0229e-06
-2.39347e-06
-7.30314e-07
-2.92824e-06
-4.01966e-07
-3.46771e-06
-3.90617e-08
-4.00112e-06
3.5654e-07
-4.51628e-06
7.82212e-07
-4.99865e-06
1.23487e-06
-5.43157e-06
1.71121e-06
-5.79493e-06
2.20864e-06
-6.07481e-06
2.72456e-06
-6.28462e-06
3.25443e-06
-6.45618e-06
3.79147e-06
-6.57128e-06
4.33107e-06
-6.61488e-06
4.86625e-06
-6.57899e-06
5.39395e-06
-6.46382e-06
5.90547e-06
-6.27606e-06
6.40222e-06
-6.00701e-06
6.87078e-06
-5.70454e-06
7.32283e-06
-5.29511e-06
7.73271e-06
-4.9652e-06
8.13446e-06
-4.40355e-06
8.47473e-06
-4.24335e-06
8.83388e-06
-3.46728e-06
9.10565e-06
-4.04191e-06
9.47393e-06
-3.26617e-06
-7.68483e-06
9.48489e-06
6.0276e-05
7.83995e-06
4.19977e-05
5.6064e-06
2.705e-05
3.55675e-06
1.68633e-05
2.02304e-06
9.79603e-06
1.01042e-06
5.98242e-06
3.4549e-07
3.66995e-06
-1.05911e-07
2.52335e-06
-4.23335e-07
1.75808e-06
-6.59692e-07
1.36531e-06
-8.38547e-07
1.10893e-06
-9.82184e-07
9.9975e-07
-1.10164e-06
9.67278e-07
-1.20748e-06
1.0008e-06
-1.3052e-06
1.06994e-06
-1.39879e-06
1.15912e-06
-1.48965e-06
1.2533e-06
-1.57808e-06
1.3419e-06
-1.66322e-06
1.41684e-06
-1.74364e-06
1.4709e-06
-1.81741e-06
1.49785e-06
-1.88233e-06
1.49153e-06
-1.93593e-06
1.44658e-06
-1.97563e-06
1.35818e-06
-1.9988e-06
1.22328e-06
-2.00287e-06
1.04046e-06
-1.98537e-06
8.0907e-07
-1.94387e-06
5.28533e-07
-1.87607e-06
1.98891e-07
-1.77981e-06
-1.78476e-07
-1.65305e-06
-6.01205e-07
-1.49403e-06
-1.06596e-06
-1.30132e-06
-1.56779e-06
-1.07392e-06
-2.10039e-06
-8.11275e-07
-2.65612e-06
-5.13374e-07
-3.22614e-06
-1.80769e-07
-3.80031e-06
1.85311e-07
-4.3672e-06
5.83025e-07
-4.914e-06
1.00982e-06
-5.42545e-06
1.46273e-06
-5.88448e-06
1.93865e-06
-6.27085e-06
2.43508e-06
-6.57124e-06
2.949e-06
-6.79854e-06
3.47547e-06
-6.98265e-06
4.00795e-06
-7.10376e-06
4.54192e-06
-7.14886e-06
5.07069e-06
-7.10775e-06
5.59128e-06
-6.98441e-06
6.09532e-06
-6.78009e-06
6.58425e-06
-6.49594e-06
7.04504e-06
-6.16532e-06
7.48938e-06
-5.73945e-06
7.89181e-06
-5.36762e-06
8.28684e-06
-4.79858e-06
8.61989e-06
-4.5764e-06
8.97415e-06
-3.82154e-06
9.23593e-06
-4.3037e-06
9.5969e-06
-3.62714e-06
-7.85385e-06
9.66995e-06
6.06061e-05
8.2713e-06
4.33964e-05
6.19568e-06
2.91256e-05
4.14604e-06
1.8913e-05
2.51201e-06
1.14301e-05
1.38359e-06
7.11084e-06
6.24857e-07
4.42869e-06
1.07067e-07
3.04115e-06
-2.59157e-07
2.1243e-06
-5.30576e-07
1.63673e-06
-7.34958e-07
1.31331e-06
-8.96569e-07
1.16136e-06
-1.02787e-06
1.09858e-06
-1.14071e-06
1.11364e-06
-1.24156e-06
1.17078e-06
-1.33525e-06
1.25281e-06
-1.42375e-06
1.3418e-06
-1.50783e-06
1.42598e-06
-1.58695e-06
1.49596e-06
-1.65999e-06
1.54393e-06
-1.72524e-06
1.5631e-06
-1.78073e-06
1.54702e-06
-1.82423e-06
1.49008e-06
-1.85335e-06
1.38731e-06
-1.86567e-06
1.2356e-06
-1.85879e-06
1.03358e-06
-1.8304e-06
7.80679e-07
-1.77822e-06
4.76355e-07
-1.7001e-06
1.20765e-07
-1.59397e-06
-2.84604e-07
-1.45792e-06
-7.37255e-07
-1.2903e-06
-1.23358e-06
-1.08979e-06
-1.76829e-06
-8.55494e-07
-2.33469e-06
-5.8693e-07
-2.92468e-06
-2.84155e-07
-3.52892e-06
5.22295e-08
-4.1367e-06
4.20976e-07
-4.73595e-06
8.20252e-07
-5.31328e-06
1.24756e-06
-5.85276e-06
1.70003e-06
-6.33696e-06
2.17471e-06
-6.74553e-06
2.66915e-06
-7.06567e-06
3.17997e-06
-7.30936e-06
3.70194e-06
-7.50462e-06
4.22871e-06
-7.63053e-06
4.75591e-06
-7.67606e-06
5.27709e-06
-7.62893e-06
5.78936e-06
-7.49669e-06
6.28471e-06
-7.27544e-06
6.76458e-06
-6.97581e-06
7.21637e-06
-6.61712e-06
7.65172e-06
-6.1748e-06
8.04551e-06
-5.76141e-06
8.43242e-06
-5.18549e-06
8.75723e-06
-4.9012e-06
9.10485e-06
-4.16917e-06
9.35622e-06
-4.55507e-06
9.70767e-06
-3.97859e-06
-7.99166e-06
9.82892e-06
6.07771e-05
8.66288e-06
4.45624e-05
6.76385e-06
3.10247e-05
4.74923e-06
2.09276e-05
3.03929e-06
1.314e-05
1.80075e-06
8.34938e-06
9.44878e-07
5.28456e-06
3.55257e-07
3.63077e-06
-6.44725e-08
2.54403e-06
-3.74563e-07
1.94682e-06
-6.07521e-07
1.54627e-06
-7.8951e-07
1.34335e-06
-9.34519e-07
1.24359e-06
-1.05574e-06
1.23486e-06
-1.16066e-06
1.27571e-06
-1.25508e-06
1.34723e-06
-1.34162e-06
1.42834e-06
-1.42161e-06
1.50597e-06
-1.49489e-06
1.56925e-06
-1.56066e-06
1.60971e-06
-1.6175e-06
1.61993e-06
-1.66367e-06
1.59319e-06
-1.69719e-06
1.52359e-06
-1.71588e-06
1.406e-06
-1.7175e-06
1.23722e-06
-1.69986e-06
1.01594e-06
-1.66079e-06
7.41605e-07
-1.59816e-06
4.13721e-07
-1.50994e-06
3.25447e-08
-1.39419e-06
-4.00348e-07
-1.24912e-06
-8.82332e-07
-1.07318e-06
-1.40951e-06
-8.65195e-07
-1.97628e-06
-6.24333e-07
-2.57555e-06
-3.50211e-07
-3.1988e-06
-4.29521e-08
-3.83617e-06
2.96792e-07
-4.47644e-06
6.67752e-07
-5.10691e-06
1.06809e-06
-5.71362e-06
1.49536e-06
-6.28002e-06
1.94676e-06
-6.78836e-06
2.41944e-06
-7.21821e-06
2.91097e-06
-7.5572e-06
3.4177e-06
-7.81609e-06
3.93418e-06
-8.0211e-06
4.45424e-06
-8.1506e-06
4.97363e-06
-8.19545e-06
5.48617e-06
-8.14146e-06
5.98906e-06
-7.99958e-06
6.47463e-06
-7.76101e-06
6.94435e-06
-7.44553e-06
7.38607e-06
-7.05884e-06
7.81131e-06
-6.60004e-06
8.19542e-06
-6.14553e-06
8.57303e-06
-5.56309e-06
8.8887e-06
-5.21688e-06
9.22828e-06
-4.50875e-06
9.46886e-06
-4.79564e-06
9.80913e-06
-4.31886e-06
-8.10109e-06
9.96506e-06
6.08121e-05
9.01576e-06
4.55117e-05
7.30556e-06
3.27349e-05
5.358e-06
2.28751e-05
3.5994e-06
1.48986e-05
2.26082e-06
9.68796e-06
1.30679e-06
6.23859e-06
6.40478e-07
4.29707e-06
1.62647e-07
3.02186e-06
-1.89878e-07
2.29934e-06
-4.5467e-07
1.81106e-06
-6.5968e-07
1.54836e-06
-8.20546e-07
1.40445e-06
-9.51779e-07
1.3661e-06
-1.06198e-06
1.38591e-06
-1.15796e-06
1.44321e-06
-1.24313e-06
1.51352e-06
-1.31944e-06
1.58227e-06
-1.38717e-06
1.63699e-06
-1.44591e-06
1.66844e-06
-1.49451e-06
1.66854e-06
-1.53154e-06
1.63022e-06
-1.55523e-06
1.54728e-06
-1.56365e-06
1.41442e-06
-1.55477e-06
1.22833e-06
-1.52655e-06
9.87725e-07
-1.47699e-06
6.92049e-07
-1.40411e-06
3.40841e-07
-1.30601e-06
-6.55531e-08
-1.18088e-06
-5.25484e-07
-1.02702e-06
-1.03619e-06
-8.43036e-07
-1.5935e-06
-6.27845e-07
-2.19147e-06
-3.80721e-07
-2.82267e-06
-1.01367e-07
-3.47816e-06
2.10025e-07
-4.14757e-06
5.52751e-07
-4.81917e-06
9.25514e-07
-5.47967e-06
1.32646e-06
-6.11457e-06
1.75317e-06
-6.70672e-06
2.2029e-06
-7.23809e-06
2.67288e-06
-7.6882e-06
3.16068e-06
-8.045e-06
3.66242e-06
-8.31783e-06
4.1725e-06
-8.53118e-06
4.68494e-06
-8.66304e-06
5.19559e-06
-8.7061e-06
5.69852e-06
-8.64439e-06
6.19106e-06
-8.49212e-06
6.66588e-06
-8.23583e-06
7.12445e-06
-7.90411e-06
7.55512e-06
-7.48951e-06
7.96926e-06
-7.01418e-06
8.34277e-06
-6.51904e-06
8.71004e-06
-5.93037e-06
9.0158e-06
-5.52263e-06
9.34616e-06
-4.83911e-06
9.57558e-06
-5.02507e-06
9.90339e-06
-4.64666e-06
-8.18447e-06
1.00814e-05
6.07307e-05
9.3316e-06
4.62615e-05
7.81669e-06
3.42498e-05
5.96434e-06
2.47275e-05
4.18588e-06
1.66771e-05
2.76158e-06
1.11123e-05
1.71122e-06
7.28895e-06
9.64497e-07
5.04379e-06
4.24264e-07
3.5621e-06
2.5322e-08
2.69829e-06
-2.74668e-07
2.11105e-06
-5.05529e-07
1.77922e-06
-6.84659e-07
1.58358e-06
-8.27807e-07
1.50925e-06
-9.44727e-07
1.50283e-06
-1.04334e-06
1.54183e-06
-1.12792e-06
1.5981e-06
-1.2011e-06
1.65545e-06
-1.26371e-06
1.6996e-06
-1.31573e-06
1.72046e-06
-1.35638e-06
1.70919e-06
-1.38449e-06
1.65833e-06
-1.39857e-06
1.56136e-06
-1.39693e-06
1.41278e-06
-1.37773e-06
1.20913e-06
-1.33913e-06
9.4913e-07
-1.27929e-06
6.32211e-07
-1.19637e-06
2.5792e-07
-1.0886e-06
-1.73321e-07
-9.54291e-07
-6.59798e-07
-7.91878e-07
-1.1986e-06
-6.00091e-07
-1.78528e-06
-3.77957e-07
-2.41361e-06
-1.24852e-07
-3.07578e-06
1.59433e-07
-3.76244e-06
4.74637e-07
-4.46277e-06
8.19997e-07
-5.16453e-06
1.19417e-06
-5.85385e-06
1.5953e-06
-6.51569e-06
2.02095e-06
-7.13238e-06
2.46846e-06
-7.68559e-06
2.93509e-06