/*--------------------------------*- C++ -*----------------------------------*\
| =========                 |                                                 |
| \\      /  F ield         | OpenFOAM: The Open Source CFD Toolbox           |
|  \\    /   O peration     | Version:  2.4.0                                 |
|   \\  /    A nd           | Web:      www.OpenFOAM.org                      |
|    \\/     M anipulation  |                                                 |
\*---------------------------------------------------------------------------*/
FoamFile
{
    version     2.0;
    format      ascii;
    class       volScalarField;
    location    "1.4";
    object      k;
}
// * * * * * * * * * * * * * * * * * * * * * * * * * * * * * * * * * * * * * //

dimensions      [0 2 -2 0 0 0 0];

internalField   nonuniform List<scalar> 
5625
(
0.0107767
0.00649784
0.00357555
0.00258584
0.0023727
0.00214249
0.00205091
0.00197717
0.00195674
0.00192893
0.00189431
0.00183218
0.00177728
0.00178727
0.00191026
0.00210753
0.0023551
0.00261411
0.00285915
0.00307004
0.00323766
0.00335019
0.00341641
0.00344071
0.00339931
0.00331136
0.00318634
0.00301797
0.00282893
0.00263499
0.00245805
0.00234696
0.00236698
0.00240767
0.00245058
0.00249151
0.00252661
0.00254843
0.0025535
0.00254316
0.00251636
0.00246739
0.0023921
0.00230941
0.00223172
0.00216128
0.00211465
0.00208461
0.00208064
0.00208304
0.00210317
0.00212921
0.00217968
0.00221759
0.00228577
0.00233625
0.0024237
0.00248821
0.00259802
0.00268112
0.00281974
0.00292754
0.00310193
0.00324437
0.00346706
0.0036586
0.00394789
0.00421132
0.00459614
0.00497034
0.00549912
0.00605501
0.00679463
0.00800497
0.00719998
0.0102419
0.01265
0.00961765
0.00677092
0.00544442
0.0046207
0.00424252
0.00401279
0.00392396
0.00384404
0.00373913
0.00355662
0.00332673
0.00313074
0.00306697
0.00310368
0.00326073
0.00348603
0.00375154
0.00403571
0.00432348
0.00461261
0.00489343
0.0051404
0.00532591
0.00544751
0.00551843
0.00550318
0.00539978
0.00524855
0.00508204
0.0049342
0.00481506
0.00471389
0.00462497
0.00454373
0.00445764
0.00435896
0.00422961
0.0040846
0.00389087
0.00368931
0.00343201
0.00319506
0.00291267
0.00268895
0.00243378
0.00227075
0.00208093
0.00199256
0.00187317
0.00183722
0.00177051
0.00176137
0.00173464
0.00173857
0.00173231
0.00174625
0.00175545
0.00178151
0.0017979
0.0018371
0.00186132
0.00191405
0.00194862
0.0020185
0.00206732
0.00216514
0.00223361
0.00237531
0.00247044
0.0026869
0.00281457
0.00305622
0.00434098
0.00987575
0.0140413
0.0126067
0.00975558
0.00773249
0.00643235
0.00577994
0.00539969
0.00524303
0.00514831
0.00505603
0.00489411
0.00468105
0.00447611
0.00436032
0.00434784
0.00444383
0.00461685
0.00483848
0.00509093
0.00536448
0.00565646
0.00595723
0.0062437
0.00649161
0.00666203
0.00675602
0.0067608
0.00665449
0.0064831
0.00628447
0.00609328
0.00592347
0.00577777
0.00565116
0.00553776
0.00542023
0.0052933
0.00513308
0.00495206
0.0047159
0.00446149
0.00414718
0.00383986
0.00348664
0.00317976
0.00284995
0.00260309
0.00234895
0.00219111
0.00202507
0.00194091
0.00184208
0.00180273
0.00175038
0.00173306
0.00170605
0.00170311
0.00170112
0.001708
0.00171256
0.00172759
0.00174568
0.00176475
0.00180036
0.00182614
0.00188199
0.0019195
0.00200192
0.00206335
0.00217562
0.00230792
0.00245398
0.00282245
0.00377348
0.00955535
0.0140272
0.0141596
0.0121605
0.00980255
0.00808783
0.00714334
0.00658934
0.00634461
0.00622389
0.0061455
0.00601966
0.00584553
0.00565756
0.00551325
0.00545167
0.00547495
0.00557302
0.00572564
0.0059194
0.0061494
0.00641183
0.00669751
0.00698375
0.00724293
0.00742772
0.00752647
0.00753116
0.007417
0.00722847
0.00700477
0.00678332
0.00658362
0.00641367
0.00626921
0.00614303
0.00601624
0.00588126
0.00571354
0.00551993
0.00526965
0.00499146
0.00465275
0.00430806
0.00392096
0.0035662
0.00319851
0.0028999
0.00261028
0.00240589
0.00221281
0.00209478
0.00197828
0.00191911
0.00185496
0.00182656
0.00179091
0.00178164
0.00177557
0.00177945
0.00178183
0.00179376
0.00181332
0.00182938
0.00187062
0.00189554
0.00196113
0.00200019
0.00210017
0.00216745
0.00231599
0.00246884
0.00268139
0.0034895
0.00382384
0.00927171
0.0136194
0.015073
0.0139759
0.0117663
0.00974339
0.00850025
0.00774759
0.00739011
0.00722677
0.00715526
0.00706727
0.00693675
0.00677223
0.00661253
0.00649448
0.00644466
0.00645753
0.00652931
0.00665172
0.00682159
0.00703777
0.00728787
0.00754994
0.00779248
0.00796404
0.00805212
0.00803833
0.00790835
0.0077021
0.00745785
0.00721533
0.00699767
0.00681527
0.0066649
0.00653801
0.00641483
0.00628426
0.00612206
0.00592952
0.00567946
0.00539252
0.00504401
0.00467778
0.00427106
0.00388469
0.00349193
0.00315722
0.00284219
0.00260388
0.00239023
0.0022466
0.00211678
0.00204199
0.00197069
0.00193403
0.0018941
0.00188168
0.00187426
0.0018781
0.00188084
0.0018963
0.00191477
0.00194098
0.00198292
0.0020205
0.00209288
0.00215072
0.00226248
0.00236677
0.00253383
0.00274907
0.00302552
0.00413194
0.00414326
0.00901696
0.0128342
0.0154236
0.0152341
0.0135732
0.0114123
0.00989941
0.00893245
0.00843797
0.00821258
0.00813658
0.00808293
0.00799732
0.00786197
0.00769444
0.00752914
0.00740396
0.0073301
0.00731538
0.0073588
0.00745607
0.00761045
0.0078065
0.00802217
0.00822267
0.00835498
0.00841279
0.00836108
0.00820241
0.00797151
0.0077084
0.00745223
0.00722658
0.00704225
0.00689703
0.0067817
0.00667351
0.00655798
0.00641174
0.00623125
0.00599212
0.00570757
0.00535915
0.00498205
0.00456415
0.00415604
0.00374486
0.00338294
0.00304744
0.00278243
0.0025513
0.00238679
0.00224544
0.00215731
0.00208021
0.00203651
0.00199403
0.00197918
0.0019717
0.0019756
0.00197973
0.00199968
0.00201775
0.00205606
0.0020967
0.00215289
0.00222609
0.00231104
0.00242781
0.00257514
0.00275587
0.0030411
0.00337438
0.00467258
0.00455924
0.00878584
0.0119682
0.0153151
0.0160952
0.0150762
0.0130547
0.0113427
0.0101649
0.00951477
0.00920724
0.0091124
0.009086
0.00904436
0.00894434
0.0087799
0.00857853
0.00838407
0.00822559
0.0081203
0.0080819
0.00809796
0.00817592
0.00830103
0.00844918
0.00858211
0.00865463
0.00865659
0.00854535
0.00834075
0.00807895
0.00779996
0.00753562
0.00730812
0.00712757
0.00699261
0.00689604
0.0068143
0.00672622
0.00660637
0.00644772
0.00622883
0.00595628
0.00561616
0.0052368
0.00481417
0.00439156
0.0039666
0.00358352
0.0032308
0.00294383
0.0026972
0.00251495
0.00236311
0.00226331
0.00218081
0.002131
0.00208661
0.00206994
0.00206288
0.0020669
0.00207275
0.00209684
0.00211666
0.00216495
0.00220584
0.00228047
0.00235407
0.0024667
0.00258808
0.00277676
0.00297205
0.00332623
0.0037107
0.00515139
0.00497601
0.00857386
0.0111055
0.0149094
0.0165566
0.0162211
0.0146105
0.0128073
0.0114469
0.0106327
0.010224
0.0100943
0.0100855
0.0100851
0.010026
0.00987663
0.00965321
0.00940149
0.00916512
0.00897475
0.00884638
0.00877829
0.0087685
0.00880678
0.00886748
0.00891026
0.00890855
0.00882242
0.00863292
0.00837363
0.00807664
0.00777406
0.00750066
0.00727433
0.00710219
0.00698301
0.00690831
0.00685576
0.00679928
0.00671616
0.00659055
0.00640059
0.00614888
0.00582459
0.00545059
0.00502891
0.00459778
0.00416292
0.00376326
0.00339591
0.00309046
0.00282989
0.0026322
0.00247063
0.00236047
0.00227275
0.00221749
0.00217149
0.00215334
0.00214696
0.00215118
0.00215891
0.00218679
0.00220968
0.00226617
0.0023095
0.00240027
0.00247605
0.00261451
0.00274184
0.00296883
0.00318127
0.00360054
0.00403212
0.0055852
0.00536785
0.00837783
0.0103069
0.0141863
0.0165839
0.0170502
0.0159683
0.014254
0.0127666
0.0117943
0.0112703
0.0110888
0.0110862
0.0111223
0.0111085
0.0109861
0.0107563
0.0104628
0.0101596
0.00989053
0.00967647
0.0095191
0.00941368
0.00935172
0.00930735
0.00924988
0.00914391
0.00895121
0.00866595
0.00833029
0.00797638
0.00764045
0.00735485
0.00713115
0.00697058
0.00687057
0.00682339
0.0068091
0.00679437
0.00675067
0.00666398
0.00651372
0.00629121
0.00598999
0.00562846
0.0052131
0.00477876
0.00433751
0.00392509
0.00354536
0.0032242
0.00295104
0.00273974
0.00256909
0.00244962
0.00235687
0.00229666
0.0022492
0.0022299
0.00222429
0.0022288
0.00223846
0.00226993
0.00229631
0.00236025
0.00240788
0.00251199
0.00259239
0.00275399
0.00288924
0.00315151
0.00338395
0.00386332
0.00433902
0.00598349
0.00573096
0.00819485
0.0096704
0.0132398
0.0163316
0.0175821
0.0170523
0.0156352
0.0141005
0.0129939
0.0123487
0.0120995
0.0120902
0.0121568
0.0121905
0.0121058
0.0118856
0.0115679
0.0112125
0.0108749
0.0105818
0.0103358
0.0101309
0.00995864
0.00979734
0.00962184
0.00939436
0.00907867
0.00867998
0.00824071
0.00780981
0.00742422
0.00711741
0.00689401
0.00674589
0.00666637
0.00664845
0.00667632
0.00671261
0.00671653
0.00667637
0.00657004
0.00638685
0.00611579
0.00577354
0.00536978
0.00493716
0.00449288
0.00407105
0.00368101
0.00334647
0.00306196
0.00283857
0.00265946
0.00253157
0.00243398
0.00236926
0.00232042
0.00230026
0.00229544
0.00230033
0.00231195
0.00234692
0.00237692
0.00244789
0.00250066
0.0026166
0.00270357
0.00288544
0.00303073
0.0033255
0.00357992
0.00411506
0.00463221
0.00635227
0.00606721
0.00802236
0.0091525
0.0122239
0.0157401
0.0177611
0.0178544
0.01688
0.0154156
0.0142181
0.0134569
0.0131282
0.0130986
0.0131876
0.0132692
0.0132308
0.0130355
0.0127118
0.0123211
0.0119279
0.0115652
0.0112354
0.0109304
0.0106416
0.0103531
0.0100465
0.00968551
0.00923395
0.0087046
0.00814166
0.00761129
0.00715367
0.00680925
0.00657872
0.00644122
0.00638158
0.00638979
0.00646388
0.00655746
0.0066193
0.00662872
0.00657442
0.00643664
0.00620429
0.00588793
0.00550104
0.00507481
0.00463079
0.0042026
0.00380423
0.00345834
0.00316366
0.00292949
0.00274251
0.00260699
0.00250479
0.00243595
0.0023858
0.00236504
0.00236099
0.00236634
0.00237991
0.00241832
0.00245198
0.00252973
0.00258792
0.00271494
0.00280959
0.00300967
0.00316681
0.00349135
0.00376835
0.00435686
0.00491248
0.00669564
0.00637941
0.00785847
0.00872502
0.011237
0.014892
0.0176144
0.0184156
0.0178978
0.0166717
0.0154458
0.014588
0.0141738
0.0141116
0.0142127
0.014341
0.0143551
0.0141977
0.0138857
0.0134775
0.0130435
0.0126226
0.0122165
0.0118143
0.0114059
0.0109825
0.0105354
0.0100328
0.00943678
0.00876481
0.00807254
0.00741693
0.00686191
0.00645541
0.00620314
0.0060707
0.00602772
0.00605642
0.00617775
0.00633276
0.00645841
0.00652984
0.00652624
0.0064429
0.00625648
0.00597307
0.00560831
0.00519307
0.00475257
0.00432084
0.00391605
0.00356064
0.00325691
0.00301314
0.00281888
0.00267644
0.00256987
0.00249727
0.00244589
0.00242473
0.00242143
0.00242734
0.00244284
0.00248467
0.00252196
0.00260629
0.00266997
0.00280759
0.00291029
0.00312756
0.00329721
0.00364996
0.00394926
0.00458914
0.00518037
0.00701653
0.00667016
0.00770176
0.00836734
0.0103287
0.0138952
0.0171692
0.0186845
0.0186684
0.0178156
0.0166487
0.0157295
0.0152329
0.015128
0.0152307
0.0154016
0.0154717
0.0153627
0.0150784
0.01467
0.0142104
0.0137436
0.0132706
0.0127765
0.0122488
0.0116857
0.0110912
0.0104416
0.00969605
0.00887442
0.00805323
0.0072594
0.00658618
0.00608707
0.00578908
0.00565031
0.00561799
0.00566117
0.00582353
0.00604242
0.00623692
0.00637765
0.00643558
0.00640349
0.00627286
0.00603011
0.0056927
0.00529293
0.00485922
0.00442667
0.0040173
0.00365405
0.00334236
0.00309005
0.00288909
0.00274038
0.00262971
0.00255369
0.00250115
0.0024798
0.00247719
0.00248377
0.00250114
0.00254638
0.00258727
0.00267802
0.00274716
0.00289499
0.00300582
0.00323959
0.0034219
0.00380185
0.00412282
0.00481207
0.00543625
0.0073171
0.00694158
0.00755111
0.0080636
0.00955981
0.0127994
0.0164115
0.0186206
0.0192272
0.0187653
0.017792
0.016863
0.0162983
0.0161448
0.0162397
0.0164463
0.016574
0.0165206
0.016277
0.0158846
0.0154139
0.0149134
0.0143835
0.0138049
0.0131613
0.0124568
0.0117102
0.0109095
0.0100113
0.00903518
0.00807672
0.00716776
0.00636239
0.00574218
0.00536483
0.00519924
0.00516855
0.00521885
0.00540935
0.00569112
0.00595794
0.00617365
0.00630329
0.00632569
0.00625169
0.00605902
0.00575505
0.00537522
0.00495154
0.00452078
0.00410865
0.00373913
0.00342052
0.00316066
0.00295358
0.00279919
0.00268469
0.00260557
0.002552
0.00253059
0.00252864
0.00253596
0.00255518
0.00260381
0.00264827
0.00274526
0.00281978
0.00297749
0.0030964
0.0033461
0.00354098
0.0039473
0.00428919
0.00502575
0.00568038
0.00759903
0.00719539
0.00740566
0.00780141
0.00893704
0.0116811
0.0154388
0.0182879
0.0195246
0.0194943
0.0188343
0.0179641
0.0173588
0.0171571
0.0172371
0.017471
0.0176551
0.0176616
0.0174685
0.017106
0.0166373
0.0161143
0.0155376
0.0148834
0.0141302
0.0132861
0.0123848
0.0114294
0.0103759
0.00924104
0.00814514
0.0071383
0.00621301
0.00546048
0.00496707
0.00474224
0.00469864
0.00474749
0.00494691
0.00528474
0.00562508
0.00592025
0.00612769
0.00621751
0.00619309
0.00605943
0.00579618
0.00544061
0.00503022
0.00460379
0.00419065
0.00381633
0.00349183
0.00322535
0.0030127
0.00285319
0.00273517
0.00265325
0.00259875
0.00257743
0.00257609
0.00258423
0.00260527
0.00265727
0.00270523
0.00280831
0.00288809
0.00305535
0.00318221
0.00344734
0.00365456
0.00408648
0.0044485
0.00523023
0.00591299
0.00786364
0.00743296
0.0072647
0.00757121
0.00842895
0.0106266
0.014321
0.0176201
0.0195069
0.0200237
0.0197051
0.0190029
0.0183987
0.0181577
0.0182192
0.0184712
0.0187089
0.0187766
0.0186401
0.0183187
0.0178635
0.0173276
0.0167136
0.0159935
0.0151397
0.014161
0.0131048
0.0119913
0.0107797
0.00948165
0.00824404
0.00714045
0.00613744
0.00526938
0.0046379
0.0043123
0.00423084
0.00426878
0.00445384
0.00483067
0.0052428
0.00562034
0.00591069
0.00607664
0.00610613
0.00602767
0.00581611
0.00548971
0.00509584
0.0046762
0.0042638
0.00388609
0.00355667
0.00328442
0.00306678
0.00290267
0.00278142
0.00269699
0.00264169
0.00262058
0.00261981
0.00262884
0.00265169
0.00270701
0.00275843
0.00286743
0.00295233
0.00312881
0.00326346
0.00354349
0.00376278
0.00421949
0.00460084
0.00542557
0.00613427
0.00811203
0.00765542
0.00712757
0.00736578
0.00801089
0.00969078
0.0131207
0.0167044
0.0192355
0.0203099
0.0203798
0.0199413
0.0193967
0.0191363
0.0191803
0.0194429
0.0197297
0.0198579
0.0197796
0.0195083
0.0190758
0.0185353
0.0178922
0.0171163
0.0161727
0.0150672
0.0138581
0.0125839
0.0112108
0.00974555
0.00835857
0.00716146
0.00610323
0.00516776
0.00441094
0.0039495
0.00379214
0.00380725
0.00395723
0.00433765
0.00481685
0.00527704
0.00565464
0.00590191
0.00599761
0.00596578
0.00581348
0.00552314
0.00514896
0.00473852
0.00432853
0.00394876
0.00361538
0.00333817
0.00311609
0.00294788
0.00282369
0.00273704
0.00268107
0.00266029
0.00266004
0.00266999
0.00269465
0.00275326
0.00280808
0.00292281
0.00301269
0.00319806
0.00334029
0.0036347
0.00386572
0.0043464
0.00474627
0.00561181
0.0063444
0.00834509
0.0078637
0.00699366
0.00717955
0.00766307
0.0089328
0.0118782
0.015594
0.0186394
0.0203019
0.020862
0.0207237
0.0203272
0.0200788
0.0201122
0.0203816
0.020712
0.0208987
0.0208769
0.0206609
0.0202591
0.0197203
0.0190554
0.0182331
0.0172115
0.0159893
0.0146314
0.0131946
0.0116563
0.010021
0.00847672
0.00717876
0.00608296
0.00511784
0.00429336
0.00368917
0.00341509
0.00338579
0.00348743
0.00382525
0.00435499
0.00489425
0.00536189
0.00569538
0.00586575
0.00588133
0.00578482
0.00554142
0.00519007
0.00479117
0.00438524
0.00400468
0.00366826
0.00338687
0.00316088
0.00298904
0.00286222
0.0027736
0.00271711
0.00269676
0.002697
0.00270789
0.00273438
0.00279622
0.00285438
0.00297463
0.00306931
0.00326326
0.00341285
0.00372109
0.00396348
0.00446726
0.00488483
0.005789
0.00654354
0.00856359
0.0080586
0.00686266
0.00700814
0.00736954
0.00831826
0.0106948
0.0143505
0.0177677
0.020048
0.0211047
0.0213342
0.0211529
0.0209667
0.021004
0.0212823
0.0216504
0.0218924
0.0219246
0.0217633
0.0213999
0.0208677
0.0201867
0.0193267
0.0182389
0.0169113
0.0154106
0.0138102
0.0121031
0.0102961
0.00858978
0.00718579
0.00605147
0.00508338
0.00423814
0.0035489
0.00313256
0.00302136
0.00307319
0.00332706
0.00386718
0.00447726
0.00503506
0.00545913
0.00570869
0.0057824
0.00573039
0.00554302
0.00521965
0.0048346
0.00443431
0.00405417
0.00371559
0.00343075
0.00320137
0.00302636
0.00289721
0.00280688
0.00275001
0.00273016
0.00273088
0.00274274
0.00277104
0.00283605
0.00289753
0.00302303
0.00312235
0.00332455
0.00348125
0.00380277
0.00405613
0.00458209
0.00501655
0.00595717
0.00673186
0.0087682
0.0082408
0.0067343
0.00684826
0.0071178
0.00781876
0.00963216
0.0130403
0.0166754
0.0194771
0.0210744
0.0217481
0.0218375
0.021777
0.0218427
0.0221382
0.0225393
0.0228329
0.0229169
0.0228055
0.0224864
0.0219649
0.0212718
0.0203815
0.0192383
0.0178171
0.0161813
0.0144182
0.0125387
0.0105595
0.00869106
0.00717329
0.00599502
0.00503541
0.00420571
0.00348843
0.00295773
0.00273296
0.00273181
0.00288966
0.00336534
0.00403295
0.0046776
0.00519511
0.00552828
0.00566832
0.00565654
0.00552522
0.00523843
0.00486922
0.00447609
0.00409753
0.00375763
0.00347004
0.00323778
0.00306002
0.00292883
0.00283704
0.00277993
0.00276067
0.00276187
0.00277471
0.0028048
0.00287291
0.00293772
0.0030681
0.00317193
0.00338207
0.00354559
0.00387982
0.00414373
0.00469093
0.00514144
0.00611637
0.0069095
0.00895952
0.00841091
0.00660836
0.00669745
0.00689803
0.00741045
0.00875776
0.0117044
0.0154113
0.0186232
0.0207974
0.0219231
0.0223583
0.0224785
0.0226132
0.0229398
0.0233721
0.0237145
0.0238481
0.0237798
0.0235078
0.0230013
0.0222989
0.0213839
0.0201948
0.0186915
0.0169294
0.0150063
0.0129514
0.0107998
0.00877447
0.00713918
0.00591198
0.00496077
0.00416593
0.00346048
0.00287765
0.00253462
0.00246054
0.00253884
0.00288842
0.0035707
0.00429399
0.00490552
0.00532619
0.00553784
0.00556981
0.0054858
0.00524675
0.00489542
0.00451093
0.00413503
0.00379463
0.00350493
0.00327029
0.00309021
0.00295726
0.00286426
0.00280703
0.00278842
0.0027901
0.00280393
0.00283583
0.00290695
0.00297512
0.00310991
0.00321819
0.00343591
0.00360596
0.00395232
0.00422633
0.00479378
0.00525951
0.00626664
0.00707661
0.00913805
0.00856943
0.00648463
0.00655406
0.00670284
0.00707347
0.008061
0.01043
0.0140341
0.0175323
0.0202067
0.0218449
0.0226773
0.0230466
0.0232961
0.0236727
0.0241413
0.0245314
0.0247129
0.0246808
0.0244547
0.0239691
0.0232584
0.0223225
0.0210954
0.0195208
0.0176417
0.0155629
0.013331
0.0110071
0.00882907
0.00708418
0.00580498
0.00485761
0.00410291
0.0034366
0.0028452
0.00241937
0.00225566
0.00227485
0.00248999
0.00309859
0.00388965
0.00459319
0.00510414
0.00539078
0.00547461
0.00542814
0.00524199
0.00491358
0.00453917
0.00416695
0.00382682
0.00353565
0.0032991
0.00311708
0.00298267
0.00288867
0.00283148
0.00281357
0.00281574
0.00283055
0.00286426
0.00293828
0.00300981
0.00314859
0.00326125
0.00348615
0.00366243
0.00402033
0.00430398
0.00489065
0.00537078
0.00640801
0.00723335
0.00930426
0.00871683
0.00636294
0.00641675
0.00652648
0.00679168
0.00750495
0.00929263
0.0126119
0.0162468
0.0193368
0.0215116
0.0227633
0.0234485
0.0238676
0.0243218
0.0248374
0.0252771
0.0255063
0.0255046
0.02532
0.0248609
0.0241424
0.0231881
0.0219288
0.0202924
0.0183061
0.0160773
0.0136684
0.0111731
0.00885321
0.00700731
0.00567812
0.00473051
0.00401362
0.0033983
0.00282932
0.00236464
0.00211451
0.00208059
0.00219124
0.00265047
0.00347191
0.0042616
0.00486398
0.00522861
0.00537047
0.00535704
0.00522201
0.00492451
0.00456116
0.00419356
0.00385442
0.00356238
0.00332436
0.00314079
0.00300518
0.00291041
0.00285339
0.00283624
0.0028389
0.00285471
0.00289021
0.00296703
0.00304184
0.00318429
0.00330129
0.00353284
0.00371507
0.00408392
0.00437672
0.00498156
0.00547524
0.00654054
0.00737984
0.00945858
0.00885353
0.00624313
0.00628415
0.00636456
0.00655218
0.00705927
0.00836282
0.011192
0.0148179
0.0182206
0.0208671
0.0226141
0.0236519
0.0243002
0.0248694
0.0254489
0.0259436
0.0262224
0.0262486
0.0260982
0.0256701
0.024945
0.0239735
0.0226859
0.0209957
0.0189118
0.0165393
0.0139553
0.011288
0.00884206
0.00690603
0.00553448
0.00458575
0.00390206
0.00333942
0.0028118
0.00234019
0.00202843
0.00193386
0.00197927
0.0022769
0.00304561
0.00391484
0.00460787
0.00505279
0.00525666
0.00527722
0.00518538
0.00492893
0.00457724
0.00421513
0.00387765
0.00358529
0.00334626
0.0031615
0.00302496
0.00292963
0.0028729
0.00285656
0.00285971
0.00287652
0.00291383
0.0029933
0.00307128
0.00321711
0.00333839
0.00357604
0.00376394
0.00414314
0.00444457
0.00506652
0.0055729
0.00666426
0.00751622
0.00960136
0.0089799
0.00612505
0.0061554
0.00621356
0.00634475
0.00669918
0.00763338
0.00986213
0.0133094
0.016894
0.0199489
0.0221936
0.0236289
0.024564
0.0252941
0.0259619
0.0265218
0.0268549
0.0269091
0.0267859
0.0263909
0.0256614
0.0246728
0.0233591
0.0216217
0.0194496
0.0169398
0.0141845
0.0113425
0.00878325
0.00677764
0.00537567
0.00442899
0.00377447
0.00326151
0.00278275
0.00232719
0.00197982
0.00182647
0.00182988
0.0020034
0.00262901
0.00355807
0.0043384
0.00486482
0.00513275
0.00519298
0.00513461
0.00492451
0.00458762
0.00423191
0.00389674
0.00360459
0.00336496
0.00317935
0.00304214
0.00294645
0.00289014
0.00287464
0.00287828
0.0028961
0.00293523
0.00301718
0.00309817
0.00324715
0.00337258
0.00361587
0.00380911
0.00419803
0.00450758
0.00514553
0.00566377
0.00677922
0.00764261
0.00973296
0.00909627
0.00600857
0.00602991
0.00607083
0.00616125
0.00640457
0.0070613
0.00869855
0.0117954
0.0154064
0.018778
0.0214727
0.0233822
0.0246287
0.0255713
0.0263595
0.0270001
0.0273961
0.0274815
0.0273796
0.0270175
0.0262881
0.0252817
0.0239426
0.0221627
0.0199114
0.0172704
0.0143464
0.0113528
0.00867585
0.00661995
0.00520236
0.00426447
0.00363698
0.00316901
0.00274024
0.0023137
0.00195251
0.00175144
0.0017195
0.00181083
0.00225948
0.00319735
0.00405846
0.00466633
0.00499993
0.00510427
0.00507351
0.00490975
0.00459267
0.00424417
0.00391188
0.00362043
0.00338059
0.00319448
0.00305684
0.00296098
0.00290521
0.00289059
0.00289473
0.00291355
0.00295452
0.00303874
0.00312262
0.00327452
0.00340392
0.0036524
0.00385065
0.00424864
0.00456577
0.00521861
0.00574784
0.00688544
0.00775912
0.00985368
0.00920292
0.00589358
0.00590732
0.00593435
0.00599545
0.00615932
0.00661126
0.00777346
0.0103252
0.0138173
0.0173864
0.0204771
0.0228449
0.024487
0.0256741
0.0266217
0.0273645
0.0278363
0.0279606
0.0278759
0.027544
0.0268222
0.0257966
0.0244316
0.0226121
0.0202899
0.0175238
0.0144278
0.011293
0.00851733
0.00643141
0.00501506
0.00409504
0.00349473
0.00306677
0.00268587
0.00229483
0.0019351
0.00170084
0.00163333
0.00167608
0.00197503
0.00282994
0.00377091
0.00445908
0.00485931
0.00501118
0.00500497
0.00488332
0.00459365
0.00425224
0.00392329
0.00363299
0.00339333
0.00320701
0.00306918
0.00297334
0.00291823
0.00290452
0.00290915
0.00292898
0.00297181
0.00305804
0.00314467
0.00329929
0.00343244
0.00368571
0.0038886
0.00429501
0.00461916
0.00528576
0.00582512
0.00698298
0.00786588
0.00996379
0.00930013
0.00577998
0.00578739
0.00580285
0.00584252
0.00595058
0.00625441
0.00706219
0.00899625
0.012199
0.0158209
0.0192236
0.0220209
0.0240949
0.0255868
0.0267259
0.0275987
0.0281637
0.0283394
0.02827
0.0279658
0.0272592
0.0262139
0.0248219
0.0229644
0.0205788
0.0176877
0.0144472
0.0111639
0.00830841
0.00621124
0.0048148
0.00392273
0.00335163
0.00295925
0.00262226
0.00226926
0.00192108
0.00166585
0.00156582
0.00157895
0.00176978
0.00247895
0.00348008
0.00424507
0.00471207
0.00491325
0.00493224
0.00484531
0.00459049
0.0042563
0.00393118
0.00364244
0.00340331
0.00321709
0.0030793
0.00298364
0.0029293
0.00291652
0.00292163
0.00294247
0.00298718
0.00307517
0.00316441
0.00332154
0.0034582
0.00371585
0.00392303
0.00433717
0.00466779
0.00534699
0.00589562
0.00707186
0.00796297
0.0100635
0.00938814
0.00566764
0.00566989
0.00567556
0.00569899
0.00576823
0.00596736
0.00651561
0.00787707
0.0106317
0.0141434
0.0177426
0.0209207
0.0234184
0.0252818
0.0266568
0.0276832
0.0283636
0.0286089
0.0285558
0.0282779
0.0275937
0.0265298
0.0251096
0.0232144
0.0207682
0.0177588
0.0143774
0.0109619
0.00805094
0.00595992
0.00460323
0.0037493
0.00321054
0.00285017
0.00255225
0.00223721
0.00190706
0.00164061
0.00151228
0.00150563
0.00162238
0.0021655
0.00319056
0.00402646
0.00455943
0.00481051
0.0048579
0.0047979
0.00458146
0.00425652
0.00393571
0.00364895
0.00341067
0.00322483
0.00308729
0.00299199
0.00293851
0.00292668
0.00293228
0.00295412
0.00300066
0.00309023
0.00318191
0.00334135
0.00348124
0.00374289
0.00395397
0.00437515
0.00471166
0.00540232
0.00595934
0.00715213
0.0080505
0.0101531
0.00946714
0.00555719
0.00555345
0.0055511
0.005563
0.00560537
0.00573188
0.00609393
0.00702966
0.00916867
0.0124245
0.0160802
0.0195588
0.0224631
0.0247096
0.0263909
0.0276078
0.0284187
0.0287575
0.0287254
0.0284746
0.0278194
0.0267396
0.0252905
0.0233535
0.0208508
0.0177457
0.0142129
0.0106858
0.0077465
0.005682
0.0043817
0.00357622
0.0030734
0.00274239
0.00247851
0.00219953
0.00189136
0.00162118
0.00147029
0.0014454
0.0015157
0.00190936
0.00290025
0.00380509
0.00440268
0.0047038
0.00478197
0.00474382
0.00456585
0.00425303
0.00393709
0.00365265
0.00341556
0.00323036
0.00309328
0.00299848
0.00294597
0.00293509
0.00294117
0.002964
0.00301229
0.00310332
0.00319722
0.00335877
0.0035016
0.00376686
0.00398146
0.00440899
0.0047508
0.00545174
0.00601629
0.00722381
0.00812855
0.0102327
0.00953733
0.00544789
0.00544017
0.00542752
0.00543216
0.00545644
0.00553377
0.00576536
0.00639125
0.0079124
0.0107508
0.0142994
0.0179652
0.0212309
0.0238691
0.0258784
0.0273459
0.0283234
0.0287706
0.0287696
0.0285484
0.0279284
0.0268377
0.0253592
0.0233832
0.0208336
0.0176254
0.0139489
0.0103363
0.00739696
0.00538474
0.00415158
0.00340493
0.00294157
0.00263792
0.00240328
0.0021574
0.00187317
0.00160499
0.00143688
0.00139437
0.00143552
0.00171918
0.00261229
0.00358287
0.0042431
0.00459393
0.00470468
0.00468496
0.0045433
0.0042463
0.00393555
0.00365373
0.00341809
0.0032338
0.00309737
0.00300322
0.00295176
0.00294183
0.00294837
0.00297219
0.00302214
0.0031145
0.00321042
0.00337386
0.00351934
0.00378781
0.00400554
0.00443871
0.00478523
0.00549527
0.00606647
0.00728694
0.0081972
0.0103026
0.00959887
0.00533957
0.00532983
0.00530614
0.00530398
0.00531672
0.005362
0.00550486
0.00591062
0.00694029
0.0091868
0.0124754
0.0161872
0.0197359
0.0227506
0.0251142
0.0268547
0.0280439
0.0286465
0.028692
0.0284954
0.027912
0.0268182
0.0253102
0.0232961
0.0206979
0.0173927
0.0135814
0.00991495
0.00700704
0.00507219
0.00391648
0.0032375
0.00281603
0.0025381
0.00232835
0.00211205
0.00185224
0.00159032
0.00140956
0.00135071
0.00137282
0.00157705
0.00234339
0.00336291
0.00408211
0.00448174
0.00462622
0.0046228
0.00451284
0.00423765
0.0039313
0.00365234
0.00341842
0.00323525
0.00309966
0.00300629
0.00295596
0.00294697
0.00295397
0.00297877
0.00303025
0.00312383
0.00322155
0.00338667
0.00353449
0.00380578
0.00402625
0.00446434
0.00481496
0.00553291
0.00610989
0.00734155
0.0082565
0.0103628
0.0096519
0.00523219
0.00522094
0.00518972
0.00517685
0.00518274
0.00520798
0.00529261
0.00554648
0.0062228
0.00782951
0.0106979
0.0142907
0.0180092
0.0213558
0.0240809
0.026128
0.0275466
0.0283403
0.0284697
0.0283017
0.027764
0.0266758
0.0251358
0.0230843
0.020437
0.0170403
0.0131089
0.00942368
0.00658469
0.00474561
0.00368271
0.00307626
0.00269744
0.00244375
0.00225503
0.00206461
0.00182866
0.00157601
0.00138676
0.00131284
0.00132195
0.00146903
0.00210181
0.00314833
0.00392117
0.00436805
0.00454644
0.00455915
0.00447547
0.00422645
0.00392451
0.00364862
0.00341666
0.00323483
0.00310024
0.00300778
0.00295865
0.00295058
0.00295804
0.0029838
0.00303669
0.00313137
0.00323066
0.00339725
0.00354709
0.0038208
0.0040436
0.0044859
0.00484001
0.00556468
0.00614656
0.00738765
0.00830654
0.0104135
0.00969653
0.00512567
0.00511334
0.00507803
0.0050519
0.00505257
0.00506502
0.00511291
0.00526577
0.00569523
0.00676662
0.00904701
0.0123564
0.0161008
0.0197007
0.0227709
0.0251458
0.026823
0.0278301
0.0280809
0.027943
0.0274528
0.0263936
0.0248269
0.0227404
0.0200439
0.0165598
0.0125327
0.00886505
0.00613416
0.00441247
0.0034574
0.00292306
0.00258607
0.00235521
0.00218423
0.00201606
0.0018027
0.00156133
0.00136705
0.00127971
0.00127944
0.0013851
0.00189144
0.00294098
0.00376165
0.00425374
0.00446531
0.00449565
0.00443252
0.00421183
0.00391528
0.00364268
0.00341291
0.00323264
0.00309921
0.00300778
0.0029599
0.00295273
0.00296063
0.00298734
0.00304149
0.00313715
0.00323779
0.00340563
0.00355717
0.00383289
0.00405764
0.0045034
0.00486039
0.00559059
0.00617647
0.00742528
0.00834734
0.0104548
0.00973287
0.00501995
0.0050069
0.00497023
0.00493173
0.00492333
0.00492893
0.00495471
0.00504295
0.00530553
0.00599576
0.00761415
0.0104803
0.014081
0.0178194
0.0211879
0.0238949
0.0258536
0.0271005
0.0275151
0.0274135
0.0269728
0.0259624
0.0243734
0.0222562
0.0195117
0.0159437
0.0118562
0.00824295
0.00566052
0.0040854
0.00324534
0.00277876
0.0024819
0.00227256
0.00211651
0.00196716
0.00177472
0.0015458
0.00134946
0.00125075
0.00124239
0.00131847
0.00171999
0.00273631
0.0036045
0.00413961
0.00438356
0.00443223
0.00438572
0.00419351
0.00390367
0.00363467
0.0034073
0.00322877
0.00309666
0.00300635
0.00295978
0.00295348
0.0029618
0.00298945
0.00304469
0.00314122
0.00324298
0.00341185
0.00356475
0.00384208
0.00406836
0.00451686
0.0048761
0.00561063
0.00619964
0.00745445
0.00837896
0.0104867
0.009761
0.00491498
0.00490148
0.0048652
0.00481734
0.00479625
0.00479699
0.00480953
0.00485817
0.00501244
0.00544083
0.00650022
0.00875238
0.0120376
0.0157666
0.0193514
0.0223711
0.0246233
0.0261314
0.0267524
0.0266978
0.0263124
0.0253667
0.023764
0.0216227
0.0188329
0.0151875
0.0110834
0.00756915
0.00517367
0.00377516
0.0030478
0.00264375
0.0023849
0.0021957
0.00205219
0.00191849
0.00174506
0.00152919
0.00133315
0.00122522
0.00120911
0.00126446
0.00158602
0.00253691
0.00345062
0.00402644
0.00430165
0.00436903
0.00433627
0.00417152
0.00388977
0.00362469
0.00339993
0.00322331
0.00309265
0.00300356
0.00295834
0.00295288
0.00296161
0.00299016
0.00304634
0.00314362
0.00324626
0.00341593
0.00356986
0.0038484
0.0040758
0.0045263
0.00488717
0.00562481
0.00621608
0.00747518
0.00840143
0.0105094
0.00978099
0.00481069
0.00479697
0.00476192
0.00470844
0.0046743
0.00466653
0.00467202
0.00469762
0.00478459
0.00504001
0.00570674
0.00726973
0.0100758
0.0136198
0.0173008
0.020583
0.0231239
0.0249056
0.0257737
0.0257826
0.0254586
0.0245896
0.0229869
0.0208314
0.0180006
0.0142908
0.0102204
0.00686472
0.00469068
0.00348575
0.00286357
0.00251837
0.00229499
0.00212438