/*--------------------------------*- C++ -*----------------------------------*\
| =========                 |                                                 |
| \\      /  F ield         | OpenFOAM: The Open Source CFD Toolbox           |
|  \\    /   O peration     | Version:  2.4.0                                 |
|   \\  /    A nd           | Web:      www.OpenFOAM.org                      |
|    \\/     M anipulation  |                                                 |
\*---------------------------------------------------------------------------*/
FoamFile
{
    version     2.0;
    format      ascii;
    class       surfaceScalarField;
    location    "300";
    object      phi;
}
// * * * * * * * * * * * * * * * * * * * * * * * * * * * * * * * * * * * * * //

dimensions      [0 3 -1 0 0 0 0];

internalField   nonuniform List<scalar> 
19800
(
0.000192436
-6.89959e-08
0.000192405
3.14921e-08
0.000192407
-2.61108e-09
0.000192392
1.57685e-08
0.000192382
9.13246e-09
0.000192368
1.44196e-08
0.000192353
1.51459e-08
0.000192338
1.4876e-08
0.000192318
2.00878e-08
0.000192302
1.5819e-08
0.000192277
2.54412e-08
0.00019226
1.70433e-08
0.000192227
3.25994e-08
0.000192208
1.87889e-08
0.000192164
4.3691e-08
0.000192142
2.29014e-08
0.000192079
6.30018e-08
0.00019204
3.82679e-08
0.000191934
1.05807e-07
9.86557e-08
0.000191836
0.000197632
4.15387e-10
0.000197655
8.43457e-09
0.000197634
1.85052e-08
0.000197634
1.59965e-08
0.000197615
2.78788e-08
0.000197608
2.15157e-08
0.000197588
3.55745e-08
0.000197577
2.58157e-08
0.000197554
4.33303e-08
0.00019754
2.97148e-08
0.000197513
5.24707e-08
0.000197496
3.40011e-08
0.000197464
6.46938e-08
0.000197442
4.02203e-08
0.000197403
8.27787e-08
0.000197373
5.27897e-08
0.000197323
1.12867e-07
0.000197277
8.49792e-08
0.000197209
1.73222e-07
1.71393e-07
0.000197137
0.000203176
8.41841e-09
0.000203173
1.19405e-08
0.000203162
2.90611e-08
0.000203154
2.42699e-08
0.000203139
4.26592e-08
0.000203128
3.28044e-08
0.00020311
5.40332e-08
0.000203096
3.95444e-08
0.000203074
6.53413e-08
0.000203058
4.59372e-08
0.000203032
7.8162e-08
0.000203012
5.36148e-08
0.000202983
9.41469e-08
0.000202957
6.561e-08
0.000202924
1.15757e-07
0.000202889
8.82354e-08
0.000202853
1.48626e-07
0.000202805
1.33107e-07
0.000202774
2.0383e-07
2.09455e-07
0.000202736
0.000208816
1.18439e-08
0.000208811
1.61031e-08
0.000208801
3.92902e-08
0.000208793
3.28741e-08
0.000208778
5.74931e-08
0.000208766
4.45353e-08
0.000208748
7.25223e-08
0.000208733
5.39658e-08
0.000208711
8.70687e-08
0.000208694
6.32923e-08
0.000208669
1.02831e-07
0.000208648
7.49775e-08
0.000208621
1.21265e-07
0.000208594
9.29881e-08
0.000208565
1.44444e-07
0.00020853
1.23422e-07
0.000208502
1.76585e-07
0.000208463
1.72109e-07
0.000208445
2.21212e-07
2.33311e-07
0.000208421
0.000214605
1.69828e-08
0.000214601
1.97231e-08
0.00021459
4.99454e-08
0.000214582
4.16487e-08
0.000214567
7.25182e-08
0.000214554
5.67763e-08
0.000214536
9.09253e-08
0.000214521
6.92773e-08
0.0002145
1.08188e-07
0.000214481
8.20544e-08
0.000214458
1.25977e-07
0.000214434
9.82361e-08
0.00021441
1.45583e-07
0.000214381
1.21806e-07
0.000214357
1.6896e-07
0.000214324
1.56615e-07
0.000214301
1.9901e-07
0.000214271
2.02093e-07
0.000214258
2.34394e-07
2.45768e-07
0.000214246
0.000220553
2.57878e-08
0.000220551
2.17481e-08
0.000220539
6.165e-08
0.00022053
5.00626e-08
0.000220515
8.81356e-08
0.000220502
6.9118e-08
0.000220484
1.09561e-07
0.000220468
8.50891e-08
0.000220447
1.29013e-07
0.000220428
1.01688e-07
0.000220405
1.48091e-07
0.000220381
1.22371e-07
0.000220359
1.68046e-07
0.00022033
1.50278e-07
0.000220309
1.90785e-07
0.000220279
1.86175e-07
0.00022026
2.17784e-07
0.000220238
2.24683e-07
0.000220228
2.44308e-07
2.51914e-07
0.000220222
0.000226676
2.7506e-08
0.000226671
2.6736e-08
0.000226661
7.21467e-08
0.000226651
5.97704e-08
0.000226636
1.03158e-07
0.000226622
8.26002e-08
0.000226604
1.2756e-07
0.000226587
1.02132e-07
0.000226568
1.48876e-07
0.000226547
1.22562e-07
0.000226526
1.68813e-07
0.000226501
1.47146e-07
0.00022648
1.8881e-07
0.000226453
1.77504e-07
0.000226433
2.10634e-07
0.000226408
2.11483e-07
0.000226392
2.34025e-07
0.000226375
2.41276e-07
0.000226368
2.52032e-07
2.55111e-07
0.000226364
0.000232962
2.93748e-08
0.000232957
3.18626e-08
0.000232947
8.26807e-08
0.000232936
6.9918e-08
0.000232921
1.18093e-07
0.000232907
9.67624e-08
0.00023289
1.45202e-07
0.000232872
1.20034e-07
0.000232853
1.68001e-07
0.000232831
1.4419e-07
0.000232811
1.88449e-07
0.000232787
1.71844e-07
0.000232767
2.08268e-07
0.000232742
2.02811e-07
0.000232724
2.28829e-07
0.000232702
2.32768e-07
0.000232688
2.48044e-07
0.000232676
2.53523e-07
0.00023267
2.5801e-07
2.56651e-07
0.000232669
0.000239421
3.25505e-08
0.000239416
3.68118e-08
0.000239406
9.33826e-08
0.000239395
8.04466e-08
0.00023938
1.32947e-07
0.000239366
1.11554e-07
0.000239348
1.6249e-07
0.00023933
1.38639e-07
0.000239311
1.86491e-07
0.000239289
1.66182e-07
0.00023927
2.07277e-07
0.000239246
1.95844e-07
0.000239228
2.26781e-07
0.000239205
2.25769e-07
0.000239188
2.45614e-07
0.00023917
2.50476e-07
0.000239158
2.60068e-07
0.000239149
2.62695e-07
0.000239145
2.62488e-07
2.5728e-07
0.000239144
0.000246061
3.61526e-08
0.000246055
4.18919e-08
0.000246045
1.04118e-07
0.000246034
9.14182e-08
0.000246019
1.4766e-07
0.000246004
1.26958e-07
0.000245987
1.79403e-07
0.000245968
1.57814e-07
0.00024595
2.04401e-07
0.000245928
1.88238e-07
0.000245909
2.25426e-07
0.000245886
2.1879e-07
0.000245869
2.44434e-07
0.000245848
2.46339e-07
0.000245833
2.60994e-07
0.000245818
2.65196e-07
0.000245808
2.70251e-07
0.000245801
2.69664e-07
0.000245798
2.65747e-07
2.5737e-07
0.000245798
0.000252884
3.97812e-08
0.000252879
4.72448e-08
0.000252868
1.14789e-07
0.000252857
1.02864e-07
0.000252842
1.62186e-07
0.000252826
1.42917e-07
0.00025281
1.95962e-07
0.00025279
1.77362e-07
0.000252773
2.21841e-07
0.000252751
2.10023e-07
0.000252733
2.43032e-07
0.000252712
2.40399e-07
0.000252695
2.61256e-07
0.000252677
2.64616e-07
0.000252663
2.74946e-07
0.00025265
2.77467e-07
0.000252642
2.78761e-07
0.000252637
2.75016e-07
0.000252634
2.6804e-07
2.57084e-07
0.000252635
0.000259897
4.33354e-08
0.000259892
5.29134e-08
0.000259881
1.25348e-07
0.000259869
1.14789e-07
0.000259855
1.76491e-07
0.000259838
1.5937e-07
0.000259822
2.12174e-07
0.000259802
1.97112e-07
0.000259785
2.38872e-07
0.000259764
2.3129e-07
0.000259747
2.60136e-07
0.000259727
2.60542e-07
0.000259711
2.77195e-07
0.000259695
2.80787e-07
0.000259682
2.87461e-07
0.000259672
2.87737e-07
0.000259665
2.85792e-07
0.000259661
2.79136e-07
0.000259659
2.69575e-07
2.56515e-07
0.00025966
0.000267105
4.6807e-08
0.000267099
5.88915e-08
0.000267088
1.35785e-07
0.000267076
1.27153e-07
0.000267062
1.90582e-07
0.000267045
1.76205e-07
0.000267029
2.2809e-07
0.000267009
2.16861e-07
0.000266993
2.55563e-07
0.000266972
2.51824e-07
0.000266956
2.76743e-07
0.000266937
2.79167e-07
0.000266922
2.92182e-07
0.000266908
2.95067e-07
0.000266897
2.98565e-07
0.000266888
2.9635e-07
0.000266882
2.91543e-07
0.000266879
2.82283e-07
0.000266878
2.70514e-07
2.5572e-07
0.000266879
0.000274512
5.01578e-08
0.000274506
6.51971e-08
0.000274496
1.46071e-07
0.000274483
1.39929e-07
0.000274469
2.04455e-07
0.000274452
1.93322e-07
0.000274436
2.43739e-07
0.000274417
2.36436e-07
0.0002744
2.71943e-07
0.000274381
2.71478e-07
0.000274365
2.92809e-07
0.000274348
2.96299e-07
0.000274334
3.06145e-07
0.000274321
3.07668e-07
0.000274311
3.08318e-07
0.000274304
3.03576e-07
0.000274299
2.96197e-07
0.000274297
2.84641e-07
0.000274296
2.70977e-07
2.54741e-07
0.000274297
0.000282125
5.33942e-08
0.000282119
7.18125e-08
0.000282108
1.56202e-07
0.000282095
1.53061e-07
0.000282082
2.18124e-07
0.000282064
2.10598e-07
0.000282049
2.59158e-07
0.00028203
2.55673e-07
0.000282014
2.88018e-07
0.000281995
2.90151e-07
0.00028198
3.0827e-07
0.000281964
3.11993e-07
0.000281951
3.19034e-07
0.00028194
3.18772e-07
0.000281931
3.16809e-07
0.000281925
3.09619e-07
0.000281922
2.99918e-07
0.00028192
2.86347e-07
0.00028192
2.71053e-07
2.53606e-07
0.000281921
0.000289949
5.64864e-08
0.000289942
7.8736e-08
0.000289932
1.66166e-07
0.000289919
1.66493e-07
0.000289905
2.31602e-07
0.000289888
2.27916e-07
0.000289873
2.74366e-07
0.000289854
2.74438e-07
0.000289838
3.03765e-07
0.000289821
3.07789e-07
0.000289806
3.23046e-07
0.000289792
3.26329e-07
0.00028978
3.30822e-07
0.00028977
3.28542e-07
0.000289763
3.24137e-07
0.000289758
3.14643e-07
0.000289755
3.02843e-07
0.000289754
2.87504e-07
0.000289754
2.70808e-07
2.5234e-07
0.000289755
0.00029799
5.94415e-08
0.000297983
8.59421e-08
0.000297973
1.75966e-07
0.00029796
1.80154e-07
0.000297946
2.44905e-07
0.000297929
2.45157e-07
0.000297914
2.89373e-07
0.000297896
2.92619e-07
0.00029788
3.19142e-07
0.000297864
3.24369e-07
0.00029785
3.37067e-07
0.000297837
3.39389e-07
0.000297826
3.41513e-07
0.000297817
3.37109e-07
0.000297811
3.30411e-07
0.000297807
3.18778e-07
0.000297805
3.05086e-07
0.000297804
2.88196e-07
0.000297805
2.70291e-07
2.50958e-07
0.000297806
0.000306254
6.224e-08
0.000306247
9.34114e-08
0.000306237
1.85601e-07
0.000306223
1.93973e-07
0.00030621
2.58044e-07
0.000306193
2.62214e-07
0.000306178
3.04172e-07
0.000306161
3.10132e-07
0.000306146
3.34088e-07
0.00030613
3.39892e-07
0.000306117
3.50265e-07
0.000306105
3.51253e-07
0.000306096
3.51128e-07
0.000306088
3.44589e-07
0.000306083
3.35729e-07
0.000306079
3.22132e-07
0.000306078
3.06738e-07
0.000306078
2.88488e-07
0.000306078
2.69539e-07
2.49474e-07
0.00030608
0.000314747
6.48908e-08
0.00031474
1.01109e-07
0.00031473
1.95077e-07
0.000314716
2.07872e-07
0.000314703
2.71027e-07
0.000314686
2.78983e-07
0.000314672
3.18742e-07
0.000314655
3.26911e-07
0.000314641
3.48538e-07
0.000314626
3.54373e-07
0.000314614
3.62594e-07
0.000314603
3.61993e-07
0.000314595
3.59706e-07
0.000314588
3.51076e-07
0.000314584
3.40188e-07
0.000314581
3.24795e-07
0.00031458
3.07875e-07
0.00031458
2.88433e-07
0.000314581
2.68584e-07
2.47897e-07
0.000314582
0.000323476
6.73839e-08
0.000323468
1.09e-07
0.000323459
2.044e-07
0.000323445
2.21771e-07
0.000323432
2.83857e-07
0.000323416
2.95378e-07
0.000323401
3.33047e-07
0.000323385
3.42916e-07
0.000323371
3.62422e-07
0.000323358
3.67835e-07
0.000323347
3.7402e-07
0.000323337
3.71676e-07
0.000323329
3.67296e-07
0.000323324
3.56656e-07
0.00032332
3.43871e-07
0.000323318
3.26845e-07
0.000323317
3.0856e-07
0.000323318
2.88073e-07
0.000323319
2.67446e-07
2.46235e-07
0.00032332
0.000332447
6.9731e-08
0.000332439
1.17042e-07
0.000332429
2.13577e-07
0.000332416
2.35592e-07
0.000332403
2.96525e-07
0.000332387
3.11319e-07
0.000332373
3.47041e-07
0.000332358
3.58114e-07
0.000332345
3.75676e-07
0.000332332
3.80304e-07
0.000332322
3.84528e-07
0.000332313
3.80359e-07
0.000332306
3.73954e-07
0.000332302
3.61402e-07
0.000332299
3.46854e-07
0.000332297
3.28346e-07
0.000332297
3.08845e-07
0.000332297
2.87443e-07
0.000332299
2.66147e-07
2.44495e-07
0.0003323
0.000341666
7.19293e-08
0.000341658
1.25192e-07
0.000341649
2.22611e-07
0.000341635
2.49262e-07
0.000341623
3.09018e-07
0.000341607
3.26744e-07
0.000341594
3.60672e-07
0.000341579
3.72491e-07
0.000341567
3.8824e-07
0.000341555
3.91807e-07
0.000341546
3.94116e-07
0.000341538
3.88096e-07
0.000341532
3.79735e-07
0.000341528
3.65383e-07
0.000341526
3.49202e-07
0.000341525
3.29356e-07
0.000341525
3.08771e-07
0.000341526
2.86573e-07
0.000341527
2.647e-07
2.42681e-07
0.000341529
0.000351141
7.39929e-08
0.000351133
1.33398e-07
0.000351124
2.31506e-07
0.000351111
2.62707e-07
0.000351099
3.21311e-07
0.000351084
3.41596e-07
0.00035107
3.73882e-07
0.000351057
3.86035e-07
0.000351045
4.00067e-07
0.000351035
4.02369e-07
0.000351026
4.02795e-07
0.000351019
3.94935e-07
0.000351014
3.84695e-07
0.000351011
3.68657e-07
0.000351009
3.50974e-07
0.000351008
3.29921e-07
0.000351009
3.08375e-07
0.00035101
2.85484e-07
0.000351011
2.6312e-07
2.40796e-07
0.000351013
0.000360879
7.59243e-08
0.000360871
1.41616e-07
0.000360862
2.40259e-07
0.000360849
2.75864e-07
0.000360837
3.33372e-07
0.000360823
3.55836e-07
0.00036081
3.8661e-07
0.000360797
3.98744e-07
0.000360786
4.11117e-07
0.000360777
4.12015e-07
0.000360769
4.10582e-07
0.000360763
4.00923e-07
0.000360759
3.88888e-07
0.000360756
3.71281e-07
0.000360755
3.52219e-07
0.000360755
3.30086e-07
0.000360755
3.07687e-07
0.000360757
2.84197e-07
0.000360758
2.61415e-07
2.38845e-07
0.00036076
0.000370887
7.77384e-08
0.000370879
1.4979e-07
0.00037087
2.48866e-07
0.000370858
2.8867e-07
0.000370846
3.45164e-07
0.000370832
3.69425e-07
0.00037082
3.98801e-07
0.000370808
4.10615e-07
0.000370798
4.21363e-07
0.000370789
4.20768e-07
0.000370782
4.17503e-07
0.000370777
4.06102e-07
0.000370774
3.92362e-07
0.000370772
3.73302e-07
0.000370771
3.52983e-07
0.000370771
3.29882e-07
0.000370772
3.06734e-07
0.000370773
2.82729e-07
0.000370775
2.59596e-07
2.3683e-07
0.000370777
0.000381173
7.94402e-08
0.000381165
1.57877e-07
0.000381156
2.57314e-07
0.000381144
3.01075e-07
0.000381132
3.56642e-07
0.000381119
3.82338e-07
0.000381108
4.10398e-07
0.000381097
4.21651e-07
0.000381087
4.30787e-07
0.000381079
4.2865e-07
0.000381073
4.23585e-07
0.000381069
4.10514e-07
0.000381066
3.95165e-07
0.000381065
3.74767e-07
0.000381064
3.53304e-07
0.000381065
3.29344e-07
0.000381066
3.05537e-07
0.000381068
2.81094e-07
0.00038107
2.57669e-07
2.34753e-07
0.000381072
0.000391743
8.10442e-08
0.000391735
1.65825e-07
0.000391727
2.65591e-07
0.000391715
3.13028e-07
0.000391704
3.67762e-07
0.000391692
3.94552e-07
0.000391681
4.21354e-07
0.000391671
4.31852e-07
0.000391662
4.39381e-07
0.000391655
4.35684e-07
0.00039165
4.28861e-07
0.000391646
4.14199e-07
0.000391644
3.97341e-07
0.000391643
3.75713e-07
0.000391643
3.53217e-07
0.000391644
3.28496e-07
0.000391645
3.04115e-07
0.000391647
2.79304e-07
0.000391649
2.55641e-07
2.32616e-07
0.000391651
0.000402607
8.25551e-08
0.000402599
1.73592e-07
0.000402591
2.73674e-07
0.00040258
3.24491e-07
0.000402569
3.78471e-07
0.000402558
4.06049e-07
0.000402547
4.31626e-07
0.000402538
4.41222e-07
0.00040253
4.47141e-07
0.000402524
4.41892e-07
0.000402519
4.33361e-07
0.000402516
4.17194e-07
0.000402515
3.98927e-07
0.000402514
3.7618e-07
0.000402515
3.52751e-07
0.000402516
3.27363e-07
0.000402518
3.02486e-07
0.00040252
2.77368e-07
0.000402522
2.53517e-07
2.3042e-07
0.000402524
0.000413772
8.39849e-08
0.000413765
1.81133e-07
0.000413757
2.81542e-07
0.000413746
3.35426e-07
0.000413736
3.88724e-07
0.000413725
4.16813e-07
0.000413715
4.4118e-07
0.000413707
4.49763e-07
0.0004137
4.54075e-07
0.000413694
4.47297e-07
0.000413691
4.37119e-07
0.000413688
4.19536e-07
0.000413687
3.99962e-07
0.000413687
3.76198e-07
0.000413688
3.51935e-07
0.000413689
3.25964e-07
0.000413691
3.00662e-07
0.000413693
2.75297e-07
0.000413696
2.51302e-07
2.28168e-07
0.000413698
0.000425247
8.53368e-08
0.00042524
1.88413e-07
0.000425232
2.89164e-07
0.000425222
3.45805e-07
0.000425212
3.98471e-07
0.000425202
4.26834e-07
0.000425193
4.49986e-07
0.000425185
4.57481e-07
0.000425179
4.60191e-07
0.000425175
4.51923e-07
0.000425172
4.40166e-07
0.00042517
4.2126e-07
0.000425169
4.00478e-07
0.00042517
3.75798e-07
0.000425171
3.50792e-07
0.000425172
3.24318e-07
0.000425174
2.98658e-07
0.000425177
2.73098e-07
0.000425179
2.49e-07
2.2586e-07
0.000425181
0.00043704
8.66185e-08
0.000437033
1.95393e-07
0.000437025
2.96511e-07
0.000437016
3.55599e-07
0.000437006
4.07668e-07
0.000436997
4.36098e-07
0.000436989
4.58026e-07
0.000436982
4.64379e-07
0.000436977
4.65503e-07
0.000436973
4.55794e-07
0.000436971
4.42534e-07
0.00043697
4.22396e-07
0.00043697
4.00507e-07
0.00043697
3.75007e-07
0.000436972
3.49343e-07
0.000436974
3.22442e-07
0.000436976
2.96484e-07
0.000436978
2.70777e-07
0.000436981
2.46614e-07
2.23498e-07
0.000436983
0.00044916
8.78309e-08
0.000449153
2.02047e-07
0.000449146
3.0355e-07
0.000449137
3.64788e-07
0.000449128
4.16274e-07
0.00044912
4.44598e-07
0.000449112
4.65283e-07
0.000449106
4.70468e-07
0.000449102
4.70027e-07
0.000449099
4.58935e-07
0.000449097
4.44252e-07
0.000449096
4.22978e-07
0.000449097
4.00077e-07
0.000449098
3.73848e-07
0.0004491
3.47609e-07
0.000449102
3.20348e-07
0.000449104
2.94149e-07
0.000449107
2.68341e-07
0.000449109
2.44149e-07
2.21082e-07
0.000449111
0.000461616
8.8977e-08
0.000461609
2.08345e-07
0.000461603
3.10247e-07
0.000461594
3.7335e-07
0.000461586
4.24253e-07
0.000461578
4.52326e-07
0.000461572
4.7175e-07
0.000461567
4.75754e-07
0.000461563
4.73783e-07
0.00046156
4.61372e-07
0.000461559
4.4535e-07
0.000461559
4.23032e-07
0.00046156
3.99215e-07
0.000461562
3.72343e-07
0.000461564
3.45607e-07
0.000461566
3.18051e-07
0.000461568
2.91664e-07
0.000461571
2.65796e-07
0.000461574
2.41606e-07
2.18613e-07
0.000461576
0.000474417
9.00546e-08
0.000474411
2.14266e-07
0.000474405
3.16568e-07
0.000474397
3.8127e-07
0.00047439
4.31572e-07
0.000474383
4.59277e-07
0.000474377
4.77424e-07
0.000474373
4.80249e-07
0.00047437
4.76791e-07
0.000474368
4.6313e-07
0.000474367
4.45857e-07
0.000474368
4.22588e-07
0.000474369
3.97945e-07
0.000474371
3.70514e-07
0.000474373
3.43351e-07
0.000474376
3.15561e-07
0.000474378
2.89035e-07
0.000474381
2.63146e-07
0.000474383
2.3899e-07
2.16093e-07
0.000474386
0.000487574
9.10627e-08
0.000487568
2.19791e-07
0.000487562
3.22481e-07
0.000487555
3.88534e-07
0.000487548
4.38207e-07
0.000487542
4.65447e-07
0.000487537
4.82304e-07
0.000487533
4.83967e-07
0.000487531
4.79072e-07
0.00048753
4.64234e-07
0.00048753
4.458e-07
0.000487531
4.21669e-07
0.000487533
3.9629e-07
0.000487535
3.68377e-07
0.000487537
3.40858e-07
0.00048754
3.12889e-07
0.000487543
2.8627e-07
0.000487546
2.60396e-07
0.000487548
2.36301e-07
2.13523e-07
0.000487551
0.000501095
9.19967e-08
0.00050109
2.24903e-07
0.000501084
3.27956e-07
0.000501078
3.95128e-07
0.000501072
4.44136e-07
0.000501066
4.70832e-07
0.000501062
4.86398e-07
0.000501059
4.86921e-07
0.000501058
4.80649e-07
0.000501057
4.6471e-07
0.000501058
4.45206e-07
0.000501059
4.20301e-07
0.000501061
3.94271e-07
0.000501064
3.65951e-07
0.000501066
3.3814e-07
0.000501069
3.10044e-07
0.000501072
2.83375e-07
0.000501075
2.5755e-07
0.000501078
2.33542e-07
2.10902e-07
0.00050108
0.000514991
9.28522e-08
0.000514986
2.2959e-07
0.000514981
3.32962e-07
0.000514976
4.01044e-07
0.00051497
4.49344e-07
0.000514966
4.75435e-07
0.000514962
4.89714e-07
0.00051496
4.89128e-07
0.000514959
4.81546e-07
0.000514959
4.64583e-07
0.000514961
4.44098e-07
0.000514962
4.18507e-07
0.000514965
3.91908e-07
0.000514967
3.63251e-07
0.00051497
3.35209e-07
0.000514973
3.07036e-07
0.000514976
2.80358e-07
0.000514979
2.54611e-07
0.000514982
2.30717e-07
2.08234e-07
0.000514985
0.000529273
9.36232e-08
0.000529269
2.33842e-07
0.000529264
3.37475e-07
0.000529259
4.06272e-07
0.000529254
4.53822e-07
0.00052925
4.79259e-07
0.000529248
4.92264e-07
0.000529246
4.90607e-07
0.000529246
4.81786e-07
0.000529247
4.63878e-07
0.000529248
4.42503e-07
0.000529251
4.16307e-07
0.000529253
3.89219e-07
0.000529256
3.60292e-07
0.000529259
3.32076e-07
0.000529263
3.03872e-07
0.000529266
2.77222e-07
0.000529269
2.51584e-07
0.000529272
2.27826e-07
2.05517e-07
0.000529274
0.00054395
9.43033e-08
0.000543947
2.37652e-07
0.000543943
3.41473e-07
0.000543938
4.10808e-07
0.000543934
4.57562e-07
0.000543931
4.82308e-07
0.00054393
4.94061e-07
0.000543929
4.91377e-07
0.000543929
4.81392e-07
0.00054393
4.6262e-07
0.000543932
4.40443e-07
0.000543935
4.13723e-07
0.000543938
3.86221e-07
0.000543941
3.57086e-07
0.000543945
3.28752e-07
0.000543948
3.0056e-07
0.000543951
2.73974e-07
0.000543954
2.48472e-07
0.000543957
2.24872e-07
2.02753e-07
0.00054396
0.000559035
9.48862e-08
0.000559032
2.41014e-07
0.000559028
3.44939e-07
0.000559025
4.14647e-07
0.000559022
4.60565e-07
0.000559019
4.84591e-07
0.000559018
4.95123e-07
0.000559018
4.9146e-07
0.000559019
4.8039e-07
0.000559021
4.60832e-07
0.000559023
4.37941e-07
0.000559026
4.10773e-07
0.00055903
3.82931e-07
0.000559033
3.53647e-07
0.000559037
3.25247e-07
0.00055904
2.97107e-07
0.000559043
2.70619e-07
0.000559047
2.45278e-07
0.00055905
2.21856e-07
1.99944e-07
0.000559052
0.000574538
9.53653e-08
0.000574535
2.43925e-07
0.000574532
3.47857e-07
0.000574529
4.17789e-07
0.000574527
4.62832e-07
0.000574525
4.86119e-07
0.000574525
4.95468e-07
0.000574526
4.90877e-07
0.000574527
4.78803e-07
0.00057453
4.58538e-07
0.000574533
4.35018e-07
0.000574536
4.07477e-07
0.000574539
3.79363e-07
0.000574543
3.49988e-07
0.000574547
3.21569e-07
0.00057455
2.93519e-07
0.000574554
2.67161e-07
0.000574557
2.42005e-07
0.00057456
2.18782e-07
1.9709e-07
0.000574563
0.000590471
9.57346e-08
0.000590469
2.46385e-07
0.000590466
3.50219e-07
0.000590464
4.20234e-07
0.000590462
4.64371e-07
0.000590462
4.86906e-07
0.000590462
4.95116e-07
0.000590463
4.89652e-07
0.000590465
4.76655e-07
0.000590468
4.55761e-07
0.000590471
4.31696e-07
0.000590475
4.03853e-07
0.000590479
3.75533e-07
0.000590483
3.46118e-07
0.000590487
3.17728e-07
0.00059049
2.89804e-07
0.000590494
2.63605e-07
0.000590497
2.38657e-07
0.0005905
2.1565e-07
1.94193e-07
0.000590503
0.000606846
9.59887e-08
0.000606844
2.48394e-07
0.000606842
3.52017e-07
0.000606841
4.21987e-07
0.00060684
4.65191e-07
0.00060684
4.86968e-07
0.000606841
4.94087e-07
0.000606842
4.87807e-07
0.000606845
4.73972e-07
0.000606848
4.52524e-07
0.000606852
4.27994e-07
0.000606856
3.99916e-07
0.00060686
3.71454e-07
0.000606864
3.4205e-07
0.000606868
3.13732e-07
0.000606872
2.85967e-07
0.000606876
2.59955e-07
0.000606879
2.35236e-07
0.000606882
2.12463e-07
1.91253e-07
0.000606885
0.000623675
9.61232e-08
0.000623673
2.49955e-07
0.000623672
3.53251e-07
0.000623671
4.23055e-07
0.000623671
4.65305e-07
0.000623672
4.86323e-07
0.000623673
4.92406e-07
0.000623676
4.85368e-07
0.000623679
4.70776e-07
0.000623683
4.4885e-07
0.000623687
4.23933e-07
0.000623691
3.95684e-07
0.000623695
3.67139e-07
0.0006237
3.37794e-07
0.000623704
3.09588e-07
0.000623708
2.82014e-07
0.000623711
2.56216e-07
0.000623715
2.31746e-07
0.000623718
2.09223e-07
1.88272e-07
0.000623721
0.000640971
9.61341e-08
0.00064097
2.5107e-07
0.000640969
3.53921e-07
0.000640968
4.23448e-07
0.000640969
4.64729e-07
0.00064097
4.84991e-07
0.000640973
4.90096e-07
0.000640976
4.82359e-07
0.000640979
4.67092e-07
0.000640983
4.44759e-07
0.000640988
4.1953e-07
0.000640992
3.91172e-07
0.000640997
3.62602e-07
0.000641001
3.33359e-07
0.000641006
3.05305e-07
0.00064101
2.7795e-07
0.000641014
2.52392e-07
0.000641017
2.28189e-07
0.00064102
2.05932e-07
1.85252e-07
0.000641023
0.000658746
9.60193e-08
0.000658745
2.51746e-07
0.000658745
3.54032e-07
0.000658745
4.23177e-07
0.000658747
4.63481e-07
0.000658749
4.82995e-07
0.000658752
4.87181e-07
0.000658755
4.78806e-07
0.000658759
4.62944e-07
0.000658764
4.40274e-07
0.000658768
4.14805e-07
0.000658773
3.86396e-07
0.000658778
3.57854e-07
0.000658783
3.28755e-07
0.000658787
3.00889e-07
0.000658791
2.73783e-07
0.000658795
2.48487e-07
0.000658799
2.24568e-07
0.000658802
2.02592e-07
1.82194e-07
0.000658805
0.000677014
9.57769e-08
0.000677014
2.51989e-07
0.000677014
3.53593e-07
0.000677015
4.22258e-07
0.000677017
4.61581e-07
0.00067702
4.80359e-07
0.000677023
4.83686e-07
0.000677027
4.74734e-07
0.000677032
4.58355e-07
0.000677037
4.35415e-07
0.000677042
4.09775e-07
0.000677047
3.8137e-07
0.000677052
3.52907e-07
0.000677057
3.23992e-07
0.000677061
2.96349e-07
0.000677065
2.69516e-07
0.000677069
2.44505e-07
0.000677073
2.20887e-07
0.000677076
1.99206e-07
1.79099e-07
0.000677079
0.000695789
9.54072e-08
0.000695789
2.5181e-07
0.00069579
3.52615e-07
0.000695792
4.20709e-07
0.000695794
4.59052e-07
0.000695797
4.77108e-07
0.000695801
4.79639e-07
0.000695806
4.70169e-07
0.000695811
4.53349e-07
0.000695816
4.30203e-07
0.000695822
4.04458e-07
0.000695827
3.7611e-07
0.000695832
3.47774e-07
0.000695837
3.19079e-07
0.000695842
2.91691e-07
0.000695846
2.65156e-07
0.00069585
2.4045e-07
0.000695854
2.17149e-07
0.000695857
1.95775e-07
1.75969e-07
0.00069586
0.000715084
9.49106e-08
0.000715085
2.51217e-07
0.000715086
3.51111e-07
0.000715089
4.18548e-07
0.000715092
4.55916e-07
0.000715096
4.73268e-07
0.0007151
4.75066e-07
0.000715105
4.65136e-07
0.000715111
4.47948e-07
0.000715116
4.2466e-07
0.000715122
3.9887e-07
0.000715127
3.70628e-07
0.000715133
3.42465e-07
0.000715138
3.14025e-07
0.000715142
2.86923e-07
0.000715147
2.60708e-07
0.000715151
2.36327e-07
0.000715155
2.13357e-07
0.000715158
1.92302e-07
1.72806e-07
0.000715161
0.000734915
9.42891e-08
0.000734916
2.50223e-07
0.000734918
3.49099e-07
0.000734921
4.15799e-07
0.000734924
4.522e-07
0.000734929
4.68867e-07
0.000734934
4.69993e-07
0.000734939
4.59661e-07
0.000734945
4.42177e-07
0.000734951
4.18803e-07
0.000734957
3.93029e-07
0.000734962
3.6494e-07
0.000734968
3.36991e-07
0.000734973
3.08839e-07
0.000734978
2.8205e-07
0.000734983
2.56178e-07
0.000734987
2.32139e-07
0.000734991
2.09513e-07
0.000734994
1.88789e-07
1.69611e-07
0.000734997
0.000755295
9.35452e-08
0.000755297
2.4884e-07
0.000755299
3.46595e-07
0.000755303
4.12484e-07
0.000755307
4.47931e-07
0.000755312
4.63934e-07
0.000755317
4.64449e-07
0.000755323
4.5377e-07
0.000755329
4.36057e-07
0.000755336
4.12654e-07
0.000755342
3.86951e-07
0.000755347
3.59057e-07
0.000755353
3.31363e-07
0.000755358
3.03529e-07
0.000755363
2.77081e-07
0.000755368
2.5157e-07
0.000755372
2.27891e-07
0.000755376
2.05622e-07
0.00075538
1.85239e-07
1.66388e-07
0.000755383
0.000776241
9.26829e-08
0.000776243
2.47085e-07
0.000776246
3.43621e-07
0.00077625
4.0863e-07
0.000776254
4.43135e-07
0.00077626
4.58497e-07
0.000776266
4.58461e-07
0.000776272
4.47489e-07
0.000776279
4.29611e-07
0.000776285
4.06232e-07
0.000776291
3.80652e-07
0.000776297
3.52995e-07
0.000776303
3.25593e-07
0.000776309
2.98105e-07
0.000776314
2.72021e-07
0.000776318
2.4689e-07
0.000776323
2.23587e-07
0.000776327
2.01686e-07
0.00077633
1.81655e-07
1.63137e-07
0.000776333
0.000797768
9.17058e-08
0.00079777
2.44971e-07
0.000797773
3.40197e-07
0.000797777
4.04263e-07
0.000797783
4.37843e-07
0.000797789
4.52586e-07
0.000797795
4.52055e-07
0.000797802
4.40843e-07
0.000797808
4.2286e-07
0.000797815
3.99555e-07
0.000797822
3.74147e-07
0.000797828
3.46765e-07
0.000797834
3.19689e-07
0.000797839
2.92574e-07
0.000797844
2.66877e-07
0.000797849
2.42144e-07
0.000797854
2.1923e-07
0.000797858
1.9771e-07
0.000797861
1.78038e-07
1.5986e-07
0.000797864
0.000819891
9.06194e-08
0.000819893
2.42517e-07
0.000819897
3.36347e-07
0.000819902
3.99412e-07
0.000819908
4.32082e-07
0.000819914
4.46231e-07
0.000819921
4.45261e-07
0.000819928
4.33856e-07
0.000819935
4.15827e-07
0.000819942
3.92643e-07
0.000819949
3.67452e-07
0.000819955
3.40381e-07
0.000819961
3.13663e-07
0.000819967
2.86945e-07
0.000819972
2.61657e-07
0.000819977
2.37337e-07
0.000819981
2.14826e-07
0.000819985
1.93695e-07
0.000819989
1.74392e-07
1.56561e-07
0.000819992
0.000842628
8.94284e-08
0.000842631
2.39739e-07
0.000842635
3.32094e-07
0.00084264
3.94105e-07
0.000842646
4.25882e-07
0.000842653
4.39461e-07
0.00084266
4.38104e-07
0.000842668
4.26555e-07
0.000842675
4.08533e-07
0.000842682
3.85513e-07
0.000842689
3.60582e-07
0.000842696
3.33855e-07
0.000842702
3.07525e-07
0.000842707
2.81226e-07
0.000842713
2.56366e-07
0.000842718
2.32475e-07
0.000842722
2.10379e-07
0.000842726
1.89647e-07
0.00084273
1.7072e-07
1.53241e-07
0.000842733
0.000865995
8.81392e-08
0.000865999
2.36659e-07
0.000866003
3.27462e-07
0.000866009
3.88371e-07
0.000866015
4.19273e-07
0.000866023
4.32307e-07
0.00086603
4.30613e-07
0.000866038
4.18964e-07
0.000866045
4.00999e-07
0.000866053
3.78184e-07
0.00086606
3.53552e-07
0.000866066
3.27199e-07
0.000866073
3.01284e-07
0.000866078
2.75426e-07
0.000866084
2.51011e-07
0.000866089
2.27562e-07
0.000866093
2.05893e-07
0.000866097
1.85568e-07
0.000866101
1.67024e-07
1.49902e-07
0.000866104
0.000890011
8.67569e-08
0.000890014
2.33293e-07
0.000890019
3.22477e-07
0.000890025
3.82242e-07
0.000890032
4.12286e-07
0.00089004
4.24798e-07
0.000890048
4.22814e-07
0.000890056
4.11106e-07
0.000890063
3.93244e-07
0.000890071
3.70674e-07
0.000890078
3.46376e-07
0.000890085
3.20426e-07
0.000890091
2.9495e-07
0.000890097
2.69552e-07
0.000890102
2.456e-07
0.000890107
2.22604e-07
0.000890112
2.01372e-07
0.000890116
1.81461e-07
0.00089012
1.63307e-07
1.46547e-07
0.000890123
0.000914692
8.52889e-08
0.000914696
2.29664e-07
0.000914701
3.17164e-07
0.000914708
3.75746e-07
0.000914715
4.0495e-07
0.000914723
4.16963e-07
0.000914731
4.14732e-07
0.000914739
4.03006e-07
0.000914747
3.8529e-07
0.000914755
3.62999e-07
0.000914762
3.39068e-07
0.000914769
3.13547e-07
0.000914775
2.88534e-07
0.000914781
2.63613e-07
0.000914787
2.40137e-07
0.000914792
2.17606e-07
0.000914796
1.9682e-07
0.000914801
1.77332e-07
0.000914804
1.59572e-07
1.43179e-07
0.000914808
0.000940058
8.37404e-08
0.000940062
2.2579e-07
0.000940068
3.11547e-07
0.000940075
3.68914e-07
0.000940082
3.97294e-07
0.00094009
4.08832e-07
0.000940099
4.06395e-07
0.000940107
3.94687e-07
0.000940115
3.77156e-07
0.000940123
3.55176e-07
0.00094013
3.31643e-07
0.000940137
3.06575e-07
0.000940144
2.82044e-07
0.00094015
2.57616e-07
0.000940155
2.3463e-07
0.00094016
2.12574e-07
0.000940165
1.92242e-07
0.000940169
1.73182e-07
0.000940173
1.55822e-07
1.39799e-07
0.000940176
0.000966128
8.2119e-08
0.000966132
2.21693e-07
0.000966138
3.05655e-07
0.000966145
3.61776e-07
0.000966153
3.89347e-07
0.000966161
4.00432e-07
0.00096617
3.97826e-07
0.000966178
3.8617e-07
0.000966187
3.6886e-07
0.000966194
3.47222e-07
0.000966202
3.24113e-07
0.000966209
2.9952e-07
0.000966216
2.7549e-07
0.000966222
2.5157e-07
0.000966227
2.29084e-07
0.000966232
2.07513e-07
0.000966237
1.87642e-07
0.000966241
1.69016e-07
0.000966245
1.5206e-07
1.36411e-07
0.000966248
0.00099292
8.043e-08
0.000992924
2.1739e-07
0.00099293
2.9951e-07
0.000992938
3.5436e-07
0.000992946
3.81138e-07
0.000992955
3.91792e-07
0.000992963
3.8905e-07
0.000992972
3.77479e-07
0.000992981
3.60422e-07
0.000992989
3.39153e-07
0.000992996
3.16492e-07
0.000993003
2.92393e-07
0.00099301
2.68881e-07
0.000993016
2.45481e-07
0.000993022
2.23507e-07
0.000993027
2.02428e-07
0.000993031
1.83025e-07
0.000993036
1.64837e-07
0.000993039
1.48289e-07
1.33016e-07
0.000993043
0.00102046
7.86811e-08
0.00102046
2.12904e-07
0.00102047
2.93138e-07
0.00102047
3.46696e-07
0.00102048
3.72696e-07