/*--------------------------------*- C++ -*----------------------------------*\
| =========                 |                                                 |
| \\      /  F ield         | OpenFOAM: The Open Source CFD Toolbox           |
|  \\    /   O peration     | Version:  2.4.0                                 |
|   \\  /    A nd           | Web:      www.OpenFOAM.org                      |
|    \\/     M anipulation  |                                                 |
\*---------------------------------------------------------------------------*/
FoamFile
{
    version     2.0;
    format      ascii;
    class       volScalarField;
    location    "2.17";
    object      p;
}
// * * * * * * * * * * * * * * * * * * * * * * * * * * * * * * * * * * * * * //

dimensions      [0 2 -2 0 0 0 0];

internalField   nonuniform List<scalar> 
6000
(
-0.083781
0.273178
0.230388
0.250109
0.242674
0.247851
0.244564
0.245686
0.24344
0.246085
0.252435
0.251614
0.216846
0.182232
0.184199
0.200133
0.200988
0.177376
0.120627
0.0491454
-0.0106627
-0.0480192
-0.0600267
-0.0473582
-0.0129281
0.0393797
0.104508
0.176941
0.250409
0.31791
0.373077
0.412478
0.435727
0.446147
0.447497
0.443705
0.437483
0.430423
0.423358
0.416677
0.410557
0.405004
0.399939
0.395205
0.390586
0.385839
0.380706
0.374927
0.368236
0.36035
0.350944
0.339638
0.325926
0.309229
0.288523
0.263178
0.229833
0.191182
0.126775
0.0821722
-0.0574457
0.269765
0.230471
0.249962
0.24269
0.247832
0.244587
0.245703
0.243391
0.245814
0.251878
0.251062
0.216631
0.182046
0.18398
0.200157
0.201529
0.178701
0.121824
0.04913
-0.0114703
-0.0491781
-0.0613693
-0.049057
-0.0144767
0.0378692
0.103073
0.17564
0.249311
0.31707
0.37251
0.412157
0.435548
0.446054
0.447417
0.443604
0.437352
0.430265
0.423175
0.416501
0.410366
0.40481
0.399759
0.395026
0.390401
0.38564
0.380486
0.374679
0.367951
0.36002
0.35056
0.339188
0.325397
0.308604
0.287783
0.262293
0.228787
0.189859
0.125337
0.0802887
-0.0405576
0.266317
0.230499
0.249879
0.242688
0.247823
0.2446
0.245713
0.243333
0.245547
0.251309
0.250441
0.216202
0.181515
0.183629
0.200267
0.201854
0.178557
0.120261
0.047249
-0.0130059
-0.0504167
-0.062552
-0.0501352
-0.0158831
0.036374
0.101584
0.174242
0.2481
0.316132
0.371876
0.411788
0.435297
0.445907
0.447302
0.443489
0.437233
0.430148
0.423076
0.416406
0.410275
0.404727
0.399657
0.394915
0.390283
0.385512
0.380346
0.374524
0.367778
0.359825
0.35034
0.33894
0.325116
0.308284
0.287418
0.261866
0.228303
0.189215
0.124694
0.0794056
-0.0283347
0.262471
0.230718
0.249784
0.242676
0.247812
0.244621
0.245718
0.243251
0.245264
0.250771
0.249939
0.215795
0.18082
0.183162
0.200354
0.201866
0.177035
0.116998
0.0445367
-0.0148288
-0.0519495
-0.0641587
-0.0518696
-0.0176244
0.0346309
0.0999094
0.172711
0.246806
0.31516
0.371246
0.411416
0.43509
0.445768
0.447182
0.443361
0.437089
0.42999
0.422899
0.416195
0.410066
0.404546
0.399489
0.39475
0.390113
0.385332
0.38015
0.374306
0.367534
0.359549
0.350025
0.338578
0.324698
0.307799
0.28685
0.261201
0.227503
0.188296
0.123519
0.0784113
-0.0165287
0.258347
0.231099
0.249692
0.242665
0.2478
0.244648
0.245718
0.243146
0.244941
0.250234
0.249498
0.215444
0.180062
0.18256
0.200325
0.201404
0.174479
0.113165
0.0416047
-0.0168727
-0.0537879
-0.0660324
-0.0538198
-0.0195945
0.0326955
0.0980639
0.171024
0.245375
0.314078
0.370542
0.411009
0.434892
0.445648
0.44708
0.443242
0.436947
0.42983
0.422734
0.416053
0.409942
0.404391
0.399331
0.394589
0.389945
0.385154
0.379956
0.374091
0.367293
0.359277
0.349718
0.33823
0.324301
0.307345
0.286329
0.260596
0.226806
0.187461
0.122639
0.0775086
-0.00494647
0.25411
0.231595
0.249588
0.242663
0.247788
0.24468
0.245716
0.243018
0.244562
0.249645
0.249024
0.215121
0.179269
0.181846
0.200094
0.200381
0.171177
0.109027
0.0385207
-0.0192181
-0.055949
-0.0681865
-0.056017
-0.0218032
0.0305287
0.0959879
0.169108
0.243728
0.312813
0.369701
0.410522
0.434661
0.445519
0.446978
0.443125
0.436805
0.429668
0.422562
0.415876
0.409763
0.404222
0.399165
0.394423
0.389774
0.384972
0.379759
0.373873
0.367048
0.359001
0.349405
0.337873
0.323894
0.306878
0.285788
0.25997
0.226065
0.186606
0.121573
0.0766505
0.00579045
0.24986
0.232126
0.249455
0.242675
0.247775
0.244718
0.245714
0.242868
0.244119
0.248974
0.248463
0.214828
0.178502
0.181074
0.199581
0.198843
0.167324
0.104614
0.0352479
-0.0218888
-0.0584116
-0.0706116
-0.0584661
-0.0242567
0.0281178
0.0936648
0.166944
0.241847
0.311345
0.368701
0.409928
0.434373
0.445365
0.446863
0.443
0.436656
0.4295
0.422383
0.415694
0.409583
0.404048
0.398996
0.394255
0.389603
0.384792
0.379563
0.373657
0.366807
0.358728
0.349095
0.33752
0.323489
0.306413
0.285251
0.259348
0.225331
0.185766
0.120568
0.0758624
0.0156251
0.245669
0.232619
0.249304
0.242695
0.247764
0.244763
0.245714
0.242697
0.24361
0.248211
0.247786
0.214583
0.177834
0.180313
0.19883
0.19683
0.163087
0.100037
0.0317695
-0.024849
-0.0611404
-0.0732867
-0.0611558
-0.0269462
0.0254706
0.0911016
0.164539
0.239736
0.309675
0.36754
0.40922
0.434015
0.445172
0.446726
0.442859
0.436496
0.429323
0.422195
0.415504
0.409396
0.403868
0.398823
0.394085
0.389432
0.384613
0.379371
0.373445
0.366569
0.35846
0.348791
0.337174
0.323093
0.305958
0.284724
0.258738
0.224612
0.184949
0.119587
0.0751318
0.0247875
0.241602
0.233024
0.24915
0.242713
0.247756
0.244815
0.245717
0.242508
0.243039
0.247325
0.247025
0.214409
0.177348
0.179631
0.197905
0.194439
0.158615
0.0954149
0.0280962
-0.0280521
-0.0641023
-0.0761865
-0.0640652
-0.0298536
0.0226044
0.088315
0.161907
0.237406
0.30781
0.36622
0.408392
0.433576
0.444932
0.446561
0.442697
0.436319
0.429132
0.421997
0.415305
0.409203
0.403683
0.398646
0.393913
0.389259
0.384434
0.379179
0.373235
0.366335
0.358197
0.348492
0.336834
0.322705
0.305513
0.28421
0.258143
0.223912
0.184157
0.118645
0.0744556
0.0334322
0.237698
0.233317
0.248994
0.242724
0.247752
0.244873
0.245724
0.242305
0.242412
0.246315
0.246216
0.214325
0.177135
0.179099
0.196903
0.191775
0.15403
0.0908072
0.0242572
-0.031457
-0.0672656
-0.0792841
-0.0671705
-0.0329567
0.0195401
0.0853247
0.159067
0.234874
0.305764
0.364748
0.407447
0.43305
0.444635
0.446359
0.44251
0.436122
0.428926
0.421786
0.415096
0.409001
0.403492
0.398464
0.393737
0.389085
0.384255
0.378988
0.373026
0.366103
0.357936
0.348198
0.3365
0.322324
0.305077
0.283707
0.257563
0.223232
0.183391
0.117748
0.0738236
0.041612
0.233979
0.233491
0.248817
0.242759
0.247751
0.244937
0.245736
0.242092
0.241742
0.245198
0.24538
0.214356
0.177293
0.178797
0.195925
0.188964
0.149427
0.086239
0.0202888
-0.0350256
-0.0705991
-0.0825518
-0.0704464
-0.0362318
0.0163007
0.0821525
0.156039
0.232155
0.303547
0.363132
0.406388
0.432435
0.444274
0.446115
0.442293
0.4359
0.428701
0.421562
0.414877
0.408791
0.403294
0.398277
0.393559
0.388908
0.384074
0.378796
0.372817
0.365871
0.357677
0.347906
0.336169
0.321948
0.304648
0.283214
0.256995
0.222571
0.182647
0.116896
0.0732262
0.0493558
0.23046
0.233549
0.248618
0.242827
0.247751
0.245007
0.245753
0.241875
0.241041
0.244
0.24452
0.214533
0.177922
0.178825
0.195079
0.186127
0.144889
0.0817291
0.0162282
-0.0387209
-0.0740708
-0.0859611
-0.0738667
-0.0396541
0.0129101
0.0788215
0.152843
0.229268
0.301175
0.361383
0.405219
0.431732
0.443845
0.445821
0.442039
0.435651
0.428455
0.421323
0.414647
0.408573
0.403089
0.398086
0.393376
0.388729
0.383891
0.378603
0.372607
0.36564
0.357418
0.347615
0.335841
0.321576
0.304225
0.28273
0.256439
0.221926
0.181923
0.116086
0.0726558
0.0566987
0.22715
0.233498
0.248387
0.24293
0.247746
0.245083
0.245774
0.241659
0.240323
0.242744
0.243643
0.214895
0.179113
0.179348
0.194446
0.18337
0.140485
0.0772971
0.0121124
-0.0425068
-0.0776492
-0.0894835
-0.0774051
-0.0431982
0.00939294
0.0753555
0.149501
0.226232
0.298661
0.359509
0.403948
0.430941
0.443343
0.445471
0.441744
0.435371
0.428185
0.421066
0.414405
0.408346
0.402879
0.39789
0.393191
0.388548
0.383707
0.378409
0.372397
0.365408
0.35716
0.347326
0.335515
0.321208
0.303806
0.282252
0.255892
0.221296
0.181217
0.115315
0.072107
0.0636759
0.224056
0.233347
0.248117
0.243066
0.247727
0.245166
0.2458
0.241447
0.239601
0.241457
0.242757
0.21548
0.180945
0.1805
0.194136
0.18077
0.136269
0.072963
0.00797731
-0.0463488
-0.0813031
-0.0930909
-0.0810352
-0.0468392
0.00577375
0.0717785
0.146037
0.223066
0.296019
0.35752
0.402578
0.430064
0.442768
0.445061
0.441403
0.435056
0.427889
0.420791
0.414151
0.408112
0.402663
0.39769
0.393002
0.388364
0.383521
0.378214
0.372186
0.365176
0.356902
0.347037
0.335191
0.320842
0.303392
0.281781
0.255354
0.220679
0.180527
0.114579
0.0715757
0.0703153
0.221179
0.233107
0.247806
0.243221
0.247701
0.245252
0.24583
0.241243
0.238887
0.24016
0.241877
0.216368
0.183483
0.182414
0.194205
0.178387
0.132283
0.068746
0.00385753
-0.0502139
-0.0850028
-0.0967561
-0.0847317
-0.0505524
0.00207686
0.0681145
0.142473
0.219789
0.293264
0.355426
0.401115
0.429102
0.442119
0.444588
0.441012
0.434703
0.427565
0.420497
0.413884
0.40787
0.402443
0.397488
0.392812
0.388179
0.383334
0.378018
0.371975
0.364944
0.356644
0.346749
0.334868
0.320479
0.302982
0.281315
0.254823
0.220075
0.179853
0.113875
0.071059
0.0766386
0.218518
0.23279
0.247453
0.243378
0.247678
0.245337
0.245864
0.241051
0.238191
0.238875
0.241017
0.21761
0.186791
0.185176
0.194692
0.176262
0.128556
0.0646652
-0.000214529
-0.0540713
-0.0887197
-0.100453
-0.0884698
-0.0543138
-0.0016741
0.0643871
0.138832
0.216421
0.290413
0.353236
0.399565
0.428057
0.441394
0.444049
0.440568
0.434309
0.427211
0.420183
0.413606
0.40762
0.402218
0.397282
0.39262
0.387994
0.383147
0.377821
0.371763
0.364711
0.356386
0.346461
0.334546
0.320118
0.302575
0.280855
0.254301
0.219483
0.179194
0.113202
0.0705548
0.0826645
0.21607
0.232409
0.247058
0.243528
0.247663
0.245413
0.245903
0.240872
0.237521
0.237619
0.24019
0.219207
0.190871
0.188787
0.195623
0.174426
0.125106
0.060739
-0.00420887
-0.057892
-0.092427
-0.104156
-0.0922259
-0.0581006
-0.00545628
0.060619
0.135135
0.212982
0.28748
0.350959
0.397932
0.42693
0.440594
0.443442
0.440068
0.433871
0.426826
0.419847
0.413315
0.407365
0.40199
0.397076
0.392428
0.387808
0.382959
0.377625
0.371551
0.364478
0.356128
0.346174
0.334226
0.319759
0.302172
0.280401
0.253786
0.218902
0.178548
0.112557
0.0700616
0.0884096
0.213828
0.231976
0.246625
0.243663
0.247656
0.245479
0.245947
0.240708
0.236884
0.236406
0.239406
0.221127
0.195655
0.19318
0.196995
0.172895
0.121945
0.0569851
-0.00809816
-0.0616494
-0.0960993
-0.107842
-0.0959773
-0.0618907
-0.00924787
0.0568322
0.131404
0.209491
0.28448
0.348605
0.39622
0.425723
0.439717
0.442766
0.43951
0.433389
0.426408
0.41949
0.413012
0.407104
0.40176
0.396869
0.392236
0.387622
0.382772
0.377428
0.371339
0.364246
0.355871
0.345888
0.333907
0.319403
0.301773
0.279951
0.253278
0.218333
0.177917
0.11194
0.0695786
0.093889
0.211787
0.231505
0.246159
0.243779
0.247653
0.245539
0.245993
0.240561
0.236285
0.23525
0.238672
0.22331
0.201024
0.198235
0.198777
0.171677
0.119078
0.0534195
-0.0118578
-0.065319
-0.099713
-0.111488
-0.0997027
-0.0656633
-0.013028
0.0530479
0.12766
0.205967
0.281427
0.346185
0.394434
0.424435
0.438762
0.44202
0.438892
0.432861
0.425956
0.419111
0.412697
0.406838
0.40153
0.396662
0.392045
0.387438
0.382586
0.377233
0.371128
0.364014
0.355614
0.345603
0.33359
0.31905
0.301377
0.279508
0.252778
0.217775
0.1773
0.111347
0.0691049
0.0991163
0.209939
0.231006
0.245665
0.243871
0.24765
0.245604
0.24603
0.240433
0.235728
0.234159
0.237993
0.225682
0.206823
0.2038
0.200921
0.170769
0.116504
0.0500564
-0.0154661
-0.0688785
-0.103246
-0.115074
-0.103381
-0.0693984
-0.016777
0.0492859
0.123924
0.202428
0.278336
0.343708
0.392575
0.423067
0.437728
0.441201
0.438214
0.432285
0.42547
0.41871
0.41237
0.406569
0.401299
0.396458
0.391856
0.387256
0.382401
0.377039
0.370918
0.363783
0.355359
0.345319
0.333275
0.318699
0.300986
0.279069
0.252286
0.217229
0.176696
0.11078
0.0686402
0.104104
0.208275
0.23049
0.245149
0.243937
0.24764
0.245679
0.246053
0.240326
0.235215
0.233143
0.237373
0.228171
0.212889
0.20971
0.203367
0.170162
0.114219
0.0469083
-0.0189038
-0.0723076
-0.106678
-0.118579
-0.106994
-0.0730767
-0.020476
0.0455653
0.120213
0.198893
0.275218
0.341183
0.390648
0.421619
0.436612
0.440308
0.437473
0.431662
0.42495
0.418287
0.412033
0.406296
0.40107
0.396257
0.391671
0.387077
0.38222
0.376847
0.37071
0.363554
0.355104
0.345037
0.332962
0.31835
0.300598
0.278637
0.251801
0.216693
0.176105
0.110236
0.0681843
0.108864
0.206786
0.229966
0.244618
0.243975
0.247621
0.245763
0.246062
0.240237
0.23475
0.232206
0.236815
0.230708
0.219065
0.215803
0.206051
0.169839
0.112216
0.0439852
-0.0221544
-0.0755878
-0.10999
-0.121983
-0.11052
-0.0766798
-0.024107
0.041904
0.116547
0.195378
0.272087
0.338619
0.388656
0.420091
0.435415
0.43934
0.436669
0.43099
0.424395
0.417842
0.411685
0.406021
0.400844
0.39606
0.391491
0.386902
0.382042
0.376658
0.370504
0.363326
0.354852
0.344757
0.332651
0.318006
0.300214
0.27821
0.251324
0.216169
0.175529
0.109714
0.0677368
0.113407
0.205463
0.229443
0.244077
0.243985
0.247589
0.245851
0.246059
0.240161
0.234334
0.231355
0.236321
0.233235
0.225214
0.221937
0.208909
0.16978
0.110485
0.0412953
-0.0252037
-0.0787025
-0.113163
-0.125269
-0.113944
-0.08019
-0.0276529
0.0383189
0.112942
0.191899
0.268954
0.336025
0.386601
0.418482
0.434132
0.438293
0.435802
0.430269
0.423807
0.417376
0.411326
0.405744
0.400621
0.395869
0.391316
0.386732
0.381867
0.376472
0.3703
0.363102
0.354602
0.34448
0.332343
0.317664
0.299835
0.27779
0.250855
0.215656
0.174966
0.109214
0.0672977
0.117743
0.204298
0.228927
0.243533
0.243966
0.247544
0.245941
0.246045
0.240099
0.233968
0.230593
0.235895
0.235704
0.231222
0.227991
0.211881
0.169961
0.109018
0.0388445
-0.0280399
-0.081637
-0.116181
-0.128419
-0.117245
-0.0835899
-0.0310972
0.0348264
0.109415
0.188469
0.265834
0.333405
0.384486
0.416792
0.432763
0.437168
0.434869
0.429499
0.423184
0.416889
0.410958
0.405466
0.400402
0.395684
0.391147
0.386568
0.381698
0.376291
0.370101
0.36288
0.354355
0.344205
0.332038
0.317326
0.299461
0.277375
0.250394
0.215155
0.174416
0.108735
0.0668668
0.121883
0.203279
0.228424
0.242991
0.243922
0.247483
0.246026
0.246024
0.240049
0.233652
0.229926
0.235536
0.238078
0.236998
0.23387
0.214915
0.170357
0.107801
0.0366368
-0.030653
-0.0843778
-0.119029
-0.131417
-0.120409
-0.0868625
-0.0344238
0.0314418
0.105982
0.185098
0.262742
0.330768
0.382314
0.41502
0.431306
0.43596
0.433869
0.42868
0.422528
0.416381
0.41058
0.405188
0.400188
0.395506
0.390986
0.38641
0.381535
0.376114
0.369905
0.362661
0.354111
0.343933
0.331736
0.316992
0.299091
0.276967
0.249942
0.214664
0.17388
0.108277
0.0664442
0.125837
0.202398
0.227939
0.242454
0.243853
0.247408
0.246104
0.245997
0.240008
0.233385
0.229363
0.235247
0.240332
0.242475
0.2395
0.217961
0.170939
0.106824
0.0346742
-0.0330351
-0.086913
-0.121693
-0.134245
-0.123416
-0.0899912
-0.0376172
0.0281802
0.102655
0.181798
0.259689
0.328118
0.380084
0.413163
0.429756
0.43467
0.432802
0.427812
0.42184
0.415854
0.410193
0.404909
0.39998
0.395337
0.390833
0.38626
0.381378
0.375942
0.369714
0.362447
0.353871
0.343665
0.331438
0.316663
0.298727
0.276566
0.249497
0.214186
0.173358
0.107839
0.0660298
0.129613
0.201646
0.227476
0.241929
0.243764
0.247318
0.246171
0.245965
0.239975
0.23317
0.228909
0.235028
0.242445
0.247606
0.244829
0.220982
0.171683
0.106072
0.0329573
-0.0351799
-0.0892324
-0.124158
-0.13689
-0.126251
-0.0929595
-0.0406622
0.0250563
0.0994449
0.178588
0.256685
0.325461
0.377799
0.411221
0.428113
0.433293
0.431666
0.426895
0.421119
0.415308
0.409798
0.404631
0.399777
0.395176
0.39069
0.386118
0.381227
0.375777
0.369528
0.362237
0.353635
0.343401
0.331145
0.316338
0.298368
0.276171
0.249062
0.213718
0.172849
0.107419
0.0656235
0.133221
0.201014
0.227037
0.241419
0.243657
0.247216
0.246225
0.245927
0.23995
0.233006
0.228567
0.234882
0.24441
0.252359
0.249819
0.223943
0.172562
0.105534
0.0314849
-0.0370825
-0.0913266
-0.126414
-0.139336
-0.128898
-0.0957513
-0.0435439
0.0220841
0.0963615
0.175481
0.253738
0.322803
0.37546
0.409191
0.426373
0.431828
0.430461
0.425929
0.420366
0.414744
0.409395
0.404352
0.399581
0.395023
0.390556
0.385985
0.381085
0.375618
0.369348
0.362033
0.353404
0.343142
0.330856
0.316019
0.298016
0.275784
0.248635
0.213263
0.172354
0.107018
0.0652254
0.136669
0.200494
0.226625
0.240926
0.243536
0.247102
0.246265
0.245884
0.239935
0.232892
0.228335
0.234817
0.246221
0.256716
0.254449
0.226815
0.17355
0.105195
0.0302546
-0.0387399
-0.0931877
-0.128447
-0.141569
-0.131341
-0.0983505
-0.0462473
0.0192753
0.093419
0.172487
0.250855
0.320146
0.373066
0.407071
0.424533
0.430273
0.429185
0.424913
0.419583
0.414163
0.408985
0.404075
0.399391
0.39488
0.390431
0.385862
0.380951
0.375466
0.369174
0.361834
0.353178
0.342888
0.330573
0.315705
0.297669
0.275404
0.248218
0.212819
0.171873
0.106636
0.0648355
0.139965
0.200076
0.226241
0.240453
0.243405
0.24698
0.246292
0.245835
0.239931
0.232829
0.228196
0.234855
0.247881
0.260667
0.258704
0.229576
0.174624
0.105042
0.0292628
-0.0401499
-0.094809
-0.130248
-0.143576
-0.133564
-0.100741
-0.0487565
0.0166404
0.0906305
0.169617
0.248045
0.317495
0.370616
0.404858
0.422591
0.428626
0.427837
0.423849
0.41877
0.413565
0.408569
0.403798
0.399207
0.394747
0.390317
0.385748
0.380825
0.375322
0.369007
0.361641
0.352958
0.34264
0.330295
0.315397
0.29733
0.275032
0.24781
0.212387
0.171406
0.10627
0.0644538
0.143117
0.199753
0.225886
0.240003
0.243267
0.246852
0.246306
0.24578
0.239938
0.232814
0.22815
0.235003
0.249393
0.264211
0.262581
0.232205
0.175761
0.105061
0.0285048
-0.0413117
-0.0961848
-0.131808
-0.145344
-0.135553
-0.102909
-0.0510575
0.014193
0.0880071
0.166879
0.245314
0.314853
0.368111
0.40255
0.420543
0.426884
0.426417
0.422735
0.417927
0.412952
0.408147
0.403523
0.399029
0.394622
0.390214
0.385644
0.380709
0.375186
0.368848
0.361455
0.352745
0.342397
0.330024
0.315095
0.296997
0.274668
0.247411
0.211967
0.170952
0.105922
0.0640804
0.146133
0.199518
0.225561
0.239577
0.243126
0.24672
0.246308
0.245719
0.239959
0.232848
0.2282
0.235256
0.250773
0.267352
0.266079
0.234686
0.176938
0.105238
0.0279754
-0.0422238
-0.0973099
-0.133117
-0.146861
-0.137294
-0.104836
-0.0531354
0.0119459
0.0855593
0.164283
0.242668
0.312222
0.365549
0.400143
0.418385
0.425044
0.424922
0.421573
0.417055
0.412325
0.40772
0.403249
0.398858
0.394508
0.39012
0.38555
0.380602
0.375059
0.368696
0.361276
0.352538
0.342162
0.329759
0.314801
0.296672
0.274313
0.247023
0.21156
0.170513
0.105591
0.0637153
0.149019
0.199365
0.225265
0.239175
0.242983
0.246586
0.246302
0.245655
0.239994
0.23293
0.228346
0.235596
0.25205
0.2701
0.269202
0.237002
0.178136
0.105557
0.0276663
-0.042885
-0.0981785
-0.134168
-0.148116
-0.138772
-0.106508
-0.0549754
0.00991092
0.0832969
0.161837
0.240112
0.309604
0.362929
0.397635
0.416115
0.423105
0.423353
0.420362
0.416157
0.411684
0.407288
0.402978
0.398693
0.394402
0.390038
0.385467
0.380505
0.37494
0.368552
0.361105
0.352338
0.341933
0.329501
0.314514
0.296354
0.273967
0.246645
0.211165
0.170087
0.105276
0.0633586
0.151782
0.199285
0.224999
0.238799
0.242842
0.246454
0.24629
0.245589
0.240043
0.233059
0.228587
0.236006
0.253251
0.272465
0.27196
0.239134
0.179338
0.106003
0.027568
-0.0432951
-0.0987865
-0.134952
-0.149099
-0.139974
-0.107909
-0.0565643
0.008099
0.0812296
0.159548
0.237652
0.307
0.360248
0.395021
0.413728
0.421063
0.421708
0.419103
0.415231
0.411031
0.406854
0.402709
0.398535
0.394306
0.389966
0.385395
0.380418
0.374831
0.368416
0.360942
0.352146
0.341712
0.32925
0.314234
0.296046
0.273629
0.246277
0.210782
0.169676
0.104977
0.0630105
0.154428
0.199273
0.224762
0.238448
0.242706
0.246325
0.246274
0.245526
0.240108
0.233237
0.228919
0.236486
0.254391
0.274458
0.274369
0.241063
0.180527
0.106563
0.0276729
-0.043457
-0.0991308
-0.135462
-0.149799
-0.140888
-0.109026
-0.0578898
0.00652075
0.0793668
0.157425
0.235292
0.30441
0.357505
0.392298
0.411221
0.418917
0.419986
0.417796
0.41428
0.410366
0.406417
0.402443
0.398384
0.394219
0.389904
0.385333
0.380341
0.374731
0.368289
0.360786
0.351961
0.341498
0.329008
0.313963
0.295745
0.273302
0.245921
0.210412
0.169279
0.104694
0.0626709
0.156964
0.199324
0.224553
0.238124
0.242576
0.246202
0.246256
0.245467
0.240189
0.233462
0.229338
0.237038
0.255482
0.276114
0.276439
0.242764
0.181683
0.107223
0.0279729
-0.0433742
-0.0992094
-0.135693
-0.150206
-0.1415
-0.109845
-0.0589404
0.00518624
0.0777173
0.155473
0.233036
0.301834
0.354697
0.389462
0.40859
0.416662
0.418185
0.41644
0.413303
0.409692
0.405978
0.40218
0.398239
0.39414
0.389853
0.385281
0.380274
0.37464
0.368172
0.36064
0.351786
0.341293
0.328774
0.3137
0.295454
0.272985
0.245576
0.210056
0.168897
0.104426
0.0623402
0.159395
0.199432
0.224373
0.237825
0.242453
0.246086
0.24624
0.245417
0.24029
0.233734
0.229839
0.237657
0.256515
0.277492
0.278159
0.244226
0.182792
0.107969
0.0284596
-0.0430506
-0.0990208
-0.135638
-0.150313
-0.141801
-0.110357
-0.0597059
0.00410499
0.0762896
0.153701
0.230886
0.299273
0.351821
0.38651
0.40583
0.414296
0.416305
0.415038
0.412304
0.409008
0.405539
0.401922
0.398102
0.394072
0.389811
0.38524
0.380217
0.37456
0.368064
0.360503
0.351619
0.341097
0.328548
0.313447
0.295173
0.272678
0.245242
0.209712
0.168529
0.104174
0.0620184
0.161725
0.199591
0.22422
0.237551
0.24234
0.24598
0.246228
0.245378
0.24041
0.234052
0.230414
0.238339
0.25749
0.278631
0.279527
0.245452
0.183841
0.10879
0.0291238
-0.0424904
-0.098564
-0.135293
-0.15011
-0.14178
-0.110551
-0.0601765
0.00328588
0.0750919
0.152113
0.228845
0.296725
0.348875
0.383438
0.402938
0.411816
0.414343
0.413588
0.411281
0.408317
0.405101
0.401669
0.397972
0.394012
0.38978
0.38521
0.380171
0.374489
0.367965
0.360374
0.351461
0.34091
0.328332
0.313202
0.294901
0.272381
0.244921
0.209383
0.168176
0.103936
0.0617057
0.163961
0.199798
0.224094
0.237303
0.242236
0.245883
0.246222
0.245354
0.240553
0.234414
0.231059
0.23908
0.258406
0.279552
0.280557
0.246447
0.184816
0.109672
0.0299563
-0.0416985
-0.0978386
-0.134653
-0.149591
-0.14143
-0.110417
-0.0603437
0.00273716
0.0741318
0.150715
0.226915
0.29419
0.345856
0.38024
0.399909
0.409217
0.412299
0.412091
0.410238
0.407619
0.404664
0.401421
0.39785
0.393961
0.389759
0.38519
0.380135
0.374429
0.367876
0.360256
0.351312
0.340732
0.328125
0.312968
0.29464
0.272096
0.244611
0.209067
0.167838
0.103713
0.0614023
0.166107
0.200048
0.223994
0.23708
0.242144
0.245799
0.246223
0.245348
0.24072
0.234819
0.231765
0.239872
0.259261
0.280271
0.28127
0.247216
0.185706
0.110604
0.0309472
-0.0406801
-0.0968449
-0.133715
-0.14875
-0.140742
-0.109949
-0.0602
0.00246637
0.0734166
0.149512
0.225098
0.291667
0.34276
0.376914
0.396737
0.406495
0.410169
0.410547
0.409174
0.406916
0.40423
0.40118
0.397736
0.393919
0.389748
0.38518
0.380109
0.374378
0.367797
0.360147
0.351173
0.340564
0.327929
0.312744
0.294389
0.271823
0.244315
0.208765
0.167516
0.103505
0.0611084
0.168167
0.200337
0.22392
0.23688
0.242063
0.245726
0.246233
0.245359
0.240913
0.235265
0.232525
0.240705
0.260052
0.280805
0.281682
0.247764
0.186503
0.111575
0.032087
-0.0394408
-0.095584
-0.132476
-0.147582
-0.139711
-0.10914
-0.0597391
0.00248033
0.0729529
0.14851
0.223395
0.289153
0.339586
0.373453
0.393416
0.403645
0.407952
0.408956
0.408091
0.406209
0.403799
0.400945
0.39763
0.393886
0.389746
0.385179
0.380093
0.374337
0.367727
0.360048
0.351045
0.340405
0.327742
0.31253
0.29415
0.271561
0.244031
0.208477
0.167209
0.103312
0.0608241
0.170144
0.20066
0.22387
0.236705
0.241994
0.245666
0.246254
0.245391
0.241132
0.235751
0.233329
0.241566
0.260776
0.281165
0.281814
0.248095
0.187199
0.112572
0.0333655
-0.037987
-0.0940578
-0.130936
-0.146083
-0.138331
-0.107984
-0.0589557
0.00278512
0.072747
0.14771
0.221806
0.286648
0.33633
0.369855
0.389941
0.400662
0.405644
0.407318
0.40699
0.4055
0.403374
0.400719
0.397533
0.393863
0.389753
0.385189
0.380087
0.374307
0.367668
0.359959
0.350926
0.340258
0.327566
0.312327
0.293922
0.271312
0.243761
0.208204
0.166917
0.103133
0.0605498
0.172044
0.201015
0.223844
0.236552
0.241938
0.24562
0.246286
0.245442
0.241377
0.236273
0.234171
0.242443
0.261431
0.281357
0.281683
0.248215
0.187787
0.113587
0.0347724
-0.0363255
-0.092269
-0.129092
-0.144251
-0.1366
-0.106479
-0.0578459
0.0033861
0.0728047
0.147119
0.220332
0.28415
0.33299
0.366114
0.386305
0.397539
0.403243
0.405634
0.405873
0.40479
0.402955
0.400502
0.397445
0.393849
0.389771
0.385208
0.380091
0.374286
0.367619
0.35988
0.350818
0.34012
0.327401
0.312136
0.293705
0.271075
0.243504
0.207946
0.166641
0.102968
0.0602856
0.173869
0.201398
0.223841
0.236423
0.241894
0.245587
0.24633
0.245515
0.241648
0.236828
0.235041
0.243324
0.26201
0.281386
0.281313
0.248127
0.188263
0.114607
0.0362972
-0.0344638
-0.0902209
-0.126946
-0.142085
-0.134514
-0.104621
-0.0564069
0.0042879
0.0731312
0.146737
0.218973
0.281657
0.329564
0.362225
0.382499
0.394269
0.400745
0.403902
0.404741
0.404081
0.402544
0.400294
0.397367
0.393844
0.389797
0.385237
0.380104
0.374275
0.36758
0.359811
0.35072
0.339994
0.327247
0.311956
0.293501
0.270851
0.243261
0.207703
0.166381
0.102817
0.0600318
0.175623
0.201806
0.22386
0.236315
0.241863
0.245568
0.246387
0.245607
0.241942
0.237413
0.23593
0.244196
0.262508
0.281252
0.280725
0.247836
0.188624
0.115624
0.0379289
-0.0324101
-0.0879183
-0.124499
-0.139584
-0.132073
-0.102411
-0.0546371
0.00549444
0.0737311
0.146567
0.217727
0.279169
0.326049
0.358182
0.378514
0.390843
0.398145
0.402124
0.403595
0.403375
0.402141
0.400096
0.397299
0.393849
0.389833
0.385275
0.380127
0.374274
0.367551
0.359753
0.350633
0.339879
0.327104
0.311788
0.29331
0.270641
0.243033
0.207475
0.166138
0.102681
0.0597887
0.177309
0.202236
0.223902
0.236229
0.241846
0.245562
0.246456
0.245719
0.242257
0.238021
0.236831
0.245048
0.262918
0.280959
0.279938
0.247349
0.188868
0.116628
0.0396562
-0.0301733
-0.0853668
-0.121755
-0.136751
-0.129278
-0.0998497
-0.0525363
0.00700901
0.0746083
0.146612
0.216596
0.276686
0.322444
0.35398
0.374341
0.387252
0.395437
0.400298
0.402437
0.402672
0.401749
0.39991
0.397242
0.393863
0.389878
0.385323
0.38016
0.374283
0.367532
0.359706
0.350556
0.339774
0.326973
0.311632
0.293131
0.270443
0.242819
0.207263
0.165911
0.102559
0.0595565
0.178931
0.202686
0.223964
0.236165
0.241841
0.24557
0.246538
0.24585
0.242592
0.238649
0.237736
0.245869
0.263234
0.280507
0.278973
0.246673
0.188993
0.117611
0.0414672
-0.0277634
-0.0825732
-0.118717
-0.133586
-0.126132
-0.0969394
-0.0501051
0.00883424
0.0757664
0.146871
0.215577
0.274206
0.318748
0.349611
0.369968
0.383486
0.392617
0.398423
0.401267
0.401974
0.401368
0.399737
0.397196
0.393888
0.389932
0.385379
0.380201
0.374301
0.367523
0.359668
0.350491
0.339681
0.326854
0.311488
0.292965
0.27026
0.24262
0.207067
0.1657
0.102451
0.0593356
0.18049
0.203154
0.224046
0.236121
0.24185
0.245593
0.246632
0.245999
0.242943
0.23929
0.238637
0.246651
0.263452
0.2799
0.277845
0.245822
0.188999
0.118563
0.0433498
-0.0251914
-0.0795458
-0.115391
-0.130097
-0.12264
-0.0936849
-0.0473455
0.0109722
0.077208
0.147345
0.214669
0.27173
0.314959
0.345068
0.365382
0.37953
0.389678
0.396499
0.400089
0.401285
0.401001
0.399577
0.397162
0.393923
0.389996
0.385445
0.380252
0.374328
0.367524
0.359641
0.350436
0.3396
0.326747
0.311357
0.292812
0.270091
0.242436
0.206887
0.165507
0.102357
0.0591261
0.18199
0.203636
0.224148
0.236098
0.241872
0.245628
0.24674
0.246165
0.243309
0.239939
0.239526
0.247386
0.263569
0.279143
0.276567
0.244811
0.188887
0.119478
0.0452914
-0.0224694
-0.0762942
-0.111785
-0.126288
-0.118808
-0.0900921
-0.0442601
0.0134245
0.0789351
0.148033
0.213873
0.269259
0.311077
0.340343
0.360568
0.375373
0.386612
0.394526
0.398902
0.400604
0.400648
0.399431
0.39714
0.393968
0.390069
0.385519
0.380311
0.374365
0.367535
0.359625
0.350393
0.33953
0.326652
0.311239
0.292673
0.269937
0.242268
0.206723
0.16533
0.102278
0.0589285
0.183433
0.204131
0.224269
0.236094
0.241908
0.245678
0.246859
0.246347
0.243687
0.240592
0.240398
0.24807
0.263585
0.278244
0.275151
0.243659
0.18866
0.120349
0.0472791
-0.0196109
-0.0728299
-0.107908
-0.122169
-0.114645
-0.0861688
-0.0408524
0.0161922
0.0809486
0.148935
0.213187
0.266796
0.3071
0.335427
0.355511
0.370998
0.383411
0.392501
0.397709
0.399935
0.400311
0.3993
0.397131
0.394024
0.390151
0.385601
0.38038
0.374411
0.367555
0.359619
0.350361
0.339472
0.326569
0.311134
0.292548
0.269797
0.242116
0.206576
0.165172
0.102212
0.0587431
0.184821
0.204637
0.224407
0.23611
0.241957
0.245741
0.246991
0.246545
0.244075
0.241244
0.241246
0.248699
0.263503
0.277213
0.273607
0.242386
0.188324
0.121173
0.0493006
-0.0166302
-0.0691659
-0.103773
-0.11775
-0.110161
-0.0819241
-0.0371265
0.0192759
0.083249
0.150048
0.21261
0.264342
0.303029
0.33031
0.350193
0.366389
0.380068
0.390424
0.396511
0.399279
0.399991
0.399185
0.397134
0.39409
0.390242
0.385693
0.380457
0.374466
0.367585
0.359624
0.350339
0.339426
0.326499
0.311042
0.292437
0.269671
0.241979
0.206445
0.16503
0.102162
0.0585702
0.186158
0.205153
0.224563
0.236145
0.24202
0.245817
0.247136
0.246757
0.244471
0.241892
0.242067
0.249272
0.263328
0.276063
0.271948
0.241014
0.18789
0.121946
0.051344
-0.0135429
-0.0653173
-0.0993912
-0.113044
-0.105369
-0.0773683
-0.0330864
0.0226759
0.0858352
0.151369
0.212143
0.261901
0.298863
0.32498
0.344594
0.361528
0.376574
0.388294
0.39531
0.398639
0.399691
0.399087
0.397152
0.394167
0.390342
0.385792
0.380542
0.37453
0.367625
0.359638
0.350329
0.339392
0.326442
0.310963
0.29234
0.269561
0.241859
0.206332
0.164907
0.102125
0.0584101
0.187444
0.205676
0.224736
0.236198
0.242097
0.245907
0.247292
0.246983
0.244874
0.242532
0.242859
0.249791
0.263068
0.27481
0.270188
0.23956
0.187372
0.122669
0.0533987
-0.0103647
-0.0613006
-0.0947798
-0.108066
-0.100284
-0.0725125
-0.0287366
0.0263918
0.0887055
0.152894
0.211786
0.259478
0.294601
0.319428
0.338696
0.356397
0.37292
0.386109
0.394108
0.398016
0.399412
0.399008
0.397183
0.394255
0.390451
0.3859
0.380636
0.374603
0.367675
0.359664
0.35033
0.339369
0.326397
0.310898
0.292257
0.269467
0.241755
0.206236
0.164802
0.102103
0.0582633
0.188681
0.206206
0.224925
0.236268
0.242186
0.246011
0.24746