/*--------------------------------*- C++ -*----------------------------------*\
| =========                 |                                                 |
| \\      /  F ield         | OpenFOAM: The Open Source CFD Toolbox           |
|  \\    /   O peration     | Version:  2.4.0                                 |
|   \\  /    A nd           | Web:      www.OpenFOAM.org                      |
|    \\/     M anipulation  |                                                 |
\*---------------------------------------------------------------------------*/
FoamFile
{
    version     2.0;
    format      ascii;
    class       volScalarField;
    location    "2.31";
    object      p;
}
// * * * * * * * * * * * * * * * * * * * * * * * * * * * * * * * * * * * * * //

dimensions      [0 2 -2 0 0 0 0];

internalField   nonuniform List<scalar> 
6000
(
0.304867
0.299453
0.296959
0.296092
0.295209
0.294119
0.293035
0.292033
0.29109
0.290184
0.289308
0.288466
0.287655
0.286871
0.286111
0.285371
0.284648
0.283939
0.283243
0.282558
0.281881
0.281212
0.28055
0.279894
0.279244
0.2786
0.277961
0.27733
0.276705
0.27609
0.275485
0.274893
0.274316
0.273759
0.273226
0.272723
0.272257
0.271838
0.271478
0.271191
0.270996
0.270918
0.270987
0.27124
0.271727
0.272507
0.273657
0.275272
0.277473
0.280406
0.284254
0.289238
0.29562
0.303695
0.313805
0.32619
0.341253
0.358241
0.37881
0.393486
0.300928
0.298669
0.296912
0.296087
0.295274
0.294258
0.293205
0.292207
0.291258
0.290339
0.28945
0.288592
0.287767
0.286971
0.2862
0.28545
0.284719
0.284003
0.283301
0.28261
0.281929
0.281255
0.280589
0.27993
0.279276
0.278629
0.277988
0.277353
0.276727
0.27611
0.275503
0.274909
0.274332
0.273773
0.273239
0.272735
0.272268
0.271847
0.271485
0.271196
0.270999
0.270919
0.270984
0.271233
0.271713
0.272486
0.273627
0.275231
0.277417
0.280333
0.284158
0.289112
0.295459
0.303491
0.313551
0.325888
0.340933
0.357924
0.378795
0.393321
0.300776
0.299163
0.297226
0.296116
0.295239
0.294221
0.293158
0.292153
0.291206
0.290295
0.289414
0.288564
0.287747
0.286957
0.286191
0.285446
0.284719
0.284007
0.283308
0.28262
0.281941
0.28127
0.280605
0.279948
0.279296
0.278649
0.278009
0.277376
0.27675
0.276133
0.275526
0.274931
0.274353
0.273793
0.273257
0.272751
0.272281
0.271858
0.271493
0.2712
0.270998
0.270911
0.270969
0.271209
0.271679
0.272438
0.273561
0.275142
0.277299
0.280176
0.283952
0.28884
0.295099
0.303013
0.312915
0.325039
0.339805
0.356442
0.376959
0.390842
0.300123
0.298727
0.296985
0.295912
0.295094
0.294145
0.293125
0.292147
0.291221
0.290325
0.289453
0.288607
0.28779
0.286998
0.286229
0.28548
0.284748
0.284032
0.283328
0.282635
0.281952
0.281278
0.280611
0.279951
0.279297
0.278649
0.278008
0.277374
0.276748
0.27613
0.275523
0.274929
0.274351
0.273791
0.273255
0.272748
0.272278
0.271852
0.271484
0.271187
0.270979
0.270884
0.270931
0.271158
0.271609
0.272345
0.273439
0.274982
0.27709
0.279904
0.283598
0.28838
0.294498
0.302227
0.311882
0.323679
0.337998
0.354064
0.373734
0.386722
0.299566
0.298482
0.296982
0.295909
0.295072
0.29414
0.293135
0.292162
0.291238
0.290344
0.289472
0.288626
0.287808
0.287015
0.286245
0.285494
0.284762
0.284044
0.283339
0.282646
0.281962
0.281287
0.280619
0.279958
0.279304
0.278655
0.278013
0.277379
0.276751
0.276133
0.275525
0.274929
0.274349
0.273787
0.273249
0.272739
0.272264
0.271835
0.27146
0.271156
0.27094
0.270833
0.270866
0.271074
0.271502
0.272208
0.273262
0.274756
0.276799
0.279529
0.283114
0.287755
0.293688
0.301174
0.310508
0.321886
0.335644
0.351016
0.369616
0.381705
0.299097
0.298242
0.296916
0.29584
0.29499
0.294086
0.29311
0.292152
0.291237
0.290351
0.289485
0.288643
0.287827
0.287035
0.286264
0.285513
0.284779
0.28406
0.283354
0.282658
0.281973
0.281296
0.280627
0.279965
0.279309
0.27866
0.278017
0.277381
0.276753
0.276134
0.275525
0.274928
0.274346
0.273783
0.273242
0.272729
0.27225
0.271815
0.271435
0.271122
0.270895
0.270775
0.27079
0.270975
0.271374
0.272042
0.273049
0.274481
0.276445
0.279073
0.282525
0.286993
0.2927
0.299889
0.308833
0.319705
0.332794
0.347353
0.364739
0.376005
0.298693
0.298001
0.296825
0.295775
0.294925
0.294048
0.293098
0.292153
0.291245
0.290364
0.289502
0.288662
0.287847
0.287054
0.286283
0.285531
0.284795
0.284074
0.283366
0.282669
0.281983
0.281305
0.280634
0.279971
0.279314
0.278664
0.278021
0.277384
0.276755
0.276134
0.275524
0.274926
0.274342
0.273777
0.273233
0.272716
0.272233
0.271793
0.271405
0.271083
0.270843
0.270708
0.270704
0.270864
0.271231
0.271858
0.272812
0.274175
0.27605
0.278564
0.281866
0.286139
0.29159
0.298444
0.306945
0.317238
0.329562
0.343199
0.359242
0.369766
0.298341
0.297767
0.296724
0.295715
0.294867
0.294008
0.293081
0.292149
0.291248
0.290373
0.289516
0.288678
0.287864
0.287072
0.2863
0.285546
0.28481
0.284087
0.283378
0.28268
0.281992
0.281313
0.280641
0.279977
0.279319
0.278668
0.278024
0.277386
0.276756
0.276134
0.275523
0.274923
0.274337
0.273769
0.273223
0.272702
0.272214
0.271767
0.271371
0.271039
0.270786
0.270634
0.270608
0.27074
0.271072
0.271654
0.272549
0.273838
0.275617
0.278006
0.281148
0.285211
0.290389
0.296884
0.304914
0.314591
0.326096
0.33874
0.353357
0.363163
0.298031
0.297547
0.296619
0.295654
0.294811
0.293967
0.293063
0.292144
0.291251
0.290381
0.289528
0.288693
0.28788
0.287088
0.286316
0.285562
0.284824
0.2841
0.283389
0.28269
0.282001
0.28132
0.280648
0.279982
0.279324
0.278672
0.278026
0.277388
0.276756
0.276134
0.275521
0.274919
0.274332
0.273761
0.273211
0.272686
0.272193
0.271739
0.271334
0.27099
0.270723
0.270553
0.270503
0.270605
0.270899
0.271431
0.272264
0.273472
0.275147
0.277403
0.280373
0.284214
0.289103
0.295225
0.302766
0.311812
0.322484
0.33412
0.347295
0.356332
0.297757
0.297342
0.296511
0.295592
0.294758
0.293928
0.293044
0.292139
0.291253
0.290388
0.289539
0.288707
0.287895
0.287103
0.286331
0.285576
0.284837
0.284112
0.2834
0.2827
0.282009
0.281328
0.280654
0.279988
0.279328
0.278675
0.278028
0.277389
0.276757
0.276133
0.275518
0.274915
0.274325
0.273751
0.273197
0.272668
0.272169
0.271707
0.271293
0.270937
0.270655
0.270464
0.270389
0.270459
0.270711
0.271191
0.271956
0.273078
0.274643
0.276757
0.279544
0.283151
0.28774
0.293474
0.300514
0.308921
0.318762
0.329406
0.34118
0.349359
0.297514
0.297152
0.296403
0.295531
0.294708
0.293891
0.293024
0.292133
0.291254
0.290394
0.289549
0.28872
0.287909
0.287117
0.286344
0.285589
0.284849
0.284123
0.28341
0.282708
0.282017
0.281334
0.280659
0.279992
0.279332
0.278678
0.27803
0.27739
0.276756
0.276131
0.275515
0.274909
0.274317
0.27374
0.273183
0.272648
0.272143
0.271673
0.271249
0.27088
0.270581
0.270369
0.270267
0.270303
0.270511
0.270934
0.271628
0.272658
0.274106
0.27607
0.278666
0.282028
0.286303
0.291637
0.298166
0.305927
0.314943
0.324618
0.335062
0.342309
0.297298
0.296978
0.296297
0.29547
0.294661
0.293855
0.293005
0.292126
0.291255
0.2904
0.289558
0.288731
0.287921
0.28713
0.286357
0.285601
0.28486
0.284133
0.283419
0.282717
0.282024
0.28134
0.280665
0.279996
0.279335
0.27868
0.278032
0.27739
0.276755
0.276128
0.275511
0.274903
0.274308
0.273728
0.273166
0.272627
0.272115
0.271637
0.271201
0.270818
0.270502
0.270268
0.270137
0.270136
0.270297
0.270662
0.27128
0.272213
0.273538
0.275345
0.277742
0.280848
0.284799
0.289721
0.295729
0.302841
0.31104
0.319767
0.328958
0.335243
0.297105
0.296819
0.296196
0.29541
0.294617
0.293822
0.292985
0.292119
0.291255
0.290404
0.289566
0.288741
0.287933
0.287142
0.286369
0.285612
0.28487
0.284143
0.283428
0.282724
0.28203
0.281346
0.280669
0.28
0.279338
0.278682
0.278032
0.27739
0.276754
0.276126
0.275506
0.274896
0.274299
0.273715
0.273149
0.272604
0.272085
0.271598
0.271151
0.270753
0.270418
0.27016
0.269999
0.26996
0.270073
0.270375
0.270913
0.271746
0.272942
0.274585
0.276773
0.279616
0.283232
0.287733
0.293212
0.299672
0.307063
0.314862
0.322879
0.328208
0.296935
0.296674
0.2961
0.295352
0.294576
0.293791
0.292967
0.292112
0.291254
0.290408
0.289573
0.28875
0.287943
0.287153
0.286379
0.285622
0.28488
0.284151
0.283436
0.282731
0.282036
0.281351
0.280673
0.280003
0.27934
0.278683
0.278033
0.277389
0.276752
0.276122
0.275501
0.274889
0.274288
0.273701
0.27313
0.272579
0.272053
0.271556
0.271097
0.270684
0.27033
0.270047
0.269855
0.269775
0.269836
0.270073
0.270529
0.271256
0.272319
0.273792
0.275765
0.278335
0.281608
0.285679
0.290623
0.296428
0.303021
0.309913
0.316826
0.321234
0.296783
0.296544
0.296011
0.295297
0.294538
0.293762
0.292949
0.292105
0.291254
0.290411
0.289579
0.288758
0.287952
0.287162
0.286389
0.285631
0.284889
0.284159
0.283443
0.282737
0.282042
0.281355
0.280677
0.280006
0.279342
0.278684
0.278033
0.277388
0.276749
0.276118
0.275495
0.27488
0.274277
0.273686
0.27311
0.272553
0.272019
0.271513
0.271041
0.270612
0.270237
0.269929
0.269704
0.269582
0.26959
0.26976
0.270129
0.270747
0.271671
0.272969
0.274719
0.27701
0.279931
0.283565
0.287968
0.293118
0.298923
0.304927
0.310801
0.314331
0.296649
0.296428
0.295928
0.295246
0.294502
0.293735
0.292932
0.292097
0.291253
0.290414
0.289584
0.288766
0.287961
0.287171
0.286398
0.28564
0.284896
0.284166
0.283449
0.282743
0.282046
0.281359
0.28068
0.280008
0.279343
0.278685
0.278033
0.277386
0.276747
0.276114
0.275488
0.274871
0.274265
0.27367
0.273089
0.272526
0.271983
0.271467
0.270982
0.270537
0.270141
0.269806
0.269546
0.269381
0.269334
0.269434
0.269715
0.27022
0.271001
0.272118
0.27364
0.275644
0.278207
0.281396
0.285254
0.289748
0.294775
0.299911
0.304805
0.307505
0.296532
0.296325
0.295854
0.295198
0.29447
0.293711
0.292917
0.29209
0.291252
0.290416
0.289589
0.288772
0.287968
0.287179
0.286405
0.285647
0.284903
0.284173
0.283455
0.282748
0.282051
0.281363
0.280683
0.28001
0.279345
0.278685
0.278032
0.277384
0.276743
0.276109
0.275481
0.274862
0.274252
0.273653
0.273067
0.272497
0.271946
0.271419
0.270921
0.270459
0.270041
0.269678
0.269383
0.269174
0.26907
0.269097
0.269287
0.269676
0.27031
0.271242
0.272531
0.274242
0.27644
0.279179
0.282488
0.286326
0.290584
0.29487
0.298833
0.30075
0.29643
0.296235
0.295787
0.295154
0.29444
0.29369
0.292903
0.292084
0.29125
0.290418
0.289593
0.288778
0.287974
0.287186
0.286412
0.285654
0.284909
0.284178
0.28346
0.282752
0.282054
0.281366
0.280685
0.280012
0.279345
0.278685
0.278031
0.277382
0.276739
0.276103
0.275474
0.274852
0.274238
0.273635
0.273044
0.272467
0.271908
0.27137
0.270858
0.270378
0.269938
0.269546
0.269216
0.26896
0.268798
0.268751
0.268847
0.269117
0.269601
0.270343
0.271394
0.272807
0.274636
0.276919
0.279676
0.282858
0.286354
0.289808
0.292884
0.29406
0.296342
0.296157
0.295728
0.295115
0.294414
0.293671
0.292891
0.292078
0.291249
0.290419
0.289596
0.288782
0.28798
0.287192
0.286418
0.285659
0.284915
0.284183
0.283464
0.282756
0.282057
0.281368
0.280687
0.280013
0.279345
0.278684
0.278029
0.277379
0.276735
0.276097
0.275466
0.274841
0.274224
0.273617
0.27302
0.272437
0.271868
0.271319
0.270793
0.270295
0.269832
0.269411
0.269043
0.268741
0.268519
0.268397
0.268397
0.268546
0.268876
0.269426
0.270234
0.271345
0.272798
0.274622
0.276823
0.279349
0.282091
0.284727
0.286952
0.287424
0.296268
0.29609
0.295677
0.295082
0.294391
0.293654
0.29288
0.292072
0.291248
0.29042
0.289599
0.288786
0.287985
0.287197
0.286423
0.285664
0.284919
0.284187
0.283467
0.282759
0.28206
0.28137
0.280688
0.280013
0.279345
0.278683
0.278027
0.277376
0.276731
0.276091
0.275457
0.27483
0.27421
0.273598
0.272996
0.272405
0.271828
0.271267
0.270726
0.27021
0.269723
0.269273
0.268867
0.268517
0.268235
0.268035
0.267937
0.267963
0.268138
0.268491
0.269054
0.269859
0.270933
0.272293
0.273936
0.275805
0.277797
0.279628
0.281031
0.280829
0.296207
0.296035
0.295635
0.295053
0.294372
0.293641
0.292871
0.292068
0.291246
0.290421
0.289601
0.288789
0.287989
0.287201
0.286427
0.285668
0.284923
0.284191
0.28347
0.282761
0.282062
0.281371
0.280689
0.280014
0.279345
0.278682
0.278025
0.277373
0.276726
0.276084
0.275448
0.274818
0.274194
0.273578
0.27297
0.272372
0.271786
0.271214
0.270658
0.270123
0.269612
0.269132
0.268688
0.268289
0.267945
0.267667
0.26747
0.267371
0.267388
0.267543
0.267858
0.268352
0.269044
0.269938
0.271019
0.272231
0.273477
0.27451
0.275114
0.274263
0.296159
0.295992
0.295602
0.29503
0.294357
0.29363
0.292863
0.292064
0.291245
0.290422
0.289603
0.288792
0.287992
0.287204
0.286431
0.285671
0.284926
0.284193
0.283472
0.282763
0.282063
0.281372
0.280689
0.280013
0.279344
0.27868
0.278022
0.277369
0.276721
0.276077
0.275439
0.274806
0.274179
0.273558
0.272944
0.272339
0.271743
0.271159
0.270589
0.270035
0.2695
0.268989
0.268506
0.268058
0.267651
0.267294
0.266997
0.266772
0.26663
0.266584
0.266648
0.266831
0.267137
0.267561
0.268079
0.268632
0.269134
0.269374
0.269193
0.26771
0.296123
0.295959
0.295576
0.295013
0.294345
0.293621
0.292858
0.292061
0.291244
0.290422
0.289604
0.288794
0.287994
0.287206
0.286433
0.285674
0.284928
0.284195
0.283474
0.282764
0.282064
0.281372
0.280689
0.280013
0.279343
0.278678
0.278019
0.277365
0.276715
0.27607
0.275429
0.274793
0.274163
0.273537
0.272918
0.272305
0.2717
0.271104
0.270518
0.269945
0.269386
0.268844
0.268322
0.267824
0.267354
0.266918
0.26652
0.266167
0.265864
0.265617
0.265428
0.265297
0.265217
0.265168
0.26512
0.265013
0.264769
0.264218
0.263261
0.261155
0.2961
0.295938
0.295559
0.295001
0.294337
0.293616
0.292854
0.292059
0.291244
0.290423
0.289605
0.288795
0.287995
0.287208
0.286434
0.285675
0.284929
0.284196
0.283475
0.282764
0.282064
0.281372
0.280688
0.280012
0.279341
0.278676
0.278016
0.27736
0.276709
0.276062
0.275419
0.274781
0.274146
0.273516
0.272891
0.272271
0.271656
0.271048
0.270447
0.269855
0.269271
0.268698
0.268137
0.267589
0.267055
0.266539
0.266039
0.265558
0.265094
0.264645
0.264203
0.263757
0.263287
0.262765
0.262148
0.261377
0.260384
0.25904
0.257308
0.254581
0.296088
0.295927
0.295551
0.294995
0.294333
0.293613
0.292852
0.292058
0.291243
0.290423
0.289605
0.288796
0.287996
0.287209
0.286435
0.285676
0.284929
0.284196
0.283475
0.282764
0.282064
0.281372
0.280687
0.28001
0.279339
0.278673
0.278012
0.277355
0.276703
0.276054
0.275409
0.274767
0.274129
0.273495
0.272864
0.272236
0.271612
0.270992
0.270376
0.269764
0.269155
0.268551
0.26795
0.267352
0.266755
0.266158
0.265557
0.264948
0.264323
0.26367
0.262975
0.262213
0.261353
0.260356
0.259168
0.257729
0.255983
0.253837
0.251325
0.247971
0.296088
0.295927
0.295551
0.294995
0.294333
0.293613
0.292852
0.292058
0.291243
0.290423
0.289605
0.288795
0.287996
0.287208
0.286435
0.285675
0.284929
0.284196
0.283474
0.282764
0.282063
0.28137
0.280686
0.280008
0.279336
0.27867
0.278008
0.27735
0.276696
0.276046
0.275399
0.274754
0.274112
0.273473
0.272836
0.272201
0.271568
0.270935
0.270304
0.269672
0.26904
0.268404
0.267764
0.267115
0.266455
0.265778
0.265076
0.264338
0.263551
0.262696
0.261747
0.26067
0.259421
0.257946
0.256186
0.254074
0.251566
0.248608
0.245301
0.241307
0.296099
0.295938
0.295559
0.295001
0.294337
0.293616
0.292854
0.292059
0.291244
0.290422
0.289605
0.288795
0.287995
0.287207
0.286434
0.285674
0.284928
0.284195
0.283473
0.282762
0.282061
0.281369
0.280684
0.280006
0.279334
0.278666
0.278004
0.277345
0.27669
0.276037
0.275388
0.274741
0.274095
0.273451
0.272808
0.272166
0.271523
0.270879
0.270232
0.269581
0.268924
0.268257
0.267577
0.266879
0.266156
0.265398
0.264595
0.26373
0.262783
0.261726
0.260524
0.259132
0.257494
0.255542
0.253206
0.250416
0.247136
0.243349
0.239227
0.234571
0.296123
0.295959
0.295576
0.295013
0.294345
0.293621
0.292857
0.292061
0.291244
0.290422
0.289604
0.288793
0.287993
0.287206
0.286432
0.285672
0.284926
0.284193
0.283471
0.28276
0.282059
0.281367
0.280682
0.280003
0.27933
0.278663
0.277999
0.277339
0.276683
0.276029
0.275377
0.274727
0.274078
0.273429
0.27278
0.272131
0.271478
0.270822
0.27016
0.26949
0.268808
0.268111
0.267392
0.266644
0.265858
0.265021
0.264118
0.263126
0.26202
0.260762
0.25931
0.257604
0.255577
0.253148
0.250235
0.24676
0.242694
0.238059
0.233092
0.227742
0.296159
0.295992
0.295601
0.29503
0.294357
0.293629
0.292863
0.292064
0.291245
0.290421
0.289602
0.288791
0.287991
0.287203
0.286429
0.285669
0.284923
0.28419
0.283469
0.282758
0.282057
0.281364
0.280679
0.28
0.279327
0.278659
0.277994
0.277334
0.276676
0.27602
0.275366
0.274713
0.27406
0.273407
0.272753
0.272095
0.271434
0.270766
0.270089
0.2694
0.268694
0.267966
0.267208
0.266411
0.265563
0.264648
0.263645
0.262528
0.261264
0.259808
0.258106
0.25609
0.253676
0.250771
0.247277
0.243111
0.238245
0.232734
0.226885
0.220801
0.296207
0.296035
0.295635
0.295053
0.294372
0.29364
0.29287
0.292067
0.291246
0.290421
0.2896
0.288789
0.287987
0.287199
0.286425
0.285666
0.28492
0.284187
0.283465
0.282755
0.282054
0.281361
0.280676
0.279997
0.279323
0.278654
0.277989
0.277328
0.276668
0.276011
0.275355
0.274699
0.274043
0.273385
0.272725
0.272061
0.27139
0.27071
0.270018
0.26931
0.268581
0.267822
0.267026
0.266181
0.265272
0.264279
0.263178
0.261938
0.260518
0.258866
0.256918
0.254593
0.251796
0.248416
0.24434
0.239474
0.23379
0.227372
0.220594
0.213724
0.296268
0.29609
0.295677
0.295082
0.294391
0.293654
0.292879
0.292072
0.291247
0.29042
0.289598
0.288785
0.287983
0.287195
0.286421
0.285661
0.284916
0.284183
0.283461
0.282751
0.28205
0.281357
0.280672
0.279993
0.279319
0.27865
0.277984
0.277321
0.276661
0.276002
0.275344
0.274685
0.274026
0.273364
0.272698
0.272026
0.271346
0.270655
0.269949
0.269222
0.268469
0.267681
0.266847
0.265955
0.264985
0.263916
0.262719
0.261357
0.259784
0.257939
0.255748
0.25312
0.249942
0.246088
0.241429
0.235855
0.229333
0.221973
0.214207
0.206488
0.296342
0.296156
0.295728
0.295115
0.294414
0.29367
0.29289
0.292077
0.291248
0.290418
0.289595
0.288781
0.287978
0.28719
0.286416
0.285656
0.28491
0.284178
0.283457
0.282747
0.282046
0.281353
0.280668
0.279989
0.279315
0.278645
0.277979
0.277315
0.276653
0.275993
0.275332
0.274671
0.274008
0.273342
0.27267
0.271992
0.271303
0.2706
0.26988
0.269135
0.268359
0.267542
0.266672
0.265732
0.264704
0.26356
0.262269
0.260788
0.259064
0.25703
0.254601
0.251672
0.248118
0.243795
0.238552
0.232262
0.22488
0.216536
0.207713
0.199069
0.29643
0.296235
0.295787
0.295154
0.29444
0.293689
0.292903
0.292083
0.29125
0.290417
0.289592
0.288776
0.287973
0.287183
0.286409
0.28565
0.284904
0.284172
0.283451
0.282742
0.282041
0.281349
0.280663
0.279984
0.27931
0.27864
0.277973
0.277308
0.276646
0.275983
0.275321
0.274657
0.273991
0.273321
0.272644
0.271958
0.271261
0.270547
0.269812
0.26905
0.268252
0.267406
0.2665
0.265515
0.264429
0.263213
0.261829
0.260232
0.258361
0.256142
0.253479
0.250256
0.246332
0.241542
0.235716
0.228702
0.220435
0.21106
0.201099
0.19144
0.296532
0.296325
0.295853
0.295198
0.294469
0.293711
0.292916
0.29209
0.291251
0.290415
0.289588
0.28877
0.287966
0.287176
0.286402
0.285643
0.284898
0.284166
0.283446
0.282736
0.282036
0.281344
0.280658
0.279979
0.279305
0.278634
0.277967
0.277302
0.276638
0.275974
0.27531
0.274644
0.273974
0.273299
0.272617
0.271925
0.271219
0.270495
0.269747
0.268967
0.268147
0.267274
0.266333
0.265304
0.264161
0.262874
0.261401
0.25969
0.257677
0.255277
0.252386
0.248876
0.244587
0.239337
0.232928
0.225182
0.216005
0.205549
0.194354
0.183573
0.296649
0.296428
0.295928
0.295245
0.294502
0.293735
0.292932
0.292097
0.291252
0.290413
0.289583
0.288764
0.287958
0.287168
0.286394
0.285635
0.28489
0.284159
0.283439
0.28273
0.28203
0.281338
0.280653
0.279974
0.279299
0.278629
0.277961
0.277295
0.27663
0.275965
0.275299
0.27463
0.273957
0.273279
0.272592
0.271893
0.271179
0.270444
0.269683
0.268886
0.268045
0.267145
0.26617
0.265098
0.263902
0.262546
0.260986
0.259166
0.257013
0.254438
0.251326
0.247535
0.242889
0.237185
0.230196
0.221712
0.2116
0.200005
0.187467
0.17544
0.296783
0.296544
0.29601
0.295297
0.294537
0.293761
0.292948
0.292104
0.291253
0.29041
0.289577
0.288757
0.28795
0.287159
0.286385
0.285626
0.284882
0.284151
0.283432
0.282723
0.282024
0.281332
0.280648
0.279968
0.279294
0.278623
0.277955
0.277288
0.276622
0.275956
0.275288
0.274617
0.273941
0.273258
0.272566
0.271861
0.271139
0.270395
0.26962
0.268808
0.267946
0.267021
0.266013
0.2649
0.263651
0.262229
0.260585
0.258659
0.256373
0.253629
0.250302
0.246238
0.241245
0.235095
0.22753
0.218303
0.207228
0.194435
0.180425
0.167008
0.296934
0.296674
0.2961
0.295352
0.294576
0.29379
0.292966
0.292111
0.291254
0.290407
0.289571
0.288748
0.28794
0.287149
0.286375
0.285617
0.284873
0.284142
0.283424
0.282716
0.282017
0.281326
0.280642
0.279963
0.279288
0.278617
0.277948
0.277281
0.276614
0.275946
0.275277
0.274604
0.273925
0.273239
0.272542
0.271831
0.271101
0.270347
0.26956
0.268733
0.267851
0.266901
0.265862
0.264709
0.26341
0.261925
0.260201
0.258173
0.255758
0.252851
0.249317
0.24499
0.239659
0.233073
0.22494
0.214967
0.202902
0.188847
0.173221
0.158246
0.297105
0.296818
0.296196
0.29541
0.294617
0.293821
0.292985
0.292119
0.291254
0.290403
0.289564
0.288739
0.28793
0.287138
0.286364
0.285606
0.284863
0.284133
0.283415
0.282708
0.28201
0.281319
0.280635
0.279956
0.279282
0.278611
0.277942
0.277274
0.276606
0.275937
0.275266
0.274591
0.273909
0.273219
0.272518
0.271801
0.271064
0.270301
0.269503
0.26866
0.26776
0.266786
0.265717
0.264527
0.26318
0.261634
0.259833
0.257708
0.25517
0.252107
0.248375
0.243794
0.238137
0.231127
0.222434
0.211716
0.198637
0.183254
0.165845
0.149121
0.297297
0.296977
0.296297
0.295469
0.294661
0.293855
0.293004
0.292126
0.291254
0.290398
0.289556
0.288729
0.287918
0.287126
0.286352
0.285594
0.284852
0.284123
0.283406
0.282699
0.282002
0.281312
0.280628
0.27995
0.279276
0.278604
0.277935
0.277267
0.276598
0.275928
0.275255
0.274578
0.273894
0.273201
0.272495
0.271773
0.271029
0.270257
0.269448
0.268591
0.267673
0.266677
0.26558
0.264353
0.262961
0.261357
0.259483
0.257265
0.254611
0.251399
0.247478
0.242655
0.236685
0.229265
0.220024
0.208564
0.19445
0.177672
0.158293
0.139597
0.297513
0.297151
0.296402
0.29553
0.294708
0.29389
0.293023
0.292132
0.291253
0.290393
0.289547
0.288717
0.287905
0.287113
0.286339
0.285582
0.28484
0.284112
0.283396
0.28269
0.281993
0.281304
0.280621
0.279943
0.279269
0.278598
0.277928
0.277259
0.27659
0.275919
0.275245
0.274566
0.273879
0.273183
0.272473
0.271746
0.270995
0.270215
0.269395
0.268525
0.267591
0.266573
0.265449
0.264189
0.262754
0.261095
0.259152
0.256848
0.254082
0.25073
0.24663
0.241577
0.235308
0.227495
0.217722
0.205529
0.190362
0.172122
0.150565
0.129639
0.297756
0.297341
0.29651
0.295592
0.294757
0.293928
0.293043
0.292138
0.291252
0.290387
0.289537
0.288704
0.287891
0.287099
0.286325
0.285569
0.284827
0.2841
0.283385
0.28268
0.281985
0.281296
0.280614
0.279936
0.279262
0.278591
0.277921
0.277252
0.276582
0.27591
0.275235
0.274554
0.273865
0.273166
0.272452
0.27172
0.270963
0.270175
0.269345
0.268463
0.267513
0.266475
0.265326
0.264034
0.262559
0.26085
0.258842
0.256455
0.253586
0.250102
0.245834
0.240564
0.234013
0.225824
0.215538
0.202627
0.186396
0.166633
0.142666
0.119213
0.29803
0.297547
0.296618
0.295653
0.29481
0.293967
0.293062
0.292143
0.29125
0.29038
0.289526
0.288691
0.287876
0.287084
0.28631
0.285554
0.284814
0.284088
0.283374
0.28267
0.281975
0.281288
0.280606
0.279929
0.279255
0.278584
0.277914
0.277245
0.276574
0.275902
0.275225
0.274542
0.273851
0.273149
0.272432
0.271695
0.270933
0.270137
0.269299
0.268405
0.26744
0.266384
0.265212
0.26389
0.262378
0.260621
0.258553
0.25609
0.253124
0.249518
0.245093
0.23962
0.232804
0.224261
0.213486
0.199877
0.182582
0.161241
0.134613
0.108283
0.29834
0.297767
0.296724
0.295714
0.294866
0.294007
0.29308
0.292148
0.291247
0.290371
0.289513
0.288675
0.28786
0.287067
0.286294
0.285539
0.2848
0.284075
0.283362
0.282659
0.281965
0.281279
0.280598
0.279921
0.279248
0.278577
0.277908
0.277238
0.276567
0.275893
0.275215
0.274531
0.273838
0.273134
0.272413
0.271672
0.270905
0.270102
0.269255
0.26835
0.267372
0.266299
0.265105
0.263757
0.26221
0.26041
0.258286
0.255753
0.252698
0.248978
0.244409
0.238749
0.231687
0.222815
0.211578
0.197301
0.178953
0.155991
0.126436
0.0968158
0.298693
0.298
0.296824
0.295775
0.294925
0.294047
0.293097
0.292152
0.291244
0.290363
0.2895
0.288659
0.287843
0.28705
0.286277
0.285523
0.284785
0.284061
0.283349
0.282648
0.281955
0.281269
0.280589
0.279913
0.279241
0.27857
0.2779
0.277231
0.276559
0.275885
0.275206
0.274521
0.273826
0.273119
0.272396
0.271651
0.270878
0.27007
0.269215
0.2683
0.26731
0.266221
0.265008
0.263635
0.262057
0.260217
0.258043
0.255446
0.25231
0.248487
0.243786
0.237956
0.23067
0.221494
0.20983
0.194924
0.175552
0.150944
0.118196
0.0847774
0.299097
0.298242
0.296916
0.29584
0.294989
0.294085
0.293109
0.292151
0.291236
0.290349
0.289483
0.28864
0.287823
0.28703
0.286258
0.285505
0.284769
0.284046
0.283336
0.282636
0.281945
0.28126
0.280581
0.279906
0.279234
0.278563
0.277894
0.277224
0.276552
0.275877
0.275197
0.274511
0.273814
0.273105
0.272379
0.271631
0.270854
0.27004
0.269178
0.268255
0.267253
0.266151
0.26492
0.263525
0.26192
0.260044
0.257824
0.25517
0.251962
0.248046
0.243227
0.237244
0.229757
0.220309
0.208257
0.192771
0.172425
0.146173
0.109985
0.0721538
0.299565
0.298481
0.296982
0.295908
0.295071
0.294139
0.293134
0.292161
0.291237
0.290342
0.289469
0.288623
0.287804
0.28701
0.286238
0.285486
0.284751
0.28403
0.283321
0.282623
0.281933
0.28125
0.280572
0.279897
0.279226
0.278556
0.277887
0.277217
0.276545
0.275869
0.275189
0.274501
0.273803
0.273093
0.272364
0.271613
0.270832
0.270013
0.269145
0.268214
0.267202
0.266088
0.264842
0.263428
0.261798
0.259891
0.257631
0.254927
0.251655
0.247659
0.242735
0.236619
0.228955
0.219268
0.206874
0.190867
0.169624
0.141764
0.101934
0.0589162
0.300123
0.298727
0.296984
0.295911
0.295094
0.294144
0.293124
0.292146
0.29122
0.290323
0.28945
0.288604
0.287786
0.286993
0.286223
0.285471
0.284737
0.284017
0.28331
0.282612
0.281923
0.28124
0.280562
0.279889
0.279217
0.278548
0.277879
0.277209
0.276537
0.275861
0.27518
0.274492
0.273793
0.273081
0.272351
0.271597
0.270814
0.26999
0.269117
0.268179
0.267159
0.266034
0.264775
0.263345
0.261694
0.259761
0.257467
0.25472
0.251395
0.247331
0.242322
0.236096
0.228286
0.218401
0.205723
0.189279
0.167261
0.137902
0.0943504
0.044959
0.300776
0.299163
0.297225
0.296116
0.295239
0.294221
0.293157
0.292151
0.291204
0.290293
0.289411
0.288561
0.287743
0.286952
0.286185
0.285438
0.284708
0.283993
0.28329
0.282596
0.281911
0.281231
0.280556
0.279885
0.279215
0.278546
0.277878
0.277208
0.276535
0.275859
0.275177
0.274486
0.273785
0.273071
0.272337
0.27158
0.270792
0.269965
0.269086
0.268142
0.267115
0.265981
0.264712
0.263269
0.261602
0.259648
0.257334
0.254556
0.251193
0.247082
0.242012
0.235707
0.227793
0.217764
0.204879
0.188108
0.165501
0.134889
0.0878386
0.0300981
0.300928
0.298668
0.296912
0.296087
0.295273
0.294257
0.293204
0.292206
0.291256
0.290337
0.289447
0.288589
0.287763
0.286966
0.286193
0.285441
0.284708
0.283989
0.283283
0.282586
0.281898
0.281216
0.280539
0.279866
0.279195
0.278525
0.277855
0.277184
0.27651
0.275833
0.27515
0.27446
0.273758
0.273043
0.27231
0.271552
0.270763
0.269935
0.269054
0.268108
0.267078
0.265941
0.264668
0.263219
0.261544
0.25958
0.257252
0.254458
0.251073
0.246935
0.241831
0.23548
0.227506
0.217393
0.204384
0.187413
0.164446
0.132951
0.0832189
0.0146558
0.304867
0.299453
0.296959
0.296091
0.295208
0.294119
0.293034
0.292031
0.291088
0.290182
0.289306
0.288463
0.287651
0.286866
0.286104
0.285362
0.284636
0.283925
0.283225
0.282534
0.281851
0.281173
0.2805
0.27983
0.279162
0.278495
0.277827
0.277159
0.276487
0.275812
0.27513
0.27444
0.27374
0.273025
0.272292
0.271534
0.270745
0.269915
0.269034
0.268086
0.267054
0.265915
0.26464
0.263194
0.261522
0.259558
0.257226
0.254428
0.251038
0.246893
0.24178
0.235418
0.227427
0.217289
0.204242
0.187202
0.164101
0.132246
0.0810726
0.00413457
0.449854
0.370663
0.311578
0.282071
0.26139
0.241878
0.225533
0.213815
0.205801
0.200117
0.196126
0.193514
0.192195
0.192167
0.193557
0.196901
0.202798
0.214337
0.214038
0.188237
0.170572
0.161602
0.15403
0.14492
0.134137
0.121269
0.104764
0.0819841
0.0487991
-0.00300678
-0.0920642
-0.275675
-0.704249
-0.746577
-0.329748
-0.360192
-0.308284
-0.278987
-0.236896
-0.197611
-0.159305
-0.125174
-0.0958837
-0.0718309
-0.0526989
-0.0378559
-0.0265676
-0.018108
-0.011832
-0.00720683
-0.00381244
-0.0013287
0.00048225
0.00179303
0.00272714
0.00337032
0.00377568
0.00397768
0.00383271
0.00309365
0.445366
0.364575
0.306393
0.278854
0.258983
0.239859
0.223954
0.212661
0.204944
0.199531
0.195755
0.193279
0.192075
0.19214
0.193619
0.197052
0.202952
0.212539
0.210364
0.186055
0.169106
0.160539
0.153068
0.143886
0.132972
0.119879
0.102966
0.0794941
0.0451278
-0.00872671
-0.10097
-0.277186
-0.599833
-0.672264
-0.348854
-0.361222
-0.312805
-0.283505
-0.241954
-0.202754
-0.164314
-0.129835
-0.100055
-0.0754497
-0.0557694
-0.0404208
-0.028688
-0.019851
-0.0132621
-0.00838142
-0.00478019
-0.0021296
-0.000183957
0.00123603
0.00225932
0.00297661
0.00344373
0.00370715
0.00358978
0.00308608
0.437912
0.360065
0.303537
0.277146
0.257656
0.238794
0.223213
0.21219
0.204672
0.19937
0.195536
0.193132
0.19199
0.192102
0.19361
0.197004
0.202473
0.21025
0.207339
0.185186
0.168724
0.160175
0.152672
0.143442
0.132475
0.119282
0.102177
0.0783769
0.0434628
-0.0110946
-0.102975
-0.262606
-0.518638
-0.600135
-0.362026
-0.359255
-0.313929
-0.285592
-0.244697
-0.205856
-0.167555
-0.132988
-0.10299
-0.0780769
-0.058062
-0.042387
-0.0303556
-0.0212564
-0.0144437
-0.0093754
-0.00561851
-0.0028395
-0.000787979
0.00071953
0.00181555
0.00259417
0.00311298
0.0034302
0.00334093
0.00307885
0.428693
0.35546
0.300258
0.274616
0.25565
0.237209
0.222012
0.211295
0.203981
0.198797
0.195176
0.192892
0.191819
0.191972
0.193482
0.19675
0.201689
0.2079
0.204327
0.18389
0.16795
0.159477
0.152046
0.142863
0.131903
0.118663
0.10143
0.0773974
0.0421506
-0.0125919
-0.102043
-0.247352
-0.451852
-0.542632
-0.369736
-0.355511
-0.314528
-0.28658
-0.246834
-0.208229
-0.170087
-0.135454
-0.105298
-0.0801535
-0.0598824
-0.0439559
-0.0316933
-0.0223904
-0.0154032
-0.010188
-0.00630874
-0.00342815
-0.00129235
0.000285314
0.00144014
0.00226866
0.00283108
0.00319442
0.00315408
0.0030617
0.418236
0.350346
0.296724
0.271768
0.25346
0.235557
0.220796
0.210417
0.203351
0.198365
0.194862
0.192641
0.191621