/*--------------------------------*- C++ -*----------------------------------*\
| =========                 |                                                 |
| \\      /  F ield         | OpenFOAM: The Open Source CFD Toolbox           |
|  \\    /   O peration     | Version:  2.4.0                                 |
|   \\  /    A nd           | Web:      www.OpenFOAM.org                      |
|    \\/     M anipulation  |                                                 |
\*---------------------------------------------------------------------------*/
FoamFile
{
    version     2.0;
    format      ascii;
    class       volScalarField;
    location    "25";
    object      nut;
}
// * * * * * * * * * * * * * * * * * * * * * * * * * * * * * * * * * * * * * //

dimensions      [0 2 -1 0 0 0 0];

internalField   nonuniform List<scalar> 
10000
(
4.28598e-06
1.79736e-06
1.05116e-06
7.61309e-07
6.26703e-07
5.56364e-07
5.16496e-07
4.92946e-07
4.78938e-07
4.71085e-07
4.67549e-07
4.67335e-07
4.69908e-07
4.75011e-07
4.82569e-07
4.92633e-07
5.05346e-07
5.20924e-07
5.39645e-07
5.63064e-07
4.28599e-06
1.79731e-06
1.0513e-06
7.61318e-07
6.26794e-07
5.56428e-07
5.16625e-07
4.93107e-07
4.79169e-07
4.71392e-07
4.67955e-07
4.67861e-07
4.70583e-07
4.7587e-07
4.83656e-07
4.93999e-07
5.07059e-07
5.23062e-07
5.42309e-07
5.65129e-07
4.28598e-06
1.79729e-06
1.05129e-06
7.6131e-07
6.26771e-07
5.56395e-07
5.1657e-07
4.93031e-07
4.79066e-07
4.71261e-07
4.67794e-07
4.67667e-07
4.70351e-07
4.75592e-07
4.83325e-07
4.93603e-07
5.06585e-07
5.22493e-07
5.41627e-07
5.64312e-07
4.28599e-06
1.79729e-06
1.05129e-06
7.61295e-07
6.26752e-07
5.56364e-07
5.16527e-07
4.92972e-07
4.78986e-07
4.71156e-07
4.67657e-07
4.67492e-07
4.70128e-07
4.7531e-07
4.82969e-07
4.93156e-07
5.06026e-07
5.21796e-07
5.40757e-07
5.63231e-07
4.28598e-06
1.79728e-06
1.05128e-06
7.61286e-07
6.26734e-07
5.56339e-07
5.16488e-07
4.92918e-07
4.78912e-07
4.71058e-07
4.6753e-07
4.67328e-07
4.69919e-07
4.75045e-07
4.82635e-07
4.92736e-07
5.05498e-07
5.21137e-07
5.39933e-07
5.62205e-07
4.28599e-06
1.79728e-06
1.05128e-06
7.61276e-07
6.26719e-07
5.56314e-07
5.16452e-07
4.92867e-07
4.78844e-07
4.70968e-07
4.67412e-07
4.67177e-07
4.69726e-07
4.748e-07
4.82325e-07
4.92346e-07
5.05008e-07
5.20523e-07
5.39165e-07
5.61245e-07
4.28598e-06
1.79727e-06
1.05127e-06
7.61266e-07
6.26703e-07
5.56291e-07
5.16418e-07
4.9282e-07
4.7878e-07
4.70883e-07
4.67302e-07
4.67035e-07
4.69545e-07
4.74571e-07
4.82035e-07
4.91981e-07
5.04549e-07
5.19947e-07
5.38443e-07
5.60343e-07
4.28598e-06
1.79727e-06
1.05127e-06
7.61258e-07
6.26689e-07
5.56268e-07
5.16386e-07
4.92776e-07
4.78721e-07
4.70805e-07
4.672e-07
4.66903e-07
4.69376e-07
4.74356e-07
4.81763e-07
4.91638e-07
5.04117e-07
5.19404e-07
5.37763e-07
5.59494e-07
4.28597e-06
1.79725e-06
1.05126e-06
7.61248e-07
6.26675e-07
5.56248e-07
5.16357e-07
4.92735e-07
4.78665e-07
4.70731e-07
4.67103e-07
4.66779e-07
4.69216e-07
4.74153e-07
4.81506e-07
4.91314e-07
5.03709e-07
5.18893e-07
5.37122e-07
5.58694e-07
4.28598e-06
1.79726e-06
1.05126e-06
7.61242e-07
6.26663e-07
5.56229e-07
5.16329e-07
4.92696e-07
4.78613e-07
4.70662e-07
4.67013e-07
4.66662e-07
4.69067e-07
4.73963e-07
4.81265e-07
4.91009e-07
5.03325e-07
5.1841e-07
5.36518e-07
5.5794e-07
4.28597e-06
1.79725e-06
1.05125e-06
7.61233e-07
6.26651e-07
5.56211e-07
5.16303e-07
4.9266e-07
4.78564e-07
4.70596e-07
4.66928e-07
4.66551e-07
4.68926e-07
4.73783e-07
4.81037e-07
4.90722e-07
5.02963e-07
5.17956e-07
5.35949e-07
5.57229e-07
4.28598e-06
1.79725e-06
1.05125e-06
7.61228e-07
6.2664e-07
5.56194e-07
5.16278e-07
4.92626e-07
4.78517e-07
4.70535e-07
4.66847e-07
4.66447e-07
4.68792e-07
4.73613e-07
4.80822e-07
4.9045e-07
5.02621e-07
5.17527e-07
5.35412e-07
5.5656e-07
4.28597e-06
1.79724e-06
1.05124e-06
7.6122e-07
6.26629e-07
5.56178e-07
5.16255e-07
4.92593e-07
4.78474e-07
4.70477e-07
4.66771e-07
4.6635e-07
4.68667e-07
4.73454e-07
4.8062e-07
4.90195e-07
5.02299e-07
5.17122e-07
5.34906e-07
5.55928e-07
4.28598e-06
1.79725e-06
1.05124e-06
7.61216e-07
6.2662e-07
5.56164e-07
5.16234e-07
4.92563e-07
4.78432e-07
4.70422e-07
4.66699e-07
4.66257e-07
4.68548e-07
4.73303e-07
4.80428e-07
4.89953e-07
5.01995e-07
5.1674e-07
5.34428e-07
5.55333e-07
4.28597e-06
1.79724e-06
1.05123e-06
7.61208e-07
6.2661e-07
5.56149e-07
5.16213e-07
4.92535e-07
4.78394e-07
4.70371e-07
4.66633e-07
4.66171e-07
4.68437e-07
4.73161e-07
4.80248e-07
4.89725e-07
5.01708e-07
5.1638e-07
5.33977e-07
5.54771e-07
4.28597e-06
1.79724e-06
1.05124e-06
7.61205e-07
6.26602e-07
5.56136e-07
5.16194e-07
4.92507e-07
4.78357e-07
4.70322e-07
4.66568e-07
4.66087e-07
4.68331e-07
4.73026e-07
4.80077e-07
4.89509e-07
5.01436e-07
5.16039e-07
5.33551e-07
5.54242e-07
4.28597e-06
1.79723e-06
1.05123e-06
7.61198e-07
6.26592e-07
5.56124e-07
5.16176e-07
4.92483e-07
4.78323e-07
4.70277e-07
4.6651e-07
4.66011e-07
4.68232e-07
4.729e-07
4.79917e-07
4.89306e-07
5.0118e-07
5.15718e-07
5.33149e-07
5.53741e-07
4.28597e-06
1.79724e-06
1.05123e-06
7.61196e-07
6.26586e-07
5.56112e-07
5.16159e-07
4.92458e-07
4.7829e-07
4.70233e-07
4.66452e-07
4.65937e-07
4.68137e-07
4.72779e-07
4.79764e-07
4.89113e-07
5.00938e-07
5.15414e-07
5.3277e-07
5.53269e-07
4.28597e-06
1.79723e-06
1.05122e-06
7.61189e-07
6.26577e-07
5.56101e-07
5.16143e-07
4.92437e-07
4.78261e-07
4.70194e-07
4.66401e-07
4.65869e-07
4.6805e-07
4.72667e-07
4.79621e-07
4.88932e-07
5.0071e-07
5.15127e-07
5.32411e-07
5.52822e-07
4.28597e-06
1.79724e-06
1.05123e-06
7.61188e-07
6.26572e-07
5.56091e-07
5.16128e-07
4.92415e-07
4.78231e-07
4.70154e-07
4.66349e-07
4.65803e-07
4.67965e-07
4.72559e-07
4.79484e-07
4.8876e-07
5.00493e-07
5.14857e-07
5.32073e-07
5.52403e-07
4.28596e-06
1.79723e-06
1.05122e-06
7.61181e-07
6.26564e-07
5.56081e-07
5.16114e-07
4.92397e-07
4.78206e-07
4.7012e-07
4.66303e-07
4.65743e-07
4.67888e-07
4.72459e-07
4.79357e-07
4.88599e-07
5.00289e-07
5.146e-07
5.31753e-07
5.52004e-07
4.28597e-06
1.79724e-06
1.05122e-06
7.61181e-07
6.2656e-07
5.56073e-07
5.161e-07
4.92376e-07
4.78178e-07
4.70084e-07
4.66257e-07
4.65683e-07
4.67811e-07
4.72362e-07
4.79235e-07
4.88445e-07
5.00096e-07
5.14358e-07
5.31452e-07
5.51629e-07
4.28596e-06
1.79723e-06
1.05121e-06
7.61174e-07
6.26553e-07
5.56064e-07
5.16089e-07
4.92361e-07
4.78157e-07
4.70055e-07
4.66217e-07
4.65631e-07
4.67743e-07
4.72274e-07
4.79121e-07
4.883e-07
4.99914e-07
5.14129e-07
5.31165e-07
5.51273e-07
4.28597e-06
1.79724e-06
1.05122e-06
7.61175e-07
6.26549e-07
5.56056e-07
5.16076e-07
4.92343e-07
4.78132e-07
4.70022e-07
4.66175e-07
4.65577e-07
4.67674e-07
4.72187e-07
4.79011e-07
4.88162e-07
4.99741e-07
5.13913e-07
5.30896e-07
5.50939e-07
4.28596e-06
1.79723e-06
1.05121e-06
7.61168e-07
6.26543e-07
5.56049e-07
5.16067e-07
4.9233e-07
4.78114e-07
4.69997e-07
4.6614e-07
4.65531e-07
4.67613e-07
4.72108e-07
4.7891e-07
4.88034e-07
4.99578e-07
5.13708e-07
5.3064e-07
5.50621e-07
4.28597e-06
1.79724e-06
1.05121e-06
7.6117e-07
6.2654e-07
5.56042e-07
5.16055e-07
4.92313e-07
4.78091e-07
4.69967e-07
4.66102e-07
4.65482e-07
4.67551e-07
4.7203e-07
4.78812e-07
4.8791e-07
4.99423e-07
5.13515e-07
5.304e-07
5.50323e-07
4.28596e-06
1.79723e-06
1.05121e-06
7.61163e-07
6.26534e-07
5.56036e-07
5.16048e-07
4.92302e-07
4.78076e-07
4.69945e-07
4.66072e-07
4.65441e-07
4.67498e-07
4.7196e-07
4.78722e-07
4.87795e-07
4.99278e-07
5.13332e-07
5.30171e-07
5.50038e-07
4.28597e-06
1.79724e-06
1.05121e-06
7.61165e-07
6.26532e-07
5.5603e-07
5.16037e-07
4.92287e-07
4.78055e-07
4.69918e-07
4.66037e-07
4.65397e-07
4.67442e-07
4.7189e-07
4.78633e-07
4.87684e-07
4.99139e-07
5.13159e-07
5.29956e-07
5.49772e-07
4.28596e-06
1.79723e-06
1.0512e-06
7.61159e-07
6.26527e-07
5.56025e-07
5.16031e-07
4.92278e-07
4.78042e-07
4.69899e-07
4.66011e-07
4.65361e-07
4.67394e-07
4.71827e-07
4.78553e-07
4.87582e-07
4.99009e-07
5.12996e-07
5.29751e-07
5.49517e-07
4.28597e-06
1.79724e-06
1.05121e-06
7.61162e-07
6.26525e-07
5.56019e-07
5.16021e-07
4.92264e-07
4.78023e-07
4.69875e-07
4.6598e-07
4.65321e-07
4.67344e-07
4.71764e-07
4.78474e-07
4.87482e-07
4.98885e-07
5.12841e-07
5.29559e-07
5.49279e-07
4.28596e-06
1.79723e-06
1.0512e-06
7.61156e-07
6.26521e-07
5.56015e-07
5.16016e-07
4.92257e-07
4.78012e-07
4.69859e-07
4.65957e-07
4.6529e-07
4.67302e-07
4.71709e-07
4.78402e-07
4.8739e-07
4.98768e-07
5.12694e-07
5.29376e-07
5.49052e-07
4.28597e-06
1.79724e-06
1.05121e-06
7.61159e-07
6.2652e-07
5.5601e-07
5.16007e-07
4.92244e-07
4.77995e-07
4.69836e-07
4.65928e-07
4.65254e-07
4.67256e-07
4.71652e-07
4.7833e-07
4.87301e-07
4.98657e-07
5.12556e-07
5.29203e-07
5.48838e-07
4.28596e-06
1.79723e-06
1.0512e-06
7.61153e-07
6.26516e-07
5.56007e-07
5.16003e-07
4.92238e-07
4.77986e-07
4.69823e-07
4.65908e-07
4.65226e-07
4.67219e-07
4.71602e-07
4.78266e-07
4.87219e-07
4.98553e-07
5.12425e-07
5.2904e-07
5.48635e-07
4.28597e-06
1.79724e-06
1.05121e-06
7.61156e-07
6.26515e-07
5.56002e-07
5.15995e-07
4.92226e-07
4.7797e-07
4.69802e-07
4.65882e-07
4.65193e-07
4.67178e-07
4.71551e-07
4.78202e-07
4.87139e-07
4.98453e-07
5.123e-07
5.28885e-07
5.48444e-07
4.28596e-06
1.79723e-06
1.0512e-06
7.61152e-07
6.26513e-07
5.56e-07
5.15992e-07
4.92221e-07
4.77962e-07
4.6979e-07
4.65865e-07
4.65169e-07
4.67145e-07
4.71507e-07
4.78145e-07
4.87065e-07
4.9836e-07
5.12183e-07
5.28739e-07
5.48262e-07
4.28596e-06
1.79724e-06
1.05121e-06
7.61155e-07
6.26512e-07
5.55996e-07
5.15985e-07
4.9221e-07
4.77948e-07
4.69771e-07
4.65841e-07
4.65139e-07
4.67107e-07
4.7146e-07
4.78087e-07
4.86993e-07
4.9827e-07
5.12071e-07
5.286e-07
5.48091e-07
4.28596e-06
1.79723e-06
1.0512e-06
7.61151e-07
6.26509e-07
5.55994e-07
5.15982e-07
4.92206e-07
4.77941e-07
4.69761e-07
4.65826e-07
4.65117e-07
4.67078e-07
4.71421e-07
4.78036e-07
4.86927e-07
4.98186e-07
5.11966e-07
5.28469e-07
5.47928e-07
4.28596e-06
1.79724e-06
1.05121e-06
7.61154e-07
6.26509e-07
5.5599e-07
5.15976e-07
4.92196e-07
4.77928e-07
4.69744e-07
4.65804e-07
4.6509e-07
4.67044e-07
4.71379e-07
4.77983e-07
4.86862e-07
4.98105e-07
5.11866e-07
5.28344e-07
5.47774e-07
4.28596e-06
1.79723e-06
1.0512e-06
7.6115e-07
6.26507e-07
5.55989e-07
5.15974e-07
4.92193e-07
4.77922e-07
4.69735e-07
4.6579e-07
4.65071e-07
4.67018e-07
4.71344e-07
4.77938e-07
4.86803e-07
4.98031e-07
5.11772e-07
5.28227e-07
5.47628e-07
4.28596e-06
1.79724e-06
1.05121e-06
7.61153e-07
6.26507e-07
5.55986e-07
5.15968e-07
4.92184e-07
4.7791e-07
4.69719e-07
4.65771e-07
4.65047e-07
4.66987e-07
4.71306e-07
4.7789e-07
4.86745e-07
4.97958e-07
5.11681e-07
5.28115e-07
5.47491e-07
4.28596e-06
1.79723e-06
1.0512e-06
7.61149e-07
6.26505e-07
5.55984e-07
5.15966e-07
4.92182e-07
4.77905e-07
4.69711e-07
4.65759e-07
4.6503e-07
4.66964e-07
4.71275e-07
4.77849e-07
4.86692e-07
4.97891e-07
5.11597e-07
5.2801e-07
5.4736e-07
4.28596e-06
1.79724e-06
1.05121e-06
7.61152e-07
6.26505e-07
5.55982e-07
5.1596e-07
4.92173e-07
4.77894e-07
4.69697e-07
4.65741e-07
4.65007e-07
4.66936e-07
4.7124e-07
4.77807e-07
4.86639e-07
4.97825e-07
5.11516e-07
5.2791e-07
5.47236e-07
4.28596e-06
1.79723e-06
1.0512e-06
7.61149e-07
6.26503e-07
5.5598e-07
5.15959e-07
4.92171e-07
4.7789e-07
4.6969e-07
4.65731e-07
4.64992e-07
4.66915e-07
4.71212e-07
4.7777e-07
4.86592e-07
4.97765e-07
5.1144e-07
5.27815e-07
5.47119e-07
4.28596e-06
1.79724e-06
1.05121e-06
7.61151e-07
6.26503e-07
5.55978e-07
5.15954e-07
4.92164e-07
4.7788e-07
4.69678e-07
4.65714e-07
4.64972e-07
4.6689e-07
4.71181e-07
4.77732e-07
4.86544e-07
4.97706e-07
5.11367e-07
5.27725e-07
5.47008e-07
4.28596e-06
1.79723e-06
1.0512e-06
7.61148e-07
6.26501e-07
5.55977e-07
5.15953e-07
4.92162e-07
4.77877e-07
4.69672e-07
4.65705e-07
4.64959e-07
4.66871e-07
4.71156e-07
4.77699e-07
4.86502e-07
4.97652e-07
5.11299e-07
5.2764e-07
5.46902e-07
4.28596e-06
1.79724e-06
1.05121e-06
7.61151e-07
6.26501e-07
5.55975e-07
5.15949e-07
4.92155e-07
4.77867e-07
4.6966e-07
4.6569e-07
4.6494e-07
4.66849e-07
4.71128e-07
4.77664e-07
4.86459e-07
4.97599e-07
5.11233e-07
5.27559e-07
5.46803e-07
4.28596e-06
1.79723e-06
1.0512e-06
7.61148e-07
6.265e-07
5.55974e-07
5.15948e-07
4.92153e-07
4.77864e-07
4.69655e-07
4.65682e-07
4.64928e-07
4.66832e-07
4.71106e-07
4.77634e-07
4.86421e-07
4.97551e-07
5.11172e-07
5.27483e-07
5.46708e-07
4.28596e-06
1.79724e-06
1.05121e-06
7.6115e-07
6.265e-07
5.55972e-07
5.15944e-07
4.92147e-07
4.77856e-07
4.69644e-07
4.65669e-07
4.64911e-07
4.66811e-07
4.7108e-07
4.77603e-07
4.86382e-07
4.97502e-07
5.11113e-07
5.27409e-07
5.46618e-07
4.28596e-06
1.79723e-06
1.0512e-06
7.61148e-07
6.26499e-07
5.55971e-07
5.15943e-07
4.92146e-07
4.77853e-07
4.69639e-07
4.65661e-07
4.64901e-07
4.66796e-07
4.7106e-07
4.77576e-07
4.86348e-07
4.97459e-07
5.11058e-07
5.27341e-07
5.46534e-07
4.28596e-06
1.79724e-06
1.05121e-06
7.6115e-07
6.26499e-07
5.55969e-07
5.15939e-07
4.9214e-07
4.77845e-07
4.69629e-07
4.65649e-07
4.64885e-07
4.66777e-07
4.71037e-07
4.77548e-07
4.86312e-07
4.97415e-07
5.11005e-07
5.27275e-07
5.46453e-07
4.28596e-06
1.79723e-06
1.0512e-06
7.61148e-07
6.26498e-07
5.55969e-07
5.15939e-07
4.92139e-07
4.77843e-07
4.69625e-07
4.65642e-07
4.64876e-07
4.66764e-07
4.71018e-07
4.77524e-07
4.86282e-07
4.97376e-07
5.10956e-07
5.27214e-07
5.46377e-07
4.28596e-06
1.79724e-06
1.05121e-06
7.6115e-07
6.26498e-07
5.55967e-07
5.15935e-07
4.92133e-07
4.77836e-07
4.69616e-07
4.65631e-07
4.64862e-07
4.66747e-07
4.70997e-07
4.77498e-07
4.8625e-07
4.97337e-07
5.10907e-07
5.27155e-07
5.46304e-07
4.28596e-06
1.79723e-06
1.0512e-06
7.61148e-07
6.26497e-07
5.55967e-07
5.15935e-07
4.92132e-07
4.77834e-07
4.69612e-07
4.65625e-07
4.64853e-07
4.66735e-07
4.70981e-07
4.77476e-07
4.86222e-07
4.97302e-07
5.10863e-07
5.27099e-07
5.46236e-07
4.28596e-06
1.79724e-06
1.05121e-06
7.6115e-07
6.26497e-07
5.55965e-07
5.15931e-07
4.92127e-07
4.77827e-07
4.69604e-07
4.65615e-07
4.6484e-07
4.66719e-07
4.70962e-07
4.77453e-07
4.86193e-07
4.97266e-07
5.1082e-07
5.27046e-07
5.4617e-07
4.28596e-06
1.79723e-06
1.0512e-06
7.61148e-07
6.26496e-07
5.55964e-07
5.15931e-07
4.92127e-07
4.77825e-07
4.696e-07
4.65609e-07
4.64832e-07
4.66708e-07
4.70947e-07
4.77434e-07
4.86168e-07
4.97235e-07
5.1078e-07
5.26996e-07
5.46108e-07
4.28596e-06
1.79724e-06
1.05121e-06
7.61149e-07
6.26496e-07
5.55963e-07
5.15928e-07
4.92122e-07
4.77819e-07
4.69593e-07
4.656e-07
4.64821e-07
4.66694e-07
4.7093e-07
4.77412e-07
4.86142e-07
4.97203e-07
5.1074e-07
5.26948e-07
5.4605e-07
4.28596e-06
1.79723e-06
1.0512e-06
7.61148e-07
6.26495e-07
5.55962e-07
5.15927e-07
4.92121e-07
4.77818e-07
4.6959e-07
4.65595e-07
4.64814e-07
4.66684e-07
4.70916e-07
4.77395e-07
4.86119e-07
4.97174e-07
5.10704e-07
5.26903e-07
5.45994e-07
4.28596e-06
1.79724e-06
1.05121e-06
7.61149e-07
6.26495e-07
5.55961e-07
5.15924e-07
4.92117e-07
4.77812e-07
4.69583e-07
4.65587e-07
4.64803e-07
4.66671e-07
4.70901e-07
4.77376e-07
4.86096e-07
4.97145e-07
5.10669e-07
5.2686e-07
5.45941e-07
4.28596e-06
1.79723e-06
1.0512e-06
7.61147e-07
6.26494e-07
5.5596e-07
5.15924e-07
4.92116e-07
4.77811e-07
4.6958e-07
4.65582e-07
4.64797e-07
4.66662e-07
4.70889e-07
4.7736e-07
4.86076e-07
4.97119e-07
5.10636e-07
5.26819e-07
5.45891e-07
4.28596e-06
1.79724e-06
1.05121e-06
7.61148e-07
6.26494e-07
5.55959e-07
5.15921e-07
4.92112e-07
4.77806e-07
4.69574e-07
4.65574e-07
4.64787e-07
4.6665e-07
4.70874e-07
4.77342e-07
4.86054e-07
4.97093e-07
5.10605e-07
5.2678e-07
5.45843e-07
4.28596e-06
1.79723e-06
1.0512e-06
7.61147e-07
6.26493e-07
5.55959e-07
5.15921e-07
4.92112e-07
4.77804e-07
4.69571e-07
4.65571e-07
4.64782e-07
4.66642e-07
4.70863e-07
4.77328e-07
4.86036e-07
4.9707e-07
5.10575e-07
5.26744e-07
5.45798e-07
4.28596e-06
1.79724e-06
1.05121e-06
7.61148e-07
6.26492e-07
5.55957e-07
5.15919e-07
4.92108e-07
4.778e-07
4.69566e-07
4.65563e-07
4.64773e-07
4.66632e-07
4.70851e-07
4.77312e-07
4.86017e-07
4.97046e-07
5.10546e-07
5.26708e-07
5.45755e-07
4.28596e-06
1.79724e-06
1.0512e-06
7.61147e-07
6.26492e-07
5.55957e-07
5.15918e-07
4.92108e-07
4.77798e-07
4.69563e-07
4.6556e-07
4.64768e-07
4.66624e-07
4.70841e-07
4.77299e-07
4.86e-07
4.97025e-07
5.1052e-07
5.26675e-07
5.45714e-07
4.28596e-06
1.79724e-06
1.05121e-06
7.61147e-07
6.26491e-07
5.55955e-07
5.15916e-07
4.92104e-07
4.77794e-07
4.69558e-07
4.65553e-07
4.6476e-07
4.66615e-07
4.70829e-07
4.77285e-07
4.85983e-07
4.97004e-07
5.10494e-07
5.26644e-07
5.45675e-07
4.28596e-06
1.79723e-06
1.0512e-06
7.61146e-07
6.26491e-07
5.55955e-07
5.15916e-07
4.92104e-07
4.77793e-07
4.69556e-07
4.6555e-07
4.64755e-07
4.66608e-07
4.7082e-07
4.77273e-07
4.85967e-07
4.96985e-07
5.1047e-07
5.26614e-07
5.45639e-07
4.28596e-06
1.79724e-06
1.05121e-06
7.61147e-07
6.2649e-07
5.55954e-07
5.15913e-07
4.92101e-07
4.77789e-07
4.69551e-07
4.65544e-07
4.64748e-07
4.666e-07
4.7081e-07
4.7726e-07
4.85952e-07
4.96965e-07
5.10446e-07
5.26585e-07
5.45604e-07
4.28596e-06
1.79723e-06
1.0512e-06
7.61146e-07
6.2649e-07
5.55953e-07
5.15913e-07
4.921e-07
4.77788e-07
4.69549e-07
4.65541e-07
4.64743e-07
4.66593e-07
4.70801e-07
4.7725e-07
4.85938e-07
4.96948e-07
5.10425e-07
5.26558e-07
5.4557e-07
4.28596e-06
1.79724e-06
1.0512e-06
7.61146e-07
6.2649e-07
5.55952e-07
5.15911e-07
4.92097e-07
4.77784e-07
4.69545e-07
4.65536e-07
4.64737e-07
4.66585e-07
4.70792e-07
4.77238e-07
4.85924e-07
4.96931e-07
5.10403e-07
5.26532e-07
5.45539e-07
4.28596e-06
1.79724e-06
1.0512e-06
7.61145e-07
6.26489e-07
5.55952e-07
5.15911e-07
4.92097e-07
4.77783e-07
4.69543e-07
4.65533e-07
4.64733e-07
4.6658e-07
4.70784e-07
4.77228e-07
4.85911e-07
4.96915e-07
5.10384e-07
5.26508e-07
5.45509e-07
4.28596e-06
1.79724e-06
1.0512e-06
7.61146e-07
6.26489e-07
5.55951e-07
5.15909e-07
4.92094e-07
4.7778e-07
4.69539e-07
4.65528e-07
4.64727e-07
4.66573e-07
4.70775e-07
4.77218e-07
4.85898e-07
4.96899e-07
5.10365e-07
5.26485e-07
5.45481e-07
4.28596e-06
1.79724e-06
1.0512e-06
7.61145e-07
6.26488e-07
5.55951e-07
5.15909e-07
4.92094e-07
4.77779e-07
4.69537e-07
4.65525e-07
4.64723e-07
4.66567e-07
4.70768e-07
4.77209e-07
4.85887e-07
4.96885e-07
5.10347e-07
5.26463e-07
5.45453e-07
4.28596e-06
1.79724e-06
1.0512e-06
7.61145e-07
6.26488e-07
5.5595e-07
5.15907e-07
4.92091e-07
4.77776e-07
4.69534e-07
4.65521e-07
4.64718e-07
4.66561e-07
4.70761e-07
4.77199e-07
4.85875e-07
4.96871e-07
5.10329e-07
5.26441e-07
5.45428e-07
4.28596e-06
1.79724e-06
1.0512e-06
7.61145e-07
6.26488e-07
5.55949e-07
5.15907e-07
4.92091e-07
4.77775e-07
4.69532e-07
4.65519e-07
4.64714e-07
4.66556e-07
4.70754e-07
4.77191e-07
4.85865e-07
4.96858e-07
5.10313e-07
5.26421e-07
5.45403e-07
4.28596e-06
1.79724e-06
1.0512e-06
7.61145e-07
6.26487e-07
5.55948e-07
5.15905e-07
4.92089e-07
4.77772e-07
4.69529e-07
4.65515e-07
4.64709e-07
4.6655e-07
4.70747e-07
4.77182e-07
4.85854e-07
4.96845e-07
5.10298e-07
5.26402e-07
5.4538e-07
4.28596e-06
1.79723e-06
1.0512e-06
7.61144e-07
6.26487e-07
5.55948e-07
5.15905e-07
4.92088e-07
4.77771e-07
4.69527e-07
4.65512e-07
4.64706e-07
4.66546e-07
4.70742e-07
4.77175e-07
4.85845e-07
4.96833e-07
5.10283e-07
5.26384e-07
5.45358e-07
4.28596e-06
1.79724e-06
1.0512e-06
7.61144e-07
6.26486e-07
5.55947e-07
5.15903e-07
4.92086e-07
4.77769e-07
4.69524e-07
4.65509e-07
4.64702e-07
4.66541e-07
4.70735e-07
4.77167e-07
4.85836e-07
4.96822e-07
5.10269e-07
5.26367e-07
5.45337e-07
4.28596e-06
1.79723e-06
1.0512e-06
7.61144e-07
6.26486e-07
5.55947e-07
5.15903e-07
4.92086e-07
4.77768e-07
4.69523e-07
4.65507e-07
4.64699e-07
4.66537e-07
4.7073e-07
4.7716e-07
4.85827e-07
4.96811e-07
5.10256e-07
5.26351e-07
5.45317e-07
4.28596e-06
1.79724e-06
1.0512e-06
7.61143e-07
6.26485e-07
5.55946e-07
5.15902e-07
4.92084e-07
4.77766e-07
4.6952e-07
4.65503e-07
4.64695e-07
4.66532e-07
4.70724e-07
4.77153e-07
4.85818e-07
4.968e-07
5.10243e-07
5.26335e-07
5.45298e-07
4.28596e-06
1.79723e-06
1.0512e-06
7.61143e-07
6.26485e-07
5.55946e-07
5.15901e-07
4.92083e-07
4.77765e-07
4.69519e-07
4.65501e-07
4.64692e-07
4.66528e-07
4.70719e-07
4.77147e-07
4.85811e-07
4.96791e-07
5.10231e-07
5.26321e-07
5.4528e-07
4.28596e-06
1.79724e-06
1.0512e-06
7.61143e-07
6.26485e-07
5.55945e-07
5.159e-07
4.92082e-07
4.77763e-07
4.69516e-07
4.65499e-07
4.64689e-07
4.66524e-07
4.70714e-07
4.77141e-07
4.85803e-07
4.96781e-07
5.10219e-07
5.26307e-07
5.45263e-07
4.28596e-06
1.79723e-06
1.0512e-06
7.61143e-07
6.26484e-07
5.55944e-07
5.159e-07
4.92081e-07
4.77762e-07
4.69515e-07
4.65497e-07
4.64686e-07
4.66521e-07
4.7071e-07
4.77135e-07
4.85796e-07
4.96773e-07
5.10208e-07
5.26293e-07
5.45247e-07
4.28596e-06
1.79724e-06
1.0512e-06
7.61142e-07
6.26484e-07
5.55944e-07
5.15899e-07
4.9208e-07
4.7776e-07
4.69513e-07
4.65494e-07
4.64683e-07
4.66517e-07
4.70705e-07
4.7713e-07
4.85789e-07
4.96764e-07
5.10198e-07
5.26281e-07
5.45232e-07
4.28596e-06
1.79723e-06
1.0512e-06
7.61142e-07
6.26484e-07
5.55943e-07
5.15898e-07
4.92079e-07
4.7776e-07
4.69512e-07
4.65492e-07
4.64681e-07
4.66514e-07
4.70701e-07
4.77124e-07
4.85782e-07
4.96756e-07
5.10188e-07
5.26269e-07
5.45217e-07
4.28596e-06
1.79723e-06
1.0512e-06
7.61142e-07
6.26483e-07
5.55943e-07
5.15897e-07
4.92078e-07
4.77758e-07
4.6951e-07
4.6549e-07
4.64678e-07
4.6651e-07
4.70697e-07
4.77119e-07
4.85776e-07
4.96748e-07
5.10179e-07
5.26257e-07
5.45203e-07
4.28596e-06
1.79723e-06
1.0512e-06
7.61142e-07
6.26483e-07
5.55942e-07
5.15897e-07
4.92078e-07
4.77757e-07
4.69509e-07
4.65488e-07
4.64676e-07
4.66507e-07
4.70693e-07
4.77115e-07
4.8577e-07
4.96741e-07
5.1017e-07
5.26246e-07
5.4519e-07
4.28596e-06
1.79723e-06
1.0512e-06
7.61141e-07
6.26483e-07
5.55942e-07
5.15896e-07
4.92077e-07
4.77756e-07
4.69507e-07
4.65486e-07
4.64673e-07
4.66504e-07
4.70689e-07
4.7711e-07
4.85765e-07
4.96734e-07
5.10161e-07
5.26236e-07
5.45177e-07
4.28596e-06
1.79723e-06
1.0512e-06
7.61141e-07
6.26482e-07
5.55941e-07
5.15896e-07
4.92076e-07
4.77755e-07
4.69506e-07
4.65485e-07
4.64671e-07
4.66502e-07
4.70686e-07
4.77106e-07
4.85759e-07
4.96728e-07
5.10153e-07
5.26226e-07
5.45165e-07
4.28596e-06
1.79723e-06
1.0512e-06
7.61141e-07
6.26482e-07
5.55941e-07
5.15895e-07
4.92075e-07
4.77754e-07
4.69504e-07
4.65483e-07
4.64669e-07
4.66499e-07
4.70682e-07
4.77101e-07
4.85754e-07
4.96721e-07
5.10146e-07
5.26217e-07
5.45154e-07
4.28596e-06
1.79723e-06
1.0512e-06
7.61141e-07
6.26482e-07
5.55941e-07
5.15895e-07
4.92074e-07
4.77753e-07
4.69503e-07
4.65481e-07
4.64667e-07
4.66496e-07
4.70679e-07
4.77098e-07
4.85749e-07
4.96715e-07
5.10138e-07
5.26208e-07
5.45143e-07
4.28596e-06
1.79723e-06
1.0512e-06
7.61141e-07
6.26482e-07
5.5594e-07
5.15894e-07
4.92074e-07
4.77752e-07
4.69502e-07
4.6548e-07
4.64665e-07
4.66494e-07
4.70676e-07
4.77094e-07
4.85745e-07
4.9671e-07
5.10131e-07
5.26199e-07
5.45133e-07
4.28596e-06
1.79723e-06
1.0512e-06
7.61141e-07
6.26481e-07
5.5594e-07
5.15894e-07
4.92073e-07
4.77751e-07
4.69501e-07
4.65479e-07
4.64663e-07
4.66492e-07
4.70673e-07
4.7709e-07
4.8574e-07
4.96704e-07
5.10125e-07
5.26191e-07
5.45123e-07
4.28596e-06
1.79723e-06
1.0512e-06
7.6114e-07
6.26481e-07
5.5594e-07
5.15893e-07
4.92072e-07
4.7775e-07
4.695e-07
4.65477e-07
4.64661e-07
4.66489e-07
4.70671e-07
4.77087e-07
4.85736e-07
4.96699e-07
5.10118e-07
5.26184e-07
5.45114e-07
4.28596e-06
1.79723e-06
1.0512e-06
7.6114e-07
6.26481e-07
5.55939e-07
5.15893e-07
4.92072e-07
4.7775e-07
4.69499e-07
4.65476e-07
4.6466e-07
4.66487e-07
4.70668e-07
4.77084e-07
4.85732e-07
4.96694e-07
5.10113e-07
5.26176e-07
5.45105e-07
4.28596e-06
1.79723e-06
1.0512e-06
7.6114e-07
6.26481e-07
5.55939e-07
5.15892e-07
4.92071e-07
4.77749e-07
4.69498e-07
4.65475e-07
4.64658e-07
4.66485e-07
4.70666e-07
4.77081e-07
4.85728e-07
4.96689e-07
5.10107e-07
5.26169e-07
5.45096e-07
4.28596e-06
1.79723e-06
1.0512e-06
7.6114e-07
6.2648e-07
5.55939e-07
5.15892e-07
4.92071e-07
4.77748e-07
4.69497e-07
4.65474e-07
4.64657e-07
4.66483e-07
4.70663e-07
4.77078e-07
4.85725e-07
4.96685e-07
5.10102e-07
5.26163e-07
5.45088e-07
4.28596e-06
1.79723e-06
1.0512e-06
7.6114e-07
6.2648e-07
5.55939e-07
5.15892e-07
4.9207e-07
4.77748e-07
4.69496e-07
4.65472e-07
4.64655e-07
4.66482e-07
4.70661e-07
4.77075e-07
4.85721e-07
4.96681e-07
5.10096e-07
5.26157e-07
5.45081e-07
4.28596e-06
1.79723e-06
1.0512e-06
7.6114e-07
6.2648e-07
5.55939e-07
5.15892e-07
4.9207e-07
4.77747e-07
4.69496e-07
4.65472e-07
4.64654e-07
4.6648e-07
4.70659e-07
4.77072e-07
4.85718e-07
4.96677e-07
5.10092e-07
5.26151e-07
5.45074e-07
4.28596e-06
1.79723e-06
1.0512e-06
7.6114e-07
6.2648e-07
5.55939e-07
5.15892e-07
4.9207e-07
4.77747e-07
4.69495e-07
4.65471e-07
4.64653e-07
4.66479e-07
4.70657e-07
4.7707e-07
4.85715e-07
4.96673e-07
5.10087e-07
5.26145e-07
5.45067e-07
4.28596e-06
1.79723e-06
1.0512e-06
7.6114e-07
6.26481e-07
5.55939e-07
5.15891e-07
4.9207e-07
4.77747e-07
4.69495e-07
4.6547e-07
4.64652e-07
4.66478e-07
4.70656e-07
4.77068e-07
4.85713e-07
4.9667e-07
5.10083e-07
5.2614e-07
5.45061e-07
4.28596e-06
1.79724e-06
1.0512e-06
7.61142e-07
6.26482e-07
5.55939e-07
5.15891e-07
4.92068e-07
4.77743e-07
4.69489e-07
4.65463e-07
4.64642e-07
4.66464e-07
4.70638e-07
4.77045e-07
4.85683e-07
4.96633e-07
5.10036e-07
5.26082e-07
5.44988e-07
2.62758e-06
3.63563e-06
4.61023e-06
5.55964e-06
6.48467e-06
7.38315e-06
8.25157e-06
9.08594e-06
9.88228e-06
1.06368e-05
1.13462e-05
1.20078e-05
1.26198e-05
1.31813e-05
1.36923e-05
1.41538e-05
1.45673e-05
1.49349e-05
1.5259e-05
1.55424e-05
1.57879e-05
1.59982e-05
1.61763e-05
1.6325e-05
1.64473e-05
1.65457e-05
1.6623e-05
1.66818e-05
1.67244e-05
1.67529e-05
1.67695e-05
1.67759e-05
1.67737e-05
1.67642e-05
1.67487e-05
1.67281e-05
1.67032e-05
1.66749e-05
1.66435e-05
1.66096e-05
1.65736e-05
1.65357e-05
1.6496e-05
1.6455e-05
1.64126e-05
1.63689e-05
1.63242e-05
1.62783e-05
1.62315e-05
1.61836e-05
1.61348e-05
1.6085e-05
1.60344e-05
1.59827e-05
1.59306e-05
1.5877e-05
1.58237e-05
1.57678e-05
1.57141e-05
1.56551e-05
1.56026e-05
1.55389e-05
1.54901e-05
1.54193e-05
1.53774e-05
1.52971e-05
1.52645e-05
1.51742e-05
1.51506e-05
1.50535e-05
1.50356e-05
1.49366e-05
1.49216e-05
1.48226e-05
1.4812e-05
1.47126e-05
1.47073e-05
1.46089e-05
1.46059e-05
1.45124e-05
5.97399e-07
6.41477e-07
6.98505e-07
7.68171e-07
8.48186e-07
9.35508e-07
1.02848e-06
1.1279e-06
1.23662e-06
1.35833e-06
1.49642e-06
1.65336e-06
1.83077e-06
2.02973e-06
2.25122e-06
2.4963e-06
2.76615e-06
3.06183e-06
3.38412e-06
3.73326e-06
4.10876e-06
4.50929e-06
4.9326e-06
5.37554e-06
5.8341e-06
6.30349e-06
6.77831e-06
7.25271e-06
7.72065e-06
8.17605e-06
8.6131e-06
9.02639e-06
9.41112e-06
9.76327e-06
1.00797e-05
1.03581e-05
1.05972e-05
1.07967e-05
1.09571e-05
1.10798e-05
1.11668e-05
1.12207e-05
1.12447e-05
1.12422e-05
1.12169e-05
1.11725e-05
1.11127e-05
1.10413e-05
1.09618e-05
1.08775e-05
1.07914e-05
1.07066e-05
1.06253e-05
1.05503e-05
1.04831e-05
1.04267e-05
1.03806e-05
1.035e-05
1.03304e-05
1.03322e-05
1.03425e-05
1.03836e-05
1.04252e-05
1.05135e-05
1.05858e-05
1.07298e-05
1.08324e-05
1.10396e-05
1.11737e-05
1.14477e-05
1.16193e-05
1.19587e-05
1.21753e-05
1.25789e-05
1.28441e-05
1.33124e-05
1.36262e-05
1.41531e-05
1.45231e-05
1.50618e-05
5.91016e-07
6.22248e-07
6.58517e-07
7.00323e-07
7.48117e-07
8.02258e-07
8.63012e-07
9.3056e-07
1.00507e-06
1.08681e-06
1.17635e-06
1.27474e-06
1.38365e-06
1.50545e-06
1.6431e-06
1.80012e-06
1.98041e-06
2.18811e-06
2.42749e-06
2.70277e-06
3.01794e-06
3.37656e-06
3.78147e-06
4.23452e-06
4.73631e-06
5.28592e-06
5.88073e-06
6.51625e-06
7.18615e-06
7.88232e-06
8.59514e-06
9.31377e-06
1.00266e-05
1.07218e-05
1.13877e-05
1.20133e-05
1.25888e-05
1.31059e-05
1.35579e-05
1.394e-05
1.42492e-05
1.44844e-05
1.46461e-05
1.47362e-05
1.47578e-05
1.47152e-05
1.46131e-05
1.44571e-05
1.42526e-05
1.40057e-05
1.37219e-05
1.34071e-05
1.30664e-05
1.27056e-05
1.23283e-05
1.1941e-05
1.15447e-05
1.11481e-05
1.0747e-05
1.03564e-05
9.96174e-06
9.59051e-06
9.2113e-06
8.87121e-06
8.51492e-06
8.21515e-06
7.88981e-06
7.63678e-06
7.35098e-06
7.14935e-06
6.91114e-06
6.76601e-06
6.58088e-06
6.49932e-06
6.37184e-06
6.36098e-06
6.29511e-06
6.36176e-06
6.36331e-06
6.52255e-06
5.89651e-07
6.20497e-07
6.56238e-07
6.97325e-07
7.44162e-07
7.97089e-07
8.56378e-07
9.22259e-07
9.94983e-07
1.07492e-06
1.16268e-06
1.25927e-06
1.3662e-06
1.48555e-06
1.61997e-06
1.77268e-06
1.94729e-06
2.14779e-06
2.37838e-06
2.64334e-06
2.94693e-06
3.2932e-06
3.68585e-06
4.12802e-06
4.62208e-06
5.1694e-06
5.77012e-06
6.42291e-06
7.12485e-06
7.87125e-06
8.6556e-06
9.46967e-06
1.03037e-05
1.11465e-05
1.19861e-05
1.28101e-05
1.3606e-05
1.4362e-05
1.50671e-05
1.57118e-05
1.62884e-05
1.67909e-05
1.72153e-05
1.75594e-05
1.78227e-05
1.80065e-05
1.81133e-05
1.81465e-05
1.81106e-05
1.80104e-05
1.78512e-05
1.76385e-05
1.73775e-05
1.70737e-05
1.67318e-05
1.63572e-05
1.59531e-05
1.55258e-05
1.50754e-05
1.46109e-05
1.4127e-05
1.36386e-05
1.31313e-05
1.26302e-05
1.21079e-05
1.16023e-05
1.10734e-05
1.05685e-05
1.00422e-05
9.54081e-06
9.02618e-06
8.532e-06
8.0339e-06
7.55522e-06
7.07698e-06
6.62154e-06
6.16875e-06
5.73852e-06
5.31423e-06
4.8552e-06
5.88369e-07
6.18897e-07
6.54251e-07
6.94872e-07
7.41153e-07
7.93424e-07
8.51948e-07
9.16946e-07
9.88657e-07
1.06744e-06
1.15389e-06
1.24901e-06
1.35427e-06
1.47173e-06
1.60401e-06
1.75424e-06
1.92599e-06
2.12315e-06
2.34983e-06
2.61017e-06
2.90828e-06
3.24806e-06
3.63304e-06
4.0662e-06
4.54982e-06
5.08521e-06
5.67262e-06
6.31099e-06
6.99787e-06
7.72928e-06
8.49972e-06
9.30221e-06
1.01284e-05
1.09687e-05
1.18128e-05
1.26496e-05
1.3468e-05
1.42569e-05
1.50061e-05
1.5706e-05
1.63483e-05
1.69264e-05
1.7435e-05
1.78705e-05
1.8231e-05
1.85159e-05
1.87261e-05
1.88637e-05
1.89317e-05
1.89337e-05
1.88742e-05
1.87576e-05
1.85889e-05
1.83728e-05
1.81141e-05
1.78176e-05
1.74874e-05
1.7128e-05
1.67425e-05
1.63357e-05
1.5909e-05
1.54681e-05
1.50117e-05
1.45475e-05
1.4071e-05
1.35925e-05
1.31041e-05
1.26179e-05
1.21248e-05
1.1636e-05
1.11445e-05
1.06575e-05
1.0172e-05
9.69141e-06
9.21503e-06
8.74455e-06
8.28014e-06
7.82005e-06
7.36737e-06
6.88298e-06
5.8717e-07
6.17402e-07
6.52395e-07
6.9258e-07
7.38343e-07
7.90005e-07
8.47821e-07
9.12008e-07
9.82796e-07
1.06054e-06
1.14582e-06
1.23963e-06
1.34342e-06
1.45923e-06
1.58963e-06
1.73773e-06
1.90706e-06
2.10146e-06
2.32497e-06
2.58167e-06
2.87561e-06
3.21061e-06
3.59012e-06
4.01704e-06
4.49357e-06
5.02099e-06
5.59948e-06
6.228e-06
6.90412e-06
7.624e-06
8.38229e-06
9.17227e-06
9.98591e-06
1.08141e-05
1.16469e-05
1.24739e-05
1.32845e-05
1.40682e-05
1.48152e-05
1.55163e-05
1.61638e-05
1.67508e-05
1.72724e-05
1.77247e-05
1.81055e-05
1.84139e-05
1.86505e-05
1.88166e-05
1.89149e-05
1.89485e-05
1.89211e-05
1.88371e-05
1.87006e-05
1.85164e-05