/*--------------------------------*- C++ -*----------------------------------*\
| =========                 |                                                 |
| \\      /  F ield         | OpenFOAM: The Open Source CFD Toolbox           |
|  \\    /   O peration     | Version:  2.4.0                                 |
|   \\  /    A nd           | Web:      www.OpenFOAM.org                      |
|    \\/     M anipulation  |                                                 |
\*---------------------------------------------------------------------------*/
FoamFile
{
    version     2.0;
    format      ascii;
    class       volScalarField;
    location    "0.16";
    object      k;
}
// * * * * * * * * * * * * * * * * * * * * * * * * * * * * * * * * * * * * * //

dimensions      [0 2 -2 0 0 0 0];

internalField   nonuniform List<scalar> 
6000
(
0.00510095
0.00645275
0.00771274
0.00881207
0.00971717
0.0104272
0.0109649
0.0113647
0.0116613
0.0118825
0.0120479
0.01217
0.0122581
0.0123195
0.012361
0.0123882
0.0124054
0.012416
0.0124223
0.0124258
0.0124277
0.0124287
0.0124292
0.0124293
0.0124294
0.0124293
0.0124292
0.012429
0.0124287
0.0124284
0.0124279
0.0124274
0.0124266
0.0124257
0.0124245
0.0124229
0.0124209
0.0124182
0.0124148
0.0124103
0.0124046
0.0123972
0.0123876
0.0123751
0.012359
0.0123381
0.0123111
0.0122761
0.0122308
0.012172
0.0120958
0.0119967
0.0118676
0.0116988
0.0114764
0.0111798
0.0107776
0.0102122
0.00941039
0.00801984
0.00354935
0.00344442
0.00340326
0.00340734
0.00343635
0.00347068
0.00349626
0.00350564
0.00349757
0.00347541
0.00344472
0.00341113
0.00337895
0.00335083
0.00332804
0.00331084
0.00329869
0.00329058
0.00328539
0.00328218
0.00328024
0.00327907
0.00327838
0.00327799
0.00327778
0.00327768
0.00327765
0.00327766
0.00327772
0.00327781
0.00327793
0.00327809
0.0032783
0.00327857
0.00327893
0.00327939
0.00327999
0.00328077
0.00328177
0.00328307
0.00328475
0.00328693
0.00328975
0.00329341
0.00329815
0.00330429
0.00331227
0.00332264
0.00333615
0.00335378
0.0033769
0.00340741
0.00344811
0.00350329
0.00358006
0.00369116
0.00386194
0.00413646
0.00463705
0.00576391
0.00348321
0.00325643
0.00306396
0.00289908
0.00275547
0.00262733
0.00251084
0.00240476
0.0023099
0.00222778
0.00215935
0.00210426
0.00206106
0.00202781
0.0020027
0.00198421
0.00197101
0.00196195
0.00195594
0.00195209
0.00194969
0.00194823
0.00194736
0.00194686
0.00194658
0.00194643
0.00194635
0.00194631
0.0019463
0.0019463
0.00194631
0.00194632
0.00194635
0.00194638
0.00194642
0.00194648
0.00194655
0.00194664
0.00194676
0.00194692
0.00194712
0.00194739
0.00194774
0.00194819
0.00194879
0.00194959
0.00195064
0.00195206
0.00195398
0.00195661
0.00196028
0.00196547
0.00197301
0.00198426
0.00200174
0.0020302
0.00208069
0.00217413
0.00239765
0.00287797
0.00347969
0.00324257
0.00303446
0.00285084
0.00268814
0.00254346
0.00241468
0.00230052
0.00220046
0.00211439
0.00204224
0.00198354
0.00193727
0.00190191
0.00187567
0.00185674
0.00184346
0.00183439
0.00182837
0.00182448
0.00182203
0.00182053
0.00181963
0.00181911
0.00181881
0.00181865
0.00181856
0.00181851
0.00181849
0.00181848
0.00181848
0.00181847
0.00181848
0.00181848
0.00181849
0.00181849
0.0018185
0.00181852
0.00181853
0.00181855
0.00181858
0.00181862
0.00181867
0.00181873
0.00181882
0.00181894
0.0018191
0.00181932
0.00181963
0.00182008
0.00182074
0.00182173
0.00182325
0.00182566
0.00182964
0.00183647
0.00184917
0.00187404
0.00193692
0.00210502
0.00347951
0.00324164
0.00303207
0.00284636
0.00268119
0.00253415
0.00240361
0.00228858
0.00218852
0.00210304
0.00203164
0.00197354
0.00192758
0.00189228
0.00186596
0.00184691
0.00183351
0.00182434
0.00181825
0.0018143
0.00181181
0.00181027
0.00180936
0.00180882
0.00180851
0.00180834
0.00180825
0.0018082
0.00180818
0.00180817
0.00180816
0.00180816
0.00180816
0.00180816
0.00180816
0.00180816
0.00180816
0.00180816
0.00180816
0.00180816
0.00180816
0.00180817
0.00180818
0.00180819
0.0018082
0.00180823
0.00180826
0.00180833
0.00180843
0.0018086
0.00180887
0.00180933
0.00181009
0.00181139
0.00181364
0.00181759
0.0018247
0.00183817
0.00186379
0.00193353
0.0034795
0.00324153
0.00303177
0.0028458
0.00268033
0.00253298
0.00240219
0.00228705
0.00218704
0.00210174
0.00203061
0.00197277
0.00192702
0.00189185
0.00186559
0.00184655
0.00183314
0.00182395
0.00181783
0.00181386
0.00181135
0.00180981
0.00180888
0.00180834
0.00180803
0.00180786
0.00180777
0.00180772
0.00180769
0.00180768
0.00180767
0.00180767
0.00180767
0.00180767
0.00180767
0.00180767
0.00180767
0.00180767
0.00180767
0.00180767
0.00180767
0.00180767
0.00180768
0.00180768
0.00180769
0.00180771
0.00180774
0.00180779
0.00180788
0.00180803
0.00180829
0.00180872
0.00180945
0.00181071
0.00181288
0.00181667
0.00182342
0.00183583
0.00185711
0.00190485
0.00347949
0.00324149
0.00303167
0.00284565
0.0026801
0.00253269
0.00240186
0.0022867
0.00218669
0.00210144
0.00203037
0.0019726
0.00192693
0.00189182
0.0018656
0.00184658
0.00183318
0.00182399
0.00181787
0.0018139
0.00181139
0.00180985
0.00180892
0.00180838
0.00180807
0.0018079
0.00180781
0.00180776
0.00180773
0.00180772
0.00180771
0.00180771
0.00180771
0.00180771
0.00180771
0.00180771
0.00180771
0.00180771
0.00180771
0.00180771
0.00180771
0.00180771
0.00180771
0.00180772
0.00180773
0.00180775
0.00180778
0.00180784
0.00180793
0.00180809
0.00180835
0.00180879
0.00180954
0.00181082
0.00181301
0.00181683
0.00182357
0.00183576
0.00185653
0.00189992
0.00347949
0.00324146
0.0030316
0.00284554
0.00267996
0.00253251
0.00240165
0.00228648
0.00218648
0.00210123
0.00203019
0.00197246
0.00192682
0.00189175
0.00186556
0.00184656
0.00183317
0.00182399
0.00181788
0.00181391
0.0018114
0.00180986
0.00180894
0.00180839
0.00180808
0.00180791
0.00180782
0.00180777
0.00180774
0.00180773
0.00180772
0.00180772
0.00180772
0.00180772
0.00180772
0.00180772
0.00180772
0.00180772
0.00180772
0.00180772
0.00180772
0.00180772
0.00180773
0.00180774
0.00180775
0.00180777
0.0018078
0.00180786
0.00180795
0.00180811
0.00180837
0.00180881
0.00180957
0.00181085
0.00181303
0.00181681
0.00182339
0.00183512
0.00185485
0.0018948
0.00347949
0.00324144
0.00303155
0.00284545
0.00267985
0.00253237
0.00240149
0.0022863
0.0021863
0.00210107
0.00203004
0.00197234
0.00192672
0.00189167
0.00186551
0.00184653
0.00183315
0.00182398
0.00181787
0.00181391
0.0018114
0.00180986
0.00180894
0.0018084
0.00180809
0.00180791
0.00180782
0.00180777
0.00180775
0.00180773
0.00180773
0.00180772
0.00180772
0.00180772
0.00180772
0.00180772
0.00180772
0.00180772
0.00180772
0.00180772
0.00180772
0.00180773
0.00180773
0.00180774
0.00180775
0.00180777
0.0018078
0.00180786
0.00180795
0.00180811
0.00180837
0.00180882
0.00180957
0.00181083
0.00181299
0.00181669
0.00182305
0.00183417
0.00185251
0.00188813
0.00347949
0.00324143
0.00303151
0.00284539
0.00267975
0.00253225
0.00240135
0.00228616
0.00218615
0.00210093
0.00202991
0.00197223
0.00192664
0.00189161
0.00186546
0.0018465
0.00183313
0.00182397
0.00181787
0.0018139
0.0018114
0.00180986
0.00180894
0.0018084
0.00180809
0.00180791
0.00180782
0.00180777
0.00180775
0.00180773
0.00180773
0.00180772
0.00180772
0.00180772
0.00180772
0.00180772
0.00180772
0.00180772
0.00180772
0.00180772
0.00180772
0.00180773
0.00180773
0.00180774
0.00180775
0.00180777
0.0018078
0.00180786
0.00180795
0.00180811
0.00180837
0.00180881
0.00180956
0.00181081
0.00181294
0.00181655
0.00182266
0.00183315
0.00185008
0.00188131
0.00347949
0.00324142
0.00303148
0.00284533
0.00267967
0.00253215
0.00240124
0.00228603
0.00218602
0.00210081
0.00202981
0.00197214
0.00192656
0.00189155
0.00186542
0.00184647
0.00183311
0.00182396
0.00181786
0.0018139
0.0018114
0.00180986
0.00180894
0.0018084
0.00180809
0.00180791
0.00180782
0.00180777
0.00180775
0.00180773
0.00180773
0.00180772
0.00180772
0.00180772
0.00180772
0.00180772
0.00180772
0.00180772
0.00180772
0.00180772
0.00180772
0.00180773
0.00180773
0.00180774
0.00180775
0.00180777
0.0018078
0.00180786
0.00180795
0.00180811
0.00180837
0.00180881
0.00180955
0.00181079
0.00181288
0.0018164
0.00182228
0.00183217
0.00184778
0.00187512
0.00347949
0.00324141
0.00303145
0.00284528
0.0026796
0.00253207
0.00240114
0.00228592
0.00218592
0.0021007
0.00202971
0.00197206
0.0019265
0.0018915
0.00186538
0.00184644
0.0018331
0.00182395
0.00181785
0.0018139
0.0018114
0.00180986
0.00180894
0.00180839
0.00180809
0.00180791
0.00180782
0.00180777
0.00180775
0.00180773
0.00180773
0.00180772
0.00180772
0.00180772
0.00180772
0.00180772
0.00180772
0.00180772
0.00180772
0.00180772
0.00180772
0.00180773
0.00180773
0.00180774
0.00180775
0.00180777
0.0018078
0.00180786
0.00180795
0.00180811
0.00180837
0.00180881
0.00180954
0.00181077
0.00181283
0.00181625
0.00182191
0.00183125
0.00184569
0.00186974
0.00347949
0.0032414
0.00303143
0.00284524
0.00267955
0.00253199
0.00240105
0.00228583
0.00218582
0.00210061
0.00202963
0.00197199
0.00192644
0.00189146
0.00186535
0.00184642
0.00183308
0.00182394
0.00181785
0.00181389
0.0018114
0.00180986
0.00180893
0.00180839
0.00180809
0.00180791
0.00180782
0.00180777
0.00180775
0.00180773
0.00180773
0.00180772
0.00180772
0.00180772
0.00180772
0.00180772
0.00180772
0.00180772
0.00180772
0.00180772
0.00180772
0.00180773
0.00180773
0.00180774
0.00180775
0.00180777
0.0018078
0.00180786
0.00180795
0.00180811
0.00180837
0.0018088
0.00180953
0.00181075
0.00181277
0.00181611
0.00182157
0.0018304
0.0018438
0.00186513
0.00347949
0.0032414
0.00303141
0.00284521
0.0026795
0.00253193
0.00240098
0.00228575
0.00218574
0.00210053
0.00202956
0.00197193
0.00192639
0.00189142
0.00186533
0.0018464
0.00183307
0.00182393
0.00181784
0.00181389
0.00181139
0.00180986
0.00180893
0.00180839
0.00180809
0.00180791
0.00180782
0.00180777
0.00180775
0.00180773
0.00180773
0.00180772
0.00180772
0.00180772
0.00180772
0.00180772
0.00180772
0.00180772
0.00180772
0.00180772
0.00180772
0.00180773
0.00180773
0.00180774
0.00180775
0.00180777
0.0018078
0.00180786
0.00180795
0.0018081
0.00180836
0.0018088
0.00180952
0.00181073
0.00181272
0.00181598
0.00182125
0.00182963
0.00184212
0.00186121
0.00347949
0.00324139
0.0030314
0.00284518
0.00267946
0.00253188
0.00240092
0.00228569
0.00218567
0.00210047
0.0020295
0.00197187
0.00192635
0.00189139
0.0018653
0.00184639
0.00183306
0.00182393
0.00181784
0.00181389
0.00181139
0.00180986
0.00180893
0.00180839
0.00180809
0.00180791
0.00180782
0.00180777
0.00180775
0.00180773
0.00180773
0.00180772
0.00180772
0.00180772
0.00180772
0.00180772
0.00180772
0.00180772
0.00180772
0.00180772
0.00180772
0.00180773
0.00180773
0.00180774
0.00180775
0.00180777
0.0018078
0.00180786
0.00180795
0.0018081
0.00180836
0.0018088
0.00180952
0.00181071
0.00181267
0.00181586
0.00182096
0.00182893
0.00184062
0.00185786
0.00347948
0.00324139
0.00303139
0.00284516
0.00267943
0.00253184
0.00240087
0.00228563
0.00218561
0.00210041
0.00202945
0.00197183
0.00192631
0.00189136
0.00186528
0.00184637
0.00183305
0.00182392
0.00181784
0.00181389
0.00181139
0.00180986
0.00180893
0.00180839
0.00180809
0.00180791
0.00180782
0.00180777
0.00180775
0.00180773
0.00180773
0.00180772
0.00180772
0.00180772
0.00180772
0.00180772
0.00180772
0.00180772
0.00180772
0.00180772
0.00180772
0.00180773
0.00180773
0.00180774
0.00180775
0.00180777
0.0018078
0.00180786
0.00180795
0.0018081
0.00180836
0.00180879
0.00180951
0.00181069
0.00181262
0.00181575
0.00182069
0.00182831
0.0018393
0.00185501
0.00347948
0.00324139
0.00303138
0.00284514
0.0026794
0.0025318
0.00240082
0.00228558
0.00218556
0.00210036
0.0020294
0.00197179
0.00192628
0.00189133
0.00186526
0.00184636
0.00183304
0.00182392
0.00181783
0.00181388
0.00181139
0.00180985
0.00180893
0.00180839
0.00180809
0.00180791
0.00180782
0.00180777
0.00180775
0.00180773
0.00180773
0.00180772
0.00180772
0.00180772
0.00180772
0.00180772
0.00180772
0.00180772
0.00180772
0.00180772
0.00180772
0.00180773
0.00180773
0.00180774
0.00180775
0.00180777
0.0018078
0.00180786
0.00180795
0.0018081
0.00180836
0.00180879
0.0018095
0.00181067
0.00181258
0.00181564
0.00182044
0.00182775
0.00183814
0.00185259
0.00347948
0.00324138
0.00303137
0.00284513
0.00267937
0.00253177
0.00240078
0.00228554
0.00218552
0.00210032
0.00202936
0.00197176
0.00192625
0.00189131
0.00186525
0.00184635
0.00183303
0.00182391
0.00181783
0.00181388
0.00181139
0.00180985
0.00180893
0.00180839
0.00180809
0.00180791
0.00180782
0.00180777
0.00180775
0.00180773
0.00180773
0.00180772
0.00180772
0.00180772
0.00180772
0.00180772
0.00180772
0.00180772
0.00180772
0.00180772
0.00180772
0.00180773
0.00180773
0.00180774
0.00180775
0.00180777
0.0018078
0.00180786
0.00180795
0.0018081
0.00180836
0.00180879
0.00180949
0.00181065
0.00181254
0.00181555
0.00182022
0.00182726
0.00183713
0.00185052
0.00347948
0.00324138
0.00303136
0.00284511
0.00267935
0.00253174
0.00240075
0.0022855
0.00218548
0.00210028
0.00202933
0.00197173
0.00192623
0.00189129
0.00186523
0.00184634
0.00183303
0.00182391
0.00181783
0.00181388
0.00181139
0.00180985
0.00180893
0.00180839
0.00180809
0.00180791
0.00180782
0.00180777
0.00180775
0.00180773
0.00180773
0.00180772
0.00180772
0.00180772
0.00180772
0.00180772
0.00180772
0.00180772
0.00180772
0.00180772
0.00180772
0.00180773
0.00180773
0.00180774
0.00180775
0.00180777
0.0018078
0.00180786
0.00180795
0.0018081
0.00180836
0.00180878
0.00180949
0.00181064
0.0018125
0.00181546
0.00182003
0.00182683
0.00183626
0.00184878
0.00347948
0.00324138
0.00303136
0.0028451
0.00267934
0.00253172
0.00240073
0.00228547
0.00218545
0.00210025
0.0020293
0.0019717
0.00192621
0.00189128
0.00186522
0.00184633
0.00183302
0.0018239
0.00181782
0.00181388
0.00181139
0.00180985
0.00180893
0.00180839
0.00180809
0.00180791
0.00180782
0.00180777
0.00180775
0.00180773
0.00180773
0.00180772
0.00180772
0.00180772
0.00180772
0.00180772
0.00180772
0.00180772
0.00180772
0.00180772
0.00180772
0.00180773
0.00180773
0.00180774
0.00180775
0.00180777
0.0018078
0.00180786
0.00180795
0.0018081
0.00180836
0.00180878
0.00180948
0.00181063
0.00181247
0.00181539
0.00181986
0.00182646
0.00183552
0.00184731
0.00347948
0.00324138
0.00303135
0.00284509
0.00267932
0.0025317
0.0024007
0.00228545
0.00218543
0.00210023
0.00202928
0.00197168
0.00192619
0.00189127
0.00186521
0.00184633
0.00183302
0.0018239
0.00181782
0.00181388
0.00181139
0.00180985
0.00180893
0.00180839
0.00180809
0.00180791
0.00180782
0.00180777
0.00180775
0.00180773
0.00180773
0.00180772
0.00180772
0.00180772
0.00180772
0.00180772
0.00180772
0.00180772
0.00180772
0.00180772
0.00180772
0.00180773
0.00180773
0.00180774
0.00180775
0.00180777
0.0018078
0.00180786
0.00180795
0.0018081
0.00180836
0.00180878
0.00180948
0.00181061
0.00181244
0.00181533
0.00181972
0.00182615
0.00183489
0.0018461
0.00347948
0.00324138
0.00303135
0.00284509
0.00267931
0.00253169
0.00240069
0.00228543
0.00218541
0.00210021
0.00202926
0.00197167
0.00192618
0.00189126
0.00186521
0.00184632
0.00183302
0.0018239
0.00181782
0.00181388
0.00181139
0.00180985
0.00180893
0.00180839
0.00180809
0.00180791
0.00180782
0.00180777
0.00180775
0.00180773
0.00180773
0.00180772
0.00180772
0.00180772
0.00180772
0.00180772
0.00180772
0.00180772
0.00180772
0.00180772
0.00180772
0.00180773
0.00180773
0.00180774
0.00180775
0.00180777
0.0018078
0.00180786
0.00180795
0.0018081
0.00180836
0.00180878
0.00180947
0.00181061
0.00181242
0.00181528
0.00181961
0.0018259
0.00183438
0.00184511
0.00347948
0.00324138
0.00303135
0.00284508
0.0026793
0.00253168
0.00240068
0.00228541
0.00218539
0.00210019
0.00202925
0.00197166
0.00192617
0.00189125
0.0018652
0.00184632
0.00183301
0.0018239
0.00181782
0.00181388
0.00181139
0.00180985
0.00180893
0.00180839
0.00180809
0.00180791
0.00180782
0.00180777
0.00180775
0.00180773
0.00180773
0.00180772
0.00180772
0.00180772
0.00180772
0.00180772
0.00180772
0.00180772
0.00180772
0.00180772
0.00180772
0.00180773
0.00180773
0.00180774
0.00180775
0.00180777
0.0018078
0.00180786
0.00180795
0.0018081
0.00180835
0.00180878
0.00180947
0.0018106
0.00181241
0.00181524
0.00181952
0.0018257
0.00183398
0.00184433
0.00347948
0.00324138
0.00303135
0.00284508
0.0026793
0.00253167
0.00240067
0.00228541
0.00218538
0.00210018
0.00202924
0.00197165
0.00192616
0.00189124
0.0018652
0.00184631
0.00183301
0.0018239
0.00181782
0.00181388
0.00181139
0.00180985
0.00180893
0.00180839
0.00180809
0.00180791
0.00180782
0.00180777
0.00180775
0.00180773
0.00180773
0.00180772
0.00180772
0.00180772
0.00180772
0.00180772
0.00180772
0.00180772
0.00180772
0.00180772
0.00180772
0.00180773
0.00180773
0.00180774
0.00180775
0.00180777
0.0018078
0.00180786
0.00180795
0.0018081
0.00180835
0.00180878
0.00180947
0.00181059
0.00181239
0.00181521
0.00181945
0.00182556
0.00183369
0.00184375
0.00347948
0.00324138
0.00303135
0.00284508
0.0026793
0.00253167
0.00240066
0.0022854
0.00218538
0.00210018
0.00202923
0.00197165
0.00192616
0.00189124
0.00186519
0.00184631
0.00183301
0.0018239
0.00181782
0.00181388
0.00181139
0.00180985
0.00180893
0.00180839
0.00180809
0.00180791
0.00180782
0.00180777
0.00180775
0.00180773
0.00180773
0.00180772
0.00180772
0.00180772
0.00180772
0.00180772
0.00180772
0.00180772
0.00180772
0.00180772
0.00180772
0.00180773
0.00180773
0.00180774
0.00180775
0.00180777
0.0018078
0.00180786
0.00180795
0.0018081
0.00180835
0.00180877
0.00180947
0.00181059
0.00181239
0.00181519
0.00181941
0.00182547
0.0018335
0.00184336
0.00347948
0.00324138
0.00303135
0.00284508
0.0026793
0.00253167
0.00240066
0.0022854
0.00218538
0.00210018
0.00202923
0.00197164
0.00192616
0.00189124
0.00186519
0.00184631
0.00183301
0.0018239
0.00181782
0.00181388
0.00181139
0.00180985
0.00180893
0.00180839
0.00180809
0.00180791
0.00180782
0.00180777
0.00180775
0.00180773
0.00180773
0.00180772
0.00180772
0.00180772
0.00180772
0.00180772
0.00180772
0.00180772
0.00180772
0.00180772
0.00180772
0.00180773
0.00180773
0.00180774
0.00180775
0.00180777
0.0018078
0.00180786
0.00180795
0.0018081
0.00180835
0.00180877
0.00180947
0.00181059
0.00181238
0.00181519
0.0018194
0.00182543
0.00183341
0.00184315
0.00347948
0.00324138
0.00303135
0.00284508
0.0026793
0.00253167
0.00240067
0.00228541
0.00218538
0.00210018
0.00202924
0.00197165
0.00192616
0.00189124
0.00186519
0.00184631
0.00183301
0.00182389
0.00181782
0.00181388
0.00181139
0.00180985
0.00180893
0.00180839
0.00180809
0.00180791
0.00180782
0.00180777
0.00180775
0.00180773
0.00180773
0.00180772
0.00180772
0.00180772
0.00180772
0.00180772
0.00180772
0.00180772
0.00180772
0.00180772
0.00180772
0.00180773
0.00180773
0.00180774
0.00180775
0.00180777
0.0018078
0.00180786
0.00180795
0.0018081
0.00180835
0.00180877
0.00180947
0.00181059
0.00181239
0.00181519
0.00181941
0.00182545
0.00183343
0.00184312
0.00347948
0.00324138
0.00303135
0.00284508
0.0026793
0.00253168
0.00240068
0.00228541
0.00218539
0.00210019
0.00202925
0.00197165
0.00192617
0.00189125
0.0018652
0.00184631
0.00183301
0.0018239
0.00181782
0.00181388
0.00181139
0.00180985
0.00180893
0.00180839
0.00180809
0.00180791
0.00180782
0.00180777
0.00180775
0.00180773
0.00180773
0.00180772
0.00180772
0.00180772
0.00180772
0.00180772
0.00180772
0.00180772
0.00180772
0.00180772
0.00180772
0.00180773
0.00180773
0.00180774
0.00180775
0.00180777
0.0018078
0.00180786
0.00180795
0.0018081
0.00180835
0.00180877
0.00180947
0.00181059
0.0018124
0.00181521
0.00181945
0.00182553
0.00183354
0.00184328
0.00347948
0.00324138
0.00303135
0.00284509
0.00267931
0.00253169
0.00240069
0.00228543
0.0021854
0.00210021
0.00202926
0.00197167
0.00192618
0.00189125
0.0018652
0.00184632
0.00183301
0.0018239
0.00181782
0.00181388
0.00181139
0.00180985
0.00180893
0.00180839
0.00180809
0.00180791
0.00180782
0.00180777
0.00180775
0.00180773
0.00180773
0.00180772
0.00180772
0.00180772
0.00180772
0.00180772
0.00180772
0.00180772
0.00180772
0.00180772
0.00180772
0.00180773
0.00180773
0.00180774
0.00180775
0.00180777
0.0018078
0.00180786
0.00180795
0.0018081
0.00180835
0.00180878
0.00180947
0.0018106
0.00181241
0.00181524
0.00181952
0.00182565
0.00183376
0.00184363
0.00347948
0.00324138
0.00303135
0.00284509
0.00267932
0.0025317
0.0024007
0.00228545
0.00218542
0.00210023
0.00202928
0.00197168
0.00192619
0.00189126
0.00186521
0.00184632
0.00183301
0.0018239
0.00181782
0.00181388
0.00181139
0.00180985
0.00180893
0.00180839
0.00180809
0.00180791
0.00180782
0.00180777
0.00180775
0.00180773
0.00180773
0.00180772
0.00180772
0.00180772
0.00180772
0.00180772
0.00180772
0.00180772
0.00180772
0.00180772
0.00180772
0.00180773
0.00180773
0.00180774
0.00180775
0.00180777
0.0018078
0.00180786
0.00180795
0.0018081
0.00180835
0.00180878
0.00180947
0.00181061
0.00181243
0.00181529
0.00181961
0.00182584
0.00183409
0.00184417
0.00347948
0.00324138
0.00303136
0.0028451
0.00267934
0.00253172
0.00240073
0.00228547
0.00218545
0.00210025
0.0020293
0.0019717
0.0019262
0.00189127
0.00186522
0.00184633
0.00183302
0.0018239
0.00181782
0.00181388
0.00181139
0.00180985
0.00180893
0.00180839
0.00180809
0.00180791
0.00180782
0.00180777
0.00180775
0.00180773
0.00180773
0.00180772
0.00180772
0.00180772
0.00180772
0.00180772
0.00180772
0.00180772
0.00180772
0.00180772
0.00180772
0.00180773
0.00180773
0.00180774
0.00180775
0.00180777
0.0018078
0.00180786
0.00180795
0.0018081
0.00180835
0.00180878
0.00180948
0.00181062
0.00181245
0.00181534
0.00181973
0.00182609
0.00183454
0.00184493
0.00347948
0.00324138
0.00303136
0.00284511
0.00267935
0.00253174
0.00240075
0.0022855
0.00218548
0.00210028
0.00202932
0.00197172
0.00192622
0.00189129
0.00186523
0.00184633
0.00183302
0.0018239
0.00181782
0.00181388
0.00181139
0.00180985
0.00180893
0.00180839
0.00180809
0.00180791
0.00180782
0.00180777
0.00180775
0.00180773
0.00180773
0.00180772
0.00180772
0.00180772
0.00180772
0.00180772
0.00180772
0.00180772
0.00180772
0.00180772
0.00180772
0.00180773
0.00180773
0.00180774
0.00180775
0.00180777
0.0018078
0.00180786
0.00180795
0.0018081
0.00180836
0.00180878
0.00180948
0.00181063
0.00181248
0.00181541
0.00181988
0.0018264
0.00183511
0.00184592
0.00347948
0.00324138
0.00303137
0.00284513
0.00267937
0.00253177
0.00240078
0.00228554
0.00218552
0.00210031
0.00202936
0.00197175
0.00192625
0.00189131
0.00186524
0.00184634
0.00183303
0.00182391
0.00181782
0.00181388
0.00181139
0.00180985
0.00180893
0.00180839
0.00180809
0.00180791
0.00180782
0.00180777
0.00180775
0.00180773
0.00180773
0.00180772
0.00180772
0.00180772
0.00180772
0.00180772
0.00180772
0.00180772
0.00180772
0.00180772
0.00180772
0.00180773
0.00180773
0.00180774
0.00180775
0.00180777
0.0018078
0.00180786
0.00180795
0.0018081
0.00180836
0.00180878
0.00180948
0.00181064
0.00181251
0.00181548
0.00182005
0.00182678
0.0018358
0.00184717
0.00347948
0.00324139
0.00303138
0.00284514
0.0026794
0.0025318
0.00240082
0.00228558
0.00218556
0.00210036
0.0020294
0.00197178
0.00192627
0.00189133
0.00186525
0.00184635
0.00183303
0.00182391
0.00181783
0.00181388
0.00181139
0.00180985
0.00180893
0.00180839
0.00180809
0.00180791
0.00180782
0.00180777
0.00180775
0.00180773
0.00180773
0.00180772
0.00180772
0.00180772
0.00180772
0.00180772
0.00180772
0.00180772
0.00180772
0.00180772
0.00180772
0.00180773
0.00180773
0.00180774
0.00180775
0.00180777
0.0018078
0.00180786
0.00180795
0.0018081
0.00180836
0.00180878
0.00180949
0.00181065
0.00181255
0.00181557
0.00182025
0.00182722
0.00183664
0.00184873
0.00347948
0.00324139
0.00303139
0.00284516
0.00267943
0.00253184
0.00240087
0.00228563
0.00218561
0.00210041
0.00202944
0.00197182
0.0019263
0.00189135
0.00186527
0.00184636
0.00183304
0.00182391
0.00181783
0.00181388
0.00181139
0.00180985
0.00180893
0.00180839
0.00180809
0.00180791
0.00180782
0.00180777
0.00180775
0.00180773
0.00180773
0.00180772
0.00180772
0.00180772
0.00180772
0.00180772
0.00180772
0.00180772
0.00180772
0.00180772
0.00180772
0.00180773
0.00180773
0.00180774
0.00180775
0.00180777
0.0018078
0.00180786
0.00180795
0.0018081
0.00180836
0.00180879
0.0018095
0.00181067
0.00181259
0.00181568
0.00182049
0.00182775
0.00183763
0.00185063
0.00347949
0.00324139
0.0030314
0.00284518
0.00267946
0.00253188
0.00240092
0.00228569
0.00218567
0.00210046
0.00202949
0.00197187
0.00192634
0.00189138
0.00186529
0.00184638
0.00183305
0.00182392
0.00181783
0.00181388
0.00181139
0.00180985
0.00180893
0.00180839
0.00180809
0.00180791
0.00180782
0.00180777
0.00180775
0.00180773
0.00180773
0.00180772
0.00180772
0.00180772
0.00180772
0.00180772
0.00180772
0.00180772
0.00180772
0.00180772
0.00180772
0.00180773
0.00180773
0.00180774
0.00180775
0.00180777
0.0018078
0.00180786
0.00180795
0.0018081
0.00180836
0.00180879
0.0018095
0.00181069
0.00181263
0.00181579
0.00182075
0.00182835
0.00183879
0.00185293
0.00347949
0.0032414
0.00303141
0.00284521
0.0026795
0.00253193
0.00240098
0.00228575
0.00218574
0.00210053
0.00202955
0.00197192
0.00192638
0.00189141
0.00186531
0.00184639
0.00183306
0.00182393
0.00181784
0.00181389
0.00181139
0.00180985
0.00180893
0.00180839
0.00180809
0.00180791
0.00180782
0.00180777
0.00180775
0.00180773
0.00180773
0.00180772
0.00180772
0.00180772
0.00180772
0.00180772
0.00180772
0.00180772
0.00180772
0.00180772
0.00180772
0.00180773
0.00180773
0.00180774
0.00180775
0.00180777
0.0018078
0.00180786
0.00180795
0.0018081
0.00180836
0.00180879
0.00180951
0.00181071
0.00181268
0.00181591
0.00182104
0.00182904
0.00184014
0.00185574
0.00347949
0.0032414
0.00303143
0.00284524
0.00267955
0.00253199
0.00240105
0.00228583
0.00218582
0.00210061
0.00202962
0.00197198
0.00192643
0.00189145
0.00186534
0.00184641
0.00183307
0.00182393
0.00181784
0.00181389
0.00181139
0.00180986
0.00180893
0.00180839
0.00180809
0.00180791
0.00180782
0.00180777
0.00180775
0.00180773
0.00180773
0.00180772
0.00180772
0.00180772
0.00180772
0.00180772
0.00180772
0.00180772
0.00180772
0.00180772
0.00180772
0.00180773
0.00180773
0.00180774
0.00180775
0.00180777
0.0018078
0.00180786
0.00180795
0.0018081
0.00180836
0.00180879
0.00180952
0.00181073
0.00181273
0.00181604
0.00182137
0.00182983
0.00184169
0.00185915
0.00347949
0.00324141
0.00303145
0.00284528
0.0026796
0.00253207
0.00240114
0.00228592
0.00218591
0.0021007
0.00202971
0.00197205
0.00192649
0.00189149
0.00186537
0.00184643
0.00183309
0.00182394
0.00181785
0.00181389
0.00181139
0.00180986
0.00180893
0.00180839
0.00180809
0.00180791
0.00180782
0.00180777
0.00180775
0.00180773
0.00180773
0.00180772
0.00180772
0.00180772
0.00180772
0.00180772
0.00180772
0.00180772
0.00180772
0.00180772
0.00180772
0.00180773
0.00180773
0.00180774
0.00180775
0.00180777
0.0018078
0.00180786
0.00180795
0.0018081
0.00180836
0.0018088
0.00180953
0.00181075
0.00181278
0.00181619
0.00182172
0.00183073
0.00184347
0.00186333
0.00347949
0.00324142
0.00303148
0.00284533
0.00267967
0.00253215
0.00240124
0.00228603
0.00218602
0.0021008
0.0020298
0.00197213
0.00192655
0.00189154
0.00186541
0.00184646
0.0018331
0.00182395
0.00181785
0.0018139
0.0018114
0.00180986
0.00180893
0.00180839
0.00180809
0.00180791
0.00180782
0.00180777
0.00180775
0.00180773
0.00180773
0.00180772
0.00180772
0.00180772
0.00180772
0.00180772
0.00180772
0.00180772
0.00180772
0.00180772
0.00180772
0.00180773
0.00180773
0.00180774
0.00180775
0.00180777
0.0018078
0.00180786
0.00180795
0.0018081
0.00180836
0.0018088
0.00180953
0.00181077
0.00181284
0.00181634
0.0018221
0.00183173
0.00184553
0.00186848
0.00347949
0.00324143
0.00303151
0.00284539
0.00267975
0.00253225
0.00240135
0.00228615
0.00218615
0.00210092
0.00202991
0.00197222
0.00192663
0.0018916
0.00186545
0.00184648
0.00183312
0.00182396
0.00181786
0.0018139
0.0018114
0.00180986
0.00180893
0.00180839
0.00180809
0.00180791
0.00180782
0.00180777
0.00180775
0.00180773
0.00180773
0.00180772
0.00180772
0.00180772
0.00180772
0.00180772
0.00180772
0.00180772
0.00180772
0.00180772
0.00180772
0.00180773
0.00180773
0.00180774
0.00180775
0.00180777
0.0018078
0.00180786
0.00180795
0.0018081
0.00180836
0.0018088
0.00180954
0.00181079
0.00181289
0.00181649
0.00182251
0.00183286
0.00184788
0.00187492
0.00347949
0.00324144
0.00303155
0.00284545
0.00267984
0.00253237
0.00240149
0.0022863
0.0021863
0.00210106
0.00203003
0.00197233
0.00192671
0.00189166
0.00186549
0.00184652
0.00183314
0.00182397
0.00181787
0.0018139
0.0018114
0.00180986
0.00180894
0.00180839
0.00180809
0.00180791
0.00180782
0.00180777
0.00180775
0.00180773
0.00180773
0.00180772
0.00180772
0.00180772
0.00180772
0.00180772
0.00180772
0.00180772
0.00180772
0.00180772
0.00180772
0.00180773
0.00180773
0.00180774
0.00180775
0.00180777
0.0018078
0.00180786
0.00180795
0.0018081
0.00180837
0.00180881
0.00180955
0.00181081
0.00181295
0.00181665
0.00182295
0.00183412
0.00185061
0.00188309
0.00347949
0.00324146
0.0030316
0.00284554
0.00267996
0.00253251
0.00240165
0.00228648
0.00218647
0.00210123
0.00203018
0.00197245
0.00192681
0.00189173
0.00186554
0.00184655
0.00183316
0.00182399
0.00181787
0.00181391
0.0018114
0.00180986
0.00180893
0.00180839
0.00180808
0.00180791
0.00180782
0.00180777
0.00180774
0.00180773
0.00180772
0.00180772
0.00180772
0.00180772
0.00180772
0.00180772
0.00180772
0.00180772
0.00180772
0.00180772
0.00180772
0.00180772
0.00180773
0.00180774
0.00180775
0.00180777
0.0018078
0.00180785
0.00180795
0.0018081
0.00180836
0.00180881
0.00180955
0.00181082
0.001813
0.0018168
0.00182341
0.00183549
0.00185378
0.00189367
0.00347949
0.00324149
0.00303167
0.00284565
0.0026801
0.00253269
0.00240186
0.0022867
0.00218669
0.00210143
0.00203036
0.00197259
0.00192692
0.0018918
0.00186559
0.00184657
0.00183317
0.00182399
0.00181787
0.0018139
0.00181139
0.00180985
0.00180892
0.00180838
0.00180807
0.0018079
0.00180781
0.00180776
0.00180773
0.00180772
0.00180771
0.00180771
0.00180771
0.00180771
0.00180771
0.00180771
0.00180771
0.00180771
0.00180771
0.00180771
0.00180771
0.00180771
0.00180772
0.00180772
0.00180774
0.00180775
0.00180779
0.00180784
0.00180793
0.00180809
0.00180835
0.00180879
0.00180954
0.00181082
0.00181304
0.00181693
0.00182387
0.00183697
0.00185751
0.00190768
0.0034795
0.00324153
0.00303177
0.0028458
0.00268033
0.00253298
0.00240219
0.00228705
0.00218704
0.00210174
0.00203061
0.00197277
0.00192702
0.00189185
0.00186559
0.00184655
0.00183314
0.00182395
0.00181783
0.00181387
0.00181136
0.00180982
0.0018089
0.00180836
0.00180805
0.00180788
0.00180778
0.00180773
0.00180771
0.00180769
0.00180769
0.00180768
0.00180768
0.00180768