/*--------------------------------*- C++ -*----------------------------------*\
| =========                 |                                                 |
| \\      /  F ield         | OpenFOAM: The Open Source CFD Toolbox           |
|  \\    /   O peration     | Version:  2.4.0                                 |
|   \\  /    A nd           | Web:      www.OpenFOAM.org                      |
|    \\/     M anipulation  |                                                 |
\*---------------------------------------------------------------------------*/
FoamFile
{
    version     2.0;
    format      ascii;
    class       volScalarField;
    location    "0.03";
    object      p;
}
// * * * * * * * * * * * * * * * * * * * * * * * * * * * * * * * * * * * * * //

dimensions      [0 2 -2 0 0 0 0];

internalField   nonuniform List<scalar> 
13200
(
0.0523242
0.0537853
0.0547153
0.0547429
0.0544926
0.054204
0.0538268
0.05337
0.0528858
0.0523868
-0.0275931
-0.0284857
-0.0289444
-0.0288295
-0.028494
-0.0280695
-0.0275505
-0.0269638
-0.0263412
-0.0257198
0.0269747
0.0275627
0.027797
0.0274761
0.0269161
0.0262442
0.0254562
0.0245827
0.0236507
0.0227128
-0.00792338
-0.00822674
-0.00830423
-0.00809386
-0.0077196
-0.00723311
-0.0066488
-0.00598964
-0.00526453
-0.00451853
0.0110016
0.010986
0.0108176
0.010471
0.010067
0.00961633
0.00910493
0.00854636
0.00795051
0.00734365
0.00265168
0.00272769
0.00274497
0.00268014
0.00260176
0.00254663
0.00251282
0.00250182
0.00252042
0.00255974
0.00420728
0.00416216
0.00407508
0.00392812
0.00379053
0.00366787
0.00354133
0.00341166
0.00328393
0.00315883
0.00418507
0.00414422
0.00402967
0.00382113
0.00361166
0.00342065
0.00323187
0.00304956
0.00288245
0.00273159
0.00439346
0.00435288
0.00420201
0.00392782
0.00364872
0.00339158
0.00313861
0.00289546
0.00267181
0.00246945
0.00479255
0.00473386
0.00452725
0.00416526
0.00379382
0.00344759
0.00310766
0.00278245
0.00248385
0.00221554
0.00540246
0.00531529
0.00503378
0.00455925
0.00406916
0.00360745
0.0031547
0.00272299
0.00232673
0.00197207
0.00625039
0.00612441
0.0057464
0.00513092
0.00449121
0.00388216
0.00328499
0.0027167
0.00219487
0.00172896
0.00736587
0.00718978
0.0066914
0.00590366
0.00507927
0.0042859
0.00350706
0.00276631
0.00208527
0.00147775
0.00877815
0.00853979
0.00789578
0.00690278
0.00585553
0.0048362
0.00383283
0.00287759
0.00199732
0.00121154
0.0105139
0.0102009
0.00938619
0.00815515
0.00684538
0.00555486
0.00427895
0.00306094
0.00193454
0.000926633
0.0125947
0.0121957
0.0111876
0.00968874
0.00807768
0.00646895
0.00486841
0.00333343
0.00190674
0.000624673
0.0150346
0.0145404
0.0133217
0.0115318
0.0095849
0.00761183
0.00563232
0.00372109
0.00193265
0.000315383
0.0178379
0.0172434
0.0158053
0.0137117
0.0114028
0.00902389
0.00661165
0.0042615
0.00204307
1.98778e-05
0.0209971
0.0203028
0.0186489
0.0162538
0.0135699
0.0107528
0.00785865
0.00500623
0.00228416
-0.000225497
0.0244914
0.0237051
0.0218542
0.0191792
0.0161254
0.012853
0.00943746
0.00602294
0.00272081
-0.000364959
0.0282871
0.0274244
0.0254131
0.0225025
0.0191075
0.0153835
0.0114236
0.00739643
0.00343944
-0.000319008
0.0323377
0.0314225
0.0293061
0.0262293
0.0225493
0.0184053
0.013902
0.00922835
0.00454988
1.94656e-05
0.0365863
0.03565
0.033502
0.0303535
0.0264751
0.0219761
0.0169624
0.0116347
0.00618534
0.000787934
0.0409673
0.0400478
0.0379576
0.0348547
0.0308955
0.0261446
0.0206937
0.0147409
0.00850003
0.00215524
0.04541
0.0445496
0.0426187
0.0396971
0.0358034
0.0309435
0.0251751
0.0186727
0.0116616
0.00431795
0.0498423
0.0490847
0.0474218
0.0448291
0.0411713
0.036385
0.0304697
0.0235487
0.0158398
0.00748479
0.054195
0.0535823
0.0522952
0.0501801
0.046945
0.0424512
0.0366163
0.0294807
0.0212227
0.0119014
0.0584031
0.0579779
0.0571704
0.0556669
0.053038
0.0490735
0.0435906
0.0365219
0.0279836
0.0179058
0.0624054
0.0622016
0.0619897
0.0612273
0.0593728
0.0561539
0.0512682
0.0444973
0.0358724
0.0251214
0.066162
0.0661471
0.0666217
0.0667473
0.065867
0.0636377
0.0596067
0.053351
0.0447089
0.0327463
0.0518975
0.0520713
0.0525699
0.0528643
0.052858
0.0526827
0.0524014
0.0519794
0.0513714
0.0505394
0.049425
0.0484697
0.0477113
0.0470147
0.0463105
0.0456026
0.0449012
0.0442003
0.0434943
0.0427546
-0.0250851
-0.0255564
-0.0263413
-0.0267918
-0.0269267
-0.0269317
-0.0268434
-0.0266012
-0.0261392
-0.0253814
-0.0241907
-0.023254
-0.0228101
-0.0226321
-0.0225502
-0.0225568
-0.0226817
-0.0229259
-0.0232813
-0.0237163
0.0216832
0.0215248
0.0216186
0.0215505
0.0213766
0.021212
0.0210532
0.0208478
0.0205338
0.0200181
0.0190921
0.018234
0.0177635
0.0175348
0.0174151
0.0174097
0.0175612
0.0178923
0.0184144
0.0191227
-0.00361108
-0.00308291
-0.00273504
-0.00244648
-0.0022182
-0.00207203
-0.0020104
-0.00200919
-0.0020183
-0.0019588
-0.00161985
-0.00132217
-0.00121619
-0.00123049
-0.00133144
-0.001543
-0.00189442
-0.00240855
-0.00310761
-0.00400748
0.00661641
0.00607045
0.00562952
0.00525921
0.00497008
0.00475733
0.00459945
0.00448729
0.00441408
0.00435414
0.0042184
0.00407624
0.00397696
0.00391548
0.00389583
0.00393143
0.00403916
0.00424059
0.00456094
0.00502852
0.00268749
0.00283636
0.00292155
0.00293183
0.00291607
0.00289026
0.00283962
0.00276712
0.00268657
0.0026021
0.00252065
0.00244025
0.00235808
0.00227059
0.00217344
0.00206111
0.00192505
0.00175303
0.00152843
0.00123295
0.0030173
0.00292959
0.00284182
0.00273711
0.00264935
0.00258123
0.00250555
0.00242024
0.0023377
0.0022579
0.00217595
0.00209181
0.00200754
0.00192417
0.00184274
0.00176522
0.00169462
0.00163598
0.00159572
0.00158797
0.00259695
0.00253434
0.00245162
0.00233158
0.00222629
0.00214289
0.00204861
0.00194224
0.00184023
0.00174297
0.00164504
0.001547
0.00145071
0.00135632
0.00126369
0.00117303
0.00108416
0.000996779
0.000908286
0.000820895
0.00227885
0.00218537
0.0020726
0.0019176
0.00178361
0.00167866
0.00156185
0.00143186
0.00130906
0.00119354
0.0010783
0.000963887
0.000852482
0.000744072
0.000638377
0.000535675
0.000436142
0.0003405
0.000247646
0.000165691
0.00196177
0.00183507
0.00168614
0.00148678
0.00131481
0.00118006
0.0010327
0.00087133
0.000720748
0.000580712
0.000442502
0.000306748
0.000176003
5.00971e-05
-7.13966e-05
-0.000188193
-0.000300106
-0.000406304
-0.000508637
-0.000597064
0.00163491
0.00146421
0.00126941
0.00101496
0.000795268
0.000622457
0.0004366
0.000236252
5.12391e-05
-0.000119114
-0.0002855
-0.000447183
-0.000601197
-0.000747911
-0.000887945
-0.00102105
-0.00114706
-0.00126502
-0.00137751
-0.00147147
0.0012853
0.00105807
0.000805684
0.000483299
0.000204329
-1.62816e-05
-0.000249815
-0.000497746
-0.000724611
-0.000931654
-0.00113182
-0.00132424
-0.0015055
-0.00167623
-0.00183726
-0.0019884
-0.00212952
-0.00225952
-0.00238182
-0.00247992
0.000899637
0.000600486
0.000276388
-0.000129069
-0.000480845
-0.000760626
-0.00105244
-0.00135774
-0.00163474
-0.00188542
-0.00212531
-0.00235338
-0.0025657
-0.00276324
-0.00294708
-0.0031171
-0.00327315
-0.00341397
-0.00354393
-0.00364256
0.000465417
7.5174e-05
-0.00033799
-0.000844514
-0.00128499
-0.00163729
-0.00199973
-0.00237359
-0.00270998
-0.00301187
-0.00329773
-0.0035663
-0.00381314
-0.00403957
-0.00424697
-0.00443525
-0.00460421
-0.00475236
-0.00488513
-0.00497754
-2.75977e-05
-0.000533222
-0.00105722
-0.00168647
-0.00223449
-0.00267514
-0.00312274
-0.00357809
-0.00398432
-0.00434569
-0.00468404
-0.00499783
-0.00528197
-0.00553828
-0.0057684
-0.00597226
-0.00614951
-0.00629836
-0.00642533
-0.00650053
-0.000585434
-0.0012378
-0.00190054
-0.0026789
-0.00335704
-0.00390509
-0.00445522
-0.00500722
-0.0054952
-0.00592516
-0.0063228
-0.00668619
-0.0070095
-0.00729508
-0.00754486
-0.0077587
-0.00793598
-0.00807451
-0.00818187
-0.008223
-0.00120731
-0.00204759
-0.00288544
-0.0038455
-0.00468113
-0.00535987
-0.00603369
-0.0067004
-0.00728393
-0.00779263
-0.00825669
-0.00867354
-0.00903651
-0.00934855
-0.00961182
-0.00982604
-0.00999011
-0.0101013
-0.0101682
-0.0101505
-0.00188236
-0.0029652
-0.00402625
-0.00520872
-0.00623541
-0.00707379
-0.00789748
-0.00870074
-0.00939607
-0.00999506
-0.010533
-0.0110065
-0.0114077
-0.0117404
-0.0120068
-0.0122063
-0.0123372
-0.012396
-0.012392
-0.0122804
-0.00258559
-0.00398398
-0.0053323
-0.00678841
-0.00804782
-0.00908235
-0.0100888
-0.0110555
-0.0118821
-0.0125847
-0.0132046
-0.0137368
-0.0141724
-0.0145158
-0.0147691
-0.0149316
-0.0150003
-0.0149711
-0.0148531
-0.014599
-0.00327319
-0.00508455
-0.00680559
-0.00860021
-0.0101445
-0.0114218
-0.0126529
-0.0138165
-0.0147981
-0.0156202
-0.0163305
-0.0169223
-0.0173849
-0.0177234
-0.0179399
-0.0180331
-0.0179984
-0.0178315
-0.0175401
-0.0170776
-0.00387714
-0.00623077
-0.00843808
-0.0106535
-0.0125484
-0.0141287
-0.0156381
-0.0170406
-0.0182068
-0.0191674
-0.0199776
-0.020628
-0.0211055
-0.0214162
-0.0215618
-0.0215404
-0.0213458
-0.0209733
-0.0204283
-0.0196699
-0.0042995
-0.00736497
-0.0102081
-0.0129485
-0.0152776
-0.0172388
-0.0190958
-0.0207907
-0.0221784
-0.0233011
-0.0242218
-0.0249272
-0.0254014
-0.0256514
-0.0256786
-0.025481
-0.0250498
-0.0243812
-0.0234755
-0.0223069
-0.00440689
-0.00840277
-0.012076
-0.0154732
-0.0183431
-0.0207866
-0.0230807
-0.0251363
-0.0267929
-0.0281073
-0.0291502
-0.029903
-0.0303468
-0.0304896
-0.0303326
-0.0298738
-0.029102
-0.0280165
-0.0266098
-0.0248869
-0.00402605
-0.00922763
-0.0139785
-0.0181985
-0.0217461
-0.0248041
-0.0276502
-0.0301534
-0.0321396
-0.033683
-0.0348615
-0.0356494
-0.0360242
-0.0359955
-0.0355645
-0.0347314
-0.0334833
-0.0318265
-0.0297417
-0.0272848
-0.00294223
-0.00968475
-0.0158216
-0.0210728
-0.0254749
-0.029319
-0.0328665
-0.0359324
-0.0383294
-0.0401501
-0.0414774
-0.0422784
-0.0425287
-0.0422405
-0.0414169
-0.0400624
-0.0381638
-0.0357406
-0.0327562
-0.0293472
-0.000910971
-0.00957914
-0.0174668
-0.0240137
-0.0295054
-0.0343535
-0.0387808
-0.0425465
-0.0454562
-0.0476166
-0.0491129
-0.0499039
-0.0499599
-0.0492947
-0.0479159
-0.0458355
-0.0430471
-0.0395954
-0.0354375
-0.0308325
0.00232805
-0.00870371
-0.0187326
-0.0268774
-0.0337729
-0.0399397
-0.0455096
-0.0501734
-0.0537353
-0.0563138
-0.0579849
-0.058703
-0.0584472
-0.0572427
-0.0551081
-0.0520671
-0.0481317
-0.0433737
-0.0377451
-0.0315993
0.00713975
-0.00677659
-0.0194506
-0.0295785
-0.0381993
-0.0459799
-0.0529656
-0.0587635
-0.0631498
-0.0662345
-0.0681064
-0.0687288
-0.0680764
-0.0661764
-0.0630706
-0.0588121
-0.0534462
-0.0470528
-0.0395821
-0.0314028
0.0136064
-0.00312778
-0.0189522
-0.0318432
-0.0428447
-0.0526904
-0.0614431
-0.0687059
-0.0742013
-0.0779725
-0.0800621
-0.0804162
-0.0790291
-0.0759773
-0.0713512
-0.0652397
-0.0577417
-0.0489974
-0.0391202
-0.028663
0.0195947
0.00152708
-0.0168706
-0.033064
-0.0472712
-0.0598982
-0.0709349
-0.0800124
-0.0868325
-0.0913505
-0.0935882
-0.0935008
-0.0910833
-0.0864303
-0.0796859
-0.0710335
-0.0607112
-0.0490336
-0.0364238
-0.0236314
0.0419963
0.0409928
0.0400429
0.0391886
0.0383248
0.0374016
0.0364341
0.0354392
0.0344136
0.0333488
0.0322399
0.0310832
0.0298842
0.0287187
0.0276935
0.0260639
0.024898
0.0233824
0.0219308
0.0204344
0.0188963
0.0173181
0.0157007
0.0140474
0.0123542
0.0106076
0.00883741
0.00704903
0.00525095
0.003476
0.00186834
0.000305503
-0.00123436
-0.00275186
-0.00424597
-0.0057113
-0.00714036
-0.00852447
-0.00985413
-0.0111194
-0.0123101
-0.0134162
-0.0144282
-0.0153372
-0.0161351
-0.0168153
-0.0173723
-0.0178025
-0.0181039
-0.0182765
-0.0183222
-0.0182446
-0.0180496
-0.0177444
-0.0173378
-0.0168399
-0.0162618
-0.0156152
-0.014912
-0.0141645
-0.0133844
-0.0125831
-0.0117711
-0.0109582
-0.010153
-0.00936309
-0.00859503
-0.00785416
-0.00714479
-0.00647024
-0.00583292
-0.0052344
-0.00467556
-0.00415661
-0.00367724
-0.00323666
-0.00283372
-0.00246691
-0.00213449
-0.00183448
-0.00156473
-0.00132294
-0.00110667
-0.000913368
-0.000740346
-0.000584755
-0.00044349
-0.000312969
-0.000188653
-6.37998e-05
-0.0240621
-0.0234105
-0.0225545
-0.0219006
-0.0213645
-0.0207996
-0.0201851
-0.0195543
-0.0189159
-0.0182582
-0.0175728
-0.0168564
-0.0161178
-0.0154412
-0.0149434
-0.0137935
-0.0131568
-0.0121513
-0.0112277
-0.0102697
-0.00927921
-0.00825686
-0.00720176
-0.00604651
-0.00498888
-0.00384535
-0.00266253
-0.00145158
-0.000221458
0.000862964
0.00174168
0.00256785
0.00337123
0.00415998
0.00493798
0.00570358
0.00645265
0.0071797
0.00787841
0.008542
0.00916354
0.00973618
0.0102534
0.010709
0.0110977
0.0114148
0.0116568
0.0118213
0.0119069
0.0119138
0.0118433
0.0116981
0.0114821
0.0112006
0.0108595
0.0104657
0.0100269
0.00955095
0.00904591
0.00851982
0.00798047
0.00743518
0.00689071
0.00635313
0.00582774
0.00531905
0.00483077
0.00436584
0.00392645
0.00351412
0.00312977
0.00277376
0.00244602
0.00214607
0.00187312
0.00162612
0.0014038
0.00120476
0.00102746
0.000870308
0.000731641
0.000609777
0.000503017
0.00040966
0.000327997
0.000256297
0.000192756
0.000135369
8.16222e-05
2.77227e-05
0.0198067
0.0195187
0.0189956
0.0186276
0.0183514
0.018043
0.0176845
0.0173012
0.0168997
0.0164727
0.0160163
0.0155321
0.0150259
0.0145256
0.0136943
0.0130856
0.0124138
0.0117141
0.0109761
0.0102004
0.00936993
0.00850456
0.00760709
0.00660229
0.00570188
0.00474025
0.00374438
0.00275191
0.00183228
0.00105802
0.000315667
-0.000420206
-0.00115558
-0.00189413
-0.00263455
-0.00337311
-0.00410473
-0.00482345
-0.00552273
-0.00619576
-0.00683565
-0.00743564
-0.00798925
-0.00849044
-0.00893375
-0.00931448
-0.00962875
-0.00987368
-0.0100474
-0.0101494
-0.0101799
-0.0101408
-0.0100349
-0.00986596
-0.009639
-0.00935963
-0.00903419
-0.00866944
-0.00827238
-0.00785007
-0.00740943
-0.00695707
-0.00649917
-0.00604137
-0.00558868
-0.00514545
-0.00471536
-0.00430143
-0.00390605
-0.003531
-0.00317755
-0.00284647
-0.00253815
-0.00225257
-0.00198945
-0.00174824
-0.00152818
-0.00132835
-0.00114768
-0.000984999
-0.000839057
-0.000708523
-0.000592012
-0.000488083
-0.000395237
-0.0003119
-0.000236375
-0.000166726
-0.000100516
-3.40229e-05
-0.00492384
-0.0051686
-0.00524337
-0.00538184
-0.00553949
-0.00564946
-0.00570757
-0.00572407
-0.00569511
-0.00560982
-0.00548756
-0.00533955
-0.0051726
-0.00501664
-0.00461565
-0.00432397
-0.00398891
-0.00362334
-0.00322941
-0.00280845
-0.00234299
-0.00185541
-0.00135018
-0.000827042
-0.000280047
0.00027365
0.000808472
0.0012615
0.00159309
0.00189105
0.00217407
0.00244965
0.0027236
0.00299755
0.00327127
0.00354341
0.00381181
0.00407375
0.0043261
0.00456553
0.00478857
0.00499175
0.00517171
0.00532527
0.00544959
0.00554218
0.00560108
0.00562488
0.00561282
0.00556483
0.00548157
0.00536441
0.00521541
0.00503727
0.00483321
0.00460692
0.00436238
0.00410374
0.00383523
0.00356097
0.00328491
0.00301071
0.00274164
0.00248059
0.00222996
0.00199172
0.00176736
0.00155796
0.00136419
0.00118636
0.00102448
0.000878273
0.000747269
0.000630809
0.000528103
0.000438263
0.000360337
0.000293338
0.000236262
0.000188116
0.000147927
0.000114759
8.77225e-05
6.59756e-05
4.87314e-05
3.52515e-05
2.48301e-05
1.67444e-05
1.01159e-05
3.56388e-06
0.00555276
0.00578238
0.00592773
0.00607714
0.00621707
0.00632678
0.00639997
0.00643468
0.00642743
0.00636985
0.00628448
0.00612477
0.00594247
0.00571409
0.00558868
0.00532884
0.00505217
0.00476099
0.00445447
0.004133
0.00379735
0.00345115
0.00309963
0.00275009
0.00241156
0.00209453
0.00181608
0.00160114
0.00140399
0.00120261
0.000989783
0.0007604
0.000513028
0.000248306
-3.19159e-05
-0.000324952
-0.000627581
-0.000936269
-0.00124731
-0.00155695
-0.00186143
-0.00215706
-0.00244025
-0.00270752
-0.00295558
-0.00318136
-0.00338208
-0.00355532
-0.0036991
-0.00381196
-0.00389299
-0.00394191
-0.00395907
-0.00394544
-0.00390259
-0.00383261
-0.00373804
-0.00362173
-0.00348682
-0.00333651
-0.00317405
-0.00300259
-0.00282513
-0.00264443
-0.00246296
-0.00228292
-0.00210617
-0.00193427
-0.00176849
-0.0016098
-0.00145894
-0.00131642
-0.00118255
-0.0010575
-0.000941259
-0.000833731
-0.000734707
-0.000643899
-0.000560955
-0.000485465
-0.000416971
-0.000354975
-0.00029894
-0.000248294
-0.000202422
-0.000160661
-0.000122281
-8.64413e-05
-5.20871e-05
-1.75966e-05
0.000895768
0.000710029
0.000554994
0.000385127
0.00021696
6.82699e-05
-5.80213e-05
-0.000157659
-0.000220531
-0.000260508
-0.000289807
-0.000248825
-0.00018895
-8.55685e-05
3.37018e-05
0.000162457
0.000304104
0.000456245
0.000615511
0.000778186
0.000939801
0.00109467
0.00123658
0.00135913
0.00145582
0.00152158
0.00155634
0.0015683
0.00156954
0.00156635
0.00156188
0.00155753
0.00155394
0.0015514
0.00155004
0.00154991
0.00155096
0.00155306
0.00155587
0.00155884
0.00156119
0.00156189
0.00155975
0.00155343
0.0015416
0.00152301
0.00149656
0.00146141
0.00141706
0.0013633
0.00130034
0.00122867
0.00114914
0.00106285
0.0009711
0.000875363
0.000777196
0.000678186
0.000579893
0.000483793
0.000391239
0.000303419
0.000221335
0.000145781
7.73455e-05
1.6409e-05
-3.68424e-05
-8.24012e-05
-0.000120417
-0.000151172
-0.00017506
-0.000192558
-0.000204207
-0.000210588
-0.000212304
-0.000209962
-0.00020416
-0.000195472
-0.000184437
-0.000171553
-0.000157266
-0.000141967
-0.000125986
-0.000109586
-9.29639e-05
-7.62439e-05
-5.94788e-05
-4.26537e-05
-2.57161e-05
-8.58275e-06
0.00160255
0.00164742
0.0017029
0.00175398
0.00180347
0.00185249
0.00189003
0.00189796
0.00188287
0.00186129
0.0018401
0.00181872
0.00179398
0.00176664
0.00173763
0.00170813
0.00167922
0.00165233
0.0016291
0.0016112
0.00160007
0.00159658
0.00160059
0.0016107
0.00162426
0.00163806
0.00164928
0.00165624
0.00165793
0.0016532
0.00164115
0.00162095
0.00159167
0.00155241
0.00150234
0.00144083
0.00136749
0.00128229
0.00118557
0.00107805
0.000960823
0.000835283
0.000703086
0.000566067
0.000426184
0.000285452
0.000145894
9.49442e-06
-0.000121848
-0.000246362
-0.000362458
-0.000468767
-0.000564185
-0.000647905
-0.000719433
-0.000778588
-0.000825489
-0.000860523
-0.000884303
-0.000897617
-0.00090138
-0.000896583
-0.000884248
-0.00086539
-0.000840993
-0.000811981
-0.000779212
-0.000743468
-0.000705455
-0.000665805
-0.000625079
-0.000583772
-0.000542322
-0.000501112
-0.000460475
-0.000420698
-0.000382024
-0.000344655
-0.00030875
-0.000274429
-0.000241767
-0.000210798
-0.000181512
-0.000153848
-0.000127698
-0.000102897
-7.92186e-05
-5.6364e-05
-3.39471e-05
-1.14032e-05
0.000725563
0.000705939
0.000699921
0.000678864
0.000654728
0.000642041
0.000642769
0.000662909
0.000689311
0.000723142
0.000765295
0.000814623
0.000870158
0.000930969
0.00099573
0.00106301
0.00113156
0.00120033
0.00126843
0.00133518
0.00140007
0.00146262
0.00152224
0.0015781
0.00162918
0.00167428
0.00171226
0.00174222
0.00176345
0.00177533
0.00177729
0.00176882
0.00174941
0.00171865
0.00167623
0.00162202
0.00155609
0.00147881
0.00139082
0.00129308
0.0011868
0.00107349
0.000954793
0.000832495
0.000708397
0.000584252
0.000461688
0.000342163
0.000226925
0.000117009
1.32339e-05
-8.37688e-05
-0.000173535
-0.000255737
-0.000330158
-0.000396673
-0.000455231
-0.000505851
-0.00054861
-0.000583649
-0.000611167
-0.000631423
-0.000644732
-0.000651466
-0.000652044
-0.000646929
-0.000636623
-0.000621649
-0.000602554
-0.000579891
-0.000554213
-0.000526065
-0.000495976
-0.000464451
-0.000431965
-0.000398957
-0.000365827
-0.000332928
-0.000300568
-0.000269001
-0.000238429
-0.000208997
-0.000180794
-0.000153846
-0.00012812
-0.000103511
-7.98481e-05
-5.68772e-05
-3.426e-05
-1.14933e-05
8.16377e-05
9.11696e-05
0.000123832
0.000143605
0.000158925
0.000183974
0.000220673
0.000265208
0.000316445
0.000375005
0.000440907
0.00051373
0.000592935
0.00067781
0.000767486
0.00086099
0.000957258
0.00105515
0.00115351
0.00125113
0.00134684
0.00143943
0.00152768
0.00161033
0.00168611
0.00175376
0.00181211
0.00186014
0.00189702
0.00192203
0.00193466
0.0019345
0.00192128
0.00189488
0.00185533
0.00180281
0.00173772
0.00166065
0.00157241
0.00147404
0.00136678
0.00125206
0.00113147
0.00100667
0.000879373
0.000751246
0.000623889
0.000498768
0.000377193
0.00026029
0.000149005
4.41074e-05
-5.37975e-05
-0.000144247
-0.000226905
-0.000301545
-0.000368036
-0.000426334
-0.000476476
-0.000518571
-0.000552802
-0.000579415
-0.000598719
-0.000611081
-0.000616917
-0.000616687
-0.000610889
-0.000600047
-0.000584708
-0.000565426
-0.000542762
-0.00051727
-0.000489491
-0.000459947
-0.00042913
-0.000397502
-0.000365484
-0.000333455
-0.000301746
-0.000270637
-0.000240353
-0.000211065
-0.00018288
-0.000155848
-0.000129949
-0.000105099
-8.11372e-05
-5.7825e-05
-3.48382e-05
-1.16867e-05
-0.000690192
-0.000661837
-0.000601558
-0.000555664
-0.000514379
-0.000460793
-0.000392105
-0.000312439
-0.00022382
-0.000125905
-1.86612e-05
9.70559e-05
0.000220181
0.000349646
0.000484242
0.000622591
0.0007632
0.000904503
0.00104489
0.00118272
0.00131638
0.00144427
0.00156486
0.00167667
0.00177832
0.00186856
0.00194627
0.00201053
0.0020606
0.00209595
0.00211623
0.00212131
0.0021112
0.0020861
0.00204637
0.00199254
0.00192528
0.00184544
0.00175405
0.00165227
0.00154143
0.00142299
0.00129851
0.00116959
0.00103789
0.000905024
0.000772546
0.000641902
0.000514408
0.000391222
0.000273342
0.000161602
5.66789e-05
-4.08907e-05
-0.000130701
-0.000212463
-0.000285989
-0.000351188
-0.000408052
-0.000456655
-0.000497146
-0.000529744
-0.000554734
-0.00057246
-0.000583322
-0.000587767
-0.000586281
-0.000579385
-0.000567623
-0.000551554
-0.000531746
-0.000508763
-0.000483161
-0.000455479
-0.00042623
-0.000395897
-0.000364924
-0.000333714
-0.000302622
-0.000271951
-0.00024195
-0.00021281
-0.00018466
-0.000157566
-0.000131528
-0.000106473
-8.22566e-05
-5.86502e-05
-3.53432e-05
-1.18561e-05
-0.00157055
-0.001514
-0.00141401
-0.0013298
-0.00125227
-0.00116122
-0.00105046
-0.000924484
-0.000787807
-0.000640711
-0.000482748
-0.000315128
-0.000139641
4.21413e-05
0.000228568
0.00041776
0.000607723
0.000796417
0.000981778
0.00116176
0.00133437
0.00149772
0.00165003
0.00178972
0.00191536
0.00202573
0.00211985
0.00219698
0.00225662
0.00229851
0.00232261
0.00232912
0.00231841
0.00229104
0.00224773
0.00218934
0.00211684
0.00203136
0.00193411
0.00182643
0.00170973
0.00158553
0.00145539
0.00132089
0.00118364
0.00104519
0.000907054
0.000770638
0.000637232
0.000507993
0.000383928
0.000265899
0.000154619
5.06642e-05
-4.55171e-05
-0.000133593
-0.000213338
-0.000284625
-0.000347413
-0.000401749
-0.000447754
-0.000485626
-0.000515626
-0.000538084
-0.000553382
-0.000561955
-0.000564283
-0.00056088
-0.000552288
-0.000539071
-0.000521799
-0.000501049
-0.000477388
-0.000451369
-0.000423522
-0.00039435
-0.000364317
-0.000333846
-0.000303313
-0.000273042
-0.000243303
-0.000214304
-0.000186193
-0.000159053
-0.000132898
-0.000107669
-8.32321e-05
-5.93707e-05
-3.57854e-05
-1.20048e-05
-0.00258233
-0.00248705
-0.0023342
-0.00219878
-0.00207293
-0.00193269
-0.00176729
-0.00158168
-0.00138382
-0.00117497
-0.000954093
-0.000722919
-0.000484251
-0.000240348
6.57351e-06
0.000254011
0.000499375
0.000740106
0.000973693
0.00119772
0.00140991
0.00160818
0.0017907
0.00195586
0.00210236
0.00222917
0.00233559
0.0024212
0.00248586
0.00252972
0.00255316
0.0025568
0.00254142
0.00250799
0.0024576
0.00239143
0.00231077
0.00221698
0.00211149
0.00199578
0.00187135
0.00173977
0.0016026
0.00146141
0.00131775
0.00117311
0.00102895
0.000886612
0.000747347
0.000612279
0.000482401
0.00035857
0.000241507
0.000131805
2.9932e-05
-6.37562e-05
-0.00014901
-0.000225676
-0.000293693
-0.000353083
-0.000403949
-0.000446468
-0.000480887
-0.000507517
-0.00052673
-0.00053895
-0.000544648
-0.000544335
-0.000538552
-0.000527862
-0.000512843
-0.000494077
-0.000472143
-0.000447606
-0.000421012
-0.000392879
-0.000363689
-0.000333882
-0.000303854
-0.000273947
-0.000244447
-0.000215581
-0.000187513
-0.000160339
-0.000134086
-0.000108708
-8.40816e-05
-5.99993e-05
-3.6172e-05
-1.21352e-05
-0.00374248
-0.00359391
-0.00337066
-0.00316668
-0.00297631
-0.00277152
-0.00253562
-0.00227399
-0.00199918
-0.00171382
-0.0014162
-0.00110867
-0.000795359
-0.000479369
-0.00016357
0.000148841
0.000454649
0.000750794
0.00103438
0.00130273
0.00155342
0.00178437
0.00199382
0.0021804
0.00234308
0.00248125
0.00259462
0.00268328
0.00274759
0.00278822
0.00280607
0.00280223
0.00277796
0.00273462
0.00267369
0.00259668
0.00250515
0.00240071
0.00228493
0.00215942
0.00202576
0.00188555
0.00174033
0.00159164
0.00144096
0.00128974
0.00113933
0.000991027
0.000846013
0.00070536
0.000570024
0.000440837
0.000318509
0.000203626
9.66624e-05
-2.01749e-06
-9.21509e-05
-0.00017357
-0.000246199
-0.000310043
-0.000365189
-0.0004118
-0.000450108
-0.000480413
-0.000503076
-0.00051851
-0.000527182
-0.000529598
-0.000526296
-0.000517841
-0.000504816
-0.000487809
-0.000467407
-0.000444188
-0.000418709
-0.000391501
-0.000363064
-0.000333853
-0.000304279
-0.0002747
-0.000245419
-0.000216676
-0.000188651
-0.000161451
-0.000135117
-0.000109612
-8.48215e-05
-6.05477e-05
-3.65099e-05
-1.22495e-05
-0.00506508
-0.00484387
-0.00452782
-0.00423333
-0.00395802
-0.00366954
-0.00334384
-0.00298662
-0.00261649
-0.00223796
-0.00184839
-0.00145094
-0.00105133
-0.000653664
-0.00026147
0.000121354
0.000491012
0.000844055
0.00117736
0.00148816
0.00177414
0.00203341
0.00226458
0.00246671
0.00263933
0.0027824
0.00289628
0.00298169
0.00303965
0.00307142
0.00307848
0.00306246
0.00302507
0.0029681
0.00289339
0.00280275
0.00269799
0.00258086
0.00245311
0.00231641
0.00217239
0.00202262
0.00186864
0.00171192
0.00155387
0.00139584
0.00123912
0.00108491
0.000934319
0.000788351
0.000647911
0.00051379
0.00038667
0.000267119
0.000155603
5.24839e-05
-4.19715e-05
-0.000127589
-0.000204283
-0.000272047
-0.000330959
-0.000381169
-0.000422898
-0.000456435
-0.000482133
-0.000500397
-0.000511688
-0.000516508
-0.000515394
-0.000508914
-0.00049765
-0.000482198
-0.000463153
-0.000441101
-0.000416611
-0.000390227
-0.00036246
-0.00033378
-0.000304612
-0.000275328
-0.000246245
-0.000217617
-0.000189633
-0.000162415
-0.000136013
-0.000110398
-8.54662e-05
-6.10261e-05
-3.68051e-05
-1.23494e-05
-0.00656024
-0.00624118
-0.00580436
-0.00539211
-0.00500662
-0.00461126
-0.00417287
-0.00369753
-0.00321145
-0.00272164
-0.00222426
-0.00172332
-0.00122647
-0.000738828
-0.000264524
0.000191952
0.000626388
0.00103516
0.00141519
0.00176392
0.00207941
0.00236033
0.0026059
0.00281593
0.00299073
0.00313107
0.00323811
0.00331334
0.00335853
0.0033756
0.00336665
0.00333383
0.00327933
0.00320531
0.00311393
0.00300725
0.00288725
0.00275584
0.00261481
0.00246589
0.0023107
0.00215079
0.00198761
0.00182257
0.00165699
0.00149212
0.00132914
0.00116917
0.00101322
0.000862235
0.000717047
0.000578396
0.000446924
0.000323173
0.000207589
0.000100526
2.24502e-06
-8.70775e-05
-0.000167351
-0.000238564
-0.000300786
-0.000354157
-0.000398891
-0.000435268
-0.000463632
-0.000484384
-0.000497978
-0.000504913
-0.000505727
-0.000500985
-0.000491274
-0.000477195
-0.000459348
-0.000438328
-0.000414714
-0.00038906
-0.000361888
-0.00033368
-0.000304874
-0.000275855
-0.00024695
-0.000218425
-0.000190482
-0.000163251
-0.00013679
-0.000111082
-8.60278e-05
-6.14433e-05
-3.7063e-05
-1.24369e-05
-0.00823189
-0.00778281
-0.00719092
-0.00662783
-0.00610176
-0.00557215
-0.00499493
-0.00437637
-0.00375218
-0.00313245
-0.00251173
-0.0018949
-0.00129174
-0.000708285
-0.000149057
0.000381119
0.000877916
0.0013379
0.0017584
0.00213749
0.00247399
0.00276745
0.00301809
0.00322671
0.00339466
0.00352369
0.00361592
0.0036737
0.00369958
0.00369619
0.00366621
0.00361231
0.00353708
0.00344302
0.00333252
0.00320783
0.00307104
0.00292414
0.00276893
0.00260712
0.00244028
0.0022699
0.00209735
0.00192391
0.00175081
0.00157919
0.00141012
0.0012446
0.00108358
0.000927892
0.000778313
0.00063552
0.000500108
0.000372585
0.000253373
0.000142809
4.11474e-05
-5.14411e-05
-0.000134864
-0.000209108
-0.000274235
-0.00033038
-0.00037775
-0.000416619
-0.000447323
-0.000470258
-0.000485875
-0.000494669
-0.000497176
-0.000493963
-0.00048562
-0.000472749
-0.000455959
-0.00043585
-0.000413009
-0.000387999
-0.000361354
-0.000333565
-0.000305081
-0.000276297
-0.000247552
-0.000219121
-0.000191216
-0.000163975
-0.000137466
-0.000111678
-8.65169e-05
-6.18071e-05
-3.72881e-05
-1.25133e-05
-0.0100755
-0.00945605
-0.00866806
-0.00791488
-0.00721259
-0.00651745
-0.00577252
-0.00498405
-0.00419915
-0.00343166
-0.00267384
-0.00193132
-0.00121602
-0.000534695
0.000108213
0.000707967
0.00126059
0.00176334
0.00221448
0.00261315
0.00295939
0.00325403
0.00349859
0.00369516
0.00384629
0.00395488
0.00402406
0.00405709
0.00405732
0.00402803
0.00397245
0.00389367
0.00379463
0.00367806
0.00354651
0.00340233
0.00324767
0.00308447
0.00291454
0.00273949
0.00256083
0.00237992
0.00219802
0.00201629
0.00183584
0.00165767
0.00148274
0.00131196
0.00114617
0.000986118
0.000832503
0.000685942
0.000546976
0.000416075
0.000293634
0.000179968
7.53211e-05
-2.01428e-05
-0.000106334
-0.000183237
-0.000250911
-0.000309488
-0.000359168
-0.00040022
-0.000432974
-0.000457824
-0.000475214
-0.000485638
-0.000489631
-0.000487761
-0.000480619
-0.000468811
-0.00045295
-0.000433642
-0.000411482
-0.000387042
-0.000360862
-0.000333444
-0.000305245
-0.00027667
-0.000248067
-0.000219721
-0.000191851
-0.000164604
-0.000138053
-0.000112195
-8.69429e-05
-6.21242e-05
-3.74845e-05
-1.25801e-05
-0.0120752
-0.0112357
-0.0102037
-0.00921518
-0.00829602
-0.0074009
-0.00645788
-0.00547262
-0.00450568
-0.00357511
-0.00266999
-0.00179626
-0.00096786
-0.000191705
0.000528467
0.00118865
0.00178587
0.0023187
0.00278692
0.00319128
0.00353348
0.00381602
0.00404198
0.00421495
0.00433881
0.00441767
0.00445569
0.00445703
0.00442573
0.00436569
0.00428055
0.00417375
0.00404844
0.00390749
0.00375352
0.00358888
0.00341568
0.00323581
0.00305096
0.00286264
0.00267221
0.00248091
0.00228987
0.0021001
0.00191256
0.00172813
0.00154766
0.00137194
0.00120171
0.00103764
0.00088034
0.000730365
0.000588206
0.00045429
0.000328979
0.000212572
0.000105294
7.30186e-06
-8.13178e-05
-0.000160552
-0.000230457
-0.000291162
-0.000342864
-0.000385826
-0.000420375
-0.0004469
-0.000465842
-0.000477694
-0.000482989
-0.000482296
-0.000476207
-0.000465332
-0.000450286
-0.000431683
-0.000410123
-0.000386184
-0.000360413
-0.000333322
-0.000305375
-0.000276986
-0.000248509
-0.000220239
-0.0001924
-0.000165149
-0.000138564
-0.000112646
-8.73138e-05
-6.24004e-05
-3.76557e-05
-1.26383e-05
-0.0141999
-0.0130807
-0.0117506
-0.0104762
-0.00929548
-0.00816414
-0.00699294
-0.00578597
-0.00461911
-0.00351488
-0.00245788