/*--------------------------------*- C++ -*----------------------------------*\
| =========                 |                                                 |
| \\      /  F ield         | OpenFOAM: The Open Source CFD Toolbox           |
|  \\    /   O peration     | Version:  2.4.0                                 |
|   \\  /    A nd           | Web:      www.OpenFOAM.org                      |
|    \\/     M anipulation  |                                                 |
\*---------------------------------------------------------------------------*/
FoamFile
{
    version     2.0;
    format      ascii;
    class       volVectorField;
    location    "0.04";
    object      U;
}
// * * * * * * * * * * * * * * * * * * * * * * * * * * * * * * * * * * * * * //

dimensions      [0 1 -1 0 0 0 0];

internalField   nonuniform List<vector> 
6000
(
(0.991073 -0.000872379 0)
(0.970943 0.000221561 0)
(0.965319 0.000464856 0)
(0.966323 0.000148147 0)
(0.959369 -0.000118466 0)
(0.955312 -8.37134e-05 0)
(0.958672 4.25751e-06 0)
(0.960327 1.6719e-05 0)
(0.958923 3.26852e-06 0)
(0.958404 1.76371e-06 0)
(0.958826 3.40893e-06 0)
(0.958916 1.50652e-06 0)
(0.95879 7.04678e-08 0)
(0.95877 1.23787e-07 0)
(0.958794 2.64041e-07 0)
(0.958794 1.7921e-07 0)
(0.958787 1.30216e-07 0)
(0.958786 1.52211e-07 0)
(0.958785 1.92683e-07 0)
(0.958784 2.45783e-07 0)
(0.958781 3.19642e-07 0)
(0.958779 4.17069e-07 0)
(0.958775 5.42065e-07 0)
(0.958771 7.02639e-07 0)
(0.958765 9.098e-07 0)
(0.958758 1.17799e-06 0)
(0.958748 1.52584e-06 0)
(0.958736 1.97752e-06 0)
(0.958719 2.56404e-06 0)
(0.958698 3.32557e-06 0)
(0.958671 4.31395e-06 0)
(0.958636 5.59641e-06 0)
(0.95859 7.25988e-06 0)
(0.958531 9.41699e-06 0)
(0.958454 1.22134e-05 0)
(0.958354 1.58379e-05 0)
(0.958224 2.05348e-05 0)
(0.958056 2.6621e-05 0)
(0.957839 3.45072e-05 0)
(0.957557 4.47258e-05 0)
(0.957191 5.79667e-05 0)
(0.956717 7.51233e-05 0)
(0.956103 9.73524e-05 0)
(0.955308 0.000126151 0)
(0.954277 0.000163459 0)
(0.95294 0.000211788 0)
(0.951209 0.000274399 0)
(0.948966 0.000355536 0)
(0.946058 0.000460757 0)
(0.942289 0.000597404 0)
(0.937397 0.000775337 0)
(0.93104 0.00100815 0)
(0.922758 0.00131536 0)
(0.911911 0.00172709 0)
(0.897601 0.0022926 0)
(0.878351 0.0031124 0)
(0.851958 0.00439523 0)
(0.813153 0.00659371 0)
(0.753634 0.0131492 0)
(0.62853 0.0105863 0)
(1.00349 0.00437027 0)
(1.0038 0.00565771 0)
(1.00809 0.00378341 0)
(1.01057 0.00168866 0)
(1.0021 0.000511821 0)
(0.996259 0.000116885 0)
(0.998544 9.93727e-06 0)
(0.999968 -7.64046e-06 0)
(0.998607 4.92919e-06 0)
(0.998072 1.2282e-05 0)
(0.998463 9.34371e-06 0)
(0.998547 4.5516e-06 0)
(0.998418 2.2466e-06 0)
(0.998393 1.52241e-06 0)
(0.998413 1.089e-06 0)
(0.998412 7.27276e-07 0)
(0.998404 5.37604e-07 0)
(0.998403 4.89716e-07 0)
(0.998402 5.19126e-07 0)
(0.998401 6.07051e-07 0)
(0.998399 7.54304e-07 0)
(0.998398 9.63457e-07 0)
(0.998396 1.24229e-06 0)
(0.998393 1.60675e-06 0)
(0.998389 2.07998e-06 0)
(0.998385 2.69366e-06 0)
(0.998379 3.48935e-06 0)
(0.998372 4.5216e-06 0)
(0.998362 5.86079e-06 0)
(0.998349 7.59846e-06 0)
(0.998332 9.8527e-06 0)
(0.998311 1.27769e-05 0)
(0.998283 1.65691e-05 0)
(0.998248 2.14864e-05 0)
(0.998201 2.78611e-05 0)
(0.998141 3.6124e-05 0)
(0.998063 4.68327e-05 0)
(0.997961 6.07106e-05 0)
(0.99783 7.86945e-05 0)
(0.99766 0.000102 0)
(0.997439 0.0001322 0)
(0.997154 0.000171338 0)
(0.996783 0.000222056 0)
(0.996303 0.000287782 0)
(0.99568 0.00037296 0)
(0.994872 0.000483356 0)
(0.993825 0.000626469 0)
(0.992466 0.000812082 0)
(0.990702 0.00105302 0)
(0.988412 0.00136627 0)
(0.985434 0.00177464 0)
(0.981558 0.00230953 0)
(0.976502 0.0030159 0)
(0.969878 0.00396128 0)
(0.96118 0.0052592 0)
(0.949538 0.00710955 0)
(0.934267 0.0100001 0)
(0.911752 0.0147306 0)
(0.886159 0.0271623 0)
(0.827709 0.0352461 0)
(1.00043 0.00112032 0)
(0.997326 0.00175431 0)
(1.00302 0.00162042 0)
(1.00918 0.00128374 0)
(1.00376 0.000843095 0)
(0.999227 0.000448417 0)
(1.00174 0.000192516 0)
(1.00316 6.82932e-05 0)
(1.0018 3.00416e-05 0)
(1.00127 2.22309e-05 0)
(1.00166 1.55331e-05 0)
(1.00175 8.66577e-06 0)
(1.00163 4.83727e-06 0)
(1.00161 3.15e-06 0)
(1.00163 2.10044e-06 0)
(1.00163 1.37612e-06 0)
(1.00162 9.98413e-07 0)
(1.00162 8.57881e-07 0)
(1.00162 8.53506e-07 0)
(1.00161 9.54614e-07 0)
(1.00161 1.15488e-06 0)
(1.00161 1.45438e-06 0)
(1.00161 1.86321e-06 0)
(1.0016 2.40382e-06 0)
(1.0016 3.10926e-06 0)
(1.00159 4.02583e-06 0)
(1.00159 5.21457e-06 0)
(1.00158 6.75636e-06 0)
(1.00156 8.75561e-06 0)
(1.00155 1.13486e-05 0)
(1.00153 1.47111e-05 0)
(1.0015 1.90717e-05 0)
(1.00147 2.47255e-05 0)
(1.00142 3.20559e-05 0)
(1.00136 4.15583e-05 0)
(1.00128 5.38757e-05 0)
(1.00118 6.98398e-05 0)
(1.00106 9.05296e-05 0)
(1.00089 0.000117342 0)
(1.00067 0.00015209 0)
(1.00039 0.000197121 0)
(1.00003 0.000255478 0)
(0.999558 0.000331107 0)
(0.998948 0.000429123 0)
(0.998157 0.000556159 0)
(0.997134 0.000720829 0)
(0.995808 0.000934334 0)
(0.994091 0.00121128 0)
(0.991867 0.00157083 0)
(0.988987 0.00203829 0)
(0.985256 0.00264756 0)
(0.980419 0.00344499 0)
(0.974142 0.00449643 0)
(0.965972 0.00589839 0)
(0.955317 0.00781313 0)
(0.941218 0.0104936 0)
(0.922779 0.0146229 0)
(0.896766 0.020997 0)
(0.865184 0.0359656 0)
(0.820341 0.0568418 0)
(1.00029 0.00129405 0)
(0.996585 0.00271839 0)
(1.00203 0.00265955 0)
(1.00843 0.00187601 0)
(1.00345 0.00102174 0)
(0.999262 0.000475891 0)
(1.00192 0.000207227 0)
(1.00338 8.41977e-05 0)
(1.00203 4.16264e-05 0)
(1.00151 3.02728e-05 0)
(1.0019 2.08532e-05 0)
(1.00199 1.1801e-05 0)
(1.00186 6.67951e-06 0)
(1.00184 4.29992e-06 0)
(1.00186 2.84265e-06 0)
(1.00186 1.88919e-06 0)
(1.00186 1.39631e-06 0)
(1.00185 1.20899e-06 0)
(1.00185 1.20766e-06 0)
(1.00185 1.35286e-06 0)
(1.00185 1.63378e-06 0)
(1.00185 2.05197e-06 0)
(1.00184 2.62336e-06 0)
(1.00184 3.38026e-06 0)
(1.00184 4.36948e-06 0)
(1.00183 5.65618e-06 0)
(1.00182 7.32602e-06 0)
(1.00181 9.49234e-06 0)
(1.0018 1.23015e-05 0)
(1.00178 1.59446e-05 0)
(1.00176 2.06682e-05 0)
(1.00174 2.67929e-05 0)
(1.0017 3.47332e-05 0)
(1.00165 4.50269e-05 0)
(1.00159 5.83697e-05 0)
(1.00152 7.56644e-05 0)
(1.00142 9.80786e-05 0)
(1.00129 0.000127127 0)
(1.00112 0.000164772 0)
(1.0009 0.000213556 0)
(1.00061 0.000276773 0)
(1.00025 0.000358692 0)
(0.999769 0.000464844 0)
(0.999151 0.000602394 0)
(0.99835 0.000780631 0)
(0.997313 0.0010116 0)
(0.995968 0.00131096 0)
(0.994226 0.00169907 0)
(0.991968 0.00220259 0)
(0.98904 0.00285661 0)
(0.985243 0.00370795 0)
(0.980315 0.0048202 0)
(0.973907 0.00628294 0)
(0.965551 0.00822587 0)
(0.954625 0.0108629 0)
(0.940155 0.0145198 0)
(0.921101 0.0200267 0)
(0.89461 0.0283467 0)
(0.861152 0.0457431 0)
(0.814175 0.0715408 0)
(1.00022 0.00108787 0)
(0.996251 0.00223998 0)
(1.00159 0.00216721 0)
(1.0081 0.00156985 0)
(1.00327 0.000943355 0)
(0.999191 0.000517503 0)
(1.0019 0.000265137 0)
(1.00337 0.000122101 0)
(1.00204 6.03496e-05 0)
(1.00152 3.89499e-05 0)
(1.00191 2.55646e-05 0)
(1.002 1.47582e-05 0)
(1.00188 8.54778e-06 0)
(1.00186 5.45685e-06 0)
(1.00188 3.58509e-06 0)
(1.00188 2.40533e-06 0)
(1.00187 1.79297e-06 0)
(1.00187 1.55567e-06 0)
(1.00187 1.55564e-06 0)
(1.00187 1.74227e-06 0)
(1.00187 2.1004e-06 0)
(1.00186 2.63333e-06 0)
(1.00186 3.36256e-06 0)
(1.00186 4.32986e-06 0)
(1.00185 5.59527e-06 0)
(1.00185 7.24226e-06 0)
(1.00184 9.3803e-06 0)
(1.00183 1.21543e-05 0)
(1.00182 1.57513e-05 0)
(1.0018 2.04159e-05 0)
(1.00178 2.64633e-05 0)
(1.00175 3.43039e-05 0)
(1.00172 4.44679e-05 0)
(1.00167 5.76439e-05 0)
(1.00161 7.47222e-05 0)
(1.00154 9.68584e-05 0)
(1.00144 0.000125548 0)
(1.00131 0.000162729 0)
(1.00114 0.000210914 0)
(1.00093 0.000273359 0)
(1.00065 0.00035428 0)
(1.00028 0.000459144 0)
(0.999813 0.000595028 0)
(0.999204 0.000771111 0)
(0.998414 0.000999281 0)
(0.997391 0.00129497 0)
(0.996065 0.0016782 0)
(0.994347 0.00217507 0)
(0.992121 0.00281967 0)
(0.989235 0.00365688 0)
(0.985493 0.00474648 0)
(0.980638 0.00616947 0)
(0.974331 0.00803943 0)
(0.966117 0.01052 0)
(0.955396 0.013876 0)
(0.941266 0.0185111 0)
(0.922757 0.025376 0)
(0.897508 0.0356561 0)
(0.866259 0.0553121 0)
(0.822438 0.0837701 0)
(1.00017 0.000904048 0)
(0.996019 0.00198713 0)
(1.00128 0.0020716 0)
(1.00783 0.00160119 0)
(1.00311 0.00101309 0)
(0.9991 0.000570701 0)
(1.00185 0.000298783 0)
(1.00335 0.000144414 0)
(1.00203 7.35944e-05 0)
(1.00151 4.61497e-05 0)
(1.00191 2.99123e-05 0)
(1.002 1.75577e-05 0)
(1.00188 1.02671e-05 0)
(1.00186 6.50319e-06 0)
(1.00188 4.26337e-06 0)
(1.00188 2.8826e-06 0)
(1.00187 2.16392e-06 0)
(1.00187 1.88499e-06 0)
(1.00187 1.89083e-06 0)
(1.00187 2.12084e-06 0)
(1.00187 2.55655e-06 0)
(1.00186 3.2033e-06 0)
(1.00186 4.08826e-06 0)
(1.00186 5.26261e-06 0)
(1.00185 6.79955e-06 0)
(1.00185 8.80055e-06 0)
(1.00184 1.13986e-05 0)
(1.00183 1.47696e-05 0)
(1.00182 1.91407e-05 0)
(1.0018 2.48087e-05 0)
(1.00178 3.21567e-05 0)
(1.00176 4.16832e-05 0)
(1.00172 5.4032e-05 0)
(1.00168 7.00397e-05 0)
(1.00162 9.0788e-05 0)
(1.00154 0.000117681 0)
(1.00145 0.000152535 0)
(1.00132 0.000197706 0)
(1.00116 0.000256247 0)
(1.00095 0.000332111 0)
(1.00067 0.000430424 0)
(1.00032 0.000557824 0)
(0.999855 0.000722911 0)
(0.999258 0.000936834 0)
(0.998484 0.00121403 0)
(0.997482 0.00157325 0)
(0.996183 0.0020388 0)
(0.994499 0.00264235 0)
(0.992318 0.00342524 0)
(0.989491 0.00444185 0)
(0.985827 0.00576444 0)
(0.981075 0.00749067 0)
(0.974909 0.00975672 0)
(0.966892 0.0127575 0)
(0.956458 0.0168032 0)
(0.942791 0.0223636 0)
(0.925035 0.0304756 0)
(0.901327 0.0424563 0)
(0.872783 0.0638667 0)
(0.834679 0.0941479 0)
(1.00013 0.000764964 0)
(0.995842 0.00177596 0)
(1.00102 0.00193474 0)
(1.0076 0.00153936 0)
(1.00295 0.00100257 0)
(0.999013 0.000585812 0)
(1.00181 0.000322508 0)
(1.00332 0.000165531 0)
(1.00202 8.66843e-05 0)
(1.00151 5.29547e-05 0)
(1.0019 3.38074e-05 0)
(1.002 2.00413e-05 0)
(1.00188 1.18074e-05 0)
(1.00186 7.44948e-06 0)
(1.00188 4.88223e-06 0)
(1.00188 3.32259e-06 0)
(1.00187 2.51037e-06 0)
(1.00187 2.19713e-06 0)
(1.00187 2.21256e-06 0)
(1.00187 2.48727e-06 0)
(1.00187 3.00023e-06 0)
(1.00186 3.75908e-06 0)
(1.00186 4.79675e-06 0)
(1.00186 6.17376e-06 0)
(1.00185 7.97625e-06 0)
(1.00185 1.03233e-05 0)
(1.00184 1.33709e-05 0)
(1.00183 1.73253e-05 0)
(1.00182 2.24529e-05 0)
(1.00181 2.91017e-05 0)
(1.00179 3.77207e-05 0)
(1.00176 4.88946e-05 0)
(1.00173 6.33786e-05 0)
(1.00168 8.21537e-05 0)
(1.00163 0.000106489 0)
(1.00155 0.00013803 0)
(1.00146 0.000178909 0)
(1.00133 0.000231889 0)
(1.00118 0.000300549 0)
(1.00097 0.000389529 0)
(1.0007 0.000504839 0)
(1.00035 0.000654265 0)
(0.999905 0.000847895 0)
(0.999322 0.0010988 0)
(0.998568 0.00142392 0)
(0.997589 0.00184522 0)
(0.996322 0.00239122 0)
(0.99468 0.00309901 0)
(0.992552 0.00401699 0)
(0.989796 0.00520873 0)
(0.986224 0.00675856 0)
(0.981596 0.00878 0)
(0.975595 0.0114304 0)
(0.967809 0.0149335 0)
(0.957706 0.0196381 0)
(0.944558 0.0260676 0)
(0.927619 0.0353083 0)
(0.905483 0.0487299 0)
(0.879439 0.0713962 0)
(0.846666 0.102702 0)
(1.00011 0.000655525 0)
(0.995705 0.00158523 0)
(1.0008 0.00179285 0)
(1.0074 0.00147278 0)
(1.00281 0.000991644 0)
(0.998931 0.000599115 0)
(1.00176 0.000341206 0)
(1.0033 0.000181839 0)
(1.00201 9.71903e-05 0)
(1.0015 5.86177e-05 0)
(1.0019 3.71141e-05 0)
(1.00199 2.21987e-05 0)
(1.00188 1.31625e-05 0)
(1.00185 8.28154e-06 0)
(1.00188 5.42959e-06 0)
(1.00188 3.71818e-06 0)
(1.00187 2.828e-06 0)
(1.00187 2.48903e-06 0)
(1.00187 2.51851e-06 0)
(1.00187 2.8396e-06 0)
(1.00187 3.42947e-06 0)
(1.00186 4.29849e-06 0)
(1.00186 5.48546e-06 0)
(1.00186 7.06009e-06 0)
(1.00185 9.12127e-06 0)
(1.00185 1.18052e-05 0)
(1.00184 1.52905e-05 0)
(1.00183 1.98128e-05 0)
(1.00182 2.56767e-05 0)
(1.00181 3.32799e-05 0)
(1.00179 4.31361e-05 0)
(1.00176 5.59135e-05 0)
(1.00173 7.24755e-05 0)
(1.00169 9.39441e-05 0)
(1.00163 0.00012177 0)
(1.00156 0.000157836 0)
(1.00147 0.000204579 0)
(1.00135 0.000265159 0)
(1.0012 0.00034367 0)
(1.001 0.000445416 0)
(1.00074 0.000577269 0)
(1.0004 0.000748135 0)
(0.999962 0.000969546 0)
(0.999397 0.00125645 0)
(0.998664 0.00162821 0)
(0.997714 0.00210995 0)
(0.996483 0.00273423 0)
(0.994889 0.00354343 0)
(0.992824 0.0045928 0)
(0.990149 0.00595477 0)
(0.986684 0.00772519 0)
(0.982196 0.0100327 0)
(0.976385 0.0130542 0)
(0.968862 0.0170394 0)
(0.95913 0.0223696 0)
(0.946551 0.0296093 0)
(0.930483 0.0398628 0)
(0.909912 0.0545022 0)
(0.8862 0.078029 0)
(0.857858 0.109815 0)
(1.00009 0.00056669 0)
(0.995597 0.00141464 0)
(1.00062 0.00165396 0)
(1.00722 0.00139956 0)
(1.00268 0.000969116 0)
(0.998852 0.000600919 0)
(1.00171 0.000351592 0)
(1.00327 0.000193553 0)
(1.00199 0.000105664 0)
(1.00149 6.33222e-05 0)
(1.00189 3.98312e-05 0)
(1.00199 2.39904e-05 0)
(1.00187 1.43046e-05 0)
(1.00185 8.98579e-06 0)
(1.00188 5.89827e-06 0)
(1.00188 4.0648e-06 0)
(1.00187 3.11367e-06 0)
(1.00187 2.75843e-06 0)
(1.00187 2.80678e-06 0)
(1.00187 3.17598e-06 0)
(1.00187 3.84231e-06 0)
(1.00186 4.81921e-06 0)
(1.00186 6.1515e-06 0)
(1.00186 7.91795e-06 0)
(1.00186 1.02299e-05 0)
(1.00185 1.32404e-05 0)
(1.00184 1.71496e-05 0)
(1.00184 2.22219e-05 0)
(1.00182 2.87989e-05 0)
(1.00181 3.73266e-05 0)
(1.00179 4.83809e-05 0)
(1.00177 6.27113e-05 0)
(1.00173 8.12861e-05 0)
(1.00169 0.000105363 0)
(1.00164 0.00013657 0)
(1.00157 0.000177018 0)
(1.00148 0.000229441 0)
(1.00137 0.000297383 0)
(1.00122 0.000385434 0)
(1.00102 0.000499545 0)
(1.00077 0.000647422 0)
(1.00045 0.000839054 0)
(1.00003 0.00108738 0)
(0.99948 0.00140915 0)
(0.998772 0.00182609 0)
(0.997855 0.00236635 0)
(0.996666 0.00306645 0)
(0.995126 0.00397385 0)
(0.993131 0.00515037 0)
(0.990548 0.00667696 0)
(0.987203 0.00866047 0)
(0.982874 0.0112436 0)
(0.977276 0.0146215 0)
(0.970044 0.0190666 0)
(0.960721 0.0249868 0)
(0.948752 0.0329756 0)
(0.933595 0.0441312 0)
(0.914564 0.0597906 0)
(0.89304 0.0838898 0)
(0.868418 0.115794 0)
(1.00008 0.000493279 0)
(0.995513 0.00126272 0)
(1.00048 0.00151954 0)
(1.00707 0.00132067 0)
(1.00256 0.000937436 0)
(0.998777 0.000594483 0)
(1.00167 0.000355861 0)
(1.00324 0.000201286 0)
(1.00198 0.000111976 0)
(1.00149 6.69115e-05 0)
(1.00189 4.18942e-05 0)
(1.00199 2.53868e-05 0)
(1.00187 1.52174e-05 0)
(1.00185 9.55341e-06 0)
(1.00188 6.28221e-06 0)
(1.00188 4.35815e-06 0)
(1.00187 3.36458e-06 0)
(1.00187 3.00328e-06 0)
(1.00187 3.07565e-06 0)
(1.00187 3.49475e-06 0)
(1.00187 4.23689e-06 0)
(1.00187 5.31903e-06 0)
(1.00186 6.79214e-06 0)
(1.00186 8.7439e-06 0)
(1.00186 1.12978e-05 0)
(1.00185 1.4623e-05 0)
(1.00184 1.89408e-05 0)
(1.00184 2.45431e-05 0)
(1.00183 3.18073e-05 0)
(1.00181 4.12257e-05 0)
(1.00179 5.34346e-05 0)
(1.00177 6.92613e-05 0)
(1.00174 8.97755e-05 0)
(1.0017 0.000116366 0)
(1.00165 0.000150831 0)
(1.00158 0.000195502 0)
(1.0015 0.000253397 0)
(1.00139 0.000328432 0)
(1.00124 0.000425677 0)
(1.00106 0.000551702 0)
(1.00082 0.000715021 0)
(1.0005 0.000926664 0)
(1.0001 0.00120092 0)
(0.999574 0.00155629 0)
(0.998893 0.00201677 0)
(0.998012 0.00261343 0)
(0.996869 0.00338657 0)
(0.995389 0.00438855 0)
(0.993473 0.00568751 0)
(0.990991 0.00737249 0)
(0.987779 0.00956071 0)
(0.983626 0.0124081 0)
(0.978262 0.0161262 0)
(0.971348 0.0210074 0)
(0.962467 0.0274804 0)
(0.951142 0.0361571 0)
(0.936919 0.0481107 0)
(0.919387 0.0646171 0)
(0.899904 0.0890774 0)
(0.878457 0.120844 0)
(1.00007 0.000431613 0)
(0.995445 0.001127 0)
(1.00035 0.0013902 0)
(1.00694 0.00123773 0)
(1.00246 0.000898341 0)
(0.998707 0.000580927 0)
(1.00162 0.000354487 0)
(1.00321 0.000205143 0)
(1.00196 0.0001161 0)
(1.00148 6.93622e-05 0)
(1.00188 4.329e-05 0)
(1.00198 2.6371e-05 0)
(1.00187 1.58875e-05 0)
(1.00185 9.97651e-06 0)
(1.00188 6.57648e-06 0)
(1.00188 4.59488e-06 0)
(1.00187 3.57844e-06 0)
(1.00187 3.22184e-06 0)
(1.00187 3.32357e-06 0)
(1.00187 3.79435e-06 0)
(1.00187 4.61148e-06 0)
(1.00187 5.79589e-06 0)
(1.00186 7.4048e-06 0)
(1.00186 9.53462e-06 0)
(1.00186 1.23207e-05 0)
(1.00185 1.59476e-05 0)
(1.00185 2.06571e-05 0)
(1.00184 2.67673e-05 0)
(1.00183 3.469e-05 0)
(1.00181 4.49619e-05 0)
(1.0018 5.82771e-05 0)
(1.00178 7.55376e-05 0)
(1.00175 9.79102e-05 0)
(1.00171 0.00012691 0)
(1.00166 0.000164496 0)
(1.0016 0.000213214 0)
(1.00152 0.000276353 0)
(1.00141 0.000358186 0)
(1.00127 0.00046424 0)
(1.00109 0.000601684 0)
(1.00086 0.0007798 0)
(1.00057 0.00101062 0)
(1.00018 0.00130973 0)
(0.999676 0.0016973 0)
(0.999026 0.0021995 0)
(0.998183 0.0028502 0)
(0.997092 0.00369334 0)
(0.995678 0.00478593 0)
(0.993847 0.00620212 0)
(0.991477 0.00803864 0)
(0.988411 0.0104225 0)
(0.98445 0.0135217 0)
(0.979339 0.0175628 0)
(0.972768 0.0228549 0)
(0.964355 0.0298426 0)
(0.9537 0.0391469 0)
(0.940425 0.0518026 0)
(0.924339 0.0690073 0)
(0.906748 0.0936711 0)
(0.888032 0.125127 0)
(1.00006 0.00037897 0)
(0.995391 0.00100515 0)
(1.00025 0.00126637 0)
(1.00682 0.00115214 0)
(1.00236 0.000853175 0)
(0.998642 0.000561243 0)
(1.00158 0.000348121 0)
(1.00319 0.000205432 0)
(1.00194 0.000118096 0)
(1.00147 7.06602e-05 0)
(1.00188 4.40056e-05 0)
(1.00198 2.69314e-05 0)
(1.00187 1.63053e-05 0)
(1.00185 1.02497e-05 0)
(1.00188 6.77772e-06 0)
(1.00188 4.77253e-06 0)
(1.00187 3.75345e-06 0)
(1.00187 3.4127e-06 0)
(1.00187 3.54925e-06 0)
(1.00187 4.0734e-06 0)
(1.00187 4.96448e-06 0)
(1.00187 6.24782e-06 0)
(1.00186 7.98699e-06 0)
(1.00186 1.0287e-05 0)
(1.00186 1.32945e-05 0)
(1.00185 1.7209e-05 0)
(1.00185 2.22916e-05 0)
(1.00184 2.88856e-05 0)
(1.00183 3.74355e-05 0)
(1.00182 4.85204e-05 0)
(1.0018 6.28893e-05 0)
(1.00178 8.15155e-05 0)
(1.00175 0.000105658 0)
(1.00172 0.000136952 0)
(1.00167 0.000177512 0)
(1.00161 0.000230083 0)
(1.00153 0.000298218 0)
(1.00143 0.000386525 0)
(1.0013 0.00050097 0)
(1.00113 0.00064929 0)
(1.00091 0.000841503 0)
(1.00063 0.00109059 0)
(1.00026 0.00141337 0)
(0.999787 0.00183162 0)
(0.99917 0.00237356 0)
(0.99837 0.00307575 0)
(0.997334 0.00398555 0)
(0.995991 0.00516443 0)
(0.994253 0.0066922 0)
(0.992004 0.00867284 0)
(0.989095 0.0112424 0)
(0.98534 0.0145803 0)
(0.980501 0.018926 0)
(0.974295 0.0246031 0)
(0.966375 0.0320671 0)
(0.956408 0.0419408 0)
(0.944085 0.0552111 0)
(0.929387 0.0729878 0)
(0.913546 0.0977392 0)
(0.897187 0.128778 0)
(1.00006 0.000333335 0)
(0.995348 0.000895098 0)
(1.00017 0.00114815 0)
(1.00672 0.00106498 0)
(1.00227 0.000803037 0)
(0.998582 0.000536296 0)
(1.00154 0.000337349 0)
(1.00316 0.00020245 0)
(1.00193 0.00011804 0)
(1.00146 7.08098e-05 0)
(1.00187 4.40414e-05 0)
(1.00198 2.70655e-05 0)
(1.00187 1.64663e-05 0)
(1.00185 1.03699e-05 0)
(1.00187 6.88398e-06 0)
(1.00188 4.88955e-06 0)
(1.00187 3.88839e-06 0)
(1.00187 3.57481e-06 0)
(1.00187 3.7516e-06 0)
(1.00187 4.33069e-06 0)
(1.00187 5.29444e-06 0)
(1.00187 6.67299e-06 0)
(1.00186 8.53639e-06 0)
(1.00186 1.0998e-05 0)
(1.00186 1.42153e-05 0)
(1.00185 1.84021e-05 0)
(1.00185 2.38379e-05 0)
(1.00184 3.08898e-05 0)
(1.00183 4.00331e-05 0)
(1.00182 5.18872e-05 0)
(1.00181 6.7253e-05 0)
(1.00179 8.71714e-05 0)
(1.00176 0.000112989 0)
(1.00173 0.000146453 0)
(1.00168 0.000189827 0)
(1.00163 0.000246044 0)
(1.00155 0.000318906 0)
(1.00146 0.000413338 0)
(1.00134 0.000535724 0)
(1.00118 0.000694335 0)
(1.00097 0.000899886 0)
(1.0007 0.00116626 0)
(1.00036 0.00151144 0)
(0.999907 0.00195872 0)
(0.999325 0.00253827 0)
(0.99857 0.00328918 0)
(0.997593 0.00426206 0)
(0.996328 0.00552256 0)
(0.994689 0.00715585 0)
(0.992569 0.00927266 0)
(0.989829 0.0120175 0)
(0.986293 0.0155799 0)
(0.981744 0.0202112 0)
(0.975921 0.0262467 0)
(0.968515 0.0341489 0)
(0.959251 0.0445361 0)
(0.947875 0.0583424 0)
(0.934504 0.0765851 0)
(0.92028 0.101341 0)
(0.905964 0.131903 0)
(1.00005 0.000293198 0)
(0.995312 0.000795032 0)
(1.0001 0.00103541 0)
(1.00664 0.000977053 0)
(1.0022 0.000748852 0)
(0.998526 0.000506835 0)
(1.00151 0.000322703 0)
(1.00314 0.000196493 0)
(1.00191 0.000116037 0)
(1.00145 6.98361e-05 0)
(1.00187 4.34085e-05 0)
(1.00197 2.67776e-05 0)
(1.00186 1.637e-05 0)
(1.00185 1.03362e-05 0)
(1.00187 6.89475e-06 0)
(1.00188 4.94532e-06 0)
(1.00187 3.98257e-06 0)
(1.00187 3.70744e-06 0)
(1.00187 3.92977e-06 0)
(1.00187 4.56517e-06 0)
(1.00187 5.60001e-06 0)
(1.00187 7.06972e-06 0)
(1.00186 9.05083e-06 0)
(1.00186 1.16648e-05 0)
(1.00186 1.50796e-05 0)
(1.00186 1.95223e-05 0)
(1.00185 2.52899e-05 0)
(1.00184 3.27717e-05 0)
(1.00184 4.24725e-05 0)
(1.00182 5.50489e-05 0)
(1.00181 7.1351e-05 0)
(1.00179 9.24828e-05 0)
(1.00177 0.000119873 0)
(1.00174 0.000155376 0)
(1.00169 0.000201392 0)
(1.00164 0.000261034 0)
(1.00157 0.000338334 0)
(1.00148 0.00043852 0)
(1.00137 0.000568363 0)
(1.00122 0.00073664 0)
(1.00103 0.000954719 0)
(1.00078 0.00123733 0)
(1.00045 0.00160355 0)
(1.00003 0.0020781 0)
(0.999489 0.00269299 0)
(0.998784 0.00348965 0)
(0.99787 0.00452178 0)
(0.996686 0.00585894 0)
(0.995153 0.00759127 0)
(0.99317 0.00983582 0)
(0.990609 0.0127449 0)
(0.987306 0.0165172 0)
(0.983061 0.0214142 0)
(0.977639 0.027781 0)
(0.970763 0.0360838 0)
(0.962211 0.0469318 0)
(0.951775 0.0612037 0)
(0.939671 0.0798244 0)
(0.926939 0.104528 0)
(0.914403 0.134589 0)
(1.00005 0.000257416 0)
(0.995284 0.000703388 0)
(1.00004 0.000927846 0)
(1.00656 0.000888965 0)
(1.00213 0.000691398 0)
(0.998476 0.000473512 0)
(1.00147 0.000304661 0)
(1.00311 0.000187856 0)
(1.0019 0.000112213 0)
(1.00144 6.77802e-05 0)
(1.00186 4.2127e-05 0)
(1.00197 2.60786e-05 0)
(1.00186 1.60202e-05 0)
(1.00185 1.01503e-05 0)
(1.00187 6.81097e-06 0)
(1.00187 4.9401e-06 0)
(1.00187 4.03586e-06 0)
(1.00187 3.81022e-06 0)
(1.00187 4.08317e-06 0)
(1.00187 4.77597e-06 0)
(1.00187 5.88005e-06 0)
(1.00187 7.43645e-06 0)
(1.00187 9.52827e-06 0)
(1.00186 1.22847e-05 0)
(1.00186 1.58838e-05 0)
(1.00186 2.05651e-05 0)
(1.00185 2.66418e-05 0)
(1.00185 3.45242e-05 0)
(1.00184 4.4744e-05 0)
(1.00183 5.79931e-05 0)
(1.00181 7.51671e-05 0)
(1.0018 9.74289e-05 0)
(1.00177 0.000126284 0)
(1.00175 0.000163685 0)
(1.00171 0.000212161 0)
(1.00166 0.000274992 0)
(1.0016 0.000356426 0)
(1.00151 0.000461971 0)
(1.00141 0.000598759 0)
(1.00127 0.000776038 0)
(1.00109 0.00100578 0)
(1.00086 0.00130352 0)
(1.00056 0.00168934 0)
(1.00017 0.00218929 0)
(0.999663 0.00283709 0)
(0.999009 0.00367638 0)
(0.998162 0.0047637 0)
(0.997064 0.00617224 0)
(0.995643 0.0079968 0)
(0.993805 0.0103602 0)
(0.991432 0.0134218 0)
(0.988373 0.0173887 0)
(0.984447 0.0225312 0)
(0.979441 0.0292021 0)
(0.97311 0.0378687 0)
(0.965276 0.0491281 0)
(0.955768 0.0638031 0)
(0.944871 0.0827293 0)
(0.93352 0.107344 0)
(0.922542 0.136904 0)
(1.00005 0.000225107 0)
(0.99526 0.00061882 0)
(0.999986 0.000825061 0)
(1.0065 0.000801144 0)
(1.00207 0.000631322 0)
(0.99843 0.000436893 0)
(1.00144 0.000283656 0)
(1.00309 0.000176823 0)
(1.00188 0.000106705 0)
(1.00143 6.46979e-05 0)
(1.00186 4.02259e-05 0)
(1.00197 2.49852e-05 0)
(1.00186 1.54249e-05 0)
(1.00185 9.81603e-06 0)
(1.00187 6.63495e-06 0)
(1.00187 4.8751e-06 0)
(1.00187 4.0487e-06 0)
(1.00187 3.88314e-06 0)
(1.00187 4.21142e-06 0)
(1.00187 4.96242e-06 0)
(1.00187 6.13352e-06 0)
(1.00187 7.77179e-06 0)
(1.00187 9.96686e-06 0)
(1.00186 1.28555e-05 0)
(1.00186 1.66249e-05 0)
(1.00186 2.15264e-05 0)
(1.00185 2.78883e-05 0)
(1.00185 3.61401e-05 0)
(1.00184 4.68386e-05 0)
(1.00183 6.07082e-05 0)
(1.00182 7.86862e-05 0)
(1.0018 0.00010199 0)
(1.00178 0.000132196 0)
(1.00176 0.000171347 0)
(1.00172 0.000222093 0)
(1.00168 0.000287865 0)
(1.00162 0.000373111 0)
(1.00154 0.000483597 0)
(1.00145 0.000626791 0)
(1.00132 0.000812373 0)
(1.00115 0.00105288 0)
(1.00094 0.00136457 0)
(1.00067 0.00176847 0)
(1.00031 0.00229185 0)
(0.999846 0.00297001 0)
(0.999246 0.00384863 0)
(0.998469 0.00498687 0)
(0.997462 0.00646127 0)
(0.996158 0.00837087 0)
(0.994472 0.0108438 0)
(0.992295 0.0140459 0)
(0.989492 0.0181916 0)
(0.985896 0.0235589 0)
(0.981319 0.0305065 0)
(0.975544 0.0395011 0)
(0.968433 0.0511256 0)
(0.959838 0.0661487 0)
(0.950094 0.0853215 0)
(0.940023 0.109827 0)
(0.930417 0.138904 0)
(1.00005 0.000195584 0)
(0.99524 0.000540178 0)
(0.999944 0.000726611 0)
(1.00645 0.000713877 0)
(1.00202 0.000569158 0)
(0.99839 0.000397475 0)
(1.00141 0.000260083 0)
(1.00307 0.000163668 0)
(1.00187 9.96639e-05 0)
(1.00143 6.06572e-05 0)
(1.00185 3.77418e-05 0)
(1.00197 2.35195e-05 0)
(1.00186 1.45957e-05 0)
(1.00185 9.3396e-06 0)
(1.00187 6.37033e-06 0)
(1.00187 4.75234e-06 0)
(1.00187 4.02206e-06 0)
(1.00187 3.92653e-06 0)
(1.00187 4.31441e-06 0)
(1.00187 5.124e-06 0)
(1.00187 6.35957e-06 0)
(1.00187 8.07449e-06 0)
(1.00187 1.03649e-05 0)
(1.00186 1.33747e-05 0)
(1.00186 1.72999e-05 0)
(1.00186 2.24025e-05 0)
(1.00186 2.90244e-05 0)
(1.00185 3.76132e-05 0)
(1.00184 4.87482e-05 0)
(1.00184 6.31834e-05 0)
(1.00182 8.18945e-05 0)
(1.00181 0.000106148 0)
(1.00179 0.000137585 0)
(1.00177 0.000178333 0)
(1.00174 0.000231147 0)
(1.0017 0.000299601 0)
(1.00164 0.000388323 0)
(1.00157 0.000503314 0)
(1.00149 0.000652348 0)
(1.00137 0.000845501 0)
(1.00122 0.00109582 0)
(1.00103 0.00142023 0)
(1.00078 0.00184062 0)
(1.00046 0.00238538 0)
(1.00004 0.00309123 0)
(0.999493 0.00400573 0)
(0.998789 0.00519042 0)
(0.997876 0.0067249 0)
(0.996695 0.00871206 0)
(0.995167 0.0112849 0)
(0.993195 0.0146148 0)
(0.990656 0.0189231 0)
(0.987402 0.0244942 0)
(0.983266 0.0316914 0)
(0.978057 0.0409794 0)
(0.971669 0.0529259 0)
(0.963973 0.0682485 0)
(0.95533 0.0876207 0)
(0.94645 0.112007 0)
(0.93806 0.140635 0)
(1.00004 0.000168301 0)
(0.995224 0.000466474 0)
(0.99991 0.000632021 0)
(1.0064 0.000627334 0)
(1.00197 0.000505343 0)
(0.998354 0.000355694 0)
(1.00139 0.000234299 0)
(1.00306 0.000148654 0)
(1.00186 9.12441e-05 0)
(1.00142 5.57367e-05 0)
(1.00185 3.47182e-05 0)
(1.00196 2.17083e-05 0)
(1.00186 1.35475e-05 0)
(1.00184 8.72928e-06 0)
(1.00187 6.02203e-06 0)
(1.00187 4.57467e-06 0)
(1.00187 3.95744e-06 0)
(1.00187 3.94105e-06 0)
(1.00187 4.39223e-06 0)
(1.00187 5.26038e-06 0)
(1.00187 6.55749e-06 0)
(1.00187 8.34348e-06 0)
(1.00187 1.07209e-05 0)
(1.00187 1.38405e-05 0)
(1.00186 1.79061e-05 0)
(1.00186 2.31898e-05 0)
(1.00186 3.00458e-05 0)
(1.00185 3.89376e-05 0)
(1.00185 5.04651e-05 0)
(1.00184 6.54089e-05 0)
(1.00183 8.47791e-05 0)
(1.00182 0.000109887 0)
(1.0018 0.000142431 0)
(1.00178 0.000184614 0)
(1.00175 0.000239288 0)
(1.00171 0.000310153 0)
(1.00167 0.000402001 0)
(1.00161 0.000521044 0)
(1.00153 0.00067533 0)
(1.00143 0.000875292 0)
(1.00129 0.00113444 0)
(1.00112 0.00147029 0)
(1.0009 0.00190552 0)
(1.00061 0.0024695 0)
(1.00023 0.00320027 0)
(0.99975 0.00414706 0)
(0.999121 0.00537355 0)
(0.998307 0.0069621 0)
(0.997252 0.00901907 0)
(0.995889 0.0116817 0)
(0.994128 0.0151267 0)
(0.991862 0.019581 0)
(0.988959 0.0253345 0)
(0.985275 0.0327544 0)
(0.980639 0.0423022 0)
(0.974975 0.0545306 0)
(0.968163 0.0701101 0)
(0.960575 0.0896443 0)
(0.952807 0.113914 0)
(0.945503 0.142135 0)
(1.00004 0.000142817 0)
(0.995211 0.000396855 0)
(0.999881 0.000540816 0)
(1.00636 0.000541595 0)
(1.00193 0.00044023 0)
(0.998323 0.000311936 0)
(1.00136 0.000206635 0)
(1.00304 0.00013203 0)
(1.00185 8.16052e-05 0)
(1.00141 5.00231e-05 0)
(1.00185 3.12047e-05 0)
(1.00196 1.95823e-05 0)
(1.00186 1.22987e-05 0)
(1.00184 7.99532e-06 0)
(1.00187 5.59615e-06 0)
(1.00187 4.3457e-06 0)
(1.00187 3.85683e-06 0)
(1.00187 3.92769e-06 0)
(1.00187 4.44522e-06 0)
(1.00187 5.37142e-06 0)
(1.00187 6.72673e-06 0)
(1.00187 8.57784e-06 0)
(1.00187 1.10336e-05 0)
(1.00187 1.42509e-05 0)
(1.00186 1.84413e-05 0)
(1.00186 2.38852e-05 0)
(1.00186 3.09484e-05 0)
(1.00186 4.0108e-05 0)
(1.00185 5.19827e-05 0)
(1.00184 6.7376e-05 0)
(1.00183 8.73289e-05 0)
(1.00182 0.000113192 0)
(1.00181 0.000146715 0)
(1.00179 0.000190166 0)
(1.00177 0.000246485 0)
(1.00173 0.000319481 0)
(1.00169 0.000414092 0)
(1.00164 0.000536716 0)
(1.00157 0.000695646 0)
(1.00148 0.000901628 0)
(1.00137 0.00116858 0)
(1.00121 0.00151455 0)
(1.00102 0.0019629 0)
(1.00077 0.00254389 0)
(1.00044 0.0032967 0)
(1.00001 0.00427206 0)
(0.999464 0.00553555 0)
(0.998751 0.00717196 0)
(0.997828 0.00929073 0)
(0.996633 0.0120329 0)
(0.995091 0.0155797 0)
(0.993106 0.020163 0)
(0.990563 0.0260776 0)
(0.987337 0.0336934 0)
(0.983282 0.0434685 0)
(0.978341 0.0559414 0)
(0.972399 0.0717405 0)
(0.965824 0.0914077 0)
(0.959101 0.115569 0)
(0.952773 0.143432 0)
(1.00004 0.000118767 0)
(0.995201 0.000330582 0)
(0.999858 0.000452527 0)
(1.00633 0.000456666 0)
(1.0019 0.000374104 0)
(0.998296 0.000266543 0)
(1.00134 0.000177395 0)
(1.00303 0.000114035 0)
(1.00184 7.09086e-05 0)
(1.00141 4.36105e-05 0)
(1.00184 2.7256e-05 0)
(1.00196 1.71761e-05 0)
(1.00185 1.08699e-05 0)
(1.00184 7.14978e-06 0)
(1.00187 5.09988e-06 0)
(1.00187 4.06974e-06 0)
(1.00187 3.72268e-06 0)
(1.00187 3.88774e-06 0)
(1.00187 4.47392e-06 0)
(1.00187 5.45714e-06 0)
(1.00187 6.8669e-06 0)
(1.00187 8.7768e-06 0)
(1.00187 1.13017e-05 0)
(1.00187 1.46046e-05 0)
(1.00187 1.89033e-05 0)
(1.00186 2.44861e-05 0)
(1.00186 3.17286e-05 0)
(1.00186 4.112e-05 0)
(1.00185 5.32948e-05 0)
(1.00185 6.90769e-05 0)
(1.00184 8.95336e-05 0)
(1.00183 0.00011605 0)
(1.00182 0.000150419 0)
(1.0018 0.000194967 0)
(1.00178 0.000252707 0)
(1.00175 0.000327547 0)
(1.00172 0.000424547 0)
(1.00167 0.000550269 0)
(1.00162 0.000713215 0)
(1.00154 0.000924404 0)
(1.00144 0.00119811 0)
(1.00131 0.00155283 0)
(1.00115 0.00201253 0)
(1.00093 0.00260824 0)
(1.00065 0.00338014 0)
(1.00029 0.00438024 0)
(0.999817 0.00567578 0)
(0.999208 0.00735366 0)
(0.998419 0.009526 0)
(0.997398 0.0123371 0)
(0.996079 0.0159722 0)
(0.994382 0.0206674 0)
(0.992206 0.0267215 0)
(0.989448 0.0345066 0)
(0.985977 0.0444777 0)
(0.981758 0.0571602 0)
(0.976674 0.0731459 0)
(0.971076 0.0929241 0)
(0.96534 0.116993 0)
(0.959899 0.144553 0)
(1.00004 9.58457e-05 0)
(0.995192 0.000267006 0)
(0.99984 0.000366701 0)
(1.0063 0.000372497 0)
(1.00188 0.000307186 0)
(0.998274 0.000219825 0)
(1.00133 0.000146862 0)
(1.00302 9.48984e-05 0)
(1.00183 5.93164e-05 0)
(1.0014 3.65982e-05 0)
(1.00184 2.29315e-05 0)
(1.00196 1.45272e-05 0)
(1.00185 9.28437e-06 0)
(1.00184 6.20633e-06 0)
(1.00187 4.54138e-06 0)
(1.00187 3.75169e-06 0)
(1.00187 3.55784e-06 0)
(1.00187 3.82274e-06 0)
(1.00187 4.47907e-06 0)
(1.00187 5.51772e-06 0)
(1.00187 6.97777e-06 0)
(1.00187 8.93977e-06 0)
(1.00187 1.15245e-05 0)
(1.00187 1.49e-05 0)
(1.00187 1.92903e-05 0)
(1.00187 2.49902e-05 0)
(1.00186 3.23833e-05 0)
(1.00186 4.19695e-05 0)
(1.00186 5.43963e-05 0)