/*--------------------------------*- C++ -*----------------------------------*\
| =========                 |                                                 |
| \\      /  F ield         | OpenFOAM: The Open Source CFD Toolbox           |
|  \\    /   O peration     | Version:  2.4.0                                 |
|   \\  /    A nd           | Web:      www.OpenFOAM.org                      |
|    \\/     M anipulation  |                                                 |
\*---------------------------------------------------------------------------*/
FoamFile
{
    version     2.0;
    format      ascii;
    class       volVectorField;
    location    "0.94";
    object      U;
}
// * * * * * * * * * * * * * * * * * * * * * * * * * * * * * * * * * * * * * //

dimensions      [0 1 -1 0 0 0 0];

internalField   nonuniform List<vector> 
2320
(
(1 -9.88686e-07 0)
(1.00001 -3.07742e-06 0)
(1.00002 -5.45616e-06 0)
(1.00005 -8.37577e-06 0)
(1.00009 -1.21208e-05 0)
(1.00015 -1.70328e-05 0)
(1.00023 -2.35478e-05 0)
(1.00034 -3.22287e-05 0)
(1.00049 -4.37967e-05 0)
(1.00069 -5.91615e-05 0)
(1.00096 -7.94473e-05 0)
(1.00132 -0.000106 0)
(1.00181 -0.000140363 0)
(1.00245 -0.000184199 0)
(1.00328 -0.000239143 0)
(1.00436 -0.000306601 0)
(1.00573 -0.000387538 0)
(1.00745 -0.000482404 0)
(1.00958 -0.000591467 0)
(1.01218 -0.000715889 0)
(1 -2.94477e-06 0)
(1.00001 -9.15112e-06 0)
(1.00002 -1.62293e-05 0)
(1.00005 -2.49204e-05 0)
(1.00009 -3.60698e-05 0)
(1.00015 -5.06957e-05 0)
(1.00022 -7.00989e-05 0)
(1.00033 -9.59607e-05 0)
(1.00048 -0.000130436 0)
(1.00067 -0.000176249 0)
(1.00094 -0.000236772 0)
(1.0013 -0.000316049 0)
(1.00177 -0.000418732 0)
(1.0024 -0.000549843 0)
(1.00322 -0.000714345 0)
(1.00428 -0.000916501 0)
(1.00564 -0.00115921 0)
(1.00735 -0.00144372 0)
(1.00946 -0.00177053 0)
(1.01204 -0.00214256 0)
(1 -4.83445e-06 0)
(1.00001 -1.4998e-05 0)
(1.00002 -2.66052e-05 0)
(1.00005 -4.08632e-05 0)
(1.00009 -5.91575e-05 0)
(1.00014 -8.31648e-05 0)
(1.00021 -0.000115029 0)
(1.00031 -0.000157524 0)
(1.00045 -0.000214216 0)
(1.00064 -0.000289625 0)
(1.0009 -0.000389365 0)
(1.00124 -0.000520205 0)
(1.0017 -0.000689965 0)
(1.00231 -0.000907144 0)
(1.0031 -0.00118019 0)
(1.00414 -0.00151638 0)
(1.00547 -0.00192058 0)
(1.00715 -0.00239455 0)
(1.00924 -0.0029381 0)
(1.01178 -0.00355418 0)
(1 -6.61153e-06 0)
(1.00001 -2.04865e-05 0)
(1.00002 -3.63458e-05 0)
(1.00004 -5.58344e-05 0)
(1.00008 -8.08494e-05 0)
(1.00013 -0.000113694 0)
(1.0002 -0.000157319 0)
(1.00029 -0.00021555 0)
(1.00042 -0.000293323 0)
(1.0006 -0.000396924 0)
(1.00084 -0.000534199 0)
(1.00116 -0.000714672 0)
(1.00159 -0.000949438 0)
(1.00217 -0.00125067 0)
(1.00293 -0.00163057 0)
(1.00393 -0.00209974 0)
(1.00522 -0.00266513 0)
(1.00686 -0.00332859 0)
(1.0089 -0.00408778 0)
(1.0114 -0.00494273 0)
(1 -8.23176e-06 0)
(1.00001 -2.54835e-05 0)
(1.00002 -4.5214e-05 0)
(1.00004 -6.94709e-05 0)
(1.00007 -0.000100623 0)
(1.00012 -0.000141557 0)
(1.00018 -0.000195974 0)
(1.00026 -0.000268696 0)
(1.00038 -0.000365969 0)
(1.00054 -0.000495793 0)
(1.00076 -0.000668225 0)
(1.00105 -0.000895583 0)
(1.00145 -0.00119237 0)
(1.00198 -0.00157471 0)
(1.0027 -0.00205901 0)
(1.00365 -0.00265966 0)
(1.00488 -0.00338601 0)
(1.00646 -0.00423955 0)
(1.00846 -0.00521389 0)
(1.0109 -0.00630194 0)
(1 -9.65446e-06 0)
(1.00001 -2.98664e-05 0)
(1.00002 -5.2993e-05 0)
(1.00003 -8.14414e-05 0)
(1.00006 -0.000118002 0)
(1.0001 -0.000166082 0)
(1.00015 -0.000230071 0)
(1.00023 -0.000315708 0)
(1.00033 -0.000430467 0)
(1.00047 -0.000583987 0)
(1.00066 -0.000788497 0)
(1.00092 -0.00105914 0)
(1.00127 -0.001414 0)
(1.00176 -0.0018735 0)
(1.00241 -0.00245883 0)
(1.00329 -0.00318897 0)
(1.00446 -0.00407627 0)
(1.00597 -0.00512165 0)
(1.0079 -0.00631244 0)
(1.01028 -0.00762888 0)
(1 -1.08441e-05 0)
(1 -3.35268e-05 0)
(1.00001 -5.94915e-05 0)
(1.00003 -9.14515e-05 0)
(1.00005 -0.000132557 0)
(1.00008 -0.000186668 0)
(1.00012 -0.000258777 0)
(1.00018 -0.000355439 0)
(1.00027 -0.000485253 0)
(1.00038 -0.000659392 0)
(1.00054 -0.000892187 0)
(1.00076 -0.00120162 0)
(1.00107 -0.00160951 0)
(1.00149 -0.00214103 0)
(1.00207 -0.00282297 0)
(1.00287 -0.00367997 0)
(1.00395 -0.00472857 0)
(1.00538 -0.00596937 0)
(1.00724 -0.00738119 0)
(1.00956 -0.00892474 0)
(1 -1.1771e-05 0)
(1 -3.63734e-05 0)
(1.00001 -6.45473e-05 0)
(1.00002 -9.92507e-05 0)
(1.00004 -0.000143923 0)
(1.00006 -0.000202796 0)
(1.00009 -0.000281361 0)
(1.00014 -0.000386876 0)
(1.0002 -0.000528922 0)
(1.00029 -0.000720069 0)
(1.00041 -0.000976632 0)
(1.00059 -0.0013194 0)
(1.00083 -0.00177409 0)
(1.00118 -0.00237112 0)
(1.00168 -0.00314385 0)
(1.00237 -0.00412421 0)
(1.00335 -0.00533482 0)
(1.00468 -0.00677717 0)
(1.00646 -0.00841985 0)
(1.00873 -0.0101959 0)
(1 -1.24117e-05 0)
(1 -3.83337e-05 0)
(1.00001 -6.80314e-05 0)
(1.00001 -0.000104639 0)
(1.00002 -0.000151807 0)
(1.00004 -0.000214042 0)
(1.00006 -0.000297224 0)
(1.00009 -0.000409165 0)
(1.00013 -0.000560262 0)
(1.00019 -0.000764297 0)
(1.00027 -0.00103939 0)
(1.00039 -0.00140904 0)
(1.00057 -0.00190297 0)
(1.00084 -0.00255733 0)
(1.00123 -0.00341325 0)
(1.00181 -0.0045121 0)
(1.00266 -0.00588558 0)
(1.00388 -0.00753884 0)
(1.00557 -0.00942983 0)
(1.0078 -0.0114551 0)
(1 -1.27497e-05 0)
(1 -3.93566e-05 0)
(1 -6.9852e-05 0)
(1 -0.000107472 0)
(1.00001 -0.000155992 0)
(1.00001 -0.000220093 0)
(1.00002 -0.000305907 0)
(1.00003 -0.000421639 0)
(1.00005 -0.000578297 0)
(1.00008 -0.000790632 0)
(1.00012 -0.00107832 0)
(1.00019 -0.00146737 0)
(1.00029 -0.00199148 0)
(1.00046 -0.002693 0)
(1.00073 -0.00362216 0)
(1.00117 -0.0048325 0)
(1.00187 -0.00636926 0)
(1.00296 -0.00824636 0)
(1.00455 -0.0104136 0)
(1.00676 -0.012722 0)
(1 -1.27756e-05 0)
(0.999999 -3.94131e-05 0)
(0.999998 -6.9957e-05 0)
(0.999996 -0.000107667 0)
(0.999994 -0.000156353 0)
(0.99999 -0.000220754 0)
(0.999986 -0.000307116 0)
(0.99998 -0.000423846 0)
(0.999974 -0.000582321 0)
(0.999968 -0.000797963 0)
(0.999965 -0.00109166 0)
(0.999971 -0.00149157 0)
(0.999995 -0.00203521 0)
(1.00006 -0.00277134 0)
(1.0002 -0.00376065 0)
(1.00047 -0.00507217 0)
(1.00099 -0.00677093 0)
(1.0019 -0.00888827 0)
(1.00338 -0.0113732 0)
(1.00559 -0.0140243 0)
(1 -1.24877e-05 0)
(0.999998 -3.8498e-05 0)
(0.999994 -6.83359e-05 0)
(0.999988 -0.000105204 0)
(0.999979 -0.000152852 0)
(0.999966 -0.000215961 0)
(0.999949 -0.000300733 0)
(0.999926 -0.000415569 0)
(0.999895 -0.000571941 0)
(0.999856 -0.000785579 0)
(0.999807 -0.00107813 0)
(0.999749 -0.00147937 0)
(0.999687 -0.00203015 0)
(0.999635 -0.0027856 0)
(0.999622 -0.00381793 0)
(0.999709 -0.0052153 0)
(1.00001 -0.00707081 0)
(1.0007 -0.00944685 0)
(1.00203 -0.0123077 0)
(1.00426 -0.0153972 0)
(1 -1.18916e-05 0)
(0.999997 -3.66301e-05 0)
(0.999991 -6.50213e-05 0)
(0.99998 -0.00010013 0)
(0.999965 -0.000145551 0)
(0.999943 -0.000205785 0)
(0.999914 -0.000286827 0)
(0.999873 -0.000396853 0)
(0.999818 -0.000547118 0)
(0.999745 -0.000753237 0)
(0.999649 -0.00103703 0)
(0.999527 -0.00142919 0)
(0.999375 -0.00197302 0)
(0.999199 -0.0027294 0)
(0.999019 -0.00378247 0)
(0.998886 -0.00524304 0)
(0.998918 -0.00724232 0)
(0.999326 -0.00989391 0)
(1.00045 -0.0132083 0)
(1.0027 -0.0168846 0)
(0.999999 -1.10006e-05 0)
(0.999995 -3.3852e-05 0)
(0.999987 -6.00882e-05 0)
(0.999973 -9.25588e-05 0)
(0.999952 -0.000134607 0)
(0.999922 -0.000190435 0)
(0.99988 -0.000265664 0)
(0.999823 -0.000368013 0)
(0.999745 -0.000508192 0)
(0.999639 -0.000701222 0)
(0.999498 -0.000968418 0)
(0.999311 -0.0013404 0)
(0.999069 -0.00186162 0)
(0.998763 -0.00259727 0)
(0.9984 -0.0036426 0)
(0.998016 -0.00513351 0)
(0.997722 -0.00725004 0)
(0.997757 -0.0101844 0)
(0.99858 -0.0140467 0)
(1.00082 -0.018534 0)
(0.999999 -9.83563e-06 0)
(0.999994 -3.02291e-05 0)
(0.999984 -5.36529e-05 0)
(0.999966 -8.26673e-05 0)
(0.999939 -0.000120274 0)
(0.999902 -0.000170257 0)
(0.999849 -0.000237708 0)
(0.999777 -0.000329651 0)
(0.999677 -0.000455909 0)
(0.999541 -0.000630402 0)
(0.999357 -0.000873154 0)
(0.999109 -0.00121352 0)
(0.998776 -0.0016953 0)
(0.998339 -0.00238548 0)
(0.997783 -0.00338753 0)
(0.997117 -0.00486246 0)
(0.996428 -0.0070482 0)
(0.995966 -0.0102504 0)
(0.996319 -0.0147561 0)
(0.998425 -0.0203547 0)
(0.999999 -8.42494e-06 0)
(0.999993 -2.58494e-05 0)
(0.999981 -4.58695e-05 0)
(0.99996 -7.06913e-05 0)
(0.999929 -0.000102891 0)
(0.999884 -0.000145729 0)
(0.999822 -0.00020361 0)
(0.999736 -0.000282643 0)
(0.999617 -0.000391425 0)
(0.999454 -0.000542257 0)
(0.999231 -0.00075304 0)
(0.998925 -0.00105052 0)
(0.998509 -0.00147551 0)
(0.997944 -0.00209315 0)
(0.99719 -0.00300917 0)
(0.996216 -0.00440497 0)
(0.99506 -0.00657885 0)
(0.993938 -0.00999567 0)
(0.993562 -0.0152263 0)
(0.995228 -0.0222812 0)
(0.999999 -6.80207e-06 0)
(0.999993 -2.08314e-05 0)
(0.999978 -3.69463e-05 0)
(0.999955 -5.69419e-05 0)
(0.99992 -8.29004e-05 0)
(0.99987 -0.000117464 0)
(0.999799 -0.000164214 0)
(0.999702 -0.000228141 0)
(0.999567 -0.000316305 0)
(0.999381 -0.000438887 0)
(0.999124 -0.000610846 0)
(0.998769 -0.000854914 0)
(0.998277 -0.00120631 0)
(0.997596 -0.00172371 0)
(0.996651 -0.00250528 0)
(0.995357 -0.00374004 0)
(0.993661 -0.00576902 0)
(0.991671 -0.00927105 0)
(0.990214 -0.0152965 0)
(0.990871 -0.0244044 0)
(0.999999 -5.00599e-06 0)
(0.999992 -1.52786e-05 0)
(0.999977 -2.70922e-05 0)
(0.999951 -4.17611e-05 0)
(0.999913 -6.08101e-05 0)
(0.999858 -8.61855e-05 0)
(0.999782 -0.000120534 0)
(0.999675 -0.000167554 0)
(0.999528 -0.000232497 0)
(0.999323 -0.000322994 0)
(0.99904 -0.000450312 0)
(0.998645 -0.000631869 0)
(0.998092 -0.000894727 0)
(0.997313 -0.00128619 0)
(0.996202 -0.0018843 0)
(0.994603 -0.00286314 0)
(0.992325 -0.00454038 0)
(0.989163 -0.00782584 0)
(0.986182 -0.0144393 0)
(0.984301 -0.0271769 0)
(0.999999 -3.07922e-06 0)
(0.999991 -9.2718e-06 0)
(0.999975 -1.64467e-05 0)
(0.999948 -2.53917e-05 0)
(0.999908 -3.7024e-05 0)
(0.99985 -5.25298e-05 0)
(0.99977 -7.35301e-05 0)
(0.999657 -0.000102299 0)
(0.999501 -0.000142073 0)
(0.999284 -0.000197591 0)
(0.998981 -0.000275818 0)
(0.998559 -0.000387877 0)
(0.997963 -0.000550191 0)
(0.997115 -0.00079587 0)
(0.995877 -0.00116596 0)
(0.994044 -0.00181408 0)
(0.991201 -0.00284693 0)
(0.98671 -0.00548921 0)
(0.980728 -0.0106907 0)
(0.972848 -0.0297338 0)
(0.999999 -1.04446e-06 0)
(0.999991 -3.08393e-06 0)
(0.999975 -5.47063e-06 0)
(0.999947 -8.46588e-06 0)
(0.999905 -1.23722e-05 0)
(0.999846 -1.75854e-05 0)
(0.999763 -2.46495e-05 0)
(0.999648 -3.43314e-05 0)
(0.999487 -4.77228e-05 0)
(0.999263 -6.64365e-05 0)
(0.998951 -9.28058e-05 0)
(0.998515 -0.00013075 0)
(0.997895 -0.000185393 0)
(0.997015 -0.000270113 0)
(0.99569 -0.000391504 0)
(0.993812 -0.000632622 0)
(0.990309 -0.000918274 0)
(0.986042 -0.00214484 0)
(0.970596 -0.00341556 0)
(0.966402 -0.0173618 0)
(1.01531 -0.000859885 0)
(1.01907 -0.00103397 0)
(1.02361 -0.00125863 0)
(1.02918 -0.00156693 0)
(1.0362 -0.00200443 0)
(1.04527 -0.00262554 0)
(1.05725 -0.00348879 0)
(1.07322 -0.00465527 0)
(1.01515 -0.00257165 0)
(1.01887 -0.00308852 0)
(1.02334 -0.00375411 0)
(1.02881 -0.00466791 0)
(1.03567 -0.00596747 0)
(1.04453 -0.00781708 0)
(1.05622 -0.0103924 0)
(1.07185 -0.0138753 0)
(1.01484 -0.00425975 0)
(1.01849 -0.00510308 0)
(1.02283 -0.006184 0)
(1.02809 -0.00766907 0)
(1.03463 -0.00979085 0)
(1.04307 -0.0128265 0)
(1.05422 -0.0170686 0)
(1.06918 -0.0228156 0)
(1.01439 -0.00591119 0)
(1.01793 -0.00705421 0)
(1.02208 -0.00850763 0)
(1.02703 -0.0105065 0)
(1.03312 -0.0133838 0)
(1.04091 -0.0175353 0)
(1.05126 -0.0233706 0)
(1.06522 -0.0312956 0)
(1.01382 -0.00751563 0)
(1.01722 -0.00892147 0)
(1.02113 -0.0106866 0)
(1.02568 -0.0131167 0)
(1.03116 -0.0166547 0)
(1.03811 -0.0218245 0)
(1.04738 -0.0291519 0)
(1.06003 -0.0391378 0)
(1.01312 -0.00906785 0)
(1.01638 -0.0106903 0)
(1.02002 -0.0126875 0)
(1.02409 -0.0154392 0)
(1.02881 -0.0195135 0)
(1.03471 -0.0255773 0)
(1.04265 -0.0342727 0)
(1.05369 -0.0461755 0)
(1.01233 -0.0105692 0)
(1.01545 -0.012354 0)
(1.0188 -0.0144831 0)
(1.02232 -0.0174161 0)
(1.02614 -0.02187 0)
(1.03079 -0.0286784 0)
(1.03714 -0.0385989 0)
(1.04628 -0.0522541 0)
(1.01145 -0.01203 0)
(1.01447 -0.0139166 0)
(1.01754 -0.0160546 0)
(1.02045 -0.0189921 0)
(1.02323 -0.0236333 0)
(1.02641 -0.0310134 0)
(1.03093 -0.0420041 0)
(1.03792 -0.0572356 0)
(1.01051 -0.0134724 0)
(1.01349 -0.0153967 0)
(1.01632 -0.0173931 0)
(1.01858 -0.0201137 0)
(1.02019 -0.0247088 0)
(1.02167 -0.032467 0)
(1.0241 -0.0443709 0)
(1.0287 -0.0610027 0)
(1.00953 -0.0149344 0)
(1.01256 -0.016833 0)
(1.01524 -0.0185028 0)
(1.01685 -0.0207257 0)
(1.01712 -0.0249932 0)
(1.01665 -0.0329211 0)
(1.01674 -0.0455924 0)
(1.01875 -0.0634676 0)
(1.00851 -0.0164749 0)
(1.01176 -0.0182936 0)
(1.01443 -0.0194057 0)
(1.0154 -0.0207688 0)
(1.01416 -0.0243648 0)
(1.01144 -0.0322432 0)
(1.0089 -0.0455672 0)
(1.00817 -0.0645788 0)
(1.00745 -0.0181805 0)
(1.01115 -0.019884 0)
(1.01406 -0.0201476 0)
(1.01443 -0.0201837 0)
(1.01145 -0.0226848 0)
(1.00612 -0.0302804 0)
(1.00064 -0.0441879 0)
(0.997032 -0.0643194 0)
(1.00632 -0.0201804 0)
(1.01083 -0.0217537 0)
(1.01434 -0.0207762 0)
(1.01419 -0.0188948 0)
(1.00918 -0.0198115 0)
(1.00076 -0.0268873 0)
(0.991949 -0.0413588 0)
(0.985394 -0.06273 0)
(1.00506 -0.022691 0)
(1.01091 -0.0241594 0)
(1.01555 -0.021309 0)
(1.01497 -0.0166824 0)
(1.00752 -0.0154919 0)
(0.995405 -0.0219138 0)
(0.982769 -0.0370846 0)
(0.973217 -0.0600767 0)
(1.00355 -0.0260375 0)
(1.01157 -0.0276494 0)
(1.01811 -0.0220706 0)
(1.01711 -0.0132755 0)
(1.00656 -0.00918883 0)
(0.989946 -0.0149711 0)
(0.972817 -0.0313388 0)
(0.960284 -0.0567942 0)
(1.00145 -0.0304203 0)
(1.01284 -0.032537 0)
(1.02262 -0.0237371 0)
(1.02126 -0.00925661 0)
(1.00648 -0.000312318 0)
(0.984085 -0.00395879 0)
(0.961557 -0.0218834 0)
(0.946691 -0.0523229 0)
(0.998351 -0.0361623 0)
(1.01521 -0.0373618 0)
(1.03067 -0.0235302 0)
(1.03001 -0.00527332 0)
(1.01048 0.00757676 0)
(0.980603 0.00514702 0)
(0.950511 -0.0154454 0)
(0.934936 -0.0535491 0)
(0.996695 -0.0490637 0)
(1.02546 -0.0488554 0)
(1.04801 -0.0226509 0)
(1.04699 0.00874273 0)
(1.02216 0.0291249 0)
(0.98337 0.0278773 0)
(0.942499 0.00346666 0)
(0.9276 -0.0499642 0)
(0.997712 -0.0759818 0)
(1.03383 -0.080391 0)
(1.0552 -0.0440456 0)
(1.04815 0.00459203 0)
(1.01434 0.0381921 0)
(0.964977 0.0434027 0)
(0.913604 0.0104504 0)
(0.886157 -0.0679497 0)
(0.88534 -0.0422791 0)
(0.878749 -0.0470628 0)
(0.893779 -0.0196506 0)
(0.886293 0.0279372 0)
(0.853757 0.0704692 0)
(0.798771 0.0876311 0)
(0.750141 0.0637605 0)
(0.67263 -0.0858199 0)
(1.09454 -0.00619383 0)
(1.12287 -0.00819146 0)
(1.16025 -0.0107634 0)
(1.20927 -0.0140566 0)
(1.27313 -0.0182431 0)
(1.35577 -0.0235027 0)
(1.46181 -0.0299953 0)
(1.59642 -0.0378153 0)
(1.76487 -0.0469147 0)
(1.97185 -0.0570034 0)
(2.22027 -0.067445 0)
(2.50978 -0.0772037 0)
(2.83536 -0.0849515 0)
(3.18654 -0.089352 0)
(3.54796 -0.0893948 0)
(3.90098 -0.0846242 0)
(4.22611 -0.0751908 0)
(4.5053 -0.0617421 0)
(4.72376 -0.0452147 0)
(4.87081 -0.0266041 0)
(4.93991 -0.00684215 0)
(4.92799 0.0134038 0)
(4.83427 0.0334039 0)
(4.66166 0.0526134 0)
(4.41164 0.0700706 0)
(4.10041 0.0879673 0)
(3.68515 0.10577 0)
(3.31235 0.157971 0)
(1.09275 -0.0184706 0)
(1.12056 -0.0244378 0)
(1.15729 -0.0321231 0)
(1.20549 -0.0419705 0)
(1.26836 -0.0545015 0)
(1.34982 -0.070264 0)
(1.45457 -0.0897494 0)
(1.58785 -0.113257 0)
(1.75515 -0.140667 0)
(1.96146 -0.171133 0)
(2.21002 -0.202722 0)
(2.50075 -0.232243 0)
(2.82883 -0.255637 0)
(3.18388 -0.268884 0)
(3.55037 -0.268979 0)
(3.90921 -0.254568 0)
(4.24015 -0.226091 0)
(4.52446 -0.185485 0)
(4.74686 -0.135576 0)
(4.8965 -0.0793798 0)
(4.96683 -0.0197327 0)
(4.95509 0.041257 0)
(4.86082 0.101453 0)
(4.68651 0.159078 0)
(4.43642 0.211755 0)
(4.12014 0.263472 0)
(3.74364 0.313584 0)
(3.32924 0.427224 0)
(1.08925 -0.0304007 0)
(1.11603 -0.0402506 0)
(1.15148 -0.0529417 0)
(1.19806 -0.0692204 0)
(1.25896 -0.0899707 0)
(1.33811 -0.116127 0)
(1.44026 -0.148543 0)
(1.5709 -0.187787 0)
(1.73591 -0.23374 0)
(1.94077 -0.285009 0)
(2.18937 -0.33833 0)
(2.48267 -0.38837 0)
(2.81688 -0.428396 0)
(3.18177 -0.451626 0)
(3.56059 -0.452784 0)
(3.93209 -0.429294 0)
(4.27398 -0.381742 0)
(4.56634 -0.313441 0)
(4.7938 -0.229319 0)
(4.94607 -0.134593 0)
(5.01746 -0.0340931 0)
(5.00587 0.0684889 0)
(4.91102 0.16968 0)
(4.73511 0.266217 0)
(4.48393 0.354722 0)
(4.16609 0.436197 0)
(3.8054 0.513413 0)
(3.40732 0.612064 0)
(1.08407 -0.0417595 0)
(1.10933 -0.0553455 0)
(1.14285 -0.0728577 0)
(1.18703 -0.0953553 0)
(1.24497 -0.124104 0)
(1.32061 -0.160452 0)
(1.41882 -0.205694 0)
(1.54543 -0.260766 0)
(1.70671 -0.325589 0)
(1.90895 -0.398339 0)
(2.15789 -0.474748 0)
(2.45678 -0.547557 0)
(2.80244 -0.606941 0)
(3.18238 -0.64237 0)
(3.57562 -0.645419 0)
(3.95713 -0.612132 0)
(4.30302 -0.543776 0)
(4.5941 -0.445853 0)
(4.8173 -0.32603 0)
(4.96498 -0.191984 0)
(5.03392 -0.0503649 0)
(5.02282 0.0939111 0)
(4.93109 0.236374 0)
(4.76004 0.372308 0)
(4.51468 0.496719 0)
(4.20371 0.606193 0)
(3.84986 0.701375 0)
(3.47232 0.783126 0)
(1.07728 -0.0523269 0)
(1.10054 -0.0694419 0)
(1.13153 -0.091512 0)
(1.17251 -0.119923 0)
(1.22649 -0.156341 0)
(1.2974 -0.202587 0)
(1.39031 -0.260493 0)
(1.51122 -0.331397 0)
(1.66692 -0.415442 0)
(1.86582 -0.511049 0)
(2.11683 -0.61341 0)
(2.42427 -0.712503 0)
(2.78177 -0.793552 0)
(3.17059 -0.840828 0)
(3.56428 -0.842834 0)
(3.93601 -0.795582 0)
(4.26392 -0.702667 0)
(4.53307 -0.572943 0)
(4.73519 -0.417228 0)
(4.86684 -0.245476 0)
(4.92798 -0.0654808 0)
(4.91862 0.11745 0)
(4.83764 0.298615 0)
(4.68457 0.472344 0)
(4.46152 0.631666 0)
(4.1748 0.768985 0)
(3.84119 0.879522 0)
(3.48602 0.957041 0)
(1.06898 -0.0618966 0)
(1.0898 -0.082274 0)
(1.11768 -0.108558 0)
(1.1547 -0.142472 0)
(1.20371 -0.186119 0)
(1.2687 -0.241871 0)
(1.35475 -0.312101 0)
(1.46781 -0.398667 0)
(1.61641 -0.502769 0)
(1.81233 -0.623818 0)
(2.06574 -0.755456 0)
(2.3776 -0.882436 0)
(2.73438 -0.983165 0)
(3.1105 -1.03698 0)
(3.47735 -1.0314 0)
(3.81124 -0.964792 0)
(4.09627 -0.844558 0)
(4.32374 -0.683273 0)
(4.49058 -0.494552 0)
(4.59731 -0.289948 0)
(4.64667 -0.0776252 0)
(4.64028 0.137596 0)
(4.57683 0.351656 0)
(4.45399 0.558735 0)
(4.27038 0.750259 0)
(4.02803 0.915157 0)
(3.73696 1.04295 0)
(3.41909 1.12393 0)
(1.05929 -0.0702793 0)
(1.07728 -0.0935939 0)
(1.10152 -0.123661 0)
(1.13382 -0.162557 0)
(1.1769 -0.21289 0)
(1.23475 -0.277576 0)
(1.31196 -0.359474 0)
(1.41515 -0.461716 0)
(1.55615 -0.58754 0)
(1.74778 -0.736432 0)
(1.99685 -0.897963 0)
(2.29799 -1.04971 0)
(2.63047 -1.16335 0)
(2.96549 -1.21555 0)
(3.27779 -1.19586 0)
(3.55108 -1.10678 0)
(3.77683 -0.959691 0)
(3.95172 -0.770204 0)
(4.07643 -0.553942 0)
(4.15429 -0.323415 0)
(4.19013 -0.0866394 0)
(4.18717 0.152693 0)
(4.14413 0.391852 0)
(4.05743 0.625602 0)
(3.92311 0.844532 0)
(3.7391 1.03502 0)
(3.50912 1.18178 0)
(3.24736 1.2709 0)
(1.04838 -0.0773089 0)
(1.06319 -0.103178 0)
(1.08329 -0.136502 0)
(1.11016 -0.179757 0)
(1.14645 -0.236113 0)
(1.19572 -0.30881 0)
(1.26189 -0.401604 0)
(1.35431 -0.520129 0)
(1.48636 -0.66892 0)
(1.66624 -0.845103 0)
(1.8959 -1.03282 0)
(2.16475 -1.20229 0)
(2.44724 -1.32 0)
(2.71645 -1.36311 0)
(2.95526 -1.3257 0)
(3.15624 -1.21471 0)
(3.3166 -1.04425 0)
(3.43607 -0.831824 0)
(3.51734 -0.594495 0)
(3.56563 -0.345548 0)
(3.58763 -0.0926788 0)
(3.58795 0.16207 0)
(3.56522 0.417901 0)
(3.51504 0.670643 0)
(3.432 0.910629 0)
(3.31136 1.1226 0)
(3.15205 1.28774 0)
(2.96041 1.38802 0)
(1.0364 -0.0828496 0)
(1.04777 -0.110828 0)
(1.06331 -0.146785 0)
(1.08413 -0.193702 0)
(1.11278 -0.255174 0)
(1.15163 -0.33461 0)
(1.20541 -0.437922 0)
(1.28678 -0.573194 0)
(1.40375 -0.743281 0)
(1.55771 -0.942283 0)
(1.74991 -1.14969 0)
(1.96542 -1.3283 0)
(2.17676 -1.44175 0)
(2.36422 -1.4712 0)
(2.52113 -1.41638 0)
(2.64708 -1.28703 0)
(2.74216 -1.09818 0)
(2.80737 -0.868546 0)
(2.84673 -0.616582 0)
(2.86662 -0.356475 0)
(2.8752 -0.0955431 0)
(2.87847 0.166179 0)
(2.87474 0.430384 0)
(2.85871 0.694313 0)
(2.82421 0.948348 0)
(2.7653 1.17623 0)
(2.67815 1.35683 0)
(2.56323 1.4692 0)
(1.02354 -0.0868063 0)
(1.0313 -0.11638 0)
(1.04192 -0.154267 0)
(1.05624 -0.20404 0)
(1.07616 -0.269349 0)
(1.10293 -0.354304 0)
(1.14464 -0.468181 0)
(1.21233 -0.618347 0)
(1.30162 -0.803953 0)
(1.41405 -1.01942 0)
(1.55332 -1.23934 0)
(1.69838 -1.41842 0)
(1.82458 -1.52141 0)
(1.92341 -1.53643 0)
(1.99746 -1.46761 0)
(2.04977 -1.32472 0)
(2.08193 -1.1228 0)
(2.09629 -0.881887 0)
(2.09785 -0.621753 0)
(2.09272 -0.357378 0)
(2.08918 -0.0957518 0)
(2.09486 0.165505 0)
(2.10778 0.430781 0)
(2.12182 0.698729 0)
(2.13062 0.959853 0)
(2.12813 1.19739 0)
(2.10954 1.3887 0)
(2.07177 1.51168 0)
(1.01002 -0.0891351 0)
(1.0141 -0.119715 0)
(1.0196 -0.158753 0)
(1.02692 -0.210354 0)
(1.03681 -0.277989 0)
(1.05129 -0.36786 0)
(1.08185 -0.491469 0)
(1.12749 -0.650305 0)
(1.17366 -0.843397 0)
(1.23349 -1.06972 0)
(1.30832 -1.29473 0)
(1.37068 -1.46632 0)
(1.40532 -1.55585 0)
(1.4151 -1.55873 0)
(1.40844 -1.48033 0)
(1.38937 -1.32891 0)
(1.36223 -1.11966 0)
(1.33141 -0.87394 0)
(1.30194 -0.611929 0)
(1.27749 -0.349124 0)
(1.26476 -0.0934718 0)
(1.27202 0.160468 0)
(1.29739 0.420486 0)
(1.33521 0.686257 0)
(1.38031 0.948095 0)
(1.42722 1.18896 0)
(1.4712 1.38515 0)
(1.50743 1.51535 0)
(0.996038 -0.089847 0)
(0.996556 -0.12077 0)
(0.996803 -0.16006 0)
(0.996438 -0.212219 0)
(0.995611 -0.281001 0)
(0.999771 -0.37567 0)
(1.01729 -0.504876 0)
(1.0267 -0.662087 0)
(1.01829 -0.856041 0)
(1.02083 -1.08893 0)
(1.02235 -1.31079 0)
(0.995526 -1.46878 0)
(0.938521 -1.54498 0)
(0.86185 -1.53899 0)
(0.776924 -1.45481 0)
(0.68909 -1.30036 0)
(0.607364 -1.0903 0)
(0.53751 -0.846368 0)
(0.483567 -0.587965 0)
(0.44632 -0.331182 0)
(0.430421 -0.0853032 0)
(0.438322 0.156073 0)
(0.469712 0.405012 0)
(0.523318 0.662174 0)
(0.597356 0.917509 0)
(0.68732 1.15514 0)
(0.787391 1.34871 0)
(0.893294 1.48137 0)
(0.981832 -0.0890236 0)
(0.979031 -0.119519 0)
(0.97382 -0.158013 0)
(0.965229 -0.209557 0)
(0.955054 -0.279192 0)
(0.951349 -0.37736 0)
(0.947458 -0.502937 0)
(0.905598 -0.647563 0)
(0.840495 -0.839798 0)
(0.78457 -1.07449 0)
(0.706502 -1.28447 0)
(0.59024 -1.4257 0)
(0.445243 -1.49035 0)
(0.285625 -1.47815 0)
(0.124698 -1.39189 0)
(-0.0286695 -1.24063 0)
(-0.161423 -1.03728 0)
(-0.267338 -0.802386 0)
(-0.343201 -0.554656 0)
(-0.38895 -0.309984 0)
(-0.404942 -0.0756657 0)
(-0.401902 0.153737 0)
(-0.366734 0.388616 0)
(-0.300314 0.630925 0)
(-0.200632 0.872182 0)
(-0.0729354 1.09789 0)
(0.0799908 1.28386 0)
(0.252721 1.4126 0)
(0.967551 -0.0868753 0)
(0.961793 -0.115857 0)
(0.951068 -0.152472 0)
(0.93515 -0.202997 0)
(0.919003 -0.273573 0)
(0.905595 -0.370043 0)
(0.865558 -0.478879 0)
(0.764583 -0.604176 0)
(0.650057 -0.795746 0)
(0.534461 -1.02489 0)
(0.374938 -1.2155 0)
(0.173913 -1.33949 0)
(-0.0538241 -1.39414 0)
(-0.292432 -1.37827 0)
(-0.526631 -1.29504 0)
(-0.742371 -1.15308 0)
(-0.925804 -0.964258 0)
(-1.06926 -0.746584 0)
(-1.17004 -0.5175 0)
(-1.23014 -0.289905 0)
(-1.25413 -0.0694297 0)
(-1.24821 0.146343 0)
(-1.20605 0.365171 0)
(-1.12407 0.589069 0)
(-0.998806 0.811161 0)
(-0.832632 1.0183 0)
(-0.627273 1.19211 0)
(-0.392991 1.31004 0)
(0.953442 -0.0835413 0)
(0.945686 -0.109473 0)
(0.930537 -0.143632 0)
(0.910052 -0.193698 0)
(0.888987 -0.263382 0)
(0.855224 -0.347796 0)
(0.76445 -0.427858 0)
(0.610482 -0.53467 0)
(0.458116 -0.726648 0)
(0.28102 -0.939929 0)
(0.0440729 -1.10648 0)
(-0.234566 -1.2136 0)
(-0.538875 -1.25889 0)
(-0.851672 -1.24203 0)
(-1.1549 -1.1662 0)
(-1.43117 -1.03859 0)
(-1.66583 -0.870136 0)
(-1.84999 -0.675929 0)
(-1.98099 -0.470767 0)
(-2.06088 -0.265596 0)
(-2.09418 -0.0652139 0)
(-2.08572 0.131913 0)
(-2.03279 0.330891 0)
(-1.93088 0.532568 0)
(-1.77613 0.731188 0)
(-1.56869 0.915405 0)
(-1.31258 1.06956 0)
(-1.02066 1.17441 0)
(0.941368 -0.0794173 0)
(0.934118 -0.101472 0)
(0.916334 -0.133431 0)
(0.891324 -0.182308 0)
(0.856822 -0.244329 0)
(0.785822 -0.30421 0)
(0.64138 -0.351045 0)
(0.455547 -0.446937 0)
(0.274475 -0.635174 0)
(0.0364587 -0.821035 0)
(-0.268908 -0.961363 0)
(-0.616957 -1.05117 0)
(-0.990659 -1.08784 0)
(-1.37074 -1.0717 0)
(-1.73723 -1.00589 0)
(-2.07092 -0.89648 0)
(-2.35589 -0.7527 0)
(-2.5821 -0.586681 0)
(-2.74585 -0.410326 0)
(-2.8482 -0.232567 0)
(-2.89262 -0.0577118 0)
(-2.88256 0.114691 0)
(-2.81683 0.287918 0)
(-2.69189 0.462005 0)
(-2.5047 0.632044 0)
(-2.25589 0.788549 0)
(-1.95176 0.918555 0)
(-1.6059 1.00815 0)
(0.935911 -0.0790469 0)
(0.93068 -0.0954076 0)
(0.906505 -0.123492 0)
(0.86586 -0.165277 0)
(0.799898 -0.209112 0)
(0.681996 -0.23748 0)
(0.502803 -0.258041 0)
(0.314089 -0.350918 0)
(0.107626 -0.522696 0)
(-0.184645 -0.671539 0)
(-0.547622 -0.784409 0)
(-0.956172 -0.856212 0)
(-1.39039 -0.884699 0)
(-1.8291 -0.870659 0)
(-2.251 -0.816983 0)
(-2.63586 -0.728653 0)
(-2.96685 -0.61301 0)
(-3.23267 -0.479272 0)
(-3.42805 -0.33649 0)
(-3.5525 -0.191528 0)
(-3.60802 -0.0479478 0)
(-3.59694 0.0939839 0)
(-3.51874 0.235904 0)
(-3.37117 0.377363 0)
(-3.15285 0.514423 0)
(-2.86601 0.639722 0)
(-2.5185 0.743293 0)
(-2.12459 0.814854 0)
(0.933426 -0.0693987 0)
(0.920379 -0.0788992 0)
(0.873206 -0.101666 0)
(0.797833 -0.130739 0)
(0.690253 -0.152235 0)
(0.540474 -0.155025 0)
(0.366953 -0.16465 0)
(0.198358 -0.253263 0)
(-0.0334173 -0.389759 0)
(-0.367405 -0.497485 0)
(-0.777293 -0.580713 0)
(-1.23561 -0.633568 0)
(-1.71996 -0.654215 0)
(-2.20713 -0.643444 0)
(-2.67455 -0.603625 0)
(-3.10133 -0.538566 0)
(-3.47016 -0.453658 0)
(-3.76888 -0.355429 0)
(-3.99089 -0.250237 0)
(-4.13415 -0.142936 0)
(-4.19929 -0.036148 0)
(-4.18769 0.0696343 0)
(-4.09922 0.175148 0)
(-3.93276 0.2797 0)
(-3.68848 0.380345 0)
(-3.3702 0.471806 0)
(-2.98717 0.547002 0)
(-2.55482 0.598728 0)
(0.880617 -0.0537798 0)
(0.841209 -0.0402545 0)
(0.758029 -0.0548762 0)
(0.649914 -0.0739495 0)
(0.523396 -0.0812155 0)
(0.38529 -0.0744887 0)
(0.260124 -0.0854725 0)
(0.116145 -0.155189 0)
(-0.138072 -0.239998 0)
(-0.499311 -0.305567 0)
(-0.943361 -0.356643 0)
(-1.43885 -0.389319 0)
(-1.96125 -0.402098 0)
(-2.48541 -0.395497 0)
(-2.98737 -0.37107 0)
(-3.44547 -0.331238 0)
(-3.84198 -0.279318 0)
(-4.16427 -0.219231 0)
(-4.40508 -0.154759 0)
(-4.56156 -0.0887946 0)
(-4.63359 -0.0229415 0)
(-4.62199 0.0423794 0)
(-4.52665 0.107438 0)
(-4.34719 0.171674 0)
(-4.08495 0.233237 0)
(-3.74499 0.288937 0)
(-3.33775 0.334573 0)
(-2.87972 0.36594 0)
(0.707909 -0.0678333 0)
(0.654643 -0.0384047 0)
(0.55653 -0.0316012 0)
(0.458355 -0.03 0)
(0.360665 -0.0244401 0)
(0.272741 -0.0178564 0)
(0.203067 -0.0249433 0)
(0.0728594 -0.0526378 0)
(-0.194246 -0.08082 0)
(-0.569864 -0.103049 0)
(-1.03234 -0.120352 0)
(-1.549 -0.131502 0)
(-2.09401 -0.135857 0)
(-2.64095 -0.133592 0)
(-3.16477 -0.125262 0)
(-3.6431 -0.111716 0)
(-4.05766 -0.0941016 0)
(-4.39539 -0.073748 0)
(-4.64856 -0.051927 0)
(-4.81384 -0.0296076 0)
(-4.89072 -0.00733109 0)
(-4.87986 0.0147494 0)
(-4.78166 0.0367152 0)
(-4.59628 0.0583682 0)
(-4.32563 0.079074 0)
(-3.97545 0.0977618 0)
(-3.55683 0.11304 0)
(-3.08673 0.123518 0)
(2.39687 0.339853 0)
(1.69402 0.353288 0)
(1.1672 0.287317 0)
(0.849732 0.175234 0)
(0.597449 0.0571264 0)
(0.659007 -0.310471 0)
(0.829054 -0.974953 0)
(-0.0770091 -1.51603 0)
(3.04177 0.634475 0)
(2.67173 0.690978 0)
(2.20008 0.592324 0)
(1.74527 0.403509 0)
(1.40898 0.158461 0)
(1.33303 -0.255245 0)
(1.24318 -0.798266 0)
(0.610826 -1.1562 0)
(3.1249 0.771925 0)
(2.94605 0.858997 0)
(2.72997 0.799964 0)
(2.43686 0.607604 0)
(2.15221 0.306916 0)
(1.93699 -0.127587 0)
(1.63351 -0.586512 0)
(0.969509 -0.782792 0)
(3.14251 0.870445 0)
(2.9434 0.921411 0)
(2.82129 0.875236 0)
(2.67298 0.704593 0)
(2.47463 0.411254 0)
(2.22417 0.0178021 0)
(1.84317 -0.34078 0)
(1.24846 -0.467197 0)
(3.14764 1.00269 0)
(2.89403 1.0016 0)
(2.74088 0.927474 0)
(2.62283 0.760616 0)
(2.47104 0.496897 0)
(2.23361 0.170051 0)
(1.87043 -0.104472 0)
(1.3827 -0.197364 0)
(3.1031 1.15169 0)
(2.82986 1.11502 0)
(2.6288 1.00652 0)
(2.47986 0.827941 0)
(2.32782 0.586616 0)
(2.11374 0.31351 0)
(1.8011 0.096465 0)
(1.4193 0.0193321 0)
(2.9762 1.29242 0)
(2.72102 1.23689 0)
(2.50397 1.10488 0)
(2.32599 0.912395 0)
(2.15866 0.680781 0)
(1.95931 0.441087 0)
(1.69832 0.255678 0)
(1.40829 0.182714 0)
(2.75124 1.41068 0)
(2.54131 1.34805 0)
(2.34419 1.20468 0)
(2.16541 1.00315 0)
(1.99483 0.77433 0)
(1.81021 0.551962 0)
(1.59257 0.384358 0)
(1.3725 0.308153 0)
(2.42744 1.498 0)
(2.28062 1.43642 0)
(2.13006 1.29123 0)
(1.97985 1.0875 0)
(1.82822 0.860707 0)
(1.66785 0.646882 0)
(1.49006 0.486099 0)
(1.324 0.402341 0)
(2.01479 1.5489 0)
(1.94178 1.49344 0)
(1.85493 1.35321 0)
(1.75537 1.15372 0)
(1.64369 0.931617 0)
(1.52069 0.723523 0)
(1.3852 0.564218 0)
(1.26564 0.471557 0)
(1.53003 1.56062 0)
(1.53603 1.51366 0)
(1.52277 1.38274 0)
(1.48802 1.19267 0)
(1.43179 0.979109 0)
(1.35817 0.777695 0)
(1.27018 0.61934 0)
(1.19556 0.519218 0)
(0.993358 1.53247 0)
(1.07951 1.49446 0)
(1.14438 1.37538 0)
(1.18211 1.19855 0)
(1.19081 0.997415 0)
(1.17511 0.805482 0)
(1.13956 0.650306 0)
(1.11103 0.546129 0)
(0.426654 1.46557 0)
(0.591152 1.43538 0)
(0.734575 1.32938 0)
(0.847312 1.16853 0)
(0.925098 0.983318 0)
(0.971744 0.804319 0)
(0.991586 0.655784 0)
(1.0105 0.551988 0)
(-0.148937 1.3613 0)
(0.0909585 1.33762 0)
(0.310385 1.24501 0)
(0.496545 1.10228 0)
(0.643094 0.935897 0)
(0.752541 0.773248 0)
(0.828027 0.635186 0)
(0.894486 0.53648 0)
(-0.710763 1.22124 0)
(-0.400818 1.20285 0)
(-0.110624 1.1241 0)
(0.144192 1.00066 0)
(0.355436 0.856159 0)
(0.52475 0.712981 0)
(0.653385 0.589038 0)
(0.765563 0.499824 0)
(-1.23613 1.0484 0)
(-0.863737 1.03394 0)
(-0.510909 0.969143 0)
(-0.19502 0.866853 0)
(0.0740781 0.746002 0)
(0.297157 0.625544 0)
(0.473934 0.519136 0)
(0.628029 0.443071 0)
(-1.70353 0.846819 0)
(-1.2787 0.835614 0)
(-0.873614 0.78502 0)
(-0.506832 0.705044 0)
(-0.188874 0.609358 0)
(0.0798913 0.513325 0)
(0.297194 0.428229 0)
(0.487409 0.368153 0)
(-2.09395 0.621729 0)
(-1.62898 0.613803 0)
(-1.18401 0.577774 0)
(-0.778255 0.520641 0)
(-0.422561 0.451703 0)
(-0.117904 0.381368 0)
(0.131797 0.318631 0)
(0.350476 0.277391 0)
(-2.39261 0.379983 0)
(-1.90122 0.375476 0)
(-1.42975 0.354041 0)
(-0.997559 0.31971 0)
(-0.615808 0.27802 0)
(-0.287229 0.23504 0)
(-0.0137479 0.194556 0)
(0.224851 0.173792 0)
(-2.58717 0.128168 0)
(-2.08299 0.126568 0)