/*--------------------------------*- C++ -*----------------------------------*\
| =========                 |                                                 |
| \\      /  F ield         | OpenFOAM: The Open Source CFD Toolbox           |
|  \\    /   O peration     | Version:  2.4.0                                 |
|   \\  /    A nd           | Web:      www.OpenFOAM.org                      |
|    \\/     M anipulation  |                                                 |
\*---------------------------------------------------------------------------*/
FoamFile
{
    version     2.0;
    format      ascii;
    class       volScalarField;
    location    "6.04";
    object      epsilon;
}
// * * * * * * * * * * * * * * * * * * * * * * * * * * * * * * * * * * * * * //

dimensions      [0 2 -3 0 0 0 0];

internalField   nonuniform List<scalar> 
6000
(
54.173
1.09755
0.0202923
0.134477
0.0725427
0.0863271
0.0616068
0.0575633
0.0461089
0.0419324
0.0364986
0.0342269
0.0322079
0.0318875
0.0321873
0.0336145
0.0357685
0.0388641
0.042772
0.0476068
0.0533432
0.0600389
0.0676778
0.0762509
0.0856898
0.0959068
0.106768
0.118087
0.129609
0.141002
0.151857
0.161693
0.169965
0.176059
0.179353
0.179264
0.175316
0.167164
0.154802
0.138509
0.119288
0.0984489
0.0781228
0.0708368
0.109383
0.166482
0.245671
0.361459
0.511179
0.733951
0.993414
1.41945
1.83183
2.70133
3.26668
5.3006
5.73512
11.4735
10.3805
29.1924
17.7229
0.975454
0.0253704
0.0742169
0.04182
0.0473855
0.0343735
0.0316237
0.0254921
0.0230086
0.0200438
0.0186787
0.01751
0.0171977
0.0172203
0.0177939
0.0187202
0.0200798
0.0218012
0.02392
0.0264121
0.0292892
0.0325334
0.0361314
0.0400494
0.0442491
0.0486788
0.0532714
0.0579372
0.0625644
0.0670162
0.0711327
0.074732
0.0776006
0.079528
0.0802947
0.0797049
0.0775834
0.0738457
0.0684784
0.0617158
0.0539139
0.0458783
0.0437788
0.0626618
0.0889895
0.123636
0.171707
0.231875
0.31769
0.416915
0.572761
0.728354
1.03378
1.25638
1.9437
2.17662
4.04143
3.94912
9.81879
7.13598
0.711148
0.030308
0.0435407
0.0252875
0.0273072
0.020075
0.0182032
0.0147609
0.0132412
0.0115602
0.0107337
0.010056
0.00983884
0.00981994
0.010095
0.0105633
0.011257
0.0121383
0.0132192
0.0144858
0.01594
0.0175717
0.0193732
0.0213291
0.0234234
0.0256353
0.0279391
0.0303002
0.0326764
0.0350154
0.0372562
0.039326
0.0411412
0.0426136
0.0436406
0.0441233
0.0439598
0.043071
0.0413954
0.0389711
0.0358969
0.0325456
0.0324227
0.0433605
0.0579116
0.0761578
0.100098
0.128971
0.168035
0.212603
0.278775
0.34666
0.469412
0.569063
0.832064
0.958181
1.63882
1.71912
3.76167
3.42004
0.518232
0.0345365
0.0274537
0.0160617
0.0164814
0.0122297
0.0109332
0.00891346
0.00795889
0.00697643
0.00647591
0.00608848
0.00596551
0.00597003
0.00614602
0.00644121
0.00686943
0.00741136
0.00807203
0.00884439
0.00972902
0.010721
0.0118165
0.0130083
0.0142893
0.0156501
0.0170792
0.0185609
0.020076
0.0216008
0.0231067
0.0245577
0.0259225
0.02715
0.0281879
0.0289827
0.0294761
0.0296159
0.0293541
0.0286878
0.0276408
0.0264094
0.0271541
0.0343046
0.043517
0.0546818
0.0686938
0.0851499
0.106335
0.130262
0.163593
0.198627
0.256207
0.307692
0.422897
0.495167
0.774864
0.861215
1.65115
1.89782
0.395524
0.038651
0.0190395
0.0107889
0.0104254
0.00776305
0.00683742
0.00559984
0.00498547
0.00439812
0.00409875
0.00388694
0.00383737
0.00387591
0.00402353
0.00425262
0.00456997
0.00496599
0.00544353
0.00599947
0.00663435
0.0073458
0.00813179
0.00898853
0.00991215
0.0108978
0.0119394
0.0130288
0.0141561
0.0153093
0.0164739
0.0176329
0.0187736
0.0198659
0.0208824
0.0217936
0.022566
0.023166
0.0235594
0.023732
0.0236787
0.0235139
0.0246577
0.0297952
0.0362441
0.0438568
0.0530769
0.0637323
0.0769225
0.0918275
0.11144
0.132679
0.164365
0.195392
0.253982
0.299832
0.430767
0.498582
0.841365
1.19136
0.318419
0.0429768
0.0149622
0.00776913
0.00694123
0.00514228
0.00445212
0.00365823
0.00325298
0.00289654
0.00272336
0.00261962
0.0026222
0.00268944
0.00283187
0.00303482
0.00330237
0.00363013
0.00402029
0.00447183
0.00498538
0.00555986
0.00619412
0.0068861
0.00763373
0.00843456
0.00928555
0.0101828
0.0111216
0.0120963
0.0130996
0.0141265
0.0151686
0.0162083
0.0172297
0.0182148
0.0191417
0.0199866
0.0207235
0.0213362
0.0218097
0.0222179
0.0235496
0.0275235
0.032398
0.0380248
0.0446305
0.0521655
0.0611969
0.0714499
0.0843449
0.098776
0.118613
0.139771
0.173991
0.206305
0.276283
0.328273
0.495785
0.829185
0.268834
0.0475675
0.0135343
0.00612352
0.00490773
0.00357087
0.00302516
0.00248839
0.00221337
0.00199529
0.00190209
0.0018655
0.00190328
0.00199115
0.00213489
0.00232696
0.00257044
0.00286385
0.00320927
0.00360683
0.00405742
0.00456078
0.00511659
0.00572401
0.00638245
0.00709124
0.00784951
0.00865601
0.00950914
0.0104066
0.011345
0.0123241
0.013336
0.0143696
0.0154143
0.016457
0.0174821
0.0184711
0.0194041
0.0202669
0.0210411
0.0217788
0.0232001
0.0264484
0.03035
0.0347674
0.0398126
0.0454933
0.0521105
0.0596387
0.0687678
0.0792668
0.0928208
0.108352
0.130562
0.154989
0.19694
0.237983
0.328534
0.62842
0.235882
0.052331
0.0138406
0.00540432
0.0037371
0.00262104
0.00215554
0.00176825
0.00157429
0.00144035
0.00139799
0.00140336
0.00146435
0.00156637
0.0017131
0.00190107
0.0021331
0.0024094
0.00273216
0.00310233
0.00352116
0.00398915
0.00450676
0.00507427
0.00569218
0.00636114
0.00708164
0.0078539
0.00867781
0.00955266
0.010477
0.0114504
0.012466
0.0135161
0.0145921
0.0156838
0.016779
0.0178628
0.0189199
0.0199393
0.0208975
0.0218385
0.0233009
0.0260662
0.0293222
0.0329471
0.0369892
0.0414813
0.0465831
0.0523768
0.0591911
0.0671704
0.0769927
0.0888555
0.104356
0.123455
0.150927
0.183922
0.23679
0.510221
0.213249
0.0571116
0.0153577
0.00536389
0.00311876
0.00205818
0.00162325
0.00131965
0.00117471
0.00109196
0.00108178
0.00111362
0.00119013
0.0013023
0.00145289
0.00164083
0.00186896
0.00213858
0.00245211
0.00281114
0.00321737
0.003672
0.00417618
0.004731
0.00533775
0.00599782
0.0067124
0.0074824
0.00830832
0.00918999
0.0101266
0.0111162
0.0121534
0.0132316
0.0143437
0.0154807
0.0166327
0.0177873
0.0189323
0.0200589
0.0211366
0.0222112
0.0236889
0.0261145
0.0289156
0.0319874
0.035342
0.0390229
0.0431109
0.047732
0.0530282
0.0592925
0.0667254
0.076024
0.0874101
0.102588
0.121794
0.148454
0.181233
0.437373
0.197245
0.0617388
0.0177429
0.00586869
0.00289328
0.00175345
0.00130558
0.00104198
0.000923907
0.000871461
0.00088141
0.000930321
0.00101782
0.00113814
0.00129362
0.00148467
0.00171425
0.00198438
0.00229779
0.00265664
0.00306305
0.00351881
0.0040256
0.00458503
0.00519884
0.00586881
0.00659646
0.0073829
0.00822884
0.00913424
0.0100975
0.011116
0.0121852
0.0132991
0.0144509
0.0156325
0.0168353
0.0180483
0.019262
0.0204661
0.0216265
0.0227925
0.0242707
0.026446
0.02891
0.0315749
0.0344317
0.0375281
0.0408996
0.0446871
0.0489337
0.0539806
0.0597987
0.0672448
0.0759424
0.0881597
0.102273
0.123871
0.14528
0.390905
0.185658
0.0660581
0.0207416
0.00683933
0.00298476
0.00163843
0.0011343
0.00087802
0.000770146
0.000734008
0.000756124
0.000816388
0.000912388
0.00104018
0.00120183
0.00139865
0.00163377
0.00190976
0.00222967
0.00259613
0.00301165
0.00347844
0.00399857
0.00457399
0.00520663
0.00589845
0.00665108
0.00746563
0.00834283
0.00928226
0.0102811
0.0113369
0.012445
0.0135997
0.0147941
0.0160207
0.0172714
0.0185364
0.0198076
0.0210678
0.0222893
0.0235192
0.0249885
0.0269721
0.0291757
0.0315273
0.0340065
0.0366615
0.0395019
0.0426702
0.0461565
0.0503072
0.054984
0.0610606
0.0679155
0.0778867
0.0886791
0.106288
0.120964
0.360498
0.177122
0.0699518
0.0241409
0.00822611
0.00335332
0.001681
0.0010728
0.000795683
0.000683966
0.00065392
0.000682623
0.000750677
0.000853896
0.000989169
0.00115834
0.00136325
0.00160722
0.00189322
0.00222463
0.00260444
0.00303552
0.0035204
0.00406139
0.00466062
0.00532011
0.00604186
0.0068275
0.00767802
0.00859408
0.00957422
0.0106149
0.0117135
0.0128654
0.0140646
0.015304
0.016576
0.0178732
0.0191858
0.0205055
0.0218077
0.0230759
0.0243504
0.0258045
0.0276357
0.0296309
0.031732
0.033913
0.036221
0.0386507
0.0413407
0.0442529
0.0477217
0.0515588
0.0566001
0.06214
0.0703989
0.0789243
0.0934387
0.10396
0.340228
0.170763
0.0733482
0.0277505
0.0099831
0.00397898
0.00187277
0.00110376
0.000777952
0.000649022
0.000616643
0.000647584
0.000720999
0.00083076
0.000973869
0.00115187
0.0013669
0.00162245
0.00192179
0.0022686
0.00266621
0.00311774
0.00362595
0.00419333
0.00482207
0.00551419
0.00627168
0.0070961
0.00798822
0.00894867
0.00997402
0.0110609
0.0122064
0.0134055
0.0146517
0.0159377
0.0172554
0.0185978
0.0199551
0.0213135
0.0226491
0.0239532
0.0252578
0.0266919
0.0283979
0.0302208
0.032115
0.0340521
0.0360777
0.0381781
0.0404858
0.0429483
0.0458818
0.0490784
0.0533186
0.0578854
0.0648263
0.0717408
0.0838697
0.0917188
0.326536
0.166004
0.076222
0.0313985
0.0120566
0.00485411
0.00221406
0.00122254
0.000817317
0.00065698
0.000614303
0.000643557
0.000720395
0.000836271
0.000987678
0.00117574
0.00140267
0.00167211
0.00198757
0.00235298
0.00277193
0.00324776
0.0037834
0.00438144
0.00504407
0.00577322
0.00657084
0.00743838
0.00837634
0.00938503
0.0104589
0.0115953
0.0127904
0.0140389
0.0153338
0.0166671
0.0180304
0.0194166
0.0208145
0.022203
0.0235663
0.0248974
0.0262206
0.0276308
0.0292306
0.0309071
0.0326254
0.0343569
0.0361457
0.0379734
0.0399661
0.0420647
0.0445658
0.0472577
0.0508635
0.0546861
0.060598
0.0663259
0.0766107
0.0826652
0.317206
0.162446
0.0785874
0.034935
0.0143796
0.00597353
0.00270827
0.00143396
0.000912822
0.000704737
0.000643262
0.000666749
0.000745138
0.000866722
0.00102687
0.0012261
0.00146654
0.0017519
0.00208585
0.00247254
0.00291579
0.0034191
0.00398551
0.00461762
0.00531762
0.00608728
0.00692846
0.0078425
0.00882954
0.00988909
0.0110141
0.012202
0.0134487
0.014748
0.0160923
0.0174731
0.0188812
0.0203096
0.021741
0.0231546
0.0245403
0.0258905
0.027223
0.0286055
0.0301125
0.0316612
0.0332262
0.0347797
0.0363645
0.0379603
0.0396865
0.0414819
0.043625
0.0459072
0.0489991
0.0522355
0.0573304
0.0621557
0.0710009
0.0757983
0.310816
0.159806
0.0804884
0.0382386
0.016871
0.00732563
0.00336196
0.001747
0.00106865
0.000792985
0.000702824
0.00071584
0.000793659
0.000920404
0.00108965
0.00130105
0.00155641
0.0018595
0.00221404
0.00262436
0.00309445
0.00362792
0.00422787
0.00489691
0.00563711
0.00645008
0.00733755
0.00830076
0.00933942
0.0104515
0.0116294
0.0128704
0.0141696
0.0155202
0.016914
0.0183416
0.0197931
0.0212599
0.0227179
0.0241531
0.0255559
0.0269183
0.0282518
0.0296033
0.0310266
0.0324611
0.0338892
0.0352851
0.0366903
0.0380838
0.0395793
0.0411158
0.0429555
0.0448966
0.0475635
0.0503255
0.0547601
0.0588785
0.0665843
0.0704653
0.306431
0.157877
0.0819867
0.0412216
0.0194396
0.00888759
0.00418316
0.00216972
0.00129362
0.000925565
0.000794601
0.000791359
0.000865969
0.000997055
0.00117559
0.0014
0.00167158
0.00199403
0.00237103
0.00280706
0.00330621
0.00387217
0.00450804
0.00521638
0.00599916
0.00685771
0.00779364
0.0088081
0.00990036
0.011066
0.0122978
0.0135925
0.0149445
0.0163463
0.0177889
0.0192621
0.020755
0.0222525
0.0237337
0.0251864
0.0266011
0.0279688
0.0292958
0.0306129
0.0319587
0.0332889
0.0345925
0.0358459
0.0370897
0.0383031
0.039595
0.0409057
0.0424831
0.0441337
0.0464419
0.048811
0.0527024
0.0562526
0.0630422
0.0662301
0.303426
0.156499
0.083152
0.0438312
0.0219906
0.0106227
0.00517496
0.00271143
0.00159836
0.00110928
0.000922247
0.000895398
0.000963362
0.00109756
0.00128532
0.00152346
0.00181239
0.00215569
0.00255684
0.00302043
0.00355062
0.00415109
0.00482493
0.00557459
0.00640189
0.00730785
0.00829396
0.00936125
0.0105083
0.0117279
0.0130141
0.0143626
0.015767
0.0172192
0.0187092
0.0202259
0.0217546
0.0232775
0.0247782
0.026244
0.0276652
0.0290317
0.0303454
0.0316244
0.0328966
0.0341295
0.0353177
0.03644
0.0375363
0.0385868
0.0396956
0.0408058
0.0421524
0.043551
0.0455511
0.047588
0.0510246
0.0541078
0.060148
0.062795
0.301375
0.155549
0.0840542
0.0460476
0.0244347
0.0124804
0.00633214
0.00338222
0.00199175
0.00135395
0.00109144
0.00103151
0.00108827
0.00122377
0.00142041
0.00167278
0.00198003
0.00234552
0.00277236
0.00326518
0.00382814
0.0044649
0.00517845
0.0059711
0.00684452
0.00779933
0.00883688
0.00995816
0.0111602
0.0124342
0.0137746
0.0151762
0.016632
0.018133
0.0196684
0.0212245
0.022782
0.0243269
0.025843
0.0273171
0.0287389
0.0300977
0.0313915
0.0326287
0.0338294
0.03497
0.0360494
0.0370492
0.0380088
0.0389095
0.0398517
0.0407809
0.0419215
0.0430976
0.0448292
0.0465802
0.0496299
0.0523216
0.0577385
0.0599516
0.299986
0.154932
0.0847573
0.0478794
0.0266951
0.0143985
0.0076384
0.0041885
0.00248402
0.00166938
0.00130998
0.00120472
0.00124425
0.00137847
0.00158319
0.00185006
0.00217644
0.0025653
0.00301918
0.00354272
0.00413998
0.00481456
0.00556928
0.00640631
0.00732708
0.0083318
0.00942167
0.0105977
0.0118542
0.0131825
0.0145763
0.0160299
0.0175354
0.019083
0.0206604
0.0222481
0.0238308
0.0253936
0.0269202
0.0283971
0.0298137
0.0311583
0.0324257
0.0336172
0.0347471
0.0357985
0.036774
0.037658
0.0384892
0.0392505
0.0400391
0.0408032
0.0417575
0.0427348
0.0442288
0.04573
0.0484457
0.0508037
0.0556938
0.0575514
0.299055
0.154568
0.0853167
0.0493559
0.0287143
0.0163088
0.00906499
0.00513031
0.00308495
0.00206435
0.0015877
0.00142163
0.00143595
0.00156531
0.00177678
0.00205812
0.00240421
0.00281745
0.00329955
0.00385509
0.00448798
0.00520165
0.00599874
0.00688118
0.00785022
0.00890556
0.0100482
0.0112794
0.0125894
0.013971
0.0154169
0.0169207
0.0184736
0.0200649
0.0216762
0.0232915
0.0248949
0.0264707
0.0280026
0.0294766
0.0308816
0.0322053
0.03344
0.0345815
0.0356404
0.0366044
0.0374795
0.0382526
0.038962
0.0395926
0.0402381
0.0408499
0.0416342
0.0424317
0.0437133
0.0449935
0.0474171
0.0494864
0.0539247
0.055486
0.298442
0.154397
0.0857773
0.0505206
0.0304568
0.0181428
0.0105711
0.00619898
0.00380107
0.00254889
0.00193327
0.00169056
0.00166926
0.00178885
0.00200502
0.00230041
0.00266652
0.00310496
0.00361628
0.0042049
0.0048745
0.00562828
0.00646864
0.00739723
0.00841508
0.00952135
0.0107168
0.012003
0.0133649
0.0147986
0.0162947
0.0178461
0.0194434
0.0210704
0.0227113
0.0243496
0.0259686
0.027552
0.0290833
0.030548
0.0319348
0.0332308
0.0344264
0.0355137
0.0365002
0.0373776
0.0381547
0.0388206
0.0394137
0.0399204
0.0404318
0.0409022
0.04153
0.0421637
0.0432535
0.0443363
0.0465013
0.0483183
0.0523638
0.0536748
0.298046
0.154368
0.0861738
0.0514239
0.0319094
0.0198388
0.0121062
0.00737536
0.00463343
0.00313143
0.00235582
0.00202023
0.00195131
0.00205454
0.00227247
0.002581
0.00296715
0.00343137
0.00397266
0.00459521
0.00530235
0.006097
0.00698121
0.00795632
0.00902318
0.0101803
0.0114282
0.012768
0.0141802
0.0156641
0.0172079
0.0188032
0.0204375
0.0220957
0.0237614
0.0254174
0.0270463
0.0286311
0.0301554
0.0316042
0.0329659
0.0342272
0.0353773
0.0364056
0.0373178
0.0381087
0.0387892
0.0393509
0.039832
0.0402207
0.0406056
0.0409439
0.041427
0.0419103
0.0428259
0.043731
0.0456649
0.0472591
0.0509591
0.0520573
0.2978
0.154442
0.0865316
0.0521174
0.033079
0.0213472
0.0136143
0.00862938
0.00557555
0.00381705
0.00286397
0.00241905
0.0022903
0.00236874
0.00258435
0.00290453
0.00331034
0.00380067
0.00437245
0.00502954
0.00577478
0.00661072
0.00753903
0.00856065
0.00967629
0.0108838
0.0121834
0.0135747
0.0150352
0.0165668
0.0181531
0.0197862
0.0214529
0.0231372
0.0248222
0.0264899
0.0281224
0.029702
0.0312122
0.0326378
0.0339671
0.0351867
0.0362848
0.0372492
0.0380848
0.0387884
0.0393732
0.0398329
0.0402057
0.0404816
0.0407467
0.0409612
0.0413097
0.0416548
0.0424111
0.0431553
0.0448811
0.0462774
0.0496704
0.0505866
0.297654
0.154587
0.0868679
0.0526497
0.033988
0.0226349
0.0150392
0.00992105
0.00661176
0.00460558
0.00346417
0.00289503
0.00269415
0.00273898
0.00294653
0.00327609
0.00370078
0.00421724
0.00481976
0.0055117
0.00629528
0.00717261
0.00814491
0.00921263
0.0103764
0.0116334
0.0129834
0.0144233
0.0159293
0.0175022
0.0191266
0.0207928
0.0224865
0.0241912
0.0258893
0.027562
0.029191
0.0307581
0.0322467
0.0336417
0.0349311
0.0361016
0.0371411
0.0380367
0.0387926
0.0394078
0.0398972
0.0402567
0.0405245
0.0406921
0.0408437
0.0409419
0.0411652
0.0413826
0.0419929
0.0425911
0.0441284
0.0453479
0.0484658
0.0492266
0.297576
0.154779
0.0871933
0.0530638
0.0346698
0.0236868
0.0163305
0.0112033
0.00771645
0.00548978
0.0041591
0.00345462
0.00316992
0.00317234
0.00336628
0.00370108
0.00414338
0.00468567
0.00531888
0.00604572
0.00686757
0.00778604
0.00880179
0.00991476
0.0111255
0.0124306
0.0138294
0.0153116
0.016859
0.0184688
0.0201264
0.0218201
0.0235349
0.0252536
0.0269578
0.0286283
0.0302461
0.031793
0.033252
0.0346083
0.0358499
0.0369639
0.0379382
0.0387599
0.0394329
0.0399583
0.0403523
0.0406129
0.0407785
0.0408422
0.040886
0.0408751
0.0409818
0.0410816
0.0415577
0.0420233
0.043389
0.0444503
0.0473202
0.0479487
0.297541
0.155
0.0875136
0.0533958
0.0351633
0.0245044
0.0174481
0.0124259
0.00885463
0.00645384
0.00494592
0.00410135
0.00372334
0.00367468
0.00384927
0.0041861
0.00464416
0.00521058
0.00587418
0.00663565
0.00749538
0.00845435
0.00951261
0.0106695
0.0119246
0.0132747
0.014718
0.016239
0.0178232
0.0194651
0.0211501
0.0228652
0.0245944
0.02632
0.0280227
0.029683
0.0312815
0.0327996
0.0342207
0.0355299
0.0367157
0.0377656
0.0386681
0.0394105
0.0399973
0.0404311
0.0407295
0.0408927
0.0409589
0.0409228
0.0408643
0.0407511
0.0407494
0.0407411
0.0410941
0.0414392
0.0426484
0.0435682
0.0462133
0.04673
0.297533
0.155235
0.0878311
0.0536738
0.035509
0.025104
0.0183663
0.013541
0.00998403
0.00747273
0.00581462
0.00483427
0.00435759
0.00425048
0.00440002
0.00473543
0.00520741
0.00579698
0.00649019
0.00728544
0.00818195
0.00917997
0.0102789
0.0114774
0.0127741
0.0141664
0.0156492
0.0172047
0.0188204
0.0204887
0.0221948
0.0239244
0.0256607
0.0273852
0.0290783
0.0307198
0.0322902
0.0337707
0.035145
0.0363985
0.0375203
0.0384984
0.0393224
0.0399804
0.0404775
0.0408178
0.0410204
0.0410873
0.0410568
0.0409252
0.04077
0.0405612
0.0404592
0.0403517
0.0405921
0.0408283
0.0418946
0.042688
0.0451287
0.0455524
0.297542
0.155474
0.0881457
0.0539194
0.035745
0.0255125
0.0190749
0.0145077
0.0110586
0.00851274
0.00674685
0.00564633
0.00507195
0.00490175
0.00502141
0.0053521
0.00583617
0.00644786
0.00716978
0.00799776
0.00892968
0.00996493
0.0111022
0.0123395
0.0136747
0.0151057
0.0166223
0.0182071
0.0198485
0.0215368
0.023257
0.0249935
0.0267289
0.0284438
0.0301183
0.0317319
0.0332648
0.0346985
0.0360168
0.0372057
0.038255
0.0391538
0.0398926
0.0404611
0.0408649
0.0411101
0.0412167
0.0411888
0.0410644
0.0408413
0.0405949
0.0402975
0.040103
0.0399054
0.0400431
0.0401815
0.0411176
0.0417985
0.0440531
0.044401
0.29756
0.155711
0.0884561
0.0541475
0.0359052
0.0257629
0.0195788
0.0152963
0.0120329
0.0095334
0.00771558
0.00652307
0.0058603
0.00562681
0.00571368
0.00603709
0.00653179
0.00716477
0.00791459
0.00877423
0.00974
0.0108104
0.0119833
0.0132562
0.0146261
0.0160918
0.0176358
0.0192441
0.0209045
0.0226058
0.0243322
0.0260674
0.027793
0.0294893
0.0311357
0.0327117
0.0341974
0.0355745
0.0368273
0.0379427
0.038911
0.0397228
0.0403701
0.040844
0.0411514
0.0412997
0.0413103
0.041189
0.0409738
0.0406639
0.040332
0.0399528
0.0396739
0.0393952
0.03944
0.0394911
0.040309
0.0408907
0.0429756
0.0432637
0.297582
0.15594
0.0887603
0.0543679
0.036018
0.0258908
0.0198954
0.0158912
0.0128671
0.0104907
0.00868591
0.00744185
0.00670983
0.00641898
0.0064733
0.00678843
0.00729311
0.0079471
0.0087244
0.00961479
0.0106129
0.0117161
0.0129218
0.0142265
0.0156269
0.0171213
0.0186869
0.0203123
0.0219844
0.0236908
0.025415
0.0271399
0.0288463
0.0305142
0.0321226
0.0336507
0.0350791
0.0363897
0.0375674
0.0385999
0.039479
0.0401964
0.0407459
0.0411205
0.0413284
0.0413786
0.0412935
0.0410807
0.040778
0.0403859
0.0399746
0.0395209
0.0391656
0.0388148
0.0387765
0.0387509
0.0394618
0.039957
0.0418874
0.0421309
0.297606
0.156158
0.0890563
0.0545863
0.0361052
0.0259307
0.0200516
0.0162914
0.0135315
0.0113416
0.00961721
0.00837196
0.00760008
0.00726531
0.00729181
0.00760008
0.00811553
0.00879124
0.00959631
0.010517
0.0115462
0.0126801
0.0139153
0.0152479
0.0166745
0.0181906
0.0197716
0.0214068
0.0230828
0.0247857
0.0264987
0.0282036
0.029881
0.0315101
0.0330699
0.0345398
0.0359003
0.0371341
0.038227
0.0391677
0.0399492
0.0405651
0.0410108
0.0412819
0.0413876
0.0413387
0.0411587
0.0408567
0.0404702
0.0400012
0.0395169
0.0389961
0.0385728
0.038159
0.0380474
0.0379555
0.0385704
0.0389912
0.0407815
0.0409946
0.297629
0.156365
0.0893421
0.0548054
0.0361833
0.0259134
0.0200795
0.0165091
0.0140089
0.0120482
0.0104665
0.00927604
0.00850284
0.00814576
0.00815474
0.00846093
0.00899002
0.00968963
0.0105239
0.0114755
0.0125349
0.0136976
0.0149595
0.0163159
0.017764
0.0192945
0.0208839
0.0225212
0.0241926
0.025883
0.027575
0.0292499
0.0308876
0.0324672
0.0339677
0.0353684
0.0366505
0.0377973
0.0387956
0.0396356
0.0403116
0.0408191
0.0411558
0.0413194
0.0413209
0.0411725
0.0408987
0.0405104
0.0400445
0.0395041
0.0389535
0.0383735
0.0378909
0.0374236
0.0372483
0.0371005
0.0376303
0.0379885
0.0396521
0.0398484
0.29765
0.156558
0.0896164
0.0550259
0.0362632
0.0258652
0.0200126
0.0165673
0.0142967
0.0125827
0.0111928
0.0101126
0.00938299
0.00903293
0.00904088
0.00935391
0.0099022
0.0106298
0.0114964
0.0124805
0.0135706
0.0147608
0.0160467
0.0174231
0.0188881
0.0204253
0.0220156
0.023647
0.0253047
0.026973
0.0286339
0.0302682
0.0318555
0.0333745
0.0348044
0.036125
0.037318
0.0383676
0.039262
0.0399926
0.0405556
0.0409485
0.0411714
0.0412244
0.0411202
0.0408727
0.0405071
0.0400358
0.0394953
0.0388897
0.0382801
0.0376491
0.0371161
0.0366048
0.0363759
0.0361827
0.0366379
0.0369451
0.0384948
0.0386871
0.297669
0.156739
0.0898782
0.0552472
0.0363516
0.0258065
0.0198831
0.0164961
0.0144057
0.01293
0.0117616
0.0108398
0.0102005
0.00989271
0.0099221
0.0102554
0.0108316
0.0115938
0.0124977
0.0135177
0.0146401
0.0158578
0.0171657
0.0185585
0.0200345
0.0215722
0.0231561
0.024773
0.0264078
0.0280442
0.0296636
0.0312464
0.032772
0.0342193
0.0355675
0.036797
0.0378903
0.0388329
0.0396141
0.0402272
0.0406704
0.0409432
0.0410483
0.0409884
0.0407779
0.0404322
0.0399775
0.0394275
0.0388179
0.0381538
0.037493
0.0368197
0.0362455
0.0357002
0.0354276
0.0351994
0.0355907
0.0358581
0.0373063
0.0375069
0.297685
0.156907
0.0901271
0.055468
0.0364519
0.0257521
0.0197194
0.0163285
0.0143579
0.013089
0.0121491
0.01142
0.0109139
0.0106861
0.0107641
0.0111354
0.0117514
0.0125572
0.0135056
0.0145671
0.0157252
0.0169717
0.018301
0.0197076
0.0211889
0.0227214
0.0242914
0.0258854
0.027488
0.0290823
0.0306497
0.0321701
0.0336229
0.0349872
0.0362426
0.0373703
0.0383538
0.0391797
0.0398393
0.0403277
0.0406448
0.040793
0.0407772
0.0406031
0.0402866
0.0398448
0.0393045
0.0386809
0.0380084
0.0372933
0.0365895
0.0358829
0.0352772
0.0347078
0.0344018
0.0341492
0.0344869
0.0347257
0.0360843
0.0363047
0.297699
0.157063
0.0903628
0.0556866
0.0365649
0.0257122
0.0195447
0.0160974
0.0141834
0.0130726
0.0123448
0.0118237
0.011484
0.0113719
0.0115278
0.0119582
0.0126288
0.0134895
0.0144917
0.0156024
0.0168018
0.0180802
0.0194317
0.0208507
0.0223328
0.0238547
0.0254039
0.026967
0.0285283
0.0300707
0.0315755
0.0330227
0.0343918
0.0356622
0.0368141
0.0378297
0.0386936
0.0393943
0.0399245
0.0402816
0.0404677
0.0404877
0.0403493
0.0400607
0.0396397
0.0391049
0.0384837
0.0377922
0.037064
0.0363059
0.0355679
0.0348376
0.0342102
0.0336271
0.0332978
0.0330313
0.0333259
0.0335468
0.0348274
0.0350786
0.297711
0.157208
0.0905856
0.0559018
0.0366898
0.0256925
0.0193768
0.0158327
0.0139156
0.0129046
0.0123527
0.012034
0.0118787
0.0119109
0.0121726
0.0126842
0.0134257
0.0143544
0.0154217
0.016591
0.0178394
0.0191551
0.0205316
0.0219632
0.0234432
0.0249501
0.0264724
0.027997
0.0295084
0.0309895
0.0324218
0.0337854
0.0350603
0.0362263
0.0372646
0.0381585
0.0388942
0.0394618
0.039856
0.0400765
0.0401279
0.0400176
0.0397559
0.039354
0.0388313
0.0382078
0.0375113
0.036759
0.0359829
0.0351904
0.0344276
0.0336834
0.0330445
0.0324581
0.032116
0.031846
0.0321077
0.0323213
0.0335351
0.0338273
0.29772
0.157344
0.0907961
0.056112
0.0368249
0.0256953
0.019228
0.0155594
0.0135884
0.0126169
0.0121905
0.012048
0.012077
0.01227
0.0126596
0.0132725
0.0141014
0.0151114
0.0162558
0.0174947
0.0188016
0.020162
0.0215683
0.0230148
0.0244916
0.0259804
0.027471
0.0289507
0.0304045
0.0318158
0.0331664
0.0344368
0.0356077
0.0366598
0.0375755
0.0383393
0.0389391
0.0393669
0.03962
0.0397001
0.0396145
0.0393732
0.0389894
0.0384768
0.0378566
0.0371501
0.0363852
0.0355798
0.0347646
0.0339472
0.0331694
0.0324216
0.0317815
0.0312022
0.0308577
0.0305945
0.0308335
0.03105
0.0322077
0.0325503
0.297728
0.15747
0.0909948
0.0563164
0.0369679
0.0257207
0.0191059
0.0152969
0.0132328
0.0122446
0.0118862
0.0118778
0.0120716
0.0124264
0.0129559
0.0136852
0.0146149
0.0157182
0.0169508
0.0182706
0.0196466
0.0210608
0.0225038
0.0239695
0.0254442
0.0269141
0.0283697
0.0297995
0.0311895
0.0325236
0.0337843
0.0349532
0.0360117
0.0369416
0.0377267
0.0383532
0.038811
0.0390942
0.0392025
0.0391402
0.0389172
0.0385462
0.038043
0.0374242
0.0367122
0.0359297
0.0351045
0.0342551
0.0334103
0.032578
0.0317956
0.0310545
0.0304237
0.0298619
0.0295253
0.029279
0.0295053
0.0297343
0.0308463
0.0312482
0.297734
0.157588
0.0911826
0.0565143
0.0371165
0.0257671
0.0190141
0.0150591
0.0128748
0.0118228
0.0114751
0.0115481
0.0118709
0.0123711
0.0130391
0.0138906
0.0149291
0.0161336
0.0174631
0.0188734
0.0203288
0.0218068
0.0232951
0.0247863
0.0262626
0.0277145
0.029134
0.0305109
0.0318324
0.0330836
0.0342482
0.0353087
0.0362478
0.0370488
0.0376973
0.0381812
0.0384926
0.0386282
0.0385901
0.0383854
0.0380265
0.0375291
0.0369115
0.0361926
0.0353964
0.0345465
0.0336704
0.032787
0.031923
0.0310863
0.0303099
0.0295862
0.0289752
0.0284412
0.0281224
0.0279027
0.0281259
0.0283768
0.0294529
0.0299218
0.297738
0.157698
0.0913601
0.0567051
0.0372685
0.0258317
0.0189534
0.0148545
0.0125346
0.0113832
0.0109948
0.0110931
0.0114971
0.0121107
0.0129007
0.0138684
0.0150146
0.0163218
0.0177518
0.0192586
0.0208017
0.0223528
0.0238955
0.0254199
0.0269037
0.0283411
0.0297257
0.0310489
0.0322995
0.0334642
0.0345281
0.0354754
0.0362902
0.0369579
0.0374655
0.0378037
0.0379667
0.037954
0.0377703
0.0374255
0.0369349
0.0363166
0.0355915
0.0347808
0.0339097
0.0330025
0.0320863
0.0311798
0.0303077
0.0294778
0.0287182
0.0280223
0.0274414
0.0269451
0.026654
0.0264701
0.0266993
0.0269807
0.0280304
0.0285732
0.297742
0.157802
0.0915283
0.0568889
0.037422
0.0259117
0.0189223
0.0146872
0.0122264
0.0109521
0.0104814
0.0105523
0.010984
0.0116668
0.0125479
0.0136123
0.0148542
0.0162566
0.017783
0.0193864
0.0210211
0.0226521
0.0242574
0.0258231
0.0273221
0.0287505
0.0301037
0.0313747
0.0325545
0.0336316
0.0345929
0.0354245
0.0361126
0.0366446
0.03701
0.0372018
0.0372171
0.037058
0.0367321
0.0362523
0.0356364
0.0349053
0.0340821
0.03319
0.0322552
0.0313025
0.0303581
0.0294405
0.0285721
0.0277601
0.0270282
0.0263706
0.0258296
0.0253805
0.0251261
0.0249867
0.0252307
0.0255503
0.0265823
0.0272046
0.297744
0.157901
0.091688
0.0570655
0.0375754
0.0260039
0.0189178
0.0145582
0.0119586
0.0105491
0.00996657
0.00996528
0.0103724
0.0110738
0.0120037
0.0131327
0.0144464
0.0159255
0.0175348
0.0192262
0.0209494
0.0226622
0.0243354
0.0259496
0.0274718
0.0288983
0.0302255
0.0314485
0.03256
0.033551
0.0344104
0.0351268
0.0356886
0.0360856
0.0363102
0.036358
0.036229
0.0359285
0.0354669
0.0348601
0.0341284
0.0332953
0.0323858
0.0314249
0.0304394
0.0294544
0.0284949
0.0275789
0.0267262
0.0259436
0.0252501
0.0246406
0.024149
0.0237557
0.0235466
0.0234593
0.023726
0.0240908
0.025113
0.0258196
0.297746
0.157994
0.09184
0.0572353
0.0377274
0.0261053
0.0189366
0.0144658
0.0117352
0.0101876
0.0094754
0.00936843
0.00970527
0.0103746
0.0113048
0.0124564
0.0138066
0.0153331
0.0170008
0.0187614
0.0205608
0.0223498
0.0240906
0.0257571
0.0273097
0.0287417
0.03005
0.0312309
0.0322794
0.0331884
0.0339497
0.0345542
0.0349931
0.0352592
0.0353475
0.035257
0.0349907
0.034557
0.0339695
0.0332468
0.0324119
0.0314902
0.0305088
0.0294939
0.0284727
0.0274698
0.0265094
0.0256082
0.0247836
0.0240415
0.0233966
0.0228444
0.0224108
0.0220809
0.0219246
0.0218961
0.0221926
0.0226082
0.023628
0.0244219
0.297747
0.158082
0.0919851
0.0573984
0.0378772
0.0262134
0.0189747
0.0144068
0.0115566
0.00987496
0.00902589
0.00879178
0.00902305
0.00961526
0.0104971
0.011624
0.0129675
0.0145021
0.0161934
0.0179935
0.0198461
0.0216956
0.0234961
0.0252127
0.0267996
0.0282434
0.02954
0.0306863
0.0316788
0.0325128
0.0331825
0.0336816
0.0340045
0.0341469
0.0341072
0.0338876
0.0334945
0.0329395
0.0322393
0.0314152
0.0304925
0.0294987
0.0284623
0.0274103
0.0263698
0.025365
0.0244183
0.0235454
0.022761
0.0220701
0.0214832
0.0209965
0.0206282
0.0203682
0.0202709
0.0203065
0.0206388
0.0211099
0.0221334
0.0230164
0.297748
0.158167
0.092124
0.0575554
0.038024
0.0263259
0.0190286
0.0143772
0.0114204
0.00961393
0.00862915
0.00825773
0.00836017
0.00884015
0.00963041
0.010686
0.0119758
0.0134732
0.0151447
0.0169445
0.018816
0.0206997
0.0225415
0.0242981
0.0259172
0.0273757
0.0286665
0.0297858
0.0307308
0.0314987
0.0320859
0.0324893
0.0327062
0.0327358
0.0325799
0.0322441
0.0317385
0.0310777
0.0302815
0.0293739
0.0283822
0.0273355
0.0262631
0.0251928
0.0241509
0.0231608
0.0222429
0.0214116
0.020679
0.0200491
0.0195284
0.0191139
0.0188168
0.0186315
0.018598
0.0187015
0.0190743
0.0196038
0.0206362
0.0216086
0.297749
0.158249
0.0922575
0.0577065
0.0381675
0.0264411
0.0190948
0.0143724
0.0113228
0.00940352
0.00829032
0.00778082
0.0077429
0.0080875
0.00875282
0.0096964
0.0108878
0.0123009
0.0139048
0.0156573
0.0175042
0.0193845
0.0212385
0.0230146
0.0246558
0.0261262
0.0274137
0.0285121
0.029418
0.0301297
0.0306457
0.0309656
0.0310897
0.0310207
0.030764
0.0303287
0.0297284
0.028981
0.0281091
0.0271391
0.0261
0.025022
0.023935
0.0228665
0.0218421
0.0208836
0.0200095
0.0192325
0.0185621
0.0180015
0.0175538
0.0172164
0.0169945
0.0168866
0.01692
0.0170934
0.0175099
0.0180991
0.0191444
0.0202045
0.297749
0.158328
0.0923862
0.0578524
0.0383075
0.0265575
0.0191703
0.0143882
0.0112589
0.00924032
0.00800988
0.00736853
0.00718879
0.00738682
0.00790587
0.0087071
0.00976252
0.0110484
0.0125377
0.0141934
0.0159662
0.0177968
0.0196234