/*--------------------------------*- C++ -*----------------------------------*\
| =========                 |                                                 |
| \\      /  F ield         | OpenFOAM: The Open Source CFD Toolbox           |
|  \\    /   O peration     | Version:  2.4.0                                 |
|   \\  /    A nd           | Web:      www.OpenFOAM.org                      |
|    \\/     M anipulation  |                                                 |
\*---------------------------------------------------------------------------*/
FoamFile
{
    version     2.0;
    format      ascii;
    class       volScalarField;
    location    "550";
    object      p;
}
// * * * * * * * * * * * * * * * * * * * * * * * * * * * * * * * * * * * * * //

dimensions      [0 2 -2 0 0 0 0];

internalField   nonuniform List<scalar> 
12225
(
-8.5142
-9.16422
-9.4472
-9.54689
-9.6503
-9.75821
-9.84986
-9.93201
-10.0096
-10.0851
-10.1578
-10.23
-10.3016
-10.3761
-10.453
-10.5417
-10.6441
-10.7797
-8.65843
-9.17815
-9.43997
-9.54019
-9.64387
-9.75114
-9.84373
-9.92663
-10.0048
-10.0806
-10.1534
-10.2254
-10.2967
-10.3703
-10.4462
-10.5316
-10.626
-10.7236
-8.79106
-9.18761
-9.43943
-9.54856
-9.65284
-9.75772
-9.84919
-9.93078
-10.0078
-10.0821
-10.1538
-10.2243
-10.2942
-10.3654
-10.4385
-10.517
-10.597
-10.6689
-8.92058
-9.21732
-9.44849
-9.56099
-9.66111
-9.76177
-9.85097
-9.93132
-10.0074
-10.0808
-10.1517
-10.2213
-10.29
-10.3592
-10.4291
-10.5006
-10.5695
-10.6272
-9.03381
-9.25628
-9.46195
-9.57478
-9.67219
-9.76886
-9.85606
-9.93549
-10.0107
-10.0829
-10.1527
-10.2208
-10.2877
-10.3541
-10.42
-10.4848
-10.5446
-10.5923
-9.13283
-9.29894
-9.47866
-9.59005
-9.68463
-9.7773
-9.86217
-9.94022
-10.0141
-10.085
-10.1533
-10.2197
-10.2846
-10.3481
-10.4099
-10.4688
-10.5217
-10.5633
-9.22241
-9.34459
-9.49873
-9.6064
-9.69753
-9.78617
-9.86849
-9.94486
-10.0173
-10.0866
-10.1534
-10.218
-10.2806
-10.3411
-10.3991
-10.453
-10.5008
-10.539
-9.29249
-9.38579
-9.51904
-9.62143
-9.70898
-9.79401
-9.87385
-9.94849
-10.0194
-10.0873
-10.1526
-10.2155
-10.2761
-10.3341
-10.3891
-10.4396
-10.4842
-10.5205
-9.35015
-9.42325
-9.53897
-9.6358
-9.71978
-9.80136
-9.87878
-9.95167
-10.0211
-10.0876
-10.1514
-10.2127
-10.2715
-10.3273
-10.3799
-10.4279
-10.4703
-10.5054
-9.40814
-9.4643
-9.56267
-9.65264
-9.73238
-9.80998
-9.8845
-9.95523
-10.0228
-10.0875
-10.1496
-10.2091
-10.2658
-10.3195
-10.3697
-10.4153
-10.4559
-10.4902
-9.46559
-9.50816
-9.59017
-9.67207
-9.7469
-9.82006
-9.89119
-9.95931
-10.0246
-10.0873
-10.1474
-10.2048
-10.2594
-10.3108
-10.3587
-10.4023
-10.4414
-10.4753
-9.52155
-9.55372
-9.62099
-9.69402
-9.76335
-9.83168
-9.89893
-9.96402
-10.0267
-10.087
-10.1448
-10.1999
-10.2523
-10.3014
-10.3472
-10.3891
-10.4271
-10.4606
-9.57503
-9.59961
-9.65417
-9.71804
-9.78145
-9.84469
-9.90766
-9.96934
-10.0291
-10.0867
-10.142
-10.1948
-10.2448
-10.2918
-10.3357
-10.3761
-10.4131
-10.4464
-9.62488
-9.64408
-9.68814
-9.74327
-9.80057
-9.85862
-9.91715
-9.97513
-10.0317
-10.0865
-10.1391
-10.1894
-10.2372
-10.2822
-10.3243
-10.3634
-10.3996
-10.4328
-9.66954
-9.68489
-9.72083
-9.76828
-9.81963
-9.87269
-9.92683
-9.98101
-10.0343
-10.0861
-10.1361
-10.184
-10.2296
-10.2727
-10.3133
-10.3513
-10.3868
-10.4198
-9.70692
-9.71946
-9.74955
-9.79083
-9.83697
-9.88555
-9.93563
-9.98621
-10.0363
-10.0853
-10.1328
-10.1785
-10.2221
-10.2636
-10.3028
-10.3398
-10.3747
-10.4074
-9.73378
-9.74444
-9.77078
-9.80783
-9.85008
-9.89512
-9.94192
-9.98951
-10.0369
-10.0835
-10.1288
-10.1726
-10.2146
-10.2547
-10.2928
-10.329
-10.3632
-10.3956
-9.74439
-9.75438
-9.77942
-9.81479
-9.85521
-9.89839
-9.94336
-9.98917
-10.0349
-10.0799
-10.1238
-10.1663
-10.2072
-10.2463
-10.2837
-10.3193
-10.3532
-10.3853
-9.73763
-9.74822
-9.7744
-9.81073
-9.8516
-9.89481
-9.93958
-9.98501
-10.0302
-10.0747
-10.118
-10.1599
-10.2003
-10.2391
-10.2761
-10.3114
-10.3451
-10.3772
-9.7174
-9.72994
-9.75953
-9.79902
-9.84203
-9.88667
-9.93244
-9.97853
-10.0241
-10.0687
-10.1121
-10.154
-10.1943
-10.233
-10.27
-10.3053
-10.339
-10.3711
-9.68665
-9.70248
-9.73807
-9.78269
-9.82902
-9.87597
-9.92353
-9.9709
-10.0174
-10.0626
-10.1063
-10.1485
-10.1891
-10.2279
-10.265
-10.3005
-10.3342
-10.3664
-9.64705
-9.66799
-9.71266
-9.76412
-9.81444
-9.86428
-9.91407
-9.96303
-10.0106
-10.0566
-10.101
-10.1436
-10.1845
-10.2237
-10.2611
-10.2967
-10.3306
-10.363
-9.59923
-9.62849
-9.68577
-9.74513
-9.79959
-9.85267
-9.90491
-9.95548
-10.0042
-10.0511
-10.0961
-10.1393
-10.1806
-10.2201
-10.2578
-10.2937
-10.3278
-10.3603
-9.54316
-9.58597
-9.65968
-9.72712
-9.78543
-9.84178
-9.89641
-9.94847
-9.99822
-10.046
-10.0917
-10.1354
-10.1772
-10.217
-10.255
-10.2912
-10.3255
-10.3582
-9.47845
-9.54243
-9.63642
-9.71084
-9.77238
-9.83188
-9.88862
-9.94188
-9.99252
-10.041
-10.0873
-10.1315
-10.1736
-10.2138
-10.252
-10.2884
-10.323
-10.3558
-9.40427
-9.49974
-9.61717
-9.69629
-9.76028
-9.82264
-9.88113
-9.93533
-9.98678
-10.0359
-10.0829
-10.1276
-10.1702
-10.2108
-10.2494
-10.2861
-10.321
-10.3541
-9.31821
-9.45899
-9.60183
-9.68329
-9.7493
-9.81426
-9.8739
-9.92846
-9.98038
-10.03
-10.0774
-10.1224
-10.1655
-10.2064
-10.2453
-10.2822
-10.3174
-10.3506
-9.2146
-9.42308
-9.58915
-9.67038
-9.73912
-9.80805
-9.86949
-9.92493
-9.97783
-10.0284
-10.0765
-10.1221
-10.1655
-10.2069
-10.2462
-10.2834
-10.3188
-10.3523
-9.09574
-9.41015
-9.5883
-9.66259
-9.72977
-9.80003
-9.86132
-9.9166
-9.97014
-10.0215
-10.0702
-10.1164
-10.1605
-10.2024
-10.2423
-10.28
-10.316
-10.3496
-8.95977
-9.39409
-9.5945
-9.66775
-9.73629
-9.80794
-9.86833
-9.92264
-9.97612
-10.0273
-10.076
-10.1221
-10.166
-10.2078
-10.2476
-10.2852
-10.3211
-10.3548
-11.0648
-11.0646
-11.0651
-11.0663
-11.0675
-11.0684
-11.0689
-11.0693
-11.0697
-11.07
-11.0704
-11.0709
-11.0718
-11.0749
-11.0823
-11.0949
-11.1126
-11.1349
-11.1612
-11.1909
-11.2234
-11.258
-11.2941
-11.3314
-11.3692
-11.4074
-11.4455
-11.4834
-11.5209
-11.5578
-11.5941
-11.6297
-11.6646
-11.6988
-11.7322
-11.7649
-11.7969
-11.8283
-11.8591
-11.8895
-11.9194
-11.9491
-11.9786
-12.0078
-12.0366
-12.0653
-12.0938
-12.1221
-12.1502
-12.1782
-12.2061
-12.2338
-12.2613
-12.2886
-12.3156
-12.3421
-12.3683
-12.3938
-12.4187
-12.4428
-12.4659
-12.488
-12.5088
-12.5281
-12.5459
-12.5618
-12.5756
-12.5872
-12.5964
-12.6028
-12.6063
-12.6066
-12.6034
-12.5965
-12.5857
-12.5706
-12.5511
-12.5268
-12.4975
-12.4629
-12.4228
-12.3769
-12.3249
-12.2666
-12.2016
-12.1296
-12.0508
-11.9649
-11.8713
-11.7696
-11.6596
-11.5419
-11.4163
-11.2825
-11.1403
-10.9897
-10.8307
-10.6634
-10.4879
-10.3043
-10.113
-9.91421
-9.70834
-9.49581
-9.27714
-9.05288
-8.82368
-8.59022
-8.35327
-8.11369
-7.87237
-7.63009
-7.3875
-7.14544
-6.90499
-6.66712
-6.43278
-6.20287
-5.97826
-5.7598
-5.54821
-5.34421
-5.14847
-4.96165
-4.78423
-4.61661
-4.45915
-4.31218
-4.17605
-4.05104
-3.93723
-3.83453
-3.74296
-3.66251
-3.59314
-3.53457
-3.48639
-3.4481
-3.4191
-3.39866
-3.38582
-3.37938
-3.37789
-3.37975
-3.38308
-3.38575
-3.38537
-3.37928
-3.36443
-3.33753
-3.29532
-3.23484
-3.15327
-3.04737
-2.9134
-2.74774
-2.54789
-2.3128
-2.04175
-1.73333
-1.38576
-0.998595
-0.571895
-0.10674
0.395258
0.931805
1.49993
2.0963
2.71719
3.35827
4.01464
4.68113
5.35268
6.02416
6.69042
7.34523
7.98381
8.60303
9.20208
9.74066
-11.0657
-11.0661
-11.0674
-11.0689
-11.0695
-11.0694
-11.0688
-11.0681
-11.0676
-11.0676
-11.0686
-11.0707
-11.0743
-11.0803
-11.0897
-11.1033
-11.1213
-11.1435
-11.1694
-11.1985
-11.2301
-11.2638
-11.2991
-11.3354
-11.3724
-11.4097
-11.447
-11.4841
-11.5208
-11.5569
-11.5924
-11.6271
-11.6611
-11.6944
-11.727
-11.759
-11.7904
-11.8212
-11.8516
-11.8815
-11.911
-11.9402
-11.9692
-11.9978
-12.0263
-12.0546
-12.0827
-12.1107
-12.1385
-12.1663
-12.1939
-12.2214
-12.2487
-12.2758
-12.3026
-12.3291
-12.3551
-12.3806
-12.4054
-12.4295
-12.4527
-12.4748
-12.4956
-12.5151
-12.533
-12.5491
-12.5632
-12.5751
-12.5845
-12.5913
-12.5952
-12.5959
-12.5933
-12.5869
-12.5767
-12.5623
-12.5435
-12.52
-12.4915
-12.4578
-12.4187
-12.3738
-12.3229
-12.2657
-12.2019
-12.1314
-12.0538
-11.9692
-11.8772
-11.7771
-11.6687
-11.5524
-11.4284
-11.2962
-11.1557
-11.0068
-10.8495
-10.6839
-10.5101
-10.3282
-10.1384
-9.94117
-9.73673
-9.52553
-9.30806
-9.08487
-8.85655
-8.62376
-8.3872
-8.14765
-7.90593
-7.66298
-7.41982
-7.17728
-6.93617
-6.69745
-6.46202
-6.2308
-6.00465
-5.7844
-5.57082
-5.36464
-5.16656
-4.97722
-4.79717
-4.62683
-4.46658
-4.31676
-4.17773
-4.04982
-3.93326
-3.82802
-3.73392
-3.65104
-3.57941
-3.51879
-3.46882
-3.42901
-3.39875
-3.3773
-3.3637
-3.35674
-3.35498
-3.35684
-3.36043
-3.36355
-3.36383
-3.35869
-3.34521
-3.3202
-3.2804
-3.22273
-3.14427
-3.04195
-2.91206
-2.75077
-2.5552
-2.32428
-2.05793
-1.75414
-1.41097
-1.02836
-0.606613
-0.14644
0.350689
0.882572
1.44622
2.03827
2.65509
3.29253
3.94571
4.60938
5.27852
5.9481
6.61324
7.26781
7.90797
8.52682
9.12942
9.66102
-11.0647
-11.0662
-11.068
-11.0693
-11.07
-11.0699
-11.0691
-11.0683
-11.0685
-11.0701
-11.0735
-11.0787
-11.0862
-11.0968
-11.1106
-11.1277
-11.1479
-11.1711
-11.1971
-11.2255
-11.2559
-11.288
-11.3213
-11.3556
-11.3905
-11.4256
-11.4607
-11.4955
-11.53
-11.5641
-11.5976
-11.6306
-11.6629
-11.6947
-11.7259
-11.7566
-11.7867
-11.8164
-11.8457
-11.8746
-11.9032
-11.9315
-11.9596
-11.9875
-12.0153
-12.0429
-12.0704
-12.0978
-12.1252
-12.1525
-12.1797
-12.2068
-12.2337
-12.2605
-12.287
-12.3132
-12.339
-12.3643
-12.389
-12.413
-12.4361
-12.4581
-12.479
-12.4985
-12.5165
-12.5327
-12.547
-12.5591
-12.5689
-12.576
-12.5803
-12.5815
-12.5793
-12.5736
-12.564
-12.5503
-12.5323
-12.5096
-12.4821
-12.4494
-12.4114
-12.3677
-12.318
-12.2622
-12.2
-12.131
-12.0551
-11.9721
-11.8818
-11.7838
-11.6776
-11.5634
-11.4414
-11.3112
-11.1728
-11.026
-10.8708
-10.7073
-10.5355
-10.3557
-10.1679
-9.97253
-9.76988
-9.56036
-9.34443
-9.12263
-8.89553
-8.66379
-8.42811
-8.18924
-7.94801
-7.70527
-7.46192
-7.21883
-6.97688
-6.73701
-6.50015
-6.26718
-6.03899
-5.81641
-5.60023
-5.39118
-5.19
-4.99734
-4.8138
-4.63987
-4.47594
-4.32238
-4.17953
-4.04777
-3.92743
-3.81867
-3.72125
-3.6352
-3.5606
-3.4973
-3.44498
-3.40318
-3.37132
-3.34866
-3.33424
-3.32684
-3.32506
-3.3273
-3.33169
-3.33598
-3.33775
-3.33442
-3.32319
-3.30096
-3.26446
-3.2105
-3.13611
-3.0383
-2.91356
-2.75801
-2.5685
-2.34387
-2.08415
-1.78706
-1.45081
-1.07503
-0.660056
-0.206693
0.283779
0.809342
1.36698
1.95318
2.56444
3.19686
3.84564
4.50536
5.17096
5.83747
6.50041
7.15344
7.79393
8.41084
9.0183
9.54499
-11.0569
-11.0589
-11.0619
-11.0643
-11.0654
-11.0659
-11.0666
-11.0682
-11.0708
-11.0751
-11.0816
-11.0906
-11.1019
-11.1157
-11.1319
-11.1508
-11.1721
-11.1959
-11.2219
-11.2497
-11.2791
-11.3096
-11.3411
-11.3732
-11.4056
-11.4383
-11.471
-11.5037
-11.5361
-11.5683
-11.6001
-11.6314
-11.6623
-11.6927
-11.7227
-11.7522
-11.7812
-11.8099
-11.8382
-11.8662
-11.8939
-11.9214
-11.9488
-11.976
-12.0031
-12.0301
-12.0571
-12.0841
-12.111
-12.1379
-12.1647
-12.1915
-12.2182
-12.2447
-12.2711
-12.2971
-12.3229
-12.3481
-12.3728
-12.3968
-12.42
-12.4422
-12.4633
-12.4831
-12.5014
-12.5179
-12.5326
-12.5452
-12.5555
-12.5632
-12.5681
-12.57
-12.5686
-12.5636
-12.5549
-12.5422
-12.5251
-12.5036
-12.4772
-12.4458
-12.4091
-12.3667
-12.3186
-12.2643
-12.2037
-12.1364
-12.0623
-11.9811
-11.8926
-11.7965
-11.6924
-11.5803
-11.4603
-11.332
-11.1955
-11.0507
-10.8974
-10.7358
-10.5658
-10.3876
-10.2015
-10.0077
-9.80642
-9.59814
-9.38329
-9.16237
-8.93597
-8.7047
-8.46927
-8.23043
-7.98898
-7.74578
-7.50167
-7.25752
-7.01423
-6.77276
-6.53402
-6.29892
-6.06834
-5.84314
-5.62412
-5.41205
-5.20766
-5.01166
-4.82465
-4.64719
-4.47973
-4.32265
-4.17633
-4.04109
-3.91727
-3.80512
-3.70464
-3.61581
-3.53866
-3.47309
-3.41884
-3.37548
-3.34245
-3.31905
-3.30431
-3.29706
-3.29587
-3.29918
-3.30511
-3.31142
-3.31562
-3.31513
-3.30717
-3.28872
-3.25652
-3.20729
-3.13796
-3.04551
-2.92654
-2.77716
-2.59411
-2.37639
-2.12339
-1.83295
-1.50337
-1.1341
-0.725511
-0.278486
0.205871
0.72581
1.27828
1.85954
2.46611
3.09446
3.7399
4.39671
5.0597
5.72401
6.38549
7.03753
7.67835
8.29341
8.90513
9.42754
-11.0427
-11.0455
-11.0498
-11.0538
-11.0566
-11.0593
-11.0628
-11.0677
-11.0743
-11.0829
-11.0935
-11.1061
-11.1208
-11.1375
-11.1562
-11.1769
-11.1994
-11.2235
-11.2491
-11.2759
-11.3038
-11.3327
-11.3623
-11.3925
-11.423
-11.4539
-11.4847
-11.5156
-11.5462
-11.5766
-11.6067
-11.6365
-11.6659
-11.6949
-11.7235
-11.7517
-11.7796
-11.8072
-11.8345
-11.8616
-11.8884
-11.9151
-11.9417
-11.9682
-11.9947
-12.0212
-12.0476
-12.0741
-12.1006
-12.1271
-12.1537
-12.1802
-12.2067
-12.2331
-12.2594
-12.2854
-12.3111
-12.3364
-12.3612
-12.3854
-12.4088
-12.4312
-12.4526
-12.4727
-12.4913
-12.5084
-12.5235
-12.5367
-12.5475
-12.5558
-12.5614
-12.564
-12.5634
-12.5593
-12.5515
-12.5397
-12.5237
-12.5032
-12.478
-12.4478
-12.4123
-12.3713
-12.3246
-12.2718
-12.2126
-12.1469
-12.0744
-11.9948
-11.908
-11.8135
-11.7112
-11.6009
-11.4824
-11.3558
-11.2209
-11.0775
-10.9257
-10.7653
-10.5966
-10.4196
-10.2345
-10.0416
-9.84104
-9.63332
-9.41885
-9.19812
-8.9717
-8.74022
-8.50435
-8.26485
-8.02252
-7.7782
-7.53275
-7.28702
-7.04195
-6.79848
-6.55754
-6.32006
-6.08694
-5.85904
-5.6372
-5.42221
-5.21483
-5.01576
-4.82566
-4.64511
-4.47462
-4.31461
-4.16546
-4.02751
-3.90102
-3.78625
-3.68339
-3.59256
-3.51375
-3.44687
-3.39165
-3.34771
-3.31451
-3.29133
-3.27726
-3.27112
-3.2715
-3.27681
-3.28521
-3.29442
-3.30194
-3.30515
-3.30125
-3.28725
-3.25992
-3.21592
-3.1521
-3.06532
-2.95213
-2.80862
-2.63177
-2.42052
-2.17365
-1.88912
-1.56524
-1.2013
-0.797823
-0.355806
0.123815
0.639633
1.18855
1.76644
2.36986
2.99566
3.63927
4.29453
4.95613
5.61935
6.28039
6.93242
7.5745
8.18877
8.80473
9.32343
-11.0295
-11.0327
-11.039
-11.0457
-11.0513
-11.0569
-11.0638
-11.0723
-11.0825
-11.0945
-11.1082
-11.1237
-11.1408
-11.1596
-11.1798
-11.2014
-11.2244
-11.2485
-11.2737
-11.2999
-11.327
-11.3547
-11.383
-11.4118
-11.4408
-11.47
-11.4992
-11.5283
-11.5574
-11.5862
-11.6148
-11.6431
-11.6711
-11.6988
-11.7262
-11.7533
-11.7801
-11.8067
-11.833
-11.8592
-11.8853
-11.9113
-11.9372
-11.9632
-11.9891
-12.0151
-12.0411
-12.0673
-12.0935
-12.1198
-12.1462
-12.1726
-12.199
-12.2254
-12.2517
-12.2778
-12.3036
-12.3291
-12.3541
-12.3785
-12.4022
-12.4251
-12.4468
-12.4674
-12.4865
-12.5041
-12.5199
-12.5336
-12.5451
-12.5541
-12.5605
-12.5638
-12.5641
-12.5608
-12.5539
-12.5431
-12.5281
-12.5087
-12.4846
-12.4555
-12.4213
-12.3815
-12.3361
-12.2846
-12.2268
-12.1625
-12.0914
-12.0132
-11.9278
-11.8348
-11.7339
-11.6249
-11.5078
-11.3824
-11.2486
-11.1063
-10.9554
-10.7959
-10.6279
-10.4514
-10.2667
-10.074
-9.87351
-9.66567
-9.45087
-9.22962
-9.00248
-8.77008
-8.53309
-8.29226
-8.0484
-7.80235
-7.55499
-7.30718
-7.05987
-6.81401
-6.57055
-6.33044
-6.09458
-5.86389
-5.63921
-5.42137
-5.21113
-5.00924
-4.81636
-4.6331
-4.46
-4.29754
-4.14612
-4.0061
-3.87771
-3.76116
-3.65672
-3.56467
-3.48509
-3.41785
-3.3627
-3.31924
-3.28692
-3.26505
-3.25273
-3.24877
-3.25178
-3.26013
-3.27196
-3.28501
-3.29672
-3.30443
-3.30532
-3.2964
-3.27443
-3.23608
-3.17809
-3.0972
-2.98973
-2.85181
-2.68083
-2.47546
-2.23413
-1.95484
-1.63577
-1.27612
-0.876593
-0.438403
0.037711
0.550721
1.09744
1.67325
2.27475
2.89918
3.54209
4.19681
4.85798
5.52122
6.18305
6.83646
7.48122
8.09622
8.71691
9.23319
-11.0233
-11.027
-11.0351
-11.0441
-11.052
-11.0602
-11.0696
-11.0808
-11.0936
-11.1081
-11.1241
-11.1416
-11.1603
-11.1803
-11.2015
-11.2237
-11.247
-11.2712
-11.2962
-11.3219
-11.3483
-11.3751
-11.4023
-11.4299
-11.4576
-11.4854
-11.5132
-11.541
-11.5686
-11.5961
-11.6234
-11.6504
-11.6772
-11.7038
-11.7301
-11.7562
-11.7821
-11.8078
-11.8334
-11.8588
-11.8843
-11.9097
-11.9351
-11.9605
-11.9861
-12.0118
-12.0376
-12.0635
-12.0896
-12.1158
-12.1421
-12.1685
-12.195
-12.2215
-12.2479
-12.2743
-12.3004
-12.3261
-12.3515
-12.3763
-12.4004
-12.4237
-12.446
-12.4671
-12.4868
-12.505
-12.5214
-12.5358
-12.548
-12.5578
-12.5649
-12.5691
-12.5702
-12.5678
-12.5618
-12.5519
-12.5379
-12.5195
-12.4965
-12.4685
-12.4354
-12.3969
-12.3526
-12.3023
-12.2458
-12.1827
-12.1128
-12.0359
-11.9516
-11.8598
-11.76
-11.6521
-11.536
-11.4115
-11.2784
-11.1367
-10.9862
-10.8271
-10.6592
-10.4828
-10.2979
-10.1048
-9.90375
-9.69514
-9.47938
-9.25696
-9.02844
-8.79446
-8.55571
-8.31293
-8.06694
-7.8186
-7.5688
-7.31842
-7.06843
-6.8198
-6.5735
-6.33049
-6.09172
-5.85812
-5.63055
-5.40987
-5.19688
-4.99232
-4.79691
-4.61127
-4.43595
-4.27147
-4.11827
-3.97675
-3.84714
-3.7296
-3.62442
-3.53198
-3.45248
-3.38581
-3.33171
-3.28974
-3.25934
-3.23983
-3.2303
-3.22958
-3.23622
-3.24861
-3.26485
-3.28262
-3.29934
-3.31226
-3.31858
-3.31529
-3.29914
-3.26679
-3.2149
-3.13999
-3.03816
-2.90568
-2.74023
-2.54027
-2.30399
-2.02937
-1.7144
-1.35815
-0.961668
-0.526375
-0.052771
0.45847
1.00404
1.57884
2.17959
2.80387
3.4474
4.10339
4.76627
5.43168
6.0959
6.75155
7.39973
8.0175
8.64431
9.15968
-11.0262
-11.0302
-11.0392
-11.0495
-11.059
-11.0688
-11.0799
-11.0927
-11.1071
-11.1231
-11.1404
-11.159
-11.1788
-11.1996
-11.2213
-11.2439
-11.2673
-11.2914
-11.3161
-11.3414
-11.367
-11.3931
-11.4194
-11.4459
-11.4725
-11.4992
-11.5259
-11.5525
-11.579
-11.6053
-11.6315
-11.6575
-11.6833
-11.7089
-11.7343
-11.7596
-11.7847
-11.8098
-11.8347
-11.8597
-11.8846
-11.9096
-11.9347
-11.9599
-11.9852
-12.0108
-12.0364
-12.0623
-12.0884
-12.1147
-12.1412
-12.1677
-12.1944
-12.2212
-12.2479
-12.2746
-12.3011
-12.3273
-12.3531
-12.3784
-12.403
-12.4269
-12.4497
-12.4714
-12.4918
-12.5107
-12.5278
-12.5429
-12.5559
-12.5664
-12.5743
-12.5793
-12.5812
-12.5797
-12.5746
-12.5656
-12.5526
-12.5351
-12.5131
-12.4862
-12.4541
-12.4167
-12.3735
-12.3243
-12.2689
-12.2069
-12.1381
-12.0622
-11.9789
-11.8879
-11.789
-11.6819
-11.5665
-11.4425
-11.3098
-11.1683
-11.0179
-10.8586
-10.6904
-10.5134
-10.3278
-10.1338
-9.93166
-9.7217
-9.50437
-9.28017
-9.04967
-8.81352
-8.5724
-8.32709
-8.07842
-7.82725
-7.5745
-7.3211
-7.06801
-6.81624
-6.56678
-6.32062
-6.07875
-5.8421
-5.61159
-5.38808
-5.17239
-4.96532
-4.7676
-4.57987
-4.4027
-4.23661
-4.08211
-3.93963
-3.80944
-3.69166
-3.58657
-3.49461
-3.41606
-3.35089
-3.29879
-3.25927
-3.23176
-3.21557
-3.20981
-3.21327
-3.22451
-3.24185
-3.26335
-3.28667
-3.30908
-3.3278
-3.34006
-3.34288
-3.33295
-3.30688
-3.26123
-3.19232
-3.09607
-2.96888
-2.80866
-2.61372
-2.38205
-2.11154
-1.79999
-1.44638
-1.05215
-0.61887
-0.146727
0.363814
0.909539
1.48502
2.08663
2.71163
3.35592
4.01441
4.68161
5.35182
6.02046
6.67947
7.33105
7.95185
8.58455
9.09962
-11.0368
-11.0406
-11.0497
-11.0605
-11.0708
-11.0815
-11.0935
-11.1071
-11.1222
-11.1388
-11.1567
-11.1758
-11.196
-11.2171
-11.239
-11.2616
-11.2848
-11.3086
-11.3329
-11.3576
-11.3826
-11.408
-11.4335
-11.4591
-11.4848
-11.5106
-11.5363
-11.562
-11.5875
-11.613
-11.6383
-11.6634
-11.6885
-11.7134
-11.7381
-11.7628
-11.7874
-11.812
-11.8366
-11.8612
-11.8859
-11.9107
-11.9356
-11.9608
-11.9861
-12.0117
-12.0374
-12.0635
-12.0898
-12.1163
-12.143
-12.1699
-12.197
-12.2241
-12.2513
-12.2784
-12.3054
-12.3321
-12.3585
-12.3844
-12.4096
-12.4341
-12.4576
-12.48
-12.501
-12.5206
-12.5384
-12.5543
-12.568
-12.5793
-12.588
-12.5937
-12.5964
-12.5957
-12.5914
-12.5833
-12.5712
-12.5547
-12.5336
-12.5076
-12.4766
-12.4401
-12.3979
-12.3498
-12.2953
-12.2343
-12.1664
-12.0913
-12.0088
-11.9186
-11.8202
-11.7137
-11.5986
-11.4748
-11.3421
-11.2005
-11.0497
-10.8899
-10.721
-10.5431
-10.3563
-10.1608
-9.957
-9.74516
-9.52573
-9.29921
-9.06618
-8.82729
-8.58327
-8.3349
-8.08303
-7.82855
-7.5724
-7.31553
-7.05896
-6.8037
-6.55079
-6.30124
-6.05607
-5.81626
-5.58275
-5.35643
-5.13813
-4.92868
-4.72885
-4.53932
-4.36066
-4.19338
-4.03805
-3.89516
-3.765
-3.6477
-3.54347
-3.45281
-3.37611
-3.31335
-3.26418
-3.22803
-3.20428
-3.19228
-3.19117
-3.19969
-3.21636
-3.23944
-3.26695
-3.29646
-3.32511
-3.35005
-3.36861
-3.37787
-3.37445
-3.35483
-3.31547
-3.2525
-3.16174
-3.03966
-2.88435
-2.69406
-2.46649
-2.19937
-1.89051
-1.53882
-1.14588
-0.713456
-0.241946
0.267405
0.812285
1.38921
1.99397
2.6219
3.26828
3.92952
4.60097
5.27582
5.94899
6.61178
7.2667
7.88958
8.52623
9.04169
-11.0522
-11.0557
-11.0642
-11.0749
-11.0855
-11.0964
-11.1086
-11.1223
-11.1376
-11.1542
-11.1721
-11.1911
-11.2112
-11.232
-11.2537
-11.276
-11.2988
-11.3222
-11.346
-11.3701
-11.3945
-11.4192
-11.444
-11.4689
-11.4939
-11.5189
-11.5439
-11.5688
-11.5936
-11.6184
-11.6431
-11.6677
-11.6922
-11.7166
-11.7409
-11.7653
-11.7896
-11.814
-11.8384
-11.8629
-11.8876
-11.9124
-11.9375
-11.9628
-11.9883
-12.0141
-12.0402
-12.0666
-12.0932
-12.1201
-12.1473
-12.1747
-12.2023
-12.2299
-12.2577
-12.2854
-12.3129
-12.3402
-12.3672
-12.3937
-12.4196
-12.4448
-12.4689
-12.492
-12.5138
-12.534
-12.5526
-12.5692
-12.5836
-12.5956
-12.605
-12.6115
-12.6149
-12.6149
-12.6114
-12.6041
-12.5927
-12.5771
-12.5569
-12.5318
-12.5017
-12.4661
-12.4249
-12.3776
-12.324
-12.2638
-12.1967
-12.1223
-12.0404
-11.9507
-11.8527
-11.7464
-11.6314
-11.5076
-11.3746
-11.2325
-11.0811
-10.9204
-10.7503
-10.571
-10.3826
-10.1853
-9.97943
-9.76525
-9.54324
-9.31392
-9.07788
-8.83579
-8.5884
-8.3365
-8.08097
-7.82275
-7.56279
-7.30209
-7.04169
-6.78265
-6.52603
-6.27289
-6.02427
-5.78121
-5.54467
-5.31556
-5.09473
-4.88303
-4.6813
-4.49026
-4.31046
-4.1424
-3.98669
-3.84393
-3.71442
-3.59821
-3.49553
-3.40693
-3.3329
-3.27342
-3.22805
-3.1961
-3.17686
-3.16982
-3.17414
-3.1885
-3.21131
-3.24076
-3.2748
-3.31094
-3.34618
-3.37761
-3.40273
-3.4187
-3.42198
-3.40888
-3.37572
-3.31854
-3.23313
-3.11602
-2.96534
-2.7792
-2.55512
-2.29098
-1.98523
-1.63707
-1.24642
-0.814095
-0.341745
0.167801
0.71252
1.29102
1.89936
2.53159
3.18207
3.8465
4.52061
5.19804
5.87391
6.53926
7.19692
7.82157
8.46084
8.97759
-11.0696
-11.0726
-11.0803
-11.0903
-11.1006
-11.1114
-11.1234
-11.1368
-11.1517
-11.1679
-11.1853
-11.2039
-11.2234
-11.2437
-11.2648
-11.2866
-11.3089
-11.3317
-11.3549
-11.3784
-11.4022
-11.4263
-11.4505
-11.4748
-11.4992
-11.5236
-11.548
-11.5724
-11.5968
-11.6211
-11.6454
-11.6697
-11.6939
-11.7181
-11.7423
-11.7666
-11.7909
-11.8153
-11.8398
-11.8645
-11.8894
-11.9146
-11.9399
-11.9656
-11.9915
-12.0178
-12.0444
-12.0712
-12.0984
-12.1259
-12.1537
-12.1817
-12.2099
-12.2382
-12.2666
-12.2949
-12.3231
-12.3511
-12.3787
-12.4059
-12.4324
-12.4582
-12.4831
-12.5068
-12.5292
-12.5502
-12.5694
-12.5866
-12.6017
-12.6143
-12.6243
-12.6314
-12.6354
-12.6361
-12.6332
-12.6266
-12.616
-12.6011
-12.5817
-12.5575
-12.5282
-12.4935
-12.453
-12.4066
-12.3537
-12.2942
-12.2277
-12.1539
-12.0725
-11.9831
-11.8854
-11.7791
-11.664
-11.5398
-11.4063
-11.2635
-11.1111
-10.9492
-10.7777
-10.5967
-10.4063
-10.2068
-9.99844
-9.78155
-9.55659
-9.32408
-9.08464
-8.83896
-8.58781
-8.33201
-8.07247
-7.81015
-7.54607
-7.28125
-7.01676
-6.7537
-6.49318
-6.23629
-5.98412
-5.73773
-5.49814
-5.26623
-5.04285
-4.82893
-4.6254
-4.43304
-4.25236
-4.0838
-3.92804
-3.78584
-3.65746
-3.54285
-3.44225
-3.3564
-3.28581
-3.23041
-3.18961
-3.16256
-3.14853
-3.14717
-3.1577
-3.17864
-3.20825
-3.2446
-3.28561
-3.32879
-3.37104
-3.40944
-3.4416
-3.46464
-3.47482
-3.46832
-3.44139
-3.39018
-3.3108
-3.19998
-3.05491
-2.87295
-2.65183
-2.38991
-2.0865
-1.74129
-1.35271
-0.920232
-0.446106
0.0661674
0.613624
1.19432
1.80481
2.43964
3.09309
3.76018
4.43638
5.11564
5.79334
6.46049
7.12026
7.74648
8.3874
8.90624
-11.0862
-11.0888
-11.0956
-11.1046
-11.1143
-11.1247
-11.1362
-11.149
-11.1631
-11.1786
-11.1953
-11.2131
-11.2318
-11.2514
-11.2717
-11.2928
-11.3144
-11.3365
-11.3591
-11.3821
-11.4053
-11.4288
-11.4525
-11.4763
-11.5003
-11.5243
-11.5484
-11.5725
-11.5967
-11.6208
-11.645
-11.6692
-11.6934
-11.7177
-11.742
-11.7665
-11.7911
-11.8158
-11.8407
-11.8658
-11.8912
-11.9169
-11.9428
-11.969
-11.9956
-12.0225
-12.0497
-12.0773
-12.1052
-12.1334
-12.1619
-12.1906
-12.2195
-12.2484
-12.2775
-12.3065
-12.3354
-12.364
-12.3923
-12.4201
-12.4472
-12.4736
-12.4991
-12.5234
-12.5464
-12.5679
-12.5877
-12.6054
-12.621
-12.6341
-12.6446
-12.6522
-12.6566
-12.6578
-12.6554
-12.6494
-12.6394
-12.6252
-12.6065
-12.583
-12.5545
-12.5205
-12.4808
-12.4351
-12.3829
-12.324
-12.258
-12.1847
-12.1036
-12.0143
-11.9166
-11.8102
-11.6948
-11.57
-11.4359
-11.2921
-11.1385
-10.9751
-10.8019
-10.619
-10.4264
-10.2245
-10.0134
-9.7935
-9.56531
-9.32934
-9.08623
-8.8367
-8.58153
-8.32158
-8.05778
-7.79115
-7.52271
-7.25355
-6.98474
-6.71742
-6.45276
-6.19191
-5.93599
-5.68613
-5.44337
-5.20859
-4.98264
-4.76649
-4.56124
-4.36774
-4.18639
-4.01749
-3.86184
-3.72043
-3.59351
-3.48081
-3.38272
-3.30024
-3.23385
-3.18322
-3.14765
-3.12624
-3.11826
-3.12351
-3.14118
-3.16955
-3.20674
-3.25079
-3.29963
-3.35085
-3.40157
-3.44881
-3.48944
-3.52008
-3.53714
-3.53696
-3.51584
-3.47005
-3.39615
-3.29114
-3.15129
-2.97315
-2.75459
-2.49408
-2.19107
-1.84557
-1.45664
-1.02379
-0.548732
-0.0346353
0.515126
1.09776
1.70974
2.3461
3.00146
3.67055
4.34854
5.0293
5.70846
6.37691
7.03816
7.66561
8.30721
8.82864
-11.1005
-11.1028
-11.1085
-11.1164
-11.1253
-11.1349
-11.1456
-11.1576
-11.1708
-11.1853
-11.201
-11.2178
-11.2355
-11.2542
-11.2737
-11.294
-11.3149
-11.3363
-11.3583
-11.3807
-11.4034
-11.4265
-11.4498
-11.4734
-11.4971
-11.5209
-11.5449
-11.569
-11.5931
-11.6173
-11.6417
-11.6661
-11.6906
-11.7153
-11.74
-11.765
-11.7901
-11.8154
-11.841
-11.8668
-11.8929
-11.9193
-11.946
-11.9731
-12.0004
-12.0281
-12.0561
-12.0845
-12.1132
-12.1422
-12.1714
-12.2008
-12.2304
-12.2601
-12.2898
-12.3194
-12.3489
-12.3781
-12.4069
-12.4352
-12.4629
-12.4898
-12.5157
-12.5405
-12.5639
-12.5858
-12.6059
-12.624
-12.6399
-12.6533
-12.664
-12.6718
-12.6765
-12.678
-12.676
-12.6704
-12.6609
-12.6473
-12.6292
-12.6064
-12.5785
-12.5453
-12.5063
-12.4611
-12.4096
-12.3512
-12.2857
-12.2127
-12.1317
-12.0425
-11.9447
-11.8379
-11.722
-11.5966
-11.4616
-11.3167
-11.1617
-10.9967
-10.8217
-10.6367
-10.4418
-10.2372
-10.0233
-9.80035
-9.56882
-9.32927
-9.08237
-8.82885
-8.56952
-8.30526
-8.03703
-7.76587
-7.49287
-7.21912
-6.94576
-6.67397
-6.40497
-6.13997
-5.88017
-5.62674
-5.38079
-5.14318
-4.91467
-4.69632
-4.48945
-4.29493
-4.113
-3.94372
-3.78812
-3.64758
-3.52231
-3.41186
-3.31683
-3.23855
-3.1773
-3.13248
-3.10348
-3.08966
-3.0902
-3.1041
-3.13008
-3.16661
-3.21196
-3.26424
-3.32137
-3.38084
-3.44003
-3.49601
-3.54484
-3.58262
-3.60601
-3.61152
-3.59538
-3.55384
-3.48363
-3.38191
-3.24507
-3.0697
-2.85342
-2.59447
-2.29208
-1.94626
-1.55676
-1.12358
-0.648199
-0.133331
0.417762
1.00182
1.61499
2.25247
2.90914
3.57966
4.259
4.94089
5.6211
6.29035
6.95231
7.58048
8.22166
8.74584
-11.1116
-11.1135
-11.1181
-11.1247
-11.1325
-11.1412
-11.1508
-11.1617
-11.1738
-11.1871
-11.2017
-11.2173
-11.234
-11.2517
-11.2703
-11.2898
-11.3099
-11.3308
-11.3522
-11.3741
-11.3965
-11.4193
-11.4424
-11.4659
-11.4895
-11.5134
-11.5375
-11.5618
-11.5863
-11.6109
-11.6357
-11.6606
-11.6857
-11.7111
-11.7366
-11.7623
-11.7882
-11.8144
-11.8409
-11.8677
-11.8947
-11.922
-11.9496
-11.9776
-12.0059
-12.0344
-12.0633
-12.0925
-12.122
-12.1517
-12.1816
-12.2117
-12.242
-12.2722
-12.3024
-12.3325
-12.3624
-12.392
-12.4212
-12.4498
-12.4777
-12.5049
-12.531
-12.556
-12.5796
-12.6017
-12.6219
-12.6402
-12.6561
-12.6695
-12.6802
-12.6879
-12.6925
-12.694
-12.6922
-12.687
-12.6779
-12.6649
-12.6474
-12.6251
-12.5979
-12.5653
-12.5269
-12.4825
-12.4315
-12.3736
-12.3085
-12.2357
-12.1548
-12.0655
-11.9675
-11.8604
-11.7439
-11.6178
-11.4818
-11.3358
-11.1794
-11.0128
-10.8359
-10.6488
-10.4516
-10.2444
-10.0276
-9.80155
-9.56663
-9.32346
-9.07272
-8.81516
-8.55161
-8.28295
-8.0102
-7.73444
-7.45679
-7.17839
-6.90042
-6.62411
-6.35073
-6.08158
-5.81791
-5.56096
-5.31184
-5.07133
-4.84012
-4.61938
-4.41074
-4.21509
-4.03241
-3.86269
-3.70736
-3.56845
-3.44643
-3.34111
-3.25251
-3.1806
-3.12537
-3.08678
-3.06467
-3.05872
-3.06807
-3.09082
-3.1252
-3.1699
-3.2233
-3.28356
-3.34847
-3.41511
-3.48099
-3.54333
-3.59833
-3.6421
-3.67113
-3.68183
-3.67035
-3.63288
-3.56618
-3.46735
-3.33302
-3.16001
-2.94586
-2.6887
-2.38754
-2.04217
-1.6526
-1.21932
-0.743838
-0.228641
0.323207
0.908244
1.52238
2.16076
2.81834
3.48969
4.16977
4.85214
5.53279
6.2022
6.864
7.49226
8.13188
8.65867
-11.1184
-11.1201
-11.124
-11.1293
-11.1356
-11.1429
-11.1513
-11.1608
-11.1716
-11.1836
-11.1968
-11.2113
-11.2269
-11.2435
-11.2612
-11.2799
-11.2994
-11.3196
-11.3406
-11.3623
-11.3845
-11.4072
-11.4303
-11.4539
-11.4778
-11.502
-11.5266
-11.5514
-11.5764
-11.6017
-11.6273
-11.6531
-11.6792
-11.7055
-11.732
-11.7588
-11.7858
-11.8131
-11.8406
-11.8685
-11.8966
-11.9249
-11.9536
-11.9825
-12.0117
-12.0411
-12.0707
-12.1007
-12.1308
-12.1611
-12.1916
-12.2221
-12.2527
-12.2833
-12.3137
-12.3439
-12.3739
-12.4036
-12.4328
-12.4614
-12.4892
-12.5163
-12.5423
-12.5672
-12.5907
-12.6126
-12.6327
-12.6508
-12.6664
-12.6795
-12.6898
-12.6971
-12.7012
-12.7025
-12.7009
-12.696
-12.6876
-12.6751
-12.6582
-12.6367
-12.6101
-12.5782
-12.5406
-12.4968
-12.4465
-12.3892
-12.3244
-12.2518
-12.1709
-12.0815
-11.9833
-11.8758
-11.7589
-11.6321
-11.4952
-11.348
-11.1904
-11.0222
-10.8435
-10.6544
-10.4549
-10.2453
-10.0257
-9.79659
-9.55835
-9.31163
-9.05714
-8.79565
-8.52797
-8.25502
-7.97783
-7.69756
-7.41537
-7.13242
-6.84989
-6.5691
-6.29138
-6.0181
-5.75058
-5.49004
-5.23755
-4.99388
-4.75969
-4.53642
-4.32618
-4.13002
-3.94822
-3.78134
-3.63013
-3.4953
-3.37769
-3.27816
-3.1964
-3.13102
-3.08171
-3.04893
-3.03273
-3.03289
-3.04862
-3.07823
-3.11991
-3.17205
-3.23292
-3.30059
-3.37261
-3.4459
-3.51787
-3.58583
-3.64626
-3.6954
-3.72961
-3.74519
-3.73828
-3.70504
-3.64216
-3.5465
-3.41483
-3.24415
-3.03204
-2.77667
-2.47693
-2.13238
-1.74311
-1.30987
-0.83428
-0.318781
0.233621
0.819331
1.43408
2.07294
2.73088
3.40238
4.08247
4.76452
5.44476
6.11351
6.77418
7.40178
8.03867
8.56772
-11.1218
-11.123
-11.1257
-11.1295
-11.1342
-11.1399
-11.1466
-11.1544
-11.1636
-11.1741
-11.186
-11.1991
-11.2136
-11.2293
-11.2462
-11.2641
-11.2831
-11.303
-11.3238
-11.3453
-11.3676
-11.3904
-11.4139
-11.4379
-11.4623
-11.4872
-11.5125
-11.5382
-11.5642
-11.5906
-11.6172
-11.6442
-11.6715
-11.699
-11.7267
-11.7547
-11.7829
-11.8114
-11.8402
-11.8691
-11.8983
-11.9277
-11.9573
-11.987
-12.0169
-12.047
-12.0772
-12.1075
-12.138
-12.1686
-12.1992
-12.2297
-12.2602
-12.2906