/*--------------------------------*- C++ -*----------------------------------*\
| =========                 |                                                 |
| \\      /  F ield         | OpenFOAM: The Open Source CFD Toolbox           |
|  \\    /   O peration     | Version:  2.4.0                                 |
|   \\  /    A nd           | Web:      www.OpenFOAM.org                      |
|    \\/     M anipulation  |                                                 |
\*---------------------------------------------------------------------------*/
FoamFile
{
    version     2.0;
    format      ascii;
    class       volScalarField;
    location    "6.14";
    object      k;
}
// * * * * * * * * * * * * * * * * * * * * * * * * * * * * * * * * * * * * * //

dimensions      [0 2 -2 0 0 0 0];

internalField   nonuniform List<scalar> 
6000
(
0.168224
0.013271
0.000978573
0.00362147
0.00250558
0.00292597
0.00242142
0.00239087
0.00212453
0.00204947
0.00191576
0.00187806
0.00184176
0.001865
0.00190985
0.00199754
0.00211246
0.00226232
0.00244055
0.00264963
0.0028863
0.00315021
0.00343831
0.00374789
0.00407452
0.00441353
0.00475929
0.00510521
0.00544331
0.00576437
0.00605781
0.00631203
0.0065146
0.00665188
0.00671037
0.00667738
0.0065422
0.00629582
0.00593554
0.00546298
0.00489595
0.00425951
0.00360528
0.00330459
0.00435569
0.0056774
0.00723605
0.00918853
0.0113412
0.0141139
0.0168479
0.0208081
0.0239449
0.0300459
0.0329109
0.0437317
0.0441369
0.066869
0.0592852
0.111409
0.0762047
0.0101512
0.000944536
0.00240522
0.00171402
0.001922
0.00160839
0.00156897
0.0014012
0.001345
0.00125996
0.00123195
0.0012083
0.00122051
0.00124752
0.00130025
0.00136994
0.00146013
0.001567
0.00169135
0.0018312
0.00198602
0.00215407
0.00233385
0.00252319
0.00271993
0.00292166
0.00312568
0.0033288
0.00352749
0.00371781
0.00389561
0.00405655
0.0041957
0.00430873
0.00439165
0.0044417
0.00445724
0.0044397
0.00439324
0.00432946
0.00426344
0.0042136
0.00427384
0.00477765
0.00536245
0.00603801
0.00687522
0.00780461
0.00899784
0.0102015
0.0119191
0.0133594
0.0160057
0.0174742
0.022105
0.0228578
0.0323637
0.030449
0.051611
0.0412217
0.00803001
0.000973349
0.00168804
0.00122334
0.00131296
0.00110724
0.00106707
0.00095749
0.000915909
0.000861708
0.000843503
0.000831457
0.000842997
0.000866314
0.000907206
0.000960832
0.00102896
0.00110953
0.00120293
0.00130812
0.00142489
0.00155244
0.00169015
0.00183716
0.00199272
0.00215604
0.00232635
0.00250273
0.00268427
0.00287007
0.00305933
0.0032514
0.00344527
0.00364036
0.00383673
0.00403533
0.0042381
0.00444852
0.00467179
0.00491561
0.00518709
0.00547932
0.00574888
0.00604916
0.00631904
0.00659221
0.00690633
0.00725158
0.00769764
0.00816481
0.00884577
0.00945776
0.010567
0.0112865
0.0132838
0.0138901
0.0179943
0.0178361
0.0268249
0.0260623
0.00677421
0.00107069
0.00126677
0.000916189
0.000934333
0.000789973
0.000751412
0.000677131
0.000646747
0.000613076
0.000604084
0.000602706
0.000618775
0.000645739
0.000686863
0.000739672
0.000805285
0.000882849
0.000972806
0.00107493
0.00118939
0.00131613
0.00145521
0.00160661
0.00177043
0.00194686
0.00213611
0.00233846
0.00255425
0.00278393
0.00302818
0.00328781
0.00356247
0.00385282
0.00415997
0.00448541
0.00483123
0.00519992
0.00559458
0.00601817
0.00647053
0.00692909
0.00731065
0.00759427
0.00779175
0.0079381
0.00805335
0.00815043
0.00825582
0.00836329
0.00853756
0.00870679
0.00906357
0.00932716
0.0100878
0.0104221
0.0121294
0.0123761
0.0162991
0.0187963
0.00609216
0.0012321
0.00103245
0.000726709
0.000696195
0.000585776
0.000548688
0.000496177
0.000474372
0.000455143
0.000454799
0.000463576
0.000487187
0.000522165
0.000570596
0.000631516
0.000705945
0.000793906
0.000896119
0.00101298
0.00114507
0.00129289
0.00145696
0.00163778
0.00183593
0.00205205
0.00228682
0.00254092
0.00281506
0.00311001
0.00342663
0.00376531
0.00412458
0.00450516
0.00490741
0.00533171
0.00577871
0.0062489
0.00674303
0.00726113
0.00779984
0.0083295
0.00877385
0.00910735
0.00933862
0.00949529
0.00958594
0.00962678
0.00962325
0.00959393
0.00954989
0.00950185
0.00949079
0.00947985
0.00962326
0.00970265
0.0102629
0.0104611
0.012196
0.015049
0.00576628
0.00144812
0.000925019
0.000616996
0.000547612
0.000453989
0.000417146
0.000378056
0.000362851
0.000354408
0.00036235
0.000381171
0.000414353
0.000460304
0.000520633
0.000595391
0.000685748
0.000792369
0.000916283
0.00105833
0.00121941
0.00140031
0.00160178
0.00182451
0.00206918
0.00233647
0.00262704
0.00294144
0.00328015
0.00364356
0.00403207
0.004444
0.00487746
0.0053325
0.00580837
0.00630423
0.00681942
0.00735307
0.00790467
0.00847341
0.00905503
0.00961622
0.0101017
0.0104919
0.0107811
0.01099
0.0111209
0.0111889
0.0111891
0.011146
0.0110468
0.0109301
0.010774
0.0106338
0.0104875
0.0103953
0.0103951
0.0104448
0.0112143
0.0130163
0.00565589
0.0017075
0.000909853
0.000565157
0.000459016
0.0003706
0.000332256
0.00030116
0.000291029
0.000291124
0.000307178
0.000336196
0.000380459
0.000439529
0.000514885
0.000607264
0.000718042
0.000848313
0.000999327
0.00117216
0.00136783
0.00158719
0.00183096
0.00209974
0.00239403
0.00271431
0.00306094
0.0034341
0.0038338
0.00425984
0.00471187
0.00518572
0.00568034
0.00619474
0.00672728
0.00727623
0.0078401
0.00841727
0.00900667
0.00960751
0.0102141
0.0107928
0.011308
0.0117442
0.012085
0.012346
0.0125261
0.0126401
0.0126782
0.012667
0.0125828
0.0124742
0.0122916
0.0121244
0.0118763
0.0117136
0.0114672
0.0114125
0.0117553
0.011878
0.00567208
0.0019981
0.000965388
0.000559038
0.000413051
0.000321157
0.000279252
0.000252371
0.000246069
0.000253258
0.000277354
0.000316835
0.000373311
0.000447044
0.000539502
0.000651853
0.000785622
0.000942129
0.00112271
0.00132848
0.00156042
0.00181928
0.00210562
0.00241981
0.00276208
0.00313262
0.00353146
0.00395833
0.0044128
0.00489411
0.00540051
0.00592708
0.00647297
0.00703639
0.007615
0.00820646
0.00880873
0.00941968
0.010038
0.0106631
0.0112858
0.0118771
0.0124142
0.0128835
0.013263
0.0135645
0.0137848
0.0139391
0.014015
0.0140412
0.0139887
0.0139122
0.0137484
0.0136033
0.0133455
0.0131864
0.0128642
0.0127843
0.0129415
0.0112304
0.00575859
0.00230727
0.00107764
0.000590887
0.000399658
0.000296919
0.000249108
0.000223563
0.00021998
0.000233247
0.000265328
0.000315518
0.000385
0.000474404
0.000585186
0.000718725
0.000876604
0.0010602
0.00127083
0.00150955
0.00177723
0.00207447
0.00240163
0.00275882
0.00314603
0.00356315
0.00400987
0.00448555
0.00498932
0.00551998
0.00607385
0.0066467
0.00723727
0.0078431
0.00846131
0.00908905
0.00972387
0.0103632
0.0110057
0.0116507
0.0122841
0.0128854
0.0134383
0.0139298
0.0143357
0.0146652
0.0149138
0.015097
0.0152012
0.0152569
0.0152324
0.0151871
0.0150506
0.0149399
0.0147049
0.0145827
0.0142632
0.0142159
0.0142895
0.0108621
0.00588
0.00262254
0.00123557
0.000655919
0.000413371
0.000292709
0.000236308
0.00020965
0.000207698
0.000226213
0.000266155
0.000327188
0.000410142
0.000515755
0.000645405
0.000800514
0.000982645
0.00119314
0.00143326
0.00170398
0.00200606
0.00233995
0.00270581
0.00310354
0.00353283
0.00399333
0.00448441
0.00500505
0.005554
0.00612961
0.00672616
0.00734082
0.00797154
0.00861529
0.00926873
0.00992854
0.010592
0.0112562
0.0119196
0.0125802
0.0132212
0.01383
0.0143935
0.0148983
0.0153206
0.0156678
0.015934
0.0161354
0.0162576
0.0163327
0.0163276
0.0163053
0.0161914
0.0161116
0.0159041
0.0158253
0.0155347
0.0155448
0.0155723
0.010657
0.00601447
0.00293247
0.00142903
0.000750753
0.000451499
0.00030569
0.000237576
0.000207483
0.000205993
0.000228954
0.00027651
0.000348366
0.000444968
0.000566954
0.000715546
0.000892096
0.00109811
0.00133487
0.00160358
0.00190516
0.00224026
0.0026092
0.00301196
0.00344818
0.00391731
0.00441871
0.00495146
0.00551417
0.00610525
0.00672209
0.00735819
0.00801133
0.00867879
0.00935708
0.0100424
0.010731
0.0114199
0.012106
0.0127877
0.0134591
0.0141058
0.0147197
0.015289
0.0158003
0.016231
0.0165873
0.0168627
0.0170734
0.017205
0.0172906
0.0172964
0.0172884
0.0171896
0.0171327
0.0169483
0.016908
0.0166493
0.0167198
0.0167119
0.0105488
0.00614911
0.00322749
0.00164791
0.000872993
0.000512152
0.000334655
0.000251138
0.000215197
0.000212847
0.000239375
0.000294144
0.000376635
0.000486832
0.000625104
0.00079245
0.000990088
0.00121946
0.00148178
0.00177823
0.00210967
0.00247667
0.00287939
0.00331763
0.00379078
0.004298
0.00483836
0.00541069
0.00601322
0.00664405
0.00729918
0.0079723
0.00866119
0.0093626
0.0100726
0.0107869
0.0115014
0.012213
0.0129183
0.0136149
0.0142933
0.0149439
0.0155603
0.0161313
0.0166435
0.0170764
0.0174351
0.0177128
0.0179258
0.0180599
0.0181488
0.0181586
0.0181574
0.018067
0.0180252
0.0178572
0.0178477
0.0176162
0.0177409
0.0176993
0.0104986
0.00627688
0.00350047
0.00188202
0.00101984
0.000593928
0.000379622
0.00027629
0.000231835
0.000227081
0.000256152
0.000317563
0.000410349
0.00053393
0.000688271
0.000874086
0.00109242
0.00134466
0.00163194
0.00195545
0.00231598
0.00271401
0.00314954
0.00362215
0.00413098
0.00467488
0.00525266
0.00586284
0.00650331
0.00717195
0.00786284
0.00857074
0.009293
0.0100259
0.0107649
0.0115056
0.0122435
0.0129752
0.0136971
0.0144043
0.0150871
0.0157395
0.0163557
0.0169246
0.0174332
0.0178632
0.018219
0.0184937
0.0187035
0.0188347
0.0189212
0.0189297
0.0189294
0.0188417
0.0188084
0.0186511
0.0186649
0.0184542
0.0186244
0.0185484
0.0104827
0.00639444
0.00374691
0.00212148
0.00118757
0.000695954
0.00044071
0.000313132
0.000257113
0.000248138
0.00027853
0.000345836
0.000448446
0.0005851
0.00075524
0.000959242
0.00119794
0.00147266
0.00178446
0.00213452
0.00252356
0.00295194
0.0034195
0.00392558
0.00446905
0.00504844
0.00566226
0.00630879
0.00698554
0.00769002
0.0084146
0.00915522
0.00990863
0.0106706
0.0114363
0.0122009
0.0129595
0.0137088
0.0144443
0.0151577
0.015843
0.0164951
0.0171084
0.0176719
0.0181732
0.018596
0.0189445
0.0192119
0.0194143
0.0195382
0.019618
0.0196209
0.0196169
0.0195277
0.0194978
0.0193463
0.0193773
0.0191815
0.0193889
0.0192777
0.010487
0.00650068
0.00396474
0.00235726
0.00137138
0.000817282
0.000517824
0.000362423
0.000291283
0.000275939
0.000306194
0.000378461
0.0004903
0.000639653
0.000825318
0.00104727
0.00130608
0.001603
0.00193901
0.00231523
0.00273232
0.00319051
0.00368944
0.00422821
0.00480539
0.00541917
0.00606778
0.00674928
0.00746075
0.00819899
0.00895552
0.00972686
0.0105093
0.0112981
0.0120881
0.0128741
0.013651
0.0144153
0.01516
0.015877
0.0165626
0.017212
0.0178198
0.0183749
0.0188656
0.0192778
0.0196156
0.0198721
0.0200635
0.0201769
0.0202465
0.0202407
0.0202294
0.0201354
0.0201048
0.0199555
0.0199985
0.019813
0.0200502
0.0199038
0.0105025
0.00659577
0.00415393
0.00258173
0.00156545
0.00095625
0.000610916
0.000425011
0.000335047
0.000310804
0.000339184
0.000415272
0.000535618
0.000697243
0.000898164
0.00113788
0.00141662
0.00173557
0.00209555
0.00249764
0.00294241
0.00342992
0.00395962
0.00453035
0.00514036
0.00578748
0.00646968
0.00718478
0.00792949
0.00869949
0.00948618
0.0102863
0.0110955
0.0119089
0.0127209
0.0135259
0.0143185
0.0150946
0.0158445
0.0165629
0.0172466
0.017891
0.0184906
0.0190345
0.0195119
0.0199106
0.0202346
0.0204774
0.020655
0.0207552
0.020812
0.0207948
0.0207736
0.0206723
0.020638
0.0204881
0.0205391
0.0203603
0.020621
0.02044
0.0105238
0.0066805
0.00431595
0.00278904
0.00176336
0.00111023
0.000719923
0.000501282
0.000389514
0.0003534
0.000377842
0.000456375
0.000584356
0.00075776
0.000973667
0.001231
0.00152956
0.00187041
0.00225418
0.0026819
0.003154
0.00367039
0.00423028
0.00483225
0.00547421
0.00615364
0.00686822
0.00761558
0.00839205
0.00919179
0.0100068
0.0108336
0.0116676
0.0125033
0.0133348
0.0141563
0.0149621
0.0157454
0.0164979
0.0172155
0.017895
0.0185319
0.019121
0.0196511
0.0201127
0.0204954
0.0208031
0.0210299
0.0211913
0.0212762
0.0213181
0.0212877
0.0212545
0.021144
0.0211037
0.0209512
0.0210069
0.0208322
0.0211109
0.0208967
0.0105474
0.00675592
0.00445331
0.00297533
0.00195859
0.00127554
0.000844151
0.000591532
0.000455797
0.000404712
0.000422784
0.000502108
0.000636664
0.000821265
0.00105186
0.00132668
0.00164496
0.00200765
0.00241507
0.00286818
0.0033673
0.00391211
0.0045016
0.00513406
0.00580709
0.00651776
0.00726347
0.00804172
0.00884834
0.00967588
0.0105174
0.0113689
0.0122253
0.013081
0.0139297
0.0147652
0.0155803
0.0163673
0.0171201
0.0178345
0.0185074
0.0191346
0.0197106
0.0202246
0.0206683
0.0210327
0.021322
0.0215307
0.0216742
0.0217421
0.0217674
0.0217224
0.0216757
0.0215546
0.0215065
0.0213499
0.0214078
0.0212353
0.0215274
0.021282
0.0105712
0.0068231
0.00456901
0.0031386
0.00214507
0.00144756
0.000982042
0.000695962
0.000534562
0.00046602
0.000474888
0.000553025
0.00069286
0.000887947
0.00113288
0.00142506
0.00176299
0.00214744
0.00257838
0.00305667
0.00358245
0.00415521
0.00477369
0.00543587
0.00613904
0.00687984
0.00765541
0.00846312
0.00929789
0.0101515
0.0110176
0.0118916
0.0127683
0.0136415
0.0145048
0.0153511
0.0161713
0.0169597
0.0177104
0.0184192
0.0190832
0.0196982
0.0202588
0.0207546
0.0211783
0.0215225
0.0217916
0.0219805
0.0221045
0.0221541
0.0221617
0.0221009
0.0220397
0.0219072
0.0218499
0.0216882
0.0217462
0.0215747
0.0218763
0.0216021
0.0105941
0.00688304
0.00466624
0.00327855
0.00231769
0.00162101
0.00113104
0.000814186
0.000626361
0.000538517
0.000535286
0.000609892
0.000753419
0.000958101
0.00121692
0.0015263
0.0018838
0.00228996
0.00274428
0.00324751
0.00379959
0.0043998
0.0050466
0.00573769
0.00647002
0.00723978
0.00804383
0.00887955
0.0097404
0.0106184
0.0115069
0.0124013
0.0132958
0.0141842
0.0150593
0.0159118
0.0167345
0.0175218
0.0182679
0.0189687
0.0196214
0.0202218
0.0207647
0.0212402
0.0216422
0.0219645
0.0222117
0.0223795
0.0224829
0.022513
0.0225021
0.0224248
0.0223483
0.0222037
0.0221364
0.021969
0.0220255
0.0218542
0.022162
0.0218621
0.0106153
0.0069366
0.00474806
0.00339617
0.00247262
0.00179038
0.00128758
0.00094503
0.000731441
0.000623096
0.000605356
0.000673688
0.000818975
0.00103213
0.00130426
0.00163063
0.00200756
0.00243538
0.00291292
0.00344082
0.00401882
0.00464592
0.00532033
0.00603944
0.00679987
0.00759736
0.00842848
0.00929068
0.0101755
0.0110759
0.0119847
0.0128971
0.0138071
0.0147081
0.0155903
0.0164462
0.017269
0.0180526
0.0187916
0.0194819
0.0201207
0.0207043
0.0212273
0.0216806
0.0220591
0.0223579
0.0225819
0.0227274
0.0228092
0.0228193
0.0227892
0.022695
0.0226027
0.0224459
0.022368
0.0221946
0.0222483
0.0220769
0.0223882
0.0220658
0.0106345
0.00698453
0.00481727
0.00349343
0.00260753
0.00195042
0.00144727
0.00108639
0.000849455
0.000720316
0.000686531
0.000745604
0.000890329
0.00111052
0.0013952
0.00173826
0.00213447
0.00258384
0.00308442
0.00363671
0.00424017
0.00489357
0.00559482
0.00634099
0.00712841
0.0079523
0.00880897
0.00969607
0.0106025
0.0115233
0.0124502
0.0133783
0.0143012
0.01521
0.0160966
0.0169534
0.0177735
0.0185508
0.0192801
0.0199573
0.0205799
0.0211442
0.0216454
0.0220746
0.0224281
0.022702
0.0229017
0.0230239
0.0230833
0.0230728
0.0230232
0.022912
0.0228039
0.0226348
0.0225461
0.0223667
0.0224166
0.0222452
0.0225577
0.0222164
0.0106516
0.00702745
0.0048763
0.00357284
0.00272153
0.00209658
0.00160514
0.00123517
0.000979273
0.000830282
0.000779688
0.000827362
0.000968458
0.0011939
0.0014901
0.00184943
0.00226466
0.00273547
0.00325887
0.00383521
0.00446366
0.00514269
0.00586993
0.00664213
0.00745532
0.00830422
0.00918482
0.0100947
0.0110208
0.0119599
0.0129026
0.0138435
0.014775
0.0156889
0.0165771
0.017432
0.0182467
0.019015
0.0197319
0.0203935
0.0209975
0.0215403
0.0220174
0.0224209
0.0227479
0.0229958
0.02317
0.0232681
0.0233047
0.0232733
0.0232042
0.0230761
0.0229523
0.0227712
0.0226717
0.0224866
0.0225321
0.022361
0.0226729
0.0223167
0.0106666
0.00706586
0.00492717
0.00363717
0.00281502
0.00222541
0.00175607
0.00138739
0.00111884
0.000952457
0.000885198
0.00092026
0.00105507
0.00128299
0.00158939
0.00196438
0.00239827
0.00289035
0.0034363
0.00403631
0.00468919
0.00539314
0.00614546
0.00694256
0.00778023
0.00865265
0.00955548
0.0104859
0.0114296
0.0123849
0.0133399
0.01429
0.0152273
0.0161435
0.0170306
0.0178807
0.0186871
0.0194437
0.0201456
0.020789
0.0213718
0.0218909
0.0223421
0.0227182
0.0230174
0.023238
0.0233859
0.0234595
0.0234729
0.0234205
0.0233319
0.0231873
0.0230482
0.0228556
0.0227456
0.0225553
0.0225961
0.0224259
0.0227359
0.0223688
0.0106796
0.00710023
0.00497153
0.00368916
0.00288946
0.00233471
0.00189527
0.00153837
0.00126514
0.00108549
0.00100288
0.00102477
0.00115174
0.00137942
0.00169353
0.00208331
0.00253538
0.00304848
0.00361665
0.0042399
0.00491663
0.0056447
0.00642109
0.0072419
0.00810266
0.00899701
0.00992028
0.0108689
0.011828
0.0127953
0.01376
0.0147165
0.0156567
0.0165724
0.0174554
0.018298
0.0190932
0.0198352
0.0205193
0.021142
0.0217012
0.0221943
0.0226177
0.0229649
0.023235
0.0234274
0.0235484
0.0235969
0.023587
0.0235138
0.0234062
0.0232455
0.0230918
0.0228884
0.0227683
0.0225736
0.0226096
0.0224411
0.0227484
0.0223745
0.0106909
0.00713093
0.00501065
0.00373138
0.00294699
0.00242368
0.00201866
0.00168309
0.00141423
0.0012271
0.00113183
0.00114091
0.00125892
0.00148456
0.0018044
0.00220643
0.00267601
0.00320976
0.00379977
0.00444578
0.00514569
0.00589702
0.00669641
0.00753961
0.00842198
0.00933658
0.0102784
0.0112415
0.0122132
0.0131899
0.0141616
0.0151216
0.0160619
0.0169741
0.01785
0.018682
0.0194632
0.0201878
0.0208514
0.0214507
0.021984
0.022449
0.0228427
0.0231594
0.0233994
0.0235628
0.0236562
0.0236794
0.0236462
0.0235526
0.0234265
0.0232505
0.0230829
0.0228698
0.0227405
0.0225421
0.0225736
0.0224079
0.0227118
0.0223356
0.0107005
0.00715831
0.00504554
0.00376607
0.00299021
0.00249273
0.00212326
0.00181663
0.00156143
0.00137402
0.00127027
0.00126802
0.00137664
0.00159866
0.00192245
0.00233529
0.00282107
0.00337399
0.00398535
0.00465357
0.00537594
0.00614961
0.00697085
0.00783505
0.00873684
0.00966927
0.010627
0.0116021
0.0125839
0.0135675
0.0145431
0.0155037
0.0164411
0.0173468
0.0182127
0.0190311
0.0197953
0.0204996
0.0211399
0.0217132
0.0222182
0.0226531
0.0230153
0.0233003
0.0235091
0.0236426
0.0237082
0.0237059
0.0236497
0.0235361
0.0233923
0.023202
0.0230217
0.0228
0.0226623
0.0224616
0.0224888
0.0223272
0.0226276
0.0222534
0.0107087
0.00718268
0.00507692
0.00379513
0.00302183
0.00254336
0.00220739
0.00193459
0.00170168
0.00152207
0.00141542
0.00140464
0.00150434
0.00172158
0.00204759
0.00246962
0.00297036
0.00354151
0.00417336
0.00486286
0.00560663
0.00640135
0.00724292
0.00812636
0.00904565
0.00999382
0.0109648
0.0119496
0.0129387
0.0139263
0.014903
0.0158613
0.0167927
0.0176888
0.0185415
0.0193432
0.0200873
0.0207685
0.0213828
0.0219276
0.022402
0.0228047
0.0231338
0.0233858
0.0235625
0.0236657
0.023703
0.0236754
0.0235966
0.0234638
0.0233031
0.0230997
0.0229078
0.0226789
0.0225341
0.0223323
0.022356
0.0221999
0.022497
0.0221293
0.0107156
0.00720434
0.00510534
0.00382007
0.00304448
0.00257778
0.00227071
0.00203352
0.00182989
0.00166638
0.00156354
0.00154833
0.00164066
0.00185263
0.00217933
0.00260887
0.00312313
0.00371144
0.00436278
0.00507257
0.00583659
0.006651
0.00751132
0.00841221
0.00934701
0.0103088
0.0112901
0.012282
0.0132757
0.0142646
0.0152394
0.0161922
0.0171145
0.0179979
0.0188343
0.0196162
0.0203373
0.0209924
0.021578
0.0220918
0.0225334
0.0229019
0.0231964
0.0234143
0.0235581
0.0236305
0.0236395
0.0235869
0.023486
0.0233348
0.0231585
0.0229433
0.0227414
0.0225067
0.0223562
0.0221548
0.0221759
0.022027
0.0223212
0.0219644
0.0107215
0.00722356
0.00513122
0.00384205
0.00306056
0.00259872
0.00231412
0.00211122
0.00194147
0.00180167
0.00171001
0.00169567
0.00178336
0.00199043
0.00231666
0.00275205
0.00327829
0.00388251
0.00455225
0.00528124
0.00606431
0.00689702
0.00777448
0.00869094
0.00963918
0.0106123
0.0116011
0.0125977
0.0135931
0.0145803
0.0155501
0.0164943
0.0174043
0.0182718
0.0190888
0.0198478
0.0205429
0.0211692
0.0217233
0.0222037
0.0226103
0.0229429
0.0232014
0.023384
0.0234943
0.0235356
0.0235165
0.0234392
0.0233171
0.0231485
0.0229579
0.0227325
0.0225221
0.0222836
0.0221288
0.0219297
0.0219491
0.0218092
0.0221013
0.0217597
0.0107263
0.00724059
0.00515485
0.00386193
0.00307211
0.00260902
0.00233953
0.00216688
0.00203272
0.00192272
0.00184958
0.00184228
0.00192919
0.0021327
0.0024579
0.00289767
0.00343427
0.00405305
0.00473998
0.00548702
0.00628789
0.00713747
0.0080304
0.00896054
0.00992011
0.010902
0.0118958
0.0128943
0.0138886
0.0148711
0.0158328
0.0167652
0.0176598
0.0185082
0.0193025
0.0200357
0.0207018
0.0212963
0.0218165
0.0222611
0.0226307
0.0229257
0.0231468
0.0232934
0.0233696
0.0233798
0.0233328
0.0232314
0.023089
0.0229044
0.022701
0.022467
0.0222501
0.0220095
0.0218524
0.0216572
0.0216764
0.0215473
0.0218383
0.0215164
0.0107304
0.00725566
0.00517647
0.00388031
0.00308081
0.0026115
0.00234961
0.00220106
0.00210121
0.00202483
0.00197672
0.00198301
0.00207394
0.00227626
0.00260058
0.00304354
0.00358894
0.00422082
0.00492365
0.00568753
0.00650493
0.00736993
0.00827665
0.00921856
0.0101873
0.0111752
0.0121716
0.0131692
0.0141595
0.0151344
0.0160849
0.0170023
0.0178783
0.0187044
0.019473
0.0201771
0.0208113
0.0213714
0.0218551
0.0222618
0.0225924
0.0228483
0.0230309
0.0231407
0.0231827
0.0231618
0.0230872
0.0229627
0.022801
0.0226019
0.0223874
0.0221468
0.0219252
0.0216848
0.0215272
0.021338
0.0213584
0.0212422
0.0215333
0.0212355
0.0107337
0.007269
0.00519627
0.00389758
0.00308793
0.00260869
0.0023474
0.00221553
0.00214596
0.00210428
0.00208612
0.00211221
0.00221254
0.00241695
0.00274134
0.00318679
0.00373951
0.00438301
0.00510038
0.00587983
0.00671247
0.00759145
0.0085103
0.00946206
0.0104379
0.0114291
0.0124255
0.0134196
0.0144029
0.0153671
0.0163033
0.0172026
0.0180567
0.0188574
0.0195971
0.0202693
0.0208688
0.0213919
0.0218368
0.0222033
0.0224933
0.0227087
0.0228519
0.0229245
0.022932
0.0228804
0.022779
0.0226322
0.0224527
0.0222406
0.0220169
0.0217718
0.0215478
0.0213097
0.0211537
0.0209727
0.020996
0.0208948
0.0211875
0.0209179
0.0107365
0.00728081
0.0052144
0.003914
0.00309441
0.00260277
0.00233606
0.00221301
0.00216751
0.00215871
0.00217313
0.00222422
0.00233935
0.00254977
0.00287595
0.00332369
0.00388249
0.00453611
0.0052666
0.00606033
0.00690692
0.00779845
0.00872781
0.00968755
0.0106684
0.0116603
0.0126541
0.013642
0.0146155
0.015566
0.0164847
0.0173628
0.018192
0.0189641
0.019672
0.0203094
0.0208715
0.021355
0.0217589
0.0220835
0.0223312
0.022505
0.022608
0.0226431
0.0226164
0.0225344
0.0224071
0.0222394
0.0220436
0.0218203
0.0215894
0.0213421
0.0211179
0.0208846
0.0207324
0.0205619
0.0205898
0.020506
0.0208018
0.0205646
0.0107388
0.00729126
0.005231
0.00392969
0.00310087
0.0025955
0.0023186
0.00219679
0.00216775
0.00218734
0.00223429
0.0023138
0.00244852
0.00266911
0.0029994
0.00344977
0.00401366
0.00467594
0.00541808
0.00622476
0.00708399
0.00798669
0.00892499
0.00989089
0.0108744
0.0118649
0.0128536
0.0138326
0.0147934
0.0157273
0.0166255
0.0174793
0.0182805
0.0190211
0.0196943
0.0202941
0.0208163
0.021258
0.0216188
0.0218998
0.022104
0.0222353
0.0222978
0.0222952
0.0222346
0.0221231
0.021971
0.0217837
0.0215733
0.021341
0.0211051
0.0208579
0.0206361
0.0204101
0.0202641
0.0201065
0.020141
0.0200769
0.0203776
0.0201767
0.0107407
0.00730053
0.0052462
0.00394473
0.00310769
0.00258821
0.00229769
0.00217042
0.00214963
0.00219101
0.00226767
0.00237671
0.0025345
0.00276912
0.00310611
0.00355991
0.00412815
0.00479767
0.00554992
0.00636814
0.00723871
0.00815124
0.00909697
0.0100673
0.0110514
0.0120382
0.0130194
0.013987
0.0149323
0.0158468
0.0167216
0.0175482
0.0183185
0.0190248
0.0196606
0.0202203
0.0207001
0.021098
0.021414
0.0216499
0.0218097
0.0218978
0.0219195
0.0218796
0.0217857
0.0216458
0.0214702
0.021265
0.021042
0.0208028
0.0205643
0.0203198
0.0201028
0.0198868
0.0197496
0.0196073
0.0196505
0.0196084
0.0199159
0.0197552
0.0107422
0.00730876
0.00526011
0.00395913
0.00311505
0.00258183
0.00227556
0.00213736
0.00211686
0.00217206
0.00227309
0.00241015
0.00259257
0.00284414
0.00319031
0.00364851
0.00422057
0.00489592
0.00565665
0.00648489
0.00736544
0.00828646
0.00923821
0.0102114
0.011194
0.0121752
0.0131467
0.0141004
0.0150277
0.01592
0.0167687
0.0175653
0.0183019
0.0189713
0.0195671
0.0200844
0.0205199
0.0208722
0.0211419
0.0213317
0.0214462
0.0214909
0.021472
0.0213952
0.021269
0.0211019
0.0209045
0.0206834
0.0204499
0.0202061
0.0199676
0.0197284
0.0195191
0.0193157
0.0191898
0.0190655
0.0191195
0.0191019
0.0194181
0.0193013
0.0107434
0.0073161
0.00527285
0.00397291
0.003123
0.00257694
0.00225395
0.00210076
0.00207343
0.00213397
0.00225213
0.00241306
0.00261936
0.00288928
0.00324643
0.00370991
0.00428527
0.00496498
0.00573237
0.00656892
0.00745795
0.00838612
0.00934251
0.0103171
0.0112964
0.0122701
0.0132299
0.0141674
0.0150743
0.0159419
0.0167619
0.017526
0.0182265
0.0188565
0.0194102
0.019883
0.0202724
0.0205775
0.0207998
0.0209427
0.0210117
0.021013
0.020954
0.0208413
0.020684
0.0204913
0.020274
0.0200391
0.0197976
0.0195518
0.0193159
0.0190848
0.0188859
0.0186979
0.018586
0.0184822
0.0185493
0.0185586
0.0188856
0.0188161
0.0107444
0.00732265
0.00528452
0.00398606
0.00313151
0.00257384
0.00223411
0.0020633
0.0020233
0.002081
0.00220789
0.00238635
0.00261326
0.00290093
0.00326968
0.00373878
0.00431671
0.00499908
0.00577101
0.00661385
0.00750964
0.00844347
0.00940312
0.0103776
0.0113521
0.0123167
0.0132628
0.0141822
0.0150664
0.0159072
0.0166962
0.0174255
0.0180877
0.0186762
0.0191858
0.0196126
0.0199544
0.0202113
0.0203855
0.0204811
0.0205046
0.0204631
0.0203648
0.0202174
0.0200307
0.0198143
0.0195793
0.019333
0.019086
0.0188409
0.0186105
0.0183903
0.0182046
0.0180349
0.0179397
0.017859
0.0179414
0.0179801
0.01832
0.0183009
0.0107452
0.00732852
0.00529524
0.00399857
0.00314047
0.00257263
0.00221685
0.0020271
0.0019701
0.00201774
0.00214469
0.00233274
0.00257469
0.00287726
0.00325657
0.00373066
0.00430989
0.00499279
0.0057667
0.00661333
0.00751377
0.00845152
0.00941294
0.010386
0.0113543
0.0123082
0.0132391
0.0141385
0.0149983
0.0158103
0.0165663
0.0172588
0.0178808
0.0184261
0.0188901
0.0192695
0.0195628
0.0197708
0.0198966
0.0199451
0.0199236
0.0198402
0.0197039
0.0195236
0.0193094
0.0190717
0.0188214
0.0185664
0.0183166
0.018075
0.0178529
0.0176466
0.017477
0.0173284
0.0172525
0.0171975
0.0172976
0.0173679
0.0177227
0.0177571
0.0107458
0.00733381
0.00530508
0.00401045
0.00314976
0.00257322
0.00220261
0.00199369
0.00191689
0.00194866
0.00206754
0.00225648
0.00250612
0.00281854
0.00320542
0.00368251
0.00426088
0.00494154
0.00571419
0.00656147
0.00746383
0.00840332
0.00936476
0.0103348
0.0112957
0.0122377
0.0131519
0.0140299
0.0148637
0.0156452
0.0163666
0.0170208
0.0176011
0.018102
0.0185193
0.0188504
0.0190947
0.0192537
0.0193312
0.0193333
0.0192678
0.0191439
0.0189715
0.0187603
0.0185211
0.0182646
0.0180019
0.017741
0.0174915
0.0172563
0.0170455
0.0168558
0.0167053
0.0165805
0.0165266
0.0164998
0.0166198
0.0167239
0.0170958
0.0171863
0.0107463
0.0073386
0.00531416
0.00402171
0.00315925
0.00257547
0.00219153
0.00196406
0.00186609
0.0018778
0.00198166
0.00216294
0.00241183
0.00272723
0.00311674
0.0035932
0.00416738
0.00484209
0.00560941
0.0064533
0.00735405
0.00829244
0.00925168
0.010217
0.0111692
0.012098
0.0129944
0.0138498
0.0146563
0.015406
0.0160917
0.0167064
0.017244
0.0176996
0.0180696
0.0183522
0.0185474
0.0186578
0.0186879
0.0186447
0.0185369
0.0183745
0.0181683
0.0179289
0.0176674
0.0173951
0.0171231
0.0168594
0.0166131
0.0163874
0.0161908
0.0160208
0.015892
0.0157937
0.0157643
0.015768
0.0159102
0.0160502
0.016441
0.01659
0.0107467
0.00734295
0.00532253
0.00403236
0.00316883
0.00257914
0.00218352
0.00193875
0.00181943
0.00180852
0.00189202
0.00205799
0.00229751
0.00260784
0.00299334
0.00346387
0.00402917
0.00469311
0.00544997
0.00628539
0.00717994
0.00811345
0.00906754
0.010026
0.010968
0.0118824
0.0127598
0.0135917
0.0143699
0.0150871
0.0157362
0.0163107
0.0168051
0.0172151
0.0175378
0.0177721
0.017919
0.0179818
0.0179659
0.0178792
0.0177313
0.017533
0.0172959
0.0170312
0.0167508
0.016466
0.0161879
0.0159248
0.0156849
0.0154718
0.0152923
0.0151446
0.0150403
0.014971
0.0149685
0.015005
0.0151714
0.0153491
0.0157607
0.01597
0.010747
0.00734694
0.0053303
0.00404244
0.00317839
0.00258399
0.00217838
0.00191793
0.001778
0.00174342
0.00180296
0.00194745
0.00216967
0.00246651
0.00284024
0.00329812
0.00384846
0.00449562
0.00523577
0.00605642
0.00693893
0.00786259
0.00880759
0.00975614
0.010686
0.0115847
0.0124421
0.0132495
0.0139989
0.0146831
0.0152952
0.0158293
0.0162806
0.0166452
0.0169212
0.0171081
0.017208
0.0172248
0.0171651
0.0170374
0.0168522
0.0166212
0.0163567
0.0160704
0.0157747
0.0154812
0.0152006
0.0149414
0.0147113
0.0145137
0.0143542
0.0142314
0.0141539
0.0141158
0.0141425
0.0142136
0.0144061
0.0146231
0.0150572
0.0153284
0.0107473
0.0073506
0.00533752
0.00405196
0.00318784
0.00258978
0.00217577
0.00190148
0.00174236
0.00168429
0.00171799
0.00183663
0.00203496
0.00231042
0.00266428
0.00310187
0.00363008
0.00425334
0.00496938
0.00576773
0.00663101
0.00753845
0.00846914
0.0094037
0.0103188
0.0111999
0.0120362
0.0128184
0.0135385
0.0141893
0.0147645
0.0152586
0.0156673
0.0159875
0.0162179
0.0163592
0.016414
0.0163873
0.0162865
0.0161211
0.0159023
0.0156424
0.0153544
0.0150508
0.0147439
0.0144455
0.0141663
0.0139146
0.0136974
0.0135183
0.0133813
0.0132858
0.0132374
0.0132324
0.0132901
0.0133974
0.0136176
0.0138752
0.0143333
0.0146672
0.0107475
0.00735399
0.00534426
0.00406097
0.00319711
0.00259628
0.00217536
0.00188909
0.00171262
0.00163217
0.00163965
0.00172996
0.00189961
0.00214708
0.00247346
0.00288294
0.00338126
0.00397273
0.00465638
0.00542378
0.00625928
0.00714264
0.00805229
0.00896748
0.00986414
0.0107251
0.0115386
0.0122947
0.0129851
0.0136027
0.0141414
0.0145962
0.0149634
0.0152407
0.0154275
0.0155254
0.0155378
0.0154709
0.0153327
0.0151335
0.0148853
0.0146012
0.0142944
0.013978
0.0136644
0.0133655
0.0130916
0.0128509
0.0126498
0.0124918
0.0123798
0.0123135
0.0122959
0.0123255
0.0124156
0.0125604
0.0128096
0.0131085
0.0135918
0.013989
0.0107476
0.00735716
0.00535058
0.0040695
0.00320617
0.00260331
0.00217678
0.00188036
0.00168857
0.00158751
0.00156959
0.00163079
0.00176894
0.00198362
0.00227621
0.00265039
0.00311118
0.00366277
0.0043053
0.00503236
0.0058304
0.00668039
0.00756069
0.00844958