/*--------------------------------*- C++ -*----------------------------------*\
| =========                 |                                                 |
| \\      /  F ield         | OpenFOAM: The Open Source CFD Toolbox           |
|  \\    /   O peration     | Version:  2.4.0                                 |
|   \\  /    A nd           | Web:      www.OpenFOAM.org                      |
|    \\/     M anipulation  |                                                 |
\*---------------------------------------------------------------------------*/
FoamFile
{
    version     2.0;
    format      ascii;
    class       volScalarField;
    location    "2.2";
    object      nut;
}
// * * * * * * * * * * * * * * * * * * * * * * * * * * * * * * * * * * * * * //

dimensions      [0 2 -1 0 0 0 0];

internalField   nonuniform List<scalar> 
5625
(
2.90459e-05
1.63358e-05
1.59281e-05
1.49404e-05
1.39161e-05
1.30361e-05
1.24211e-05
1.20463e-05
1.18701e-05
1.18337e-05
1.1881e-05
1.19532e-05
1.20291e-05
1.21021e-05
1.21902e-05
1.22998e-05
1.24213e-05
1.25466e-05
1.26819e-05
1.28247e-05
1.29757e-05
1.31394e-05
1.33016e-05
1.34603e-05
1.36194e-05
1.37778e-05
1.39349e-05
1.40887e-05
1.42365e-05
1.43747e-05
1.45e-05
1.4601e-05
1.4673e-05
1.47063e-05
1.47071e-05
1.4672e-05
1.46123e-05
1.45283e-05
1.44255e-05
1.43119e-05
1.41795e-05
1.40495e-05
1.39071e-05
1.37786e-05
1.3654e-05
1.35406e-05
1.3488e-05
1.34226e-05
1.34815e-05
1.34674e-05
1.36286e-05
1.3642e-05
1.3874e-05
1.38923e-05
1.41693e-05
1.41856e-05
1.44657e-05
1.44646e-05
1.47207e-05
1.46896e-05
1.49002e-05
1.48308e-05
1.49823e-05
1.48787e-05
1.49715e-05
1.48379e-05
1.48812e-05
1.47318e-05
1.47433e-05
1.45915e-05
1.45839e-05
1.4443e-05
1.43828e-05
1.45904e-05
2.39441e-05
0.000181343
5.89844e-05
4.13237e-05
3.34875e-05
3.35344e-05
3.5853e-05
3.93956e-05
4.32888e-05
4.7781e-05
5.26006e-05
5.74788e-05
6.20894e-05
6.63133e-05
7.01628e-05
7.39385e-05
7.76347e-05
8.11143e-05
8.43511e-05
8.74413e-05
9.04136e-05
9.31821e-05
9.58049e-05
9.82126e-05
0.00010044
0.000102546
0.000104532
0.000106398
0.000108118
0.00010971
0.000111187
0.000112592
0.000113849
0.000114933
0.000115488
0.000115665
0.00011522
0.000114416
0.000112961
0.000111185
0.000109099
0.000106363
0.000103596
9.99029e-05
9.65705e-05
9.2026e-05
8.83381e-05
8.31161e-05
7.94361e-05
7.45928e-05
7.14352e-05
6.77213e-05
6.52885e-05
6.18311e-05
5.97165e-05
5.63196e-05
5.44518e-05
5.11873e-05
4.94618e-05
4.63769e-05
4.46606e-05
4.17718e-05
3.99857e-05
3.74014e-05
3.5513e-05
3.32278e-05
3.09867e-05
2.90489e-05
2.67021e-05
2.51083e-05
2.27807e-05
2.15816e-05
1.93354e-05
1.85894e-05
1.6428e-05
0.000126753
0.000174453
0.000112739
8.21608e-05
6.45616e-05
5.99734e-05
5.96677e-05
6.17939e-05
6.58027e-05
7.10343e-05
7.74772e-05
8.48605e-05
9.27579e-05
0.000100504
0.000108045
0.0001155
0.000122904
0.000130137
0.000137053
0.000143816
0.000150302
0.000156551
0.000162588
0.000168273
0.000173627
0.000178761
0.000183665
0.000188345
0.000192731
0.000196866
0.000200777
0.000204609
0.000208171
0.000211591
0.000213982
0.000215374
0.000215693
0.000215312
0.000214157
0.000212034
0.000209383
0.000205608
0.000201598
0.000196247
0.000191032
0.000184182
0.000178016
0.000170032
0.000163723
0.000155833
0.000150417
0.000143333
0.000139233
0.000133798
0.000130284
0.000125439
0.000121518
0.000116895
0.000112971
0.000108218
0.000104015
9.93327e-05
9.48608e-05
9.05778e-05
8.53722e-05
8.19748e-05
7.55348e-05
7.27192e-05
6.60887e-05
6.3778e-05
5.70863e-05
5.58809e-05
4.91956e-05
4.88303e-05
4.8162e-05
0.000119438
0.00016844
0.000147147
0.000115885
9.77591e-05
8.72638e-05
8.35281e-05
8.29079e-05
8.51239e-05
8.95432e-05
9.58284e-05
0.000103882
0.000112829
0.000122545
0.000132734
0.00014269
0.000152706
0.000162688
0.000172369
0.000181965
0.00019119
0.000200189
0.000208964
0.000217355
0.000225409
0.000233186
0.000240658
0.000247757
0.00025452
0.000261003
0.000267199
0.000273289
0.000279037
0.000284589
0.000288631
0.000291238
0.000292796
0.000293237
0.000292687
0.000290831
0.000288229
0.000284261
0.000279822
0.000273911
0.000267874
0.000260171
0.000252799
0.000243736
0.000235913
0.0002269
0.000220146
0.000212293
0.000207205
0.000200642
0.000196886
0.000191817
0.000188286
0.000183856
0.000179553
0.000174866
0.000170196
0.000165504
0.000160748
0.000156147
0.000150272
0.000146497
0.000138404
0.000135593
0.000126471
0.000124476
0.000114964
0.000115153
0.000105702
0.00010818
0.000132309
0.000119974
0.00016309
0.000162229
0.000138635
0.000124836
0.000111966
0.000105909
0.000103053
0.000102852
0.000106139
0.000110752
0.000118316
0.000127228
0.000137939
0.000149253
0.00016085
0.000172962
0.000184893
0.00019658
0.000208318
0.000219619
0.000230764
0.000241702
0.000252208
0.000262399
0.000272299
0.000281848
0.000290996
0.000299764
0.000308172
0.000316219
0.000324146
0.000331652
0.000338858
0.000344319
0.000348065
0.000350734
0.000351934
0.000351948
0.000350408
0.000347959
0.000343987
0.000339423
0.000333309
0.000326944
0.000318947
0.000311091
0.000301684
0.000293148
0.000283492
0.000275586
0.000267156
0.000261376
0.000255157
0.000251369
0.000246596
0.000244003
0.000240572
0.000237597
0.000233765
0.00023019
0.000226653
0.000223803
0.000220241
0.000216252
0.000212946
0.000206241
0.000204085
0.000195245
0.000194883
0.000185389
0.00018812
0.000180325
0.00018746
0.000246878
0.000123964
0.000158252
0.000165603
0.000151564
0.000143854
0.000132113
0.000125242
0.000121219
0.000119164
0.000121153
0.000124614
0.000130354
0.000138528
0.000148811
0.000160707
0.000173415
0.000186583
0.000199733
0.000213187
0.000226592
0.000239472
0.000252327
0.000264975
0.000277143
0.000289051
0.000300663
0.000311887
0.000322696
0.000333109
0.000343161
0.000352745
0.000362121
0.000371021
0.000379541
0.000386209
0.000391059
0.000394664
0.00039655
0.000397068
0.000395838
0.000393547
0.000389611
0.000384963
0.000378719
0.000372101
0.000363895
0.000355666
0.000345975
0.000336835
0.000326756
0.000318074
0.000309303
0.000302606
0.000296349
0.000292658
0.000289114
0.0002872
0.000285057
0.000283887
0.000281547
0.000279936
0.000278149
0.000278606
0.000277092
0.000276685
0.000274694
0.000271444
0.000270367
0.000264523
0.000265774
0.000259659
0.00026462
0.000262296
0.000275202
0.000368633
0.00012901
0.000153817
0.000162895
0.000157936
0.00015426
0.000147008
0.00014058
0.000136369
0.000133706
0.000134054
0.000137154
0.000140937
0.000148231
0.000157818
0.00016885
0.000181523
0.000195518
0.000209656
0.000224121
0.000238578
0.000252825
0.000267155
0.00028117
0.000294664
0.000307997
0.00032102
0.000333614
0.00034579
0.000357574
0.000368991
0.000379893
0.000390474
0.00040052
0.000410122
0.000417879
0.000423772
0.000428219
0.000430768
0.000431775
0.000430879
0.000428756
0.000424895
0.000420178
0.000413831
0.000406961
0.000398531
0.000389888
0.000379827
0.000370006
0.000359333
0.000349719
0.000340307
0.000332803
0.000326463
0.00032234
0.000319851
0.000318725
0.000318579
0.000318747
0.000318539
0.000318957
0.000319254
0.000323863
0.000325038
0.000329405
0.000329468
0.000330874
0.000331343
0.000330314
0.000333188
0.000332712
0.000339885
0.000345424
0.000364636
0.000487626
0.000133847
0.000149707
0.000157742
0.000159787
0.000158758
0.000155853
0.000151707
0.000148258
0.000145836
0.000144959
0.000147705
0.000150641
0.000155778
0.000164574
0.00017537
0.000187578
0.00020081
0.000215361
0.000230642
0.000245954
0.000261198
0.000276488
0.000291541
0.000306238
0.000320814
0.000335017
0.000348742
0.000362065
0.000375023
0.000387597
0.000399618
0.000411247
0.000422284
0.000432817
0.000441607
0.00044848
0.000453741
0.000456972
0.000458495
0.000457988
0.00045608
0.000452353
0.000447605
0.000441197
0.000434088
0.000425427
0.000416335
0.000405822
0.000395226
0.000383763
0.000372998
0.000362583
0.000353945
0.000347051
0.000342529
0.000340448
0.000340114
0.000341785
0.000343511
0.000345917
0.000347602
0.000350328
0.00035965
0.000363968
0.000373939
0.000376708
0.000383358
0.000385969
0.000390745
0.000395565
0.000401968
0.000411759
0.000426405
0.000452207
0.000598927
0.000138196
0.000145862
0.000152066
0.000158507
0.000159321
0.000159802
0.000158227
0.000156353
0.000154837
0.000153899
0.000155694
0.000159063
0.00016261
0.000169577
0.00017962
0.000191035
0.000204466
0.000218504
0.000233502
0.000249298
0.000265347
0.000281349
0.00029731
0.000312957
0.000328429
0.000343573
0.000358283
0.000372641
0.000386629
0.0004002
0.000413192
0.000425745
0.000437653
0.00044901
0.000458798
0.000466623
0.000472695
0.000476651
0.000478748
0.000478705
0.000477084
0.000473569
0.000468861
0.000462457
0.000455164
0.000446303
0.000436779
0.000425796
0.000414394
0.00040202
0.000389943
0.000378197
0.000368055
0.000360072
0.000354727
0.000352729
0.000352748
0.000355873
0.0003594
0.000364613
0.000367504
0.000372525
0.000386228
0.000394225
0.000410524
0.000416381
0.000428783
0.00043409
0.000445069
0.000452409
0.000466201
0.000479355
0.000503494
0.000536057
0.000700582
0.000142052
0.000142235
0.000146818
0.00015506
0.00015749
0.000160116
0.000161141
0.000160926
0.00016063
0.000160457
0.000161493
0.00016533
0.000168635
0.000173483
0.000182398
0.000192899
0.000205458
0.000219053
0.000234383
0.0002498
0.000265942
0.000282366
0.000299018
0.000315387
0.000331597
0.000347532
0.000363102
0.000378306
0.000393135
0.000407573
0.000421422
0.000434793
0.000447479
0.000459571
0.000470297
0.000479114
0.000486
0.000490728
0.000493468
0.000493974
0.000492731
0.000489518
0.000484941
0.000478627
0.000471237
0.000462247
0.000452364
0.00044096
0.000428809
0.000415516
0.000402078
0.00038879
0.000376836
0.000367241
0.000360582
0.000358011
0.000358135
0.000362615
0.000367836
0.000375565
0.000380064
0.000386993
0.000404497
0.00041663
0.00043952
0.000448806
0.000467387
0.000475836
0.000493165
0.000503722
0.000524898
0.00054219
0.000575963
0.000615295
0.000792221
0.00014547
0.000138788
0.000142377
0.000150287
0.000154355
0.000158079
0.000160979
0.000162495
0.000163511
0.000164406
0.000165517
0.000168965
0.000173114
0.000176933
0.000183666
0.000193531
0.000205031
0.000217795
0.000232434
0.000247719
0.000264026
0.000280323
0.000297267
0.000314082
0.000330843
0.00034738
0.000363644
0.000379549
0.000395081
0.000410237
0.000424891
0.000439085
0.000452426
0.000465065
0.000476618
0.000486527
0.000494239
0.000499786
0.000503238
0.000504378
0.000503609
0.000500793
0.00049645
0.000490324
0.000482947
0.000473925
0.000463798
0.000452075
0.000439302
0.000425184
0.000410466
0.000395579
0.000381639
0.000370013
0.000361536
0.000357649
0.000357736
0.000362874
0.000369644
0.000379598
0.000385944
0.000394392
0.000415098
0.000432036
0.00046152
0.000474437
0.000499542
0.000511388
0.000535284
0.000549477
0.000578127
0.000599968
0.00064366
0.000689561
0.000874251
0.000148512
0.000135491
0.000138541
0.000145297
0.000150227
0.000154692
0.000158634
0.000161621
0.000163876
0.000165834
0.000167626
0.000170592
0.000175287
0.000179404
0.000184265
0.000192693
0.000203519
0.000215226
0.000228871
0.000243561
0.0002594
0.000275752
0.000292613
0.000309534
0.000326648
0.000343587
0.000360358
0.000376804
0.00039295
0.000408726
0.000424048
0.000438874
0.000452929
0.000466042
0.000478109
0.000489066
0.000497792
0.000504205
0.000508431
0.000510283
0.000510084
0.00050776
0.000503756
0.000497919
0.000490675
0.000481734
0.000471498
0.000459592
0.00044637
0.000431599
0.000415789
0.000399402
0.000383467
0.000369556
0.000358684
0.000353254
0.000352517
0.000357745
0.000365791
0.000377637
0.000385935
0.000395505
0.000418796
0.00044098
0.000477099
0.000494001
0.000525623
0.000541062
0.000571745
0.000589812
0.00062609
0.000652697
0.000706574
0.000758767
0.000947443
0.00015123
0.000132318
0.000135026
0.00014072
0.000145697
0.000150513
0.000154915
0.000158854
0.000162183
0.000165046
0.000167773
0.000170544
0.000175378
0.000180049
0.000184557
0.000190837
0.000200622
0.000211612
0.000224087
0.000237874
0.000252943
0.000268838
0.000285375
0.000302399
0.000319435
0.000336518
0.000353615
0.000370446
0.000387057
0.000403306
0.000419196
0.000434626
0.000449367
0.000463179
0.000475571
0.000487033
0.000496786
0.000504082
0.000509132
0.000511813
0.000512322
0.000510631
0.00050709
0.000501644
0.000494653
0.000485911
0.000475709
0.000463767
0.000450292
0.000435083
0.000418441
0.000400783
0.000383016
0.000366603
0.000353314
0.000345704
0.000343564
0.000348268
0.000357179
0.000370543
0.000380769
0.000391093
0.000416337
0.000444031
0.000486753
0.000508042
0.000546047
0.000565195
0.00060289
0.000624981
0.00066902
0.000700525
0.000764791
0.000822974
0.00101271
0.000153665
0.000129248
0.000131793
0.000136575
0.000141222
0.000145894
0.000150445
0.00015485
0.000158933
0.000162466
0.000166071
0.000169019
0.000173787
0.000178714
0.000183629
0.000188728
0.000196628
0.000206859
0.000218346
0.000231035
0.000245093
0.000260219
0.000276146
0.000292774
0.00030964
0.000326805
0.000343856
0.000360844
0.000377771
0.000394337
0.000410657
0.000426528
0.000441822
0.000456241
0.000469346
0.000480992
0.000491628
0.000500133
0.000505995
0.000509411
0.000510539
0.000509384
0.000506346
0.000501382
0.000494767
0.000486373
0.00047637
0.000464564
0.000451048
0.000435644
0.000418455
0.000399802
0.000380369
0.000361893
0.000346357
0.000336052
0.000331856
0.000335422
0.000344679
0.000359134
0.000371134
0.000381901
0.000408425
0.000441739
0.00049098
0.000516997
0.000561236
0.000584259
0.000629086
0.000655285
0.000707177
0.00074366
0.000818458
0.000882328
0.00107092
0.000155852
0.000126264
0.000128774
0.000132692
0.000136947
0.000141221
0.000145703
0.000150137
0.000154609
0.000158553
0.000162794
0.000166134
0.000170845
0.000175822
0.000180884
0.000186077
0.000192181
0.000201019
0.000211775
0.000223315
0.000236211
0.000250323
0.000265378
0.000281315
0.000297719
0.000314552
0.000331492
0.000348507
0.000365462
0.000382158
0.000398776
0.000414926
0.00043066
0.000445576
0.000459308
0.000471528
0.00048226
0.000491869
0.000498785
0.000503141
0.000505132
0.000504785
0.00050239
0.000498007
0.000491835
0.000483795
0.000474046
0.000462435
0.000449007
0.000433584
0.000416179
0.000396999
0.000376649
0.000356437
0.00033813
0.000324802
0.000318243
0.000320118
0.000329134
0.000344197
0.000357676
0.000368667
0.00039575
0.000434627
0.00049025
0.000521266
0.000571605
0.00059862
0.000650679
0.000681034
0.000740831
0.000782341
0.000867753
0.000937019
0.00112288
0.00015782
0.000123351
0.000125813
0.000129012
0.000132986
0.00013672
0.000140899
0.00014511
0.000149637
0.000153751
0.000158306
0.000162066
0.00016677
0.000171696
0.000176704
0.000182019
0.000187613
0.000194711
0.000204124
0.000214959
0.000226592
0.000239513
0.000253481
0.000268468
0.000284131
0.000300371
0.00031692
0.000333658
0.000350505
0.000367191
0.000383908
0.000400138
0.000416193
0.000431456
0.000445718
0.000458557
0.000469616
0.000479515
0.000487739
0.000493038
0.000495867
0.000496316
0.000494621
0.000490893
0.000485311
0.000477844
0.000468561
0.000457372
0.000444264
0.000429093
0.000411738
0.000392314
0.000371173
0.000349352
0.000328802
0.000312706
0.000303479
0.00030319
0.000311359
0.000326496
0.000341048
0.000352111
0.000379007
0.000423185
0.000485012
0.000521198
0.000577553
0.000608707
0.000668018
0.000702518
0.000770257
0.000816819
0.000912874
0.000987261
0.00116931
0.000159591
0.000120494
0.000122831
0.000125679
0.000129168
0.000132449
0.000136224
0.000140063
0.000144376
0.000148457
0.000152998
0.000157095
0.000161742
0.000166571
0.000171472
0.000176666
0.000182248
0.000188401
0.000196078
0.00020569
0.000216462
0.000228095
0.000240822
0.000254649
0.00026932
0.000284715
0.0003006
0.00031682
0.000333301
0.000349784
0.000366338
0.00038258
0.000398773
0.00041417
0.000428869
0.000442191
0.000453894
0.000463779
0.000472758
0.000479364
0.000483037
0.000484326
0.000483394
0.00048039
0.000475465
0.00046862
0.000459883
0.000449199
0.000436531
0.00042176
0.0004047
0.000385377
0.000363961
0.000341178
0.000318846
0.000300182
0.000288167
0.000285368
0.000292124
0.000306802
0.000321922
0.000332914
0.000358915
0.000407862
0.000475708
0.000517045
0.000579515
0.00061499
0.000681369
0.000720071
0.00079574
0.000847352
0.000954026
0.00103328
0.00121087
0.000161185
0.000117682
0.000119809
0.000122508
0.000125587
0.000128438
0.000131775
0.000135178
0.000139106
0.000142959
0.000147278
0.000151468
0.000156009
0.000160704
0.000165458
0.000170445
0.000175794
0.00018175
0.000188109
0.000196099
0.000205707
0.000216329
0.000227724
0.000240242
0.000253713
0.000268038
0.000283001
0.000298454
0.000314309
0.000330362
0.000346547
0.000362604
0.000378586
0.000394184
0.000409114
0.000422721
0.000434959
0.000445428
0.000454233
0.000462034
0.000466805
0.00046897
0.000468846
0.000466625
0.000462432
0.000456298
0.000448212
0.000438145
0.000426047
0.000411835
0.000395287
0.000376369
0.000355108
0.000331906
0.000308328
0.000287486
0.000272765
0.000267269
0.000272137
0.000285833
0.000301011
0.000311748
0.000336344
0.000388964
0.00046275
0.000509168
0.000577818
0.000617872
0.000691034
0.00073397
0.000817559
0.000874196
0.000991419
0.00107531
0.0012481
0.00016262
0.000114905
0.000116803
0.000119401
0.000122182
0.000124662
0.000127578
0.000130545
0.000134006
0.00013751
0.000141459
0.000145456
0.000149817
0.000154351
0.000158906
0.000163638
0.000168643
0.000174229
0.000180193
0.0001867
0.000194738
0.000204225
0.000214478
0.000225598
0.000237716
0.000250779
0.000264597
0.000279039
0.000294015
0.000309388
0.000324993
0.000340632
0.000356234
0.000371704
0.000386606
0.000400713
0.000413093
0.00042416
0.000433215
0.000441122
0.000447358
0.000450436
0.000451145
0.000449748
0.000446351
0.000441004
0.000433665
0.000424317
0.000412905
0.000399388
0.000383534
0.00036528
0.000344557
0.000321463
0.000297231
0.000274747
0.000257598
0.000249391
0.000252028
0.000264275
0.000279019
0.000289286
0.000312283
0.000366725
0.000446534
0.000497961
0.000572758
0.000617645
0.000697361
0.00074452
0.000835985
0.000897607
0.00102526
0.00111356
0.00128148
0.000163908
0.000112151
0.000113861
0.000116332
0.000118871
0.000121063
0.000123607
0.000126181
0.000129166
0.000132261
0.00013576
0.0001394
0.000143385
0.000147688
0.000152045
0.000156486
0.000161117
0.000166181
0.000171719
0.000177635
0.000184106
0.000192056
0.000201166
0.000211036
0.000221709
0.000233368
0.000245857
0.000259069
0.000272925
0.000287364
0.00030217
0.000317145
0.000332169
0.000347242
0.000361979
0.000375978
0.000388983
0.000400185
0.000409863
0.000417535
0.000424561
0.000428968
0.000430494
0.000429945
0.000427393
0.000422895
0.000416388
0.000407852
0.000397231
0.000384523
0.000369514
0.000352139
0.000332277
0.000309771
0.00028549
0.000261996
0.00024287
0.000232116
0.00023234
0.000242762
0.000256624
0.000266207
0.000287403
0.000341758
0.000427459
0.000483804
0.00056465
0.000614588
0.000700676
0.000752026
0.000851293
0.00091784
0.00105577
0.00114828
0.00131144
0.000165065
0.000109412
0.000110986
0.000113299
0.000115615
0.000117591
0.000119821
0.000122062
0.000124607
0.000127289
0.000130305
0.000133539
0.000137019
0.000140885
0.000145009
0.000149187
0.000153448
0.00015795
0.000162922
0.000168324
0.000174059
0.00018041
0.000187987
0.000196666
0.000206031
0.000216207
0.000227237
0.000239041
0.000251565
0.000264824
0.000278606
0.000292679
0.000306894
0.000321318
0.000335666
0.000349441
0.000362277
0.000374175
0.000384117
0.000392225
0.000398859
0.000404566
0.00040713
0.000407445
0.000405766
0.000402168
0.000396562
0.000388923
0.000379185
0.000367388
0.000353349
0.000337021
0.000318285
0.000296785
0.000273026
0.000249197
0.000228682
0.000215716
0.000213515
0.000221856
0.000234468
0.000243176
0.000262387
0.00031472
0.000405926
0.000467055
0.000553822
0.00060897
0.000701293
0.000756789
0.000863755
0.00093514
0.00108314
0.00117968
0.00133833
0.000166101
0.000106677
0.00010814
0.0001103
0.000112413
0.000114211
0.000116178
0.000118141
0.000120309
0.000122607
0.000125162
0.000127954
0.000130968
0.00013427
0.000137896
0.000141808
0.000145788
0.000149836
0.000154133
0.000158889
0.000164021
0.000169574
0.000175573
0.000182679
0.00019077
0.000199647
0.000209159
0.000219437
0.000230459
0.000242325
0.000254866
0.000267812
0.000280977
0.000294491
0.000308198
0.000321564
0.000334067
0.000345773
0.000356564
0.000365022
0.000371496
0.000377337
0.000381402
0.000382527
0.000381727
0.00037906
0.000374411
0.000367739
0.000358969
0.00034817
0.000335204
0.000320057
0.000302655
0.000282503
0.000259782
0.000236279
0.000215054
0.000200361
0.000195895
0.000202031
0.000213128
0.000220831
0.000237901
0.000286423
0.000382243
0.000448056
0.000540611
0.000601038
0.000699526
0.000759111
0.000873639
0.000949768
0.0011076
0.00120797
0.00136246
0.000167026
0.000103935
0.000105303
0.000107319
0.000109255
0.000110898
0.000112642
0.000114373
0.000116226
0.000118187
0.000120336
0.000122691
0.00012526
0.000128048
0.000131128
0.000134431
0.000138109
0.000141878
0.000145671
0.000149679
0.000154097
0.000158914
0.000164182
0.000169743
0.000176193
0.000183722
0.000191976
0.000200689
0.000210108
0.000220424
0.000231532
0.000243151
0.000255038
0.000267379
0.000280172
0.00029291
0.0003049
0.00031614
0.000326885
0.000336374
0.00034305
0.000348267
0.00035323
0.000355529
0.000355591
0.000353865
0.000350208
0.000344558
0.000336827
0.000327103
0.000315297
0.000301433
0.000285521
0.000266987
0.000245739
0.000223172
0.000201939
0.000186124
0.000179713
0.000183663
0.000193102
0.000199744
0.00021456
0.000258417
0.000356106
0.000427099
0.00052536
0.000590985
0.000695724
0.000759294
0.000881214
0.00096197
0.00112935
0.00123337
0.0013841
0.000167851
0.000101177
0.00010246
0.000104335
0.000106122
0.000107627
0.000109182
0.000110716
0.000112311
0.000113983
0.00011579
0.000117752
0.000119904
0.00012223
0.000124799
0.000127563
0.000130608
0.000133904
0.000137419
0.000140975
0.000144677
0.000148631
0.000153122
0.000157922
0.000163023
0.000168823
0.000175633
0.000183133
0.000190947
0.000199643
0.000209179
0.00021931
0.000229729
0.000240654
0.000252254
0.000264113
0.000275396
0.000285948
0.000296201
0.00030604
0.000313654
0.000318509
0.000323118
0.000326771
0.000327745
0.000326943
0.000324284
0.000319693
0.000313054
0.000304469
0.000293893
0.000281389
0.00026708
0.00025036
0.000230937
0.000209826
0.000189261
0.000172994
0.000165092
0.000167022
0.000174769
0.000180385
0.000192914
0.000231599
0.00032804
0.000404477
0.000508411
0.000579086
0.000690176
0.000757627
0.000886747
0.00097199
0.00114859
0.00125608
0.00140349
0.000168584
9.83913e-05
9.95982e-05
0.000101335
0.000102992
0.000104377
0.000105769
0.000107133
0.000108517
0.000109945
0.000111468
0.000113097
0.000114878
0.000116798
0.000118905
0.000121189
0.000123671
0.000126395
0.000129295
0.000132464
0.000135797
0.000139157
0.000142701
0.000146651
0.000150927
0.000155664
0.000160761
0.000166657
0.000173151
0.000180416
0.000188309
0.000196868
0.000205687
0.000215012
0.000225165
0.000235877
0.000246239
0.000255903
0.000265354
0.000274878
0.000283252
0.00028859
0.000292282
0.000296415
0.000298686
0.000298731
0.000297042
0.00029352
0.000288003
0.000280608
0.000271315
0.000260226
0.000247593
0.000232815
0.00021548
0.000196241
0.000176936
0.00016089
0.000152048
0.000152258
0.000158386
0.000163071
0.000173387
0.000206723
0.000298816
0.000380518
0.000490099
0.00056567
0.000683148
0.00075439
0.000890504
0.000980073
0.00116552
0.0012763
0.00142083
0.000169232
9.55653e-05
9.67019e-05
9.83052e-05
9.98497e-05
0.000101125
0.000102379
0.000103594
0.000104801
0.000106027
0.000107314
0.000108671
0.000110134
0.00011171
0.000113415
0.000115276
0.000117274
0.000119479
0.000121821
0.0001244
0.000127112
0.000130095
0.000133207
0.000136373
0.000139719
0.00014348
0.00014763
0.000152201
0.000156977
0.00016266
0.000169261
0.000176313
0.000183475
0.000191116
0.000199638
0.000208956
0.000218165
0.000226751
0.000235155
0.000243956
0.000252335
0.000258461
0.000261917
0.000265371
0.00026873
0.000269743
0.00026897
0.000266487
0.000262094
0.000255923
0.000247945
0.000238309
0.000227387
0.000214619
0.000199544
0.000182475
0.000164911
0.000149697
0.000140504
0.000139397
0.000144069
0.000147953
0.000156231
0.000184348
0.000269383
0.000355616
0.000470768
0.000551076
0.000674916
0.000749857
0.000892748
0.000986455
0.00118034
0.00129421
0.00143631
0.000169803
9.26857e-05
9.37552e-05
9.52309e-05
9.6678e-05
9.78535e-05
9.89872e-05
0.000100073
0.000101131
0.000102188
0.000103279
0.000104415
0.000105615
0.000106904
0.000108276
0.000109773
0.000111365
0.000113121
0.000114979
0.000117027
0.00011919
0.000121559
0.000124057
0.000126763
0.000129662
0.000132609
0.000135704
0.000139221
0.00014307
0.00014724
0.000151992
0.000157678
0.000163509
0.000169516
0.00017633
0.000184092
0.00019193
0.000199263
0.000206441
0.000214203
0.00022208
0.000228485
0.00023219
0.000234923
0.000238435
0.000240658
0.000240658
0.000239129
0.000235833
0.000230886
0.000224234
0.000216066
0.000206851
0.000196116
0.00018337
0.000168656
0.000153181
0.000139296
0.000130316
0.000128345
0.000131798
0.000135014
0.00014152
0.000164812
0.000240759
0.00033024
0.000450775
0.000535652
0.000665768
0.000744307
0.000893732
0.000991368
0.00119323
0.00131
0.00145007
0.000170304
8.97373e-05
9.0743e-05
9.20945e-05
9.34606e-05
9.45459e-05
9.55748e-05
9.65475e-05
9.74794e-05
9.83952e-05
9.93224e-05
0.000100277
0.000101265
0.000102318
0.000103422
0.000104616
0.000105877
0.000107255
0.000108711
0.000110304
0.000111998
0.00011383
0.000115796
0.000117881
0.000120163
0.000122543
0.000125185
0.000127891
0.000130712
0.000133853
0.000137373
0.000141566
0.000145772
0.000150301
0.000155675
0.000161942
0.000168219
0.000174166
0.000180025
0.000186541
0.000193497
0.000199568
0.000203436
0.000206007
0.000209058
0.000211909
0.000212799
0.000212071
0.000209811
0.000206043
0.000200704
0.000193995
0.000186444
0.000177716
0.000167271
0.00015499
0.000141811
0.000129606
0.000121312
0.000118935
0.00012144
0.000124104
0.000129155
0.000148216
0.000213905
0.000304927
0.000430502
0.000519755
0.000656002
0.000738021
0.000893702
0.000995034
0.00120438
0.00132383
0.00146225
0.00017074
8.6704e-05
8.76499e-05
8.88798e-05
9.01812e-05
9.11866e-05
9.21255e-05
9.30016e-05
9.3826e-05
9.46235e-05
9.54163e-05
9.62217e-05
9.70401e-05
9.79004e-05
9.87917e-05
9.97394e-05
0.000100736
0.000101809
0.00010294
0.000104161
0.000105466
0.000106856
0.000108364
0.000109945
0.000111685
0.000113494
0.000115495
0.000117568
0.000119848
0.000122398
0.000124889
0.000127641
0.000130867
0.000134265
0.00013796
0.000142442
0.000147435
0.000152076
0.000156626
0.000161812
0.000167525
0.000172794
0.00017642
0.000179067
0.000181735
0.000184485
0.000186101
0.000186022
0.000184698
0.000182025
0.000177954
0.000172656
0.000166687
0.000159881
0.000151631
0.000141754
0.000130929
0.000120597
0.00011334
0.000110956
0.000112786
0.000114989
0.000118923
0.000134446
0.000189616
0.000280252
0.000410354
0.000503753
0.000645915
0.000731292
0.00089289
0.000997664
0.00121396
0.00133588
0.00147297
0.000171117
8.357e-05
8.44619e-05
8.55748e-05
8.68277e-05
8.77657e-05
8.86302e-05
8.94263e-05
9.01625e-05
9.08626e-05
9.15463e-05
9.22298e-05
9.2913e-05
9.36189e-05
9.4343e-05
9.50962e-05
9.58852e-05
9.67186e-05
9.75918e-05
9.85213e-05
9.95139e-05
0.000100558
0.000101688
0.000102872
0.000104163
0.000105512
0.000106984
0.000108544
0.000110187
0.000112057
0.000113935
0.000116105
0.000118404
0.000120801
0.000123383
0.000126336
0.000129858
0.000133291
0.000136723
0.000140539
0.000144887
0.000148992
0.000152239
0.000154815
0.000157166
0.000159585
0.00016128
0.000161753
0.000161234
0.00015953
0.000156636
0.000152656
0.00014815
0.000143103
0.000136903
0.000129268
0.000120709
0.000112308
0.000106296
0.000104203
0.000105613
0.000107417
0.000110537
0.000123234
0.000168456
0.000256763
0.000390748
0.000488022
0.00063581
0.000724423
0.000891508
0.000999456
0.00122213
0.00134627
0.00148233
0.00017144
8.03238e-05
8.1174e-05
8.21773e-05
8.3395e-05
8.42845e-05
8.50945e-05
8.583e-05
8.64985e-05
8.71223e-05
8.77207e-05
8.83079e-05
8.88853e-05
8.94702e-05
9.00642e-05
9.06675e-05
9.1295e-05
9.19463e-05
9.26202e-05
9.33291e-05
9.40792e-05
9.48618e-05
9.56958e-05
9.65744e-05
9.75165e-05
9.85036e-05
9.95681e-05
0.000100706
0.000101896
0.000103206
0.000104594
0.000106091
0.000107723
0.000109454
0.000111351
0.000113452
0.000115606
0.000117956
0.000120457
0.000123077
0.000126069
0.000129053
0.00013166
0.000133876
0.000135969
0.000137912
0.000139295
0.000140129
0.000140201
0.000139283
0.000137406
0.000134611
0.000131402
0.000127892
0.000123509
0.000117867
0.000111373
0.00010483
0.000100128
9.85059e-05
9.96972e-05
0.000101161
0.000103709
0.000114229
0.000150935
0.000234727
0.000372118
0.000472943
0.000625986
0.000717747
0.000889728
0.00100059
0.00122903
0.00135516
0.00149042
0.000171713
7.69664e-05
7.78143e-05
7.8699e-05
7.98819e-05
8.07713e-05
8.15521e-05
8.22497e-05
8.28733e-05
8.3444e-05
8.39813e-05
8.44976e-05
8.4996e-05
8.54906e-05
8.59859e-05
8.64778e-05
8.69828e-05
8.74993e-05
8.80239e-05
8.85697e-05
8.91391e-05
8.97284e-05
9.03434e-05
9.09933e-05
9.16787e-05
9.23923e-05
9.31562e-05
9.39701e-05
9.4823e-05
9.5735e-05
9.67185e-05
9.77673e-05
9.88838e-05
0.000100098
0.000101371
0.000102775
0.000104267
0.000105864
0.000107527
0.000109272
0.000111211
0.000113183
0.000115084
0.000116833
0.000118455
0.00011987
0.000121019
0.000121895
0.000122291
0.000121932
0.000120855
0.000119063
0.00011694
0.000114701
0.000111803
0.000107863
0.000103152
9.82738e-05
9.48134e-05
9.3744e-05
9.48454e-05
9.60285e-05
9.81907e-05
0.000107077
0.000137602
0.000213936
0.000355069
0.000458906
0.00061674
0.000711492
0.000887776
0.00100125
0.0012348
0.00136266
0.00149731
0.00017194
7.35272e-05
7.43579e-05
7.5238e-05
7.63522e-05
7.73134e-05
7.80805e-05
7.87652e-05
7.93706e-05
7.99145e-05
8.04166e-05
8.08883e-05
8.13341e-05
8.17669e-05
8.21923e-05
8.26059e-05
8.30223e-05
8.34426e-05
8.38602e-05
8.4289e-05
8.47292e-05
8.51798e-05
8.56403e-05
8.6125e-05
8.66286e-05
8.71465e-05
8.76962e-05
8.82782e-05
8.88841e-05
8.95226e-05
9.02075e-05
9.0939e-05
9.17021e-05
9.25303e-05
9.33962e-05
9.43304e-05
9.53209e-05
9.63789e-05
9.74766e-05
9.86198e-05
9.98376e-05
0.000101112
0.000102386
0.000103625
0.000104774
0.00010578
0.000106657
0.000107413
0.000107913
0.000107889
0.000107377
0.000106366
0.000105091
0.000103826
0.000102053