/*--------------------------------*- C++ -*----------------------------------*\
| =========                 |                                                 |
| \\      /  F ield         | OpenFOAM: The Open Source CFD Toolbox           |
|  \\    /   O peration     | Version:  2.4.0                                 |
|   \\  /    A nd           | Web:      www.OpenFOAM.org                      |
|    \\/     M anipulation  |                                                 |
\*---------------------------------------------------------------------------*/
FoamFile
{
    version     2.0;
    format      ascii;
    class       volScalarField;
    location    "1.02";
    object      epsilon;
}
// * * * * * * * * * * * * * * * * * * * * * * * * * * * * * * * * * * * * * //

dimensions      [0 2 -3 0 0 0 0];

internalField   nonuniform List<scalar> 
6000
(
0.0973386
0.138493
0.180973
0.220958
0.255594
0.283296
0.303639
0.317075
0.324589
0.327384
0.326656
0.323466
0.318686
0.312993
0.30689
0.300732
0.294759
0.289122
0.283907
0.279153
0.274866
0.271028
0.267608
0.264564
0.26185
0.259418
0.257221
0.255215
0.25336
0.25162
0.249965
0.248369
0.246811
0.245275
0.243746
0.242215
0.240673
0.239111
0.237521
0.235893
0.234215
0.23247
0.230637
0.228689
0.226589
0.224289
0.22173
0.218834
0.215505
0.211619
0.207027
0.201539
0.19493
0.186924
0.177232
0.165478
0.151622
0.134955
0.118282
0.0967931
0.0250664
0.0270522
0.0301034
0.0338734
0.0379301
0.0418889
0.045528
0.0487672
0.0516128
0.0541207
0.0563698
0.0584423
0.0604115
0.062336
0.0642571
0.0662002
0.0681756
0.0701815
0.072206
0.0742299
0.0762289
0.0781762
0.0800447
0.0818087
0.0834453
0.0849362
0.0862679
0.0874323
0.0884269
0.0892539
0.0899203
0.0904364
0.0908158
0.0910738
0.0912269
0.0912923
0.0912869
0.0912273
0.0911293
0.0910081
0.0908782
0.0907537
0.0906492
0.0905798
0.0905623
0.0906164
0.0907657
0.0910399
0.0914769
0.0921266
0.0930558
0.094356
0.0961553
0.0986394
0.102077
0.106895
0.113697
0.123549
0.137241
0.169189
0.0219104
0.0195999
0.0179097
0.0167133
0.0158962
0.0153459
0.0149704
0.0147045
0.0145063
0.0143524
0.0142332
0.0141487
0.0141044
0.0141082
0.0141686
0.0142935
0.0144895
0.0147617
0.0151137
0.0155476
0.0160637
0.0166612
0.0173375
0.0180891
0.0189107
0.0197963
0.0207386
0.0217293
0.0227594
0.0238196
0.0249001
0.0259911
0.0270829
0.0281667
0.0292339
0.0302773
0.0312906
0.0322689
0.0332089
0.0341085
0.0349677
0.0357878
0.0365723
0.0373262
0.038057
0.0387745
0.0394914
0.0402247
0.0409964
0.0418364
0.042786
0.0439042
0.0452779
0.047041
0.0494051
0.0527273
0.0576027
0.0651898
0.0772729
0.103734
0.0217582
0.0190981
0.0169124
0.0151094
0.0136187
0.0123813
0.011348
0.0104783
0.00973956
0.00910585
0.00855708
0.00807805
0.00765753
0.00728741
0.00696191
0.00667702
0.00643001
0.00621909
0.00604312
0.00590143
0.0057937
0.00571983
0.00567987
0.00567398
0.00570239
0.00576532
0.00586301
0.00599568
0.00616346
0.00636646
0.00660465
0.00687792
0.00718604
0.00752864
0.00790522
0.00831515
0.00875768
0.00923197
0.00973717
0.0102724
0.0108371
0.0114309
0.0120538
0.0127067
0.0133915
0.0141113
0.0148716
0.0156802
0.0165488
0.0174941
0.0185403
0.0197225
0.0210924
0.0227284
0.0247544
0.0273771
0.0309587
0.0362117
0.0445457
0.0612822
0.0217509
0.019066
0.0168344
0.0149634
0.0133833
0.0120402
0.0108917
0.00990394
0.00904968
0.00830685
0.00765745
0.00708677
0.0065828
0.00613572
0.00573748
0.00538152
0.00506245
0.00477587
0.00451815
0.00428632
0.00407796
0.00389105
0.00372397
0.00357538
0.00344419
0.00332954
0.00323076
0.00314732
0.00307885
0.00302511
0.00298597
0.00296142
0.00295156
0.00295658
0.00297681
0.00301267
0.00306472
0.00313369
0.00322046
0.00332614
0.00345213
0.00360018
0.00377251
0.00397197
0.00420228
0.00446826
0.0047763
0.00513494
0.00555566
0.00605413
0.00665193
0.00737935
0.00827966
0.00941603
0.0108843
0.0128334
0.0155163
0.0193728
0.0253564
0.0361363
0.0217506
0.0190635
0.0168276
0.0149497
0.0133592
0.0120023
0.0108367
0.00982909
0.0089531
0.00818746
0.00751493
0.00692144
0.0063954
0.00592722
0.00550894
0.00513388
0.00479645
0.00449193
0.00421633
0.00396626
0.00373884
0.00353161
0.00334247
0.0031696
0.00301146
0.00286672
0.00273422
0.00261299
0.00250219
0.00240108
0.00230905
0.0022256
0.0021503
0.0020828
0.00202285
0.00197028
0.001925
0.00188699
0.00185638
0.00183339
0.00181842
0.00181203
0.00181506
0.0018287
0.00185458
0.001895
0.00195316
0.00203356
0.00214258
0.00228941
0.0024874
0.00275629
0.00312585
0.00364174
0.00437625
0.00544482
0.00704724
0.00951054
0.0135488
0.0205935
0.0217505
0.019063
0.0168264
0.0149476
0.0133559
0.0119972
0.0108293
0.00981882
0.00893941
0.00816985
0.00749299
0.00689486
0.00636398
0.00589085
0.00546756
0.00508752
0.00474514
0.00443572
0.00415525
0.00390031
0.00366798
0.00345573
0.00326138
0.00308304
0.00291907
0.00276804
0.0026287
0.00249996
0.00238085
0.00227054
0.00216827
0.00207341
0.00198538
0.00190367
0.00182785
0.00175753
0.0016924
0.00163218
0.00157666
0.00152569
0.00147916
0.00143706
0.00139948
0.0013666
0.00133881
0.00131671
0.00130127
0.00129394
0.001297
0.00131395
0.00135026
0.00141468
0.00152146
0.00169438
0.00197428
0.00243219
0.00320042
0.00450967
0.00688064
0.0112073
0.0217505
0.0190628
0.0168258
0.0149465
0.0133545
0.0119955
0.0108272
0.00981625
0.00893631
0.00816614
0.00748859
0.00688968
0.00635793
0.00588386
0.00545958
0.00507848
0.00473501
0.00442446
0.00414284
0.00388672
0.00365317
0.00343968
0.00324404
0.00306436
0.00289898
0.00274647
0.00260554
0.0024751
0.00235414
0.0022418
0.00213732
0.00204
0.00194925
0.0018645
0.0017853
0.00171119
0.00164181
0.00157681
0.00151589
0.00145878
0.00140528
0.00135517
0.00130834
0.00126467
0.00122415
0.00118681
0.00115284
0.00112258
0.00109665
0.00107615
0.0010629
0.00106009
0.00107328
0.00111252
0.00119659
0.00136124
0.00167916
0.00229063
0.00352964
0.00597823
0.0217505
0.0190626
0.0168253
0.0149458
0.0133535
0.0119943
0.0108258
0.00981472
0.00893466
0.00816437
0.0074867
0.00688766
0.00635578
0.00588157
0.00545713
0.00507586
0.00473221
0.00442146
0.00413963
0.00388329
0.0036495
0.00343576
0.00323985
0.00305989
0.00289422
0.00274139
0.00260013
0.00246931
0.00234796
0.00223519
0.00213023
0.00203239
0.00194105
0.00185566
0.00177573
0.00170081
0.0016305
0.00156445
0.00150234
0.00144388
0.0013888
0.00133688
0.00128791
0.00124172
0.00119816
0.00115713
0.00111855
0.00108244
0.0010489
0.00101819
0.000990874
0.000967987
0.00095153
0.000945367
0.000957253
0.00100321
0.00111849
0.00137911
0.00197687
0.00328074
0.0217505
0.0190624
0.0168249
0.0149451
0.0133527
0.0119933
0.0108246
0.00981349
0.00893335
0.008163
0.00748529
0.00688622
0.00635432
0.0058801
0.00545565
0.00507437
0.00473071
0.00441996
0.00413811
0.00388175
0.00364795
0.00343418
0.00323825
0.00305826
0.00289255
0.00273968
0.00259837
0.0024675
0.00234609
0.00223325
0.00212822
0.00203029
0.00193885
0.00185334
0.00177327
0.0016982
0.00162772
0.00156146
0.00149911
0.00144037
0.00138497
0.00133266
0.00128323
0.00123647
0.00119222
0.00115032
0.00111064
0.00107309
0.00103762
0.00100424
0.000973081
0.000944468
0.000919104
0.000898446
0.000885584
0.000887327
0.000919569
0.0010205
0.0012913
0.00195677
0.0217504
0.0190623
0.0168246
0.0149446
0.013352
0.0119925
0.0108237
0.00981245
0.00893224
0.00816185
0.0074841
0.00688502
0.00635311
0.00587889
0.00545445
0.00507319
0.00472954
0.0044188
0.00413698
0.00388064
0.00364686
0.00343311
0.00323719
0.00305722
0.00289153
0.00273867
0.00259738
0.00246652
0.00234512
0.00223229
0.00212726
0.00202933
0.00193789
0.00185238
0.0017723
0.00169722
0.00162672
0.00156044
0.00149806
0.00143928
0.00138383
0.00133145
0.00128194
0.00123508
0.0011907
0.00114863
0.00110872
0.00107085
0.00103493
0.0010009
0.000968768
0.000938623
0.000910734
0.000885694
0.000864788
0.000850936
0.000851072
0.000883596
0.000998612
0.00132663
0.0217504
0.0190622
0.0168243
0.0149442
0.0133514
0.0119917
0.0108229
0.00981155
0.00893128
0.00816085
0.00748307
0.00688398
0.00635207
0.00587784
0.00545341
0.00507217
0.00472854
0.00441782
0.00413601
0.0038797
0.00364594
0.00343221
0.00323632
0.00305637
0.00289071
0.00273787
0.0025966
0.00246576
0.00234438
0.00223157
0.00212655
0.00202864
0.00193722
0.00185172
0.00177166
0.00169659
0.0016261
0.00155984
0.00149747
0.0014387
0.00138325
0.00133088
0.00128137
0.00123451
0.00119012
0.00114803
0.00110809
0.00107017
0.00103418
0.00100003
0.000967683
0.000937177
0.000908637
0.000882365
0.000858989
0.000839892
0.000828169
0.000832594
0.000876932
0.00103342
0.0217504
0.0190622
0.0168241
0.0149439
0.0133509
0.0119911
0.0108222
0.00981078
0.00893045
0.00815998
0.00748218
0.00688307
0.00635115
0.00587693
0.00545251
0.00507128
0.00472766
0.00441696
0.00413518
0.00387888
0.00364514
0.00343144
0.00323557
0.00305564
0.00288999
0.00273718
0.00259593
0.00246511
0.00234375
0.00223095
0.00212596
0.00202807
0.00193666
0.00185118
0.00177113
0.00169608
0.00162561
0.00155936
0.001497
0.00143824
0.00138281
0.00133046
0.00128096
0.00123412
0.00118974
0.00114766
0.00110774
0.00106984
0.00103385
0.000999701
0.00096734
0.000936781
0.00090811
0.000881535
0.000857456
0.000836673
0.000820725
0.000813939
0.000827305
0.000899344
0.0217504
0.0190621
0.0168239
0.0149436
0.0133505
0.0119906
0.0108216
0.00981011
0.00892974
0.00815922
0.0074814
0.00688228
0.00635035
0.00587614
0.00545172
0.00507049
0.00472689
0.00441621
0.00413444
0.00387816
0.00364445
0.00343076
0.00323491
0.003055
0.00288937
0.00273658
0.00259534
0.00246454
0.00234319
0.00223042
0.00212544
0.00202756
0.00193617
0.00185071
0.00177068
0.00169563
0.00162518
0.00155894
0.0014966
0.00143786
0.00138244
0.0013301
0.00128062
0.00123379
0.00118944
0.00114738
0.00110748
0.0010696
0.00103364
0.000999511
0.000967177
0.000936638
0.00090797
0.000881351
0.000857101
0.0008358
0.000818379
0.000807172
0.000807233
0.000838669
0.0217504
0.0190621
0.0168238
0.0149433
0.0133502
0.0119902
0.0108211
0.00980954
0.00892911
0.00815857
0.00748073
0.00688159
0.00634966
0.00587544
0.00545103
0.00506981
0.00472622
0.00441555
0.0041338
0.00387753
0.00364383
0.00343016
0.00323433
0.00305444
0.00288883
0.00273605
0.00259483
0.00246404
0.00234271
0.00222995
0.00212499
0.00202712
0.00193574
0.00185029
0.00177028
0.00169525
0.0016248
0.00155858
0.00149625
0.00143752
0.00138212
0.0013298
0.00128033
0.00123352
0.00118918
0.00114714
0.00110726
0.00106941
0.00103347
0.000999377
0.000967077
0.000936575
0.000907942
0.000881345
0.000857076
0.000835624
0.000817685
0.000804703
0.000799056
0.000811193
0.0217504
0.019062
0.0168237
0.0149431
0.0133499
0.0119898
0.0108206
0.00980904
0.00892858
0.008158
0.00748014
0.00688099
0.00634905
0.00587483
0.00545042
0.00506921
0.00472563
0.00441497
0.00413323
0.00387699
0.0036433
0.00342964
0.00323382
0.00305394
0.00288835
0.00273558
0.00259438
0.00246361
0.00234229
0.00222954
0.00212459
0.00202674
0.00193537
0.00184993
0.00176993
0.00169491
0.00162448
0.00155827
0.00149595
0.00143723
0.00138184
0.00132953
0.00128008
0.00123328
0.00118896
0.00114694
0.00110708
0.00106925
0.00103334
0.000999282
0.000967017
0.000936555
0.000907964
0.000881406
0.00085716
0.000835673
0.000817539
0.000803793
0.000795627
0.000798538
0.0217504
0.019062
0.0168236
0.0149429
0.0133496
0.0119895
0.0108203
0.00980861
0.00892811
0.00815751
0.00747963
0.00688046
0.00634852
0.00587431
0.0054499
0.0050687
0.00472512
0.00441447
0.00413274
0.00387651
0.00364283
0.00342919
0.00323338
0.00305352
0.00288793
0.00273518
0.00259399
0.00246323
0.00234192
0.00222919
0.00212424
0.0020264
0.00193505
0.00184962
0.00176963
0.00169462
0.0016242
0.001558
0.00149569
0.00143699
0.00138161
0.00132931
0.00127987
0.00123309
0.00118878
0.00114678
0.00110694
0.00106913
0.00103325
0.000999222
0.000966994
0.000936572
0.000908025
0.000881511
0.0008573
0.000835815
0.000817598
0.000803476
0.000794118
0.000792483
0.0217504
0.019062
0.0168235
0.0149428
0.0133494
0.0119892
0.0108199
0.00980825
0.00892772
0.00815709
0.00747919
0.00688002
0.00634807
0.00587385
0.00544945
0.00506825
0.00472468
0.00441404
0.00413232
0.00387609
0.00364243
0.0034288
0.003233
0.00305315
0.00288757
0.00273483
0.00259365
0.0024629
0.00234161
0.00222888
0.00212395
0.00202612
0.00193477
0.00184935
0.00176937
0.00169437
0.00162396
0.00155777
0.00149547
0.00143678
0.00138141
0.00132912
0.0012797
0.00123293
0.00118864
0.00114665
0.00110683
0.00106905
0.0010332
0.000999196
0.000967003
0.000936622
0.00090812
0.000881653
0.000857483
0.000836015
0.00081776
0.000803421
0.000793428
0.000789417
0.0217504
0.019062
0.0168235
0.0149427
0.0133492
0.011989
0.0108197
0.00980794
0.00892738
0.00815673
0.00747882
0.00687964
0.00634769
0.00587347
0.00544906
0.00506787
0.00472431
0.00441367
0.00413196
0.00387574
0.00364209
0.00342846
0.00323268
0.00305283
0.00288727
0.00273454
0.00259336
0.00246262
0.00234134
0.00222862
0.0021237
0.00202587
0.00193453
0.00184912
0.00176915
0.00169416
0.00162375
0.00155757
0.00149529
0.0014366
0.00138124
0.00132897
0.00127955
0.0012328
0.00118852
0.00114656
0.00110676
0.001069
0.00103317
0.0009992
0.000967043
0.000936703
0.000908248
0.000881828
0.000857704
0.000836264
0.000817995
0.000803515
0.000793136
0.000787774
0.0217504
0.019062
0.0168234
0.0149426
0.0133491
0.0119888
0.0108194
0.00980769
0.0089271
0.00815644
0.00747851
0.00687932
0.00634736
0.00587314
0.00544874
0.00506755
0.00472399
0.00441337
0.00413166
0.00387545
0.0036418
0.00342818
0.00323241
0.00305257
0.00288701
0.00273429
0.00259312
0.00246239
0.00234111
0.0022284
0.00212348
0.00202567
0.00193434
0.00184894
0.00176897
0.00169398
0.00162359
0.00155741
0.00149514
0.00143646
0.00138111
0.00132884
0.00127944
0.0012327
0.00118844
0.00114649
0.00110671
0.00106897
0.00103317
0.000999232
0.000967112
0.000936813
0.000908405
0.000882036
0.000857961
0.000836559
0.000818294
0.000803723
0.000793085
0.000786879
0.0217504
0.019062
0.0168234
0.0149425
0.013349
0.0119887
0.0108193
0.00980748
0.00892687
0.00815619
0.00747826
0.00687906
0.0063471
0.00587288
0.00544848
0.00506729
0.00472374
0.00441311
0.00413141
0.00387521
0.00364156
0.00342795
0.00323218
0.00305235
0.0028868
0.00273409
0.00259292
0.0024622
0.00234093
0.00222822
0.00212331
0.0020255
0.00193418
0.00184878
0.00176882
0.00169384
0.00162345
0.00155729
0.00149502
0.00143635
0.001381
0.00132875
0.00127936
0.00123263
0.00118838
0.00114645
0.00110669
0.00106897
0.0010332
0.000999291
0.000967206
0.00093695
0.00090859
0.000882273
0.000858253
0.000836896
0.000818653
0.00080403
0.000793216
0.000786447
0.0217504
0.0190619
0.0168234
0.0149424
0.0133489
0.0119885
0.0108191
0.00980732
0.0089267
0.008156
0.00747806
0.00687886
0.00634689
0.00587267
0.00544827
0.00506708
0.00472353
0.00441291
0.00413122
0.00387502
0.00364138
0.00342777
0.00323201
0.00305218
0.00288664
0.00273393
0.00259277
0.00246205
0.00234078
0.00222808
0.00212318
0.00202537
0.00193405
0.00184866
0.0017687
0.00169373
0.00162335
0.00155719
0.00149493
0.00143626
0.00138093
0.00132868
0.0012793
0.00123259
0.00118835
0.00114643
0.00110669
0.001069
0.00103325
0.000999374
0.000967326
0.000937112
0.0009088
0.000882539
0.000858577
0.000837275
0.000819071
0.000804431
0.000793506
0.000786352
0.0217504
0.0190619
0.0168233
0.0149424
0.0133488
0.0119885
0.010819
0.0098072
0.00892656
0.00815586
0.00747791
0.0068787
0.00634674
0.00587251
0.00544812
0.00506693
0.00472338
0.00441277
0.00413107
0.00387487
0.00364124
0.00342764
0.00323188
0.00305206
0.00288652
0.00273381
0.00259266
0.00246194
0.00234067
0.00222798
0.00212308
0.00202528
0.00193396
0.00184858
0.00176862
0.00169366
0.00162328
0.00155712
0.00149486
0.00143621
0.00138088
0.00132864
0.00127927
0.00123257
0.00118834
0.00114644
0.00110672
0.00106905
0.00103333
0.00099948
0.000967468
0.000937298
0.000909035
0.000882831
0.000858932
0.000837694
0.000819546
0.000804925
0.000793948
0.000786542
0.0217504
0.0190619
0.0168233
0.0149424
0.0133488
0.0119884
0.0108189
0.00980712
0.00892648
0.00815577
0.00747781
0.0068786
0.00634664
0.00587241
0.00544802
0.00506683
0.00472328
0.00441267
0.00413097
0.00387478
0.00364115
0.00342755
0.00323179
0.00305197
0.00288644
0.00273373
0.00259258
0.00246187
0.00234061
0.00222791
0.00212302
0.00202522
0.0019339
0.00184852
0.00176857
0.00169361
0.00162323
0.00155708
0.00149483
0.00143618
0.00138086
0.00132863
0.00127927
0.00123257
0.00118836
0.00114648
0.00110677
0.00106912
0.00103342
0.000999608
0.000967633
0.000937505
0.000909294
0.000883148
0.000859316
0.000838152
0.000820078
0.000805511
0.000794539
0.000786993
0.0217504
0.0190619
0.0168233
0.0149423
0.0133488
0.0119884
0.0108189
0.00980708
0.00892643
0.00815572
0.00747777
0.00687855
0.00634659
0.00587236
0.00544796
0.00506678
0.00472323
0.00441262
0.00413093
0.00387474
0.00364111
0.00342751
0.00323175
0.00305193
0.0028864
0.00273369
0.00259254
0.00246183
0.00234057
0.00222788
0.00212299
0.00202519
0.00193388
0.0018485
0.00176855
0.00169359
0.00162322
0.00155707
0.00149482
0.00143618
0.00138087
0.00132864
0.00127929
0.0012326
0.00118841
0.00114653
0.00110684
0.00106922
0.00103354
0.000999758
0.000967819
0.000937734
0.000909573
0.000883488
0.000859728
0.000838647
0.000820666
0.000806188
0.000795279
0.000787695
0.0217504
0.0190619
0.0168233
0.0149423
0.0133488
0.0119884
0.0108189
0.00980708
0.00892643
0.00815572
0.00747777
0.00687855
0.00634659
0.00587236
0.00544797
0.00506678
0.00472324
0.00441262
0.00413093
0.00387474
0.00364111
0.00342751
0.00323175
0.00305193
0.0028864
0.00273369
0.00259255
0.00246184
0.00234058
0.00222789
0.00212299
0.0020252
0.00193389
0.00184851
0.00176856
0.0016936
0.00162323
0.00155709
0.00149484
0.0014362
0.0013809
0.00132868
0.00127933
0.00123266
0.00118847
0.00114661
0.00110694
0.00106933
0.00103368
0.000999928
0.000968024
0.000937983
0.000909874
0.000883852
0.000860167
0.000839179
0.000821309
0.000806956
0.00079617
0.000788649
0.0217504
0.0190619
0.0168233
0.0149424
0.0133488
0.0119884
0.0108189
0.00980712
0.00892648
0.00815577
0.00747781
0.0068786
0.00634664
0.00587241
0.00544802
0.00506683
0.00472329
0.00441267
0.00413098
0.00387478
0.00364115
0.00342755
0.0032318
0.00305198
0.00288644
0.00273374
0.00259259
0.00246188
0.00234062
0.00222793
0.00212303
0.00202524
0.00193393
0.00184854
0.0017686
0.00169364
0.00162328
0.00155713
0.00149489
0.00143625
0.00138095
0.00132874
0.0012794
0.00123273
0.00118856
0.00114671
0.00110706
0.00106947
0.00103385
0.00100012
0.00096825
0.000938251
0.000910195
0.000884237
0.000860633
0.000839747
0.000822007
0.000807818
0.000797215
0.000789859
0.0217504
0.0190619
0.0168233
0.0149424
0.0133488
0.0119885
0.010819
0.0098072
0.00892656
0.00815586
0.00747791
0.0068787
0.00634674
0.00587252
0.00544812
0.00506693
0.00472339
0.00441277
0.00413107
0.00387488
0.00364125
0.00342764
0.00323188
0.00305206
0.00288652
0.00273382
0.00259267
0.00246195
0.00234069
0.002228
0.0021231
0.00202531
0.001934
0.00184862
0.00176867
0.00169371
0.00162335
0.00155721
0.00149497
0.00143633
0.00138103
0.00132883
0.00127949
0.00123283
0.00118867
0.00114684
0.0011072
0.00106963
0.00103403
0.00100033
0.000968494
0.000938538
0.000910534
0.000884642
0.000861123
0.000840349
0.00082276
0.000808773
0.000798419
0.000791334
0.0217504
0.0190619
0.0168234
0.0149424
0.0133489
0.0119885
0.0108191
0.00980732
0.0089267
0.008156
0.00747806
0.00687886
0.0063469
0.00587267
0.00544827
0.00506708
0.00472354
0.00441292
0.00413122
0.00387502
0.00364138
0.00342778
0.00323202
0.00305219
0.00288665
0.00273394
0.00259279
0.00246207
0.0023408
0.00222811
0.00212321
0.00202541
0.0019341
0.00184872
0.00176877
0.00169382
0.00162345
0.00155731
0.00149507
0.00143644
0.00138114
0.00132894
0.00127961
0.00123296
0.0011888
0.00114698
0.00110736
0.0010698
0.00103423
0.00100056
0.000968758
0.000938844
0.000910893
0.000885068
0.000861637
0.000840986
0.000823569
0.000809826
0.000799787
0.000793089
0.0217504
0.019062
0.0168234
0.0149425
0.013349
0.0119887
0.0108193
0.00980748
0.00892687
0.00815619
0.00747826
0.00687906
0.0063471
0.00587288
0.00544848
0.00506729
0.00472374
0.00441312
0.00413142
0.00387521
0.00364157
0.00342796
0.00323219
0.00305237
0.00288682
0.0027341
0.00259294
0.00246223
0.00234096
0.00222826
0.00212336
0.00202555
0.00193424
0.00184885
0.00176891
0.00169395
0.00162358
0.00155744
0.0014952
0.00143657
0.00138127
0.00132908
0.00127975
0.00123311
0.00118896
0.00114715
0.00110754
0.00107
0.00103445
0.00100081
0.00096904
0.000939167
0.000911269
0.000885513
0.000862175
0.000841656
0.000824433
0.000810978
0.000801328
0.000795145
0.0217504
0.019062
0.0168234
0.0149426
0.0133491
0.0119888
0.0108194
0.00980769
0.0089271
0.00815644
0.00747851
0.00687932
0.00634737
0.00587314
0.00544875
0.00506755
0.004724
0.00441337
0.00413166
0.00387545
0.00364181
0.00342819
0.00323242
0.00305258
0.00288703
0.00273431
0.00259315
0.00246242
0.00234115
0.00222844
0.00212354
0.00202573
0.00193441
0.00184902
0.00176907
0.00169411
0.00162374
0.0015576
0.00149536
0.00143673
0.00138144
0.00132924
0.00127992
0.00123328
0.00118914
0.00114734
0.00110774
0.00107023
0.00103469
0.00100107
0.000969341
0.00093951
0.000911664
0.000885977
0.000862736
0.00084236
0.000825352
0.000812235
0.000803052
0.000797528
0.0217504
0.019062
0.0168235
0.0149427
0.0133492
0.011989
0.0108197
0.00980794
0.00892738
0.00815673
0.00747882
0.00687964
0.00634769
0.00587347
0.00544907
0.00506787
0.00472431
0.00441368
0.00413197
0.00387575
0.0036421
0.00342847
0.00323269
0.00305285
0.00288729
0.00273456
0.00259339
0.00246266
0.00234138
0.00222867
0.00212376
0.00202595
0.00193462
0.00184923
0.00176927
0.00169431
0.00162394
0.00155779
0.00149555
0.00143692
0.00138163
0.00132943
0.00128012
0.00123348
0.00118935
0.00114756
0.00110797
0.00107047
0.00103496
0.00100136
0.000969662
0.00093987
0.000912077
0.00088646
0.00086332
0.000843096
0.000826328
0.0008136
0.00080497
0.000800275
0.0217504
0.019062
0.0168235
0.0149428
0.0133494
0.0119892
0.0108199
0.00980825
0.00892772
0.00815709
0.00747919
0.00688002
0.00634807
0.00587385
0.00544945
0.00506825
0.00472469
0.00441405
0.00413233
0.0038761
0.00364244
0.00342881
0.00323302
0.00305317
0.0028876
0.00273486
0.00259368
0.00246294
0.00234165
0.00222894
0.00212402
0.0020262
0.00193487
0.00184947
0.00176951
0.00169454
0.00162416
0.00155802
0.00149577
0.00143714
0.00138185
0.00132965
0.00128034
0.00123371
0.00118958
0.0011478
0.00110823
0.00107074
0.00103524
0.00100167
0.000970002
0.00094025
0.000912508
0.000886963
0.000863925
0.000843866
0.000827361
0.000815079
0.000807098
0.000803432
0.0217504
0.019062
0.0168236
0.0149429
0.0133496
0.0119895
0.0108203
0.00980861
0.00892811
0.00815751
0.00747963
0.00688047
0.00634853
0.00587431
0.00544991
0.0050687
0.00472513
0.00441448
0.00413275
0.00387652
0.00364285
0.0034292
0.0032334
0.00305354
0.00288796
0.00273521
0.00259402
0.00246327
0.00234198
0.00222925
0.00212432
0.0020265
0.00193516
0.00184975
0.00176979
0.00169481
0.00162443
0.00155828
0.00149603
0.0014374
0.0013821
0.00132991
0.00128059
0.00123397
0.00118984
0.00114807
0.0011085
0.00107103
0.00103555
0.00100201
0.000970365
0.00094065
0.000912959
0.000887484
0.000864554
0.000844668
0.000828452
0.000816681
0.000809451
0.000807058
0.0217504
0.019062
0.0168237
0.0149431
0.0133499
0.0119898
0.0108206
0.00980904
0.00892858
0.008158
0.00748014
0.00688099
0.00634905
0.00587484
0.00545043
0.00506922
0.00472564
0.00441498
0.00413324
0.003877
0.00364331
0.00342966
0.00323384
0.00305397
0.00288838
0.00273562
0.00259442
0.00246366
0.00234235
0.00222961
0.00212467
0.00202684
0.00193549
0.00185008
0.0017701
0.00169512
0.00162474
0.00155858
0.00149633
0.00143769
0.00138239
0.00133019
0.00128088
0.00123426
0.00119014
0.00114837
0.00110881
0.00107135
0.00103589
0.00100236
0.00097075
0.000941072
0.00091343
0.000888026
0.000865205
0.000845503
0.000829602
0.000818411
0.00081205
0.000811232
0.0217504
0.0190621
0.0168238
0.0149433
0.0133502
0.0119902
0.0108211
0.00980954
0.00892912
0.00815857
0.00748073
0.00688159
0.00634966
0.00587544
0.00545103
0.00506982
0.00472623
0.00441556
0.00413381
0.00387755
0.00364385
0.00343018
0.00323435
0.00305446
0.00288886
0.00273608
0.00259487
0.0024641
0.00234278
0.00223003
0.00212508
0.00202723
0.00193588
0.00185045
0.00177047
0.00169548
0.00162508
0.00155892
0.00149666
0.00143802
0.00138272
0.00133052
0.00128121
0.00123458
0.00119046
0.0011487
0.00110915
0.0010717
0.00103625
0.00100275
0.00097116
0.000941517
0.000913923
0.000888589
0.000865879
0.000846371
0.000830812
0.000820281
0.000814919
0.000816056
0.0217504
0.0190621
0.0168239
0.0149436
0.0133505
0.0119906
0.0108216
0.00981011
0.00892974
0.00815923
0.00748141
0.00688228
0.00635036
0.00587614
0.00545173
0.0050705
0.0047269
0.00441622
0.00413445
0.00387818
0.00364446
0.00343078
0.00323493
0.00305503
0.00288941
0.00273662
0.00259539
0.0024646
0.00234326
0.0022305
0.00212554
0.00202768
0.00193631
0.00185088
0.00177089
0.00169589
0.00162548
0.00155931
0.00149705
0.00143839
0.00138309
0.00133089
0.00128157
0.00123494
0.00119083
0.00114907
0.00110952
0.00107208
0.00103665
0.00100316
0.000971598
0.000941988
0.00091444
0.000889176
0.000866578
0.000847273
0.000832083
0.000822301
0.000818083
0.000821667
0.0217504
0.0190622
0.0168241
0.0149439
0.0133509
0.0119911
0.0108222
0.00981078
0.00893046
0.00815998
0.00748218
0.00688307
0.00635116
0.00587694
0.00545252
0.00507128
0.00472767
0.00441697
0.00413519
0.0038789
0.00364516
0.00343146
0.0032356
0.00305567
0.00289003
0.00273722
0.00259598
0.00246517
0.00234382
0.00223104
0.00212607
0.0020282
0.00193681
0.00185136
0.00177136
0.00169635
0.00162593
0.00155975
0.00149748
0.00143882
0.00138351
0.0013313
0.00128198
0.00123535
0.00119123
0.00114947
0.00110994
0.0010725
0.00103708
0.00100361
0.000972068
0.000942489
0.000914985
0.000889789
0.000867304
0.00084821
0.000833419
0.000824485
0.000821574
0.000828252
0.0217504
0.0190622
0.0168243
0.0149442
0.0133514
0.0119917
0.0108229
0.00981155
0.00893128
0.00816085
0.00748308
0.00688398
0.00635207
0.00587785
0.00545342
0.00507217
0.00472855
0.00441783
0.00413603
0.00387972
0.00364596
0.00343224
0.00323635
0.00305641
0.00289075
0.00273792
0.00259665
0.00246583
0.00234446
0.00223166
0.00212667
0.00202878
0.00193738
0.00185192
0.0017719
0.00169688
0.00162645
0.00156026
0.00149797
0.00143931
0.00138398
0.00133177
0.00128245
0.00123581
0.0011917
0.00114994
0.0011104
0.00107298
0.00103756
0.00100411
0.000972589
0.000943039
0.000915578
0.000890448
0.000868076
0.0008492
0.000834833
0.000826858
0.000825438
0.000836074
0.0217504
0.0190623
0.0168246
0.0149446
0.013352
0.0119925
0.0108237
0.00981245
0.00893224
0.00816185
0.00748411
0.00688502
0.00635312
0.00587889
0.00545446
0.0050732
0.00472955
0.00441882
0.00413699
0.00388066
0.00364688
0.00343313
0.00323722
0.00305726
0.00289157
0.00273872
0.00259744
0.00246659
0.0023452
0.00223239
0.00212738
0.00202947
0.00193806
0.00185258
0.00177255
0.00169752
0.00162708
0.00156088
0.00149859
0.00143991
0.00138459
0.00133237
0.00128304
0.00123641
0.0011923
0.00115055
0.00111102
0.0010736
0.00103821
0.00100477
0.000973278
0.000943759
0.000916339
0.00089127
0.000869004
0.000850341
0.000836414
0.000829503
0.000829772
0.000845535
0.0217505
0.0190624
0.0168249
0.0149451
0.0133527
0.0119933
0.0108247
0.0098135
0.00893335
0.00816301
0.00748529
0.00688623
0.00635433
0.0058801
0.00545566
0.00507438
0.00473072
0.00441997
0.00413812
0.00388177
0.00364797
0.0034342
0.00323828
0.00305829
0.00289259
0.00273973
0.00259843
0.00246758
0.00234618
0.00223336
0.00212834
0.00203044
0.00193902
0.00185355
0.00177352
0.0016985
0.00162807
0.00156189
0.00149962
0.00144097
0.00138567
0.00133349
0.0012842
0.0012376
0.00119352
0.00115181
0.00111233
0.00107496
0.00103961
0.00100623
0.000974777
0.000945301
0.000917921
0.000892896
0.0008707
0.000852198
0.000838661
0.000832853
0.000834949
0.00085739
0.0217505
0.0190626
0.0168253
0.0149458
0.0133535
0.0119943
0.0108258
0.00981472
0.00893466
0.00816437
0.0074867
0.00688766
0.00635578
0.00588157
0.00545714
0.00507587
0.00473222
0.00442148
0.00413964
0.00388331
0.00364953
0.00343578
0.00323988
0.00305993
0.00289426
0.00274144
0.00260019
0.00246938
0.00234804
0.00223529
0.00213035
0.00203253
0.00194121
0.00185584
0.00177593
0.00170104
0.00163076
0.00156474
0.00150265
0.0014442
0.00138911
0.00133714
0.00128806
0.00124168
0.00119782
0.00115633
0.00111707
0.00107992
0.00104479
0.00101159
0.000980306
0.000950949
0.00092363
0.000898597
0.000876329
0.000857741
0.000844257
0.000839209
0.000842852
0.000873764
0.0217505
0.0190628
0.0168258
0.0149465
0.0133545
0.0119955
0.0108272
0.00981625
0.00893631
0.00816614
0.00748859
0.00688968
0.00635793
0.00588386
0.00545958
0.00507849
0.00473502
0.00442448
0.00414285
0.00388674
0.0036532
0.0034397
0.00324406
0.00306439
0.00289902
0.00274651
0.00260559
0.00247515
0.00235419
0.00224186
0.00213738
0.00204005
0.00194928
0.00186452
0.00178527
0.00171109
0.0016416
0.00157644
0.00151527
0.0014578
0.00140375
0.00135287
0.00130491
0.00125964
0.00121679
0.00117634
0.00113814
0.00110204
0.00106791
0.00103565
0.00100517
0.000976408
0.000949403
0.000924304
0.000901506
0.000881879
0.000866938
0.000860614
0.000863384
0.000903286
0.0217505
0.019063
0.0168264
0.0149476
0.0133559
0.0119972
0.0108293
0.00981883
0.00893942
0.00816985
0.007493
0.00689487
0.00636398
0.00589085
0.00546757
0.00508752
0.00474515
0.00443573
0.00415526
0.00390032
0.00366799
0.00345574
0.00326138
0.00308304
0.00291906
0.00276803
0.00262867
0.00249991
0.00238076
0.0022704
0.00216806
0.00207309
0.0019849
0.00190296
0.00182681
0.00175603
0.00169023
0.00162908
0.00157224
0.00151941
0.00147028
0.00142454
0.00138187
0.00134192
0.00130428
0.00126867
0.00123548
0.00120449
0.00117546
0.00114809
0.00112202
0.00109686
0.00107219
0.00104765
0.00102307
0.000998773
0.000975915
0.000958696
0.000947843
0.000987102
0.0217506
0.0190635
0.0168276
0.0149497
0.0133592
0.0120023
0.0108367
0.00982909
0.0089531
0.00818746
0.00751494
0.00692144
0.0063954
0.00592723
0.00550894
0.00513388
0.00479645
0.00449192
0.00421632
0.00396624
0.00373881
0.00353156
0.0033424
0.00316949
0.00301131
0.00286649
0.0027339
0.00261254
0.00250154
0.00240016
0.00230775
0.00222377
0.00214772
0.00207918
0.00201778
0.00196318
0.00191507
0.00187314
0.00183709
0.00180658
0.00178121
0.00176052
0.0017439
0.0017306
0.00171963
0.00170933
0.00170219
0.00169844
0.00169709
0.00169671
0.00169545
0.00169097
0.00168054