/*--------------------------------*- C++ -*----------------------------------*\
| =========                 |                                                 |
| \\      /  F ield         | OpenFOAM: The Open Source CFD Toolbox           |
|  \\    /   O peration     | Version:  2.4.0                                 |
|   \\  /    A nd           | Web:      www.OpenFOAM.org                      |
|    \\/     M anipulation  |                                                 |
\*---------------------------------------------------------------------------*/
FoamFile
{
    version     2.0;
    format      ascii;
    class       volScalarField;
    location    "0.63";
    object      epsilon;
}
// * * * * * * * * * * * * * * * * * * * * * * * * * * * * * * * * * * * * * //

dimensions      [0 2 -3 0 0 0 0];

internalField   nonuniform List<scalar> 
6000
(
0.0973386
0.138493
0.180973
0.220958
0.255594
0.283296
0.303639
0.317076
0.324591
0.327388
0.326663
0.323478
0.318706
0.313027
0.306944
0.300818
0.294889
0.289315
0.284185
0.279539
0.275383
0.271695
0.268437
0.265553
0.262983
0.260665
0.258539
0.256555
0.254672
0.252859
0.251099
0.249379
0.247693
0.246038
0.244413
0.242818
0.24125
0.239708
0.238191
0.236693
0.235211
0.233734
0.232249
0.230734
0.229154
0.227463
0.225595
0.223462
0.220953
0.217922
0.214191
0.209533
0.203671
0.196253
0.186874
0.174994
0.160303
0.141865
0.122243
0.096541
0.0250664
0.0270522
0.0301034
0.0338734
0.0379301
0.0418888
0.0455278
0.0487667
0.0516118
0.0541189
0.0563665
0.0584363
0.0604012
0.0623185
0.0642282
0.0661534
0.0681016
0.0700673
0.0720344
0.073979
0.0758724
0.0776845
0.0793861
0.080952
0.0823625
0.0836043
0.0846705
0.08556
0.0862762
0.0868259
0.0872186
0.0874653
0.0875783
0.0875705
0.0874552
0.0872451
0.0869525
0.0865891
0.0861663
0.085696
0.0851921
0.0846718
0.084157
0.083675
0.0832586
0.0829459
0.0827791
0.082804
0.0830715
0.0836398
0.0845808
0.0859907
0.0880069
0.0908386
0.0948119
0.100466
0.108676
0.121002
0.139375
0.182586
0.0219104
0.0195999
0.0179097
0.0167133
0.0158962
0.0153459
0.0149703
0.0147044
0.0145061
0.014352
0.0142325
0.0141474
0.0141022
0.0141045
0.0141625
0.0142835
0.0144736
0.0147371
0.0150762
0.0154918
0.0159824
0.0165451
0.017175
0.0178657
0.018609
0.0193953
0.0202139
0.0210533
0.0219014
0.0227464
0.0235771
0.0243829
0.0251544
0.0258834
0.0265629
0.0271872
0.0277519
0.0282538
0.028691
0.0290627
0.029369
0.0296118
0.0297948
0.029925
0.0300134
0.0300764
0.0301363
0.030222
0.0303688
0.0306197
0.0310277
0.0316611
0.0326146
0.034031
0.0361403
0.0393384
0.0443407
0.0525033
0.0664621
0.0968851
0.0217582
0.0190981
0.0169124
0.0151094
0.0136187
0.0123813
0.011348
0.0104783
0.00973952
0.00910578
0.00855694
0.0080778
0.0076571
0.00728668
0.00696069
0.00667504
0.00642686
0.00621417
0.00603562
0.00589026
0.0057774
0.00569648
0.00564702
0.00562843
0.00564001
0.00568079
0.00574944
0.00584428
0.00596318
0.00610364
0.00626281
0.00643757
0.00662461
0.0068205
0.00702181
0.00722514
0.00742723
0.00762502
0.00781568
0.00799661
0.0081655
0.0083205
0.0084605
0.00858569
0.00869823
0.00880297
0.0089081
0.00902572
0.00917231
0.00936937
0.00964486
0.0100359
0.0105946
0.0113983
0.0125721
0.0143279
0.017071
0.0215489
0.0296266
0.0459414
0.0217509
0.019066
0.0168344
0.0149634
0.0133833
0.0120402
0.0108917
0.00990394
0.00904967
0.00830684
0.00765743
0.00708673
0.00658272
0.00613558
0.00573724
0.00538112
0.0050618
0.00477485
0.00451658
0.00428398
0.00407453
0.00388614
0.00371707
0.00356584
0.00343119
0.00331201
0.00320729
0.0031161
0.00303752
0.00297062
0.00291449
0.00286819
0.00283075
0.00280124
0.00277873
0.00276232
0.00275119
0.00274457
0.00274178
0.00274222
0.00274536
0.00275081
0.00275835
0.0027681
0.0027807
0.00279751
0.00282091
0.00285455
0.00290372
0.00297593
0.00308182
0.00323683
0.00346431
0.00380123
0.00431016
0.00510037
0.00638989
0.00857837
0.012777
0.0210387
0.0217506
0.0190635
0.0168276
0.0149497
0.0133592
0.0120023
0.0108367
0.00982909
0.0089531
0.00818746
0.00751493
0.00692144
0.00639539
0.0059272
0.0055089
0.00513381
0.00479632
0.00449172
0.004216
0.00396576
0.0037381
0.00353053
0.00334093
0.00316746
0.00300853
0.00286276
0.00272893
0.00260599
0.00249297
0.00238901
0.00229335
0.00220528
0.00212415
0.00204938
0.00198045
0.00191691
0.00185835
0.00180443
0.00175489
0.00170949
0.00166807
0.00163051
0.00159679
0.00156695
0.00154118
0.00151985
0.00150357
0.00149333
0.0014906
0.00149761
0.00151779
0.00155649
0.00162249
0.00173071
0.00190816
0.0022052
0.00272798
0.00368407
0.00567306
0.00972594
0.0217505
0.019063
0.0168264
0.0149476
0.0133559
0.0119972
0.0108293
0.00981883
0.00893941
0.00816985
0.007493
0.00689487
0.00636398
0.00589084
0.00546756
0.00508751
0.00474512
0.00443568
0.00415518
0.00390021
0.00366782
0.00345549
0.00326102
0.00308254
0.00291838
0.0027671
0.00262744
0.0024983
0.00237869
0.00226774
0.00216468
0.00206883
0.0019796
0.00189644
0.00181888
0.00174652
0.00167902
0.00161606
0.00155742
0.00150289
0.0014523
0.00140554
0.00136252
0.00132319
0.00128754
0.00125564
0.0012276
0.00120365
0.00118417
0.00116977
0.00116148
0.00116102
0.00117144
0.00119821
0.00125191
0.00135359
0.0015503
0.00194363
0.00283422
0.00479086
0.0217505
0.0190628
0.0168258
0.0149465
0.0133545
0.0119955
0.0108272
0.00981625
0.00893631
0.00816614
0.00748859
0.00688968
0.00635793
0.00588386
0.00545958
0.00507848
0.00473501
0.00442446
0.00414282
0.00388669
0.00365313
0.00343961
0.00324394
0.00306421
0.00289878
0.0027462
0.0026052
0.00247465
0.00235358
0.00224111
0.00213648
0.00203901
0.00194811
0.00186323
0.00178393
0.00170981
0.00164051
0.00157575
0.00151528
0.00145888
0.00140639
0.00135767
0.00131259
0.00127108
0.00123305
0.00119845
0.00116728
0.00113952
0.00111525
0.00109459
0.00107784
0.00106553
0.00105872
0.00105941
0.0010717
0.00110415
0.00117657
0.00133633
0.00172522
0.00266463
0.0217505
0.0190626
0.0168253
0.0149458
0.0133535
0.0119943
0.0108258
0.00981472
0.00893466
0.00816437
0.0074867
0.00688766
0.00635578
0.00588157
0.00545713
0.00507586
0.00473221
0.00442146
0.00413962
0.00388327
0.00364948
0.00343572
0.00323979
0.00305981
0.00289412
0.00274125
0.00259996
0.00246911
0.00234773
0.00223495
0.00212999
0.00203218
0.00194093
0.00185571
0.00177606
0.00170159
0.00163194
0.00156682
0.00150599
0.00144923
0.00139636
0.00134724
0.00130174
0.00125975
0.00122119
0.00118597
0.00115402
0.00112528
0.00109972
0.00107733
0.00105816
0.00104238
0.00103037
0.00102296
0.00102183
0.00103064
0.0010578
0.00112514
0.00129665
0.00174959
0.0217505
0.0190624
0.0168249
0.0149451
0.0133527
0.0119933
0.0108247
0.00981349
0.00893335
0.008163
0.00748529
0.00688623
0.00635432
0.0058801
0.00545565
0.00507437
0.00473071
0.00441995
0.0041381
0.00388173
0.00364792
0.00343414
0.00323819
0.00305818
0.00289246
0.00273956
0.00259823
0.00246734
0.00234592
0.00223309
0.00212808
0.00203023
0.00193893
0.00185365
0.00177395
0.00169943
0.00162973
0.00156456
0.00150368
0.00144687
0.00139395
0.00134478
0.00129922
0.00125716
0.00121852
0.00118318
0.00115108
0.00112213
0.00109627
0.00107344
0.00105363
0.00103688
0.00102336
0.00101348
0.00100809
0.00100897
0.00101996
0.00105148
0.00113182
0.00135574
0.0217504
0.0190623
0.0168246
0.0149446
0.013352
0.0119925
0.0108237
0.00981245
0.00893224
0.00816185
0.0074841
0.00688502
0.00635311
0.00587889
0.00545445
0.00507318
0.00472954
0.0044188
0.00413696
0.00388062
0.00364683
0.00343306
0.00323713
0.00305714
0.00289143
0.00273855
0.00259723
0.00246636
0.00234495
0.00223212
0.00212713
0.00202928
0.00193799
0.00185273
0.00177304
0.00169852
0.00162883
0.00156368
0.00150281
0.00144602
0.00139312
0.00134396
0.00129842
0.00125638
0.00121774
0.00118242
0.00115031
0.00112135
0.00109544
0.00107253
0.00105257
0.00103558
0.00102165
0.00101104
0.00100431
0.00100253
0.00100776
0.00102542
0.0010681
0.00118563
0.0217504
0.0190622
0.0168243
0.0149442
0.0133514
0.0119917
0.0108229
0.00981155
0.00893128
0.00816085
0.00748307
0.00688398
0.00635206
0.00587784
0.00545341
0.00507216
0.00472853
0.00441781
0.004136
0.00387967
0.0036459
0.00343216
0.00323626
0.00305629
0.0028906
0.00273774
0.00259644
0.00246559
0.0023442
0.00223139
0.00212642
0.00202859
0.00193732
0.00185207
0.0017724
0.0016979
0.00162823
0.0015631
0.00150226
0.00144549
0.00139261
0.00134348
0.00129796
0.00125596
0.00121735
0.00118206
0.00114998
0.00112105
0.00109516
0.00107226
0.00105228
0.00103524
0.00102121
0.00101039
0.00100322
0.00100052
0.00100363
0.00101578
0.0010428
0.00111107
0.0217504
0.0190622
0.0168241
0.0149439
0.0133509
0.0119911
0.0108222
0.00981078
0.00893045
0.00815998
0.00748218
0.00688307
0.00635115
0.00587693
0.00545251
0.00507127
0.00472765
0.00441695
0.00413515
0.00387885
0.0036451
0.00343138
0.0032355
0.00305555
0.00288988
0.00273704
0.00259576
0.00246493
0.00234355
0.00223077
0.00212581
0.002028
0.00193674
0.00185152
0.00177186
0.00169738
0.00162774
0.00156263
0.0015018
0.00144505
0.0013922
0.0013431
0.00129761
0.00125563
0.00121706
0.0011818
0.00114976
0.00112085
0.001095
0.00107212
0.00105216
0.00103513
0.00102107
0.00101019
0.00100287
0.000999788
0.00100203
0.00101179
0.00103205
0.00107718
0.0217504
0.0190621
0.0168239
0.0149436
0.0133505
0.0119906
0.0108216
0.00981011
0.00892974
0.00815922
0.0074814
0.00688228
0.00635035
0.00587613
0.00545171
0.00507049
0.00472688
0.00441619
0.00413442
0.00387813
0.0036444
0.0034307
0.00323483
0.0030549
0.00288925
0.00273643
0.00259517
0.00246435
0.00234299
0.00223023
0.00212528
0.00202749
0.00193625
0.00185104
0.0017714
0.00169694
0.0016273
0.00156221
0.00150141
0.00144468
0.00139185
0.00134277
0.00129731
0.00125535
0.00121681
0.00118158
0.00114957
0.0011207
0.00109487
0.00107202
0.00105209
0.00103507
0.00102102
0.00101012
0.00100271
0.000999439
0.00100123
0.00100978
0.00102684
0.00106062
0.0217504
0.0190621
0.0168238
0.0149433
0.0133502
0.0119902
0.0108211
0.00980954
0.00892911
0.00815857
0.00748072
0.00688158
0.00634965
0.00587544
0.00545102
0.0050698
0.00472621
0.00441553
0.00413377
0.0038775
0.00364378
0.0034301
0.00323425
0.00305433
0.0028887
0.00273589
0.00259465
0.00246384
0.0023425
0.00222975
0.00212482
0.00202704
0.00193581
0.00185061
0.00177099
0.00169654
0.00162693
0.00156185
0.00150106
0.00144435
0.00139154
0.00134248
0.00129705
0.00125512
0.0012166
0.0011814
0.00114942
0.00112057
0.00109478
0.00107195
0.00105204
0.00103504
0.001021
0.00101008
0.00100262
0.000999217
0.0010007
0.0010085
0.00102379
0.00105155
0.0217504
0.019062
0.0168237
0.0149431
0.0133499
0.0119898
0.0108206
0.00980904
0.00892858
0.008158
0.00748014
0.00688098
0.00634905
0.00587483
0.00545042
0.0050692
0.00472562
0.00441495
0.0041332
0.00387694
0.00364324
0.00342957
0.00323373
0.00305384
0.00288821
0.00273542
0.00259419
0.0024634
0.00234207
0.00222933
0.00212441
0.00202665
0.00193543
0.00185025
0.00177064
0.0016962
0.0016266
0.00156154
0.00150077
0.00144407
0.00139128
0.00134224
0.00129682
0.00125492
0.00121643
0.00118125
0.00114929
0.00112048
0.0010947
0.0010719
0.00105202
0.00103503
0.001021
0.00101007
0.00100257
0.000999053
0.0010003
0.00100753
0.00102165
0.00104585
0.0217504
0.019062
0.0168236
0.0149429
0.0133496
0.0119895
0.0108202
0.00980861
0.00892811
0.00815751
0.00747963
0.00688046
0.00634852
0.0058743
0.00544989
0.00506868
0.00472511
0.00441445
0.00413271
0.00387646
0.00364278
0.00342911
0.00323329
0.0030534
0.00288779
0.00273502
0.0025938
0.00246302
0.0023417
0.00222897
0.00212406
0.00202631
0.0019351
0.00184993
0.00177033
0.00169591
0.00162632
0.00156127
0.00150051
0.00144383
0.00139106
0.00134203
0.00129664
0.00125475
0.00121628
0.00118113
0.0011492
0.0011204
0.00109466
0.00107188
0.00105201
0.00103504
0.00102101
0.00101008
0.00100254
0.000998929
0.00099997
0.00100674
0.00101997
0.0010418
0.0217504
0.019062
0.0168235
0.0149428
0.0133494
0.0119892
0.0108199
0.00980825
0.00892772
0.00815709
0.00747919
0.00688001
0.00634807
0.00587384
0.00544944
0.00506824
0.00472467
0.00441402
0.00413229
0.00387605
0.00364237
0.00342872
0.00323291
0.00305303
0.00288743
0.00273466
0.00259345
0.00246269
0.00234138
0.00222866
0.00212376
0.00202601
0.00193482
0.00184966
0.00177007
0.00169565
0.00162608
0.00156104
0.00150029
0.00144363
0.00139087
0.00134186
0.00129648
0.00125461
0.00121616
0.00118103
0.00114912
0.00112035
0.00109463
0.00107187
0.00105203
0.00103507
0.00102105
0.0010101
0.00100254
0.000998839
0.0009997
0.00100608
0.00101857
0.00103867
0.0217504
0.019062
0.0168235
0.0149427
0.0133492
0.011989
0.0108197
0.00980794
0.00892738
0.00815673
0.00747882
0.00687963
0.00634768
0.00587346
0.00544905
0.00506785
0.00472429
0.00441365
0.00413192
0.0038757
0.00364203
0.00342838
0.00323258
0.00305271
0.00288712
0.00273436
0.00259316
0.0024624
0.0023411
0.00222839
0.0021235
0.00202576
0.00193458
0.00184942
0.00176984
0.00169544
0.00162587
0.00156084
0.00150011
0.00144346
0.00139071
0.00134172
0.00129635
0.0012545
0.00121607
0.00118096
0.00114907
0.00112032
0.00109462
0.00107188
0.00105205
0.00103511
0.0010211
0.00101015
0.00100255
0.000998783
0.000999487
0.00100553
0.00101741
0.00103615
0.0217504
0.019062
0.0168234
0.0149426
0.0133491
0.0119888
0.0108194
0.00980769
0.0089271
0.00815643
0.00747851
0.00687932
0.00634736
0.00587313
0.00544873
0.00506753
0.00472397
0.00441334
0.00413162
0.0038754
0.00364174
0.0034281
0.0032323
0.00305244
0.00288686
0.00273411
0.00259292
0.00246217
0.00234087
0.00222817
0.00212329
0.00202556
0.00193438
0.00184923
0.00176966
0.00169526
0.0016257
0.00156068
0.00149996
0.00144332
0.00139058
0.0013416
0.00129625
0.00125442
0.001216
0.00118091
0.00114904
0.00112031
0.00109462
0.00107191
0.0010521
0.00103517
0.00102116
0.00101021
0.00100259
0.000998758
0.000999328
0.00100508
0.00101645
0.0010341
0.0217504
0.019062
0.0168234
0.0149425
0.013349
0.0119887
0.0108193
0.00980748
0.00892687
0.00815619
0.00747825
0.00687906
0.0063471
0.00587287
0.00544847
0.00506727
0.00472372
0.00441308
0.00413137
0.00387516
0.0036415
0.00342787
0.00323208
0.00305223
0.00288665
0.0027339
0.00259272
0.00246197
0.00234068
0.00222799
0.00212311
0.00202539
0.00193421
0.00184907
0.0017695
0.00169512
0.00162556
0.00156055
0.00149984
0.00144321
0.00139048
0.00134151
0.00129618
0.00125436
0.00121596
0.00118088
0.00114902
0.00112031
0.00109465
0.00107195
0.00105215
0.00103524
0.00102124
0.00101029
0.00100265
0.000998764
0.000999223
0.00100474
0.00101567
0.00103245
0.0217504
0.0190619
0.0168234
0.0149424
0.0133489
0.0119885
0.0108191
0.00980732
0.00892669
0.008156
0.00747806
0.00687885
0.00634689
0.00587266
0.00544826
0.00506707
0.00472351
0.00441288
0.00413118
0.00387496
0.00364131
0.00342769
0.0032319
0.00305205
0.00288648
0.00273374
0.00259256
0.00246182
0.00234054
0.00222784
0.00212297
0.00202525
0.00193408
0.00184895
0.00176939
0.00169501
0.00162546
0.00156046
0.00149975
0.00144312
0.00139041
0.00134145
0.00129612
0.00125432
0.00121593
0.00118086
0.00114903
0.00112033
0.00109468
0.001072
0.00105222
0.00103532
0.00102133
0.00101038
0.00100272
0.000998799
0.00099917
0.0010045
0.00101508
0.00103115
0.0217504
0.0190619
0.0168233
0.0149424
0.0133488
0.0119885
0.010819
0.0098072
0.00892656
0.00815586
0.00747791
0.0068787
0.00634673
0.00587251
0.00544811
0.00506691
0.00472336
0.00441274
0.00413103
0.00387482
0.00364117
0.00342755
0.00323177
0.00305193
0.00288636
0.00273362
0.00259244
0.00246171
0.00234043
0.00222774
0.00212287
0.00202515
0.00193399
0.00184886
0.0017693
0.00169493
0.00162538
0.00156039
0.00149969
0.00144307
0.00139036
0.00134141
0.0012961
0.0012543
0.00121592
0.00118087
0.00114905
0.00112037
0.00109473
0.00107207
0.0010523
0.00103541
0.00102143
0.00101048
0.00100282
0.000998864
0.000999169
0.00100436
0.00101467
0.00103019
0.0217504
0.0190619
0.0168233
0.0149424
0.0133488
0.0119884
0.0108189
0.00980712
0.00892647
0.00815577
0.00747781
0.0068786
0.00634663
0.0058724
0.005448
0.00506681
0.00472326
0.00441264
0.00413093
0.00387473
0.00364108
0.00342746
0.00323168
0.00305184
0.00288628
0.00273354
0.00259237
0.00246163
0.00234036
0.00222767
0.00212281
0.00202509
0.00193393
0.0018488
0.00176925
0.00169488
0.00162534
0.00156035
0.00149965
0.00144304
0.00139034
0.0013414
0.00129609
0.0012543
0.00121594
0.00118089
0.00114909
0.00112042
0.0010948
0.00107214
0.00105239
0.00103551
0.00102154
0.00101059
0.00100293
0.000998956
0.000999219
0.00100431
0.00101444
0.00102956
0.0217504
0.0190619
0.0168233
0.0149423
0.0133488
0.0119884
0.0108189
0.00980708
0.00892643
0.00815572
0.00747776
0.00687855
0.00634658
0.00587235
0.00544795
0.00506676
0.00472321
0.00441259
0.00413089
0.00387468
0.00364104
0.00342742
0.00323164
0.0030518
0.00288624
0.0027335
0.00259233
0.0024616
0.00234032
0.00222764
0.00212277
0.00202506
0.0019339
0.00184878
0.00176923
0.00169486
0.00162532
0.00156033
0.00149964
0.00144304
0.00139034
0.0013414
0.0012961
0.00125432
0.00121597
0.00118094
0.00114914
0.00112048
0.00109487
0.00107223
0.00105249
0.00103562
0.00102166
0.00101072
0.00100305
0.000999076
0.00099932
0.00100436
0.00101438
0.00102923
0.0217504
0.0190619
0.0168233
0.0149423
0.0133488
0.0119884
0.0108189
0.00980708
0.00892643
0.00815572
0.00747776
0.00687855
0.00634658
0.00587235
0.00544795
0.00506676
0.00472321
0.00441259
0.00413089
0.00387468
0.00364104
0.00342742
0.00323164
0.0030518
0.00288624
0.00273351
0.00259233
0.0024616
0.00234032
0.00222764
0.00212278
0.00202507
0.00193391
0.00184878
0.00176924
0.00169487
0.00162533
0.00156035
0.00149966
0.00144306
0.00139036
0.00134143
0.00129614
0.00125437
0.00121602
0.00118099
0.0011492
0.00112056
0.00109496
0.00107233
0.0010526
0.00103574
0.00102179
0.00101085
0.00100319
0.000999221
0.00099947
0.00100451
0.00101449
0.00102921
0.0217504
0.0190619
0.0168233
0.0149424
0.0133488
0.0119884
0.0108189
0.00980712
0.00892647
0.00815577
0.00747781
0.0068786
0.00634663
0.0058724
0.005448
0.00506681
0.00472326
0.00441264
0.00413094
0.00387473
0.00364108
0.00342747
0.00323169
0.00305185
0.00288628
0.00273355
0.00259237
0.00246164
0.00234036
0.00222768
0.00212282
0.00202511
0.00193395
0.00184882
0.00176927
0.00169491
0.00162538
0.00156039
0.0014997
0.0014431
0.00139041
0.00134149
0.00129619
0.00125443
0.00121608
0.00118107
0.00114929
0.00112065
0.00109506
0.00107244
0.00105272
0.00103587
0.00102192
0.001011
0.00100335
0.000999393
0.00099967
0.00100475
0.00101478
0.00102951
0.0217504
0.0190619
0.0168233
0.0149424
0.0133488
0.0119885
0.010819
0.0098072
0.00892656
0.00815586
0.00747791
0.0068787
0.00634674
0.00587251
0.00544811
0.00506691
0.00472336
0.00441274
0.00413103
0.00387482
0.00364118
0.00342756
0.00323178
0.00305193
0.00288637
0.00273363
0.00259245
0.00246172
0.00234044
0.00222775
0.00212289
0.00202518
0.00193402
0.00184889
0.00176934
0.00169498
0.00162545
0.00156046
0.00149977
0.00144317
0.00139049
0.00134156
0.00129627
0.00125451
0.00121617
0.00118116
0.00114938
0.00112075
0.00109517
0.00107256
0.00105285
0.001036
0.00102206
0.00101115
0.00100352
0.000999589
0.000999919
0.00100509
0.00101526
0.00103013
0.0217504
0.0190619
0.0168234
0.0149424
0.0133489
0.0119885
0.0108191
0.00980732
0.00892669
0.008156
0.00747806
0.00687885
0.00634689
0.00587266
0.00544826
0.00506707
0.00472351
0.00441289
0.00413118
0.00387497
0.00364132
0.00342769
0.00323191
0.00305206
0.00288649
0.00273375
0.00259257
0.00246184
0.00234056
0.00222787
0.002123
0.00202529
0.00193413
0.001849
0.00176945
0.00169508
0.00162554
0.00156056
0.00149987
0.00144327
0.00139058
0.00134166
0.00129637
0.00125461
0.00121627
0.00118126
0.00114949
0.00112087
0.00109529
0.00107268
0.00105298
0.00103615
0.00102221
0.00101131
0.0010037
0.000999808
0.00100022
0.00100554
0.00101592
0.00103108
0.0217504
0.019062
0.0168234
0.0149425
0.013349
0.0119887
0.0108193
0.00980748
0.00892687
0.00815619
0.00747826
0.00687906
0.0063471
0.00587287
0.00544847
0.00506728
0.00472372
0.00441309
0.00413138
0.00387516
0.0036415
0.00342788
0.00323209
0.00305224
0.00288666
0.00273392
0.00259274
0.00246199
0.00234071
0.00222802
0.00212315
0.00202543
0.00193426
0.00184913
0.00176958
0.00169521
0.00162567
0.00156069
0.0015
0.00144339
0.00139071
0.00134178
0.00129649
0.00125473
0.00121639
0.00118139
0.00114962
0.00112099
0.00109542
0.00107282
0.00105312
0.00103629
0.00102237
0.00101147
0.00100389
0.00100005
0.00100056
0.00100608
0.00101677
0.00103239
0.0217504
0.019062
0.0168234
0.0149426
0.0133491
0.0119888
0.0108194
0.00980769
0.0089271
0.00815643
0.00747851
0.00687932
0.00634736
0.00587314
0.00544873
0.00506754
0.00472398
0.00441334
0.00413163
0.0038754
0.00364174
0.00342811
0.00323232
0.00305246
0.00288688
0.00273413
0.00259294
0.00246219
0.0023409
0.0022282
0.00212333
0.00202561
0.00193444
0.00184931
0.00176975
0.00169537
0.00162583
0.00156084
0.00150015
0.00144355
0.00139085
0.00134193
0.00129664
0.00125487
0.00121653
0.00118153
0.00114976
0.00112114
0.00109557
0.00107296
0.00105327
0.00103644
0.00102252
0.00101165
0.00100409
0.00100031
0.00100096
0.00100674
0.00101783
0.00103409
0.0217504
0.019062
0.0168235
0.0149427
0.0133492
0.011989
0.0108197
0.00980794
0.00892738
0.00815673
0.00747882
0.00687964
0.00634768
0.00587346
0.00544906
0.00506786
0.00472429
0.00441365
0.00413193
0.0038757
0.00364203
0.00342839
0.00323259
0.00305273
0.00288714
0.00273438
0.00259319
0.00246243
0.00234114
0.00222843
0.00212355
0.00202583
0.00193465
0.00184951
0.00176995
0.00169557
0.00162603
0.00156103
0.00150033
0.00144372
0.00139103
0.0013421
0.0012968
0.00125504
0.0012167
0.00118169
0.00114992
0.00112129
0.00109572
0.00107312
0.00105342
0.0010366
0.00102269
0.00101182
0.00100429
0.0010006
0.0010014
0.0010075
0.00101911
0.00103621
0.0217504
0.019062
0.0168235
0.0149428
0.0133494
0.0119892
0.0108199
0.00980825
0.00892772
0.00815709
0.00747919
0.00688002
0.00634807
0.00587385
0.00544944
0.00506824
0.00472467
0.00441402
0.00413229
0.00387606
0.00364238
0.00342873
0.00323292
0.00305305
0.00288745
0.00273469
0.00259348
0.00246272
0.00234142
0.00222871
0.00212382
0.00202608
0.0019349
0.00184976
0.00177019
0.0016958
0.00162625
0.00156125
0.00150055
0.00144393
0.00139123
0.00134229
0.001297
0.00125522
0.00121688
0.00118186
0.00115009
0.00112146
0.00109589
0.00107328
0.00105358
0.00103676
0.00102285
0.001012
0.00100451
0.0010009
0.0010019
0.00100838
0.00102062
0.00103881
0.0217504
0.019062
0.0168236
0.0149429
0.0133496
0.0119895
0.0108203
0.00980861
0.00892811
0.00815751
0.00747963
0.00688046
0.00634852
0.0058743
0.0054499
0.00506869
0.00472511
0.00441446
0.00413272
0.00387647
0.00364279
0.00342913
0.00323331
0.00305342
0.00288782
0.00273504
0.00259383
0.00246306
0.00234174
0.00222902
0.00212413
0.00202639
0.0019352
0.00185004
0.00177047
0.00169607
0.00162652
0.00156151
0.0015008
0.00144418
0.00139147
0.00134252
0.00129721
0.00125544
0.00121708
0.00118206
0.00115028
0.00112164
0.00109606
0.00107345
0.00105375
0.00103693
0.00102302
0.00101218
0.00100473
0.00100123
0.00100244
0.00100939
0.00102238
0.00104196
0.0217504
0.019062
0.0168237
0.0149431
0.0133499
0.0119898
0.0108206
0.00980904
0.00892858
0.008158
0.00748014
0.00688099
0.00634905
0.00587483
0.00545042
0.00506921
0.00472562
0.00441496
0.00413321
0.00387696
0.00364326
0.00342959
0.00323375
0.00305386
0.00288824
0.00273545
0.00259423
0.00246345
0.00234212
0.00222939
0.00212449
0.00202674
0.00193554
0.00185038
0.00177079
0.00169639
0.00162682
0.0015618
0.00150108
0.00144445
0.00139173
0.00134278
0.00129746
0.00125567
0.00121731
0.00118228
0.00115049
0.00112184
0.00109625
0.00107364
0.00105393
0.0010371
0.00102319
0.00101237
0.00100496
0.00100157
0.00100302
0.00101053
0.00102441
0.00104575
0.0217504
0.0190621
0.0168238
0.0149433
0.0133502
0.0119902
0.0108211
0.00980954
0.00892911
0.00815857
0.00748073
0.00688159
0.00634966
0.00587544
0.00545103
0.00506981
0.00472621
0.00441554
0.00413378
0.00387751
0.0036438
0.00343011
0.00323427
0.00305435
0.00288872
0.00273593
0.00259469
0.00246389
0.00234256
0.00222982
0.0021249
0.00202714
0.00193593
0.00185075
0.00177116
0.00169674
0.00162717
0.00156214
0.00150141
0.00144477
0.00139204
0.00134307
0.00129774
0.00125594
0.00121757
0.00118252
0.00115072
0.00112206
0.00109646
0.00107383
0.00105411
0.00103727
0.00102337
0.00101255
0.00100519
0.00100192
0.00100366
0.0010118
0.00102674
0.00105029
0.0217504
0.0190621
0.0168239
0.0149436
0.0133505
0.0119906
0.0108216
0.00981011
0.00892974
0.00815922
0.0074814
0.00688228
0.00635036
0.00587614
0.00545172
0.00507049
0.00472689
0.0044162
0.00413443
0.00387814
0.00364441
0.00343071
0.00323485
0.00305492
0.00288928
0.00273646
0.00259521
0.0024644
0.00234305
0.0022303
0.00212537
0.00202759
0.00193637
0.00185119
0.00177158
0.00169715
0.00162757
0.00156253
0.00150178
0.00144513
0.00139238
0.0013434
0.00129806
0.00125624
0.00121785
0.0011828
0.00115098
0.0011223
0.00109668
0.00107404
0.0010543
0.00103746
0.00102354
0.00101274
0.00100542
0.00100229
0.00100434
0.00101323
0.0010294
0.00105575
0.0217504
0.0190622
0.0168241
0.0149439
0.0133509
0.0119911
0.0108222
0.00981078
0.00893046
0.00815998
0.00748218
0.00688307
0.00635115
0.00587693
0.00545251
0.00507127
0.00472766
0.00441696
0.00413516
0.00387886
0.00364512
0.0034314
0.00323552
0.00305557
0.00288991
0.00273708
0.00259581
0.00246498
0.00234362
0.00223085
0.0021259
0.00202811
0.00193688
0.00185168
0.00177206
0.00169762
0.00162802
0.00156296
0.0015022
0.00144553
0.00139277
0.00134378
0.00129842
0.00125658
0.00121818
0.0011831
0.00115126
0.00112256
0.00109692
0.00107426
0.0010545
0.00103764
0.00102372
0.00101292
0.00100565
0.00100267
0.00100507
0.00101482
0.00103241
0.00106234
0.0217504
0.0190622
0.0168243
0.0149442
0.0133514
0.0119917
0.0108229
0.00981155
0.00893128
0.00816085
0.00748308
0.00688398
0.00635207
0.00587785
0.00545342
0.00507217
0.00472854
0.00441782
0.00413601
0.00387969
0.00364592
0.00343218
0.00323628
0.00305632
0.00289063
0.00273778
0.00259649
0.00246565
0.00234426
0.00223148
0.00212652
0.00202871
0.00193746
0.00185224
0.00177261
0.00169815
0.00162853
0.00156346
0.00150269
0.001446
0.00139322
0.0013442
0.00129882
0.00125697
0.00121854
0.00118343
0.00115157
0.00112285
0.00109718
0.00107449
0.00105471
0.00103783
0.00102389
0.0010131
0.00100588
0.00100304
0.00100582
0.00101657
0.00103582
0.00107036
0.0217504
0.0190623
0.0168246
0.0149446
0.013352
0.0119925
0.0108237
0.00981245
0.00893224
0.00816185
0.00748411
0.00688502
0.00635312
0.00587889
0.00545445
0.00507319
0.00472954
0.00441881
0.00413697
0.00388063
0.00364684
0.00343308
0.00323716
0.00305717
0.00289147
0.00273859
0.00259728
0.00246642
0.00234502
0.00223221
0.00212723
0.00202941
0.00193814
0.00185291
0.00177326
0.00169878
0.00162915
0.00156406
0.00150326
0.00144655
0.00139375
0.00134472
0.00129931
0.00125743
0.00121897
0.00118384
0.00115194
0.00112319
0.00109749
0.00107476
0.00105495
0.00103803
0.00102407
0.00101327
0.00100609
0.00100341
0.0010066
0.00101848
0.00103966
0.00108019
0.0217505
0.0190624
0.0168249
0.0149451
0.0133527
0.0119933
0.0108247
0.0098135
0.00893335
0.00816301
0.00748529
0.00688623
0.00635433
0.0058801
0.00545566
0.00507438
0.00473072
0.00441996
0.00413811
0.00388175
0.00364794
0.00343416
0.00323822
0.00305821
0.00289249
0.00273961
0.00259828
0.00246741
0.00234599
0.00223318
0.00212819
0.00203035
0.00193908
0.00185384
0.00177417
0.00169969
0.00163004
0.00156494
0.00150413
0.0014474
0.00139458
0.00134552
0.00130008
0.00125817
0.00121967
0.0011845
0.00115256
0.00112377
0.00109802
0.00107524
0.00105537
0.0010384
0.00102439
0.00101357
0.00100639
0.00100384
0.00100744
0.00102059
0.00104397
0.00109244
0.0217505
0.0190626
0.0168253
0.0149458
0.0133535
0.0119943
0.0108258
0.00981472
0.00893466
0.00816437
0.0074867
0.00688766
0.00635578
0.00588157
0.00545714
0.00507587
0.00473222
0.00442147
0.00413963
0.00388329
0.0036495
0.00343574
0.00323982
0.00305984
0.00289415
0.0027413
0.00260001
0.00246917
0.0023478
0.00223503
0.00213009
0.0020323
0.00194107
0.00185588
0.00177625
0.00170181
0.0016322
0.00156712
0.00150633
0.00144961
0.00139679
0.00134771
0.00130225
0.0012603
0.00122176
0.00118654
0.00115454
0.00112567
0.00109984
0.00107697
0.00105701
0.00103993
0.0010258
0.00101485
0.00100757
0.00100501
0.0010089
0.00102329
0.00104909
0.00110807
0.0217505
0.0190628
0.0168258
0.0149465
0.0133545
0.0119955
0.0108272
0.00981625
0.00893631
0.00816614
0.00748859
0.00688968
0.00635793
0.00588387
0.00545959
0.00507849
0.00473502
0.00442447
0.00414284
0.00388671
0.00365315
0.00343963
0.00324396
0.00306424
0.00289881
0.00274624
0.00260523
0.00247469
0.00235362
0.00224116
0.00213653
0.00203906
0.00194815
0.00186327
0.00178395
0.0017098
0.00164046
0.00157563
0.00151506
0.00145853
0.00140585
0.00135686
0.00131142
0.00126945
0.00123087
0.00119559
0.0011635
0.00113453
0.00110856
0.0010855
0.00106529
0.00104789
0.00103336
0.00102191
0.00101405
0.00101089
0.00101439
0.00102934
0.00105715
0.00112971
0.0217505
0.019063
0.0168264
0.0149476
0.0133559
0.0119972
0.0108293
0.00981883
0.00893942
0.00816985
0.007493
0.00689487
0.00636398
0.00589085
0.00546756
0.00508751
0.00474512
0.00443569
0.00415519
0.00390022
0.00366783
0.00345549
0.00326103
0.00308254
0.00291837
0.00276709
0.00262742
0.00249825
0.00237861
0.00226762
0.0021645
0.00206858
0.00197923
0.00189591
0.00181815
0.00174551
0.00167763
0.00161417
0.00155486
0.00149944
0.00144769
0.00139941
0.00135441
0.0013126
0.00127412
0.00123886
0.00120672
0.00117756
0.00115125
0.00112762
0.00110655
0.00108794
0.00107179
0.00105825
0.00104781
0.00104156
0.00104171
0.00105372
0.00108006
0.00116751
0.0217506
0.0190635
0.0168276
0.0149497
0.0133592
0.0120023
0.0108367
0.00982909
0.0089531
0.00818746
0.00751493
0.00692144
0.00639539
0.0059272
0.0055089
0.00513381
0.00479632
0.00449172
0.00421599
0.00396574
0.00373807
0.00353048
0.00334086
0.00316736
0.00300838
0.00286255
0.00272864
0.00260558
0.0024924
0.00238823
0.00229227
0.00220379
0.00212211
0.00204661
0.00197671
0.00191187
0.00185158
0.00179541
0.0017429
0.00169364
0.00164722
0.00160324
0.00156127
0.00152089
0.00148345
0.00144888
0.00141688
0.00138708
0.00135911
0.00133262
0.00130725
0.00128275
0.00125892
0.00123575
0.00121357
0.00119328
0.0011771
0.00117075
0.00117817
0.00126817
0.0217509
0.019066
0.0168344
0.0149634
0.0133833
0.0120402
0.0108917
0.00990394
0.00904967
0.00830684
0.00765742
0.00708672
0.00658271
0.00613556
0.00573722
0.00538109
0.00506176
0.00477478
0.00451648
0.00428384
0.00407434
0.00388588
0.0037167
0.00356533