/*--------------------------------*- C++ -*----------------------------------*\
| =========                 |                                                 |
| \\      /  F ield         | OpenFOAM: The Open Source CFD Toolbox           |
|  \\    /   O peration     | Version:  2.4.0                                 |
|   \\  /    A nd           | Web:      www.OpenFOAM.org                      |
|    \\/     M anipulation  |                                                 |
\*---------------------------------------------------------------------------*/
FoamFile
{
    version     2.0;
    format      ascii;
    class       volScalarField;
    location    "160";
    object      k;
}
// * * * * * * * * * * * * * * * * * * * * * * * * * * * * * * * * * * * * * //

dimensions      [0 2 -2 0 0 0 0];

internalField   nonuniform List<scalar> 
10000
(
0.0700317
0.0663839
0.0634225
0.0609875
0.0589617
0.0572582
0.055816
0.0545896
0.0535421
0.0526438
0.0518706
0.0512033
0.050626
0.0501253
0.04969
0.0493086
0.0489668
0.0486372
0.0482397
0.0473528
0.0700317
0.0663839
0.0634225
0.0609876
0.0589617
0.0572583
0.0558161
0.0545897
0.0535422
0.052644
0.0518709
0.0512036
0.0506263
0.0501257
0.0496905
0.0493094
0.0489689
0.0486452
0.0482857
0.0477487
0.0700316
0.0663839
0.0634224
0.0609875
0.0589617
0.0572583
0.0558161
0.0545896
0.0535422
0.0526438
0.0518707
0.0512034
0.050626
0.0501253
0.0496901
0.0493094
0.0489708
0.0486554
0.0483309
0.0479437
0.0700316
0.0663839
0.0634224
0.0609875
0.0589616
0.0572582
0.055816
0.0545895
0.0535419
0.0526435
0.0518702
0.0512027
0.0506251
0.0501243
0.049689
0.0493087
0.0489721
0.0486646
0.0483655
0.0480494
0.0700316
0.0663839
0.0634224
0.0609874
0.0589615
0.0572581
0.0558158
0.0545892
0.0535415
0.0526429
0.0518694
0.0512017
0.0506238
0.0501227
0.0496872
0.0493072
0.0489724
0.0486711
0.0483893
0.0481114
0.0700316
0.0663838
0.0634223
0.0609873
0.0589614
0.057258
0.0558156
0.0545889
0.053541
0.0526422
0.0518684
0.0512004
0.0506222
0.0501208
0.049685
0.049305
0.0489716
0.0486748
0.0484041
0.048148
0.0700316
0.0663838
0.0634222
0.0609871
0.0589613
0.0572579
0.0558154
0.0545886
0.0535405
0.0526414
0.0518673
0.051199
0.0506204
0.0501185
0.0496824
0.0493023
0.0489696
0.0486758
0.0484119
0.0481686
0.0700316
0.0663837
0.0634221
0.060987
0.0589611
0.0572577
0.0558153
0.0545882
0.0535399
0.0526406
0.0518662
0.0511975
0.0506185
0.0501161
0.0496795
0.0492992
0.0489669
0.0486747
0.0484148
0.0481788
0.0700315
0.0663837
0.063422
0.0609868
0.058961
0.0572576
0.0558151
0.0545879
0.0535394
0.0526398
0.0518651
0.051196
0.0506165
0.0501137
0.0496766
0.0492959
0.0489635
0.0486721
0.0484143
0.0481823
0.0700315
0.0663836
0.0634219
0.0609867
0.0589608
0.0572576
0.055815
0.0545877
0.053539
0.0526391
0.0518641
0.0511946
0.0506147
0.0501114
0.0496737
0.0492926
0.0489599
0.0486686
0.0484117
0.0481817
0.0700315
0.0663835
0.0634218
0.0609865
0.0589607
0.0572575
0.055815
0.0545875
0.0535386
0.0526385
0.0518632
0.0511933
0.050613
0.0501092
0.049671
0.0492893
0.0489562
0.0486646
0.0484079
0.0481787
0.0700314
0.0663835
0.0634216
0.0609863
0.0589606
0.0572576
0.0558151
0.0545875
0.0535384
0.0526381
0.0518624
0.0511922
0.0506115
0.0501072
0.0496685
0.0492863
0.0489526
0.0486606
0.0484036
0.0481744
0.0700314
0.0663834
0.0634215
0.0609861
0.0589605
0.0572576
0.0558152
0.0545876
0.0535384
0.0526378
0.0518619
0.0511914
0.0506103
0.0501056
0.0496664
0.0492836
0.0489494
0.0486568
0.0483993
0.0481698
0.0700313
0.0663833
0.0634214
0.0609859
0.0589604
0.0572578
0.0558155
0.0545879
0.0535385
0.0526377
0.0518616
0.0511908
0.0506094
0.0501043
0.0496646
0.0492813
0.0489466
0.0486534
0.0483953
0.0481652
0.0700313
0.0663832
0.0634212
0.0609858
0.0589603
0.057258
0.0558159
0.0545882
0.0535388
0.0526379
0.0518616
0.0511905
0.0506088
0.0501034
0.0496633
0.0492796
0.0489443
0.0486505
0.0483917
0.048161
0.0700312
0.0663831
0.0634211
0.0609856
0.0589602
0.0572582
0.0558164
0.0545888
0.0535393
0.0526383
0.0518618
0.0511905
0.0506086
0.0501028
0.0496625
0.0492783
0.0489425
0.0486482
0.0483888
0.0481575
0.0700312
0.0663831
0.0634209
0.0609854
0.0589602
0.0572585
0.0558169
0.0545895
0.0535399
0.0526389
0.0518623
0.0511909
0.0506087
0.0501027
0.049662
0.0492775
0.0489413
0.0486465
0.0483866
0.0481547
0.0700311
0.066383
0.0634208
0.0609852
0.0589601
0.0572588
0.0558176
0.0545903
0.0535408
0.0526397
0.0518631
0.0511915
0.0506092
0.050103
0.0496621
0.0492773
0.0489407
0.0486455
0.0483851
0.0481527
0.070031
0.0663829
0.0634206
0.060985
0.0589601
0.0572591
0.0558184
0.0545913
0.0535419
0.0526408
0.0518641
0.0511925
0.05061
0.0501037
0.0496626
0.0492775
0.0489407
0.0486451
0.0483843
0.0481514
0.070031
0.0663828
0.0634205
0.0609848
0.05896
0.0572595
0.0558193
0.0545925
0.0535431
0.0526421
0.0518654
0.0511937
0.0506112
0.0501048
0.0496635
0.0492782
0.0489412
0.0486453
0.0483842
0.0481509
0.0700309
0.0663826
0.0634203
0.0609846
0.0589599
0.0572598
0.0558202
0.0545937
0.0535446
0.0526436
0.0518669
0.0511953
0.0506127
0.0501062
0.0496648
0.0492794
0.0489422
0.0486461
0.0483847
0.0481512
0.0700308
0.0663825
0.0634201
0.0609844
0.0589598
0.0572602
0.0558211
0.0545951
0.0535462
0.0526453
0.0518687
0.0511971
0.0506145
0.050108
0.0496665
0.0492811
0.0489437
0.0486474
0.0483858
0.0481521
0.0700307
0.0663824
0.06342
0.0609842
0.0589597
0.0572605
0.0558221
0.0545966
0.053548
0.0526472
0.0518708
0.0511992
0.0506166
0.0501101
0.0496686
0.0492831
0.0489456
0.0486493
0.0483875
0.0481536
0.0700306
0.0663823
0.0634198
0.060984
0.0589596
0.0572608
0.055823
0.0545982
0.0535499
0.0526494
0.051873
0.0512015
0.0506191
0.0501125
0.0496711
0.0492855
0.048948
0.0486516
0.0483897
0.0481556
0.0700305
0.0663822
0.0634196
0.0609838
0.0589595
0.057261
0.0558239
0.0545998
0.053552
0.0526517
0.0518755
0.0512041
0.0506218
0.0501153
0.0496739
0.0492883
0.0489508
0.0486543
0.0483924
0.0481582
0.0700304
0.0663821
0.0634195
0.0609836
0.0589593
0.0572612
0.0558247
0.0546013
0.0535541
0.0526542
0.0518782
0.051207
0.0506247
0.0501184
0.049677
0.0492915
0.048954
0.0486575
0.0483956
0.0481613
0.0700303
0.0663819
0.0634193
0.0609834
0.0589592
0.0572613
0.0558255
0.0546029
0.0535563
0.0526568
0.0518811
0.0512101
0.050628
0.0501217
0.0496804
0.049295
0.0489575
0.0486611
0.0483991
0.0481649
0.0700302
0.0663818
0.0634191
0.0609832
0.058959
0.0572614
0.0558262
0.0546043
0.0535584
0.0526595
0.0518842
0.0512134
0.0506315
0.0501253
0.0496842
0.0492988
0.0489614
0.048665
0.0484031
0.0481688
0.0700301
0.0663817
0.063419
0.060983
0.0589588
0.0572615
0.0558267
0.0546056
0.0535605
0.0526622
0.0518873
0.0512169
0.0506352
0.0501292
0.0496882
0.0493029
0.0489656
0.0486693
0.0484074
0.0481732
0.07003
0.0663816
0.0634188
0.0609828
0.0589587
0.0572615
0.0558272
0.0546067
0.0535624
0.0526648
0.0518905
0.0512204
0.050639
0.0501333
0.0496924
0.0493073
0.0489701
0.0486739
0.0484121
0.0481779
0.0700299
0.0663814
0.0634187
0.0609826
0.0589585
0.0572615
0.0558275
0.0546077
0.0535641
0.0526672
0.0518935
0.0512239
0.0506429
0.0501375
0.0496969
0.0493119
0.0489749
0.0486787
0.048417
0.0481829
0.0700298
0.0663813
0.0634186
0.0609825
0.0589584
0.0572615
0.0558278
0.0546085
0.0535656
0.0526694
0.0518964
0.0512273
0.0506468
0.0501417
0.0497013
0.0493166
0.0489797
0.0486838
0.0484221
0.0481882
0.0700297
0.0663812
0.0634184
0.0609823
0.0589582
0.0572614
0.0558281
0.0546092
0.0535669
0.0526714
0.051899
0.0512305
0.0506504
0.0501458
0.0497058
0.0493213
0.0489847
0.0486888
0.0484274
0.0481935
0.0700296
0.0663811
0.0634183
0.0609822
0.0589581
0.0572614
0.0558283
0.0546098
0.053568
0.0526731
0.0519013
0.0512335
0.0506539
0.0501496
0.04971
0.0493259
0.0489895
0.0486939
0.0484326
0.0481988
0.0700295
0.066381
0.0634182
0.0609821
0.0589581
0.0572614
0.0558285
0.0546103
0.053569
0.0526746
0.0519034
0.0512361
0.050657
0.0501532
0.049714
0.0493302
0.048994
0.0486987
0.0484376
0.048204
0.0700294
0.0663809
0.0634181
0.060982
0.058958
0.0572615
0.0558287
0.0546108
0.0535698
0.0526759
0.0519052
0.0512384
0.0506598
0.0501565
0.0497176
0.0493342
0.0489983
0.0487032
0.0484423
0.0482089
0.0700293
0.0663808
0.063418
0.060982
0.058958
0.0572615
0.0558289
0.0546112
0.0535706
0.0526771
0.0519068
0.0512405
0.0506623
0.0501594
0.0497209
0.0493378
0.0490023
0.0487074
0.0484467
0.0482134
0.0700292
0.0663807
0.0634179
0.0609819
0.058958
0.0572616
0.0558291
0.0546117
0.0535714
0.0526782
0.0519083
0.0512423
0.0506645
0.050162
0.0497239
0.0493411
0.0490059
0.0487112
0.0484507
0.0482176
0.0700291
0.0663806
0.0634179
0.0609819
0.0589581
0.0572618
0.0558294
0.0546122
0.0535721
0.0526792
0.0519096
0.051244
0.0506666
0.0501644
0.0497266
0.0493441
0.0490091
0.0487147
0.0484544
0.0482215
0.070029
0.0663805
0.0634178
0.0609819
0.0589581
0.0572619
0.0558297
0.0546126
0.0535728
0.0526802
0.0519109
0.0512456
0.0506685
0.0501666
0.0497291
0.0493469
0.0490121
0.0487179
0.0484578
0.048225
0.0700289
0.0663804
0.0634178
0.0609819
0.0589582
0.0572621
0.05583
0.0546131
0.0535735
0.0526811
0.0519121
0.051247
0.0506702
0.0501686
0.0497314
0.0493494
0.0490149
0.0487209
0.0484609
0.0482283
0.0700288
0.0663804
0.0634178
0.0609819
0.0589583
0.0572623
0.0558304
0.0546136
0.0535742
0.052682
0.0519132
0.0512484
0.0506719
0.0501705
0.0497335
0.0493517
0.0490174
0.0487236
0.0484637
0.0482312
0.0700287
0.0663803
0.0634177
0.060982
0.0589584
0.0572626
0.0558307
0.0546141
0.0535749
0.0526829
0.0519143
0.0512498
0.0506734
0.0501723
0.0497355
0.0493539
0.0490197
0.048726
0.0484663
0.0482339
0.0700286
0.0663802
0.0634177
0.060982
0.0589586
0.0572628
0.0558311
0.0546147
0.0535755
0.0526838
0.0519154
0.051251
0.0506749
0.0501739
0.0497373
0.0493559
0.0490219
0.0487283
0.0484687
0.0482365
0.0700285
0.0663802
0.0634177
0.0609821
0.0589587
0.057263
0.0558315
0.0546152
0.0535762
0.0526846
0.0519164
0.0512522
0.0506763
0.0501755
0.049739
0.0493578
0.0490239
0.0487305
0.0484709
0.0482388
0.0700284
0.0663801
0.0634177
0.0609822
0.0589589
0.0572633
0.0558318
0.0546157
0.0535769
0.0526854
0.0519174
0.0512534
0.0506776
0.0501769
0.0497406
0.0493595
0.0490257
0.0487324
0.048473
0.0482409
0.0700284
0.0663801
0.0634177
0.0609822
0.058959
0.0572636
0.0558322
0.0546162
0.0535775
0.0526862
0.0519183
0.0512544
0.0506788
0.0501783
0.0497421
0.0493611
0.0490274
0.0487342
0.0484748
0.0482428
0.0700283
0.0663801
0.0634177
0.0609823
0.0589592
0.0572638
0.0558326
0.0546167
0.0535781
0.052687
0.0519192
0.0512555
0.0506799
0.0501795
0.0497435
0.0493626
0.049029
0.0487358
0.0484765
0.0482446
0.0700282
0.06638
0.0634178
0.0609824
0.0589594
0.0572641
0.0558329
0.0546171
0.0535787
0.0526877
0.05192
0.0512564
0.050681
0.0501807
0.0497447
0.0493639
0.0490304
0.0487373
0.0484781
0.0482462
0.0700282
0.06638
0.0634178
0.0609825
0.0589595
0.0572643
0.0558333
0.0546176
0.0535793
0.0526883
0.0519208
0.0512573
0.0506819
0.0501818
0.0497459
0.0493652
0.0490317
0.0487387
0.0484795
0.0482477
0.0700281
0.06638
0.0634178
0.0609826
0.0589597
0.0572646
0.0558336
0.054618
0.0535798
0.052689
0.0519215
0.0512581
0.0506828
0.0501827
0.0497469
0.0493663
0.0490329
0.0487399
0.0484808
0.048249
0.0700281
0.06638
0.0634178
0.0609826
0.0589598
0.0572648
0.0558339
0.0546184
0.0535803
0.0526895
0.0519222
0.0512588
0.0506837
0.0501836
0.0497479
0.0493673
0.049034
0.0487411
0.048482
0.0482502
0.070028
0.0663799
0.0634179
0.0609827
0.05896
0.057265
0.0558342
0.0546188
0.0535807
0.0526901
0.0519228
0.0512595
0.0506844
0.0501845
0.0497488
0.0493683
0.049035
0.0487421
0.048483
0.0482513
0.070028
0.0663799
0.0634179
0.0609828
0.0589601
0.0572652
0.0558345
0.0546191
0.0535812
0.0526906
0.0519233
0.0512601
0.0506851
0.0501852
0.0497496
0.0493691
0.0490359
0.048743
0.048484
0.0482523
0.0700279
0.0663799
0.0634179
0.0609829
0.0589602
0.0572654
0.0558348
0.0546195
0.0535816
0.052691
0.0519239
0.0512607
0.0506857
0.0501859
0.0497503
0.0493699
0.0490367
0.0487439
0.0484849
0.0482532
0.0700279
0.0663799
0.0634179
0.060983
0.0589604
0.0572656
0.055835
0.0546198
0.0535819
0.0526914
0.0519243
0.0512612
0.0506863
0.0501865
0.049751
0.0493706
0.0490374
0.0487446
0.0484856
0.048254
0.0700278
0.0663799
0.063418
0.060983
0.0589605
0.0572658
0.0558352
0.05462
0.0535822
0.0526918
0.0519248
0.0512617
0.0506868
0.0501871
0.0497516
0.0493712
0.0490381
0.0487453
0.0484863
0.0482547
0.0700278
0.0663799
0.063418
0.0609831
0.0589606
0.0572659
0.0558354
0.0546203
0.0535825
0.0526922
0.0519252
0.0512621
0.0506873
0.0501876
0.0497521
0.0493717
0.0490387
0.0487459
0.048487
0.0482553
0.0700278
0.0663799
0.063418
0.0609832
0.0589607
0.0572661
0.0558356
0.0546205
0.0535828
0.0526925
0.0519255
0.0512625
0.0506877
0.050188
0.0497526
0.0493723
0.0490392
0.0487465
0.0484875
0.0482559
0.0700278
0.0663799
0.063418
0.0609832
0.0589608
0.0572662
0.0558358
0.0546207
0.0535831
0.0526928
0.0519258
0.0512629
0.0506881
0.0501884
0.049753
0.0493727
0.0490397
0.0487469
0.048488
0.0482564
0.0700277
0.0663799
0.063418
0.0609833
0.0589609
0.0572663
0.0558359
0.0546209
0.0535833
0.052693
0.0519261
0.0512632
0.0506884
0.0501888
0.0497534
0.0493731
0.0490401
0.0487474
0.0484885
0.0482569
0.0700277
0.0663798
0.0634181
0.0609833
0.058961
0.0572664
0.0558361
0.0546211
0.0535835
0.0526932
0.0519264
0.0512635
0.0506887
0.0501891
0.0497537
0.0493735
0.0490405
0.0487478
0.0484889
0.0482573
0.0700277
0.0663798
0.0634181
0.0609834
0.058961
0.0572665
0.0558362
0.0546213
0.0535837
0.0526935
0.0519266
0.0512637
0.050689
0.0501894
0.049754
0.0493738
0.0490408
0.0487481
0.0484892
0.0482576
0.0700277
0.0663798
0.0634181
0.0609834
0.0589611
0.0572666
0.0558363
0.0546214
0.0535838
0.0526936
0.0519268
0.051264
0.0506893
0.0501897
0.0497543
0.0493741
0.0490411
0.0487484
0.0484895
0.0482579
0.0700277
0.0663798
0.0634181
0.0609834
0.0589612
0.0572667
0.0558364
0.0546215
0.053584
0.0526938
0.051927
0.0512642
0.0506895
0.0501899
0.0497546
0.0493743
0.0490414
0.0487487
0.0484898
0.0482582
0.0700276
0.0663798
0.0634181
0.0609835
0.0589612
0.0572668
0.0558365
0.0546217
0.0535841
0.052694
0.0519272
0.0512643
0.0506897
0.0501901
0.0497548
0.0493746
0.0490416
0.0487489
0.0484901
0.0482585
0.0700276
0.0663798
0.0634182
0.0609835
0.0589613
0.0572669
0.0558366
0.0546218
0.0535842
0.0526941
0.0519273
0.0512645
0.0506898
0.0501903
0.049755
0.0493748
0.0490418
0.0487491
0.0484903
0.0482587
0.0700276
0.0663798
0.0634182
0.0609835
0.0589613
0.0572669
0.0558367
0.0546218
0.0535844
0.0526942
0.0519274
0.0512646
0.05069
0.0501904
0.0497551
0.0493749
0.049042
0.0487493
0.0484905
0.0482589
0.0700276
0.0663798
0.0634182
0.0609836
0.0589613
0.057267
0.0558368
0.0546219
0.0535845
0.0526943
0.0519276
0.0512648
0.0506901
0.0501906
0.0497553
0.0493751
0.0490421
0.0487495
0.0484906
0.0482591
0.0700276
0.0663798
0.0634182
0.0609836
0.0589614
0.057267
0.0558368
0.054622
0.0535845
0.0526944
0.0519277
0.0512649
0.0506902
0.0501907
0.0497554
0.0493752
0.0490423
0.0487496
0.0484908
0.0482592
0.0700276
0.0663798
0.0634182
0.0609836
0.0589614
0.0572671
0.0558369
0.0546221
0.0535846
0.0526945
0.0519278
0.051265
0.0506903
0.0501908
0.0497555
0.0493753
0.0490424
0.0487498
0.0484909
0.0482594
0.0700276
0.0663798
0.0634182
0.0609836
0.0589614
0.0572671
0.0558369
0.0546221
0.0535847
0.0526946
0.0519278
0.0512651
0.0506904
0.0501909
0.0497556
0.0493755
0.0490425
0.0487499
0.048491
0.0482595
0.0700276
0.0663798
0.0634182
0.0609836
0.0589615
0.0572671
0.055837
0.0546222
0.0535847
0.0526946
0.0519279
0.0512651
0.0506905
0.050191
0.0497557
0.0493755
0.0490426
0.04875
0.0484911
0.0482596
0.0700276
0.0663798
0.0634182
0.0609837
0.0589615
0.0572672
0.055837
0.0546222
0.0535848
0.0526947
0.051928
0.0512652
0.0506906
0.0501911
0.0497558
0.0493756
0.0490427
0.0487501
0.0484912
0.0482597
0.0700275
0.0663798
0.0634182
0.0609837
0.0589615
0.0572672
0.0558371
0.0546223
0.0535848
0.0526947
0.051928
0.0512653
0.0506907
0.0501911
0.0497559
0.0493757
0.0490428
0.0487501
0.0484913
0.0482597
0.0700275
0.0663798
0.0634182
0.0609837
0.0589615
0.0572672
0.0558371
0.0546223
0.0535849
0.0526948
0.0519281
0.0512653
0.0506907
0.0501912
0.0497559
0.0493758
0.0490428
0.0487502
0.0484914
0.0482598
0.0700275
0.0663798
0.0634182
0.0609837
0.0589615
0.0572672
0.0558371
0.0546223
0.0535849
0.0526948
0.0519281
0.0512654
0.0506908
0.0501913
0.049756
0.0493758
0.0490429
0.0487503
0.0484914
0.0482599
0.0700275
0.0663798
0.0634182
0.0609837
0.0589616
0.0572673
0.0558371
0.0546224
0.0535849
0.0526949
0.0519281
0.0512654
0.0506908
0.0501913
0.049756
0.0493759
0.0490429
0.0487503
0.0484915
0.0482599
0.0700275
0.0663798
0.0634183
0.0609837
0.0589616
0.0572673
0.0558372
0.0546224
0.053585
0.0526949
0.0519282
0.0512654
0.0506908
0.0501913
0.0497561
0.0493759
0.049043
0.0487503
0.0484915
0.04826
0.0700275
0.0663798
0.0634183
0.0609837
0.0589616
0.0572673
0.0558372
0.0546224
0.053585
0.0526949
0.0519282
0.0512655
0.0506909
0.0501914
0.0497561
0.0493759
0.049043
0.0487504
0.0484915
0.04826
0.0700275
0.0663798
0.0634183
0.0609837
0.0589616
0.0572673
0.0558372
0.0546224
0.053585
0.0526949
0.0519282
0.0512655
0.0506909
0.0501914
0.0497561
0.049376
0.049043
0.0487504
0.0484916
0.04826
0.0700275
0.0663798
0.0634183
0.0609837
0.0589616
0.0572673
0.0558372
0.0546224
0.053585
0.052695
0.0519283
0.0512655
0.0506909
0.0501914
0.0497562
0.049376
0.0490431
0.0487504
0.0484916
0.0482601
0.0700275
0.0663798
0.0634183
0.0609837
0.0589616
0.0572673
0.0558372
0.0546225
0.053585
0.052695
0.0519283
0.0512655
0.0506909
0.0501914
0.0497562
0.049376
0.0490431
0.0487505
0.0484916
0.0482601
0.0700275
0.0663798
0.0634183
0.0609837
0.0589616
0.0572673
0.0558372
0.0546225
0.0535851
0.052695
0.0519283
0.0512655
0.050691
0.0501915
0.0497562
0.049376
0.0490431
0.0487505
0.0484916
0.0482601
0.0700275
0.0663798
0.0634183
0.0609837
0.0589616
0.0572673
0.0558372
0.0546225
0.0535851
0.052695
0.0519283
0.0512656
0.050691
0.0501915
0.0497562
0.049376
0.0490431
0.0487505
0.0484917
0.0482601
0.0700275
0.0663798
0.0634183
0.0609837
0.0589616
0.0572674
0.0558372
0.0546225
0.0535851
0.052695
0.0519283
0.0512656
0.050691
0.0501915
0.0497562
0.0493761
0.0490431
0.0487505
0.0484917
0.0482601
0.0700275
0.0663798
0.0634183
0.0609838
0.0589616
0.0572674
0.0558372
0.0546225
0.0535851
0.052695
0.0519283
0.0512656
0.050691
0.0501915
0.0497562
0.0493761
0.0490432
0.0487505
0.0484917
0.0482601
0.0700275
0.0663798
0.0634183
0.0609838
0.0589616
0.0572674
0.0558373
0.0546225
0.0535851
0.052695
0.0519283
0.0512656
0.050691
0.0501915
0.0497562
0.0493761
0.0490432
0.0487505
0.0484917
0.0482602
0.0700275
0.0663798
0.0634183
0.0609838
0.0589616
0.0572674
0.0558373
0.0546225
0.0535851
0.052695
0.0519283
0.0512656
0.050691
0.0501915
0.0497563
0.0493761
0.0490432
0.0487505
0.0484917
0.0482602
0.0700275
0.0663798
0.0634183
0.0609838
0.0589616
0.0572674
0.0558373
0.0546225
0.0535851
0.052695
0.0519283
0.0512656
0.050691
0.0501915
0.0497563
0.0493761
0.0490432
0.0487506
0.0484917
0.0482602
0.0700275
0.0663798
0.0634183
0.0609838
0.0589617
0.0572674
0.0558373
0.0546225
0.0535851
0.0526951
0.0519284
0.0512656
0.050691
0.0501915
0.0497563
0.0493761
0.0490432
0.0487506
0.0484917
0.0482602
0.0700275
0.0663798
0.0634183
0.0609838
0.0589617
0.0572674
0.0558373
0.0546225
0.0535851
0.0526951
0.0519284
0.0512656
0.050691
0.0501915
0.0497563
0.0493761
0.0490432
0.0487506
0.0484917
0.0482602
0.0700275
0.0663798
0.0634183
0.0609838
0.0589617
0.0572674
0.0558373
0.0546225
0.0535851
0.0526951
0.0519284
0.0512656
0.050691
0.0501915
0.0497563
0.0493761
0.0490432
0.0487506
0.0484917
0.0482602
0.0700275
0.0663798
0.0634183
0.0609838
0.0589617
0.0572674
0.0558373
0.0546225
0.0535851
0.0526951
0.0519284
0.0512656
0.0506911
0.0501916
0.0497563
0.0493761
0.0490432
0.0487506
0.0484918
0.0482602
0.0700275
0.0663798
0.0634183
0.0609838
0.0589617
0.0572674
0.0558373
0.0546225
0.0535851
0.0526951
0.0519284
0.0512657
0.0506911
0.0501916
0.0497563
0.0493762
0.0490432
0.0487506
0.0484918
0.0482602
0.0700275
0.0663798
0.0634183
0.0609838
0.0589617
0.0572674
0.0558373
0.0546226
0.0535852
0.0526951
0.0519284
0.0512657
0.0506911
0.0501916
0.0497563
0.0493762
0.0490433
0.0487506
0.0484918
0.0482602
0.0700275
0.0663798
0.0634183
0.0609838
0.0589617
0.0572674
0.0558373
0.0546226
0.0535852
0.0526951
0.0519284
0.0512657
0.0506911
0.0501916
0.0497563
0.0493762
0.0490433
0.0487506
0.0484918
0.0482603
0.0700275
0.0663798
0.0634183
0.0609838
0.0589617
0.0572674
0.0558373
0.0546226
0.0535852
0.0526951
0.0519284
0.0512657
0.0506911
0.0501916
0.0497564
0.0493762
0.0490433
0.0487507
0.0484919
0.0482603
0.0700275
0.0663798
0.0634183
0.0609838
0.0589617
0.0572674
0.0558373
0.0546226
0.0535852
0.0526952
0.0519285
0.0512657
0.0506912
0.0501917
0.0497564
0.0493763
0.0490434
0.0487507
0.0484919
0.0482604
0.0700275
0.0663798
0.0634183
0.0609838
0.0589617
0.0572675
0.0558374
0.0546227
0.0535853
0.0526952
0.0519285
0.0512658
0.0506912
0.0501918
0.0497565
0.0493763
0.0490434
0.0487508
0.048492
0.0482604
0.0414627
0.0364073
0.0324069
0.0291862
0.0265553
0.0243785
0.0225566
0.0210156
0.0196995
0.0185654
0.0175798
0.0167166
0.015955
0.0152784
0.0146734
0.0141291
0.0136367
0.0131888
0.0127794
0.0124034
0.0120567
0.0117356
0.0114372
0.0111589
0.0108986
0.0106545
0.0104249
0.0102085
0.0100042
0.00981075
0.00962743
0.0094534
0.00928798
0.00913056
0.00898059
0.00883761
0.00870119
0.00857094
0.00844655
0.00832769
0.00821411
0.00810554
0.00800179
0.00790261
0.00780788
0.00771737
0.00763098
0.00754849
0.00746986
0.00739483
0.0073234
0.00725528
0.00719051
0.00712872
0.00707001
0.00701392
0.00696061
0.00690949
0.00686083
0.00681389
0.0067691
0.00672556
0.00668394
0.00664311
0.00660414
0.00656562
0.00652917
0.00649298
0.00645942
0.00642614
0.00639647
0.00636729
0.00634319
0.00631984
0.00630355
0.00628815
0.00628213
0.00627651
0.00628275
0.0062869
0.0465563
0.0449848
0.0432978
0.0415917
0.0399141
0.0382908
0.0367357
0.0352553
0.0338517
0.0325243
0.0312708
0.0300878
0.0289717
0.0279185
0.0269241
0.0259846
0.0250963
0.0242556
0.0234592
0.0227041
0.0219873
0.0213064
0.0206588
0.0200425
0.0194553
0.0188955
0.0183615
0.0178516
0.0173645
0.016899
0.0164539
0.0160281
0.0156206
0.0152308
0.0148576
0.0145004
0.0141586
0.0138315
0.0135186
0.0132194
0.0129335
0.0126603
0.0123996
0.012151
0.0119142
0.0116888
0.0114745
0.0112711
0.0110782
0.0108956
0.0107228
0.0105598
0.0104058
0.0102608
0.010124
0.00999515
0.00987343
0.00975872
0.00964986
0.00954689
0.00944851
0.00935504
0.00926502
0.00917928
0.00909626
0.00901748
0.00894132
0.00887021
0.00880239
0.00874146
0.0086853
0.00863893
0.00859945
0.00857353
0.00855676
0.00855783
0.00856938
0.00860292
0.00864545
0.00870975
0.0473874
0.0466543
0.0457946
0.0448479
0.0438428
0.0428005
0.0417371
0.040665
0.0395939
0.038531
0.0374821
0.0364513
0.035442
0.0344562
0.0334956
0.0325613
0.0316538
0.0307735
0.0299202
0.0290938
0.0282939
0.02752
0.0267716
0.0260481
0.0253489
0.0246732
0.0240204
0.0233898
0.0227809
0.0221929
0.0216252
0.0210773
0.0205486
0.0200386
0.0195468
0.0190727
0.0186159
0.018176
0.0177527
0.0173455
0.0169541
0.0165783
0.0162178
0.0158723
0.0155415
0.0152252
0.0149232
0.0146352
0.0143609
0.0141
0.0138522
0.0136171
0.0133941
0.0131829
0.0129827
0.0127931
0.0126131
0.0124422
0.0122793
0.0121239
0.011975
0.0118322
0.0116945
0.0115621
0.0114341
0.0113115
0.0111935
0.0110823
0.0109773
0.0108817
0.0107952
0.0107222
0.0106621
0.0106209
0.0105966
0.0105966
0.0106166
0.0106651
0.0107334
0.0108271
0.0476674
0.0471983
0.0466487
0.0460303
0.0453548
0.0446327
0.0438734
0.0430848
0.042274
0.0414469
0.0406088
0.0397644
0.0389176
0.0380716
0.0372294
0.0363936
0.035566
0.0347486
0.0339428
0.0331497
0.0323704
0.0316058
0.0308564
0.0301227
0.0294053
0.0287043
0.02802
0.0273525
0.0267019
0.0260683
0.0254516
0.0248519
0.0242691
0.023703
0.0231538
0.0226212
0.0221051
0.0216056
0.0211225
0.0206557
0.0202051
0.0197706
0.0193522
0.0189498
0.0185632
0.0181924
0.0178372
0.0174974
0.0171729
0.0168633
0.0165683
0.0162876
0.0160205
0.0157667
0.0155253
0.0152958
0.015077
0.0148684
0.0146687
0.0144774
0.0142933
0.014116
0.0139446
0.0137792
0.0136192
0.0134656
0.0133182
0.013179
0.0130484
0.0129296
0.0128233
0.0127339
0.012662
0.0126133
0.0125874
0.0125906
0.0126205
0.0126832
0.0127728
0.0128892
0.0478031
0.0474458
0.0470373
0.0465797
0.046077
0.0455338
0.0449547
0.0443444
0.043707
0.0430464
0.0423666
0.0416707
0.0409621
0.0402436
0.0395179
0.0387874
0.0380543
0.0373207
0.0365883
0.0358589
0.0351338
0.0344143
0.0337018
0.0329973
0.0323016
0.0316157
0.0309402
0.030276
0.0296235
0.0289832
0.0283557
0.0277414
0.0271406
0.0265537
0.025981
0.0254226
0.024879
0.0243503
0.0238366
0.0233382
0.0228553
0.022388
0.0219364
0.0215006
0.0210807
0.0206767
0.0202886
0.0199165
0.01956
0.0192191
0.0188934
0.0185827
0.0182863
0.0180036
0.0177341
0.0174768
0.0172308
0.0169952
0.016769
0.0165514
0.0163414
0.0161384
0.0159417
0.0157514
0.0155673
0.0153903
0.0152209
0.0150611
0.0149119
0.0147767
0.014657
0.0145571
0.0144788
0.0144272
0.0144031
0.014412
0.0144526
0.0145293
0.0146376
0.014773
0.0478778
0.0475777
0.0472438
0.0468751
0.0464722
0.0460364
0.0455699
0.045075
0.044554
0.0440093
0.0434434
0.0428586
0.0422572
0.0416414
0.0410132
0.0403746
0.0397276
0.0390739
0.0384153
0.0377533
0.0370895
0.0364252
0.0357619
0.0351007
0.0344428
0.0337893
0.0331412
0.0324994
0.0318649
0.0312383
0.0306205
0.0300121
0.029414
0.0288265
0.0282504
0.0276861
0.0271342
0.0265952
0.0260695
0.0255574
0.0250594
0.0245759
0.0241072
0.0236535
0.0232151
0.0227922
0.0223849
0.0219933
0.0216173
0.0212568
0.0209116
0.0205813
0.0202654
0.0199634
0.0196745
0.0193978
0.0191325
0.0188775
0.0186318
0.0183947
0.018165
0.0179424
0.0177264
0.0175169
0.0173142
0.0171193
0.0169331
0.0167577
0.0165948
0.0164478
0.0163189
0.0162125
0.016131
0.0160793
0.0160591
0.016075
0.0161264
0.0162166
0.0163415
0.0164932
0.0479196
0.0476517
0.0473609
0.0470453
0.0467039
0.0463367
0.0459441
0.045527
0.0450867
0.0446244
0.0441415
0.0436397
0.0431203
0.0425851
0.0420354
0.0414728
0.0408989
0.040315
0.0397227
0.0391233
0.0385183
0.0379088
0.0372963
0.0366818
0.0360667
0.0354519
0.0348387
0.034228
0.0336208
0.0330181
0.0324208
0.0318298
0.0312459
0.0306698
0.0301024
0.0295444
0.0289964
0.0284592
0.0279333
0.0274194
0.026918
0.0264296
0.0259548
0.0254939
0.0250474
0.0246156
0.0241987
0.0237969
0.0234103
0.0230387
0.0226821
0.02234
0.0220121
0.0216977
0.0213961
0.0211064
0.0208277
0.0205591
0.0202994
0.0200479
0.0198038
0.0195665
0.0193357
0.0191117
0.0188948
0.0186863
0.0184873
0.0183003
0.0181273
0.017972
0.0178371
0.017727
0.0176446
0.0175948
0.0175796
0.017603
0.0176652
0.017768
0.0179078
0.0180735
0.047942
0.0476926
0.0474275
0.0471447
0.0468427
0.0465207
0.0461782
0.0458152
0.0454322
0.0450297
0.0446084
0.0441693
0.0437131
0.0432411
0.0427542
0.0422536
0.0417404
0.0412157
0.0406808
0.0401368
0.0395847
0.0390259
0.0384613
0.0378922
0.0373196
0.0367446
0.0361683
0.0355917
0.0350159
0.0344417
0.0338702
0.0333024
0.0327391
0.0321812
0.0316297
0.0310852
0.0305488
0.030021
0.0295028
0.0289949
0.0284978
0.0280124
0.0275391
0.0270787
0.0266315
0.026198
0.0257786
0.0253734
0.0249827
0.0246065
0.0242446
0.0238967
0.0235624
0.0232411
0.0229321
0.0226345
0.0223473
0.0220697
0.0218006
0.0215393
0.0212849
0.0210371
0.0207956
0.020561
0.0203337
0.0201151
0.0199069
0.0197116
0.0195317
0.0193708
0.0192323
0.0191207
0.0190392
0.0189925
0.0189829
0.0190142
0.0190865
0.0192012
0.0193544
0.019532
0.0479523
0.0477137
0.0474639
0.0472014
0.0469247
0.0466326
0.0463243
0.0459994
0.0456577
0.0452991
0.0449239
0.0445324
0.0441253
0.0437031
0.0432665
0.0428162
0.0423532
0.0418782
0.0413921
0.0408959
0.0403905
0.0398768
0.0393559
0.0388287
0.0382963
0.0377595
0.0372194
0.036677
0.0361332
0.0355891
0.0350455
0.0345035
0.033964
0.0334279
0.0328961
0.0323695
0.0318491
0.0313357
0.0308301
0.0303332
0.0298458
0.0293685
0.0289021
0.0284473
0.0280047
0.0275748
0.0271579
0.0267546
0.0263648
0.0259887
0.0256263
0.0252772
0.024941
0.0246172
0.024305
0.0240037
0.0237122
0.0234296
0.023155
0.0228876
0.0226267
0.0223721
0.0221236
0.0218818
0.0216475
0.0214222
0.0212079
0.0210071
0.0208229
0.020659
0.020519
0.0204074
0.0203281
0.0202853
0.0202818
0.0203209
0.0204028
0.0205282
0.0206934
0.0208814
0.0479553
0.0477226
0.0474817
0.0472315
0.0469707
0.0466982
0.0464131
0.0461146
0.0458023
0.0454758
0.0451351
0.04478
0.0444109
0.0440279
0.0436314
0.043222
0.0428002
0.0423665
0.0419217
0.0414664
0.0410014
0.0405274
0.0400454
0.039556
0.0390603
0.038559
0.038053
0.0375433
0.0370307
0.0365162
0.0360008
0.0354852
0.0349706
0.0344578
0.0339477
0.0334413
0.0329394
0.0324431
0.0319531
0.0314705
0.0309959
0.0305303
0.0300743
0.0296289
0.0291945
0.0287718
0.0283612
0.0279633
0.0275781
0.0272059
0.0268465
0.0264998
0.0261653
0.0258426
0.0255308
0.0252292
0.0249368
0.0246527
0.024376
0.024106
0.023842
0.0235839
0.0233316
0.0230859
0.0228477
0.0226187
0.0224009
0.0221974
0.0220111
0.0218462
0.0217065
0.0215965
0.0215202
0.021482
0.0214847
0.0215313
0.0216221
0.0217574
0.0219332
0.0221301
0.047954
0.0477243
0.0474883
0.0472451
0.0469939
0.0467338
0.0464638
0.0461833
0.0458916
0.0455882
0.0452727
0.044945
0.044605
0.0442526
0.043888
0.0435114
0.0431232
0.0427237
0.0423133
0.0418927
0.0414623
0.0410228
0.0405748
0.040119
0.0396561
0.039187
0.0387124
0.0382331
0.0377499
0.0372637
0.0367754
0.0362858
0.0357959
0.0353065
0.0348186
0.0343332
0.033851
0.0333731
0.0329004
0.0324337
0.031974
0.0315222
0.0310789
0.0306451
0.0302214
0.0298085
0.0294068
0.0290169
0.0286391
0.0282734
0.0279199
0.0275783
0.0272483
0.0269294
0.0266209
0.0263219
0.0260316
0.025749
0.0254732
0.0252036
0.0249396
0.024681
0.024428
0.0241812
0.0239419
0.0237119
0.0234933
0.0232894
0.0231033
0.0229392
0.0228011
0.0226939
0.0226214
0.0225882
0.0225971
0.0226509
0.02275
0.0228942
0.0230794
0.0232839
0.0479503
0.0477219
0.0474883
0.0472489
0.0470031
0.0467503
0.0464898
0.0462209
0.045943
0.0456556
0.0453582
0.0450505
0.0447323
0.0444032
0.0440634
0.0437128
0.0433516
0.0429799
0.042598
0.0422064
0.0418052
0.0413951
0.0409766
0.0405501
0.0401164
0.039676
0.0392296
0.0387779
0.0383217
0.0378618
0.037399
0.0369341
0.0364679
0.0360013
0.0355352
0.0350706
0.0346082
0.0341491
0.0336942
0.0332443
0.0328005
0.0323634
0.0319341
0.0315133
0.0311018
0.0307002
0.0303092
0.0299291
0.0295604
0.0292032
0.0288575
0.0285232
0.0281999
0.0278871
0.0275841
0.0272902