/*--------------------------------*- C++ -*----------------------------------*\
| =========                 |                                                 |
| \\      /  F ield         | OpenFOAM: The Open Source CFD Toolbox           |
|  \\    /   O peration     | Version:  2.4.0                                 |
|   \\  /    A nd           | Web:      www.OpenFOAM.org                      |
|    \\/     M anipulation  |                                                 |
\*---------------------------------------------------------------------------*/
FoamFile
{
    version     2.0;
    format      ascii;
    class       volScalarField;
    location    "2.09";
    object      nut;
}
// * * * * * * * * * * * * * * * * * * * * * * * * * * * * * * * * * * * * * //

dimensions      [0 2 -1 0 0 0 0];

internalField   nonuniform List<scalar> 
6000
(
1.24046e-05
1.01664e-05
5.71025e-06
2.97746e-06
2.17624e-06
2.88071e-06
2.93343e-06
3.77839e-06
4.79027e-06
6.96068e-06
9.67662e-06
1.14692e-05
1.22195e-05
1.1854e-05
1.08674e-05
1.0749e-05
1.1336e-05
1.20611e-05
1.57651e-05
1.84492e-05
1.97357e-05
1.98525e-05
1.91043e-05
1.77795e-05
1.62672e-05
1.46778e-05
1.30793e-05
1.15315e-05
9.9027e-06
8.05121e-06
6.18566e-06
5.76164e-06
6.70402e-06
7.5509e-06
8.20484e-06
8.65641e-06
8.94439e-06
9.12225e-06
9.23907e-06
9.33141e-06
9.42218e-06
9.52305e-06
9.63774e-06
9.76516e-06
9.90182e-06
1.00434e-05
1.01859e-05
1.03256e-05
1.04598e-05
1.05864e-05
1.07035e-05
1.08102e-05
1.09049e-05
1.09891e-05
1.10573e-05
1.11246e-05
1.11532e-05
1.12529e-05
1.11307e-05
1.14466e-05
2.33577e-05
3.48518e-05
1.70299e-05
8.85561e-06
7.62144e-06
1.10182e-05
1.83645e-05
2.25479e-05
3.10617e-05
4.17318e-05
5.35549e-05
5.70448e-05
4.41371e-05
3.06614e-05
2.8251e-05
3.05087e-05
3.54674e-05
3.11852e-05
2.2484e-05
1.80464e-05
1.81561e-05
2.16515e-05
2.82634e-05
3.53349e-05
4.19651e-05
4.81143e-05
5.27331e-05
5.4763e-05
5.39892e-05
4.98559e-05
4.04641e-05
2.64576e-05
1.74768e-05
1.24175e-05
9.95519e-06
8.89074e-06
8.50499e-06
8.4287e-06
8.48328e-06
8.58657e-06
8.70307e-06
8.81862e-06
8.92796e-06
9.02898e-06
9.12026e-06
9.20015e-06
9.26659e-06
9.31727e-06
9.34984e-06
9.36204e-06
9.35196e-06
9.31756e-06
9.25815e-06
9.16998e-06
9.05869e-06
8.90375e-06
8.75588e-06
8.47199e-06
8.27582e-06
7.9296e-06
2.88995e-05
5.03682e-05
2.4221e-05
1.17199e-05
1.59396e-05
2.10217e-05
3.09952e-05
3.79535e-05
5.06943e-05
6.72601e-05
8.62158e-05
9.6998e-05
8.39387e-05
6.27994e-05
5.25927e-05
4.80377e-05
4.42194e-05
2.79855e-05
2.0951e-05
2.63016e-05
4.07838e-05
6.00417e-05
7.77571e-05
8.87854e-05
9.66742e-05
0.000101206
0.000101882
9.83843e-05
9.07719e-05
7.94191e-05
6.4716e-05
4.9449e-05
3.78224e-05
2.85661e-05
2.19816e-05
1.77995e-05
1.53491e-05
1.3966e-05
1.31845e-05
1.27251e-05
1.24297e-05
1.22118e-05
1.2026e-05
1.18495e-05
1.16729e-05
1.14925e-05
1.13072e-05
1.11158e-05
1.09162e-05
1.07053e-05
1.0479e-05
1.02327e-05
9.96186e-06
9.66016e-06
9.32676e-06
8.9461e-06
8.54286e-06
8.03569e-06
7.4257e-06
6.68455e-06
3.21947e-05
5.72507e-05
2.75153e-05
1.37214e-05
2.27899e-05
2.85573e-05
3.94675e-05
4.81115e-05
6.27954e-05
8.09799e-05
0.000100755
0.000115819
0.000107088
8.73257e-05
7.13146e-05
5.91776e-05
4.28764e-05
2.54966e-05
2.96014e-05
5.27353e-05
8.08259e-05
0.000102827
0.000116798
0.000124642
0.000129128
0.00013003
0.000127046
0.000119892
0.000108583
9.38939e-05
7.72189e-05
6.21165e-05
5.07274e-05
4.15333e-05
3.45217e-05
2.93585e-05
2.57398e-05
2.33411e-05
2.17964e-05
2.07848e-05
2.00727e-05
1.9506e-05
1.89903e-05
1.84731e-05
1.79307e-05
1.73577e-05
1.67582e-05
1.61402e-05
1.55115e-05
1.48777e-05
1.42416e-05
1.36033e-05
1.29601e-05
1.23086e-05
1.16409e-05
1.09566e-05
1.02365e-05
9.50848e-06
8.57014e-06
7.9174e-06
3.39565e-05
5.94659e-05
3.39228e-05
1.51271e-05
2.76059e-05
3.41163e-05
4.52878e-05
5.48276e-05
6.99855e-05
8.74896e-05
0.000104957
0.000122315
0.00011946
0.000102918
8.40065e-05
6.45217e-05
3.87049e-05
2.76796e-05
4.87376e-05
8.60779e-05
0.000113925
0.000130464
0.000140475
0.000146472
0.000149176
0.000148246
0.000143345
0.000134132
0.000120567
0.000103537
8.49753e-05
6.95569e-05
5.7819e-05
4.83728e-05
4.15744e-05
3.69419e-05
3.37297e-05
3.14863e-05
2.99664e-05
2.89596e-05
2.82712e-05
2.77428e-05
2.72593e-05
2.67454e-05
2.61581e-05
2.54794e-05
2.47083e-05
2.38543e-05
2.29323e-05
2.19586e-05
2.09489e-05
1.99172e-05
1.88738e-05
1.78299e-05
1.67835e-05
1.57615e-05
1.47084e-05
1.3806e-05
1.25857e-05
1.2521e-05
3.49044e-05
5.90563e-05
4.12402e-05
1.51308e-05
3.02322e-05
3.84464e-05
4.94305e-05
5.92541e-05
7.39096e-05
8.96057e-05
0.000103483
0.000121304
0.000125457
0.000112691
9.28796e-05
6.52463e-05
3.55315e-05
3.52236e-05
7.43065e-05
0.000114638
0.000136932
0.000149783
0.000158327
0.000163671
0.00016545
0.000163323
0.000157016
0.000146214
0.000130823
0.000111676
9.0973e-05
7.49787e-05
6.28164e-05
5.27133e-05
4.5315e-05
4.06731e-05
3.79522e-05
3.62739e-05
3.51877e-05
3.4504e-05
3.40935e-05
3.38374e-05
3.36336e-05
3.34032e-05
3.30919e-05
3.26667e-05
3.21121e-05
3.14253e-05
3.06125e-05
2.96854e-05
2.866e-05
2.75553e-05
2.6391e-05
2.51921e-05
2.39729e-05
2.27875e-05
2.15883e-05
2.06701e-05
1.95035e-05
2.03255e-05
3.54155e-05
5.72107e-05
4.67676e-05
1.67219e-05
3.0326e-05
4.20156e-05
5.25922e-05
6.21942e-05
7.57195e-05
8.91777e-05
9.9429e-05
0.000115373
0.000127386
0.000118718
9.87938e-05
6.25637e-05
3.45701e-05
4.81354e-05
0.000100328
0.000136648
0.000154882
0.000166562
0.000174951
0.000180041
0.000181028
0.000177709
0.000169989
0.000157653
0.000140578
0.000119459
9.6483e-05
7.95094e-05
6.6939e-05
5.63884e-05
4.81182e-05
4.2711e-05
3.98138e-05
3.84118e-05
3.77081e-05
3.73567e-05
3.72302e-05
3.72476e-05
3.73335e-05
3.74203e-05
3.74535e-05
3.73941e-05
3.72167e-05
3.69074e-05
3.6461e-05
3.58789e-05
3.51682e-05
3.43415e-05
3.34173e-05
3.24211e-05
3.13819e-05
3.03573e-05
2.9362e-05
2.866e-05
2.80378e-05
2.95913e-05
3.5675e-05
5.4658e-05
5.04896e-05
2.28803e-05
2.82738e-05
4.50291e-05
5.53287e-05
6.43304e-05
7.64103e-05
8.78015e-05
9.49374e-05
0.000106428
0.000126562
0.000122204
0.000101757
5.80353e-05
3.60942e-05
6.53933e-05
0.000123324
0.000154638
0.00017135
0.000183371
0.000192121
0.000196954
0.000196961
0.000192196
0.00018284
0.000168856
0.000150134
0.000127202
0.000102045
8.36726e-05
7.04404e-05
5.97082e-05
5.08598e-05
4.44639e-05
4.07948e-05
3.91439e-05
3.8533e-05
3.83702e-05
3.84335e-05
3.86417e-05
3.89382e-05
3.92684e-05
3.95826e-05
3.98409e-05
4.00142e-05
4.00834e-05
4.00374e-05
3.98715e-05
3.95866e-05
3.91885e-05
3.86913e-05
3.81142e-05
3.74946e-05
3.68748e-05
3.63446e-05
3.60423e-05
3.62363e-05
3.82731e-05
3.57851e-05
5.18458e-05
5.2653e-05
3.06355e-05
2.57658e-05
4.74059e-05
5.80631e-05
6.6296e-05
7.6891e-05
8.66999e-05
9.12513e-05
9.6377e-05
0.000123781
0.000123821
0.000101117
5.36491e-05
4.01763e-05
8.50672e-05
0.000142968
0.000170986
0.000188117
0.000201278
0.000210536
0.000214927
0.000213626
0.00020704
0.000195723
0.000179887
0.000159484
0.000134894
0.000107826
8.78235e-05
7.34966e-05
6.25596e-05
5.35433e-05
4.64055e-05
4.17574e-05
3.94298e-05
3.85598e-05
3.83764e-05
3.85033e-05
3.88064e-05
3.92261e-05
3.97138e-05
4.0223e-05
4.07136e-05
4.11543e-05
4.15233e-05
4.18077e-05
4.20014e-05
4.21043e-05
4.21211e-05
4.20648e-05
4.19511e-05
4.1824e-05
4.17057e-05
4.17586e-05
4.1952e-05
4.30553e-05
4.54193e-05
3.58074e-05
4.90436e-05
5.35227e-05
3.82251e-05
2.47394e-05
4.87191e-05
6.10151e-05
6.86334e-05
7.7927e-05
8.66998e-05
8.89704e-05
8.72147e-05
0.000119426
0.000123833
9.76026e-05
5.03396e-05
4.68551e-05
0.000105179
0.000160266
0.00018717
0.000206007
0.000220726
0.000230474
0.000234153
0.000231152
0.000222316
0.000208658
0.000190714
0.000168543
0.000142407
0.000113785
9.2166e-05
7.63548e-05
6.49103e-05
5.59361e-05
4.84751e-05
4.2994e-05
3.98071e-05
3.83954e-05
3.79746e-05
3.80279e-05
3.8332e-05
3.87974e-05
3.93695e-05
4.0001e-05
4.06491e-05
4.12793e-05
4.18666e-05
4.2396e-05
4.28616e-05
4.3265e-05
4.36137e-05
4.3925e-05
4.42158e-05
4.45397e-05
4.49041e-05
4.55335e-05
4.6238e-05
4.8218e-05
5.08513e-05
3.57798e-05
4.6405e-05
5.33681e-05
4.46148e-05
2.67321e-05
4.82946e-05
6.41389e-05
7.17012e-05
8.00601e-05
8.82754e-05
8.86187e-05
8.04543e-05
0.000113392
0.000122152
9.20076e-05
4.83617e-05
5.60706e-05
0.000124431
0.00017633
0.000204005
0.000225384
0.000241878
0.000252015
0.000254679
0.000249568
0.000238033
0.000221631
0.000201291
0.000177223
0.000149599
0.000119782
9.67418e-05
7.92429e-05
6.6883e-05
5.78812e-05
5.04391e-05
4.44533e-05
4.04625e-05
3.83663e-05
3.75332e-05
3.73825e-05
3.75978e-05
3.80399e-05
3.86362e-05
3.93325e-05
4.00814e-05
4.08428e-05
4.15867e-05
4.22942e-05
4.29574e-05
4.35795e-05
4.41715e-05
4.47571e-05
4.53588e-05
4.60424e-05
4.68096e-05
4.79358e-05
4.91079e-05
5.18587e-05
5.47437e-05
3.57248e-05
4.4009e-05
5.2446e-05
4.95483e-05
3.22154e-05
4.5972e-05
6.71375e-05
7.56067e-05
8.35784e-05
9.15445e-05
9.02537e-05
7.65805e-05
0.000105193
0.000118422
8.51531e-05
4.78086e-05
6.75697e-05
0.000142342
0.000192003
0.000221906
0.000246372
0.000264746
0.000275133
0.000276474
0.000268846
0.000254167
0.000234618
0.000211583
0.000185461
0.000156361
0.000125666
0.000101471
8.22901e-05
6.86723e-05
5.93714e-05
5.20929e-05
4.59476e-05
4.13614e-05
3.85824e-05
3.72373e-05
3.67776e-05
3.68235e-05
3.71806e-05
3.77494e-05
3.84638e-05
3.92696e-05
4.01201e-05
4.09782e-05
4.18187e-05
4.26292e-05
4.34116e-05
4.41788e-05
4.49598e-05
4.57846e-05
4.67311e-05
4.78041e-05
4.9319e-05
5.08816e-05
5.42603e-05
5.73818e-05
3.56562e-05
4.1887e-05
5.0986e-05
5.3006e-05
3.86624e-05
4.24964e-05
6.95382e-05
8.02158e-05
8.84359e-05
9.63805e-05
9.37641e-05
7.52754e-05
9.48609e-05
0.000111973
7.82615e-05
4.87137e-05
8.08857e-05
0.000158988
0.000207846
0.000241055
0.000268964
0.00028925
0.00029973
0.000299451
0.00028892
0.000270673
0.000247586
0.000221563
0.00019322
0.00016262
0.000131316
0.000106215
8.55142e-05
7.04537e-05
6.05124e-05
5.3337e-05
4.72834e-05
4.23684e-05
3.90168e-05
3.71412e-05
3.6308e-05
3.61209e-05
3.63407e-05
3.68374e-05
3.75304e-05
3.8357e-05
3.92638e-05
4.0206e-05
4.11502e-05
4.20771e-05
4.2984e-05
4.38828e-05
4.48052e-05
4.57873e-05
4.69177e-05
4.82086e-05
5.00059e-05
5.18714e-05
5.57267e-05
5.90578e-05
3.55823e-05
4.00414e-05
4.91828e-05
5.50987e-05
4.48262e-05
3.93176e-05
7.07571e-05
8.52214e-05
9.43744e-05
0.00010255
9.90157e-05
7.60543e-05
8.39412e-05
0.000103512
7.20495e-05
5.10989e-05
9.54165e-05
0.000174687
0.000224197
0.000261492
0.000293068
0.000315249
0.000325659
0.000323484
0.000309697
0.000287486
0.000260497
0.000231208
0.000200483
0.00016834
0.000136655
0.000110832
8.88516e-05
7.23334e-05
6.14559e-05
5.41786e-05
4.83247e-05
4.33284e-05
3.95755e-05
3.72195e-05
3.59932e-05
3.55332e-05
3.55757e-05
3.59644e-05
3.66026e-05
3.74194e-05
3.83549e-05
3.93569e-05
4.03839e-05
4.1408e-05
4.24192e-05
4.34252e-05
4.44573e-05
4.55548e-05
4.68141e-05
4.82559e-05
5.0248e-05
5.23345e-05
5.65274e-05
6.00297e-05
3.55082e-05
3.84577e-05
4.7194e-05
5.60013e-05
5.01812e-05
3.98133e-05
7.02517e-05
9.02155e-05
0.000101047
0.000109785
0.000105815
7.87148e-05
7.41749e-05
9.39386e-05
6.68981e-05
5.49849e-05
0.000110557
0.000189802
0.00024124
0.00028317
0.000318541
0.000342566
0.000352744
0.000348421
0.000331057
0.000304526
0.000273302
0.000240496
0.000207237
0.000173505
0.000141642
0.000115204
9.21995e-05
7.43408e-05
6.23431e-05
5.47e-05
4.90129e-05
4.41126e-05
4.01455e-05
3.74065e-05
3.58086e-05
3.50618e-05
3.49028e-05
3.51572e-05
3.57144e-05
3.64955e-05
3.74354e-05
3.84761e-05
3.95685e-05
4.06758e-05
4.17793e-05
4.28799e-05
4.40053e-05
4.51951e-05
4.655e-05
4.8098e-05
5.02212e-05
5.24622e-05
5.68771e-05
6.05079e-05
3.54369e-05
3.71125e-05
4.51418e-05
5.59142e-05
5.45161e-05
4.36009e-05
6.77474e-05
9.47264e-05
0.000108079
0.000117822
0.000113942
8.32906e-05
6.67923e-05
8.43509e-05
6.30565e-05
6.03807e-05
0.000125815
0.000204646
0.000259048
0.000305984
0.000345207
0.000371003
0.000380789
0.000374088
0.000352864
0.000321695
0.000285944
0.000249401
0.000213476
0.000178112
0.000146271
0.000119246
9.54501e-05
7.6446e-05
6.32724e-05
5.50176e-05
4.93602e-05
4.46387e-05
4.06245e-05
3.76242e-05
3.57079e-05
3.46848e-05
3.43164e-05
3.44214e-05
3.48791e-05
3.56043e-05
3.65278e-05
3.75879e-05
3.87294e-05
3.99075e-05
4.10944e-05
4.22826e-05
4.34939e-05
4.47651e-05
4.61982e-05
4.78259e-05
5.00386e-05
5.23856e-05
5.69352e-05
6.06535e-05
3.537e-05
3.59791e-05
4.31168e-05
5.5041e-05
5.77413e-05
4.90558e-05
6.35229e-05
9.82216e-05
0.000115098
0.000126411
0.000123188
8.98209e-05
6.24704e-05
7.58147e-05
6.06679e-05
6.72641e-05
0.000140865
0.000219451
0.000277618
0.000329794
0.000372873
0.000400348
0.000409587
0.000400301
0.000374967
0.000338884
0.000298354
0.00025789
0.000219193
0.000182254
0.000150451
0.0001229
9.85104e-05
7.85854e-05
6.42896e-05
5.52462e-05
4.94297e-05
4.48764e-05
4.09357e-05
3.77987e-05
3.56381e-05
3.43695e-05
3.37989e-05
3.37506e-05
3.40988e-05
3.47537e-05
3.56442e-05
3.67065e-05
3.78815e-05
3.9118e-05
4.03797e-05
4.16503e-05
4.29437e-05
4.42921e-05
4.57957e-05
4.74896e-05
4.97676e-05
5.21886e-05
5.68118e-05
6.05831e-05
3.53086e-05
3.503e-05
4.11826e-05
5.35755e-05
5.98499e-05
5.484e-05
6.03398e-05
0.000100119
0.000121731
0.000135312
0.000133363
9.8262e-05
6.1366e-05
6.91284e-05
5.98077e-05
7.5562e-05
0.000155543
0.000234369
0.000296894
0.000354436
0.000401337
0.00043039
0.000438926
0.000426865
0.000397207
0.000355976
0.000310461
0.00026593
0.000224381
0.000186013
0.000154126
0.000126129
0.000101309
8.06842e-05
6.53954e-05
5.54763e-05
4.93106e-05
4.48388e-05
4.10315e-05
3.78697e-05
3.55488e-05
3.40803e-05
3.33274e-05
3.31319e-05
3.33683e-05
3.39452e-05
3.47906e-05
3.58405e-05
3.70345e-05
3.83169e-05
3.96443e-05
4.09916e-05
4.23644e-05
4.37885e-05
4.536e-05
4.71145e-05
4.94452e-05
5.19211e-05
5.65785e-05
6.03771e-05
3.52527e-05
3.42392e-05
3.93808e-05
5.16935e-05
6.08976e-05
6.01583e-05
6.01271e-05
9.98358e-05
0.000127589
0.00014428
0.000144271
0.000108486
6.33048e-05
6.47309e-05
6.05107e-05
8.51406e-05
0.00016981
0.000249485
0.000316782
0.000379732
0.000430391
0.000460913
0.000468595
0.000453584
0.000419416
0.000372845
0.000322184
0.000273482
0.000229029
0.000189427
0.000157291
0.000128914
0.000103797
8.26714e-05
6.65593e-05
5.57631e-05
4.90954e-05
4.45784e-05
4.09045e-05
3.7797e-05
3.53983e-05
3.3784e-05
3.28784e-05
3.25498e-05
3.26792e-05
3.31759e-05
3.39688e-05
3.49954e-05
3.61956e-05
3.75116e-05
3.88947e-05
4.03123e-05
4.17611e-05
4.32598e-05
4.48989e-05
4.67126e-05
4.90905e-05
5.16111e-05
5.62796e-05
6.0088e-05
3.52026e-05
3.35833e-05
3.77354e-05
4.95482e-05
6.09849e-05
6.45811e-05
6.26018e-05
9.74786e-05
0.000132249
0.000153049
0.000155693
0.000120306
6.80106e-05
6.2762e-05
6.27859e-05
9.58114e-05
0.000183701
0.000264827
0.000337159
0.000405495
0.000459828
0.000491706
0.000498381
0.000480259
0.000441422
0.000389362
0.000333443
0.000280507
0.000233128
0.00019253
0.000159946
0.000131241
0.00010594
8.44879e-05
6.77347e-05
5.61275e-05
4.88626e-05
4.4168e-05
4.05783e-05
3.75642e-05
3.51574e-05
3.34533e-05
3.24303e-05
3.19886e-05
3.20212e-05
3.24407e-05
3.31782e-05
3.4174e-05
3.53698e-05
3.67081e-05
3.81368e-05
3.9617e-05
4.11375e-05
4.27092e-05
4.44158e-05
4.62888e-05
4.87124e-05
5.12731e-05
5.59406e-05
5.97482e-05
3.51578e-05
3.30411e-05
3.62574e-05
4.72682e-05
6.0242e-05
6.78951e-05
6.66069e-05
9.45872e-05
0.00013524
0.000161322
0.000167384
0.000133489
7.52168e-05
6.31846e-05
6.66188e-05
0.00010735
0.00019728
0.000280379
0.000357886
0.000431531
0.000489437
0.000522556
0.000528071
0.000506688
0.00046305
0.000405393
0.000344152
0.000286965
0.000236675
0.000195352
0.00016209
0.000133106
0.000107721
8.6089e-05
6.88709e-05
5.65627e-05
4.86671e-05
4.3681e-05
4.0098e-05
3.71782e-05
3.48118e-05
3.30688e-05
3.19656e-05
3.14346e-05
3.13843e-05
3.17334e-05
3.24164e-05
3.33771e-05
3.45607e-05
3.59112e-05
3.73755e-05
3.89101e-05
4.04969e-05
4.2139e-05
4.39127e-05
4.58456e-05
4.8315e-05
5.09145e-05
5.55756e-05
5.93773e-05
3.51181e-05
3.25943e-05
3.49477e-05
4.49572e-05
5.88159e-05
7.00244e-05
7.11493e-05
9.26679e-05
0.000136282
0.000168759
0.000179072
0.000147776
8.46795e-05
6.58833e-05
7.19652e-05
0.000119521
0.000210617
0.000296091
0.00037881
0.000457645
0.000519008
0.000553249
0.000557453
0.000532668
0.000484121
0.000420804
0.000354226
0.000292818
0.000239792
0.000197798
0.000163722
0.000134507
0.000109127
8.74433e-05
6.99214e-05
5.7044e-05
4.85382e-05
4.31805e-05
3.95181e-05
3.6664e-05
3.43613e-05
3.26204e-05
3.14723e-05
3.08769e-05
3.07598e-05
3.10479e-05
3.16802e-05
3.26045e-05
3.37703e-05
3.51247e-05
3.66153e-05
3.8196e-05
3.98428e-05
4.15516e-05
4.3391e-05
4.53841e-05
4.79e-05
5.05384e-05
5.51919e-05
5.8986e-05
3.5083e-05
3.22274e-05
3.38008e-05
4.26955e-05
5.68591e-05
7.09857e-05
7.55037e-05
9.23117e-05
0.000135777
0.000174946
0.000190461
0.000162878
9.61665e-05
7.07133e-05
7.8745e-05
0.000132105
0.000223763
0.000311887
0.000399766
0.000483639
0.000548328
0.00058357
0.00058631
0.000557994
0.000504456
0.000435457
0.000363581
0.00029803
0.00024265
0.000199729
0.00016484
0.000135447
0.000110156
8.85307e-05
7.08474e-05
5.75384e-05
4.84826e-05
4.27132e-05
3.88937e-05
3.60583e-05
3.38179e-05
3.21072e-05
3.09441e-05
3.0308e-05
3.01408e-05
3.03786e-05
3.09659e-05
3.18548e-05
3.29996e-05
3.43516e-05
3.58603e-05
3.74787e-05
3.91786e-05
4.09495e-05
4.28525e-05
4.49055e-05
4.74684e-05
5.01465e-05
5.47931e-05
5.85804e-05
3.50521e-05
3.1927e-05
3.28065e-05
4.05418e-05
5.45204e-05
7.08591e-05
7.918e-05
9.34426e-05
0.000134536
0.000179382
0.00020123
0.000178489
0.000109452
7.75094e-05
8.684e-05
0.00014491
0.000236745
0.000327669
0.000420586
0.00050931
0.000577181
0.0006133
0.000614427
0.00058246
0.00052387
0.000449218
0.000372131
0.00030257
0.000245307
0.000201125
0.000165449
0.000135931
0.000110808
8.93404e-05
7.16195e-05
5.8011e-05
4.84907e-05
4.23067e-05
3.82717e-05
3.54018e-05
3.32051e-05
3.15365e-05
3.03804e-05
2.97242e-05
2.95228e-05
2.97215e-05
3.02705e-05
3.11267e-05
3.22491e-05
3.35937e-05
3.51133e-05
3.67617e-05
3.85077e-05
4.03356e-05
4.22991e-05
4.44108e-05
4.7021e-05
4.97397e-05
5.43811e-05
5.81634e-05
3.50251e-05
3.16817e-05
3.19523e-05
3.85365e-05
5.19378e-05
6.97683e-05
8.18733e-05
9.55905e-05
0.000133179
0.000182045
0.000211026
0.000194284
0.000124318
8.60837e-05
9.60988e-05
0.000157781
0.000249563
0.000343328
0.000441099
0.000534458
0.000605346
0.000642215
0.000641583
0.000605857
0.000542181
0.00046195
0.000379796
0.000306444
0.000247764
0.000201977
0.000165554
0.000135969
0.00011109
8.98682e-05
7.22174e-05
5.84304e-05
4.85414e-05
4.19698e-05
3.76853e-05
3.47321e-05
3.25505e-05
3.09218e-05
2.97859e-05
2.91254e-05
2.89035e-05
2.90735e-05
2.95913e-05
3.04184e-05
3.15184e-05
3.28524e-05
3.43772e-05
3.60483e-05
3.78333e-05
3.97125e-05
4.17328e-05
4.39015e-05
4.65587e-05
4.93185e-05
5.39569e-05
5.77368e-05
3.50013e-05
3.14821e-05
3.12244e-05
3.67039e-05
4.92338e-05
6.78648e-05
8.34219e-05
9.81601e-05
0.000132174
0.00018324
0.000219465
0.000209929
0.000140554
9.62277e-05
0.000106349
0.000170595
0.000262194
0.000358743
0.000461131
0.000558878
0.0006326
0.000670084
0.000667552
0.000627975
0.000559206
0.000473519
0.0003865
0.000310022
0.000249672
0.000202274
0.000165163
0.000135572
0.000111008
9.01152e-05
7.26286e-05
5.87707e-05
4.861e-05
4.16981e-05
3.7154e-05
3.40797e-05
3.18814e-05
3.02804e-05
2.91687e-05
2.85143e-05
2.82828e-05
2.84334e-05
2.89267e-05
2.97286e-05
3.08073e-05
3.21285e-05
3.36538e-05
3.53413e-05
3.71586e-05
3.90832e-05
4.11559e-05
4.33792e-05
4.60824e-05
4.88837e-05
5.35211e-05
5.73014e-05
3.49806e-05
3.13202e-05
3.06086e-05
3.50558e-05
4.65121e-05
6.53146e-05
8.37761e-05
0.000100592
0.000131723
0.000183423
0.00022618
0.000225072
0.000157944
0.000107725
0.00011741
0.000183259
0.000274592
0.000373788
0.000480505
0.000582365
0.000658714
0.000696671
0.000692104
0.000648603
0.000574762
0.000483796
0.000392175
0.000313436
0.00025094
0.000202008
0.000164287
0.000134756
0.000110576
9.00866e-05
7.28467e-05
5.90121e-05
4.86718e-05
4.14787e-05
3.66848e-05
3.34658e-05
3.12214e-05
2.96301e-05
2.85395e-05
2.78962e-05
2.76626e-05
2.78009e-05
2.82757e-05
2.90564e-05
3.01153e-05
3.14227e-05
3.29446e-05
3.46429e-05
3.64862e-05
3.84501e-05
4.05707e-05
4.28455e-05
4.55934e-05
4.8436e-05
5.30742e-05
5.68578e-05
3.49625e-05
3.11894e-05
3.00912e-05
3.35942e-05
4.38562e-05
6.22867e-05
8.29726e-05
0.000102433
0.000131763
0.000182848
0.000231091
0.000239344
0.000176244
0.000120375
0.00012911
0.000195702
0.0002867
0.000388335
0.000499048
0.000604711
0.000683453
0.000721731
0.000715007
0.000667525
0.000588672
0.000492657
0.000397172
0.000316349
0.000251527
0.000201177
0.000162937
0.000133536
0.000109808
8.97906e-05
7.28709e-05
5.91412e-05
4.87052e-05
4.12943e-05
3.62752e-05
3.29022e-05
3.05888e-05
2.8987e-05
2.79095e-05
2.72774e-05
2.70458e-05
2.7177e-05
2.76381e-05
2.84013e-05
2.94421e-05
3.07351e-05
3.22509e-05
3.39552e-05
3.58185e-05
3.7816e-05
3.99794e-05
4.23023e-05
4.5093e-05
4.79764e-05
5.26169e-05
5.64065e-05
3.49467e-05
3.10841e-05
2.96594e-05
3.23139e-05
4.133e-05
5.89445e-05
8.11129e-05
0.000103361
0.000132038
0.00018172
0.000234229
0.000252335
0.000195134
0.000134008
0.000141299
0.000207876
0.000298456
0.000402257
0.000516585
0.000625703
0.000706575
0.000745009
0.000736017
0.000684527
0.000600764
0.000499985
0.000401841
0.000318456
0.000251408
0.000199784
0.000161129
0.000131933
0.000108719
8.92384e-05
7.27038e-05
5.91499e-05
4.86926e-05
4.11271e-05
3.59167e-05
3.23925e-05
2.99951e-05
2.8364e-05
2.72892e-05
2.66649e-05
2.64364e-05
2.65637e-05
2.70145e-05
2.77631e-05
2.87876e-05
3.00661e-05
3.15735e-05
3.32797e-05
3.51578e-05
3.71831e-05
3.93842e-05
4.17514e-05
4.45826e-05
4.7506e-05
5.21498e-05
5.59479e-05
3.49328e-05
3.09999e-05
2.93014e-05
3.12046e-05
3.89786e-05
5.54377e-05
7.83452e-05
0.000103179
0.000132205
0.000180177
0.000235783
0.000263572
0.000214169
0.000148507
0.000153869
0.000219772
0.000309817
0.000415441
0.000532937
0.00064512
0.000727829
0.000766239
0.000754887
0.000699393
0.000610875
0.00050627
0.000405753
0.00031965
0.000250566
0.000197833
0.00015888
0.000129967
0.000107329
8.84431e-05
7.23517e-05
5.90346e-05
4.86211e-05
4.09602e-05
3.55972e-05
3.19342e-05
2.94462e-05
2.77719e-05
2.66877e-05
2.60653e-05
2.58386e-05
2.5963e-05
2.64059e-05
2.7142e-05
2.81516e-05
2.94157e-05
3.09132e-05
3.26179e-05
3.45058e-05
3.65536e-05
3.87874e-05
4.11947e-05
4.40636e-05
4.70257e-05
5.16738e-05
5.54826e-05
3.49208e-05
3.09328e-05
2.90065e-05
3.02529e-05
3.68307e-05
5.18974e-05
7.48466e-05
0.000101808
0.00013191
0.00017826
0.000235872
0.000272717
0.000232764
0.000163804
0.000166781
0.000231462
0.000320782
0.00042779
0.000547922
0.000662725
0.00074695
0.000785145
0.00077136
0.000711909
0.000619061
0.000511738
0.000408554
0.000319877
0.000248992
0.000195337
0.000156211
0.000127661
0.000105659
8.74199e-05
7.18229e-05
5.87953e-05
4.84816e-05
4.07793e-05
3.53038e-05
3.15209e-05
2.89428e-05
2.72164e-05
2.61118e-05
2.54844e-05
2.52563e-05
2.53776e-05
2.58134e-05
2.65386e-05
2.75344e-05
2.87843e-05
3.02705e-05
3.19707e-05
3.38642e-05
3.59294e-05
3.81908e-05
4.06342e-05
4.35378e-05
4.65369e-05
5.11897e-05
5.50111e-05
3.49102e-05
3.08797e-05
2.87651e-05
2.94438e-05
3.49005e-05
4.84325e-05
7.08083e-05
9.9265e-05
0.000130846
0.00017592
0.000234523
0.000279537
0.000250247
0.000179861
0.000180117
0.000243206
0.000331445
0.000439245
0.000561352
0.000678262
0.000763658
0.000801435
0.000785172
0.000721932
0.00062585
0.000515926
0.000410095
0.000319112
0.000246689
0.000192308
0.000153144
0.000125042
0.000103731
8.61855e-05
7.11277e-05
5.84349e-05
4.82689e-05
4.05731e-05
3.5024e-05
3.11439e-05
2.84822e-05
2.66994e-05
2.5566e-05
2.49267e-05
2.46933e-05
2.48098e-05
2.52386e-05
2.59535e-05
2.69363e-05
2.81721e-05
2.96458e-05
3.13391e-05
3.32344e-05
3.53123e-05
3.75965e-05
4.00714e-05
4.30066e-05
4.60408e-05
5.06984e-05
5.45342e-05
3.4901e-05
3.0838e-05
2.8569e-05
2.87618e-05
3.31913e-05
4.51288e-05
6.6422e-05
9.5649e-05
0.000128786
0.000173035
0.000231701
0.000283874
0.000265954
0.000196621
0.000194181
0.000254867
0.000341745
0.000449923
0.000573354
0.000691587
0.000777653
0.000814804
0.000796197
0.000729806
0.000630976
0.000518574
0.000410306
0.000317342
0.000243662
0.000188766
0.000149706
0.000122136
0.000101568
8.4758e-05
7.02779e-05
5.79587e-05
4.79809e-05
4.03333e-05
3.47468e-05
3.07939e-05
2.80592e-05
2.62204e-05
2.50526e-05
2.43953e-05
2.41524e-05
2.42619e-05
2.46828e-05
2.53876e-05
2.63576e-05
2.75792e-05
2.90396e-05
3.07238e-05
3.26175e-05
3.47037e-05
3.7006e-05
3.95083e-05
4.24716e-05
4.55387e-05
5.02009e-05
5.40525e-05
3.48929e-05
3.08056e-05
2.84109e-05
2.81914e-05
3.16974e-05
4.20487e-05
6.18681e-05
9.11191e-05
0.000125598
0.000169444
0.000227666
0.00028576
0.000279444
0.00021391
0.00020894
0.000266249
0.000351644
0.00045976
0.000583863
0.000702726
0.000788947
0.000825248
0.000804517
0.000735476
0.000634238
0.000519548
0.000409159
0.000314569
0.000239928
0.000184736
0.000145924
0.000118972
9.91963e-05
8.31564e-05
6.92866e-05
5.73734e-05
4.76179e-05
4.00542e-05
3.44634e-05
3.0462e-05
2.76676e-05
2.57767e-05
2.45718e-05
2.38921e-05
2.36357e-05
2.37356e-05
2.41474e-05
2.48415e-05
2.57988e-05
2.70059e-05
2.84523e-05
3.01255e-05
3.20145e-05
3.41051e-05
3.64211e-05
3.89465e-05
4.19343e-05
4.5032e-05
4.96984e-05
5.35668e-05
3.48859e-05
3.07806e-05
2.82846e-05
2.77182e-05
3.04069e-05
3.92332e-05
5.73077e-05
8.58755e-05
0.000121251
0.000164987
0.000222526
0.000285298
0.000290525
0.000231254
0.00022402
0.000277371
0.000361099
0.000468701
0.000592831
0.000711673
0.000797577
0.000832839
0.000810183
0.000738885
0.000635508
0.000518787
0.00040665
0.000310808
0.000235509
0.000180247
0.00014183
0.00011558
9.66411e-05
8.14009e-05
6.81676e-05
5.66873e-05
4.71819e-05
3.97327e-05
3.41667e-05
3.01401e-05
2.7301e-05
2.53644e-05
2.41227e-05
2.34177e-05
2.31445e-05
2.32323e-05
2.36334e-05
2.43161e-05
2.52602e-05
2.64526e-05
2.7884e-05
2.95446e-05
3.14263e-05
3.35176e-05
3.58432e-05
3.83874e-05
4.13963e-05
4.45219e-05
4.91918e-05
5.30779e-05
3.48797e-05
3.07617e-05
2.81845e-05
2.73286e-05
2.93042e-05
3.67047e-05
5.2876e-05
8.01396e-05
0.000115802
0.000159532
0.000216284
0.000282581
0.00029914
0.00024775
0.000239033
0.000288233
0.000370067
0.000476703
0.000600233
0.000718441
0.000803594
0.000837645
0.000813232
0.000739983
0.000634714
0.000516276
0.000402793
0.000306082
0.000230437
0.000175332
0.000137458
0.000111991
9.39294e-05
7.95121e-05
6.69356e-05
5.59093e-05
4.66766e-05
3.93677e-05
3.38518e-05
2.98217e-05
2.69531e-05
2.49792e-05
2.37029e-05
2.29717e-05
2.26795e-05
2.2753e-05
2.31417e-05
2.38119e-05
2.47422e-05
2.59193e-05
2.73349e-05
2.89815e-05
3.08534e-05
3.29423e-05
3.52735e-05
3.78325e-05
4.0859e-05
4.40099e-05
4.86823e-05
5.25866e-05
3.48743e-05
3.07476e-05
2.81062e-05
2.70104e-05
2.83711e-05
3.44693e-05
4.86791e-05
7.41366e-05
0.000109392
0.000153008
0.000208921
0.000277666
0.000305291
0.000262643
0.000253536
0.000298783
0.000378498
0.000483731
0.000606062
0.000723061
0.000807057
0.000839741
0.000813701
0.000738745
0.000631832
0.000512028
0.00039762
0.000300428
0.000224748
0.000170027
0.000132843
0.000108238
9.10883e-05
7.75111e-05
6.56056e-05
5.50493e-05
4.61065e-05
3.89596e-05
3.35155e-05
2.95015e-05
2.66183e-05
2.46165e-05
2.33096e-05
2.2553e-05
2.22406e-05
2.22979e-05
2.26727e-05
2.33294e-05
2.42451e-05
2.54063e-05
2.68053e-05
2.84365e-05
3.02966e-05
3.238e-05
3.47132e-05
3.72832e-05
4.03237e-05
4.34971e-05
4.8171e-05
5.20939e-05
3.48695e-05
3.07374e-05
2.80456e-05
2.67527e-05
2.75887e-05
3.2521e-05
4.47943e-05
6.80789e-05
0.000102223
0.000145415
0.000200423
0.000270556
0.000308868
0.000275543
0.000267076
0.000308909
0.000386336
0.000489755
0.000610324
0.000725579
0.000808035
0.000839199
0.000811628
0.000735167
0.000626873
0.000506081
0.000391178
0.000293892
0.000218486
0.000164375
0.000128023
0.000104353
8.81453e-05
7.54193e-05
6.4193e-05
5.41176e-05
4.54788e-05
3.85107e-05
3.31564e-05
2.91754e-05
2.62918e-05
2.42721e-05
2.29402e-05
2.216e-05
2.18272e-05
2.18673e-05
2.22269e-05
2.28688e-05
2.3769e-05
2.49136e-05
2.62953e-05
2.79098e-05
2.97562e-05
3.18314e-05
3.41633e-05
3.67406e-05
3.97918e-05
4.29849e-05
4.76591e-05
5.16007e-05
3.48654e-05
3.07302e-05
2.79996e-05
2.65458e-05
2.69386e-05
3.08448e-05
4.12706e-05
6.2154e-05
9.4535e-05
0.000136835
0.000190797
0.000261385
0.000309713
0.000286341
0.00027924
0.000318434
0.000393504
0.000494749
0.000613036
0.000726049
0.000806607
0.000836099
0.00080706
0.000729273
0.000619877
0.000498495
0.000383527
0.000286528
0.000211702
0.000158421
0.000123036
0.000100369
8.5128e-05
7.32581e-05
6.27134e-05
5.31247e-05
4.48006e-05
3.80235e-05
3.27738e-05
2.88409e-05
2.597e-05
2.39424e-05
2.25919e-05
2.1791e-05
2.14384e-05
2.14609e-05
2.18042e-05
2.24303e-05
2.33142e-05
2.44414e-05
2.58049e-05
2.74016e-05
2.92326e-05
3.12971e-05
3.36247e-05
3.62059e-05
3.92644e-05
4.24743e-05
4.71476e-05
5.11077e-05
3.48617e-05
3.07255e-05
2.79653e-05
2.63814e-05
2.64029e-05
2.94193e-05
3.81323e-05
5.65157e-05
8.65901e-05
0.000127426
0.000180094
0.000250591
0.000307798
0.000295065
0.000289721
0.000327131
0.000399907
0.000498683
0.000614222
0.000724534
0.000802854
0.000830524
0.000800056
0.000721108
0.000610907
0.000489344
0.00037474
0.000278401
0.00020445
0.00015221
0.000117924
9.63215e-05
8.20639e-05
7.10488e-05
6.11824e-05
5.20814e-05
4.40781e-05
3.75017e-05
3.23686e-05
2.84965e-05
2.565e-05
2.3624e-05
2.22619e-05
2.14439e-05
2.10731e-05
2.10779e-05
2.14044e-05
2.20138e-05
2.28805e-05
2.39895e-05
2.53341e-05
2.6912e-05
2.8726e-05
3.07777e-05
3.30982e-05
3.568e-05
3.87427e-05
4.19667e-05
4.66376e-05
5.0616e-05
3.48585e-05
3.07227e-05
2.79405e-05
2.62522e-05
2.59654e-05
2.822e-05
3.53833e-05
5.128e-05
7.86447e-05
0.000117414
0.000168417
0.000238247
0.000303091
0.000301723
0.000298354
0.000334749
0.000405418
0.00050152
0.000613906
0.000721103
0.000796864
0.000822562
0.000790683
0.00071074
0.000600047
0.000478722
0.0003649
0.00026958
0.00019679
0.000145794
0.000112726
9.22427e-05
7.89803e-05
6.88126e-05
5.96154e-05
5.09986e-05
4.33185e-05
3.69493e-05
3.19423e-05
2.81415e-05
2.53299e-05
2.33146e-05
2.19478e-05
2.11169e-05
2.073e-05
2.07178e-05
2.1027e-05
2.16191e-05
2.24678e-05
2.35579e-05
2.48828e-05