/*--------------------------------*- C++ -*----------------------------------*\
| =========                 |                                                 |
| \\      /  F ield         | OpenFOAM: The Open Source CFD Toolbox           |
|  \\    /   O peration     | Version:  2.4.0                                 |
|   \\  /    A nd           | Web:      www.OpenFOAM.org                      |
|    \\/     M anipulation  |                                                 |
\*---------------------------------------------------------------------------*/
FoamFile
{
    version     2.0;
    format      ascii;
    class       volScalarField;
    location    "4.89";
    object      k;
}
// * * * * * * * * * * * * * * * * * * * * * * * * * * * * * * * * * * * * * //

dimensions      [0 2 -2 0 0 0 0];

internalField   nonuniform List<scalar> 
6000
(
0.168224
0.0132705
0.000978854
0.00362124
0.00250563
0.00292631
0.00242208
0.00239192
0.00212613
0.00205189
0.00191934
0.00188325
0.00184952
0.00187699
0.00192817
0.00202424
0.00214925
0.0023109
0.00250302
0.00272889
0.00298613
0.00327499
0.00359247
0.00393552
0.00429901
0.00467753
0.0050646
0.00545279
0.00583334
0.00619625
0.00653013
0.00682232
0.00705913
0.00722559
0.00730606
0.00728576
0.00715154
0.00689213
0.00650271
0.00598438
0.00535528
0.00464625
0.00391252
0.00374931
0.00491366
0.00636516
0.00808228
0.0102016
0.0125516
0.0154944
0.0184386
0.0225102
0.0258495
0.0319191
0.0349962
0.0455279
0.0462443
0.0682104
0.0612758
0.11128
0.0762048
0.010151
0.000944736
0.0024051
0.00171406
0.00192222
0.00160882
0.00156964
0.00140226
0.00134661
0.00126239
0.00123554
0.00121374
0.00122894
0.00126043
0.00131911
0.0013961
0.00149501
0.00161233
0.00174939
0.00190471
0.00207804
0.00226757
0.00247148
0.00268709
0.00291172
0.00314241
0.00337596
0.00360877
0.00383696
0.00405626
0.00426215
0.0044499
0.00461417
0.00474991
0.00485252
0.00491849
0.00494554
0.00493465
0.00489016
0.00482407
0.00475396
0.00469655
0.00481232
0.00533683
0.00594386
0.0066509
0.00752174
0.00849809
0.00972725
0.0109868
0.0127195
0.0142189
0.0168256
0.0183656
0.0228538
0.023728
0.032899
0.0312471
0.0515409
0.0412217
0.00802988
0.000973497
0.00168798
0.00122338
0.00131311
0.00110754
0.00106755
0.00095828
0.000917156
0.000863651
0.00084647
0.000836086
0.000850289
0.000877599
0.000923926
0.000984522
0.00106137
0.00115278
0.00125962
0.00138129
0.00151773
0.00166808
0.0018314
0.00200637
0.00219176
0.00238629
0.00258871
0.00279778
0.00301226
0.00323105
0.00345315
0.0036778
0.00390383
0.00413038
0.00435739
0.00458563
0.00481685
0.00505461
0.00530413
0.00557293
0.00586822
0.00617636
0.00646072
0.00674495
0.00698882
0.00723177
0.00751199
0.0078263
0.00823745
0.00867936
0.00932179
0.00991712
0.0109731
0.0116902
0.0135994
0.014233
0.0181758
0.0181072
0.0267104
0.0260623
0.00677414
0.00107081
0.00126675
0.000916233
0.000934456
0.00079021
0.000751809
0.00067781
0.000647869
0.000614898
0.000606989
0.000607384
0.000626287
0.000657528
0.000704641
0.000765451
0.00084147
0.000932359
0.0010391
0.0011619
0.00130115
0.00145668
0.00162821
0.00181523
0.00201724
0.00223383
0.00246466
0.00270949
0.00296824
0.00324106
0.00352831
0.00383069
0.00414738
0.0044788
0.00482598
0.0051902
0.00557317
0.00597733
0.00640537
0.00685944
0.00733854
0.00781127
0.00819104
0.00844949
0.00860543
0.00869684
0.00874664
0.00877164
0.00879977
0.00883086
0.00892548
0.00902467
0.00930308
0.00951141
0.0101912
0.0104934
0.0121019
0.0123483
0.0160675
0.0187963
0.00609213
0.0012322
0.00103246
0.000726761
0.000696307
0.000585985
0.000549055
0.000496838
0.000475515
0.000457075
0.000457992
0.000468847
0.000495779
0.000535802
0.000591441
0.000662234
0.000749787
0.000854786
0.000978589
0.00112208
0.00128606
0.00147087
0.00167659
0.00190306
0.00215007
0.00241742
0.00270496
0.00301265
0.00334055
0.00368888
0.00405802
0.0044481
0.00485665
0.00528434
0.00573137
0.00619778
0.00668369
0.00718953
0.00771545
0.00826066
0.00882103
0.00935751
0.00979449
0.0101008
0.0102863
0.0103796
0.0103919
0.0103412
0.010237
0.0101001
0.00994558
0.00978753
0.00966808
0.00955743
0.00960238
0.00960117
0.0100729
0.0102105
0.0117966
0.015049
0.00576627
0.00144821
0.000925053
0.000617059
0.000547724
0.000454192
0.000417518
0.000378757
0.000364111
0.000356603
0.000366072
0.000387415
0.000424623
0.000476705
0.000545885
0.000632906
0.000739687
0.000867679
0.00101862
0.00119385
0.00139442
0.00162086
0.00187329
0.00215146
0.002455
0.00278349
0.0031365
0.00351364
0.00391454
0.00433892
0.00478655
0.0052553
0.00574219
0.00624736
0.00676987
0.00730852
0.00786202
0.00842953
0.00900992
0.00960158
0.0101991
0.0107616
0.0112368
0.0115978
0.0118383
0.0119789
0.0120243
0.0119904
0.0118765
0.0117074
0.0114768
0.0112225
0.0109314
0.0106556
0.0103842
0.0101687
0.0100634
0.01
0.0106217
0.0130163
0.00565588
0.00170758
0.000909908
0.000565235
0.000459136
0.000370811
0.000332657
0.00030194
0.000292474
0.000293694
0.000311606
0.000343687
0.000392826
0.000459317
0.000545411
0.000652688
0.000783391
0.000939459
0.00112286
0.00133511
0.00157727
0.00184977
0.00215248
0.00248484
0.00284608
0.00323535
0.00365178
0.00409445
0.00456244
0.00505483
0.00557071
0.0061049
0.00665579
0.00722238
0.00780279
0.00839493
0.00899657
0.00960616
0.010222
0.0108424
0.0114597
0.0120358
0.0125378
0.0129415
0.0132296
0.0134174
0.0135058
0.0135098
0.0134238
0.0132741
0.0130438
0.012779
0.0124413
0.012112
0.0117135
0.0113921
0.0110141
0.010799
0.0109736
0.0118779
0.00567208
0.00199818
0.000965463
0.000559133
0.000413186
0.000321385
0.000279696
0.000253257
0.000247745
0.000256284
0.000282616
0.000325766
0.000388054
0.000470597
0.000575765
0.000705661
0.000862734
0.00104914
0.00126688
0.00151744
0.00180174
0.00211995
0.00247163
0.00285584
0.00327139
0.00371701
0.00419139
0.00469312
0.00522075
0.00577277
0.00634687
0.00693684
0.00754154
0.00815907
0.00878684
0.00942206
0.0100618
0.0107041
0.0113469
0.0119889
0.0126174
0.0132028
0.0137231
0.0141557
0.0144778
0.0147005
0.0148226
0.0148593
0.0148024
0.0146797
0.0144697
0.0142231
0.0138892
0.013563
0.0131351
0.01279
0.0123111
0.0120309
0.0119965
0.0112303
0.0057586
0.00230736
0.00107774
0.000591002
0.000399812
0.000297171
0.000249605
0.000224571
0.000221921
0.000236785
0.000271511
0.000326009
0.000402273
0.000501886
0.000627297
0.000780862
0.000965085
0.00118213
0.00143393
0.00172187
0.00204666
0.00240828
0.00280597
0.00323845
0.00370417
0.00420148
0.00472864
0.00528382
0.00586504
0.00647033
0.00709539
0.00773453
0.00838632
0.00904813
0.00971674
0.0103888
0.0110609
0.0117307
0.0123959
0.0130545
0.0136896
0.0142816
0.0148135
0.0152633
0.0156064
0.0158512
0.015995
0.0160531
0.0160163
0.015914
0.0157221
0.0154955
0.015177
0.0148708
0.014451
0.0141228
0.013627
0.0133487
0.0132129
0.0108621
0.00588001
0.00262263
0.00123568
0.000656055
0.000413549
0.00029299
0.000236862
0.00021079
0.000209921
0.000230295
0.000273305
0.000339295
0.000429988
0.000547151
0.000693207
0.000870555
0.00108165
0.00132858
0.00161318
0.00193674
0.00229987
0.00270234
0.00314315
0.00362069
0.00413308
0.00467832
0.00525425
0.00585861
0.00648897
0.00714298
0.00781379
0.00849744
0.00919162
0.00989303
0.0105979
0.0113025
0.0120028
0.0126963
0.0133805
0.014051
0.0146902
0.015286
0.0158236
0.0162813
0.0166351
0.0168912
0.017046
0.017115
0.0170886
0.0169974
0.0168161
0.0166028
0.016297
0.01601
0.0156065
0.0153063
0.0148253
0.0145818
0.0143886
0.010657
0.00601448
0.00293255
0.00142916
0.000750912
0.000451704
0.000306005
0.00023819
0.000208756
0.000208506
0.000233594
0.000284643
0.000362089
0.00046734
0.000602116
0.000768706
0.000969419
0.00120662
0.0014823
0.00179827
0.00215575
0.00255526
0.00299642
0.00347801
0.0039981
0.00455446
0.00514473
0.00576637
0.0064167
0.00709282
0.00779151
0.00850473
0.00922932
0.00996222
0.0106996
0.0114371
0.0121707
0.0128957
0.0136098
0.01431
0.0149872
0.0156286
0.0162255
0.0167635
0.017222
0.0175782
0.0178372
0.0179944
0.0180659
0.0180416
0.0179532
0.017775
0.0175676
0.0172685
0.0169946
0.0166049
0.0163309
0.0158714
0.0156717
0.0154366
0.0105488
0.00614912
0.00322757
0.00164805
0.000873175
0.000512386
0.000335004
0.000251812
0.000216602
0.000215644
0.000244567
0.000303246
0.000391932
0.000511623
0.000663809
0.000850559
0.00107402
0.00133648
0.00163984
0.00198591
0.00237589
0.00281024
0.00328842
0.00380897
0.00436964
0.00496784
0.00560087
0.00626579
0.0069595
0.00767868
0.0084188
0.00917161
0.00993411
0.0107026
0.0114727
0.0122398
0.0129991
0.0137459
0.0144775
0.0151894
0.0158699
0.0165115
0.0171063
0.0176403
0.0180938
0.0184459
0.018701
0.0188541
0.0189213
0.0188927
0.0188006
0.0186195
0.0184114
0.0181133
0.0178463
0.0174654
0.0172121
0.0167715
0.0166133
0.0163411
0.0104986
0.00627689
0.00350055
0.00188217
0.00102004
0.000594192
0.000380011
0.000277023
0.000233363
0.00023015
0.000261876
0.0003276
0.00042715
0.000561001
0.000730263
0.000936722
0.00118233
0.00146929
0.00179945
0.00217463
0.00259602
0.00306401
0.00357788
0.00413594
0.00473559
0.00537387
0.00604775
0.00675387
0.00748876
0.00824873
0.00902739
0.00981725
0.010615
0.0114163
0.0122162
0.0130098
0.013792
0.0145575
0.0153038
0.0160221
0.0167037
0.0173429
0.0179325
0.0184585
0.0189023
0.0192453
0.0194911
0.0196349
0.0196926
0.0196549
0.0195541
0.0193654
0.0191518
0.0188501
0.0185846
0.0182079
0.0179695
0.0175432
0.0174206
0.0171129
0.0104827
0.00639445
0.00374699
0.00212163
0.0011878
0.000696251
0.000441137
0.000313921
0.000258754
0.000251458
0.000284756
0.000356757
0.000466663
0.000614295
0.000800262
0.00102601
0.00129324
0.00160412
0.00196041
0.00236395
0.00281589
0.00331654
0.00386502
0.00445934
0.00509658
0.00577339
0.00648641
0.00723188
0.00800595
0.0088045
0.00961916
0.0104437
0.011274
0.0121054
0.0129325
0.0137497
0.0145518
0.0153331
0.01609
0.0168109
0.0174911
0.0181255
0.0187069
0.0192213
0.0196514
0.019981
0.0202133
0.0203437
0.020388
0.0203373
0.0202242
0.0200244
0.0198015
0.019493
0.019225
0.0188489
0.0186206
0.0182041
0.0181108
0.0177685
0.010487
0.00650069
0.00396481
0.00235741
0.00137162
0.000817611
0.000518292
0.000363266
0.000293022
0.000279482
0.000312879
0.000390205
0.000509836
0.000670815
0.000873125
0.00111781
0.00140628
0.00174064
0.00212255
0.00255384
0.00303564
0.00356813
0.00415024
0.00477972
0.00545328
0.00616716
0.00691771
0.00770078
0.00851211
0.00934676
0.0101954
0.0110522
0.0119127
0.0127715
0.0136229
0.0144609
0.0152801
0.0160743
0.0168364
0.0175574
0.0182338
0.0188606
0.0194308
0.0199303
0.0203435
0.0206562
0.0208716
0.0209853
0.021013
0.0209465
0.0208182
0.0206048
0.0203701
0.0200524
0.019779
0.0194008
0.019179
0.0187687
0.0186992
0.0183236
0.0105025
0.00659578
0.00415398
0.00258188
0.00156571
0.000956611
0.000611426
0.000425903
0.000336868
0.000314537
0.000346277
0.000427769
0.00055637
0.000730217
0.000948525
0.00121186
0.00152127
0.00187881
0.00228594
0.0027445
0.00325554
0.00381912
0.00443397
0.00509755
0.00580619
0.00655574
0.00734224
0.00816118
0.00900792
0.00987627
0.0107567
0.0116435
0.0125316
0.0134153
0.0142883
0.0151442
0.0159775
0.0167802
0.017544
0.0182625
0.0189325
0.019549
0.020105
0.0205867
0.0209801
0.0212729
0.0214686
0.0215629
0.0215716
0.021487
0.0213415
0.0211129
0.0208644
0.0205359
0.0202552
0.0198732
0.0196549
0.0192484
0.0191979
0.0187909
0.0105238
0.00668051
0.004316
0.00278919
0.00176362
0.00111062
0.000720477
0.000502222
0.0003914
0.000357285
0.000385284
0.000469544
0.000606215
0.000792392
0.00102636
0.00130812
0.00163826
0.00201872
0.00245076
0.00293616
0.00347589
0.00406985
0.00471655
0.00541318
0.00615568
0.00693948
0.00776037
0.00861344
0.00949375
0.0103934
0.0113034
0.0122178
0.0131311
0.0140369
0.0149287
0.0157996
0.0166437
0.0174502
0.0182129
0.0189263
0.0195872
0.0201906
0.0207296
0.0211909
0.0215619
0.0218323
0.0220057
0.0220786
0.0220663
0.0219621
0.021798
0.0215528
0.0212894
0.0209492
0.0206598
0.0202729
0.0200562
0.0196519
0.0196165
0.0191804
0.0105474
0.00675592
0.00445335
0.00297546
0.00195885
0.00127595
0.000844746
0.000592522
0.000457734
0.000408708
0.000430506
0.000515858
0.000659514
0.0008574
0.00110668
0.00140667
0.00175734
0.00216055
0.00261722
0.00312907
0.00369695
0.00432057
0.00499825
0.00572687
0.00650198
0.0073186
0.00817226
0.00905768
0.00996965
0.0108981
0.0118355
0.0127751
0.0137109
0.0146361
0.0155439
0.016427
0.0172768
0.0180838
0.0188429
0.0195485
0.0201974
0.020785
0.0213044
0.0217426
0.0220889
0.0223348
0.022484
0.0225336
0.0224988
0.0223738
0.02219
0.0219276
0.0216487
0.0212963
0.0209975
0.0206052
0.0203887
0.0199856
0.0199622
0.0194998
0.0105712
0.0068231
0.00456904
0.00313872
0.00214532
0.00144798
0.000982672
0.000696999
0.000536544
0.000470085
0.000482815
0.000567255
0.000716575
0.000925424
0.00118961
0.00150764
0.00187869
0.0023045
0.00278555
0.00332346
0.00391894
0.00457151
0.00527925
0.00603877
0.00684521
0.00769314
0.00857791
0.00949387
0.0104351
0.0113902
0.0123528
0.013315
0.0142706
0.0152126
0.0161334
0.0170241
0.0178759
0.0186808
0.0194333
0.0201283
0.0207626
0.0213316
0.0218287
0.0222416
0.0225611
0.0227804
0.0229037
0.0229286
0.0228702
0.0227235
0.0225195
0.0222395
0.0219449
0.0215802
0.0212716
0.020874
0.0206567
0.0202547
0.0202405
0.0197551
0.0105941
0.00688304
0.00466626
0.00327865
0.00231792
0.00162143
0.0011317
0.000815267
0.000628386
0.000542621
0.000543341
0.00062449
0.00077786
0.000996752
0.00127536
0.00161122
0.00200248
0.00245076
0.00295592
0.00351952
0.00414204
0.00482281
0.00555966
0.00634893
0.00718537
0.00806305
0.00897721
0.00992182
0.0108899
0.0118695
0.0128547
0.0138371
0.0148098
0.0157655
0.0166953
0.0175895
0.0184404
0.0192402
0.0199833
0.0206648
0.0212816
0.0218294
0.0223017
0.022687
0.0229778
0.0231688
0.0232647
0.0232637
0.0231809
0.023012
0.0227875
0.02249
0.0221796
0.0218031
0.0214848
0.0210821
0.0208636
0.0204629
0.0204558
0.0199511
0.0106153
0.00693661
0.00474808
0.00339625
0.00247283
0.00179079
0.00128826
0.000946148
0.000733503
0.000627226
0.000613462
0.000688532
0.000843988
0.00107177
0.00136417
0.00171761
0.00212889
0.00259948
0.00312852
0.00371739
0.00436637
0.00507455
0.00583952
0.00665734
0.00752239
0.0084282
0.00936995
0.0103413
0.0113336
0.0123354
0.0133408
0.0143405
0.0153275
0.0162931
0.0172276
0.0181223
0.0189693
0.019761
0.0204918
0.0211569
0.0217535
0.0222773
0.0227223
0.023078
0.0233383
0.0234995
0.0235666
0.0235388
0.0234309
0.0232396
0.0229946
0.0226799
0.0223542
0.0219665
0.021639
0.021232
0.021012
0.0206131
0.0206117
0.0200915
0.0106345
0.00698454
0.00481728
0.00349349
0.00260772
0.0019508
0.00144795
0.00108753
0.000851544
0.000724457
0.000694649
0.000760564
0.000915748
0.00115096
0.00145634
0.00182701
0.00225807
0.00275084
0.00330345
0.00391717
0.004592
0.00532677
0.00611881
0.00696392
0.00785611
0.00878833
0.0097558
0.0107518
0.0117657
0.0127872
0.0138103
0.0148245
0.0158219
0.0167932
0.0177293
0.0186214
0.0194615
0.020242
0.0209575
0.0216034
0.0221768
0.0226741
0.0230894
0.0234134
0.0236416
0.0237715
0.0238089
0.0237534
0.0236201
0.0234063
0.0231412
0.0228098
0.0224696
0.0220715
0.0217355
0.0213252
0.0211039
0.0207079
0.0207109
0.0201794
0.0106516
0.00702745
0.00487631
0.00357289
0.00272168
0.00209694
0.0016058
0.00123632
0.000981373
0.000834413
0.000787779
0.000842353
0.000994102
0.00123492
0.00155223
0.00193966
0.00239018
0.00290492
0.00348081
0.00411892
0.00481894
0.00557942
0.00639742
0.0072685
0.0081863
0.00914314
0.0101344
0.0111525
0.0121857
0.0132243
0.0142623
0.0152869
0.0162909
0.0172648
0.0181993
0.0190856
0.0199156
0.0206819
0.0213791
0.0220027
0.0225502
0.0230183
0.0234017
0.0236922
0.0238867
0.0239841
0.0239907
0.0239071
0.0237482
0.0235121
0.0232273
0.0228801
0.0225263
0.0221191
0.0217756
0.0213631
0.0211409
0.0207491
0.0207558
0.0202175
0.0106666
0.00706587
0.00492718
0.0036372
0.00281515
0.00222572
0.0017567
0.00138852
0.00112094
0.000956553
0.000893217
0.000935199
0.00108081
0.00132434
0.00165222
0.00205577
0.00252531
0.00306181
0.0036606
0.00432262
0.00504713
0.0058324
0.00667519
0.00757083
0.00851263
0.00949221
0.0105051
0.0115428
0.0125929
0.0136459
0.0146941
0.015726
0.0167333
0.0177065
0.0186363
0.0195136
0.0203304
0.0210793
0.021755
0.0223534
0.0228722
0.0233085
0.0236578
0.0239129
0.0240723
0.024136
0.0241112
0.023999
0.0238145
0.0235565
0.0232529
0.0228909
0.0225248
0.0221098
0.02176
0.0213469
0.0211244
0.0207383
0.0207484
0.0202077
0.0106796
0.00710023
0.00497153
0.00368918
0.00288955
0.00233498
0.00189584
0.00153947
0.0012672
0.00108952
0.00101078
0.00103957
0.00117743
0.00142095
0.00175676
0.00217554
0.00266353
0.00322146
0.00384276
0.00452814
0.0052764
0.00608548
0.00695183
0.00787055
0.00883467
0.00983501
0.0108675
0.0119219
0.0129853
0.014049
0.0151045
0.0161404
0.0171479
0.0181173
0.019039
0.019904
0.0207042
0.0214325
0.0220836
0.0226538
0.0231412
0.0235432
0.0238563
0.0240743
0.0241972
0.0242263
0.0241693
0.0240284
0.0238185
0.0235393
0.0232177
0.0228422
0.0224651
0.022044
0.0216894
0.0212773
0.0210556
0.0206769
0.0206904
0.020152
0.0106909
0.00713093
0.00501066
0.00373139
0.00294705
0.00242389
0.00201917
0.00168413
0.00141623
0.00123103
0.00113955
0.00115546
0.0012844
0.00152606
0.00186786
0.00229912
0.00280482
0.00338378
0.0040271
0.00473525
0.00550648
0.00633834
0.00722695
0.00816718
0.00915187
0.0101709
0.0112201
0.0122873
0.0133613
0.0144326
0.0154922
0.0165289
0.0175333
0.0184954
0.0194058
0.0202551
0.0210355
0.0217399
0.0223633
0.0229024
0.0233555
0.0237209
0.0239956
0.024175
0.0242601
0.0242537
0.0241641
0.0239944
0.0237596
0.0234598
0.0231215
0.0227339
0.0223476
0.0219222
0.0215644
0.0211553
0.0209354
0.0205661
0.0205835
0.020052
0.0107005
0.00715831
0.00504554
0.00376608
0.00299025
0.00249289
0.00212369
0.00181758
0.00156333
0.0013778
0.00127774
0.00128222
0.00140174
0.00163986
0.00198583
0.00242808
0.00295029
0.0035485
0.00421327
0.00494356
0.00573692
0.00659047
0.00749998
0.00845986
0.00946233
0.0104977
0.0115605
0.0126379
0.0137195
0.0147953
0.0158559
0.0168901
0.017888
0.0188395
0.019735
0.0205653
0.0213224
0.0219997
0.0225923
0.0230973
0.0235135
0.0238398
0.0240742
0.0242134
0.0242598
0.0242171
0.0240946
0.0238962
0.023637
0.0233177
0.022964
0.022566
0.0221722
0.0217446
0.0213856
0.0209814
0.0207649
0.0204071
0.020429
0.0199091
0.0107087
0.00718269
0.00507692
0.00379513
0.00302185
0.00254347
0.00220774
0.00193543
0.00170344
0.00152566
0.00142258
0.00141836
0.00152884
0.0017622
0.0021105
0.00256207
0.00309945
0.0037159
0.00440116
0.00515253
0.00596681
0.0068406
0.00776927
0.00874682
0.0097649
0.0108141
0.0118875
0.0129724
0.0140585
0.0151357
0.0161941
0.0172223
0.0182102
0.0191477
0.0200248
0.0208326
0.0215631
0.02221
0.0227687
0.0232366
0.0236133
0.0238983
0.0240905
0.0241881
0.0241947
0.0241153
0.0239598
0.023733
0.0234501
0.0231125
0.0227449
0.0223385
0.0219393
0.0215116
0.0211534
0.0207565
0.0205448
0.0202008
0.0202282
0.0197248
0.0107156
0.00720435
0.00510535
0.00382007
0.00304448
0.00257785
0.00227098
0.00203423
0.00183148
0.00166973
0.00157032
0.00156146
0.00166437
0.00189236
0.00224136
0.00270046
0.00325148
0.00388501
0.00458964
0.00536099
0.00619491
0.00708742
0.0080335
0.00902668
0.0100581
0.0111187
0.0121997
0.0132891
0.0143767
0.015452
0.0165048
0.0175237
0.0184981
0.0194179
0.0202732
0.021055
0.0217556
0.0223688
0.0228905
0.0233186
0.0236532
0.0238946
0.024043
0.0240978
0.0240638
0.0239472
0.0237587
0.0235041
0.0231984
0.0228439
0.0224641
0.0220512
0.0216488
0.0212235
0.0208684
0.0204811
0.0202761
0.0199483
0.0199826
0.0195002
0.0107215
0.00722357
0.00513122
0.00384205
0.00306055
0.00259875
0.0023143
0.00211179
0.00194286
0.00180472
0.00171634
0.00170808
0.00180607
0.00202892
0.00237735
0.00284222
0.00340522
0.00405449
0.00477728
0.0055674
0.00641962
0.00732933
0.00829101
0.00929778
0.0103403
0.0114096
0.0124952
0.0135861
0.0146721
0.0157423
0.0167861
0.0177921
0.0187496
0.0196482
0.0204781
0.0212304
0.0218977
0.0224739
0.0229556
0.0233412
0.0236313
0.0238272
0.0239301
0.0239409
0.0238656
0.0237117
0.0234904
0.0232086
0.0228813
0.0225114
0.0221214
0.0217042
0.0213011
0.0208807
0.0205311
0.020156
0.0199597
0.0196507
0.0196932
0.0192366
0.0107263
0.00724059
0.00515486
0.00386193
0.0030721
0.00260902
0.00233964
0.00216731
0.00203389
0.00192543
0.00185537
0.00185386
0.00195068
0.00216962
0.00251676
0.00298578
0.00355901
0.00422255
0.00496218
0.00576979
0.00663896
0.00756429
0.00853977
0.00955805
0.0106094
0.0116845
0.0127719
0.0138614
0.0149425
0.0160042
0.0170356
0.0180252
0.0189622
0.019836
0.020637
0.0213564
0.021987
0.0225232
0.022962
0.0233024
0.0235457
0.0236941
0.0237501
0.0237161
0.0235992
0.0234078
0.0231543
0.0228462
0.0224987
0.0221151
0.0217169
0.0212979
0.0208965
0.0204838
0.0201423
0.019782
0.0195965
0.0193089
0.0193615
0.0189352
0.0107304
0.00725567
0.00517648
0.00388031
0.00308079
0.00261147
0.00234965
0.00220135
0.00210214
0.00202716
0.00198191
0.00199363
0.00209402
0.00231126
0.00265709
0.00312893
0.00371066
0.0043869
0.00514193
0.00596569
0.00685042
0.0077898
0.00877726
0.00980498
0.0108628
0.0119407
0.0130272
0.0141124
0.0151854
0.0162353
0.0172508
0.0182204
0.0191333
0.0199789
0.0207474
0.0214305
0.0220212
0.0225143
0.0229073
0.0232
0.0233944
0.0234937
0.0235017
0.0234221
0.0232632
0.0230348
0.0227497
0.0224165
0.0220501
0.0216549
0.0212507
0.0208325
0.0204355
0.0200333
0.0197027
0.01936
0.0191876
0.0189242
0.0189888
0.0185973
0.0107337
0.00726901
0.00519628
0.00389758
0.00308791
0.00260864
0.00234738
0.00221569
0.00214665
0.00210621
0.00209064
0.00212177
0.00223101
0.0024497
0.00279498
0.00326874
0.00385732
0.00454462
0.00531354
0.00615206
0.00705092
0.00800278
0.00900044
0.0100356
0.0110976
0.0121755
0.0132583
0.014336
0.0153978
0.0164324
0.0174286
0.0183748
0.01926
0.0200738
0.0208065
0.02145
0.0219976
0.0224447
0.0227893
0.023032
0.0231756
0.0232244
0.0231833
0.0230577
0.0228569
0.0225919
0.0222761
0.0219191
0.0215359
0.021131
0.0207234
0.0203086
0.0199189
0.0195301
0.0192132
0.0188911
0.0187341
0.0184977
0.0185763
0.0182239
0.0107365
0.00728081
0.00521441
0.003914
0.00309439
0.00260271
0.00233599
0.00221305
0.00216796
0.00216022
0.00217695
0.00223263
0.00235604
0.00257997
0.00292622
0.0034015
0.00399547
0.00469215
0.00547338
0.00632521
0.00723676
0.00819957
0.00920568
0.0102462
0.01131
0.0123852
0.0134616
0.0145289
0.0155763
0.0165924
0.0175659
0.0184852
0.0193393
0.0201178
0.0208113
0.0214119
0.0219134
0.0223118
0.0226056
0.0227962
0.0228874
0.0228844
0.0227937
0.0226218
0.0223795
0.0220786
0.0217335
0.0213543
0.0209561
0.020544
0.0201356
0.019727
0.0193476
0.0189753
0.018675
0.0183763
0.0182374
0.0180308
0.0181256
0.0178166
0.0107388
0.00729126
0.00523101
0.00392969
0.00310085
0.00259544
0.0023185
0.00219674
0.00216798
0.00218843
0.00223738
0.002321
0.00246329
0.00269649
0.00304584
0.00352274
0.00412087
0.00482526
0.00561713
0.00648075
0.00740356
0.00837579
0.00938866
0.0104326
0.0114958
0.0125659
0.0136332
0.0146872
0.0157171
0.0167114
0.0176589
0.0185479
0.0193675
0.0201074
0.0207586
0.0213133
0.0217659
0.022113
0.0223538
0.0224905
0.0225279
0.0224724
0.0223316
0.0221136
0.0218305
0.0214949
0.0211218
0.0207225
0.0203115
0.0198947
0.0194882
0.0190888
0.0187227
0.01837
0.0180894
0.0178171
0.0176988
0.0175248
0.0176381
0.0173765
0.0107407
0.00730053
0.0052462
0.00394473
0.00310767
0.00258815
0.00229757
0.00217028
0.00214967
0.00219171
0.00227004
0.00238267
0.00254726
0.00279346
0.00314832
0.00362737
0.00422866
0.00493909
0.00573985
0.00661365
0.00754623
0.00852641
0.00954441
0.0105899
0.0116502
0.012713
0.0137685
0.0148065
0.0158158
0.0167853
0.0177035
0.018559
0.0193409
0.0200391
0.0206449
0.0211509
0.0215521
0.0218456
0.0220315
0.0221129
0.0220954
0.0219868
0.021796
0.0215326
0.0212096
0.0208407
0.0204417
0.0200243
0.0196031
0.0191843
0.0187826
0.0183955
0.0180458
0.0177159
0.0174579
0.0172151
0.0171201
0.0169815
0.0171157
0.0169052
0.0107422
0.00730876
0.00526011
0.00395914
0.00311504
0.00258177
0.00227543
0.00213716
0.00211674
0.0021724
0.00227477
0.00241486
0.00260326
0.00286529
0.00322794
0.00370989
0.00431349
0.00502828
0.00583602
0.00671826
0.00765906
0.00864568
0.00966725
0.0107126
0.0117679
0.0128212
0.0138626
0.0148818
0.0158678
0.0168095
0.0176954
0.0185143
0.0192554
0.019909
0.0204666
0.0209214
0.0212689
0.0215069
0.0216364
0.0216613
0.0215885
0.0214268
0.0211864
0.0208785
0.020517
0.0201168
0.0196939
0.019261
0.0188323
0.0184144
0.0180207
0.0176489
0.0173189
0.0170149
0.0167826
0.0165721
0.016503
0.0164025
0.01656
0.0164042
0.0107434
0.0073161
0.00527285
0.00397292
0.00312299
0.00257688
0.00225382
0.00210053
0.00207318
0.002134
0.00225316
0.00241658
0.00262799
0.00290715
0.00327925
0.00376472
0.00436982
0.00508717
0.00589977
0.00678847
0.00773576
0.00872728
0.00975089
0.0107945
0.0118428
0.0128846
0.0139097
0.0149077
0.0158678
0.0167789
0.0176297
0.0184092
0.0191068
0.0197132
0.0202201
0.0206215
0.0209132
0.0210942
0.0211662
0.0211341
0.0210058
0.0207914
0.0205024
0.0201514
0.0197534
0.0193241
0.01888
0.0184344
0.0180013
0.0175873
0.0172047
0.0168515
0.0165442
0.0162692
0.0160655
0.0158903
0.0158497
0.0157899
0.0159731
0.0158752
0.0107444
0.00732265
0.00528453
0.00398607
0.0031315
0.00257379
0.00223398
0.00206305
0.00202297
0.00208078
0.00220836
0.00238875
0.0026199
0.00291553
0.00329755
0.00378667
0.00439222
0.00511008
0.00592509
0.00681792
0.0077697
0.00876441
0.0097885
0.0108287
0.0118685
0.0128969
0.0139036
0.0148783
0.0158101
0.0166882
0.0175014
0.0182389
0.0188906
0.0194473
0.0199015
0.0202476
0.0204823
0.0206051
0.020619
0.0205297
0.0203463
0.0200802
0.0197442
0.0193521
0.01892
0.0184643
0.0180021
0.0175469
0.0171126
0.0167059
0.0163375
0.016006
0.0157246
0.0154816
0.0153095
0.0151722
0.0151626
0.0151461
0.0153572
0.0153202
0.0107452
0.00732853
0.00529524
0.00399858
0.00314046
0.00257259
0.00221673
0.00202685
0.00196971
0.00201732
0.00214468
0.00233413
0.00257945
0.00288869
0.0032795
0.00377144
0.00437587
0.00509176
0.00590623
0.00680034
0.00775417
0.00875006
0.00977292
0.0108081
0.011838
0.0128514
0.0138379
0.0147872
0.0156888
0.0165316
0.017305
0.0179984
0.0186021
0.0191073
0.0195071
0.0197965
0.0199731
0.0200373
0.019993
0.0198471
0.0196097
0.0192935
0.0189126
0.018482
0.0180187
0.01754
0.017063
0.0166018
0.0161697
0.0157737
0.0154229
0.0151162
0.0148636
0.0146554
0.0145176
0.0144207
0.0144446
0.0144734
0.0147148
0.0147411
0.0107458
0.00733382
0.00530509
0.00401046
0.00314976
0.00257319
0.0022025
0.00199344
0.00191647
0.00194811
0.00206714
0.00225701
0.00250918
0.00282698
0.00322354
0.00371616
0.00431706
0.00502784
0.00583814
0.00672997
0.00768277
0.00867734
0.00969695
0.0107254
0.0117439
0.0127408
0.0137057
0.0146281
0.0154975
0.0163033
0.0170351
0.0176827
0.0182367
0.018689
0.0190332
0.0192652
0.0193833
0.019389
0.0192871
0.0190857
0.0187961
0.0184322
0.0180092
0.0175434
0.0170526
0.0165545
0.0160667
0.0156033
0.0151771
0.0147952
0.0144652
0.0141863
0.0139654
0.0137945
0.0136935
0.0136393
0.0136987
0.0137748
0.0140485
0.0141403
0.0107463
0.0073386
0.00531416
0.00402172
0.00315925
0.00257544
0.00219143
0.00196382
0.00186566
0.00187716
0.00198098
0.00216276
0.00241342
0.00273295
0.00313032
0.00361989
0.00421372
0.00491535
0.00571699
0.00660208
0.0075499
0.00853993
0.00955375
0.0105737
0.0115792
0.0125582
0.0135
0.0143941
0.01523
0.0159975
0.0166863
0.0172867
0.0177899
0.0181885
0.0184766
0.0186509
0.0187108
0.0186587
0.0185006
0.0182457
0.0179065
0.0174979
0.0170365
0.0165395
0.0160254
0.0155125
0.0150182
0.0145567
0.0141403
0.013776
0.01347
0.0132216
0.0130349
0.0129036
0.0128415
0.0128318
0.0129286
0.0130536
0.0133614
0.0135203
0.0107467
0.00734296
0.00532254
0.00403237
0.00316883
0.00257911
0.00218344
0.00193854
0.00181901
0.00180785
0.00189114
0.00205726
0.00229788
0.00261117
0.00300277
0.00348399
0.00406589
0.00475328
0.00554075
0.00641356
0.00735136
0.00833264
0.00933736
0.0103463
0.0113371
0.0122968
0.0132143
0.0140789
0.0148803
0.0156084
0.0162533
0.0168058
0.0172578
0.0176022
0.0178343
0.0179515
0.0179543
0.0178461
0.017634
0.0173284
0.016943
0.0164938
0.0159984
0.015475
0.0149426
0.0144197
0.0139237
0.0134686
0.0130661
0.0127229
0.0124438
0.0122285
0.0120781
0.0119881
0.0119666
0.0120027
0.0121385
0.0123134
0.0126569
0.0128839
0.010747
0.00734694
0.0053303
0.00404244
0.00317839
0.00258397
0.00217831
0.00191774
0.00177761
0.00174275
0.00180198
0.00194634
0.00216907
0.00246784
0.00284601
0.00331221
0.00387608
0.00454302
0.00530971
0.0061635
0.00708496
0.00805206
0.0090433
0.0100381
0.0110118
0.0119506
0.0128426
0.0136768
0.0144429
0.0151309
0.0157316
0.016236
0.0166367
0.0169275
0.0171044
0.0171659
0.0171134
0.0169515
0.0166886
0.0163361
0.015909
0.0154241
0.0149001
0.0143559
0.0138109
0.0132837
0.0127912
0.0123473
0.0119626
0.0116439
0.0113944
0.0112142
0.0111018
0.0110543
0.0110746
0.0111572
0.011333
0.0115584
0.0119388
0.0122342
0.0107473
0.0073506
0.00533752
0.00405197
0.00318784
0.00258977
0.00217572
0.00190131
0.00174201
0.00168364
0.00171696
0.00183528
0.00203366
0.00231016
0.00266698
0.00311065
0.00364935
0.00428864
0.00502692
0.00585377
0.00675121
0.00769725
0.00866932
0.00964571
0.0105993
0.0115151
0.0123801
0.0131829
0.0139131
0.014561
0.0151174
0.0155741
0.0159243
0.0161626
0.016286
0.0162939
0.016189
0.015977
0.0156674
0.015273
0.0148095
0.014295
0.0137488
0.0131904
0.0126393
0.0121138
0.0116305
0.0112026
0.0108399
0.0105488
0.0103313
0.0101876
0.0101142
0.0101097
0.010172
0.0103012
0.0105175
0.0107933
0.0112112
0.0115747
0.0107475
0.007354
0.00534426
0.00406097
0.00319712
0.00259628
0.00217532
0.00188896
0.00171231
0.00163157
0.00163864
0.00172849
0.00189784
0.00214564
0.0024737
0.00288723
0.00339318
0.00399696
0.00469843
0.0054894
0.00635383
0.00727046
0.00821613
0.00916835
0.0100977
0.0109876
0.0118238
0.0125943
0.0132882
0.0138958
0.0144085
0.0148184
0.0151195
0.0153073
0.0153797
0.0153373
0.0151837
0.0149262
0.0145753
0.0141449
0.0136518
0.0131148
0.0125538
0.0119886
0.0114386
0.0109216
0.0104534
0.0100465
0.00970975
0.00944894
0.00926516
0.00915879
0.00912462
0.00916254
0.00926667
0.00944156
0.00969799
0.0100232
0.0104788
0.0109092
0.0107476
0.00735716
0.00535058
0.00406951
0.00320617
0.0026033
0.00217674
0.00188025
0.0016883
0.00158697
0.00156864
0.0016293
0.00176692
0.00198136
0.00227459
0.0026511
0.00311691
0.00367728
0.00433323
0.00507879
0.00590023
0.0067777
0.00768817
0.00860876