/*--------------------------------*- C++ -*----------------------------------*\
| =========                 |                                                 |
| \\      /  F ield         | OpenFOAM: The Open Source CFD Toolbox           |
|  \\    /   O peration     | Version:  2.4.0                                 |
|   \\  /    A nd           | Web:      www.OpenFOAM.org                      |
|    \\/     M anipulation  |                                                 |
\*---------------------------------------------------------------------------*/
FoamFile
{
    version     2.0;
    format      ascii;
    class       volVectorField;
    location    "0.5";
    object      U;
}
// * * * * * * * * * * * * * * * * * * * * * * * * * * * * * * * * * * * * * //

dimensions      [0 1 -1 0 0 0 0];

internalField   nonuniform List<vector> 
400
(
(-5.32898e-07 -3.07228e-07 1.85581e-24)
(1.27362e-05 -1.22047e-06 -1.14197e-22)
(4.36898e-05 4.62002e-06 6.01344e-23)
(8.19892e-05 1.78062e-05 3.9075e-23)
(0.000125376 3.99594e-05 1.06122e-21)
(0.000165937 7.01909e-05 -2.18319e-21)
(0.000187581 0.000101494 -5.58628e-21)
(0.000159878 0.000112395 -2.51137e-22)
(3.19277e-05 5.31953e-05 -1.51894e-21)
(-0.000273337 -0.000176093 2.15026e-21)
(-0.000862159 -0.000758315 3.0114e-20)
(-0.00186687 -0.00200483 0)
(-0.00343291 -0.00441692 0)
(-0.00569227 -0.00876738 1.05848e-21)
(-0.00872202 -0.0162158 -1.05848e-21)
(-0.0124766 -0.0284603 0)
(-0.0167856 -0.048217 0)
(-0.0205542 -0.0782883 0)
(-0.0232518 -0.139139 0)
(0.0451863 -0.0886468 0)
(3.13232e-06 -3.43033e-06 -1.12557e-23)
(4.19045e-05 -1.06556e-05 1.16927e-22)
(0.000122149 1.13521e-06 -7.23119e-23)
(0.000220025 3.27936e-05 -7.03689e-23)
(0.000325359 8.76217e-05 7.03688e-23)
(0.000411309 0.000162223 3.07672e-21)
(0.00042544 0.000236104 -6.1935e-21)
(0.000272282 0.00024894 -1.20273e-20)
(-0.000204491 6.29948e-05 1.6043e-20)
(-0.00123856 -0.000596016 -8.80996e-22)
(-0.00314925 -0.00222506 1.43897e-20)
(-0.00633167 -0.00566076 -4.16517e-21)
(-0.0112159 -0.0122271 0)
(-0.0181805 -0.0239066 -2.16736e-20)
(-0.0274031 -0.0435161 -2.39027e-20)
(-0.0385883 -0.074759 -2.84384e-19)
(-0.0506392 -0.122258 4.13323e-19)
(-0.0587831 -0.186283 -6.73034e-20)
(-0.0533996 -0.278559 -1.62007e-19)
(0.0814325 -0.161587 -6.34916e-19)
(8.72072e-06 -1.24073e-05 8.85094e-24)
(7.05229e-05 -3.34987e-05 -4.16698e-23)
(0.000189367 -2.38694e-05 -2.49153e-24)
(0.000331265 1.75618e-05 0)
(0.000476139 9.58083e-05 0)
(0.000575301 0.000207836 6.696e-22)
(0.000535223 0.000326609 6.35276e-21)
(0.000188518 0.000367247 -1.71391e-21)
(-0.000736563 0.000130495 1.71391e-21)
(-0.002645 -0.000785642 0)
(-0.00609048 -0.00311374 2.93817e-20)
(-0.0117599 -0.00808604 0)
(-0.020402 -0.0176347 -3.00319e-21)
(-0.0326654 -0.0345869 6.53578e-20)
(-0.0487854 -0.0627593 -2.95089e-20)
(-0.0679449 -0.106605 1.97663e-21)
(-0.0870824 -0.170087 -3.53714e-19)
(-0.0949326 -0.246867 -1.2991e-19)
(-0.0607613 -0.328986 1.29907e-19)
(0.167773 -0.177546 8.06604e-19)
(1.43571e-05 -2.7189e-05 0)
(9.48962e-05 -6.73396e-05 2.85541e-26)
(0.000241773 -6.59649e-05 5.15728e-23)
(0.000412574 -2.13649e-05 0)
(0.000576577 7.41239e-05 -1.79639e-21)
(0.0006622 0.000221663 -6.44459e-22)
(0.000533219 0.000396101 6.44458e-22)
(-5.15644e-05 0.000504592 0)
(-0.0014818 0.000316603 0)
(-0.00433717 -0.000645547 -2.02617e-20)
(-0.00941015 -0.00326402 -1.64958e-20)
(-0.0176828 -0.00902806 0)
(-0.0302158 -0.0202569 6.53375e-21)
(-0.0478813 -0.0402668 2.17122e-20)
(-0.0708091 -0.0732924 -4.49876e-20)
(-0.0971922 -0.123587 3.82398e-19)
(-0.120817 -0.193049 6.5961e-20)
(-0.122131 -0.268597 -6.59611e-20)
(-0.0479388 -0.32631 0)
(0.268819 -0.164395 4.79642e-19)
(1.8981e-05 -4.68127e-05 -6.63676e-25)
(0.000112732 -0.000109355 -3.35147e-23)
(0.000276999 -0.000120362 -5.24101e-23)
(0.000462361 -7.72296e-05 2.31417e-22)
(0.000627688 3.19189e-05 1.91405e-21)
(0.000679283 0.00021681 -3.33499e-21)
(0.000439787 0.000463403 -5.7409e-21)
(-0.000402725 0.000688724 -8.86567e-21)
(-0.00235058 0.000663028 1.86997e-21)
(-0.00615014 -0.000112467 9.96591e-22)
(-0.0128202 -0.00258078 5.84863e-21)
(-0.0236169 -0.00834914 -1.73014e-21)
(-0.0398692 -0.0199123 0)
(-0.0625739 -0.0407625 4.14355e-21)
(-0.0915248 -0.0751089 0)
(-0.123432 -0.126467 0)
(-0.148049 -0.194349 5.91529e-20)
(-0.137225 -0.26088 3.9621e-19)
(-0.020978 -0.293152 1.00422e-19)
(0.362951 -0.138193 -3.08083e-19)
(2.20203e-05 -6.99292e-05 0)
(0.00012277 -0.000156931 -1.27493e-23)
(0.000293929 -0.000183038 -1.12455e-23)
(0.000480785 -0.000144569 -3.82629e-22)
(0.000632928 -2.35731e-05 -6.49824e-22)
(0.000637051 0.000202886 3.4129e-21)
(0.000279105 0.00054154 6.74887e-21)
(-0.000815982 0.000937732 8.19896e-21)
(-0.00325135 0.00119545 0)
(-0.00792247 0.000850135 1.56272e-20)
(-0.0160491 -0.00101393 3.16344e-21)
(-0.0291225 -0.00598867 0)
(-0.0486767 -0.0165541 -1.52563e-20)
(-0.0757167 -0.0361278 -6.32253e-20)
(-0.109486 -0.0686173 0)
(-0.144865 -0.116664 -2.77873e-20)
(-0.167255 -0.177884 -2.20333e-20)
(-0.140799 -0.232331 -9.6431e-19)
(0.0142681 -0.24465 -6.59424e-20)
(0.444585 -0.108478 -1.22421e-19)
(2.3214e-05 -9.48962e-05 2.84093e-24)
(0.000124475 -0.000207205 3.90221e-23)
(0.000292408 -0.00025 -7.28341e-23)
(0.00046929 -0.000218382 1.01761e-23)
(0.000597423 -8.64801e-05 7.34498e-22)
(0.000548043 0.000186334 2.4329e-21)
(7.76031e-05 0.000636959 0)
(-0.00124021 0.00125692 0)
(-0.00409133 0.00191615 0)
(-0.00949409 0.00223773 1.12566e-20)
(-0.0188326 0.00141691 1.28398e-20)
(-0.0337834 -0.00200118 0)
(-0.0560136 -0.0103207 1.56188e-20)
(-0.0864336 -0.0267052 -4.87746e-20)
(-0.123596 -0.0546435 0)
(-0.160443 -0.0960838 -1.09573e-19)
(-0.17826 -0.147719 -2.28429e-19)
(-0.135092 -0.190226 4.32443e-19)
(0.0527175 -0.190777 3.13252e-19)
(0.512396 -0.0803767 9.25264e-20)
(2.25158e-05 -0.000119875 7.00329e-24)
(0.000117884 -0.000257027 -7.38645e-24)
(0.000273108 -0.000317138 1.7824e-22)
(0.000430331 -0.000293972 -2.87552e-23)
(0.000527378 -0.000152195 3.74002e-22)
(0.000425691 0.000170309 -2.49162e-21)
(-0.000138066 0.000748824 3.40735e-21)
(-0.0016256 0.00163721 0)
(-0.00478179 0.00280053 -1.20119e-21)
(-0.010714 0.00399826 -1.03271e-20)
(-0.0209256 0.00461199 9.31927e-22)
(-0.0372206 0.00342964 -1.29894e-21)
(-0.0613318 -0.00154871 6.34691e-21)
(-0.0940062 -0.0131199 8.03989e-20)
(-0.133076 -0.0343639 3.61855e-20)
(-0.169687 -0.0669154 1.12219e-19)
(-0.181688 -0.107693 1.9436e-19)
(-0.122885 -0.140236 0)
(0.0902025 -0.137436 -2.24439e-19)
(0.56617 -0.0560005 -1.25527e-19)
(2.00261e-05 -0.00014295 1.30061e-23)
(0.000103497 -0.000303103 -4.7956e-23)
(0.00023743 -0.00038036 9.95779e-23)
(0.000367172 -0.000367081 1.75033e-22)
(0.000429579 -0.000217506 -2.65343e-22)
(0.000283184 0.000154555 0)
(-0.00034325 0.000868932 -3.49088e-21)
(-0.00192774 0.00205486 4.15756e-21)
(-0.00524527 0.00379662 0)
(-0.0114523 0.00603157 0)
(-0.0221196 0.00839141 0)
(-0.0391194 0.00999395 -9.438e-21)
(-0.0641945 0.00924052 -6.12653e-21)
(-0.097908 0.00376144 -3.11933e-20)
(-0.137462 -0.00920269 -3.7073e-20)
(-0.17258 -0.0314286 0)
(-0.178637 -0.0611485 0)
(-0.106999 -0.0863996 -5.52085e-20)
(0.123494 -0.0874914 -4.6428e-20)
(0.606473 -0.0356631 0)
(1.5944e-05 -0.00016223 2.09147e-23)
(8.21915e-05 -0.000342139 -2.2195e-23)
(0.000187403 -0.000435702 -1.6397e-22)
(0.000283685 -0.00043393 1.94229e-22)
(0.000310897 -0.000280511 1.88085e-22)
(0.000132367 0.000135688 0)
(-0.00051763 0.000982324 0)
(-0.00211181 0.00247236 -4.26101e-21)
(-0.00542294 0.00482667 4.7909e-21)
(-0.0116119 0.0081918 0)
(-0.0222615 0.0124993 0)
(-0.0392539 0.0172644 2.4317e-20)
(-0.0643034 0.0213604 0)
(-0.0978207 0.0228739 1.30937e-20)
(-0.136582 0.0192535 0)
(-0.169437 0.00815972 0)
(-0.170409 -0.0108336 8.08136e-22)
(-0.0899654 -0.0313222 2.96228e-20)
(0.150266 -0.0417209 5.62789e-20)
(0.634208 -0.0187333 0)
(1.05419e-05 -0.00017594 3.06724e-23)
(5.5168e-05 -0.000370962 -1.05531e-22)
(0.000125626 -0.000479391 7.28685e-23)
(0.000184189 -0.000491128 -4.24172e-22)
(0.000177849 -0.000340258 -2.48102e-22)
(-1.72764e-05 0.000107998 0)
(-0.000647318 0.00106872 0)
(-0.00215675 0.00284099 0)
(-0.00528169 0.00579089 -4.91183e-21)
(-0.0111402 0.010293 0)
(-0.02127 0.016612 -1.19803e-20)
(-0.0375082 0.0247086 -1.50138e-20)
(-0.0615189 0.0339797 2.23441e-20)
(-0.093636 0.0429881 1.30333e-20)
(-0.1305 0.0493071 0)
(-0.160763 0.0497343 1.05324e-20)
(-0.158269 0.0410604 -2.55515e-20)
(-0.0738432 0.0235148 1.50179e-20)
(0.168823 0.000443935 1.78887e-20)
(0.650291 -0.00412367 -4.52683e-21)
(4.1588e-06 -0.000182493 0)
(2.39465e-05 -0.000386673 -9.71085e-23)
(5.52586e-05 -0.000507891 1.98043e-22)
(7.33997e-05 -0.000535481 -1.00934e-22)
(3.63554e-05 -0.000396107 0)
(-0.000159375 6.48519e-05 -8.9645e-22)
(-0.000726596 0.00110507 -1.57951e-22)
(-0.00205877 0.00310515 0)
(-0.00482074 0.00657425 0)
(-0.01004 0.0121191 0)
(-0.0191519 0.0203521 3.56184e-21)
(-0.0338966 0.0317075 -2.02905e-21)
(-0.0558772 0.0461446 -4.06785e-20)
(-0.0854553 0.0627344 -1.7495e-20)
(-0.119477 0.0791621 7.5939e-20)
(-0.147131 0.09125 -1.55615e-19)
(-0.143262 0.0927515 2.97268e-20)
(-0.0600973 0.0774504 -2.00856e-19)
(0.177959 0.0402962 0)
(0.655186 0.00936421 -1.66317e-20)
(-2.79642e-06 -0.000180617 5.46694e-23)
(-9.59414e-06 -0.000386801 2.0272e-22)
(-1.98671e-05 -0.000517962 0)
(-4.34284e-05 -0.000563742 4.89732e-22)
(-0.000108171 -0.000446862 -1.3446e-21)
(-0.000290844 6.57916e-07 1.0817e-21)
(-0.000758814 0.00106941 0)
(-0.0018338 0.00320892 0)
(-0.00407675 0.00705685 9.67444e-22)
(-0.00837871 0.0134389 1.08101e-21)
(-0.0160168 0.0233085 1.1751e-20)
(-0.0285833 0.0375802 0)
(-0.0476117 0.0568034 1.58861e-20)
(-0.0735983 0.0806146 3.27938e-20)
(-0.103943 0.106899 -1.13784e-19)
(-0.129105 0.130623 1.59644e-19)
(-0.126096 0.142618 -1.75208e-19)
(-0.0495303 0.130223 1.75563e-19)
(0.176958 0.0795358 1.44175e-19)
(0.648623 0.0230576 2.17187e-20)
(-9.79614e-06 -0.000169516 6.78232e-23)
(-4.31009e-05 -0.000369531 -3.41347e-22)
(-9.50328e-05 -0.000506782 0)
(-0.000160106 -0.000572361 -5.40146e-23)
(-0.000250237 -0.000489725 3.73016e-21)
(-0.000411209 -8.65984e-05 0)
(-0.000755942 0.000945927 0)
(-0.00151787 0.00310501 3.2932e-21)
(-0.00312646 0.00712871 -3.82157e-21)
(-0.00629527 0.0140287 0)
(-0.0120904 0.0250672 -1.15159e-20)
(-0.0219039 0.0416193 -1.74092e-20)
(-0.0371802 0.0648389 4.15238e-20)
(-0.0586324 0.0950092 0)
(-0.0845124 0.130416 0)
(-0.107223 0.165549 4.14854e-20)
(-0.107082 0.18885 -1.51987e-19)
(-0.0422343 0.181535 1.40853e-19)
(0.16542 0.120007 -4.28017e-19)
(0.62956 0.0383791 -6.30075e-20)
(-1.61408e-05 -0.000149071 0)
(-7.35827e-05 -0.000334063 0)
(-0.000164279 -0.000472208 7.88938e-22)
(-0.000268787 -0.000557362 1.3999e-22)
(-0.000382996 -0.000519252 4.65194e-22)
(-0.000520608 -0.00019245 0)
(-0.000735979 0.000731164 4.28617e-21)
(-0.00116442 0.00276653 -3.38016e-21)
(-0.00208495 0.00670965 8.21877e-21)
(-0.00400162 0.0137028 -3.30746e-21)
(-0.00772322 0.025254 4.92297e-21)
(-0.0143865 0.0431442 1.78689e-20)
(-0.0253056 0.069117 -6.00484e-20)
(-0.0414337 0.104191 5.19029e-20)
(-0.0620646 0.147348 -3.44753e-20)
(-0.0820707 0.193246 5.24477e-20)
(-0.0861505 0.228951 1.82237e-19)
(-0.0375014 0.230436 5.28388e-19)
(0.143392 0.163359 1.00216e-19)
(0.595969 0.0568178 6.43625e-20)
(-2.09071e-05 -0.000120143 9.86376e-23)
(-9.72438e-05 -0.000281067 2.02565e-22)
(-0.000219972 -0.000413194 -1.01248e-21)
(-0.000358944 -0.00051444 -9.9101e-22)
(-0.000496186 -0.000526516 -4.08923e-21)
(-0.000616215 -0.000303072 0)
(-0.000717251 0.000440793 -4.40012e-21)
(-0.000836518 0.00220076 0)
(-0.00109647 0.00577377 -5.45656e-21)
(-0.00177462 0.0123532 3.69819e-21)
(-0.00338845 0.0235931 1.89038e-21)
(-0.00676503 0.0415751 -1.89041e-21)
(-0.0130172 0.0685636 1.87924e-20)
(-0.0232751 0.106365 -5.8011e-20)
(-0.0378859 0.154987 3.92193e-20)
(-0.0544521 0.210118 0)
(-0.0629505 0.259018 0)
(-0.0336767 0.274315 -4.33629e-19)
(0.111551 0.210417 -3.61642e-19)
(0.544079 0.0798046 7.65743e-20)
(-2.29081e-05 -8.49912e-05 -2.0578e-22)
(-0.000109383 -0.000213252 4.17654e-22)
(-0.000252411 -0.000330454 0)
(-0.00041612 -0.000439521 -1.57368e-21)
(-0.000573256 -0.000498951 1.90609e-21)
(-0.000686699 -0.000393135 0)
(-0.000709004 0.000116177 0)
(-0.000592159 0.00146332 1.00124e-20)
(-0.000314288 0.00437718 -1.27354e-20)
(6.79541e-05 0.009998 0)
(0.000339544 0.0199824 -1.13278e-20)
(2.66476e-05 0.0365394 4.58361e-22)
(-0.00168665 0.0622886 -1.81857e-20)
(-0.00594036 0.0997619 5.96358e-20)
(-0.0139025 0.150242 -1.23631e-19)
(-0.0257301 0.21137 1.56059e-19)
(-0.0370885 0.272714 3.21336e-19)
(-0.0279099 0.307233 0)
(0.0716297 0.259944 4.75545e-19)
(0.466776 0.108348 -1.73314e-19)
(-2.07258e-05 -4.80194e-05 1.0722e-22)
(-0.000104477 -0.000136678 -8.43017e-22)
(-0.000249554 -0.000228523 0)
(-0.000420424 -0.000331404 1.25015e-21)
(-0.000587433 -0.000422921 0)
(-0.000704185 -0.000426722 2.89657e-21)
(-0.000697405 -0.000171829 8.85924e-21)
(-0.000462553 0.000672979 -1.02796e-20)
(0.000129162 0.00269338 1.30753e-20)
(0.0012013 0.00685146 0)
(0.00281047 0.0146169 1.46871e-20)
(0.00484186 0.0280655 1.30462e-20)
(0.00686545 0.0498588 1.64523e-20)
(0.00797793 0.0829653 -8.12262e-20)
(0.00669457 0.129878 0)
(0.0011159 0.19083 8.18564e-20)
(-0.00941419 0.260048 -4.87608e-19)
(-0.0164816 0.31714 0)
(0.0292604 0.305357 -8.08717e-19)
(0.357322 0.141431 1.42507e-19)
(-1.32318e-05 -1.70581e-05 9.8713e-23)
(-7.7184e-05 -6.41903e-05 3.1569e-22)
(-0.000197312 -0.000121719 -1.37113e-22)
(-0.000344775 -0.000199916 -2.68911e-22)
(-0.00049622 -0.000293075 1.85373e-21)
(-0.000612648 -0.000365329 -4.96763e-21)
(-0.000624796 -0.000323582 -7.10052e-21)
(-0.000420683 3.03018e-05 0)
(0.00016252 0.00107143 0)
(0.00133136 0.0034546 3.44805e-20)
(0.00330316 0.00823905 -8.17256e-21)
(0.00622914 0.0170139 3.85627e-20)
(0.010058 0.0319741 4.10437e-21)
(0.0143303 0.0558682 3.76273e-20)
(0.017895 0.0916967 2.69831e-20)
(0.0185682 0.141911 0)
(0.0132513 0.206794 0)
(0.000760743 0.280352 -2.94521e-19)
(0.00161624 0.321258 9.63461e-19)
(0.237442 0.167021 0)
(-2.12161e-06 -2.02911e-06 -7.704e-23)
(-2.73711e-05 -1.56816e-05 0)
(-8.40258e-05 -3.64895e-05 1.47644e-22)
(-0.000157442 -7.05523e-05 1.74541e-22)
(-0.000239324 -0.000119831 -2.44561e-21)
(-0.000315586 -0.000177953 -1.51252e-21)
(-0.000357324 -0.000220304 -2.82079e-21)
(-0.000312746 -0.000184882 9.83336e-21)
(-9.83776e-05 5.80938e-05 0)
(0.000404872 0.000754278 4.75153e-21)
(0.00134555 0.00232925 0)
(0.0028756 0.00546555 -3.93782e-20)
(0.00509205 0.011179 3.70444e-20)
(0.00793591 0.0208772 1.88094e-21)
(0.0110345 0.0363973 -5.55284e-20)
(0.013465 0.0600608 3.40835e-20)
(0.0136119 0.0953955 0)
(0.00986428 0.15021 3.326e-19)
(0.00934192 0.218357 0)
(0.172421 0.128395 -4.15474e-19)
)
;

boundaryField
{
    movingWall
    {
        type            fixedValue;
        value           uniform (1 0 0);
    }
    fixedWalls
    {
        type            fixedValue;
        value           uniform (0 0 0);
    }
    frontAndBack
    {
        type            empty;
    }
}


// ************************************************************************* //
