/*--------------------------------*- C++ -*----------------------------------*\
| =========                 |                                                 |
| \\      /  F ield         | OpenFOAM: The Open Source CFD Toolbox           |
|  \\    /   O peration     | Version:  2.4.0                                 |
|   \\  /    A nd           | Web:      www.OpenFOAM.org                      |
|    \\/     M anipulation  |                                                 |
\*---------------------------------------------------------------------------*/
FoamFile
{
    version     2.0;
    format      ascii;
    class       volVectorField;
    location    "0.68";
    object      UMean;
}
// * * * * * * * * * * * * * * * * * * * * * * * * * * * * * * * * * * * * * //

dimensions      [0 1 -1 0 0 0 0];

internalField   nonuniform List<vector> 
2320
(
(0.863316 0.00180241 0)
(0.981411 -0.00295222 0)
(0.860237 0.002263 0)
(0.989116 -0.00159931 0)
(0.85932 0.00181459 0)
(0.996839 -0.000971059 0)
(0.863447 0.00205373 0)
(0.997454 -0.00132449 0)
(0.865961 -0.00169445 0)
(1.00466 0.00143561 0)
(0.864984 -0.00171212 0)
(1.01605 0.00119604 0)
(0.862971 -0.00194459 0)
(1.027 -0.00365234 0)
(0.866721 -0.00643877 0)
(1.04654 -0.00969921 0)
(0.888621 -0.012248 0)
(1.08577 -0.0181299 0)
(0.920266 -0.0207243 0)
(1.15432 -0.0347645 0)
(0.923026 0.00665706 0)
(0.920308 -0.00650034 0)
(0.919305 0.00441579 0)
(0.936311 -0.0116719 0)
(0.918848 0.00665556 0)
(0.950588 -0.0154481 0)
(0.913319 0.0115287 0)
(0.964753 -0.0174836 0)
(0.920727 0.0138294 0)
(0.970379 -0.0207511 0)
(0.934932 0.0140796 0)
(0.97611 -0.0238332 0)
(0.949756 0.0195307 0)
(0.973543 -0.0287513 0)
(0.969609 0.0241005 0)
(0.977751 -0.0370862 0)
(1.00392 0.0233122 0)
(0.995173 -0.0428201 0)
(1.05573 0.0223942 0)
(1.05777 -0.0543719 0)
(0.976192 0.010782 0)
(0.865278 -0.0100144 0)
(0.986347 0.00610886 0)
(0.866774 -0.0140196 0)
(0.992402 0.0101257 0)
(0.87137 -0.0137859 0)
(0.998317 0.0117375 0)
(0.881865 -0.0202126 0)
(1.00717 0.0147022 0)
(0.893528 -0.0236477 0)
(1.01836 0.0190611 0)
(0.888169 -0.0272261 0)
(1.03791 0.0266523 0)
(0.883466 -0.0379756 0)
(1.05981 0.026813 0)
(0.880208 -0.0539277 0)
(1.08364 0.0219207 0)
(0.88994 -0.0722548 0)
(1.12731 0.00562786 0)
(0.935713 -0.103392 0)
(0.988147 0.0161349 0)
(0.851139 -0.0178082 0)
(0.994163 0.0153418 0)
(0.850976 -0.0241926 0)
(1.00386 0.0162139 0)
(0.85746 -0.0284503 0)
(1.01764 0.0195964 0)
(0.856815 -0.0369977 0)
(1.02856 0.0241028 0)
(0.86261 -0.0433769 0)
(1.04212 0.0334207 0)
(0.867788 -0.0549697 0)
(1.05964 0.0435652 0)
(0.890587 -0.0661635 0)
(1.07263 0.049704 0)
(0.918216 -0.0834182 0)
(1.105 0.0454877 0)
(0.958251 -0.109406 0)
(1.15906 0.0294801 0)
(1.02004 -0.145481 0)
(0.969816 0.0228357 0)
(0.867888 -0.0236277 0)
(0.974887 0.0185273 0)
(0.869203 -0.0330107 0)
(0.984789 0.0210185 0)
(0.87266 -0.0341027 0)
(0.98952 0.0272278 0)
(0.867121 -0.0406857 0)
(0.996695 0.0312923 0)
(0.868477 -0.0467239 0)
(1.00715 0.0378337 0)
(0.870258 -0.0556479 0)
(1.01651 0.0419599 0)
(0.877288 -0.0689391 0)
(1.02878 0.0448146 0)
(0.896632 -0.0950128 0)
(1.04193 0.0412943 0)
(0.929296 -0.128918 0)
(1.06931 0.0250242 0)
(0.990167 -0.182271 0)
(0.981034 0.0250934 0)
(0.863476 -0.0296533 0)
(0.989147 0.0190618 0)
(0.855012 -0.0397332 0)
(0.99415 0.0193834 0)
(0.855317 -0.0422854 0)
(1.00592 0.0273086 0)
(0.866747 -0.0530083 0)
(1.02041 0.0280853 0)
(0.872302 -0.0638571 0)
(1.03696 0.039727 0)
(0.873843 -0.0747757 0)
(1.05896 0.0459745 0)
(0.877195 -0.0893764 0)
(1.08726 0.0505219 0)
(0.879737 -0.116382 0)
(1.13177 0.0437181 0)
(0.892739 -0.157924 0)
(1.19134 0.0201502 0)
(0.931657 -0.212821 0)
(0.942346 0.0326553 0)
(0.906161 -0.0337585 0)
(0.952619 0.0344745 0)
(0.900861 -0.0414334 0)
(0.954153 0.0326179 0)
(0.897582 -0.0487988 0)
(0.974855 0.035974 0)
(0.916827 -0.0568938 0)
(0.990895 0.0441134 0)
(0.921184 -0.0648051 0)
(1.00507 0.0538387 0)
(0.935127 -0.0783484 0)
(1.02206 0.0605048 0)
(0.950976 -0.0961682 0)
(1.04415 0.0648938 0)
(0.969627 -0.130845 0)
(1.08123 0.0596456 0)
(0.98728 -0.17506 0)
(1.14672 0.0337943 0)
(1.01584 -0.244292 0)
(0.924975 0.0259176 0)
(0.927294 -0.0350313 0)
(0.943874 0.0243595 0)
(0.931296 -0.0420661 0)
(0.962077 0.0193278 0)
(0.935491 -0.0526566 0)
(0.980938 0.0190375 0)
(0.934001 -0.0616471 0)
(0.998372 0.0257565 0)
(0.93904 -0.0716946 0)
(1.01999 0.0328606 0)
(0.944488 -0.085168 0)
(1.04147 0.0372738 0)
(0.95638 -0.104814 0)
(1.06744 0.0429651 0)
(0.969937 -0.141917 0)
(1.09326 0.0390127 0)
(0.99438 -0.201062 0)
(1.13785 0.0200895 0)
(1.02127 -0.285886 0)
(0.902849 0.0362367 0)
(0.953009 -0.0469766 0)
(0.920249 0.0375829 0)
(0.962256 -0.0540231 0)
(0.93976 0.0346241 0)
(0.968618 -0.0626011 0)
(0.956367 0.0389436 0)
(0.973032 -0.0681758 0)
(0.976713 0.0433586 0)
(0.982449 -0.0773779 0)
(0.995287 0.0516659 0)
(0.9927 -0.0859479 0)
(1.00776 0.0527593 0)
(1.00982 -0.104025 0)
(1.02559 0.0541497 0)
(1.02879 -0.138038 0)
(1.04928 0.0409289 0)
(1.05173 -0.196206 0)
(1.09032 0.0129183 0)
(1.07996 -0.296745 0)
(0.888337 0.0197577 0)
(0.964576 -0.0349751 0)
(0.899757 0.0132228 0)
(0.966645 -0.0438413 0)
(0.915646 0.00760022 0)
(0.973676 -0.0495654 0)
(0.932807 0.00842913 0)
(0.986409 -0.0556506 0)
(0.957133 0.00840249 0)
(0.997208 -0.0627863 0)
(0.970454 0.0135916 0)
(1.00575 -0.0709832 0)
(0.989069 0.0106245 0)
(1.01293 -0.089817 0)
(1.00272 0.0135442 0)
(1.03192 -0.123637 0)
(1.01273 0.00773954 0)
(1.05187 -0.187406 0)
(1.00748 -0.00310375 0)
(1.08086 -0.306705 0)
(0.894112 0.0371662 0)
(0.967956 -0.0531215 0)
(0.893625 0.0326418 0)
(0.967851 -0.0637323 0)
(0.902911 0.0271793 0)
(0.972542 -0.0721815 0)
(0.926307 0.0264758 0)
(0.986201 -0.0788896 0)
(0.949165 0.029798 0)
(0.991166 -0.0811695 0)
(0.956867 0.036954 0)
(0.996224 -0.0889671 0)
(0.961409 0.0376443 0)
(0.995131 -0.103046 0)
(0.971548 0.0285546 0)
(1.00387 -0.131105 0)
(0.982768 0.00966408 0)
(0.999595 -0.180176 0)
(1.00563 -0.0326403 0)
(0.980884 -0.277269 0)
(0.927841 0.00779401 0)
(0.932698 -0.0193006 0)
(0.921873 0.00110121 0)
(0.949366 -0.0322495 0)
(0.918829 -0.00761323 0)
(0.973492 -0.0423928 0)
(0.931358 -0.0138411 0)
(0.994294 -0.0424687 0)
(0.937864 -0.0147741 0)
(1.01056 -0.0406548 0)
(0.938563 -0.0140778 0)
(1.03057 -0.0440139 0)
(0.924151 -0.0188014 0)
(1.05254 -0.0574582 0)
(0.909256 -0.0282999 0)
(1.07906 -0.0784319 0)
(0.874396 -0.0364115 0)
(1.09742 -0.136474 0)
(0.827177 -0.0406747 0)
(1.09701 -0.283398 0)
(0.984842 0.0338584 0)
(0.871866 -0.0474709 0)
(0.992846 0.0216233 0)
(0.874804 -0.064889 0)
(0.997009 0.0131968 0)
(0.897489 -0.0765409 0)
(1.00359 0.0103576 0)
(0.922912 -0.0797852 0)
(1.01184 0.01468 0)
(0.94203 -0.0767338 0)
(1.01661 0.0201749 0)
(0.95494 -0.0782354 0)
(1.00371 0.0173592 0)
(0.96974 -0.0930154 0)
(0.983436 -5.07116e-05 0)
(1.00151 -0.10901 0)
(0.938654 -0.0202295 0)
(1.03991 -0.153427 0)
(0.818888 -0.0512874 0)
(1.08313 -0.305626 0)
(0.974759 -0.00151165 0)
(0.877841 -0.00921963 0)
(0.979946 -0.0150119 0)
(0.873217 -0.0229603 0)
(0.985601 -0.0318866 0)
(0.891239 -0.0316166 0)
(1.00268 -0.043439 0)
(0.918304 -0.0265089 0)
(1.02072 -0.0455607 0)
(0.93259 -0.0174781 0)
(1.0282 -0.0466961 0)
(0.926998 -0.00644686 0)
(1.01983 -0.0561807 0)
(0.92672 -0.0059742 0)
(1.02141 -0.0827213 0)
(0.94598 0.00163485 0)
(1.01304 -0.114186 0)
(0.964122 0.00374032 0)
(0.942144 -0.140382 0)
(0.969337 -0.0468992 0)
(0.997917 0.0348044 0)
(0.857931 -0.0473631 0)
(1.00612 0.0238864 0)
(0.855583 -0.0670252 0)
(1.01415 0.00672311 0)
(0.879691 -0.0863666 0)
(1.03804 -0.000717277 0)
(0.913921 -0.0898996 0)
(1.05942 0.00742836 0)
(0.925907 -0.0815181 0)
(1.06652 0.0217955 0)
(0.915546 -0.0808509 0)
(1.071 0.0158769 0)
(0.91536 -0.104158 0)
(1.07538 -0.0102923 0)
(0.942042 -0.111418 0)
(1.06048 -0.0366087 0)
(0.985294 -0.110372 0)
(0.989448 -0.072875 0)
(1.04154 -0.18274 0)
(0.977039 -0.00994468 0)
(0.878898 0.000320731 0)
(0.984735 -0.026882 0)
(0.874711 -0.0159781 0)
(0.99876 -0.0569467 0)
(0.895423 -0.0320219 0)
(1.02998 -0.0745025 0)
(0.927524 -0.0207213 0)
(1.04068 -0.0713894 0)
(0.937399 0.00353337 0)
(1.04086 -0.0607541 0)
(0.917196 0.019325 0)
(1.05055 -0.0765001 0)
(0.867152 0.0242569 0)
(1.07012 -0.125317 0)
(0.839155 0.0552927 0)
(1.089 -0.196141 0)
(0.827017 0.117348 0)
(1.06174 -0.257695 0)
(0.842524 0.249836 0)
(0.956702 0.0343699 0)
(0.904808 -0.0499962 0)
(0.959462 0.0248514 0)
(0.904649 -0.0778359 0)
(0.973184 -0.00235747 0)
(0.920841 -0.106164 0)
(0.993987 -0.0130279 0)
(0.926166 -0.100607 0)
(1.00413 0.00225062 0)
(0.930214 -0.0862693 0)
(1.01809 0.0279486 0)
(0.912174 -0.0943104 0)
(1.02628 0.0442317 0)
(0.858756 -0.130846 0)
(1.06639 0.0244044 0)
(0.818881 -0.143895 0)
(1.09839 -0.00281193 0)
(0.721903 -0.113646 0)
(1.10783 -0.114916 0)
(0.697582 -0.0692917 0)
(0.934182 -0.0204217 0)
(0.927311 0.0131498 0)
(0.930456 -0.0375722 0)
(0.931022 -0.0114834 0)
(0.933633 -0.0725428 0)
(0.926339 -0.0302447 0)
(0.907325 -0.0822765 0)
(0.911141 -0.0142416 0)
(0.903475 -0.0819899 0)
(0.905524 0.0200309 0)
(0.908577 -0.0611913 0)
(0.902357 0.0353096 0)
(0.90145 -0.0547995 0)
(0.923705 0.0154821 0)
(0.905059 -0.110766 0)
(0.925435 0.0415491 0)
(0.921925 -0.16282 0)
(0.836146 0.155111 0)
(0.899596 -0.247792 0)
(0.573183 0.570413 0)
(0.952271 0.0288989 0)
(0.904667 -0.0421898 0)
(0.948075 0.0161767 0)
(0.892398 -0.0781299 0)
(0.906106 -0.00796648 0)
(0.807781 -0.0934271 0)
(0.816085 -0.0115552 0)
(0.743041 -0.0999384 0)
(0.744741 -0.00407226 0)
(0.686757 -0.0891334 0)
(0.722071 0.0148719 0)
(0.642498 -0.0904169 0)
(0.720055 0.0216504 0)
(0.665268 -0.140076 0)
(0.618608 0.0274371 0)
(0.670206 -0.171662 0)
(0.524421 0.0595841 0)
(0.687687 -0.167147 0)
(0.687089 -0.0469316 0)
(0.267588 -0.0364194 0)
(0.916862 -0.0261908 0)
(0.934432 0.0261925 0)
(0.898657 -0.0384105 0)
(0.870844 0.0212462 0)
(0.786262 -0.031038 0)
(0.77766 0.024967 0)
(0.649968 -0.0452137 0)
(0.647792 0.0345269 0)
(0.511838 -0.0497308 0)
(0.518099 0.0507664 0)
(0.433447 -0.0400451 0)
(0.442768 0.0544929 0)
(0.364888 -0.0584679 0)
(0.34251 0.0738445 0)
(0.221126 -0.0960071 0)
(0.194173 0.0920463 0)
(0.024888 -0.140521 0)
(0.0470688 0.091103 0)
(-0.233543 0.0438956 0)
(0.0878912 0.644034 0)
(0.988762 -0.0380089 0)
(1.26125 -0.0589823 0)
(1.11469 -0.0638907 0)
(1.45716 -0.0577426 0)
(1.27622 -0.0705189 0)
(1.69303 -0.0825667 0)
(1.53936 -0.0962758 0)
(1.98488 -0.106899 0)
(1.12452 0.0244783 0)
(1.1907 -0.0624951 0)
(1.22133 0.00208388 0)
(1.39029 -0.0645743 0)
(1.39541 -0.0432892 0)
(1.62844 -0.0749208 0)
(1.65051 -0.0496526 0)
(1.91474 -0.0869641 0)
(1.2047 -0.0353323 0)
(1.07235 -0.142587 0)
(1.31306 -0.100232 0)
(1.31598 -0.159003 0)
(1.45776 -0.151446 0)
(1.58542 -0.186778 0)
(1.67245 -0.19936 0)
(1.88793 -0.240259 0)
(1.24587 -0.0103331 0)
(1.11365 -0.176677 0)
(1.36943 -0.082918 0)
(1.26799 -0.189597 0)
(1.56049 -0.171914 0)
(1.50158 -0.214709 0)
(1.82808 -0.221623 0)
(1.82824 -0.262426 0)
(1.10954 -0.0240442 0)
(1.12324 -0.247449 0)
(1.20815 -0.119294 0)
(1.35318 -0.289205 0)
(1.41664 -0.231599 0)
(1.61141 -0.320174 0)
(1.74608 -0.332496 0)
(1.8627 -0.381277 0)
(1.27522 -0.0415769 0)
(1.04007 -0.278972 0)
(1.38343 -0.157345 0)
(1.28282 -0.338731 0)
(1.51619 -0.280122 0)
(1.61392 -0.392843 0)
(1.69565 -0.369508 0)
(1.94147 -0.450002 0)
(1.24795 -0.0437031 0)
(1.0891 -0.332584 0)
(1.38794 -0.191963 0)
(1.26306 -0.40384 0)
(1.566 -0.359959 0)
(1.49028 -0.437122 0)
(1.79752 -0.478115 0)
(1.93245 -0.545703 0)
(1.22611 -0.0502282 0)
(1.0714 -0.386941 0)
(1.37649 -0.199726 0)
(1.2578 -0.463655 0)
(1.4523 -0.349991 0)
(1.5684 -0.539358 0)
(1.87134 -0.57882 0)
(1.97948 -0.636269 0)
(1.18867 -0.0652145 0)
(1.1037 -0.441297 0)
(1.40599 -0.24652 0)
(1.09971 -0.481686 0)
(1.56951 -0.448925 0)
(1.67192 -0.680529 0)
(1.91183 -0.668829 0)
(2.07701 -0.755369 0)
(1.00049 -0.0562118 0)
(1.16453 -0.510071 0)
(1.09999 -0.170277 0)
(1.19285 -0.631015 0)
(1.74107 -0.594817 0)
(1.66456 -0.768383 0)
(1.97401 -0.750652 0)
(2.0665 -0.829922 0)
(1.083 -0.144243 0)
(1.01421 -0.474764 0)
(1.08714 -0.222143 0)
(1.43635 -0.832921 0)
(1.77176 -0.639798 0)
(1.65865 -0.84777 0)
(1.9932 -0.81572 0)
(2.0155 -0.895576 0)
(0.883724 -0.0961917 0)
(0.970859 -0.472833 0)
(1.30954 -0.397811 0)
(1.48783 -0.941302 0)
(1.75636 -0.669576 0)
(1.62982 -0.950927 0)
(2.00786 -0.874455 0)
(1.87201 -0.9182 0)
(0.564198 -0.147739 0)
(1.14349 -0.674281 0)
(1.34152 -0.560903 0)
(1.52084 -1.0269 0)
(1.70177 -0.698359 0)
(1.63405 -1.05499 0)
(1.9313 -0.865549 0)
(1.67384 -0.917486 0)
(0.713596 -0.169947 0)
(1.2318 -0.769932 0)
(1.39835 -0.673804 0)
(1.49519 -1.0472 0)
(1.62304 -0.71089 0)
(1.58626 -1.12408 0)
(1.77135 -0.814858 0)
(1.55849 -0.986894 0)
(0.685283 -0.36252 0)
(1.28001 -0.934586 0)
(1.37583 -0.803704 0)
(1.4051 -1.06318 0)
(1.54617 -0.769057 0)
(1.50105 -1.16791 0)
(1.62335 -0.767914 0)
(1.4792 -1.09562 0)
(0.823893 -0.371902 0)
(1.27452 -0.94469 0)
(1.34194 -0.841828 0)
(1.32024 -1.03427 0)
(1.47492 -0.804377 0)
(1.3758 -1.15585 0)
(1.45297 -0.720604 0)
(1.46923 -1.24684 0)
(0.785641 -0.728939 0)
(1.22219 -1.07929 0)
(1.21147 -0.94908 0)
(1.21099 -1.05302 0)
(1.33721 -0.869697 0)
(1.21627 -1.15004 0)
(1.37256 -0.775604 0)
(1.4238 -1.39557 0)
(0.844536 -0.735459 0)
(1.15202 -0.988382 0)
(1.10402 -0.923342 0)
(1.13719 -1.00511 0)
(1.21829 -0.883117 0)
(1.11734 -1.11252 0)
(1.29206 -0.830057 0)
(1.31677 -1.46585 0)
(0.745108 -1.22288 0)
(1.03762 -1.17069 0)
(0.948969 -1.05043 0)
(1.02566 -1.05496 0)
(1.06881 -0.948837 0)
(0.995464 -1.12332 0)
(1.20411 -0.946397 0)
(1.15341 -1.50373 0)
(0.772403 -1.15745 0)
(0.978968 -0.987715 0)
(0.871878 -0.959605 0)
(0.991919 -0.976863 0)
(0.960291 -0.933323 0)
(0.958762 -1.06678 0)
(1.03154 -0.992777 0)
(0.878838 -1.33557 0)
(1.85391 -0.116427 0)
(2.31073 -0.12697 0)
(2.23338 -0.126991 0)
(2.67478 -0.132036 0)
(2.65684 -0.120101 0)
(3.06237 -0.113012 0)
(3.0745 -0.108414 0)
(3.43983 -0.0969935 0)
(3.46918 -0.0938675 0)
(3.76362 -0.0772883 0)
(3.78428 -0.0766936 0)
(3.99924 -0.0558701 0)
(3.97665 -0.0571838 0)
(4.10908 -0.0343986 0)
(4.02486 -0.0380878 0)
(4.07855 -0.0151908 0)
(3.92949 -0.0235276 0)
(3.9192 -0.000865979 0)
(3.71247 -0.0159581 0)
(3.66312 0.00634054 0)
(3.41109 -0.0182355 0)
(3.36613 0.0067862 0)
(3.08176 -0.0302998 0)
(3.08281 -0.000928945 0)
(2.78927 -0.0543879 0)
(2.87587 -0.0155149 0)
(2.61837 -0.100792 0)
(2.86112 -0.0746237 0)
(1.95799 -0.049417 0)
(2.24304 -0.0942603 0)
(2.31738 -0.0577428 0)
(2.61411 -0.107039 0)
(2.69644 -0.078981 0)
(3.0029 -0.113996 0)
(3.09807 -0.0873655 0)
(3.39151 -0.107947 0)
(3.47907 -0.079587 0)
(3.73456 -0.0810718 0)
(3.78591 -0.0488755 0)
(3.98273 -0.0382407 0)
(3.97442 -0.00095026 0)
(4.09895 0.014037 0)
(4.01586 0.0528931 0)
(4.07091 0.0666288 0)
(3.91271 0.102665 0)
(3.90996 0.110534 0)
(3.68689 0.140691 0)
(3.64768 0.139131 0)
(3.38138 0.160639 0)
(3.33195 0.149211 0)
(3.05591 0.162677 0)
(3.02086 0.141094 0)
(2.76795 0.143599 0)
(2.77015 0.105429 0)
(2.57213 0.0844652 0)
(2.60461 -0.0115158 0)
(1.9593 -0.235003 0)
(2.24249 -0.285227 0)
(2.29547 -0.265165 0)
(2.64012 -0.3057 0)
(2.68784 -0.278341 0)
(3.05162 -0.301654 0)
(3.10285 -0.276987 0)
(3.45847 -0.279797 0)
(3.49093 -0.249023 0)
(3.81597 -0.226279 0)
(3.80178 -0.187044 0)
(4.07133 -0.144296 0)
(3.98726 -0.100239 0)
(4.19 -0.049883 0)
(4.02252 -0.00720562 0)
(4.15908 0.0405473 0)
(3.91141 0.0757208 0)
(3.99207 0.112229 0)
(3.67551 0.135377 0)
(3.72118 0.153906 0)
(3.36153 0.163936 0)
(3.39804 0.158416 0)
(3.02521 0.159331 0)
(3.08086 0.125827 0)
(2.73034 0.127408 0)
(2.82038 0.0471442 0)
(2.52092 0.0591304 0)
(2.64677 -0.119998 0)
(2.1269 -0.256815 0)
(2.21115 -0.29659 0)
(2.44832 -0.280588 0)
(2.62569 -0.328284 0)
(2.81011 -0.302508 0)
(3.06766 -0.343902 0)
(3.2057 -0.306321 0)
(3.49375 -0.31846 0)
(3.59243 -0.268417 0)
(3.85909 -0.249827 0)
(3.90544 -0.183449 0)
(4.11264 -0.139455 0)
(4.09249 -0.0629272 0)
(4.21995 -0.00928666 0)
(4.1302 0.0683834 0)
(4.17499 0.116674 0)
(4.01976 0.185723 0)
(3.99499 0.218537 0)
(3.78493 0.272367 0)
(3.7121 0.280184 0)
(3.46751 0.3154 0)
(3.37695 0.296155 0)
(3.12893 0.310996 0)
(3.04368 0.264219 0)
(2.82678 0.261149 0)
(2.76776 0.180771 0)
(2.59449 0.156471 0)
(2.58284 0.020713 0)
(2.11347 -0.393063 0)
(2.18612 -0.427809 0)
(2.50342 -0.444469 0)
(2.59759 -0.478191 0)
(2.91209 -0.4734 0)
(3.05707 -0.500555 0)
(3.31983 -0.468639 0)
(3.50213 -0.473558 0)
(3.70296 -0.414603 0)
(3.87156 -0.38173 0)
(4.00232 -0.298993 0)
(4.11724 -0.234829 0)
(4.17162 -0.140184 0)
(4.21477 -0.0623218 0)
(4.19176 0.0299107 0)
(4.16492 0.103699 0)
(4.07178 0.181014 0)
(3.986 0.234769 0)
(3.8338 0.29032 0)
(3.70587 0.313467 0)
(3.51802 0.343276 0)
(3.36401 0.332928 0)
(3.18216 0.339214 0)
(3.01393 0.288082 0)
(2.87055 0.279883 0)
(2.7171 0.183556 0)
(2.61715 0.155889 0)
(2.49895 0.0162702 0)
(2.05459 -0.441213 0)
(2.29456 -0.502357 0)
(2.51997 -0.512946 0)
(2.69873 -0.546722 0)
(2.98193 -0.550112 0)
(3.11842 -0.566858 0)
(3.39242 -0.541237 0)
(3.53178 -0.533566 0)
(3.74406 -0.46431 0)
(3.87882 -0.42127 0)
(4.00165 -0.315087 0)
(4.1073 -0.240497 0)
(4.13132 -0.11905 0)
(4.19906 -0.0319196 0)
(4.12495 0.0873917 0)
(4.15558 0.167365 0)
(3.99806 0.27091 0)
(3.99149 0.325824 0)
(3.77309 0.402574 0)
(3.72977 0.42133 0)
(3.48493 0.470526 0)
(3.40814 0.444932 0)
(3.17168 0.467097 0)
(3.08093 0.397931 0)
(2.86306 0.390856 0)
(2.79537 0.28348 0)
(2.59176 0.246506 0)
(2.55887 0.110196 0)
(2.14172 -0.564708 0)
(2.40153 -0.642145 0)
(2.55739 -0.645783 0)
(2.79348 -0.690478 0)
(2.95602 -0.683594 0)
(3.1334 -0.699719 0)
(3.33926 -0.674405 0)
(3.48003 -0.649485 0)
(3.66362 -0.579803 0)
(3.78709 -0.513198 0)
(3.8822 -0.396916 0)
(3.98346 -0.300823 0)
(3.9791 -0.166607 0)
(4.05146 -0.0593933 0)
(3.96122 0.0723515 0)
(3.99698 0.168556 0)
(3.84756 0.281933 0)
(3.83857 0.348654 0)
(3.65533 0.433313 0)
(3.59865 0.456903 0)
(3.40603 0.514152 0)
(3.32079 0.489424 0)
(3.11821 0.511579 0)
(3.0517 0.444844 0)
(2.82342 0.434293 0)
(2.81364 0.32665 0)
(2.55187 0.283707 0)
(2.60685 0.140147 0)
(2.28356 -0.690281 0)
(2.40068 -0.723269 0)
(2.58887 -0.726476 0)
(2.73209 -0.746123 0)
(2.87986 -0.738448 0)
(3.06945 -0.761797 0)
(3.23455 -0.727555 0)
(3.37952 -0.701095 0)
(3.54928 -0.623347 0)
(3.62036 -0.539718 0)
(3.73736 -0.409882 0)
(3.75836 -0.300589 0)
(3.80534 -0.147632 0)
(3.78484 -0.031934 0)
(3.77887 0.118882 0)
(3.71497 0.220601 0)
(3.67544 0.35071 0)
(3.56725 0.420039 0)
(3.50593 0.515863 0)
(3.3666 0.543095 0)
(3.28312 0.59775 0)
(3.14684 0.582703 0)
(3.02284 0.58924 0)
(2.93169 0.531402 0)
(2.77107 0.495733 0)
(2.73181 0.408422 0)
(2.53893 0.342026 0)
(2.53423 0.217124 0)
(2.2753 -0.776757 0)
(2.34761 -0.790961 0)
(2.51453 -0.7972 0)
(2.62055 -0.823104 0)
(2.82557 -0.851528 0)
(2.96948 -0.869323 0)
(3.12311 -0.834306 0)
(3.24885 -0.801276 0)
(3.35771 -0.707107 0)
(3.40236 -0.602081 0)
(3.48759 -0.463699 0)
(3.46595 -0.33553 0)
(3.50716 -0.17143 0)
(3.4547 -0.0459049 0)
(3.4578 0.114551 0)
(3.38528 0.222949 0)
(3.36143 0.360209 0)
(3.2694 0.433866 0)
(3.21664 0.537567 0)
(3.1172 0.57668 0)
(3.02889 0.626123 0)
(2.94899 0.622327 0)
(2.8221 0.622767 0)
(2.76534 0.579819 0)
(2.6291 0.528542 0)
(2.584 0.448524 0)
(2.47207 0.368018 0)
(2.38584 0.258087 0)
(2.21063 -0.825601 0)
(2.26383 -0.840786 0)
(2.43416 -0.85996 0)
(2.57419 -0.906134 0)
(2.74383 -0.928062 0)
(2.83393 -0.920675 0)
(2.96048 -0.881248 0)
(3.01581 -0.828127 0)
(3.07543 -0.711427 0)
(3.09281 -0.596265 0)
(3.13777 -0.447227 0)
(3.07515 -0.3053 0)
(3.11808 -0.137151 0)
(3.02921 -0.00706992 0)
(3.0516 0.158752 0)
(2.96132 0.270246 0)
(2.95987 0.411151 0)
(2.88688 0.482723 0)
(2.85339 0.586642 0)
(2.80694 0.625977 0)
(2.71817 0.6867 0)
(2.69414 0.671952 0)
(2.58635 0.671632 0)
(2.56633 0.620412 0)
(2.45864 0.590472 0)
(2.41383 0.489604 0)
(2.35318 0.435809 0)
(2.26595 0.300869 0)
(2.1095 -0.865849 0)
(2.17353 -0.90019 0)
(2.38753 -0.943261 0)
(2.47318 -0.980808 0)
(2.5912 -0.988282 0)
(2.63063 -0.972845 0)
(2.69423 -0.928981 0)
(2.69208 -0.855844 0)
(2.7055 -0.737079 0)
(2.7097 -0.615464 0)
(2.66339 -0.454972 0)
(2.63279 -0.309909 0)
(2.61257 -0.143469 0)
(2.55649 -0.00872923 0)
(2.54011 0.157512 0)
(2.49177 0.272183 0)
(2.45828 0.407063 0)
(2.44489 0.495945 0)
(2.38822 0.593955 0)
(2.42593 0.629387 0)
(2.3426 0.692755 0)
(2.37491 0.695228 0)
(2.26837 0.689914 0)
(2.32045 0.634384 0)
(2.22473 0.596298 0)
(2.24243 0.502825 0)
(2.14736 0.447217 0)
(2.15475 0.319028 0)
(1.98328 -0.888054 0)
(2.13632 -0.980265 0)
(2.30107 -1.00678 0)
(2.33678 -1.02231 0)
(2.38438 -1.01282 0)
(2.3403 -0.970944 0)
(2.35805 -0.915479 0)
(2.28186 -0.836758 0)
(2.29963 -0.712602 0)
(2.1888 -0.570791 0)
(2.17287 -0.411028 0)
(2.07023 -0.269178 0)
(2.08038 -0.10696 0)
(1.96789 0.0325609 0)
(2.00499 0.191319 0)
(1.93909 0.311908 0)
(1.94552 0.423671 0)
(1.9322 0.50918 0)
(1.92596 0.616207 0)
(1.93749 0.654922 0)
(1.9473 0.708676 0)
(1.99306 0.699906 0)
(1.95459 0.70455 0)
(1.99732 0.663135 0)
(1.97274 0.625528 0)
(2.00674 0.527702 0)
(1.96968 0.478517 0)
(1.97477 0.344836 0)
(1.95594 -0.97076 0)
(2.08144 -1.06511 0)
(2.19421 -1.04084 0)
(2.12206 -1.0302 0)
(2.05341 -0.987533 0)
(1.98233 -0.946454 0)
(1.92066 -0.907352 0)
(1.83825 -0.821387 0)
(1.73878 -0.680241 0)
(1.67507 -0.54044 0)
(1.54774 -0.390478 0)
(1.50685 -0.249649 0)
(1.38719 -0.0833925 0)
(1.38733 0.033586 0)
(1.3323 0.177302 0)
(1.36717 0.305538 0)
(1.31968 0.424737 0)
(1.36806 0.500005 0)
(1.40457 0.579142 0)
(1.44973 0.62178 0)
(1.47547 0.691578 0)
(1.54865 0.681783 0)
(1.58437 0.671546 0)
(1.65132 0.626526 0)
(1.69122 0.59317 0)
(1.70683 0.512048 0)
(1.7586 0.459508 0)
(1.74747 0.340398 0)
(1.93453 -1.07112 0)
(1.99536 -1.10538 0)
(1.98565 -1.01599 0)
(1.76424 -0.977118 0)
(1.69128 -0.941497 0)
(1.53721 -0.909264 0)
(1.43757 -0.847246 0)
(1.22619 -0.742875 0)
(1.19501 -0.626033 0)
(0.999585 -0.475345 0)
(0.948302 -0.328599 0)
(0.80316 -0.185399 0)
(0.791476 -0.0522115 0)
(0.685721 0.0663293 0)
(0.706129 0.206423 0)
(0.689892 0.319632 0)
(0.757837 0.40984 0)
(0.758945 0.491395 0)
(0.864218 0.580189 0)
(0.909326 0.61105 0)
(1.02347 0.662586 0)
(1.10771 0.651696 0)
(1.17981 0.661729 0)
(1.28203 0.616432 0)
(1.36769 0.585524 0)
(1.44482 0.494807 0)
(1.50293 0.463502 0)
(1.5397 0.338314 0)
(1.92575 -1.15074 0)
(1.81997 -1.0882 0)
(1.65533 -0.919693 0)
(1.37943 -0.897551 0)
(1.21418 -0.855806 0)
(1.01765 -0.808617 0)
(0.801747 -0.75747 0)
(0.668728 -0.696301 0)
(0.448917 -0.554376 0)
(0.346822 -0.413867 0)
(0.192878 -0.288654 0)
(0.128201 -0.16228 0)
(0.0250752 -0.0178908 0)
(0.0266952 0.065697 0)
(-0.0126261 0.189509 0)
(0.0786283 0.291159 0)
(0.0763462 0.388058 0)
(0.198451 0.439436 0)
(0.275898 0.512759 0)
(0.401383 0.553552 0)
(0.516114 0.601055 0)
(0.650019 0.588059 0)
(0.755328 0.586338 0)
(0.921366 0.535379 0)
(1.01464 0.520156 0)
(1.12859 0.440042 0)
(1.23447 0.409288 0)
(1.30178 0.292087 0)
(1.84644 -1.18183 0)
(1.49985 -0.97993 0)
(1.25679 -0.777271 0)
(0.845285 -0.766858 0)
(0.728259 -0.756512 0)
(0.418915 -0.722543 0)
(0.273671 -0.660741 0)
(-0.0953358 -0.560324 0)
(-0.154182 -0.464728 0)
(-0.427083 -0.340672 0)
(-0.43802 -0.218648 0)
(-0.658204 -0.100517 0)
(-0.592116 0.00523402 0)
(-0.720231 0.0955353 0)
(-0.633743 0.189241 0)
(-0.615906 0.276273 0)
(-0.486615 0.358546 0)
(-0.420484 0.408864 0)
(-0.244514 0.465809 0)
(-0.139608 0.498338 0)
(0.0761041 0.545295 0)
(0.182883 0.525394 0)
(0.387186 0.529626 0)
(0.516985 0.490727 0)
(0.708871 0.473231 0)
(0.812493 0.392555 0)
(0.982394 0.380893 0)
(1.03699 0.279133 0)
(1.64053 -1.09598 0)
(1.08875 -0.795928 0)
(0.78243 -0.603351 0)
(0.399947 -0.664799 0)
(0.158719 -0.63144 0)
(-0.113209 -0.574957 0)
(-0.477464 -0.526624 0)
(-0.670318 -0.483141 0)
(-0.979537 -0.368939 0)
(-1.08063 -0.28174 0)
(-1.25686 -0.163247 0)
(-1.30452 -0.0876497 0)
(-1.35498 0.0167186 0)
(-1.35417 0.0849331 0)
(-1.3257 0.154846 0)
(-1.21167 0.213882 0)
(-1.13612 0.29278 0)
(-0.954139 0.322042 0)
(-0.831629 0.370289 0)
(-0.630109 0.392455 0)
(-0.424021 0.439812 0)
(-0.243125 0.420978 0)
(-0.0497863 0.423611 0)
(0.13978 0.371232 0)
(0.346313 0.374933 0)
(0.470206 0.30127 0)
(0.688471 0.293563 0)
(0.748688 0.200023 0)
(1.37179 -0.938633 0)
(0.590975 -0.59168 0)
(0.326696 -0.391108 0)
(-0.240675 -0.454456 0)
(-0.384065 -0.48676 0)
(-0.827153 -0.410208 0)
(-1.00366 -0.367087 0)
(-1.45625 -0.319109 0)
(-1.54128 -0.261444 0)
(-1.88426 -0.189118 0)
(-1.85177 -0.111041 0)
(-2.08645 -0.0404446 0)
(-1.96558 0.0297531 0)
(-2.07668 0.0815088 0)
(-1.8719 0.128737 0)
(-1.9067 0.185561 0)
(-1.65089 0.234254 0)
(-1.56093 0.257502 0)
(-1.31316 0.293649 0)
(-1.1703 0.307554 0)
(-0.867469 0.35031 0)
(-0.718158 0.334987 0)
(-0.405062 0.329531 0)
(-0.273131 0.298446 0)
(0.0218436 0.294274 0)
(0.106917 0.233448 0)
(0.409196 0.232507 0)
(0.380701 0.175507 0)
(0.950433 -0.554622 0)
(0.0432219 -0.293767 0)
(-0.161717 -0.219047 0)
(-0.630318 -0.343341 0)
(-1.00192 -0.313533 0)
(-1.40651 -0.291283 0)
(-1.67354 -0.231217 0)
(-2.01506 -0.221506 0)
(-2.21079 -0.154245 0)
(-2.44325 -0.13852 0)
(-2.52703 -0.0641308 0)
(-2.6352 -0.0415316 0)
(-2.60825 0.0125278 0)
(-2.60356 0.0380054 0)
(-2.49311 0.0791958 0)
(-2.41636 0.0922266 0)
(-2.20219 0.125368 0)
(-2.06421 0.14636 0)
(-1.83106 0.168795 0)
(-1.6311 0.170234 0)
(-1.34933 0.200678 0)
(-1.12744 0.179565 0)
(-0.842213 0.191629 0)
(-0.650846 0.161556 0)
(-0.368697 0.167548 0)
(-0.244084 0.119024 0)
(0.0558645 0.13494 0)
(0.0510752 0.0915716 0)
(0.530994 -0.433528 0)
(-0.792901 -0.0765737 0)
(-0.3278 -0.00879715 0)
(-1.21626 -0.0461893 0)
(-1.19839 -0.0872988 0)
(-2.0008 -0.065633 0)
(-1.97649 -0.0655518 0)
(-2.61824 -0.0501391 0)
(-2.54941 -0.0382557 0)
(-3.01837 -0.0300902 0)
(-2.89656 -0.0147911 0)
(-3.19922 0.00307675 0)
(-2.97677 0.0145251 0)
(-3.15908 0.0337661 0)
(-2.8181 0.0417594 0)
(-2.9214 0.0465558 0)
(-2.53797 0.059058 0)
(-2.55874 0.0722239 0)
(-2.10057 0.0732514 0)
(-2.08822 0.0746993 0)
(-1.60147 0.0836009 0)
(-1.55968 0.080446 0)
(-1.0754 0.0834171 0)
(-1.03491 0.0719357 0)
(-0.593067 0.0708254 0)
(-0.602264 0.0503516 0)
(-0.201921 0.0606207 0)
(-0.281295 0.0433993 0)
(2.70213 -0.248561 0)
(2.77393 -0.705355 0)
(2.24314 -0.725166 0)
(2.04857 -0.969596 0)
(1.60257 -1.04881 0)
(1.3522 -1.34804 0)
(0.718629 -1.05648 0)
(-0.145332 -0.814934 0)
(2.50916 -0.179609 0)
(2.19827 -0.461013 0)
(1.8487 -0.576021 0)
(1.80077 -0.856242 0)
(1.49965 -0.926457 0)
(1.2613 -1.03971 0)
(0.837993 -0.761508 0)
(0.725831 -0.890937 0)
(2.42371 -0.105424 0)
(2.47964 -0.391375 0)
(2.32871 -0.498257 0)
(2.17147 -0.722474 0)
(1.76994 -0.714697 0)
(1.49042 -0.973664 0)
(1.08846 -0.703521 0)
(0.233832 -0.252899 0)
(2.38246 -0.0546398 0)
(2.40632 -0.310646 0)
(1.94092 -0.409499 0)
(1.78173 -0.579875 0)
(1.36918 -0.629937 0)
(1.21464 -0.682294 0)
(0.276694 -0.302259 0)
(0.741907 -0.423852 0)
(2.40551 -0.0599626 0)
(2.31591 -0.206953 0)
(2.11227 -0.276268 0)
(2.16632 -0.451782 0)
(1.8381 -0.449198 0)
(1.75377 -0.429547 0)
(1.26508 -0.342114 0)
(1.21713 -0.392423 0)
(2.36979 0.0300019 0)
(2.29544 -0.111468 0)
(2.14521 -0.249205 0)
(1.88815 -0.370844 0)
(1.54042 -0.372871 0)
(1.41645 -0.435992 0)
(1.15353 -0.133302 0)
(1.0408 -0.144281 0)
(2.32107 0.0726387 0)
(2.37584 -0.0937129 0)
(2.13451 -0.136285 0)
(2.04819 -0.228062 0)
(1.9674 -0.250484 0)
(1.81565 -0.282738 0)
(1.66935 -0.121903 0)
(1.52993 -0.213684 0)
(2.32805 0.15056 0)
(2.3262 -0.0210383 0)
(2.06798 -0.0363652 0)
(2.07798 -0.23038 0)
(1.75102 -0.178276 0)
(1.5517 -0.243768 0)
(1.33941 -0.0306319 0)
(1.26478 -0.005515 0)
(2.31056 0.169832 0)
(2.19762 0.0467017 0)
(2.06599 -0.014163 0)
(2.03027 -0.123432 0)
(1.75823 -0.0495231 0)
(1.86199 -0.136001 0)
(1.6252 0.00924066 0)
(1.70924 -0.0605604 0)
(2.22491 0.239287 0)
(2.09586 0.104984 0)
(2.0516 0.0541111 0)
(1.89961 -0.040477 0)
(1.79011 -0.0429532 0)
(1.70984 -0.113931 0)
(1.43718 0.0244915 0)
(1.52885 0.0145244 0)
(2.06019 0.267784 0)
(2.02654 0.126586 0)
(1.93189 0.0892719 0)
(1.84718 -0.00793025 0)
(1.79182 0.00547721 0)
(1.66904 -0.00448175 0)
(1.65023 0.0728627 0)
(1.56416 0.0892278 0)
(1.92468 0.306574 0)
(1.93371 0.174029 0)
(1.80541 0.151124 0)
(1.82754 0.0389777 0)
(1.67356 0.0689153 0)
(1.68027 0.00334208 0)
(1.55922 0.0809287 0)
(1.5775 0.0801662 0)
(1.76624 0.292529 0)
(1.75355 0.178216 0)
(1.72698 0.143418 0)
(1.71051 0.0587811 0)
(1.63612 0.0654427 0)
(1.64281 0.0328822 0)
(1.5516 0.100013 0)
(1.6012 0.112532 0)
(1.58094 0.318007 0)
(1.59042 0.191155 0)
(1.58666 0.174933 0)
(1.60027 0.0890314 0)
(1.55503 0.106964 0)
(1.57276 0.0629283 0)
(1.50851 0.112592 0)
(1.55622 0.112562 0)
(1.35538 0.274946 0)
(1.41867 0.161677 0)
(1.41215 0.150185 0)
(1.46906 0.0615601 0)
(1.42244 0.0851237 0)
(1.47781 0.04296 0)
(1.41489 0.106701 0)
(1.48528 0.0971502 0)
(1.16069 0.268303 0)
(1.17433 0.155702 0)
(1.24633 0.15564 0)
(1.27878 0.0919139 0)
(1.27657 0.103543 0)
(1.33311 0.0595532 0)
(1.30886 0.12188 0)
(1.37569 0.0993699 0)
(0.907393 0.208252 0)
(0.936244 0.11681 0)
(0.997582 0.094351 0)
(1.05942 0.0385906 0)
(1.0589 0.0662977 0)
(1.08567 0.0210269 0)
(1.09709 0.0969451 0)
(1.1576 0.0575614 0)
(0.643063 0.172415 0)
(0.61483 0.109487 0)
(0.763037 0.102481 0)
(0.706307 0.0674025 0)
(0.874791 0.0809007 0)
(0.824606 0.035657 0)
(0.88685 0.100234 0)
(0.878538 0.0589301 0)
(0.378244 0.0837432 0)
(0.286266 0.061525 0)
(0.533701 0.0357867 0)
(0.448008 -0.0188556 0)
(0.530568 0.0163401 0)
(0.52682 0.0135367 0)
(0.639037 0.071623 0)
(0.620817 0.00790703 0)
(0.124905 0.0445264 0)
(-0.0701051 0.0391977 0)
(0.354733 0.0246207 0)
(0.0283349 0.0726641 0)
(0.476943 0.0298942 0)
(0.117957 -0.0184477 0)
(0.470127 0.0695986 0)
(0.39701 0.0315763 0)
(-0.740971 -0.547789 0)
(0.388342 0.149522 0)
(0.739632 0.508927 0)
(0.881648 0.552322 7.40749e-18)
(1.37979 0.742786 5.65576e-19)
(1.58271 0.620637 0)
(2.08005 0.570567 4.4504e-18)
(1.82359 0.415654 2.55914e-19)
(2.04465 0.412218 3.33529e-18)
(1.80423 0.332557 3.21926e-18)
(2.13775 0.366713 0)
(1.87788 0.296165 2.6981e-18)
(2.26589 0.34802 -1.13366e-19)
(1.99795 0.284884 2.2171e-18)
(2.39628 0.34746 2.7002e-20)
(2.15524 0.286903 -2.97867e-20)
(2.52657 0.362097 -6.55972e-19)
(2.35207 0.2914 4.64119e-19)
(2.67946 0.371399 4.57712e-21)
(2.56969 0.123849 9.16568e-22)
(0.151819 -0.530708 0)
(0.645471 0.00211243 0)