/*--------------------------------*- C++ -*----------------------------------*\
| =========                 |                                                 |
| \\      /  F ield         | OpenFOAM: The Open Source CFD Toolbox           |
|  \\    /   O peration     | Version:  2.4.0                                 |
|   \\  /    A nd           | Web:      www.OpenFOAM.org                      |
|    \\/     M anipulation  |                                                 |
\*---------------------------------------------------------------------------*/
FoamFile
{
    version     2.0;
    format      ascii;
    class       volScalarField;
    location    "0.2";
    object      p;
}
// * * * * * * * * * * * * * * * * * * * * * * * * * * * * * * * * * * * * * //

dimensions      [0 2 -2 0 0 0 0];

internalField   nonuniform List<scalar> 
6000
(
-0.261844
0.103481
0.113676
0.156169
0.193134
0.235266
0.274016
0.30499
0.328034
0.345513
0.359795
0.371673
0.38154
0.390011
0.397147
0.4032
0.408329
0.412711
0.416458
0.419658
0.422385
0.424699
0.426646
0.428266
0.42959
0.430642
0.431441
0.432019
0.432372
0.432458
0.43235
0.43203
0.431497
0.430745
0.429763
0.428542
0.427069
0.425326
0.423289
0.420933
0.418224
0.415123
0.41158
0.40754
0.40292
0.397665
0.391588
0.384735
0.37659
0.367559
0.356467
0.343999
0.328977
0.311266
0.288994
0.263169
0.229075
0.189838
0.132185
0.0928535
-0.23084
0.100231
0.113168
0.155099
0.192067
0.234147
0.273049
0.304216
0.327426
0.344997
0.359339
0.371256
0.381283
0.389674
0.396821
0.402905
0.408063
0.412459
0.416219
0.419431
0.422167
0.424487
0.426441
0.428066
0.429393
0.430448
0.431249
0.431801
0.432118
0.432256
0.432152
0.431829
0.431291
0.430531
0.429545
0.428319
0.426838
0.425086
0.42304
0.420672
0.41795
0.414833
0.411272
0.407213
0.40257
0.397288
0.391183
0.384292
0.376111
0.367028
0.355885
0.343354
0.328249
0.310444
0.288055
0.262093
0.22782
0.188438
0.130736
0.0903877
-0.220288
0.0984606
0.113093
0.154953
0.191657
0.233591
0.272562
0.303838
0.327146
0.344764
0.359138
0.371097
0.381114
0.389514
0.396659
0.402762
0.407943
0.412348
0.416113
0.419329
0.422069
0.424392
0.426349
0.427976
0.429305
0.430361
0.431164
0.431732
0.432086
0.432185
0.432076
0.431753
0.431217
0.430462
0.42947
0.42824
0.426756
0.425
0.42295
0.420578
0.417851
0.41473
0.411163
0.407097
0.402447
0.397158
0.391043
0.384145
0.375946
0.366858
0.355688
0.343141
0.328032
0.310183
0.287786
0.261742
0.227504
0.187941
0.130382
0.0896665
-0.20544
0.0967439
0.112921
0.154078
0.191011
0.232815
0.271884
0.303299
0.326732
0.344397
0.358806
0.370795
0.380825
0.389263
0.396432
0.402535
0.407721
0.412136
0.41591
0.419133
0.421879
0.424208
0.426168
0.427799
0.42913
0.430188
0.430991
0.431552
0.431873
0.431997
0.431891
0.431566
0.431022
0.430257
0.429269
0.428038
0.42655
0.42479
0.422733
0.420354
0.417617
0.414485
0.410906
0.406825
0.402158
0.396849
0.390711
0.383784
0.375558
0.366426
0.355217
0.342624
0.327442
0.309515
0.287018
0.260864
0.226486
0.186701
0.129269
0.0880317
-0.191599
0.0950684
0.112836
0.153696
0.190458
0.232105
0.27125
0.302802
0.32637
0.344085
0.35853
0.370543
0.380599
0.389052
0.396233
0.40235
0.407549
0.411974
0.415756
0.418986
0.421738
0.424072
0.426037
0.427671
0.429007
0.430068
0.430874
0.43144
0.431788
0.431897
0.431789
0.431466
0.430928
0.430166
0.429167
0.427929
0.426436
0.42467
0.422608
0.420222
0.417479
0.414339
0.410751
0.406661
0.401983
0.396662
0.390509
0.383568
0.375319
0.366173
0.354929
0.342307
0.327105
0.309117
0.286584
0.260347
0.225931
0.18603
0.128633
0.0868874
-0.178864
0.0935194
0.11282
0.153153
0.189837
0.231413
0.270619
0.302309
0.326027
0.343786
0.358263
0.370298
0.380371
0.388841
0.396034
0.402158
0.407364
0.411798
0.415587
0.418822
0.421579
0.423917
0.425885
0.427522
0.428859
0.429921
0.430728
0.431293
0.431621
0.431738
0.431631
0.431304
0.430755
0.42999
0.428997
0.42776
0.426265
0.424496
0.422429
0.420038
0.417288
0.41414
0.410543
0.406441
0.401751
0.396414
0.390245
0.383282
0.375012
0.365835
0.35456
0.341904
0.32665
0.308601
0.286003
0.259666
0.22518
0.185062
0.127802
0.0857014
-0.166984
0.0921466
0.112866
0.152764
0.189173
0.230743
0.269991
0.301819
0.325703
0.343505
0.358012
0.370067
0.380155
0.388641
0.395844
0.401976
0.40719
0.411632
0.415427
0.418669
0.42143
0.423773
0.425745
0.427386
0.428726
0.429791
0.4306
0.431168
0.43151
0.431623
0.431517
0.431192
0.430654
0.429882
0.428879
0.427635
0.426135
0.424359
0.422286
0.419888
0.417131
0.413975
0.410369
0.406256
0.401554
0.396204
0.390018
0.383038
0.374745
0.365546
0.354238
0.341549
0.326262
0.308152
0.285505
0.259085
0.224537
0.184299
0.127117
0.0845956
-0.15578
0.0909606
0.112973
0.152409
0.188513
0.230092
0.269369
0.301336
0.325397
0.343242
0.357779
0.369851
0.379952
0.388451
0.395663
0.401801
0.407022
0.411471
0.415272
0.418519
0.421285
0.423631
0.425607
0.42725
0.428593
0.429659
0.430469
0.431037
0.431371
0.431485
0.431377
0.431049
0.430495
0.42973
0.428731
0.427487
0.425985
0.424206
0.422129
0.419726
0.416963
0.413799
0.410184
0.406062
0.401347
0.395984
0.389783
0.382784
0.374471
0.365247
0.353909
0.341189
0.325861
0.307695
0.284996
0.258488
0.223887
0.183486
0.126406
0.0835424
-0.145165
0.0899563
0.11314
0.152106
0.187887
0.229446
0.268758
0.300861
0.325113
0.342997
0.357563
0.369651
0.379763
0.388272
0.395491
0.401634
0.406861
0.411316
0.415122
0.418373
0.421144
0.423494
0.425472
0.427118
0.428463
0.429531
0.430342
0.430912
0.431251
0.431365
0.431258
0.430931
0.430393
0.429614
0.428607
0.427357
0.42585
0.424066
0.421984
0.419574
0.416804
0.413632
0.410008
0.405876
0.401149
0.395772
0.389556
0.38254
0.374205
0.364958
0.353589
0.340839
0.325473
0.30725
0.284502
0.25791
0.223254
0.182717
0.125738
0.0825366
-0.135085
0.0891257
0.113364
0.151861
0.187337
0.228781
0.268158
0.300396
0.324849
0.342771
0.357365
0.369467
0.379586
0.388104
0.395328
0.401475
0.406707
0.411167
0.414977
0.418232
0.421006
0.42336
0.425341
0.42699
0.428336
0.429406
0.430219
0.430789
0.431127
0.43124
0.431131
0.430802
0.430245
0.429478
0.428473
0.427222
0.425712
0.423925
0.421838
0.419423
0.416646
0.413467
0.409835
0.405692
0.400955
0.395565
0.389333
0.3823
0.373944
0.364675
0.353276
0.340496
0.325092
0.306813
0.284019
0.257344
0.222636
0.181968
0.125082
0.0815718
-0.125492
0.0884615
0.113644
0.151672
0.186881
0.228105
0.26757
0.299941
0.324608
0.342563
0.357185
0.369298
0.379423
0.387947
0.395175
0.401324
0.406559
0.411023
0.414838
0.418096
0.420873
0.42323
0.425214
0.426865
0.428213
0.429285
0.430098
0.430669
0.431007
0.431121
0.431013
0.430684
0.430141
0.429359
0.428349
0.427094
0.42558
0.423789
0.421697
0.419276
0.416493
0.413306
0.409665
0.405513
0.400765
0.395362
0.389115
0.382065
0.373689
0.364397
0.352969
0.34016
0.324719
0.306386
0.283546
0.256791
0.222033
0.181238
0.124446
0.0806461
-0.116342
0.0879561
0.11398
0.151542
0.186491
0.227455
0.267003
0.299497
0.324391
0.342374
0.357022
0.369144
0.379273
0.387801
0.39503
0.401181
0.406418
0.410886
0.414703
0.417965
0.420745
0.423104
0.42509
0.426743
0.428093
0.429166
0.42998
0.430552
0.430891
0.431004
0.430895
0.430564
0.430008
0.429235
0.428224
0.426967
0.42545
0.423655
0.421558
0.419132
0.416343
0.413149
0.409499
0.405338
0.400578
0.395163
0.388902
0.381835
0.37344
0.364126
0.352669
0.339831
0.324353
0.305968
0.283084
0.25625
0.221444
0.180529
0.123829
0.0797577
-0.107596
0.0876016
0.114371
0.151474
0.186157
0.226848
0.266464
0.299069
0.324199
0.342203
0.356877
0.369006
0.379137
0.387666
0.394895
0.401046
0.406285
0.410754
0.414574
0.417838
0.42062
0.422982
0.42497
0.426624
0.427976
0.42905
0.429866
0.430438
0.430777
0.43089
0.430781
0.43045
0.429901
0.429118
0.428104
0.426844
0.425323
0.423524
0.421423
0.418991
0.416196
0.412995
0.409338
0.405167
0.400397
0.394969
0.388694
0.38161
0.373196
0.36386
0.352376
0.33951
0.323996
0.305558
0.282633
0.255722
0.220869
0.179841
0.12323
0.078905
-0.0992195
0.0873899
0.114819
0.151471
0.185884
0.226288
0.265956
0.298657
0.324035
0.342051
0.356749
0.368884
0.379013
0.387541
0.394769
0.400919
0.406158
0.410629
0.41445
0.417716
0.4205
0.422863
0.424853
0.42651
0.427863
0.428938
0.429754
0.430327
0.430666
0.430779
0.430669
0.430337
0.429781
0.429002
0.427986
0.426723
0.4252
0.423396
0.421291
0.418854
0.416053
0.412845
0.409179
0.405
0.400219
0.394779
0.38849
0.381391
0.372957
0.363601
0.352089
0.339196
0.323646
0.305159
0.282192
0.255206
0.220309
0.179172
0.122649
0.0780869
-0.0911827
0.0873131
0.115321
0.151534
0.185677
0.225782
0.265486
0.298261
0.323899
0.341917
0.356639
0.368777
0.378903
0.387428
0.394653
0.4008
0.406038
0.410509
0.414332
0.417599
0.420385
0.422749
0.424741
0.426398
0.427753
0.428829
0.429646
0.430218
0.430558
0.43067
0.43056
0.430228
0.429674
0.42889
0.427871
0.426606
0.425079
0.423272
0.421162
0.41872
0.415913
0.412698
0.409025
0.404837
0.400046
0.394594
0.388292
0.381177
0.372725
0.363348
0.35181
0.33889
0.323305
0.304768
0.281763
0.254704
0.219764
0.178524
0.122086
0.0773022
-0.0834599
0.087363
0.11588
0.151665
0.185538
0.225332
0.265059
0.297879
0.323796
0.341802
0.356547
0.368685
0.378806
0.387326
0.394546
0.400689
0.405925
0.410396
0.414218
0.417486
0.420273
0.422639
0.424632
0.42629
0.427646
0.428723
0.42954
0.430113
0.430453
0.430565
0.430454
0.430121
0.429564
0.42878
0.427759
0.426491
0.424961
0.423151
0.421036
0.41859
0.415777
0.412556
0.408875
0.404678
0.399877
0.394414
0.388098
0.380968
0.372498
0.363101
0.351537
0.338592
0.322972
0.304387
0.281345
0.254214
0.219233
0.177896
0.121541
0.07655
-0.0760287
0.0875316
0.116494
0.151864
0.185473
0.22494
0.264682
0.297519
0.323717
0.341705
0.356472
0.368609
0.378722
0.387234
0.394448
0.400586
0.405819
0.410288
0.41411
0.417378
0.420166
0.422532
0.424526
0.426186
0.427542
0.42862
0.429438
0.430011
0.43035
0.430463
0.430351
0.430018
0.42946
0.428673
0.42765
0.42638
0.424847
0.423033
0.420914
0.418463
0.415644
0.412417
0.408729
0.404523
0.399712
0.394238
0.38791
0.380765
0.372277
0.362861
0.351271
0.338301
0.322647
0.304016
0.280937
0.253738
0.218718
0.177288
0.121013
0.0758293
-0.0688687
0.087811
0.117164
0.152133
0.185482
0.22461
0.264363
0.297211
0.323631
0.341627
0.356415
0.368548
0.378651
0.387154
0.394359
0.400491
0.405719
0.410187
0.414008
0.417275
0.420063
0.42243
0.424425
0.426085
0.427442
0.42852
0.429339
0.429912
0.430251
0.430363
0.430251
0.429917
0.429358
0.428569
0.427544
0.426272
0.424736
0.422918
0.420795
0.418339
0.415515
0.412282
0.408586
0.404372
0.399552
0.394067
0.387726
0.380567
0.372062
0.362627
0.351012
0.338018
0.322331
0.303654
0.280541
0.253274
0.218216
0.1767
0.120504
0.075139
-0.0619619
0.0881939
0.117887
0.152472
0.185567
0.224346
0.264104
0.296967
0.323521
0.341569
0.356376
0.368503
0.378593
0.387084
0.39428
0.400404
0.405627
0.410091
0.41391
0.417177
0.419964
0.422332
0.424327
0.425987
0.427345
0.428424
0.429243
0.429816
0.430155
0.430267
0.430154
0.429819
0.429259
0.428469
0.427442
0.426166
0.424628
0.422807
0.42068
0.418219
0.41539
0.41215
0.408448
0.404226
0.399397
0.393901
0.387548
0.380374
0.371853
0.3624
0.35076
0.337743
0.322023
0.303303
0.280157
0.252824
0.21773
0.176131
0.120011
0.0744783
-0.0552918
0.088673
0.118662
0.152879
0.185727
0.224155
0.263895
0.296775
0.323407
0.341533
0.356355
0.368473
0.378548
0.387026
0.39421
0.400324
0.405542
0.410001
0.413818
0.417084
0.41987
0.422237
0.424232
0.425894
0.427252
0.42833
0.42915
0.429723
0.430062
0.430173
0.43006
0.429724
0.429163
0.428371
0.427342
0.426064
0.424523
0.422698
0.420568
0.418103
0.415268
0.412023
0.408314
0.404084
0.399246
0.39374
0.387375
0.380187
0.371649
0.362179
0.350516
0.337475
0.321724
0.302961
0.279783
0.252388
0.217259
0.175581
0.119536
0.0738464
-0.0488436
0.0892414
0.119488
0.153352
0.185962
0.224039
0.263726
0.296645
0.32329
0.34152
0.356352
0.368457
0.378516
0.386978
0.394149
0.400253
0.405463
0.409918
0.413732
0.416995
0.41978
0.422147
0.424142
0.425803
0.427161
0.42824
0.42906
0.429633
0.429972
0.430083
0.429969
0.429632
0.42907
0.428276
0.427245
0.425965
0.424421
0.422594
0.420459
0.41799
0.41515
0.411899
0.408183
0.403946
0.399099
0.393583
0.387206
0.380006
0.371452
0.361964
0.350278
0.337216
0.321434
0.302629
0.279421
0.251965
0.216803
0.175051
0.119078
0.0732423
-0.0426041
0.0898929
0.120361
0.15389
0.186268
0.223999
0.263597
0.296595
0.323157
0.341528
0.356367
0.368457
0.378497
0.386941
0.394097
0.40019
0.405391
0.40984
0.41365
0.416911
0.419695
0.422061
0.424055
0.425716
0.427075
0.428154
0.428973
0.429547
0.429885
0.429995
0.429881
0.429543
0.428979
0.428185
0.427152
0.42587
0.424323
0.422492
0.420354
0.41788
0.415036
0.411779
0.408057
0.403812
0.398957
0.393431
0.387044
0.37983
0.371261
0.361756
0.350048
0.336965
0.321153
0.302307
0.279071
0.251556
0.216361
0.174539
0.118637
0.0726654
-0.036561
0.0906215
0.121279
0.154488
0.186645
0.224034
0.263505
0.296639
0.323001
0.341558
0.3564
0.368471
0.37849
0.386915
0.394054
0.400134
0.405326
0.409769
0.413574
0.416832
0.419614
0.421979
0.423972
0.425633
0.426991
0.42807
0.428889
0.429463
0.429801
0.429911
0.429796
0.429458
0.428892
0.428096
0.427061
0.425777
0.424228
0.422394
0.420252
0.417775
0.414926
0.411663
0.407935
0.403683
0.39882
0.393285
0.386886
0.37966
0.371076
0.361555
0.349825
0.336722
0.32088
0.301996
0.278732
0.25116
0.215935
0.174047
0.118213
0.0721148
-0.0307034
0.0914214
0.122241
0.155145
0.187089
0.22414
0.263466
0.296756
0.322832
0.34161
0.356451
0.368501
0.378496
0.386899
0.394021
0.400086
0.405268
0.409703
0.413503
0.416757
0.419537
0.4219
0.423893
0.425554
0.426911
0.42799
0.428809
0.429382
0.42972
0.42983
0.429714
0.429375
0.428808
0.42801
0.426974
0.425688
0.424136
0.422299
0.420154
0.417672
0.414819
0.411551
0.407817
0.403558
0.398687
0.393143
0.386734
0.379496
0.370898
0.361361
0.34961
0.336487
0.320616
0.301695
0.278405
0.250778
0.215523
0.173574
0.117806
0.0715898
-0.0250223
0.0922879
0.123244
0.155857
0.187601
0.224313
0.263489
0.296913
0.322678
0.341682
0.35652
0.368545
0.378515
0.386894
0.393996
0.400046
0.405216
0.409643
0.413438
0.416688
0.419465
0.421826
0.423818
0.425477
0.426835
0.427913
0.428732
0.429305
0.429642
0.429751
0.429635
0.429295
0.428728
0.427928
0.42689
0.425601
0.424047
0.422207
0.420059
0.417574
0.414716
0.411443
0.407703
0.403438
0.398559
0.393006
0.386587
0.379337
0.370725
0.361173
0.349402
0.336261
0.320362
0.301404
0.278089
0.25041
0.215127
0.173119
0.117415
0.0710898
-0.0195065
0.0932149
0.124287
0.156621
0.188178
0.224553
0.263566
0.297111
0.322551
0.341774
0.356606
0.368603
0.378545
0.386899
0.39398
0.400014
0.405171
0.409589
0.413377
0.416623
0.419397
0.421756
0.423746
0.425405
0.426762
0.42784
0.428658
0.42923
0.429568
0.429676
0.429559
0.429218
0.42865
0.427849
0.426809
0.425518
0.423962
0.422119
0.419968
0.417479
0.414617
0.411339
0.407594
0.403322
0.398436
0.392874
0.386445
0.379184
0.370559
0.360993
0.349202
0.336042
0.320117
0.301123
0.277785
0.250056
0.214746
0.172683
0.117041
0.070614
-0.0141429
0.0941933
0.125369
0.157436
0.188816
0.224862
0.263689
0.297352
0.322453
0.341884
0.35671
0.368676
0.378588
0.386915
0.393973
0.399989
0.405133
0.409541
0.413322
0.416563
0.419333
0.42169
0.423679
0.425336
0.426692
0.427769
0.428587
0.429159
0.429496
0.429604
0.429486
0.429145
0.428575
0.427772
0.426731
0.425439
0.42388
0.422035
0.41988
0.417388
0.414521
0.411239
0.407488
0.40321
0.398317
0.392747
0.386309
0.379037
0.370399
0.360819
0.349009
0.335832
0.31988
0.300853
0.277493
0.249716
0.21438
0.172265
0.116683
0.0701619
-0.00892866
0.0952224
0.126489
0.158299
0.189514
0.225239
0.263856
0.297635
0.32239
0.342014
0.356831
0.368764
0.378643
0.38694
0.393975
0.399971
0.405101
0.409499
0.413272
0.416507
0.419274
0.421628
0.423614
0.425271
0.426626
0.427702
0.42852
0.429091
0.429427
0.429535
0.429416
0.429074
0.428503
0.427699
0.426656
0.425362
0.423801
0.421953
0.419796
0.4173
0.41443
0.411143
0.407387
0.403103
0.398203
0.392626
0.386178
0.378896
0.370246
0.360652
0.348824
0.335631
0.319653
0.300594
0.277213
0.249389
0.214029
0.171866
0.116341
0.0697329
-0.00386371
0.0963041
0.127644
0.159209
0.190266
0.225685
0.264073
0.297957
0.322359
0.342162
0.356969
0.368866
0.37871
0.386976
0.393985
0.399962
0.405076
0.409463
0.413227
0.416456
0.419219
0.42157
0.423554
0.425209
0.426563
0.427639
0.428456
0.429026
0.429362
0.429469
0.42935
0.429007
0.428435
0.427629
0.426585
0.425289
0.423726
0.421876
0.419715
0.417216
0.414342
0.411051
0.40729
0.403
0.398094
0.392509
0.386053
0.378761
0.370099
0.360492
0.348646
0.335438
0.319436
0.300345
0.276945
0.249077
0.213693
0.171484
0.116016
0.0693264
0.00105883
0.0974336
0.12883
0.160162
0.19107
0.226194
0.264339
0.298292
0.322388
0.342329
0.357124
0.368982
0.378788
0.387022
0.394004
0.399959
0.405058
0.409432
0.413188
0.41641
0.419168
0.421515
0.423498
0.425151
0.426503
0.427578
0.428395
0.428965
0.4293
0.429406
0.429286
0.428942
0.428369
0.427562
0.426516
0.425219
0.423654
0.421801
0.419638
0.417136
0.414258
0.410963
0.407197
0.402902
0.397989
0.392397
0.385933
0.378631
0.369958
0.360339
0.348476
0.335253
0.319228
0.300107
0.276689
0.248779
0.213372
0.171121
0.115706
0.0689418
0.00584521
0.0986068
0.130044
0.161155
0.191924
0.226763
0.264653
0.298592
0.322524
0.342514
0.357294
0.369111
0.378878
0.387077
0.394031
0.399964
0.405045
0.409407
0.413153
0.416369
0.419121
0.421465
0.423445
0.425096
0.426447
0.427521
0.428337
0.428906
0.429241
0.429346
0.429226
0.428881
0.428307
0.427499
0.426451
0.425152
0.423585
0.42173
0.419565
0.417059
0.414178
0.410879
0.407109
0.402809
0.39789
0.392291
0.385819
0.378508
0.369824
0.360193
0.348314
0.335077
0.319029
0.29988
0.276445
0.248495
0.213066
0.170776
0.115412
0.0685787
0.0105007
0.0998199
0.131285
0.162185
0.192824
0.227388
0.265013
0.298843
0.322779
0.34272
0.35748
0.369255
0.37898
0.387142
0.394066
0.399976
0.40504
0.409388
0.413124
0.416332
0.419079
0.421419
0.423396
0.425045
0.426395
0.427468
0.428282
0.428851
0.429185
0.429289
0.429168
0.428823
0.428248
0.427438
0.426389
0.425089
0.42352
0.421663
0.419495
0.416987
0.414102
0.4108
0.407025
0.40272
0.397795
0.39219
0.38571
0.378391
0.369696
0.360054
0.34816
0.33491
0.31884
0.299664
0.276213
0.248225
0.212776
0.170449
0.115133
0.0682366
0.0150304
0.101069
0.132549
0.163249
0.193768
0.228067
0.265421
0.299067
0.323126
0.342949
0.357682
0.369411
0.379092
0.387217
0.39411
0.399995
0.40504
0.409374
0.4131
0.4163
0.419041
0.421377
0.423351
0.424998
0.426346
0.427417
0.428231
0.428799
0.429132
0.429235
0.429114
0.428768
0.428192
0.427381
0.426331
0.425029
0.423458
0.421599
0.419429
0.416918
0.41403
0.410724
0.406945
0.402635
0.397705
0.392094
0.385607
0.378279
0.369575
0.359922
0.348013
0.334751
0.31866
0.299458
0.275993
0.247969
0.212501
0.17014
0.11487
0.0679151
0.0194388
0.102351
0.133834
0.164344
0.194751
0.228798
0.265876
0.299315
0.323511
0.343202
0.3579
0.369581
0.379216
0.387301
0.394161
0.400021
0.405046
0.409365
0.41308
0.416272
0.419008
0.421339
0.42331
0.424954
0.4263
0.42737
0.428183
0.42875
0.429082
0.429185
0.429063
0.428717
0.428139
0.427326
0.426275
0.424972
0.423399
0.421539
0.419366
0.416852
0.413962
0.410652
0.40687
0.402555
0.39762
0.392003
0.385509
0.378174
0.36946
0.359797
0.347875
0.334601
0.31849
0.299264
0.275785
0.247727
0.212241
0.169848
0.114622
0.0676137
0.0237303
0.103663
0.135137
0.165468
0.195771
0.229577
0.266375
0.299609
0.323911
0.343476
0.358133
0.369764
0.37935
0.387394
0.394221
0.400054
0.405059
0.409363
0.413066
0.416249
0.418978
0.421305
0.423272
0.424914
0.426258
0.427327
0.428138
0.428704
0.429035
0.429138
0.429015
0.428668
0.428089
0.427275
0.426223
0.424918
0.423344
0.421482
0.419307
0.416791
0.413898
0.410585
0.406799
0.40248
0.39754
0.391917
0.385417
0.378074
0.369352
0.35968
0.347744
0.33446
0.318329
0.299081
0.275589
0.2475
0.211996
0.169574
0.11439
0.067332
0.0279091
0.105001
0.136456
0.166618
0.196825
0.230402
0.266919
0.299946
0.324328
0.343772
0.35838
0.369959
0.379495
0.387496
0.394288
0.400094
0.405078
0.409365
0.413057
0.416231
0.418953
0.421275
0.423238
0.424877
0.426219
0.427286
0.428096
0.428661
0.428992
0.429093
0.42897
0.428623
0.428042
0.427227
0.426174
0.424868
0.423293
0.421428
0.419252
0.416733
0.413838
0.410522
0.406732
0.402409
0.397465
0.391837
0.385331
0.377981
0.369251
0.35957
0.347622
0.334327
0.318179
0.298909
0.275406
0.247286
0.211766
0.169317
0.114172
0.0670696
0.0319789
0.106363
0.13779
0.167791
0.19791
0.231269
0.267505
0.300325
0.324762
0.344088
0.358643
0.370166
0.37965
0.387607
0.394363
0.400141
0.405103
0.409373
0.413052
0.416217
0.418932
0.421248
0.423208
0.424844
0.426184
0.427249
0.428058
0.428622
0.428952
0.429052
0.428929
0.428581
0.427999
0.427183
0.426129
0.424822
0.423245
0.421379
0.4192
0.41668
0.413781
0.410463
0.40667
0.402343
0.397395
0.391762
0.38525
0.377894
0.369156
0.359467
0.347507
0.334203
0.318038
0.298748
0.275235
0.247087
0.211552
0.169078
0.11397
0.0668263
0.0359433
0.107745
0.139136
0.168985
0.199024
0.232176
0.268133
0.300743
0.325212
0.344424
0.358919
0.370385
0.379815
0.387726
0.394445
0.400194
0.405133
0.409387
0.413052
0.416208
0.418915
0.421226
0.423181
0.424814
0.426152
0.427216
0.428023
0.428586
0.428915
0.429014
0.42889
0.428542
0.427959
0.427141
0.426086
0.424778
0.4232
0.421332
0.419152
0.41663
0.413729
0.410408
0.406612
0.402282
0.39733
0.391692
0.385175
0.377813
0.369068
0.359371
0.3474
0.334088
0.317907
0.298598
0.275076
0.246902
0.211353
0.168856
0.113782
0.0666017
0.0398056
0.109146
0.140492
0.170199
0.200163
0.23312
0.2688
0.301199
0.325679
0.344778
0.35921
0.370616
0.379989
0.387854
0.394535
0.400253
0.40517
0.409405
0.413058
0.416203
0.418903
0.421208
0.423159
0.424788
0.426124
0.427185
0.427991
0.428553
0.428881
0.428979
0.428855
0.428506
0.427921
0.427103
0.426047
0.424738
0.423159
0.42129
0.419108
0.416583
0.413681
0.410357
0.406558
0.402226
0.39727
0.391628
0.385106
0.377738
0.368986
0.359282
0.347302
0.333982
0.317786
0.298459
0.274929
0.246732
0.211169
0.168652
0.11361
0.0663955
0.0435691
0.110563
0.141857
0.171429
0.201326
0.234099
0.269505
0.301692
0.326164
0.345151
0.359514
0.370857
0.380173
0.387989
0.394632
0.400319
0.405212
0.409429
0.413067
0.416202
0.418894
0.421193
0.42314
0.424766
0.426099
0.427158
0.427963
0.428523
0.42885
0.428947
0.428823
0.428474
0.427887
0.427068
0.426011
0.424701
0.423121
0.42125
0.419067
0.416541
0.413636
0.41031
0.406509
0.402174
0.397214
0.391568
0.385043
0.377669
0.368912
0.359201
0.347212
0.333885
0.317674
0.298332
0.274794
0.246575
0.211
0.168465
0.113452
0.0662074
0.0472368
0.111992
0.143228
0.172675
0.202509
0.235108
0.270245
0.302219
0.326665
0.345541
0.359832
0.37111
0.380367
0.388133
0.394735
0.400392
0.405259
0.409458
0.413082
0.416206
0.418889
0.421182
0.423124
0.424747
0.426077
0.427135
0.427938
0.428496
0.428822
0.428919
0.428794
0.428445
0.427856
0.427036
0.425979
0.424668
0.423086
0.421215
0.41903
0.416503
0.413596
0.410268
0.406465
0.402126
0.397164
0.391515
0.384985
0.377607
0.368844
0.359127
0.347129
0.333796
0.317573
0.298216
0.274672
0.246433
0.210847
0.168295
0.113309
0.0660372
0.0508115
0.113433
0.144606
0.173934
0.20371
0.236147
0.271018
0.302779
0.327183
0.345948
0.360162
0.371373
0.380569
0.388285
0.394846
0.40047
0.405312
0.409492
0.413101
0.416214
0.418889
0.421176
0.423112
0.424732
0.426059
0.427115
0.427916
0.428473
0.428798
0.428893
0.428769
0.428419
0.427829
0.427008
0.42595
0.424638
0.423055
0.421183
0.418997
0.416468
0.41356
0.41023
0.406424
0.402084
0.397119
0.391466
0.384933
0.377551
0.368782
0.359061
0.347055
0.333716
0.317482
0.298112
0.274562
0.246305
0.210709
0.168142
0.11318
0.0658846
0.054296
0.114883
0.145988
0.175205
0.204928
0.237211
0.271824
0.30337
0.327718
0.346371
0.360505
0.371646
0.38078
0.388444
0.394963
0.400554
0.405371
0.409531
0.413125
0.416226
0.418893
0.421172
0.423104
0.42472
0.426044
0.427098
0.427897
0.428453
0.428777
0.428871
0.428747
0.428396
0.427804
0.426982
0.425924
0.424612
0.423028
0.421154
0.418967
0.416437
0.413528
0.410196
0.406389
0.402046
0.397078
0.391423
0.384886
0.3775
0.368728
0.359001
0.346989
0.333645
0.3174
0.298019
0.274464
0.246192
0.210586
0.168006
0.113066
0.0657495
0.0576926
0.116341
0.147372
0.176486
0.20616
0.2383
0.272659
0.303991
0.328269
0.34681
0.36086
0.371929
0.380999
0.38861
0.395087
0.400644
0.405435
0.409575
0.413153
0.416242
0.4189
0.421173
0.4231
0.424711
0.426033
0.427084
0.427881
0.428436
0.428759
0.428851
0.428728
0.428376
0.427783
0.42696
0.425901
0.424589
0.423004
0.42113
0.418941
0.41641
0.413499
0.410166
0.406357
0.402013
0.397043
0.391385
0.384846
0.377457
0.36868
0.358949
0.346932
0.333583
0.317329
0.297938
0.274378
0.246092
0.210478
0.167887
0.112966
0.0656317
0.0610039
0.117803
0.148759
0.177775
0.207405
0.239409
0.273521
0.304639
0.328836
0.347262
0.361226
0.372221
0.381227
0.388783
0.395217
0.40074
0.405504
0.409623
0.413186
0.416263
0.418912
0.421178
0.423099
0.424707
0.426025
0.427074
0.427869
0.428422
0.428744
0.428835
0.428713
0.428359
0.427764
0.426941
0.425882
0.424569
0.422984
0.421108
0.418919
0.416387
0.413475
0.410141
0.406331
0.401984
0.397013
0.391353
0.384811
0.377419
0.368639
0.358905
0.346882
0.33353
0.317268
0.297868
0.274305
0.246007
0.210386
0.167786
0.11288
0.065531
0.0642321
0.119269
0.150146
0.179071
0.20866
0.240538
0.274409
0.305314
0.329419
0.347729
0.361603
0.372522
0.381462
0.388964
0.395353
0.400841
0.405578
0.409676
0.413223
0.416288
0.418927
0.421186
0.423102
0.424705
0.42602
0.427067
0.42786
0.428412
0.428732
0.428821
0.428702
0.428346
0.427749
0.426926
0.425866
0.424552
0.422967
0.421091
0.418901
0.416368
0.413455
0.41012
0.406308
0.401961
0.396988
0.391326
0.384782
0.377388
0.368605
0.358868
0.346841
0.333486
0.317217
0.297809
0.274244
0.245936
0.21031
0.167701
0.112809
0.0654473
0.0673793
0.120737
0.151532
0.180373
0.209924
0.241684
0.275321
0.306013
0.330017
0.348209
0.361991
0.372832
0.381704
0.38915
0.395495
0.400948
0.405657
0.409734
0.413265
0.416317
0.418947
0.421198
0.423109
0.424707
0.426019
0.427063
0.427854
0.428405
0.428723
0.428813
0.428693
0.428334
0.427737
0.426913
0.425854
0.424539
0.422953
0.421077
0.418886
0.416353
0.413439
0.410103
0.40629
0.401942
0.396967
0.391304
0.384759
0.377363
0.368578
0.358838
0.346808
0.33345
0.317176
0.297763
0.274195
0.245879
0.210248
0.167633
0.112752
0.0653804
0.0704477
0.122205
0.152917
0.181679
0.211195
0.242844
0.276254
0.306734
0.330628
0.348701
0.362388
0.37315
0.381954
0.389344
0.395643
0.40106
0.405741
0.409797
0.413311
0.41635
0.41897
0.421214
0.423119
0.424713
0.426021
0.427062
0.427852
0.428401
0.428717
0.428811
0.428684
0.428326
0.427728
0.426904
0.425845
0.42453
0.422943
0.421066
0.418875
0.416341
0.413427
0.41009
0.406277
0.401927
0.396952
0.391288
0.384741
0.377344
0.368558
0.358816
0.346783
0.333423
0.317146
0.297728
0.274158
0.245836
0.210202
0.167582
0.11271
0.0653304
0.073439
0.123671
0.1543
0.182988
0.212472
0.244018
0.277208
0.307478
0.331254
0.349205
0.362795
0.373476
0.38221
0.389543
0.395796
0.401177
0.40583
0.409864
0.413361
0.416387
0.418997
0.421233
0.423132
0.424722
0.426027
0.427065
0.427853
0.4284
0.428715
0.428811
0.428679
0.428321
0.427723
0.426899
0.425839
0.424524
0.422937
0.421059
0.418868
0.416334
0.413419
0.410082
0.406268
0.401918
0.396942
0.391277
0.38473
0.377331
0.368544
0.358801
0.346766
0.333406
0.317125
0.297705
0.274134
0.245808
0.210171
0.167548
0.112681
0.065297
0.0763551
0.125136
0.155679
0.1843
0.213754
0.245202
0.278179
0.30824
0.331893
0.349721
0.363211
0.373809
0.382473
0.389748
0.395955
0.401299
0.405924
0.409935
0.413415
0.416428
0.419028
0.421256
0.423149
0.424734
0.426036
0.427072
0.427857
0.428403
0.428716
0.428813
0.428677
0.428319
0.427721
0.426896
0.425836
0.424521
0.422934
0.421056
0.418865
0.41633
0.413415
0.410078
0.406264
0.401913
0.396937
0.391272
0.384724
0.377325
0.368537
0.358794
0.346758
0.333397
0.317115
0.297693
0.274122
0.245794
0.210156
0.167531
0.112667
0.0652804
0.0791977
0.126596
0.157055
0.185612
0.215039
0.246396
0.279167
0.309021
0.332543
0.350246
0.363636
0.374149
0.382742
0.389958
0.396119
0.401426
0.406022
0.410011
0.413473
0.416473
0.419062
0.421283
0.42317
0.42475
0.426048
0.427081
0.427864
0.428409
0.42872
0.428817
0.42868
0.428321
0.427722
0.426897
0.425837
0.424522
0.422934
0.421056
0.418865
0.41633
0.413415
0.410078
0.406264
0.401913
0.396937
0.391272
0.384724
0.377325
0.368537
0.358794
0.346758
0.333397
0.317115
0.297693
0.274122
0.245794
0.210156
0.167531
0.112667
0.0652804
0.0819684
0.12805
0.158426
0.186925
0.216326
0.247597
0.28017
0.309819
0.333206
0.350781
0.364068
0.374496
0.383017
0.390174
0.396287
0.401558
0.406124
0.410091
0.413535
0.416522
0.419101
0.421313
0.423194
0.424769
0.426064
0.427094
0.427874
0.428417
0.428728
0.428823
0.428685
0.428326
0.427727
0.426902
0.425841
0.424526
0.422938
0.42106
0.418869
0.416334
0.41342
0.410082
0.406268
0.401918
0.396942
0.391277
0.38473
0.377331
0.368544
0.358801
0.346766
0.333406
0.317125
0.297705
0.274134
0.245808
0.210171
0.167548
0.112681
0.065297
0.0846686
0.129498
0.159792
0.188237
0.217614
0.248805
0.281186
0.310632
0.333878
0.351326
0.364508
0.374849
0.383297
0.390396
0.396461
0.401694
0.406231
0.410174
0.413602
0.416575
0.419143
0.421347
0.423221
0.424792
0.426082
0.42711
0.427888
0.428429
0.428738
0.428831
0.428695
0.428335
0.427735
0.426909
0.425849
0.424533
0.422945
0.421068
0.418877
0.416342
0.413428
0.410091
0.406277
0.401928
0.396952
0.391288
0.384741
0.377344
0.368558
0.358816
0.346783
0.333423
0.317146
0.297728
0.274158
0.245836
0.210202
0.167582
0.11271
0.0653303
0.0872997
0.130939
0.161151
0.189547
0.218902
0.250018
0.282213
0.311459
0.334561
0.351878
0.364954
0.375208
0.383583
0.390622
0.396639
0.401834
0.406342
0.410262
0.413672
0.416631
0.419188
0.421385
0.423252
0.424818
0.426105
0.427129
0.427905
0.428444
0.428753
0.42884
0.428708
0.428347
0.427747
0.426921
0.42586
0.424544
0.422956
0.421079
0.418888
0.416354
0.41344
0.410104
0.406291
0.401942
0.396968
0.391304
0.384759
0.377363
0.368578
0.358838
0.346808
0.33345
0.317176
0.297763
0.274195
0.245879
0.210248
0.167633
0.112752
0.0653803
0.089863
0.132371
0.162504
0.190855
0.220189
0.251234
0.28325
0.312299
0.335253
0.352438
0.365407
0.375572
0.383873
0.390852
0.396822
0.401979
0.406457
0.410354
0.413746
0.416691
0.419238