/*--------------------------------*- C++ -*----------------------------------*\
| =========                 |                                                 |
| \\      /  F ield         | OpenFOAM: The Open Source CFD Toolbox           |
|  \\    /   O peration     | Version:  2.4.0                                 |
|   \\  /    A nd           | Web:      www.OpenFOAM.org                      |
|    \\/     M anipulation  |                                                 |
\*---------------------------------------------------------------------------*/
FoamFile
{
    version     2.0;
    format      ascii;
    class       volScalarField;
    location    "0.82";
    object      k;
}
// * * * * * * * * * * * * * * * * * * * * * * * * * * * * * * * * * * * * * //

dimensions      [0 2 -2 0 0 0 0];

internalField   nonuniform List<scalar> 
6000
(
0.00510096
0.00645279
0.00771268
0.00881052
0.00970874
0.0103981
0.0108901
0.0112091
0.0113855
0.0114508
0.0114338
0.0113592
0.011247
0.0111127
0.0109678
0.0108206
0.0106769
0.0105404
0.0104134
0.010297
0.0101915
0.0100967
0.0100119
0.0099362
0.0098686
0.00980792
0.00975303
0.0097028
0.0096562
0.00961231
0.0095703
0.00952952
0.00948943
0.00944963
0.00940982
0.00936981
0.00932944
0.00928858
0.00924707
0.00920472
0.00916124
0.00911621
0.0090691
0.00901915
0.0089654
0.00890657
0.00884102
0.00876662
0.00868063
0.00857956
0.0084589
0.00831289
0.00813422
0.00791342
0.00763938
0.00729647
0.00687596
0.00634594
0.00578416
0.00501698
0.0035494
0.00344488
0.00340553
0.00341541
0.00345868
0.00352242
0.00359887
0.00368417
0.00377674
0.00387636
0.00398356
0.0040991
0.00422365
0.00435754
0.00450068
0.00465252
0.00481201
0.00497772
0.00514784
0.00532029
0.00549283
0.00566319
0.00582911
0.00598852
0.00613959
0.00628084
0.00641115
0.00652982
0.00663653
0.00673139
0.00681481
0.00688748
0.0069503
0.00700428
0.00705048
0.00708996
0.00712374
0.00715274
0.00717781
0.00719974
0.00721925
0.00723701
0.0072537
0.00727004
0.00728679
0.00730487
0.00732537
0.0073497
0.00737969
0.00741781
0.00746749
0.00753362
0.0076233
0.00774731
0.00792199
0.008174
0.008544
0.00910162
0.00990572
0.0118112
0.00348321
0.00325648
0.00306425
0.00290018
0.00275854
0.00263419
0.00252332
0.00242364
0.00233403
0.00225413
0.00218405
0.00212418
0.00207497
0.00203685
0.00201019
0.00199526
0.00199224
0.0020012
0.00202211
0.00205485
0.00209918
0.00215476
0.00222113
0.0022977
0.00238377
0.00247851
0.00258097
0.00269011
0.00280479
0.00292383
0.00304601
0.00317011
0.00329496
0.00341944
0.00354255
0.00366339
0.00378119
0.00389531
0.00400526
0.00411067
0.00421131
0.00430706
0.00439793
0.00448406
0.00456571
0.0046433
0.0047174
0.00478881
0.00485862
0.00492837
0.00500027
0.0050776
0.00516542
0.00527193
0.00541067
0.00560569
0.00589814
0.00637202
0.00714683
0.00890717
0.00347969
0.00324256
0.00303442
0.00285067
0.00268758
0.00254191
0.00241089
0.0022922
0.00218399
0.0020848
0.00199351
0.00190929
0.00183155
0.00175986
0.00169393
0.0016336
0.00157875
0.00152935
0.0014854
0.00144695
0.00141404
0.00138677
0.00136522
0.0013495
0.00133969
0.00133589
0.00133816
0.00134656
0.00136113
0.00138185
0.0014087
0.00144157
0.00148034
0.00152483
0.0015748
0.00162997
0.00169
0.00175454
0.00182317
0.00189547
0.001971
0.00204934
0.00213009
0.00221292
0.00229759
0.00238399
0.00247222
0.00256262
0.00265587
0.00275311
0.0028561
0.00296748
0.00309115
0.00323305
0.00340244
0.00361471
0.00389638
0.00430134
0.00492887
0.0061765
0.00347951
0.00324163
0.00303199
0.00284603
0.00268015
0.00253139
0.00239731
0.00227586
0.00216532
0.00206426
0.00197147
0.00188596
0.00180687
0.00173352
0.00166531
0.00160177
0.0015425
0.00148717
0.00143549
0.00138726
0.00134229
0.00130043
0.00126157
0.00122561
0.00119251
0.0011622
0.00113468
0.00110993
0.00108797
0.00106881
0.00105248
0.00103903
0.0010285
0.00102094
0.00101641
0.00101495
0.00101662
0.00102147
0.00102953
0.00104086
0.0010555
0.00107352
0.00109501
0.00112008
0.00114893
0.00118183
0.00121921
0.00126172
0.00131028
0.00136626
0.0014316
0.00150911
0.00160282
0.00171862
0.00186526
0.00205594
0.00231229
0.00266973
0.00320269
0.00410931
0.0034795
0.00324152
0.00303169
0.00284546
0.00267923
0.00253007
0.00239557
0.00227374
0.00216291
0.00206168
0.00196888
0.0018835
0.00180468
0.0017317
0.00166393
0.00160083
0.00154194
0.00148685
0.00143523
0.00138676
0.00134119
0.00129829
0.00125787
0.00121976
0.00118381
0.0011499
0.00111791
0.00108775
0.00105934
0.00103263
0.00100754
0.000984043
0.000962095
0.000941671
0.000922752
0.000905325
0.000889386
0.000874938
0.000861992
0.000850569
0.000840705
0.000832448
0.000825873
0.000821085
0.000818237
0.000817546
0.000819329
0.000824037
0.000832327
0.000845153
0.000863911
0.000890661
0.000928494
0.000982096
0.00105879
0.00116995
0.00133477
0.00158257
0.0019761
0.00262182
0.00347949
0.00324148
0.00303159
0.00284531
0.00267901
0.00252977
0.0023952
0.0022733
0.00216243
0.00206119
0.00196842
0.00188313
0.00180446
0.00173168
0.00166418
0.00160139
0.00154286
0.00148816
0.00143693
0.00138886
0.00134366
0.0013011
0.00126095
0.00122302
0.00118713
0.00115315
0.00112092
0.00109033
0.00106128
0.00103366
0.0010074
0.000982416
0.000958643
0.000936021
0.000914497
0.000894026
0.000874567
0.000856085
0.000838551
0.000821942
0.000806242
0.000791442
0.000777547
0.000764573
0.000752559
0.000741571
0.000731718
0.000723171
0.000716195
0.000711199
0.000708816
0.000710041
0.000716461
0.000730661
0.000756985
0.000802791
0.000881446
0.00101536
0.0012532
0.00166769
0.00347949
0.00324145
0.00303152
0.0028452
0.00267887
0.0025296
0.00239499
0.00227306
0.00216217
0.00206092
0.00196815
0.00188288
0.00180424
0.00173152
0.0016641
0.00160142
0.00154301
0.00148846
0.00143741
0.00138954
0.00134456
0.00130222
0.0012623
0.0012246
0.00118895
0.00115518
0.00112315
0.00109274
0.00106382
0.0010363
0.00101007
0.000985065
0.000961192
0.000938385
0.000916582
0.000895725
0.000875762
0.000856645
0.000838331
0.000820784
0.000803968
0.000787856
0.000772425
0.000757658
0.000743549
0.000730103
0.000717341
0.000705309
0.000694094
0.00068384
0.000674789
0.000667343
0.000662186
0.000660493
0.000664364
0.000677614
0.000707636
0.000768459
0.000891402
0.00113022
0.00347949
0.00324143
0.00303147
0.00284512
0.00267876
0.00252946
0.00239482
0.00227288
0.00216196
0.0020607
0.00196792
0.00188264
0.00180401
0.0017313
0.00166389
0.00160123
0.00154285
0.00148835
0.00143735
0.00138954
0.00134463
0.00130238
0.00126256
0.00122496
0.00118942
0.00115577
0.00112386
0.00109357
0.00106478
0.00103738
0.00101127
0.000986371
0.000962599
0.000939879
0.000918146
0.000897338
0.000877398
0.000858277
0.000839927
0.000822304
0.000805371
0.000789093
0.000773439
0.000758382
0.000743903
0.000729987
0.000716628
0.000703833
0.000691627
0.00068006
0.000669229
0.000659304
0.000650586
0.000643608
0.000639351
0.000639664
0.000648194
0.000672641
0.000729889
0.000857103
0.00347949
0.00324142
0.00303143
0.00284505
0.00267866
0.00252934
0.00239469
0.00227272
0.00216179
0.00206051
0.00196772
0.00188243
0.00180379
0.00173108
0.00166366
0.00160101
0.00154264
0.00148814
0.00143716
0.00138936
0.00134448
0.00130225
0.00126245
0.00122489
0.00118938
0.00115577
0.00112391
0.00109367
0.00106494
0.00103759
0.00101155
0.000986713
0.000963004
0.000940349
0.000918681
0.000897936
0.000878057
0.000858993
0.000840696
0.00082312
0.000806227
0.000789979
0.000774344
0.000759295
0.000744806
0.000730858
0.000717441
0.000704548
0.000692187
0.000680383
0.000669184
0.000658682
0.00064904
0.000640543
0.000633701
0.000629475
0.000629659
0.000638359
0.000663562
0.000728511
0.00347949
0.00324141
0.0030314
0.002845
0.00267859
0.00252924
0.00239457
0.00227258
0.00216164
0.00206035
0.00196755
0.00188225
0.0018036
0.00173088
0.00166346
0.00160081
0.00154244
0.00148794
0.00143696
0.00138916
0.00134428
0.00130206
0.00126227
0.00122472
0.00118922
0.00115562
0.00112378
0.00109356
0.00106484
0.00103752
0.00101149
0.000986683
0.000963001
0.000940374
0.000918736
0.000898022
0.000878176
0.000859146
0.000840882
0.000823342
0.000806484
0.000790272
0.000774673
0.000759658
0.000745204
0.00073129
0.000717903
0.000705037
0.000692696
0.000680897
0.000669678
0.000659107
0.000649305
0.00064047
0.000632935
0.000627292
0.00062453
0.000626954
0.000638123
0.000671486
0.00347949
0.0032414
0.00303137
0.00284495
0.00267852
0.00252916
0.00239447
0.00227247
0.00216151
0.00206021
0.0019674
0.00188209
0.00180344
0.00173071
0.00166329
0.00160063
0.00154226
0.00148776
0.00143677
0.00138898
0.0013441
0.00130188
0.00126209
0.00122454
0.00118905
0.00115545
0.00112361
0.0010934
0.00106468
0.00103737
0.00101135
0.00098655
0.000962878
0.000940262
0.000918634
0.000897933
0.000878101
0.000859085
0.000840837
0.000823313
0.000806473
0.00079028
0.000774701
0.000759709
0.000745278
0.00073139
0.000718031
0.000705197
0.000692889
0.000681126
0.000669944
0.000659407
0.000649623
0.000640763
0.0006331
0.000627083
0.000623371
0.00062341
0.000628847
0.000647244
0.00347949
0.00324139
0.00303135
0.00284491
0.00267847
0.00252909
0.00239438
0.00227237
0.0021614
0.00206009
0.00196727
0.00188195
0.00180329
0.00173056
0.00166314
0.00160047
0.0015421
0.0014876
0.00143661
0.00138882
0.00134394
0.00130171
0.00126193
0.00122438
0.00118889
0.00115529
0.00112346
0.00109324
0.00106453
0.00103722
0.00101121
0.000986405
0.000962736
0.000940124
0.000918501
0.000897804
0.000877977
0.000858967
0.000840726
0.000823209
0.000806376
0.000790192
0.000774623
0.000759642
0.000745224
0.000731351
0.00071801
0.000705195
0.000692911
0.000681176
0.000670026
0.000659526
0.000649781
0.000640955
0.0006333
0.000627208
0.000623209
0.00062234
0.00062548
0.000637007
0.00347948
0.00324138
0.00303134
0.00284488
0.00267842
0.00252903
0.00239431
0.00227228
0.0021613
0.00205998
0.00196715
0.00188183
0.00180317
0.00173043
0.001663
0.00160034
0.00154196
0.00148746
0.00143647
0.00138868
0.00134379
0.00130157
0.00126178
0.00122424
0.00118875
0.00115515
0.00112332
0.0010931
0.00106439
0.00103708
0.00101107
0.000986271
0.000962603
0.000939993
0.000918372
0.000897678
0.000877853
0.000858846
0.000840607
0.000823094
0.000806266
0.000790086
0.000774523
0.000759548
0.000745137
0.000731273
0.000717942
0.00070514
0.000692871
0.000681155
0.000670028
0.000659554
0.000649839
0.000641045
0.000633415
0.000627315
0.000623223
0.000621965
0.000624124
0.000632411
0.00347948
0.00324138
0.00303132
0.00284486
0.00267838
0.00252897
0.00239424
0.00227221
0.00216122
0.00205989
0.00196706
0.00188173
0.00180306
0.00173032
0.00166289
0.00160022
0.00154184
0.00148734
0.00143635
0.00138855
0.00134367
0.00130145
0.00126166
0.00122411
0.00118862
0.00115503
0.00112319
0.00109298
0.00106427
0.00103696
0.00101095
0.000986152
0.000962486
0.000939877
0.000918257
0.000897564
0.000877741
0.000858735
0.000840499
0.000822988
0.000806163
0.000789986
0.000774426
0.000759456
0.000745051
0.000731193
0.00071787
0.000705077
0.00069282
0.000681118
0.000670007
0.000659554
0.000649861
0.00064109
0.000633478
0.000627377
0.000623235
0.00062176
0.000623414
0.000630007
0.00347948
0.00324138
0.00303131
0.00284483
0.00267835
0.00252893
0.00239419
0.00227214
0.00216115
0.00205981
0.00196697
0.00188164
0.00180296
0.00173022
0.00166278
0.00160011
0.00154173
0.00148723
0.00143624
0.00138844
0.00134356
0.00130134
0.00126155
0.001224
0.00118851
0.00115492
0.00112308
0.00109287
0.00106416
0.00103685
0.00101084
0.000986048
0.000962383
0.000939775
0.000918156
0.000897464
0.000877643
0.000858639
0.000840404
0.000822895
0.000806072
0.000789898
0.000774342
0.000759375
0.000744975
0.000731122
0.000717806
0.000705022
0.000692775
0.000681085
0.000669989
0.000659552
0.000649877
0.000641124
0.000633525
0.000627418
0.000623234
0.000621599
0.000622919
0.000628471
0.00347948
0.00324137
0.0030313
0.00284481
0.00267832
0.00252889
0.00239414
0.00227209
0.00216108
0.00205974
0.0019669
0.00188156
0.00180288
0.00173013
0.0016627
0.00160002
0.00154164
0.00148714
0.00143614
0.00138835
0.00134346
0.00130124
0.00126145
0.00122391
0.00118842
0.00115483
0.00112299
0.00109278
0.00106407
0.00103676
0.00101075
0.000985958
0.000962293
0.000939686
0.000918069
0.000897378
0.000877558
0.000858555
0.000840322
0.000822815
0.000805994
0.000789823
0.00077427
0.000759307
0.000744911
0.000731064
0.000717755
0.000704979
0.000692742
0.000681063
0.000669981
0.000659559
0.000649901
0.000641163
0.000633574
0.00062746
0.000623235
0.000621465
0.000622517
0.000627325
0.00347948
0.00324137
0.00303129
0.0028448
0.0026783
0.00252886
0.0023941
0.00227204
0.00216103
0.00205968
0.00196683
0.00188149
0.00180281
0.00173006
0.00166262
0.00159995
0.00154156
0.00148705
0.00143606
0.00138827
0.00134338
0.00130116
0.00126137
0.00122382
0.00118834
0.00115475
0.00112291
0.0010927
0.00106399
0.00103668
0.00101068
0.00098588
0.000962217
0.000939611
0.000917994
0.000897305
0.000877485
0.000858484
0.000840253
0.000822748
0.000805929
0.00078976
0.00077421
0.000759251
0.000744859
0.000731018
0.000717715
0.000704947
0.00069272
0.000681053
0.000669984
0.000659578
0.000649936
0.000641213
0.000633634
0.000627515
0.000623253
0.000621364
0.000622185
0.000626407
0.00347948
0.00324137
0.00303129
0.00284479
0.00267828
0.00252883
0.00239407
0.002272
0.00216099
0.00205963
0.00196678
0.00188143
0.00180275
0.00173
0.00166256
0.00159988
0.00154149
0.00148699
0.00143599
0.0013882
0.00134331
0.00130109
0.0012613
0.00122376
0.00118827
0.00115468
0.00112284
0.00109263
0.00106392
0.00103662
0.00101061
0.000985814
0.000962152
0.000939546
0.000917931
0.000897242
0.000877424
0.000858424
0.000840195
0.000822691
0.000805874
0.000789708
0.000774161
0.000759206
0.000744819
0.000730983
0.000717687
0.000704927
0.00069271
0.000681054
0.000669999
0.000659608
0.000649982
0.000641275
0.000633708
0.000627587
0.000623294
0.000621305
0.000621924
0.000625664
0.00347948
0.00324137
0.00303128
0.00284478
0.00267826
0.00252881
0.00239404
0.00227197
0.00216095
0.00205959
0.00196673
0.00188138
0.0018027
0.00172995
0.0016625
0.00159982
0.00154144
0.00148693
0.00143594
0.00138814
0.00134325
0.00130103
0.00126124
0.0012237
0.00118821
0.00115462
0.00112278
0.00109257
0.00106387
0.00103656
0.00101055
0.000985759
0.000962097
0.000939493
0.000917878
0.000897191
0.000877374
0.000858375
0.000840147
0.000822645
0.000805831
0.000789667
0.000774123
0.000759171
0.000744789
0.000730959
0.000717669
0.000704918
0.00069271
0.000681066
0.000670024
0.000659648
0.00065004
0.00064135
0.000633795
0.000627676
0.000623362
0.00062129
0.000621738
0.00062508
0.00347948
0.00324137
0.00303128
0.00284477
0.00267825
0.00252879
0.00239402
0.00227194
0.00216092
0.00205956
0.0019667
0.00188135
0.00180266
0.0017299
0.00166246
0.00159978
0.00154139
0.00148688
0.00143589
0.00138809
0.00134321
0.00130098
0.0012612
0.00122365
0.00118816
0.00115457
0.00112274
0.00109253
0.00106382
0.00103651
0.00101051
0.000985715
0.000962053
0.000939449
0.000917835
0.000897149
0.000877333
0.000858336
0.000840109
0.000822609
0.000805797
0.000789636
0.000774095
0.000759147
0.000744769
0.000730944
0.000717662
0.000704918
0.00069272
0.000681087
0.000670059
0.000659699
0.000650108
0.000641436
0.000633897
0.000627784
0.000623456
0.000621322
0.000621631
0.000624647
0.00347948
0.00324137
0.00303128
0.00284476
0.00267824
0.00252878
0.002394
0.00227192
0.00216089
0.00205953
0.00196667
0.00188131
0.00180262
0.00172987
0.00166242
0.00159974
0.00154135
0.00148685
0.00143585
0.00138805
0.00134317
0.00130095
0.00126116
0.00122361
0.00118812
0.00115453
0.0011227
0.00109249
0.00106378
0.00103648
0.00101047
0.00098568
0.000962019
0.000939416
0.000917802
0.000897117
0.000877302
0.000858306
0.000840081
0.000822583
0.000805772
0.000789614
0.000774076
0.000759131
0.000744758
0.000730939
0.000717663
0.000704927
0.000692739
0.000681118
0.000670104
0.00065976
0.000650186
0.000641533
0.000634011
0.00062791
0.000623578
0.000621401
0.000621603
0.00062436
0.00347948
0.00324137
0.00303127
0.00284476
0.00267823
0.00252877
0.00239399
0.00227191
0.00216088
0.00205951
0.00196665
0.00188129
0.0018026
0.00172984
0.0016624
0.00159972
0.00154133
0.00148682
0.00143582
0.00138803
0.00134314
0.00130092
0.00126113
0.00122358
0.0011881
0.00115451
0.00112267
0.00109246
0.00106376
0.00103645
0.00101045
0.000985654
0.000961994
0.000939391
0.000917779
0.000897094
0.00087728
0.000858285
0.000840061
0.000822565
0.000805756
0.0007896
0.000774065
0.000759125
0.000744756
0.000730942
0.000717673
0.000704945
0.000692767
0.000681158
0.000670157
0.000659829
0.000650274
0.00064164
0.000634138
0.000628054
0.000623727
0.000621527
0.000621655
0.000624216
0.00347948
0.00324137
0.00303127
0.00284475
0.00267822
0.00252876
0.00239398
0.0022719
0.00216086
0.0020595
0.00196663
0.00188128
0.00180258
0.00172983
0.00166238
0.0015997
0.00154131
0.0014868
0.00143581
0.00138801
0.00134312
0.0013009
0.00126111
0.00122357
0.00118808
0.00115449
0.00112265
0.00109244
0.00106374
0.00103643
0.00101043
0.000985638
0.000961978
0.000939376
0.000917764
0.00089708
0.000877267
0.000858273
0.000840051
0.000822556
0.000805749
0.000789596
0.000774064
0.000759127
0.000744762
0.000730954
0.000717691
0.000704972
0.000692803
0.000681205
0.000670219
0.000659907
0.00065037
0.000641757
0.000634277
0.000628214
0.000623903
0.0006217
0.000621786
0.000624213
0.00347948
0.00324137
0.00303127
0.00284475
0.00267822
0.00252876
0.00239398
0.00227189
0.00216086
0.00205949
0.00196663
0.00188127
0.00180258
0.00172982
0.00166237
0.00159969
0.0015413
0.00148679
0.0014358
0.001388
0.00134311
0.00130089
0.0012611
0.00122356
0.00118807
0.00115448
0.00112265
0.00109244
0.00106373
0.00103643
0.00101042
0.00098563
0.000961971
0.000939369
0.000917758
0.000897075
0.000877263
0.00085827
0.000840049
0.000822555
0.000805751
0.000789599
0.00077407
0.000759137
0.000744777
0.000730974
0.000717718
0.000705006
0.000692847
0.000681261
0.000670288
0.000659992
0.000650474
0.000641883
0.000634428
0.000628391
0.000624106
0.000621919
0.000621998
0.000624349
0.00347948
0.00324137
0.00303127
0.00284475
0.00267822
0.00252876
0.00239398
0.00227189
0.00216086
0.00205949
0.00196663
0.00188127
0.00180258
0.00172982
0.00166237
0.00159969
0.0015413
0.00148679
0.0014358
0.001388
0.00134311
0.00130089
0.0012611
0.00122356
0.00118807
0.00115448
0.00112265
0.00109244
0.00106373
0.00103643
0.00101042
0.000985632
0.000961973
0.000939372
0.000917761
0.000897078
0.000877267
0.000858275
0.000840055
0.000822563
0.000805761
0.000789612
0.000774085
0.000759155
0.0007448
0.000731002
0.000717752
0.000705048
0.000692899
0.000681324
0.000670365
0.000660086
0.000650587
0.000642018
0.00063459
0.000628584
0.000624335
0.000622186
0.000622292
0.000624625
0.00347948
0.00324137
0.00303127
0.00284475
0.00267822
0.00252876
0.00239398
0.0022719
0.00216086
0.0020595
0.00196663
0.00188128
0.00180258
0.00172983
0.00166238
0.0015997
0.00154131
0.0014868
0.00143581
0.00138801
0.00134312
0.0013009
0.00126111
0.00122357
0.00118808
0.00115449
0.00112266
0.00109245
0.00106374
0.00103644
0.00101043
0.000985642
0.000961984
0.000939383
0.000917772
0.00089709
0.00087728
0.000858289
0.00084007
0.00082258
0.000805779
0.000789632
0.000774109
0.000759182
0.00074483
0.000731038
0.000717794
0.000705098
0.000692958
0.000681395
0.000670449
0.000660186
0.000650707
0.000642161
0.000634762
0.000628793
0.000624591
0.0006225
0.000622668
0.000625044
0.00347948
0.00324137
0.00303127
0.00284476
0.00267823
0.00252877
0.00239399
0.00227191
0.00216088
0.00205951
0.00196665
0.00188129
0.0018026
0.00172984
0.0016624
0.00159972
0.00154133
0.00148682
0.00143582
0.00138803
0.00134314
0.00130092
0.00126113
0.00122359
0.0011881
0.00115451
0.00112268
0.00109247
0.00106376
0.00103646
0.00101045
0.000985662
0.000962003
0.000939403
0.000917793
0.000897111
0.000877301
0.000858311
0.000840093
0.000822605
0.000805805
0.000789661
0.00077414
0.000759217
0.000744869
0.000731082
0.000717844
0.000705156
0.000693025
0.000681473
0.00067054
0.000660293
0.000650833
0.000642312
0.000634944
0.000629017
0.000624874
0.000622863
0.000623131
0.000625611
0.00347948
0.00324137
0.00303128
0.00284476
0.00267824
0.00252878
0.002394
0.00227192
0.00216089
0.00205953
0.00196667
0.00188131
0.00180262
0.00172987
0.00166242
0.00159974
0.00154135
0.00148685
0.00143585
0.00138806
0.00134317
0.00130095
0.00126116
0.00122361
0.00118813
0.00115454
0.0011227
0.00109249
0.00106379
0.00103648
0.00101048
0.00098569
0.000962032
0.000939432
0.000917822
0.000897141
0.000877332
0.000858342
0.000840126
0.000822638
0.00080584
0.000789698
0.00077418
0.00075926
0.000744916
0.000731134
0.000717902
0.000705221
0.000693099
0.000681558
0.000670639
0.000660408
0.000650967
0.000642471
0.000635136
0.000629257
0.000625183
0.000623275
0.000623681
0.000626333
0.00347948
0.00324137
0.00303128
0.00284477
0.00267825
0.00252879
0.00239402
0.00227194
0.00216092
0.00205956
0.0019667
0.00188135
0.00180266
0.0017299
0.00166246
0.00159978
0.00154139
0.00148688
0.00143589
0.00138809
0.00134321
0.00130098
0.0012612
0.00122365
0.00118816
0.00115458
0.00112274
0.00109253
0.00106383
0.00103652
0.00101052
0.000985728
0.00096207
0.00093947
0.00091786
0.00089718
0.000877371
0.000858383
0.000840167
0.00082268
0.000805884
0.000789744
0.000774228
0.000759311
0.000744971
0.000731194
0.000717968
0.000705294
0.000693181
0.00068165
0.000670744
0.000660529
0.000651108
0.000642638
0.000635338
0.000629511
0.000625518
0.00062374
0.000624325
0.000627221
0.00347948
0.00324137
0.00303128
0.00284478
0.00267826
0.00252881
0.00239404
0.00227197
0.00216095
0.00205959
0.00196673
0.00188138
0.0018027
0.00172995
0.0016625
0.00159982
0.00154144
0.00148693
0.00143594
0.00138814
0.00134326
0.00130103
0.00126125
0.0012237
0.00118821
0.00115462
0.00112279
0.00109258
0.00106388
0.00103657
0.00101057
0.000985776
0.000962117
0.000939518
0.000917908
0.000897228
0.00087742
0.000858432
0.000840217
0.000822732
0.000805937
0.000789798
0.000774285
0.000759371
0.000745035
0.000731262
0.000718042
0.000705375
0.00069327
0.00068175
0.000670856
0.000660656
0.000651256
0.000642811
0.000635549
0.000629781
0.000625881
0.000624257
0.000625066
0.000628289
0.00347948
0.00324137
0.00303129
0.00284479
0.00267828
0.00252883
0.00239407
0.002272
0.00216099
0.00205963
0.00196678
0.00188143
0.00180275
0.00173
0.00166256
0.00159988
0.00154149
0.00148699
0.001436
0.0013882
0.00134331
0.00130109
0.00126131
0.00122376
0.00118827
0.00115468
0.00112285
0.00109264
0.00106393
0.00103663
0.00101062
0.000985834
0.000962175
0.000939575
0.000917966
0.000897286
0.000877478
0.000858491
0.000840277
0.000822793
0.000805999
0.000789863
0.000774352
0.00075944
0.000745108
0.000731339
0.000718125
0.000705464
0.000693368
0.000681857
0.000670976
0.000660791
0.00065141
0.000642992
0.00063577
0.000630065
0.000626271
0.000624831
0.000625912
0.000629557
0.00347948
0.00324137
0.00303129
0.0028448
0.0026783
0.00252886
0.0023941
0.00227204
0.00216103
0.00205968
0.00196683
0.00188149
0.00180281
0.00173006
0.00166262
0.00159995
0.00154156
0.00148706
0.00143606
0.00138827
0.00134338
0.00130116
0.00126138
0.00122383
0.00118834
0.00115475
0.00112292
0.00109271
0.001064
0.0010367
0.00101069
0.000985902
0.000962244
0.000939644
0.000918035
0.000897355
0.000877547
0.000858561
0.000840347
0.000822864
0.000806072
0.000789937
0.000774428
0.000759519
0.00074519
0.000731425
0.000718216
0.000705562
0.000693473
0.000681973
0.000671103
0.000660933
0.000651571
0.00064318
0.000635999
0.000630363
0.000626689
0.000625464
0.000626869
0.000631049
0.00347948
0.00324137
0.0030313
0.00284481
0.00267832
0.00252889
0.00239414
0.00227209
0.00216108
0.00205974
0.0019669
0.00188156
0.00180288
0.00173013
0.0016627
0.00160002
0.00154164
0.00148714
0.00143615
0.00138835
0.00134347
0.00130124
0.00126146
0.00122391
0.00118842
0.00115483
0.001123
0.00109279
0.00106408
0.00103678
0.00101077
0.000985982
0.000962324
0.000939724
0.000918115
0.000897435
0.000877628
0.000858641
0.000840428
0.000822946
0.000806155
0.000790021
0.000774514
0.000759608
0.000745282
0.000731522
0.000718318
0.00070567
0.000693588
0.000682096
0.000671238
0.000661082
0.000651739
0.000643376
0.000636237
0.000630676
0.000627135
0.00062616
0.000627947
0.000632796
0.00347948
0.00324138
0.00303131
0.00284483
0.00267835
0.00252893
0.00239419
0.00227214
0.00216115
0.00205981
0.00196697
0.00188164
0.00180296
0.00173022
0.00166279
0.00160011
0.00154173
0.00148723
0.00143624
0.00138845
0.00134356
0.00130134
0.00126155
0.00122401
0.00118852
0.00115493
0.00112309
0.00109288
0.00106418
0.00103687
0.00101087
0.000986075
0.000962416
0.000939816
0.000918207
0.000897527
0.00087772
0.000858734
0.000840521
0.000823039
0.00080625
0.000790117
0.000774612
0.000759709
0.000745386
0.000731629
0.000718429
0.000705787
0.000693712
0.000682229
0.000671381
0.00066124
0.000651915
0.000643579
0.000636484
0.000631003
0.000627608
0.000626922
0.000629156
0.000634841
0.00347948
0.00324138
0.00303132
0.00284486
0.00267838
0.00252897
0.00239424
0.00227221
0.00216122
0.00205989
0.00196706
0.00188173
0.00180306
0.00173032
0.00166289
0.00160022
0.00154184
0.00148734
0.00143635
0.00138855
0.00134367
0.00130145
0.00126166
0.00122412
0.00118863
0.00115504
0.0011232
0.00109299
0.00106429
0.00103698
0.00101097
0.000986182
0.000962522
0.000939922
0.000918312
0.000897632
0.000877825
0.000858839
0.000840627
0.000823146
0.000806357
0.000790226
0.000774722
0.000759821
0.0007455
0.000731747
0.000718551
0.000705914
0.000693846
0.000682371
0.000671533
0.000661405
0.000652098
0.000643789
0.000636739
0.000631344
0.00062811
0.000627754
0.000630507
0.000637237
0.00347948
0.00324138
0.00303134
0.00284488
0.00267842
0.00252903
0.00239431
0.00227228
0.0021613
0.00205998
0.00196716
0.00188183
0.00180317
0.00173043
0.001663
0.00160034
0.00154196
0.00148746
0.00143647
0.00138868
0.0013438
0.00130157
0.00126179
0.00122424
0.00118875
0.00115516
0.00112333
0.00109311
0.00106441
0.0010371
0.0010111
0.000986303
0.000962643
0.000940042
0.000918432
0.000897752
0.000877944
0.000858958
0.000840746
0.000823265
0.000806477
0.000790346
0.000774844
0.000759944
0.000745626
0.000731875
0.000718683
0.00070605
0.000693988
0.00068252
0.000671692
0.000661575
0.000652286
0.000644003
0.000637
0.000631695
0.000628638
0.000628661
0.000632013
0.000640053
0.00347949
0.00324139
0.00303135
0.00284491
0.00267847
0.00252909
0.00239438
0.00227237
0.0021614
0.00206009
0.00196727
0.00188195
0.00180329
0.00173056
0.00166314
0.00160047
0.0015421
0.0014876
0.00143661
0.00138882
0.00134394
0.00130172
0.00126193
0.00122438
0.0011889
0.0011553
0.00112347
0.00109326
0.00106455
0.00103724
0.00101123
0.00098644
0.000962779
0.000940176
0.000918565
0.000897884
0.000878075
0.000859088
0.000840875
0.000823393
0.000806604
0.000790474
0.000774971
0.000760071
0.000745754
0.000732005
0.000718815
0.000706186
0.000694128
0.000682667
0.000671846
0.000661741
0.000652468
0.000644212
0.000637256
0.000632047
0.000629183
0.000629641
0.000633683
0.000643383
0.00347949
0.0032414
0.00303137
0.00284495
0.00267852
0.00252916
0.00239447
0.00227247
0.00216151
0.00206021
0.0019674
0.00188209
0.00180344
0.00173071
0.00166329
0.00160063
0.00154226
0.00148776
0.00143678
0.00138898
0.0013441
0.00130188
0.00126209
0.00122455
0.00118906
0.00115546
0.00112363
0.00109341
0.0010647
0.00103739
0.00101138
0.000986587
0.000962924
0.000940318
0.000918704
0.000898019
0.000878206
0.000859216
0.000840999
0.000823513
0.000806721
0.000790586
0.000775081
0.000760178
0.000745859
0.000732108
0.000718918
0.00070629
0.000694234
0.000682777
0.000671963
0.000661868
0.000652612
0.000644382
0.000637476
0.000632369
0.000629717
0.000630675
0.000635515
0.000647339
0.00347949
0.00324141
0.0030314
0.002845
0.00267859
0.00252924
0.00239457
0.00227258
0.00216164
0.00206035
0.00196755
0.00188225
0.0018036
0.00173088
0.00166347
0.00160081
0.00154244
0.00148794
0.00143696
0.00138917
0.00134429
0.00130206
0.00126228
0.00122472
0.00118923
0.00115564
0.00112379
0.00109357
0.00106486
0.00103754
0.00101153
0.000986723
0.00096305
0.000940435
0.000918811
0.000898115
0.000878292
0.000859289
0.000841061
0.000823564
0.000806759
0.000790614
0.000775098
0.000760187
0.000745859
0.0007321
0.000718904
0.000706272
0.000694214
0.000682758
0.00067195
0.000661864
0.000652624
0.000644424
0.000637572
0.000632578
0.000630162
0.000631697
0.000637466
0.000652051
0.00347949
0.00324142
0.00303143
0.00284505
0.00267866
0.00252934
0.00239469
0.00227272
0.00216179
0.00206051
0.00196772
0.00188243
0.00180379
0.00173108
0.00166367
0.00160101
0.00154264
0.00148815
0.00143716
0.00138937
0.00134448
0.00130225
0.00126246
0.0012249
0.00118939
0.00115579
0.00112393
0.00109369
0.00106496
0.00103762
0.00101158
0.000986757
0.000963059
0.000940417
0.000918765
0.000898041
0.000878188
0.000859157
0.000840899
0.000823374
0.000806543
0.000790372
0.000774834
0.000759901
0.000745556
0.000731782
0.000718574
0.000705933
0.000693872
0.000682416
0.000671614
0.000661541
0.000652323
0.000644158
0.000637368
0.0006325
0.000630348
0.000632548
0.000639407
0.000657633
0.00347949
0.00324143
0.00303147
0.00284512
0.00267876
0.00252946
0.00239482
0.00227288
0.00216196
0.0020607
0.00196792
0.00188264
0.00180401
0.0017313
0.00166389
0.00160123
0.00154286
0.00148835
0.00143736
0.00138955
0.00134464
0.00130239
0.00126256
0.00122497
0.00118943
0.00115578
0.00112388
0.00109359
0.0010648
0.00103741
0.00101131
0.000986422
0.000962661
0.000939958
0.000918244
0.00089746
0.000877551
0.000858466
0.000840161
0.000822593
0.000805726
0.000789526
0.000773965
0.000759017
0.000744664
0.000730889
0.000717688
0.00070506
0.000693019
0.000681589
0.000670818
0.000660782
0.000651604
0.000643487
0.000636762
0.000632011
0.000630119
0.000633028
0.000641123
0.000664169
0.00347949
0.00324145
0.00303152
0.0028452
0.00267887
0.0025296
0.00239499
0.00227306
0.00216217
0.00206092
0.00196815
0.00188288
0.00180424
0.00173152
0.0016641
0.00160142
0.00154301
0.00148847
0.00143742
0.00138954
0.00134456
0.00130223
0.00126231
0.00122461
0.00118896
0.0011552
0.00112317
0.00109276
0.00106385
0.00103634
0.00101012
0.000985123
0.000961264
0.000938474
0.00091669
0.000895855
0.000875917
0.000856827
0.000838541
0.00082102
0.000804225
0.000788121
0.000772677
0.000757862
0.000743654
0.000730043
0.000717021
0.000704584
0.000692739
0.000681504
0.000670914
0.000661033
0.000651969
0.000643913
0.000637192
0.000632402
0.000630528
0.000633842