/*--------------------------------*- C++ -*----------------------------------*\
| =========                 |                                                 |
| \\      /  F ield         | OpenFOAM: The Open Source CFD Toolbox           |
|  \\    /   O peration     | Version:  2.4.0                                 |
|   \\  /    A nd           | Web:      www.OpenFOAM.org                      |
|    \\/     M anipulation  |                                                 |
\*---------------------------------------------------------------------------*/
FoamFile
{
    version     2.0;
    format      ascii;
    class       volVectorField;
    location    "0.82";
    object      U;
}
// * * * * * * * * * * * * * * * * * * * * * * * * * * * * * * * * * * * * * //

dimensions      [0 1 -1 0 0 0 0];

internalField   nonuniform List<vector> 
6000
(
(0.990441 -0.000273757 0)
(0.970231 0.0020497 0)
(0.948316 0.00334879 0)
(0.925587 0.00413663 0)
(0.903364 0.00452022 0)
(0.882322 0.00453153 0)
(0.862685 0.00428821 0)
(0.844554 0.00390125 0)
(0.82799 0.00344514 0)
(0.812998 0.00296859 0)
(0.799521 0.00250381 0)
(0.787461 0.00207076 0)
(0.776702 0.00168039 0)
(0.76712 0.00133745 0)
(0.758589 0.00104269 0)
(0.750988 0.00079433 0)
(0.744201 0.000589165 0)
(0.738121 0.000423244 0)
(0.73265 0.000292317 0)
(0.727702 0.000192098 0)
(0.723197 0.000118415 0)
(0.719067 6.72907e-05 0)
(0.715252 3.49982e-05 0)
(0.711701 1.81162e-05 0)
(0.708367 1.35502e-05 0)
(0.705215 1.85867e-05 0)
(0.702211 3.08642e-05 0)
(0.699328 4.83275e-05 0)
(0.696543 6.91961e-05 0)
(0.693837 9.19527e-05 0)
(0.691193 0.000115333 0)
(0.6886 0.000138318 0)
(0.686046 0.00016015 0)
(0.683522 0.000180355 0)
(0.681019 0.000198793 0)
(0.678529 0.000215694 0)
(0.676038 0.000231686 0)
(0.673533 0.000247779 0)
(0.670993 0.000265334 0)
(0.668389 0.000286025 0)
(0.665684 0.000311823 0)
(0.662832 0.000345022 0)
(0.659769 0.000388338 0)
(0.656417 0.00044507 0)
(0.652674 0.000519327 0)
(0.648409 0.000616337 0)
(0.643454 0.00074284 0)
(0.637591 0.000907625 0)
(0.63054 0.00112228 0)
(0.621936 0.00140222 0)
(0.611302 0.00176803 0)
(0.598007 0.00224781 0)
(0.581233 0.00287967 0)
(0.559838 0.00371801 0)
(0.532487 0.00482762 0)
(0.496787 0.00631869 0)
(0.451869 0.00817453 0)
(0.389415 0.0106698 0)
(0.326508 0.012947 0)
(0.181444 0.0116693 0)
(1.00417 0.00480515 0)
(1.01373 0.00718215 0)
(1.0207 0.00682435 0)
(1.02486 0.00641226 0)
(1.02687 0.00609189 0)
(1.02702 0.00572671 0)
(1.02543 0.00535089 0)
(1.02232 0.00499899 0)
(1.01792 0.0046725 0)
(1.01248 0.00436637 0)
(1.00623 0.00407875 0)
(0.999349 0.00380926 0)
(0.992003 0.00355747 0)
(0.984333 0.00332275 0)
(0.976458 0.00310433 0)
(0.968478 0.00290134 0)
(0.960478 0.00271283 0)
(0.952526 0.00253782 0)
(0.944683 0.00237535 0)
(0.936996 0.0022245 0)
(0.929505 0.00208446 0)
(0.92224 0.00195452 0)
(0.915228 0.00183403 0)
(0.908484 0.00172248 0)
(0.90202 0.00161945 0)
(0.895842 0.0015245 0)
(0.88995 0.00143744 0)
(0.884339 0.00135819 0)
(0.879002 0.00128673 0)
(0.873928 0.001223 0)
(0.869101 0.00116688 0)
(0.864505 0.00111819 0)
(0.860121 0.00107672 0)
(0.85593 0.00104232 0)
(0.851909 0.00101491 0)
(0.848039 0.000994706 0)
(0.844296 0.000982217 0)
(0.840657 0.000978399 0)
(0.837098 0.000984704 0)
(0.833593 0.00100318 0)
(0.830112 0.00103658 0)
(0.82662 0.00108854 0)
(0.823073 0.00116382 0)
(0.819421 0.00126862 0)
(0.815595 0.00141106 0)
(0.811513 0.00160176 0)
(0.807067 0.00185465 0)
(0.802117 0.0021881 0)
(0.796484 0.00262647 0)
(0.78993 0.00320229 0)
(0.782141 0.00395955 0)
(0.772693 0.00495839 0)
(0.761022 0.00628284 0)
(0.746294 0.00804911 0)
(0.727488 0.0104237 0)
(0.702515 0.0136185 0)
(0.670299 0.017923 0)
(0.621637 0.0234108 0)
(0.569826 0.0313618 0)
(0.433755 0.0315026 0)
(1.00036 0.00116234 0)
(1.00263 0.00202372 0)
(1.00544 0.00239372 0)
(1.00803 0.00304093 0)
(1.01052 0.00370471 0)
(1.013 0.00418586 0)
(1.01529 0.00450999 0)
(1.01726 0.00472084 0)
(1.01884 0.0048332 0)
(1.02001 0.00486106 0)
(1.02076 0.00482362 0)
(1.02109 0.00473955 0)
(1.021 0.00462399 0)
(1.02051 0.00448854 0)
(1.01964 0.00434187 0)
(1.01841 0.00419025 0)
(1.01683 0.00403803 0)
(1.01492 0.00388807 0)
(1.0127 0.00374216 0)
(1.01019 0.00360131 0)
(1.00741 0.003466 0)
(1.00437 0.00333642 0)
(1.00111 0.0032126 0)
(0.997635 0.00309439 0)
(0.993976 0.0029815 0)
(0.990155 0.00287352 0)
(0.9862 0.00277022 0)
(0.982136 0.00267154 0)
(0.97799 0.00257747 0)
(0.973786 0.00248809 0)
(0.96955 0.00240356 0)
(0.965304 0.00232411 0)
(0.961067 0.00225012 0)
(0.956856 0.0021821 0)
(0.952682 0.00212086 0)
(0.948555 0.00206747 0)
(0.944478 0.00202345 0)
(0.940448 0.00199079 0)
(0.93646 0.0019721 0)
(0.932498 0.00197078 0)
(0.928544 0.00199115 0)
(0.924568 0.00203874 0)
(0.920533 0.00212069 0)
(0.916387 0.00224614 0)
(0.912068 0.00242693 0)
(0.907489 0.00267842 0)
(0.902545 0.00302065 0)
(0.897096 0.00347997 0)
(0.890966 0.00409116 0)
(0.883926 0.00490065 0)
(0.875685 0.00597113 0)
(0.865862 0.00738807 0)
(0.85398 0.0092714 0)
(0.839377 0.0117861 0)
(0.821328 0.0151821 0)
(0.798376 0.019759 0)
(0.770275 0.0261321 0)
(0.730229 0.0342575 0)
(0.690409 0.047551 0)
(0.586503 0.052337 0)
(1.00025 0.00137449 0)
(1.00159 0.00317762 0)
(1.00312 0.00385962 0)
(1.00435 0.00422169 0)
(1.00551 0.0044898 0)
(1.00681 0.00462059 0)
(1.00821 0.00464383 0)
(1.00962 0.00461183 0)
(1.01101 0.00454649 0)
(1.01236 0.00445801 0)
(1.01365 0.00435671 0)
(1.01486 0.00425138 0)
(1.01598 0.00414759 0)
(1.017 0.00404854 0)
(1.0179 0.003956 0)
(1.01869 0.0038708 0)
(1.01935 0.00379311 0)
(1.01989 0.0037226 0)
(1.02031 0.00365862 0)
(1.02059 0.00360034 0)
(1.02075 0.0035468 0)
(1.02077 0.00349705 0)
(1.02065 0.0034502 0)
(1.02039 0.00340536 0)
(1.01999 0.00336171 0)
(1.01944 0.00331862 0)
(1.01875 0.00327563 0)
(1.0179 0.00323243 0)
(1.0169 0.00318887 0)
(1.01574 0.00314498 0)
(1.01443 0.00310095 0)
(1.01296 0.00305718 0)
(1.01134 0.00301432 0)
(1.00957 0.00297331 0)
(1.00764 0.00293545 0)
(1.00557 0.00290251 0)
(1.00335 0.00287679 0)
(1.00099 0.00286126 0)
(0.998487 0.0028597 0)
(0.99583 0.0028769 0)
(0.993014 0.00291891 0)
(0.990026 0.00299339 0)
(0.986842 0.0031101 0)
(0.983428 0.00328149 0)
(0.979736 0.00352359 0)
(0.975702 0.00385704 0)
(0.971235 0.00430867 0)
(0.966215 0.00491341 0)
(0.960486 0.00571706 0)
(0.953838 0.00678014 0)
(0.946 0.00818349 0)
(0.936618 0.0100358 0)
(0.925239 0.0124875 0)
(0.911245 0.0157412 0)
(0.893963 0.0201049 0)
(0.872127 0.0259246 0)
(0.845584 0.0340115 0)
(0.809136 0.0441836 0)
(0.773624 0.0612317 0)
(0.691648 0.070475 0)
(1.00018 0.00117351 0)
(1.00125 0.00265202 0)
(1.00255 0.00313695 0)
(1.00361 0.00339465 0)
(1.00455 0.00368378 0)
(1.00554 0.00390458 0)
(1.00659 0.00402482 0)
(1.00763 0.0040806 0)
(1.00866 0.0040962 0)
(1.00967 0.00408003 0)
(1.01068 0.00403954 0)
(1.01168 0.00398292 0)
(1.01266 0.0039168 0)
(1.01361 0.00384599 0)
(1.01454 0.00377404 0)
(1.01543 0.00370354 0)
(1.0163 0.00363628 0)
(1.01714 0.00357333 0)
(1.01793 0.00351524 0)
(1.0187 0.00346217 0)
(1.01942 0.00341402 0)
(1.02011 0.0033705 0)
(1.02075 0.00333119 0)
(1.02135 0.00329565 0)
(1.0219 0.0032635 0)
(1.0224 0.00323443 0)
(1.02284 0.00320819 0)
(1.02323 0.00318459 0)
(1.02356 0.00316353 0)
(1.02383 0.00314502 0)
(1.02402 0.00312917 0)
(1.02415 0.00311625 0)
(1.02419 0.00310673 0)
(1.02414 0.00310137 0)
(1.024 0.0031013 0)
(1.02376 0.00310816 0)
(1.02341 0.00312423 0)
(1.02293 0.00315257 0)
(1.02232 0.0031973 0)
(1.02155 0.00326375 0)
(1.02062 0.00335889 0)
(1.01948 0.00349172 0)
(1.01812 0.00367384 0)
(1.01649 0.00392028 0)
(1.01454 0.00425043 0)
(1.01222 0.00468948 0)
(1.00942 0.0052701 0)
(1.00605 0.00603489 0)
(1.00195 0.00703963 0)
(0.996956 0.00835774 0)
(0.990811 0.0100868 0)
(0.983202 0.0123571 0)
(0.973727 0.0153473 0)
(0.961838 0.0192948 0)
(0.946924 0.0245556 0)
(0.927859 0.0315159 0)
(0.904423 0.0410938 0)
(0.872277 0.0530151 0)
(0.840151 0.0725464 0)
(0.772539 0.0850161 0)
(1.00014 0.000986938 0)
(1.00102 0.00234198 0)
(1.00218 0.00292823 0)
(1.00322 0.00327081 0)
(1.00413 0.00359504 0)
(1.00506 0.00382754 0)
(1.00603 0.00394148 0)
(1.00699 0.00398004 0)
(1.00792 0.00397613 0)
(1.00883 0.00394136 0)
(1.00972 0.00388349 0)
(1.01059 0.00381132 0)
(1.01145 0.00373232 0)
(1.01229 0.00365177 0)
(1.01311 0.0035732 0)
(1.01392 0.00349896 0)
(1.01471 0.00343048 0)
(1.01549 0.00336845 0)
(1.01626 0.00331303 0)
(1.01701 0.00326401 0)
(1.01776 0.00322098 0)
(1.01849 0.00318338 0)
(1.0192 0.00315061 0)
(1.01991 0.0031221 0)
(1.0206 0.00309736 0)
(1.02127 0.00307601 0)
(1.02192 0.00305772 0)
(1.02255 0.0030423 0)
(1.02317 0.0030297 0)
(1.02375 0.00302003 0)
(1.02432 0.00301355 0)
(1.02485 0.00301073 0)
(1.02534 0.00301229 0)
(1.0258 0.0030193 0)
(1.02621 0.00303326 0)
(1.02657 0.00305623 0)
(1.02687 0.00309099 0)
(1.0271 0.00314122 0)
(1.02724 0.00321173 0)
(1.02728 0.00330876 0)
(1.02721 0.00344036 0)
(1.027 0.0036169 0)
(1.02661 0.00385175 0)
(1.02601 0.00416218 0)
(1.02516 0.00457051 0)
(1.02399 0.00510568 0)
(1.02242 0.00580526 0)
(1.02037 0.00671819 0)
(1.0177 0.00790852 0)
(1.01425 0.00946035 0)
(1.00983 0.0114852 0)
(1.00416 0.0141313 0)
(0.996931 0.0176008 0)
(0.987681 0.0221607 0)
(0.975934 0.0282068 0)
(0.960765 0.0361669 0)
(0.942025 0.0470342 0)
(0.916097 0.0605356 0)
(0.889778 0.0819864 0)
(0.835806 0.0971064 0)
(1.00011 0.000842191 0)
(1.00084 0.00209722 0)
(1.00189 0.00272308 0)
(1.00289 0.00306789 0)
(1.00378 0.00335925 0)
(1.00468 0.00357135 0)
(1.00563 0.00368002 0)
(1.00656 0.00371974 0)
(1.00748 0.00372113 0)
(1.00836 0.00369487 0)
(1.00923 0.00364707 0)
(1.01007 0.00358533 0)
(1.0109 0.00351656 0)
(1.0117 0.00344559 0)
(1.01248 0.00337563 0)
(1.01324 0.00330884 0)
(1.01399 0.00324662 0)
(1.01473 0.00318972 0)
(1.01546 0.00313843 0)
(1.01617 0.00309272 0)
(1.01688 0.00305234 0)
(1.01758 0.00301692 0)
(1.01827 0.00298603 0)
(1.01896 0.00295927 0)
(1.01963 0.00293626 0)
(1.0203 0.00291672 0)
(1.02096 0.00290046 0)
(1.02162 0.0028874 0)
(1.02226 0.00287761 0)
(1.02289 0.00287129 0)
(1.0235 0.00286884 0)
(1.0241 0.00287087 0)
(1.02468 0.00287827 0)
(1.02524 0.0028923 0)
(1.02577 0.00291469 0)
(1.02626 0.00294781 0)
(1.02672 0.00299479 0)
(1.02712 0.00305978 0)
(1.02746 0.00314817 0)
(1.02772 0.00326693 0)
(1.02789 0.00342508 0)
(1.02795 0.00363421 0)
(1.02786 0.00390925 0)
(1.02759 0.00426948 0)
(1.02711 0.00473977 0)
(1.02634 0.00535231 0)
(1.02524 0.00614884 0)
(1.0237 0.00718357 0)
(1.02162 0.00852724 0)
(1.01887 0.0102725 0)
(1.01526 0.0125415 0)
(1.0106 0.0154962 0)
(1.00462 0.0193557 0)
(0.996985 0.0244078 0)
(0.987366 0.0310757 0)
(0.975107 0.0398183 0)
(0.960281 0.0516747 0)
(0.940176 0.066442 0)
(0.920236 0.0892997 0)
(0.880603 0.107084 0)
(1.00009 0.000728812 0)
(1.00071 0.00188098 0)
(1.00166 0.00251235 0)
(1.00261 0.00285663 0)
(1.00348 0.00313201 0)
(1.00436 0.00334174 0)
(1.00529 0.00345878 0)
(1.00621 0.00350666 0)
(1.00711 0.0035144 0)
(1.00799 0.00349417 0)
(1.00885 0.00345217 0)
(1.00969 0.00339566 0)
(1.0105 0.00333145 0)
(1.01129 0.00326443 0)
(1.01207 0.00319783 0)
(1.01282 0.00313388 0)
(1.01356 0.00307405 0)
(1.01428 0.00301919 0)
(1.01499 0.00296968 0)
(1.01569 0.00292555 0)
(1.01638 0.00288663 0)
(1.01706 0.00285259 0)
(1.01774 0.00282306 0)
(1.01841 0.00279768 0)
(1.01907 0.00277612 0)
(1.01972 0.00275815 0)
(1.02037 0.00274362 0)
(1.02101 0.00273252 0)
(1.02164 0.00272497 0)
(1.02226 0.00272126 0)
(1.02288 0.00272189 0)
(1.02348 0.00272759 0)
(1.02406 0.00273941 0)
(1.02463 0.0027588 0)
(1.02517 0.00278775 0)
(1.02569 0.00282891 0)
(1.02616 0.0028858 0)
(1.0266 0.00296302 0)
(1.02698 0.00306654 0)
(1.0273 0.00320408 0)
(1.02753 0.00338556 0)
(1.02766 0.00362374 0)
(1.02765 0.00393503 0)
(1.02749 0.00434054 0)
(1.02711 0.00486748 0)
(1.02649 0.00555095 0)
(1.02554 0.00643631 0)
(1.02419 0.0075823 0)
(1.02233 0.00906522 0)
(1.01985 0.0109845 0)
(1.01658 0.0134704 0)
(1.01233 0.0166944 0)
(1.0069 0.0208864 0)
(0.99999 0.0263456 0)
(0.991376 0.033506 0)
(0.980598 0.0428387 0)
(0.967883 0.0553799 0)
(0.951448 0.0710223 0)
(0.935713 0.0945789 0)
(0.908127 0.114928 0)
(1.00007 0.000636572 0)
(1.00061 0.00168643 0)
(1.00146 0.00230827 0)
(1.00237 0.00265443 0)
(1.00322 0.00291891 0)
(1.00409 0.00312323 0)
(1.00499 0.00324225 0)
(1.0059 0.00329256 0)
(1.00679 0.00330228 0)
(1.00766 0.00328521 0)
(1.00852 0.0032476 0)
(1.00935 0.00319598 0)
(1.01016 0.00313677 0)
(1.01095 0.00307467 0)
(1.01172 0.0030128 0)
(1.01248 0.00295326 0)
(1.01321 0.00289747 0)
(1.01393 0.00284626 0)
(1.01464 0.0028 0)
(1.01534 0.00275875 0)
(1.01602 0.00272237 0)
(1.0167 0.00269058 0)
(1.01737 0.00266308 0)
(1.01803 0.00263954 0)
(1.01868 0.00261972 0)
(1.01933 0.00260344 0)
(1.01997 0.00259062 0)
(1.0206 0.00258132 0)
(1.02123 0.00257575 0)
(1.02184 0.00257429 0)
(1.02245 0.00257753 0)
(1.02304 0.00258636 0)
(1.02362 0.00260199 0)
(1.02419 0.00262605 0)
(1.02473 0.00266078 0)
(1.02524 0.00270913 0)
(1.02572 0.00277496 0)
(1.02616 0.00286332 0)
(1.02656 0.00298076 0)
(1.02688 0.00313567 0)
(1.02713 0.00333888 0)
(1.02728 0.00360427 0)
(1.02731 0.00394965 0)
(1.02718 0.00439793 0)
(1.02686 0.00497851 0)
(1.0263 0.0057293 0)
(1.02543 0.0066991 0)
(1.02417 0.00795089 0)
(1.02244 0.00956612 0)
(1.02012 0.0116503 0)
(1.01705 0.0143411 0)
(1.01306 0.0178173 0)
(1.00795 0.0223168 0)
(1.00148 0.0281447 0)
(0.993434 0.0357355 0)
(0.983471 0.0455588 0)
(0.971826 0.0586014 0)
(0.957391 0.0748542 0)
(0.943587 0.0985189 0)
(0.923741 0.120971 0)
(1.00006 0.000559604 0)
(1.00052 0.00151227 0)
(1.0013 0.00211481 0)
(1.00216 0.00246016 0)
(1.003 0.00271328 0)
(1.00385 0.00290873 0)
(1.00473 0.00302688 0)
(1.00563 0.00307915 0)
(1.00651 0.00309146 0)
(1.00738 0.00307819 0)
(1.00823 0.00304548 0)
(1.00906 0.0029991 0)
(1.00987 0.00294505 0)
(1.01066 0.00288789 0)
(1.01143 0.00283063 0)
(1.01218 0.0027753 0)
(1.01291 0.00272327 0)
(1.01363 0.0026754 0)
(1.01434 0.00263209 0)
(1.01504 0.00259344 0)
(1.01572 0.00255936 0)
(1.0164 0.00252963 0)
(1.01707 0.002504 0)
(1.01773 0.00248221 0)
(1.01838 0.00246407 0)
(1.01902 0.00244945 0)
(1.01966 0.00243835 0)
(1.02029 0.00243087 0)
(1.02091 0.00242729 0)
(1.02153 0.00242809 0)
(1.02213 0.00243397 0)
(1.02272 0.00244591 0)
(1.0233 0.00246527 0)
(1.02386 0.0024939 0)
(1.0244 0.00253423 0)
(1.02491 0.00258949 0)
(1.0254 0.0026639 0)
(1.02584 0.00276293 0)
(1.02624 0.00289365 0)
(1.02657 0.00306515 0)
(1.02683 0.00328908 0)
(1.027 0.0035804 0)
(1.02705 0.00395827 0)
(1.02695 0.00444728 0)
(1.02666 0.00507898 0)
(1.02615 0.00589388 0)
(1.02534 0.00694407 0)
(1.02417 0.00829653 0)
(1.02255 0.0100375 0)
(1.02035 0.0122784 0)
(1.01746 0.0151632 0)
(1.0137 0.0188779 0)
(1.00888 0.0236667 0)
(1.00279 0.0298397 0)
(0.995237 0.0378274 0)
(0.985931 0.0480952 0)
(0.975063 0.061556 0)
(0.961937 0.0782975 0)
(0.949101 0.101799 0)
(0.933405 0.125735 0)
(1.00005 0.000494161 0)
(1.00046 0.00135607 0)
(1.00117 0.00193158 0)
(1.00199 0.00227172 0)
(1.00281 0.00251314 0)
(1.00364 0.00269855 0)
(1.00451 0.0028146 0)
(1.00539 0.00286851 0)
(1.00626 0.00288316 0)
(1.00712 0.00287311 0)
(1.00797 0.00284459 0)
(1.00879 0.00280285 0)
(1.0096 0.00275348 0)
(1.01039 0.00270087 0)
(1.01116 0.00264795 0)
(1.01191 0.00259666 0)
(1.01265 0.00254833 0)
(1.01337 0.00250379 0)
(1.01408 0.00246348 0)
(1.01477 0.00242752 0)
(1.01546 0.00239584 0)
(1.01614 0.0023683 0)
(1.0168 0.00234467 0)
(1.01746 0.00232476 0)
(1.01811 0.00230841 0)
(1.01876 0.00229555 0)
(1.0194 0.00228624 0)
(1.02003 0.00228064 0)
(1.02065 0.00227911 0)
(1.02126 0.00228219 0)
(1.02186 0.00229068 0)
(1.02246 0.00230568 0)
(1.02303 0.00232872 0)
(1.0236 0.00236178 0)
(1.02414 0.00240754 0)
(1.02465 0.00246948 0)
(1.02514 0.00255215 0)
(1.02559 0.00266143 0)
(1.02599 0.00280489 0)
(1.02634 0.00299227 0)
(1.02661 0.00323603 0)
(1.02679 0.00355213 0)
(1.02686 0.00396102 0)
(1.02679 0.00448889 0)
(1.02655 0.00516929 0)
(1.02608 0.00604523 0)
(1.02534 0.00717184 0)
(1.02425 0.00861988 0)
(1.02274 0.0104801 0)
(1.02068 0.0128692 0)
(1.01797 0.0159371 0)
(1.01444 0.0198762 0)
(1.00992 0.0249361 0)
(1.00421 0.0314309 0)
(0.997143 0.0397855 0)
(0.988477 0.0504618 0)
(0.978359 0.0642947 0)
(0.966344 0.08146 0)
(0.954371 0.104754 0)
(0.940932 0.129621 0)
(1.00005 0.000437553 0)
(1.00041 0.0012151 0)
(1.00106 0.00175793 0)
(1.00184 0.00208868 0)
(1.00264 0.00231826 0)
(1.00346 0.00249308 0)
(1.00431 0.0026057 0)
(1.00518 0.0026603 0)
(1.00605 0.00267667 0)
(1.0069 0.00266924 0)
(1.00774 0.00264443 0)
(1.00856 0.00260704 0)
(1.00937 0.00256216 0)
(1.01016 0.002514 0)
(1.01093 0.00246536 0)
(1.01168 0.00241808 0)
(1.01241 0.00237344 0)
(1.01314 0.00233225 0)
(1.01384 0.00229494 0)
(1.01454 0.00226167 0)
(1.01523 0.00223242 0)
(1.0159 0.00220706 0)
(1.01657 0.00218543 0)
(1.01723 0.00216738 0)
(1.01788 0.0021528 0)
(1.01853 0.0021417 0)
(1.01917 0.00213415 0)
(1.0198 0.0021304 0)
(1.02042 0.00213087 0)
(1.02103 0.00213618 0)
(1.02164 0.00214723 0)
(1.02223 0.00216522 0)
(1.02281 0.00219182 0)
(1.02337 0.00222918 0)
(1.02391 0.00228018 0)
(1.02444 0.00234855 0)
(1.02493 0.00243916 0)
(1.02538 0.00255826 0)
(1.02579 0.00271392 0)
(1.02615 0.00291647 0)
(1.02644 0.00317914 0)
(1.02664 0.00351885 0)
(1.02674 0.00395725 0)
(1.0267 0.00452205 0)
(1.02649 0.00524866 0)
(1.02608 0.00618244 0)
(1.02541 0.00738139 0)
(1.02441 0.00891975 0)
(1.02301 0.0108925 0)
(1.0211 0.0134211 0)
(1.01857 0.0166609 0)
(1.01528 0.0208101 0)
(1.01107 0.0261227 0)
(1.00576 0.0329157 0)
(0.99919 0.0416079 0)
(0.991168 0.0526563 0)
(0.981816 0.0668228 0)
(0.970844 0.0843528 0)
(0.959834 0.107471 0)
(0.947935 0.132862 0)
(1.00004 0.000387796 0)
(1.00037 0.00108696 0)
(1.00097 0.00159329 0)
(1.00172 0.00191091 0)
(1.0025 0.00212823 0)
(1.0033 0.00229197 0)
(1.00413 0.00239984 0)
(1.00499 0.00245418 0)
(1.00585 0.00247176 0)
(1.0067 0.00246656 0)
(1.00754 0.0024451 0)
(1.00836 0.00241178 0)
(1.00916 0.00237121 0)
(1.00995 0.00232734 0)
(1.01072 0.00228285 0)
(1.01147 0.00223949 0)
(1.01221 0.00219847 0)
(1.01293 0.00216058 0)
(1.01364 0.00212626 0)
(1.01433 0.00209567 0)
(1.01502 0.00206883 0)
(1.0157 0.00204566 0)
(1.01637 0.00202604 0)
(1.01703 0.00200986 0)
(1.01768 0.00199707 0)
(1.01832 0.00198771 0)
(1.01896 0.00198192 0)
(1.01959 0.00198001 0)
(1.02022 0.00198246 0)
(1.02083 0.00198995 0)
(1.02143 0.00200349 0)
(1.02203 0.00202439 0)
(1.02261 0.00205442 0)
(1.02318 0.00209592 0)
(1.02372 0.00215195 0)
(1.02425 0.00222648 0)
(1.02475 0.00232467 0)
(1.02521 0.00245313 0)
(1.02563 0.00262039 0)
(1.026 0.00283735 0)
(1.0263 0.00311795 0)
(1.02653 0.00348002 0)
(1.02665 0.00394634 0)
(1.02665 0.004546 0)
(1.02649 0.00531621 0)
(1.02613 0.00630447 0)
(1.02553 0.00757146 0)
(1.02463 0.00919464 0)
(1.02334 0.0112729 0)
(1.02159 0.013932 0)
(1.01926 0.0173324 0)
(1.01622 0.021677 0)
(1.01233 0.0272238 0)
(1.00742 0.0342918 0)
(1.00136 0.0432927 0)
(0.993988 0.0546775 0)
(0.985407 0.0691422 0)
(0.975436 0.0869777 0)
(0.965439 0.109956 0)
(0.95485 0.135599 0)
(1.00004 0.000343414 0)
(1.00034 0.000969603 0)
(1.00089 0.001437 0)
(1.00161 0.00173819 0)
(1.00237 0.00194255 0)
(1.00316 0.0020948 0)
(1.00398 0.00219684 0)
(1.00483 0.00225003 0)
(1.00568 0.00226837 0)
(1.00652 0.00226504 0)
(1.00736 0.00224658 0)
(1.00817 0.00221704 0)
(1.00898 0.00218056 0)
(1.00976 0.00214082 0)
(1.01053 0.00210037 0)
(1.01128 0.00206085 0)
(1.01202 0.00202341 0)
(1.01274 0.0019888 0)
(1.01345 0.00195745 0)
(1.01415 0.00192955 0)
(1.01484 0.00190513 0)
(1.01551 0.00188416 0)
(1.01618 0.00186655 0)
(1.01684 0.00185224 0)
(1.0175 0.00184123 0)
(1.01814 0.00183361 0)
(1.01878 0.00182957 0)
(1.01941 0.00182947 0)
(1.02004 0.00183384 0)
(1.02065 0.00184347 0)
(1.02126 0.00185942 0)
(1.02185 0.00188311 0)
(1.02244 0.00191645 0)
(1.02301 0.00196191 0)
(1.02356 0.00202274 0)
(1.02409 0.00210313 0)
(1.02459 0.00220851 0)
(1.02506 0.00234584 0)
(1.02549 0.00252407 0)
(1.02588 0.00275463 0)
(1.0262 0.00305213 0)
(1.02644 0.00343524 0)
(1.0266 0.00392778 0)
(1.02663 0.00456016 0)
(1.02652 0.0053712 0)
(1.02622 0.00641041 0)
(1.0257 0.00774095 0)
(1.02489 0.00944324 0)
(1.02374 0.0116196 0)
(1.02215 0.0144 0)
(1.02002 0.0179491 0)
(1.01724 0.0224743 0)
(1.01368 0.0282367 0)
(1.00918 0.0355565 0)
(1.00364 0.0448385 0)
(0.996917 0.0565258 0)
(0.989105 0.0712561 0)
(0.980096 0.0893438 0)
(0.971101 0.112204 0)
(0.961714 0.137926 0)
(1.00003 0.000303298 0)
(1.00031 0.000861296 0)
(1.00083 0.0012883 0)
(1.00151 0.00157023 0)
(1.00226 0.00176078 0)
(1.00303 0.00190119 0)
(1.00385 0.00199654 0)
(1.00468 0.00204776 0)
(1.00553 0.0020664 0)
(1.00637 0.00206459 0)
(1.0072 0.00204879 0)
(1.00801 0.00202276 0)
(1.00881 0.00199018 0)
(1.0096 0.00195443 0)
(1.01037 0.00191791 0)
(1.01112 0.00188218 0)
(1.01186 0.00184827 0)
(1.01258 0.00181691 0)
(1.01329 0.00178852 0)
(1.01399 0.0017633 0)
(1.01467 0.0017413 0)
(1.01535 0.00172253 0)
(1.01602 0.00170694 0)
(1.01668 0.0016945 0)
(1.01734 0.00168527 0)
(1.01798 0.00167937 0)
(1.01862 0.00167705 0)
(1.01926 0.00167873 0)
(1.01988 0.00168499 0)
(1.0205 0.00169669 0)
(1.0211 0.00171496 0)
(1.0217 0.00174135 0)
(1.02229 0.00177784 0)
(1.02286 0.00182708 0)
(1.02341 0.00189246 0)
(1.02395 0.00197839 0)
(1.02446 0.00209056 0)
(1.02494 0.00223624 0)
(1.02538 0.00242478 0)
(1.02578 0.00266809 0)
(1.02612 0.0029814 0)
(1.02639 0.00338416 0)
(1.02657 0.00390115 0)
(1.02664 0.00456399 0)
(1.02658 0.00541299 0)
(1.02635 0.0064995 0)
(1.02591 0.00788892 0)
(1.0252 0.00966436 0)
(1.02418 0.0119314 0)
(1.02275 0.0148235 0)
(1.02084 0.0185093 0)
(1.01833 0.0231999 0)
(1.0151 0.0291592 0)
(1.01103 0.0367081 0)
(1.00602 0.0462443 0)
(0.999937 0.058202 0)
(0.992888 0.0731679 0)
(0.984807 0.0914635 0)
(0.976777 0.11422 0)
(0.968494 0.139914 0)
(1.00003 0.000266595 0)
(1.00029 0.000760562 0)
(1.00078 0.00114642 0)
(1.00143 0.00140673 0)
(1.00216 0.00158253 0)
(1.00293 0.0017108 0)
(1.00373 0.00179875 0)
(1.00456 0.00184725 0)
(1.0054 0.00186571 0)
(1.00623 0.0018651 0)
(1.00706 0.00185168 0)
(1.00787 0.00182891 0)
(1.00867 0.00180005 0)
(1.00945 0.00176817 0)
(1.01022 0.00173549 0)
(1.01097 0.00170347 0)
(1.01171 0.00167305 0)
(1.01243 0.00164491 0)
(1.01314 0.00161947 0)
(1.01384 0.00159692 0)
(1.01453 0.00157735 0)
(1.01521 0.00156078 0)
(1.01588 0.0015472 0)
(1.01654 0.00153664 0)
(1.0172 0.00152917 0)
(1.01784 0.00152498 0)
(1.01848 0.00152436 0)
(1.01912 0.00152778 0)
(1.01974 0.00153588 0)
(1.02036 0.00154958 0)
(1.02097 0.0015701 0)
(1.02157 0.00159905 0)
(1.02216 0.00163855 0)
(1.02273 0.00169136 0)
(1.02329 0.00176103 0)
(1.02383 0.00185218 0)
(1.02435 0.00197071 0)
(1.02484 0.0021242 0)
(1.02529 0.00232235 0)
(1.02571 0.00257752 0)
(1.02606 0.00290553 0)
(1.02636 0.00332649 0)
(1.02657 0.0038661 0)
(1.02669 0.00455705 0)
(1.02667 0.00544102 0)
(1.02651 0.00657103 0)
(1.02615 0.00801449 0)
(1.02555 0.00985696 0)
(1.02466 0.0122068 0)
(1.02341 0.0152009 0)
(1.02171 0.0190111 0)
(1.01948 0.0238521 0)
(1.0166 0.0299896 0)
(1.01296 0.037745 0)
(1.00847 0.0475092 0)
(1.00304 0.0597075 0)
(0.996744 0.0748814 0)
(0.989557 0.093349 0)
(0.982448 0.116014 0)
(0.975174 0.141618 0)
(1.00003 0.000232642 0)
(1.00027 0.000666151 0)
(1.00073 0.00101056 0)
(1.00137 0.00124733 0)
(1.00208 0.00140745 0)
(1.00283 0.00152328 0)
(1.00363 0.00160325 0)
(1.00445 0.00164835 0)
(1.00528 0.0016662 0)
(1.00611 0.0016665 0)
(1.00693 0.00165519 0)
(1.00774 0.00163545 0)
(1.00854 0.00161015 0)
(1.00933 0.00158201 0)
(1.01009 0.0015531 0)
(1.01085 0.00152472 0)
(1.01158 0.00149775 0)
(1.01231 0.00147281 0)
(1.01302 0.0014503 0)
(1.01372 0.00143042 0)
(1.01441 0.00141328 0)
(1.01509 0.0013989 0)
(1.01576 0.00138734 0)
(1.01642 0.00137864 0)
(1.01707 0.00137293 0)
(1.01772 0.00137043 0)
(1.01836 0.00137149 0)
(1.019 0.0013766 0)
(1.01962 0.00138649 0)
(1.02024 0.00140212 0)
(1.02085 0.00142478 0)
(1.02145 0.00145618 0)
(1.02205 0.00149853 0)
(1.02262 0.0015547 0)
(1.02319 0.0016284 0)
(1.02373 0.00172442 0)
(1.02426 0.00184887 0)
(1.02476 0.00200961 0)
(1.02522 0.00221664 0)
(1.02565 0.00248277 0)
(1.02603 0.00282428 0)
(1.02635 0.00326197 0)
(1.0266 0.00382228 0)
(1.02675 0.00453893 0)
(1.02679 0.00545479 0)
(1.0267 0.00662437 0)
(1.02642 0.00811691 0)
(1.02594 0.0100201 0)
(1.02519 0.0124449 0)
(1.02411 0.0155309 0)
(1.02264 0.0194532 0)
(1.02068 0.024429 0)
(1.01815 0.0307261 0)
(1.01495 0.0386658 0)
(1.011 0.048633 0)
(1.00621 0.0610436 0)
(1.00066 0.0764005 0)
(0.994338 0.0950115 0)
(0.988111 0.117596 0)
(0.981753 0.143081 0)
(1.00003 0.000200912 0)
(1.00025 0.000577001 0)
(1.0007 0.000879969 0)
(1.00131 0.00109166 0)
(1.00201 0.00123521 0)
(1.00275 0.0013383 0)
(1.00354 0.00140981 0)
(1.00435 0.00145092 0)
(1.00518 0.00146773 0)
(1.00601 0.00146868 0)
(1.00683 0.00145926 0)
(1.00764 0.00144236 0)
(1.00843 0.00142046 0)
(1.00922 0.00139596 0)
(1.00998 0.00137072 0)
(1.01074 0.00134593 0)
(1.01147 0.00132237 0)
(1.0122 0.00130062 0)
(1.01291 0.00128102 0)
(1.01361 0.00126381 0)
(1.0143 0.00124908 0)
(1.01498 0.0012369 0)
(1.01565 0.00122735 0)
(1.01631 0.00122051 0)
(1.01697 0.00121654 0)
(1.01762 0.00121572 0)
(1.01826 0.00121841 0)
(1.01889 0.00122519 0)
(1.01952 0.0012368 0)
(1.02014 0.00125429 0)
(1.02075 0.001279 0)
(1.02136 0.00131271 0)
(1.02195 0.00135774 0)
(1.02253 0.00141706 0)
(1.0231 0.00149451 0)
(1.02365 0.00159504 0)
(1.02419 0.00172496 0)
(1.0247 0.00189236 0)
(1.02517 0.00210754 0)
(1.02562 0.00238366 0)
(1.02602 0.00273748 0)
(1.02636 0.00319034 0)
(1.02664 0.00376941 0)
(1.02684 0.00450925 0)
(1.02694 0.00545383 0)
(1.02691 0.00665897 0)
(1.02673 0.00819548 0)
(1.02636 0.010153 0)
(1.02575 0.0126446 0)
(1.02485 0.0158124 0)
(1.02361 0.019834 0)
(1.02194 0.0249293 0)
(1.01977 0.0313674 0)
(1.01701 0.0394696 0)
(1.01359 0.0496152 0)
(1.00944 0.0622118 0)
(1.00463 0.0777292 0)
(0.999147 0.0964612 0)
(0.993762 0.118978 0)
(0.988241 0.144337 0)
(1.00003 0.000170977 0)
(1.00024 0.000492199 0)
(1.00067 0.000753911 0)
(1.00126 0.000939318 0)
(1.00195 0.00106546 0)
(1.00268 0.00115552 0)
(1.00346 0.00121819 0)
(1.00427 0.00125481 0)
(1.00509 0.00127021 0)
(1.00592 0.00127157 0)
(1.00673 0.00126383 0)
(1.00754 0.00124959 0)
(1.00834 0.00123095 0)
(1.00912 0.00121 0)
(1.00989 0.00118837 0)
(1.01064 0.00116711 0)
(1.01138 0.00114693 0)
(1.0121 0.00112833 0)
(1.01282 0.00111165 0)
(1.01352 0.00109709 0)
(1.01421 0.00108477 0)
(1.01489 0.00107479 0)
(1.01556 0.00106724 0)
(1.01622 0.00106224 0)
(1.01688 0.00106001 0)
(1.01752 0.00106083 0)
(1.01817 0.00106513 0)
(1.0188 0.00107352 0)
(1.01943 0.0010868 0)
(1.02005 0.00110606 0)
(1.02067 0.00113272 0)
(1.02128 0.00116862 0)
(1.02187 0.00121615 0)
(1.02246 0.00127839 0)
(1.02303 0.00135931 0)
(1.02359 0.00146398 0)
(1.02413 0.0015989 0)
(1.02465 0.00177235 0)
(1.02514 0.00199491 0)
(1.0256 0.00228006 0)
(1.02602 0.00264494 0)
(1.0264 0.0031114 0)
(1.02671 0.00370721 0)
(1.02695 0.00446769 0)
(1.02711 0.00543775 0)
(1.02715 0.00667433 0)
(1.02706 0.00824961 0)
(1.0268 0.0102548 0)
(1.02634 0.012805 0)
(1.02563 0.0160443 0)
(1.02462 0.0201526 0)
(1.02324 0.0253518 0)
(1.02143 0.0319123 0)
(1.01912 0.0401553 0)
(1.01623 0.0504557 0)
(1.01273 0.0632135 0)
(1.00865 0.0788708 0)
(1.00398 0.0977068 0)
(0.999402 0.120171 0)
(0.994651 0.145413 0)
(1.00003 0.000142485 0)
(1.00023 0.000410955 0)
(1.00064 0.000631692 0)
(1.00122 0.000789881 0)
(1.0019 0.00089788 0)
(1.00263 0.000974634 0)
(1.0034 0.00102816 0)
(1.0042 0.00105985 0)
(1.00502 0.0010735 0)
(1.00584 0.00107506 0)
(1.00666 0.00106884 0)
(1.00746 0.0010571 0)
(1.00826 0.0010416 0)
(1.00904 0.00102411 0)
(1.00981 0.00100603 0)
(1.01056 0.000988266 0)
(1.0113 0.000971432 0)
(1.01202 0.000955965 0)
(1.01274 0.000942175 0)
(1.01344 0.000930261 0)
(1.01413 0.000920352 0)
(1.01481 0.000912557 0)
(1.01548 0.000906999 0)
(1.01614 0.000903841 0)
(1.0168 0.000903316 0)
(1.01745 0.000905759 0)
(1.01809 0.000911639 0)
(1.01873 0.000921596 0)
(1.01936 0.000936485 0)
(1.01998 0.000957438 0)
(1.0206 0.000985928 0)
(1.02121 0.00102387 0)
(1.02181 0.00107372 0)
(1.0224 0.00113866 0)
(1.02298 0.00122275 0)
(1.02354 0.00133119 0)
(1.02409 0.00147062 0)
(1.02462 0.00164951 0)
(1.02513 0.00187867 0)
(1.0256 0.00217184 0)
(1.02605 0.00254652 0)
(1.02645 0.00302495 0)
(1.0268 0.00363545 0)
(1.02709 0.00441397 0)
(1.0273 0.00540619 0)
(1.02741 0.00667001 0)
(1.02741 0.00827876 0)
(1.02727 0.010325 0)
(1.02696 0.0129254 0)
(1.02644 0.0162258 0)
(1.02566 0.0204079 0)
(1.02458 0.0256953 0)
(1.02314 0.0323598 0)
(1.02127 0.0407223 0)
(1.01893 0.0511543 0)
(1.01606 0.0640498 0)
(1.01271 0.0798284 0)
(1.00883 0.0987558 0)
(1.00504 0.121185 0)
(1.001 0.14633 0)
(1.00002 0.00011514 0)
(1.00022 0.000332579 0)
(1.00062 0.000512652 0)
(1.00119 0.000642915 0)
(1.00186 0.000732146 0)
(1.00258 0.000795341 0)
(1.00335 0.000839472 0)
(1.00414 0.000865883 0)
(1.00496 0.000877486 0)
(1.00578 0.000879063 0)
(1.00659 0.000874216 0)
(1.0074 0.000864851 0)
(1.00819 0.000852397 0)
(1.00898 0.000838291 0)
(1.00974 0.0008237 0)
(1.0105 0.000809392 0)
(1.01123 0.000795875 0)
(1.01196 0.000783527 0)
(1.01267 0.00077262 0)
(1.01337 0.000763343 0)
(1.01406 0.000755833 0)
(1.01474 0.000750219 0)
(1.01542 0.000746646 0)
(1.01608 0.000745309 0)
(1.01674 0.000746475 0)
(1.01739 0.000750513 0)
(1.01803 0.00075793 0)
(1.01867 0.000769404 0)
(1.0193 0.000785833 0)
(1.01993 0.000808392 0)
(1.02054 0.000838607 0)
(1.02116 0.000878445 0)
(1.02176 0.00093044 0)
(1.02235 0.000997837 0)
(1.02294 0.00108479 0)
(1.02351 0.00119661 0)
(1.02407 0.00134006 0)
(1.02461 0.00152377 0)
(1.02513 0.00175873 0)
(1.02562 0.0020589 0)
(1.02609 0.00244208 0)
(1.02652 0.00293085 0)
(1.0269 0.00355394 0)
(1.02724 0.00434784 0)
(1.02751 0.00535885 0)
(1.0277 0.00664566 0)
(1.02779 0.0082825 0)
(1.02777 0.010363 0)
(1.02761 0.0130051 0)
(1.02728 0.016356 0)
(1.02674 0.020599 0)
(1.02596 0.0259591 0)
(1.02488 0.0327089 0)
(1.02347 0.0411698 0)
(1.02167 0.0517108 0)
(1.01944 0.0647216 0)
(1.01681 0.0806047 0)
(1.01371 0.0996145 0)
(1.01067 0.122027 0)
(1.0073 0.147105 0)
(1.00002 8.86848e-05 0)
(1.00022 0.000256454 0)
(1.00061 0.000396166 0)
(1.00116 0.000497975 0)
(1.00182 0.000567924 0)
(1.00254 0.000617339 0)
(1.00331 0.000651881 0)
(1.0041 0.000672732 0)
(1.00491 0.000682049 0)
(1.00573 0.000683487 0)
(1.00654 0.000679897 0)
(1.00735 0.000672799 0)
(1.00814 0.000663301 0)
(1.00892 0.00065252 0)