/*--------------------------------*- C++ -*----------------------------------*\
| =========                 |                                                 |
| \\      /  F ield         | OpenFOAM: The Open Source CFD Toolbox           |
|  \\    /   O peration     | Version:  2.4.0                                 |
|   \\  /    A nd           | Web:      www.OpenFOAM.org                      |
|    \\/     M anipulation  |                                                 |
\*---------------------------------------------------------------------------*/
FoamFile
{
    version     2.0;
    format      ascii;
    class       surfaceScalarField;
    location    "2.23";
    object      phi;
}
// * * * * * * * * * * * * * * * * * * * * * * * * * * * * * * * * * * * * * //

dimensions      [0 3 -1 0 0 0 0];

internalField   nonuniform List<scalar> 
11840
(
7.85302e-07
9.2147e-06
-2.0036e-08
8.05338e-07
-4.78737e-08
2.78377e-08
-7.30179e-08
2.51442e-08
-8.39959e-08
1.0978e-08
-8.57068e-08
1.71085e-09
-8.99682e-08
4.2614e-09
-8.97396e-08
-2.28537e-10
-9.2965e-08
3.22535e-09
-9.58893e-08
2.92432e-09
-1.02464e-07
6.57492e-09
-1.0741e-07
4.9455e-09
-1.06614e-07
-7.95635e-10
-9.10828e-08
-1.55313e-08
-5.69171e-08
-3.41658e-08
-7.89005e-09
-4.9027e-08
4.16449e-08
-4.9535e-08
7.47738e-08
-3.31289e-08
7.17803e-08
2.99349e-09
9.17456e-09
6.26057e-08
-1.32123e-07
1.41298e-07
-3.55106e-07
2.22983e-07
-6.34783e-07
2.79677e-07
-9.32164e-07
2.97381e-07
-1.20913e-06
2.76966e-07
-1.43538e-06
2.26249e-07
-1.58742e-06
1.52039e-07
-1.64567e-06
5.82549e-08
-1.59413e-06
-5.15461e-08
-1.4263e-06
-1.67824e-07
-1.15268e-06
-2.73624e-07
-8.03948e-07
-3.4873e-07
-4.25654e-07
-3.78293e-07
-6.65793e-08
-3.59075e-07
2.37089e-07
-3.03668e-07
4.6674e-07
-2.29651e-07
6.1525e-07
-1.4851e-07
6.89506e-07
-7.42569e-08
7.06227e-07
-1.67203e-08
6.84969e-07
2.12582e-08
6.43337e-07
4.1632e-08
5.94695e-07
4.86413e-08
5.48291e-07
4.64044e-08
5.10291e-07
3.79996e-08
4.84342e-07
2.59487e-08
4.72064e-07
1.22789e-08
4.7326e-07
-1.19643e-09
4.86912e-07
-1.36519e-08
5.1077e-07
-2.38582e-08
5.43723e-07
-3.29525e-08
5.81522e-07
-3.7799e-08
6.25288e-07
-4.37669e-08
6.65652e-07
-4.03636e-08
7.13063e-07
-4.74113e-08
7.42591e-07
-2.95278e-08
7.95247e-07
-5.26554e-08
7.97326e-07
-2.07947e-09
8.82419e-07
-8.50929e-08
8.27309e-07
5.51102e-08
-2.71916e-07
1.9186e-06
1.72961e-05
1.03185e-07
2.62076e-06
-7.36122e-08
2.04635e-07
-1.77593e-07
1.29125e-07
-2.10104e-07
4.34893e-08
-2.2848e-07
2.00862e-08
-2.39763e-07
1.5545e-08
-2.45511e-07
5.51963e-09
-2.54344e-07
1.20582e-08
-2.65683e-07
1.42627e-08
-2.82942e-07
2.38345e-08
-2.95836e-07
1.7839e-08
-2.90444e-07
-6.18725e-09
-2.46537e-07
-5.94381e-08
-1.55612e-07
-1.25091e-07
-3.15356e-08
-1.73104e-07
8.55586e-08
-1.66629e-07
1.45639e-07
-9.32095e-08
9.34811e-08
5.51516e-08
-1.28978e-07
2.85065e-07
-5.5324e-07
5.65559e-07
-1.15136e-06
8.21106e-07
-1.84098e-06
9.69292e-07
-2.52296e-06
9.79366e-07
-3.11428e-06
8.68283e-07
-3.55662e-06
6.68588e-07
-3.80923e-06
4.04649e-07
-3.8412e-06
9.02274e-08
-3.63065e-06
-2.62097e-07
-3.17488e-06
-6.23593e-07
-2.5028e-06
-9.45712e-07
-1.67865e-06
-1.17288e-06
-7.92521e-07
-1.26442e-06
4.9743e-08
-1.20134e-06
7.58264e-07
-1.01219e-06
1.28694e-06
-7.58323e-07
1.62597e-06
-4.87543e-07
1.79366e-06
-2.4195e-07
1.82789e-06
-5.09456e-08
1.77356e-06
7.55812e-08
1.67167e-06
1.43529e-07
1.55425e-06
1.66056e-07
1.44393e-06
1.56731e-07
1.3555e-06
1.26426e-07
1.2974e-06
8.40491e-08
1.27281e-06
3.68636e-08
1.28086e-06
-9.24142e-09
1.31849e-06
-5.12859e-08
1.3808e-06
-8.61622e-08
1.46308e-06
-1.15235e-07
1.5584e-06
-1.33121e-07
1.66297e-06
-1.48334e-07
1.76648e-06
-1.43879e-07
1.87196e-06
-1.52886e-07
1.96012e-06
-1.17686e-07
2.05751e-06
-1.50051e-07
2.11291e-06
-5.74731e-08
2.23295e-06
-2.05132e-07
2.22892e-06
5.91407e-08
-7.04457e-07
2.91795e-06
2.43781e-05
3.97948e-07
5.14076e-06
-3.91041e-08
6.41687e-07
-2.38612e-07
3.28633e-07
-3.02735e-07
1.07612e-07
-3.4579e-07
6.31414e-08
-3.67121e-07
3.68757e-08
-3.82634e-07
2.1033e-08
-3.98417e-07
2.78409e-08
-4.196e-07
3.54464e-08
-4.46886e-07
5.11201e-08
-4.66563e-07
3.75159e-08
-4.5558e-07
-1.71696e-08
-3.86591e-07
-1.28427e-07
-2.49853e-07
-2.61829e-07
-7.09113e-08
-3.52045e-07
8.69915e-08
-3.24532e-07
1.42927e-07
-1.49145e-07
8.56142e-09
1.89517e-07
-3.97966e-07
6.91592e-07
-1.10305e-06
1.27064e-06
-2.03699e-06
1.75504e-06
-3.05825e-06
1.99056e-06
-4.01665e-06
1.93777e-06
-4.79822e-06
1.64985e-06
-5.33074e-06
1.20111e-06
-5.56947e-06
6.43379e-07
-5.48528e-06
6.0411e-09
-5.06415e-06
-6.83225e-07
-4.31888e-06
-1.36886e-06
-3.3009e-06
-1.96369e-06
-2.102e-06
-2.37178e-06
-8.44214e-07
-2.52221e-06
3.32642e-07
-2.3782e-06
1.32255e-06
-2.0021e-06
2.06897e-06
-1.50474e-06
2.5522e-06
-9.70772e-07
2.79247e-06
-4.82221e-07
2.8396e-06
-9.80803e-08
2.75632e-06
1.5886e-07
2.60267e-06
2.97179e-07
2.42701e-06
3.41724e-07
2.26376e-06
3.1998e-07
2.13504e-06
2.55143e-07
2.05284e-06
1.66248e-07
2.02105e-06
6.86547e-08
2.03785e-06
-2.60446e-08
2.09798e-06
-1.1141e-07
2.19453e-06
-1.82715e-07
2.31944e-06
-2.40145e-07
2.46438e-06
-2.78058e-07
2.62014e-06
-3.04099e-07
2.77856e-06
-3.02294e-07
2.93147e-06
-3.05802e-07
3.07366e-06
-2.59876e-07
3.20282e-06
-2.79212e-07
3.31596e-06
-1.70604e-07
3.44489e-06
-3.34062e-07
3.52168e-06
-1.76501e-08
-1.18481e-06
3.80993e-06
3.05682e-05
8.15267e-07
8.13543e-06
5.44003e-08
1.40255e-06
-2.51899e-07
6.34931e-07
-3.61824e-07
2.17538e-07
-4.35411e-07
1.36728e-07
-4.71733e-07
7.31978e-08
-4.99727e-07
4.90261e-08
-5.24597e-07
5.27116e-08
-5.56379e-07
6.72278e-08
-5.93538e-07
8.82793e-08
-6.19258e-07
6.32365e-08
-6.03559e-07
-3.28695e-08
-5.14852e-07
-2.17134e-07
-3.44802e-07
-4.31879e-07
-1.30485e-07
-5.66363e-07
4.43123e-08
-4.99329e-07
7.07011e-08
-1.75534e-07
-1.68115e-07
4.28333e-07
-7.66876e-07
1.29035e-06
-1.73213e-06
2.23589e-06
-2.94289e-06
2.96581e-06
-4.20028e-06
3.24795e-06
-5.31606e-06
3.05355e-06
-6.16263e-06
2.49641e-06
-6.67028e-06
1.70876e-06
-6.80431e-06
7.77413e-07
-6.54919e-06
-2.49077e-07
-5.90782e-06
-1.3246e-06
-4.91126e-06
-2.36542e-06
-3.62883e-06
-3.24612e-06
-2.16892e-06
-3.83169e-06
-6.7098e-07
-4.02015e-06
7.20087e-07
-3.76926e-06
1.90078e-06
-3.18279e-06
2.80171e-06
-2.40567e-06
3.39198e-06
-1.56105e-06
3.68878e-06
-7.79015e-07
3.74672e-06
-1.56022e-07
3.63994e-06
2.65644e-07
3.44319e-06
4.93921e-07
3.21878e-06
5.66139e-07
3.01163e-06
5.27132e-07
2.85015e-06
4.16616e-07
2.74908e-06
2.67328e-07
2.71249e-06
1.05244e-07
2.73744e-06
-5.09966e-08
2.81672e-06
-1.90687e-07
2.94159e-06
-3.07586e-07
3.10149e-06
-4.00052e-07
3.28665e-06
-4.63219e-07
3.4844e-06
-5.01845e-07
3.68697e-06
-5.04863e-07
3.87983e-06
-4.98659e-07
4.06463e-06
-4.44681e-07
4.22333e-06
-4.37913e-07
4.37918e-06
-3.26447e-07
4.52171e-06
-4.766e-07
4.66012e-06
-1.56061e-07
-1.6762e-06
4.61655e-06
3.59517e-05
1.3268e-06
1.14252e-05
2.15334e-07
2.51402e-06
-2.16276e-07
1.06654e-06
-3.86171e-07
3.87433e-07
-4.96503e-07
2.47061e-07
-5.5286e-07
1.29555e-07
-5.96174e-07
9.23402e-08
-6.32199e-07
8.87364e-08
-6.753e-07
1.10329e-07
-7.2233e-07
1.3531e-07
-7.54063e-07
9.49691e-08
-7.35783e-07
-5.11494e-08
-6.34074e-07
-3.18844e-07
-4.43596e-07
-6.22356e-07
-2.11933e-07
-7.98026e-07
-4.0571e-08
-6.70691e-07
-6.29115e-08
-1.53193e-07
-4.18218e-07
7.8364e-07
-1.20325e-06
2.07538e-06
-2.39156e-06
3.4242e-06
-3.80479e-06
4.37904e-06
-5.19426e-06
4.63742e-06
-6.35118e-06
4.21047e-06
-7.15347e-06
3.2987e-06
-7.54946e-06
2.10474e-06
-7.52517e-06
7.53128e-07
-7.0851e-06
-6.89154e-07
-6.24976e-06
-2.15993e-06
-5.06386e-06
-3.55133e-06
-3.60589e-06
-4.70409e-06
-1.99005e-06
-5.44753e-06
-3.57142e-07
-5.65305e-06
1.16383e-06
-5.29023e-06
2.4723e-06
-4.49127e-06
3.48163e-06
-3.41499e-06
4.15095e-06
-2.23037e-06
4.49219e-06
-1.12025e-06
4.56012e-06
-2.23954e-07
4.43525e-06
3.90515e-07
4.20319e-06
7.25977e-07
3.93794e-06
8.31388e-07
3.69378e-06
7.71298e-07
3.50471e-06
6.05683e-07
3.38767e-06
3.84366e-07
3.3467e-06
1.46217e-07
3.37765e-06
-8.19478e-08
3.47166e-06
-2.84689e-07
3.61836e-06
-4.54288e-07
3.80543e-06
-5.87123e-07
4.02171e-06
-6.79502e-07
4.25249e-06
-7.32626e-07
4.48936e-06
-7.41729e-07
4.71475e-06
-7.24048e-07
4.93224e-06
-6.62178e-07
5.11731e-06
-6.22983e-07
5.30356e-06
-5.12696e-07
5.46202e-06
-6.35056e-07
5.64449e-06
-3.38534e-07
-2.15432e-06
5.34818e-06
4.06035e-05
1.90507e-06
1.48683e-05
4.51488e-07
3.9676e-06
-1.30607e-07
1.64864e-06
-3.74606e-07
6.31432e-07
-5.28224e-07
4.0068e-07
-6.09788e-07
2.11119e-07
-6.71407e-07
1.53959e-07
-7.2061e-07
1.3794e-07
-7.75757e-07
1.65475e-07
-8.32842e-07
1.92395e-07
-8.71201e-07
1.33328e-07
-8.53443e-07
-6.89074e-08
-7.46166e-07
-4.26121e-07
-5.47703e-07
-8.20819e-07
-3.14558e-07
-1.03117e-06
-1.63077e-07
-8.22171e-07
-2.46941e-07
-6.93296e-08
-7.21289e-07
1.25799e-06
-1.67393e-06
3.02803e-06
-3.03458e-06
4.78485e-06
-4.56694e-06
5.91139e-06
-5.98614e-06
6.05663e-06
-7.08356e-06
5.30788e-06
-7.76115e-06
3.9763e-06
-7.99693e-06
2.34052e-06
-7.80238e-06
5.58587e-07
-7.20028e-06
-1.29126e-06
-6.2218e-06
-3.13841e-06
-4.91575e-06
-4.85738e-06
-3.36041e-06
-6.25943e-06
-1.66657e-06
-7.14138e-06
3.56387e-08
-7.35526e-06
1.6337e-06
-6.88829e-06
3.02421e-06
-5.88178e-06
4.10865e-06
-4.49943e-06
4.83715e-06
-2.95887e-06
5.21436e-06
-1.49747e-06
5.29216e-06
-3.01756e-07
5.15392e-06
5.28758e-07
4.89302e-06
9.86876e-07
4.59317e-06
1.13124e-06
4.31697e-06
1.0475e-06
4.10353e-06
8.19122e-07
3.97172e-06
5.16177e-07
3.92542e-06
1.92519e-07
3.95934e-06
-1.15874e-07
4.06324e-06
-3.88581e-07
4.22538e-06
-6.16433e-07
4.43222e-06
-7.93959e-07
4.67138e-06
-9.18665e-07
4.92707e-06
-9.88319e-07
5.1897e-06
-1.00436e-06
5.44077e-06
-9.75112e-07
5.68284e-06
-9.04252e-07
5.89056e-06
-8.30697e-07
6.098e-06
-7.2014e-07
6.27249e-06
-8.09542e-07
6.48481e-06
-5.5086e-07
-2.6049e-06
6.01035e-06
4.45931e-05
2.52717e-06
1.83515e-05
7.61278e-07
5.73349e-06
1.92258e-09
2.40799e-06
-3.25955e-07
9.59309e-07
-5.29658e-07
6.04382e-07
-6.41765e-07
3.23226e-07
-7.24836e-07
2.3703e-07
-7.89243e-07
2.02347e-07
-8.57206e-07
2.33438e-07
-9.24725e-07
2.59914e-07
-9.70852e-07
1.79454e-07
-9.57338e-07
-8.24206e-08
-8.52057e-07
-5.31402e-07
-6.5698e-07
-1.0159e-06
-4.35651e-07
-1.2525e-06
-3.16207e-07
-9.41615e-07
-4.68395e-07
8.28585e-08
-1.05582e-06
1.84541e-06
-2.14668e-06
4.11889e-06
-3.61967e-06
6.25784e-06
-5.18651e-06
7.47823e-06
-6.54519e-06
7.41531e-06
-7.50924e-06
6.27193e-06
-8.01965e-06
4.48671e-06
-8.08859e-06
2.40946e-06
-7.74863e-06
2.18626e-07
-7.03014e-06
-2.00975e-06
-5.9635e-06
-4.20505e-06
-4.59318e-06
-6.2277e-06
-2.99155e-06
-7.86105e-06
-1.26225e-06
-8.87068e-06
4.76033e-07
-9.09354e-06
2.11725e-06
-8.52951e-06
3.55396e-06
-7.31848e-06
4.68631e-06
-5.63178e-06
5.45841e-06
-3.73097e-06
5.86577e-06
-1.90483e-06
5.95409e-06
-3.90081e-07
5.80663e-06
6.76225e-07
5.52216e-06
1.27134e-06
5.19249e-06
1.46091e-06
4.8877e-06
1.3523e-06
4.65165e-06
1.05517e-06
4.50504e-06
6.62783e-07
4.45163e-06
2.45928e-07
4.48513e-06
-1.49374e-07
4.59414e-06
-4.97586e-07
4.76582e-06
-7.8812e-07
4.9858e-06
-1.01394e-06
5.24072e-06
-1.17358e-06
5.51427e-06
-1.26188e-06
5.79555e-06
-1.28564e-06
6.06623e-06
-1.24579e-06
6.32645e-06
-1.16447e-06
6.55293e-06
-1.05718e-06
6.775e-06
-9.42211e-07
6.96414e-06
-9.98676e-07
7.19557e-06
-7.82295e-07
-3.02107e-06
6.60689e-06
4.79862e-05
3.17408e-06
2.17843e-05
1.14104e-06
7.76653e-06
1.99022e-07
3.35001e-06
-2.38951e-07
1.39728e-06
-4.99769e-07
8.652e-07
-6.47959e-07
4.71416e-07
-7.55814e-07
3.44886e-07
-8.375e-07
2.84033e-07
-9.19129e-07
3.15067e-07
-9.97643e-07
3.38428e-07
-1.05305e-06
2.34862e-07
-1.04777e-06
-8.76981e-08
-9.51691e-07
-6.27484e-07
-7.69871e-07
-1.19772e-06
-5.70881e-07
-1.45149e-06
-4.9164e-07
-1.02086e-06
-7.13371e-07
3.04589e-07
-1.40038e-06
2.53242e-06
-2.5919e-06
5.31041e-06
-4.11339e-06
7.77933e-06
-5.63723e-06
9.00208e-06
-6.86721e-06
8.64529e-06
-7.65899e-06
7.0637e-06
-7.99933e-06
4.82705e-06
-7.92739e-06
2.33752e-06
-7.48296e-06
-2.25808e-07
-6.6915e-06
-2.8012e-06
-5.57568e-06
-5.32088e-06
-4.17317e-06
-7.63021e-06
-2.5502e-06
-9.48402e-06
-8.04227e-07
-1.06166e-05
9.52604e-07
-1.08504e-05
2.6132e-06
-1.01901e-05
4.06871e-06
-8.77399e-06
5.22484e-06
-6.78791e-06
6.02459e-06
-4.53072e-06
6.45568e-06
-2.33592e-06
6.55505e-06
-4.89453e-07
6.40218e-06
8.29097e-07
6.09865e-06
1.57487e-06
5.74291e-06
1.81665e-06
5.41187e-06
1.68334e-06
5.15397e-06
1.31306e-06
4.99179e-06
8.24963e-07
4.92909e-06
3.08635e-07
4.95873e-06
-1.79022e-07
5.06842e-06
-6.07273e-07
5.24445e-06
-9.64149e-07
5.47188e-06
-1.24137e-06
5.73658e-06
-1.43827e-06
6.02209e-06
-1.54739e-06
6.31622e-06
-1.57977e-06
6.60134e-06
-1.53091e-06
6.87467e-06
-1.4378e-06
7.11621e-06
-1.29873e-06
7.34832e-06
-1.17433e-06
7.54993e-06
-1.20028e-06
7.79267e-06
-1.02504e-06
-3.40088e-06
7.14139e-06
5.08449e-05
3.82994e-06
2.50957e-05
1.58395e-06
1.00125e-05
4.4543e-07
4.48853e-06
-1.11667e-07
1.95438e-06
-4.37377e-07
1.19091e-06
-6.27428e-07
6.61467e-07
-7.63607e-07
4.81064e-07
-8.64754e-07
3.85179e-07
-9.61015e-07
4.11328e-07
-1.05124e-06
4.28652e-07
-1.11765e-06
3.01269e-07
-1.12454e-06
-8.08015e-08
-1.04414e-06
-7.07888e-07
-8.83697e-07
-1.35816e-06
-7.14778e-07
-1.62041e-06
-6.80152e-07
-1.05548e-06
-9.67713e-07
5.92151e-07
-1.73467e-06
3.29938e-06
-2.9844e-06
6.56014e-06
-4.49283e-06
9.28776e-06
-5.91143e-06
1.04207e-05
-6.97325e-06
9.7071e-06
-7.58814e-06
7.6786e-06
-7.78208e-06
5.02099e-06
-7.60511e-06
2.16056e-06
-7.09042e-06
-7.40503e-07
-6.25347e-06
-3.63815e-06
-5.10914e-06
-6.46521e-06
-3.68937e-06
-9.04999e-06
-2.0559e-06
-1.11175e-05
-3.02263e-07
-1.23703e-05
1.46115e-06
-1.26138e-05
3.12429e-06
-1.18533e-05
4.57926e-06
-1.0229e-05
5.7391e-06
-7.94775e-06
6.5496e-06
-5.34122e-06
6.99473e-06
-2.78105e-06
7.10319e-06
-5.97906e-07
6.94762e-06
9.84662e-07
6.62895e-06
1.89354e-06
6.25029e-06
2.19531e-06
5.89468e-06
2.03895e-06
5.61512e-06
1.59263e-06
5.43619e-06
1.00389e-06
5.36188e-06
3.82943e-07
5.38446e-06
-2.01605e-07
5.49092e-06
-7.13728e-07
5.66688e-06
-1.14011e-06
5.89705e-06
-1.47154e-06
6.16668e-06
-1.7079e-06
6.45934e-06
-1.84004e-06
6.76169e-06
-1.88211e-06
7.05693e-06
-1.82615e-06
7.33945e-06
-1.72032e-06
7.59267e-06
-1.55194e-06
7.83164e-06
-1.4133e-06
8.04326e-06
-1.4119e-06
8.29179e-06
-1.27357e-06
-3.74532e-06
7.61766e-06
5.32272e-05
4.48159e-06
2.82318e-05
2.08118e-06
1.24129e-05
7.46768e-07
5.82294e-06
5.7883e-08
2.64326e-06
-3.41166e-07
1.58996e-06
-5.79125e-07
8.99426e-07
-7.47379e-07
6.49319e-07
-8.70336e-07
5.08137e-07
-9.8235e-07
5.23342e-07
-1.08512e-06
5.31424e-07
-1.16429e-06
3.80434e-07
-1.18699e-06
-5.80982e-08
-1.12778e-06
-7.67096e-07
-9.94998e-07
-1.49094e-06
-8.61224e-07
-1.75418e-06
-8.7226e-07
-1.04445e-06
-1.21771e-06
9.37602e-07
-2.04055e-06
4.12221e-06
-3.30498e-06
7.82457e-06
-4.7469e-06
1.07297e-05
-6.01851e-06
1.16923e-05
-6.90054e-06
1.05891e-05
-7.35616e-06
8.13422e-06
-7.43417e-06
5.09901e-06
-7.18065e-06
1.90703e-06
-6.6167e-06
-1.30446e-06
-5.74867e-06
-4.50617e-06
-4.58568e-06
-7.62819e-06
-3.15547e-06
-1.04802e-05
-1.51686e-06
-1.27561e-05
2.38269e-07
-1.41254e-05
1.99939e-06
-1.43749e-05
3.65351e-06
-1.35074e-05
5.09498e-06
-1.16704e-05
6.24341e-06
-9.09617e-06
7.04901e-06
-6.14682e-06
7.49587e-06
-3.22792e-06
7.60755e-06
-7.09587e-07
7.44935e-06
1.14287e-06
7.1183e-06
2.22459e-06
6.7194e-06
2.59421e-06
6.3406e-06
2.41775e-06
6.03928e-06
1.89394e-06
5.84233e-06
1.20085e-06
5.75423e-06
4.71039e-07
5.7669e-06
-2.14275e-07
5.86682e-06
-8.13642e-07
6.0391e-06
-1.3124e-06
6.26823e-06
-1.70067e-06
6.53897e-06
-1.97864e-06
6.83493e-06
-2.13601e-06
7.14187e-06
-2.18905e-06
7.44373e-06
-2.12801e-06
7.73239e-06
-2.00898e-06
7.99432e-06
-1.81387e-06
8.23788e-06
-1.65686e-06
8.4571e-06
-1.63112e-06
8.70758e-06
-1.52405e-06
-4.05686e-06
8.03977e-06
5.51874e-05
5.11828e-06
3.11533e-05
2.62257e-06
1.49086e-05
1.10257e-06
7.34294e-06
2.712e-07
3.47464e-06
-2.09711e-07
2.07087e-06
-5.01883e-07
1.1916e-06
-7.06186e-07
8.53621e-07
-8.53534e-07
6.55484e-07
-9.82613e-07
6.52421e-07
-1.09887e-06
6.47683e-07
-1.19247e-06
4.74036e-07
-1.23413e-06
-1.64448e-08
-1.20053e-06
-8.00697e-07
-1.09986e-06
-1.59161e-06
-1.00389e-06
-1.85015e-06
-1.0587e-06
-9.89634e-07
-1.45072e-06
1.32961e-06
-2.30295e-06
4.97445e-06
-3.54128e-06
9.0629e-06
-4.87554e-06
1.20639e-05
-5.97932e-06
1.27961e-05
-6.68952e-06
1.12993e-05
-7.01089e-06
8.45559e-06
-6.99823e-06
5.08634e-06
-6.6862e-06
1.59501e-06
-6.0845e-06
-1.90616e-06
-5.19276e-06
-5.39792e-06
-4.01597e-06
-8.80498e-06
-2.57883e-06
-1.19173e-05
-9.3839e-07
-1.43965e-05
8.13537e-07
-1.58773e-05
2.56544e-06
-1.61268e-05
4.20276e-06
-1.51447e-05
5.62219e-06
-1.30898e-05
6.74843e-06
-1.02224e-05
7.53631e-06
-6.93471e-06
7.9724e-06
-3.66401e-06
8.07853e-06
-8.15709e-07
7.91435e-06
1.30704e-06
7.57159e-06
2.56735e-06
7.15428e-06
3.01152e-06
6.75342e-06
2.81861e-06
6.43025e-06
2.21711e-06
6.2141e-06
1.417e-06
6.11029e-06
5.74842e-07
6.11066e-06
-2.14638e-07
6.20134e-06
-9.04328e-07
6.36712e-06
-1.47817e-06
6.59226e-06
-1.92581e-06
6.86117e-06
-2.24756e-06
7.1575e-06
-2.43234e-06
7.46621e-06
-2.49777e-06
7.77186e-06
-2.43366e-06
8.06428e-06
-2.3014e-06
8.33237e-06
-2.08196e-06
8.57884e-06
-1.90333e-06
8.80344e-06
-1.85571e-06
9.05323e-06
-1.77383e-06
-4.33853e-06
8.41195e-06
5.67755e-05
5.73149e-06
3.38337e-05
3.19732e-06
1.74428e-05
1.51086e-06
9.0294e-06
5.3105e-07
4.45445e-06
-4.1731e-08
2.64365e-06
-3.94422e-07
1.54429e-06
-6.38963e-07
1.09816e-06
-8.1357e-07
8.30091e-07
-9.61269e-07
8.00119e-07
-1.09205e-06
7.78463e-07
-1.20158e-06
5.83572e-07
-1.26472e-06
4.66878e-08
-1.25997e-06
-8.05442e-07
-1.19419e-06
-1.6574e-06
-1.13659e-06
-1.90775e-06
-1.23085e-06
-8.95369e-07
-1.6557e-06
1.75447e-06
-2.5106e-06
5.82934e-06
-3.68776e-06
1.02401e-05
-4.88702e-06
1.32632e-05
-5.81895e-06
1.3728e-05
-6.3748e-06
1.18552e-05
-6.58511e-06
8.6659e-06
-6.49939e-06
5.00062e-06
-6.13958e-06
1.23521e-06
-5.50649e-06
-2.53925e-06
-4.595e-06
-6.3094e-06
-3.40702e-06
-9.99296e-06
-1.96501e-06
-1.33593e-05
-3.25129e-07
-1.60364e-05
1.41971e-06
-1.76222e-05
3.15735e-06
-1.78644e-05
4.77266e-06
-1.676e-05
6.16435e-06
-1.44815e-05
7.26093e-06
-1.1319e-05
8.02134e-06
-7.69512e-06
8.43563e-06
-4.0783e-06
8.52644e-06
-9.06519e-07
8.35033e-06
1.48316e-06
7.99404e-06
2.92365e-06
7.55879e-06
3.44678e-06
7.13655e-06
3.24085e-06
6.79142e-06
2.56224e-06
6.55511e-06
1.65331e-06
6.43403e-06
6.95917e-07
6.42019e-06
-2.00792e-07
6.49957e-06
-9.83714e-07
6.65669e-06
-1.63529e-06
6.87567e-06
-2.14478e-06
7.14058e-06
-2.51247e-06
7.43504e-06
-2.7268e-06
7.74341e-06
-2.80613e-06
8.05062e-06
-2.74087e-06
8.34491e-06
-2.59569e-06
8.617e-06
-2.35405e-06
8.8651e-06
-2.15144e-06
9.09311e-06
-2.08372e-06
9.34038e-06
-2.0211e-06
-4.59344e-06
8.7385e-06
5.8037e-05
6.31474e-06
3.62575e-05
3.79452e-06
1.9963e-05
1.96804e-06
1.08559e-05
8.38627e-07
5.58386e-06
1.65648e-07
3.31663e-06
-2.55325e-07
1.96526e-06
-5.44503e-07
1.38734e-06
-7.49583e-07
1.03517e-06
-9.17743e-07
9.6828e-07
-1.06418e-06
9.24898e-07
-1.1909e-06
7.10296e-07
-1.27735e-06
1.33139e-07
-1.30358e-06
-7.79221e-07
-1.27397e-06
-1.68701e-06
-1.25356e-06
-1.92816e-06
-1.38105e-06
-7.67883e-07
-1.82372e-06
2.19714e-06
-2.65621e-06
6.66183e-06
-3.74473e-06
1.13286e-05
-4.79442e-06
1.43129e-05
-5.56132e-06
1.44949e-05
-5.98244e-06
1.22763e-05
-6.10003e-06
8.78348e-06
-5.95295e-06
4.85355e-06
-5.55189e-06
8.34145e-07
-4.89114e-06
-3.20001e-06
-3.96222e-06
-7.23833e-06
-2.76454e-06
-1.11906e-05
-1.31894e-06
-1.48049e-05
3.18126e-07
-1.76735e-05
2.05305e-06
-1.93571e-05
3.77293e-06
-1.95843e-05
5.36272e-06
-1.83498e-05
6.72286e-06
-1.58417e-05
7.7846e-06
-1.23807e-05
8.5104e-06
-8.42091e-06
8.89397e-06
-4.46188e-06
8.96025e-06
-9.72798e-07
8.76498e-06
1.67842e-06
8.39129e-06
3.29734e-06
7.93697e-06
3.90109e-06
7.4933e-06
3.68452e-06
7.12599e-06
2.92954e-06
6.86876e-06
1.91055e-06
6.72921e-06
8.35462e-07
6.69973e-06
-1.71314e-07
6.76631e-06
-1.05029e-06
6.91326e-06
-1.78224e-06
7.12453e-06
-2.35606e-06
7.3839e-06
-2.77184e-06
7.67487e-06
-3.01777e-06
7.98129e-06
-3.11255e-06
8.28831e-06
-3.04789e-06
8.58297e-06
-2.89035e-06
8.85724e-06
-2.62831e-06
9.10593e-06
-2.40014e-06
9.33561e-06
-2.31339e-06
9.57911e-06
-2.2646e-06
-4.8244e-06
9.02365e-06
5.90133e-05
6.86333e-06
3.84178e-05
4.40359e-06
2.24228e-05
2.46904e-06
1.27904e-05
1.19441e-06
6.85849e-06
4.13192e-07
4.09785e-06
-8.27958e-08
2.46125e-06
-4.21424e-07
1.72597e-06
-6.60578e-07
1.27432e-06
-8.51371e-07
1.15907e-06
-1.01472e-06
1.08824e-06
-1.15961e-06
8.55187e-07
-1.27051e-06
2.44044e-07
-1.32878e-06
-7.20956e-07
-1.33543e-06
-1.68036e-06
-1.34971e-06
-1.91387e-06
-1.50289e-06
-6.14702e-07
-1.94817e-06
2.64242e-06
-2.73635e-06
7.45001e-06
-3.71677e-06
1.2309e-05
-4.61238e-06
1.52085e-05
-5.22665e-06
1.51092e-05
-5.53109e-06
1.25807e-05
-5.56963e-06
8.82202e-06
-5.3691e-06
4.65301e-06
-4.93103e-06
3.96076e-07
-4.24501e-06
-3.88602e-06
-3.30005e-06
-8.18329e-06
-2.09355e-06
-1.23971e-05
-6.45246e-07
-1.62532e-05
9.87316e-07
-1.93061e-05
2.71e-06
-2.10798e-05
4.40972e-06
-2.1284e-05
5.97159e-06
-1.99117e-05
7.29756e-06
-1.71676e-05
8.32096e-06
-1.34041e-05
9.00708e-06
-9.10703e-06
9.35308e-06
-4.80788e-06
9.38689e-06
-1.00661e-06
9.16515e-06
1.90017e-06
8.769e-06
3.69349e-06
8.29311e-06
4.37698e-06
7.82708e-06
4.15055e-06
7.4371e-06
3.31952e-06
7.15829e-06
2.18936e-06
6.99939e-06
9.94359e-07
6.95328e-06
-1.25208e-07
7.00604e-06
-1.10304e-06
7.14181e-06
-1.91802e-06
7.34437e-06
-2.55861e-06
7.59716e-06
-3.02463e-06
7.8835e-06
-3.30411e-06
8.18679e-06
-3.41584e-06
8.49225e-06
-3.35334e-06
8.78608e-06
-3.18419e-06
9.06096e-06
-2.90319e-06
9.30938e-06
-2.64856e-06
9.53919e-06
-2.5432e-06
9.77806e-06
-2.50347e-06
-5.03386e-06
9.27151e-06
5.97418e-05
7.37414e-06
4.03152e-05
5.01467e-06
2.47822e-05
3.00751e-06
1.47976e-05
1.59778e-06
8.26823e-06
7.02805e-07
4.99282e-06
1.24986e-07
3.03907e-06
-2.68172e-07
2.11913e-06
-5.45388e-07
1.55154e-06
-7.61337e-07
1.37502e-06
-9.42997e-07
1.2699e-06
-1.10677e-06
1.01896e-06
-1.24259e-06
3.7987e-07
-1.3331e-06
-6.30445e-07
-1.3752e-06
-1.63827e-06
-1.42076e-06
-1.8683e-06
-1.59144e-06
-4.44021e-07
-2.02487e-06
3.07584e-06
-2.75082e-06
8.17596e-06
-3.61108e-06
1.31693e-05
-4.35511e-06
1.59525e-05
-4.83103e-06
1.55851e-05
-5.03406e-06
1.27838e-05
-5.00366e-06
8.79162e-06
-4.75526e-06
4.40461e-06
-4.28318e-06
-7.60066e-08
-3.57354e-06
-4.59565e-06
-2.61343e-06
-9.14341e-06
-1.39858e-06
-1.3612e-05
5.19476e-08
-1.77038e-05
1.67842e-06
-2.09325e-05
3.38719e-06
-2.27886e-05
5.06498e-06
-2.29618e-05
6.59724e-06
-2.14439e-05
7.88727e-06
-1.84577e-05
8.87003e-06
-1.43869e-05
9.51302e-06
-9.75003e-06
9.81643e-06
-5.11129e-06
9.81135e-06
-1.00153e-06
9.55643e-06
2.1551e-06
9.13235e-06
4.11757e-06
8.63148e-06
4.87784e-06
8.14139e-06
4.64064e-06
7.72788e-06
3.73303e-06
7.42684e-06
2.4904e-06
7.24795e-06
1.17325e-06
7.18457e-06
-6.18287e-08
7.22289e-06
-1.14136e-06
7.34692e-06
-2.04205e-06
7.54016e-06
-2.75186e-06
7.78573e-06
-3.27021e-06
8.06665e-06
-3.58502e-06
8.36596e-06
-3.71515e-06
8.66877e-06
-3.65615e-06
8.96079e-06
-3.47622e-06
9.23494e-06
-3.17733e-06
9.48232e-06
-2.89594e-06
9.71089e-06
-2.77177e-06
9.94453e-06
-2.73711e-06
-5.22379e-06
9.48604e-06
6.02558e-05
7.84543e-06
4.19558e-05
5.61884e-06
2.70088e-05
3.57605e-06
1.68404e-05
2.04689e-06
9.79739e-06
1.03587e-06
6.00383e-06
3.70125e-07
3.70482e-06
-8.30651e-08
2.57232e-06
-4.02649e-07
1.87112e-06
-6.46636e-07
1.61901e-06
-8.48207e-07
1.47148e-06
-1.03135e-06
1.2021e-06
-1.192e-06
5.40514e-07
-1.31426e-06
-5.08184e-07
-1.39037e-06
-1.56215e-06
-1.46334e-06
-1.79534e-06
-1.64327e-06
-2.64089e-07
-2.05187e-06
3.48444e-06
-2.70195e-06
8.82604e-06
-3.43613e-06
1.39035e-05
-4.03531e-06
1.65517e-05
-4.38698e-06
1.59368e-05
-4.50104e-06
1.28978e-05
-4.40933e-06
8.69991e-06
-4.11726e-06
4.11254e-06
-3.61344e-06
-5.79828e-07
-2.88142e-06
-5.32767e-06
-1.9067e-06
-1.01181e-05
-6.83731e-07
-1.4835e-05
7.67664e-07
-1.91552e-05
2.38759e-06
-2.25525e-05
4.08129e-06
-2.44823e-05
5.7358e-06
-2.46163e-05
7.23717e-06
-2.29453e-05
8.49007e-06
-1.97106e-05
9.43076e-06
-1.53276e-05
1.00285e-05
-1.03477e-05
1.02858e-05
-5.36864e-06
1.02369e-05
-9.52657e-07
9.9431e-06
2.44895e-06
9.48578e-06
4.57489e-06
8.95608e-06
5.40755e-06
8.43967e-06
5.15704e-06
8.00144e-06
4.17127e-06
7.67749e-06
2.81435e-06
7.47811e-06
1.37264e-06
7.39707e-06
1.92032e-08
7.42066e-06
-1.16494e-06
7.53269e-06
-2.15408e-06
7.71635e-06
-2.93552e-06
7.95434e-06
-3.5082e-06
8.22932e-06
-3.86e-06
8.52403e-06
-4.00985e-06
8.82332e-06
-3.95545e-06
9.11271e-06
-3.76561e-06
9.38496e-06
-3.44958e-06
9.63061e-06
-3.14159e-06
9.85667e-06
-2.99783e-06
1.00847e-05
-2.96511e-06
-5.3957e-06
9.67097e-06
6.05848e-05
8.27656e-06
4.33502e-05
6.20831e-06
2.90771e-05
4.16663e-06
1.88821e-05
2.5386e-06
1.14254e-05
1.41313e-06
7.12931e-06
6.54611e-07
4.46334e-06
1.35858e-07
3.09107e-06
-2.30809e-07
2.23779e-06
-5.06044e-07
1.89424e-06
-7.29374e-07
1.69481e-06
-9.32267e-07
1.405e-06
-1.11717e-06
7.25421e-07
-1.27017e-06
-3.5519e-07
-1.37856e-06
-1.45376e-06
-1.47498e-06
-1.69892e-06
-1.65641e-06
-8.26595e-08
-2.02917e-06
3.8572e-06
-2.59379e-06
9.39066e-06
-3.2006e-06
1.45103e-05
-3.66388e-06
1.7015e-05
-3.9042e-06
1.61771e-05
-3.93937e-06
1.2933e-05
-3.79229e-06
8.55283e-06
-3.45985e-06
3.7801e-06
-2.92615e-06
-1.11353e-06
-2.17271e-06
-6.08111e-06
-1.18371e-06
-1.11071e-05
4.73988e-08
-1.60661e-05
1.49915e-06
-2.06069e-05
3.11139e-06
-2.41647e-05
4.78906e-06
-2.61599e-05
6.41911e-06
-2.62464e-05
7.88851e-06
-2.44147e-05
9.10347e-06
-2.09255e-05
1.00014e-05
-1.62255e-05
1.05527e-05
-1.0899e-05
1.07618e-05
-5.57781e-06
1.06657e-05
-8.56471e-07
1.03283e-05
2.78634e-06
9.83292e-06
5.07024e-06
9.27045e-06
5.97001e-06
8.72515e-06
5.70234e-06
8.26076e-06
4.63566e-06
7.91315e-06
3.16196e-06
7.69288e-06
1.59291e-06
7.59401e-06
1.18073e-07
7.6028e-06
-1.17373e-06
7.70282e-06
-2.2541e-06
7.87683e-06
-3.10954e-06
8.10711e-06
-3.73848e-06
8.37583e-06
-4.12873e-06
8.66545e-06
-4.29948e-06
8.96053e-06
-4.25053e-06
9.24657e-06
-4.05164e-06
9.51587e-06
-3.71888e-06
9.75917e-06
-3.38489e-06
9.98155e-06
-3.22021e-06
1.02036e-05
-3.18718e-06
-5.55067e-06
9.82982e-06
6.0755e-05
8.66786e-06
4.45122e-05
6.77648e-06
3.09685e-05
4.77087e-06
2.08877e-05
3.06849e-06
1.31278e-05
1.83445e-06
8.36335e-06
9.80066e-07
5.31772e-06
3.90426e-07
3.68071e-06
-2.80204e-08
2.65624e-06
-3.38131e-07
2.20436e-06
-5.85374e-07
1.94205e-06
-8.0837e-07
1.62799e-06
-1.01667e-06
9.33724e-07
-1.19901e-06
-1.7285e-07
-1.33783e-06
-1.31494e-06
-1.45411e-06
-1.58264e-06
-1.63024e-06
9.34643e-08
-1.95834e-06
4.1853e-06
-2.43145e-06
9.86377e-06
-2.91287e-06
1.49917e-05
-3.24998e-06
1.73521e-05
-3.39033e-06
1.63174e-05
-3.35478e-06
1.28975e-05
-3.15709e-06
8.35514e-06
-2.78702e-06
3.41003e-06
-2.22502e-06
-1.67553e-06
-1.45093e-06
-6.8552e-06
-4.47809e-07
-1.21102e-05
7.90761e-07
-1.73046e-05
2.24275e-06
-2.20589e-05
3.8467e-06
-2.57687e-05
5.5074e-06
-2.78206e-05
7.11177e-06
-2.78508e-05
8.5482e-06
-2.58511e-05
9.72465e-06
-2.2102e-05
1.05796e-05
-1.70804e-05
1.10842e-05
-1.14037e-05
1.12442e-05
-5.73778e-06
1.10984e-05
-7.10726e-07
1.0714e-05
3.17077e-06
1.01765e-05
5.6077e-06
9.57762e-06
6.56893e-06
9.00075e-06
6.27922e-06
8.50859e-06
5.12781e-06
8.13651e-06
3.53404e-06
7.89504e-06
1.83438e-06
7.77829e-06
2.34826e-07
7.77238e-06
-1.16782e-06
7.86054e-06
-2.34226e-06
8.02503e-06
-3.27402e-06
8.24757e-06
-3.96101e-06
8.50985e-06
-4.391e-06
8.79402e-06
-4.58365e-06
9.0843e-06
-4.5408e-06
9.36633e-06
-4.33368e-06
9.63178e-06
-3.98433e-06
9.87208e-06
-3.62519e-06
1.00897e-05
-3.43785e-06
1.03056e-05
-3.40308e-06
-5.68944e-06
9.96584e-06
6.07891e-05
9.02042e-06
4.54576e-05
7.31803e-06
3.26709e-05
5.38042e-06
2.28253e-05
3.63098e-06
1.48772e-05
2.29866e-06
9.69567e-06
1.34765e-06
6.26872e-06
6.82486e-07
4.34588e-06
2.07506e-07
3.13122e-06
-1.41282e-07
2.55314e-06
-4.14938e-07
2.21571e-06
-6.58504e-07
1.87156e-06
-8.89168e-07
1.16439e-06
-1.09922e-06
3.72024e-08
-1.26669e-06
-1.14747e-06
-1.39985e-06
-1.44947e-06
-1.5652e-06
2.5881e-07
-1.84206e-06
4.46216e-06
-2.22052e-06
1.02422e-05
-2.58062e-06
1.53518e-05
-2.80125e-06
1.75727e-05
-2.85144e-06
1.63676e-05
-2.75187e-06
1.27979e-05
-2.50752e-06
8.11079e-06
-2.10216e-06
3.00467e-06
-1.51322e-06
-2.26447e-06
-7.19099e-07
-7.64932e-06
2.97987e-07
-1.31273e-05
1.54391e-06
-1.85506e-05
2.99554e-06
-2.35105e-05
4.59068e-06
-2.73638e-05
6.23333e-06
-2.94633e-05
7.81066e-06
-2.94281e-05
9.21299e-06
-2.72535e-05
1.03505e-05
-2.32395e-05
1.11627e-05
-1.78926e-05
1.16211e-05
-1.1862e-05
1.17318e-05
-5.84851e-06
1.15354e-05
-5.14304e-07
1.11015e-05
3.60462e-06
1.05187e-05
6.19054e-06
9.88002e-06
7.20762e-06
9.26898e-06
6.89027e-06
8.74742e-06
5.64937e-06
8.35004e-06
3.93142e-06
8.08708e-06
2.09734e-06
7.95249e-06
3.69415e-07
7.93211e-06
-1.14744e-06
8.00869e-06
-2.41883e-06
8.16385e-06
-3.42919e-06
8.37873e-06
-4.17589e-06
8.63445e-06
-4.64673e-06
8.91289e-06
-4.86209e-06
9.19786e-06
-4.82577e-06
9.47529e-06
-4.61111e-06
9.73607e-06
-4.24511e-06
9.97275e-06
-3.86187e-06
1.01847e-05
-3.64978e-06
1.03942e-05
-3.61259e-06
-5.81248e-06
1.0082e-05
6.07071e-05
9.33591e-06
4.62037e-05
7.82884e-06
3.41779e-05
5.98726e-06
2.46669e-05
4.21954e-06
1.66449e-05
2.80344e-06
1.11118e-05
1.75792e-06
7.31424e-06
1.01375e-06
5.09005e-06
4.77964e-07
3.667e-06
8.62961e-08
2.94481e-06
-2.16664e-07
2.51867e-06
-4.81497e-07
2.13639e-06
-7.33469e-07
1.41636e-06
-9.69455e-07
2.73188e-07
-1.16396e-06
-9.52968e-07
-1.3119e-06
-1.30153e-06
-1.46256e-06
4.09466e-07
-1.68374e-06
4.68334e-06
-1.96672e-06
1.05252e-05
-2.21078e-06
1.55958e-05
-2.32407e-06
1.7686e-05
-2.2925e-06
1.63361e-05
-2.13446e-06
1.26398e-05
-1.84679e-06
7.82312e-06
-1.40817e-06
2.56605e-06
-7.93462e-07
-2.87917e-06
2.02147e-08
-8.46299e-06
1.05098e-06
-1.41581e-05
2.30398e-06
-1.98036e-05
3.75502e-06
-2.49616e-05
5.34076e-06
-2.89495e-05
6.96404e-06
-3.10866e-05
8.51268e-06
-3.09767e-05
9.87964e-06
-2.86204e-05
1.09778e-05
-2.43377e-05
1.17478e-05
-1.86626e-05
1.2161e-05
-1.22752e-05
1.22233e-05
-5.9108e-06
1.19761e-05
-2.6709e-07
1.14915e-05
4.08925e-06
1.08608e-05
6.82117e-06
1.01796e-05
7.88885e-06
9.53198e-06
7.53789e-06
8.9794e-06
6.20194e-06
8.55589e-06
4.35493e-06
8.27119e-06
2.38203e-06
8.11887e-06
5.2173e-07
8.08431e-06