/*--------------------------------*- C++ -*----------------------------------*\
| =========                 |                                                 |
| \\      /  F ield         | OpenFOAM: The Open Source CFD Toolbox           |
|  \\    /   O peration     | Version:  2.4.0                                 |
|   \\  /    A nd           | Web:      www.OpenFOAM.org                      |
|    \\/     M anipulation  |                                                 |
\*---------------------------------------------------------------------------*/
FoamFile
{
    version     2.0;
    format      ascii;
    class       volScalarField;
    location    "5.2";
    object      nut;
}
// * * * * * * * * * * * * * * * * * * * * * * * * * * * * * * * * * * * * * //

dimensions      [0 2 -1 0 0 0 0];

internalField   nonuniform List<scalar> 
6000
(
4.7015e-05
1.44416e-05
4.24767e-06
8.77704e-06
7.7886e-06
8.92574e-06
8.56615e-06
8.93859e-06
8.81247e-06
9.01942e-06
9.05765e-06
9.28774e-06
9.50083e-06
9.85287e-06
1.0254e-05
1.07627e-05
1.13365e-05
1.19927e-05
1.27091e-05
1.34865e-05
1.43105e-05
1.51736e-05
1.60614e-05
1.69615e-05
1.78581e-05
1.87369e-05
1.9583e-05
2.03815e-05
2.11163e-05
2.17708e-05
2.23276e-05
2.27687e-05
2.30757e-05
2.32291e-05
2.32097e-05
2.29988e-05
2.258e-05
2.19368e-05
2.10596e-05
1.99418e-05
1.85989e-05
1.70596e-05
1.54008e-05
1.47241e-05
1.64692e-05
1.82813e-05
2.00431e-05
2.18734e-05
2.35005e-05
2.52509e-05
2.65357e-05
2.82033e-05
2.8911e-05
3.06971e-05
3.0464e-05
3.29139e-05
3.10542e-05
3.53093e-05
3.08165e-05
3.82477e-05
2.94897e-05
9.50743e-06
3.16532e-06
7.01519e-06
6.32252e-06
7.01641e-06
6.7739e-06
7.00697e-06
6.93397e-06
7.08036e-06
7.13613e-06
7.3268e-06
7.52816e-06
7.83477e-06
8.19461e-06
8.64029e-06
9.14687e-06
9.72148e-06
1.03503e-05
1.10309e-05
1.17533e-05
1.25106e-05
1.32931e-05
1.4092e-05
1.48979e-05
1.5703e-05
1.65002e-05
1.72834e-05
1.80474e-05
1.87884e-05
1.95041e-05
2.01947e-05
2.08639e-05
2.1518e-05
2.21694e-05
2.28424e-05
2.35765e-05
2.44366e-05
2.55286e-05
2.70279e-05
2.92169e-05
3.25468e-05
3.74696e-05
3.99053e-05
3.46226e-05
3.05293e-05
2.7692e-05
2.57149e-05
2.44253e-05
2.35976e-05
2.30424e-05
2.28142e-05
2.24947e-05
2.2661e-05
2.22072e-05
2.28606e-05
2.18438e-05
2.34407e-05
2.12886e-05
2.43955e-05
2.14309e-05
8.16035e-06
2.81369e-06
5.88991e-06
5.32644e-06
5.68178e-06
5.49689e-06
5.63086e-06
5.59242e-06
5.707e-06
5.79072e-06
5.98342e-06
6.21821e-06
6.55203e-06
6.96015e-06
7.4607e-06
8.04309e-06
8.71028e-06
9.45631e-06
1.02786e-05
1.11718e-05
1.21306e-05
1.31494e-05
1.42229e-05
1.53474e-05
1.65207e-05
1.77435e-05
1.90193e-05
2.03551e-05
2.17631e-05
2.32615e-05
2.48774e-05
2.66503e-05
2.86268e-05
3.08733e-05
3.34973e-05
3.66522e-05
4.05704e-05
4.55995e-05
5.22817e-05
6.14012e-05
7.40673e-05
9.07952e-05
9.80012e-05
8.06735e-05
6.55459e-05
5.38744e-05
4.46986e-05
3.79748e-05
3.26519e-05
2.88576e-05
2.57183e-05
2.35343e-05
2.1628e-05
2.02892e-05
1.91751e-05
1.81742e-05
1.77918e-05
1.66576e-05
1.71537e-05
1.78746e-05
7.96951e-06
2.98765e-06
5.26065e-06
4.70363e-06
4.76735e-06
4.59324e-06
4.64937e-06
4.63292e-06
4.73678e-06
4.86227e-06
5.09639e-06
5.41419e-06
5.85225e-06
6.40953e-06
7.10002e-06
7.92938e-06
8.90388e-06
1.00295e-05
1.13094e-05
1.27469e-05
1.43433e-05
1.61004e-05
1.80207e-05
2.01095e-05
2.23753e-05
2.48316e-05
2.74985e-05
3.04041e-05
3.35871e-05
3.71003e-05
4.10156e-05
4.5433e-05
5.04226e-05
5.61474e-05
6.2824e-05
7.07437e-05
8.03205e-05
9.21259e-05
0.000106973
0.000125876
0.000150001
0.000178577
0.000189337
0.000160922
0.000132918
0.000109133
8.88784e-05
7.28908e-05
5.94946e-05
4.94354e-05
4.07756e-05
3.46585e-05
2.89901e-05
2.5394e-05
2.15678e-05
1.95564e-05
1.69339e-05
1.57974e-05
1.42953e-05
1.67546e-05
8.4452e-06
3.53512e-06
5.0389e-06
4.40563e-06
4.18458e-06
3.97899e-06
3.96479e-06
3.96133e-06
4.07189e-06
4.25844e-06
4.57854e-06
5.04316e-06
5.68381e-06
6.52674e-06
7.59453e-06
8.91771e-06
1.05178e-05
1.2423e-05
1.46525e-05
1.72281e-05
2.01657e-05
2.34829e-05
2.71962e-05
3.1326e-05
3.58963e-05
4.09388e-05
4.64938e-05
5.26135e-05
5.93639e-05
6.68294e-05
7.51189e-05
8.43484e-05
9.45405e-05
0.000105936
0.000118786
0.000133407
0.000150232
0.000169822
0.00019292
0.000220336
0.0002528
0.000287784
0.000299659
0.000265903
0.000228823
0.000194455
0.00016287
0.000135858
0.000111757
9.2278e-05
7.48296e-05
6.16492e-05
4.93461e-05
4.10258e-05
3.23911e-05
2.76432e-05
2.1515e-05
1.9155e-05
1.54369e-05
1.71085e-05
9.39797e-06
4.39174e-06
5.14711e-06
4.4103e-06
3.88879e-06
3.60846e-06
3.52036e-06
3.52266e-06
3.65638e-06
3.93109e-06
4.39404e-06
5.0946e-06
6.07645e-06
7.40455e-06
9.12746e-06
1.13155e-05
1.40215e-05
1.73084e-05
2.12232e-05
2.58138e-05
3.11158e-05
3.71637e-05
4.3986e-05
5.16118e-05
6.00694e-05
6.93932e-05
7.9623e-05
9.08063e-05
0.000102999
0.000116269
0.000130709
0.000146263
0.000162909
0.000180869
0.000200319
0.000221483
0.00024468
0.000270321
0.000298952
0.000331121
0.000367142
0.000403211
0.000414699
0.000380864
0.000340089
0.000299537
0.000259935
0.00022368
0.000189486
0.000159787
0.000132026
0.000109349
8.7844e-05
7.18679e-05
5.58018e-05
4.57252e-05
3.40106e-05
2.8553e-05
2.17257e-05
1.83893e-05
1.07093e-05
5.51657e-06
5.50514e-06
4.69488e-06
3.86461e-06
3.46324e-06
3.28802e-06
3.28928e-06
3.46366e-06
3.86439e-06
4.5471e-06
5.61071e-06
7.13218e-06
9.23282e-06
1.20065e-05
1.55781e-05
2.00427e-05
2.55028e-05
3.20317e-05
3.96956e-05
4.85371e-05
5.85883e-05
6.98656e-05
8.23753e-05
9.6115e-05
0.000111081
0.000127269
0.000144671
0.000163281
0.000183093
0.000204112
0.000225976
0.00024873
0.000272501
0.000297364
0.000323435
0.000350914
0.00038008
0.000411323
0.000445028
0.000481155
0.00051536
0.000525976
0.000495124
0.000454702
0.000412097
0.000368474
0.000326341
0.000284846
0.00024661
0.000209545
0.000177093
0.00014571
0.000120212
9.49835e-05
7.69353e-05
5.76377e-05
4.65949e-05
3.55384e-05
2.02058e-05
1.22753e-05
6.86643e-06
6.06055e-06
5.2052e-06
4.10988e-06
3.54383e-06
3.2611e-06
3.2542e-06
3.4896e-06
4.06808e-06
5.07488e-06
6.67681e-06
9.00726e-06
1.22603e-05
1.65871e-05
2.21683e-05
2.91353e-05
3.76122e-05
4.76756e-05
5.938e-05
7.27429e-05
8.77586e-05
0.000104394
0.000122594
0.000142287
0.000163399
0.000185847
0.000209543
0.000234395
0.000260313
0.000287116
0.000314309
0.000341975
0.000370158
0.000398857
0.00042811
0.000458033
0.000488815
0.000520741
0.000554113
0.000588514
0.000619751
0.000629525
0.000602967
0.000565252
0.000523416
0.000478877
0.000433989
0.000388266
0.000344147
0.00030012
0.000259392
0.000219265
0.000184192
0.000149681
0.000122132
9.42866e-05
7.53419e-05
5.93438e-05
2.2247e-05
1.39955e-05
8.38934e-06
6.80597e-06
5.85908e-06
4.61075e-06
3.85802e-06
3.44754e-06
3.42577e-06
3.74692e-06
4.57062e-06
6.03615e-06
8.39904e-06
1.18671e-05
1.67105e-05
2.31311e-05
3.13436e-05
4.14864e-05
5.36676e-05
6.79301e-05
8.42805e-05
0.000102679
0.000123053
0.000145294
0.000169267
0.000194817
0.000221789
0.000250026
0.000279361
0.00030963
0.000340679
0.000372075
0.000403414
0.000434758
0.000466088
0.000497351
0.000528533
0.000559694
0.000590959
0.000622542
0.000654669
0.00068664
0.000714748
0.000723872
0.000701888
0.000667994
0.000628564
0.000585125
0.000539779
0.000492305
0.000444819
0.000396309
0.00034951
0.000302615
0.000259286
0.000216592
0.00017954
0.000143361
0.00011525
9.42679e-05
2.42783e-05
1.57758e-05
1.00263e-05
7.7442e-06
6.59875e-06
5.31711e-06
4.40141e-06
3.85856e-06
3.81946e-06
4.25651e-06
5.40624e-06
7.48796e-06
1.08611e-05
1.58116e-05
2.26679e-05
3.16542e-05
4.29778e-05
5.67449e-05
7.30081e-05
9.17473e-05
0.000112899
0.000136353
0.00016196
0.000189535
0.000218863
0.000249712
0.000281862
0.000315092
0.000349179
0.000383902
0.000419056
0.000453982
0.000488472
0.000522523
0.000556071
0.000589026
0.000621341
0.00065303
0.000684178
0.000714946
0.000745446
0.000774893
0.000800107
0.000808774
0.000791107
0.00076138
0.000725167
0.000683989
0.000639688
0.000592213
0.000543349
0.000492441
0.000441743
0.000390145
0.000340491
0.000291253
0.000245869
0.000202327
0.000165109
0.000139567
2.61484e-05
1.75358e-05
1.17163e-05
8.86149e-06
7.41793e-06
6.14884e-06
5.13767e-06
4.48991e-06
4.44266e-06
5.03124e-06
6.59211e-06
9.44891e-06
1.40676e-05
2.07981e-05
2.99902e-05
4.18505e-05
5.65358e-05
7.40886e-05
9.44831e-05
0.000117627
0.000143386
0.00017158
0.000201992
0.000234371
0.00026843
0.000303879
0.000340446
0.000377864
0.000415867
0.000454199
0.000492557
0.000530234
0.000567129
0.00060319
0.000638316
0.000672394
0.000705348
0.000737165
0.000767895
0.000797663
0.000826427
0.000853523
0.000876203
0.000884553
0.000870705
0.000845053
0.000812336
0.000773999
0.000731642
0.000685308
0.000636502
0.000584781
0.000532012
0.000477524
0.000423524
0.000369459
0.000317499
0.000267889
0.000222652
0.000193116
2.77811e-05
1.92131e-05
1.34023e-05
1.01246e-05
8.33927e-06
7.0422e-06
6.00138e-06
5.30502e-06
5.27535e-06
6.05394e-06
8.10006e-06
1.18616e-05
1.79004e-05
2.66046e-05
3.8302e-05
5.31456e-05
7.1212e-05
9.24669e-05
0.000116803
0.000144061
0.000174046
0.000206519
0.000241209
0.000277803
0.000315964
0.000355349
0.000395649
0.000436563
0.000477795
0.000519062
0.000559935
0.000599786
0.000638544
0.00067612
0.000712386
0.000747208
0.000780493
0.000812207
0.000842375
0.000871069
0.000898162
0.000923148
0.000943657
0.000951768
0.000941157
0.000919251
0.000889994
0.000854702
0.000814768
0.00077027
0.000722492
0.000671097
0.000617675
0.000561762
0.000505167
0.000447844
0.000391184
0.000336851
0.00028523
0.000252209
2.91563e-05
2.07653e-05
1.50354e-05
1.14879e-05
9.37771e-06
7.98131e-06
6.93144e-06
6.24013e-06
6.26175e-06
7.26306e-06
9.84008e-06
1.45784e-05
2.21196e-05
3.28619e-05
4.70773e-05
6.48418e-05
8.61397e-05
0.000110862
0.000138826
0.00016982
0.000203596
0.000239872
0.000278325
0.000318598
0.000360304
0.000403062
0.000446531
0.000490385
0.000534302
0.000577988
0.000620859
0.000662455
0.00070268
0.000741413
0.000778506
0.000813812
0.000847226
0.000878696
0.000908235
0.000935825
0.000961384
0.000984497
0.00100315
0.00101104
0.00100309
0.000984497
0.000958482
0.000926207
0.000888891
0.00084661
0.000800483
0.000750197
0.000697165
0.000640958
0.000583201
0.000523954
0.000464321
0.000406527
0.000350293
0.00031419
3.02873e-05
2.21682e-05
1.65774e-05
1.29013e-05
1.05291e-05
8.98303e-06
7.90117e-06
7.23515e-06
7.32818e-06
8.56391e-06
1.16743e-05
1.7389e-05
2.64149e-05
3.91418e-05
5.57651e-05
7.62746e-05
0.000100562
0.000128451
0.000159697
0.000194042
0.000231197
0.000270839
0.000312607
0.0003561
0.000400891
0.000446562
0.000492747
0.0005391
0.000585278
0.000630956
0.000675466
0.000718482
0.000759874
0.000799498
0.000837189
0.00087279
0.000906187
0.000937322
0.000966178
0.000992686
0.00101685
0.0010383
0.00105535
0.00106301
0.00105718
0.00104142
0.00101833
0.000988914
0.000954229
0.000914334
0.000870222
0.000821561
0.000769657
0.000714004
0.000656198
0.000596124
0.00053498
0.00047485
0.000415649
0.000376793
3.12037e-05
2.34128e-05
1.80022e-05
1.43158e-05
1.17723e-05
1.00664e-05
8.91701e-06
8.26136e-06
8.41677e-06
9.86449e-06
1.34604e-05
2.00781e-05
3.04842e-05
4.50528e-05
6.38958e-05
8.69165e-05
0.000113918
0.000144666
0.000178858
0.000216201
0.000256369
0.000299005
0.000343708
0.000390042
0.000437542
0.000485754
0.000534293
0.000582793
0.000630896
0.000678223
0.000724106
0.000768288
0.000810615
0.00085092
0.00088903
0.00092478
0.000958051
0.000988784
0.0010169
0.00104238
0.00106525
0.00108521
0.00110086
0.00110823
0.00110404
0.00109066
0.00107015
0.00104335
0.0010112
0.000973719
0.00093181
0.000885094
0.000834819
0.00078034
0.00072332
0.000663298
0.00060182
0.000540327
0.000479568
0.00043825
3.19396e-05
2.45008e-05
1.92944e-05
1.56884e-05
1.30745e-05
1.12371e-05
9.99743e-06
9.32296e-06
9.50594e-06
1.11096e-05
1.50964e-05
2.24822e-05
3.40975e-05
5.03053e-05
7.11369e-05
9.64124e-05
0.00012585
0.000159164
0.000195999
0.000236028
0.000278895
0.000324206
0.000371527
0.000420387
0.000470286
0.000520736
0.000571333
0.000621698
0.000671455
0.000720158
0.000767199
0.000812344
0.000855416
0.000896236
0.000934619
0.000970399
0.00100346
0.00103371
0.00106106
0.00108555
0.00110722
0.00112582
0.00114021
0.00114725
0.00114428
0.00113284
0.00111455
0.0010901
0.00106031
0.00102519
0.000985543
0.000940952
0.00089263
0.000839768
0.000784145
0.000724864
0.000663969
0.00060194
0.000540764
0.000497276
3.25279e-05
2.54416e-05
2.04483e-05
1.69841e-05
1.43973e-05
1.2485e-05
1.11573e-05
1.04401e-05
1.06061e-05
1.22901e-05
1.65421e-05
2.45176e-05
3.71252e-05
5.47322e-05
7.72989e-05
0.000104568
0.000136173
0.000171782
0.000210986
0.000253429
0.00029872
0.000346434
0.000396105
0.000447226
0.000499265
0.0005517
0.00060411
0.000656102
0.00070729
0.000757149
0.00080517
0.000851106
0.000894766
0.000935959
0.000974494
0.0010102
0.00104296
0.00107266
0.00109924
0.00112278
0.00114331
0.00116066
0.00117388
0.00118052
0.00117841
0.00116852
0.00115211
0.00112972
0.00110211
0.00106922
0.00103182
0.000989439
0.000943264
0.000892322
0.000838531
0.000780526
0.000720912
0.000659039
0.000598341
0.000552988
3.29974e-05
2.62483e-05
2.14654e-05
1.81779e-05
1.57011e-05
1.37877e-05
1.23994e-05
1.16309e-05
1.17461e-05
1.34302e-05
1.7811e-05
2.61761e-05
3.95322e-05
5.82759e-05
8.23123e-05
0.000111313
0.000144829
0.000182482
0.000223807
0.000268417
0.00031589
0.00036577
0.000417557
0.000470712
0.000524669
0.000578871
0.000632883
0.000686301
0.000738719
0.000789562
0.000838408
0.00088499
0.000929103
0.000970547
0.00100913
0.00104468
0.00107704
0.00110613
0.00113194
0.00115454
0.00117398
0.00119015
0.00120228
0.00120844
0.0012069
0.00119821
0.00118335
0.00116276
0.00113711
0.00110631
0.0010711
0.00103093
0.000987003
0.000938185
0.000886524
0.000830204
0.000772388
0.000711247
0.000651712
0.000604816
3.33723e-05
2.69364e-05
2.23527e-05
1.92539e-05
1.69493e-05
1.51138e-05
1.37137e-05
1.29047e-05
1.29576e-05
1.4569e-05
1.89496e-05
2.75031e-05
4.13538e-05
6.09607e-05
8.61948e-05
0.000116668
0.000151844
0.000191304
0.000234519
0.000281072
0.000330509
0.00038234
0.000436033
0.00049102
0.000546701
0.000602478
0.000657908
0.000712573
0.000766038
0.000817727
0.000867264
0.000914362
0.000958809
0.0010004
0.00103893
0.00107421
0.00110611
0.00113456
0.00115958
0.00118125
0.00119964
0.00121467
0.00122577
0.00123139
0.00123016
0.00122236
0.00120877
0.00118972
0.00116581
0.00113695
0.00110381
0.00106584
0.00102419
0.000977621
0.000928286
0.000873958
0.000818319
0.000758385
0.000700527
0.00065243
3.36719e-05
2.7521e-05
2.31207e-05
2.02054e-05
1.81113e-05
1.64275e-05
1.50792e-05
1.42593e-05
1.42572e-05
1.57581e-05
2.0018e-05
2.85731e-05
4.26693e-05
6.28638e-05
8.9021e-05
0.000120709
0.0001573
0.000198337
0.000243223
0.000291508
0.000342704
0.000396288
0.000451698
0.000508331
0.000565558
0.000622738
0.000679418
0.000735172
0.000789525
0.000841933
0.00089204
0.000939539
0.000984212
0.00102585
0.00106423
0.00109915
0.00113053
0.00115831
0.00118253
0.00120326
0.00122062
0.00123456
0.00124464
0.00124966
0.00124853
0.00124137
0.00122878
0.00121104
0.00118868
0.00116159
0.00113042
0.00109457
0.00105519
0.00101094
0.000964051
0.000911944
0.000858748
0.000800411
0.000744614
0.000695664
3.3912e-05
2.80167e-05
2.37817e-05
2.10325e-05
1.91639e-05
1.7692e-05
1.6466e-05
1.56819e-05
1.5648e-05
1.70406e-05
2.10799e-05
2.9471e-05
4.35795e-05
6.40924e-05
9.08992e-05
0.000123544
0.000161307
0.000203698
0.000250041
0.000299855
0.000352615
0.000407765
0.00046471
0.000522819
0.000581427
0.000639849
0.000697624
0.00075432
0.000809422
0.000862433
0.000912997
0.000960791
0.00100559
0.00104717
0.00108529
0.00111979
0.0011506
0.00117769
0.00120108
0.00122087
0.00123721
0.00125008
0.00125916
0.00126352
0.00126232
0.00125558
0.00124378
0.00122713
0.00120613
0.00118066
0.00115132
0.00111752
0.00108038
0.00103847
0.000994093
0.00094437
0.000893804
0.000837379
0.000783924
0.000734475
3.41047e-05
2.84367e-05
2.43486e-05
2.17412e-05
2.00927e-05
1.88734e-05
1.78388e-05
1.71494e-05
1.71223e-05
1.84253e-05
2.22233e-05
3.02796e-05
4.41918e-05
6.47671e-05
9.19544e-05
0.000125301
0.000163993
0.000207517
0.000255107
0.000306251
0.000360385
0.000416919
0.000475227
0.000534645
0.000594478
0.000653991
0.000712714
0.000770212
0.000825939
0.000879443
0.00093036
0.000978348
0.00102317
0.00106457
0.00110237
0.0011364
0.0011666
0.00119295
0.00121549
0.00123434
0.00124965
0.00126147
0.00126956
0.00127322
0.0012718
0.00126529
0.00125409
0.00123835
0.00121854
0.00119453
0.00116691
0.00113507
0.00110011
0.00106054
0.0010187
0.000971477
0.000923662
0.000869409
0.000818499
0.000768901
3.42598e-05
2.87926e-05
2.48341e-05
2.23413e-05
2.08914e-05
1.99435e-05
1.91595e-05
1.86304e-05
1.86618e-05
1.9909e-05
2.34812e-05
3.11232e-05
4.46111e-05
6.50112e-05
9.23184e-05
0.000126115
0.000165494
0.000209931
0.000258558
0.000310835
0.000366156
0.000423895
0.000483396
0.000543962
0.000604868
0.000665322
0.000724854
0.000783018
0.000839259
0.000893151
0.00094432
0.000992384
0.00103711
0.00107827
0.00111568
0.00114919
0.00117873
0.00120431
0.00122598
0.00124387
0.00125816
0.00126893
0.00127604
0.00127896
0.00127721
0.00127078
0.00126
0.00124501
0.00122624
0.00120356
0.00117755
0.00114758
0.00111472
0.00107747
0.00103817
0.000993521
0.000948531
0.000896656
0.000848436
0.000799035
3.43849e-05
2.90943e-05
2.52502e-05
2.28449e-05
2.1561e-05
2.08815e-05
2.0391e-05
2.00876e-05
2.02387e-05
2.14774e-05
2.48573e-05
3.20806e-05
4.49903e-05
6.49447e-05
9.21233e-05
0.000126122
0.000165947
0.000211076
0.000260532
0.000313743
0.000370064
0.000428832
0.000489355
0.000550909
0.000612741
0.00067399
0.000734191
0.000792897
0.000849543
0.000903719
0.000955
0.00100304
0.0010476
0.00108845
0.00112541
0.00115834
0.00118719
0.00121196
0.00123273
0.00124965
0.00126292
0.00127265
0.00127877
0.00128091
0.00127874
0.00127226
0.00126177
0.00124739
0.00122952
0.00120806
0.00118354
0.00115535
0.00112454
0.00108958
0.00105278
0.00101076
0.000968635
0.000919305
0.000873877
0.000825004
3.4486e-05
2.93504e-05
2.56073e-05
2.32651e-05
2.21085e-05
2.16752e-05
2.15005e-05
2.14801e-05
2.18169e-05
2.31053e-05
2.63415e-05
3.3167e-05
4.54552e-05
6.47539e-05
9.14973e-05
0.000125459
0.000165489
0.000211092
0.000261164
0.000315112
0.000372245
0.000431861
0.000493239
0.00055562
0.000618227
0.000680127
0.000740858
0.00079999
0.00085691
0.000911233
0.000962536
0.00101047
0.00105479
0.00109526
0.00113171
0.00116402
0.00119213
0.00121606
0.00123591
0.00125185
0.00126408
0.00127276
0.0012779
0.00127924
0.00127658
0.00126995
0.00125962
0.00124574
0.00122866
0.00120831
0.00118518
0.0011587
0.00112985
0.00109714
0.00106282
0.00102345
0.000984202
0.00093755
0.000894982
0.000846958
3.45679e-05
2.9568e-05
2.59149e-05
2.36148e-05
2.25453e-05
2.2321e-05
2.24618e-05
2.27673e-05
2.33542e-05
2.4758e-05
2.79113e-05
3.43808e-05
4.60379e-05
6.45806e-05
9.06823e-05
0.000124255
0.000164256
0.000210112
0.000260589
0.000315075
0.000372829
0.000433114
0.000495173
0.000558219
0.000621452
0.000683854
0.000744962
0.000804362
0.000861451
0.000915824
0.000967061
0.00101481
0.00105881
0.00109885
0.00113473
0.00116636
0.00119369
0.00121675
0.00123566
0.00125059
0.00126178
0.00126942
0.00127358
0.00127409
0.00127088
0.00126402
0.00125377
0.00124027
0.00122389
0.00120455
0.00118273
0.00115788
0.00113094
0.00110042
0.00106855
0.00103183
0.000995459
0.00095159
0.000911929
0.000865059
3.46343e-05
2.97531e-05
2.61808e-05
2.39064e-05
2.28855e-05
2.28229e-05
2.32575e-05
2.39118e-05
2.48053e-05
2.63924e-05
2.95327e-05
3.5705e-05
4.67507e-05
6.44752e-05
8.97808e-05
0.000122749
0.000162465
0.000208267
0.000258938
0.000313759
0.000371944
0.000432715
0.000495282
0.000558824
0.000622476
0.000685226
0.00074658
0.000806133
0.000863284
0.00091761
0.000968692
0.00101617
0.00105979
0.00109932
0.00113458
0.00116548
0.00119199
0.00121415
0.00123209
0.001246
0.00125614
0.00126274
0.0012659
0.00126559
0.00126179
0.00125462
0.00124437
0.00123119
0.00121543
0.00119702
0.00117644
0.00115315
0.00112804
0.00109969
0.0010702
0.00103615
0.00100263
0.000961627
0.000924899
0.000879473
3.46882e-05
2.99107e-05
2.64116e-05
2.4151e-05
2.31444e-05
2.31914e-05
2.38797e-05
2.48832e-05
2.61246e-05
2.79598e-05
3.11615e-05
3.71083e-05
4.75868e-05
6.44672e-05
8.88588e-05
0.000121033
0.000160232
0.000205744
0.00025637
0.000311303
0.000369703
0.000430757
0.000493641
0.000557501
0.000621409
0.000684351
0.000745824
0.000805412
0.000862517
0.000916699
0.000967537
0.00101467
0.00105783
0.00109678
0.00113138
0.0011615
0.00118715
0.00120838
0.00122532
0.00123819
0.00124728
0.00125282
0.001255
0.00125384
0.00124942
0.0012419
0.00123159
0.00121866
0.00120345
0.00118592
0.0011665
0.00114472
0.00112139
0.00109516
0.00106802
0.00103661
0.00100593
0.000967856
0.000934077
0.000890366
3.4732e-05
3.0045e-05
2.66128e-05
2.43579e-05
2.33375e-05
2.34418e-05
2.43299e-05
2.56598e-05
2.72704e-05
2.94087e-05
3.27455e-05
3.85468e-05
4.8522e-05
6.45649e-05
8.79616e-05
0.000119183
0.000157651
0.000202644
0.000252994
0.000307813
0.000366216
0.000427349
0.000490358
0.000554355
0.000618353
0.000681327
0.000742795
0.0008023
0.00085925
0.000913189
0.000963693
0.0010104
0.00105302
0.00109135
0.00112521
0.00115452
0.00117926
0.00119952
0.00121544
0.00122726
0.00123528
0.00123977
0.00124096
0.00123895
0.00123389
0.00122599
0.00121558
0.00120284
0.00118812
0.00117141
0.00115312
0.0011328
0.0011112
0.00108704
0.00106221
0.00103344
0.00100555
0.000970467
0.000939644
0.000897904
3.47677e-05
3.01597e-05
2.6789e-05
2.45353e-05
2.34794e-05
2.35923e-05
2.4618e-05
2.62308e-05
2.82084e-05
3.06884e-05
3.42276e-05
3.99661e-05
4.95158e-05
6.47561e-05
8.71132e-05
0.000117255
0.0001548
0.000199061
0.000248908
0.000303392
0.000361584
0.000422593
0.000485534
0.000549487
0.000613406
0.000676258
0.000737593
0.000796894
0.000853577
0.000907173
0.000957251
0.00100344
0.00104546
0.00108309
0.00111616
0.00114461
0.00116841
0.00118767
0.00120255
0.0012133
0.00122023
0.00122368
0.00122388
0.00122102
0.0012153
0.001207
0.00119645
0.00118387
0.00116962
0.00115369
0.00113647
0.00111757
0.00109767
0.00107555
0.00105298
0.00102683
0.00100171
0.000969645
0.000941777
0.000902247
3.47966e-05
3.02575e-05
2.69437e-05
2.46893e-05
2.35829e-05
2.36621e-05
2.47607e-05
2.65962e-05
2.89142e-05
3.17533e-05
3.55491e-05
4.13046e-05
5.05147e-05
6.50098e-05
8.63161e-05
0.000115284
0.000151741
0.000195073
0.000244199
0.000298133
0.000355904
0.000416586
0.000479266
0.000542993
0.00060666
0.000669248
0.00073031
0.000789284
0.000845588
0.000898738
0.000948298
0.000993894
0.00103524
0.0010721
0.00110433
0.00113186
0.00115468
0.00117291
0.00118672
0.00119638
0.00120224
0.00120462
0.00120385
0.00120013
0.00119376
0.00118504
0.00117433
0.00116189
0.00114806
0.00113288
0.00111672
0.0010992
0.00108096
0.00106085
0.00104051
0.00101697
0.000994575
0.000965564
0.000940649
0.00090355
3.48202e-05
3.03411e-05
2.70799e-05
2.48251e-05
2.36592e-05
2.36704e-05
2.47794e-05
2.67666e-05
2.93756e-05
3.25664e-05
3.66545e-05
4.24968e-05
5.14547e-05
6.52785e-05
8.55522e-05
0.000113285
0.00014852
0.000190741
0.000238943
0.000292118
0.000349261
0.000409417
0.000471643
0.000534962
0.000598203
0.000660386
0.000721036
0.000779557
0.000835367
0.000887967
0.000936913
0.000981829
0.00102242
0.00105845
0.00108979
0.00111635
0.00113815
0.00115532
0.00116803
0.0011766
0.00118136
0.00118269
0.00118094
0.00117638
0.00116935
0.0011602
0.00114933
0.00113701
0.00112359
0.00110914
0.00109401
0.00107785
0.00106125
0.00104313
0.00102499
0.00100403
0.000984328
0.000958393
0.000936424
0.000901964
3.48393e-05
3.04126e-05
2.72001e-05
2.49465e-05
2.37174e-05
2.36351e-05
2.46981e-05
2.67611e-05
2.95935e-05
3.31027e-05
3.7495e-05
4.34782e-05
5.22662e-05
6.55016e-05
8.47848e-05
0.000111255
0.00014516
0.000186115
0.000233203
0.000285418
0.000341733
0.000401166
0.000462749
0.000525478
0.000588116
0.000649756
0.000709854
0.000767796
0.000822994
0.000874937
0.000923175
0.000967323
0.00100708
0.00104222
0.0010726
0.00109815
0.0011189
0.00113496
0.00114657
0.00115401
0.00115768
0.00115796
0.00115524
0.00114985
0.00114217
0.00113259
0.00112155
0.00110934
0.00109633
0.0010826
0.00106848
0.00105367
0.00103868
0.00102254
0.00100656
0.00098817
0.000971134
0.000948292
0.000929263
0.000897632
3.48548e-05
3.04737e-05
2.73064e-05
2.50563e-05
2.37645e-05
2.35717e-05
2.45415e-05
2.66053e-05
2.95807e-05
3.33516e-05
3.80334e-05
4.41899e-05
5.2878e-05
6.56094e-05
8.39617e-05
0.000109168
0.000141667
0.000181223
0.000227026
0.000278092
0.000333388
0.000391907
0.000452659
0.000514619
0.000576488
0.000637437
0.000696843
0.000754078
0.000808546
0.000859724
0.000907156
0.00095045
0.000989301
0.00102348
0.00105284
0.00107733
0.00109698
0.00111192
0.00112239
0.00112871
0.00113127
0.0011305
0.00112682
0.00112061
0.0011123
0.00110231
0.00109109
0.001079
0.00106639
0.00105338
0.00104027
0.0010268
0.00101341
0.000999222
0.000985396
0.000969557
0.000955153
0.000935417
0.000919319
0.000890692
3.48674e-05
3.05261e-05
2.74005e-05
2.51564e-05
2.38058e-05
2.34936e-05
2.43331e-05
2.63292e-05
2.93611e-05
3.33173e-05
3.82474e-05
4.45836e-05
5.3223e-05
6.5529e-05
8.30197e-05
0.000106985
0.000138031
0.000176078
0.000220443
0.000270187
0.000324279
0.000381699
0.00044144
0.000502455
0.000563403
0.000623506
0.000682078
0.000738475
0.000792094
0.0008424
0.000888926
0.000931278
0.000969143
0.00100229
0.00103058
0.00105396
0.00107248
0.00108626
0.00109558
0.00110075
0.00110221
0.00110039
0.00109577
0.00108876
0.00107982
0.00106943
0.00105806
0.00104609
0.00103389
0.0010216
0.0010095
0.000997375
0.000985579
0.000973334
0.000961638
0.000948338
0.000936538
0.000919916
0.00090674
0.000881278
3.48776e-05
3.0571e-05
2.74838e-05
2.52485e-05
2.38449e-05
2.34111e-05
2.40945e-05
2.59639e-05
2.89665e-05
3.30185e-05
3.81313e-05
4.46256e-05
5.32438e-05
6.51893e-05
8.18897e-05
0.000104654
0.000134224
0.000170679
0.000213473
0.000261735
0.000314451
0.000370596
0.000429149
0.000489047
0.000548925
0.000608028
0.000665626
0.000721057
0.000773707
0.00082303
0.000868553
0.000909874
0.000946676
0.000978727
0.00100589
0.00102811
0.00104545
0.00105806
0.00106619
0.00107022
0.00107056
0.00106772
0.00106216
0.00105437
0.00104483
0.00103406
0.00102256
0.00101072
0.000998947
0.000987389
0.000976301
0.000965518
0.000955316
0.00094501
0.00093543
0.000924657
0.000915434
0.000901932
0.00089167
0.000869518
3.48859e-05
3.06095e-05
2.75577e-05
2.53333e-05
2.3884e-05
2.33319e-05
2.38437e-05
2.55397e-05
2.84342e-05
3.24864e-05
3.76969e-05
4.43005e-05
5.28974e-05
6.45275e-05
8.0503e-05
0.000102114
0.000130206
0.000165009
0.00020612
0.000252755
0.000303934
0.000358636
0.000415834
0.000474448
0.00053311
0.000591064
0.00064755
0.000701886
0.000753448
0.00080168
0.0008461
0.000886301
0.000921961
0.000952848
0.000978822
0.000999842
0.00101597
0.00102737
0.00103431
0.00103718
0.00103642
0.00103255
0.00102609
0.00101753
0.00100741
0.000996287
0.000984676
0.000973006
0.000961669
0.000950857
0.000940797
0.000931362
0.000922755
0.000914386
0.000906911
0.000898654
0.000891985
0.000881605
0.000874249
0.000855537
3.48925e-05
3.06426e-05
2.76232e-05
2.54118e-05
2.39244e-05
2.32615e-05
2.35957e-05
2.50848e-05
2.78031e-05
3.17616e-05
3.69724e-05
4.36124e-05
5.21597e-05
6.34948e-05
7.87975e-05
9.93067e-05
0.000125934
0.000159042
0.000198379
0.000243257
0.000292751
0.000345852
0.000401533
0.000458701
0.000516005
0.000572667
0.000627905
0.000681019
0.000731375
0.000778409
0.000821628
0.000860621
0.000895062
0.000924718
0.00094945
0.000969221
0.000984101
0.000994267
0.00100001
0.00100171
0.000999858
0.000994979
0.000987624
0.000978333
0.000967676
0.000956226
0.000944534
0.000933052
0.000922179
0.000912131
0.000903113
0.000895037
0.00088803
0.000881598
0.00087622
0.000870468
0.00086633
0.000859071
0.000854611
0.000839456
3.48978e-05
3.06711e-05
2.76813e-05
2.54844e-05
2.39667e-05
2.32031e-05
2.33616e-05
2.46231e-05
2.71115e-05
3.08906e-05
3.60001e-05
4.25857e-05
5.10282e-05
6.20616e-05
7.67242e-05
9.61765e-05
0.00012136
0.00015275
0.000190235
0.000233245
0.000280916
0.000332267
0.000386276
0.000441842
0.000497653
0.000552884
0.000606741
0.00065851
0.000707545
0.000753273
0.000795195
0.000832894
0.000866041
0.0008944
0.000917836
0.000936316
0.000949918
0.000958831
0.000963357
0.0009639
0.000960961
0.000955093
0.000946876
0.000936886
0.000925721
0.000913985
0.000902246
0.000890984
0.000880602
0.000871341
0.000863384
0.000856678
0.000851278
0.000846782
0.000843494
0.000840237
0.000838609
0.000834465
0.000832892
0.000821396
3.49021e-05
3.06958e-05
2.7733e-05
2.55516e-05
2.40108e-05
2.31584e-05
2.31491e-05
2.41743e-05
2.63946e-05
2.99218e-05
3.4832e-05
4.12624e-05
4.95234e-05
6.02211e-05
7.42533e-05
9.26816e-05
0.000116445
0.000146101
0.000181676
0.000222715
0.000268437
0.000317898
0.000370091
0.000423911
0.00047809
0.000531756
0.000584104
0.000634406
0.000682008
0.000726327
0.000766859
0.00080318
0.000834959
0.00086196
0.000884049
0.000901199
0.000913495
0.000921138
0.000924443
0.000923832
0.000919822
0.000912991
0.000903946
0.000893296
0.000881666
0.000869685
0.000857941
0.000846935
0.000837076
0.000828627
0.000821749
0.000816426
0.000812639
0.000810078
0.000808874
0.000808099
0.000808961
0.000807922
0.000809226
0.000801473
3.49056e-05
3.07171e-05
2.77789e-05
2.56137e-05
2.40564e-05
2.31275e-05
2.29629e-05
2.37531e-05
2.56824e-05
2.89018e-05
3.35258e-05
3.96991e-05
4.76871e-05
5.79916e-05
7.13782e-05
8.87989e-05
0.00011116
0.000139076
0.00017269
0.00021167
0.000255325
0.000302764
0.000352999
0.000404945
0.000457352
0.000509321
0.000560035
0.000608754
0.000654814
0.000697624
0.000736674
0.000771537
0.000801879
0.000827463
0.000848158
0.000863942
0.00087491
0.000881272
0.000883357
0.000881604
0.000876546
0.000868785
0.000858954
0.000847689
0.000835643
0.000823466
0.000811761
0.000801053
0.000791751
0.00078414
0.000778362
0.000774432
0.000772264
0.000771636
0.000772506
0.000774197
0.000777526
0.000779579
0.000783745
0.000779806
3.49083e-05
3.07356e-05
2.78198e-05
2.5671e-05
2.41029e-05
2.31098e-05
2.28052e-05
2.337e-05
2.49995e-05
2.78731e-05
3.21401e-05
3.79619e-05
4.55795e-05
5.54156e-05
6.81192e-05
8.45288e-05
0.000105496
0.000131666
0.000163276
0.000200117
0.000241596
0.000286885
0.000335029
0.000384971
0.000435471
0.000485617
0.000534577
0.0005816
0.000626013
0.000667219
0.000704701