/*--------------------------------*- C++ -*----------------------------------*\
| =========                 |                                                 |
| \\      /  F ield         | OpenFOAM: The Open Source CFD Toolbox           |
|  \\    /   O peration     | Version:  2.4.0                                 |
|   \\  /    A nd           | Web:      www.OpenFOAM.org                      |
|    \\/     M anipulation  |                                                 |
\*---------------------------------------------------------------------------*/
FoamFile
{
    version     2.0;
    format      ascii;
    class       volScalarField;
    location    "4.83";
    object      nut;
}
// * * * * * * * * * * * * * * * * * * * * * * * * * * * * * * * * * * * * * //

dimensions      [0 2 -1 0 0 0 0];

internalField   nonuniform List<scalar> 
6000
(
4.70151e-05
1.44415e-05
4.24793e-06
8.77695e-06
7.78871e-06
8.92608e-06
8.56684e-06
8.93966e-06
8.81416e-06
9.02186e-06
9.06092e-06
9.29177e-06
9.50614e-06
9.86091e-06
1.02668e-05
1.07819e-05
1.13628e-05
1.20263e-05
1.27511e-05
1.35396e-05
1.43791e-05
1.52631e-05
1.61779e-05
1.711e-05
1.80429e-05
1.8961e-05
1.98481e-05
2.06881e-05
2.1464e-05
2.21582e-05
2.27526e-05
2.32283e-05
2.3566e-05
2.37455e-05
2.37457e-05
2.35469e-05
2.31306e-05
2.24788e-05
2.15798e-05
2.04257e-05
1.90305e-05
1.74258e-05
1.56886e-05
1.50626e-05
1.68646e-05
1.87314e-05
2.05518e-05
2.24237e-05
2.40939e-05
2.58519e-05
2.71558e-05
2.87838e-05
2.94926e-05
3.11872e-05
3.09563e-05
3.32629e-05
3.14322e-05
3.54926e-05
3.10781e-05
3.82375e-05
2.94897e-05
9.50732e-06
3.16559e-06
7.01515e-06
6.32262e-06
7.01669e-06
6.77445e-06
7.00785e-06
6.93538e-06
7.08244e-06
7.139e-06
7.33054e-06
7.53345e-06
7.84315e-06
8.20825e-06
8.66123e-06
9.17697e-06
9.76283e-06
1.0406e-05
1.11056e-05
1.18527e-05
1.2641e-05
1.34604e-05
1.43007e-05
1.51514e-05
1.60028e-05
1.68464e-05
1.76751e-05
1.84825e-05
1.92643e-05
2.00178e-05
2.07431e-05
2.14437e-05
2.21263e-05
2.28032e-05
2.34993e-05
2.42554e-05
2.51386e-05
2.62596e-05
2.7803e-05
3.0068e-05
3.35369e-05
3.86916e-05
4.08252e-05
3.52638e-05
3.10024e-05
2.80613e-05
2.60347e-05
2.47168e-05
2.38768e-05
2.33131e-05
2.30698e-05
2.27431e-05
2.28756e-05
2.24167e-05
2.30123e-05
2.20023e-05
2.35162e-05
2.13945e-05
2.43769e-05
2.14309e-05
8.16028e-06
2.8139e-06
5.88991e-06
5.32655e-06
5.68203e-06
5.49738e-06
5.63168e-06
5.59379e-06
5.70908e-06
5.79372e-06
5.98766e-06
6.22476e-06
6.56292e-06
6.97839e-06
7.48982e-06
8.08746e-06
8.77557e-06
9.55022e-06
1.04108e-05
1.13532e-05
1.23726e-05
1.34622e-05
1.46148e-05
1.58242e-05
1.70857e-05
1.83977e-05
1.97617e-05
2.11832e-05
2.26734e-05
2.42503e-05
2.59412e-05
2.77867e-05
2.98363e-05
3.21558e-05
3.48573e-05
3.81001e-05
4.21246e-05
4.72954e-05
5.41799e-05
6.36032e-05
7.67343e-05
9.40805e-05
0.000100255
8.2121e-05
6.64257e-05
5.43425e-05
4.4939e-05
3.80547e-05
3.26748e-05
2.88249e-05
2.56896e-05
2.34834e-05
2.1595e-05
2.02427e-05
1.91425e-05
1.8132e-05
1.77531e-05
1.66174e-05
1.70866e-05
1.78746e-05
7.96946e-06
2.98781e-06
5.2607e-06
4.70377e-06
4.7676e-06
4.59374e-06
4.65024e-06
4.63445e-06
4.7392e-06
4.86596e-06
5.102e-06
5.42348e-06
5.86834e-06
6.43727e-06
7.14596e-06
8.0027e-06
9.01715e-06
1.01995e-05
1.15564e-05
1.30944e-05
1.48149e-05
1.6719e-05
1.88059e-05
2.10771e-05
2.35363e-05
2.61927e-05
2.90621e-05
3.21694e-05
3.55509e-05
3.92579e-05
4.33618e-05
4.79657e-05
5.31419e-05
5.90481e-05
6.59107e-05
7.40285e-05
8.38249e-05
9.58933e-05
0.000111074
0.000130416
0.000155126
0.000184285
0.000193179
0.000163561
0.000134589
0.000109993
8.92159e-05
7.28168e-05
5.9238e-05
4.90093e-05
4.03491e-05
3.41729e-05
2.85834e-05
2.49652e-05
2.12435e-05
1.92136e-05
1.66974e-05
1.55395e-05
1.40997e-05
1.67546e-05
8.44517e-06
3.53526e-06
5.03899e-06
4.40582e-06
4.18488e-06
3.97956e-06
3.96583e-06
3.96323e-06
4.07503e-06
4.26345e-06
4.58662e-06
5.05716e-06
5.70883e-06
6.57101e-06
7.67019e-06
9.04263e-06
1.0717e-05
1.27296e-05
1.51069e-05
1.78761e-05
2.10551e-05
2.46597e-05
2.87017e-05
3.31941e-05
3.8152e-05
4.35975e-05
4.95617e-05
5.60883e-05
6.32358e-05
7.1083e-05
7.97337e-05
8.93151e-05
9.98237e-05
0.000111502
0.000124609
0.000139468
0.000156512
0.000176323
0.000199661
0.000227351
0.000260149
0.000295247
0.000304685
0.000269548
0.00023127
0.000195782
0.000163372
0.000135636
0.000111131
9.12726e-05
7.37473e-05
6.04168e-05
4.8244e-05
3.98885e-05
3.14866e-05
2.67313e-05
2.08678e-05
1.84866e-05
1.49478e-05
1.71085e-05
9.39795e-06
4.39187e-06
5.14724e-06
4.41055e-06
3.88916e-06
3.60916e-06
3.52169e-06
3.52518e-06
3.66067e-06
3.93822e-06
4.40604e-06
5.1161e-06
6.11581e-06
7.47576e-06
9.25201e-06
1.15256e-05
1.4362e-05
1.78381e-05
2.20121e-05
2.69398e-05
3.26589e-05
3.91995e-05
4.65808e-05
5.48172e-05
6.39202e-05
7.39055e-05
8.47943e-05
9.66169e-05
0.000109414
0.000123241
0.000138176
0.000154196
0.000171203
0.000189441
0.000209095
0.000230392
0.000253648
0.000279295
0.000307891
0.000339985
0.000375911
0.000411538
0.000420319
0.000385014
0.000342924
0.000301066
0.000260405
0.000223147
0.000188289
0.000157947
0.000129938
0.000106951
8.55602e-05
6.95138e-05
5.38102e-05
4.37676e-05
3.25348e-05
2.70941e-05
2.06114e-05
1.83893e-05
1.07093e-05
5.5167e-06
5.5053e-06
4.69521e-06
3.86509e-06
3.46414e-06
3.28978e-06
3.2927e-06
3.4697e-06
3.87473e-06
4.56507e-06
5.64364e-06
7.1935e-06
9.34533e-06
1.22057e-05
1.59165e-05
2.0592e-05
2.63531e-05
3.32864e-05
4.14649e-05
5.09297e-05
6.17029e-05
7.37832e-05
8.71531e-05
0.000101783
0.000117641
0.000134693
0.000152907
0.000172255
0.000192716
0.0002143
0.000236624
0.000259689
0.000283644
0.000308575
0.000334601
0.000361916
0.000390822
0.000421717
0.000454979
0.000490579
0.000523866
0.000531695
0.000499281
0.00045745
0.000413411
0.000368544
0.000325185
0.000282771
0.000243631
0.000206078
0.00017311
0.000141722
0.000116079
9.12721e-05
7.33158e-05
5.47135e-05
4.37912e-05
3.324e-05
2.02058e-05
1.22753e-05
6.86656e-06
6.06075e-06
5.2056e-06
4.11051e-06
3.54501e-06
3.26345e-06
3.25889e-06
3.49811e-06
4.08307e-06
5.10155e-06
6.72635e-06
9.10022e-06
1.24314e-05
1.68897e-05
2.26792e-05
2.99546e-05
3.88589e-05
4.94791e-05
6.18712e-05
7.60453e-05
9.19791e-05
0.000109615
0.000128866
0.000149627
0.000171787
0.000195228
0.000219833
0.000245485
0.000272075
0.000299456
0.000327056
0.000354948
0.000383199
0.000411818
0.000440848
0.000470392
0.000500666
0.000531961
0.000564563
0.000598056
0.000628001
0.000634988
0.000606749
0.00056751
0.000524117
0.000478165
0.000431862
0.000384983
0.000339719
0.000294941
0.000253471
0.000213136
0.000177798
0.000143657
0.000116241
8.92219e-05
7.05397e-05
5.51298e-05
2.2247e-05
1.39955e-05
8.38948e-06
6.8062e-06
5.85954e-06
4.61155e-06
3.85954e-06
3.45068e-06
3.43216e-06
3.75882e-06
4.59206e-06
6.0749e-06
8.47127e-06
1.20021e-05
1.69568e-05
2.35616e-05
3.20579e-05
4.26078e-05
5.53335e-05
7.02814e-05
8.74538e-05
0.000106799
0.000128226
0.0001516
0.000176749
0.00020348
0.000231599
0.000260907
0.000291207
0.000322304
0.000354026
0.000385999
0.000417689
0.000449179
0.000480471
0.000511522
0.000542322
0.000572915
0.000603454
0.000634158
0.000665225
0.000695975
0.000722489
0.000728846
0.000705029
0.000669465
0.000628339
0.000583314
0.000536375
0.000487522
0.000438675
0.000389152
0.000341385
0.000294035
0.000250284
0.000207812
0.000170888
0.000135548
0.000107831
8.73892e-05
2.42783e-05
1.57759e-05
1.00264e-05
7.74447e-06
6.59927e-06
5.31809e-06
4.40333e-06
3.86264e-06
3.82799e-06
4.27282e-06
5.43614e-06
7.54238e-06
1.09619e-05
1.59974e-05
2.30009e-05
3.22245e-05
4.39026e-05
5.81605e-05
7.50574e-05
9.45707e-05
0.00011663
0.000141114
0.000167859
0.000196651
0.000227238
0.00025935
0.000292719
0.000327081
0.000362177
0.000397758
0.000433612
0.000469088
0.000503881
0.000538011
0.000571429
0.000604056
0.000635847
0.000666798
0.000697023
0.00072669
0.000755871
0.000783831
0.000807201
0.000813107
0.000793434
0.000761863
0.000723791
0.000680844
0.000634772
0.000585704
0.000535277
0.000483111
0.000431232
0.000378923
0.000328666
0.000279444
0.000234122
0.000191334
0.000154579
0.000129408
2.61484e-05
1.75358e-05
1.17165e-05
8.86179e-06
7.41852e-06
6.14996e-06
5.13997e-06
4.49502e-06
4.45367e-06
5.05287e-06
6.63229e-06
9.522e-06
1.42009e-05
2.1039e-05
3.04125e-05
4.25569e-05
5.76532e-05
7.57569e-05
9.68423e-05
0.000120812
0.000147526
0.0001768
0.000208407
0.000242065
0.000277453
0.000314235
0.00035209
0.000390699
0.00042976
0.000468979
0.00050807
0.000546276
0.000583436
0.000619516
0.000654429
0.000688071
0.000720368
0.000751288
0.000780913
0.000809369
0.000836587
0.00086196
0.000882578
0.000888147
0.000872105
0.000844413
0.000809656
0.000769356
0.000725046
0.000676914
0.000626352
0.000573148
0.000518997
0.000463554
0.000408763
0.000354489
0.000302474
0.000253466
0.000208682
0.000179273
2.77811e-05
1.92131e-05
1.34025e-05
1.01249e-05
8.33991e-06
7.04345e-06
6.004e-06
5.31111e-06
5.28895e-06
6.08139e-06
8.15161e-06
1.19548e-05
1.80674e-05
2.68995e-05
3.88071e-05
5.39713e-05
7.24884e-05
9.43315e-05
0.00011939
0.000147501
0.000178469
0.000212059
0.00024799
0.000285923
0.000325479
0.00036627
0.000407928
0.000450096
0.000492436
0.000534623
0.00057626
0.000616622
0.000655611
0.00069315
0.000729123
0.000763404
0.000795905
0.000826568
0.000855457
0.000882636
0.000907981
0.000931026
0.000949276
0.000954555
0.000941557
0.000917404
0.000885912
0.000848457
0.000806381
0.000759885
0.000710168
0.000657082
0.00060209
0.000545002
0.00048743
0.000429678
0.00037281
0.000318899
0.000267649
0.000234493
2.91563e-05
2.07653e-05
1.50355e-05
1.14883e-05
9.37841e-06
7.98265e-06
6.93431e-06
6.24701e-06
6.2777e-06
7.29621e-06
9.90296e-06
1.46914e-05
2.23182e-05
3.32052e-05
4.7653e-05
6.57639e-05
8.75374e-05
0.000112868
0.00014157
0.000173432
0.000208214
0.00024564
0.000285383
0.000327057
0.000370228
0.000414465
0.000459363
0.000504534
0.000549611
0.000594248
0.000637911
0.000680003
0.000720424
0.000759064
0.000795785
0.000830447
0.000862949
0.000893218
0.000921307
0.000947191
0.000970812
0.000991781
0.00100799
0.00101298
0.00100244
0.000981388
0.000952934
0.000918294
0.000878646
0.000834174
0.000785928
0.000733763
0.000678986
0.000621409
0.000562496
0.000502619
0.000442609
0.000385056
0.000329055
0.000292584
3.02873e-05
2.21682e-05
1.65775e-05
1.29016e-05
1.05299e-05
8.98446e-06
7.9042e-06
7.24257e-06
7.34598e-06
8.60199e-06
1.17474e-05
1.75196e-05
2.66408e-05
3.95254e-05
5.63974e-05
7.72708e-05
0.000102048
0.000130556
0.000162547
0.000197772
0.000235956
0.000276787
0.000319896
0.000364854
0.000411182
0.000458406
0.000506092
0.000553822
0.00060121
0.00064789
0.00069319
0.000736685
0.000778237
0.00081771
0.000854947
0.0008898
0.000922161
0.000951944
0.000979182
0.00100381
0.00102584
0.00104496
0.00105939
0.00106405
0.00105544
0.00103701
0.00101128
0.000979293
0.000942089
0.000899816
0.000853416
0.000802701
0.000748891
0.000691696
0.000632567
0.000571686
0.000509993
0.000449936
0.000390803
0.000351393
3.12037e-05
2.34128e-05
1.80023e-05
1.43162e-05
1.17731e-05
1.0068e-05
8.92015e-06
8.26908e-06
8.43579e-06
9.90635e-06
1.35417e-05
2.02231e-05
3.07322e-05
4.54684e-05
6.4572e-05
8.79681e-05
0.000115468
0.000146839
0.000181782
0.000220017
0.000261239
0.000305104
0.000351205
0.00039907
0.000448177
0.000498014
0.000548122
0.000598058
0.000647415
0.000695783
0.000742454
0.000787095
0.000829543
0.000869638
0.000907212
0.000942108
0.000974218
0.00100345
0.00102978
0.00105321
0.00107378
0.00109122
0.00110407
0.00110834
0.00110118
0.00108492
0.00106157
0.001032
0.000997148
0.000957111
0.000912752
0.000863824
0.000811494
0.000755322
0.000696828
0.000635844
0.000573651
0.000512083
0.000451218
0.000409219
3.19396e-05
2.45009e-05
1.92945e-05
1.56887e-05
1.30753e-05
1.12386e-05
1.00007e-05
9.33077e-06
9.52553e-06
1.11539e-05
1.51837e-05
2.26382e-05
3.43625e-05
5.07454e-05
7.18465e-05
9.75053e-05
0.000127445
0.000161385
0.000198976
0.000239911
0.000283859
0.000330442
0.000379218
0.000429674
0.000481248
0.00053339
0.00058562
0.000637472
0.000688523
0.000738296
0.00078612
0.000831702
0.000874854
0.000915401
0.000953164
0.000987984
0.00101975
0.00104836
0.00107377
0.00109605
0.00111524
0.00113114
0.00114257
0.00114637
0.00114026
0.00112574
0.00110441
0.001077
0.00104434
0.00100649
0.000964249
0.000917302
0.00086679
0.000812102
0.000754868
0.000694496
0.000632731
0.000570501
0.000509049
0.000464807
3.25279e-05
2.54416e-05
2.04484e-05
1.69845e-05
1.43981e-05
1.24866e-05
1.11606e-05
1.04479e-05
1.06257e-05
1.23355e-05
1.66331e-05
2.46813e-05
3.74025e-05
5.51902e-05
7.80332e-05
0.000105691
0.000137802
0.000174038
0.000214003
0.000257366
0.000303766
0.000352795
0.000403974
0.000456754
0.000510531
0.00056472
0.000618819
0.000672344
0.000724859
0.000775808
0.000824604
0.000870951
0.000914647
0.000955503
0.000993332
0.00102797
0.00105932
0.00108722
0.00111172
0.00113288
0.00115077
0.00116524
0.00117535
0.00117861
0.00117318
0.00116003
0.00114039
0.00111487
0.00108422
0.00104845
0.00100832
0.000963448
0.000914961
0.000862081
0.000806557
0.00074735
0.000686725
0.000624548
0.000563416
0.000517286
3.29974e-05
2.62484e-05
2.14655e-05
1.81782e-05
1.57019e-05
1.37893e-05
1.24028e-05
1.16386e-05
1.17653e-05
1.34755e-05
1.79036e-05
2.63443e-05
3.98174e-05
5.87461e-05
8.30639e-05
0.000112459
0.000146481
0.000184763
0.000226854
0.000272399
0.000321008
0.000372241
0.000425586
0.000480456
0.000536207
0.000592218
0.00064797
0.000702958
0.00075674
0.000808673
0.000858284
0.000905248
0.000949351
0.000990391
0.00102818
0.00106255
0.00109337
0.00112054
0.00114412
0.00116418
0.00118083
0.00119395
0.0012028
0.00120546
0.00120042
0.00118829
0.00117003
0.00114615
0.0011173
0.00108348
0.0010454
0.00100264
0.000956296
0.000905442
0.000851943
0.00079433
0.000735377
0.000673849
0.000613739
0.000566084
3.33723e-05
2.69364e-05
2.23528e-05
1.92542e-05
1.69501e-05
1.51155e-05
1.37171e-05
1.29122e-05
1.29763e-05
1.46133e-05
1.9042e-05
2.7673e-05
4.1643e-05
6.14374e-05
8.69567e-05
0.000117828
0.000153512
0.000193601
0.000237587
0.000285086
0.000335682
0.0003889
0.000444196
0.000500946
0.000558468
0.000616102
0.000673315
0.000729581
0.000784436
0.000837211
0.000887499
0.000934948
0.000979335
0.00102045
0.0010581
0.0010921
0.00112233
0.00114874
0.00117139
0.00119036
0.00120579
0.00121762
0.00122528
0.00122726
0.00122237
0.00121097
0.00119381
0.00117132
0.00114408
0.00111207
0.00107596
0.00103529
0.000991136
0.000942451
0.00089119
0.000835496
0.000778611
0.000718223
0.000659671
0.000610862
3.36719e-05
2.7521e-05
2.31208e-05
2.02056e-05
1.8112e-05
1.64291e-05
1.50825e-05
1.42667e-05
1.42751e-05
1.58007e-05
2.01083e-05
2.87421e-05
4.29587e-05
6.33419e-05
8.97863e-05
0.000121875
0.000158974
0.000200642
0.000246301
0.000295541
0.000347913
0.000402912
0.000459959
0.000518397
0.000577503
0.000636578
0.000695076
0.000752453
0.000808215
0.000861701
0.00091254
0.000960356
0.00100492
0.00104601
0.00108341
0.00111695
0.00114655
0.00117216
0.00119386
0.00121176
0.001226
0.00123658
0.00124307
0.00124431
0.00123937
0.00122845
0.00121216
0.00119083
0.00116501
0.00113467
0.00110043
0.0010618
0.00101985
0.000973416
0.00092453
0.000870998
0.000816468
0.000757626
0.000701034
0.000651447
3.3912e-05
2.80167e-05
2.37818e-05
2.10327e-05
1.91646e-05
1.76935e-05
1.64693e-05
1.56891e-05
1.56652e-05
1.70813e-05
2.1167e-05
2.96366e-05
4.38656e-05
6.45667e-05
9.16605e-05
0.000124708
0.000162979
0.000206001
0.000253118
0.000303891
0.000357839
0.000414422
0.00047303
0.000532974
0.00059349
0.000653835
0.000713455
0.000771788
0.000828308
0.000882383
0.000933659
0.000981732
0.00102637
0.00106732
0.00110438
0.00113741
0.00116633
0.00119112
0.00121185
0.00122867
0.00124173
0.00125109
0.00125643
0.00125689
0.00125173
0.00124108
0.00122544
0.00120508
0.00118051
0.0011517
0.00111921
0.00108257
0.0010428
0.000998662
0.000952235
0.000901045
0.000849071
0.000792105
0.000737776
0.000687782
3.41047e-05
2.84367e-05
2.43487e-05
2.17414e-05
2.00933e-05
1.88748e-05
1.78419e-05
1.71563e-05
1.71386e-05
1.84639e-05
2.23067e-05
3.04398e-05
4.44714e-05
6.52328e-05
9.27047e-05
0.000126453
0.000165652
0.000209807
0.000258169
0.000310272
0.000365598
0.000423575
0.00048356
0.000544834
0.000606591
0.000668044
0.000728631
0.000787773
0.000844918
0.000899466
0.000951073
0.000999299
0.00104389
0.00108461
0.00112126
0.00115372
0.00118192
0.00120585
0.0012256
0.00124133
0.00125323
0.00126138
0.00126559
0.00126521
0.0012597
0.00124915
0.00123397
0.00121442
0.00119095
0.00116352
0.0011327
0.00109797
0.00106034
0.00101851
0.000974588
0.00092587
0.000876593
0.000821775
0.000769931
0.000719894
3.42598e-05
2.87926e-05
2.48342e-05
2.23415e-05
2.08919e-05
1.99448e-05
1.91624e-05
1.86371e-05
1.86773e-05
1.99455e-05
2.35604e-05
3.1277e-05
4.48815e-05
6.5464e-05
9.30509e-05
0.000127247
0.000167129
0.000212194
0.00026159
0.000314821
0.000371329
0.000430512
0.000491693
0.000554125
0.00061696
0.000679361
0.000740765
0.00080057
0.000858223
0.000913133
0.000964966
0.00101322
0.00105766
0.00109807
0.00113426
0.00116609
0.00119353
0.00121657
0.00123532
0.00124996
0.00126069
0.00126765
0.00127074
0.00126948
0.00126352
0.00125292
0.00123805
0.00121915
0.00119664
0.00117049
0.00114123
0.00110834
0.0010728
0.00103329
0.000991878
0.000945725
0.000899237
0.000846786
0.000797592
0.000747867
3.43849e-05
2.90943e-05
2.52502e-05
2.28451e-05
2.15614e-05
2.08826e-05
2.03938e-05
2.00938e-05
2.02532e-05
2.15116e-05
2.49318e-05
3.22271e-05
4.52504e-05
6.53809e-05
9.28318e-05
0.000127226
0.000167546
0.000213301
0.000263517
0.000317673
0.000375171
0.000435371
0.000497568
0.000560985
0.000624736
0.000687928
0.000750001
0.000810333
0.000868379
0.000923542
0.000975447
0.00102363
0.00106786
0.00110789
0.00114355
0.00117472
0.00120135
0.00122347
0.0012412
0.00125473
0.00126429
0.00127006
0.00127203
0.00126988
0.00126337
0.00125261
0.00123793
0.00121955
0.00119789
0.00117291
0.00114511
0.001114
0.0010805
0.00104328
0.00100439
0.000960861
0.000917221
0.000867315
0.000820892
0.000771818
3.4486e-05
2.93504e-05
2.56074e-05
2.32652e-05
2.21088e-05
2.16762e-05
2.1503e-05
2.14859e-05
2.18304e-05
2.31371e-05
2.64112e-05
3.33055e-05
4.57035e-05
6.51724e-05
9.21767e-05
0.000126525
0.000167042
0.000213264
0.000264087
0.000318966
0.000377256
0.000438285
0.000501316
0.000565547
0.000630052
0.000693876
0.000756471
0.000817201
0.000875492
0.000930777
0.000982663
0.0010307
0.00107463
0.00111422
0.0011493
0.00117974
0.00120553
0.0012267
0.00124339
0.00125579
0.00126419
0.00126878
0.00126964
0.00126656
0.00125945
0.00124842
0.00123383
0.00121587
0.00119495
0.00117105
0.00114464
0.00111524
0.00108373
0.00104878
0.00101238
0.000971528
0.000930767
0.000883552
0.000839986
0.000791888
3.45679e-05
2.9568e-05
2.59149e-05
2.36149e-05
2.25455e-05
2.23217e-05
2.24639e-05
2.27725e-05
2.33667e-05
2.47873e-05
2.79761e-05
3.45107e-05
4.62731e-05
6.49793e-05
9.13316e-05
0.000125276
0.000165751
0.000212218
0.000263434
0.000318831
0.000377718
0.000439386
0.000503068
0.000567938
0.000633033
0.000697329
0.000760265
0.000821241
0.000879665
0.00093497
0.000986747
0.00103455
0.00107811
0.0011172
0.00115163
0.00118131
0.00120622
0.00122641
0.00124202
0.0012533
0.00126052
0.00126394
0.00126367
0.00125966
0.00125189
0.00124053
0.00122594
0.00120831
0.00118806
0.00116516
0.00114006
0.00111232
0.00108274
0.00105004
0.00101612
0.000977967
0.000940098
0.000895691
0.000855044
0.00080823
3.46343e-05
2.97531e-05
2.61808e-05
2.39065e-05
2.28856e-05
2.28234e-05
2.32593e-05
2.39165e-05
2.48166e-05
2.64192e-05
2.95923e-05
3.58258e-05
4.69719e-05
6.48524e-05
9.03967e-05
0.000123721
0.000163898
0.000210295
0.000261688
0.000317399
0.000376686
0.000438802
0.000502949
0.000568266
0.000633742
0.000698343
0.000761478
0.000822575
0.000881019
0.000936242
0.000987818
0.00103531
0.00107843
0.00111694
0.00115068
0.00117955
0.00120353
0.00122271
0.00123723
0.00124736
0.0012534
0.00125564
0.00125427
0.0012493
0.00124084
0.0012291
0.00121443
0.00119707
0.00117741
0.00115545
0.00113162
0.00110548
0.0010778
0.00104732
0.00101585
0.000980405
0.000945429
0.000903926
0.000866243
0.000821003
3.46882e-05
2.99107e-05
2.64116e-05
2.4151e-05
2.31445e-05
2.31918e-05
2.38811e-05
2.48872e-05
2.61347e-05
2.79841e-05
3.12159e-05
3.72198e-05
4.77931e-05
6.48214e-05
8.94388e-05
0.000121951
0.000161595
0.000207682
0.000259012
0.000314807
0.000374274
0.000436627
0.000501038
0.000566612
0.000632291
0.000697029
0.000760226
0.000821316
0.000879666
0.000934704
0.000985986
0.00103308
0.00107568
0.00111356
0.00114655
0.00117456
0.00119758
0.00121571
0.00122913
0.00123809
0.00124295
0.00124401
0.00124153
0.00123561
0.00122643
0.00121426
0.00119947
0.00118233
0.0011632
0.00114213
0.00111951
0.00109494
0.00106911
0.00104083
0.00101179
0.000979061
0.000946971
0.000908449
0.000873761
0.000830369
3.47321e-05
3.0045e-05
2.66129e-05
2.4358e-05
2.33376e-05
2.34421e-05
2.43309e-05
2.56631e-05
2.72792e-05
2.94303e-05
3.27946e-05
3.86486e-05
4.87126e-05
6.48947e-05
8.85036e-05
0.000120043
0.000158936
0.000204482
0.000255512
0.000311164
0.000370592
0.000432971
0.000497444
0.000563085
0.000628788
0.000693492
0.00075662
0.000817574
0.000875714
0.000930462
0.000981356
0.00102796
0.00106998
0.00110716
0.00113934
0.00116644
0.00118847
0.00120552
0.0012178
0.00122559
0.00122926
0.00122914
0.00122556
0.00121868
0.00120877
0.00119614
0.0011812
0.00116422
0.0011456
0.00112538
0.00110393
0.0010809
0.0010569
0.00103078
0.00100414
0.00097414
0.000944923
0.000909446
0.000877775
0.000836487
3.47677e-05
3.01597e-05
2.6789e-05
2.45353e-05
2.34794e-05
2.35924e-05
2.46187e-05
2.62334e-05
2.82158e-05
3.07074e-05
3.42714e-05
4.00582e-05
4.96904e-05
6.50608e-05
8.76159e-05
0.000118053
0.000156001
0.00020079
0.000251289
0.000306573
0.000365744
0.00042794
0.000492275
0.000557793
0.00062334
0.000687843
0.000750764
0.000811453
0.000869264
0.000923613
0.000974025
0.00102006
0.00106141
0.00109782
0.00112914
0.00115529
0.00117628
0.00119223
0.00120336
0.00120996
0.00121242
0.00121113
0.00120645
0.00119861
0.00118796
0.00117486
0.00115974
0.00114291
0.00112475
0.00110535
0.00108506
0.00106353
0.00104133
0.00101737
0.000993117
0.000965836
0.000939475
0.000907096
0.000878458
0.000839512
3.47966e-05
3.02575e-05
2.69437e-05
2.46893e-05
2.35829e-05
2.36621e-05
2.47611e-05
2.65981e-05
2.89202e-05
3.17695e-05
3.55876e-05
4.13868e-05
5.06729e-05
6.52887e-05
8.67785e-05
0.00011602
0.000152855
0.000196684
0.000246432
0.000301128
0.000359829
0.000421635
0.000485632
0.000550836
0.000616044
0.000680196
0.000742761
0.000803051
0.000860413
0.000914255
0.000964085
0.00100947
0.00105007
0.00108565
0.00111605
0.0011412
0.00116112
0.00117593
0.00118587
0.00119127
0.00119253
0.00119007
0.00118429
0.00117551
0.00116412
0.00115053
0.00113522
0.00111851
0.00110081
0.00108222
0.00106306
0.00104302
0.0010226
0.00100079
0.000978891
0.000954332
0.00093081
0.000901572
0.000875978
0.000839597
3.48202e-05
3.03411e-05
2.70799e-05
2.48252e-05
2.36592e-05
2.36703e-05
2.47796e-05
2.67678e-05
2.93803e-05
3.25798e-05
3.66876e-05
4.25692e-05
5.15965e-05
6.55313e-05
8.59738e-05
0.000113958
0.000149542
0.00019223
0.000241019
0.000294915
0.000352936
0.000414148
0.00047761
0.000542311
0.000606997
0.000670648
0.000732709
0.000792466
0.000849256
0.000902478
0.000951628
0.000996263
0.00103605
0.00107073
0.00110015
0.00112424
0.00114305
0.0011567
0.00116544
0.00116962
0.00116966
0.00116604
0.00115917
0.00114946
0.00113733
0.00112326
0.00110775
0.00109116
0.00107391
0.00105611
0.00103807
0.00101952
0.00100087
0.00098119
0.00096164
0.0009398
0.000919101
0.00089304
0.000870499
0.000836889
3.48393e-05
3.04126e-05
2.72001e-05
2.49465e-05
2.37174e-05
2.36349e-05
2.4698e-05
2.67617e-05
2.95968e-05
3.31135e-05
3.75228e-05
4.35409e-05
5.23914e-05
6.5728e-05
8.51654e-05
0.000111864
0.00014609
0.000187477
0.000235115
0.000288007
0.000345145
0.000405564
0.000468298
0.000532309
0.000596288
0.000659294
0.000720703
0.000779789
0.000835882
0.000888371
0.000936739
0.000980537
0.00101942
0.00105313
0.00108152
0.00110451
0.00112216
0.00113461
0.00114213
0.00114508
0.00114391
0.00113912
0.00113119
0.00112055
0.0011077
0.00109316
0.00107745
0.00106098
0.00104417
0.00102716
0.00101025
0.000993174
0.000976295
0.000958743
0.000941528
0.000922406
0.000904514
0.000881659
0.000862178
0.000831529
3.48548e-05
3.04737e-05
2.73064e-05
2.50563e-05
2.37645e-05
2.35715e-05
2.45412e-05
2.66055e-05
2.95828e-05
3.33598e-05
3.80562e-05
4.42431e-05
5.29868e-05
6.58095e-05
8.43015e-05
0.000109715
0.000142506
0.000182456
0.000228768
0.000280465
0.000336525
0.000395958
0.000457774
0.000520914
0.000584014
0.000646221
0.00070683
0.00076511
0.00082038
0.000872021
0.000919502
0.00096237
0.00100027
0.00103294
0.00106023
0.00108208
0.00109853
0.00110976
0.00111603
0.00111774
0.00111536
0.00110941
0.00110042
0.00108887
0.00107532
0.00106032
0.00104443
0.00102809
0.00101173
0.000995519
0.000979726
0.000964136
0.000949023
0.000933599
0.000918712
0.000902308
0.000887207
0.000867584
0.000851168
0.000823655
3.48674e-05
3.05261e-05
2.74005e-05
2.51565e-05
2.38058e-05
2.34934e-05
2.43327e-05
2.63289e-05
2.93621e-05
3.3323e-05
3.82653e-05
4.46276e-05
5.33158e-05
6.57031e-05
8.33191e-05
0.00010747
0.000138779
0.000177184
0.000222014
0.000272338
0.000327136
0.000385396
0.000446111
0.0005082
0.000570269
0.000631514
0.000691176
0.000748512
0.000802832
0.000853508
0.000899999
0.000941842
0.000978677
0.00101024
0.00103637
0.00105702
0.00107224
0.00108221
0.00108722
0.00108768
0.00108409
0.00107699
0.00106695
0.00105452
0.00104029
0.00102484
0.00100879
0.000992599
0.000976703
0.000961305
0.000946646
0.000932545
0.000919202
0.000905908
0.000893344
0.000879657
0.000867335
0.000850964
0.000837618
0.000813402
3.48776e-05
3.0571e-05
2.74838e-05
2.52485e-05
2.38448e-05
2.34108e-05
2.40939e-05
2.59631e-05
2.89666e-05
3.3022e-05
3.81445e-05
4.46607e-05
5.3321e-05
6.5338e-05
8.21496e-05
0.000105078
0.000134882
0.000171657
0.000214872
0.000263662
0.000317022
0.000373932
0.00043337
0.000494234
0.000555121
0.000615248
0.000673817
0.000730073
0.000783317
0.000832912
0.000878307
0.000919032
0.000954718
0.000985099
0.00101001
0.00102941
0.00104336
0.00105205
0.00105578
0.00105499
0.00105018
0.00104195
0.00103089
0.0010176
0.0010027
0.000986852
0.00097066
0.000954637
0.000939226
0.000924655
0.000911143
0.000898543
0.000886977
0.000875818
0.000865574
0.000854603
0.000845047
0.000831944
0.000821674
0.000800898
3.48859e-05
3.06095e-05
2.75577e-05
2.53334e-05
2.38839e-05
2.33317e-05
2.38431e-05
2.55388e-05
2.84334e-05
3.24879e-05
3.77058e-05
4.43272e-05
5.29596e-05
6.46515e-05
8.07243e-05
0.00010248
0.000130778
0.000165863
0.000207349
0.000254458
0.000306218
0.00036161
0.000419602
0.000479073
0.000538632
0.000597491
0.000654825
0.000709867
0.000761909
0.000810307
0.0008545
0.000894012
0.000928467
0.000957595
0.000981234
0.000999338
0.00101198
0.00101936
0.0010218
0.00101974
0.00101373
0.00100438
0.000992322
0.000978201
0.000962685
0.000946454
0.000930157
0.00091433
0.00089943
0.000885708
0.00087336
0.000862273
0.000852494
0.000843473
0.000835549
0.000827293
0.000820492
0.000810668
0.000803476
0.000786271
3.48925e-05
3.06426e-05
2.76232e-05
2.54118e-05
2.39244e-05
2.32613e-05
2.35951e-05
2.50836e-05
2.78017e-05
3.17614e-05
3.69775e-05
4.36314e-05
5.22079e-05
6.35953e-05
7.89816e-05
9.96161e-05
0.000126422
0.000159777
0.000199442
0.00024474
0.00029475
0.000348466
0.00040485
0.000462765
0.000520856
0.000578302
0.000634262
0.000687959
0.000738677
0.000785764
0.000828652
0.000866857
0.000899999
0.000927803
0.000950107
0.000966868
0.000978168
0.000984215
0.000985348
0.000982028
0.000974824
0.000964376
0.000951357
0.000936444
0.000920346
0.000903777
0.000887411
0.000871816
0.000857457
0.000844608
0.000833445
0.000823885
0.000815902
0.000809025
0.000803419
0.000797876
0.000793818
0.00078728
0.000783168
0.000769648
3.48979e-05
3.06711e-05
2.76814e-05
2.54845e-05
2.39667e-05
2.32029e-05
2.3361e-05
2.46218e-05
2.71096e-05
3.0889e-05
3.60018e-05
4.25977e-05
5.10634e-05
6.21399e-05
7.6873e-05
9.64318e-05
0.000121768
0.000153369
0.000191138
0.000234512
0.000282634
0.000334523
0.000389147
0.000445351
0.00050184
0.000557734
0.000612186
0.000664411
0.000713684
0.00075935
0.00080083
0.000837638
0.000869386
0.000895797
0.00091671
0.000932085
0.000942011
0.000946708
0.000946529
0.000941955
0.000933575
0.000922058
0.000908111
0.000892449
0.000875816
0.000858956
0.000842568
0.000827246
0.000813461
0.000801513
0.000791556
0.000783537
0.000777359
0.000772627
0.000769337
0.0007665
0.000765172
0.000761922
0.000760891
0.000751154
3.49021e-05
3.06958e-05
2.7733e-05
2.55516e-05
2.40108e-05
2.31582e-05
2.31485e-05
2.4173e-05
2.63923e-05
2.99191e-05
3.48309e-05
4.12684e-05
4.95468e-05
6.02788e-05
7.43687e-05
9.28857e-05
0.000116776
0.00014661
0.000182424
0.000223773
0.000269882
0.000319805
0.000372524
0.000426884
0.000481628
0.000535835
0.000588649
0.000639278
0.000686992
0.000731128
0.000771102
0.000806424
0.000836701
0.000861654
0.000881123
0.000895071
0.000903596
0.000906929
0.000905439
0.000899622
0.000890092
0.000877543
0.000862713
0.000846355
0.000829243
0.000812148
0.00079579
0.000780786
0.000767615
0.000756596
0.000747865
0.0007414
0.000737032
0.000734444
0.000733464
0.000733322
0.000734709
0.00073474
0.000736787
0.000730915
3.49056e-05
3.07171e-05
2.77789e-05
2.56137e-05
2.40563e-05
2.31273e-05
2.29623e-05
2.37518e-05
2.568e-05
2.88984e-05
3.35225e-05
3.97e-05
4.77001e-05
5.80306e-05
7.14629e-05
8.89551e-05
0.00011142
0.000139481
0.000173291
0.000212528
0.000256506
0.000304331
0.000355006
0.000407395
0.000460255
0.000512645
0.000563698
0.000612615
0.000658658
0.00070116
0.000739535
0.000773285
0.000802018
0.000825452
0.000843428
0.000855916
0.000863019
0.000864981
0.000862185
0.000855147
0.000844501
0.000830967
0.000815311
0.000798319
0.000780793
0.000763529
0.000747261
0.000732627
0.000720111
0.000710052
0.000702567
0.000697662
0.000695105
0.000694652
0.000695971
0.000698506
0.000702588
0.000705887
0.000711002
0.000709058
3.49083e-05
3.07356e-05
2.78199e-05
2.5671e-05
2.41029e-05
2.31097e-05
2.28047e-05
2.33687e-05
2.4997e-05
2.78692e-05
3.21352e-05
3.79585e-05
4.55837e-05
5.54382e-05
6.8176e-05
8.4641e-05
0.00010569
0.000131974
0.000163741
0.000200786
0.000242525
0.000288125
0.000336623
0.000386914
0.00043776
0.000488207