/*--------------------------------*- C++ -*----------------------------------*\
| =========                 |                                                 |
| \\      /  F ield         | OpenFOAM: The Open Source CFD Toolbox           |
|  \\    /   O peration     | Version:  2.4.0                                 |
|   \\  /    A nd           | Web:      www.OpenFOAM.org                      |
|    \\/     M anipulation  |                                                 |
\*---------------------------------------------------------------------------*/
FoamFile
{
    version     2.0;
    format      ascii;
    class       surfaceScalarField;
    location    "0.89";
    object      phi;
}
// * * * * * * * * * * * * * * * * * * * * * * * * * * * * * * * * * * * * * //

dimensions      [0 3 -1 0 0 0 0];

internalField   nonuniform List<scalar> 
11830
(
2.94679e-06
5.32099e-08
2.8769e-06
6.98929e-08
2.80965e-06
6.72439e-08
2.74328e-06
6.63695e-08
2.67869e-06
6.45921e-08
2.61757e-06
6.1121e-08
2.56084e-06
5.67298e-08
2.5088e-06
5.2045e-08
2.46148e-06
4.73187e-08
2.41878e-06
4.26989e-08
2.38047e-06
3.83084e-08
2.34624e-06
3.42316e-08
2.31572e-06
3.05138e-08
2.28855e-06
2.71712e-08
2.26435e-06
2.42008e-08
2.24277e-06
2.15875e-08
2.22346e-06
1.93084e-08
2.20612e-06
1.73368e-08
2.19048e-06
1.5644e-08
2.17627e-06
1.42012e-08
2.16329e-06
1.29801e-08
2.15134e-06
1.19531e-08
2.14025e-06
1.10945e-08
2.12987e-06
1.03803e-08
2.12008e-06
9.78868e-09
2.11078e-06
9.30034e-09
2.10188e-06
8.89787e-09
2.09331e-06
8.56674e-09
2.08502e-06
8.29495e-09
2.07695e-06
8.07296e-09
2.06905e-06
7.89344e-09
2.0613e-06
7.75119e-09
2.05366e-06
7.64301e-09
2.04609e-06
7.56779e-09
2.03856e-06
7.52683e-09
2.03104e-06
7.52433e-09
2.02347e-06
7.56805e-09
2.0158e-06
7.66995e-09
2.00795e-06
7.84696e-09
1.99983e-06
8.12179e-09
1.99131e-06
8.5239e-09
1.98222e-06
9.09084e-09
1.97235e-06
9.87016e-09
1.96142e-06
1.09222e-08
1.9491e-06
1.23239e-08
1.93493e-06
1.41741e-08
1.91833e-06
1.66007e-08
1.89856e-06
1.977e-08
1.87466e-06
2.39001e-08
1.84538e-06
2.92789e-08
1.80909e-06
3.62892e-08
1.76364e-06
4.5444e-08
1.70621e-06
5.74331e-08
1.63302e-06
7.31858e-08
1.53915e-06
9.38779e-08
1.41807e-06
1.2108e-07
1.26259e-06
1.55478e-07
1.06317e-06
1.99414e-07
8.12148e-07
2.51027e-07
2.42651e-07
5.69497e-07
3.02862e-06
2.45862e-08
3.05191e-06
4.66057e-08
3.06774e-06
5.14104e-08
3.07746e-06
5.66559e-08
3.08094e-06
6.11137e-08
3.07874e-06
6.33212e-08
3.07162e-06
6.38416e-08
3.06034e-06
6.33279e-08
3.0456e-06
6.20611e-08
3.02807e-06
6.02263e-08
3.00837e-06
5.80104e-08
2.98703e-06
5.55744e-08
2.9645e-06
5.30389e-08
2.94118e-06
5.0489e-08
2.9174e-06
4.79828e-08
2.89343e-06
4.55577e-08
2.8695e-06
4.32359e-08
2.84581e-06
4.10287e-08
2.82252e-06
3.89402e-08
2.79975e-06
3.697e-08
2.77761e-06
3.51153e-08
2.75619e-06
3.3372e-08
2.73555e-06
3.17355e-08
2.71573e-06
3.02017e-08
2.69675e-06
2.8767e-08
2.67862e-06
2.74289e-08
2.66134e-06
2.61844e-08
2.64487e-06
2.50316e-08
2.6292e-06
2.39688e-08
2.61428e-06
2.29951e-08
2.60006e-06
2.211e-08
2.5865e-06
2.13136e-08
2.57353e-06
2.06073e-08
2.56111e-06
1.99933e-08
2.54916e-06
1.94761e-08
2.53762e-06
1.90632e-08
2.52642e-06
1.87658e-08
2.51549e-06
1.86004e-08
2.50475e-06
1.85906e-08
2.4941e-06
1.87684e-08
2.48345e-06
1.91766e-08
2.47267e-06
1.98716e-08
2.46161e-06
2.0927e-08
2.4501e-06
2.2438e-08
2.43789e-06
2.45283e-08
2.42471e-06
2.7359e-08
2.41017e-06
3.11398e-08
2.39379e-06
3.61466e-08
2.37495e-06
4.27442e-08
2.35281e-06
5.14197e-08
2.32626e-06
6.28321e-08
2.29383e-06
7.78807e-08
2.25343e-06
9.78247e-08
2.20222e-06
1.24402e-07
2.13592e-06
1.60179e-07
2.04865e-06
2.08348e-07
1.92969e-06
2.74433e-07
1.7702e-06
3.58911e-07
1.5314e-06
4.89827e-07
5.26934e-07
1.24712e-06
3.00532e-06
1.92658e-08
3.01285e-06
3.90794e-08
3.01981e-06
4.44436e-08
3.02758e-06
4.8887e-08
3.03534e-06
5.33531e-08
3.0425e-06
5.61648e-08
3.04882e-06
5.75192e-08
3.05413e-06
5.80211e-08
3.05826e-06
5.7925e-08
3.06115e-06
5.73391e-08
3.06277e-06
5.63927e-08
3.06313e-06
5.52127e-08
3.06227e-06
5.3899e-08
3.06024e-06
5.25243e-08
3.05708e-06
5.11402e-08
3.05285e-06
4.9782e-08
3.04762e-06
4.84716e-08
3.04143e-06
4.72205e-08
3.03433e-06
4.60329e-08
3.0264e-06
4.49075e-08
3.01767e-06
4.38397e-08
3.00822e-06
4.28223e-08
2.99811e-06
4.18475e-08
2.9874e-06
4.09077e-08
2.97618e-06
3.99957e-08
2.9645e-06
3.9106e-08
2.95245e-06
3.8234e-08
2.9401e-06
3.73772e-08
2.92754e-06
3.65353e-08
2.91482e-06
3.57103e-08
2.90202e-06
3.49064e-08
2.88921e-06
3.41307e-08
2.87642e-06
3.33928e-08
2.86371e-06
3.27055e-08
2.8511e-06
3.2085e-08
2.83861e-06
3.15522e-08
2.82624e-06
3.11332e-08
2.81398e-06
3.0861e-08
2.8018e-06
3.07772e-08
2.78963e-06
3.09344e-08
2.77741e-06
3.13988e-08
2.76503e-06
3.22542e-08
2.75235e-06
3.36071e-08
2.73919e-06
3.55934e-08
2.72533e-06
3.83872e-08
2.71048e-06
4.22127e-08
2.69426e-06
4.73608e-08
2.67619e-06
5.42099e-08
2.65568e-06
6.32573e-08
2.63194e-06
7.51605e-08
2.60397e-06
9.08003e-08
2.57049e-06
1.11363e-07
2.52982e-06
1.38495e-07
2.4798e-06
1.7442e-07
2.41748e-06
2.225e-07
2.33921e-06
2.86617e-07
2.23826e-06
3.75383e-07
2.10947e-06
4.87699e-07
1.9251e-06
6.74203e-07
7.66753e-07
1.68528e-06
3.00342e-06
1.5846e-08
3.00771e-06
3.47898e-08
3.01095e-06
4.12032e-08
3.01456e-06
4.52804e-08
3.01853e-06
4.93834e-08
3.0226e-06
5.20914e-08
3.02675e-06
5.33725e-08
3.03092e-06
5.38438e-08
3.03504e-06
5.38099e-08
3.03901e-06
5.33719e-08
3.04276e-06
5.26355e-08
3.04626e-06
5.17136e-08
3.04947e-06
5.06957e-08
3.05234e-06
4.96447e-08
3.05488e-06
4.86042e-08
3.05706e-06
4.76036e-08
3.05887e-06
4.66611e-08
3.0603e-06
4.57864e-08
3.06135e-06
4.49825e-08
3.06201e-06
4.4248e-08
3.06227e-06
4.35786e-08
3.06213e-06
4.29679e-08
3.06157e-06
4.24086e-08
3.06058e-06
4.18937e-08
3.05916e-06
4.14162e-08
3.0573e-06
4.09703e-08
3.05498e-06
4.05512e-08
3.0522e-06
4.01551e-08
3.04896e-06
3.97805e-08
3.04524e-06
3.94275e-08
3.04105e-06
3.90984e-08
3.03638e-06
3.87983e-08
3.03124e-06
3.85348e-08
3.02562e-06
3.83195e-08
3.01954e-06
3.81682e-08
3.01299e-06
3.81026e-08
3.00597e-06
3.81513e-08
2.99848e-06
3.83523e-08
2.9905e-06
3.87548e-08
2.98202e-06
3.94229e-08
2.97298e-06
4.04386e-08
2.96332e-06
4.19075e-08
2.95296e-06
4.39643e-08
2.94178e-06
4.67823e-08
2.92958e-06
5.05837e-08
2.91614e-06
5.56548e-08
2.90113e-06
6.23656e-08
2.88415e-06
7.1197e-08
2.86463e-06
8.27767e-08
2.84186e-06
9.79304e-08
2.8149e-06
1.17755e-07
2.78255e-06
1.43713e-07
2.74324e-06
1.77809e-07
2.69496e-06
2.22701e-07
2.63509e-06
2.82366e-07
2.56057e-06
3.61139e-07
2.46668e-06
4.69271e-07
2.35028e-06
6.04102e-07
2.19811e-06
8.26375e-07
9.63183e-07
2.00168e-06
3.00258e-06
1.32661e-08
3.00624e-06
3.11331e-08
3.00912e-06
3.83159e-08
3.01204e-06
4.2368e-08
3.01515e-06
4.62694e-08
3.01826e-06
4.89866e-08
3.02133e-06
5.02963e-08
3.02441e-06
5.07621e-08
3.02749e-06
5.07329e-08
3.03054e-06
5.03225e-08
3.03355e-06
4.96277e-08
3.0365e-06
4.87582e-08
3.03939e-06
4.78036e-08
3.04221e-06
4.68258e-08
3.04495e-06
4.5867e-08
3.0476e-06
4.49552e-08
3.05015e-06
4.41081e-08
3.0526e-06
4.33345e-08
3.05495e-06
4.26374e-08
3.05718e-06
4.20152e-08
3.0593e-06
4.14635e-08
3.06129e-06
4.09765e-08
3.06315e-06
4.05474e-08
3.06487e-06
4.01697e-08
3.06645e-06
3.98373e-08
3.06788e-06
3.95453e-08
3.06914e-06
3.92898e-08
3.07023e-06
3.90683e-08
3.07113e-06
3.88806e-08
3.07182e-06
3.87282e-08
3.07231e-06
3.8615e-08
3.07256e-06
3.8548e-08
3.07256e-06
3.8537e-08
3.07228e-06
3.85963e-08
3.0717e-06
3.87448e-08
3.0708e-06
3.90082e-08
3.06953e-06
3.94201e-08
3.06786e-06
4.00246e-08
3.06573e-06
4.08793e-08
3.0631e-06
4.20583e-08
3.05988e-06
4.36575e-08
3.05598e-06
4.58001e-08
3.0513e-06
4.86442e-08
3.04569e-06
5.23935e-08
3.03897e-06
5.731e-08
3.03089e-06
6.3732e-08
3.02116e-06
7.20974e-08
3.00938e-06
8.29751e-08
2.99505e-06
9.71079e-08
2.97751e-06
1.15471e-07
2.95591e-06
1.39354e-07
2.92915e-06
1.70473e-07
2.8958e-06
2.11157e-07
2.85403e-06
2.64472e-07
2.80145e-06
3.34946e-07
2.73517e-06
4.2742e-07
2.65121e-06
5.53233e-07
2.54629e-06
7.09015e-07
2.41439e-06
9.58274e-07
1.12855e-06
2.24903e-06
3.00198e-06
1.12875e-08
3.00526e-06
2.78521e-08
3.00808e-06
3.54906e-08
3.01084e-06
3.96175e-08
3.01376e-06
4.33428e-08
3.01668e-06
4.60643e-08
3.01954e-06
4.74443e-08
3.02234e-06
4.79543e-08
3.02511e-06
4.79674e-08
3.02782e-06
4.76124e-08
3.03047e-06
4.69767e-08
3.03306e-06
4.61639e-08
3.03561e-06
4.52627e-08
3.0381e-06
4.4335e-08
3.04054e-06
4.34227e-08
3.04294e-06
4.25542e-08
3.0453e-06
4.17474e-08
3.04762e-06
4.10123e-08
3.04991e-06
4.03524e-08
3.05216e-06
3.9767e-08
3.05437e-06
3.92525e-08
3.05654e-06
3.88039e-08
3.05867e-06
3.84152e-08
3.06076e-06
3.80804e-08
3.06281e-06
3.77944e-08
3.0648e-06
3.75529e-08
3.06674e-06
3.73527e-08
3.06861e-06
3.71925e-08
3.07042e-06
3.70727e-08
3.07215e-06
3.69962e-08
3.0738e-06
3.69683e-08
3.07535e-06
3.69974e-08
3.07679e-06
3.70957e-08
3.07811e-06
3.72799e-08
3.07928e-06
3.75722e-08
3.08028e-06
3.80024e-08
3.0811e-06
3.86091e-08
3.08168e-06
3.94429e-08
3.08199e-06
4.05693e-08
3.08197e-06
4.20726e-08
3.08157e-06
4.40618e-08
3.08069e-06
4.66763e-08
3.07924e-06
5.00956e-08
3.07708e-06
5.45505e-08
3.07406e-06
6.03377e-08
3.06995e-06
6.78404e-08
3.06449e-06
7.7554e-08
3.05735e-06
9.01216e-08
3.04807e-06
1.06382e-07
3.03611e-06
1.27434e-07
3.02073e-06
1.54727e-07
3.00102e-06
1.90184e-07
2.97577e-06
2.36406e-07
2.94345e-06
2.968e-07
2.90203e-06
3.76362e-07
2.849e-06
4.80447e-07
2.78098e-06
6.21256e-07
2.69429e-06
7.95702e-07
2.58543e-06
1.06714e-06
1.26756e-06
2.44642e-06
3.00156e-06
9.72686e-09
3.00449e-06
2.49214e-08
3.00722e-06
3.27657e-08
3.00985e-06
3.69818e-08
3.01266e-06
4.05328e-08
3.01551e-06
4.32134e-08
3.01831e-06
4.46491e-08
3.02105e-06
4.52079e-08
3.02375e-06
4.52686e-08
3.02639e-06
4.49758e-08
3.02896e-06
4.44099e-08
3.03146e-06
4.36655e-08
3.03389e-06
4.2829e-08
3.03626e-06
4.19611e-08
3.03858e-06
4.11029e-08
3.04085e-06
4.0282e-08
3.04309e-06
3.9517e-08
3.04528e-06
3.88181e-08
3.04744e-06
3.81896e-08
3.04958e-06
3.76317e-08
3.05169e-06
3.71418e-08
3.05378e-06
3.67156e-08
3.05584e-06
3.6348e-08
3.05789e-06
3.60342e-08
3.05991e-06
3.57697e-08
3.06192e-06
3.55511e-08
3.06389e-06
3.53762e-08
3.06584e-06
3.52443e-08
3.06776e-06
3.51571e-08
3.06963e-06
3.51185e-08
3.07147e-06
3.5135e-08
3.07325e-06
3.52168e-08
3.07497e-06
3.53779e-08
3.07661e-06
3.56373e-08
3.07816e-06
3.60204e-08
3.0796e-06
3.65604e-08
3.08091e-06
3.73008e-08
3.08206e-06
3.82979e-08
3.083e-06
3.96244e-08
3.0837e-06
4.13742e-08
3.08409e-06
4.36676e-08
3.08411e-06
4.66589e-08
3.08366e-06
5.05465e-08
3.08263e-06
5.55847e-08
3.08086e-06
6.21005e-08
3.07819e-06
7.05148e-08
3.07437e-06
8.13712e-08
3.06912e-06
9.53731e-08
3.06207e-06
1.13435e-07
3.05275e-06
1.36749e-07
3.0406e-06
1.66883e-07
3.02488e-06
2.05902e-07
3.0047e-06
2.56585e-07
2.97895e-06
3.22553e-07
2.94623e-06
4.09077e-07
2.90483e-06
5.21845e-07
2.85254e-06
6.73546e-07
2.78622e-06
8.62025e-07
2.70471e-06
1.14864e-06
1.37998e-06
2.59229e-06
3.00126e-06
8.46462e-09
3.00387e-06
2.23159e-08
3.00647e-06
3.01585e-08
3.00902e-06
3.44379e-08
3.01173e-06
3.78227e-08
3.01452e-06
4.04269e-08
3.01727e-06
4.18956e-08
3.01998e-06
4.24978e-08
3.02265e-06
4.26007e-08
3.02526e-06
4.23645e-08
3.0278e-06
4.18654e-08
3.03028e-06
4.11893e-08
3.03269e-06
4.04188e-08
3.03504e-06
3.96133e-08
3.03733e-06
3.88127e-08
3.03957e-06
3.80438e-08
3.04176e-06
3.73248e-08
3.04391e-06
3.66662e-08
3.04603e-06
3.60729e-08
3.04811e-06
3.55455e-08
3.05017e-06
3.50823e-08
3.05221e-06
3.46796e-08
3.05422e-06
3.43334e-08
3.05622e-06
3.40393e-08
3.05819e-06
3.37938e-08
3.06015e-06
3.35942e-08
3.06209e-06
3.34393e-08
3.064e-06
3.33293e-08
3.06589e-06
3.32668e-08
3.06775e-06
3.32567e-08
3.06958e-06
3.33071e-08
3.07137e-06
3.34293e-08
3.07311e-06
3.36395e-08
3.07479e-06
3.39589e-08
3.07639e-06
3.44157e-08
3.0779e-06
3.50468e-08
3.07931e-06
3.59e-08
3.08057e-06
3.70372e-08
3.08165e-06
3.85383e-08
3.08252e-06
4.05057e-08
3.08312e-06
4.30709e-08
3.08337e-06
4.64023e-08
3.0832e-06
5.07159e-08
3.0825e-06
5.62881e-08
3.08113e-06
6.34739e-08
3.07891e-06
7.27293e-08
3.07564e-06
8.46414e-08
3.07105e-06
9.99674e-08
3.0648e-06
1.19687e-07
3.05647e-06
1.45073e-07
3.04557e-06
1.77784e-07
3.03148e-06
2.19992e-07
3.01348e-06
2.74584e-07
2.99075e-06
3.45288e-07
2.96237e-06
4.37453e-07
2.92738e-06
5.56839e-07
2.88496e-06
7.15966e-07
2.83322e-06
9.13762e-07
2.77503e-06
1.20683e-06
1.46733e-06
2.68768e-06
3.00104e-06
7.42182e-09
3.00336e-06
1.9998e-08
3.00584e-06
2.76744e-08
3.00831e-06
3.19733e-08
3.01093e-06
3.52025e-08
3.01365e-06
3.77055e-08
3.01636e-06
3.91837e-08
3.01904e-06
3.98209e-08
3.02168e-06
3.99597e-08
3.02427e-06
3.97725e-08
3.0268e-06
3.93343e-08
3.02927e-06
3.87228e-08
3.03167e-06
3.80158e-08
3.03402e-06
3.72713e-08
3.0363e-06
3.65278e-08
3.03853e-06
3.58113e-08
3.04072e-06
3.51393e-08
3.04286e-06
3.45226e-08
3.04497e-06
3.39663e-08
3.04704e-06
3.34716e-08
3.04909e-06
3.30371e-08
3.05111e-06
3.266e-08
3.0531e-06
3.23369e-08
3.05508e-06
3.20641e-08
3.05703e-06
3.1839e-08
3.05897e-06
3.16594e-08
3.06088e-06
3.1525e-08
3.06278e-06
3.14369e-08
3.06464e-06
3.13985e-08
3.06648e-06
3.14158e-08
3.06829e-06
3.14981e-08
3.07006e-06
3.16582e-08
3.07179e-06
3.19141e-08
3.07346e-06
3.22891e-08
3.07506e-06
3.28143e-08
3.07658e-06
3.35299e-08
3.07799e-06
3.4488e-08
3.07927e-06
3.5756e-08
3.08039e-06
3.74202e-08
3.0813e-06
3.95917e-08
3.08196e-06
4.24125e-08
3.0823e-06
4.60644e-08
3.08224e-06
5.07801e-08
3.08167e-06
5.68575e-08
3.08046e-06
6.4678e-08
3.07846e-06
7.47308e-08
3.07546e-06
8.7644e-08
3.0712e-06
1.04225e-07
3.06537e-06
1.25515e-07
3.05759e-06
1.52859e-07
3.04737e-06
1.87999e-07
3.03417e-06
2.33193e-07
3.01734e-06
2.91416e-07
2.99617e-06
3.66456e-07
2.96998e-06
4.63642e-07
2.93814e-06
5.88679e-07
2.90072e-06
7.53389e-07
2.8567e-06
9.57786e-07
2.81265e-06
1.25087e-06
1.53461e-06
2.74538e-06
3.00088e-06
6.54324e-09
3.00295e-06
1.79273e-08
3.00531e-06
2.53151e-08
3.0077e-06
2.9582e-08
3.01024e-06
3.26627e-08
3.0129e-06
3.50476e-08
3.01557e-06
3.65126e-08
3.01821e-06
3.71748e-08
3.02083e-06
3.73435e-08
3.02341e-06
3.71984e-08
3.02592e-06
3.68154e-08
3.02838e-06
3.62643e-08
3.03078e-06
3.56179e-08
3.03312e-06
3.49323e-08
3.0354e-06
3.42444e-08
3.03763e-06
3.35793e-08
3.03982e-06
3.29541e-08
3.04196e-06
3.23794e-08
3.04407e-06
3.18604e-08
3.04614e-06
3.13989e-08
3.04818e-06
3.09939e-08
3.0502e-06
3.06433e-08
3.05219e-06
3.03441e-08
3.05416e-06
3.00937e-08
3.05611e-06
2.98897e-08
3.05804e-06
2.9731e-08
3.05995e-06
2.96177e-08
3.06183e-06
2.95519e-08
3.0637e-06
2.95379e-08
3.06553e-06
2.95826e-08
3.06733e-06
2.96965e-08
3.06909e-06
2.98938e-08
3.07081e-06
3.01942e-08
3.07248e-06
3.06231e-08
3.07408e-06
3.12142e-08
3.0756e-06
3.2011e-08
3.07702e-06
3.30697e-08
3.07831e-06
3.44627e-08
3.07945e-06
3.62828e-08
3.08039e-06
3.8649e-08
3.08109e-06
4.17136e-08
3.08148e-06
4.56711e-08
3.08149e-06
5.07703e-08
3.08102e-06
5.7329e-08
3.07995e-06
6.5754e-08
3.07811e-06
7.65658e-08
3.07532e-06
9.04312e-08
3.07134e-06
1.08205e-07
3.06587e-06
1.30986e-07
3.05855e-06
1.60185e-07
3.04893e-06
1.9762e-07
3.03649e-06
2.4563e-07
3.02064e-06
3.0726e-07
3.00075e-06
3.86348e-07
2.97623e-06
4.88161e-07
2.94657e-06
6.18344e-07
2.91217e-06
7.87783e-07
2.87235e-06
9.97613e-07
2.83517e-06
1.28805e-06
1.58763e-06
2.78214e-06
3.00075e-06
5.78931e-09
3.00261e-06
1.60664e-08
3.00485e-06
2.30786e-08
3.00717e-06
2.72603e-08
3.00964e-06
3.01946e-08
3.01224e-06
3.24499e-08
3.01487e-06
3.38812e-08
3.01749e-06
3.45576e-08
3.02008e-06
3.47504e-08
3.02264e-06
3.46412e-08
3.02515e-06
3.43079e-08
3.0276e-06
3.38133e-08
3.02999e-06
3.32247e-08
3.03233e-06
3.25956e-08
3.03461e-06
3.19618e-08
3.03684e-06
3.13472e-08
3.03903e-06
3.07681e-08
3.04117e-06
3.0235e-08
3.04328e-06
2.97534e-08
3.04535e-06
2.93251e-08
3.0474e-06
2.89499e-08
3.04941e-06
2.8626e-08
3.05141e-06
2.83513e-08
3.05338e-06
2.81234e-08
3.05533e-06
2.79409e-08
3.05725e-06
2.78032e-08
3.05916e-06
2.77113e-08
3.06104e-06
2.76679e-08
3.0629e-06
2.76781e-08
3.06474e-06
2.77499e-08
3.06654e-06
2.78948e-08
3.0683e-06
2.81286e-08
3.07002e-06
2.84722e-08
3.07169e-06
2.89534e-08
3.0733e-06
2.96081e-08
3.07483e-06
3.04831e-08
3.07626e-06
3.16384e-08
3.07757e-06
3.31512e-08
3.07873e-06
3.51204e-08
3.07971e-06
3.76727e-08
3.08045e-06
4.09699e-08
3.08091e-06
4.52186e-08
3.08099e-06
5.06827e-08
3.08062e-06
5.76991e-08
3.07968e-06
6.66984e-08
3.07801e-06
7.82305e-08
3.07545e-06
9.29987e-08
3.07175e-06
1.11902e-07
3.06664e-06
1.36092e-07
3.05979e-06
1.67041e-07
3.05077e-06
2.06638e-07
3.03911e-06
2.57292e-07
3.02426e-06
3.22107e-07
3.00565e-06
4.0496e-07
2.98277e-06
5.11043e-07
2.95516e-06
6.45946e-07
2.92335e-06
8.19594e-07
2.88681e-06
1.03416e-06
2.85318e-06
1.32168e-06
1.63079e-06
2.81002e-06
3.00066e-06
5.13133e-09
3.00234e-06
1.43826e-08
3.00446e-06
2.09594e-08
3.00672e-06
2.50054e-08
3.00912e-06
2.77902e-08
3.01166e-06
2.99083e-08
3.01425e-06
3.12883e-08
3.01684e-06
3.19677e-08
3.01942e-06
3.21788e-08
3.02196e-06
3.21001e-08
3.02445e-06
3.18112e-08
3.0269e-06
3.13693e-08
3.02929e-06
3.08357e-08
3.03162e-06
3.02611e-08
3.0339e-06
2.96799e-08
3.03614e-06
2.91147e-08
3.03832e-06
2.85812e-08
3.04047e-06
2.80894e-08
3.04258e-06
2.76449e-08
3.04465e-06
2.72499e-08
3.0467e-06
2.69046e-08
3.04872e-06
2.66076e-08
3.05071e-06
2.63573e-08
3.05268e-06
2.61522e-08
3.05463e-06
2.59912e-08
3.05656e-06
2.58746e-08
3.05847e-06
2.58039e-08
3.06035e-06
2.57826e-08
3.06221e-06
2.58167e-08
3.06405e-06
2.59151e-08
3.06585e-06
2.60903e-08
3.06762e-06
2.63593e-08
3.06935e-06
2.67448e-08
3.07103e-06
2.72762e-08
3.07264e-06
2.79921e-08
3.07418e-06
2.89419e-08
3.07563e-06
3.01894e-08
3.07697e-06
3.18164e-08
3.07816e-06
3.39276e-08
3.07918e-06
3.66567e-08
3.07997e-06
4.01746e-08
3.08049e-06
4.46993e-08
3.08067e-06
5.0509e-08
3.08041e-06
5.79584e-08
3.0796e-06
6.75003e-08
3.07812e-06
7.97123e-08
3.07579e-06
9.53314e-08
3.07239e-06
1.15298e-07
3.06767e-06
1.40812e-07
3.06131e-06
1.73404e-07
3.05293e-06
2.15023e-07
3.04207e-06
2.68143e-07
3.02826e-06
3.35918e-07
3.01097e-06
4.22254e-07
2.98976e-06
5.32254e-07
2.96426e-06
6.71448e-07
2.93499e-06
8.48866e-07
2.90167e-06
1.06748e-06
2.87075e-06
1.35259e-06
1.66675e-06
2.83479e-06
3.00058e-06
4.54822e-09
3.00212e-06
1.28475e-08
3.00413e-06
1.89498e-08
3.00632e-06
2.28145e-08
3.00867e-06
2.54428e-08
3.01116e-06
2.74185e-08
3.01371e-06
2.87323e-08
3.01628e-06
2.94034e-08
3.01883e-06
2.96271e-08
3.02135e-06
2.95738e-08
3.02384e-06
2.93246e-08
3.02628e-06
2.89318e-08
3.02866e-06
2.84505e-08
3.031e-06
2.79285e-08
3.03328e-06
2.73984e-08
3.03551e-06
2.68818e-08
3.0377e-06
2.63931e-08
3.03985e-06
2.59423e-08
3.04196e-06
2.55348e-08
3.04403e-06
2.51732e-08
3.04608e-06
2.48577e-08
3.0481e-06
2.45877e-08
3.05009e-06
2.4362e-08
3.05207e-06
2.41796e-08
3.05402e-06
2.40402e-08
3.05595e-06
2.39445e-08
3.05786e-06
2.38948e-08
3.05974e-06
2.38954e-08
3.06161e-06
2.39529e-08
3.06345e-06
2.40771e-08
3.06525e-06
2.42816e-08
3.06703e-06
2.45846e-08
3.06876e-06
2.50102e-08
3.07045e-06
2.55898e-08
3.07208e-06
2.63639e-08
3.07364e-06
2.73849e-08
3.07511e-06
2.87199e-08
3.07647e-06
3.04552e-08
3.07769e-06
3.27006e-08
3.07875e-06
3.55967e-08
3.07961e-06
3.93228e-08
3.0802e-06
4.41075e-08
3.08046e-06
5.02423e-08
3.08032e-06
5.80986e-08
3.07967e-06
6.81497e-08
3.07839e-06
8.09989e-08
3.0763e-06
9.74147e-08
3.07323e-06
1.18375e-07
3.06891e-06
1.45126e-07
3.06307e-06
1.79247e-07
3.05535e-06
2.22746e-07
3.04534e-06
2.78151e-07
3.0326e-06
3.48658e-07
3.01666e-06
4.38193e-07
2.99715e-06
5.51767e-07
2.97377e-06
6.94829e-07
2.94702e-06
8.75613e-07
2.9169e-06
1.09759e-06
2.88871e-06
1.38079e-06
1.6971e-06
2.85836e-06
3.00052e-06
4.02422e-09
3.00193e-06
1.1437e-08
3.00384e-06
1.70407e-08
3.00597e-06
2.06845e-08
3.00827e-06
2.31468e-08
3.01071e-06
2.49758e-08
3.01323e-06
2.62112e-08
3.01577e-06
2.68633e-08
3.01831e-06
2.70936e-08
3.02082e-06
2.70614e-08
3.0233e-06
2.68475e-08
3.02573e-06
2.65003e-08
3.02811e-06
2.60689e-08
3.03044e-06
2.55976e-08
3.03272e-06
2.51174e-08
3.03495e-06
2.46483e-08
3.03714e-06
2.4204e-08
3.03929e-06
2.37938e-08
3.0414e-06
2.34232e-08
3.04348e-06
2.30948e-08
3.04553e-06
2.28092e-08
3.04755e-06
2.25662e-08
3.04955e-06
2.23651e-08
3.05152e-06
2.22055e-08
3.05348e-06
2.20876e-08
3.05541e-06
2.20128e-08
3.05732e-06
2.19839e-08
3.05921e-06
2.20059e-08
3.06107e-06
2.20862e-08
3.06292e-06
2.22355e-08
3.06473e-06
2.24683e-08
3.06651e-06
2.28039e-08
3.06825e-06
2.32678e-08
3.06995e-06
2.38931e-08
3.07159e-06
2.47224e-08
3.07317e-06
2.58107e-08
3.07466e-06
2.72283e-08
3.07605e-06
2.90654e-08
3.07731e-06
3.14369e-08
3.07842e-06
3.44896e-08
3.07933e-06
3.84106e-08
3.08e-06
4.34385e-08
3.08036e-06
4.98769e-08
3.08035e-06
5.81126e-08
3.07986e-06
6.86381e-08
3.07878e-06
8.20801e-08
3.07696e-06
9.92357e-08
3.07422e-06
1.21118e-07
3.07033e-06
1.49013e-07
3.06503e-06
1.84548e-07
3.05799e-06
2.2978e-07
3.04886e-06
2.87287e-07
3.03722e-06
3.60298e-07
3.02266e-06
4.5275e-07
3.00486e-06
5.69564e-07
2.9836e-06
7.16091e-07
2.95935e-06
8.99867e-07
2.93233e-06
1.12461e-06
2.9069e-06
1.40622e-06
1.72287e-06
2.88113e-06
3.00048e-06
3.54737e-09
3.00178e-06
1.01307e-08
3.0036e-06
1.52223e-08
3.00567e-06
1.8612e-08
3.00792e-06
2.08971e-08
3.01032e-06
2.25756e-08
3.01281e-06
2.37227e-08
3.01533e-06
2.43458e-08
3.01785e-06
2.45769e-08
3.02035e-06
2.45616e-08
3.02281e-06
2.43793e-08
3.02524e-06
2.40744e-08
3.02762e-06
2.36906e-08
3.02995e-06
2.32684e-08
3.03223e-06
2.28368e-08
3.03446e-06
2.24143e-08
3.03665e-06
2.20138e-08
3.0388e-06
2.16439e-08
3.04092e-06
2.131e-08
3.043e-06
2.10148e-08
3.04505e-06
2.07591e-08
3.04707e-06
2.05432e-08
3.04907e-06
2.03667e-08
3.05104e-06
2.02299e-08
3.053e-06
2.01334e-08
3.05493e-06
2.00792e-08
3.05684e-06
2.00708e-08
3.05874e-06
2.01138e-08
3.06061e-06
2.02163e-08
3.06245e-06
2.03898e-08
3.06427e-06
2.06497e-08
3.06606e-06
2.10165e-08
3.06781e-06
2.15168e-08
3.06952e-06
2.21853e-08
3.07117e-06
2.30667e-08
3.07276e-06
2.42182e-08
3.07428e-06
2.57132e-08
3.0757e-06
2.76454e-08
3.077e-06
3.01345e-08
3.07816e-06
3.33329e-08
3.07913e-06
3.74351e-08
3.07988e-06
4.26885e-08
3.08035e-06
4.9408e-08
3.08047e-06
5.79946e-08
3.08015e-06
6.8958e-08
3.07928e-06
8.29466e-08
3.07774e-06
1.00783e-07
3.07534e-06
1.23513e-07
3.0719e-06
1.52458e-07
3.06716e-06
1.89288e-07
3.06083e-06
2.36103e-07
3.05259e-06
2.95525e-07
3.04208e-06
3.70812e-07
3.02893e-06
4.65903e-07
3.01286e-06
5.85635e-07
2.9937e-06
7.35249e-07
2.97189e-06
9.21672e-07
2.94782e-06
1.14869e-06
2.92513e-06
1.42891e-06
1.74483e-06
2.90317e-06
3.00044e-06
3.10842e-09
3.00166e-06
8.91153e-09
3.0034e-06
1.34848e-08
3.00541e-06
1.6593e-08
3.00762e-06
1.8689e-08
3.00998e-06
2.02136e-08
3.01244e-06
2.12642e-08
3.01494e-06
2.18493e-08
3.01744e-06
2.20756e-08
3.01993e-06
2.20735e-08
3.02239e-06
2.19191e-08
3.02481e-06
2.16536e-08
3.02719e-06
2.13153e-08
3.02951e-06
2.09407e-08
3.03179e-06
2.05565e-08
3.03403e-06
2.01799e-08
3.03622e-06
1.98226e-08
3.03837e-06
1.94927e-08
3.04049e-06
1.91953e-08
3.04257e-06
1.89332e-08
3.04462e-06
1.87074e-08
3.04664e-06
1.85185e-08
3.04864e-06
1.83667e-08
3.05062e-06
1.82525e-08
3.05258e-06
1.81773e-08
3.05451e-06
1.81436e-08
3.05643e-06
1.81554e-08
3.05832e-06
1.82189e-08
3.0602e-06
1.8343e-08
3.06205e-06
1.85398e-08
3.06387e-06
1.88256e-08
3.06566e-06
1.92219e-08
3.06742e-06
1.97566e-08
3.06914e-06
2.04658e-08
3.07081e-06
2.13959e-08
3.07243e-06
2.26064e-08
3.07397e-06
2.41733e-08
3.07542e-06
2.61938e-08
3.07676e-06
2.87916e-08
3.07797e-06
3.21245e-08
3.07901e-06
3.63934e-08
3.07985e-06
4.1854e-08
3.08042e-06
4.88314e-08
3.08068e-06
5.77392e-08
3.08053e-06
6.91031e-08
3.07989e-06
8.35904e-08
3.07862e-06
1.02048e-07
3.07659e-06
1.25548e-07
3.0736e-06
1.55446e-07
3.06944e-06
1.93449e-07
3.06385e-06
2.41697e-07
3.05653e-06
3.02846e-07
3.04716e-06
3.80179e-07
3.03543e-06
4.77636e-07
3.02109e-06
5.99972e-07
3.00402e-06
7.52318e-07
2.98462e-06
9.41073e-07
2.96335e-06
1.16996e-06
2.94328e-06
1.44898e-06
1.76357e-06
2.92453e-06
3.00041e-06
2.70007e-09
3.00156e-06
7.76486e-09
3.00322e-06
1.18183e-08
3.00519e-06
1.4623e-08
3.00736e-06
1.65183e-08
3.00969e-06
1.78854e-08
3.01212e-06
1.8833e-08
3.0146e-06
1.93721e-08
3.01709e-06
1.95882e-08
3.01956e-06
1.95958e-08
3.02202e-06
1.94664e-08
3.02443e-06
1.92376e-08
3.02681e-06
1.89427e-08
3.02913e-06
1.86142e-08
3.03141e-06
1.82764e-08
3.03365e-06
1.7945e-08
3.03584e-06
1.76304e-08
3.03799e-06
1.73402e-08
3.04011e-06
1.70792e-08
3.04219e-06
1.685e-08
3.04424e-06
1.66541e-08
3.04627e-06
1.64923e-08
3.04827e-06
1.6365e-08
3.05025e-06
1.62735e-08
3.05221e-06
1.62194e-08
3.05415e-06
1.62059e-08
3.05606e-06
1.62375e-08
3.05796e-06
1.6321e-08
3.05984e-06
1.64659e-08
3.06169e-06
1.66851e-08
3.06352e-06
1.69956e-08
3.06533e-06
1.74199e-08
3.0671e-06
1.79869e-08
3.06883e-06
1.87341e-08
3.07051e-06
1.97094e-08
3.07215e-06
2.09744e-08
3.07371e-06
2.26076e-08
3.0752e-06
2.47091e-08
3.07658e-06
2.74064e-08
3.07784e-06
3.08622e-08
3.07895e-06
3.5283e-08
3.07988e-06
4.09319e-08
3.08056e-06
4.81432e-08
3.08096e-06
5.73418e-08
3.081e-06
6.90672e-08
3.08058e-06
8.40042e-08
3.07961e-06
1.0302e-07
3.07795e-06
1.27212e-07
3.07543e-06
1.57965e-07
3.07186e-06
1.97017e-07
3.06702e-06
2.46542e-07
3.06063e-06
3.0923e-07
3.05243e-06
3.88381e-07
3.04213e-06
4.87934e-07
3.02953e-06
6.12572e-07
3.01453e-06
7.67318e-07
2.99749e-06
9.58118e-07
2.97888e-06
1.18856e-06
2.9613e-06
1.46656e-06
1.77959e-06
2.94529e-06
3.00038e-06
2.31646e-09
3.00147e-06
6.67828e-09
3.00308e-06
1.02134e-08
3.005e-06
1.26972e-08
3.00714e-06
1.43808e-08
3.00944e-06
1.55869e-08
3.01184e-06
1.64261e-08
3.0143e-06
1.69122e-08
3.01678e-06
1.71131e-08
3.01925e-06
1.71274e-08
3.02169e-06
1.70203e-08
3.02411e-06
1.68258e-08
3.02648e-06
1.65726e-08
3.0288e-06
1.62889e-08
3.03108e-06
1.59966e-08
3.03332e-06
1.57096e-08
3.03551e-06
1.54373e-08
3.03766e-06
1.51865e-08
3.03978e-06
1.49617e-08
3.04186e-06
1.47655e-08
3.04392e-06
1.45994e-08
3.04595e-06
1.44645e-08
3.04795e-06
1.43618e-08
3.04993e-06
1.42927e-08
3.05189e-06
1.42596e-08
3.05383e-06
1.4266e-08
3.05575e-06
1.4317e-08
3.05765e-06
1.44199e-08
3.05953e-06
1.4585e-08
3.06139e-06
1.48255e-08
3.06323e-06
1.51594e-08
3.06504e-06
1.561e-08
3.06682e-06
1.62071e-08
3.06856e-06
1.69895e-08
3.07027e-06
1.80065e-08
3.07192e-06
1.93215e-08
3.07351e-06
2.10151e-08
3.07503e-06
2.31902e-08
3.07646e-06
2.59777e-08
3.07778e-06
2.95442e-08
3.07896e-06
3.41017e-08
3.07997e-06
3.99195e-08
3.08077e-06
4.734e-08
3.08132e-06
5.67981e-08
3.08154e-06
6.88454e-08
3.08136e-06
8.41816e-08
3.08069e-06
1.03692e-07
3.07941e-06
1.28496e-07
3.07737e-06
1.60002e-07
3.07441e-06
1.99978e-07
3.07033e-06
2.50625e-07
3.06489e-06
3.14661e-07
3.05787e-06
3.95402e-07
3.04902e-06
4.96785e-07
3.03816e-06
6.23432e-07
3.02522e-06
7.80265e-07
3.01048e-06
9.72852e-07
2.99442e-06
1.20462e-06
2.9792e-06
1.48178e-06
1.79325e-06
2.96554e-06
3.00036e-06
1.95283e-09
3.0014e-06
5.64113e-09
3.00295e-06
8.66103e-09
3.00484e-06
1.08104e-08
3.00695e-06
1.22724e-08
3.00922e-06
1.3314e-08
3.01161e-06
1.40406e-08
3.01405e-06
1.44678e-08
3.01652e-06
1.46491e-08
3.01898e-06
1.46672e-08
3.02142e-06
1.458e-08
3.02382e-06
1.44178e-08
3.02619e-06
1.42046e-08
3.02852e-06
1.39647e-08
3.0308e-06
1.3717e-08
3.03303e-06
1.34738e-08
3.03523e-06
1.32434e-08
3.03738e-06
1.30318e-08
3.0395e-06
1.28429e-08
3.04158e-06
1.26795e-08
3.04364e-06
1.25432e-08
3.04567e-06
1.24352e-08
3.04768e-06
1.23569e-08
3.04966e-06
1.23102e-08
3.05162e-06
1.22979e-08
3.05356e-06
1.23239e-08
3.05548e-06
1.23938e-08
3.05739e-06
1.25157e-08
3.05927e-06
1.27e-08
3.06114e-06
1.29609e-08
3.06298e-06
1.33169e-08
3.0648e-06
1.37919e-08
3.06659e-06
1.44169e-08
3.06835e-06
1.52316e-08
3.07007e-06
1.62867e-08
3.07174e-06
1.76469e-08
3.07336e-06
1.9395e-08
3.07492e-06
2.16361e-08
3.07639e-06
2.45041e-08
3.07776e-06
2.81691e-08
3.07902e-06
3.28475e-08
3.08012e-06
3.88144e-08
3.08105e-06
4.64189e-08
3.08174e-06
5.61043e-08
3.08215e-06
6.84328e-08
3.08222e-06
8.41169e-08
3.08185e-06
1.04057e-07
3.08096e-06
1.29391e-07
3.07941e-06
1.61549e-07
3.07707e-06
2.0232e-07
3.07376e-06
2.53931e-07
3.0693e-06
3.19124e-07
3.06347e-06
4.01228e-07
3.05608e-06
5.0418e-07
3.04696e-06
6.32548e-07
3.03605e-06
7.91176e-07
3.02359e-06
9.85316e-07
3.00998e-06
1.21823e-06
2.99699e-06
1.49477e-06
1.80486e-06
2.98538e-06
3.00035e-06
1.60517e-09
3.00134e-06
4.64414e-09
3.00285e-06
7.15276e-09
3.00471e-06
8.95723e-09
3.00679e-06
1.0189e-08
3.00904e-06
1.10628e-08
3.01141e-06
1.16734e-08
3.01384e-06
1.20368e-08
3.01629e-06
1.21945e-08
3.01875e-06
1.22139e-08
3.02118e-06
1.21448e-08
3.02359e-06
1.2013e-08
3.02595e-06
1.18385e-08
3.02828e-06
1.16413e-08
3.03056e-06
1.14375e-08
3.03279e-06
1.12377e-08
3.03499e-06
1.10488e-08
3.03714e-06
1.0876e-08
3.03926e-06
1.07231e-08
3.04135e-06
1.05924e-08
3.04341e-06
1.04857e-08
3.04544e-06
1.04045e-08
3.04744e-06
1.03505e-08
3.04943e-06
1.03261e-08
3.05139e-06
1.03342e-08
3.05334e-06
1.03795e-08
3.05526e-06
1.0468e-08
3.05717e-06
1.06081e-08
3.05906e-06
1.08108e-08
3.06093e-06
1.1091e-08
3.06278e-06
1.14676e-08
3.0646e-06
1.19654e-08
3.06641e-06
1.2616e-08
3.06818e-06
1.346e-08
3.06991e-06
1.45493e-08
3.07161e-06
1.59501e-08
3.07326e-06
1.77466e-08
3.07485e-06
2.00459e-08
3.07637e-06
2.29844e-08
3.0778e-06
2.67353e-08
3.07913e-06
3.15188e-08
3.08033e-06
3.76144e-08
3.08137e-06
4.53771e-08
3.08222e-06
5.52572e-08
3.08283e-06
6.78257e-08
3.08314e-06
8.38053e-08
3.08309e-06
1.0411e-07
3.08259e-06
1.29891e-07
3.08154e-06
1.62595e-07
3.07983e-06
2.04033e-07
3.07731e-06
2.56451e-07
3.07382e-06
3.22608e-07
3.0692e-06
4.05848e-07
3.06328e-06
5.10108e-07
3.0559e-06
6.39921e-07
3.04702e-06
8.00063e-07
3.03679e-06
9.95544e-07
3.02554e-06
1.22948e-06
3.01468e-06
1.50563e-06
1.81465e-06
3.00489e-06
3.00034e-06
1.27008e-09
3.0013e-06
3.67912e-09
3.00277e-06
5.68046e-09
3.0046e-06
7.13228e-09
3.00666e-06
8.12654e-09
3.00889e-06
8.82965e-09
3.01124e-06
9.32152e-09
3.01366e-06
9.61714e-09
3.01611e-06
9.74776e-09
3.01856e-06
9.76646e-09
3.02099e-06
9.71377e-09
3.02339e-06
9.61101e-09
3.02576e-06
9.47395e-09
3.02808e-06
9.31863e-09
3.03036e-06
9.15816e-09
3.03259e-06
9.00119e-09
3.03479e-06
8.8535e-09
3.03695e-06
8.71941e-09
3.03907e-06
8.60217e-09
3.04116e-06
8.50407e-09
3.04321e-06
8.42693e-09
3.04525e-06
8.37245e-09
3.04725e-06
8.34268e-09
3.04924e-06
8.34022e-09
3.05121e-06