/*--------------------------------*- C++ -*----------------------------------*\
| =========                 |                                                 |
| \\      /  F ield         | OpenFOAM: The Open Source CFD Toolbox           |
|  \\    /   O peration     | Version:  2.4.0                                 |
|   \\  /    A nd           | Web:      www.OpenFOAM.org                      |
|    \\/     M anipulation  |                                                 |
\*---------------------------------------------------------------------------*/
FoamFile
{
    version     2.0;
    format      ascii;
    class       surfaceScalarField;
    location    "5.2";
    object      phi;
}
// * * * * * * * * * * * * * * * * * * * * * * * * * * * * * * * * * * * * * //

dimensions      [0 3 -1 0 0 0 0];

internalField   nonuniform List<scalar> 
11100
(
1.66565e-06
1.16677e-05
1.73096e-07
1.49255e-06
-3.47905e-08
2.07887e-07
-9.75843e-08
6.27938e-08
-1.28991e-07
3.14069e-08
-1.36902e-07
7.91104e-09
-1.44823e-07
7.921e-09
-1.45466e-07
6.42378e-10
-1.47667e-07
2.20144e-09
-1.47276e-07
-3.91516e-10
-1.48025e-07
7.49254e-10
-1.47844e-07
-1.8092e-10
-1.48359e-07
5.14838e-10
-1.48627e-07
2.67974e-10
-1.49426e-07
7.98937e-10
-1.50378e-07
9.52132e-10
-1.51819e-07
1.44155e-09
-1.53466e-07
1.64642e-09
-1.55234e-07
1.76851e-09
-1.56709e-07
1.4741e-09
-1.57554e-07
8.45749e-10
-1.57311e-07
-2.43263e-10
-1.5577e-07
-1.54075e-09
-1.52913e-07
-2.85754e-09
-1.48919e-07
-3.99406e-09
-1.44322e-07
-4.59659e-09
-1.39906e-07
-4.41664e-09
-1.36594e-07
-3.31167e-09
-1.34974e-07
-1.6197e-09
-1.34941e-07
-3.36273e-11
-1.34885e-07
-5.55311e-11
-1.31662e-07
-3.22358e-09
-1.20292e-07
-1.13697e-08
-9.61952e-08
-2.40965e-08
-5.62906e-08
-3.99048e-08
-2.51856e-09
-5.3772e-08
5.932e-08
-6.18385e-08
1.21889e-07
-6.25692e-08
1.79735e-07
-5.78462e-08
2.24575e-07
-4.484e-08
2.47126e-07
-2.25504e-08
2.21204e-07
2.59221e-08
1.10863e-07
1.1034e-07
-1.14945e-07
2.25808e-07
-4.43187e-07
3.28242e-07
-8.3137e-07
3.88183e-07
-1.19948e-06
3.6811e-07
-1.51097e-06
3.11492e-07
-1.7091e-06
1.98129e-07
-1.8423e-06
1.33201e-07
-1.86513e-06
2.28236e-08
-1.86191e-06
-3.21313e-09
-1.7641e-06
-9.78168e-08
-1.65359e-06
-1.10502e-07
-1.45393e-06
-1.99663e-07
-1.2443e-06
-2.09629e-07
-9.41559e-07
-3.02742e-07
-6.53121e-07
-2.88438e-07
-3.01962e-07
-3.51159e-07
1.28928e-08
-3.14855e-07
3.33247e-07
-3.20354e-07
5.96821e-07
-2.63574e-07
8.42099e-07
-2.45278e-07
1.01953e-06
-1.77434e-07
1.17676e-06
-1.57225e-07
1.27085e-06
-9.40916e-08
1.35731e-06
-8.64659e-08
1.39129e-06
-3.39737e-08
1.43407e-06
-4.27829e-08
1.43544e-06
-1.3722e-09
1.46031e-06
-2.48637e-08
1.45114e-06
9.16592e-09
1.481e-06
-2.98575e-08
1.48397e-06
-2.96805e-09
-1.41316e-07
3.9275e-06
2.10735e-05
8.84833e-07
4.53522e-06
1.13596e-07
9.79124e-07
-1.68477e-07
3.44866e-07
-2.84068e-07
1.46998e-07
-3.39823e-07
6.3666e-08
-3.71345e-07
3.94429e-08
-3.86738e-07
1.60357e-08
-3.97408e-07
1.28706e-08
-4.02779e-07
4.97967e-09
-4.07487e-07
5.45769e-09
-4.10432e-07
2.76396e-09
-4.13597e-07
3.67978e-09
-4.16391e-07
3.06213e-09
-4.19879e-07
4.28662e-09
-4.23861e-07
4.93412e-09
-4.28756e-07
6.33667e-09
-4.34115e-07
7.00499e-09
-4.39469e-07
7.12274e-09
-4.43829e-07
5.83398e-09
-4.46206e-07
3.22235e-09
-4.45537e-07
-9.11895e-10
-4.41496e-07
-5.5819e-09
-4.34084e-07
-1.02688e-08
-4.24093e-07
-1.39856e-08
-4.13082e-07
-1.56078e-08
-4.03105e-07
-1.43933e-08
-3.96218e-07
-1.01993e-08
-3.93287e-07
-4.55004e-09
-3.92879e-07
-4.41687e-10
-3.89706e-07
-3.22833e-09
-3.74525e-07
-1.84049e-08
-3.34907e-07
-5.09881e-08
-2.60299e-07
-9.87038e-08
-1.46043e-07
-1.54161e-07
5.05717e-10
-2.00321e-07
1.63044e-07
-2.24377e-07
3.19975e-07
-2.195e-07
4.52193e-07
-1.90064e-07
5.32874e-07
-1.25522e-07
5.24208e-07
-1.38837e-08
3.50985e-07
1.99145e-07
-7.20959e-08
5.33421e-07
-7.82577e-07
9.36289e-07
-1.70767e-06
1.25333e-06
-2.69619e-06
1.37671e-06
-3.5612e-06
1.23312e-06
-4.22423e-06
9.74528e-07
-4.60903e-06
5.82926e-07
-4.8111e-06
3.35269e-07
-4.78464e-06
-3.63598e-09
-4.66317e-06
-1.24682e-07
-4.36224e-06
-3.9875e-07
-3.99048e-06
-4.82259e-07
-3.46312e-06
-7.27022e-07
-2.86344e-06
-8.09316e-07
-2.12004e-06
-1.04614e-06
-1.36109e-06
-1.04738e-06
-5.17419e-07
-1.19483e-06
2.69874e-07
-1.10215e-06
1.05084e-06
-1.10132e-06
1.71882e-06
-9.31549e-07
2.32219e-06
-8.48655e-07
2.79061e-06
-6.45852e-07
3.18517e-06
-5.51785e-07
3.45563e-06
-3.6455e-07
3.67224e-06
-3.03078e-07
3.79494e-06
-1.56675e-07
3.89379e-06
-1.41627e-07
3.93252e-06
-4.00999e-08
3.97449e-06
-6.68396e-08
3.98711e-06
-3.44924e-09
4.02563e-06
-6.83796e-08
4.07712e-06
-5.44618e-08
-3.74495e-07
5.67677e-06
2.87301e-05
1.8246e-06
8.38739e-06
4.62822e-07
2.3409e-06
-9.87622e-08
9.0645e-07
-3.32971e-07
3.81207e-07
-4.61244e-07
1.91939e-07
-5.29719e-07
1.07918e-07
-5.71093e-07
5.74102e-08
-5.96739e-07
3.85166e-08
-6.1372e-07
2.19599e-08
-6.26115e-07
1.78531e-08
-6.35519e-07
1.21679e-08
-6.43667e-07
1.18281e-08
-6.51081e-07
1.04756e-08
-6.5876e-07
1.19654e-08
-6.6704e-07
1.32142e-08
-6.76258e-07
1.55551e-08
-6.85962e-07
1.67083e-08
-6.95294e-07
1.64548e-08
-7.02852e-07
1.33927e-08
-7.0715e-07
7.52e-09
-7.0681e-07
-1.25189e-09
-7.01375e-07
-1.10167e-08
-6.91217e-07
-2.04269e-08
-6.77712e-07
-2.74906e-08
-6.63325e-07
-2.99949e-08
-6.5104e-07
-2.6678e-08
-6.4348e-07
-1.77593e-08
-6.4116e-07
-6.86999e-09
-6.40843e-07
-7.58941e-10
-6.33624e-07
-1.04476e-08
-6.05194e-07
-4.68351e-08
-5.37809e-07
-1.18373e-07
-4.17423e-07
-2.19089e-07
-2.39905e-07
-3.31679e-07
-1.80806e-08
-4.22146e-07
2.21643e-07
-4.64101e-07
4.44419e-07
-4.42276e-07
6.15466e-07
-3.61111e-07
6.86725e-07
-1.9678e-07
5.87701e-07
8.51398e-08
2.02496e-07
5.8435e-07
-5.76679e-07
1.3126e-06
-1.75669e-06
2.1163e-06
-3.16885e-06
2.66549e-06
-4.5602e-06
2.76805e-06
-5.68533e-06
2.35825e-06
-6.46907e-06
1.75827e-06
-6.8625e-06
9.76361e-07
-6.99712e-06
4.69881e-07
-6.84357e-06
-1.57185e-07
-6.55133e-06
-4.16917e-07
-6.04637e-06
-9.03713e-07
-5.42655e-06
-1.10208e-06
-4.63674e-06
-1.51683e-06
-3.72369e-06
-1.72236e-06
-2.67472e-06
-2.09511e-06
-1.57738e-06
-2.14473e-06
-4.09875e-07
-2.36233e-06
7.00439e-07
-2.21246e-06
1.78447e-06
-2.18536e-06
2.73156e-06
-1.87864e-06
3.58223e-06
-1.69932e-06
4.2671e-06
-1.33073e-06
4.83598e-06
-1.12067e-06
5.25331e-06
-7.81882e-07
5.57229e-06
-6.22051e-07
5.78045e-06
-3.64836e-07
5.92284e-06
-2.84016e-07
6.0067e-06
-1.23964e-07
6.055e-06
-1.15143e-07
6.09675e-06
-4.5197e-08
6.12655e-06
-9.81773e-08
6.21487e-06
-1.42786e-07
-6.26064e-07
7.13185e-06
3.49316e-05
2.9074e-06
1.26118e-05
9.96804e-07
4.2515e-06
1.19278e-07
1.78398e-06
-2.76153e-07
7.76638e-07
-4.98458e-07
4.14243e-07
-6.20232e-07
2.29693e-07
-6.97536e-07
1.34714e-07
-7.45976e-07
8.69569e-08
-7.79878e-07
5.58615e-08
-8.0419e-07
4.21656e-08
-8.23197e-07
3.11743e-08
-8.38858e-07
2.74896e-08
-8.52831e-07
2.44486e-08
-8.66289e-07
2.54231e-08
-8.80056e-07
2.69815e-08
-8.94496e-07
2.99951e-08
-9.09185e-07
3.13972e-08
-9.22997e-07
3.02665e-08
-9.34243e-07
2.4639e-08
-9.41121e-07
1.43976e-08
-9.42129e-07
-2.43708e-10
-9.36828e-07
-1.6318e-08
-9.25973e-07
-3.12816e-08
-9.11558e-07
-4.19055e-08
-8.96773e-07
-4.47805e-08
-8.85216e-07
-3.82349e-08
-8.79691e-07
-2.32846e-08
-8.8005e-07
-6.51017e-09
-8.81239e-07
4.29553e-10
-8.71288e-07
-2.03989e-08
-8.32061e-07
-8.60616e-08
-7.42207e-07
-2.08227e-07
-5.85684e-07
-3.75613e-07
-3.59344e-07
-5.58019e-07
-8.13072e-08
-7.00183e-07
2.14394e-07
-7.59802e-07
4.78574e-07
-7.06455e-07
6.5984e-07
-5.42377e-07
6.86397e-07
-2.23336e-07
4.5625e-07
3.15286e-07
-1.76273e-07
1.21687e-06
-1.31351e-06
2.44983e-06
-2.896e-06
3.69879e-06
-4.6467e-06
4.41619e-06
-6.23583e-06
4.35718e-06
-7.40949e-06
3.53191e-06
-8.13756e-06
2.48633e-06
-8.41499e-06
1.2538e-06
-8.40187e-06
4.56759e-07
-8.08515e-06
-4.73909e-07
-7.61086e-06
-8.91202e-07
-6.92139e-06
-1.59318e-06
-6.09579e-06
-1.92768e-06
-5.10914e-06
-2.50348e-06
-3.97283e-06
-2.85868e-06
-2.72592e-06
-3.34202e-06
-1.41221e-06
-3.45844e-06
-5.54426e-08
-3.71909e-06
1.25769e-06
-3.52559e-06
2.52582e-06
-3.45349e-06
3.64737e-06
-3.00019e-06
4.65786e-06
-2.7098e-06
5.49046e-06
-2.16333e-06
6.18352e-06
-1.81373e-06
6.713e-06
-1.31136e-06
7.11329e-06
-1.02234e-06
7.39515e-06
-6.46694e-07
7.57792e-06
-4.66786e-07
7.70335e-06
-2.49399e-07
7.76049e-06
-1.72283e-07
7.82548e-06
-1.1019e-07
7.85034e-06
-1.23037e-07
7.94896e-06
-2.41399e-07
-8.78483e-07
8.3736e-06
3.98913e-05
4.05766e-06
1.69278e-05
1.69031e-06
6.61885e-06
4.83143e-07
2.99114e-06
-1.10734e-07
1.37052e-06
-4.49256e-07
7.52765e-07
-6.40993e-07
4.2143e-07
-7.6488e-07
2.586e-07
-8.44208e-07
1.66286e-07
-9.00667e-07
1.1232e-07
-9.4131e-07
8.28089e-08
-9.73173e-07
6.30375e-08
-9.98969e-07
5.3285e-08
-1.02152e-06
4.69969e-08
-1.04235e-06
4.62544e-08
-1.06281e-06
4.74481e-08
-1.0834e-06
5.05788e-08
-1.10378e-06
5.17754e-08
-1.12268e-06
4.91741e-08
-1.13829e-06
4.02399e-08
-1.14862e-06
2.47308e-08
-1.15226e-06
3.39378e-09
-1.14879e-06
-1.97841e-08
-1.13943e-06
-4.06378e-08
-1.12671e-06
-5.46258e-08
-1.11437e-06
-5.71212e-08
-1.10639e-06
-4.62226e-08
-1.10555e-06
-2.41158e-08
-1.11095e-06
-1.11303e-09
-1.11618e-06
5.65768e-09
-1.10682e-06
-2.97619e-08
-1.06221e-06
-1.30665e-07
-9.58574e-07
-3.11867e-07
-7.78469e-07
-5.55717e-07
-5.19237e-07
-8.17251e-07
-2.02782e-07
-1.01664e-06
1.29611e-07
-1.0922e-06
4.15458e-07
-9.92302e-07
5.85398e-07
-7.12317e-07
5.43122e-07
-1.81061e-07
1.59478e-07
6.98931e-07
-7.27883e-07
2.10423e-06
-2.18594e-06
3.90788e-06
-4.06587e-06
5.57873e-06
-5.98607e-06
6.33639e-06
-7.58106e-06
5.95217e-06
-8.63718e-06
4.58803e-06
-9.19305e-06
3.0422e-06
-9.28689e-06
1.34764e-06
-9.09442e-06
2.64289e-07
-8.6126e-06
-9.55726e-07
-7.97311e-06
-1.53069e-06
-7.13607e-06
-2.43022e-06
-6.15627e-06
-2.90748e-06
-5.0363e-06
-3.62345e-06
-3.75817e-06
-4.13681e-06
-2.39745e-06
-4.70274e-06
-9.62115e-07
-4.89378e-06
5.02738e-07
-5.18395e-06
1.91096e-06
-4.93381e-06
3.27345e-06
-4.81598e-06
4.48976e-06
-4.2165e-06
5.58952e-06
-3.80956e-06
6.51232e-06
-3.08614e-06
7.28463e-06
-2.58603e-06
7.89307e-06
-1.9198e-06
8.35365e-06
-1.48292e-06
8.69518e-06
-9.88226e-07
8.91292e-06
-6.8453e-07
9.07561e-06
-4.12085e-07
9.1444e-06
-2.41071e-07
9.22638e-06
-1.92175e-07
9.25164e-06
-1.483e-07
9.34477e-06
-3.34522e-07
-1.11652e-06
9.43853e-06
4.37861e-05
5.22546e-06
2.11408e-05
2.51486e-06
9.32945e-06
9.81348e-07
4.52465e-06
1.65075e-07
2.18679e-06
-3.10912e-07
1.22875e-06
-5.89538e-07
7.00056e-07
-7.71348e-07
4.4041e-07
-8.90136e-07
2.85074e-07
-9.75186e-07
1.97369e-07
-1.03683e-06
1.44449e-07
-1.08502e-06
1.11231e-07
-1.12369e-06
9.19575e-08
-1.15692e-06
8.02303e-08
-1.18679e-06
7.61182e-08
-1.21521e-06
7.58706e-08
-1.24291e-06
7.82734e-08
-1.26975e-06
7.86149e-08
-1.29447e-06
7.38985e-08
-1.31524e-06
6.1011e-08
-1.33008e-06
3.95747e-08
-1.33776e-06
1.10651e-08
-1.33793e-06
-1.96115e-08
-1.33225e-06
-4.63161e-08
-1.32369e-06
-6.31896e-08
-1.31639e-06
-6.44139e-08
-1.31459e-06
-4.80259e-08
-1.32097e-06
-1.77394e-08
-1.33425e-06
1.21703e-08
-1.34682e-06
1.8226e-08
-1.343e-06
-3.35822e-08
-1.30049e-06
-1.73174e-07
-1.19376e-06
-4.18594e-07
-1.00393e-06
-7.45546e-07
-7.27761e-07
-1.09342e-06
-3.89295e-07
-1.3551e-06
-3.59462e-08
-1.44554e-06
2.56116e-07
-1.28436e-06
4.00067e-07
-8.56267e-07
2.7572e-07
-5.67146e-08
-2.68291e-07
1.24294e-06
-1.38952e-06
3.22547e-06
-3.10014e-06
5.61849e-06
-5.14923e-06
7.62782e-06
-7.07195e-06
8.25911e-06
-8.51646e-06
7.39668e-06
-9.3463e-06
5.41787e-06
-9.67178e-06
3.36768e-06
-9.56312e-06
1.23897e-06
-9.19289e-06
-1.0594e-07
-8.56847e-06
-1.58015e-06
-7.79533e-06
-2.30382e-06
-6.85344e-06
-3.37211e-06
-5.77007e-06
-3.99086e-06
-4.56962e-06
-4.8239e-06
-3.21529e-06
-5.49113e-06
-1.79986e-06
-6.11817e-06
-3.07807e-07
-6.38583e-06
1.19091e-06
-6.68267e-06
2.63758e-06
-6.38048e-06
4.03122e-06
-6.20962e-06
5.28529e-06
-5.47057e-06
6.42051e-06
-4.94478e-06
7.38759e-06
-4.05322e-06
8.20056e-06
-3.399e-06
8.8572e-06
-2.57643e-06
9.35655e-06
-1.98227e-06
9.74133e-06
-1.37301e-06
9.98694e-06
-9.30139e-07
1.01794e-05
-6.04558e-07
1.02613e-05
-3.22994e-07
1.03546e-05
-2.8544e-07
1.03842e-05
-1.77854e-07
1.04642e-05
-4.14566e-07
-1.32918e-06
1.03515e-05
4.6768e-05
6.3769e-06
2.51154e-05
3.44072e-06
1.22656e-05
1.60693e-06
6.35845e-06
5.53174e-07
3.24054e-06
-8.07652e-08
1.86269e-06
-4.6266e-07
1.08195e-06
-7.14466e-07
6.92216e-07
-8.81859e-07
4.52467e-07
-1.00204e-06
3.17548e-07
-1.08969e-06
2.32104e-07
-1.15796e-06
1.79498e-07
-1.21244e-06
1.4644e-07
-1.25861e-06
1.26394e-07
-1.29925e-06
1.16766e-07
-1.33696e-06
1.13578e-07
-1.3728e-06
1.14112e-07
-1.40695e-06
1.12766e-07
-1.43831e-06
1.05259e-07
-1.46518e-06
8.78792e-08
-1.48572e-06
6.01187e-08
-1.49884e-06
2.41814e-08
-1.50446e-06
-1.3991e-08
-1.50451e-06
-4.62628e-08
-1.50232e-06
-6.53863e-08
-1.50235e-06
-6.43774e-08
-1.50906e-06
-4.13185e-08
-1.52512e-06
-1.67603e-09
-1.54913e-06
3.61765e-08
-1.57306e-06
4.21521e-08
-1.58063e-06
-2.60039e-08
-1.5487e-06
-2.05106e-07
-1.45027e-06
-5.17022e-07
-1.26453e-06
-9.31294e-07
-9.86338e-07
-1.37161e-06
-6.40352e-07
-1.70109e-06
-2.79707e-07
-1.80619e-06
8.73113e-09
-1.5728e-06
1.18341e-07
-9.65877e-07
-9.08679e-08
1.52494e-07
-7.84764e-07
1.93684e-06
-2.09812e-06
4.53882e-06
-3.97195e-06
7.49233e-06
-6.05602e-06
9.71189e-06
-7.83667e-06
1.00398e-05
-9.02343e-06
8.58344e-06
-9.57513e-06
5.96957e-06
-9.65926e-06
3.45182e-06
-9.36187e-06
9.41582e-07
-8.83646e-06
-6.31352e-07
-8.10279e-06
-2.31382e-06
-7.23204e-06
-3.17457e-06
-6.22452e-06
-4.37963e-06
-5.081e-06
-5.13439e-06
-3.83902e-06
-6.06587e-06
-2.45605e-06
-6.8741e-06
-1.0243e-06
-7.54992e-06
4.75805e-07
-7.88594e-06
1.97303e-06
-8.17989e-06
3.4189e-06
-7.82634e-06
4.80241e-06
-7.59314e-06
6.05602e-06
-6.72418e-06
7.18808e-06
-6.07684e-06
8.16452e-06
-5.02965e-06
8.98656e-06
-4.22104e-06
9.66404e-06
-3.25392e-06
1.01814e-05
-2.49958e-06
1.05919e-05
-1.78352e-06
1.0856e-05
-1.19424e-06
1.10687e-05
-8.17342e-07
1.1163e-05
-4.17291e-07
1.12621e-05
-3.84524e-07
1.12976e-05
-2.13305e-07
1.13619e-05
-4.78883e-07
-1.50995e-06
1.1131e-05
4.89704e-05
7.4876e-06
2.87588e-05
4.43868e-06
1.53146e-05
2.34799e-06
8.44913e-06
1.05371e-06
4.53483e-06
2.46748e-07
2.66965e-06
-2.56422e-07
1.58512e-06
-5.90954e-07
1.02675e-06
-8.16734e-07
6.78248e-07
-9.79188e-07
4.80002e-07
-1.09833e-06
3.51243e-07
-1.19077e-06
2.71938e-07
-1.26425e-06
2.19923e-07
-1.32578e-06
1.8793e-07
-1.37911e-06
1.7009e-07
-1.42754e-06
1.6201e-07
-1.47265e-06
1.59222e-07
-1.51505e-06
1.55168e-07
-1.55395e-06
1.44159e-07
-1.58793e-06
1.21852e-07
-1.61536e-06
8.75535e-08
-1.6354e-06
4.42164e-08
-1.6481e-06
-1.29175e-09
-1.65572e-06
-3.8637e-08
-1.66176e-06
-5.93496e-08
-1.67103e-06
-5.51091e-08
-1.68811e-06
-2.42318e-08
-1.71621e-06
2.642e-08
-1.75371e-06
7.36796e-08
-1.7931e-06
8.15353e-08
-1.8181e-06
-9.98245e-10
-1.80521e-06
-2.17997e-07
-1.726e-06
-5.96236e-07
-1.55706e-06
-1.10023e-06
-1.2901e-06
-1.63857e-06
-9.48868e-07
-2.04232e-06
-5.90692e-07
-2.16437e-06
-3.13889e-07
-1.84961e-06
-2.40756e-07
-1.03901e-06
-5.29875e-07
4.41612e-07
-1.3466e-06
2.75356e-06
-2.7944e-06
5.98662e-06
-4.73267e-06
9.4306e-06
-6.72733e-06
1.17065e-05
-8.25727e-06
1.15697e-05
-9.1306e-06
9.45676e-06
-9.39893e-06
6.23791e-06
-9.26208e-06
3.31496e-06
-8.80674e-06
4.86242e-07
-8.15987e-06
-1.27823e-06
-7.35026e-06
-3.12343e-06
-6.41552e-06
-4.10931e-06
-5.37305e-06
-5.42209e-06
-4.20285e-06
-6.30459e-06
-2.94529e-06
-7.32343e-06
-1.56428e-06
-8.25511e-06
-1.45592e-07
-8.96861e-06
1.34455e-06
-9.37609e-06
2.81636e-06
-9.6517e-06
4.23837e-06
-9.24836e-06
5.58713e-06
-8.9419e-06
6.81621e-06
-7.95326e-06
7.91937e-06
-7.18001e-06
8.88004e-06
-5.99032e-06
9.68696e-06
-5.02796e-06
1.03624e-05
-3.92936e-06
1.0879e-05
-3.01615e-06
1.12979e-05
-2.20249e-06
1.157e-05
-1.46625e-06
1.17923e-05
-1.03971e-06
1.18959e-05
-5.20833e-07
1.1995e-05
-4.83691e-07
1.20356e-05
-2.53873e-07
1.20841e-05
-5.27356e-07
-1.65561e-06
1.17913e-05
5.05124e-05
8.53961e-06
3.20105e-05
5.48106e-06
1.83731e-05
3.18952e-06
1.07407e-05
1.66422e-06
6.06013e-06
6.72714e-07
3.66116e-06
3.35935e-08
2.22424e-06
-3.96774e-07
1.45711e-06
-6.91337e-07
9.7281e-07
-9.03881e-07
6.92546e-07
-1.06052e-06
5.07877e-07
-1.18167e-06
3.93091e-07
-1.27768e-06
3.1593e-07
-1.35728e-06
2.67537e-07
-1.42538e-06
2.38183e-07
-1.48613e-06
2.22764e-07
-1.54176e-06
2.14851e-07
-1.59345e-06
2.06856e-07
-1.64087e-06
1.91578e-07
-1.68299e-06
1.63973e-07
-1.7185e-06
1.23069e-07
-1.7467e-06
7.24172e-08
-1.76816e-06
2.01662e-08
-1.78476e-06
-2.2044e-08
-1.80052e-06
-4.35895e-08
-1.82044e-06
-3.51896e-08
-1.84947e-06
4.80697e-09
-1.89123e-06
6.81763e-08
-1.94478e-06
1.27229e-07
-2.00331e-06
1.40065e-07
-2.0512e-06
4.68967e-08
-2.06488e-06
-2.04319e-07
-2.01442e-06
-6.46694e-07
-1.87326e-06
-1.2414e-06
-1.62879e-06
-1.88304e-06
-1.30247e-06
-2.36864e-06
-9.54419e-07
-2.51241e-06
-6.92793e-07
-2.11123e-06
-6.53704e-07
-1.0781e-06
-1.00734e-06
7.95244e-07
-1.91165e-06
3.65788e-06
-3.42683e-06
7.50181e-06
-5.3322e-06
1.1336e-05
-7.13436e-06
1.35087e-05
-8.34633e-06
1.27817e-05
-8.89559e-06
1.0006e-05
-8.90701e-06
6.24932e-06
-8.58593e-06
2.99389e-06
-8.00963e-06
-9.00626e-08
-7.27426e-06
-2.0136e-06
-6.4178e-06
-3.97989e-06
-5.44686e-06
-5.08025e-06
-4.39044e-06
-6.47852e-06
-3.21677e-06
-7.47825e-06
-1.95973e-06
-8.58047e-06
-5.96092e-07
-9.61875e-06
8.09658e-07
-1.03744e-05
2.26266e-06
-1.08291e-05
3.69635e-06
-1.10854e-05
5.08172e-06
-1.06337e-05
6.3825e-06
-1.02427e-05
7.57262e-06
-9.14338e-06
8.6312e-06
-8.23858e-06
9.5591e-06
-6.91823e-06
1.03338e-05
-5.80267e-06
1.09893e-05
-4.58485e-06
1.14896e-05
-3.51647e-06
1.19015e-05
-2.61432e-06
1.21706e-05
-1.73544e-06
1.23917e-05
-1.26077e-06
1.24992e-05
-6.28371e-07
1.25931e-05
-5.77559e-07
1.26356e-05
-2.96348e-07
1.26689e-05
-5.60656e-07
-1.76509e-06
1.23444e-05
5.15013e-05
9.51969e-06
3.48352e-05
6.54233e-06
2.13505e-05
4.11403e-06
1.3169e-05
2.37956e-06
7.7946e-06
1.19921e-06
4.84151e-06
4.11623e-07
3.01183e-06
-1.27359e-07
1.9961e-06
-5.01475e-07
1.34693e-06
-7.72604e-07
9.63675e-07
-9.7335e-07
7.08623e-07
-1.12828e-06
5.48019e-07
-1.25074e-06
4.38396e-07
-1.35145e-06
3.68244e-07
-1.43666e-06
3.2339e-07
-1.51153e-06
2.97638e-07
-1.57909e-06
2.82405e-07
-1.64121e-06
2.68981e-07
-1.69819e-06
2.48558e-07
-1.74951e-06
2.15296e-07
-1.79424e-06
1.67794e-07
-1.8319e-06
1.10075e-07
-1.86318e-06
5.14498e-08
-1.88997e-06
4.74617e-09
-1.91653e-06
-1.70297e-08
-1.94794e-06
-3.77543e-09
-1.98995e-06
4.68083e-08
-2.04647e-06
1.24698e-07
-2.11781e-06
1.98573e-07
-2.1983e-06
2.20553e-07
-2.27329e-06
1.21892e-07
-2.31945e-06
-1.58161e-07
-2.30531e-06
-6.60833e-07
-2.20078e-06
-1.34594e-06
-1.98807e-06
-2.09575e-06
-1.6849e-06
-2.67181e-06
-1.35256e-06
-2.84475e-06
-1.10705e-06
-2.35673e-06
-1.09489e-06
-1.09026e-06
-1.49205e-06
1.1924e-06
-2.44111e-06
4.60694e-06
-3.95423e-06
9.01493e-06
-5.73943e-06
1.31212e-05
-7.27367e-06
1.5043e-05
-8.14011e-06
1.36481e-05
-8.38773e-06
1.02536e-05
-8.18527e-06
6.04686e-06
-7.72091e-06
2.52953e-06
-7.05866e-06
-7.52313e-07
-6.26383e-06
-2.80843e-06
-5.38196e-06
-4.86175e-06
-4.3958e-06
-6.06641e-06
-3.33825e-06
-7.53606e-06
-2.17526e-06
-8.64125e-06
-9.28816e-07
-9.82691e-06
4.08394e-07
-1.0956e-05
1.79053e-06
-1.17565e-05
3.2057e-06
-1.22443e-05
4.59596e-06
-1.24756e-05
5.93757e-06
-1.19753e-05
7.18402e-06
-1.14891e-05
8.32674e-06
-1.02861e-05
9.33206e-06
-9.2439e-06
1.02164e-05
-7.80252e-06
1.09478e-05
-6.53416e-06
1.15704e-05
-5.2074e-06
1.20427e-05
-3.98877e-06
1.24344e-05
-3.00603e-06
1.26909e-05
-1.99194e-06
1.29006e-05
-1.47049e-06
1.30057e-05
-7.33441e-07
1.30891e-05
-6.61018e-07
1.31289e-05
-3.36088e-07
1.31473e-05
-5.79096e-07
-1.83851e-06
1.28007e-05
5.20339e-05
1.04184e-05
3.72175e-05
7.59933e-06
2.41695e-05
5.1022e-06
1.56661e-05
3.19151e-06
9.70529e-06
1.82651e-06
6.20651e-06
8.81923e-07
3.95641e-06
2.22629e-07
2.65539e-06
-2.42275e-07
1.81183e-06
-5.81082e-07
1.30248e-06
-8.33182e-07
9.60723e-07
-1.02753e-06
7.42362e-07
-1.18086e-06
5.91733e-07
-1.30609e-06
4.93473e-07
-1.41108e-06
4.2838e-07
-1.50213e-06
3.88688e-07
-1.58321e-06
3.63483e-07
-1.65705e-06
3.42822e-07
-1.7247e-06
3.16205e-07
-1.78627e-06
2.76865e-07
-1.84124e-06
2.22771e-07
-1.88941e-06
1.58239e-07
-1.93134e-06
9.33869e-08
-1.96935e-06
4.27501e-08
-2.00712e-06
2.07439e-08
-2.0506e-06
3.97069e-08
-2.10559e-06
1.01795e-07
-2.1773e-06
1.96405e-07
-2.26718e-06
2.88453e-07
-2.3711e-06
3.24479e-07
-2.47571e-06
2.26495e-07
-2.55815e-06
-7.57174e-08
-2.58559e-06
-6.33392e-07
-2.52435e-06
-1.40718e-06
-2.35082e-06
-2.26927e-06
-2.07752e-06
-2.94512e-06
-1.76477e-06
-3.1575e-06
-1.53398e-06
-2.58752e-06
-1.53824e-06
-1.086e-06
-1.95368e-06
1.60784e-06
-2.90171e-06
5.55497e-06
-4.34685e-06
1.04601e-05
-5.94047e-06
1.47148e-05
-7.1607e-06
1.62632e-05
-7.68696e-06
1.41744e-05
-7.67483e-06
1.02415e-05
-7.30587e-06
5.6779e-06
-6.73503e-06
1.9587e-06
-6.01772e-06
-1.46962e-06
-5.18607e-06
-3.64009e-06
-4.29294e-06
-5.75488e-06
-3.30598e-06
-7.05337e-06
-2.25446e-06
-8.58758e-06
-1.10904e-06
-9.78667e-06
1.17557e-07
-1.10535e-05
1.4274e-06
-1.22658e-05
2.78452e-06
-1.31136e-05
4.1595e-06
-1.36192e-05
5.50416e-06
-1.38203e-05
6.79765e-06
-1.32688e-05
7.98704e-06
-1.26785e-05
9.07719e-06
-1.13763e-05
1.0025e-05
-1.01917e-05
1.0859e-05
-8.63654e-06
1.15409e-05
-7.21604e-06
1.21217e-05
-5.78824e-06
1.25578e-05
-4.42487e-06
1.29196e-05
-3.36777e-06
1.31551e-05
-2.22746e-06
1.3345e-05
-1.66038e-06
1.34408e-05
-8.29287e-07
1.35092e-05
-7.29424e-07
1.3541e-05
-3.67873e-07
1.35441e-05
-5.82225e-07
-1.87652e-06
1.31704e-05
5.21968e-05
1.12295e-05
3.91584e-05
8.63145e-06
2.67676e-05
6.13363e-06
1.81639e-05
4.08881e-06
1.17501e-05
2.55238e-06
7.74294e-06
1.44742e-06
5.06137e-06
6.58006e-07
3.44481e-06
9.16262e-08
2.37821e-06
-3.2434e-07
1.71845e-06
-6.35623e-07
1.27201e-06
-8.75622e-07
9.82361e-07
-1.06478e-06
7.80886e-07
-1.21841e-06
6.47107e-07
-1.34623e-06
5.56197e-07
-1.45582e-06
4.98278e-07
-1.55225e-06
4.5992e-07
-1.63925e-06
4.29821e-07
-1.71875e-06
3.957e-07
-1.79159e-06
3.49708e-07
-1.85777e-06
2.88946e-07
-1.91727e-06
2.17747e-07
-1.97071e-06
1.46821e-07
-2.02014e-06
9.21867e-08
-2.0695e-06
7.00965e-08
-2.12464e-06
9.48498e-08
-2.19222e-06
1.69371e-07
-2.27849e-06
2.82682e-07
-2.38642e-06
3.96378e-07
-2.51364e-06
4.51705e-07
-2.64835e-06
3.61195e-07
-2.76854e-06
4.44745e-08
-2.8404e-06
-5.61525e-07
-2.827e-06
-1.42059e-06
-2.69854e-06
-2.39773e-06
-2.46067e-06
-3.18299e-06
-2.17013e-06
-3.44804e-06
-1.95081e-06
-2.80683e-06
-1.95863e-06
-1.07818e-06
-2.36505e-06
2.01426e-06
-3.26703e-06
6.45695e-06
-4.58624e-06
1.17793e-05
-5.93557e-06
1.60641e-05
-6.82286e-06
1.71505e-05
-7.03777e-06
1.43893e-05
-6.81517e-06
1.00189e-05
-6.32351e-06
5.18624e-06
-5.67717e-06
1.31236e-06
-4.92688e-06
-2.21991e-06
-4.0764e-06
-4.49057e-06
-3.18087e-06
-6.65041e-06
-2.20223e-06
-8.03201e-06
-1.16068e-06
-9.62914e-06
-2.49816e-08
-1.09224e-05
1.18048e-06
-1.2259e-05
2.45413e-06
-1.35395e-05
3.78263e-06
-1.44421e-05
5.11618e-06
-1.49528e-05
6.41416e-06
-1.51183e-05
7.65637e-06
-1.4511e-05
8.78748e-06
-1.38096e-05
9.82155e-06
-1.24103e-05
1.07099e-05
-1.108e-05
1.14896e-05
-9.41625e-06
1.21186e-05
-7.84505e-06
1.26523e-05
-6.32193e-06
1.30471e-05
-4.8197e-06
1.3372e-05
-3.69271e-06
1.35802e-05
-2.43566e-06
1.37438e-05
-1.82388e-06
1.38241e-05
-9.09664e-07
1.38735e-05
-7.78762e-07
1.38922e-05
-3.86616e-07
1.38789e-05
-5.68904e-07
-1.87987e-06
1.34632e-05
5.20669e-05
1.19493e-05
4.06723e-05
9.62073e-06
2.90961e-05
7.1874e-06
2.05973e-05
5.0573e-06
1.38802e-05
3.37172e-06
9.42852e-06
2.10946e-06
6.32362e-06
1.18323e-06
4.37104e-06
5.05803e-07
3.05564e-06
2.47233e-09
2.22178e-06
-3.7557e-07
1.65005e-06
-6.68046e-07
1.27484e-06
-8.98526e-07
1.01137e-06
-1.08495e-06
8.33533e-07
-1.23908e-06
7.10322e-07
-1.36994e-06
6.29139e-07
-1.48386e-06
5.73839e-07
-1.58565e-06
5.31613e-07
-1.67827e-06
4.88321e-07
-1.76342e-06
4.34855e-07
-1.84165e-06
3.67175e-07
-1.9132e-06
2.89299e-07
-1.9786e-06
2.12227e-07
-2.03971e-06
1.53289e-07
-2.10029e-06
1.30679e-07
-2.16639e-06
1.60949e-07
-2.24531e-06
2.48292e-07
-2.34454e-06
3.81912e-07
-2.46865e-06
5.20495e-07
-2.61729e-06
6.00336e-07
-2.78042e-06
5.24334e-07
-2.93742e-06
2.01472e-07
-3.05417e-06
-4.44772e-07
-3.09115e-06
-1.38361e-06
-3.01234e-06
-2.47654e-06
-2.81482e-06
-3.38051e-06
-2.54841e-06
-3.71446e-06
-2.33609e-06
-3.01915e-06
-2.33336e-06
-1.08091e-06
-2.70349e-06
2.38439e-06
-3.5181e-06
7.27156e-06
-4.66413e-06
1.29253e-05
-5.73544e-06
1.71354e-05
-6.29347e-06
1.77085e-05
-6.23946e-06
1.43353e-05
-5.85402e-06
9.63347e-06
-5.27616e-06
4.60838e-06
-4.57835e-06
6.14554e-07
-3.81015e-06
-2.98811e-06
-2.95437e-06
-5.34636e-06
-2.06227e-06
-7.54251e-06
-1.09702e-06
-8.99726e-06
-7.51266e-08
-1.0651e-05
1.03832e-06
-1.20358e-05
2.23714e-06
-1.34578e-05
3.48147e-06
-1.47838e-05
4.78018e-06
-1.57408e-05
6.07149e-06
-1.62441e-05
7.32181e-06
-1.63686e-05
8.51007e-06
-1.56993e-05
9.58204e-06
-1.48816e-05
1.05573e-05
-1.33856e-05
1.13853e-05
-1.1908e-05
1.21083e-05
-1.01392e-05
1.2683e-05
-8.41983e-06
1.31665e-05
-6.80537e-06
1.35173e-05
-5.17047e-06
1.38011e-05
-3.97658e-06
1.39776e-05
-2.61213e-06
1.41101e-05
-1.9564e-06
1.41698e-05
-9.69377e-07
1.41968e-05
-8.05761e-07
1.41981e-05
-3.87851e-07
1.41667e-05
-5.37585e-07
-1.84925e-06
1.36887e-05
5.17115e-05
1.25767e-05
4.17843e-05
1.05519e-05
3.1121e-05
8.24279e-06
2.29064e-05
6.08039e-06
1.60426e-05
4.27629e-06
1.12326e-05
2.86709e-06
7.73283e-06
1.80178e-06
5.43634e-06
1.00567e-06
3.85174e-06
4.07384e-07
2.82007e-06
-4.72986e-08
2.10473e-06
-3.9957e-07
1.62711e-06
-6.7743e-07
1.28923e-06
-9.01567e-07
1.05767e-06
-1.08596e-06
8.94715e-07
-1.24124e-06
7.84416e-07
-1.3751e-06
7.07698e-07
-1.49356e-06
6.5008e-07
-1.60073e-06
5.95484e-07
-1.69924e-06
5.33367e-07
-1.79031e-06
4.5825e-07
-1.87448e-06
3.73465e-07
-1.95216e-06
2.89909e-07
-2.0249e-06
2.2603e-07
-2.09615e-06
2.0193e-07
-2.17202e-06
2.36818e-07
-2.26038e-06
3.36645e-07
-2.36995e-06
4.9149e-07
-2.50705e-06
6.57588e-07
-2.67343e-06
7.66719e-07
-2.86123e-06
7.12135e-07
-3.05174e-06
3.9198e-07
-3.21152e-06
-2.84987e-07
-3.29955e-06
-1.29559e-06
-3.27388e-06
-2.5022e-06
-3.1214e-06
-3.53299e-06
-2.88104e-06
-3.95482e-06
-2.67079e-06
-3.22939e-06
-2.64323e-06
-1.10848e-06
-2.95153e-06
2.6927e-06
-3.64321e-06
7.96323e-06
-4.5807e-06
1.38628e-05
-5.35771e-06
1.79124e-05
-5.60696e-06
1.79578e-05
-5.33147e-06
1.40598e-05
-4.82373e-06
9.12574e-06
-4.18798e-06
3.97263e-06
-3.45661e-06
-1.16809e-07
-2.68066e-06
-3.76406e-06
-1.82937e-06
-6.19765e-06
-9.45598e-07
-8.42628e-06
9.93386e-09
-9.95279e-06
1.02187e-06
-1.1663e-05
2.10795e-06
-1.31219e-05
3.28981e-06
-1.46396e-05
4.50685e-06
-1.60008e-05
5.77483e-06
-1.70088e-05
7.02306e-06
-1.74923e-05
8.22436e-06
-1.75699e-05
9.35614e-06
-1.68311e-05
1.03681e-05
-1.58935e-05
1.12822e-05
-1.42997e-05
1.20495e-05
-1.26754e-05
1.27141e-05
-1.08037e-05
1.32343e-05
-8.94003e-06
1.36659e-05
-7.23699e-06
1.39714e-05
-5.47599e-06
1.42119e-05
-4.21711e-06
1.4354e-05
-2.75416e-06
1.44526e-05
-2.05508e-06
1.44878e-05
-1.00454e-06
1.449e-05
-8.07969e-07
1.44701e-05
-3.67999e-07
1.44192e-05
-4.86626e-07
-1.78526e-06
1.38566e-05
5.11883e-05
1.3113e-05
4.25279e-05
1.14127e-05
3.28213e-05
9.27988e-06
2.50392e-05
7.13961e-06
1.81829e-05
5.25469e-06
1.31175e-05
3.71654e-06
9.27098e-06
2.51539e-06
6.63749e-06
1.59594e-06
4.77119e-06
8.9419e-07
3.52182e-06
3.55308e-07
2.64361e-06
-6.43653e-08
2.04678e-06
-3.96104e-07
1.62096e-06
-6.63392e-07
1.32496e-06
-8.82516e-07
1.11384e-06
-1.06581e-06
9.67713e-07
-1.22246e-06
8.64343e-07
-1.35978e-06
7.87399e-07
-1.48309e-06
7.18796e-07
-1.5961e-06
6.46382e-07
-1.70081e-06
5.62953e-07
-1.79808e-06
4.70737e-07
-1.88825e-06
3.8008e-07
-1.97246e-06
3.10246e-07
-2.05367e-06
2.83138e-07
-2.13782e-06
3.20965e-07
-2.23317e-06
4.31995e-07
-2.34964e-06
6.07962e-07
-2.49527e-06
8.03219e-07
-2.67415e-06
9.45591e-07
-2.88087e-06
9.18857e-07
-3.09939e-06
6.10502e-07
-3.29811e-06
-8.6263e-08
-3.43591e-06
-1.15779e-06
-3.46581e-06
-2.4723e-06
-3.36318e-06
-3.63562e-06
-3.15167e-06
-4.16634e-06
-2.93917e-06
-3.44189e-06
-2.8733e-06
-1.17436e-06
-3.09719e-06
2.9166e-06
-3.63728e-06
8.50332e-06
-4.34269e-06
1.45682e-05
-4.82389e-06
1.83936e-05
-4.79555e-06
1.79294e-05
-4.34466e-06
1.36089e-05
-3.74609e-06
8.52717e-06
-3.0726e-06
3.29914e-06
-2.32177e-06
-8.6764e-07
-1.54504e-06
-4.54079e-06
-7.04496e-07
-7.03819e-06
1.64016e-07
-9.2948e-06
1.09902e-06
-1.08878e-05
2.10469e-06
-1.26686e-05
3.17306e-06
-1.41903e-05
4.33816e-06
-1.58047e-05
5.52924e-06
-1.71919e-05
6.76534e-06
-1.82449e-05
7.96925e-06
-1.86962e-05
9.11973e-06
-1.87204e-05
1.01925e-05
-1.79039e-05
1.11432e-05
-1.68442e-05
1.19942e-05
-1.51507e-05
1.27006e-05
-1.33818e-05
1.33056e-05
-1.14087e-05
1.37714e-05
-9.40581e-06
1.41506e-05
-7.61618e-06
1.44107e-05
-5.73604e-06
1.4607e-05
-4.41343e-06
1.47132e-05
-2.86035e-06
1.47766e-05
-2.11848e-06
1.47846e-05
-1.01256e-06
1.47604e-05
-7.8374e-07
1.47168e-05
-3.24438e-07
1.46447e-05
-4.14573e-07
-1.68851e-06
1.39762e-05
5.05454e-05
1.35614e-05
4.29428e-05
1.21935e-05
3.41891e-05
1.02801e-05
2.69526e-05
8.21522e-06
2.02478e-05
6.29251e-06
1.50403e-05
4.65087e-06
1.09126e-05
3.32341e-06
7.96495e-06
2.28004e-06
5.81456e-06
1.46911e-06
4.33276e-06
8.38537e-07
3.27418e-06
3.43979e-07
2.54134e-06
-4.8533e-08
2.01348e-06
-3.64863e-07
1.64129e-06
-6.23668e-07
1.37264e-06
-8.39061e-07
1.18311e-06
-1.02177e-06
1.04705e-06
-1.18047e-06
9.46099e-07
-1.32178e-06
8.60112e-07
-1.45058e-06
7.75183e-07
-1.56974e-06
6.82108e-07
-1.6806e-06
5.81597e-07
-1.78345e-06
4.82927e-07
-1.87896e-06
4.05758e-07
-1.96939e-06
3.73573e-07
-2.06024e-06
4.11808e-07
-2.15986e-06
5.31618e-07
-2.27918e-06
7.27284e-07
-2.42795e-06
9.5199e-07
-2.61271e-06
1.13035e-06
-2.83091e-06
1.13706e-06
-3.06994e-06
8.49535e-07
-3.30133e-06
1.45119e-07
-3.48556e-06
-9.73559e-07
-3.57211e-06
-2.38575e-06
-3.52436e-06
-3.68337e-06
-3.34626e-06
-4.34444e-06
-3.12906e-06
-3.65909e-06
-3.01321e-06
-1.2902e-06
-3.13383e-06
3.03722e-06
-3.50098e-06
8.87046e-06
-3.96156e-06
1.50288e-05
-4.15692e-06
1.8589e-05
-3.88732e-06
1.76598e-05
-3.30192e-06
1.30235e-05
-2.63528e-06
7.86053e-06
-1.93736e-06
2.60122e-06
-1.17829e-06
-1.62671e-06
-4.07568e-07
-5.31151e-06
4.17648e-07
-7.86341e-06
1.27457e-06
-1.01517e-05