/*--------------------------------*- C++ -*----------------------------------*\
| =========                 |                                                 |
| \\      /  F ield         | OpenFOAM: The Open Source CFD Toolbox           |
|  \\    /   O peration     | Version:  2.4.0                                 |
|   \\  /    A nd           | Web:      www.OpenFOAM.org                      |
|    \\/     M anipulation  |                                                 |
\*---------------------------------------------------------------------------*/
FoamFile
{
    version     2.0;
    format      ascii;
    class       volScalarField;
    location    "5.03";
    object      p;
}
// * * * * * * * * * * * * * * * * * * * * * * * * * * * * * * * * * * * * * //

dimensions      [0 2 -2 0 0 0 0];

internalField   nonuniform List<scalar> 
6000
(
0.0497304
0.278897
0.275847
0.299177
0.304617
0.312297
0.315334
0.31895
0.320885
0.322965
0.324355
0.325756
0.326863
0.32796
0.328943
0.329932
0.330901
0.331905
0.332948
0.334062
0.335261
0.336573
0.338018
0.339622
0.341409
0.343404
0.345632
0.348118
0.350887
0.353961
0.357359
0.361095
0.365176
0.369603
0.374368
0.379444
0.384793
0.390361
0.396066
0.401818
0.407483
0.412938
0.418005
0.42255
0.426173
0.428841
0.430093
0.430128
0.427858
0.424328
0.416758
0.408902
0.392799
0.380855
0.348804
0.336941
0.268908
0.275286
0.111572
0.196984
0.0647497
0.277112
0.27589
0.299028
0.304534
0.312211
0.315277
0.318897
0.320847
0.32293
0.324329
0.325733
0.326846
0.327946
0.328932
0.329924
0.330894
0.3319
0.332944
0.334059
0.33526
0.336573
0.338019
0.339623
0.341411
0.343406
0.345635
0.348122
0.350892
0.353967
0.357367
0.361104
0.365188
0.369619
0.374383
0.379459
0.384808
0.390373
0.396075
0.40182
0.407474
0.412914
0.417964
0.422496
0.426115
0.428772
0.430008
0.430018
0.42772
0.424143
0.416536
0.408598
0.392458
0.380365
0.348316
0.33614
0.268322
0.273884
0.110908
0.194369
0.0785941
0.275036
0.275987
0.29891
0.304462
0.312144
0.315228
0.318854
0.320814
0.322902
0.324306
0.325714
0.32683
0.327933
0.328921
0.329915
0.330887
0.331894
0.332939
0.334056
0.335257
0.336571
0.338018
0.339623
0.341411
0.343407
0.345636
0.348123
0.350894
0.353969
0.357369
0.361107
0.36519
0.369621
0.374385
0.37946
0.384806
0.390367
0.396061
0.401795
0.407433
0.412853
0.417878
0.422387
0.426
0.428648
0.429873
0.429863
0.427541
0.423929
0.416285
0.408286
0.392102
0.379898
0.347825
0.335409
0.267657
0.272629
0.110039
0.192062
0.0900624
0.272858
0.276126
0.29882
0.304408
0.312089
0.315186
0.318818
0.320784
0.322877
0.324285
0.325696
0.326815
0.32792
0.328911
0.329906
0.33088
0.331888
0.332934
0.334051
0.335253
0.336568
0.338014
0.339619
0.341407
0.343403
0.345632
0.348119
0.350889
0.353963
0.357362
0.361099
0.365182
0.369609
0.37437
0.379441
0.38478
0.390332
0.396014
0.401732
0.407349
0.412745
0.417738
0.422213
0.42581
0.428451
0.429665
0.429645
0.427305
0.423669
0.415994
0.40795
0.391724
0.379434
0.347319
0.334721
0.266979
0.271496
0.10914
0.190157
0.100049
0.270686
0.276288
0.298752
0.304371
0.312043
0.315151
0.318786
0.320758
0.322854
0.324266
0.325679
0.326801
0.327908
0.3289
0.329897
0.330872
0.331881
0.332928
0.334045
0.335247
0.336562
0.338008
0.339613
0.3414
0.343395
0.345623
0.348109
0.350877
0.35395
0.357346
0.361079
0.365158
0.36958
0.374334
0.379396
0.384725
0.390263
0.395928
0.401625
0.407218
0.412587
0.417548
0.421979
0.425544
0.428168
0.429367
0.429334
0.426977
0.423323
0.415621
0.407545
0.391277
0.378922
0.346759
0.334015
0.266261
0.270398
0.10822
0.188503
0.109118
0.268586
0.276458
0.298709
0.304349
0.312004
0.315122
0.318757
0.320735
0.322833
0.324248
0.325664
0.326788
0.327896
0.32889
0.329888
0.330863
0.331873
0.33292
0.334037
0.33524
0.336554
0.338
0.339604
0.34139
0.343384
0.34561
0.348093
0.350859
0.353928
0.35732
0.361048
0.365119
0.369533
0.374277
0.379327
0.38464
0.390161
0.395806
0.401481
0.407051
0.412396
0.417326
0.421709
0.425226
0.427818
0.428989
0.428931
0.426549
0.422873
0.415142
0.407036
0.390727
0.378322
0.346105
0.333247
0.265461
0.269285
0.107245
0.187002
0.117441
0.266599
0.27663
0.298684
0.304341
0.311974
0.315098
0.318732
0.320714
0.322813
0.324231
0.325649
0.326775
0.327885
0.32888
0.329878
0.330854
0.331864
0.332911
0.334029
0.335231
0.336544
0.33799
0.339593
0.341378
0.34337
0.345593
0.348074
0.350835
0.353899
0.357285
0.361005
0.365067
0.36947
0.374202
0.379237
0.384534
0.390037
0.395662
0.401317
0.406866
0.41219
0.417092
0.421427
0.424886
0.427434
0.428562
0.428466
0.426044
0.422334
0.414563
0.406424
0.390066
0.377617
0.345337
0.332391
0.264548
0.268126
0.106183
0.1856
0.125105
0.264748
0.276804
0.298662
0.304357
0.311951
0.315081
0.318711
0.320696
0.322796
0.324216
0.325635
0.326763
0.327873
0.328869
0.329868
0.330844
0.331854
0.332901
0.334019
0.335221
0.336534
0.337979
0.339581
0.341364
0.343354
0.345574
0.348051
0.350807
0.353865
0.357243
0.360954
0.365006
0.369397
0.374115
0.379136
0.384417
0.389903
0.39551
0.401147
0.406678
0.411984
0.416859
0.421148
0.424547
0.427042
0.428118
0.427972
0.425498
0.421741
0.413915
0.405733
0.389313
0.376817
0.34446
0.331441
0.263514
0.266904
0.105011
0.184259
0.132208
0.263045
0.276977
0.298648
0.304385
0.311937
0.315071
0.318695
0.320682
0.322781
0.324203
0.325623
0.326751
0.327863
0.328859
0.329858
0.330834
0.331844
0.332891
0.334009
0.335211
0.336523
0.337967
0.339568
0.341349
0.343336
0.345552
0.348024
0.350775
0.353826
0.357196
0.360898
0.36494
0.369319
0.374024
0.379031
0.384298
0.389768
0.39536
0.400981
0.406496
0.411784
0.416634
0.420879
0.42422
0.426661
0.427679
0.427475
0.42494
0.421124
0.413233
0.404994
0.3885
0.375947
0.343497
0.330409
0.262372
0.265615
0.103729
0.182952
0.138849
0.261496
0.277146
0.298638
0.304423
0.311931
0.315067
0.318682
0.32067
0.322769
0.324192
0.325611
0.32674
0.327852
0.328849
0.329848
0.330824
0.331834
0.332881
0.333999
0.3352
0.336512
0.337955
0.339553
0.341332
0.343316
0.345528
0.347995
0.35074
0.353784
0.357146
0.360839
0.364871
0.369239
0.373933
0.378928
0.384182
0.389639
0.395217
0.400824
0.406324
0.411595
0.41642
0.420623
0.42391
0.426296
0.427255
0.42699
0.424389
0.420508
0.412543
0.404237
0.387657
0.375039
0.342481
0.32932
0.261148
0.26427
0.102352
0.181667
0.145106
0.260104
0.277307
0.298626
0.304473
0.311932
0.315069
0.318673
0.320662
0.322759
0.324182
0.325601
0.326731
0.327843
0.328839
0.329839
0.330815
0.331825
0.332872
0.333989
0.335189
0.3365
0.337941
0.339538
0.341314
0.343294
0.345503
0.347964
0.350703
0.35374
0.357094
0.360779
0.364802
0.369161
0.373844
0.378828
0.384071
0.389516
0.395082
0.400676
0.406163
0.411417
0.416216
0.420381
0.423619
0.425952
0.426852
0.426525
0.423855
0.419905
0.411862
0.403481
0.386809
0.374115
0.341439
0.328199
0.259873
0.26289
0.100907
0.180408
0.15104
0.258873
0.277457
0.29861
0.304531
0.311941
0.315077
0.318669
0.320658
0.322751
0.324174
0.325593
0.326723
0.327835
0.328831
0.32983
0.330806
0.331816
0.332862
0.333979
0.335179
0.336488
0.337928
0.339522
0.341295
0.343271
0.345475
0.347932
0.350665
0.353696
0.357043
0.36072
0.364734
0.369084
0.373759
0.378733
0.383966
0.389401
0.394956
0.400538
0.406012
0.411249
0.416024
0.420153
0.423345
0.425627
0.426471
0.426081
0.423344
0.419321
0.411198
0.40274
0.385971
0.373194
0.340394
0.327067
0.258576
0.261497
0.0994264
0.179183
0.156698
0.257802
0.277592
0.298588
0.304597
0.311955
0.315092
0.318669
0.320657
0.322746
0.324169
0.325587
0.326716
0.327828
0.328824
0.329823
0.330798
0.331808
0.332854
0.333969
0.335168
0.336476
0.337913
0.339505
0.341275
0.343247
0.345447
0.347899
0.350626
0.353651
0.356992
0.360662
0.364669
0.369011
0.373678
0.378644
0.383868
0.389294
0.394839
0.40041
0.405871
0.411091
0.415841
0.419937
0.423088
0.425322
0.42611
0.42566
0.422856
0.418761
0.410558
0.402018
0.385153
0.372288
0.339362
0.325941
0.257281
0.260108
0.097941
0.178002
0.162119
0.256891
0.277713
0.298556
0.304667
0.311974
0.315113
0.318673
0.320659
0.322743
0.324166
0.325582
0.326712
0.327823
0.328819
0.329817
0.330792
0.331801
0.332846
0.33396
0.335158
0.336464
0.337899
0.339488
0.341255
0.343224
0.345419
0.347866
0.350588
0.353608
0.356942
0.360606
0.364606
0.368942
0.373601
0.37856
0.383776
0.389194
0.39473
0.400291
0.405739
0.410942
0.415669
0.419733
0.422846
0.425034
0.42577
0.42526
0.42239
0.418224
0.409943
0.40132
0.38436
0.371402
0.338352
0.324832
0.256003
0.258736
0.0964765
0.176872
0.167329
0.25614
0.27782
0.298514
0.304741
0.311997
0.31514
0.318681
0.320665
0.322743
0.324165
0.32558
0.326709
0.32782
0.328815
0.329813
0.330787
0.331795
0.332839
0.333952
0.335148
0.336453
0.337885
0.339471
0.341235
0.3432
0.345392
0.347834
0.350552
0.353566
0.356895
0.360553
0.364547
0.368877
0.37353
0.378482
0.383691
0.389101
0.394628
0.400179
0.405615
0.410801
0.415505
0.41954
0.422617
0.424761
0.425447
0.42488
0.421947
0.41771
0.409352
0.400646
0.383594
0.370541
0.337372
0.323747
0.254757
0.257393
0.0950533
0.175796
0.172353
0.255544
0.277915
0.298459
0.304815
0.312023
0.315172
0.318693
0.320675
0.322747
0.324167
0.32558
0.326709
0.327819
0.328813
0.32981
0.330783
0.331791
0.332833
0.333945
0.33514
0.336442
0.337872
0.339456
0.341216
0.343178
0.345366
0.347804
0.350517
0.353526
0.35685
0.360503
0.364492
0.368816
0.373463
0.37841
0.383612
0.389015
0.394534
0.400075
0.405498
0.410668
0.415349
0.419356
0.4224
0.424503
0.425141
0.424517
0.421523
0.417216
0.408785
0.399996
0.382855
0.369706
0.336425
0.322689
0.25355
0.256084
0.0936861
0.174776
0.177207
0.2551
0.278004
0.298392
0.304889
0.312051
0.315209
0.318708
0.320688
0.322753
0.324172
0.325583
0.326711
0.32782
0.328814
0.32981
0.330782
0.331788
0.332829
0.33394
0.335133
0.336433
0.337861
0.339441
0.341199
0.343157
0.345341
0.347776
0.350484
0.353489
0.356808
0.360456
0.36444
0.368759
0.373402
0.378343
0.383539
0.388935
0.394446
0.399978
0.405389
0.410541
0.4152
0.41918
0.422193
0.424256
0.424848
0.42417
0.421117
0.416742
0.40824
0.399369
0.382144
0.368897
0.335512
0.321661
0.252388
0.254812
0.0923853
0.173808
0.181903
0.254803
0.278091
0.298312
0.304959
0.31208
0.315252
0.318728
0.320705
0.322762
0.32418
0.325588
0.326716
0.327824
0.328817
0.329812
0.330783
0.331787
0.332828
0.333937
0.335127
0.336426
0.337851
0.339429
0.341183
0.343139
0.345319
0.34775
0.350455
0.353455
0.35677
0.360413
0.364393
0.368708
0.373345
0.378281
0.383472
0.388861
0.394365
0.399887
0.405285
0.410421
0.415058
0.419012
0.421995
0.42402
0.424567
0.423836
0.420726
0.416284
0.407715
0.398762
0.38146
0.368114
0.334634
0.320663
0.251273
0.25358
0.0911572
0.17289
0.186454
0.254645
0.278181
0.29822
0.305024
0.312109
0.315298
0.31875
0.320725
0.322773
0.32419
0.325596
0.326723
0.32783
0.328823
0.329816
0.330786
0.331789
0.332828
0.333935
0.335124
0.336421
0.337844
0.339419
0.341171
0.343123
0.3453
0.347728
0.350428
0.353425
0.356736
0.360375
0.364351
0.368661
0.373294
0.378225
0.383411
0.388794
0.39429
0.399802
0.405188
0.410306
0.414921
0.41885
0.421804
0.423792
0.424296
0.423513
0.420349
0.415841
0.407208
0.398175
0.3808
0.367355
0.333791
0.319695
0.250208
0.252387
0.0900055
0.172017
0.190867
0.254621
0.278281
0.298118
0.305081
0.312136
0.315348
0.318776
0.32075
0.322788
0.324203
0.325607
0.326733
0.327839
0.328831
0.329823
0.330792
0.331794
0.332831
0.333937
0.335124
0.336419
0.337839
0.339412
0.341161
0.34311
0.345285
0.347709
0.350406
0.353399
0.356706
0.360342
0.364313
0.36862
0.373249
0.378175
0.383355
0.388732
0.39422
0.399722
0.405096
0.410197
0.41479
0.418694
0.42162
0.423571
0.424034
0.4232
0.419984
0.415412
0.406718
0.397606
0.380163
0.366619
0.33298
0.318757
0.249193
0.251234
0.088932
0.171186
0.195149
0.254722
0.278396
0.29801
0.305131
0.312161
0.315401
0.318805
0.320778
0.322806
0.324219
0.32562
0.326746
0.327851
0.328842
0.329834
0.330801
0.331801
0.332837
0.333941
0.335127
0.336419
0.337838
0.339408
0.341155
0.343102
0.345273
0.347694
0.350388
0.353377
0.356681
0.360313
0.364281
0.368584
0.373209
0.378131
0.383306
0.388676
0.394157
0.399649
0.405009
0.410092
0.414664
0.418542
0.421441
0.423357
0.423778
0.422896
0.419628
0.414993
0.406241
0.397051
0.379548
0.365904
0.332203
0.317847
0.248228
0.250119
0.0879368
0.17039
0.199307
0.25494
0.278531
0.297897
0.305171
0.312182
0.315456
0.318837
0.32081
0.322827
0.324238
0.325635
0.326762
0.327866
0.328857
0.329847
0.330813
0.331812
0.332847
0.333949
0.335133
0.336424
0.33784
0.339409
0.341153
0.343097
0.345266
0.347683
0.350375
0.353361
0.356661
0.36029
0.364255
0.368554
0.373175
0.378093
0.383263
0.388627
0.394099
0.39958
0.404927
0.409992
0.414542
0.418396
0.421267
0.423147
0.423529
0.422597
0.419281
0.414584
0.405778
0.396511
0.378952
0.365209
0.331456
0.316965
0.247311
0.249041
0.0870192
0.169624
0.203347
0.255268
0.278688
0.297785
0.305202
0.312199
0.315513
0.318872
0.320846
0.322851
0.32426
0.325654
0.32678
0.327884
0.328874
0.329864
0.330829
0.331827
0.33286
0.333961
0.335144
0.336433
0.337847
0.339413
0.341155
0.343097
0.345263
0.347678
0.350367
0.35335
0.356647
0.360273
0.364235
0.368531
0.373148
0.378061
0.383226
0.388583
0.394047
0.399517
0.40485
0.409897
0.414424
0.418252
0.421097
0.422941
0.423284
0.422304
0.41894
0.414183
0.405325
0.395983
0.378375
0.364533
0.330739
0.316107
0.246443
0.247999
0.0861775
0.168886
0.207273
0.255697
0.278873
0.297677
0.305225
0.312211
0.315571
0.318909
0.320886
0.322878
0.324286
0.325676
0.326802
0.327905
0.328896
0.329884
0.330849
0.331845
0.332877
0.333977
0.335158
0.336446
0.337859
0.339423
0.341163
0.343102
0.345266
0.347679
0.350364
0.353345
0.35664
0.360263
0.364221
0.368514
0.373127
0.378036
0.383195
0.388546
0.394001
0.39946
0.404777
0.409805
0.414309
0.418113
0.420929
0.422739
0.423043
0.422016
0.418605
0.413788
0.404882
0.395466
0.377814
0.363872
0.330049
0.315275
0.245621
0.246989
0.0854101
0.168169
0.211091
0.256219
0.279086
0.297577
0.305241
0.312218
0.315629
0.318949
0.32093
0.322909
0.324315
0.3257
0.326827
0.327929
0.32892
0.329909
0.330873
0.331868
0.332899
0.333998
0.335178
0.336464
0.337875
0.339438
0.341176
0.343113
0.345275
0.347685
0.350368
0.353347
0.356639
0.360259
0.364214
0.368504
0.373114
0.378018
0.383171
0.388515
0.39396
0.399407
0.404709
0.409717
0.414198
0.417976
0.420765
0.422539
0.422805
0.42173
0.418274
0.413399
0.404447
0.394958
0.377268
0.363228
0.329387
0.314465
0.244845
0.246012
0.0847146
0.167471
0.214806
0.256827
0.279329
0.297488
0.305251
0.312219
0.315686
0.318992
0.320979
0.322945
0.324349
0.325729
0.326855
0.327957
0.328949
0.329938
0.330901
0.331896
0.332926
0.334024
0.335202
0.336487
0.337897
0.339459
0.341195
0.343131
0.34529
0.347698
0.350379
0.353355
0.356645
0.360263
0.364215
0.368502
0.373108
0.378007
0.383155
0.388491
0.393926
0.399361
0.404646
0.409633
0.414091
0.417841
0.420602
0.42234
0.422568
0.421446
0.417947
0.413013
0.404019
0.394458
0.376736
0.362597
0.32875
0.313677
0.244114
0.245064
0.0840889
0.166787
0.218421
0.257514
0.279603
0.297414
0.305257
0.312217
0.315742
0.319036
0.321031
0.322984
0.324387
0.325761
0.326888
0.327989
0.328982
0.329971
0.330934
0.331928
0.332958
0.334055
0.335233
0.336516
0.337925
0.339485
0.34122
0.343154
0.345312
0.347718
0.350398
0.353372
0.356659
0.360274
0.364224
0.368508
0.37311
0.378004
0.383146
0.388473
0.393899
0.399319
0.404588
0.409553
0.413986
0.417709
0.420441
0.422143
0.422333
0.421164
0.417622
0.412631
0.403597
0.393965
0.376217
0.36198
0.328138
0.31291
0.243425
0.244145
0.0835304
0.166115
0.221942
0.258272
0.279908
0.297356
0.305262
0.31221
0.315798
0.319083
0.321089
0.323029
0.32443
0.325798
0.326924
0.328025
0.329019
0.330008
0.330972
0.331966
0.332995
0.334092
0.335269
0.336552
0.33796
0.339519
0.341253
0.343185
0.345341
0.347746
0.350424
0.353396
0.356681
0.360294
0.364242
0.368522
0.37312
0.378009
0.383144
0.388463
0.393877
0.399283
0.404534
0.409477
0.413884
0.417579
0.420281
0.421946
0.422098
0.420882
0.417298
0.412252
0.403181
0.393479
0.375711
0.361375
0.327549
0.312162
0.242778
0.243254
0.0830369
0.165452
0.225374
0.259095
0.280243
0.297318
0.305267
0.312201
0.315851
0.319131
0.321151
0.323079
0.324478
0.325839
0.326966
0.328066
0.329061
0.330051
0.331016
0.33201
0.333039
0.334135
0.335312
0.336594
0.338002
0.33956
0.341293
0.343224
0.345379
0.347783
0.350458
0.353429
0.356713
0.360324
0.364268
0.368545
0.373139
0.378023
0.38315
0.38846
0.393862
0.399253
0.404485
0.409404
0.413784
0.41745
0.420121
0.421749
0.421863
0.4206
0.416976
0.411874
0.402768
0.392998
0.375215
0.360782
0.326982
0.311434
0.242171
0.242388
0.0826061
0.164795
0.228721
0.259978
0.280608
0.297301
0.305276
0.312191
0.315904
0.319182
0.321217
0.323134
0.324533
0.325887
0.327012
0.328111
0.329109
0.330099
0.331065
0.33206
0.333089
0.334185
0.335362
0.336644
0.338051
0.339609
0.341341
0.343271
0.345425
0.347827
0.350502
0.353471
0.356753
0.360362
0.364304
0.368578
0.373167
0.378045
0.383165
0.388465
0.393854
0.399229
0.40444
0.409335
0.413687
0.417322
0.419962
0.421552
0.421627
0.420317
0.416653
0.411496
0.402359
0.392522
0.374729
0.360199
0.326437
0.310723
0.241605
0.241547
0.0822356
0.164143
0.231987
0.260914
0.281002
0.297305
0.305289
0.312182
0.315957
0.319236
0.321289
0.323196
0.324594
0.325941
0.327065
0.328162
0.329162
0.330153
0.331121
0.332117
0.333146
0.334242
0.335419
0.336702
0.338109
0.339666
0.341397
0.343327
0.34548
0.347882
0.350555
0.353523
0.356804
0.360411
0.364351
0.36862
0.373205
0.378077
0.383189
0.388478
0.393853
0.399211
0.4044
0.409269
0.413593
0.417196
0.419803
0.421354
0.42139
0.420033
0.41633
0.411119
0.401952
0.39205
0.374253
0.359626
0.325913
0.31003
0.241076
0.240729
0.0819234
0.163493
0.235178
0.261897
0.281423
0.297332
0.305309
0.312174
0.31601
0.319292
0.321366
0.323265
0.324663
0.326002
0.327125
0.32822
0.329221
0.330214
0.331183
0.33218
0.333211
0.334307
0.335485
0.336767
0.338175
0.339732
0.341463
0.343392
0.345545
0.347946
0.350619
0.353586
0.356865
0.36047
0.364407
0.368674
0.373254
0.378119
0.383222
0.388499
0.39386
0.399198
0.404365
0.409207
0.4135
0.41707
0.419644
0.421154
0.421151
0.419747
0.416006
0.410742
0.401548
0.391581
0.373785
0.359063
0.325409
0.309355
0.240585
0.239935
0.0816672
0.162845
0.238297
0.262924
0.281869
0.297382
0.305337
0.312171
0.316064
0.319351
0.321449
0.323341
0.324741
0.326071
0.327193
0.328285
0.329287
0.330281
0.331253
0.332251
0.333283
0.334381
0.335559
0.336842
0.33825
0.339808
0.341538
0.343467
0.34562
0.348021
0.350693
0.35366
0.356938
0.360541
0.364475
0.368738
0.373313
0.37817
0.383264
0.388529
0.393874
0.399192
0.404335
0.409148
0.41341
0.416945
0.419483
0.420953
0.42091
0.419459
0.41568
0.410363
0.401145
0.391116
0.373326
0.358509
0.324925
0.308695
0.240131
0.239162
0.081465
0.162197
0.241349
0.263989
0.282339
0.297454
0.305375
0.312172
0.316121
0.319415
0.321538
0.323426
0.324827
0.326149
0.327269
0.328358
0.329361
0.330357
0.331331
0.332331
0.333364
0.334463
0.335642
0.336926
0.338335
0.339893
0.341624
0.343553
0.345706
0.348107
0.350779
0.353745
0.357022
0.360624
0.364555
0.368814
0.373383
0.378233
0.383316
0.388567
0.393895
0.399193
0.40431
0.409093
0.413321
0.41682
0.419322
0.42075
0.420666
0.419167
0.415351
0.409983
0.400744
0.390653
0.372875
0.357965
0.32446
0.308052
0.239712
0.23841
0.0813149
0.161548
0.244339
0.265088
0.282832
0.297549
0.305423
0.31218
0.316181
0.319484
0.321633
0.323519
0.324923
0.326238
0.327355
0.328441
0.329444
0.33044
0.331417
0.332419
0.333454
0.334555
0.335735
0.337021
0.33843
0.339989
0.341721
0.343651
0.345804
0.348205
0.350878
0.353843
0.357119
0.360719
0.364648
0.368902
0.373465
0.378306
0.383378
0.388615
0.393925
0.399199
0.40429
0.40904
0.413234
0.416695
0.419159
0.420543
0.420419
0.418872
0.41502
0.409601
0.400343
0.390192
0.372432
0.357428
0.324013
0.307425
0.239328
0.237679
0.0812149
0.160898
0.247271
0.266217
0.283344
0.297665
0.305481
0.312196
0.316245
0.319558
0.321736
0.323621
0.325029
0.326337
0.327452
0.328533
0.329537
0.330534
0.331513
0.332517
0.333555
0.334657
0.335839
0.337126
0.338537
0.340097
0.34183
0.34376
0.345914
0.348316
0.350989
0.353954
0.357229
0.360827
0.364753
0.369003
0.373559
0.378392
0.383451
0.388673
0.393963
0.399213
0.404274
0.408991
0.413148
0.41657
0.418994
0.420334
0.420168
0.418573
0.414686
0.409217
0.399942
0.389734
0.371995
0.3569
0.323584
0.306814
0.238978
0.236968
0.0811633
0.160246
0.250149
0.267373
0.283875
0.297803
0.305552
0.31222
0.316315
0.319639
0.321846
0.323734
0.325148
0.326449
0.327561
0.328638
0.329641
0.330638
0.331619
0.332626
0.333666
0.33477
0.335954
0.337243
0.338656
0.340217
0.341951
0.343883
0.346038
0.34844
0.351113
0.354079
0.357353
0.360949
0.364872
0.369117
0.373666
0.378489
0.383536
0.38874
0.394009
0.399233
0.404264
0.408945
0.413063
0.416444
0.418827
0.420121
0.419913
0.41827
0.414348
0.40883
0.399541
0.389276
0.371565
0.35638
0.323173
0.306218
0.238662
0.236278
0.0811582
0.159592
0.252977
0.268551
0.284423
0.29796
0.305633
0.312253
0.31639
0.319728
0.321966
0.323858
0.325278
0.326574
0.327683
0.328755
0.329757
0.330753
0.331737
0.332745
0.333788
0.334895
0.336082
0.337373
0.338787
0.34035
0.342086
0.344019
0.346175
0.348579
0.351253
0.354218
0.357492
0.361086
0.365006
0.369245
0.373787
0.378599
0.383632
0.388818
0.394064
0.39926
0.404258
0.408902
0.41298
0.416318
0.418658
0.419905
0.419653
0.417962
0.414005
0.40844
0.399139
0.388821
0.371142
0.355869
0.32278
0.305638
0.238379
0.235607
0.0811979
0.158937
0.25576
0.269749
0.284985
0.298135
0.305726
0.312296
0.316473
0.319824
0.322094
0.323994
0.325423
0.326713
0.32782
0.328887
0.329886
0.330882
0.331867
0.332878
0.333924
0.335033
0.336222
0.337516
0.338933
0.340498
0.342235
0.34417
0.346328
0.348733
0.351407
0.354373
0.357646
0.361239
0.365155
0.369388
0.373921
0.378722
0.383739
0.388906
0.394128
0.399294
0.404258
0.408862
0.412897
0.41619
0.418485
0.419684
0.419388
0.417648
0.413658
0.408046
0.398736
0.388366
0.370725
0.355365
0.322404
0.305074
0.238127
0.234956
0.0812805
0.15828
0.258501
0.270964
0.285562
0.298329
0.305831
0.31235
0.316564
0.31993
0.322233
0.324142
0.325581
0.326868
0.327973
0.329034
0.330031
0.331025
0.332011
0.333024
0.334073
0.335185
0.336377
0.337673
0.339093
0.34066
0.342399
0.344336
0.346496
0.348902
0.351578
0.354544
0.357817
0.361407
0.365319
0.369547
0.374071
0.378859
0.38386
0.389005
0.3942
0.399335
0.404262
0.408824
0.412815
0.41606
0.418309
0.419458
0.419117
0.417328
0.413306
0.407648
0.398332
0.387912
0.370313
0.35487
0.322044
0.304526
0.237907
0.234324
0.0814045
0.157622
0.261204
0.272192
0.28615
0.29854
0.305946
0.312413
0.316662
0.320044
0.322382
0.324303
0.325754
0.32704
0.328143
0.329198
0.330192
0.331184
0.332171
0.333185
0.334236
0.335351
0.336547
0.337846
0.339268
0.340838
0.34258
0.344519
0.346681
0.349089
0.351766
0.354733
0.358004
0.361593
0.365501
0.369721
0.374235
0.37901
0.383993
0.389115
0.394283
0.399384
0.404271
0.40879
0.412733
0.415929
0.418129
0.419226
0.41884
0.417002
0.412948
0.407246
0.397926
0.387459
0.369907
0.354382
0.321701
0.303993
0.237717
0.233712
0.081568
0.156964
0.263873
0.273431
0.286748
0.298766
0.306072
0.312486
0.316769
0.320168
0.322541
0.324477
0.325943
0.327229
0.328332
0.329381
0.330372
0.33136
0.332347
0.333362
0.334416
0.335534
0.336733
0.338035
0.339461
0.341033
0.342778
0.34472
0.346884
0.349294
0.351973
0.354939
0.358211
0.361796
0.3657
0.369913
0.374416
0.379176
0.384139
0.389237
0.394374
0.399439
0.404285
0.408757
0.412651
0.415795
0.417945
0.418989
0.418557
0.41667
0.412583
0.406839
0.397518
0.387006
0.369507
0.353903
0.321374
0.303477
0.237557
0.233121
0.0817692
0.156306
0.266512
0.274678
0.287355
0.299006
0.306208
0.31257
0.316883
0.320302
0.322712
0.324666
0.326147
0.327436
0.328539
0.329584
0.330571
0.331556
0.332542
0.333557
0.334614
0.335735
0.336937
0.338242
0.339671
0.341247
0.342994
0.344939
0.347106
0.349518
0.352198
0.355166
0.358436
0.362019
0.365917
0.370122
0.374613
0.379357
0.384299
0.38937
0.394475
0.399502
0.404304
0.408726
0.412568
0.415658
0.417755
0.418746
0.418266
0.416329
0.412212
0.406427
0.397107
0.386554
0.369111
0.353432
0.321063
0.302977
0.237427
0.232549
0.0820062
0.15565
0.269124
0.27593
0.287969
0.29926
0.306354
0.312663
0.317007
0.320445
0.322893
0.324868
0.326368
0.327662
0.328768
0.329808
0.330791
0.331772
0.332756
0.333772
0.33483
0.335954
0.337159
0.338468
0.339901
0.341481
0.343231
0.345179
0.347348
0.349763
0.352444
0.355412
0.358681
0.362261
0.366154
0.37035
0.374828
0.379554
0.384474
0.389516
0.394587
0.399572
0.404328
0.408698
0.412485
0.415519
0.417561
0.418495
0.417967
0.415981
0.411834
0.406009
0.396693
0.386102
0.368721
0.352969
0.320767
0.302494
0.237324
0.231999
0.0822772
0.154997
0.271713
0.277186
0.288589
0.299526
0.306509
0.312767
0.317138
0.320598
0.323085
0.325084
0.326606
0.327907
0.329017
0.330054
0.331035
0.332011
0.332993
0.334008
0.335068
0.336194
0.337403
0.338715
0.340152
0.341735
0.343489
0.34544
0.347612
0.350029
0.352712
0.35568
0.358948
0.362525
0.36641
0.370597
0.375061
0.379768
0.384663
0.389675
0.394708
0.39965
0.404356
0.408671
0.412401
0.415375
0.41736
0.418237
0.41766
0.415624
0.411449
0.405586
0.396276
0.38565
0.368334
0.352514
0.320486
0.302027
0.237249
0.231469
0.0825801
0.154347
0.274283
0.278443
0.289213
0.299803
0.306673
0.312879
0.317278
0.32076
0.323288
0.325313
0.32686
0.328172
0.329288
0.330324
0.331302
0.332274
0.333254
0.334267
0.335328
0.336456
0.337668
0.338984
0.340425
0.342012
0.343769
0.345724
0.347899
0.350319
0.353003
0.355972
0.359238
0.36281
0.366689
0.370864
0.375313
0.379999
0.384867
0.389846
0.39484
0.399735
0.404388
0.408646
0.412315
0.415228
0.417154
0.417971
0.417344
0.415259
0.411055
0.405156
0.395856
0.385197
0.367952
0.352067
0.32022
0.301578
0.237201
0.23096
0.0829128
0.153703
0.276836
0.279698
0.28984
0.300091
0.306844
0.313
0.317426
0.320932
0.323501
0.325555
0.327129
0.328456
0.329581
0.330618
0.331594
0.332563
0.333539
0.334551
0.335612
0.336741
0.337956
0.339276
0.340722
0.342313
0.344074
0.346032
0.348211
0.350633
0.353319
0.356287
0.359551
0.363119
0.366989
0.371152
0.375584
0.380248
0.385088
0.390031
0.394982
0.399828
0.404425
0.408622
0.412228
0.415076
0.41694
0.417696
0.417018
0.414883
0.410652
0.404719
0.395431
0.384744
0.367574
0.351629
0.319968
0.301146
0.237177
0.230474
0.0832728
0.153066
0.279376
0.280949
0.290469
0.300388
0.307023
0.31313
0.317583
0.321113
0.323724
0.32581
0.327414
0.328759
0.329895
0.330935
0.331912
0.332878
0.333852
0.334862
0.335922
0.337053
0.33827
0.339594
0.341043
0.342639
0.344404
0.346366
0.348548
0.350973
0.35366
0.356628
0.359889
0.363452
0.367313
0.371463
0.375877
0.380516
0.385324
0.390229
0.395135
0.399928
0.404467
0.408599
0.412139
0.414919
0.416719
0.417413
0.416683
0.414498
0.41024
0.404276
0.395002
0.384291
0.367199
0.351199
0.31973
0.300731
0.237178
0.23001
0.0836577
0.152438
0.281907
0.282193
0.291098
0.300693
0.307209
0.313269
0.317746
0.321302
0.323956
0.326077
0.327714
0.329079
0.330231
0.331278
0.332256
0.333221
0.334193
0.335201
0.33626
0.337392
0.338611
0.339938
0.341392
0.342992
0.344762
0.346728
0.348913
0.35134
0.354028
0.356996
0.360254
0.36381
0.367662
0.371797
0.37619
0.380802
0.385578
0.390442
0.395299
0.400036
0.404512
0.408577
0.412047
0.414757
0.41649
0.41712
0.416337
0.414103
0.40982
0.403825
0.394568
0.383837
0.366827
0.350777
0.319503
0.300335
0.2372
0.229569
0.0840647
0.151821
0.284432
0.28343
0.291726
0.301005
0.307402
0.313415
0.317918
0.3215
0.324198
0.326355
0.328028
0.329417
0.330587
0.331644
0.332627
0.333592
0.334563
0.335569
0.336628
0.33776
0.338981
0.340311
0.341769
0.343373
0.345148
0.347118
0.349307
0.351736
0.354425
0.357391
0.360646
0.364195
0.368036
0.372154
0.376526
0.381109
0.385848
0.390669
0.395474
0.400152
0.404562
0.408556
0.411953
0.414589
0.416254
0.416817
0.41598
0.413698
0.409389
0.403367
0.39413
0.383383
0.366458
0.350364
0.319289
0.299956
0.237243
0.229152
0.0844909
0.151216
0.286954
0.284655
0.292351
0.301324
0.3076
0.313569
0.318096
0.321707
0.324449
0.326645
0.328355
0.329772
0.330963
0.332032
0.333024
0.333991
0.334963
0.335968
0.337026
0.338159
0.339382
0.340715
0.342176
0.343785
0.345564
0.347539
0.349731
0.352162
0.354852
0.357817
0.361067
0.364608
0.368436
0.372537
0.376884
0.381437
0.386137
0.39091
0.39566
0.400275
0.404616
0.408535
0.411855
0.414416
0.416009
0.416505
0.415613
0.413282
0.40895
0.402902
0.393686
0.382927
0.366092
0.349959
0.319086
0.299596
0.237305
0.22876
0.0849329
0.150627
0.289477
0.285867
0.292973
0.301648
0.307803
0.31373
0.318282
0.321921
0.324709
0.326944
0.328694
0.330142
0.331358
0.332443
0.333445
0.334418
0.335392
0.336398
0.337457
0.33859
0.339814
0.34115
0.342615
0.344228
0.346012
0.347991
0.350186
0.35262
0.355311
0.358273
0.361518
0.36505
0.368864
0.372945
0.377266
0.381785
0.386443
0.391166
0.395858
0.400406
0.404674
0.408515
0.411756
0.414237
0.415756
0.416184
0.415236
0.412856
0.408501
0.40243
0.393239
0.382472
0.365727
0.349563
0.318892
0.299254
0.237383
0.228393
0.0853872
0.150055
0.292003
0.287064
0.29359
0.301976
0.308011
0.313898
0.318475
0.322143
0.324976
0.327254
0.329044
0.330525
0.33177
0.332875
0.333891
0.334872
0.335851
0.336859
0.33792
0.339054
0.34028
0.341618
0.343087
0.344705
0.346494
0.348476
0.350675
0.353111
0.355801
0.358761
0.362001
0.365522
0.369321
0.37338
0.377672
0.382155
0.386769
0.391438
0.396068
0.400545
0.404736
0.408496
0.411653
0.414053
0.415496
0.415853
0.41485
0.412422
0.408044
0.401953
0.392787
0.382017
0.365365
0.349176
0.318707
0.298931
0.237476
0.228051
0.0858497
0.149504
0.294537
0.288243
0.294201
0.302308
0.308224
0.314073
0.318675
0.322373
0.325252
0.327572
0.329406
0.330923
0.332197
0.333326
0.334359
0.335352
0.336338
0.337352
0.338415
0.339551
0.34078
0.342121
0.343593
0.345216
0.347009
0.348996
0.351198
0.353636
0.356326
0.359283
0.362515
0.366025
0.369806
0.373842
0.378104
0.382547
0.387113
0.391725
0.396289
0.400692
0.404803
0.408477
0.411549
0.413864
0.41523
0.415516
0.414456
0.41198
0.407581
0.401471
0.392333
0.381564
0.365005
0.348798
0.31853
0.298627
0.23758
0.227736
0.0863165
0.148976
0.297082
0.289402
0.294803
0.302643
0.30844
0.314255
0.318881
0.32261
0.325535
0.327899
0.329777
0.331332
0.33264
0.333794
0.334848
0.335856
0.336853
0.337873
0.338942
0.340082
0.341315
0.342659
0.344135
0.345762
0.34756
0.349551
0.351757
0.354196
0.356885
0.359838
0.363062