/*--------------------------------*- C++ -*----------------------------------*\
| =========                 |                                                 |
| \\      /  F ield         | OpenFOAM: The Open Source CFD Toolbox           |
|  \\    /   O peration     | Version:  2.4.0                                 |
|   \\  /    A nd           | Web:      www.OpenFOAM.org                      |
|    \\/     M anipulation  |                                                 |
\*---------------------------------------------------------------------------*/
FoamFile
{
    version     2.0;
    format      ascii;
    class       volScalarField;
    location    "135";
    object      omega;
}
// * * * * * * * * * * * * * * * * * * * * * * * * * * * * * * * * * * * * * //

dimensions      [0 0 -1 0 0 0 0];

internalField   nonuniform List<scalar> 
10000
(
29.173
27.798
26.6899
25.7922
25.0592
24.4492
23.9314
23.4889
23.1093
22.7825
22.5
22.2553
22.0427
21.8588
21.7054
21.6091
21.7091
22.6686
28.0282
69.5172
29.173
27.798
26.6899
25.7921
25.0591
24.4491
23.9313
23.4888
23.1092
22.7824
22.5
22.2552
22.0426
21.8586
21.7044
21.6017
21.6584
22.3132
25.2285
36.9901
29.173
27.7979
26.6898
25.792
25.0589
24.4489
23.9311
23.4886
23.109
22.7822
22.4998
22.255
22.0424
21.8582
21.7025
21.5905
21.5917
21.9464
23.3299
27.2736
29.173
27.7979
26.6897
25.7918
25.0585
24.4485
23.9308
23.4883
23.1087
22.7819
22.4995
22.2547
22.0421
21.8577
21.7004
21.5791
21.5334
21.6815
22.2882
23.7636
29.1729
27.7978
26.6895
25.7914
25.0581
24.4481
23.9303
23.4879
23.1083
22.7815
22.4991
22.2544
22.0417
21.857
21.6983
21.5697
21.4911
21.517
21.7504
22.3176
29.1729
27.7977
26.6893
25.791
25.0575
24.4475
23.9298
23.4873
23.1078
22.781
22.4986
22.2539
22.0412
21.8563
21.6965
21.5627
21.4637
21.4228
21.4801
21.679
29.1728
27.7975
26.689
25.7905
25.0568
24.4467
23.9291
23.4866
23.1072
22.7804
22.498
22.2533
22.0406
21.8556
21.695
21.5578
21.447
21.3715
21.3463
21.3873
29.1728
27.7974
26.6886
25.7899
25.056
24.4458
23.9282
23.4858
23.1064
22.7796
22.4973
22.2525
22.0399
21.8547
21.6937
21.5545
21.4373
21.3444
21.2809
21.2519
29.1727
27.7972
26.6882
25.7892
25.0549
24.4447
23.9272
23.4848
23.1054
22.7787
22.4964
22.2516
22.039
21.8538
21.6924
21.5522
21.4316
21.3303
21.249
21.1887
29.1726
27.797
26.6877
25.7883
25.0537
24.4434
23.926
23.4837
23.1043
22.7776
22.4953
22.2506
22.038
21.8527
21.6912
21.5504
21.4281
21.3228
21.2334
21.1591
29.1725
27.7967
26.6872
25.7874
25.0524
24.4419
23.9245
23.4823
23.103
22.7763
22.4941
22.2494
22.0368
21.8516
21.69
21.5489
21.4257
21.3185
21.2255
21.1449
29.1724
27.7964
26.6866
25.7863
25.0508
24.4401
23.9229
23.4808
23.1015
22.7749
22.4926
22.248
22.0354
21.8502
21.6886
21.5473
21.4238
21.3158
21.2212
21.1377
29.1723
27.7961
26.6859
25.7851
25.049
24.4382
23.921
23.479
23.0998
22.7732
22.491
22.2464
22.0338
21.8487
21.687
21.5458
21.4221
21.3137
21.2183
21.1337
29.1722
27.7957
26.6852
25.7837
25.0471
24.436
23.9189
23.477
23.0978
22.7713
22.4892
22.2446
22.0321
21.8469
21.6853
21.544
21.4203
21.3117
21.2161
21.1309
29.172
27.7953
26.6843
25.7822
25.0449
24.4335
23.9165
23.4747
23.0956
22.7692
22.4871
22.2426
22.0301
21.845
21.6834
21.5421
21.4183
21.3097
21.214
21.1286
29.1719
27.7949
26.6834
25.7806
25.0424
24.4307
23.9138
23.4721
23.0931
22.7667
22.4847
22.2403
22.0278
21.8427
21.6812
21.5399
21.4162
21.3076
21.2118
21.1264
29.1717
27.7944
26.6824
25.7788
25.0398
24.4276
23.9108
23.4692
23.0903
22.764
22.4821
22.2377
22.0253
21.8402
21.6787
21.5375
21.4138
21.3052
21.2094
21.124
29.1715
27.7939
26.6813
25.7768
25.0369
24.4241
23.9074
23.466
23.0872
22.761
22.4791
22.2348
22.0224
21.8375
21.676
21.5348
21.4111
21.3025
21.2068
21.1213
29.1713
27.7934
26.6802
25.7748
25.0338
24.4204
23.9036
23.4624
23.0837
22.7576
22.4758
22.2315
22.0193
21.8343
21.6729
21.5318
21.4081
21.2996
21.2039
21.1184
29.171
27.7928
26.679
25.7726
25.0305
24.4162
23.8993
23.4584
23.0798
22.7538
22.4721
22.2279
22.0157
21.8309
21.6695
21.5284
21.4048
21.2963
21.2006
21.1152
29.1708
27.7921
26.6776
25.7702
25.0269
24.4118
23.8947
23.4539
23.0755
22.7496
22.468
22.2239
22.0118
21.827
21.6657
21.5246
21.4011
21.2926
21.1969
21.1115
29.1705
27.7915
26.6763
25.7678
25.0231
24.4069
23.8895
23.4489
23.0707
22.745
22.4635
22.2195
22.0074
21.8227
21.6614
21.5204
21.3969
21.2885
21.1929
21.1075
29.1702
27.7908
26.6748
25.7652
25.0191
24.4017
23.8839
23.4433
23.0654
22.7398
22.4584
22.2145
22.0025
21.8179
21.6567
21.5158
21.3923
21.2839
21.1883
21.103
29.17
27.79
26.6733
25.7625
25.0149
24.3962
23.8777
23.4372
23.0594
22.734
22.4528
22.209
21.9971
21.8125
21.6514
21.5106
21.3871
21.2788
21.1833
21.098
29.1696
27.7893
26.6718
25.7598
25.0106
24.3904
23.8711
23.4304
23.0528
22.7276
22.4465
22.2028
21.9911
21.8066
21.6456
21.5048
21.3814
21.2731
21.1776
21.0924
29.1693
27.7885
26.6702
25.7569
25.0061
24.3843
23.8639
23.4229
23.0455
22.7205
22.4395
22.196
21.9843
21.8
21.639
21.4983
21.375
21.2668
21.1713
21.0861
29.169
27.7876
26.6685
25.754
25.0016
24.378
23.8563
23.4148
23.0373
22.7125
22.4317
22.1883
21.9768
21.7925
21.6317
21.491
21.3678
21.2597
21.1643
21.0791
29.1687
27.7868
26.6668
25.751
24.9969
24.3715
23.8484
23.406
23.0284
22.7036
22.423
22.1798
21.9684
21.7842
21.6235
21.4829
21.3598
21.2517
21.1563
21.0712
29.1683
27.7859
26.6651
25.748
24.9922
24.3649
23.8401
23.3967
23.0186
22.6938
22.4133
22.1702
21.9589
21.7749
21.6142
21.4737
21.3507
21.2426
21.1473
21.0623
29.1679
27.785
26.6634
25.745
24.9875
24.3583
23.8316
23.3869
23.0081
22.683
22.4025
22.1594
21.9483
21.7643
21.6037
21.4633
21.3403
21.2323
21.1371
21.0521
29.1676
27.7841
26.6616
25.742
24.9828
24.3516
23.823
23.3768
22.9969
22.6713
22.3905
22.1475
21.9363
21.7524
21.5919
21.4515
21.3285
21.2206
21.1254
21.0404
29.1672
27.7832
26.6599
25.739
24.9781
24.345
23.8144
23.3664
22.9853
22.6589
22.3776
22.1343
21.923
21.739
21.5785
21.4381
21.3152
21.2072
21.112
21.0269
29.1668
27.7823
26.6581
25.7361
24.9736
24.3385
23.8059
23.3561
22.9735
22.6459
22.364
22.1201
21.9085
21.7243
21.5636
21.4231
21.3001
21.192
21.0967
21.0117
29.1664
27.7813
26.6564
25.7332
24.9691
24.3322
23.7976
23.3459
22.9616
22.6327
22.3498
22.1052
21.8931
21.7085
21.5475
21.4067
21.2835
21.1753
21.0798
20.9946
29.166
27.7804
26.6547
25.7304
24.9648
24.3261
23.7896
23.3359
22.9499
22.6196
22.3354
22.0899
21.877
21.6918
21.5304
21.3893
21.2657
21.1572
21.0615
20.976
29.1656
27.7795
26.653
25.7276
24.9607
24.3203
23.7819
23.3263
22.9385
22.6066
22.3212
22.0746
21.8608
21.6749
21.5128
21.3712
21.2472
21.1384
21.0423
20.9565
29.1652
27.7786
26.6514
25.725
24.9567
24.3147
23.7745
23.3172
22.9277
22.5942
22.3074
22.0596
21.8448
21.6581
21.4953
21.3531
21.2286
21.1193
21.0228
20.9367
29.1648
27.7777
26.6498
25.7224
24.9529
24.3094
23.7676
23.3086
22.9175
22.5825
22.2942
22.0453
21.8295
21.6418
21.4783
21.3354
21.2104
21.1006
21.0037
20.9171
29.1644
27.7769
26.6482
25.72
24.9493
24.3045
23.7612
23.3006
22.9079
22.5714
22.2819
22.0318
21.8149
21.6264
21.4621
21.3186
21.1929
21.0826
20.9853
20.8983
29.1641
27.776
26.6468
25.7176
24.9459
24.2998
23.7552
23.2931
22.899
22.5613
22.2705
22.0192
21.8014
21.612
21.447
21.3028
21.1766
21.0658
20.968
20.8805
29.1637
27.7752
26.6453
25.7154
24.9427
24.2955
23.7496
23.2863
22.8909
22.5519
22.26
22.0077
21.789
21.5988
21.4331
21.2883
21.1615
21.0502
20.952
20.8641
29.1633
27.7744
26.644
25.7133
24.9397
24.2915
23.7445
23.28
22.8835
22.5434
22.2505
21.9973
21.7777
21.5868
21.4204
21.2751
21.1478
21.0361
20.9374
20.8492
29.163
27.7737
26.6427
25.7113
24.9369
24.2878
23.7398
23.2743
22.8768
22.5357
22.2419
21.9879
21.7676
21.576
21.409
21.2632
21.1355
21.0233
20.9243
20.8357
29.1626
27.7729
26.6414
25.7095
24.9343
24.2844
23.7355
23.2691
22.8707
22.5288
22.2342
21.9794
21.7585
21.5663
21.3988
21.2525
21.1244
21.0119
20.9125
20.8237
29.1623
27.7722
26.6403
25.7077
24.9319
24.2812
23.7315
23.2643
22.8652
22.5225
22.2272
21.9719
21.7504
21.5577
21.3898
21.243
21.1146
21.0017
20.9021
20.813
29.162
27.7716
26.6392
25.7061
24.9297
24.2783
23.728
23.2601
22.8602
22.517
22.2211
21.9652
21.7431
21.5501
21.3817
21.2347
21.1059
20.9928
20.8929
20.8035
29.1617
27.7709
26.6381
25.7046
24.9277
24.2757
23.7247
23.2562
22.8558
22.512
22.2156
21.9592
21.7368
21.5433
21.3746
21.2272
21.0982
20.9849
20.8847
20.7952
29.1614
27.7703
26.6371
25.7032
24.9258
24.2733
23.7218
23.2528
22.8518
22.5075
22.2107
21.9539
21.7311
21.5373
21.3683
21.2207
21.0915
20.9779
20.8776
20.7879
29.1611
27.7698
26.6362
25.7019
24.924
24.2711
23.7191
23.2497
22.8483
22.5036
22.2063
21.9492
21.7261
21.532
21.3628
21.215
21.0855
20.9718
20.8713
20.7815
29.1609
27.7692
26.6354
25.7007
24.9225
24.2691
23.7168
23.2469
22.8451
22.5
22.2025
21.9451
21.7217
21.5274
21.358
21.2099
21.0803
20.9664
20.8658
20.7758
29.1606
27.7687
26.6346
25.6996
24.921
24.2673
23.7146
23.2444
22.8423
22.4969
22.1991
21.9414
21.7178
21.5233
21.3537
21.2055
21.0757
20.9617
20.861
20.7709
29.1604
27.7683
26.6339
25.6986
24.9197
24.2657
23.7127
23.2422
22.8398
22.4941
22.1961
21.9382
21.7144
21.5197
21.3499
21.2016
21.0717
20.9576
20.8568
20.7666
29.1602
27.7678
26.6332
25.6976
24.9185
24.2642
23.7109
23.2402
22.8375
22.4917
22.1934
21.9353
21.7114
21.5165
21.3466
21.1982
21.0682
20.954
20.8531
20.7628
29.1599
27.7674
26.6326
25.6968
24.9174
24.2629
23.7094
23.2384
22.8355
22.4895
22.191
21.9328
21.7087
21.5137
21.3437
21.1952
21.0651
20.9508
20.8498
20.7595
29.1598
27.7671
26.632
25.696
24.9164
24.2617
23.708
23.2368
22.8338
22.4875
22.1889
21.9306
21.7064
21.5113
21.3412
21.1926
21.0624
20.948
20.847
20.7566
29.1596
27.7667
26.6315
25.6953
24.9155
24.2606
23.7067
23.2354
22.8322
22.4858
22.1871
21.9286
21.7043
21.5091
21.339
21.1903
21.06
20.9456
20.8445
20.7541
29.1594
27.7664
26.631
25.6947
24.9147
24.2597
23.7056
23.2341
22.8308
22.4843
22.1855
21.9269
21.7025
21.5072
21.337
21.1882
21.0579
20.9435
20.8423
20.7518
29.1593
27.7661
26.6306
25.6941
24.914
24.2588
23.7046
23.233
22.8295
22.4829
22.184
21.9253
21.7009
21.5055
21.3352
21.1864
21.0561
20.9416
20.8404
20.7499
29.1591
27.7658
26.6302
25.6935
24.9133
24.258
23.7037
23.2319
22.8284
22.4817
22.1827
21.924
21.6994
21.5041
21.3337
21.1849
21.0545
20.9399
20.8387
20.7482
29.159
27.7656
26.6298
25.6931
24.9127
24.2573
23.7029
23.231
22.8274
22.4807
22.1816
21.9228
21.6982
21.5028
21.3324
21.1835
21.0531
20.9385
20.8372
20.7467
29.1589
27.7654
26.6295
25.6926
24.9122
24.2567
23.7022
23.2302
22.8266
22.4797
22.1806
21.9217
21.6971
21.5016
21.3312
21.1823
21.0518
20.9372
20.8359
20.7453
29.1587
27.7652
26.6292
25.6922
24.9117
24.2561
23.7015
23.2295
22.8258
22.4789
22.1797
21.9208
21.6961
21.5006
21.3301
21.1812
21.0507
20.9361
20.8348
20.7442
29.1586
27.765
26.6289
25.6919
24.9113
24.2556
23.7009
23.2289
22.8251
22.4782
22.1789
21.92
21.6952
21.4997
21.3292
21.1802
21.0498
20.9351
20.8338
20.7431
29.1586
27.7648
26.6287
25.6916
24.9109
24.2552
23.7004
23.2283
22.8245
22.4775
22.1782
21.9192
21.6945
21.4989
21.3284
21.1794
21.0489
20.9342
20.8329
20.7422
29.1585
27.7647
26.6285
25.6913
24.9106
24.2548
23.7
23.2278
22.8239
22.4769
22.1776
21.9186
21.6938
21.4982
21.3277
21.1787
21.0482
20.9335
20.8321
20.7415
29.1584
27.7645
26.6283
25.691
24.9103
24.2544
23.6996
23.2274
22.8235
22.4764
22.1771
21.918
21.6932
21.4976
21.3271
21.178
21.0475
20.9328
20.8314
20.7408
29.1583
27.7644
26.6281
25.6908
24.91
24.2541
23.6992
23.227
22.823
22.4759
22.1766
21.9175
21.6927
21.4971
21.3265
21.1775
21.0469
20.9322
20.8308
20.7401
29.1583
27.7643
26.6279
25.6906
24.9097
24.2538
23.6989
23.2266
22.8227
22.4755
22.1761
21.9171
21.6922
21.4966
21.326
21.1769
21.0464
20.9317
20.8303
20.7396
29.1582
27.7642
26.6278
25.6904
24.9095
24.2535
23.6986
23.2263
22.8223
22.4752
22.1758
21.9167
21.6918
21.4962
21.3256
21.1765
21.0459
20.9312
20.8298
20.7391
29.1581
27.7641
26.6277
25.6902
24.9093
24.2533
23.6983
23.226
22.822
22.4749
22.1754
21.9163
21.6914
21.4958
21.3252
21.1761
21.0455
20.9308
20.8294
20.7387
29.1581
27.764
26.6275
25.6901
24.9091
24.2531
23.6981
23.2258
22.8218
22.4746
22.1751
21.916
21.6911
21.4955
21.3248
21.1758
21.0452
20.9304
20.829
20.7383
29.1581
27.7639
26.6274
25.69
24.909
24.2529
23.6979
23.2256
22.8215
22.4743
22.1749
21.9157
21.6908
21.4952
21.3245
21.1754
21.0449
20.9301
20.8287
20.738
29.158
27.7639
26.6273
25.6898
24.9088
24.2528
23.6977
23.2254
22.8213
22.4741
22.1746
21.9155
21.6906
21.4949
21.3243
21.1752
21.0446
20.9298
20.8284
20.7377
29.158
27.7638
26.6273
25.6897
24.9087
24.2526
23.6976
23.2252
22.8211
22.4739
22.1744
21.9153
21.6904
21.4947
21.324
21.1749
21.0443
20.9296
20.8281
20.7374
29.1579
27.7637
26.6272
25.6896
24.9086
24.2525
23.6974
23.2251
22.8209
22.4737
22.1742
21.9151
21.6902
21.4945
21.3238
21.1747
21.0441
20.9294
20.8279
20.7372
29.1579
27.7637
26.6271
25.6896
24.9085
24.2524
23.6973
23.2249
22.8208
22.4736
22.1741
21.9149
21.69
21.4943
21.3236
21.1745
21.0439
20.9292
20.8277
20.737
29.1579
27.7636
26.6271
25.6895
24.9084
24.2523
23.6972
23.2248
22.8207
22.4734
22.1739
21.9148
21.6898
21.4941
21.3235
21.1744
21.0437
20.929
20.8275
20.7368
29.1579
27.7636
26.627
25.6894
24.9083
24.2522
23.6971
23.2247
22.8206
22.4733
22.1738
21.9146
21.6897
21.494
21.3233
21.1742
21.0436
20.9288
20.8274
20.7367
29.1579
27.7636
26.6269
25.6894
24.9083
24.2521
23.697
23.2246
22.8204
22.4732
22.1737
21.9145
21.6896
21.4939
21.3232
21.1741
21.0435
20.9287
20.8272
20.7365
29.1578
27.7635
26.6269
25.6893
24.9082
24.252
23.6969
23.2245
22.8204
22.4731
22.1736
21.9144
21.6895
21.4937
21.3231
21.174
21.0433
20.9286
20.8271
20.7364
29.1578
27.7635
26.6269
25.6892
24.9081
24.252
23.6969
23.2244
22.8203
22.473
22.1735
21.9143
21.6894
21.4936
21.323
21.1738
21.0432
20.9285
20.827
20.7363
29.1578
27.7635
26.6268
25.6892
24.9081
24.2519
23.6968
23.2244
22.8202
22.4729
22.1734
21.9142
21.6893
21.4935
21.3229
21.1738
21.0431
20.9284
20.8269
20.7362
29.1578
27.7635
26.6268
25.6892
24.908
24.2519
23.6967
23.2243
22.8201
22.4729
22.1733
21.9141
21.6892
21.4935
21.3228
21.1737
21.0431
20.9283
20.8268
20.7361
29.1578
27.7634
26.6268
25.6891
24.908
24.2518
23.6967
23.2242
22.8201
22.4728
22.1733
21.9141
21.6891
21.4934
21.3227
21.1736
21.043
20.9282
20.8267
20.736
29.1578
27.7634
26.6267
25.6891
24.908
24.2518
23.6966
23.2242
22.82
22.4728
22.1732
21.914
21.6891
21.4933
21.3227
21.1735
21.0429
20.9281
20.8267
20.7359
29.1578
27.7634
26.6267
25.6891
24.9079
24.2517
23.6966
23.2241
22.82
22.4727
22.1732
21.914
21.689
21.4933
21.3226
21.1735
21.0428
20.9281
20.8266
20.7359
29.1577
27.7634
26.6267
25.689
24.9079
24.2517
23.6966
23.2241
22.8199
22.4727
22.1731
21.9139
21.689
21.4932
21.3226
21.1734
21.0428
20.928
20.8266
20.7358
29.1577
27.7634
26.6267
25.689
24.9079
24.2517
23.6965
23.2241
22.8199
22.4726
22.1731
21.9139
21.6889
21.4932
21.3225
21.1734
21.0427
20.928
20.8265
20.7358
29.1577
27.7634
26.6267
25.689
24.9079
24.2516
23.6965
23.224
22.8199
22.4726
22.1731
21.9138
21.6889
21.4931
21.3225
21.1733
21.0427
20.9279
20.8265
20.7357
29.1577
27.7634
26.6267
25.689
24.9078
24.2516
23.6965
23.224
22.8198
22.4726
22.173
21.9138
21.6888
21.4931
21.3224
21.1733
21.0427
20.9279
20.8264
20.7357
29.1577
27.7633
26.6266
25.689
24.9078
24.2516
23.6965
23.224
22.8198
22.4725
22.173
21.9138
21.6888
21.4931
21.3224
21.1733
21.0426
20.9279
20.8264
20.7357
29.1577
27.7633
26.6266
25.689
24.9078
24.2516
23.6964
23.224
22.8198
22.4725
22.173
21.9138
21.6888
21.4931
21.3224
21.1732
21.0426
20.9278
20.8264
20.7356
29.1577
27.7633
26.6266
25.6889
24.9078
24.2516
23.6964
23.224
22.8198
22.4725
22.1729
21.9137
21.6888
21.493
21.3224
21.1732
21.0426
20.9278
20.8263
20.7356
29.1577
27.7633
26.6266
25.6889
24.9078
24.2516
23.6964
23.2239
22.8198
22.4725
22.1729
21.9137
21.6887
21.493
21.3223
21.1732
21.0426
20.9278
20.8263
20.7356
29.1577
27.7633
26.6266
25.6889
24.9078
24.2515
23.6964
23.2239
22.8197
22.4725
22.1729
21.9137
21.6887
21.493
21.3223
21.1732
21.0425
20.9278
20.8263
20.7356
29.1577
27.7633
26.6266
25.6889
24.9078
24.2515
23.6964
23.2239
22.8197
22.4724
22.1729
21.9137
21.6887
21.493
21.3223
21.1732
21.0425
20.9277
20.8263
20.7355
29.1577
27.7633
26.6266
25.6889
24.9077
24.2515
23.6964
23.2239
22.8197
22.4724
22.1729
21.9137
21.6887
21.493
21.3223
21.1732
21.0425
20.9277
20.8263
20.7355
29.1577
27.7633
26.6266
25.6889
24.9077
24.2515
23.6964
23.2239
22.8197
22.4724
22.1729
21.9137
21.6887
21.493
21.3223
21.1732
21.0425
20.9277
20.8263
20.7355
29.1577
27.7633
26.6266
25.6889
24.9077
24.2515
23.6964
23.2239
22.8197
22.4724
22.1729
21.9137
21.6887
21.493
21.3223
21.1732
21.0425
20.9277
20.8263
20.7355
29.1577
27.7633
26.6266
25.6889
24.9077
24.2515
23.6964
23.2239
22.8197
22.4724
22.1729
21.9137
21.6887
21.493
21.3223
21.1732
21.0425
20.9278
20.8263
20.7356
946.447
886.741
836.525
793.828
757.199
725.526
697.94
673.75
652.404
633.453
616.534
601.345
587.637
575.205
563.876
553.505
543.97
535.168
527.012
519.427
512.35
505.727
499.51
493.661
488.144
482.93
477.992
473.308
468.859
464.626
460.595
456.751
453.084
449.581
446.234
443.033
439.97
437.037
434.228
431.536
428.953
426.473
424.091
421.799
419.592
417.463
415.406
413.414
411.483
409.604
407.775
405.988
404.241
402.528
400.85
399.201
397.587
396.001
394.455
392.943
391.484
390.069
388.724
387.439
386.249
385.137
384.151
383.263
382.531
381.913
381.483
381.171
381.069
381.071
381.293
381.578
382.081
382.576
383.279
383.853
91.0127
121.91
141.366
154.19
162.786
168.509
172.197
174.404
175.52
175.823
175.519
174.761
173.666
172.323
170.801
169.152
167.417
165.629
163.811
161.982
160.158
158.35
156.566
154.814
153.097
151.419
149.784
148.193
146.648
145.148
143.695
142.289
140.929
139.616
138.348
137.126
135.949
134.815
133.725
132.677
131.671
130.705
129.779
128.89
128.039
127.223
126.442
125.693
124.974
124.286
123.624
122.988
122.377
121.788
121.219
120.671
120.141
119.63
119.134
118.658
118.197
117.757
117.333
116.932
116.55
116.195
115.863
115.563
115.289
115.054
114.848
114.688
114.558
114.482
114.432
114.443
114.47
114.568
114.661
114.889
36.8136
46.1839
54.3976
61.3783
67.2492
72.1602
76.2479
79.6301
82.407
84.6635
86.4725
87.896
88.9878
89.7939
90.3545
90.7041
90.8728
90.8867
90.7685
90.5379
90.212
89.8058
89.3323
88.8028
88.2272
87.6139
86.9706
86.3037
85.6189
84.9213
84.2152
83.5043
82.792
82.0812
81.3745
80.674
79.9817
79.2993
78.6282
77.9697
77.3247
76.6942
76.0789
75.4792
74.8956
74.3283
73.7772
73.2424
72.7236
72.2205
71.7325
71.2593
70.8
70.3541
69.9208
69.4998
69.09
68.6914
68.3033
67.9262
67.5592
67.2037
66.8591
66.5277
66.2087
65.9057
65.6177
65.3496
65.0997
64.8746
64.6712
64.498
64.3491
64.2354
64.1465
64.0968
64.0685
64.083
64.1111
64.2075
26.5849
29.9927
33.5181
36.9303
40.1253
43.0616
45.7277
48.127
50.27
52.1707
53.8445
55.3073
56.575
57.6629
58.5858
59.3575
59.9914
60.4998
60.8943
61.1855
61.3836
61.4977
61.5364
61.5076
61.4186
61.276
61.0859
60.8539
60.5852
60.2845
59.9561
59.6039
59.2316
58.8423
58.4392
58.025
57.6021
57.1728
56.7392
56.3032
55.8664
55.4303
54.9963
54.5656
54.1392
53.7179
53.3024
52.8935
52.4913
52.0964
51.7088
51.3287
50.9559
50.5904
50.232
49.8806
49.5359
49.198
48.8666
48.542
48.2241
47.9135
47.6103
47.3158
47.0302
46.7555
46.4921
46.2426
46.0074
45.79
45.5903
45.4126
45.2556
45.1246
45.0159
44.9358
44.8771
44.8487
44.8382
44.8694
23.3452
24.7412
26.3589
28.0794
29.8213
31.5322
33.1793
34.7427
36.2106
37.5769
38.8388
39.9961
41.05
42.003
42.8586
43.6204
44.2926
44.8798
45.3864
45.8171
46.1764
46.4689
46.6991
46.8714
46.9899
47.0588
47.0818
47.0629
47.0055
46.9131
46.7889
46.6359
46.4571
46.2551
46.0325
45.7919
45.5353
45.2651
44.983
44.6911
44.391
44.0844
43.7726
43.457
43.1389
42.8194
42.4993
42.1796
41.8609
41.5439
41.2291
40.9169
40.6075
40.3013
39.9983
39.6987
39.4026
39.1101
38.8214
38.5366
38.2561
37.9802
37.7094
37.4445
37.186
36.9354
36.6932
36.4614
36.2409
36.0338
35.841
35.6651
35.5064
35.3678
35.2483
35.1511
35.073
35.0185
34.9813
34.9738
22.0663
22.6501
23.3979
24.2646
25.2074
26.191
27.1881
28.1785
29.1471
30.083
30.9785
31.828
32.6278
33.3754
34.0695
34.7093
35.295
35.827
36.3062
36.734
37.1117
37.441
37.7239
37.9622
38.1579
38.3133
38.4303
38.5112
38.5581
38.5732
38.5584
38.516
38.4479
38.3562
38.2426
38.1092
37.9576
37.7896
37.6069
37.411
37.2035
36.9858
36.7591
36.5249
36.2842
36.0382
35.7878
35.534
35.2776
35.0193
34.7597
34.4994
34.2388
33.9784
33.7186
33.4596
33.2016
32.9451
32.6902
32.4373
32.1868
31.939
31.6945
31.454
31.2182
30.9879
30.7642
30.5483
30.3413
30.1447
29.9597
29.7881
29.6306
29.4892
29.3639
29.2565
29.1658
29.0941
29.0382
29.0054
21.5116
21.7355
22.0599
22.4738
22.9609
23.5032
24.0839
24.6882
25.3038
25.9206
26.5303
27.1264
27.7038
28.2583
28.7867
29.2867
29.7564
30.1945
30.6002
30.9729
31.3124
31.6189
31.8926
32.1341
32.3439
32.5229
32.6719
32.7921
32.8844
32.9501
32.9903
33.0063
32.9993
32.9706
32.9215
32.8533
32.7673
32.6648
32.547
32.4152
32.2705
32.1141
31.9472
31.7708
31.586
31.3937
31.1948
30.9903
30.7809
30.5673
30.3502
30.1302
29.9078
29.6836
29.458
29.2313
29.004
28.7764
28.549
28.322
28.0959
27.8713
27.6485
27.4283
27.2113
26.9984
26.7904
26.5883
26.3933
26.2065
26.0292
25.8625
25.7076
25.5657
25.4373
25.3237
25.2245
25.141
25.0716
25.0212
21.2611
21.319
21.4326
21.6034
21.8283
22.101
22.4137
22.7581
23.126
23.5101
23.9037
24.301
24.6972
25.0879
25.4697
25.8394
26.1948
26.5336
26.8543
27.1555
27.4361
27.6955
27.933
28.1482
28.3411
28.5116
28.6598
28.786
28.8906
28.9739
29.0365
29.0791
29.1023
29.1069
29.0936
29.0632
29.0166
28.9547
28.8782
28.7882
28.6855
28.571
28.4455
28.3099
28.1652
28.0119
27.8511
27.6834
27.5095
27.33
27.1457
26.9572
26.7648
26.5692
26.3709
26.1703
25.9677
25.7637
25.5586
25.3529
25.147
24.9415
24.7368
24.5335
24.3324
24.1341
23.9394
23.7494
23.5648
23.3868
23.2165
23.0548
22.9029
22.7617
22.6319
22.5144
22.4092
22.3173
22.2378
22.1747
21.1463
21.1266
21.1354
21.1771
21.2535
21.3641
21.507
21.6786
21.8751
22.092
22.3249
22.5696
22.8224
23.0795
23.3378
23.5944
23.8468
24.0929
24.3306
24.5584
24.7749
24.9789
25.1693
25.3454
25.5066
25.6523
25.7822
25.8961
25.9938
26.0753
26.1408
26.1904
26.2243
26.2428
26.2464
26.2354
26.2104
26.1718
26.1202
26.0563
25.9805
25.8935
25.796
25.6887
25.572
25.4468
25.3136
25.173
25.0257
24.8721
24.713
24.5487
24.3799
24.2069
24.0304
23.8506
23.6681
23.4832
23.2964
23.1082
22.9191
22.7294
22.5397
22.3507
22.1629
21.9769
21.7937
21.6139
21.4384
21.2681
21.1041
20.9471
20.7982
20.6583
20.5279
20.4079
20.2985
20.2004
20.1133
20.0405
21.0933
21.0374
20.995
20.9697
20.9643
20.9805
21.019
21.0792
21.1602
21.2599
21.3762
21.5066
21.6485
21.7995
21.957
22.1188
22.2826
22.4466
22.6087
22.7676
22.9216
23.0694
23.21
23.3423
23.4654
23.5785
23.6812
23.7728
23.8529
23.9213
23.9777
24.022
24.0541
24.074
24.0819
24.0778
24.062
24.0347
23.9962
23.9469
23.8871
23.8172
23.7376
23.6488
23.5512
23.4453
23.3316
23.2106
23.0827
22.9485
22.8083
22.6626
22.512
22.3567
22.1973
22.0342
21.8677
21.6984
21.5266
21.3527
21.1773
21.0008
20.8237
20.6465
20.4699
20.2944
20.1208
19.9497
19.782
19.6185
19.46
19.3073
19.1613
19.0228
18.8923
18.7707
18.6582
18.5554
18.4623
18.3821
21.0686
20.996
20.929
20.87
20.8212
20.7845
20.7613
20.7526
20.7586
20.7792
20.8137
20.8611
20.9201
20.9893
21.067
21.1517
21.2417
21.3355
21.4317
21.5287
21.6252
21.72
21.812
21.9002
21.9836
22.0613
22.1327
22.197
22.2538
22.3025
22.3427
22.3741
22.3965
22.4096
22.4133
22.4077
22.3925
22.368
22.3341
22.2911
22.2391
22.1783
22.109
22.0314
21.9458
21.8526
21.752
21.6445
21.5304
21.41
21.2837
21.1519
21.015
20.8733
20.7273
20.5772
20.4235
20.2666
20.1069
19.9447
19.7806
19.6149
19.4481
19.2808
19.1135
18.9468
18.7813
18.6177
18.4566
18.2989
18.1452
17.9962
17.8529
17.7158
17.5855
17.4628
17.3479
17.2414
17.1435
17.0575
21.0568
20.9766
20.8981
20.8226
20.7515
20.6864
20.6284
20.5788
20.5385
20.5081
20.4877
20.4773
20.4765
20.4849
20.5016
20.5257
20.5563
20.5923
20.6326
20.6762
20.722
20.769
20.8161
20.8625
20.9072
20.9495
20.9886
21.0238
21.0545
21.0801
21.1002
21.1142
21.1219
21.1229
21.117
21.1039
21.0835
21.0557
21.0204
20.9777
20.9274
20.8698
20.8049
20.7328
20.6537
20.5678
20.4753
20.3764
20.2714
20.1604
20.0439
19.9221
19.7952
19.6636
19.5277
19.3876
19.2439
19.0967
18.9465
18.7937
18.6386
18.4818
18.3235
18.1643
18.0048
17.8453
17.6866
17.5292
17.3737
17.2208
17.0712
16.9255
16.7845
16.6487
16.5187
16.3951
16.2784
16.169
16.0671
15.9764
21.0507
20.9671
20.8833
20.8
20.718
20.6381
20.5614
20.4888
20.4212
20.3593
20.3038
20.255
20.2131
20.1782
20.1502
20.1286
20.1132
20.1032
20.0981
20.0972
20.0998
20.1051
20.1124
20.1208
20.1298
20.1384
20.1462
20.1524
20.1564
20.1577
20.1558
20.1501
20.1403
20.126
20.1069
20.0826
20.0529
20.0176
19.9765
19.9296
19.8767
19.8178
19.7529
19.682
19.6051
19.5223
19.4337
19.3395
19.2397
19.1346
19.0244
18.9092
18.7892
18.6648
18.5361
18.4035
18.2672
18.1275
17.9847
17.8392
17.6913
17.5414
17.39
17.2374
17.0841
16.9306
16.7775
16.6252
16.4743
16.3255
16.1793
16.0363
15.8972
15.7625
15.6328
15.5086
15.3903
15.2784
15.1732
15.0785
21.047
20.962
20.8758
20.7889
20.7016
20.6145
20.5281
20.4431
20.3602
20.28
20.2031
20.13
20.0612
19.997
19.9377
19.8832
19.8335
19.7885
19.7479
19.7114
19.6786
19.6491
19.6222
19.5976
19.5746
19.5527
19.5314
19.5102
19.4884
19.4656
19.4413
19.4152
19.3866
19.3553
19.3209
19.283
19.2414
19.1958
19.146
19.0918
19.033
18.9695
18.9012
18.828
18.7499
18.6669
18.5791
18.4863
18.3888
18.2865
18.1797
18.0683
17.9527
17.8329
17.7091
17.5816
17.4506
17.3163
17.179
17.039
16.8966
16.7522
16.606
16.4586
16.3103
16.1616
16.0129
15.8648
15.7176
15.5721
15.4286
15.2879
15.1503
15.0165
14.887
14.7621
14.6425
14.5284
14.4203
14.3223
21.0444
20.9587
20.8715
20.783
20.6933
20.6027
20.5115
20.4202
20.329
20.2386
20.1493
20.0617
19.9762
19.8931
19.8129
19.7358
19.6619
19.5914
19.5243
19.4605
19.3998
19.3422
19.2874
19.235
19.1847
19.1361
19.0889
19.0427
18.9971
18.9515
18.9058
18.8593
18.8119
18.7631
18.7125
18.6598
18.6048
18.5472
18.4867
18.423
18.356
18.2855
18.2114
18.1334
18.0516
17.9659
17.8761
17.7823
17.6844
17.5825
17.4767
17.3669
17.2533
17.136
17.015
16.8907
16.7631
16.6324
16.4989
16.3628
16.2244
16.084
15.9419
15.7984
15.6539
15.5089
15.3637
15.2187
15.0745
14.9315
14.7902
14.6511
14.5148
14.3816
14.252
14.1266
14.0056
13.8896
13.779
13.6781
21.042
20.9561
20.8685
20.7792
20.6885
20.5963
20.5028
20.4083
20.313
20.2172
20.1211
20.0252
19.9298
19.8352
19.7418
19.6499
19.5597
19.4715
19.3854
19.3016
19.2201
19.1409
19.064
18.9892
18.9165
18.8455
18.7762
18.7082
18.6413
18.5751
18.5095
18.444
18.3785
18.3125
18.2458
18.1781
18.1091
18.0385
17.9661
17.8917
17.8151
17.736
17.6542
17.5697
17.4822
17.3917
17.298
17.2011
17.1009
16.9974
16.8906
16.7804
16.667
16.5503
16.4304
16.3075
16.1817
16.0531
15.9219
15.7883
15.6526
15.5149
15.3755
15.2348
15.0931
14.9508
14.8081
14.6655
14.5235
14.3824
14.2427
14.1048
13.9692
13.8363
13.7066
13.5805
13.4583
13.3404
13.2274
13.124
21.0395
20.9535
20.8658
20.7763
20.685
20.5922
20.4977
20.4017
20.3043
20.2058
20.1062
20.0058
19.9048
19.8036
19.7022
19.6011
19.5005
19.4007
19.3018
19.204
19.1075
19.0125
18.9189
18.8269
18.7364
18.6474
18.5599
18.4736
18.3885
18.3045
18.2212
18.1386
18.0563
17.9743
17.8922
17.8098
17.7269
17.6433
17.5587
17.473
17.3859
17.2971
17.2067
17.1143
17.0198
16.9231
16.824
16.7224
16.6183
16.5116
16.4022
16.2901
16.1752
16.0576
15.9374
15.8145
15.689
15.5611
15.4309
15.2985
15.1642
15.0281
14.8905
14.7516
14.6117
14.4711
14.3301
14.1892
14.0486
13.9087
13.7701
13.6329
13.4977
13.3648
13.2347
13.1078
12.9843
12.8647
12.7495
12.6437
21.0369
20.9509
20.8631
20.7735
20.6821
20.5889
20.494
20.3973
20.299
20.1992
20.0978
19.9951
19.8912
19.7862
19.6804
19.5739
19.467
19.3598
19.2526
19.1456
19.0389
18.9327
18.8272
18.7226
18.6187
18.5159
18.4139
18.313
18.213
18.1139
18.0157
17.9181
17.8211
17.7246
17.6284
17.5324
17.4364
17.3401
17.2436
17.1464
17.0486
16.9499
16.8501
16.7491
16.6467
16.5428
16.4373
16.33
16.2208
16.1096
15.9963
15.881
15.7634
15.6437
15.5217
15.3976
15.2713
15.1429
15.0125
14.8803
14.7463
14.6108
14.4739
14.3358
14.1969
14.0572
13.9173
13.7772
13.6374
13.4983
13.3601
13.2232
13.088
12.9549
12.8242
12.6962
12.5714
12.4501
12.3327
12.2247
21.034
20.948
20.8602
20.7705
20.6791
20.5858
20.4907
20.3938
20.2951
20.1946
20.0924
19.9886
19.8832
19.7763
19.668
19.5586
19.448
19.3365
19.2242
19.1113
18.998
18.8845
18.7708
18.6572
18.5438
18.4307
18.318
18.2058
18.0941
17.983
17.8724
17.7624
17.653
17.544
17.4354
17.3271
17.2191
17.1112
17.0032
16.8952
16.7869
16.6782
16.569
16.4592
16.3485
16.2369
16.1242
16.0104
15.8953
15.7787
15.6607
15.5411
15.4198
15.2969
15.1722
15.0458
14.9176
14.7878
14.6563
14.5232
14.3887
14.2528
14.1158
13.9778
13.8389
13.6995
13.5598
13.42
13.2804
13.1414
13.0032
12.8662
12.7307
12.5969
12.4654
12.3363
12.2101
12.0869
11.9675
11.8574
21.0308
20.9448
20.857
20.7674
20.6759
20.5826
20.4875
20.3905
20.2916
20.1909
20.0883
19.984
19.8778
19.77
19.6605
19.5494
19.4369
19.3229
19.2077
19.0913
18.974
18.8557
18.7368
18.6172
18.4973
18.377
18.2565
18.136
18.0155
17.8952
17.775
17.655
17.5354
17.416
17.2969
17.1782
17.0596
16.9413
16.8231
16.705
16.5869
16.4688
16.3504
16.2318
16.1128
15.9933
15.8733
15.7525
15.6309
15.5085
15.385
15.2604
15.1347
15.0078
14.8796
14.75
14.6192
14.487
14.3536
14.2188
14.083
13.946
13.8081
13.6693
13.5299
13.3901
13.25
13.1099
12.97
12.8305
12.6919
12.5543
12.4181
12.2835
12.1509
12.0205
11.8927
11.7677
11.6462
11.534
21.0272
20.9412
20.8534
20.7639
20.6724
20.5791
20.484
20.387
20.288
20.1872
20.0845
19.98
19.8735
19.7653
19.6552
19.5433
19.4297
19.3144
19.1976
19.0793
18.9595
18.8385
18.7163
18.593
18.4687
18.3437
18.2179
18.0916
17.9648
17.8376
17.7103
17.5827
17.4551
17.3275
17.1999
17.0724
16.945
16.8178
16.6907
16.5636
16.4367
16.3099
16.183
16.0561
15.9291
15.8019
15.6745
15.5467
15.4185
15.2898
15.1606
15.0306
14.8999
14.7684
14.6361
14.5028
14.3686
14.2334
14.0973
13.9602
13.8223
13.6836
13.5441
13.404
13.2635
13.1226
12.9815
12.8405
12.6998
12.5596
12.4201
12.2816
12.1443
12.0086
11.8746
11.7428
11.6132
11.4864
11.3627
11.2485
21.0232
20.9372
20.8495
20.7599
20.6685
20.5753
20.4802
20.3831
20.2842
20.1834
20.0807
19.976
19.8695
19.761
19.6507
19.5384
19.4243