/*--------------------------------*- C++ -*----------------------------------*\
| =========                 |                                                 |
| \\      /  F ield         | OpenFOAM: The Open Source CFD Toolbox           |
|  \\    /   O peration     | Version:  2.4.0                                 |
|   \\  /    A nd           | Web:      www.OpenFOAM.org                      |
|    \\/     M anipulation  |                                                 |
\*---------------------------------------------------------------------------*/
FoamFile
{
    version     2.0;
    format      ascii;
    class       volScalarField;
    location    "1.01";
    object      pMean;
}
// * * * * * * * * * * * * * * * * * * * * * * * * * * * * * * * * * * * * * //

dimensions      [0 2 -2 0 0 0 0];

internalField   nonuniform List<scalar> 
2320
(
3.12554
3.12268
3.11313
3.11455
3.1048
3.10573
3.09166
3.09417
3.08045
3.0844
3.06371
3.07032
3.04571
3.05746
3.0208
3.03531
2.98309
3.00059
2.92574
2.94332
3.12246
3.1178
3.10771
3.10909
3.09898
3.10028
3.08576
3.08757
3.07314
3.07646
3.05511
3.06133
3.03607
3.04635
3.00936
3.02149
2.96898
2.98259
2.90599
2.91829
3.12173
3.11726
3.10862
3.10979
3.10025
3.09979
3.08813
3.08995
3.07507
3.07756
3.05913
3.06417
3.04028
3.0497
3.01562
3.02756
2.98003
2.99487
2.9263
2.93514
3.12114
3.1184
3.10959
3.1096
3.0999
3.09965
3.08789
3.08773
3.07277
3.07494
3.0578
3.06146
3.03863
3.04556
3.01417
3.02265
2.97854
2.99007
2.92458
2.93177
3.12147
3.11796
3.10996
3.10845
3.10084
3.0995
3.08889
3.08688
3.07523
3.07418
3.05957
3.05964
3.04233
3.04322
3.01876
3.02314
2.9882
2.99276
2.94074
2.94022
3.11986
3.11478
3.10613
3.10415
3.09757
3.09533
3.0843
3.08144
3.07022
3.06848
3.05513
3.05373
3.03716
3.03636
3.01491
3.01428
2.98459
2.98339
2.93976
2.93416
3.12017
3.11247
3.10571
3.10254
3.09829
3.09313
3.08493
3.07909
3.07094
3.06527
3.05646
3.0505
3.04012
3.03349
3.02002
3.01196
2.99252
2.98284
2.95081
2.93939
3.11986
3.11267
3.10703
3.10365
3.09891
3.09387
3.08624
3.07922
3.0724
3.06519
3.05774
3.04912
3.04251
3.03201
3.02449
3.01037
3.00109
2.98214
2.96562
2.94156
3.12224
3.1125
3.11005
3.10483
3.10178
3.09355
3.08833
3.07769
3.07512
3.06428
3.06215
3.04928
3.0489
3.03244
3.03303
3.01013
3.01377
2.98343
2.98297
2.94522
3.12309
3.1145
3.1123
3.10732
3.10342
3.09613
3.0902
3.08085
3.07716
3.06783
3.06526
3.05395
3.05338
3.03925
3.04122
3.02083
3.02847
2.99846
3.01163
2.96241
3.12625
3.11415
3.11432
3.10719
3.10518
3.09449
3.09161
3.07773
3.07859
3.06435
3.06851
3.05195
3.05984
3.03802
3.05179
3.01926
3.04612
2.99928
3.03732
2.9756
3.12656
3.11695
3.11626
3.11161
3.10671
3.09761
3.0928
3.08161
3.07808
3.06759
3.06798
3.0576
3.061
3.04813
3.05591
3.03725
3.05558
3.02944
3.05698
3.0086
3.12975
3.11799
3.11946
3.11236
3.1092
3.09835
3.09474
3.08041
3.07977
3.06468
3.07021
3.05479
3.06473
3.04362
3.06052
3.02732
3.06881
3.01336
3.09579
2.99946
3.1302
3.12104
3.12007
3.115
3.10954
3.10076
3.09218
3.08183
3.07578
3.06614
3.06542
3.06016
3.06227
3.05553
3.05645
3.04737
3.06366
3.04866
3.10117
3.07708
3.13307
3.12181
3.12354
3.11678
3.11308
3.1006
3.09226
3.07804
3.0746
3.05962
3.06431
3.05343
3.06249
3.04852
3.05758
3.03772
3.06708
3.0241
3.11459
3.02305
3.13336
3.12533
3.12603
3.12187
3.11469
3.10292
3.08892
3.07836
3.06791
3.05912
3.06142
3.05996
3.0625
3.06327
3.05154
3.05749
3.04396
3.0538
3.09092
3.10707
3.13667
3.1264
3.13034
3.12432
3.11906
3.1026
3.08774
3.07393
3.064
3.0506
3.0605
3.05559
3.06559
3.06137
3.05793
3.06078
3.05797
3.04577
3.05955
3.02326
3.13774
3.12966
3.13449
3.12964
3.1239
3.10636
3.08824
3.07359
3.06266
3.05115
3.06509
3.05843
3.07354
3.0724
3.05955
3.06441
3.04607
3.09877
3.07671
3.09003
3.14014
3.13207
3.13932
3.13412
3.12784
3.10988
3.08921
3.07732
3.06148
3.05127
3.06497
3.05973
3.07579
3.08092
3.05669
3.07117
3.03229
3.07211
3.00225
3.13988
3.1416
3.13512
3.14407
3.14196
3.13604
3.12015
3.1038
3.09166
3.07863
3.06924
3.08155
3.07707
3.09718
3.09606
3.08518
3.08862
3.06783
3.14754
3.09055
3.3254
2.83396
2.82698
2.69493
2.62599
2.47793
2.3238
2.11136
1.89635
2.80853
2.802
2.6702
2.60256
2.44988
2.28485
2.07484
1.8502
2.83271
2.82206
2.69025
2.62478
2.47292
2.31533
2.11064
1.88006
2.83388
2.82228
2.68979
2.62751
2.47217
2.31279
2.10975
1.8716
2.85454
2.83665
2.70491
2.64273
2.48224
2.32739
2.13026
1.88153
2.86272
2.84057
2.7147
2.65472
2.48464
2.33976
2.1302
1.87788
2.87774
2.85428
2.73146
2.671
2.48814
2.35097
2.13054
1.87598
2.89921
2.86248
2.75088
2.69397
2.49315
2.35968
2.12431
1.86399
2.91816
2.86625
2.76524
2.71457
2.50857
2.36785
2.1086
1.84844
2.95966
2.87419
2.77275
2.69166
2.50571
2.36711
2.08746
1.83177
2.99425
2.89484
2.82252
2.65997
2.49029
2.36053
2.06544
1.82027
3.04061
2.91157
2.88368
2.63816
2.47256
2.34165
2.04118
1.81728
3.07438
2.88446
2.91739
2.61857
2.45777
2.30877
2.01641
1.82593
3.14983
2.86398
2.92643
2.60848
2.45801
2.27297
1.9946
1.83859
3.24409
2.84986
2.91594
2.60258
2.4679
2.24536
1.98333
1.83794
3.34942
2.87178
2.89468
2.59955
2.48033
2.22893
1.99074
1.81134
3.39204
2.89816
2.86273
2.59106
2.48709
2.21521
2.0151
1.75623
3.37184
2.92451
2.82828
2.58192
2.48884
2.20807
2.05688
1.68031
3.2273
2.89556
2.78604
2.56538
2.48263
2.20878
2.09833
1.60581
3.08782
2.85645
2.75503
2.56399
2.48253
2.23669
2.16865
1.60072
1.59415
1.27434
0.866014
0.433601
-0.0923558
-0.665638
-1.31586
-1.99581
-2.70706
-3.41525
-4.08667
-4.68443
-5.17458
-5.5245
-5.71939
-5.74324
-5.60054
-5.29842
-4.86324
-4.31978
-3.71354
-3.07024
-2.44077
-1.83709
-1.30459
-0.842807
-0.509476
-0.296301
1.55475
1.22942
0.824824
0.390253
-0.133428
-0.705367
-1.35273
-2.03384
-2.75001
-3.459
-4.13533
-4.73511
-5.22751
-5.57858
-5.7731
-5.79426
-5.64934
-5.34288
-4.90414
-4.35535
-3.74531
-3.0969
-2.46533
-1.85523
-1.32592
-0.844486
-0.507191
-0.213731
1.592
1.25671
0.851634
0.396674
-0.134047
-0.720133
-1.37765
-2.07535
-2.80446
-3.52722
-4.21307
-4.82214
-5.32002
-5.6738
-5.86803
-5.88651
-5.73604
-5.42142
-4.97229
-4.41245
-3.78915
-3.1303
-2.48253
-1.86547
-1.31279
-0.829985
-0.452037
-0.160377
1.58276
1.24163
0.841791
0.377497
-0.159564
-0.759916
-1.43355
-2.14926
-2.89946
-3.64125
-4.34466
-4.96648
-5.47187
-5.83123
-6.02268
-6.03671
-5.87601
-5.54999
-5.08572
-4.50952
-3.86914
-3.19482
-2.53097
-1.89792
-1.32928
-0.833249
-0.423337
-0.101065
1.59241
1.24312
0.839858
0.358271
-0.187794
-0.810129
-1.50244
-2.2451
-3.02237
-3.78927
-4.51648
-5.15474
-5.67261
-6.0356
-6.22423
-6.23134
-6.05822
-5.71675
-5.23099
-4.63414
-3.9685
-3.27176
-2.58252
-1.92776
-1.33485
-0.813608
-0.377722
-0.0205024
1.5848
1.22841
0.817099
0.322089
-0.236939
-0.883197
-1.60043
-2.37715
-3.18719
-3.98681
-4.74299
-5.39959
-5.9322
-6.29756
-6.48501
-6.48014
-6.28981
-5.92517
-5.41473
-4.79116
-4.09803
-3.37273
-2.65687
-1.97527
-1.35673
-0.812171
-0.349587
0.0351994
1.57587
1.2123
0.787774
0.280887
-0.29653
-0.969111
-1.71714
-2.53199
-3.37844
-4.21516
-4.99818
-5.67335
-6.21788
-6.58393
-6.76597
-6.74782
-6.53821
-6.14925
-5.61073
-4.95919
-4.23454
-3.4794
-2.73143
-2.02059
-1.37284
-0.801224
-0.311957
0.09858
1.55684
1.18621
0.749594
0.233301
-0.364353
-1.06476
-1.8474
-2.70304
-3.5877
-4.46338
-5.27042
-5.96569
-6.51883
-6.88563
-7.05969
-7.02499
-6.79315
-6.37613
-5.81022
-5.12799
-4.37212
-3.58521
-2.8059
-2.06549
-1.3897
-0.793059
-0.274841
0.154494
1.53385
1.15907
0.714364
0.188325
-0.431667
-1.16133
-1.98123
-2.87751
-3.8039
-4.71563
-5.54395
-6.25715
-6.81183
-7.17564
-7.33894
-7.28721
-7.03263
-6.58688
-5.99543
-5.27892
-4.4937
-3.67471
-2.86476
-2.09603
-1.39408
-0.775374
-0.233891
0.216308
1.51132
1.13316
0.681804
0.145732
-0.497516
-1.25746
-2.1146
-3.05046
-4.01655
-4.95518
-5.80058
-6.52425
-7.07557
-7.43475
-7.58535
-7.51408
-7.23666
-6.76734
-6.15498
-5.40395
-4.59244
-3.74432
-2.90407
-2.11252
-1.38396
-0.745512
-0.184769
0.28219
1.49239
1.10968
0.652797
0.108144
-0.556536
-1.34355
-2.23314
-3.20453
-4.2045
-5.16137
-6.01734
-6.74318
-7.28665
-7.6398
-7.77738
-7.68777
-7.38544
-6.89581
-6.26669
-5.48846
-4.65578
-3.78
-2.91433
-2.1065
-1.35578
-0.70442
-0.125798
0.350858
1.47611
1.08665
0.625143
0.0765151
-0.60448
-1.41337
-2.32677
-3.33038
-4.35436
-5.32196
-6.18153
-6.90309
-7.43842
-7.77782
-7.90201
-7.79737
-7.47451
-6.96906
-6.32102
-5.52303
-4.67881
-3.77815
-2.89363
-2.07252
-1.30414
-0.648005
-0.0554661
0.424824
1.45948
1.06032
0.599129
0.0558936
-0.637722
-1.45919
-2.3905
-3.41629
-4.45336
-5.42104
-6.27686
-6.9894
-7.51037
-7.83907
-7.95462
-7.83096
-7.48836
-6.98042
-6.3168
-5.50737
-4.65353
-3.73783
-2.84491
-2.01499
-1.2348
-0.57776
0.0235888
0.501035
1.4291
1.02754
0.580198
0.0460962
-0.655018
-1.48017
-2.41819
-3.45448
-4.49439
-5.4573
-6.30329
-7.00083
-7.50927
-7.81839
-7.93113
-7.79702
-7.43902
-6.92484
-6.25484
-5.44909
-4.58427
-3.66004
-2.76805
-1.93441
-1.15196
-0.495685
0.109371
0.579469
1.37704
0.990843
0.572794
0.0618379
-0.639234
-1.45768
-2.39363
-3.43057
-4.46578
-5.42473
-6.25949
-6.93907
-7.43643
-7.73194
-7.83302
-7.68865
-7.33565
-6.81777
-6.14192
-5.34847
-4.4785
-3.55632
-2.66911
-1.83705
-1.0594
-0.407984
0.193559
0.652441
1.30303
0.953484
0.583053
0.107991
-0.59698
-1.40676
-2.32163
-3.34993
-4.37827
-5.32899
-6.14896
-6.82052
-7.30472
-7.5901
-7.68503
-7.53649
-7.1905
-6.6702
-5.99969
-5.21939
-4.34999
-3.43635
-2.56003
-1.73191
-0.965489
-0.319005
0.275439
0.719731
1.21503
0.931722
0.602828
0.166072
-0.526188
-1.31857
-2.23206
-3.23158
-4.24041
-5.18999
-6.00164
-6.66616
-7.14084
-7.42251
-7.50581
-7.36491
-7.02744
-6.50815
-5.84487
-5.0803
-4.21458
-3.31456
-2.44839
-1.63199
-0.875402
-0.239531
0.350005
0.775792
1.12576
0.924457
0.654542
0.256482
-0.439141
-1.21563
-2.11172
-3.09477
-4.08962
-5.02033
-5.83735
-6.49601
-6.97218
-7.25553
-7.332
-7.19787
-6.87056
-6.35743
-5.70434
-4.94529
-4.08643
-3.2074
-2.35191
-1.54379
-0.800351
-0.172831
0.409203
0.817193
1.11647
0.954058
0.664722
0.317545
-0.342103
-1.1228
-2.0111
-2.978
-3.95837
-4.88354
-5.69858
-6.35746
-6.83408
-7.12051
-7.19554
-7.07006
-6.74516
-6.24325
-5.59713
-4.8436
-3.99076
-3.12998
-2.28009
-1.48373
-0.748477
-0.130052
0.448851
0.841934
0.862323
1.00789
0.707332
0.376616
-0.267373
-1.03836
-1.93185
-2.8941
-3.8708
-4.79417
-5.6108
-6.27271
-6.7499
-7.0399
-7.11421
-6.99275
-6.67402
-6.17965
-5.53489
-4.78423
-3.93704
-3.08703
-2.23993
-1.44985
-0.722886
-0.103587
0.470321
0.859987
-0.438485
-0.445709
-0.0626107
0.234257
0.724816
1.24727
1.90011
2.29967
-0.143162
-0.146682
0.140596
0.506224
0.98049
1.48044
1.99704
2.3889
0.014081
0.139354
0.431612
0.793417
1.22562
1.66985
2.12007
2.4385
0.172217
0.379743
0.658626
1.00468
1.45676
1.91261
2.05464
2.33737
0.277313
0.515276
0.784548
1.12601
1.51562
1.94397
2.22405
2.35571
0.363403
0.648704
0.957025
1.28947
1.62083
1.98342
2.18477
2.28292
0.447216
0.752899
1.03898
1.339
1.64114
1.94725
2.18682
2.33569
0.525754
0.842187
1.13877
1.44279
1.72866
1.97707
2.15239
2.20928
0.601506
0.927779
1.21677
1.47915
1.71466
1.92766
2.11359
2.19893
0.672463
1.00432
1.28395
1.53865
1.76813
1.95831
2.09857
2.15857
0.744312
1.07684
1.34601
1.58123
1.77347
1.92772
2.05543
2.12839
0.817506
1.1497
1.40527
1.62794
1.80016
1.94406
2.04986
2.10541
0.891675
1.21971
1.46031
1.67271
1.81729
1.94172
2.02076
2.07188
0.9674
1.28724
1.51373
1.71667
1.83419
1.95381
2.01288
2.06255
1.04115
1.34598
1.56654
1.75215
1.85245
1.9629
1.99941
2.04705
1.10962
1.39375
1.61928
1.78309
1.87176
1.97009
1.99309
2.04316
1.17229
1.43245
1.66147
1.79989
1.89708
1.976
1.99065
2.03754
1.2211
1.4569
1.70431
1.81585
1.91329
1.97617
1.99519
2.04341
1.2551
1.47266
1.7208
1.81502
1.93529
1.97841
1.99743
2.04007
1.27967
1.48148
1.74126
1.81921
1.93998
1.97969
2.00752
2.05098
2.91119
2.97451
2.88039
2.53817
2.1208
1.5953
1.38378
1.38929
1.40071
1.37394
1.29275
1.19814
1.06891
0.947235
0.777697
0.633007
0.418305
0.250286
-0.0600476
-0.281496
3.04159
2.88155
2.73234
2.37531
2.00892
1.62364
1.45659
1.45609
1.43548
1.3884
1.29663
1.19769
1.06702
0.943837
0.777889
0.627685
0.42545
0.242755
0.0314967
-0.147419
2.75585
2.77136
2.66666
2.31724
2.00717
1.67129
1.48541
1.46469
1.43274
1.38162
1.29146
1.19361
1.06462
0.941499
0.777417
0.626426
0.431168
0.250135
0.0699589
-0.114167
2.90994
2.67392
2.54468
2.21936
1.94138
1.6689
1.51373
1.49456
1.45678
1.39549
1.29988
1.19604
1.06738
0.938645
0.781701
0.622056
0.441237
0.259919
0.0984952
-0.0597533
2.64301
2.5121
2.40917
2.15079
1.92614
1.70716
1.5544
1.51391
1.46249
1.39284
1.29599
1.1909
1.06514
0.934328
0.783597
0.620773
0.450618
0.270971
0.124682
-0.0248574
2.58868
2.46424
2.36047
2.11738
1.91005
1.71607
1.57341
1.52645
1.47364
1.40052
1.30336
1.19381
1.06907
0.934198
0.787621
0.623758
0.458657
0.284901
0.143891
0.00201593
2.51192
2.34552
2.21781
2.03768
1.87556
1.72296
1.59755
1.53987
1.47944
1.40044
1.3015
1.18915
1.06712
0.930884
0.788998
0.625033
0.465482
0.296485
0.158904
0.0215187
2.36565
2.29485
2.19034
2.03375
1.89057
1.7499
1.62534
1.55432
1.49001
1.40833
1.3083
1.19314
1.07099
0.933285
0.792417
0.630676
0.472927
0.309678
0.172938
0.036306
2.28251
2.22463
2.12153
1.9868
1.86107
1.73883
1.62739
1.55559
1.49065
1.40619
1.30589
1.1891
1.06921
0.931516
0.793097
0.633639
0.478194
0.319613
0.183123
0.0466935
2.18491
2.13733
2.07456
1.97427
1.87373
1.76666
1.65909
1.5753
1.50197
1.41283
1.31078
1.19309
1.07228
0.934763
0.796055
0.639627
0.485282
0.330163
0.192961
0.0548512
2.17873
2.12374
2.05561
1.96039
1.86426
1.76168
1.65736
1.57267
1.49964
1.41026
1.30881
1.19042
1.07034
0.93414
0.796488
0.643345
0.490416
0.338087
0.200062
0.0606385
2.12547
2.08233
2.00792
1.92863
1.852
1.76918
1.67695
1.5892
1.50935
1.41587
1.31272
1.19407
1.07281
0.937325
0.799415
0.649193
0.497562
0.346524
0.207152
0.0654853
2.09511
2.07471
2.01765
1.94439
1.86879
1.78142
1.68326
1.59006
1.50845
1.41424
1.31123
1.19291
1.07145
0.937554
0.800281
0.652893
0.502736
0.352927
0.212242
0.0688696
2.0697
2.04937
1.99191
1.92328
1.85415
1.77535
1.68607
1.59643
1.51232
1.41584
1.3114
1.19386
1.07235
0.939723
0.802892
0.657605
0.50888
0.359768
0.217439
0.0717674
2.04593
2.03597
1.98932
1.93533
1.87245
1.79373
1.70038
1.60381
1.51539
1.4169
1.31178
1.19467
1.07268
0.941253
0.805043
0.661376
0.513753
0.365096
0.221171
0.0737975
2.0336
2.03051
1.98075
1.9301
1.86489
1.78578
1.69698
1.60336
1.5138
1.41432
1.30875
1.19265
1.07148
0.941749
0.806855
0.66488
0.518493
0.370288
0.224883
0.0754922
2.02226
2.02335
1.97535
1.93598
1.8731
1.79697
1.70837
1.61056
1.51776
1.41659
1.31021
1.1945
1.07309
0.944131
0.809899
0.668848
0.523026
0.374632
0.227528
0.0767247
2.02246
2.02823
1.97561
1.93736
1.86917
1.79051
1.70295
1.60622
1.51266
1.41086
1.30467
1.19012
1.07027
0.943306
0.810937
0.671688
0.527156
0.379041
0.230458
0.0777422
2.02355
2.02717
1.97611
1.94047
1.87197
1.79484
1.70793
1.60965
1.51464
1.41197
1.30564
1.19144
1.07174
0.945233
0.813422
0.674698
0.530233
0.381599
0.231663
0.0781772
2.02716
2.03195
1.9776
1.93784
1.86559
1.78577
1.69966
1.60228
1.50632
1.40331
1.2978
1.18521
1.06778
0.943818
0.814467
0.678126
0.53514
0.386409
0.234127
0.0785005
-0.657139
-0.464902
-0.650183
-0.590435
-0.220847
-0.0989118
-0.0763735
-0.0844418
-0.607591
-0.74169
-0.874313
-0.859269
-0.507608
-0.360679
-0.291299
-0.287955
-0.829538
-0.835478
-1.0236
-1.06165
-0.785626
-0.661468
-0.532966
-0.510494
-0.874075
-1.08585
-1.32054
-1.37722
-1.13774
-0.972045
-0.795854
-0.74816
-1.10931
-1.35076
-1.54491
-1.67285
-1.44897
-1.28627
-1.0677
-0.994229
-1.32065
-1.59243
-1.84021
-1.97967
-1.76564
-1.5879
-1.33938
-1.24271
-1.56153
-1.86681
-2.10249
-2.2483
-2.0537
-1.8752
-1.60477
-1.48662
-1.79769
-2.10197
-2.34631
-2.51851
-2.32371
-2.13615
-1.85488
-1.71959
-2.02837
-2.33699
-2.5737
-2.73986
-2.56949
-2.37387
-2.08582
-1.93625
-2.23788
-2.54003
-2.76939
-2.95067
-2.78568
-2.58101
-2.29095
-2.13165
-2.4261
-2.73684
-2.95093
-3.12726
-2.9695
-2.75906
-2.46977
-2.30248
-2.58435
-2.89496
-3.09571
-3.26148
-3.12192
-2.90284
-2.61698
-2.44562
-2.71679
-3.03736
-3.22723
-3.38907
-3.22839
-3.01315
-2.73407
-2.56054
-2.82332
-3.14399
-3.31562
-3.44878
-3.31048
-3.09332
-2.81881
-2.64641
-2.90479
-3.22911
-3.39045
-3.52555
-3.35105
-3.13719
-2.87284
-2.70472
-2.95312
-3.27126
-3.41916
-3.5203
-3.36775
-3.15596
-2.90029
-2.73607
-2.97921
-3.2872
-3.43782
-3.54443
-3.36243
-3.14566
-2.90157
-2.74201
-2.98397
-3.28737
-3.42465
-3.49625
-3.32996
-3.11527
-2.87597
-2.724
-2.96625
-3.27057
-3.40084
-3.46741
-3.28668
-3.06397
-2.82858
-2.68493
-2.92169
-3.23138
-3.34752
-3.39896
-3.22074
-2.9978
-2.75858
-2.62654
-2.86308
-3.16942
-3.28294
-3.32381
-3.14735
-2.91268
-2.67879
-2.55116
-2.78863
-3.10003
-3.19924
-3.24872
-3.05731
-2.82578
-2.59128
-2.45979
-2.69916
-3.00871
-3.11135
-3.14339
-2.96448
-2.7126
-2.49411
-2.35382
-2.59975
-2.90901
-2.99654
-3.03628
-2.84318
-2.60327
-2.38459
-2.23244
-2.48821
-2.78697
-2.8728
-2.90655
-2.73743
-2.46543
-2.25566
-2.09536
-2.37186
-2.64424
-2.72972
-2.75629
-2.58329
-2.31592
-2.11074
-1.9429
-2.24082
-2.48706
-2.58145
-2.6016
-2.44891
-2.15946
-1.94493
-1.77446
-2.11009
-2.32283
-2.43328
-2.42998
-2.28423
-1.99335
-1.7602
-1.5903
-1.9648
-2.15906
-2.28288
-2.25081
-2.12111
-1.81952
-1.56507
-1.39033
-1.82245
-1.98994
-2.12908
-2.09562
-1.93775
-1.64624
-1.35855
-1.17463
-1.66019
-1.83082
-1.98897
-1.93429
-1.76543
-1.44854
-1.14463
-0.940528
-1.51044
-1.67775
-1.8278
-1.80666
-1.56883
-1.25689
-0.90969
-0.686755
-1.35212
-1.53757
-1.70122
-1.65555
-1.3741
-1.01954
-0.659588
-0.412254
-1.18932
-1.42889
-1.55072
-1.52176
-1.1635
-0.797759
-0.391347
-0.118074
-1.06284
-1.34291
-1.41154
-1.36212
-0.972906
-0.530475
-0.105833
0.197256
-0.964339
-1.29888
-1.25098
-1.21429
-0.730425
-0.263676
0.202788
0.527095
-0.856955
-1.22918
-1.07948
-0.918188
-0.495011
0.0181429
0.537091
0.863422
-0.880839
-1.1929
-0.872501
-0.69896
-0.204257
0.293695
0.903812
1.17796
-0.790224
-1.03983
-0.683797
-0.39641
0.103522
0.583035
1.25834
1.45848
-0.772927
-1.02991
-0.398255
-0.12748
0.409523
0.883685
1.61942
1.70161
2.97917
2.82032
2.72944
2.56239
2.49628
2.27974
2.24103
1.81801
2.86527
2.78212
2.70911
2.56849
2.51062
2.33011
2.29975
2.0165
2.78657
2.73923
2.68467
2.56489
2.51526
2.3667
2.34695
2.14286
2.71635
2.69931
2.66065
2.56422
2.52328
2.40172
2.37298
2.24262
2.66972
2.66038
2.63502
2.55544
2.52414
2.42496
2.4048
2.30539
2.62768
2.6282
2.61269
2.54898
2.5219
2.44377
2.41893
2.35632
2.59986
2.59833
2.59044
2.53885
2.51811
2.45366
2.43803
2.3858
2.5733
2.57497
2.57163
2.53089
2.51339
2.46117
2.44451
2.41209
2.55686
2.55475
2.55517
2.52229
2.5091
2.46483
2.45428
2.42389
2.5397
2.53956
2.5412
2.51531
2.50509
2.46816
2.45614
2.43901
2.53006
2.52649
2.52964
2.50704
2.50083
2.46871
2.46159
2.44202
2.51872
2.51628
2.52028
2.5008
2.49641
2.46943
2.46169
2.4535
2.51326
2.50728
2.51232
2.49449
2.49294
2.46871
2.46365
2.45175
2.506
2.50045
2.50561
2.48892
2.48903
2.4676
2.46266
2.45908
2.50408
2.49496
2.50152
2.48437
2.48696
2.46566
2.4639
2.45548
2.50021
2.49126
2.49807
2.48095
2.48472
2.46617
2.46335
2.46217
2.50113
2.48858
2.49652
2.47798
2.48398
2.46407
2.46386
2.45836
2.50011
2.48706
2.49542
2.47536
2.48272
2.46367
2.46316
2.46232
2.50367
2.48675
2.49624
2.47351
2.48299
2.46132
2.46374
2.4586
2.50555
2.48759
2.49751
2.47197
2.48305
2.46175
2.46289
2.46167
2.51206
2.48902
2.50044
2.47069
2.48405
2.45866
2.46405
2.45931
2.51731
2.49209
2.50447
2.47046
2.4856
2.45874
2.46214
2.46015
2.52701
2.49602
2.51054
2.47012
2.48806
2.4566
2.46406
2.45908
2.53607
2.5006
2.51735
2.47117
2.49137
2.45676
2.46231
2.45939
2.55023
2.50623
2.52609
2.47179
2.4957
2.45544
2.4642
2.45888
2.56491
2.51373
2.53647
2.4743
2.50067
2.45642
2.46293
2.45889
2.58554
2.52333
2.54903
2.47662
2.50604
2.45531
2.4643
2.45824
2.60823
2.53585
2.56421
2.48156
2.51224
2.45643
2.46263
2.45813
2.63841
2.55104
2.58191
2.48688
2.51838
2.45608
2.46269
2.45652
2.67314
2.57005
2.60311
2.49546
2.52468
2.45775
2.46015
2.45577
2.71798
2.59424
2.62716
2.50551
2.5308
2.45847
2.45781
2.45277
2.77004
2.6257
2.65564
2.52009
2.5376
2.462
2.45355
2.45013
2.83437
2.66466
2.68835
2.53771
2.54405
2.46497
2.44903
2.44447
2.90735
2.71027
2.72574
2.56217
2.5515
2.46987
2.44358
2.43765
2.99415
2.76242
2.76652
2.59128
2.55995
2.47459
2.43872
2.4268
3.09207
2.82055
2.81335
2.63163
2.57248
2.48173
2.43347
2.4149
3.21636
2.88981
2.86515
2.68165
2.59248
2.49222
2.43082
2.40141
3.38108
2.98513
2.92631
2.7435
2.62151
2.51021
2.43059
2.38271
3.62864
3.12084
2.99293
2.80873
2.66115
2.53875
2.43904
2.3042
3.95258
3.29818
3.06382
2.86626
2.69761
2.56915
2.4495
2.14084
)
;

boundaryField
{
    wall
    {
        type            calculated;
        value           nonuniform List<scalar> 
312
(
3.1416
3.13512
3.14407
3.14196
3.13604
3.12015
3.1038
3.09166
3.07863
3.06924
3.08155
3.07707
3.09718
3.09606
3.08518
3.08862
3.06783
3.14754
3.09055
3.3254
2.97917
2.86527
2.78657
2.71635
2.66972
2.62768
2.59986
2.5733
2.55686
2.5397
2.53006
2.51872
2.51326
2.506
2.50408
2.50021
2.50113
2.50011
2.50367
2.50555
2.51206
2.51731
2.52701
2.53607
2.55023
2.56491
2.58554
2.60823
2.63841
2.67314
2.71798
2.77004
2.83437
2.90735
2.99415
3.09207
3.21636
3.38108
3.62864
3.95258
1.81801
2.0165
2.14286
2.24262
2.30539
2.35632
2.3858
2.41209
2.42389
2.43901
2.44202
2.4535
2.45175
2.45908
2.45548
2.46217
2.45836
2.46232
2.4586
2.46167
2.45931
2.46015
2.45908
2.45939
2.45888
2.45889
2.45824
2.45813
2.45652
2.45577
2.45277
2.45013
2.44447
2.43765
2.4268
2.4149
2.40141
2.38271
2.3042
2.14084
0.862323
1.00789
0.707332
0.376616
-0.267373
-1.03836
-1.93185
-2.8941
-3.8708
-4.79417
-5.6108
-6.27271
-6.7499
-7.0399
-7.11421
-6.99275
-6.67402
-6.17965
-5.53489
-4.78423
-3.93704
-3.08703
-2.23993
-1.44985
-0.722886
-0.103587
0.470321
0.859987
1.27967
1.48148
1.74126
1.81921
1.93998
1.97969
2.00752
2.05098
2.02716
2.03195
1.9776
1.93784
1.86559
1.78577
1.69966
1.60228
1.50632
1.40331
1.2978
1.18521
1.06778
0.943818
0.814467
0.678126
0.53514
0.386409
0.234127
0.0785005
2.91119
2.97451
2.88039
2.53817
2.1208
1.5953
1.38378
1.38929
1.40071
1.37394
1.29275
1.19814
1.06891
0.947235
0.777697
0.633007
0.418305
0.250286
-0.0600476
-0.281496
-0.0844418
-0.287955
-0.510494
-0.74816
-0.994229
-1.24271
-1.48662
-1.71959
-1.93625
-2.13165
-2.30248
-2.44562
-2.56054
-2.64641
-2.70472
-2.73607
-2.74201
-2.724
-2.68493
-2.62654
-2.55116
-2.45979
-2.35382
-2.23244
-2.09536
-1.9429
-1.77446
-1.5903
-1.39033
-1.17463
-0.940528
-0.686755
-0.412254
-0.118074
0.197256
0.527095
0.863422
1.17796
1.45848
1.70161
-0.657139
-0.607591
-0.829538
-0.874075
-1.10931
-1.32065
-1.56153
-1.79769
-2.02837
-2.23788
-2.4261
-2.58435
-2.71679
-2.82332
-2.90479
-2.95312
-2.97921
-2.98397
-2.96625
-2.92169
-2.86308
-2.78863
-2.69916
-2.59975
-2.48821
-2.37186
-2.24082
-2.11009
-1.9648
-1.82245
-1.66019
-1.51044
-1.35212
-1.18932
-1.06284
-0.964339
-0.856955
-0.880839
-0.790224
-0.772927
1.59415
1.27434
0.866014
0.433601
-0.0923558
-0.665638
-1.31586
-1.99581
-2.70706
-3.41525
-4.08667
-4.68443
-5.17458
-5.5245
-5.71939
-5.74324
-5.60054
-5.29842
-4.86324
-4.31978
-3.71354
-3.07024
-2.44077
-1.83709
-1.30459
-0.842807
-0.509476
-0.296301
2.83396
2.82698
2.69493
2.62599
2.47793
2.3238
2.11136
1.89635
3.12554
3.12268
3.11313
3.11455
3.1048
3.10573
3.09166
3.09417
3.08045
3.0844
3.06371
3.07032
3.04571
3.05746
3.0208
3.03531
2.98309
3.00059
2.92574
2.94332
)
;
    }
    inlet1
    {
        type            calculated;
        value           nonuniform List<scalar> 
20
(
3.12554
3.12246
3.12173
3.12114
3.12147
3.11986
3.12017
3.11986
3.12224
3.12309
3.12625
3.12656
3.12975
3.1302
3.13307
3.13336
3.13667
3.13774
3.14014
3.1416
)
;
    }
    inlet2
    {
        type            calculated;
        value           nonuniform List<scalar> 8(3.95258 3.29818 3.06382 2.86626 2.69761 2.56915 2.4495 2.14084);
    }
    outlet1
    {
        type            calculated;
        value           uniform 0;
    }
    outlet2
    {
        type            calculated;
        value           nonuniform List<scalar> 8(-0.668078 0 -0.639168 -0.441053 0.0034821 0.0387638 0 0);
    }
    defaultFaces
    {
        type            empty;
    }
}


// ************************************************************************* //
