/*--------------------------------*- C++ -*----------------------------------*\
| =========                 |                                                 |
| \\      /  F ield         | OpenFOAM: The Open Source CFD Toolbox           |
|  \\    /   O peration     | Version:  2.4.0                                 |
|   \\  /    A nd           | Web:      www.OpenFOAM.org                      |
|    \\/     M anipulation  |                                                 |
\*---------------------------------------------------------------------------*/
FoamFile
{
    version     2.0;
    format      ascii;
    class       surfaceScalarField;
    location    "1.03";
    object      phi;
}
// * * * * * * * * * * * * * * * * * * * * * * * * * * * * * * * * * * * * * //

dimensions      [0 3 -1 0 0 0 0];

internalField   nonuniform List<scalar> 
4456
(
2.43117e-06
6.88292e-08
2.45096e-06
-1.9794e-08
2.48985e-06
-3.88888e-08
2.73184e-06
-2.41984e-07
2.45521e-06
2.76632e-07
2.82073e-06
-3.65522e-07
2.5875e-06
2.33223e-07
2.63353e-06
-4.60266e-08
2.6237e-06
9.82816e-09
2.49789e-06
1.2581e-07
2.76641e-06
-2.68521e-07
2.13356e-06
6.32849e-07
2.54304e-06
-4.09472e-07
2.27617e-06
2.66868e-07
2.34284e-06
-6.66696e-08
2.14569e-06
1.9715e-07
2.00383e-06
1.41853e-07
2.12603e-06
-1.22196e-07
2.26961e-06
-1.4358e-07
4.10644e-07
1.85897e-06
2.47016e-06
9.86727e-08
2.54882e-06
-9.84563e-08
2.46938e-06
4.05546e-08
2.39472e-06
-1.67332e-07
2.45093e-06
2.20426e-07
2.43379e-06
-3.48379e-07
2.63067e-06
3.63408e-08
2.62705e-06
-4.24095e-08
2.35989e-06
2.76988e-07
2.4954e-06
-9.69983e-09
2.5279e-06
-3.01021e-07
2.23875e-06
9.22003e-07
2.44066e-06
-6.11379e-07
2.56231e-06
1.45218e-07
2.27748e-06
2.18155e-07
2.5649e-06
-9.02698e-08
2.48917e-06
2.17581e-07
2.33071e-06
3.62627e-08
2.66067e-06
-4.73535e-07
6.35382e-07
2.43593e-06
2.4411e-06
1.57568e-07
2.45363e-06
-1.10986e-07
2.4873e-06
6.89334e-09
2.4094e-06
-8.94336e-08
2.43662e-06
1.93202e-07
2.30618e-06
-2.17943e-07
2.41314e-06
-7.06163e-08
2.46938e-06
-9.86519e-08
2.51824e-06
2.28131e-07
2.38731e-06
1.2123e-07
2.54386e-06
-4.57574e-07
2.49341e-06
9.72457e-07
2.57667e-06
-6.94638e-07
2.66317e-06
5.87134e-08
2.55529e-06
3.26039e-07
2.55889e-06
-9.3876e-08
2.54809e-06
2.28384e-07
2.62414e-06
-3.9788e-08
2.59422e-06
-4.4361e-07
2.36915e-07
2.99268e-06
2.52134e-06
1.36229e-07
2.42902e-06
-1.867e-08
2.46367e-06
-2.77496e-08
2.50754e-06
-1.33305e-07
2.45624e-06
2.44501e-07
2.41106e-06
-1.72766e-07
2.50481e-06
-1.6436e-07
2.38863e-06
1.75275e-08
2.54929e-06
6.74695e-08
2.56655e-06
1.03967e-07
2.51155e-06
-4.02575e-07
2.70271e-06
7.81303e-07
2.59043e-06
-5.82357e-07
2.64067e-06
8.46834e-09
2.74525e-06
2.21463e-07
2.71248e-06
-6.11046e-08
2.60018e-06
3.40685e-07
2.65377e-06
-9.33778e-08
2.65433e-06
-4.44178e-07
6.38169e-08
2.82743e-06
2.53888e-06
9.73517e-08
2.56751e-06
-4.72983e-08
2.48649e-06
5.32656e-08
2.55995e-06
-2.06761e-07
2.59788e-06
2.0657e-07
2.48095e-06
-5.58382e-08
2.4945e-06
-1.77911e-07
2.48308e-06
2.89487e-08
2.55244e-06
-1.89364e-09
2.50783e-06
1.48575e-07
2.50277e-06
-3.97511e-07
2.65121e-06
6.32863e-07
2.34118e-06
-2.72322e-07
2.47229e-06
-1.22643e-07
2.63235e-06
6.13976e-08
2.62039e-06
-4.91388e-08
2.55946e-06
4.01609e-07
2.52964e-06
-6.35575e-08
2.5128e-06
-4.27336e-07
-1.14227e-07
2.69085e-06
2.5365e-06
6.08538e-08
2.52009e-06
-3.08871e-08
2.50922e-06
6.41369e-08
2.51404e-06
-2.11588e-07
2.54875e-06
1.71865e-07
2.49056e-06
2.34521e-09
2.43911e-06
-1.26456e-07
2.46469e-06
3.36478e-09
2.47644e-06
-1.36435e-08
2.54967e-06
7.53524e-08
2.50783e-06
-3.55674e-07
2.60389e-06
5.368e-07
2.44006e-06
-1.08486e-07
2.4792e-06
-1.61788e-07
2.60556e-06
-6.49668e-08
2.55373e-06
2.69878e-09
2.59685e-06
3.58488e-07
2.56067e-06
-2.73828e-08
2.58318e-06
-4.49846e-07
-1.53464e-07
2.62242e-06
2.48799e-06
7.28622e-08
2.49543e-06
-3.83283e-08
2.54437e-06
1.52038e-08
2.45539e-06
-1.22616e-07
2.48426e-06
1.42996e-07
2.50818e-06
-2.15754e-08
2.51759e-06
-1.35864e-07
2.46229e-06
5.86699e-08
2.48202e-06
-3.33814e-08
2.55114e-06
6.23303e-09
2.46941e-06
-2.73943e-07
2.5465e-06
4.59708e-07
2.46079e-06
-2.27768e-08
2.46481e-06
-1.65798e-07
2.55556e-06
-1.55719e-07
2.56805e-06
-9.7889e-09
2.55263e-06
3.73908e-07
2.5687e-06
-4.34579e-08
2.52953e-06
-4.10677e-07
-1.68504e-07
2.54457e-06
2.508e-06
6.48649e-08
2.5433e-06
-7.36328e-08
2.53475e-06
2.37526e-08
2.47059e-06
-5.84527e-08
2.47765e-06
1.35938e-07
2.53879e-06
-8.27166e-08
2.53369e-06
-1.30769e-07
2.46371e-06
1.28651e-07
2.4534e-06
-2.30638e-08
2.50998e-06
-5.0351e-08
2.46431e-06
-2.28271e-07
2.52755e-06
3.96464e-07
2.47344e-06
3.13335e-08
2.48515e-06
-1.77508e-07
2.55892e-06
-2.29486e-07
2.52802e-06
2.11127e-08
2.58854e-06
3.13388e-07
2.55543e-06
-1.03505e-08
2.48846e-06
-3.43704e-07
-2.22183e-07
2.54214e-06
2.50337e-06
6.14933e-08
2.53441e-06
-1.04671e-07
2.52017e-06
3.79907e-08
2.43986e-06
2.18623e-08
2.4779e-06
9.78912e-08
2.54254e-06
-1.47351e-07
2.53546e-06
-1.23689e-07
2.45524e-06
2.08864e-07
2.44734e-06
-1.5163e-08
2.53277e-06
-1.35778e-07
2.47126e-06
-1.66765e-07
2.51202e-06
3.55706e-07
2.51512e-06
2.82395e-08
2.54647e-06
-2.08859e-07
2.5033e-06
-1.86322e-07
2.51921e-06
5.20268e-09
2.58555e-06
2.47056e-07
2.55009e-06
2.51055e-08
2.54758e-06
-3.41194e-07
-1.43888e-07
2.46928e-06
2.49956e-06
6.19374e-08
2.52733e-06
-1.32442e-07
2.52349e-06
4.18233e-08
2.47014e-06
7.52174e-08
2.4981e-06
6.99302e-08
2.55158e-06
-2.00831e-07
2.48106e-06
-5.31729e-08
2.47718e-06
2.12747e-07
2.49514e-06
-3.31219e-08
2.51811e-06
-1.58747e-07
2.49355e-06
-1.42204e-07
2.48722e-06
3.62031e-07
2.54033e-06
-2.48652e-08
2.52847e-06
-1.97002e-07
2.48857e-06
-1.46423e-07
2.4951e-06
-1.32677e-09
2.53264e-06
2.09514e-07
2.55589e-06
1.86236e-09
2.54864e-06
-3.33952e-07
-9.00383e-08
2.49479e-06
2.52986e-06
3.2077e-08
2.49727e-06
-9.98518e-08
2.50199e-06
3.71027e-08
2.46617e-06
1.11042e-07
2.53248e-06
3.61874e-09
2.51397e-06
-1.82326e-07
2.41375e-06
4.70523e-08
2.51308e-06
1.13418e-07
2.49648e-06
-1.65246e-08
2.52623e-06
-1.88501e-07
2.45004e-06
-6.60128e-08
2.49846e-06
3.13614e-07
2.52162e-06
-4.8023e-08
2.52286e-06
-1.98242e-07
2.48641e-06
-1.09974e-07
2.44711e-06
3.79678e-08
2.51311e-06
1.43517e-07
2.53734e-06
-2.23647e-08
2.57594e-06
-3.7255e-07
1.19002e-08
2.474e-06
2.49675e-06
3.53313e-08
2.48193e-06
-8.50317e-08
2.49325e-06
2.5774e-08
2.47303e-06
1.31261e-07
2.55242e-06
-7.57628e-08
2.46103e-06
-9.09365e-08
2.43488e-06
7.31952e-08
2.51512e-06
3.31781e-08
2.54172e-06
-4.31211e-08
2.48914e-06
-1.35918e-07
2.43472e-06
-1.15957e-08
2.52841e-06
2.19926e-07
2.52924e-06
-4.88517e-08
2.51617e-06
-1.85175e-07
2.44501e-06
-3.88108e-08
2.43773e-06
4.5246e-08
2.53608e-06
4.51646e-08
2.59181e-06
-7.80956e-08
2.5386e-06
-3.19341e-07
1.19151e-07
2.43135e-06
2.48807e-06
4.72604e-08
2.4954e-06
-9.23654e-08
2.47728e-06
4.38982e-08
2.50461e-06
1.0393e-07
2.53615e-06
-1.07299e-07
2.47413e-06
-2.89189e-08
2.48706e-06
6.02656e-08
2.51159e-06
8.64848e-09
2.53211e-06
-6.36426e-08
2.4812e-06
-8.50077e-08
2.43142e-06
3.81821e-08
2.54289e-06
1.08455e-07
2.51124e-06
-1.71959e-08
2.47576e-06
-1.49694e-07
2.43333e-06
3.61466e-09
2.4835e-06
-4.92289e-09
2.57179e-06
-4.31275e-08
2.58467e-06
-9.09745e-08
2.45516e-06
-1.89826e-07
1.93968e-07
2.38034e-06
2.506e-06
4.12635e-08
2.50188e-06
-8.82484e-08
2.48092e-06
6.48627e-08
2.50284e-06
8.20096e-08
2.5172e-06
-1.21665e-07
2.49323e-06
-4.95053e-09
2.51027e-06
4.32279e-08
2.49336e-06
2.5559e-08
2.51259e-06
-8.28738e-08
2.48322e-06
-5.56307e-08
2.44239e-06
7.9009e-08
2.54507e-06
5.77533e-09
2.47801e-06
4.98671e-08
2.43411e-06
-1.05802e-07
2.46454e-06
-2.68124e-08
2.57184e-06
-1.12222e-07
2.57197e-06
-4.32624e-08
2.53013e-06
-4.91351e-08
2.38947e-06
-4.91612e-08
2.09434e-07
2.374e-06
2.53078e-06
1.04834e-08
2.50264e-06
-6.01079e-08
2.47776e-06
8.97396e-08
2.5164e-06
4.33698e-08
2.4911e-06
-9.63585e-08
2.51001e-06
-2.38625e-08
2.50442e-06
4.88211e-08
2.49753e-06
3.24459e-08
2.50516e-06
-9.0501e-08
2.46553e-06
-1.60097e-08
2.46591e-06
7.86366e-08
2.51369e-06
-4.20124e-08
2.47702e-06
8.65378e-08
2.4497e-06
-7.84773e-08
2.50001e-06
-7.71186e-08
2.58453e-06
-1.96742e-07
2.54286e-06
-1.596e-09
2.48571e-06
8.01575e-09
2.38007e-06
5.64778e-08
1.37459e-07
2.45204e-06
2.53651e-06
-2.60253e-08
2.46505e-06
1.13508e-08
2.49125e-06
6.35362e-08
2.53929e-06
-4.67059e-09
2.48146e-06
-3.85295e-08
2.5047e-06
-4.70938e-08
2.48411e-06
6.94036e-08
2.51047e-06
6.08481e-09
2.50718e-06
-8.72016e-08
2.46549e-06
2.56779e-08
2.49015e-06
5.39709e-08
2.50729e-06
-5.91489e-08
2.47036e-06
1.23467e-07
2.49345e-06
-1.0157e-07
2.52687e-06
-1.10532e-07
2.54424e-06
-2.14116e-07
2.50156e-06
4.10832e-08
2.44477e-06
6.48074e-08
2.39163e-06
1.09614e-07
2.0049e-08
2.50904e-06
2.51596e-06
-4.19818e-08
2.45063e-06
7.6679e-08
2.50651e-06
7.65539e-09
2.55396e-06
-5.21219e-08
2.50637e-06
9.06152e-09
2.495e-06
-3.57245e-08
2.47559e-06
8.88133e-08
2.5164e-06
-3.47259e-08
2.49462e-06
-6.54234e-08
2.46317e-06
5.71312e-08
2.53436e-06
-1.72241e-08
2.48543e-06
-1.02099e-08
2.4888e-06
1.20095e-07
2.5217e-06
-1.34476e-07
2.51055e-06
-9.93738e-08
2.47133e-06
-1.74902e-07
2.46577e-06
4.66476e-08
2.43979e-06
9.07803e-08
2.41883e-06
1.30576e-07
-9.42924e-08
2.53317e-06
2.49793e-06
-3.99163e-08
2.45166e-06
1.22956e-07
2.5249e-06
-6.55912e-08
2.52371e-06
-5.0928e-08
2.50551e-06
2.72658e-08
2.49982e-06
-3.0039e-08
2.46859e-06
1.20042e-07
2.52442e-06
-9.05517e-08
2.48581e-06
-2.68111e-08
2.46934e-06
7.35919e-08
2.53812e-06
-8.59954e-08
2.48872e-06
3.91817e-08
2.5053e-06
1.0352e-07
2.53438e-06
-1.63557e-07
2.4597e-06
-2.46951e-08
2.41473e-06
-1.2993e-07
2.42836e-06
3.30126e-08
2.42676e-06
9.23817e-08
2.47313e-06
8.42119e-08
-1.2599e-07
2.50482e-06
2.48888e-06
-2.87965e-08
2.51768e-06
9.41599e-08
2.51725e-06
-6.51608e-08
2.49436e-06
-2.8041e-08
2.4998e-06
2.18245e-08
2.48512e-06
-1.53629e-08
2.51634e-06
8.88251e-08
2.49918e-06
-7.3387e-08
2.47901e-06
-6.64524e-09
2.50051e-06
5.20916e-08
2.50059e-06
-8.60743e-08
2.47668e-06
6.30948e-08
2.55601e-06
2.41861e-08
2.482e-06
-8.95486e-08
2.44833e-06
8.97707e-09
2.39361e-06
-7.52068e-08
2.40765e-06
1.89728e-08
2.43403e-06
6.60034e-08
2.50712e-06
1.11131e-08
-8.175e-08
2.46288e-06
2.4712e-06
2.56536e-06
2.5002e-06
2.47216e-06
2.49399e-06
2.47862e-06
2.56745e-06
2.49406e-06
2.48742e-06
2.53951e-06
2.45343e-06
2.51653e-06
2.54071e-06
2.45117e-06
2.46014e-06
2.38494e-06
2.40391e-06
2.46991e-06
2.48103e-06
2.39928e-06
2.35106e-06
-4.92096e-07
2.28463e-06
6.64348e-08
2.19594e-06
8.86895e-08
1.9347e-06
2.61235e-07
1.87992e-06
5.47813e-08
2.23473e-06
-3.54803e-07
1.8896e-06
3.45125e-07
-1.06869e-06
2.9583e-06
2.30845e-06
-3.64611e-07
2.92717e-06
-5.52285e-07
2.83424e-06
1.81619e-07
2.70346e-06
3.92009e-07
2.58683e-06
1.71415e-07
2.62555e-06
-3.93528e-07
2.55283e-06
4.17849e-07
-8.04302e-07
2.28844e-06
2.59125e-06
3.68213e-08
2.62543e-06
-5.86467e-07
2.66959e-06
1.37465e-07
2.72203e-06
3.39568e-07
2.84634e-06
4.71006e-08
2.45316e-06
-3.41544e-10
3.00385e-06
-1.32843e-07
-4.51336e-07
2.65088e-06
2.74525e-06
1.19007e-07
2.5685e-06
-4.09726e-07
2.59241e-06
1.13554e-07
2.75675e-06
1.75229e-07
2.83006e-06
-2.62073e-08
2.73623e-06
9.34889e-08
2.9708e-06
-3.67412e-07
-9.36673e-08
2.61313e-06
2.51179e-06
2.98067e-07
2.31731e-06
-2.15246e-07
2.50687e-06
-7.60098e-08
2.74972e-06
-6.76237e-08
2.68239e-06
4.11229e-08
2.6754e-06
1.0048e-07
2.60622e-06
-2.98235e-07
-2.45937e-07
2.75849e-06
2.5923e-06
3.28186e-07
2.48107e-06
-1.0401e-07
2.52817e-06
-1.23116e-07
2.59699e-06
-1.36446e-07
2.70863e-06
-7.05139e-08
2.74653e-06
6.25764e-08
2.65627e-06
-2.07971e-07
-3.19049e-07
2.72938e-06
2.60808e-06
2.64676e-07
2.52927e-06
-2.51987e-08
2.49457e-06
-8.84137e-08
2.57204e-06
-2.1392e-07
2.59956e-06
-9.80351e-08
2.58745e-06
7.46886e-08
2.6894e-06
-3.09918e-07
-2.60179e-07
2.63053e-06
2.55189e-06
2.54923e-07
2.49437e-06
3.23256e-08
2.56451e-06
-1.58561e-07
2.60331e-06
-2.52716e-07
2.63401e-06
-1.28732e-07
2.60494e-06
1.03752e-07
2.51903e-06
-2.24005e-07
-4.12094e-07
2.67095e-06
2.50055e-06
2.23653e-07
2.55523e-06
-2.23519e-08
2.56556e-06
-1.68893e-07
2.60528e-06
-2.92434e-07
2.60326e-06
-1.26708e-07
2.54478e-06
1.62232e-07
2.60241e-06
-2.81641e-07
-4.20603e-07
2.61092e-06
2.49803e-06
2.20421e-07
2.51906e-06
-4.33806e-08
2.57572e-06
-2.25555e-07
2.57625e-06
-2.92963e-07
2.55818e-06
-1.08644e-07
2.56223e-06
1.58181e-07
2.5809e-06
-3.00309e-07
-4.14182e-07
2.57448e-06
2.43323e-06
2.6119e-07
2.53269e-06
-1.4284e-07
2.53184e-06
-2.2471e-07
2.5033e-06
-2.6442e-07
2.50303e-06
-1.08378e-07
2.53657e-06
1.24648e-07
2.60417e-06
-3.67909e-07
-3.75981e-07
2.56596e-06
2.46387e-06
2.28677e-07
2.50414e-06
-1.8311e-07
2.51404e-06
-2.34612e-07
2.51919e-06
-2.69568e-07
2.45609e-06
-4.52799e-08
2.52192e-06
5.88114e-08
2.56617e-06
-4.12153e-07
-3.08325e-07
2.49851e-06
2.52245e-06
8.65664e-08
2.54679e-06
-2.07447e-07
2.51186e-06
-1.99683e-07
2.48277e-06
-2.4048e-07
2.44615e-06
-8.65989e-09
2.53109e-06
-2.61327e-08
2.49826e-06
-3.79323e-07
-2.80145e-07
2.47008e-06
2.59419e-06
-1.33623e-07
2.54318e-06
-1.56433e-07
2.48201e-06
-1.3851e-07
2.43778e-06
-1.96256e-07
2.43697e-06
-7.84682e-09
2.53279e-06
-1.21957e-07
2.45842e-06
-3.04948e-07
-2.65629e-07
2.4439e-06
2.59544e-06
-2.77017e-07
2.53397e-06
-9.49618e-08
2.46619e-06
-7.07316e-08
2.4241e-06
-1.54167e-07
2.45894e-06
-4.26882e-08
2.51819e-06
-1.81207e-07
2.44397e-06
-2.30728e-07
-2.46003e-07
2.42435e-06
2.55967e-06
-3.27646e-07
2.51449e-06
-4.97806e-08
2.48811e-06
-4.43488e-08
2.42709e-06
-9.31529e-08
2.49319e-06
-1.08779e-07
2.4828e-06
-1.70819e-07
2.4548e-06
-2.0273e-07
-1.69955e-07
2.37875e-06
2.49629e-06
-2.90763e-07
2.51548e-06
-6.89666e-08
2.49498e-06
-2.38529e-08
2.46187e-06
-6.00453e-08
2.50104e-06
-1.47948e-07
2.47628e-06
-1.46059e-07
2.4479e-06
-1.74345e-07
-1.42866e-08
2.29223e-06
2.45974e-06
-2.4568e-07
2.5219e-06
-1.31128e-07
2.51173e-06
-1.36774e-08
2.49898e-06
-4.73009e-08
2.50746e-06
-1.56428e-07
2.4775e-06
-1.16092e-07
2.4407e-06
-1.37553e-07
1.87369e-07
2.23905e-06
2.45148e-06
-2.34274e-07
2.48984e-06
-1.69493e-07
2.49362e-06
-1.7455e-08
2.57543e-06
-1.29106e-07
2.47501e-06
-5.60125e-08
2.44188e-06
-8.29613e-08
2.32259e-06
-1.82621e-08
3.11956e-07
2.198e-06
2.45245e-06
-2.87444e-07
2.3753e-06
-9.23454e-08
2.34636e-06
1.14842e-08
2.30576e-06
-8.85098e-08
2.20471e-06
4.50413e-08
2.15036e-06
-2.86153e-08
2.00937e-06
1.22735e-07
2.00367e-06
3.1765e-07
3.09454e-06
-1.36243e-07
1.73928e-06
1.35526e-06
2.43924e-06
-6.9996e-07
3.44088e-06
-1.00164e-06
3.12559e-06
3.15294e-07
3.49022e-06
-3.64632e-07
3.4557e-06
3.45207e-08
4.14705e-06
-6.91351e-07
4.46795e-06
-3.20902e-07
5.1802e-06
-7.1225e-07
5.54404e-06
-3.63839e-07
6.36793e-06
-8.23885e-07
6.75151e-06
-3.8358e-07
7.54375e-06
-7.92247e-07
8.05113e-06
-5.07374e-07
8.74409e-06
-6.92964e-07
9.10352e-06
-3.59431e-07
9.77161e-06
-6.6809e-07
9.85826e-06
-8.66465e-08
1.03032e-05
-4.4493e-07
1.02249e-05
7.83082e-08
1.03545e-05
-1.29666e-07
1.00748e-05
2.79748e-07
9.90777e-06
1.67026e-07
9.3796e-06
5.28173e-07
8.93917e-06
4.40433e-07
7.97125e-06
9.67921e-07
1.15844e-06
6.81281e-06
2.67845e-06
-5.26257e-07
3.06315e-06
9.70564e-07
3.0021e-06
-6.38917e-07
2.99044e-06
-9.89979e-07
2.95183e-06
3.53905e-07
3.21905e-06
-6.31849e-07
3.66473e-06
-4.11165e-07
4.00627e-06
-1.03289e-06
4.26487e-06
-5.79503e-07
4.64448e-06
-1.09185e-06
5.21922e-06
-9.38576e-07
5.88419e-06
-1.48886e-06
6.48308e-06
-9.82472e-07
7.31977e-06
-1.62893e-06
7.90094e-06
-1.08855e-06
8.52077e-06
-1.31279e-06
9.03054e-06
-8.69206e-07
9.55846e-06
-1.19601e-06
9.75643e-06
-2.84617e-07
1.01342e-05
-8.22714e-07
1.00718e-05
1.40722e-07
1.01136e-05
-1.71431e-07
9.83608e-06
5.57227e-07
9.5082e-06
4.94907e-07
9.0339e-06
1.00248e-06
8.27917e-06
1.19516e-06
7.70581e-06
1.54128e-06
2.24051e-06
6.62374e-06
2.58231e-06
-4.57685e-07
3.38142e-06
1.71457e-07
2.94065e-06
-1.98147e-07
3.3015e-06
-1.35083e-06
3.466e-06
1.894e-07
3.52383e-06
-6.89679e-07
3.8366e-06
-7.23935e-07
4.28412e-06
-1.48042e-06
4.50792e-06
-8.033e-07
5.19332e-06
-1.77725e-06
5.6141e-06
-1.35935e-06
6.10429e-06
-1.97905e-06
6.70816e-06
-1.58634e-06
7.42095e-06
-2.34173e-06
7.94292e-06
-1.61051e-06
8.60125e-06
-1.97112e-06
9.18726e-06
-1.45522e-06
9.60567e-06
-1.61441e-06
9.97281e-06
-6.51763e-07
1.02411e-05
-1.09102e-06
1.02912e-05
9.0601e-08
1.02771e-05
-1.57335e-07
1.01162e-05
7.18139e-07
9.76357e-06
8.47569e-07
9.34354e-06
1.42251e-06
8.63176e-06
1.90694e-06
8.00182e-06
2.17122e-06
3.16592e-06
7.07642e-06
2.87799e-06
-7.22548e-07
3.13744e-06
-8.79886e-08
3.09717e-06
-1.5788e-07
3.05596e-06
-1.30962e-06
3.22123e-06
2.41291e-08
3.60948e-06
-1.07792e-06
3.79737e-06
-9.11828e-07
3.88729e-06
-1.57034e-06
4.43836e-06
-1.35437e-06
4.89142e-06
-2.23032e-06
5.25436e-06
-1.72229e-06
6.01312e-06
-2.73781e-06
6.61904e-06
-2.19227e-06
7.36535e-06
-3.08803e-06
7.94406e-06
-2.18922e-06
8.69009e-06
-2.71715e-06
9.24179e-06
-2.00692e-06
9.62102e-06
-1.99364e-06
1.00598e-05
-1.09058e-06
1.01934e-05
-1.22456e-06
1.02748e-05
9.15163e-09
1.02202e-05
-1.02691e-07
1.00526e-05
8.85707e-07
9.65805e-06
1.24214e-06
9.27863e-06
1.80192e-06
8.65155e-06
2.53402e-06
7.9865e-06
2.83627e-06
3.69664e-06
7.45578e-06
2.68082e-06
-6.44872e-07
2.79845e-06
-2.05622e-07
3.13048e-06
-4.89913e-07
2.66808e-06
-8.47214e-07
3.24888e-06
-5.5667e-07
3.26187e-06
-1.09091e-06
3.52958e-06
-1.17954e-06
3.91126e-06
-1.95202e-06
4.31023e-06
-1.75334e-06
4.58124e-06
-2.50132e-06
5.41777e-06
-2.55883e-06
5.89584e-06
-3.21588e-06
6.57977e-06
-2.87619e-06
7.36099e-06
-3.86925e-06
8.01372e-06
-2.84195e-06
8.74301e-06
-3.44644e-06
9.2516e-06
-2.51551e-06
9.62296e-06
-2.36501e-06
1.01483e-05
-1.61588e-06
1.01579e-05
-1.23416e-06
1.04419e-05
-2.74886e-07
1.02806e-05
5.86246e-08
1.02275e-05
9.38833e-07
9.84924e-06
1.62036e-06
9.48017e-06
2.17099e-06
8.90315e-06
3.11105e-06
8.20628e-06
3.53314e-06
4.18756e-06
7.71536e-06
2.63483e-06
-5.50319e-07
2.89499e-06
-4.65783e-07
2.76998e-06
-3.64906e-07
2.88739e-06
-9.64619e-07
3.21213e-06
-8.81412e-07
3.20555e-06
-1.08433e-06
3.6915e-06
-1.66549e-06
3.74656e-06
-2.00707e-06
4.26433e-06
-2.27112e-06
4.74911e-06
-2.9861e-06
5.3503e-06
-3.16001e-06
5.68128e-06
-3.54686e-06
6.72154e-06
-3.91646e-06
7.25318e-06
-4.40089e-06
7.98104e-06
-3.56981e-06
8.56631e-06
-4.03171e-06
8.94359e-06
-2.89278e-06
9.34911e-06
-2.77053e-06
9.68971e-06
-1.95649e-06
9.68108e-06
-1.22553e-06
9.96473e-06
-5.58545e-07
9.72848e-06
2.94875e-07
9.79311e-06
8.74208e-07
9.41722e-06
1.99625e-06
9.27643e-06
2.31178e-06
8.7755e-06
3.61198e-06
8.30674e-06
4.00189e-06
4.67399e-06
7.82032e-06
2.69814e-06
-6.1793e-07
2.72899e-06
-4.96632e-07
2.86089e-06
-4.96805e-07
2.88958e-06
-9.93312e-07
2.99478e-06
-9.86609e-07
3.36125e-06
-1.4508e-06
3.52078e-06
-1.82503e-06
3.74734e-06
-2.23364e-06
4.30335e-06
-2.82712e-06
4.52682e-06
-3.20956e-06
5.12488e-06
-3.75807e-06
5.87795e-06
-4.29993e-06
6.67157e-06
-4.71008e-06
6.93826e-06
-4.66759e-06
7.69723e-06
-4.32878e-06
7.99796e-06
-4.33245e-06
8.34783e-06
-3.24265e-06
8.70487e-06
-3.12757e-06
8.82482e-06
-2.07644e-06
8.87003e-06
-1.27073e-06
9.06193e-06
-7.50445e-07
8.83364e-06
5.23157e-07
8.93018e-06
7.77671e-07
8.59311e-06
2.33332e-06
8.55732e-06
2.34757e-06
8.18921e-06
3.98009e-06
7.9586e-06
4.23251e-06
4.99117e-06
7.64141e-06
2.65497e-06
-6.01951e-07
2.7026e-06
-5.44264e-07
2.79357e-06
-5.87779e-07
2.76219e-06
-9.61927e-07
3.08929e-06
-1.31371e-06
3.10657e-06
-1.46808e-06
3.30626e-06
-2.02472e-06
3.72641e-06
-2.65379e-06
3.9744e-06
-3.07512e-06
4.45478e-06
-3.68994e-06
5.1828e-06
-4.4861e-06
5.68946e-06
-4.80659e-06
6.13835e-06
-5.15897e-06
6.54165e-06
-5.07088e-06
7.08351e-06
-4.87064e-06
7.1036e-06
-4.35254e-06
7.4847e-06
-3.62374e-06
7.65575e-06
-3.29863e-06
7.69767e-06
-2.11835e-06
7.85225e-06
-1.42531e-06
7.88569e-06
-7.8389e-07
7.70303e-06
7.05821e-07
7.7762e-06
7.04498e-07
7.46811e-06
2.64141e-06
7.48697e-06
2.32871e-06
7.16422e-06
4.30284e-06
7.10675e-06
4.28997e-06
5.09488e-06
7.00304e-06
2.60743e-06
-5.98453e-07
2.67674e-06
-6.13574e-07
2.66724e-06
-5.78284e-07
2.80998e-06
-1.10467e-06
2.84588e-06
-1.3496e-06
3.03107e-06
-1.65327e-06
3.2956e-06
-2.28925e-06
3.40641e-06
-2.76459e-06
3.89125e-06
-3.55996e-06
4.47935e-06
-4.27804e-06
4.82936e-06
-4.83611e-06
5.23072e-06
-5.20795e-06
5.62688e-06
-5.55514e-06
5.88074e-06
-5.32474e-06
6.01944e-06
-5.00933e-06
6.12375e-06
-4.45685e-06
6.4861e-06
-3.98609e-06
6.42878e-06
-3.24131e-06
6.53979e-06
-2.22937e-06
6.71127e-06
-1.59679e-06
6.58731e-06
-6.59927e-07
6.64586e-06
6.47272e-07
6.60616e-06
7.44197e-07
6.3834e-06
2.86417e-06
6.36692e-06
2.34519e-06
6.21639e-06
4.45337e-06
6.16435e-06
4.34201e-06
5.08657e-06
6.17266e-06
2.59593e-06
-6.19904e-07
2.54338e-06
-5.61027e-07
2.65588e-06
-6.90783e-07
2.65148e-06
-1.10026e-06
2.76605e-06
-1.46418e-06
2.93922e-06
-1.82644e-06
2.97185e-06
-2.32188e-06
3.36602e-06
-3.15876e-06
3.81863e-06
-4.01256e-06
4.09051e-06
-4.54993e-06
4.39819e-06
-5.14379e-06
4.69843e-06
-5.50818e-06
4.75623e-06
-5.61294e-06
4.77319e-06
-5.3417e-06
4.92481e-06
-5.16096e-06
5.06711e-06
-4.59914e-06
5.04879e-06
-3.96777e-06
4.96321e-06
-3.15573e-06
5.1588e-06
-2.42496e-06
5.13359e-06
-1.57157e-06
5.02782e-06
-5.54159e-07
5.20919e-06
4.65904e-07
5.09064e-06
8.62748e-07
5.19682e-06
2.75799e-06
5.17004e-06
2.37196e-06
5.03151e-06
4.59191e-06
5.13163e-06
4.24189e-06
5.06306e-06
5.15514e-06
2.51371e-06
-5.67652e-07
2.54684e-06
-5.94154e-07
2.53582e-06
-6.79767e-07
2.5738e-06
-1.13824e-06
2.65667e-06
-1.54705e-06
2.70953e-06
-1.8793e-06
2.94295e-06
-2.5553e-06
3.17025e-06
-3.38606e-06
3.40109e-06
-4.24341e-06
3.71366e-06
-4.8625e-06
3.84494e-06
-5.27507e-06
3.81404e-06
-5.47727e-06
3.8002e-06
-5.59911e-06
3.80437e-06
-5.34587e-06
3.66715e-06
-5.02374e-06
3.5384e-06
-4.47039e-06
3.5302e-06
-3.95958e-06
3.62247e-06
-3.24799e-06
3.57774e-06
-2.38023e-06
3.41751e-06
-1.41135e-06
3.52479e-06
-6.61436e-07
3.66149e-06
3.292e-07
3.47974e-06
1.0445e-06
3.7704e-06
2.46734e-06
3.73864e-06
2.40372e-06
3.83178e-06
4.49877e-06
4.02421e-06
4.04946e-06
5.06605e-06
4.02122e-06
2.52837e-06
-5.97512e-07
2.42749e-06
-4.93267e-07
2.50455e-06
-7.56829e-07
2.51043e-06
-1.14412e-06
2.4548e-06
-1.49141e-06
2.63211e-06
-2.05661e-06
2.70161e-06
-2.6248e-06
2.84595e-06
-3.53041e-06
3.09722e-06
-4.49467e-06
3.10878e-06
-4.87406e-06
3.00674e-06
-5.17303e-06
2.91106e-06
-5.38158e-06
2.67346e-06
-5.36151e-06
2.3931e-06
-5.06551e-06
2.21837e-06
-4.84901e-06
2.18447e-06
-4.43649e-06
2.00744e-06
-3.78255e-06
1.80985e-06
-3.0504e-06
1.79124e-06
-2.36162e-06
1.8542e-06
-1.4743e-06
1.86497e-06
-6.72209e-07
1.73863e-06
4.55541e-07
1.78053e-06
1.00259e-06
2.23803e-06
2.00984e-06
2.11422e-06
2.52753e-06
2.33403e-06
4.27897e-06
2.59229e-06
3.7912e-06
4.85891e-06
2.79943e-06
2.43052e-06
-5.57947e-07
2.40644e-06
-4.69189e-07
2.45429e-06
-8.04683e-07
2.37442e-06
-1.06425e-06
2.38354e-06
-1.50053e-06
2.44918e-06
-2.12226e-06
2.4869e-06
-2.66252e-06
2.51718e-06
-3.56068e-06
2.45756e-06
-4.43506e-06
2.3764e-06
-4.79291e-06
2.19791e-06
-4.99454e-06
1.80761e-06
-4.99128e-06
1.45766e-06
-5.01156e-06
1.22039e-06
-4.82824e-06
8.58556e-07
-4.48717e-06
5.28285e-07
-4.10622e-06
2.98008e-07
-3.55227e-06
1.7953e-07
-2.93193e-06
6.53797e-08
-2.24747e-06
-1.14714e-07
-1.29421e-06
3.26198e-09
-7.90185e-07
3.66955e-08
4.22108e-07
1.68242e-07
8.71049e-07
2.51531e-07
1.92655e-06
3.22585e-07
2.45647e-06
9.92595e-07
3.60896e-06
1.15523e-06
3.62856e-06
4.66308e-06
1.35106e-06
2.38126e-06
-4.95307e-07
2.32489e-06
-4.12817e-07
2.35531e-06
-8.35104e-07
2.28293e-06
-9.91865e-07
2.25284e-06
-1.47044e-06
2.31996e-06
-2.18938e-06
2.1902e-06
-2.53276e-06
2.00037e-06
-3.37086e-06
1.90216e-06
-4.33685e-06
1.59667e-06
-4.48741e-06
1.11677e-06
-4.51464e-06
7.1435e-07
-4.58886e-06
2.38255e-07
-4.53546e-06
-2.69621e-07
-4.32036e-06
-6.7016e-07
-4.08664e-06
-9.53042e-07
-3.82334e-06
-1.28104e-06
-3.22428e-06
-1.55034e-06
-2.66262e-06
-1.75096e-06
-2.04685e-06
-1.79202e-06
-1.25315e-06
-1.85408e-06
-7.28118e-07
-1.77602e-06
3.44048e-07
-1.69441e-06
7.8943e-07
-1.45522e-06
1.68736e-06
-1.23267e-06
2.23393e-06
-6.82027e-07
3.05832e-06
-6.26405e-07
3.57294e-06
3.93463e-06
1.02054e-07
2.29973e-06
-3.70695e-07
2.29655e-06
-4.09633e-07
2.24276e-06
-7.81315e-07
2.12455e-06
-8.73654e-07
2.18002e-06
-1.52591e-06
2.05084e-06
-2.0602e-06
1.76591e-06
-2.24782e-06
1.50754e-06
-3.11249e-06
1.10564e-06
-3.93495e-06
6.72802e-07
-4.05458e-06
1.86929e-07
-4.02877e-06
-4.33496e-07
-3.96844e-06
-1.02634e-06
-3.94262e-06
-1.53097e-06
-3.81574e-06
-2.05016e-06
-3.56745e-06
-2.50097e-06
-3.37252e-06
-2.81184e-06
-2.91341e-06
-3.12146e-06
-2.353e-06
-3.39855e-06
-1.76976e-06
-3.50812e-06
-1.14358e-06
-3.63986e-06
-5.96384e-07
-3.52544e-06
2.29637e-07
-3.43267e-06
6.96656e-07
-3.19754e-06
1.45223e-06
-2.88223e-06
1.91861e-06
-2.42309e-06
2.59918e-06
-2.13634e-06
3.28618e-06
3.27987e-06
-1.48159e-06
2.2357e-06
-2.27639e-07
2.26643e-06
-4.40372e-07
2.11674e-06
-6.31624e-07
2.07971e-06
-8.36621e-07
2.05618e-06
-1.50238e-06
1.72918e-06
-1.73319e-06
1.28329e-06
-1.80193e-06
8.52283e-07
-2.68148e-06
3.70527e-07
-3.45319e-06
-2.29751e-07
-3.4543e-06
-8.55065e-07
-3.40345e-06
-1.43126e-06
-3.39224e-06
-2.1584e-06
-3.21548e-06
-2.82015e-06
-3.15399e-06
-3.3446e-06
-3.043e-06
-3.87682e-06
-2.8403e-06
-4.30863e-06
-2.4816e-06
-4.66754e-06
-1.99409e-06
-4.95256e-06
-1.48474e-06
-5.13965e-06
-9.56495e-07
-5.29165e-06
-4.44386e-07
-5.23569e-06
1.73681e-07
-5.13288e-06
5.93841e-07
-4.84918e-06
1.16853e-06
-4.46156e-06
1.53099e-06
-4.00385e-06
2.14147e-06
-3.49221e-06
2.77455e-06
2.51345e-06
-2.7258e-06
2.20909e-06
-1.44505e-07
2.18809e-06
-4.19366e-07
2.01186e-06
-4.55396e-07
2.01369e-06
-8.38446e-07
1.89019e-06
-1.37889e-06
1.32609e-06
-1.16909e-06
7.31246e-07
-1.20709e-06
2.6716e-07
-2.2174e-06
-3.68935e-07
-2.81709e-06
-1.01235e-06
-2.81089e-06
-1.74312e-06
-2.67268e-06
-2.55779e-06
-2.57757e-06
-3.29671e-06
-2.47656e-06
-4.01827e-06
-2.43243e-06
-4.66888e-06
-2.39239e-06
-5.25689e-06
-2.25228e-06
-5.76509e-06
-1.9734e-06
-6.1789e-06
-1.58028e-06
-6.49392e-06
-1.16972e-06
-6.69273e-06
-7.5768e-07
-6.80924e-06
-3.27877e-07
-6.75389e-06
1.18327e-07
-6.62769e-06
4.67637e-07
-6.31981e-06
8.60655e-07
-5.96395e-06
1.17514e-06
-5.50012e-06
1.67764e-06
-4.81524e-06
2.08967e-06
1.8659e-06
-4.16768e-06
2.20142e-06
-1.06877e-07
2.10592e-06
-3.23867e-07
1.92396e-06
-2.73435e-07
1.90984e-06
-8.2433e-07
1.52339e-06
-9.92436e-07
8.78924e-07
-5.24621e-07
3.25874e-07
-6.54037e-07
-2.73894e-07
-1.61763e-06
-9.69104e-07
-2.12188e-06
-1.70594e-06
-2.07406e-06
-2.44322e-06
-1.9354e-06
-3.31101e-06
-1.70978e-06
-4.17675e-06
-1.61081e-06
-4.97705e-06
-1.63214e-06
-5.72626e-06
-1.64318e-06
-6.41574e-06
-1.5628e-06
-6.99849e-06
-1.39064e-06
-7.45721e-06
-1.12157e-06
-7.80672e-06
-8.20213e-07
-8.03006e-06
-5.34341e-07
-8.14054e-06
-2.17389e-07
-8.09798e-06
7.57604e-08
-7.96546e-06
3.35118e-07
-7.67558e-06
5.70778e-07
-7.30195e-06
8.01508e-07
-6.77017e-06
1.14587e-06
-5.96009e-06
1.27958e-06
1.26397e-06
-5.35816e-06
2.16575e-06
-7.46208e-08
1.98665e-06
-1.4477e-07
1.9057e-06
-1.92484e-07
1.66271e-06
-5.81339e-07
1.10791e-06
-4.37643e-07
6.17525e-07
-3.42329e-08
1.62165e-07
-1.98677e-07
-6.24197e-07
-8.31266e-07
-1.58162e-06
-1.16446e-06
-2.52416e-06
-1.13151e-06
-3.38839e-06
-1.07117e-06
-4.20265e-06
-8.95522e-07
-4.99317e-06
-8.20289e-07
-5.80397e-06
-8.21336e-07
-6.60258e-06
-8.44574e-07
-7.36552e-06
-7.99857e-07
-8.0421e-06
-7.14064e-07
-8.58293e-06
-5.80738e-07
-8.98257e-06
-4.20578e-07
-9.2421e-06
-2.74814e-07
-9.34899e-06
-1.10492e-07
-9.30724e-06
3.4011e-08
-9.14234e-06
1.70214e-07
-8.83737e-06
2.65809e-07
-8.42746e-06
3.91602e-07
-7.82995e-06
5.48355e-07
-7.10887e-06
5.585e-07
6.49691e-07
-6.4946e-06
1.92905e-06
1.78428e-06
1.5918e-06
1.01046e-06
5.72814e-07
5.38582e-07
3.39905e-07
-4.91361e-07
-1.65582e-06
-2.78734e-06
-3.85851e-06
-4.75403e-06
-5.57432e-06
-6.39565e-06
-7.24023e-06
-8.04008e-06
-8.75415e-06
-9.33489e-06
-9.75546e-06
-1.00303e-05
-1.01408e-05
-1.01068e-05
-9.93655e-06
-9.67074e-06
-9.27913e-06
-8.73078e-06
-8.17228e-06
-7.52259e-06
4.97938e-06
3.26664e-06
-1.43321e-06
2.93719e-06
3.97852e-06
-1.93633e-06
1.34228e-06
4.18338e-06
-2.58848e-06
2.54443e-06
1.32404e-06
-2.52619e-06
3.88825e-06
-2.66478e-06
1.32097e-06
3.32748e-06
-1.48239e-06
2.04316e-06
4.74843e-07
-2.40014e-06
5.25278e-06
-2.26341e-06
-2.20878e-06
4.94703e-06
6.6792e-06
3.21118e-06
5.95164e-06
4.70608e-06
4.67007e-06
5.46496e-06
4.46333e-06
1.53077e-06
3.27276e-06
-1.47421e-06
2.74634e-06
-9.55978e-07
2.44033e-06
-2.09413e-06
6.73318e-07
-4.96396e-07
6.77285e-06
3.51474e-06
7.00481e-06
4.47412e-06
6.43677e-06
6.033e-06
5.50805e-06
2.4595e-06
4.41803e-06
-3.84192e-07
3.63929e-06
-1.77241e-07
4.16508e-06
-2.61992e-06
3.42304e-06
1.41536e-06
6.63886e-06
4.33167e-06
6.90944e-06
4.20354e-06
6.89194e-06
6.0505e-06
5.77801e-06
3.57343e-06
4.39158e-06
1.00224e-06
2.00876e-06
2.20557e-06
-2.59299e-06
1.98183e-06
1.42266e-06
-5.92609e-07
6.87255e-06
5.17447e-06
6.69921e-06
4.37688e-06
6.90561e-06
5.84409e-06
6.01803e-06
4.46101e-06
4.81878e-06
2.20149e-06
4.49556e-06
2.5288e-06
2.53813e-06
3.93926e-06
2.25684e-06
1.70395e-06
7.15983e-06
5.83496e-06
6.6366e-06
4.90011e-06
6.69648e-06
5.78422e-06
5.86825e-06
5.28924e-06
4.64067e-06
3.42906e-06
4.70835e-06
2.46112e-06
4.15959e-06
4.48802e-06
2.93385e-06
3.48258e-06
7.18157e-06
6.2948e-06
6.64598e-06
5.4357e-06
6.43406e-06
5.99614e-06
5.9227e-06
5.80061e-06
4.62826e-06
4.7235e-06
4.61689e-06
2.47249e-06
4.48911e-06
4.6158e-06
3.59087e-06
3.83209e-06
6.67628e-06
6.62156e-06
6.51289e-06
5.59909e-06
6.14493e-06
6.3641e-06
5.87835e-06
6.06719e-06
4.95066e-06
5.65119e-06
4.67147e-06
2.75168e-06
4.5996e-06
4.68767e-06
4.12944e-06
4.06103e-06
5.91857e-06
6.87565e-06
5.99964e-06
5.51802e-06
5.68656e-06
6.67718e-06
5.3802e-06
6.37355e-06
4.89705e-06
6.13434e-06
4.57994e-06
3.0688e-06
4.52244e-06
4.74517e-06
4.4064e-06
4.24548e-06
5.06978e-06
6.96101e-06
5.32645e-06
5.26135e-06
5.23952e-06
6.76411e-06
5.10012e-06
6.51294e-06
4.65145e-06
6.58301e-06
4.31813e-06
3.40212e-06
4.40324e-06
4.66006e-06
4.35336e-06
4.45628e-06
3.98158e-06
7.00064e-06
4.34153e-06
4.90141e-06
4.3683e-06
6.73733e-06
4.51075e-06
6.3705e-06
4.53609e-06
6.55767e-06
4.07542e-06
3.86279e-06
4.10389e-06
4.6316e-06
4.23373e-06
4.22351e-06