/*--------------------------------*- C++ -*----------------------------------*\
| =========                 |                                                 |
| \\      /  F ield         | OpenFOAM: The Open Source CFD Toolbox           |
|  \\    /   O peration     | Version:  2.4.0                                 |
|   \\  /    A nd           | Web:      www.OpenFOAM.org                      |
|    \\/     M anipulation  |                                                 |
\*---------------------------------------------------------------------------*/
FoamFile
{
    version     2.0;
    format      ascii;
    class       volScalarField;
    location    "280";
    object      k;
}
// * * * * * * * * * * * * * * * * * * * * * * * * * * * * * * * * * * * * * //

dimensions      [0 2 -2 0 0 0 0];

internalField   nonuniform List<scalar> 
6000
(
0.0139121
0.00612056
0.00167829
0.00124545
0.00114177
0.00110826
0.00108131
0.00106205
0.00104938
0.00105741
0.00109444
0.00115018
0.00120239
0.00123106
0.00122737
0.00118113
0.00108818
0.000950695
0.000736757
0.000676572
0.00064816
0.00062904
0.000634483
0.000582542
0.00102071
0.00144526
0.00184069
0.00223436
0.00257489
0.00286048
0.00309403
0.00328125
0.00342991
0.00355014
0.00364621
0.00372336
0.00378532
0.00383249
0.00386108
0.00386129
0.00381721
0.00371022
0.00351479
0.00314778
0.00295844
0.00296112
0.00297245
0.0029948
0.00303563
0.00312984
0.00326607
0.00345876
0.00369087
0.00399783
0.00433026
0.00482831
0.00529795
0.00630482
0.00697946
0.00975972
0.0108007
0.00614809
0.00349473
0.0018752
0.00150542
0.00147994
0.00149406
0.00151212
0.00152018
0.00152706
0.00155265
0.00160536
0.00167719
0.00175445
0.00182362
0.00185838
0.00184039
0.00174274
0.00149404
0.00125321
0.00112642
0.00112555
0.001295
0.00135499
0.00159359
0.00190158
0.00220618
0.00251232
0.00281163
0.00310675
0.00340032
0.00369583
0.00399761
0.00431102
0.00463343
0.00496999
0.00532107
0.00568243
0.00604302
0.00638047
0.00665855
0.00683061
0.00682595
0.00644416
0.00598201
0.00559606
0.00518364
0.00476332
0.00435506
0.00398213
0.00365166
0.00337826
0.00316277
0.00304682
0.00301963
0.00322115
0.00348701
0.00425845
0.00475293
0.00635486
0.0105284
0.00643549
0.00416236
0.00286908
0.00217428
0.00199914
0.00196775
0.00197097
0.00197475
0.00198155
0.00201025
0.00206848
0.00214699
0.00223059
0.00230286
0.00233409
0.00229955
0.00216942
0.00188366
0.00159681
0.00146981
0.0015458
0.00181059
0.00183771
0.00209691
0.00243049
0.00277756
0.00313357
0.00349109
0.00384947
0.0042096
0.00457436
0.00494815
0.00532946
0.0057245
0.00613739
0.0065688
0.0070135
0.00745693
0.00786914
0.00820135
0.00838837
0.00831758
0.00778501
0.00725479
0.00673115
0.00617257
0.00560656
0.00505831
0.00455071
0.00409544
0.00371159
0.00341613
0.00328009
0.00331952
0.00368231
0.00410512
0.00505968
0.00569054
0.00743677
0.0106764
0.00664299
0.0044731
0.00353562
0.00289869
0.00251133
0.00240027
0.00237277
0.00236494
0.00236795
0.00239552
0.00245232
0.00252758
0.00260552
0.00266895
0.00268549
0.00262621
0.00246249
0.00215738
0.00185379
0.00174974
0.00191526
0.00218057
0.00221345
0.00252163
0.00290059
0.00329662
0.00369828
0.00409711
0.00449198
0.00488442
0.00527822
0.00567849
0.00608432
0.00650456
0.00694444
0.00740572
0.00788331
0.00836057
0.00880167
0.00914697
0.00931313
0.00914235
0.00854325
0.0079793
0.00737377
0.00672903
0.00608032
0.0054568
0.00488256
0.00437414
0.0039591
0.00367699
0.00362688
0.00382513
0.00435586
0.0049441
0.00597558
0.00680969
0.0085096
0.010787
0.00678391
0.00463069
0.003867
0.00362847
0.00305673
0.00283335
0.00275993
0.00273274
0.00272653
0.00274755
0.00279732
0.0028642
0.00293214
0.00298308
0.00298097
0.00289335
0.00269473
0.00237618
0.00206946
0.00200038
0.00224387
0.00244643
0.00252646
0.0028919
0.0033202
0.00376121
0.00419964
0.00462722
0.00504352
0.00545101
0.00585433
0.00625932
0.00666674
0.00708742
0.0075285
0.00799362
0.0084788
0.00896651
0.00941617
0.00975773
0.00988743
0.00961538
0.00901212
0.00842516
0.00776605
0.00706515
0.00636393
0.00569485
0.00508402
0.00455409
0.0041451
0.00392173
0.00399565
0.00435302
0.00500749
0.00572015
0.00679709
0.00780602
0.00940701
0.0108513
0.00688297
0.00471513
0.00400123
0.00421245
0.00364944
0.00328988
0.00315427
0.00309896
0.00307761
0.00308686
0.00312506
0.00318015
0.00323592
0.003273
0.00325047
0.00313199
0.00289591
0.00256129
0.00225763
0.00222855
0.00251154
0.00264931
0.00279907
0.00322445
0.00370291
0.00418568
0.00465543
0.00510453
0.00553326
0.00594477
0.00634439
0.00673871
0.00713071
0.00753329
0.00795621
0.00840582
0.00888039
0.00936291
0.00980924
0.0101394
0.0102266
0.00987834
0.00930242
0.0087002
0.00800572
0.00726765
0.0065326
0.00583614
0.0052074
0.00467699
0.0043008
0.0041663
0.00437638
0.00487309
0.00561797
0.00642941
0.00754628
0.00869552
0.0101791
0.0108872
0.00695336
0.00476249
0.00402579
0.00455699
0.00426879
0.003781
0.00356746
0.00347461
0.00343189
0.00342444
0.00344718
0.003488
0.00353056
0.00355381
0.0035108
0.00335999
0.00308298
0.00272379
0.0024235
0.00243138
0.00270979
0.00281502
0.00304468
0.00353086
0.00405969
0.0045823
0.00508024
0.00554637
0.0059814
0.00638883
0.0067746
0.00714603
0.00750872
0.00787791
0.00826656
0.00868459
0.00913386
0.0095995
0.0100355
0.0103524
0.0103989
0.0100125
0.00947563
0.00886469
0.00814743
0.00738498
0.00662849
0.0059169
0.00528355
0.00476924
0.00444774
0.00442215
0.00476626
0.00537873
0.00619166
0.00709106
0.00824721
0.00950608
0.0108604
0.0109043
0.00700331
0.00479076
0.00399444
0.00467721
0.0048436
0.00430848
0.00400611
0.00386621
0.00379576
0.00376692
0.00377077
0.00379546
0.0038246
0.00383522
0.00377313
0.00358968
0.00326791
0.00287305
0.00256919
0.00260207
0.0028477
0.00295956
0.0032725
0.00381971
0.00439903
0.00496053
0.00548492
0.00596531
0.00640238
0.00679975
0.00716382
0.00750257
0.00782451
0.0081474
0.00848791
0.00886043
0.00927176
0.00971112
0.0101327
0.0104386
0.0104525
0.0100682
0.00957164
0.00895758
0.00822642
0.0074483
0.00667872
0.00596057
0.00533286
0.00484868
0.00459974
0.0046937
0.00516171
0.00586743
0.00673699
0.00772097
0.00891444
0.0102548
0.0114703
0.010909
0.00703896
0.00480933
0.00393865
0.00463962
0.00528252
0.00486133
0.00447313
0.00427776
0.00417334
0.00411867
0.00410061
0.00410779
0.00412391
0.00412399
0.00404566
0.00383067
0.00346077
0.00301876
0.00269763
0.00273325
0.0029454
0.00309373
0.00348971
0.00409779
0.00472766
0.00532771
0.00587787
0.00637105
0.00680751
0.00719069
0.0075273
0.00782582
0.00809779
0.00836362
0.00864403
0.00895863
0.00932056
0.00972541
0.0101303
0.0104293
0.0104253
0.0100769
0.00961801
0.00900574
0.00826699
0.00747906
0.00670201
0.00598341
0.00536958
0.00492763
0.00476496
0.00498131
0.00555818
0.00633867
0.007262
0.00833061
0.00955589
0.010948
0.0120198
0.0109058
0.00706484
0.00482319
0.00387599
0.00450352
0.00553649
0.00540641
0.00496717
0.00471142
0.00456734
0.00448275
0.00444011
0.00442872
0.0044327
0.00442501
0.00433452
0.00409077
0.00367079
0.00317095
0.00281455
0.00283023
0.00302116
0.00322549
0.00370231
0.00437073
0.0050511
0.0056898
0.00626583
0.00677145
0.0072061
0.00757269
0.00787808
0.00813094
0.0083459
0.00854597
0.00875609
0.00900162
0.00930337
0.00966566
0.0100518
0.0103495
0.0103475
0.010057
0.00963433
0.00902828
0.00828644
0.00749254
0.00671167
0.00599705
0.00540391
0.00501444
0.00494738
0.00528248
0.00595141
0.00679403
0.00777442
0.00892778
0.0101751
0.011591
0.0125159
0.0108979
0.00708407
0.00483501
0.00381575
0.00431511
0.00561251
0.00588552
0.00548033
0.00516742
0.00497935
0.00486124
0.0047917
0.00476096
0.0047539
0.0047416
0.00464417
0.00437635
0.00390657
0.00334022
0.00292929
0.00290652
0.00309047
0.00336128
0.00391554
0.00464329
0.00537399
0.00605171
0.00665433
0.007173
0.00760586
0.00795501
0.00822723
0.00843099
0.00858402
0.00871176
0.00884322
0.00900975
0.00924089
0.00955213
0.00991683
0.0102187
0.0102406
0.0100204
0.00963455
0.00903882
0.00829716
0.00749966
0.00671724
0.00600985
0.00544309
0.00511443
0.00514796
0.00559332
0.00633843
0.00723712
0.00828129
0.00951709
0.0107729
0.0121867
0.0129632
0.0108874
0.00709878
0.00484617
0.00376248
0.00410704
0.00553875
0.00624678
0.00599384
0.00564342
0.00540985
0.00525543
0.00515706
0.00510636
0.00508942
0.00507579
0.00497747
0.00469222
0.0041758
0.00353739
0.00305455
0.00297922
0.00316603
0.00350657
0.00413395
0.00491954
0.00570019
0.00641751
0.00704788
0.00758088
0.00801297
0.00834508
0.0085837
0.0087367
0.00882496
0.00887598
0.00892241
0.00900142
0.00915187
0.00940271
0.00974172
0.0100522
0.0101184
0.0099755
0.0096285
0.00904704
0.00830797
0.00750828
0.00672559
0.00602779
0.00549216
0.00523058
0.00536564
0.00590976
0.00671817
0.00767313
0.00878841
0.0101004
0.011348
0.0127365
0.0133648
0.0108755
0.0071104
0.00485737
0.00371793
0.0039006
0.0053519
0.0064642
0.00647356
0.00613309
0.00585797
0.00566576
0.00553718
0.00546602
0.00544025
0.00542836
0.00533575
0.00504153
0.00448481
0.00377265
0.00320473
0.00306568
0.00325822
0.00366623
0.00436159
0.00520298
0.00603297
0.00679049
0.00745001
0.00799905
0.00843197
0.00874828
0.008954
0.00905607
0.00907861
0.00905074
0.00900804
0.00899277
0.00905311
0.0092333
0.00954015
0.00986193
0.00998929
0.0099274
0.00962289
0.00905966
0.00832515
0.007524
0.00674164
0.00605512
0.00555442
0.0053641
0.00559812
0.00622835
0.00709164
0.00810805
0.00929981
0.0106772
0.0118984
0.013241
0.0137233
0.0108631
0.00711993
0.00486893
0.00368239
0.00370845
0.00508929
0.00653285
0.00688172
0.00662362
0.00632098
0.00609177
0.00593229
0.00584034
0.00580655
0.00579906
0.00571892
0.00542567
0.00483807
0.00405481
0.00339369
0.00318138
0.00337562
0.00384464
0.00460199
0.00549658
0.00637501
0.00717323
0.00786326
0.00843011
0.00886568
0.00916784
0.009342
0.00939405
0.00935155
0.00924478
0.00911128
0.00899723
0.00895932
0.00905808
0.00932378
0.00965717
0.0098578
0.00987926
0.00962207
0.00908127
0.00835311
0.00755082
0.0067689
0.0060948
0.00563192
0.00551492
0.00584266
0.00654691
0.00746177
0.00854783
0.00981748
0.0112452
0.0124212
0.0137004
0.0140409
0.0108507
0.00712802
0.00488096
0.00365534
0.00353714
0.00478428
0.00646242
0.00718966
0.00709293
0.00679327
0.00653177
0.00634187
0.00622905
0.00618779
0.00618669
0.00612556
0.00584425
0.00523797
0.00439048
0.00363307
0.00333888
0.0035254
0.00404578
0.00485827
0.00580286
0.00672846
0.00756758
0.00828923
0.0088754
0.00931524
0.00960484
0.00974891
0.0097525
0.00964687
0.00946304
0.00923956
0.00902496
0.00888273
0.00888952
0.00910278
0.00944529
0.00972592
0.00983262
0.00962867
0.00911486
0.00839491
0.00759162
0.0068099
0.00614889
0.00572577
0.00568215
0.00609623
0.00686486
0.00783296
0.00899754
0.0103414
0.0118001
0.0129136
0.0141153
0.0143197
0.0108386
0.00713514
0.00489346
0.00363591
0.00338916
0.00446401
0.00627287
0.00737841
0.00751567
0.00726486
0.00698251
0.00676446
0.00663113
0.00658274
0.00658929
0.0065531
0.00629522
0.00568465
0.00478373
0.00393128
0.00354757
0.0037135
0.00427317
0.00513308
0.00612388
0.00709493
0.00797471
0.00872856
0.00933503
0.00978024
0.0100584
0.0101737
0.0101305
0.00996439
0.00970678
0.00939636
0.00908236
0.00883261
0.00873827
0.00888625
0.0092323
0.00959411
0.00978795
0.00964399
0.00916229
0.00845269
0.00764851
0.00686654
0.00621884
0.00583644
0.00586453
0.00635676
0.00718335
0.00821044
0.00946074
0.0108695
0.012337
0.0133731
0.0144864
0.0145615
0.010827
0.0071416
0.00490636
0.00362309
0.00326446
0.00414882
0.00599001
0.00743891
0.00786934
0.00771997
0.00743838
0.00719746
0.0070448
0.00698955
0.00700433
0.00699807
0.00677505
0.00617619
0.00523596
0.00429347
0.00381383
0.00394475
0.00452993
0.00542872
0.00646129
0.00747553
0.00839512
0.00918109
0.00980808
0.010259
0.0105263
0.0106132
0.0105251
0.0103014
0.0099741
0.00958147
0.00917192
0.00881484
0.00861278
0.00868238
0.00902311
0.00946213
0.00974494
0.00966841
0.00922462
0.00852794
0.00772315
0.00694032
0.00630573
0.00596406
0.00606078
0.00662333
0.00750513
0.0085995
0.00993911
0.0113984
0.0128517
0.0137978
0.0148146
0.0147685
0.0108159
0.00714762
0.00491958
0.00361588
0.00316157
0.00385259
0.00564167
0.00737207
0.00813361
0.00814175
0.00789028
0.00763681
0.00746742
0.00740576
0.0074288
0.00745627
0.00727903
0.00670879
0.00574611
0.00472181
0.00414151
0.00422291
0.00481873
0.00574708
0.00681633
0.00787087
0.00882872
0.0096459
0.0102928
0.010749
0.0110052
0.0110637
0.0109319
0.0106534
0.0102609
0.00979174
0.00929261
0.00883179
0.00851892
0.00849836
0.00882197
0.00932955
0.00970283
0.00970164
0.00930226
0.0086217
0.00781684
0.00703253
0.00641046
0.00610864
0.00626994
0.00689617
0.00783423
0.00900483
0.0104323
0.0119237
0.0133403
0.0141862
0.0151014
0.0149427
0.0108056
0.00715334
0.00493302
0.00361334
0.00307829
0.00358378
0.00525473
0.00718752
0.00829263
0.0085129
0.00832677
0.00807633
0.00789528
0.00782824
0.00785935
0.00792302
0.0078015
0.00727712
0.00631104
0.0052161
0.00453242
0.0045507
0.00514174
0.00608966
0.00718985
0.00828111
0.00927489
0.0101215
0.0107868
0.011247
0.0114913
0.0115207
0.0113463
0.0110154
0.0105619
0.0100222
0.00944069
0.00888251
0.00845972
0.00834021
0.00863287
0.00919608
0.00966054
0.00974285
0.00939523
0.00873472
0.00793076
0.00714438
0.00653389
0.00627028
0.00649162
0.0071768
0.00817542
0.0094299
0.0109383
0.01244
0.0137992
0.0145377
0.0153484
0.015086
0.0107959
0.00715885
0.0049466
0.00361466
0.00301217
0.00334652
0.004853
0.00690164
0.00833669
0.00881592
0.00873589
0.00850763
0.00832332
0.00825307
0.00829236
0.0083933
0.00833612
0.00787461
0.00692582
0.00577423
0.0049868
0.00492986
0.00550067
0.0064576
0.00758229
0.00870596
0.00973254
0.010606
0.0112873
0.0117496
0.0119807
0.0119801
0.0117635
0.0113824
0.0108717
0.0102672
0.00961082
0.0089635
0.00843545
0.00821259
0.00846002
0.0090617
0.00961684
0.0097909
0.00950321
0.00886752
0.00806598
0.00727709
0.00667699
0.00644934
0.00672623
0.00746795
0.00853369
0.0098766
0.0114532
0.0129414
0.0142255
0.0148521
0.0155577
0.0152007
0.0107868
0.00716422
0.00496023
0.0036191
0.00296074
0.00314181
0.00445605
0.00653528
0.00826289
0.00903465
0.00910412
0.00892223
0.00874485
0.00867538
0.00872391
0.00886187
0.00887605
0.00849369
0.00758404
0.00639256
0.00550368
0.00536121
0.00589672
0.00685162
0.00799371
0.00914477
0.0102002
0.011097
0.0117916
0.0122535
0.0124698
0.0124381
0.0121796
0.01175
0.0111854
0.010521
0.00979705
0.0090696
0.00844399
0.0081203
0.00830633
0.00892682
0.00957045
0.00984438
0.00962559
0.00902047
0.00822353
0.00743197
0.0068409
0.00664658
0.00697507
0.00777333
0.00891359
0.010345
0.0119722
0.0134234
0.0146173
0.0151299
0.0157314
0.0152886
0.0107785
0.00716948
0.00497384
0.00362605
0.00292173
0.00296855
0.0040787
0.0061115
0.00807521
0.00915585
0.00941704
0.00931021
0.009153
0.0090895
0.00914966
0.00932335
0.00941417
0.00912602
0.00827808
0.00706619
0.00608108
0.00584476
0.00633056
0.00727209
0.00842381
0.0095965
0.0106761
0.0115923
0.0122965
0.0127554
0.0129552
0.0128911
0.012591
0.0121144
0.0114987
0.0107788
0.00999361
0.0091949
0.00848294
0.00806626
0.00817381
0.00879231
0.00952013
0.00990168
0.00976158
0.00919376
0.0084044
0.00761041
0.00702701
0.00686329
0.00724034
0.00809729
0.00931875
0.0108334
0.0124899
0.0138816
0.0149734
0.0153721
0.0158718
0.0153519
0.0107708
0.00717466
0.00498736
0.00363496
0.00289308
0.00282437
0.0037311
0.00565345
0.00778374
0.00917041
0.00966033
0.00966041
0.00954003
0.0094894
0.00956541
0.00977221
0.00994315
0.00976266
0.00899917
0.00778901
0.00671615
0.00637977
0.00680242
0.007719
0.00887194
0.0100598
0.0111582
0.0120891
0.012799
0.0132522
0.0134337
0.0133362
0.0129948
0.0124726
0.0118078
0.0110361
0.0101953
0.00933342
0.00855294
0.00804906
0.00806377
0.00865936
0.00946475
0.00996101
0.00991013
0.00938746
0.00860956
0.00781391
0.00723697
0.00710127
0.00752511
0.00844436
0.0097514
0.0113385
0.0130006
0.0143127
0.0152934
0.0155799
0.0159812
0.0153924
0.0107637
0.00717978
0.00500074
0.00364541
0.00287297
0.00270622
0.00341926
0.00518269
0.00740363
0.00907418
0.00982084
0.00996088
0.00989721
0.00986842
0.0099652
0.0102038
0.0104556
0.0103942
0.00973754
0.00855373
0.00740525
0.00696488
0.00731206
0.008192
0.00933714
0.010533
0.0116442
0.0125847
0.0132963
0.0137408
0.0139024
0.0137708
0.0133882
0.0128216
0.0121098
0.0112893
0.0103974
0.00948563
0.00865093
0.00806451
0.00797677
0.00852936
0.0094033
0.0100205
0.01007
0.00960143
0.00883991
0.00804406
0.00747272
0.0073629
0.00783297
0.00881879
0.0102121
0.0118559
0.0134989
0.0147139
0.0155775
0.0157551
0.016062
0.015412
0.0107571
0.00718483
0.00501393
0.00365702
0.00285987
0.0026108
0.00314575
0.00471793
0.0069536
0.00886838
0.00988764
0.0101995
0.010215
0.0102192
0.0103418
0.0106131
0.0109451
0.011011
0.0104825
0.00935182
0.00814386
0.00759818
0.00785895
0.00869053
0.0098182
0.0110143
0.0121318
0.0130764
0.0137854
0.0142182
0.0143585
0.0141922
0.013769
0.0131591
0.0124018
0.011535
0.0106009
0.00965179
0.00877094
0.00810739
0.00791265
0.00840381
0.0093349
0.010078
0.0102397
0.00983534
0.00909622
0.00830248
0.00773644
0.00765102
0.00816811
0.00922405
0.0106999
0.0123803
0.0139796
0.0150835
0.0158264
0.0158994
0.0161164
0.0154124
0.0107511
0.00718982
0.0050269
0.00366949
0.00285247
0.00253491
0.00291051
0.00427425
0.00645439
0.00855946
0.00985296
0.0103644
0.0104834
0.010534
0.0106883
0.010995
0.0114062
0.0116039
0.0112221
0.0101733
0.00892648
0.00827724
0.00844231
0.00921398
0.0103138
0.0115016
0.0126183
0.0135613
0.0142632
0.0146816
0.0147989
0.0145977
0.0141344
0.0134825
0.012681
0.0117755
0.0108082
0.00982826
0.00890685
0.00817232
0.00787047
0.00828414
0.00925883
0.0101315
0.0104174
0.0100886
0.00937914
0.00859079
0.00803049
0.0079688
0.00853415
0.00966241
0.0112119
0.0129057
0.0144386
0.0154203
0.0160415
0.0160148
0.0161467
0.0153953
0.0107456
0.00719475
0.00503961
0.00368257
0.00284965
0.00247552
0.00271165
0.00386276
0.00592718
0.0081587
0.00971286
0.0104453
0.0106921
0.0108045
0.0109976
0.0113439
0.011833
0.0121658
0.0119442
0.0110058
0.00974637
0.00899912
0.00906131
0.00976185
0.0108226
0.0119929
0.0131012
0.0140364
0.0147267
0.0151277
0.0152206
0.0149844
0.0144817
0.0137898
0.012951
0.0120128
0.0110176
0.010011
0.00905319
0.00825428
0.00784863
0.00817159
0.00917452
0.0101786
0.0106011
0.0103604
0.00968908
0.00891051
0.00835728
0.00831954
0.00893469
0.0101347
0.0117441
0.0134265
0.0148722
0.0157241
0.0162242
0.0161033
0.016155
0.0153623
0.0107405
0.00719961
0.00505205
0.00369605
0.00285051
0.00242991
0.00254612
0.00349067
0.00539221
0.00768137
0.00946778
0.0104336
0.0108313
0.0110222
0.0112624
0.0116538
0.0122198
0.0126896
0.0126397
0.0118355
0.0105929
0.00976003
0.00971471
0.0103336
0.0113443
0.0124865
0.0135776
0.0144987
0.0151726
0.0155532
0.0156199
0.0153498
0.0148114
0.0140835
0.0132125
0.0122462
0.0112269
0.0101962
0.00920534
0.0083487
0.007845
0.00806717
0.00908154
0.010217
0.0107885
0.0106494
0.0100262
0.00926297
0.0087192
0.00870642
0.00937256
0.0106402
0.0122913
0.0139371
0.0152777
0.015995
0.0163764
0.0161668
0.0161432
0.0153147
0.0107359
0.00720439
0.00506418
0.00370977
0.00285428
0.00239572
0.00241029
0.00316167
0.00486751
0.00714565
0.0091226
0.0103236
0.0108917
0.0111785
0.0114752
0.0119184
0.0125605
0.0131679
0.0132995
0.0126514
0.0114549
0.0105519
0.010398
0.0109268
0.011877
0.0129812
0.0140467
0.0149465
0.015599
0.0159564
0.0159961
0.0156944
0.0151238
0.0143643
0.0134652
0.0124746
0.0114336
0.0103805
0.0093595
0.00845157
0.00785706
0.00797156
0.00897958
0.0102441
0.0109769
0.0109541
0.0103901
0.00964924
0.00911836
0.00913222
0.00984943
0.0111765
0.0128476
0.0144324
0.0156527
0.0162339
0.0164999
0.0162074
0.0161132
0.0152538
0.0107317
0.00720909
0.005076
0.00372359
0.00286033
0.00237088
0.00230033
0.00287657
0.00436809
0.00657146
0.00868658
0.0101125
0.0108656
0.0112654
0.0116284
0.0121313
0.0128491
0.0135935
0.0139144
0.0134424
0.0123205
0.0113659
0.0111059
0.0115382
0.0124187
0.0134753
0.0145067
0.0153785
0.016005
0.0163368
0.0163492
0.0160184
0.0154192
0.0146319
0.0137084
0.0126962
0.0116354
0.0105612
0.00951256
0.00855933
0.00788209
0.00788514
0.0088685
0.0102574
0.0111633
0.0112725
0.0107804
0.0100699
0.00955649
0.00959899
0.0103656
0.0117397
0.0134069
0.0149082
0.015996
0.0164417
0.0165967
0.0162269
0.0160666
0.0151808
0.0107278
0.00721371
0.00508749
0.0037374
0.00286815
0.00235366
0.00221249
0.0026339
0.00390537
0.00597907
0.00817288
0.00980169
0.0107473
0.0112753
0.0117151
0.0122852
0.013079
0.0139592
0.014475
0.0141971
0.0131774
0.0121923
0.0118326
0.0121645
0.0129668
0.0139669
0.0149563
0.0157938
0.0163901
0.0166941
0.0166795
0.0163219
0.0156975
0.0148859
0.013941
0.0129095
0.0118301
0.0107359
0.00966196
0.00866886
0.00791726
0.00780791
0.00874831
0.0102542
0.0113441
0.0116019
0.0111956
0.0105252
0.0100347
0.0101078
0.0109197
0.0123249
0.0139631
0.0153607
0.0163075
0.01662
0.0166688
0.0162271
0.0160051
0.0150967
0.0107243
0.00721823
0.00509864
0.0037511
0.00287732
0.00234261
0.00214332
0.00243068
0.00348703
0.0053879
0.00759789
0.00939604
0.0105334
0.0112019
0.0117285
0.0123721
0.0132437
0.0142577
0.0149723
0.0149042
0.0140134
0.0130211
0.0125715
0.0128014
0.0135187
0.0144542
0.0153939
0.0161915
0.0167537
0.0170283
0.0169869
0.0166048
0.0159582
0.0151256
0.0141618
0.0131128
0.0120158
0.0109027
0.00980552
0.00877745
0.00795974
0.0077396
0.0086192
0.0102319
0.0115157
0.0119392
0.0116342
0.0110145
0.0105533
0.0106586
0.0115089
0.012926
0.0145103
0.0157872
0.0165873
0.0167702
0.0167179
0.0162095
0.0159299
0.0150025
0.0107211
0.00722266
0.00510946
0.00376463
0.00288749
0.0023365
0.00208968
0.00226301
0.00311719
0.00481538
0.00698026
0.00890449
0.0102235
0.0110404
0.0116629
0.0123827
0.0133365
0.0144818
0.0153971
0.0155523
0.0148159
0.0138418
0.0133153
0.0134444
0.0140714
0.0149351
0.0158184
0.0165705
0.0170954
0.017339
0.0172713
0.0168669
0.0162009
0.01535
0.0143694
0.0133043
0.0121909
0.0110598
0.00994142
0.00888272
0.00800681
0.0076796
0.00848152
0.0101879
0.0116739
0.0122809
0.0120935
0.0115365
0.0111115
0.0112497
0.012129
0.0135366
0.0150434
0.0161856
0.0168363
0.0168939
0.0167459
0.0161757
0.0158423
0.014899
0.0107182
0.00722697
0.00511993
0.00377794
0.00289838
0.00233433
0.00204885
0.00212656
0.00279689
0.004276
0.00633985
0.00833958
0.00982068
0.0107881
0.0115139
0.0123109
0.0133509
0.0146247
0.0157408
0.0161307
0.0155726
0.0146433
0.0140563
0.0140883
0.0146216
0.0154074
0.0162283
0.0169304
0.0174149
0.0176263
0.0175328
0.017108
0.0164248
0.0155581
0.0145626
0.0134827
0.0123538
0.0112059
0.0100681
0.00898257
0.00805588
0.00762706
0.00833588
0.0101197
0.0118142
0.0126226
0.0125704
0.0120891
0.0117076
0.0118783
0.0127745
0.01415
0.0155576
0.0165545
0.0170552
0.0169929
0.0167545
0.016127
0.0157435
0.0147871
0.0107155
0.00723118
0.00513005
0.00379097
0.00290978
0.00233528
0.00201849
0.00201698
0.00252464
0.00378075
0.00569647
0.00771702
0.00933122
0.0104448
0.0112783
0.0121528
0.0132808
0.0146794
0.015995
0.0166287
0.0162714
0.0154146
0.0147861
0.0147276
0.0151657
0.0158689
0.0166223
0.0172701
0.0177117
0.0178899
0.0177711
0.0173275
0.0166293
0.0157488
0.0147401
0.0136466
0.0125032
0.0113396
0.0101842
0.00907516
0.00810454
0.00758086
0.00818307
0.0100252
0.0119318
0.0129594
0.0130609
0.012669
0.0123385
0.0125401
0.0134389
0.0147597
0.016049
0.0168929
0.0172453
0.0170688
0.0167452
0.0160647
0.0156344
0.0146674
0.0107131
0.00723528
0.00513983
0.0038037
0.00292148
0.00233866
0.00199661
0.00193011
0.00229717
0.00333685
0.00506874
0.00705489
0.00876507
0.0100127
0.010955
0.0119059
0.0131209
0.0146398
0.0161517
0.0170358
0.0169006
0.0161444
0.0154959
0.0153562
0.0156998
0.0163172
0.0169989
0.0175891
0.0179856
0.0181296
0.0179859
0.0175249
0.0168135
0.015921
0.0149005
0.0137947
0.0126379
0.0114599
0.0102884
0.00915889
0.00815053
0.00753971
0.0080241
0.00990216
0.0120216
0.0132857
0.0135601
0.0132722
0.013
0.0132293
0.014115
0.0153593
0.0165146
0.0172006
0.0174078
0.0171231
0.0167195
0.01599
0.0155159
0.0145405
0.0107109
0.00723926
0.00514926
0.0038161
0.00293335
0.00234394
0.00198156
0.00186217
0.00211009
0.00294787
0.00447294
0.00637273
0.00813545
0.00949767
0.0105449
0.0115696
0.0128659
0.0144999
0.0162031
0.0173423
0.0174485
0.0168212
0.0161764
0.0159676
0.0162197
0.0167496
0.0173567
0.0178864
0.0182359
0.0183451
0.0181769
0.0176996
0.0169766
0.0160737
0.0150428
0.0139258
0.0127569
0.0115656
0.0103796
0.00923231
0.00819182
0.00750213
0.0078602
0.00974917
0.0120783
0.0135954
0.0140624
0.0138935
0.0136866
0.0139393
0.0147955
0.0159433
0.0169519
0.017477
0.0175441
0.0171573
0.0166786
0.0159037
0.0153888
0.014407
0.0107089
0.00724311
0.00515836
0.00382814
0.00294526
0.00235066
0.00197196
0.00180983
0.00195844
0.00261414
0.00392218
0.00569042
0.00745846
0.0089083
0.0100514
0.011145
0.0125098
0.0142543
0.0161424
0.0175391
0.0179041
0.0174339
0.0168182
0.0165548
0.0167207
0.0171633
0.0176939
0.0181612
0.0184623
0.0185361
0.0183436
0.0178511
0.0171177
0.0162058
0.0151658
0.0140389
0.012859
0.0116558
0.0104569
0.00929415
0.00822654
0.00746655
0.00769271
0.00956514
0.0120967
0.0138815
0.0145611
0.0145266
0.0143916
0.0146624
0.0154728
0.0165065
0.017359
0.0177231
0.0176557
0.0171728
0.0166237
0.0158068
0.0152538
0.0142674
0.0107071
0.00724685
0.00516711
0.00383981
0.00295713
0.00235847
0.0019667
0.00177019
0.00183718
0.00233336
0.00342578
0.00502695
0.00675245
0.00825658
0.00948072
0.0106354
0.0120534
0.0138991
0.015963
0.0176174
0.0182568
0.0179712
0.0174114
0.0171107
0.0171981
0.0175552
0.0180087
0.0184123
0.0186642
0.0187021
0.0184857
0.0179786
0.0172359
0.0163163
0.0152686
0.014133
0.0129433
0.0117295
0.0105193
0.00934326
0.00825299
0.00743127
0.00752309
0.00934964
0.0120714
0.0141367
0.0150487
0.0151641
0.0151074
0.0153904
0.0161396
0.0170445
0.0177348
0.0179397
0.0177439
0.0171709
0.0165558
0.0157002
0.0151116
0.0141222
0.0107054
0.00725045
0.00517553
0.00385111
0.00296887
0.00236706
0.00196486
0.00174082
0.00174149
0.00210135
0.00298909
0.00439927
0.00603703
0.00755741
0.0088418
0.0100469
0.0115011
0.0134317
0.0156595
0.0175691
0.0184964
0.018422
0.0179461
0.0176275
0.0176465
0.017922
0.0182991
0.0186386
0.0188407
0.0188426
0.0186024
0.0180816
0.0173305
0.0164044
0.0153501
0.0142071
0.013009
0.011786
0.0105659
0.00937859
0.00826964
0.00739458
0.00735276
0.00910301
0.0119974
0.0143533
0.015517
0.015798
0.0158254
0.0161146
0.016789
0.0175538
0.0180783
0.0181277
0.01781
0.0171527
0.0164759
0.0155844
0.0149626
0.0139717
0.0107039
0.00725393
0.00518361
0.00386203
0.00298042
0.0023762
0.00196567
0.00171968
0.00166697
0.00191281
0.00261371
0.00382119
0.00533207
0.0068282
0.00814667
0.00938763
0.0108603
0.0128505
0.0152273
0.017387
0.0186134
0.0187757
0.0184121
0.0180974
0.0180604
0.01826
0.0185628
0.0188388
0.018991
0.018957
0.0186933
0.0181592
0.0174007
0.0164691
0.0154094
0.0142602
0.0130551
0.0118243
0.0105959
0.00939919
0.0082751
0.00735476
0.00718306
0.00882648
0.0118699
0.014523
0.015957
0.0164191
0.0165365
0.0168265
0.0174148
0.0180311
0.0183891
0.018288
0.0178551
0.0171192
0.0163848
0.0154601
0.0148075
0.0138163
0.0107026
0.00725729
0.00519137
0.00387256
0.00299175
0.00238571
0.00196856
0.00170509
0.00160974
0.00176191
0.00229798
0.00330266
0.00465635
0.00608809
0.00741017
0.00866865
0.0101413
0.0121563
0.0146628
0.0170653
0.0185992
0.0190218
0.0187995
0.0185121
0.0184338
0.0185653
0.0187973
0.0190112
0.0191142
0.0190445
0.0187576
0.0182108
0.0174456
0.0165095
0.0154456
0.0142916
0.0130809
0.0118437
0.0106085
0.0094042
0.00826812
0.00731007
0.00701507
0.00852222
0.0116851
0.0146375
0.0163591
0.0170175
0.0172309
0.0175171
0.0180108
0.0184739
0.0186667
0.0184215
0.0178804
0.0170713
0.016283
0.0153279
0.0146465
0.0136563
0.0107014
0.00726051
0.00519881
0.00388271
0.00300281
0.00239544
0.00197302
0.00169567
0.00156648
0.00164285
0.00203775
0.00284938
0.00402635
0.00535706
0.00664962
0.00790356
0.00935647
0.0113625
0.013964
0.0165996
0.018446
0.0191507
0.0190983
0.0188632
0.0187607
0.0188337
0.019
0.0191541
0.019209
0.0191043
0.0187946
0.0182355
0.0174643
0.0165248
0.0154579
0.0143004
0.0130854
0.0118434
0.010603
0.0093928
0.00824759
0.00725886
0.00684955
0.00819341
0.0114395
0.0146884
0.0167131
0.017583
0.0178985
0.0181782
0.0185715
0.0188801
0.0189108
0.0185292
0.0178867
0.0170096
0.0161713
0.0151881
0.0144801
0.0134921
0.0107003
0.00726361
0.00520594
0.00389247
0.00301357
0.00240525
0.00197866
0.0016903
0.00153438
0.00155019
0.00182725
0.00246289
0.0034551
0.0046546
0.00588418
0.00710855
0.008521
0.0104852
0.0131405
0.0159887
0.0181477
0.0191531
0.0192986
0.0191421
0.0190343
0.0190606
0.0191676
0.0192655
0.0192741
0.0191353
0.0188033
0.0182327
0.0174562
0.0165141
0.0154454
0.0142858
0.013068
0.0118227
0.0105786
0.00936426
0.00821249
0.00719953
0.00668681
0.00784427
0.0111312
0.0146676
0.0170087
0.0181048
0.0185294
0.0188015
0.0190921
0.019248
0.0191215
0.0186117
0.0178749
0.0169349
0.01605
0.0150413
0.0143086
0.0133239
0.0106992
0.00726658
0.00521276
0.00390185
0.00302401
0.00241507
0.00198518
0.0016881
0.00151114
0.00147905
0.00165985
0.00214106
0.00295131
0.00399841
0.00513393
0.00630203
0.00765227
0.00954245
0.0122064
0.0152346
0.0176995
0.0190208
0.0193911
0.0193402
0.0192478
0.0192409
0.0192967
0.019343
0.0193079
0.0191364
0.0187829
0.0182013
0.0174202
0.0164766
0.0154072
0.0142469
0.0130279
0.0117808
0.0105346
0.00931788
0.00816193
0.00713057
0.00652673
0.00747993
0.0107593
0.0145674
0.0172352
0.0185718
0.0191133
0.0193794
0.019568
0.0195758
0.0192992
0.0186698
0.0178456
0.0168477
0.0159196
0.0148876
0.0141323
0.013152
0.0106983
0.00726943
0.00521928
0.00391085
0.00303413
0.0024248
0.00199232
0.00168833
0.00149486
0.0014252
0.00152882
0.00187897
0.00251908
0.00340302
0.00441866
0.00550402
0.00676981
0.0085549
0.0111779
0.0143429
0.0170991
0.0187467
0.0193667
0.0194489
0.0193943
0.0193695
0.0193838
0.0193841
0.0193085
0.0191061
0.0187322
0.0181404
0.0173556
0.0164114
0.0153426
0.0141829
0.0129642
0.011717
0.0104704
0.00925302
0.0080951
0.0070506
0.00636865
0.00710625
0.010325
0.014381
0.0173822
0.0189731
0.0196403
0.0199045
0.0199953
0.019862
0.0194441
0.018704
0.0177993
0.0167482
0.0157804
0.0147274
0.0139515
0.0129766
0.0106975
0.00727214
0.00522551
0.00391947
0.0030439
0.00243439
0.00199989
0.00169043
0.00148402
0.00138507
0.00142775
0.00166983
0.00215801
0.00287859
0.00375634
0.00473515
0.00589486