/*--------------------------------*- C++ -*----------------------------------*\
| =========                 |                                                 |
| \\      /  F ield         | OpenFOAM: The Open Source CFD Toolbox           |
|  \\    /   O peration     | Version:  2.4.0                                 |
|   \\  /    A nd           | Web:      www.OpenFOAM.org                      |
|    \\/     M anipulation  |                                                 |
\*---------------------------------------------------------------------------*/
FoamFile
{
    version     2.0;
    format      ascii;
    class       surfaceScalarField;
    location    "425";
    object      phi;
}
// * * * * * * * * * * * * * * * * * * * * * * * * * * * * * * * * * * * * * //

dimensions      [0 3 -1 0 0 0 0];

internalField   nonuniform List<scalar> 
19800
(
0.000192365
2.28994e-09
0.000192359
5.38734e-09
0.000192352
7.761e-09
0.000192342
9.66337e-09
0.000192331
1.12616e-08
0.000192318
1.2662e-08
0.000192304
1.39286e-08
0.000192289
1.51324e-08
0.000192273
1.62907e-08
0.000192255
1.74821e-08
0.000192237
1.86713e-08
0.000192217
1.99935e-08
0.000192195
2.12509e-08
0.000192173
2.27451e-08
0.000192149
2.34915e-08
0.000192125
2.4221e-08
0.000192105
1.95506e-08
0.000192093
1.21106e-08
0.00019213
-3.72084e-08
7.89128e-08
0.000192052
0.000197699
4.64107e-09
0.000197694
1.09204e-08
0.000197686
1.57304e-08
0.000197676
1.95863e-08
0.000197664
2.28234e-08
0.000197651
2.56588e-08
0.000197637
2.82217e-08
0.000197622
3.06532e-08
0.000197605
3.29929e-08
0.000197587
3.53887e-08
0.000197568
3.77885e-08
0.000197547
4.04264e-08
0.000197526
4.30008e-08
0.000197503
4.59901e-08
0.000197478
4.80812e-08
0.000197452
5.05721e-08
0.000197423
4.83036e-08
0.000197385
5.03826e-08
0.000197301
4.68049e-08
1.66849e-07
0.000197213
0.000203182
7.05428e-09
0.000203176
1.65994e-08
0.000203168
2.39086e-08
0.000203158
2.97669e-08
0.000203146
3.46814e-08
0.000203133
3.89823e-08
0.000203118
4.28652e-08
0.000203102
4.65411e-08
0.000203085
5.00723e-08
0.000203067
5.36718e-08
0.000203047
5.72752e-08
0.000203027
6.12034e-08
0.000203005
6.50909e-08
0.000202981
6.95788e-08
0.000202956
7.3315e-08
0.000202928
7.81744e-08
0.000202896
8.03489e-08
0.000202856
9.08833e-08
0.000202795
1.06871e-07
1.90517e-07
0.000202772
0.000208817
9.52946e-09
0.000208811
2.24238e-08
0.000208802
3.2294e-08
0.000208792
4.02017e-08
0.00020878
4.68292e-08
0.000208766
5.26215e-08
0.000208751
5.78418e-08
0.000208735
6.2769e-08
0.000208717
6.74886e-08
0.000208699
7.22717e-08
0.000208679
7.70465e-08
0.000208658
8.22014e-08
0.000208636
8.73453e-08
0.000208612
9.32281e-08
0.000208587
9.86346e-08
0.000208559
1.05671e-07
0.000208528
1.11781e-07
0.000208493
1.26178e-07
0.000208453
1.4704e-07
2.0165e-07
0.000208441
0.000214607
1.20663e-08
0.000214601
2.83925e-08
0.000214593
4.08841e-08
0.000214582
5.08859e-08
0.00021457
5.92584e-08
0.000214556
6.65627e-08
0.00021454
7.31302e-08
0.000214524
7.93049e-08
0.000214506
8.51954e-08
0.000214487
9.11211e-08
0.000214467
9.7007e-08
0.000214446
1.03284e-07
0.000214424
1.09561e-07
0.000214401
1.16623e-07
0.000214376
1.23442e-07
0.00021435
1.31981e-07
0.000214321
1.40476e-07
0.000214292
1.55276e-07
0.000214264
1.74722e-07
2.09665e-07
0.000214256
0.000220559
1.46642e-08
0.000220553
3.45038e-08
0.000220544
4.96755e-08
0.000220533
6.18131e-08
0.00022052
7.19586e-08
0.000220506
8.07897e-08
0.00022049
8.87058e-08
0.000220474
9.61124e-08
0.000220456
1.0314e-07
0.000220437
1.10146e-07
0.000220417
1.17053e-07
0.000220396
1.24305e-07
0.000220374
1.31527e-07
0.000220351
1.39459e-07
0.000220327
1.4724e-07
0.000220303
1.56452e-07
0.000220277
1.65776e-07
0.000220253
1.79035e-07
0.000220234
1.94608e-07
2.15905e-07
0.000220227
0.000226675
1.73222e-08
0.000226669
4.07552e-08
0.00022666
5.86636e-08
0.000226649
7.29755e-08
0.000226636
8.49171e-08
0.000226621
9.52829e-08
0.000226606
1.0454e-07
0.000226589
1.13151e-07
0.00022657
1.21266e-07
0.000226551
1.29266e-07
0.000226531
1.37074e-07
0.00022651
1.45119e-07
0.000226489
1.5304e-07
0.000226467
1.61469e-07
0.000226444
1.69666e-07
0.000226422
1.78741e-07
0.0002264
1.87615e-07
0.000226381
1.98257e-07
0.000226367
2.09154e-07
2.20769e-07
0.000226362
0.000232961
2.00393e-08
0.000232955
4.71437e-08
0.000232946
6.78423e-08
0.000232934
8.43635e-08
0.000232921
9.81191e-08
0.000232906
1.1002e-07
0.00023289
1.20601e-07
0.000232873
1.30374e-07
0.000232855
1.39509e-07
0.000232836
1.48398e-07
0.000232816
1.56959e-07
0.000232795
1.65582e-07
0.000232775
1.73914e-07
0.000232754
1.82438e-07
0.000232733
1.90491e-07
0.000232713
1.98727e-07
0.000232694
2.06206e-07
0.000232679
2.13719e-07
0.000232668
2.19991e-07
2.24604e-07
0.000232664
0.000239422
2.28138e-08
0.000239415
5.3665e-08
0.000239406
7.72047e-08
0.000239394
9.59654e-08
0.000239381
1.11547e-07
0.000239366
1.24976e-07
0.00023935
1.36853e-07
0.000239332
1.47734e-07
0.000239314
1.57805e-07
0.000239295
1.67456e-07
0.000239275
1.76597e-07
0.000239255
1.8556e-07
0.000239235
1.93992e-07
0.000239215
2.02209e-07
0.000239196
2.09597e-07
0.000239179
2.16435e-07
0.000239163
2.219e-07
0.000239151
2.26141e-07
0.000239142
2.28202e-07
2.27623e-07
0.000239139
0.000246061
2.5644e-08
0.000246055
6.03144e-08
0.000246045
8.67419e-08
0.000246033
1.07768e-07
0.00024602
1.25182e-07
0.000246005
1.40123e-07
0.000245988
1.53256e-07
0.000245971
1.65177e-07
0.000245952
1.76083e-07
0.000245934
1.86351e-07
0.000245914
1.95881e-07
0.000245895
2.04931e-07
0.000245876
2.13144e-07
0.000245857
2.20677e-07
0.00024584
2.26953e-07
0.000245824
2.31989e-07
0.000245811
2.35087e-07
0.000245801
2.36128e-07
0.000245795
2.345e-07
2.29965e-07
0.000245793
0.000252885
2.85276e-08
0.000252878
6.70858e-08
0.000252869
9.64441e-08
0.000252857
1.19756e-07
0.000252843
1.39e-07
0.000252827
1.55429e-07
0.000252811
1.69769e-07
0.000252793
1.82648e-07
0.000252775
1.94274e-07
0.000252757
2.04998e-07
0.000252738
2.14711e-07
0.000252719
2.23591e-07
0.000252701
2.31276e-07
0.000252684
2.37788e-07
0.000252668
2.42594e-07
0.000252655
2.4556e-07
0.000252644
2.46139e-07
0.000252636
2.44171e-07
0.000252631
2.39362e-07
2.31736e-07
0.000252629
0.000259898
3.14618e-08
0.000259891
7.39725e-08
0.000259881
1.063e-07
0.000259869
1.31911e-07
0.000259855
1.52977e-07
0.00025984
1.7086e-07
0.000259823
1.86346e-07
0.000259806
2.00089e-07
0.000259788
2.12304e-07
0.000259769
2.23314e-07
0.000259751
2.32996e-07
0.000259733
2.41452e-07
0.000259716
2.48322e-07
0.0002597
2.53528e-07
0.000259686
2.56597e-07
0.000259675
2.57343e-07
0.000259665
2.55388e-07
0.000259659
2.50655e-07
0.000259655
2.43118e-07
2.33023e-07
0.000259654
0.000267105
3.44436e-08
0.000267098
8.09665e-08
0.000267088
1.16295e-07
0.000267076
1.44215e-07
0.000267062
1.67086e-07
0.000267046
1.86379e-07
0.00026703
2.02939e-07
0.000267012
2.1744e-07
0.000266995
2.30104e-07
0.000266977
2.41219e-07
0.000266959
2.50655e-07
0.000266942
2.58445e-07
0.000266926
2.64243e-07
0.000266912
2.67913e-07
0.000266899
2.69063e-07
0.000266889
2.67531e-07
0.000266881
2.63116e-07
0.000266876
2.55877e-07
0.000266873
2.46004e-07
2.339e-07
0.000266872
0.000274513
3.74695e-08
0.000274506
8.80586e-08
0.000274495
1.26416e-07
0.000274483
1.56645e-07
0.000274469
1.81297e-07
0.000274453
2.01947e-07
0.000274437
2.19499e-07
0.000274419
2.34641e-07
0.000274402
2.47603e-07
0.000274385
2.58641e-07
0.000274368
2.67617e-07
0.000274352
2.74518e-07
0.000274337
2.79024e-07
0.000274324
2.80983e-07
0.000274313
2.80107e-07
0.000274304
2.76307e-07
0.000274297
2.69561e-07
0.000274293
2.60071e-07
0.000274291
2.48191e-07
2.34428e-07
0.00027429
0.000282125
4.05353e-08
0.000282118
9.52388e-08
0.000282108
1.36645e-07
0.000282095
1.69178e-07
0.000282081
1.95578e-07
0.000282066
2.17522e-07
0.000282049
2.35973e-07
0.000282032
2.51632e-07
0.000282015
2.64735e-07
0.000281998
2.7551e-07
0.000281982
2.83826e-07
0.000281967
2.89636e-07
0.000281953
2.92669e-07
0.000281941
2.92796e-07
0.000281932
2.89846e-07
0.000281924
2.8384e-07
0.000281919
2.74918e-07
0.000281915
2.63417e-07
0.000281914
2.49809e-07
2.34658e-07
0.000281913
0.000289949
4.36365e-08
0.000289942
1.02496e-07
0.000289932
1.46965e-07
0.000289919
1.81787e-07
0.000289905
2.09893e-07
0.000289889
2.33061e-07
0.000289873
2.52309e-07
0.000289856
2.68351e-07
0.000289839
2.81437e-07
0.000289823
2.91769e-07
0.000289808
2.99235e-07
0.000289794
3.03781e-07
0.000289781
3.05199e-07
0.00028977
3.03419e-07
0.000289762
2.98396e-07
0.000289755
2.90277e-07
0.000289751
2.79348e-07
0.000289748
2.66057e-07
0.000289747
2.50953e-07
2.34632e-07
0.000289747
0.00029799
4.67682e-08
0.000297983
1.09816e-07
0.000297972
1.57355e-07
0.00029796
1.94446e-07
0.000297945
2.24207e-07
0.00029793
2.48518e-07
0.000297914
2.68453e-07
0.000297897
2.84742e-07
0.000297881
2.97648e-07
0.000297866
3.07365e-07
0.000297851
3.13809e-07
0.000297838
3.16944e-07
0.000297826
3.16645e-07
0.000297817
3.12922e-07
0.000297809
3.05867e-07
0.000297804
2.9575e-07
0.0002978
2.82982e-07
0.000297798
2.681e-07
0.000297797
2.517e-07
2.34384e-07
0.000297798
0.000306254
4.99247e-08
0.000306246
1.17187e-07
0.000306236
1.67794e-07
0.000306223
2.07123e-07
0.000306209
2.38481e-07
0.000306194
2.63847e-07
0.000306178
2.84353e-07
0.000306162
3.00747e-07
0.000306146
3.13315e-07
0.000306131
3.22255e-07
0.000306118
3.27525e-07
0.000306105
3.29131e-07
0.000306095
3.27046e-07
0.000306087
3.2138e-07
0.00030608
3.12359e-07
0.000306075
3.00371e-07
0.000306072
2.8593e-07
0.000306071
2.69635e-07
0.000306071
2.52109e-07
2.33943e-07
0.000306071
0.000314747
5.31e-08
0.000314739
1.24593e-07
0.000314729
1.78257e-07
0.000314716
2.19787e-07
0.000314702
2.52675e-07
0.000314687
2.79e-07
0.000314671
2.99956e-07
0.000314656
3.16312e-07
0.000314641
3.28389e-07
0.000314627
3.36401e-07
0.000314614
3.40367e-07
0.000314602
3.40356e-07
0.000314593
3.36447e-07
0.000314586
3.28867e-07
0.00031458
3.17965e-07
0.000314576
3.04237e-07
0.000314574
2.88279e-07
0.000314573
2.70731e-07
0.000314573
2.52225e-07
2.33333e-07
0.000314573
0.000323475
5.62875e-08
0.000323468
1.32018e-07
0.000323457
1.88721e-07
0.000323445
2.32404e-07
0.000323431
2.66748e-07
0.000323416
2.9393e-07
0.000323401
3.1521e-07
0.000323385
3.31388e-07
0.000323371
3.42827e-07
0.000323358
3.49777e-07
0.000323346
3.5233e-07
0.000323335
3.50638e-07
0.000323327
3.44898e-07
0.00032332
3.35452e-07
0.000323316
3.22768e-07
0.000323312
3.07433e-07
0.000323311
2.90104e-07
0.00032331
2.71446e-07
0.00032331
2.52087e-07
2.32571e-07
0.000323311
0.000332446
5.94799e-08
0.000332438
1.39445e-07
0.000332428
1.99158e-07
0.000332415
2.4494e-07
0.000332402
2.80657e-07
0.000332387
3.08588e-07
0.000332372
3.30065e-07
0.000332358
3.45927e-07
0.000332344
3.56591e-07
0.000332331
3.6236e-07
0.00033232
3.63416e-07
0.000332311
3.60006e-07
0.000332303
3.52449e-07
0.000332297
3.41203e-07
0.000332293
3.26842e-07
0.000332291
3.1003e-07
0.000332289
2.91466e-07
0.000332289
2.71826e-07
0.000332289
2.51723e-07
2.31675e-07
0.00033229
0.000341665
6.26699e-08
0.000341658
1.46854e-07
0.000341647
2.09541e-07
0.000341635
2.57359e-07
0.000341621
2.94359e-07
0.000341607
3.22928e-07
0.000341593
3.44474e-07
0.000341579
3.59886e-07
0.000341566
3.69651e-07
0.000341554
3.74138e-07
0.000341544
3.73632e-07
0.000341535
3.68488e-07
0.000341528
3.59148e-07
0.000341523
3.46181e-07
0.00034152
3.30253e-07
0.000341518
3.12089e-07
0.000341517
2.92415e-07
0.000341517
2.71908e-07
0.000341517
2.5116e-07
2.30656e-07
0.000341518
0.00035114
6.58492e-08
0.000351133
1.54227e-07
0.000351123
2.19841e-07
0.00035111
2.69623e-07
0.000351097
3.07811e-07
0.000351083
3.36903e-07
0.000351069
3.58391e-07
0.000351056
3.73228e-07
0.000351043
3.8198e-07
0.000351032
3.85103e-07
0.000351023
3.82992e-07
0.000351015
3.76119e-07
0.000351009
3.65046e-07
0.000351005
3.50445e-07
0.000351002
3.33061e-07
0.000351001
3.13664e-07
0.000351
2.92996e-07
0.000351
2.71724e-07
0.000351001
2.50416e-07
2.29524e-07
0.000351002
0.000360878
6.90093e-08
0.000360871
1.61543e-07
0.000360861
2.30026e-07
0.000360848
2.81694e-07
0.000360835
3.20969e-07
0.000360822
3.50467e-07
0.000360808
3.71774e-07
0.000360796
3.85918e-07
0.000360784
3.93559e-07
0.000360774
3.95253e-07
0.000360765
3.91513e-07
0.000360759
3.82933e-07
0.000360753
3.70189e-07
0.00036075
3.54048e-07
0.000360748
3.35317e-07
0.000360746
3.148e-07
0.000360746
2.93244e-07
0.000360747
2.713e-07
0.000360748
2.49508e-07
2.2829e-07
0.000360749
0.000370886
7.21412e-08
0.000370879
1.6878e-07
0.000370869
2.40067e-07
0.000370857
2.93533e-07
0.000370844
3.33791e-07
0.000370831
3.63578e-07
0.000370818
3.84584e-07
0.000370806
3.97927e-07
0.000370795
4.04374e-07
0.000370786
4.0459e-07
0.000370778
3.99216e-07
0.000370772
3.88965e-07
0.000370768
3.74623e-07
0.000370765
3.57037e-07
0.000370763
3.37067e-07
0.000370762
3.15537e-07
0.000370762
2.9319e-07
0.000370763
2.70657e-07
0.000370764
2.48451e-07
2.26959e-07
0.000370765
0.000381171
7.52357e-08
0.000381164
1.75917e-07
0.000381154
2.49931e-07
0.000381143
3.05102e-07
0.00038113
3.46234e-07
0.000381118
3.76194e-07
0.000381105
3.96785e-07
0.000381094
4.09231e-07
0.000381084
4.14414e-07
0.000381076
4.13122e-07
0.000381069
4.06124e-07
0.000381063
3.94252e-07
0.00038106
3.7839e-07
0.000381057
3.59457e-07
0.000381056
3.38351e-07
0.000381056
3.15908e-07
0.000381056
2.9286e-07
0.000381057
2.69815e-07
0.000381058
2.47255e-07
2.25538e-07
0.000381059
0.000391742
7.82832e-08
0.000391735
1.8293e-07
0.000391725
2.59585e-07
0.000391714
3.16362e-07
0.000391702
3.58257e-07
0.00039169
3.88276e-07
0.000391678
4.08347e-07
0.000391668
4.19809e-07
0.000391658
4.23675e-07
0.000391651
4.20859e-07
0.000391645
4.12262e-07
0.00039164
3.98828e-07
0.000391637
3.81531e-07
0.000391635
3.61348e-07
0.000391634
3.39206e-07
0.000391634
3.15943e-07
0.000391635
2.92277e-07
0.000391636
2.68789e-07
0.000391637
2.45931e-07
2.24033e-07
0.000391639
0.000402606
8.12737e-08
0.000402599
1.89797e-07
0.000402589
2.68998e-07
0.000402578
3.27276e-07
0.000402567
3.69821e-07
0.000402555
3.99788e-07
0.000402544
4.19241e-07
0.000402535
4.29647e-07
0.000402526
4.32156e-07
0.000402519
4.27816e-07
0.000402514
4.17656e-07
0.00040251
4.02727e-07
0.000402507
3.84082e-07
0.000402506
3.62746e-07
0.000402506
3.39663e-07
0.000402506
3.15669e-07
0.000402507
2.9146e-07
0.000402508
2.67592e-07
0.000402509
2.44487e-07
2.22447e-07
0.000402511
0.000413771
8.41972e-08
0.000413764
1.96493e-07
0.000413755
2.78137e-07
0.000413744
3.37806e-07
0.000413733
3.80888e-07
0.000413722
4.10698e-07
0.000413712
4.29444e-07
0.000413703
4.38733e-07
0.000413695
4.39859e-07
0.000413689
4.34008e-07
0.000413684
4.22333e-07
0.000413681
4.05982e-07
0.000413679
3.86079e-07
0.000413678
3.63683e-07
0.000413678
3.39751e-07
0.000413679
3.15107e-07
0.00041368
2.90426e-07
0.000413681
2.66237e-07
0.000413683
2.42931e-07
2.20784e-07
0.000413684
0.000425245
8.70435e-08
0.000425239
2.02996e-07
0.00042523
2.8697e-07
0.00042522
3.47915e-07
0.000425209
3.91423e-07
0.000425199
4.20975e-07
0.00042519
4.38935e-07
0.000425181
4.47059e-07
0.000425174
4.46791e-07
0.000425169
4.39455e-07
0.000425165
4.2632e-07
0.000425162
4.08626e-07
0.000425161
3.87553e-07
0.00042516
3.6419e-07
0.000425161
3.39495e-07
0.000425161
3.14279e-07
0.000425163
2.89191e-07
0.000425164
2.64732e-07
0.000425166
2.41268e-07
2.19047e-07
0.000425168
0.000437038
8.98025e-08
0.000437032
2.09282e-07
0.000437023
2.95465e-07
0.000437014
3.57569e-07
0.000437004
4.01393e-07
0.000436994
4.30594e-07
0.000436985
4.47699e-07
0.000436978
4.54623e-07
0.000436972
4.52962e-07
0.000436967
4.44175e-07
0.000436964
4.29644e-07
0.000436962
4.10687e-07
0.000436961
3.88535e-07
0.000436961
3.64293e-07
0.000436961
3.38918e-07
0.000436962
3.132e-07
0.000436964
2.87766e-07
0.000436965
2.63088e-07
0.000436967
2.39504e-07
2.1724e-07
0.000436969
0.000449158
9.24641e-08
0.000449152
2.15329e-07
0.000449144
3.03591e-07
0.000449135
3.66736e-07
0.000449126
4.10769e-07
0.000449117
4.3953e-07
0.000449109
4.55723e-07
0.000449102
4.61424e-07
0.000449096
4.58383e-07
0.000449092
4.4819e-07
0.00044909
4.32331e-07
0.000449088
4.12196e-07
0.000449088
3.89052e-07
0.000449088
3.64017e-07
0.000449089
3.38039e-07
0.00044909
3.11887e-07
0.000449092
2.86163e-07
0.000449093
2.61311e-07
0.000449095
2.37644e-07
2.15364e-07
0.000449097
0.000461614
9.50182e-08
0.000461608
2.21113e-07
0.000461601
3.11321e-07
0.000461592
3.75384e-07
0.000461583
4.19522e-07
0.000461575
4.47766e-07
0.000461568
4.62999e-07
0.000461562
4.67465e-07
0.000461557
4.63067e-07
0.000461554
4.51521e-07
0.000461552
4.34408e-07
0.000461551
4.13179e-07
0.000461551
3.8913e-07
0.000461551
3.63384e-07
0.000461552
3.36876e-07
0.000461554
3.10355e-07
0.000461556
2.84393e-07
0.000461558
2.59409e-07
0.00046156
2.35691e-07
2.13422e-07
0.000461562
0.000474416
9.74553e-08
0.00047441
2.26612e-07
0.000474403
3.18625e-07
0.000474395
3.83486e-07
0.000474387
4.27629e-07
0.000474379
4.55286e-07
0.000474373
4.69522e-07
0.000474367
4.72753e-07
0.000474363
4.67031e-07
0.000474361
4.54191e-07
0.000474359
4.35901e-07
0.000474359
4.13662e-07
0.000474359
3.88792e-07
0.00047436
3.62414e-07
0.000474362
3.35447e-07
0.000474363
3.08614e-07
0.000474365
2.82463e-07
0.000474367
2.57387e-07
0.000474369
2.3365e-07
2.11415e-07
0.000474371
0.000487572
9.97658e-08
0.000487567
2.31807e-07
0.00048756
3.25478e-07
0.000487553
3.91015e-07
0.000487545
4.3507e-07
0.000487538
4.62077e-07
0.000487533
4.75291e-07
0.000487528
4.77297e-07
0.000487525
4.70292e-07
0.000487523
4.56223e-07
0.000487522
4.36834e-07
0.000487522
4.13669e-07
0.000487523
3.88062e-07
0.000487524
3.61127e-07
0.000487526
3.33766e-07
0.000487528
3.06678e-07
0.00048753
2.80383e-07
0.000487532
2.55251e-07
0.000487534
2.31524e-07
2.09346e-07
0.000487536
0.000501094
1.01941e-07
0.000501089
2.36678e-07
0.000501082
3.31855e-07
0.000501075
3.97949e-07
0.000501069
4.41827e-07
0.000501063
4.68131e-07
0.000501058
4.80307e-07
0.000501054
4.81107e-07
0.000501051
4.72867e-07
0.00050105
4.57638e-07
0.000501049
4.37231e-07
0.00050105
4.13224e-07
0.000501051
3.86958e-07
0.000501053
3.59539e-07
0.000501054
3.31846e-07
0.000501057
3.04555e-07
0.000501059
2.7816e-07
0.000501061
2.53006e-07
0.000501063
2.29316e-07
2.07217e-07
0.000501065
0.00051499
1.03972e-07
0.000514985
2.41206e-07
0.00051498
3.37736e-07
0.000514973
4.04268e-07
0.000514967
4.47886e-07
0.000514962
4.73443e-07
0.000514958
4.84575e-07
0.000514955
4.84197e-07
0.000514953
4.74777e-07
0.000514952
4.58461e-07
0.000514952
4.37116e-07
0.000514953
4.12349e-07
0.000514954
3.85501e-07
0.000514956
3.57666e-07
0.000514958
3.29701e-07
0.000514961
3.02256e-07
0.000514963
2.758e-07
0.000514965
2.50657e-07
0.000514968
2.27029e-07
2.05028e-07
0.00051497
0.000529272
1.05852e-07
0.000529267
2.45375e-07
0.000529262
3.43101e-07
0.000529256
4.09955e-07
0.000529251
4.53238e-07
0.000529247
4.78013e-07
0.000529243
4.88102e-07
0.000529241
4.86581e-07
0.000529239
4.76041e-07
0.000529239
4.58712e-07
0.00052924
4.36512e-07
0.000529241
4.11064e-07
0.000529243
3.83709e-07
0.000529245
3.55523e-07
0.000529247
3.27342e-07
0.00052925
2.99789e-07
0.000529252
2.73311e-07
0.000529255
2.48208e-07
0.000529257
2.24666e-07
2.02781e-07
0.000529259
0.000543949
1.07573e-07
0.000543946
2.49171e-07
0.000543941
3.47932e-07
0.000543936
4.14996e-07
0.000543931
4.57875e-07
0.000543927
4.8184e-07
0.000543924
4.90898e-07
0.000543923
4.88276e-07
0.000543922
4.7668e-07
0.000543922
4.58415e-07
0.000543924
4.35439e-07
0.000543925
4.09388e-07
0.000543927
3.81598e-07
0.00054393
3.53124e-07
0.000543932
3.24779e-07
0.000543935
2.97162e-07
0.000543938
2.70696e-07
0.00054394
2.45662e-07
0.000543942
2.22228e-07
2.00478e-07
0.000543945
0.000559034
1.0913e-07
0.000559031
2.5258e-07
0.000559027
3.52218e-07
0.000559022
4.19382e-07
0.000559018
4.61795e-07
0.000559015
4.84931e-07
0.000559013
4.92975e-07
0.000559012
4.89299e-07
0.000559012
4.76714e-07
0.000559013
4.57591e-07
0.000559014
4.33919e-07
0.000559016
4.07341e-07
0.000559019
3.79183e-07
0.000559021
3.50481e-07
0.000559024
3.22022e-07
0.000559027
2.94383e-07
0.00055903
2.67963e-07
0.000559032
2.43024e-07
0.000559035
2.1972e-07
1.98121e-07
0.000559037
0.000574537
1.10516e-07
0.000574534
2.55591e-07
0.000574531
3.55946e-07
0.000574527
4.23106e-07
0.000574524
4.64997e-07
0.000574521
4.87292e-07
0.00057452
4.94348e-07
0.00057452
4.89671e-07
0.00057452
4.76166e-07
0.000574521
4.56261e-07
0.000574523
4.31971e-07
0.000574526
4.04941e-07
0.000574528
3.7648e-07
0.000574531
3.47606e-07
0.000574534
3.19081e-07
0.000574537
2.91457e-07
0.00057454
2.65115e-07
0.000574543
2.40297e-07
0.000574545
2.17142e-07
1.95709e-07
0.000574548
0.00059047
1.11728e-07
0.000590468
2.58197e-07
0.000590465
3.59109e-07
0.000590462
4.26165e-07
0.000590459
4.67485e-07
0.000590457
4.88935e-07
0.000590457
4.95033e-07
0.000590457
4.89411e-07
0.000590458
4.75058e-07
0.00059046
4.54449e-07
0.000590462
4.29616e-07
0.000590465
4.02203e-07
0.000590468
3.73503e-07
0.000590471
3.4451e-07
0.000590474
3.15963e-07
0.000590477
2.88393e-07
0.00059048
2.62158e-07
0.000590483
2.37484e-07
0.000590486
2.14498e-07
1.93246e-07
0.000590488
0.000606845
1.12761e-07
0.000606843
2.60391e-07
0.000606841
3.61701e-07
0.000606838
4.28558e-07
0.000606836
4.69265e-07
0.000606835
4.89872e-07
0.000606835
4.95048e-07
0.000606836
4.8854e-07
0.000606838
4.7341e-07
0.00060684
4.52173e-07
0.000606843
4.26873e-07
0.000606846
3.99144e-07
0.000606849
3.70264e-07
0.000606853
3.41204e-07
0.000606856
3.12678e-07
0.000606859
2.85196e-07
0.000606862
2.59095e-07
0.000606865
2.34589e-07
0.000606868
2.11788e-07
1.90732e-07
0.00060687
0.000623674
1.13613e-07
0.000623673
2.62168e-07
0.00062367
3.63722e-07
0.000623669
4.30288e-07
0.000623668
4.70347e-07
0.000623667
4.90118e-07
0.000623668
4.94413e-07
0.00062367
4.87079e-07
0.000623672
4.71245e-07
0.000623674
4.49455e-07
0.000623678
4.23759e-07
0.000623681
3.9578e-07
0.000623684
3.66777e-07
0.000623688
3.37698e-07
0.000623691
3.09233e-07
0.000623695
2.81871e-07
0.000623698
2.55933e-07
0.000623701
2.31614e-07
0.000623704
2.09016e-07
1.88168e-07
0.000623706
0.00064097
1.14283e-07
0.000640969
2.63528e-07
0.000640967
3.65173e-07
0.000640966
4.31363e-07
0.000640966
4.70743e-07
0.000640966
4.8969e-07
0.000640967
4.93147e-07
0.000640969
4.85052e-07
0.000640972
4.68585e-07
0.000640975
4.46315e-07
0.000640979
4.20292e-07
0.000640982
3.92126e-07
0.000640986
3.63055e-07
0.00064099
3.34001e-07
0.000640993
3.05636e-07
0.000640997
2.78425e-07
0.000641
2.52673e-07
0.000641003
2.28563e-07
0.000641006
2.06183e-07
1.85556e-07
0.000641009
0.000658745
1.14771e-07
0.000658744
2.64469e-07
0.000658743
3.66056e-07
0.000658743
4.31791e-07
0.000658743
4.70467e-07
0.000658744
4.88609e-07
0.000658746
4.91274e-07
0.000658749
4.8248e-07
0.000658752
4.65451e-07
0.000658756
4.42773e-07
0.000658759
4.1649e-07
0.000658763
3.88197e-07
0.000658767
3.59108e-07
0.000658771
3.30124e-07
0.000658775
3.01894e-07
0.000658778
2.74863e-07
0.000658782
2.49321e-07
0.000658785
2.25438e-07
0.000658788
2.03292e-07
1.82898e-07
0.00065879
0.000677014
1.15076e-07
0.000677013
2.64996e-07
0.000677013
3.6638e-07
0.000677013
4.31585e-07
0.000677014
4.69538e-07
0.000677016
4.86895e-07
0.000677018
4.88817e-07
0.000677021
4.79387e-07
0.000677025
4.61867e-07
0.000677029
4.38848e-07
0.000677033
4.12369e-07
0.000677037
3.84005e-07
0.000677041
3.54948e-07
0.000677045
3.26075e-07
0.000677049
2.98013e-07
0.000677053
2.71191e-07
0.000677056
2.45881e-07
0.000677059
2.22243e-07
0.000677062
2.00345e-07
1.80196e-07
0.000677065
0.000695788
1.152e-07
0.000695788
2.65113e-07
0.000695789
3.66154e-07
0.000695789
4.3076e-07
0.000695791
4.67974e-07
0.000695793
4.84571e-07
0.000695796
4.85798e-07
0.0006958
4.75797e-07
0.000695804
4.57853e-07
0.000695808
4.34561e-07
0.000695813
4.07947e-07
0.000695817
3.79566e-07
0.000695821
3.50587e-07
0.000695826
3.21863e-07
0.00069583
2.94002e-07
0.000695833
2.67413e-07
0.000695837
2.42357e-07
0.00069584
2.1898e-07
0.000695843
1.97344e-07
1.7745e-07
0.000695846
0.000715084
1.15146e-07
0.000715084
2.64827e-07
0.000715085
3.65389e-07
0.000715086
4.29331e-07
0.000715089
4.65796e-07
0.000715092
4.81659e-07
0.000715095
4.82243e-07
0.000715099
4.71733e-07
0.000715104
4.53431e-07
0.000715108
4.2993e-07
0.000715113
4.0324e-07
0.000715118
3.74893e-07
0.000715122
3.46035e-07
0.000715126
3.17497e-07
0.000715131
2.89867e-07
0.000715134
2.63536e-07
0.000715138
2.38753e-07
0.000715141
2.15653e-07
0.000715144
1.94291e-07
1.74662e-07
0.000715147
0.000734915
1.14916e-07
0.000734915
2.64146e-07
0.000734916
3.64101e-07
0.000734918
4.2732e-07
0.000734921
4.63028e-07
0.000734925
4.78187e-07
0.000734929
4.78178e-07
0.000734933
4.6722e-07
0.000734938
4.48624e-07
0.000734943
4.24975e-07
0.000734948
3.98263e-07
0.000734953
3.69999e-07
0.000734958
3.41303e-07
0.000734962
3.12986e-07
0.000734966
2.85614e-07
0.00073497
2.59565e-07
0.000734974
2.35073e-07
0.000734977
2.12265e-07
0.000734981
1.91189e-07
1.71835e-07
0.000734983
0.000755295
1.14517e-07
0.000755296
2.63083e-07
0.000755298
3.62306e-07
0.0007553
4.24747e-07
0.000755304
4.59695e-07
0.000755308
4.74178e-07
0.000755312
4.73627e-07
0.000755317
4.6228e-07
0.000755322
4.43452e-07
0.000755328
4.19713e-07
0.000755333
3.93033e-07
0.000755338
3.64897e-07
0.000755343
3.36402e-07
0.000755348
3.08337e-07
0.000755352
2.8125e-07
0.000755356
2.55504e-07
0.00075536
2.31321e-07
0.000755363
2.08819e-07
0.000755366
1.8804e-07
1.6897e-07
0.000755369
0.000776241
1.13951e-07
0.000776242
2.61649e-07
0.000776244
3.60023e-07
0.000776248
4.21635e-07
0.000776251
4.55822e-07
0.000776256
4.69661e-07
0.000776261
4.68616e-07
0.000776266
4.56939e-07
0.000776272
4.37937e-07
0.000776277
4.14163e-07
0.000776283
3.87564e-07
0.000776288
3.596e-07
0.000776293
3.31342e-07
0.000776298
3.0356e-07
0.000776302
2.76782e-07
0.000776307
2.51359e-07
0.00077631
2.27501e-07
0.000776314
2.05318e-07
0.000776317
1.84847e-07
1.66069e-07
0.00077632
0.000797767
1.13226e-07
0.000797769
2.59858e-07
0.000797772
3.57271e-07
0.000797775
4.1801e-07
0.00079778
4.51436e-07
0.000797785
4.64662e-07
0.00079779
4.63172e-07
0.000797796
4.51219e-07
0.000797802
4.32099e-07
0.000797808
4.08343e-07
0.000797813
3.81872e-07
0.000797819
3.54119e-07
0.000797824
3.26133e-07
0.000797829
2.98661e-07
0.000797834
2.72217e-07
0.000797838
2.47135e-07
0.000797842
2.23617e-07
0.000797845
2.01766e-07
0.000797848
1.81612e-07
1.63134e-07
0.000797851
0.000819891
1.12347e-07
0.000819893
2.57725e-07
0.000819896
3.54073e-07
0.0008199
4.13895e-07
0.000819905
4.46564e-07
0.000819911
4.59209e-07
0.000819916
4.57321e-07
0.000819922
4.45146e-07
0.000819929
4.25961e-07
0.000819935
4.02272e-07
0.000819941
3.75972e-07
0.000819946
3.48468e-07
0.000819952
3.20786e-07
0.000819957
2.93651e-07
0.000819961
2.6756e-07
0.000819966
2.42838e-07
0.000819969
2.19674e-07
0.000819973
1.98166e-07
0.000819976
1.78339e-07
1.60168e-07
0.000819979
0.000842628
1.11322e-07
0.00084263
2.55267e-07
0.000842634
3.5045e-07
0.000842638
4.0932e-07
0.000842644
4.41235e-07
0.00084265
4.5333e-07
0.000842656
4.51088e-07
0.000842662
4.38742e-07
0.000842669
4.19542e-07
0.000842675
3.95966e-07
0.000842681
3.69878e-07
0.000842687
3.42659e-07
0.000842692
3.15309e-07
0.000842698
2.88536e-07
0.000842702
2.6282e-07
0.000842707
2.38472e-07
0.000842711
2.15676e-07
0.000842714
1.94521e-07
0.000842718
1.75029e-07
1.57173e-07
0.000842721
0.000865995
1.10157e-07
0.000865998
2.52502e-07
0.000866002
3.46428e-07
0.000866007
4.0431e-07
0.000866013
4.35478e-07
0.000866019
4.47053e-07
0.000866026
4.44501e-07
0.000866032
4.32031e-07
0.000866039
4.12862e-07
0.000866046
3.89443e-07
0.000866052
3.63606e-07
0.000866058
3.36704e-07
0.000866063
3.09714e-07
0.000866069
2.83324e-07
0.000866073
2.58001e-07
0.000866078
2.34044e-07
0.000866082
2.11628e-07
0.000866086
1.90836e-07
0.000866089
1.71686e-07
1.5415e-07
0.000866092
0.000890011
1.08862e-07
0.000890014
2.49446e-07
0.000890018
3.4203e-07
0.000890024
3.98893e-07
0.00089003
4.29321e-07
0.000890037
4.40405e-07
0.000890043
4.37585e-07
0.00089005
4.25035e-07
0.000890057
4.05943e-07
0.000890064
3.8272e-07
0.000890071
3.57169e-07
0.000890077
3.30613e-07
0.000890082
3.04009e-07
0.000890088
2.78024e-07
0.000890092
2.5311e-07
0.000890097
2.29558e-07
0.000890101
2.07532e-07
0.000890105
1.87112e-07
0.000890108
1.68312e-07
1.51103e-07
0.000890111
0.000914692
1.07443e-07
0.000914696
2.46118e-07
0.0009147
3.37282e-07
0.000914706
3.93099e-07
0.000914713
4.22794e-07
0.00091472
4.33416e-07
0.000914727
4.30365e-07
0.000914734
4.17778e-07
0.000914741
3.98802e-07
0.000914748
3.75813e-07
0.000914755
3.5058e-07
0.000914761
3.244e-07
0.000914767
2.98204e-07
0.000914772
2.72643e-07
0.000914777
2.48155e-07
0.000914782
2.25019e-07
0.000914786
2.03394e-07
0.00091479
1.83354e-07
0.000914793
1.64911e-07
1.48033e-07
0.000914796
0.000940058
1.0591e-07
0.000940062
2.42538e-07
0.000940067
3.32208e-07
0.000940073
3.86955e-07
0.00094008
4.15925e-07
0.000940087
4.26112e-07
0.000940095
4.22867e-07
0.000940102
4.10281e-07
0.00094011
3.9146e-07
0.000940117
3.68739e-07
0.000940123
3.43855e-07
0.00094013
3.18075e-07
0.000940136
2.92309e-07
0.000940141
2.67189e-07
0.000940146
2.43141e-07
0.000940151
2.20433e-07
0.000940155
1.99218e-07
0.000940159
1.79566e-07
0.000940162
1.61486e-07
1.44944e-07
0.000940165
0.000966128
1.04271e-07
0.000966132
2.38724e-07
0.000966137
3.26834e-07
0.000966143
3.80489e-07
0.000966151
4.08743e-07
0.000966158
4.1852e-07
0.000966166
4.15115e-07
0.000966174
4.02567e-07
0.000966181
3.83935e-07
0.000966188
3.61514e-07
0.000966195
3.37006e-07
0.000966202
3.1165e-07
0.000966208
2.86333e-07
0.000966213
2.6167e-07
0.000966218
2.38075e-07
0.000966223
2.15805e-07
0.000966227
1.95009e-07
0.000966231
1.75751e-07
0.000966234
1.58039e-07
1.41837e-07
0.000966237
0.00099292
1.02533e-07
0.000992924
2.34696e-07
0.00099293
3.21185e-07
0.000992936
3.73729e-07
0.000992944
4.01275e-07
0.000992952
4.10666e-07
0.00099296
4.07133e-07
0.000992968
3.94656e-07
0.000992975
3.76245e-07
0.000992983
3.54153e-07
0.00099299
3.30046e-07
0.000992996
3.05135e-07
0.000993002
2.80284e-07
0.000993008
2.56093e-07
0.000993013
2.32962e-07
0.000993018
2.11141e-07
0.000993022
1.9077e-07
0.000993026
1.71913e-07
0.000993029
1.54573e-07
1.38716e-07
0.000993032
0.00102046
1.00707e-07
0.00102046
2.30472e-07
0.00102047
3.15286e-07
0.00102047
3.66703e-07
0.00102048