/*--------------------------------*- C++ -*----------------------------------*\
| =========                 |                                                 |
| \\      /  F ield         | OpenFOAM: The Open Source CFD Toolbox           |
|  \\    /   O peration     | Version:  2.4.0                                 |
|   \\  /    A nd           | Web:      www.OpenFOAM.org                      |
|    \\/     M anipulation  |                                                 |
\*---------------------------------------------------------------------------*/
FoamFile
{
    version     2.0;
    format      ascii;
    class       volVectorField;
    location    "425";
    object      U;
}
// * * * * * * * * * * * * * * * * * * * * * * * * * * * * * * * * * * * * * //

dimensions      [0 1 -1 0 0 0 0];

internalField   nonuniform List<vector> 
10000
(
(0.999999 4.59152e-07 0)
(0.999978 1.21627e-06 0)
(0.999944 1.97699e-06 0)
(0.999898 2.77831e-06 0)
(0.999844 3.65489e-06 0)
(0.999782 4.63904e-06 0)
(0.999713 5.76107e-06 0)
(0.999637 7.06636e-06 0)
(0.999556 8.58888e-06 0)
(0.999468 1.04072e-05 0)
(0.999374 1.25505e-05 0)
(0.999275 1.51769e-05 0)
(0.999167 1.8212e-05 0)
(0.999054 2.20073e-05 0)
(0.99893 2.55857e-05 0)
(0.998813 2.95516e-05 0)
(0.998674 2.55258e-05 0)
(0.998632 1.44357e-05 0)
(0.998473 -8.41316e-05 0)
(0.999147 0.00109273 0)
(0.999999 1.38673e-06 0)
(0.999978 3.67863e-06 0)
(0.999944 5.98062e-06 0)
(0.999898 8.40551e-06 0)
(0.999844 1.10572e-05 0)
(0.999782 1.40337e-05 0)
(0.999713 1.74265e-05 0)
(0.999638 2.13712e-05 0)
(0.999556 2.59719e-05 0)
(0.999469 3.14601e-05 0)
(0.999375 3.79329e-05 0)
(0.999276 4.58429e-05 0)
(0.999169 5.50349e-05 0)
(0.999057 6.64791e-05 0)
(0.998933 7.793e-05 0)
(0.998811 9.14404e-05 0)
(0.998659 9.04207e-05 0)
(0.998529 8.70492e-05 0)
(0.998188 -1.97439e-05 0)
(0.997816 0.00023606 0)
(0.999999 2.33598e-06 0)
(0.999979 6.20366e-06 0)
(0.999944 1.00868e-05 0)
(0.999899 1.4177e-05 0)
(0.999844 1.86475e-05 0)
(0.999782 2.36636e-05 0)
(0.999714 2.93783e-05 0)
(0.999639 3.60166e-05 0)
(0.999557 4.37549e-05 0)
(0.999471 5.29676e-05 0)
(0.999378 6.38356e-05 0)
(0.999279 7.70628e-05 0)
(0.999173 9.25406e-05 0)
(0.999063 0.000111728 0)
(0.998941 0.000132395 0)
(0.998816 0.000158422 0)
(0.998663 0.000178056 0)
(0.998508 0.000221996 0)
(0.998238 0.000277266 0)
(0.997983 0.000709629 0)
(0.999999 3.3118e-06 0)
(0.999979 8.79632e-06 0)
(0.999944 1.43011e-05 0)
(0.999899 2.00983e-05 0)
(0.999845 2.64314e-05 0)
(0.999783 3.35333e-05 0)
(0.999714 4.16187e-05 0)
(0.99964 5.09999e-05 0)
(0.999559 6.19248e-05 0)
(0.999473 7.49021e-05 0)
(0.999381 9.01974e-05 0)
(0.999284 0.000108739 0)
(0.99918 0.000130519 0)
(0.999072 0.000157431 0)
(0.998953 0.000187751 0)
(0.998831 0.000226818 0)
(0.998687 0.000268177 0)
(0.998537 0.000344408 0)
(0.99834 0.000462496 0)
(0.998172 0.000799317 0)
(0.999999 4.31274e-06 0)
(0.999979 1.14547e-05 0)
(0.999944 1.86208e-05 0)
(0.999899 2.61649e-05 0)
(0.999845 3.44014e-05 0)
(0.999784 4.36304e-05 0)
(0.999716 5.41272e-05 0)
(0.999642 6.62878e-05 0)
(0.999562 8.04279e-05 0)
(0.999477 9.71771e-05 0)
(0.999386 0.000116882 0)
(0.999291 0.000140653 0)
(0.99919 0.000168613 0)
(0.999085 0.00020296 0)
(0.998972 0.000242621 0)
(0.998855 0.000293467 0)
(0.998725 0.000352581 0)
(0.998593 0.000445894 0)
(0.998449 0.000579282 0)
(0.99834 0.000830251 0)
(0.999999 5.33818e-06 0)
(0.999979 1.41779e-05 0)
(0.999944 2.30439e-05 0)
(0.9999 3.23732e-05 0)
(0.999846 4.25507e-05 0)
(0.999785 5.39428e-05 0)
(0.999717 6.68837e-05 0)
(0.999644 8.18466e-05 0)
(0.999565 9.92102e-05 0)
(0.999482 0.000119706 0)
(0.999393 0.000143752 0)
(0.9993 0.000172586 0)
(0.999202 0.000206458 0)
(0.999101 0.00024769 0)
(0.998995 0.000295768 0)
(0.998887 0.000356181 0)
(0.998772 0.000427752 0)
(0.99866 0.000528023 0)
(0.998554 0.000659234 0)
(0.998481 0.000851891 0)
(0.999999 6.3878e-06 0)
(0.999979 1.69647e-05 0)
(0.999945 2.75683e-05 0)
(0.9999 3.87189e-05 0)
(0.999847 5.08718e-05 0)
(0.999786 6.44576e-05 0)
(0.999719 7.98661e-05 0)
(0.999647 9.76401e-05 0)
(0.999569 0.000118213 0)
(0.999487 0.000142396 0)
(0.999401 0.000170662 0)
(0.999311 0.000204313 0)
(0.999217 0.000243695 0)
(0.999121 0.00029106 0)
(0.999023 0.000346249 0)
(0.998924 0.000413785 0)
(0.998825 0.000493083 0)
(0.998733 0.00059464 0)
(0.998654 0.000718131 0)
(0.998604 0.00087313 0)
(0.999999 7.46124e-06 0)
(0.999979 1.98141e-05 0)
(0.999945 3.21914e-05 0)
(0.999901 4.51971e-05 0)
(0.999848 5.93559e-05 0)
(0.999788 7.51596e-05 0)
(0.999722 9.30495e-05 0)
(0.99965 0.000113628 0)
(0.999574 0.000137374 0)
(0.999494 0.000165149 0)
(0.99941 0.000197464 0)
(0.999323 0.000235613 0)
(0.999234 0.000279987 0)
(0.999144 0.000332601 0)
(0.999054 0.000393427 0)
(0.998966 0.00046576 0)
(0.998882 0.000548959 0)
(0.998807 0.000648346 0)
(0.998748 0.000761906 0)
(0.998713 0.000890344 0)
(0.999999 8.55797e-06 0)
(0.999979 2.27245e-05 0)
(0.999945 3.69098e-05 0)
(0.999901 5.18017e-05 0)
(0.999849 6.79926e-05 0)
(0.99979 8.60313e-05 0)
(0.999724 0.000106406 0)
(0.999654 0.000129767 0)
(0.99958 0.000156625 0)
(0.999502 0.000187866 0)
(0.999421 0.000224007 0)
(0.999338 0.000266275 0)
(0.999254 0.000315038 0)
(0.99917 0.000371955 0)
(0.999088 0.000436935 0)
(0.999011 0.000512031 0)
(0.99894 0.000596257 0)
(0.99888 0.000691485 0)
(0.998835 0.000794833 0)
(0.99881 0.000903824 0)
(0.999999 9.67731e-06 0)
(0.999979 2.56937e-05 0)
(0.999946 4.17196e-05 0)
(0.999902 5.85257e-05 0)
(0.99985 7.67697e-05 0)
(0.999792 9.70532e-05 0)
(0.999728 0.000119904 0)
(0.999659 0.000146008 0)
(0.999586 0.000175895 0)
(0.99951 0.00021044 0)
(0.999433 0.000250144 0)
(0.999354 0.000296104 0)
(0.999275 0.000348605 0)
(0.999198 0.000408871 0)
(0.999125 0.000476625 0)
(0.999057 0.00055281 0)
(0.998998 0.000636052 0)
(0.998949 0.000726137 0)
(0.998915 0.000819953 0)
(0.998897 0.00091433 0)
(0.999999 1.08185e-05 0)
(0.999979 2.87193e-05 0)
(0.999946 4.6616e-05 0)
(0.999903 6.53607e-05 0)
(0.999852 8.56736e-05 0)
(0.999794 0.000108203 0)
(0.999731 0.000133511 0)
(0.999664 0.000162302 0)
(0.999593 0.000195109 0)
(0.99952 0.00023277 0)
(0.999446 0.000275736 0)
(0.999371 0.000324928 0)
(0.999298 0.000380496 0)
(0.999228 0.0004432 0)
(0.999163 0.000512515 0)
(0.999104 0.000588484 0)
(0.999055 0.000669426 0)
(0.999016 0.000754018 0)
(0.99899 0.000839309 0)
(0.998977 0.000922394 0)
(0.999999 1.19804e-05 0)
(0.99998 3.17985e-05 0)
(0.999947 5.15935e-05 0)
(0.999904 7.22972e-05 0)
(0.999854 9.4689e-05 0)
(0.999797 0.000119458 0)
(0.999735 0.000147189 0)
(0.99967 0.000178594 0)
(0.999601 0.000214191 0)
(0.999531 0.000254754 0)
(0.99946 0.000300654 0)
(0.99939 0.000352601 0)
(0.999323 0.000410573 0)
(0.999259 0.00047488 0)
(0.999201 0.000544735 0)
(0.999151 0.000619516 0)
(0.99911 0.000697368 0)
(0.999079 0.000776484 0)
(0.999059 0.000854278 0)
(0.99905 0.000928386 0)
(0.999999 1.3162e-05 0)
(0.99998 3.4928e-05 0)
(0.999947 5.66458e-05 0)
(0.999905 7.93247e-05 0)
(0.999856 0.000103799 0)
(0.9998 0.000130791 0)
(0.99974 0.000160901 0)
(0.999676 0.000194831 0)
(0.99961 0.000233068 0)
(0.999543 0.000276295 0)
(0.999476 0.000324782 0)
(0.999411 0.000379004 0)
(0.999349 0.000438749 0)
(0.999291 0.000503916 0)
(0.999241 0.000573488 0)
(0.999198 0.000646393 0)
(0.999164 0.00072073 0)
(0.999139 0.000794594 0)
(0.999124 0.000865823 0)
(0.999117 0.000932615 0)
(0.999999 1.43619e-05 0)
(0.99998 3.81039e-05 0)
(0.999948 6.17658e-05 0)
(0.999907 8.64313e-05 0)
(0.999858 0.000112985 0)
(0.999804 0.000142174 0)
(0.999745 0.000174606 0)
(0.999683 0.000210955 0)
(0.99962 0.000251664 0)
(0.999556 0.000297302 0)
(0.999493 0.000348019 0)
(0.999432 0.000404048 0)
(0.999375 0.000464981 0)
(0.999324 0.000530369 0)
(0.99928 0.000599014 0)
(0.999243 0.000669584 0)
(0.999215 0.000740233 0)
(0.999196 0.000809166 0)
(0.999184 0.000874643 0)
(0.999179 0.000935344 0)
(0.999999 1.55787e-05 0)
(0.99998 4.13218e-05 0)
(0.999949 6.69453e-05 0)
(0.999908 9.36038e-05 0)
(0.999861 0.000122226 0)
(0.999807 0.000153578 0)
(0.99975 0.000188261 0)
(0.999691 0.000226911 0)
(0.99963 0.000269907 0)
(0.999569 0.000317692 0)
(0.99951 0.000370278 0)
(0.999454 0.000427666 0)
(0.999403 0.000489261 0)
(0.999357 0.000554335 0)
(0.999319 0.000621572 0)
(0.999288 0.000689523 0)
(0.999265 0.000756472 0)
(0.999249 0.000820837 0)
(0.999241 0.000881255 0)
(0.999238 0.000936794 0)
(0.999999 1.68105e-05 0)
(0.999981 4.4577e-05 0)
(0.99995 7.21757e-05 0)
(0.99991 0.000100828 0)
(0.999863 0.000131502 0)
(0.999812 0.000164972 0)
(0.999756 0.000201824 0)
(0.999699 0.000242641 0)
(0.999641 0.000287728 0)
(0.999584 0.000337388 0)
(0.999529 0.000391492 0)
(0.999477 0.000449819 0)
(0.999431 0.000511611 0)
(0.999391 0.000575935 0)
(0.999357 0.000641417 0)
(0.999331 0.000706599 0)
(0.999312 0.000769939 0)
(0.9993 0.000830101 0)
(0.999294 0.000886048 0)
(0.999292 0.000937148 0)
(0.999999 1.80555e-05 0)
(0.999981 4.78639e-05 0)
(0.999951 7.7447e-05 0)
(0.999912 0.000108088 0)
(0.999866 0.000140789 0)
(0.999816 0.000176322 0)
(0.999763 0.000215251 0)
(0.999708 0.000258092 0)
(0.999653 0.000305064 0)
(0.999599 0.000356325 0)
(0.999548 0.000411606 0)
(0.999501 0.000470487 0)
(0.999459 0.000532077 0)
(0.999424 0.000595306 0)
(0.999395 0.000658797 0)
(0.999373 0.000721154 0)
(0.999358 0.000781035 0)
(0.999348 0.000837346 0)
(0.999344 0.000889322 0)
(0.999343 0.000936559 0)
(0.999999 1.93116e-05 0)
(0.999981 5.11766e-05 0)
(0.999952 8.27487e-05 0)
(0.999914 0.000115368 0)
(0.999869 0.000150062 0)
(0.999821 0.000187595 0)
(0.999769 0.000228497 0)
(0.999717 0.000273208 0)
(0.999665 0.000321853 0)
(0.999615 0.000374445 0)
(0.999567 0.00043058 0)
(0.999525 0.000489669 0)
(0.999488 0.000550721 0)
(0.999456 0.000612589 0)
(0.999432 0.000673939 0)
(0.999414 0.000733487 0)
(0.999401 0.000790089 0)
(0.999394 0.000842878 0)
(0.999391 0.000891309 0)
(0.999391 0.00093515 0)
(0.999999 2.05764e-05 0)
(0.999982 5.45087e-05 0)
(0.999953 8.80692e-05 0)
(0.999916 0.00012265 0)
(0.999873 0.000159297 0)
(0.999826 0.000198757 0)
(0.999777 0.000241519 0)
(0.999727 0.000287938 0)
(0.999678 0.000338042 0)
(0.999631 0.000391701 0)
(0.999588 0.000448389 0)
(0.999549 0.00050738 0)
(0.999516 0.000567617 0)
(0.999489 0.000627928 0)
(0.999468 0.000687057 0)
(0.999453 0.000743855 0)
(0.999443 0.000797373 0)
(0.999438 0.000846941 0)
(0.999436 0.000892191 0)
(0.999437 0.000933023 0)
(0.999999 2.18474e-05 0)
(0.999982 5.78529e-05 0)
(0.999954 9.33962e-05 0)
(0.999918 0.000129915 0)
(0.999876 0.000168466 0)
(0.999831 0.000209773 0)
(0.999784 0.000254273 0)
(0.999737 0.000302234 0)
(0.999691 0.000353582 0)
(0.999647 0.000408056 0)
(0.999608 0.000465021 0)
(0.999573 0.000523647 0)
(0.999544 0.000582846 0)
(0.999521 0.000641462 0)
(0.999503 0.000698341 0)
(0.999491 0.00075248 0)
(0.999483 0.000803109 0)
(0.999479 0.00084973 0)
(0.999478 0.000892115 0)
(0.99948 0.000930261 0)
(0.999999 2.31219e-05 0)
(0.999983 6.12019e-05 0)
(0.999955 9.87167e-05 0)
(0.99992 0.000137143 0)
(0.99988 0.000177543 0)
(0.999837 0.000220607 0)
(0.999792 0.000266718 0)
(0.999747 0.00031605 0)
(0.999704 0.000368431 0)
(0.999664 0.00042348 0)
(0.999629 0.000480472 0)
(0.999597 0.000538506 0)
(0.999572 0.000596493 0)
(0.999552 0.000653324 0)
(0.999537 0.000707961 0)
(0.999527 0.000759552 0)
(0.999521 0.000807484 0)
(0.999518 0.000851405 0)
(0.999519 0.000891197 0)
(0.999521 0.000926932 0)
(0.999999 2.43969e-05 0)
(0.999983 6.45474e-05 0)
(0.999956 0.000104017 0)
(0.999923 0.000144314 0)
(0.999884 0.000186499 0)
(0.999843 0.000231226 0)
(0.9998 0.000278813 0)
(0.999758 0.000329344 0)
(0.999718 0.000382554 0)
(0.999682 0.000437952 0)
(0.999649 0.00049475 0)
(0.999622 0.000552002 0)
(0.999599 0.000608643 0)
(0.999582 0.000663638 0)
(0.99957 0.000716072 0)
(0.999562 0.000765233 0)
(0.999557 0.000810651 0)
(0.999556 0.000852094 0)
(0.999557 0.000889532 0)
(0.999559 0.00092309 0)
(0.999999 2.56693e-05 0)
(0.999984 6.78809e-05 0)
(0.999958 0.000109282 0)
(0.999925 0.000151407 0)
(0.999888 0.000195307 0)
(0.999849 0.000241593 0)
(0.999809 0.00029052 0)
(0.99977 0.000342079 0)
(0.999733 0.000395919 0)
(0.999699 0.000451461 0)
(0.99967 0.000507869 0)
(0.999646 0.000564182 0)
(0.999626 0.000619381 0)
(0.999612 0.000672521 0)
(0.999602 0.000722807 0)
(0.999595 0.000769663 0)
(0.999592 0.00081274 0)
(0.999592 0.000851905 0)
(0.999593 0.000887197 0)
(0.999596 0.000918783 0)
(0.999999 2.69357e-05 0)
(0.999984 7.11933e-05 0)
(0.999959 0.000114496 0)
(0.999928 0.000158399 0)
(0.999893 0.000203939 0)
(0.999855 0.000251677 0)
(0.999818 0.000301802 0)
(0.999781 0.000354221 0)
(0.999747 0.000408503 0)
(0.999717 0.000464001 0)
(0.999691 0.000519849 0)
(0.999669 0.000575098 0)
(0.999653 0.000628791 0)
(0.99964 0.000680079 0)
(0.999632 0.000728288 0)
(0.999628 0.000772963 0)
(0.999626 0.00081386 0)
(0.999626 0.000850927 0)
(0.999628 0.000884258 0)
(0.999631 0.000914048 0)
(0.999999 2.81927e-05 0)
(0.999985 7.44751e-05 0)
(0.999961 0.000119645 0)
(0.999931 0.00016527 0)
(0.999897 0.000212366 0)
(0.999862 0.000261443 0)
(0.999827 0.000312626 0)
(0.999793 0.00036574 0)
(0.999762 0.000420289 0)
(0.999734 0.000475573 0)
(0.999711 0.000530718 0)
(0.999692 0.000584804 0)
(0.999678 0.000636951 0)
(0.999668 0.000686409 0)
(0.999662 0.00073262 0)
(0.999659 0.000775236 0)
(0.999658 0.000814103 0)
(0.999659 0.000849235 0)
(0.999661 0.000880767 0)
(0.999664 0.000908916 0)
(0.999999 2.94366e-05 0)
(0.999985 7.77166e-05 0)
(0.999962 0.000124712 0)
(0.999934 0.000171997 0)
(0.999902 0.000220561 0)
(0.999869 0.000270862 0)
(0.999836 0.000322962 0)
(0.999805 0.000376612 0)
(0.999776 0.000431263 0)
(0.999752 0.000486182 0)
(0.999731 0.000540504 0)
(0.999715 0.000593355 0)
(0.999703 0.000643936 0)
(0.999695 0.000691601 0)
(0.99969 0.000735898 0)
(0.999688 0.000776572 0)
(0.999688 0.000813548 0)
(0.99969 0.000846891 0)
(0.999693 0.000876769 0)
(0.999696 0.000903415 0)
(0.999999 3.06636e-05 0)
(0.999986 8.09075e-05 0)
(0.999964 0.000129681 0)
(0.999937 0.000178557 0)
(0.999907 0.000228497 0)
(0.999876 0.000279904 0)
(0.999845 0.000332781 0)
(0.999816 0.000386815 0)
(0.999791 0.000441418 0)
(0.999769 0.000495839 0)
(0.999751 0.000549239 0)
(0.999737 0.000600803 0)
(0.999728 0.000649817 0)
(0.999721 0.000695736 0)
(0.999718 0.000738203 0)
(0.999717 0.000777049 0)
(0.999717 0.000812261 0)
(0.999719 0.000843947 0)
(0.999723 0.000872301 0)
(0.999726 0.000897565 0)
(0.999999 3.18698e-05 0)
(0.999987 8.40376e-05 0)
(0.999966 0.000134535 0)
(0.99994 0.000184929 0)
(0.999912 0.000236147 0)
(0.999883 0.000288541 0)
(0.999855 0.000342058 0)
(0.999828 0.000396334 0)
(0.999805 0.000450751 0)
(0.999786 0.000504561 0)
(0.999771 0.00055696 0)
(0.999759 0.000607201 0)
(0.999751 0.00065466 0)
(0.999746 0.000698886 0)
(0.999744 0.00073961 0)
(0.999744 0.000776735 0)
(0.999745 0.000810301 0)
(0.999748 0.000840451 0)
(0.999751 0.000867396 0)
(0.999755 0.000891386 0)
(0.999999 3.30512e-05 0)
(0.999987 8.70962e-05 0)
(0.999967 0.000139257 0)
(0.999943 0.00019109 0)
(0.999917 0.000243487 0)
(0.99989 0.000296749 0)
(0.999864 0.000350774 0)
(0.99984 0.000405156 0)
(0.99982 0.000459264 0)
(0.999803 0.000512363 0)
(0.99979 0.0005637 0)
(0.99978 0.0006126 0)
(0.999774 0.000658527 0)
(0.99977 0.000701119 0)
(0.999769 0.000740185 0)
(0.99977 0.000775689 0)
(0.999772 0.000807718 0)
(0.999775 0.00083644 0)
(0.999778 0.000862081 0)
(0.999782 0.000884893 0)
(0.999999 3.42039e-05 0)
(0.999988 9.00728e-05 0)
(0.999969 0.000143832 0)
(0.999947 0.00019702 0)
(0.999922 0.000250493 0)
(0.999897 0.000304504 0)
(0.999874 0.000358909 0)
(0.999852 0.000413271 0)
(0.999834 0.000466961 0)
(0.999819 0.000519268 0)
(0.999808 0.000569497 0)
(0.999801 0.000617049 0)
(0.999796 0.000661475 0)
(0.999793 0.000702493 0)
(0.999793 0.000739984 0)
(0.999794 0.000773964 0)
(0.999797 0.000804555 0)
(0.9998 0.000831948 0)
(0.999804 0.000856379 0)
(0.999808 0.000878101 0)
(0.999999 3.53236e-05 0)
(0.999989 9.29569e-05 0)
(0.999971 0.000148243 0)
(0.99995 0.000202699 0)
(0.999927 0.000257142 0)
(0.999904 0.000311786 0)
(0.999883 0.000366448 0)
(0.999864 0.000420677 0)
(0.999848 0.00047385 0)
(0.999836 0.000525298 0)
(0.999826 0.000574386 0)
(0.99982 0.000620595 0)
(0.999817 0.000663557 0)
(0.999816 0.000703064 0)
(0.999816 0.000739059 0)
(0.999818 0.000771604 0)
(0.999821 0.00080085 0)
(0.999825 0.000827005 0)
(0.999829 0.000850311 0)
(0.999833 0.000871021 0)
(0.999999 3.64065e-05 0)
(0.999989 9.57379e-05 0)
(0.999973 0.000152474 0)
(0.999953 0.000208106 0)
(0.999932 0.000263416 0)
(0.999912 0.000318576 0)
(0.999892 0.000373381 0)
(0.999876 0.00042737 0)
(0.999862 0.000479944 0)
(0.999851 0.000530476 0)
(0.999844 0.000578404 0)
(0.999839 0.000623283 0)
(0.999837 0.000664821 0)
(0.999837 0.000702882 0)
(0.999838 0.000737458 0)
(0.999841 0.000768651 0)
(0.999844 0.000796637 0)
(0.999848 0.000821636 0)
(0.999852 0.000843894 0)
(0.999856 0.000863664 0)
(1 3.74483e-05 0)
(0.99999 9.84055e-05 0)
(0.999975 0.000156509 0)
(0.999957 0.000213224 0)
(0.999937 0.000269294 0)
(0.999919 0.00032486 0)
(0.999902 0.000379699 0)
(0.999887 0.000433353 0)
(0.999875 0.000485254 0)
(0.999867 0.00053483 0)
(0.999861 0.000581586 0)
(0.999857 0.000625154 0)
(0.999856 0.000665315 0)
(0.999857 0.00070199 0)
(0.999859 0.00073522 0)
(0.999862 0.000765141 0)
(0.999866 0.000791945 0)
(0.99987 0.000815864 0)
(0.999874 0.000837145 0)
(0.999878 0.000856038 0)
(1 3.84453e-05 0)
(0.999991 0.00010095 0)
(0.999977 0.000160336 0)
(0.99996 0.000218036 0)
(0.999943 0.00027476 0)
(0.999926 0.000330625 0)
(0.999911 0.000385396 0)
(0.999898 0.00043863 0)
(0.999888 0.000489798 0)
(0.999881 0.000538385 0)
(0.999877 0.000583967 0)
(0.999875 0.000626249 0)
(0.999875 0.000665078 0)
(0.999876 0.00070043 0)
(0.999879 0.000732385 0)
(0.999882 0.000761106 0)
(0.999886 0.000786801 0)
(0.99989 0.000809708 0)
(0.999895 0.000830076 0)
(0.999899 0.000848151 0)
(1 3.93936e-05 0)
(0.999991 0.000103361 0)
(0.999979 0.000163939 0)
(0.999963 0.000222526 0)
(0.999948 0.000279801 0)
(0.999933 0.00033586 0)
(0.99992 0.000390469 0)
(0.999909 0.000443208 0)
(0.999901 0.000493591 0)
(0.999896 0.000541167 0)
(0.999893 0.000585581 0)
(0.999892 0.000626607 0)
(0.999892 0.000664152 0)
(0.999894 0.000698239 0)
(0.999898 0.000728986 0)
(0.999901 0.000756575 0)
(0.999905 0.000781228 0)
(0.99991 0.000803187 0)
(0.999914 0.000822701 0)
(0.999919 0.000840011 0)
(1 4.02895e-05 0)
(0.999992 0.000105631 0)
(0.99998 0.000167305 0)
(0.999967 0.00022668 0)
(0.999953 0.000284403 0)
(0.99994 0.000340558 0)
(0.999929 0.00039492 0)
(0.99992 0.000447097 0)
(0.999913 0.000496654 0)
(0.999909 0.000543204 0)
(0.999907 0.000586461 0)
(0.999907 0.000626263 0)
(0.999909 0.000662572 0)
(0.999912 0.000695453 0)
(0.999915 0.000725054 0)
(0.999919 0.000751575 0)
(0.999924 0.000775248 0)
(0.999928 0.000796318 0)
(0.999933 0.000815031 0)
(0.999937 0.000831626 0)
(1 4.11296e-05 0)
(0.999993 0.000107749 0)
(0.999982 0.000170425 0)
(0.99997 0.000230486 0)
(0.999958 0.000288556 0)
(0.999947 0.000344715 0)
(0.999937 0.00039875 0)
(0.99993 0.000450307 0)
(0.999925 0.000499005 0)
(0.999922 0.000544523 0)
(0.999922 0.000586639 0)
(0.999923 0.000625251 0)
(0.999925 0.000660372 0)
(0.999928 0.000692103 0)
(0.999932 0.000720617 0)
(0.999936 0.00074613 0)
(0.999941 0.00076888 0)
(0.999946 0.000789115 0)
(0.99995 0.000807077 0)
(0.999955 0.000823001 0)
(1 4.19107e-05 0)
(0.999994 0.00010971 0)
(0.999984 0.000173286 0)
(0.999973 0.000233933 0)
(0.999963 0.000292254 0)
(0.999953 0.000348327 0)
(0.999945 0.000401964 0)
(0.99994 0.000452851 0)
(0.999936 0.000500666 0)
(0.999935 0.00054515 0)
(0.999935 0.000586144 0)
(0.999937 0.000623604 0)
(0.99994 0.000657583 0)
(0.999944 0.000688218 0)
(0.999948 0.000715702 0)
(0.999953 0.000740262 0)
(0.999957 0.000762143 0)
(0.999962 0.000781591 0)
(0.999967 0.000798849 0)
(0.999971 0.000814142 0)
(1 4.26297e-05 0)
(0.999994 0.000111505 0)
(0.999986 0.00017588 0)
(0.999977 0.000237013 0)
(0.999967 0.00029549 0)
(0.999959 0.000351396 0)
(0.999953 0.00040457 0)
(0.999949 0.000454746 0)
(0.999947 0.000501658 0)
(0.999947 0.000545112 0)
(0.999948 0.000585008 0)
(0.99995 0.000621351 0)
(0.999954 0.000654236 0)
(0.999958 0.000683826 0)
(0.999963 0.000710332 0)
(0.999968 0.000733992 0)
(0.999972 0.000755052 0)
(0.999977 0.000773761 0)
(0.999982 0.000790355 0)
(0.999986 0.000805056 0)
(1 4.32842e-05 0)
(0.999995 0.000113129 0)
(0.999988 0.000178199 0)
(0.99998 0.00023972 0)
(0.999972 0.000298261 0)
(0.999966 0.000353923 0)
(0.999961 0.000406577 0)
(0.999958 0.000456005 0)
(0.999957 0.000502004 0)
(0.999958 0.000544435 0)
(0.99996 0.000583258 0)
(0.999963 0.000618523 0)
(0.999967 0.000650358 0)
(0.999972 0.000678952 0)
(0.999977 0.00070453 0)
(0.999982 0.000727337 0)
(0.999987 0.000747624 0)
(0.999991 0.000765636 0)
(0.999996 0.000781604 0)
(1 0.000795749 0)
(1 4.38716e-05 0)
(0.999996 0.000114576 0)
(0.999989 0.000180237 0)
(0.999983 0.000242047 0)
(0.999976 0.000300566 0)
(0.999971 0.000355913 0)
(0.999968 0.000407995 0)
(0.999967 0.000456648 0)
(0.999967 0.000501724 0)
(0.999968 0.000543146 0)
(0.999971 0.000580922 0)
(0.999975 0.000615145 0)
(0.99998 0.000645974 0)
(0.999984 0.000673619 0)
(0.99999 0.000698316 0)
(0.999995 0.000720317 0)
(1 0.000739873 0)
(1 0.000757226 0)
(1.00001 0.000772606 0)
(1.00001 0.000786225 0)
(1 4.43901e-05 0)
(0.999996 0.000115841 0)
(0.999991 0.000181989 0)
(0.999986 0.000243992 0)
(0.999981 0.000302407 0)
(0.999977 0.000357373 0)
(0.999975 0.000408839 0)
(0.999975 0.000456692 0)
(0.999976 0.000500843 0)
(0.999978 0.000541269 0)
(0.999982 0.000578027 0)
(0.999986 0.000611245 0)
(0.999991 0.00064111 0)
(0.999996 0.000667849 0)
(1 0.00069171 0)
(1.00001 0.000712947 0)
(1.00001 0.000731811 0)
(1.00002 0.000748542 0)
(1.00002 0.000763366 0)
(1.00003 0.00077649 0)
(1 4.4838e-05 0)
(0.999997 0.000116922 0)
(0.999993 0.000183452 0)
(0.999988 0.000245555 0)
(0.999985 0.000303787 0)
(0.999982 0.000358311 0)
(0.999982 0.000409121 0)
(0.999982 0.000456156 0)
(0.999984 0.000499383 0)
(0.999988 0.00053883 0)
(0.999992 0.000574597 0)
(0.999997 0.000606847 0)
(1 0.000635789 0)
(1.00001 0.000661665 0)
(1.00001 0.00068473 0)
(1.00002 0.000705242 0)
(1.00002 0.000723451 0)
(1.00003 0.000739595 0)
(1.00003 0.000753894 0)
(1.00004 0.00076655 0)
(1 4.52142e-05 0)
(0.999998 0.000117817 0)
(0.999994 0.000184624 0)
(0.999991 0.000246736 0)
(0.999989 0.00030471 0)
(0.999988 0.000358738 0)
(0.999988 0.000408857 0)
(0.999989 0.00045506 0)
(0.999992 0.000497367 0)
(0.999996 0.000535853 0)
(1 0.000570659 0)
(1.00001 0.000601975 0)
(1.00001 0.000630032 0)
(1.00002 0.000655085 0)
(1.00002 0.000677393 0)
(1.00003 0.000697217 0)
(1.00003 0.000714806 0)
(1.00004 0.000730393 0)
(1.00004 0.000744196 0)
(1.00005 0.00075641 0)
(1 4.55178e-05 0)
(0.999998 0.000118522 0)
(0.999996 0.000185505 0)
(0.999994 0.000247539 0)
(0.999992 0.000305184 0)
(0.999992 0.000358666 0)
(0.999994 0.000408064 0)
(0.999996 0.000453425 0)
(1 0.000494818 0)
(1 0.000532363 0)
(1.00001 0.000566236 0)
(1.00002 0.000596653 0)
(1.00002 0.000623862 0)
(1.00003 0.000648128 0)
(1.00003 0.000669717 0)
(1.00004 0.000688888 0)
(1.00004 0.000705888 0)
(1.00005 0.000720948 0)
(1.00005 0.00073428 0)
(1.00006 0.000746076 0)
(1 4.57485e-05 0)
(0.999999 0.00011904 0)
(0.999997 0.000186096 0)
(0.999996 0.000247967 0)
(0.999996 0.000305218 0)
(0.999997 0.000358107 0)
(0.999999 0.00040676 0)
(1 0.000451272 0)
(1.00001 0.00049176 0)
(1.00001 0.000528384 0)
(1.00002 0.000561351 0)
(1.00002 0.000590902 0)
(1.00003 0.000617299 0)
(1.00004 0.000640814 0)
(1.00004 0.000661717 0)
(1.00005 0.000680266 0)
(1.00005 0.000696708 0)
(1.00006 0.000711268 0)
(1.00006 0.000724153 0)
(1.00007 0.000735553 0)
(1 4.59062e-05 0)
(0.999999 0.000119369 0)
(0.999998 0.0001864 0)
(0.999998 0.000248026 0)
(0.999999 0.000304822 0)
(1 0.000357078 0)
(1 0.000404964 0)
(1.00001 0.000448622 0)
(1.00001 0.000488215 0)
(1.00002 0.000523939 0)
(1.00002 0.000556029 0)
(1.00003 0.000584746 0)
(1.00004 0.000610363 0)
(1.00004 0.00063316 0)
(1.00005 0.000653409 0)
(1.00005 0.000671367 0)
(1.00006 0.000687277 0)
(1.00006 0.000701362 0)
(1.00007 0.000713824 0)
(1.00007 0.000724847 0)
(1 4.59914e-05 0)
(1 0.000119512 0)
(1 0.000186422 0)
(1 0.000247726 0)
(1 0.000304008 0)
(1 0.000355593 0)
(1.00001 0.000402694 0)
(1.00001 0.000445498 0)
(1.00002 0.000484207 0)
(1.00002 0.000519051 0)
(1.00003 0.000550291 0)
(1.00004 0.000578204 0)
(1.00004 0.000603073 0)
(1.00005 0.000625184 0)
(1.00006 0.000644808 0)
(1.00006 0.000662203 0)
(1.00007 0.000677607 0)
(1.00007 0.000691241 0)
(1.00008 0.000703301 0)
(1.00008 0.000713966 0)
(1 4.60049e-05 0)
(1 0.000119472 0)
(1 0.000186167 0)
(1 0.000247074 0)
(1 0.00030279 0)
(1.00001 0.00035367 0)
(1.00001 0.000399971 0)
(1.00002 0.000441921 0)
(1.00002 0.000479758 0)
(1.00003 0.000513744 0)
(1.00004 0.00054416 0)
(1.00004 0.000571297 0)
(1.00005 0.000595449 0)
(1.00006 0.000616902 0)
(1.00006 0.000635929 0)
(1.00007 0.000652787 0)
(1.00007 0.00066771 0)
(1.00008 0.000680913 0)
(1.00008 0.00069259 0)
(1.00009 0.000702916 0)
(1 4.59478e-05 0)
(1 0.000119253 0)
(1 0.000185642 0)
(1 0.000246082 0)
(1.00001 0.000301181 0)
(1.00001 0.000351327 0)
(1.00002 0.000396816 0)
(1.00002 0.000437913 0)
(1.00003 0.000474892 0)
(1.00004 0.00050804 0)
(1.00004 0.000537657 0)
(1.00005 0.000564046 0)
(1.00006 0.000587507 0)
(1.00006 0.00060833 0)
(1.00007 0.000626787 0)
(1.00007 0.000643132 0)
(1.00008 0.000657596 0)
(1.00008 0.000670389 0)
(1.00009 0.000681702 0)
(1.00009 0.000691704 0)
(1 4.58218e-05 0)
(1 0.000118858 0)
(1 0.000184854 0)
(1.00001 0.00024476 0)
(1.00001 0.000299197 0)
(1.00001 0.000348583 0)
(1.00002 0.000393249 0)
(1.00003 0.000433497 0)
(1.00003 0.000469631 0)
(1.00004 0.000501961 0)
(1.00005 0.000530803 0)
(1.00005 0.00055647 0)
(1.00006 0.000579268 0)
(1.00007 0.000599486 0)
(1.00007 0.000617397 0)
(1.00008 0.000633251 0)
(1.00008 0.000647276 0)
(1.00009 0.000659678 0)
(1.00009 0.000670643 0)
(1.0001 0.000680337 0)
(1 4.56286e-05 0)
(1 0.000118293 0)
(1 0.000183813 0)
(1.00001 0.000243123 0)
(1.00001 0.000296855 0)
(1.00002 0.000345456 0)
(1.00002 0.000389291 0)
(1.00003 0.000428695 0)
(1.00004 0.000463998 0)
(1.00004 0.000495529 0)
(1.00005 0.000523619 0)
(1.00006 0.000548589 0)
(1.00006 0.000570748 0)
(1.00007 0.000590386 0)
(1.00008 0.000607773 0)
(1.00008 0.000623158 0)
(1.00009 0.000636763 0)
(1.00009 0.000648791 0)
(1.0001 0.000659424 0)
(1.0001 0.000668823 0)
(1 4.53704e-05 0)
(1 0.000117564 0)
(1 0.000182528 0)
(1.00001 0.000241183 0)
(1.00001 0.000294171 0)
(1.00002 0.000341967 0)
(1.00003 0.000384965 0)
(1.00003 0.00042353 0)
(1.00004 0.000458015 0)
(1.00005 0.000488767 0)
(1.00005 0.000516126 0)
(1.00006 0.000540422 0)
(1.00007 0.000561964 0)
(1.00008 0.000581045 0)
(1.00008 0.00059793 0)
(1.00009 0.000612864 0)
(1.00009 0.000626067 0)
(1.0001 0.000637738 0)
(1.0001 0.000648053 0)
(1.0001 0.00065717 0)
(1 4.50498e-05 0)
(1 0.000116677 0)
(1.00001 0.000181011 0)
(1.00001 0.000238955 0)
(1.00002 0.000291164 0)
(1.00002 0.000338135 0)
(1.00003 0.000380292 0)
(1.00004 0.000418024 0)
(1.00004 0.000451704 0)
(1.00005 0.000481694 0)
(1.00006 0.000508344 0)
(1.00007 0.000531987 0)
(1.00007 0.000552936 0)
(1.00008 0.000571479 0)
(1.00008 0.000587881 0)
(1.00009 0.000602383 0)
(1.00009 0.000615201 0)
(1.0001 0.000626529 0)
(1.0001 0.00063654 0)
(1.00011 0.000645387 0)
(1 4.46694e-05 0)
(1 0.000115641 0)
(1.00001 0.000179272 0)
(1.00001 0.000236455 0)
(1.00002 0.000287851 0)
(1.00002 0.000333982 0)
(1.00003 0.000375294 0)
(1.00004 0.000412199 0)
(1.00005 0.000445087 0)
(1.00005 0.000474333 0)
(1.00006 0.000500293 0)
(1.00007 0.000523304 0)
(1.00007 0.000543679 0)
(1.00008 0.000561704 0)
(1.00009 0.000577641 0)
(1.00009 0.000591728 0)
(1.0001 0.000604176 0)
(1.0001 0.000615175 0)
(1.00011 0.000624894 0)
(1.00011 0.000633482 0)
(1 4.4232e-05 0)
(1 0.000114461 0)
(1.00001 0.000177323 0)
(1.00001 0.000233697 0)
(1.00002 0.000284252 0)
(1.00002 0.000329527 0)
(1.00003 0.000369992 0)
(1.00004 0.000406076 0)
(1.00005 0.000438185 0)
(1.00006 0.000466703 0)
(1.00006 0.000491992 0)
(1.00007 0.00051439 0)
(1.00008 0.00053421 0)
(1.00008 0.000551735 0)
(1.00009 0.000567225 0)
(1.00009 0.000580912 0)
(1.0001 0.000593004 0)
(1.0001 0.000603687 0)
(1.00011 0.000613125 0)
(1.00011 0.000621464 0)
(1 4.37408e-05 0)
(1 0.000113147 0)
(1.00001 0.000175178 0)
(1.00001 0.000230698 0)
(1.00002 0.000280384 0)
(1.00003 0.000324791 0)
(1.00003 0.000364407 0)
(1.00004 0.000399678 0)
(1.00005 0.00043102 0)
(1.00006 0.000458826 0)
(1.00006 0.000483461 0)
(1.00007 0.000505264 0)
(1.00008 0.000524546 0)
(1.00008 0.000541588 0)
(1.00009 0.000556646 0)
(1.0001 0.000569947 0)
(1.0001 0.000581697 0)
(1.0001 0.000592075 0)
(1.00011 0.000601243 0)
(1.00011 0.000609343 0)
(1 4.31989e-05 0)
(1 0.000111707 0)
(1.00001 0.000172847 0)
(1.00001 0.000227474 0)
(1.00002 0.000276266 0)
(1.00003 0.000319795 0)
(1.00004 0.000358561 0)
(1.00004 0.000393025 0)
(1.00005 0.000423613 0)
(1.00006 0.000450721 0)
(1.00007 0.000474718 0)
(1.00007 0.000495943 0)
(1.00008 0.000514703 0)
(1.00009 0.000531278 0)
(1.00009 0.000545918 0)
(1.0001 0.000558847 0)
(1.0001 0.000570266 0)
(1.00011 0.000580351 0)
(1.00011 0.000589259 0)
(1.00011 0.000597129 0)
(1 4.26097e-05 0)
(1 0.000110148 0)
(1.00001 0.000170345 0)
(1.00001 0.000224041 0)
(1.00002 0.000271918 0)
(1.00003 0.000314558 0)
(1.00004 0.000352476 0)
(1.00004 0.000386139 0)
(1.00005 0.000415983 0)
(1.00006 0.000442408 0)
(1.00007 0.000465783 0)
(1.00007 0.000486444 0)
(1.00008 0.000504698 0)
(1.00009 0.00052082 0)
(1.00009 0.000535055 0)
(1.0001 0.000547625 0)
(1.0001 0.000558724 0)
(1.00011 0.000568526 0)
(1.00011 0.000577183 0)
(1.00011 0.00058483 0)
(1 4.19765e-05 0)
(1 0.00010848 0)
(1.00001 0.000167684 0)
(1.00001 0.000220415 0)
(1.00002 0.000267358 0)
(1.00003 0.000309102 0)
(1.00004 0.00034617 0)
(1.00004 0.000379041 0)
(1.00005 0.000408152 0)
(1.00006 0.000433906 0)
(1.00007 0.000456672 0)
(1.00007 0.000476785 0)
(1.00008 0.000494547 0)
(1.00009 0.000510228 0)
(1.00009 0.000524072 0)
(1.0001 0.000536293 0)
(1.0001 0.000547083 0)
(1.00011 0.000556611 0)
(1.00011 0.000565025 0)
(1.00011 0.000572458 0)
(1 4.13027e-05 0)
(1 0.000106711 0)
(1.00001 0.000164876 0)
(1.00001 0.000216613 0)