/*--------------------------------*- C++ -*----------------------------------*\
| =========                 |                                                 |
| \\      /  F ield         | OpenFOAM: The Open Source CFD Toolbox           |
|  \\    /   O peration     | Version:  2.4.0                                 |
|   \\  /    A nd           | Web:      www.OpenFOAM.org                      |
|    \\/     M anipulation  |                                                 |
\*---------------------------------------------------------------------------*/
FoamFile
{
    version     2.0;
    format      ascii;
    class       volScalarField;
    location    "0.22";
    object      pPrime2Mean;
}
// * * * * * * * * * * * * * * * * * * * * * * * * * * * * * * * * * * * * * //

dimensions      [0 4 -4 0 0 0 0];

internalField   nonuniform List<scalar> 
2320
(
7731.81
7535.41
7330.14
7127.65
6928
6731.31
6537.44
6346.58
6158.57
5973.67
5791.64
5612.89
5437.08
5264.78
5095.55
4930.14
4767.96
4609.93
4455.28
4305
7731.8
7535.4
7330.13
7127.64
6927.99
6731.29
6537.42
6346.55
6158.53
5973.61
5791.57
5612.78
5436.96
5264.62
5095.36
4929.9
4767.68
4609.62
4454.94
4304.67
7731.79
7535.38
7330.12
7127.61
6927.96
6731.25
6537.37
6346.48
6158.44
5973.49
5791.42
5612.59
5436.72
5264.31
5094.99
4929.44
4767.16
4608.99
4454.32
4304.01
7731.77
7535.36
7330.09
7127.58
6927.92
6731.19
6537.3
6346.38
6158.32
5973.32
5791.21
5612.3
5436.36
5263.85
5094.42
4928.72
4766.32
4608.03
4453.31
4302.98
7731.75
7535.33
7330.06
7127.53
6927.86
6731.11
6537.2
6346.25
6158.16
5973.1
5790.93
5611.93
5435.9
5263.24
5093.69
4927.79
4765.26
4606.78
4452.01
4301.61
7731.72
7535.29
7330.02
7127.48
6927.8
6731.02
6537.09
6346.1
6157.96
5972.83
5790.6
5611.49
5435.35
5262.5
5092.77
4926.63
4763.91
4605.19
4450.32
4299.82
7731.68
7535.24
7329.97
7127.41
6927.72
6730.92
6536.96
6345.92
6157.74
5972.53
5790.22
5610.97
5434.7
5261.64
5091.71
4925.26
4762.31
4603.27
4448.23
4297.61
7731.64
7535.19
7329.91
7127.35
6927.64
6730.81
6536.82
6345.73
6157.5
5972.2
5789.8
5610.4
5433.98
5260.67
5090.5
4923.7
4760.45
4601
4445.75
4294.91
7731.6
7535.14
7329.86
7127.27
6927.55
6730.69
6536.67
6345.53
6157.24
5971.85
5789.36
5609.8
5433.2
5259.62
5089.18
4921.98
4758.35
4598.39
4442.81
4291.65
7731.56
7535.09
7329.8
7127.2
6927.46
6730.57
6536.52
6345.32
6156.98
5971.5
5788.9
5609.17
5432.38
5258.52
5087.77
4920.12
4756.02
4595.45
4439.43
4287.85
7731.51
7535.03
7329.75
7127.13
6927.37
6730.45
6536.37
6345.12
6156.72
5971.14
5788.43
5608.53
5431.54
5257.38
5086.27
4918.11
4753.43
4592.14
4435.46
4283.34
7731.47
7534.98
7329.69
7127.06
6927.28
6730.33
6536.22
6344.92
6156.46
5970.79
5787.96
5607.89
5430.67
5256.21
5084.7
4916
4750.61
4588.46
4430.88
4277.96
7731.42
7534.93
7329.64
7126.99
6927.2
6730.22
6536.08
6344.73
6156.22
5970.45
5787.51
5607.26
5429.82
5255.03
5083.1
4913.79
4747.62
4584.43
4425.71
4271.61
7731.38
7534.88
7329.59
7126.93
6927.13
6730.12
6535.96
6344.56
6155.99
5970.13
5787.07
5606.66
5429
5253.9
5081.49
4911.58
4744.48
4580.13
4419.81
4264.31
7731.34
7534.84
7329.55
7126.87
6927.07
6730.04
6535.85
6344.41
6155.78
5969.84
5786.67
5606.11
5428.22
5252.82
5079.97
4909.4
4741.31
4575.56
4413.24
4255.28
7731.31
7534.81
7329.51
7126.82
6927.01
6729.97
6535.76
6344.28
6155.6
5969.58
5786.3
5605.61
5427.51
5251.86
5078.55
4907.42
4738.25
4571.03
4406.1
4245.14
7731.28
7534.78
7329.49
7126.79
6926.97
6729.91
6535.68
6344.16
6155.44
5969.36
5786
5605.2
5426.93
5251.03
5077.33
4905.63
4735.48
4566.68
4398.69
4232.81
7731.26
7534.76
7329.47
7126.76
6926.94
6729.86
6535.62
6344.07
6155.31
5969.2
5785.76
5604.88
5426.46
5250.38
5076.33
4904.19
4733.14
4562.91
4391.7
4219.78
7731.25
7534.74
7329.45
7126.74
6926.92
6729.83
6535.58
6344.01
6155.23
5969.08
5785.6
5604.66
5426.13
5249.92
5075.65
4903.15
4731.45
4559.96
4385.84
4206.01
7731.25
7534.74
7329.44
7126.73
6926.91
6729.81
6535.55
6343.98
6155.19
5969.03
5785.52
5604.55
5425.97
5249.69
5075.3
4902.61
4730.56
4558.39
4382.41
4196.1
4158.04
4015.21
3875.39
3738.81
3604.79
3472.97
3343.02
3214.72
4157.73
4014.96
3875.23
3738.76
3604.85
3473.11
3343.23
3214.97
4157.17
4014.49
3874.93
3738.67
3604.95
3473.41
3343.67
3215.5
4156.25
4013.75
3874.44
3738.52
3605.11
3473.86
3344.34
3216.31
4155.02
4012.72
3873.79
3738.32
3605.35
3474.5
3345.28
3217.4
4153.43
4011.39
3872.95
3738.05
3605.65
3475.35
3346.5
3218.83
4151.38
4009.7
3871.9
3737.68
3606.04
3476.41
3348.05
3220.64
4148.92
4007.59
3870.62
3737.28
3606.56
3477.72
3349.99
3222.88
4145.85
4004.94
3868.96
3736.77
3607.25
3479.39
3352.39
3225.64
4142.25
4001.74
3866.83
3735.95
3608.05
3481.44
3355.35
3229
4137.85
3997.95
3864.48
3734.98
3608.98
3483.97
3359.01
3233.06
4132.39
3993.23
3861.65
3733.94
3610.18
3487.1
3363.5
3238
4125.67
3987.18
3857.91
3732.74
3611.72
3491
3369.04
3244.01
4117.52
3979.66
3853.03
3731.25
3613.65
3495.89
3375.95
3251.37
4107.53
3970.37
3846.89
3729.4
3616
3501.95
3384.57
3260.48
4094.66
3958.83
3839.34
3727.16
3618.86
3509.41
3395.35
3271.98
4077.62
3944.29
3830.23
3724.55
3622.36
3518.59
3408.91
3286.79
4054.12
3925.83
3819.38
3721.57
3626.61
3529.79
3426.03
3306.36
4021.57
3902.59
3806.85
3718.3
3631.67
3543.24
3447.61
3333.42
3973.25
3874.27
3793.22
3715.76
3638.01
3558.94
3474.5
3374.16
3087.98
2962.83
2839.37
2717.74
2598.11
2480.58
2365.25
2252.18
2141.47
2033.18
1927.39
1824.17
1723.59
1625.7
1530.57
1438.19
1348.55
1261.61
1177.3
1095.55
1016.24
939.208
864.243
791.037
719.07
647.557
574.763
496.95
3088.25
2963.1
2839.61
2717.96
2598.3
2480.74
2365.38
2252.3
2141.58
2033.26
1927.46
1824.22
1723.64
1625.74
1530.61
1438.23
1348.6
1261.69
1177.4
1095.69
1016.42
939.467
864.606
791.559
719.877
648.847
577.303
503.097
3088.8
2963.63
2840.1
2718.4
2598.67
2481.07
2365.66
2252.53
2141.76
2033.43
1927.59
1824.34
1723.73
1625.83
1530.69
1438.32
1348.72
1261.83
1177.6
1095.95
1016.78
939.961
865.301
792.568
721.387
651.295
581.628
512.073
3089.64
2964.44
2840.84
2719.05
2599.25
2481.56
2366.09
2252.89
2142.08
2033.69
1927.81
1824.51
1723.87
1625.95
1530.81
1438.46
1348.88
1262.05
1177.89
1096.34
1017.31
940.683
866.314
794.002
723.523
654.569
587.035
521.443
3090.8
2965.55
2841.84
2719.95
2600.02
2482.23
2366.66
2253.38
2142.49
2034.04
1928.1
1824.74
1724.06
1626.11
1530.96
1438.64
1349.1
1262.33
1178.26
1096.84
1017.98
941.601
867.581
795.795
726.1
658.416
592.918
530.533
3092.29
2966.96
2843.13
2721.09
2601.02
2483.1
2367.4
2254.02
2143.05
2034.51
1928.48
1825.04
1724.3
1626.31
1531.16
1438.84
1349.36
1262.66
1178.7
1097.43
1018.78
942.68
869.066
797.851
728.998
662.576
598.917
539.069
3094.15
2968.73
2844.74
2722.5
2602.25
2484.18
2368.33
2254.84
2143.74
2035.1
1928.96
1825.41
1724.57
1626.55
1531.38
1439.09
1349.65
1263.04
1179.21
1098.1
1019.68
943.89
870.709
800.094
732.098
666.854
604.822
546.926
3096.44
2970.87
2846.67
2724.17
2603.73
2485.45
2369.45
2255.82
2144.59
2035.82
1929.53
1825.85
1724.9
1626.8
1531.62
1439.35
1349.98
1263.46
1179.76
1098.83
1020.65
945.192
872.451
802.442
735.26
671.113
610.462
554.108
3099.2
2973.42
2848.92
2726.13
2605.43
2486.91
2370.75
2256.97
2145.62
2036.68
1930.2
1826.36
1725.26
1627.09
1531.87
1439.63
1350.31
1263.9
1180.34
1099.6
1021.67
946.544
874.247
804.825
738.417
675.243
615.764
560.628
3102.5
2976.42
2851.52
2728.39
2607.37
2488.6
2372.28
2258.33
2146.82
2037.67
1930.98
1826.92
1725.65
1627.39
1532.13
1439.91
1350.66
1264.36
1180.94
1100.39
1022.71
947.914
876.044
807.185
741.475
679.173
620.667
566.51
3106.43
2979.91
2854.49
2730.93
2609.53
2490.54
2374.02
2259.93
2148.25
2038.88
1931.91
1827.55
1726.08
1627.69
1532.41
1440.2
1351.03
1264.82
1181.54
1101.18
1023.74
949.265
877.802
809.461
744.386
682.838
625.145
571.772
3111.1
2983.92
2857.84
2733.74
2611.97
2492.78
2376.11
2261.93
2150.04
2040.4
1933.06
1828.31
1726.56
1627.99
1532.66
1440.47
1351.38
1265.28
1182.14
1101.95
1024.75
950.573
879.492
811.615
747.112
686.199
629.196
576.436
3116.61
2988.51
2861.61
2736.94
2614.89
2495.49
2378.69
2264.34
2152.19
2042.24
1934.36
1829.22
1727.12
1628.34
1532.9
1440.74
1351.71
1265.71
1182.71
1102.69
1025.71
951.802
881.063
813.606
749.592
689.233
632.787
580.53
3123.14
2993.76
2865.83
2740.6
2618.27
2498.57
2381.53
2266.82
2154.34
2043.86
1935.62
1830.04
1727.65
1628.65
1533.12
1440.98
1352.02
1266.12
1183.23
1103.38
1026.59
952.93
882.495
815.405
751.813
691.915
635.923
584.068
3130.86
2999.68
2870.34
2744.3
2621.52
2501.29
2383.95
2268.91
2156.17
2045.38
1936.73
1830.76
1728.11
1628.9
1533.3
1441.2
1352.31
1266.48
1183.71
1103.99
1027.37
953.932
883.762
816.984
753.748
694.225
638.605
587.063
3139.92
3006.08
2874.67
2747.41
2623.81
2503.17
2385.63
2270.37
2157.39
2046.4
1937.5
1831.22
1728.49
1629.05
1533.45
1441.41
1352.57
1266.81
1184.13
1104.53
1028.06
954.799
884.849
818.329
755.382
696.165
640.839
589.544
3150.35
3012.5
2878.49
2749.79
2625.55
2504.26
2386.79
2271.28
2158.03
2047.05
1937.76
1831.45
1728.69
1629.15
1533.54
1441.61
1352.81
1267.11
1184.5
1104.99
1028.63
955.517
885.743
819.428
756.707
697.728
642.628
591.522
3161.82
3018.32
2881.09
2751.1
2626.16
2504.46
2386.81
2271.15
2158.04
2046.9
1937.62
1831.33
1728.63
1629.19
1533.64
1441.76
1353
1267.34
1184.79
1105.35
1029.08
956.068
886.424
820.262
757.71
698.903
643.968
592.998
3173.45
3023.32
2882.9
2751.72
2626.1
2504.26
2386.53
2270.85
2157.77
2046.57
1937.31
1831.12
1728.49
1629.06
1533.71
1441.87
1353.11
1267.51
1184.99
1105.59
1029.38
956.443
886.887
820.825
758.384
699.691
644.862
593.979
3182.77
3025.73
2883.83
2751.69
2625.52
2503.7
2385.88
2270.38
2157.37
2046.21
1936.96
1830.93
1728.29
1629.04
1533.73
1441.93
1353.17
1267.59
1185.09
1105.71
1029.53
956.629
887.116
821.104
758.717
700.081
645.305
594.466
402.009
363.587
336.539
316.027
299.895
287.423
278.786
274.734
427.139
382.728
352.207
328.982
310.792
296.664
286.356
279.91
446.175
400.12
366.767
341.229
321.177
305.281
293.174
283.971
461.355
415.194
380.124
352.626
330.606
312.882
298.739
287.153
474.172
428.38
392.058
362.952
339.434
320.134
304.05
289.959
485.153
439.879
402.891
372.648
347.546
326.621
308.778
292.815
494.767
449.989
412.413
381.019
354.637
332.457
313.114
295.427
503.231
458.842
420.921
388.807
361.522
337.952
317.133
297.733
510.717
466.678
428.513
395.609
367.152
342.405
320.602
300.583
517.329
473.556
435.159
401.707
372.606
347.001
324.032
302.95
523.153
479.598
441.039
407.12
377.232
350.723
326.927
305.145
528.27
484.867
446.161
411.82
381.363
354.223
329.723
307.271
532.708
489.425
450.599
415.927
384.991
357.224
332.091
309.038
536.513
493.325
454.39
419.443
388.085
359.847
334.239
310.744
539.722
496.602
457.581
422.407
390.723
362.096
336.063
312.182
542.366
499.295
460.204
424.847
392.896
363.945
337.583
313.407
544.466
501.433
462.282
426.785
394.629
365.435
338.82
314.425
546.03
503.021
463.829
428.23
395.923
366.552
339.756
315.214
547.068
504.074
464.85
429.186
396.786
367.302
340.394
315.765
547.582
504.596
465.36
429.661
397.213
367.68
340.724
316.061
282.072
281.545
274.32
263.689
253.138
236.817
211.094
185.977
167.031
146.066
123.9
101.366
79.3932
58.9888
41.0704
26.4291
15.3624
7.8265
3.32035
0.475348
281.166
279.128
271.415
260.817
250.536
234.716
209.508
184.665
165.732
144.913
122.953
100.645
78.8787
58.651
40.8781
26.3311
15.3181
7.78258
3.25868
0.447775
280.615
277.265
268.948
258.053
247.591
232.011
207.375
182.917
164.025
143.388
121.691
99.6798
78.1915
58.2086
40.6333
26.2178
15.271
7.7411
3.19784
0.436404
281.137
276.113
266.971
255.652
244.804
229.275
205.17
181.138
162.318
141.866
120.431
98.7086
77.5069
57.7711
40.4025
26.1157
15.2392
7.71462
3.15068
0.425138
281.465
275.299
265.393
253.588
242.288
226.697
203.074
179.424
160.641
140.358
119.173
97.7412
76.8263
57.3444
40.1847
26.0306
15.2225
7.70162
3.11472
0.416041
282.634
274.72
263.916
251.651
239.85
224.088
200.922
177.674
158.957
138.849
117.92
96.7743
76.1519
56.9285
39.9799
25.9621
15.2188
7.70088
3.08681
0.408163
283.455
274.33
262.64
249.873
237.569
221.616
198.875
175.974
157.306
137.364
116.679
95.8185
75.4872
56.5261
39.7883
25.9088
15.2289
7.71092
3.06554
0.401068
284.251
274.311
261.732
248.268
235.391
219.218
196.857
174.302
155.675
135.898
115.453
94.8751
74.8349
56.1385
39.6107
25.8723
15.2521
7.73113
3.05012
0.394637
285.216
273.682
260.47
246.558
233.176
216.807
194.817
172.624
154.048
134.441
114.238
93.9431
74.1939
55.7645
39.4485
25.8505
15.2878
7.76021
3.03944
0.388756
286.435
273.497
259.625
245.192
231.263
214.639
192.955
171.058
152.488
133.025
113.053
93.0327
73.5722
55.4088
39.3043
25.8447
15.3363
7.79769
3.03297
0.383383
287.863
273.61
258.674
243.577
229.12
212.333
191.009
169.461
150.924
131.613
111.878
92.1339
72.9621
55.0659
39.1759
25.8534
15.3968
7.8432
3.0304
0.37851
288.907
273.614
257.806
242.135
227.192
210.243
189.256
167.994
149.452
130.265
110.746
91.2715
72.3811
54.748
39.0694
25.879
15.4701
7.89664
3.03141
0.374105
289.915
273.68
257.166
240.894
225.394
208.2
187.488
166.514
147.98
128.922
109.618
90.4125
71.8078
54.4449
38.9771
25.9177
15.5539
7.95683
3.03542
0.37009
290.874
273.634
256.363
239.529
223.54
206.199
185.816
165.13
146.59
127.647
108.542
89.5968
71.2722
54.1716
38.9091
25.9748
15.6513
8.02546
3.04303
0.366537
291.657
273.548
255.671
238.373
221.922
204.393
184.269
163.81
145.24
126.399
107.49
88.7959
70.7495
53.913
38.8567
26.0455
15.7581
8.0994
3.05281
0.363287
292.344
273.463
255.003
237.203
220.272
202.578
182.749
162.547
143.951
125.207
106.485
88.034
70.2608
53.6827
38.8296
26.1359
15.8789
8.1817
3.06614
0.360453
292.9
273.323
254.359
236.144
218.791
200.942
181.369
161.37
142.726
124.065
105.513
87.2995
69.7955
53.4741
38.8222
26.242
16.0098
8.26934
3.08142
0.357885
293.319
273.161
253.769
235.161
217.385
199.363
180.037
160.251
141.558
122.97
104.576
86.5953
69.3587
53.2928
38.8397
26.3686
16.1539
8.36399
3.09964
0.355661
293.581
272.932
253.188
234.255
216.108
197.915
178.814
159.211
140.459
121.931
103.684
85.9267
68.9528
53.1405
38.8823
26.5156
16.3092
8.46365
3.11963
0.353639
293.683
272.719
252.806
233.653
215.218
196.849
177.871
158.429
139.635
121.134
102.989
85.4024
68.6391
53.0336
38.934
26.6478
16.4416
8.54517
3.13717
0.35214
0.311306
0.137578
0.194652
0.104312
0.0644969
0.0642423
0.0574192
0.0566822
0.744869
0.924547
0.994526
0.877849
0.631424
0.580263
0.530102
0.518046
1.76012
1.99719
2.13592
2.20635
1.783
1.61837
1.49119
1.45188
3.27611
3.78641
4.09656
4.07784
3.50824
3.18049
2.95191
2.86802
5.46011
6.12914
6.34358
6.46868
5.77048
5.26632
4.91386
4.7723
8.14115
8.90566
9.29752
9.39013
8.55768
7.86078
7.37246
7.16403
11.444
12.3437
12.6646
12.7992
11.8267
10.9525
10.3186
10.0383
15.2164
16.1506
16.566
16.6626
15.5687
14.5134
13.7387
13.3838
19.5008
20.4846
20.7174
20.9789
19.7358
18.5256
17.6099
17.1847
24.172
25.1682
25.549
25.6755
24.3228
22.9626
21.9155
21.421
29.2727
30.3402
30.4929
30.7536
29.2816
27.8044
26.6316
26.0758
34.7134
35.7644
35.8731
36.1947
34.6177
33.0222
31.737
31.1243
40.5211
41.6151
41.7521
41.9952
40.2945
38.5994
37.2093
36.5407
46.6608
47.7486
47.6863
48.0965
46.3214
44.5079
43.0278
42.3034
53.1089
54.2382
54.2326
54.5417
52.6712
50.7377
49.1691
48.3906
59.8845
60.9996
60.838
61.2783
59.3419
57.2602
55.6094
54.7744
66.9297
68.1486
68.0471
68.3349
66.305
64.052
62.3174
61.4336
74.2829
75.5299
75.2561
75.6724
73.5455
71.0935
69.2781
68.3468
81.8567
83.2648
83.1046
83.2727
81.0307
78.3752
76.4738
75.4948
89.6845
91.1746
90.8061
91.1026
88.7447
85.8607
83.8823
82.8569
97.6834
99.2795
99.097
99.1182
96.6273
93.5312
91.4815
90.4165
105.839
107.48
107.182
107.204
104.641
101.357
99.2563
98.1694
114.147
115.711
115.635
115.369
112.756
109.338
107.205
106.114
122.576
123.966
123.94
123.541
120.984
117.495
115.344
114.255
131.212
132.278
132.534
131.828
129.37
125.866
123.682
122.598
140.114
140.746
141.153
140.233
137.945
134.478
132.229
131.147
149.386
149.505
150.148
148.979
146.764
143.344
140.996
139.908
159.184
158.819
159.581
158.035
155.857
152.476
150.002
148.887
169.573
168.859
169.564
167.717
165.291
161.864
159.248
158.087
180.667
179.738
180.308
178.109
175.063
171.499
168.739
167.515
192.463
191.564
191.709
189.308
185.222
181.375
178.471
177.17
205.093
204.259
203.843
201.17
195.715
191.479
188.438
187.046
218.551
217.856
216.541
213.269
206.531
201.83
198.619
197.114
233.112
232.181
229.578
225.316
217.633
212.431
208.982
207.332
248.963
247.446
242.927
237.412
229.024
223.261
219.479
217.638
266.612
263.5
256.94
249.611
240.674
234.257
230.021
227.943
286.327
281.174
271.573
262.192
252.539
245.322
240.499
238.116
309.091
300.125
287.906
275.358
264.531
256.326
250.784
247.983
334.421
321.047
303.952
288.896
276.531
267.113
260.73
257.379
364.892
343.488
320.396
302.562
288.382
277.542
270.167
266.231
3906.02
3851.55
3786.4
3719.7
3651.69
3582.98
3512.51
3447.14
3858.42
3831.65
3782.89
3727.08
3668.49
3609.63
3550.58
3502.13
3825.69
3812.75
3777.34
3732.06
3682.48
3632.15
3582.52
3545.38
3802.36
3796.59
3771.07
3734.87
3693.42
3650.65
3609.09
3579.96
3785.36
3783.32
3764.93
3736.2
3701.83
3665.73
3631.03
3607.97
3772.71
3772.63
3759.3
3736.56
3708.24
3677.96
3649.15
3630.7
3763.17
3764.09
3754.36
3736.35
3713.04
3687.86
3664.01
3649.25
3755.88
3757.27
3750.11
3735.83
3716.71
3695.86
3676.22
3664.36
3750.27
3751.82
3746.52
3735.18
3719.53
3702.34
3686.21
3676.69
3745.9
3747.47
3743.52
3734.5
3721.74
3707.59
3694.39
3686.74
3742.49
3743.98
3741.03
3733.85
3723.46
3711.86
3701.06
3694.95
3739.8
3741.18
3738.97
3733.25
3724.82
3715.32
3706.53
3701.62
3737.68
3738.93
3737.27
3732.72
3725.87
3718.14
3710.98
3707.07
3736
3737.12
3735.88
3732.26
3726.72
3720.42
3714.61
3711.5
3734.66
3735.67
3734.74
3731.86
3727.38
3722.28
3717.58
3715.11
3733.6
3734.5
3733.81
3731.53
3727.92
3723.79
3719.99
3718.04
3732.76
3733.55
3733.06
3731.25
3728.35
3725.02
3721.96
3720.43
3732.08
3732.79
3732.44
3731.03
3728.69
3726.01
3723.55
3722.37
3731.54
3732.18
3731.94
3730.84
3728.97
3726.82
3724.85
3723.94
3731.12
3731.69
3731.54
3730.68
3729.19
3727.48
3725.91
3725.21
3730.78
3731.3
3731.21
3730.56
3729.36
3728.02
3726.77
3726.24
3730.51
3730.99
3730.95
3730.46
3729.51
3728.45
3727.46
3727.08
3730.3
3730.75
3730.74
3730.39
3729.63
3728.8
3728.02
3727.75
3730.14
3730.55
3730.58
3730.33
3729.73
3729.09
3728.48
3728.3
3730.02
3730.4
3730.45
3730.28
3729.81
3729.32
3728.84
3728.73
3729.94
3730.28
3730.34
3730.25
3729.88
3729.51
3729.15
3729.08
3729.89
3730.2
3730.27
3730.22
3729.93
3729.67
3729.38
3729.36
3729.85
3730.14
3730.21
3730.2
3729.98
3729.79
3729.58
3729.58
3729.83
3730.09
3730.17
3730.19
3730.02
3729.89
3729.73
3729.76
3729.82
3730.06
3730.14
3730.18
3730.05
3729.97
3729.86
3729.89
3729.83
3730.02
3730.11
3730.17
3730.07
3730.03
3729.96
3730.01
3729.87
3730.01
3730.1
3730.16
3730.09
3730.09
3730.04
3730.09
3729.93
3730
3730.09
3730.15
3730.11
3730.13
3730.1
3730.16
3730.02
3730.02
3730.09
3730.14
3730.13
3730.16
3730.16
3730.22
3730.15
3730.04
3730.1
3730.12
3730.13
3730.19
3730.2
3730.27
3730.34
3730.08
3730.12
3730.12
3730.13
3730.2
3730.24
3730.32
3730.63
3730.14
3730.16
3730.13
3730.14
3730.22
3730.28
3730.38
3731.19
3730.28
3730.23
3730.15
3730.14
3730.23
3730.32
3730.46
3732.32
3730.58
3730.34
3730.21
3730.17
3730.25
3730.36
3730.69
3734.18
3731.02
3730.4
3730.21
3730.15
3730.21
3730.35
3731.19
)
;

boundaryField
{
    wall
    {
        type            calculated;
        value           nonuniform List<scalar> 
312
(
7731.25
7534.74
7329.44
7126.73
6926.91
6729.81
6535.55
6343.98
6155.19
5969.03
5785.52
5604.55
5425.97
5249.69
5075.3
4902.61
4730.56
4558.39
4382.41
4196.1
3906.02
3858.42
3825.69
3802.36
3785.36
3772.71
3763.17
3755.88
3750.27
3745.9
3742.49
3739.8
3737.68
3736
3734.66
3733.6
3732.76
3732.08
3731.54
3731.12
3730.78
3730.51
3730.3
3730.14
3730.02
3729.94
3729.89
3729.85
3729.83
3729.82
3729.83
3729.87
3729.93
3730.02
3730.15
3730.34
3730.63
3731.19
3732.32
3734.18
3447.14
3502.13
3545.38
3579.96
3607.97
3630.7
3649.25
3664.36
3676.69
3686.74
3694.95
3701.62
3707.07
3711.5
3715.11
3718.04
3720.43
3722.37
3723.94
3725.21
3726.24
3727.08
3727.75
3728.3
3728.73
3729.08
3729.36
3729.58
3729.76
3729.89
3730.01
3730.09
3730.16
3730.22
3730.27
3730.32
3730.38
3730.46
3730.69
3731.19
3182.77
3025.73
2883.83
2751.69
2625.52
2503.7
2385.88
2270.38
2157.37
2046.21
1936.96
1830.93
1728.29
1629.04
1533.73
1441.93
1353.17
1267.59
1185.09
1105.71
1029.53
956.629
887.116
821.104
758.717
700.081
645.305
594.466
547.582
504.596
465.36
429.661
397.213
367.68
340.724
316.061
293.683
272.719
252.806
233.653
215.218
196.849
177.871
158.429
139.635
121.134
102.989
85.4024
68.6391
53.0336
38.934
26.6478
16.4416
8.54517
3.13717
0.35214
282.072
281.545
274.32
263.689
253.138
236.817
211.094
185.977
167.031
146.066
123.9
101.366
79.3932
58.9888
41.0704
26.4291
15.3624
7.8265
3.32035
0.475348
0.0566822
0.518046
1.45188
2.86802
4.7723
7.16403
10.0383
13.3838
17.1847
21.421
26.0758
31.1243
36.5407
42.3034
48.3906
54.7744
61.4336
68.3468
75.4948
82.8569
90.4165
98.1694
106.114
114.255
122.598
131.147
139.908
148.887
158.087
167.515
177.17
187.046
197.114
207.332
217.638
227.943
238.116
247.983
257.379
266.231
0.311306
0.744869
1.76012
3.27611
5.46011
8.14115
11.444
15.2164
19.5008
24.172
29.2727
34.7134
40.5211
46.6608
53.1089
59.8845
66.9297
74.2829
81.8567
89.6845
97.6834
105.839
114.147
122.576
131.212
140.114
149.386
159.184
169.573
180.667
192.463
205.093
218.551
233.112
248.963
266.612
286.327
309.091
334.421
364.892
3087.98
2962.83
2839.37
2717.74
2598.11
2480.58
2365.25
2252.18
2141.47
2033.18
1927.39
1824.17
1723.59
1625.7
1530.57
1438.19
1348.55
1261.61
1177.3
1095.55
1016.24
939.208
864.243
791.037
719.07
647.557
574.763
496.95
4158.04
4015.21
3875.39
3738.81
3604.79
3472.97
3343.02
3214.72
7731.81
7535.41
7330.14
7127.65
6928
6731.31
6537.44
6346.58
6158.57
5973.67
5791.64
5612.89
5437.08
5264.78
5095.55
4930.14
4767.96
4609.93
4455.28
4305
)
;
    }
    inlet1
    {
        type            calculated;
        value           nonuniform List<scalar> 
20
(
7731.81
7731.8
7731.79
7731.77
7731.75
7731.72
7731.68
7731.64
7731.6
7731.56
7731.51
7731.47
7731.42
7731.38
7731.34
7731.31
7731.28
7731.26
7731.25
7731.25
)
;
    }
    inlet2
    {
        type            calculated;
        value           nonuniform List<scalar> 8(3734.18 3731.02 3730.4 3730.21 3730.15 3730.21 3730.35 3731.19);
    }
    outlet1
    {
        type            calculated;
        value           uniform 0;
    }
    outlet2
    {
        type            calculated;
        value           nonuniform List<scalar> 8(0.244058 0 0.138708 0 0 0 0 0);
    }
    defaultFaces
    {
        type            empty;
    }
}


// ************************************************************************* //
