/*--------------------------------*- C++ -*----------------------------------*\
| =========                 |                                                 |
| \\      /  F ield         | OpenFOAM: The Open Source CFD Toolbox           |
|  \\    /   O peration     | Version:  2.4.0                                 |
|   \\  /    A nd           | Web:      www.OpenFOAM.org                      |
|    \\/     M anipulation  |                                                 |
\*---------------------------------------------------------------------------*/
FoamFile
{
    version     2.0;
    format      ascii;
    class       volScalarField;
    location    "4.55";
    object      p;
}
// * * * * * * * * * * * * * * * * * * * * * * * * * * * * * * * * * * * * * //

dimensions      [0 2 -2 0 0 0 0];

internalField   nonuniform List<scalar> 
6000
(
-0.129794
0.227036
0.184302
0.204187
0.1968
0.201625
0.19861
0.200629
0.19932
0.200025
0.199275
0.199301
0.198853
0.198901
0.199091
0.199763
0.200599
0.201468
0.202319
0.203237
0.203789
0.203996
0.204493
0.205545
0.20713
0.209202
0.211695
0.214558
0.217733
0.221168
0.224802
0.228591
0.232485
0.236446
0.240442
0.244457
0.24848
0.252517
0.256576
0.260688
0.264863
0.269163
0.273559
0.278183
0.282857
0.287899
0.292709
0.298114
0.302477
0.30778
0.310043
0.314458
0.310582
0.313467
0.294085
0.298244
0.240812
0.264729
0.105515
0.221339
-0.103454
0.223621
0.184376
0.204034
0.196821
0.201611
0.198621
0.200629
0.199338
0.200047
0.199308
0.199334
0.198877
0.198903
0.19906
0.199693
0.200514
0.201409
0.202335
0.203329
0.203914
0.204098
0.204549
0.205569
0.207131
0.209184
0.211662
0.214512
0.217675
0.221096
0.22473
0.228514
0.232403
0.236358
0.240348
0.244355
0.248369
0.252396
0.256442
0.260539
0.264695
0.268975
0.273346
0.277941
0.282581
0.287582
0.292344
0.297688
0.301998
0.307218
0.309414
0.313701
0.309745
0.31242
0.292975
0.296759
0.239337
0.262514
0.10382
0.217795
-0.0865662
0.220167
0.184404
0.203943
0.196829
0.201604
0.198626
0.200636
0.199356
0.200078
0.199345
0.199378
0.19891
0.198917
0.199037
0.199632
0.200433
0.201359
0.202365
0.203438
0.204058
0.204229
0.204644
0.205631
0.207166
0.209198
0.211658
0.214492
0.217643
0.221054
0.22467
0.22844
0.232316
0.236257
0.240233
0.244224
0.24822
0.252226
0.256249
0.260319
0.264444
0.268689
0.27302
0.27757
0.282156
0.2871
0.291791
0.297058
0.301279
0.306409
0.308492
0.312668
0.308569
0.311116
0.291501
0.295134
0.237548
0.26045
0.101517
0.214843
-0.0743432
0.216314
0.184615
0.203859
0.196829
0.201598
0.198631
0.200646
0.199372
0.200112
0.199381
0.199423
0.198943
0.198931
0.199016
0.199577
0.200362
0.20132
0.202397
0.203534
0.204178
0.20434
0.20473
0.20569
0.207201
0.209213
0.211655
0.214473
0.217609
0.221007
0.22461
0.228366
0.232228
0.236155
0.240115
0.244089
0.248065
0.252049
0.256046
0.260087
0.264179
0.268386
0.272673
0.277176
0.281705
0.28659
0.291207
0.296397
0.300519
0.305557
0.307509
0.31158
0.3073
0.309746
0.289883
0.293455
0.235515
0.2584
0.0988233
0.21212
-0.0625357
0.212188
0.184998
0.203777
0.196827
0.201589
0.198634
0.200656
0.199386
0.200141
0.199412
0.199462
0.198972
0.198945
0.198998
0.19953
0.200303
0.20129
0.202424
0.203608
0.204267
0.204422
0.204797
0.205738
0.207229
0.209223
0.211648
0.214452
0.217575
0.220961
0.224553
0.228298
0.232148
0.236061
0.240007
0.243965
0.247922
0.251885
0.255857
0.259871
0.26393
0.268102
0.272347
0.276807
0.281281
0.286111
0.290659
0.295778
0.299804
0.304753
0.306573
0.310544
0.306078
0.308428
0.288291
0.291818
0.233448
0.256394
0.0960725
0.20959
-0.0509507
0.207951
0.185506
0.203682
0.196833
0.201576
0.198638
0.200664
0.199398
0.200167
0.199438
0.199496
0.198996
0.198956
0.198983
0.19949
0.200255
0.201266
0.202444
0.203663
0.204331
0.204484
0.204851
0.205777
0.207251
0.209229
0.21164
0.214432
0.217543
0.220919
0.2245
0.228236
0.232075
0.235977
0.23991
0.243853
0.247793
0.251736
0.255685
0.259673
0.263701
0.26784
0.272046
0.276464
0.280888
0.285666
0.29015
0.295202
0.299138
0.304003
0.305698
0.309571
0.304923
0.307178
0.286768
0.290247
0.231438
0.254448
0.0934091
0.207233
-0.0402097
0.203704
0.186045
0.203558
0.196853
0.201559
0.198642
0.20067
0.199408
0.200189
0.199461
0.199525
0.199017
0.198966
0.198969
0.199456
0.200214
0.201247
0.20246
0.203705
0.204378
0.204533
0.204896
0.20581
0.20727
0.209233
0.211632
0.214413
0.217514
0.220881
0.224454
0.228181
0.232011
0.235903
0.239824
0.243753
0.247676
0.2516
0.255527
0.25949
0.263489
0.267596
0.271764
0.276142
0.280519
0.285248
0.289671
0.294659
0.29851
0.303295
0.304871
0.308651
0.303829
0.305992
0.285315
0.288745
0.229507
0.252573
0.090876
0.205046
-0.0303697
0.199519
0.186544
0.203415
0.196879
0.20154
0.198647
0.200675
0.199418
0.200209
0.199481
0.199551
0.199035
0.198974
0.198956
0.199426
0.200179
0.201231
0.202472
0.203735
0.204413
0.204572
0.204935
0.20584
0.207287
0.209238
0.211625
0.214396
0.21749
0.220849
0.224415
0.228134
0.231956
0.235839
0.239748
0.243663
0.247571
0.251477
0.255382
0.25932
0.263291
0.267367
0.271499
0.275839
0.28017
0.284851
0.289217
0.294143
0.297914
0.302624
0.304086
0.307778
0.302788
0.304863
0.283928
0.287306
0.227655
0.250768
0.0884797
0.203015
-0.0212006
0.195458
0.186951
0.20327
0.196899
0.201521
0.198654
0.200679
0.199427
0.200226
0.199498
0.199574
0.199051
0.198982
0.198944
0.199399
0.200147
0.201217
0.20248
0.203757
0.204438
0.204603
0.20497
0.205867
0.207303
0.209243
0.21162
0.214383
0.217469
0.220822
0.224382
0.228095
0.231909
0.235783
0.239682
0.243585
0.247477
0.251365
0.255248
0.259162
0.263106
0.267151
0.271248
0.275551
0.279838
0.284473
0.288784
0.293652
0.297346
0.301984
0.303338
0.306947
0.301795
0.303785
0.282601
0.285927
0.22588
0.249031
0.0862202
0.201119
-0.0125479
0.191563
0.187245
0.20312
0.196916
0.201504
0.198662
0.200681
0.199436
0.200242
0.199515
0.199595
0.199065
0.198988
0.198933
0.199374
0.200119
0.201204
0.202485
0.203771
0.204455
0.204629
0.205002
0.205893
0.207319
0.209249
0.211618
0.214374
0.217454
0.220801
0.224356
0.228063
0.231871
0.235737
0.239626
0.243516
0.247394
0.251263
0.255126
0.259017
0.262932
0.266948
0.271011
0.275277
0.279522
0.284112
0.28837
0.293182
0.296804
0.301374
0.302625
0.306153
0.300848
0.302755
0.281333
0.284602
0.224181
0.247355
0.084096
0.199341
-0.00435894
0.187854
0.187421
0.202951
0.196953
0.201489
0.198673
0.200684
0.199446
0.200257
0.199531
0.199615
0.199078
0.198994
0.198923
0.199351
0.200093
0.201191
0.202488
0.203779
0.204466
0.204651
0.205031
0.205918
0.207336
0.209257
0.211618
0.214368
0.217443
0.220786
0.224337
0.228039
0.231841
0.2357
0.239579
0.243458
0.24732
0.251172
0.255014
0.258881
0.26277
0.266757
0.270785
0.275016
0.27922
0.283766
0.287973
0.292731
0.296284
0.300788
0.301941
0.305393
0.299941
0.301768
0.280118
0.283327
0.222555
0.245735
0.0821036
0.197662
0.00339501
0.184346
0.187481
0.202756
0.197021
0.201473
0.198687
0.200686
0.199457
0.200271
0.199546
0.199633
0.199091
0.198999
0.198912
0.199329
0.200068
0.201179
0.202488
0.203782
0.204472
0.20467
0.205058
0.205943
0.207353
0.209267
0.211622
0.214366
0.217437
0.220777
0.224324
0.228023
0.23182
0.235672
0.239542
0.243409
0.247257
0.251091
0.254913
0.258756
0.262618
0.266575
0.270571
0.274766
0.27893
0.283433
0.287591
0.292296
0.295784
0.300225
0.301285
0.304663
0.299072
0.300818
0.278953
0.282097
0.220998
0.244167
0.0802382
0.196068
0.0107491
0.181049
0.187434
0.202528
0.197121
0.201451
0.198708
0.200689
0.199468
0.200285
0.19956
0.19965
0.199102
0.199003
0.198903
0.199308
0.200044
0.201167
0.202486
0.203781
0.204474
0.204686
0.205085
0.205968
0.207372
0.209279
0.211628
0.214369
0.217437
0.220774
0.224319
0.228015
0.231807
0.235652
0.239514
0.243369
0.247202
0.251019
0.25482
0.25864
0.262475
0.266403
0.270366
0.274526
0.27865
0.283112
0.287222
0.291876
0.2953
0.299681
0.300652
0.303958
0.298235
0.299901
0.277834
0.280906
0.219507
0.242644
0.0784945
0.194545
0.0177384
0.177969
0.187288
0.202261
0.197254
0.201414
0.198734
0.200693
0.199482
0.200299
0.199576
0.199667
0.199114
0.199007
0.198893
0.199288
0.200021
0.201155
0.202483
0.203777
0.204474
0.204701
0.205111
0.205994
0.207394
0.209294
0.211639
0.214376
0.217442
0.220778
0.224321
0.228014
0.231803
0.235642
0.239494
0.243338
0.247157
0.250957
0.254736
0.258533
0.262341
0.26624
0.270169
0.274294
0.27838
0.2828
0.286863
0.291468
0.294831
0.299153
0.300039
0.303276
0.297428
0.299014
0.276757
0.27975
0.218078
0.241163
0.0768667
0.193082
0.0243906
0.175108
0.187054
0.20195
0.197401
0.201374
0.198764
0.2007
0.199498
0.200313
0.199592
0.199683
0.199125
0.199012
0.198885
0.199269
0.199999
0.201142
0.202479
0.20377
0.204472
0.204716
0.205138
0.206021
0.207417
0.209313
0.211653
0.214388
0.217453
0.220788
0.22433
0.228021
0.231806
0.23564
0.239484
0.243316
0.247121
0.250902
0.254661
0.258434
0.262214
0.266084
0.269981
0.274071
0.278118
0.282497
0.286514
0.29107
0.294375
0.298639
0.299445
0.302613
0.296647
0.298153
0.275717
0.278625
0.216709
0.239718
0.0753492
0.191667
0.0307275
0.172464
0.186745
0.201595
0.197549
0.201341
0.198792
0.20071
0.199517
0.200329
0.199609
0.1997
0.199137
0.199017
0.198877
0.19925
0.199977
0.201129
0.202474
0.203762
0.204469
0.20473
0.205165
0.20605
0.207442
0.209334
0.211672
0.214405
0.217469
0.220805
0.224346
0.228036
0.231818
0.235646
0.239482
0.243303
0.247093
0.250857
0.254594
0.258342
0.262096
0.265935
0.269799
0.273854
0.277863
0.282201
0.286174
0.290681
0.293929
0.298137
0.298867
0.301967
0.29589
0.297314
0.274713
0.277527
0.215395
0.238306
0.0739365
0.190291
0.0367676
0.170033
0.186374
0.201199
0.197689
0.201316
0.19882
0.200726
0.19954
0.200346
0.199628
0.199718
0.19915
0.199022
0.198869
0.199233
0.199955
0.201116
0.202468
0.203754
0.204465
0.204745
0.205193
0.20608
0.207471
0.20936
0.211695
0.214428
0.217492
0.220828
0.22437
0.228059
0.231839
0.235662
0.239489
0.243299
0.247074
0.250819
0.254535
0.258259
0.261984
0.265794
0.269624
0.273644
0.277614
0.281912
0.28584
0.290299
0.293493
0.297646
0.298303
0.301336
0.295154
0.296494
0.273742
0.276453
0.214133
0.236923
0.0726236
0.188947
0.0425274
0.16781
0.185954
0.200765
0.197816
0.201298
0.198852
0.200745
0.199568
0.200366
0.19965
0.199736
0.199164
0.199028
0.198864
0.199216
0.199934
0.201102
0.202462
0.203745
0.204462
0.204761
0.205222
0.206113
0.207503
0.209389
0.211723
0.214455
0.217521
0.220858
0.224402
0.228091
0.231868
0.235686
0.239505
0.243303
0.247063
0.25079
0.254483
0.258182
0.26188
0.265659
0.269456
0.27344
0.277372
0.281629
0.285513
0.289925
0.293066
0.297164
0.29775
0.300718
0.294437
0.295692
0.2728
0.275401
0.212921
0.235566
0.0714057
0.187626
0.0480219
0.165788
0.185496
0.200298
0.197924
0.201285
0.198895
0.200765
0.199602
0.200389
0.199674
0.199757
0.19918
0.199036
0.198859
0.199201
0.199913
0.201088
0.202454
0.203737
0.204461
0.204778
0.205253
0.206148
0.207537
0.209422
0.211756
0.214489
0.217556
0.220896
0.224441
0.22813
0.231905
0.235719
0.23953
0.243316
0.24706
0.250768
0.25444
0.258113
0.261782
0.26553
0.269293
0.273242
0.277135
0.281351
0.285192
0.289557
0.292646
0.29669
0.297209
0.30011
0.293737
0.294905
0.271885
0.274366
0.211756
0.234231
0.0702781
0.186323
0.0532646
0.163959
0.185012
0.199806
0.19801
0.201274
0.198957
0.200779
0.199642
0.200416
0.199703
0.19978
0.199198
0.199045
0.198857
0.199187
0.199893
0.201073
0.202447
0.203729
0.204461
0.204797
0.205286
0.206186
0.207576
0.20946
0.211794
0.214528
0.217598
0.220941
0.224488
0.228178
0.231952
0.23576
0.239563
0.243338
0.247066
0.250755
0.254403
0.258051
0.261691
0.265407
0.269136
0.273048
0.276904
0.281078
0.284876
0.289194
0.292232
0.296222
0.296678
0.299512
0.293052
0.294131
0.270996
0.273348
0.210637
0.232915
0.0692367
0.185033
0.0582681
0.162316
0.184512
0.199293
0.198071
0.201262
0.199036
0.200792
0.199687
0.200449
0.199736
0.199806
0.19922
0.199057
0.198857
0.199175
0.199875
0.201058
0.202439
0.203723
0.204463
0.204819
0.205322
0.206228
0.207619
0.209503
0.211838
0.214574
0.217647
0.220993
0.224543
0.228234
0.232007
0.235811
0.239606
0.243368
0.247081
0.25075
0.254375
0.257996
0.261606
0.26529
0.268985
0.27286
0.276677
0.28081
0.284565
0.288835
0.291825
0.295761
0.296154
0.298922
0.292381
0.293367
0.27013
0.272345
0.209559
0.231618
0.0682775
0.183749
0.063044
0.160848
0.184006
0.198767
0.198106
0.201245
0.199129
0.200805
0.199737
0.200488
0.199776
0.199836
0.199245
0.199072
0.19886
0.199165
0.199858
0.201044
0.202431
0.203718
0.204468
0.204844
0.205361
0.206273
0.207666
0.209551
0.211887
0.214626
0.217703
0.221053
0.224607
0.228299
0.232071
0.23587
0.239657
0.243407
0.247104
0.250752
0.254354
0.257947
0.261528
0.265179
0.268839
0.272677
0.276455
0.280546
0.284258
0.288481
0.291422
0.295304
0.295639
0.298339
0.291723
0.292614
0.269286
0.271353
0.208522
0.230335
0.0673967
0.182468
0.0676033
0.159547
0.183502
0.198234
0.198115
0.201221
0.199233
0.200825
0.199787
0.200531
0.199821
0.199871
0.199274
0.19909
0.198866
0.199159
0.199843
0.20103
0.202423
0.203714
0.204476
0.204872
0.205404
0.206322
0.207717
0.209604
0.211942
0.214685
0.217767
0.221121
0.224679
0.228373
0.232144
0.235939
0.239718
0.243455
0.247135
0.250763
0.25434
0.257906
0.261456
0.265074
0.268699
0.272499
0.276237
0.280286
0.283956
0.288131
0.291025
0.294852
0.295131
0.297763
0.291076
0.291869
0.268462
0.270372
0.207524
0.229065
0.0665911
0.181186
0.0719565
0.158403
0.183007
0.197699
0.198098
0.20119
0.199347
0.200854
0.199841
0.200579
0.199875
0.199913
0.199309
0.199113
0.198877
0.199156
0.199831
0.201016
0.202415
0.203711
0.204488
0.204905
0.205451
0.206376
0.207774
0.209663
0.212004
0.214751
0.217838
0.221198
0.22476
0.228457
0.232226
0.236017
0.239787
0.243512
0.247175
0.250782
0.254335
0.257873
0.261391
0.264976
0.268564
0.272326
0.276025
0.280031
0.283658
0.287785
0.290632
0.294405
0.294629
0.297192
0.29044
0.291132
0.267657
0.2694
0.206563
0.227807
0.0658573
0.1799
0.0761137
0.157406
0.182526
0.197169
0.19806
0.201151
0.199466
0.20089
0.1999
0.200629
0.199936
0.199961
0.19935
0.199142
0.198893
0.199158
0.199822
0.201005
0.202407
0.20371
0.204503
0.204942
0.205503
0.206435
0.207837
0.209728
0.212073
0.214825
0.217917
0.221283
0.22485
0.228549
0.232318
0.236105
0.239867
0.243579
0.247224
0.25081
0.254337
0.257846
0.261333
0.264883
0.268435
0.272158
0.275817
0.27978
0.283364
0.287443
0.290243
0.293961
0.294133
0.296625
0.289814
0.2904
0.266871
0.268436
0.205637
0.226558
0.0651924
0.178606
0.0800844
0.156548
0.182064
0.196648
0.198001
0.201103
0.19959
0.200935
0.19997
0.20068
0.200004
0.200016
0.199399
0.199177
0.198915
0.199165
0.199817
0.200995
0.2024
0.203711
0.204521
0.204984
0.20556
0.206499
0.207905
0.2098
0.212149
0.214907
0.218005
0.221378
0.224949
0.228652
0.23242
0.236203
0.239956
0.243655
0.247282
0.250846
0.254347
0.257827
0.261282
0.264797
0.268312
0.271995
0.275614
0.279533
0.283074
0.287104
0.289859
0.293521
0.293643
0.296064
0.289197
0.289675
0.266101
0.267479
0.204746
0.225317
0.0645935
0.177302
0.0838779
0.155819
0.181624
0.196141
0.197927
0.201048
0.199715
0.200988
0.20005
0.200733
0.200076
0.200078
0.199456
0.199219
0.198945
0.199178
0.199817
0.200988
0.202394
0.203713
0.204544
0.205031
0.205623
0.20657
0.207981
0.209879
0.212233
0.214997
0.218102
0.221481
0.225058
0.228764
0.232533
0.236311
0.240055
0.24374
0.247349
0.250891
0.254365
0.257816
0.261237
0.264717
0.268194
0.271838
0.275416
0.27929
0.282789
0.286769
0.289479
0.293085
0.293158
0.295506
0.288588
0.288954
0.265346
0.266528
0.203887
0.224082
0.0640581
0.175985
0.0875032
0.15521
0.181211
0.195651
0.197839
0.200987
0.199841
0.201048
0.200143
0.200791
0.200153
0.200148
0.199522
0.199269
0.198982
0.199199
0.199823
0.200984
0.20239
0.203717
0.20457
0.205083
0.205691
0.206647
0.208063
0.209966
0.212326
0.215096
0.218209
0.221595
0.225178
0.228887
0.232655
0.236429
0.240164
0.243835
0.247426
0.250945
0.254392
0.257812
0.2612
0.264644
0.268083
0.271686
0.275223
0.279053
0.282507
0.286438
0.289103
0.292652
0.292678
0.294952
0.287988
0.288237
0.264607
0.265582
0.203059
0.222854
0.0635836
0.174655
0.0909686
0.154712
0.180824
0.195181
0.197742
0.200922
0.199965
0.201114
0.200248
0.200854
0.200234
0.200224
0.199597
0.199329
0.199029
0.199228
0.199836
0.200986
0.202389
0.203723
0.204599
0.205139
0.205766
0.206731
0.208153
0.210062
0.212427
0.215204
0.218325
0.221719
0.225308
0.22902
0.232789
0.236558
0.240283
0.24394
0.247512
0.251007
0.254428
0.257816
0.261171
0.264578
0.267979
0.27154
0.275035
0.27882
0.282231
0.286111
0.288732
0.292223
0.292203
0.294401
0.287395
0.287524
0.263882
0.26464
0.202262
0.221629
0.0631678
0.173308
0.0942824
0.154317
0.180467
0.194733
0.197639
0.200856
0.200087
0.201187
0.200366
0.200925
0.200321
0.200306
0.199681
0.199399
0.199086
0.199267
0.199858
0.200994
0.20239
0.203732
0.204632
0.205201
0.205847
0.206823
0.208252
0.210166
0.212538
0.215322
0.218451
0.221853
0.225449
0.229165
0.232933
0.236697
0.240413
0.244056
0.247609
0.25108
0.254472
0.257829
0.261149
0.264519
0.267881
0.271401
0.274854
0.278592
0.28196
0.285789
0.288365
0.291797
0.291733
0.293853
0.286809
0.286814
0.263171
0.263701
0.201493
0.220409
0.0628085
0.171944
0.0974524
0.154018
0.180139
0.194309
0.197534
0.20079
0.200207
0.201265
0.200495
0.201006
0.200413
0.200392
0.199774
0.199479
0.199154
0.199316
0.19989
0.201009
0.202397
0.203744
0.204668
0.205267
0.205934
0.206923
0.20836
0.210279
0.212658
0.215451
0.218589
0.221999
0.225601
0.229321
0.233089
0.236848
0.240555
0.244182
0.247715
0.251161
0.254526
0.25785
0.261136
0.264467
0.26779
0.271267
0.274678
0.27837
0.281694
0.285471
0.288003
0.291375
0.291269
0.293309
0.28623
0.286107
0.262472
0.262765
0.200753
0.21919
0.0625037
0.170562
0.100486
0.153806
0.179841
0.193912
0.197429
0.200726
0.200326
0.201349
0.200635
0.201098
0.200515
0.200484
0.199874
0.19957
0.199234
0.199378
0.199933
0.201033
0.20241
0.20376
0.204706
0.205337
0.206028
0.207031
0.208476
0.210403
0.212789
0.21559
0.218738
0.222156
0.225765
0.229489
0.233257
0.237011
0.240707
0.244319
0.247832
0.251253
0.254588
0.257881
0.26113
0.264423
0.267706
0.271141
0.274509
0.278154
0.281433
0.285158
0.287646
0.290958
0.290809
0.292768
0.285658
0.285402
0.261786
0.261831
0.20004
0.217974
0.0622513
0.16916
0.10339
0.153676
0.179573
0.19354
0.197326
0.200668
0.200445
0.201438
0.200785
0.201202
0.200627
0.200582
0.199982
0.199671
0.199327
0.199453
0.199988
0.201067
0.20243
0.20378
0.204749
0.205411
0.206128
0.207147
0.208602
0.210537
0.212931
0.215742
0.218898
0.222326
0.225942
0.229669
0.233436
0.237186
0.240871
0.244468
0.247959
0.251355
0.254661
0.25792
0.261134
0.264388
0.26763
0.271021
0.274346
0.277943
0.281179
0.284851
0.287295
0.290544
0.290355
0.29223
0.285093
0.2847
0.261111
0.260899
0.199352
0.216759
0.0620496
0.167738
0.106171
0.153619
0.179335
0.193196
0.19723
0.200616
0.200565
0.201534
0.200945
0.201317
0.200751
0.200687
0.200098
0.199783
0.199433
0.199542
0.200057
0.201113
0.202459
0.203807
0.204795
0.205489
0.206234
0.207271
0.208738
0.210682
0.213085
0.215905
0.219071
0.222508
0.226131
0.229862
0.233629
0.237373
0.241047
0.244627
0.248097
0.251468
0.254743
0.257969
0.261146
0.264361
0.267563
0.27091
0.274191
0.27774
0.280931
0.284549
0.286949
0.290135
0.289906
0.291695
0.284533
0.283999
0.260448
0.259969
0.19869
0.215544
0.0618968
0.166294
0.108836
0.153631
0.179127
0.192879
0.19714
0.200572
0.200687
0.201636
0.201114
0.201446
0.200889
0.200802
0.200222
0.199903
0.199551
0.199645
0.200141
0.201173
0.202499
0.20384
0.204845
0.205572
0.206346
0.207403
0.208884
0.210837
0.21325
0.21608
0.219257
0.222703
0.226334
0.230069
0.233834
0.237572
0.241235
0.244799
0.248247
0.251591
0.254836
0.258027
0.261168
0.264343
0.267503
0.270806
0.274044
0.277544
0.280689
0.284253
0.286609
0.289731
0.289463
0.291164
0.283981
0.283301
0.259795
0.259039
0.198052
0.214329
0.0617913
0.164829
0.11139
0.153706
0.178948
0.192589
0.197059
0.200538
0.200813
0.201748
0.20129
0.201587
0.201041
0.200928
0.200355
0.200034
0.199682
0.199763
0.20024
0.201246
0.202549
0.203881
0.204901
0.205659
0.206463
0.207543
0.209039
0.211004
0.213428
0.216269
0.219456
0.222912
0.22655
0.230288
0.234053
0.237785
0.241436
0.244982
0.248408
0.251725
0.254939
0.258095
0.261199
0.264333
0.267453
0.270711
0.273904
0.277355
0.280455
0.283963
0.286276
0.289332
0.289026
0.290637
0.283434
0.282604
0.259153
0.258111
0.197438
0.213114
0.0617314
0.163343
0.113839
0.153837
0.178797
0.192325
0.196987
0.200515
0.200944
0.201869
0.201476
0.20174
0.201207
0.201067
0.200499
0.200175
0.199826
0.199895
0.200355
0.201334
0.202613
0.203932
0.204963
0.205751
0.206587
0.207691
0.209204
0.211183
0.213618
0.216471
0.219669
0.223135
0.22678
0.230522
0.234285
0.23801
0.24165
0.245178
0.248581
0.25187
0.255053
0.258174
0.26124
0.264334
0.267411
0.270624
0.273773
0.277174
0.280229
0.283681
0.285949
0.288939
0.288594
0.290113
0.282894
0.281909
0.25852
0.257182
0.196847
0.211898
0.0617157
0.161834
0.116189
0.15402
0.178673
0.192088
0.196927
0.200503
0.201081
0.202001
0.201671
0.201906
0.20139
0.201221
0.200655
0.200326
0.199982
0.200043
0.200486
0.201439
0.202691
0.203993
0.205033
0.205849
0.206716
0.207846
0.209379
0.211372
0.213821
0.216686
0.219897
0.223372
0.227024
0.23077
0.234532
0.23825
0.241876
0.245387
0.248766
0.252027
0.255178
0.258264
0.261292
0.264344
0.267379
0.270547
0.273651
0.277002
0.280011
0.283406
0.285631
0.288552
0.28817
0.289594
0.282361
0.281216
0.257897
0.256254
0.196277
0.210681
0.0617426
0.160303
0.118443
0.154251
0.178577
0.191877
0.196878
0.200503
0.201224
0.202145
0.201876
0.202085
0.201587
0.201392
0.200826
0.20049
0.200151
0.200205
0.200635
0.201561
0.202784
0.204067
0.205112
0.205953
0.206851
0.208009
0.209563
0.211574
0.214037
0.216916
0.220138
0.223624
0.227284
0.231032
0.234793
0.238503
0.242117
0.245608
0.248964
0.252196
0.255315
0.258364
0.261354
0.264365
0.267358
0.270479
0.273538
0.276838
0.279801
0.28314
0.285319
0.288172
0.287752
0.289078
0.281833
0.280525
0.257284
0.255326
0.195728
0.209463
0.061811
0.15875
0.120607
0.154524
0.178507
0.191691
0.196842
0.200516
0.201375
0.202302
0.202092
0.202278
0.201799
0.201579
0.201013
0.200668
0.200333
0.200383
0.2008
0.201701
0.202894
0.204155
0.205201
0.206064
0.206992
0.208179
0.209757
0.211786
0.214266
0.217159
0.220394
0.223891
0.227558
0.23131
0.235068
0.238771
0.242371
0.245843
0.249174
0.252378
0.255463
0.258476
0.261427
0.264397
0.267346
0.270422
0.273436
0.276685
0.279601
0.282882
0.285017
0.287798
0.287341
0.288568
0.281312
0.279835
0.256679
0.254398
0.1952
0.208243
0.0619192
0.157176
0.122685
0.154836
0.178463
0.19153
0.196818
0.200541
0.201533
0.202472
0.202321
0.202485
0.202027
0.201785
0.201218
0.200861
0.200529
0.200575
0.200982
0.201859
0.203022
0.204258
0.205301
0.206184
0.207141
0.208357
0.209959
0.212009
0.214507
0.217416
0.220665
0.224173
0.227848
0.231602
0.235358
0.239053
0.242639
0.246091
0.249398
0.252571
0.255623
0.2586
0.261512
0.264439
0.267346
0.270375
0.273343
0.276541
0.279411
0.282633
0.284723
0.287432
0.286938
0.288062
0.280798
0.279147
0.256083
0.253469
0.194692
0.207021
0.0620662
0.15558
0.124681
0.155183
0.178443
0.191394
0.196806
0.200579
0.2017
0.202656
0.202562
0.202708
0.20227
0.202008
0.201442
0.201072
0.200742
0.200783
0.201181
0.202034
0.203167
0.204378
0.205416
0.206314
0.207297
0.208542
0.210171
0.212244
0.214761
0.217687
0.220951
0.22447
0.228152
0.23191
0.235664
0.23935
0.242921
0.246353
0.249634
0.252778
0.255796
0.258736
0.261608
0.264493
0.267357
0.270339
0.273262
0.276408
0.279232
0.282394
0.284439
0.287075
0.286543
0.287562
0.28029
0.278461
0.255494
0.25254
0.194202
0.205797
0.0622506
0.153963
0.126599
0.155561
0.178447
0.19128
0.196808
0.20063
0.201876
0.202853
0.202816
0.202947
0.202529
0.20225
0.201686
0.201302
0.200972
0.201008
0.201397
0.202229
0.203332
0.204515
0.205545
0.206456
0.207464
0.208737
0.210392
0.212489
0.215028
0.217972
0.221251
0.224783
0.228473
0.232234
0.235984
0.239661
0.243218
0.246629
0.249884
0.252997
0.255982
0.258884
0.261717
0.26456
0.26738
0.270315
0.273193
0.276286
0.279063
0.282165
0.284164
0.286726
0.286157
0.287068
0.279788
0.277777
0.254914
0.251611
0.193731
0.204572
0.0624711
0.152326
0.128442
0.155967
0.178475
0.19119
0.196822
0.200693
0.202059
0.203062
0.203083
0.203203
0.202805
0.202511
0.20195
0.201553
0.201221
0.20125
0.201631
0.202441
0.203516
0.204672
0.205691
0.206611
0.20764
0.20894
0.210623
0.212745
0.215306
0.21827
0.221566
0.22511
0.228809
0.232572
0.23632
0.239988
0.243529
0.246919
0.250148
0.25323
0.25618
0.259045
0.261838
0.264638
0.267415
0.270304
0.273135
0.276176
0.278906
0.281947
0.2839
0.286386
0.285779
0.286579
0.279294
0.277095
0.254342
0.250681
0.193278
0.203345
0.0627267
0.150669
0.130215
0.156399
0.178525
0.191122
0.19685
0.200769
0.202251
0.203285
0.203363
0.203478
0.203098
0.202791
0.202236
0.201826
0.201491
0.201511
0.201883
0.202673
0.20372
0.204848
0.205855
0.206782
0.20783
0.209155
0.210864
0.213012
0.215597
0.218581
0.221895
0.225452
0.22916
0.232927
0.236671
0.240329
0.243855
0.247223
0.250425
0.253477
0.256392
0.259219
0.261972
0.26473
0.267463
0.270305
0.27309
0.276079
0.278761
0.281741
0.283648
0.286055
0.28541
0.286097
0.278806
0.276415
0.253777
0.249751
0.192841
0.202116
0.0630162
0.148993
0.131919
0.156852
0.178596
0.191077
0.19689
0.200858
0.202452
0.203519
0.203656
0.20377
0.20341
0.203091
0.202542
0.202123
0.201783
0.201793
0.202154
0.202924
0.203945
0.205045
0.206038
0.206969
0.208033
0.209381
0.211116
0.21329
0.215899
0.218906
0.222238
0.225809
0.229526
0.233296
0.237037
0.240686
0.244195
0.247542
0.250717
0.253737
0.256618
0.259406
0.262119
0.264834
0.267525
0.270319
0.273058
0.275994
0.278629
0.281547
0.283407
0.285736
0.285051
0.285622
0.278326
0.275738
0.253219
0.24882
0.192421
0.200885
0.0633383
0.147299
0.133559
0.157325
0.178689
0.191052
0.196944
0.200959
0.202661
0.203766
0.20396
0.20408
0.20374
0.203412
0.20287
0.202442
0.202099
0.202097
0.202447
0.203196
0.20419
0.205263
0.206243
0.207175
0.208252
0.209621
0.211381
0.21358
0.216214
0.219243
0.222594
0.226181
0.229907
0.23368
0.237419
0.241057
0.24455
0.247875
0.251023
0.254011
0.256857
0.259607
0.26228
0.264953
0.2676
0.270347
0.27304
0.275923
0.27851
0.281366
0.283179
0.285427
0.284703
0.285155
0.277853
0.275063
0.252668
0.247888
0.192017
0.199652
0.0636921
0.145588
0.135136
0.157815
0.178802
0.191049
0.197011
0.201071
0.202879
0.204023
0.204276
0.204406
0.20409
0.203755
0.20322
0.202786
0.20244
0.202426
0.202761
0.203489
0.204457
0.205504
0.206469
0.207402
0.208489
0.209876
0.211659
0.213883
0.216542
0.219593
0.222964
0.226566
0.230302
0.234079
0.237815
0.241443
0.24492
0.248222
0.251343
0.254299
0.25711
0.259822
0.262455
0.265085
0.267689
0.270389
0.273037
0.275867
0.278406
0.281199
0.282964
0.28513
0.284365
0.284695
0.277387
0.274391
0.252123
0.246956
0.191627
0.198419
0.0640762
0.143862
0.136654
0.158321
0.178934
0.191066
0.197091
0.201196
0.203104
0.204291
0.204603
0.204747
0.204457
0.20412
0.203593
0.203154
0.202806
0.202779
0.2031
0.203804
0.204746
0.205768
0.206719
0.20765
0.208746
0.210148
0.211952
0.214199
0.216882
0.219957
0.223348
0.226965
0.230712
0.234493
0.238225
0.241844
0.245304
0.248584
0.251677
0.254602
0.257377
0.260052
0.262645
0.265232
0.267793
0.270446
0.273048
0.275825
0.278316
0.281045
0.282762
0.284845
0.284039
0.284243
0.276929
0.273722
0.251585
0.246023
0.191252
0.197184
0.0644897
0.142122
0.138115
0.158838
0.179084
0.191103
0.197185
0.201333
0.203338
0.20457
0.20494
0.205103
0.204842
0.204506
0.203988
0.203546
0.203199
0.203159
0.203463
0.204144
0.20506
0.206057
0.206993
0.207922
0.209024
0.21044
0.212262
0.214531
0.217237
0.220334
0.223744
0.227378
0.231135
0.23492
0.23865
0.242259
0.245703
0.24896
0.252025
0.254918
0.257659
0.260295
0.262849
0.265394
0.267912
0.270518
0.273074
0.275799
0.278242
0.280907
0.282575
0.284573
0.283724
0.2838
0.276479
0.273056
0.251053
0.245091
0.190891
0.195948
0.0649314
0.140368
0.139521
0.159367
0.179253
0.191159
0.197292
0.201482
0.203581
0.204858
0.205287
0.205473
0.205243
0.204914
0.204408
0.203964
0.203617
0.203567
0.203854
0.204509
0.205398
0.20637
0.207293
0.208219
0.209326
0.210753
0.21259
0.214879
0.217606
0.220724
0.224154
0.227804
0.231572
0.235361
0.239088
0.242688
0.246115
0.24935
0.252388
0.255249
0.257955
0.260554
0.263068
0.265571
0.268046
0.270606
0.273117
0.275788
0.278183
0.280785
0.282403
0.284315
0.283422
0.283367
0.276037
0.272394
0.250527
0.244157
0.190542
0.194712
0.0654
0.138604
0.140874
0.159905
0.179439
0.191234
0.197411
0.201643
0.203831
0.205156
0.205643
0.205855
0.205658
0.205341
0.20485
0.204407
0.204062
0.204001
0.204272
0.204901
0.205762
0.20671
0.207619
0.208542
0.209652
0.211088
0.212939
0.215245
0.217992
0.22113
0.224578
0.228243
0.232021
0.235815
0.23954
0.24313
0.246541
0.249754
0.252765
0.255595
0.258266
0.260828
0.263303
0.265764
0.268197
0.270711
0.273177
0.275795
0.278142
0.280678
0.282247
0.284071
0.283133
0.282943
0.275604
0.271735
0.250007
0.243224
0.190206
0.193476
0.0658946
0.13683
0.142178
0.160451
0.179641
0.191326
0.197544
0.201816
0.20409
0.205464
0.206008
0.206249
0.206088
0.205787
0.205314
0.204875
0.204533
0.204464
0.204718
0.205321
0.206154
0.207078
0.207974
0.208893
0.210006
0.211449
0.213311
0.215631
0.218395
0.22155
0.225016
0.228695
0.232483
0.236282
0.240004
0.243585
0.246981
0.250172
0.253156
0.255955
0.258592
0.261116
0.263553
0.265973
0.268364
0.270832
0.273254
0.275819
0.278118
0.280589
0.282107
0.283842
0.282857
0.28253
0.275179
0.27108
0.249491
0.24229
0.189882
0.19224
0.0664137
0.135049
0.143433
0.161002
0.179859
0.191437
0.19769
0.202
0.204358
0.20578
0.206381
0.206653
0.206529
0.206249
0.205798
0.205369
0.205031
0.204955
0.205193
0.20577
0.206575
0.207475
0.208357
0.209274
0.210388
0.211836
0.213707
0.216038
0.218816
0.221988
0.225469
0.229161
0.232958
0.236761
0.240481
0.244053
0.247433
0.250603
0.253561
0.256329
0.258933
0.261421
0.263819
0.266198
0.268548
0.270971
0.273348
0.275861
0.278112
0.280518
0.281985
0.283629
0.282595
0.282128
0.274762
0.270429
0.248982
0.241357
0.189568
0.191005
0.0669563
0.133263
0.144641
0.161559
0.180092
0.191565
0.197849
0.202196
0.204634
0.206106
0.206762
0.207068
0.206982
0.206725
0.206301
0.205885
0.205555
0.205473
0.205697
0.206248
0.207026
0.207902
0.208772
0.209685
0.2108
0.212253
0.21413