/*--------------------------------*- C++ -*----------------------------------*\
| =========                 |                                                 |
| \\      /  F ield         | OpenFOAM: The Open Source CFD Toolbox           |
|  \\    /   O peration     | Version:  2.4.0                                 |
|   \\  /    A nd           | Web:      www.OpenFOAM.org                      |
|    \\/     M anipulation  |                                                 |
\*---------------------------------------------------------------------------*/
FoamFile
{
    version     2.0;
    format      ascii;
    class       volScalarField;
    location    "5.42";
    object      p;
}
// * * * * * * * * * * * * * * * * * * * * * * * * * * * * * * * * * * * * * //

dimensions      [0 2 -2 0 0 0 0];

internalField   nonuniform List<scalar> 
6000
(
-0.117623
0.239201
0.196474
0.216353
0.208976
0.21379
0.210767
0.212748
0.211438
0.212159
0.211538
0.211748
0.211531
0.211699
0.211769
0.211986
0.21216
0.212382
0.212634
0.213018
0.213572
0.214352
0.215373
0.216653
0.218203
0.220037
0.222165
0.224599
0.22735
0.230429
0.233846
0.237611
0.241734
0.246219
0.251068
0.256277
0.26183
0.26771
0.273872
0.28028
0.286838
0.293507
0.300086
0.306586
0.312613
0.318328
0.32295
0.32713
0.32915
0.33108
0.328581
0.327978
0.317357
0.315631
0.288572
0.292675
0.226997
0.261403
0.0915683
0.234157
-0.091284
0.235786
0.196547
0.2162
0.208997
0.213776
0.210779
0.212748
0.211454
0.212172
0.211558
0.211763
0.211542
0.211706
0.211778
0.212003
0.212187
0.212413
0.212662
0.213038
0.213584
0.214357
0.21537
0.216642
0.218184
0.22001
0.22213
0.224555
0.227295
0.230364
0.233775
0.237533
0.241647
0.246123
0.250961
0.256158
0.261699
0.267563
0.273708
0.280098
0.286634
0.293278
0.299828
0.306296
0.312286
0.317963
0.322549
0.326678
0.328651
0.33051
0.327957
0.327246
0.316571
0.314664
0.287569
0.291333
0.225822
0.259339
0.0901958
0.230575
-0.074396
0.232331
0.196576
0.216108
0.209006
0.213771
0.210785
0.212756
0.211469
0.212195
0.211581
0.211788
0.21156
0.211723
0.211797
0.212035
0.21223
0.212463
0.21271
0.213081
0.21362
0.214386
0.215392
0.216656
0.218189
0.220006
0.222115
0.22453
0.22726
0.230315
0.233708
0.237449
0.241544
0.246
0.250816
0.25599
0.261504
0.26734
0.273455
0.279811
0.28631
0.292915
0.299422
0.305845
0.311785
0.317415
0.321948
0.326026
0.327936
0.329739
0.327107
0.326336
0.315557
0.313577
0.286348
0.289992
0.224276
0.257546
0.0881503
0.227567
-0.0621732
0.228479
0.196787
0.216025
0.209005
0.213765
0.210791
0.212767
0.211482
0.21222
0.211603
0.211815
0.211579
0.211743
0.211819
0.212068
0.212273
0.212512
0.212757
0.213123
0.213657
0.214416
0.215415
0.216671
0.218195
0.220001
0.2221
0.224503
0.22722
0.230261
0.233638
0.237361
0.241436
0.24587
0.250663
0.25581
0.261297
0.267103
0.273184
0.279506
0.285966
0.292531
0.298993
0.305371
0.311259
0.316838
0.321311
0.325335
0.327172
0.32892
0.326191
0.32537
0.314448
0.312437
0.284979
0.288623
0.222501
0.255811
0.085691
0.224831
-0.0503659
0.224353
0.197169
0.215943
0.209004
0.213757
0.210795
0.212777
0.211494
0.212243
0.211623
0.211839
0.211597
0.211761
0.211838
0.212096
0.212307
0.212551
0.212795
0.213158
0.213686
0.21444
0.215432
0.21668
0.218196
0.219993
0.222081
0.224472
0.227177
0.230205
0.233567
0.237273
0.24133
0.245745
0.250516
0.25564
0.261101
0.26688
0.272931
0.279221
0.285646
0.292175
0.298595
0.304931
0.310769
0.316298
0.320711
0.324682
0.326443
0.328135
0.325302
0.324432
0.31335
0.311316
0.28359
0.28727
0.220667
0.25411
0.0831221
0.222306
-0.0387812
0.220116
0.197678
0.215847
0.209011
0.213745
0.2108
0.212785
0.211504
0.212263
0.211639
0.21186
0.211612
0.211778
0.211854
0.212118
0.212335
0.212581
0.212824
0.213185
0.213709
0.214457
0.215443
0.216684
0.218191
0.219979
0.222058
0.224439
0.227132
0.230148
0.233497
0.237188
0.241229
0.245626
0.250378
0.255481
0.26092
0.266674
0.272699
0.27896
0.285354
0.291849
0.298232
0.304529
0.310322
0.315803
0.320158
0.324075
0.325762
0.327396
0.32446
0.323537
0.312294
0.310234
0.282232
0.285951
0.218852
0.252442
0.0806009
0.219954
-0.0280405
0.215869
0.198217
0.215723
0.20903
0.213729
0.210805
0.212792
0.211512
0.21228
0.211653
0.211879
0.211624
0.211792
0.211867
0.212136
0.212356
0.212605
0.212847
0.213206
0.213727
0.21447
0.215449
0.216684
0.218184
0.219964
0.222034
0.224405
0.227088
0.230092
0.233428
0.237106
0.241132
0.245513
0.250248
0.255333
0.26075
0.266483
0.272484
0.278719
0.285084
0.291549
0.297899
0.304159
0.309909
0.315344
0.319644
0.32351
0.325123
0.326701
0.323661
0.322686
0.311283
0.309195
0.280919
0.284674
0.217082
0.250822
0.0781709
0.217773
-0.0182008
0.211684
0.198715
0.215581
0.209057
0.21371
0.210811
0.212798
0.21152
0.212295
0.211665
0.211895
0.211636
0.211804
0.211878
0.21215
0.212372
0.212623
0.212866
0.213223
0.213741
0.21448
0.215453
0.216681
0.218174
0.219946
0.222008
0.22437
0.227043
0.230037
0.233362
0.237027
0.24104
0.245406
0.250125
0.255193
0.260592
0.266305
0.272284
0.278496
0.284835
0.291272
0.29759
0.303816
0.309526
0.314918
0.319165
0.322981
0.324523
0.326046
0.322904
0.321876
0.310314
0.308198
0.279651
0.283442
0.215365
0.249255
0.0758437
0.215754
-0.00903206
0.207623
0.199123
0.215435
0.209077
0.213692
0.210818
0.212802
0.211527
0.212308
0.211676
0.211909
0.211645
0.211815
0.211887
0.212162
0.212384
0.212637
0.21288
0.213236
0.213752
0.214486
0.215454
0.216676
0.218162
0.219927
0.221981
0.224335
0.226999
0.229983
0.233297
0.236951
0.240951
0.245304
0.250009
0.255061
0.260443
0.266139
0.272097
0.278288
0.284604
0.291016
0.297305
0.303499
0.309171
0.314522
0.318719
0.322487
0.32396
0.325428
0.322186
0.321107
0.309389
0.307243
0.278431
0.282255
0.213704
0.247741
0.0736251
0.213882
-0.000379683
0.203728
0.199417
0.215285
0.209094
0.213676
0.210827
0.212805
0.211535
0.21232
0.211686
0.211922
0.211654
0.211824
0.211894
0.21217
0.212393
0.212647
0.212891
0.213247
0.21376
0.214491
0.215453
0.216669
0.218149
0.219907
0.221954
0.2243
0.226956
0.22993
0.233235
0.236878
0.240867
0.245208
0.249899
0.254937
0.260304
0.265983
0.271924
0.278096
0.28439
0.290779
0.297041
0.303205
0.308842
0.314155
0.318304
0.322025
0.323431
0.324847
0.321507
0.320376
0.308505
0.306329
0.277258
0.281111
0.212104
0.246279
0.071519
0.212141
0.00780897
0.200019
0.199592
0.215116
0.209131
0.213661
0.210839
0.212807
0.211542
0.212331
0.211694
0.211933
0.211661
0.211832
0.2119
0.212177
0.212399
0.212655
0.212899
0.213255
0.213766
0.214493
0.215451
0.216661
0.218135
0.219887
0.221927
0.224266
0.226913
0.229879
0.233174
0.236808
0.240787
0.245116
0.249795
0.254821
0.260174
0.265838
0.271763
0.277917
0.284192
0.290559
0.296797
0.302934
0.308537
0.313815
0.317918
0.321594
0.322936
0.324299
0.320865
0.319682
0.307663
0.305454
0.276133
0.280009
0.210565
0.244867
0.0695266
0.210516
0.0155626
0.196512
0.199653
0.214921
0.209199
0.213645
0.210854
0.21281
0.211551
0.212341
0.211703
0.211943
0.211667
0.211838
0.211904
0.212182
0.212403
0.21266
0.212904
0.213261
0.21377
0.214494
0.215447
0.216652
0.21812
0.219866
0.2219
0.224232
0.226872
0.22983
0.233117
0.236741
0.24071
0.245029
0.249697
0.254711
0.260052
0.265702
0.271612
0.277751
0.284008
0.290356
0.296571
0.302682
0.308255
0.313498
0.317558
0.321191
0.32247
0.323783
0.320257
0.319022
0.30686
0.304616
0.275055
0.278947
0.209088
0.243502
0.067647
0.208992
0.0229164
0.193215
0.199605
0.214693
0.2093
0.213623
0.210875
0.212812
0.21156
0.21235
0.211711
0.211952
0.211673
0.211844
0.211908
0.212185
0.212406
0.212664
0.212909
0.213266
0.213773
0.214494
0.215443
0.216643
0.218106
0.219846
0.221873
0.224199
0.226831
0.229782
0.233061
0.236677
0.240637
0.244947
0.249605
0.254608
0.259937
0.265576
0.271472
0.277597
0.283838
0.290167
0.296362
0.302449
0.307992
0.313203
0.317222
0.320814
0.322033
0.323295
0.319681
0.318394
0.306094
0.303812
0.274022
0.277922
0.207672
0.24218
0.065878
0.207557
0.0299053
0.190135
0.199459
0.214426
0.209433
0.213586
0.210902
0.212816
0.211571
0.212359
0.211719
0.211961
0.211678
0.211849
0.21191
0.212188
0.212407
0.212666
0.212912
0.213269
0.213776
0.214494
0.215438
0.216634
0.218091
0.219826
0.221847
0.224167
0.226793
0.229737
0.233008
0.236616
0.240568
0.244869
0.249518
0.254511
0.259829
0.265457
0.271342
0.277453
0.283679
0.289992
0.296167
0.302232
0.307749
0.312929
0.316908
0.32046
0.321622
0.322835
0.319135
0.317795
0.305364
0.303041
0.273032
0.276931
0.206318
0.240901
0.0642168
0.2062
0.0365572
0.187273
0.199225
0.214115
0.20958
0.213546
0.210932
0.212822
0.211584
0.212368
0.211728
0.211969
0.211683
0.211853
0.211913
0.21219
0.212408
0.212667
0.212914
0.213272
0.213778
0.214493
0.215434
0.216625
0.218077
0.219807
0.221823
0.224136
0.226756
0.229694
0.232958
0.236559
0.240503
0.244796
0.249436
0.25442
0.259729
0.265346
0.27122
0.277319
0.283532
0.28983
0.295987
0.302031
0.307522
0.312674
0.316615
0.320128
0.321235
0.322399
0.318618
0.317224
0.304667
0.302299
0.272085
0.275973
0.205023
0.23966
0.0626602
0.204911
0.0428937
0.184629
0.198916
0.21376
0.209728
0.213513
0.210959
0.212832
0.2116
0.212379
0.211738
0.211977
0.211688
0.211857
0.211915
0.212191
0.212409
0.212669
0.212916
0.213275
0.21378
0.214493
0.21543
0.216617
0.218064
0.219789
0.2218
0.224108
0.226722
0.229653
0.232911
0.236505
0.240441
0.244727
0.249358
0.254334
0.259634
0.265242
0.271106
0.277195
0.283395
0.289679
0.29582
0.301844
0.307311
0.312435
0.316341
0.319816
0.32087
0.321986
0.318126
0.316678
0.304001
0.301585
0.271178
0.275046
0.203786
0.238455
0.0612048
0.20368
0.0489334
0.182197
0.198545
0.213364
0.209867
0.213486
0.210987
0.212846
0.21162
0.21239
0.211749
0.211985
0.211694
0.211861
0.211917
0.212193
0.21241
0.21267
0.212919
0.213279
0.213782
0.214493
0.215427
0.216609
0.218053
0.219773
0.221778
0.224081
0.22669
0.229615
0.232867
0.236454
0.240384
0.244662
0.249286
0.254254
0.259546
0.265145
0.270999
0.277078
0.283267
0.289538
0.295664
0.30167
0.307115
0.312213
0.316084
0.319523
0.320526
0.321594
0.317659
0.316156
0.303366
0.300898
0.270311
0.274147
0.202606
0.237284
0.0598473
0.202498
0.0546929
0.179974
0.198124
0.21293
0.209993
0.213468
0.211018
0.212865
0.211645
0.212403
0.211762
0.211995
0.2117
0.211866
0.211919
0.212195
0.212411
0.212672
0.212922
0.213283
0.213786
0.214494
0.215425
0.216603
0.218043
0.219758
0.221759
0.224057
0.22666
0.22958
0.232826
0.236407
0.24033
0.244601
0.249219
0.254179
0.259463
0.265055
0.270901
0.27697
0.283149
0.289408
0.295519
0.301508
0.306931
0.312004
0.315844
0.319247
0.320201
0.321222
0.317215
0.315656
0.302758
0.300234
0.269481
0.273275
0.201482
0.236144
0.0585842
0.201359
0.060187
0.177952
0.197665
0.212464
0.210101
0.213455
0.21106
0.212882
0.211675
0.21242
0.211778
0.212006
0.211708
0.211871
0.211922
0.212198
0.212413
0.212676
0.212927
0.213288
0.21379
0.214497
0.215424
0.216599
0.218035
0.219746
0.221743
0.224035
0.226634
0.229548
0.232788
0.236364
0.240281
0.244546
0.249156
0.25411
0.259387
0.264971
0.270809
0.27687
0.283039
0.289286
0.295385
0.301357
0.306761
0.31181
0.315618
0.318986
0.319893
0.320868
0.316792
0.315177
0.302178
0.299594
0.268687
0.272427
0.200413
0.235033
0.0574122
0.200255
0.0654295
0.176123
0.197181
0.211971
0.210186
0.213443
0.21112
0.212895
0.211711
0.21244
0.211797
0.212018
0.211717
0.211877
0.211926
0.212201
0.212417
0.21268
0.212933
0.213295
0.213797
0.214502
0.215426
0.216598
0.218029
0.219736
0.221729
0.224017
0.22661
0.22952
0.232755
0.236325
0.240236
0.244495
0.249099
0.254046
0.259316
0.264893
0.270724
0.276777
0.282937
0.289174
0.29526
0.301217
0.306602
0.311627
0.315407
0.31874
0.319603
0.32053
0.316389
0.314716
0.301623
0.298975
0.267929
0.271603
0.199396
0.23395
0.0563283
0.199181
0.0704326
0.174479
0.196681
0.211458
0.210246
0.21343
0.211198
0.212905
0.211751
0.212465
0.211821
0.212034
0.211729
0.211885
0.211932
0.212206
0.212422
0.212687
0.212941
0.213304
0.213806
0.214509
0.21543
0.216599
0.218026
0.21973
0.221718
0.224002
0.226591
0.229495
0.232725
0.23629
0.240195
0.244448
0.249046
0.253987
0.259251
0.264822
0.270645
0.27669
0.282842
0.28907
0.295144
0.301086
0.306454
0.311457
0.315208
0.318508
0.319327
0.320209
0.316006
0.314274
0.301093
0.298375
0.267204
0.270802
0.198432
0.232892
0.0553292
0.198131
0.0752081
0.173011
0.196174
0.210932
0.21028
0.213412
0.211289
0.212916
0.211797
0.212495
0.211849
0.212053
0.211744
0.211895
0.21194
0.212213
0.212429
0.212695
0.212951
0.213316
0.213817
0.214518
0.215437
0.216603
0.218027
0.219726
0.221711
0.223991
0.226575
0.229475
0.2327
0.236259
0.24016
0.244407
0.248999
0.253934
0.259192
0.264756
0.270573
0.276611
0.282755
0.288973
0.295037
0.300965
0.306316
0.311297
0.315021
0.318288
0.319067
0.319901
0.31564
0.313848
0.300585
0.297795
0.266512
0.27002
0.197518
0.231857
0.0544122
0.1971
0.0797671
0.17171
0.19567
0.210398
0.210288
0.213387
0.211391
0.212934
0.211843
0.212531
0.211883
0.212076
0.211763
0.211908
0.21195
0.212222
0.212438
0.212707
0.212965
0.213331
0.213831
0.214531
0.215448
0.21661
0.218031
0.219727
0.221708
0.223983
0.226564
0.229459
0.23268
0.236234
0.240129
0.244371
0.248957
0.253886
0.259138
0.264696
0.270507
0.276539
0.282676
0.288885
0.294939
0.300853
0.306187
0.311148
0.314846
0.318081
0.31882
0.319608
0.315291
0.313437
0.3001
0.297232
0.265852
0.269258
0.196653
0.230845
0.0535745
0.196083
0.0841199
0.170566
0.195174
0.209864
0.210271
0.213355
0.211502
0.21296
0.211893
0.21257
0.211924
0.212104
0.211786
0.211924
0.211963
0.212233
0.212451
0.212721
0.212982
0.213349
0.213849
0.214548
0.215462
0.216621
0.218039
0.219732
0.221709
0.223981
0.226557
0.229448
0.232664
0.236214
0.240104
0.24434
0.248921
0.253845
0.259091
0.264643
0.270448
0.276473
0.282603
0.288804
0.294848
0.300749
0.306068
0.311008
0.314681
0.317884
0.318585
0.319327
0.314958
0.313041
0.299636
0.296686
0.265222
0.268515
0.195837
0.229852
0.0528134
0.195078
0.0882767
0.169569
0.194692
0.209333
0.210231
0.213314
0.211619
0.212994
0.211948
0.212613
0.211973
0.212138
0.211815
0.211945
0.21198
0.212248
0.212466
0.212739
0.213002
0.213371
0.213871
0.214569
0.215481
0.216637
0.218052
0.219741
0.221715
0.223983
0.226555
0.229443
0.232654
0.236199
0.240084
0.244315
0.248891
0.253809
0.259049
0.264596
0.270395
0.276414
0.282537
0.288729
0.294764
0.300653
0.305957
0.310877
0.314527
0.317697
0.318363
0.319058
0.31464
0.312659
0.299193
0.296156
0.264622
0.267789
0.195068
0.228879
0.0521265
0.19408
0.0922471
0.16871
0.19423
0.208812
0.210172
0.213265
0.21174
0.213036
0.212014
0.212658
0.212028
0.212179
0.21185
0.211971
0.212001
0.212267
0.212486
0.212761
0.213027
0.213397
0.213898
0.214594
0.215504
0.216658
0.21807
0.219756
0.221726
0.223991
0.226559
0.229442
0.23265
0.23619
0.24007
0.244296
0.248866
0.253779
0.259014
0.264555
0.270348
0.276361
0.282478
0.288662
0.294688
0.300565
0.305855
0.310755
0.314381
0.317521
0.318152
0.318801
0.314336
0.31229
0.298768
0.29564
0.264051
0.26708
0.194346
0.227923
0.0515114
0.193086
0.0960403
0.167981
0.19379
0.208304
0.210096
0.213209
0.211863
0.213086
0.212091
0.212706
0.212089
0.212227
0.211892
0.212003
0.212028
0.21229
0.212509
0.212787
0.213056
0.213428
0.21393
0.214625
0.215533
0.216684
0.218093
0.219776
0.221743
0.224004
0.226569
0.229448
0.232651
0.236187
0.240062
0.244283
0.248848
0.253755
0.258985
0.26452
0.270308
0.276315
0.282425
0.288602
0.29462
0.300484
0.30576
0.310641
0.314245
0.317354
0.317952
0.318554
0.314046
0.311934
0.298363
0.295139
0.263508
0.266387
0.193669
0.226984
0.0509659
0.192093
0.0996651
0.167371
0.193376
0.207813
0.210007
0.213146
0.211985
0.213143
0.21218
0.212758
0.212156
0.212283
0.211943
0.212042
0.212061
0.212318
0.212538
0.212818
0.21309
0.213465
0.213967
0.214661
0.215567
0.216717
0.218123
0.219803
0.221767
0.224024
0.226586
0.229461
0.23266
0.236191
0.240061
0.244277
0.248837
0.253739
0.258963
0.264493
0.270275
0.276276
0.28238
0.288549
0.294558
0.30041
0.305673
0.310534
0.314118
0.317195
0.317762
0.318317
0.313769
0.311589
0.297976
0.294651
0.262992
0.265708
0.193036
0.22606
0.0504879
0.191099
0.10313
0.166873
0.192989
0.207343
0.209909
0.21308
0.212107
0.213207
0.212282
0.212818
0.212228
0.212345
0.212002
0.212088
0.212101
0.212353
0.212572
0.212854
0.21313
0.213507
0.21401
0.214704
0.215608
0.216755
0.218159
0.219836
0.221797
0.224051
0.226609
0.22948
0.232675
0.236202
0.240068
0.244278
0.248833
0.253729
0.258947
0.264472
0.270248
0.276243
0.282341
0.288503
0.294503
0.300344
0.305594
0.310436
0.313999
0.317045
0.317581
0.318089
0.313504
0.311255
0.297606
0.294177
0.262504
0.265044
0.192447
0.22515
0.0500755
0.190102
0.106444
0.166478
0.192631
0.206894
0.209805
0.213012
0.212226
0.213277
0.212397
0.212886
0.212308
0.212414
0.21207
0.212144
0.21215
0.212394
0.212612
0.212895
0.213175
0.213555
0.214059
0.214753
0.215656
0.216801
0.218202
0.219877
0.221834
0.224085
0.226639
0.229507
0.232698
0.23622
0.240081
0.244287
0.248836
0.253726
0.258939
0.264458
0.270229
0.276217
0.282309
0.288463
0.294455
0.300284
0.305522
0.310345
0.313887
0.316902
0.31741
0.317871
0.313251
0.310932
0.297253
0.293715
0.262041
0.264395
0.191901
0.224254
0.0497268
0.189099
0.109613
0.166178
0.192302
0.20647
0.209698
0.212944
0.212344
0.213353
0.212523
0.212964
0.212395
0.212489
0.212146
0.212208
0.212207
0.212443
0.212659
0.212943
0.213226
0.213609
0.214115
0.214809
0.215711
0.216854
0.218253
0.219925
0.221879
0.224127
0.226678
0.229542
0.232728
0.236246
0.240102
0.244303
0.248847
0.253732
0.258939
0.264452
0.270217
0.276199
0.282285
0.288431
0.294415
0.300232
0.305457
0.31026
0.313784
0.316768
0.317248
0.317661
0.31301
0.310619
0.296916
0.293265
0.261604
0.263758
0.191397
0.22337
0.04944
0.188089
0.112647
0.165967
0.192004
0.206072
0.209591
0.212879
0.21246
0.213434
0.21266
0.213054
0.212492
0.212572
0.212232
0.212282
0.212273
0.212501
0.212714
0.212998
0.213284
0.21367
0.214178
0.214873
0.215774
0.216915
0.218312
0.219981
0.221932
0.224177
0.226724
0.229585
0.232768
0.236281
0.240132
0.244327
0.248866
0.253745
0.258946
0.264453
0.270212
0.276188
0.282267
0.288405
0.294381
0.300186
0.305399
0.310183
0.313687
0.31664
0.317094
0.317459
0.312779
0.310315
0.296595
0.292826
0.261192
0.263135
0.190934
0.222499
0.0492135
0.18707
0.11555
0.165836
0.191735
0.2057
0.209488
0.212819
0.212576
0.21352
0.212808
0.213156
0.212601
0.212662
0.212326
0.212366
0.21235
0.212568
0.212776
0.21306
0.21335
0.213739
0.214249
0.214944
0.215845
0.216985
0.218379
0.220046
0.221994
0.224236
0.22678
0.229637
0.232815
0.236324
0.240171
0.24436
0.248893
0.253766
0.258961
0.264462
0.270215
0.276184
0.282256
0.288386
0.294354
0.300147
0.305347
0.310113
0.313598
0.31652
0.316949
0.317266
0.31256
0.310021
0.29629
0.292399
0.260805
0.262524
0.190511
0.221638
0.0490457
0.186041
0.118331
0.165779
0.191497
0.205355
0.20939
0.212765
0.212694
0.213614
0.212966
0.213271
0.212722
0.212762
0.212429
0.212459
0.212437
0.212645
0.212848
0.21313
0.213422
0.213815
0.214328
0.215024
0.215925
0.217064
0.218456
0.22012
0.222065
0.224304
0.226845
0.229698
0.232873
0.236377
0.240218
0.244403
0.248929
0.253796
0.258985
0.264479
0.270226
0.276188
0.282254
0.288375
0.294334
0.300115
0.305303
0.310049
0.313516
0.316406
0.316811
0.317079
0.31235
0.309736
0.296
0.291983
0.260442
0.261925
0.190129
0.220788
0.0489351
0.185
0.120996
0.165791
0.191288
0.205037
0.209298
0.21272
0.212814
0.213714
0.213132
0.213399
0.212858
0.212873
0.212542
0.212563
0.212535
0.212732
0.21293
0.213209
0.213504
0.213899
0.214415
0.215113
0.216014
0.217152
0.218542
0.220204
0.222146
0.224382
0.22692
0.22977
0.23294
0.23644
0.240276
0.244454
0.248975
0.253836
0.259018
0.264505
0.270245
0.2762
0.282258
0.288371
0.294321
0.30009
0.305265
0.309991
0.31344
0.316299
0.316681
0.3169
0.31215
0.30946
0.295725
0.291577
0.260102
0.261339
0.189786
0.219948
0.0488803
0.183947
0.123549
0.165864
0.191108
0.204746
0.209216
0.212684
0.212938
0.213824
0.213307
0.21354
0.213009
0.212996
0.212666
0.212676
0.212644
0.21283
0.213022
0.213298
0.213594
0.213992
0.214511
0.215211
0.216113
0.21725
0.218639
0.220298
0.222238
0.224471
0.227005
0.229851
0.233017
0.236512
0.240343
0.244516
0.24903
0.253885
0.25906
0.26454
0.270273
0.276221
0.282271
0.288375
0.294315
0.300071
0.305233
0.30994
0.313371
0.316199
0.316558
0.316729
0.31196
0.309192
0.295463
0.291181
0.259786
0.260764
0.189481
0.219117
0.0488801
0.18288
0.125998
0.165995
0.190956
0.204482
0.209143
0.212659
0.213066
0.213943
0.213492
0.213694
0.213176
0.213134
0.212802
0.212801
0.212764
0.212939
0.213125
0.213396
0.213693
0.214094
0.214617
0.215318
0.216221
0.217358
0.218746
0.220403
0.22234
0.22457
0.227102
0.229944
0.233106
0.236596
0.240421
0.244588
0.249096
0.253944
0.259112
0.264585
0.27031
0.276249
0.282292
0.288386
0.294317
0.300059
0.305209
0.309895
0.313308
0.316104
0.316443
0.316563
0.31178
0.308932
0.295216
0.290796
0.259493
0.2602
0.189214
0.218295
0.0489332
0.181798
0.128347
0.166178
0.190832
0.204244
0.209082
0.212646
0.213201
0.214074
0.213686
0.213861
0.213359
0.213287
0.212953
0.212938
0.212896
0.213061
0.213239
0.213506
0.213802
0.214205
0.214731
0.215435
0.21634
0.217477
0.218864
0.220519
0.222454
0.224681
0.227209
0.230048
0.233206
0.236691
0.240511
0.244672
0.249173
0.254013
0.259174
0.264639
0.270356
0.276287
0.282321
0.288405
0.294326
0.300055
0.305191
0.309857
0.313252
0.316016
0.316334
0.316405
0.311608
0.308681
0.294983
0.290421
0.259223
0.259648
0.188985
0.217482
0.0490383
0.180702
0.130601
0.166408
0.190736
0.204032
0.209032
0.212644
0.213343
0.214217
0.21389
0.214041
0.213557
0.213458
0.213119
0.213088
0.213041
0.213195
0.213366
0.213627
0.213923
0.214327
0.214856
0.215563
0.216469
0.217607
0.218993
0.220647
0.222579
0.224804
0.227329
0.230164
0.233317
0.236798
0.240612
0.244766
0.249261
0.254093
0.259247
0.264704
0.270412
0.276334
0.282359
0.288433
0.294343
0.300057
0.30518
0.309824
0.313202
0.315933
0.316232
0.316253
0.311445
0.308437
0.294763
0.290056
0.258974
0.259107
0.188793
0.216677
0.0491945
0.179589
0.132765
0.166681
0.190665
0.203846
0.208994
0.212655
0.213492
0.214373
0.214107
0.214236
0.213771
0.213646
0.213301
0.213253
0.213199
0.213342
0.213506
0.21376
0.214055
0.21446
0.214992
0.215701
0.21661
0.217748
0.219134
0.220786
0.222717
0.224939
0.227461
0.230293
0.233441
0.236917
0.240725
0.244873
0.24936
0.254185
0.259331
0.264779
0.270479
0.276391
0.282406
0.288468
0.294367
0.300067
0.305175
0.309798
0.313158
0.315857
0.316137
0.316107
0.311291
0.308201
0.294557
0.2897
0.258748
0.258578
0.188638
0.21588
0.0494006
0.17846
0.134842
0.166993
0.19062
0.203684
0.208968
0.212679
0.213649
0.214542
0.214335
0.214445
0.214001
0.213853
0.213503
0.213434
0.213373
0.213503
0.213659
0.213907
0.214199
0.214605
0.215139
0.215851
0.216762
0.217902
0.219288
0.220939
0.222868
0.225087
0.227607
0.230434
0.233579
0.237049
0.240851
0.244992
0.249472
0.254289
0.259426
0.264865
0.270555
0.276458
0.282463
0.288513
0.2944
0.300084
0.305178
0.309779
0.313121
0.315786
0.316048
0.315967
0.311145
0.307972
0.294363
0.289354
0.258544
0.258059
0.188519
0.215091
0.0496558
0.177315
0.136838
0.167339
0.1906
0.203546
0.208956
0.212716
0.213814
0.214725
0.214577
0.21467
0.214247
0.214078
0.213724
0.213634
0.213562
0.213679
0.213827
0.214067
0.214356
0.214762
0.215298
0.216013
0.216926
0.218067
0.219454
0.221104
0.223032
0.225249
0.227765
0.230589
0.233729
0.237194
0.24099
0.245125
0.249597
0.254405
0.259533
0.264962
0.270643
0.276535
0.282529
0.288566
0.294441
0.300108
0.305187
0.309765
0.313089
0.315721
0.315965
0.315833
0.311007
0.307751
0.294182
0.289018
0.25836
0.257551
0.188435
0.214309
0.049959
0.176153
0.138756
0.167717
0.190603
0.203432
0.208956
0.212765
0.213988
0.214921
0.214832
0.214913
0.214509
0.214322
0.213965
0.213853
0.21377
0.213871
0.21401
0.214242
0.214528
0.214932
0.21547
0.216187
0.217103
0.218246
0.219633
0.221283
0.223209
0.225425
0.227938
0.230758
0.233894
0.237353
0.241143
0.245271
0.249735
0.254534
0.259653
0.265072
0.270742
0.276622
0.282605
0.288629
0.29449
0.300141
0.305204
0.309758
0.313064
0.315661
0.315889
0.315706
0.310878
0.307538
0.294014
0.288691
0.258199
0.257055
0.188386
0.213534
0.0503094
0.174973
0.140599
0.168123
0.19063
0.203341
0.208969
0.212827
0.21417
0.21513
0.2151
0.215173
0.214788
0.214586
0.214226
0.214093
0.213996
0.214081
0.21421
0.214433
0.214715
0.215117
0.215656
0.216375
0.217293
0.218438
0.219826
0.221476
0.223401
0.225615
0.228125
0.230942
0.234073
0.237527
0.241311
0.245431
0.249887
0.254677
0.259786
0.265194
0.270853
0.276721
0.282691
0.288701
0.294548
0.300181
0.305227
0.309757
0.313044
0.315607
0.315819
0.315584
0.310756
0.307331
0.293859
0.288374
0.258058
0.256569
0.188372
0.212767
0.0507062
0.173776
0.142371
0.168554
0.190679
0.203273
0.208996
0.212902
0.214361
0.215352
0.215381
0.215451
0.215085
0.214868
0.214509
0.214355
0.214244
0.214311
0.214428
0.214641
0.214918
0.215317
0.215857
0.216577
0.217498
0.218644
0.220033
0.221683
0.223608
0.22582
0.228328
0.231141
0.234267
0.237716
0.241493
0.245605
0.250053
0.254834
0.259932
0.265329
0.270977
0.276832
0.282789
0.288783
0.294615
0.300229
0.305258
0.309763
0.313031
0.315558
0.315754
0.315468
0.310643
0.307132
0.293716
0.288066
0.257938
0.256094
0.188393
0.212006
0.0511487
0.172562
0.144075
0.169007
0.19075
0.203226
0.209035
0.212989
0.21456
0.215587
0.215676
0.215748
0.215401
0.215171
0.214812
0.21464
0.214515
0.214561
0.214666
0.214868
0.215138
0.215534
0.216073
0.216794
0.217717
0.218865
0.220256
0.221905
0.22383
0.22604
0.228546
0.231355
0.234477
0.23792
0.241691
0.245795
0.250234
0.255005
0.260092
0.265478
0.271113
0.276954
0.282897
0.288875
0.294691
0.300285
0.305296
0.309775
0.313024
0.315516
0.315696
0.315357
0.310537
0.30694
0.293585
0.287768
0.257839
0.255631
0.188448
0.211253
0.0516361
0.17133
0.145714
0.16948
0.190842
0.203201
0.209088
0.213089
0.214768
0.215833
0.215982
0.216061
0.215737
0.215495
0.215137
0.214948
0.214808
0.214835
0.214925
0.215114
0.215377
0.215769
0.216306
0.217028
0.217952
0.219102
0.220493
0.222144
0.224067
0.226276
0.22878
0.231586
0.234704
0.238141
0.241904
0.246001
0.25043
0.255191
0.260267
0.26564
0.271262
0.277089
0.283017
0.288978
0.294777
0.30035
0.305342
0.309794
0.313022
0.315478
0.315644
0.315253
0.310439
0.306756
0.293466
0.28748
0.25776
0.255178
0.188536
0.210507
0.0521678
0.170081
0.147291
0.16997
0.190955
0.203197
0.209154
0.2132
0.214984
0.216091
0.2163
0.216392
0.216091
0.215841
0.215484
0.215279
0.215126
0.215132
0.215206
0.215382
0.215637
0.216022
0.216557
0.217278
0.218203
0.219355
0.220748
0.222398
0.224322
0.22653
0.22903
0.231833
0.234947
0.238378
0.242135
0.246223
0.250643
0.255393
0.260458
0.265818
0.271425
0.277237
0.283149
0.289092
0.294873
0.300424
0.305395
0.30982
0.313027
0.315446
0.315597
0.315154
0.310348
0.306579
0.29336
0.287201
0.257702
0.254737
0.188658
0.209768
0.0527432
0.168815
0.148809
0.170474
0.191086
0.203213
0.209233
0.213324
0.215209
0.216359
0.216629
0.216738
0.216463
0.216208
0.215853
0.215634
0.21547
0.215454
0.215512
0.215673
0.215918
0.216297
0.216828
0.217548
0.218473
0.219626
0.221019
0.22267
0.224593
0.2268
0.229299
0.232098
0.235207
0.238633
0.242382
0.246462
0.250872
0.255611
0.260663
0.26601
0.271603
0.277398
0.283293
0.289217
0.294979
0.300506
0.305457
0.309852
0.313039
0.31542
0.315557
0.315061
0.310265
0.306409
0.293265
0.286933
0.257664
0.254308
0.188813
0.209036
0.0533616
0.167531
0.150269
0.170992
0.191236
0.20325
0.209325
0.21346
0.215442
0.216638
0.216968
0.217098
0.216852
0.216597
0.216245
0.216013
0.215838
0.215803
0.215844
0.215989
0.216223
0.216594
0.21712
0.217837
0.218762
0.219915
0.221309
0.22296
0.224883
0.227088
0.229585
0.232381
0.235485
0.238905
0.242647
0.246718
0.251118
0.255846
0.260885
0.266217
0.271795
0.277573
0.28345
0.289353
0.295095
0.300598
0.305526
0.309892
0.313056
0.3154
0.315522
0.314973
0.31019
0.306247
0.293183
0.286674
0.257646
0.25389
0.189001
0.208312
0.0540227
0.166231
0.151675
0.17152
0.191404
0.203305
0.209431
0.213608
0.215684
0.216926
0.217316
0.217472
0.217258
0.217007
0.21666
0.216417
0.216231
0.216179
0.216203
0.216331
0.216553
0.216915
0.217435
0.218148
0.219071
0.220224
0.221618
0.223269
0.225192
0.227396
0.22989
0.232683
0.235782
0.239196
0.242931
0.246993
0.251383
0.256098
0.261124
0.266441
0.272003
0.277762
0.28362
0.289502
0.295222
0.300699
0.305604
0.309938
0.31308
0.315385
0.315493
0.314892
0.310122
0.306092
0.293113
0.286426
0.257648
0.253484
0.189221
0.207595
0.0547259
0.164914
0.153028
0.172058
0.191589
0.203379
0.20955
0.213767
0.215933
0.217225
0.217674
0.217859
0.217678
0.217437
0.217097
0.216845
0.21665
0.216581
0.216589
0.216701
0.21691
0.217261
0.217774
0.218482
0.219403
0.220554
0.221948
0.223598
0.22552
0.227723
0.230215
0.233004
0.236099
0.239506
0.243234
0.247286
0.251665
0.256368
0.26138
0.266682
0.272226
0.277966
0.283804
0.289663
0.29536
0.30081
0.30569
0.309992
0.31311
0.315376
0.31547
0.314816
0.310062
0.305945
0.293054
0.286188
0.25767
0.25309
0.189474
0.206886
0.0554707
0.163581
0.154331
0.172603
0.191791
0.203471
0.209682
0.213939
0.216191
0.217532
0.218041
0.218256
0.218111
0.217884
0.217556
0.217298
0.217095
0.217011
0.217004
0.2171
0.217296
0.217635
0.21814
0.218841
0.219758
0.220907
0.222299
0.223949
0.225869
0.22807
0.23056
0.233346
0.236435
0.239836
0.243556
0.247599
0.251967
0.256657
0.261655
0.266939
0.272465
0.278186
0.284002
0.289837
0.295509
0.300931
0.305784
0.310054
0.313147
0.315373
0.315453
0.314746
0.31001
0.305806
0.293008
0.285961
0.257713
0.252708
0.18976
0.206184
0.0562568
0.162232
0.155586
0.173154
0.192008
0.203581
0.209827
0.214122
0.216458
0.217849
0.218416
0.218665
0.218557
0.218348
0.218035
0.217775
0.217566
0.217468
0.217448
0.217528
0.217711
0.218037
0.218533
0.219227
0.220138
0.221284
0.222674
0.224322
0.226241
0.22844
0.230926
0.233708
0.236793
0.240187
0.243899
0.247932
0.252288
0.256965
0.261947
0.267215
0.272722
0.278421
0.284215
0.290024
0.29567
0.301062
0.305888
0.310122
0.313191
0.315376
0.315442
0.314682
0.309965
0.305675
0.292974
0.285745
0.257775
0.25234
0.190077
0.205491
0.0570838
0.160868
0.156794
0.17371
0.192241
0.203708
0.209984
0.214317
0.216733
0.218175
0.218799
0.219083
0.219013
0.218826
0.218532
0.218274
0.218062
0.217952
0.217921
0.217987
0.218156
0.21847
0.218955
0.219641
0.220546
0.221687
0.223074
0.22472
0.226636
0.228832