/*--------------------------------*- C++ -*----------------------------------*\
| =========                 |                                                 |
| \\      /  F ield         | OpenFOAM: The Open Source CFD Toolbox           |
|  \\    /   O peration     | Version:  2.4.0                                 |
|   \\  /    A nd           | Web:      www.OpenFOAM.org                      |
|    \\/     M anipulation  |                                                 |
\*---------------------------------------------------------------------------*/
FoamFile
{
    version     2.0;
    format      ascii;
    class       volScalarField;
    location    "0.89";
    object      epsilon;
}
// * * * * * * * * * * * * * * * * * * * * * * * * * * * * * * * * * * * * * //

dimensions      [0 2 -3 0 0 0 0];

internalField   nonuniform List<scalar> 
6000
(
0.0973386
0.138493
0.180973
0.220958
0.255594
0.283296
0.303639
0.317075
0.324589
0.327384
0.326657
0.323466
0.318686
0.312994
0.306891
0.300733
0.294761
0.289125
0.283911
0.279159
0.274874
0.27104
0.267624
0.264586
0.261878
0.259454
0.257265
0.255269
0.253423
0.251691
0.250042
0.248449
0.246891
0.245352
0.243817
0.242277
0.240725
0.239153
0.237555
0.235922
0.234243
0.232503
0.23068
0.228748
0.226669
0.224397
0.221871
0.219013
0.215725
0.211885
0.207336
0.201887
0.195303
0.187294
0.17755
0.165664
0.151556
0.134486
0.117305
0.0952111
0.0250664
0.0270522
0.0301034
0.0338734
0.0379301
0.0418889
0.045528
0.0487672
0.0516128
0.0541207
0.0563698
0.0584422
0.0604114
0.0623357
0.0642568
0.0661996
0.0681746
0.07018
0.0722036
0.0742261
0.0762232
0.0781678
0.0800326
0.0817915
0.0834214
0.0849038
0.0862249
0.0873766
0.0883564
0.0891668
0.0898152
0.0903124
0.0906727
0.0909119
0.0910469
0.091095
0.0910732
0.0909976
0.0908834
0.0907453
0.0905969
0.0904517
0.0903238
0.0902277
0.09018
0.0902003
0.0903119
0.0905447
0.090937
0.0915392
0.0924192
0.093671
0.0954267
0.09788
0.101315
0.106187
0.113161
0.123409
0.137928
0.171731
0.0219104
0.0195999
0.0179097
0.0167133
0.0158962
0.0153459
0.0149704
0.0147045
0.0145063
0.0143524
0.0142332
0.0141487
0.0141044
0.0141082
0.0141685
0.0142934
0.0144892
0.0147613
0.0151132
0.0155467
0.0160624
0.0166592
0.0173346
0.0180847
0.0189045
0.0197875
0.0207262
0.0217122
0.0227364
0.0237889
0.0248598
0.0259391
0.0270168
0.0280839
0.0291319
0.0301535
0.0311424
0.0320939
0.0330047
0.0338732
0.0346992
0.035484
0.036231
0.0369452
0.0376334
0.0383052
0.0389728
0.0396526
0.0403662
0.0411428
0.0420233
0.0430663
0.0443592
0.0460377
0.0483184
0.0515715
0.0564239
0.0641016
0.0765564
0.104026
0.0217582
0.0190981
0.0169124
0.0151094
0.0136187
0.0123813
0.011348
0.0104783
0.00973956
0.00910585
0.00855707
0.00807804
0.00765753
0.0072874
0.00696189
0.00667699
0.00642997
0.00621902
0.006043
0.00590125
0.00579342
0.00571941
0.00567924
0.00567305
0.00570102
0.00576335
0.00586021
0.00599173
0.00615797
0.0063589
0.00659434
0.006864
0.0071674
0.0075039
0.00787265
0.00827265
0.00870271
0.00916157
0.00964788
0.0101603
0.0106977
0.0112592
0.0118443
0.0124532
0.0130873
0.0137493
0.0144439
0.0151784
0.0159641
0.0168173
0.017762
0.0188333
0.0200832
0.0215916
0.0234849
0.0259753
0.0294387
0.0346129
0.0429951
0.0599886
0.0217509
0.019066
0.0168344
0.0149634
0.0133833
0.0120402
0.0108917
0.00990394
0.00904968
0.00830685
0.00765745
0.00708677
0.0065828
0.00613572
0.00573748
0.00538152
0.00506244
0.00477585
0.00451812
0.00428629
0.0040779
0.00389097
0.00372384
0.00357518
0.0034439
0.00332912
0.00323016
0.00314647
0.00307767
0.00302348
0.00298373
0.00295837
0.00294742
0.00295098
0.00296927
0.00300256
0.00305121
0.00311571
0.00319665
0.00329479
0.0034111
0.0035468
0.00370352
0.00388337
0.00408916
0.0043247
0.00459513
0.00490751
0.0052716
0.00570104
0.0062151
0.00684138
0.00762027
0.00861203
0.00991018
0.0116629
0.0141283
0.0177563
0.0235521
0.034167
0.0217506
0.0190635
0.0168276
0.0149497
0.0133592
0.0120023
0.0108367
0.00982909
0.0089531
0.00818746
0.00751493
0.00692144
0.0063954
0.00592722
0.00550894
0.00513388
0.00479645
0.00449193
0.00421632
0.00396625
0.00373883
0.00353159
0.00334244
0.00316956
0.0030114
0.00286662
0.00273409
0.0026128
0.00250192
0.00240071
0.00230855
0.00222491
0.00214936
0.00208154
0.00202115
0.00196799
0.00192192
0.00188287
0.00185086
0.00182601
0.00180857
0.00179894
0.00179772
0.00180578
0.00182436
0.00185525
0.00190095
0.00196504
0.00205266
0.00217128
0.00233193
0.00255113
0.00285416
0.00328059
0.0038945
0.00480086
0.00618776
0.00837094
0.0120745
0.0186996
0.0217505
0.019063
0.0168264
0.0149476
0.0133559
0.0119972
0.0108293
0.00981882
0.00893941
0.00816985
0.00749299
0.00689486
0.00636398
0.00589085
0.00546756
0.00508752
0.00474514
0.00443572
0.00415525
0.00390031
0.00366798
0.00345572
0.00326137
0.00308303
0.00291905
0.00276802
0.00262867
0.00249991
0.00238079
0.00227045
0.00216816
0.00207325
0.00198516
0.00190337
0.00182744
0.00175699
0.00169167
0.0016312
0.00157534
0.00152391
0.00147678
0.00143388
0.00139523
0.00136093
0.00133124
0.00130659
0.00128772
0.00127575
0.00127245
0.00128057
0.00130445
0.00135107
0.00143192
0.00156632
0.00178813
0.00215737
0.00278938
0.003891
0.00595406
0.00982292
0.0217505
0.0190628
0.0168258
0.0149465
0.0133545
0.0119955
0.0108272
0.00981625
0.00893631
0.00816614
0.00748859
0.00688968
0.00635793
0.00588386
0.00545958
0.00507848
0.00473501
0.00442446
0.00414284
0.00388672
0.00365317
0.00343967
0.00324403
0.00306435
0.00289898
0.00274646
0.00260554
0.00247509
0.00235412
0.00224178
0.00213729
0.00203996
0.00194919
0.00186443
0.00178519
0.00171105
0.00164162
0.00157656
0.00151556
0.00145834
0.00140468
0.00135438
0.00130728
0.00126325
0.00122223
0.00118424
0.00114936
0.00111785
0.00109017
0.00106714
0.0010502
0.00104179
0.00104628
0.00107155
0.00113248
0.00125785
0.00150759
0.00200068
0.00303371
0.00513383
0.0217505
0.0190626
0.0168253
0.0149458
0.0133535
0.0119943
0.0108258
0.00981472
0.00893466
0.00816437
0.0074867
0.00688766
0.00635578
0.00588157
0.00545713
0.00507586
0.00473221
0.00442146
0.00413963
0.00388329
0.0036495
0.00343575
0.00323985
0.00305989
0.00289422
0.00274139
0.00260012
0.00246931
0.00234795
0.00223518
0.00213022
0.00203238
0.00194103
0.00185563
0.00177569
0.00170076
0.00163044
0.00156438
0.00150224
0.00144375
0.00138863
0.00133666
0.00128763
0.00124134
0.00119766
0.00115646
0.00111766
0.00108124
0.00104725
0.00101589
0.000987569
0.000963089
0.000943995
0.000933272
0.000936927
0.000967451
0.00105277
0.00125472
0.00173533
0.00281851
0.0217505
0.0190624
0.0168249
0.0149451
0.0133527
0.0119933
0.0108246
0.00981349
0.00893335
0.008163
0.00748529
0.00688622
0.00635432
0.0058801
0.00545565
0.00507437
0.00473071
0.00441996
0.00413811
0.00388175
0.00364795
0.00343418
0.00323825
0.00305826
0.00289255
0.00273968
0.00259837
0.0024675
0.00234609
0.00223325
0.00212821
0.00203028
0.00193883
0.00185332
0.00177325
0.00169817
0.00162768
0.00156142
0.00149906
0.00144031
0.00138489
0.00133257
0.00128312
0.00123634
0.00119206
0.00115012
0.0011104
0.00107279
0.00103723
0.00100372
0.00097236
0.000943395
0.000917383
0.000895468
0.000880047
0.000876376
0.000896715
0.000971244
0.00118188
0.0017206
0.0217504
0.0190623
0.0168246
0.0149446
0.013352
0.0119925
0.0108237
0.00981245
0.00893224
0.00816185
0.0074841
0.00688502
0.00635311
0.00587889
0.00545445
0.00507319
0.00472954
0.0044188
0.00413698
0.00388064
0.00364686
0.00343311
0.00323719
0.00305722
0.00289153
0.00273867
0.00259738
0.00246652
0.00234511
0.00223228
0.00212725
0.00202932
0.00193787
0.00185236
0.00177228
0.00169719
0.00162669
0.00156041
0.00149802
0.00143923
0.00138377
0.00133139
0.00128187
0.001235
0.00119061
0.00114853
0.00110862
0.00107075
0.00103485
0.00100083
0.000968719
0.000938587
0.000910667
0.000885462
0.000864017
0.000848642
0.000844662
0.000866393
0.000953019
0.00121307
0.0217504
0.0190622
0.0168243
0.0149442
0.0133514
0.0119917
0.0108229
0.00981155
0.00893128
0.00816085
0.00748307
0.00688398
0.00635207
0.00587784
0.00545341
0.00507217
0.00472854
0.00441782
0.00413601
0.0038797
0.00364594
0.00343221
0.00323632
0.00305637
0.00289071
0.00273787
0.00259659
0.00246576
0.00234437
0.00223156
0.00212655
0.00202863
0.0019372
0.00185171
0.00177164
0.00169656
0.00162607
0.0015598
0.00149743
0.00143865
0.00138319
0.00133082
0.0012813
0.00123443
0.00119004
0.00114795
0.00110802
0.00107012
0.00103416
0.00100006
0.000967793
0.0009374
0.00090901
0.000882912
0.000859676
0.000840478
0.000827777
0.000828441
0.000860574
0.000982949
0.0217504
0.0190622
0.0168241
0.0149439
0.0133509
0.0119911
0.0108222
0.00981078
0.00893045
0.00815998
0.00748218
0.00688307
0.00635115
0.00587693
0.00545251
0.00507127
0.00472766
0.00441696
0.00413517
0.00387888
0.00364514
0.00343144
0.00323557
0.00305564
0.00288999
0.00273718
0.00259592
0.00246511
0.00234374
0.00223095
0.00212595
0.00202805
0.00193664
0.00185116
0.00177111
0.00169605
0.00162557
0.00155932
0.00149696
0.00143819
0.00138275
0.00133039
0.00128089
0.00123404
0.00118966
0.00114758
0.00110767
0.00106979
0.00103384
0.000999746
0.00096748
0.000937059
0.000908587
0.000882285
0.00085856
0.000838166
0.000822435
0.000814884
0.000823769
0.000880011
0.0217504
0.0190621
0.0168239
0.0149436
0.0133505
0.0119906
0.0108216
0.00981011
0.00892974
0.00815922
0.0074814
0.00688228
0.00635035
0.00587614
0.00545172
0.00507049
0.00472689
0.00441621
0.00413444
0.00387816
0.00364444
0.00343076
0.00323491
0.003055
0.00288937
0.00273657
0.00259534
0.00246454
0.00234319
0.00223041
0.00212543
0.00202755
0.00193615
0.00185069
0.00177065
0.00169561
0.00162514
0.0015589
0.00149656
0.00143781
0.00138238
0.00133003
0.00128055
0.00123371
0.00118935
0.0011473
0.0011074
0.00106954
0.00103362
0.000999555
0.000967316
0.000936922
0.000908465
0.000882144
0.000858309
0.000837555
0.00082078
0.000810024
0.000809111
0.000834156
0.0217504
0.0190621
0.0168238
0.0149433
0.0133502
0.0119902
0.0108211
0.00980954
0.00892911
0.00815857
0.00748073
0.00688159
0.00634966
0.00587544
0.00545103
0.00506981
0.00472622
0.00441555
0.00413379
0.00387753
0.00364383
0.00343016
0.00323433
0.00305443
0.00288882
0.00273604
0.00259482
0.00246404
0.0023427
0.00222994
0.00212497
0.00202711
0.00193573
0.00185027
0.00177025
0.00169522
0.00162477
0.00155854
0.00149621
0.00143747
0.00138206
0.00132972
0.00128025
0.00123343
0.00118909
0.00114705
0.00110718
0.00106935
0.00103345
0.000999414
0.000967211
0.000936854
0.000908433
0.00088214
0.0008583
0.000837442
0.000820291
0.000808227
0.000803129
0.000813493
0.0217504
0.019062
0.0168237
0.0149431
0.0133499
0.0119898
0.0108206
0.00980904
0.00892858
0.008158
0.00748014
0.00688099
0.00634905
0.00587483
0.00545042
0.00506921
0.00472563
0.00441497
0.00413323
0.00387698
0.0036433
0.00342964
0.00323382
0.00305394
0.00288835
0.00273558
0.00259437
0.0024636
0.00234228
0.00222953
0.00212458
0.00202672
0.00193535
0.00184991
0.0017699
0.00169488
0.00162444
0.00155823
0.0014959
0.00143718
0.00138178
0.00132946
0.00128
0.0012332
0.00118887
0.00114685
0.001107
0.00106919
0.00103332
0.000999314
0.000967145
0.000936827
0.000908448
0.000882193
0.000858377
0.000837493
0.000820187
0.000807524
0.000800538
0.000803848
0.0217504
0.019062
0.0168236
0.0149429
0.0133496
0.0119895
0.0108203
0.00980861
0.00892811
0.00815751
0.00747963
0.00688046
0.00634852
0.00587431
0.0054499
0.0050687
0.00472512
0.00441447
0.00413274
0.00387651
0.00364283
0.00342919
0.00323338
0.00305351
0.00288793
0.00273518
0.00259398
0.00246322
0.00234191
0.00222918
0.00212423
0.00202639
0.00193503
0.0018496
0.0017696
0.00169459
0.00162416
0.00155795
0.00149564
0.00143693
0.00138154
0.00132923
0.00127979
0.001233
0.00118869
0.00114669
0.00110685
0.00106907
0.00103322
0.00099925
0.000967116
0.000936838
0.000908501
0.000882288
0.000858505
0.00083762
0.000820237
0.000807246
0.00079931
0.000799051
0.0217504
0.019062
0.0168235
0.0149428
0.0133494
0.0119892
0.0108199
0.00980825
0.00892772
0.00815709
0.00747919
0.00688002
0.00634807
0.00587385
0.00544945
0.00506825
0.00472468
0.00441404
0.00413232
0.00387609
0.00364243
0.00342879
0.003233
0.00305315
0.00288757
0.00273483
0.00259364
0.0024629
0.0023416
0.00222887
0.00212394
0.0020261
0.00193475
0.00184933
0.00176934
0.00169434
0.00162392
0.00155772
0.00149542
0.00143672
0.00138134
0.00132904
0.00127961
0.00123283
0.00118854
0.00114656
0.00110674
0.00106898
0.00103316
0.000999219
0.00096712
0.000936882
0.000908588
0.00088242
0.000858674
0.000837802
0.000820375
0.000807172
0.00079868
0.000796455
0.0217504
0.019062
0.0168235
0.0149427
0.0133492
0.011989
0.0108197
0.00980794
0.00892738
0.00815673
0.00747882
0.00687964
0.00634769
0.00587347
0.00544906
0.00506787
0.00472431
0.00441367
0.00413196
0.00387574
0.00364209
0.00342846
0.00323268
0.00305283
0.00288727
0.00273453
0.00259336
0.00246262
0.00234133
0.00222861
0.00212368
0.00202586
0.00193452
0.0018491
0.00176912
0.00169413
0.00162372
0.00155753
0.00149524
0.00143654
0.00138117
0.00132889
0.00127947
0.0012327
0.00118842
0.00114646
0.00110666
0.00106892
0.00103313
0.000999219
0.000967156
0.000936957
0.000908708
0.000882586
0.000858882
0.000838032
0.000820582
0.00080723
0.000798364
0.000794939
0.0217504
0.019062
0.0168234
0.0149426
0.0133491
0.0119888
0.0108194
0.00980769
0.0089271
0.00815644
0.00747851
0.00687932
0.00634736
0.00587314
0.00544874
0.00506755
0.00472399
0.00441337
0.00413166
0.00387545
0.0036418
0.00342818
0.0032324
0.00305257
0.00288701
0.00273428
0.00259312
0.00246238
0.0023411
0.00222839
0.00212347
0.00202565
0.00193432
0.00184891
0.00176894
0.00169395
0.00162355
0.00155737
0.00149508
0.0014364
0.00138104
0.00132876
0.00127935
0.0012326
0.00118834
0.00114639
0.00110661
0.00106889
0.00103313
0.000999247
0.00096722
0.000937062
0.000908858
0.000882784
0.000859126
0.000838307
0.000820852
0.000807395
0.000798259
0.00079403
0.0217504
0.019062
0.0168234
0.0149425
0.013349
0.0119887
0.0108193
0.00980748
0.00892687
0.00815619
0.00747826
0.00687906
0.0063471
0.00587288
0.00544848
0.00506729
0.00472374
0.00441311
0.00413141
0.00387521
0.00364156
0.00342795
0.00323218
0.00305235
0.0028868
0.00273408
0.00259292
0.00246219
0.00234092
0.00222821
0.0021233
0.00202549
0.00193416
0.00184876
0.00176879
0.00169381
0.00162341
0.00155724
0.00149496
0.00143628
0.00138093
0.00132867
0.00127927
0.00123253
0.00118828
0.00114634
0.00110659
0.00106889
0.00103315
0.000999302
0.00096731
0.000937193
0.000909036
0.000883013
0.000859405
0.000838626
0.000821183
0.00080766
0.000798328
0.000793528
0.0217504
0.0190619
0.0168234
0.0149424
0.0133489
0.0119885
0.0108191
0.00980732
0.00892669
0.008156
0.00747806
0.00687886
0.00634689
0.00587267
0.00544827
0.00506708
0.00472353
0.00441291
0.00413121
0.00387501
0.00364138
0.00342777
0.00323201
0.00305218
0.00288663
0.00273392
0.00259276
0.00246204
0.00234077
0.00222807
0.00212316
0.00202536
0.00193403
0.00184864
0.00176867
0.0016937
0.00162331
0.00155714
0.00149487
0.0014362
0.00138086
0.0013286
0.00127921
0.00123249
0.00118824
0.00114633
0.00110659
0.00106891
0.0010332
0.000999382
0.000967426
0.00093735
0.000909241
0.000883269
0.000859716
0.000838986
0.000821574
0.00080802
0.000798556
0.000793346
0.0217504
0.0190619
0.0168233
0.0149424
0.0133488
0.0119885
0.010819
0.0098072
0.00892656
0.00815586
0.00747791
0.0068787
0.00634674
0.00587251
0.00544812
0.00506693
0.00472338
0.00441277
0.00413107
0.00387487
0.00364124
0.00342764
0.00323188
0.00305205
0.00288651
0.0027338
0.00259265
0.00246193
0.00234067
0.00222797
0.00212307
0.00202526
0.00193394
0.00184855
0.00176859
0.00169362
0.00162324
0.00155707
0.00149481
0.00143614
0.00138081
0.00132856
0.00127918
0.00123247
0.00118824
0.00114634
0.00110662
0.00106896
0.00103327
0.000999485
0.000967564
0.000937531
0.000909469
0.000883552
0.000860059
0.000839387
0.000822022
0.000808475
0.000798938
0.000793447
0.0217504
0.0190619
0.0168233
0.0149424
0.0133488
0.0119884
0.0108189
0.00980712
0.00892648
0.00815577
0.00747781
0.0068786
0.00634664
0.00587241
0.00544802
0.00506683
0.00472328
0.00441267
0.00413097
0.00387478
0.00364115
0.00342755
0.00323179
0.00305197
0.00288643
0.00273372
0.00259257
0.00246186
0.0023406
0.0022279
0.002123
0.0020252
0.00193388
0.0018485
0.00176854
0.00169357
0.00162319
0.00155703
0.00149477
0.00143611
0.00138079
0.00132855
0.00127917
0.00123247
0.00118825
0.00114637
0.00110667
0.00106903
0.00103337
0.000999611
0.000967726
0.000937734
0.000909721
0.000883861
0.00086043
0.000839827
0.000822529
0.000809022
0.000799474
0.000793812
0.0217504
0.0190619
0.0168233
0.0149423
0.0133488
0.0119884
0.0108189
0.00980708
0.00892643
0.00815572
0.00747777
0.00687855
0.00634659
0.00587236
0.00544796
0.00506678
0.00472323
0.00441262
0.00413093
0.00387473
0.0036411
0.00342751
0.00323175
0.00305193
0.00288639
0.00273369
0.00259254
0.00246183
0.00234056
0.00222787
0.00212297
0.00202517
0.00193386
0.00184847
0.00176852
0.00169355
0.00162318
0.00155702
0.00149477
0.00143611
0.00138079
0.00132856
0.00127919
0.0012325
0.0011883
0.00114642
0.00110674
0.00106913
0.00103349
0.000999758
0.000967908
0.000937958
0.000909995
0.000884193
0.000860831
0.000840305
0.000823091
0.000809663
0.000800162
0.000794437
0.0217504
0.0190619
0.0168233
0.0149423
0.0133488
0.0119884
0.0108189
0.00980708
0.00892643
0.00815572
0.00747777
0.00687855
0.00634659
0.00587236
0.00544797
0.00506678
0.00472323
0.00441262
0.00413093
0.00387473
0.0036411
0.00342751
0.00323175
0.00305193
0.00288639
0.00273369
0.00259254
0.00246183
0.00234057
0.00222787
0.00212298
0.00202518
0.00193386
0.00184848
0.00176853
0.00169357
0.00162319
0.00155704
0.00149479
0.00143614
0.00138082
0.00132859
0.00127924
0.00123255
0.00118836
0.0011465
0.00110683
0.00106924
0.00103363
0.000999926
0.000968111
0.000938203
0.00091029
0.000884548
0.000861258
0.00084082
0.00082371
0.000810397
0.000801004
0.000795319
0.0217504
0.0190619
0.0168233
0.0149424
0.0133488
0.0119884
0.0108189
0.00980712
0.00892648
0.00815577
0.00747781
0.0068786
0.00634664
0.00587241
0.00544802
0.00506683
0.00472329
0.00441267
0.00413098
0.00387478
0.00364115
0.00342755
0.00323179
0.00305197
0.00288644
0.00273373
0.00259258
0.00246187
0.00234061
0.00222791
0.00212302
0.00202522
0.0019339
0.00184852
0.00176857
0.00169361
0.00162323
0.00155709
0.00149484
0.00143619
0.00138088
0.00132865
0.00127931
0.00123263
0.00118845
0.0011466
0.00110695
0.00106938
0.00103379
0.00100011
0.000968334
0.000938467
0.000910605
0.000884924
0.000861711
0.000841371
0.000824385
0.000811226
0.000802004
0.000796466
0.0217504
0.0190619
0.0168233
0.0149424
0.0133488
0.0119885
0.010819
0.0098072
0.00892656
0.00815586
0.00747791
0.0068787
0.00634674
0.00587252
0.00544812
0.00506693
0.00472339
0.00441277
0.00413107
0.00387488
0.00364124
0.00342764
0.00323188
0.00305206
0.00288652
0.00273381
0.00259266
0.00246195
0.00234068
0.00222799
0.00212309
0.00202529
0.00193398
0.00184859
0.00176864
0.00169368
0.00162331
0.00155716
0.00149491
0.00143627
0.00138096
0.00132874
0.0012794
0.00123273
0.00118856
0.00114672
0.00110709
0.00106953
0.00103397
0.00100032
0.000968576
0.000938751
0.000910939
0.000885322
0.00086219
0.000841956
0.000825115
0.000812151
0.000803167
0.000797885
0.0217504
0.0190619
0.0168234
0.0149424
0.0133489
0.0119885
0.0108191
0.00980732
0.0089267
0.008156
0.00747806
0.00687886
0.0063469
0.00587267
0.00544827
0.00506708
0.00472354
0.00441292
0.00413122
0.00387502
0.00364138
0.00342778
0.00323201
0.00305219
0.00288665
0.00273393
0.00259278
0.00246206
0.00234079
0.0022281
0.0021232
0.0020254
0.00193408
0.00184869
0.00176874
0.00169378
0.00162341
0.00155726
0.00149501
0.00143637
0.00138106
0.00132885
0.00127952
0.00123285
0.00118869
0.00114687
0.00110725
0.00106971
0.00103417
0.00100055
0.000968837
0.000939053
0.000911292
0.000885739
0.000862692
0.000842576
0.000825901
0.000813174
0.000804499
0.000799593
0.0217504
0.019062
0.0168234
0.0149425
0.013349
0.0119887
0.0108193
0.00980748
0.00892687
0.00815619
0.00747826
0.00687906
0.0063471
0.00587288
0.00544848
0.00506729
0.00472374
0.00441312
0.00413141
0.00387521
0.00364157
0.00342796
0.00323219
0.00305236
0.00288681
0.0027341
0.00259294
0.00246222
0.00234095
0.00222825
0.00212334
0.00202554
0.00193422
0.00184883
0.00176888
0.00169391
0.00162354
0.00155739
0.00149514
0.0014365
0.0013812
0.00132899
0.00127966
0.001233
0.00118885
0.00114704
0.00110743
0.00106991
0.00103439
0.0010008
0.000969118
0.000939374
0.000911664
0.000886176
0.000863218
0.00084323
0.000826743
0.000814299
0.000806007
0.00080161
0.0217504
0.019062
0.0168234
0.0149426
0.0133491
0.0119888
0.0108194
0.00980769
0.0089271
0.00815644
0.00747851
0.00687932
0.00634737
0.00587314
0.00544875
0.00506755
0.004724
0.00441337
0.00413166
0.00387545
0.00364181
0.00342819
0.00323242
0.00305258
0.00288703
0.0027343
0.00259314
0.00246241
0.00234114
0.00222843
0.00212352
0.00202571
0.00193439
0.001849
0.00176904
0.00169408
0.0016237
0.00155755
0.0014953
0.00143666
0.00138136
0.00132916
0.00127983
0.00123318
0.00118903
0.00114723
0.00110764
0.00107013
0.00103463
0.00100107
0.000969417
0.000939713
0.000912053
0.000886633
0.000863768
0.000843918
0.000827641
0.000815529
0.000807703
0.000803964
0.0217504
0.019062
0.0168235
0.0149427
0.0133492
0.011989
0.0108197
0.00980794
0.00892738
0.00815673
0.00747882
0.00687964
0.00634769
0.00587347
0.00544907
0.00506787
0.00472431
0.00441368
0.00413197
0.00387575
0.0036421
0.00342847
0.00323269
0.00305285
0.00288729
0.00273456
0.00259339
0.00246265
0.00234137
0.00222866
0.00212374
0.00202593
0.0019346
0.0018492
0.00176924
0.00169427
0.00162389
0.00155774
0.0014955
0.00143685
0.00138155
0.00132935
0.00128002
0.00123338
0.00118924
0.00114745
0.00110787
0.00107038
0.0010349
0.00100135
0.000969736
0.000940071
0.000912461
0.000887108
0.00086434
0.000844638
0.000828596
0.00081687
0.000809598
0.000806691
0.0217504
0.019062
0.0168235
0.0149428
0.0133494
0.0119892
0.0108199
0.00980825
0.00892772
0.00815709
0.00747919
0.00688002
0.00634807
0.00587385
0.00544945
0.00506825
0.00472469
0.00441405
0.00413233
0.0038761
0.00364244
0.00342881
0.00323302
0.00305317
0.00288759
0.00273486
0.00259368
0.00246294
0.00234164
0.00222893
0.002124
0.00202618
0.00193485
0.00184945
0.00176948
0.00169451
0.00162412
0.00155797
0.00149572
0.00143708
0.00138177
0.00132957
0.00128025
0.00123361
0.00118948
0.00114769
0.00110812
0.00107065
0.00103518
0.00100166
0.000970076
0.000940448
0.000912887
0.000887603
0.000864934
0.000845391
0.000829608
0.000818327
0.000811706
0.000809839
0.0217504
0.019062
0.0168236
0.0149429
0.0133496
0.0119895
0.0108203
0.00980861
0.00892811
0.00815751
0.00747963
0.00688047
0.00634853
0.00587431
0.00544991
0.0050687
0.00472513
0.00441448
0.00413275
0.00387652
0.00364284
0.0034292
0.0032334
0.00305354
0.00288796
0.00273521
0.00259402
0.00246327
0.00234197
0.00222924
0.00212431
0.00202648
0.00193514
0.00184973
0.00176976
0.00169478
0.00162439
0.00155823
0.00149598
0.00143733
0.00138203
0.00132983
0.0012805
0.00123387
0.00118974
0.00114796
0.0011084
0.00107094
0.00103549
0.001002
0.000970437
0.000940846
0.000913333
0.000888116
0.00086555
0.000846177
0.000830679
0.000819907
0.000814047
0.000813469
0.0217504
0.019062
0.0168237
0.0149431
0.0133499
0.0119898
0.0108206
0.00980904
0.00892858
0.008158
0.00748014
0.00688099
0.00634905
0.00587484
0.00545043
0.00506922
0.00472564
0.00441498
0.00413324
0.003877
0.00364331
0.00342966
0.00323384
0.00305397
0.00288837
0.00273561
0.00259441
0.00246365
0.00234234
0.0022296
0.00212466
0.00202682
0.00193547
0.00185006
0.00177008
0.00169509
0.0016247
0.00155853
0.00149627
0.00143763
0.00138232
0.00133011
0.00128079
0.00123416
0.00119003
0.00114826
0.00110871
0.00107126
0.00103583
0.00100236
0.000970822
0.000941265
0.0009138
0.000888651
0.00086619
0.000846996
0.000831809
0.000821619
0.000816638
0.000817661
0.0217504
0.0190621
0.0168238
0.0149433
0.0133502
0.0119902
0.0108211
0.00980954
0.00892912
0.00815857
0.00748073
0.00688159
0.00634966
0.00587544
0.00545103
0.00506982
0.00472623
0.00441556
0.00413381
0.00387755
0.00364385
0.00343018
0.00323435
0.00305446
0.00288885
0.00273608
0.00259487
0.00246409
0.00234277
0.00223002
0.00212507
0.00202722
0.00193586
0.00185043
0.00177044
0.00169545
0.00162505
0.00155888
0.00149661
0.00143796
0.00138265
0.00133044
0.00128112
0.00123448
0.00119036
0.0011486
0.00110905
0.00107161
0.0010362
0.00100274
0.000971232
0.000941708
0.000914288
0.000889206
0.000866852
0.000847847
0.000832999
0.000823473
0.000819506
0.000822521
0.0217504
0.0190621
0.0168239
0.0149436
0.0133505
0.0119906
0.0108216
0.00981011
0.00892974
0.00815923
0.00748141
0.00688228
0.00635036
0.00587614
0.00545173
0.0050705
0.0047269
0.00441622
0.00413445
0.00387818
0.00364446
0.00343078
0.00323493
0.00305503
0.0028894
0.00273661
0.00259538
0.00246459
0.00234326
0.00223049
0.00212553
0.00202767
0.0019363
0.00185086
0.00177086
0.00169586
0.00162544
0.00155927
0.001497
0.00143834
0.00138302
0.00133081
0.00128148
0.00123485
0.00119073
0.00114897
0.00110943
0.001072
0.00103659
0.00100316
0.000971669
0.000942177
0.000914801
0.000889785
0.000867539
0.000848732
0.000834251
0.000825478
0.000822676
0.000828188
0.0217504
0.0190622
0.0168241
0.0149439
0.0133509
0.0119911
0.0108222
0.00981078
0.00893046
0.00815998
0.00748218
0.00688307
0.00635116
0.00587694
0.00545252
0.00507128
0.00472767
0.00441697
0.00413519
0.0038789
0.00364516
0.00343146
0.00323559
0.00305567
0.00289003
0.00273722
0.00259597
0.00246517
0.00234381
0.00223104
0.00212606
0.00202818
0.0019368
0.00185134
0.00177133
0.00169632
0.0016259
0.00155971
0.00149743
0.00143876
0.00138344
0.00133122
0.0012819
0.00123526
0.00119114
0.00114938
0.00110984
0.00107242
0.00103703
0.0010036
0.000972139
0.000942676
0.000915341
0.000890389
0.000868252
0.000849652
0.000835567
0.00082765
0.000826181
0.000834855
0.0217504
0.0190622
0.0168243
0.0149442
0.0133514
0.0119917
0.0108229
0.00981155
0.00893128
0.00816085
0.00748308
0.00688398
0.00635207
0.00587785
0.00545342
0.00507217
0.00472855
0.00441783
0.00413603
0.00387972
0.00364596
0.00343224
0.00323635
0.00305641
0.00289074
0.00273792
0.00259665
0.00246582
0.00234445
0.00223166
0.00212666
0.00202877
0.00193737
0.0018519
0.00177188
0.00169685
0.00162642
0.00156022
0.00149793
0.00143925
0.00138392
0.0013317
0.00128236
0.00123572
0.0011916
0.00114984
0.00111031
0.00107289
0.00103751
0.0010041
0.000972656
0.00094322
0.000915925
0.000891035
0.000869005
0.000850618
0.000836955
0.000830006
0.000830063
0.000842786
0.0217504
0.0190623
0.0168246
0.0149446
0.013352
0.0119925
0.0108237
0.00981245
0.00893224
0.00816185
0.00748411
0.00688502
0.00635312
0.00587889
0.00545446
0.0050732
0.00472955
0.00441882
0.00413699
0.00388066
0.00364688
0.00343313
0.00323722
0.00305725
0.00289157
0.00273872
0.00259743
0.00246659
0.0023452
0.00223238
0.00212737
0.00202946
0.00193804
0.00185257
0.00177253
0.00169749
0.00162705
0.00156084
0.00149854
0.00143986
0.00138452
0.0013323
0.00128296
0.00123632
0.0011922
0.00115044
0.00111092
0.00107351
0.00103814
0.00100475
0.00097332
0.000943908
0.000916647
0.00089181
0.000869879
0.000851699
0.000838475
0.000832607
0.000834398
0.000852374
0.0217505
0.0190624
0.0168249
0.0149451
0.0133527
0.0119933
0.0108247
0.0098135
0.00893335
0.00816301
0.00748529
0.00688623
0.00635433
0.0058801
0.00545566
0.00507438
0.00473072
0.00441997
0.00413812
0.00388177
0.00364797
0.0034342
0.00323828
0.00305829
0.00289259
0.00273973
0.00259843
0.00246757
0.00234617
0.00223335
0.00212833
0.00203042
0.00193901
0.00185353
0.0017735
0.00169847
0.00162804
0.00156184
0.00149957
0.00144091
0.0013856
0.0013334
0.00128409
0.00123747
0.00119338
0.00115166
0.00111216
0.00107479
0.00103945
0.00100608
0.00097468
0.000945289
0.000918046
0.000893233
0.000871354
0.000853326
0.000840493
0.000835759
0.000839452
0.000864299
0.0217505
0.0190626
0.0168253
0.0149458
0.0133535
0.0119943
0.0108258
0.00981472
0.00893466
0.00816437
0.0074867
0.00688766
0.00635578
0.00588157
0.00545714
0.00507587
0.00473222
0.00442148
0.00413964
0.00388331
0.00364953
0.00343578
0.00323988
0.00305993
0.00289426
0.00274144
0.00260018
0.00246938
0.00234804
0.00223528
0.00213034
0.00203251
0.00194119
0.00185581
0.0017759
0.00170099
0.00163071
0.00156467
0.00150256
0.00144407
0.00138895
0.00133694
0.00128783
0.00124139
0.00119746
0.00115591
0.00111658
0.00107936
0.00104415
0.00101089
0.000979564
0.000950198
0.000922924
0.000898021
0.000876007
0.000857859
0.000845091
0.000841195
0.000846614
0.000880282
0.0217505
0.0190628
0.0168258
0.0149465
0.0133545
0.0119955
0.0108272
0.00981625
0.00893631
0.00816614
0.00748859
0.00688968
0.00635793
0.00588386
0.00545958
0.00507849
0.00473502
0.00442448
0.00414285
0.00388674
0.00365319
0.0034397
0.00324406
0.00306438
0.00289901
0.0027465
0.00260558
0.00247513
0.00235418
0.00224184
0.00213734
0.00204001
0.00194923
0.00186444
0.00178517
0.00171096
0.00164143
0.00157621
0.00151497
0.0014574
0.00140324
0.00135221
0.00130407
0.00125857
0.00121548
0.00117475
0.00113623
0.00109976
0.00106523
0.00103254
0.00100162
0.000972437
0.000945068
0.000919724
0.000896878
0.00087751
0.000863285
0.000858355
0.00086347
0.000907029
0.0217505
0.019063
0.0168264
0.0149476
0.0133559
0.0119972
0.0108293
0.00981883
0.00893942
0.00816985
0.007493
0.00689487
0.00636398
0.00589085
0.00546757
0.00508752
0.00474515
0.00443572
0.00415526
0.00390032
0.00366799
0.00345573
0.00326138
0.00308303
0.00291905
0.002768
0.00262864
0.00249986
0.0023807
0.00227032
0.00216795
0.00207293
0.00198468
0.00190267
0.00182642
0.00175552
0.00168955
0.00162818
0.00157105
0.00151785
0.00146824
0.00142189
0.00137846
0.00133758
0.00129878
0.001262
0.00122743
0.00119485
0.001164
0.00113459
0.0011063
0.00107881
0.00105183
0.0010252
0.000999024
0.000973958
0.000951595
0.000936622
0.000930371
0.000976609
0.0217506
0.0190635
0.0168276
0.0149497
0.0133592
0.0120023
0.0108367
0.00982909
0.0089531
0.00818746
0.00751494
0.00692144
0.0063954
0.00592723
0.00550894
0.00513388
0.00479645
0.00449192
0.00421631
0.00396623
0.0037388
0.00353155
0.00334237
0.00316945
0.00301124
0.0028664
0.00273377
0.00261235
0.00250128
0.0023998
0.00230727
0.00222311
0.00214683
0.00207798
0.00201618
0.00196104
0.00191221
0.00186935
0.00183208
0.00179998
0.00177258
0.00174931
0.00172946
0.00171216
0.00169631
0.00168021
0.00166714
0.00165631
0.00164665
0.00163675
0.00162487
0.00160901
0.00158698