/*--------------------------------*- C++ -*----------------------------------*\
| =========                 |                                                 |
| \\      /  F ield         | OpenFOAM: The Open Source CFD Toolbox           |
|  \\    /   O peration     | Version:  2.4.0                                 |
|   \\  /    A nd           | Web:      www.OpenFOAM.org                      |
|    \\/     M anipulation  |                                                 |
\*---------------------------------------------------------------------------*/
FoamFile
{
    version     2.0;
    format      ascii;
    class       volScalarField;
    location    "1000";
    object      p;
}
// * * * * * * * * * * * * * * * * * * * * * * * * * * * * * * * * * * * * * //

dimensions      [0 2 -2 0 0 0 0];

internalField   nonuniform List<scalar> 
48900
(
-8.21512
-9.48591
-10.0615
-10.2689
-10.4941
-10.7214
-10.9139
-11.0871
-11.2503
-11.4032
-11.5439
-11.6734
-11.7912
-11.8995
-12.0005
-12.0943
-12.18
-12.2575
-12.3271
-12.3895
-12.4452
-12.4951
-12.5404
-12.5823
-12.6216
-12.6592
-12.6961
-12.733
-12.7709
-12.8104
-12.8528
-12.8987
-12.9503
-13.0079
-13.0717
-13.1566
-8.51191
-9.53217
-10.0625
-10.2715
-10.4968
-10.7236
-10.9167
-11.0893
-11.2514
-11.403
-11.5424
-11.671
-11.7887
-11.8975
-11.998
-12.0911
-12.1759
-12.2529
-12.322
-12.3842
-12.4396
-12.4894
-12.5345
-12.5764
-12.6157
-12.6535
-12.6905
-12.7276
-12.7655
-12.8052
-12.8474
-12.8933
-12.9441
-13.0002
-13.0604
-13.1392
-8.76562
-9.55728
-10.062
-10.2875
-10.5114
-10.7311
-10.9198
-11.0886
-11.2471
-11.3957
-11.5325
-11.6589
-11.7755
-11.8832
-11.9826
-12.0746
-12.1587
-12.2353
-12.3042
-12.3666
-12.4224
-12.4732
-12.5191
-12.5619
-12.6018
-12.6404
-12.6777
-12.7154
-12.7533
-12.7932
-12.8348
-12.88
-12.9282
-12.9809
-13.0313
-13.076
-9.01806
-9.60869
-10.0788
-10.3124
-10.5282
-10.7381
-10.9226
-11.0887
-11.2445
-11.391
-11.5259
-11.6507
-11.7661
-11.8726
-11.971
-12.062
-12.1453
-12.2213
-12.29
-12.3522
-12.4084
-12.4597
-12.5062
-12.5494
-12.5897
-12.6285
-12.666
-12.7037
-12.7413
-12.7806
-12.821
-12.8643
-12.9088
-12.9555
-12.9942
-13.0213
-9.24415
-9.68477
-10.1095
-10.3401
-10.5479
-10.7494
-10.9296
-11.0927
-11.245
-11.388
-11.5201
-11.6426
-11.756
-11.8609
-11.958
-12.0477
-12.1301
-12.2054
-12.2737
-12.3358
-12.3921
-12.4435
-12.4904
-12.534
-12.5748
-12.6139
-12.6518
-12.6894
-12.7269
-12.7654
-12.8045
-12.8453
-12.8861
-12.9264
-12.9573
-12.9759
-9.43284
-9.77017
-10.1487
-10.3723
-10.5724
-10.7654
-10.9401
-11.0991
-11.2476
-11.387
-11.5162
-11.6362
-11.7475
-11.8507
-11.9463
-12.0347
-12.116
-12.1904
-12.2582
-12.32
-12.3763
-12.4278
-12.4751
-12.519
-12.5602
-12.5996
-12.6376
-12.675
-12.7121
-12.7496
-12.7873
-12.8255
-12.8627
-12.8974
-12.9228
-12.9355
-9.59184
-9.85523
-10.1921
-10.4072
-10.5995
-10.7843
-10.953
-11.1077
-11.2522
-11.3878
-11.514
-11.6314
-11.7404
-11.8417
-11.9356
-12.0225
-12.1026
-12.1761
-12.2433
-12.3047
-12.3608
-12.4123
-12.4597
-12.5038
-12.5452
-12.5847
-12.6228
-12.6599
-12.6965
-12.733
-12.7691
-12.8048
-12.8386
-12.8688
-12.8901
-12.8994
-9.73176
-9.93832
-10.2373
-10.4432
-10.6274
-10.8044
-10.9671
-11.1174
-11.2579
-11.3899
-11.5129
-11.6276
-11.7343
-11.8335
-11.9257
-12.0111
-12.0899
-12.1624
-12.2289
-12.2898
-12.3457
-12.3971
-12.4445
-12.4887
-12.5303
-12.5699
-12.6078
-12.6447
-12.6807
-12.716
-12.7506
-12.7839
-12.8148
-12.8414
-12.8598
-12.8676
-9.85849
-10.0202
-10.284
-10.4797
-10.6554
-10.8248
-10.9817
-11.1275
-11.2641
-11.3924
-11.5123
-11.6243
-11.7287
-11.8259
-11.9162
-12.0001
-12.0776
-12.1491
-12.2147
-12.2751
-12.3307
-12.3819
-12.4294
-12.4736
-12.5152
-12.5547
-12.5925
-12.629
-12.6643
-12.6986
-12.7317
-12.7629
-12.7912
-12.8151
-12.8316
-12.839
-9.9748
-10.1013
-10.3324
-10.5167
-10.6837
-10.8454
-10.9965
-11.1377
-11.2703
-11.395
-11.5118
-11.6211
-11.7231
-11.8183
-11.9069
-11.9892
-12.0654
-12.1358
-12.2007
-12.2606
-12.3157
-12.3668
-12.4141
-12.4583
-12.4999
-12.5392
-12.5768
-12.6129
-12.6475
-12.6807
-12.7123
-12.7418
-12.768
-12.7898
-12.8051
-12.8128
-10.0823
-10.1816
-10.3826
-10.5547
-10.7125
-10.8664
-11.0115
-11.1479
-11.2764
-11.3975
-11.5112
-11.6178
-11.7175
-11.8106
-11.8974
-11.9782
-12.0531
-12.1225
-12.1866
-12.2458
-12.3006
-12.3514
-12.3986
-12.4427
-12.4841
-12.5233
-12.5606
-12.5962
-12.6301
-12.6624
-12.6927
-12.7206
-12.7452
-12.7655
-12.7802
-12.7885
-10.1821
-10.2605
-10.4346
-10.5937
-10.7421
-10.888
-11.0269
-11.1583
-11.2826
-11.4
-11.5105
-11.6144
-11.7117
-11.8027
-11.8878
-11.967
-12.0407
-12.109
-12.1723
-12.2309
-12.2853
-12.3357
-12.3827
-12.4267
-12.468
-12.507
-12.5439
-12.579
-12.6122
-12.6436
-12.6728
-12.6994
-12.7227
-12.742
-12.7565
-12.7656
-10.2752
-10.3377
-10.488
-10.634
-10.7728
-10.9105
-11.043
-11.1691
-11.289
-11.4026
-11.5099
-11.6109
-11.7058
-11.7948
-11.878
-11.9557
-12.028
-12.0953
-12.1578
-12.2158
-12.2697
-12.3198
-12.3665
-12.4103
-12.4513
-12.4901
-12.5266
-12.5612
-12.5938
-12.6244
-12.6526
-12.6782
-12.7007
-12.7194
-12.7339
-12.7438
-10.3624
-10.4126
-10.5424
-10.6753
-10.8046
-10.9341
-11.0599
-11.1806
-11.296
-11.4056
-11.5095
-11.6077
-11.7
-11.7868
-11.8682
-11.9443
-12.0153
-12.0815
-12.1431
-12.2004
-12.2538
-12.3035
-12.35
-12.3934
-12.4343
-12.4727
-12.5089
-12.543
-12.575
-12.6048
-12.6323
-12.6571
-12.6789
-12.6973
-12.7121
-12.7229
-10.4344
-10.476
-10.5904
-10.7123
-10.8332
-10.9555
-11.0755
-11.1913
-11.3025
-11.4086
-11.5095
-11.605
-11.6951
-11.7799
-11.8596
-11.9343
-12.0041
-12.0693
-12.1301
-12.1868
-12.2397
-12.289
-12.3352
-12.3784
-12.4189
-12.4571
-12.4929
-12.5266
-12.5582
-12.5875
-12.6144
-12.6387
-12.6602
-12.6785
-12.6936
-12.7051
-10.4947
-10.5304
-10.6326
-10.7453
-10.8589
-10.9751
-11.0898
-11.2013
-11.3087
-11.4117
-11.5098
-11.6029
-11.6909
-11.774
-11.8522
-11.9255
-11.9943
-12.0586
-12.1187
-12.1748
-12.2271
-12.2761
-12.3219
-12.3649
-12.4052
-12.4431
-12.4786
-12.512
-12.5431
-12.572
-12.5985
-12.6225
-12.6437
-12.662
-12.6775
-12.6897
-10.5544
-10.5853
-10.676
-10.7797
-10.8862
-10.9959
-11.1053
-11.2121
-11.3157
-11.4152
-11.5104
-11.601
-11.6869
-11.7681
-11.8446
-11.9166
-11.9842
-12.0475
-12.1068
-12.1622
-12.2141
-12.2626
-12.3081
-12.3507
-12.3908
-12.4283
-12.4636
-12.4966
-12.5274
-12.5559
-12.5821
-12.6058
-12.6269
-12.6453
-12.6611
-12.674
-10.6135
-10.6404
-10.7206
-10.8156
-10.9149
-11.0181
-11.1219
-11.224
-11.3234
-11.4194
-11.5115
-11.5994
-11.683
-11.7622
-11.837
-11.9075
-11.9738
-12.0361
-12.0945
-12.1493
-12.2006
-12.2486
-12.2937
-12.336
-12.3757
-12.4129
-12.4479
-12.4805
-12.511
-12.5392
-12.5651
-12.5886
-12.6097
-12.6283
-12.6445
-12.6581
-10.6718
-10.6953
-10.7661
-10.8528
-10.9448
-11.0415
-11.1396
-11.2368
-11.332
-11.4243
-11.5131
-11.5982
-11.6793
-11.7564
-11.8294
-11.8984
-11.9634
-12.0245
-12.082
-12.1359
-12.1866
-12.2341
-12.2788
-12.3207
-12.36
-12.3969
-12.4315
-12.4639
-12.494
-12.522
-12.5476
-12.571
-12.5922
-12.611
-12.6277
-12.6419
-10.7292
-10.7499
-10.8122
-10.8909
-10.9759
-11.0661
-11.1584
-11.2506
-11.3414
-11.4298
-11.5153
-11.5975
-11.676
-11.7509
-11.8219
-11.8892
-11.9528
-12.0127
-12.0692
-12.1223
-12.1723
-12.2192
-12.2633
-12.3048
-12.3438
-12.3803
-12.4146
-12.4467
-12.4765
-12.5042
-12.5298
-12.5531
-12.5743
-12.5934
-12.6106
-12.6254
-10.7855
-10.8037
-10.8585
-10.9297
-11.008
-11.0917
-11.1783
-11.2654
-11.3517
-11.4361
-11.5181
-11.5972
-11.6731
-11.7456
-11.8146
-11.8802
-11.9422
-12.0009
-12.0563
-12.1085
-12.1576
-12.2039
-12.2475
-12.2885
-12.327
-12.3632
-12.3972
-12.4289
-12.4586
-12.4861
-12.5115
-12.5348
-12.5562
-12.5755
-12.5932
-12.6087
-10.8405
-10.8567
-10.9049
-10.969
-11.0408
-11.1183
-11.1991
-11.2811
-11.3627
-11.4431
-11.5215
-11.5974
-11.6705
-11.7406
-11.8075
-11.8712
-11.9317
-11.989
-12.0432
-12.0945
-12.1428
-12.1884
-12.2314
-12.2718
-12.3099
-12.3457
-12.3793
-12.4108
-12.4402
-12.4675
-12.4929
-12.5163
-12.5378
-12.5575
-12.5756
-12.5917
-10.894
-10.9084
-10.9508
-11.0085
-11.074
-11.1454
-11.2206
-11.2975
-11.3745
-11.4508
-11.5255
-11.5982
-11.6684
-11.736
-11.8007
-11.8625
-11.9213
-11.9772
-12.0302
-12.0803
-12.1278
-12.1726
-12.2149
-12.2549
-12.2925
-12.3279
-12.3611
-12.3923
-12.4215
-12.4487
-12.4741
-12.4975
-12.5193
-12.5392
-12.5578
-12.5745
-10.9458
-10.9587
-10.996
-11.0478
-11.1074
-11.1731
-11.2428
-11.3145
-11.387
-11.4591
-11.5301
-11.5995
-11.6668
-11.7317
-11.7942
-11.854
-11.911
-11.9654
-12.0171
-12.0662
-12.1127
-12.1567
-12.1984
-12.2377
-12.2748
-12.3098
-12.3427
-12.3736
-12.4026
-12.4297
-12.455
-12.4786
-12.5005
-12.5208
-12.5398
-12.557
-10.9957
-11.0072
-11.0401
-11.0865
-11.1406
-11.2008
-11.2652
-11.332
-11.3999
-11.4679
-11.5352
-11.6012
-11.6655
-11.7279
-11.788
-11.8457
-11.901
-11.9538
-12.0042
-12.0521
-12.0976
-12.1408
-12.1817
-12.2204
-12.257
-12.2915
-12.3241
-12.3547
-12.3836
-12.4106
-12.4359
-12.4596
-12.4817
-12.5023
-12.5217
-12.5394
-11.0433
-11.0536
-11.0827
-11.1242
-11.1733
-11.2283
-11.2876
-11.3497
-11.4132
-11.4771
-11.5407
-11.6034
-11.6647
-11.7243
-11.7821
-11.8377
-11.8912
-11.9424
-11.9914
-12.0381
-12.0825
-12.1248
-12.165
-12.203
-12.2391
-12.2732
-12.3054
-12.3358
-12.3645
-12.3914
-12.4167
-12.4405
-12.4628
-12.4837
-12.5034
-12.5216
-11.0883
-11.0975
-11.1234
-11.1605
-11.205
-11.2551
-11.3097
-11.3672
-11.4264
-11.4864
-11.5464
-11.6058
-11.6641
-11.7211
-11.7765
-11.83
-11.8816
-11.9312
-11.9788
-12.0242
-12.0676
-12.109
-12.1484
-12.1858
-12.2213
-12.2549
-12.2868
-12.3169
-12.3454
-12.3723
-12.3976
-12.4215
-12.444
-12.4651
-12.4851
-12.5038
-11.1303
-11.1386
-11.1616
-11.1949
-11.2352
-11.281
-11.3311
-11.3844
-11.4395
-11.4956
-11.5521
-11.6083
-11.6637
-11.7181
-11.7711
-11.8226
-11.8723
-11.9203
-11.9664
-12.0106
-12.0529
-12.0933
-12.1319
-12.1687
-12.2036
-12.2368
-12.2683
-12.2982
-12.3265
-12.3533
-12.3786
-12.4026
-12.4252
-12.4466
-12.4669
-12.4859
-11.1689
-11.1764
-11.1969
-11.227
-11.2635
-11.3053
-11.3514
-11.4006
-11.4519
-11.5045
-11.5576
-11.6107
-11.6634
-11.7152
-11.7659
-11.8153
-11.8632
-11.9096
-11.9542
-11.9972
-12.0384
-12.0779
-12.1157
-12.1518
-12.1862
-12.2189
-12.2501
-12.2797
-12.3078
-12.3345
-12.3599
-12.3839
-12.4067
-12.4283
-12.4488
-12.4681
-11.2036
-11.2104
-11.2289
-11.256
-11.2892
-11.3275
-11.37
-11.4156
-11.4634
-11.5126
-11.5626
-11.6128
-11.6628
-11.7122
-11.7607
-11.8081
-11.8543
-11.899
-11.9423
-11.9841
-12.0243
-12.0629
-12.0998
-12.1352
-12.1691
-12.2014
-12.2322
-12.2616
-12.2895
-12.3162
-12.3415
-12.3655
-12.3885
-12.4102
-12.431
-12.4506
-11.2338
-11.24
-11.2567
-11.2814
-11.3118
-11.347
-11.3863
-11.4287
-11.4733
-11.5195
-11.5666
-11.6142
-11.6617
-11.7088
-11.7553
-11.8009
-11.8454
-11.8887
-11.9306
-11.9712
-12.0104
-12.0481
-12.0844
-12.1191
-12.1524
-12.1843
-12.2148
-12.2439
-12.2717
-12.2983
-12.3236
-12.3477
-12.3707
-12.3926
-12.4135
-12.4334
-11.2589
-11.2646
-11.2799
-11.3025
-11.3306
-11.3632
-11.3997
-11.4393
-11.4812
-11.5248
-11.5694
-11.6145
-11.6598
-11.7049
-11.7495
-11.7934
-11.8364
-11.8784
-11.9191
-11.9586
-11.9969
-12.0338
-12.0693
-12.1035
-12.1363
-12.1678
-12.198
-12.2269
-12.2546
-12.281
-12.3063
-12.3304
-12.3535
-12.3755
-12.3966
-12.4167
-11.278
-11.2833
-11.2974
-11.3185
-11.3446
-11.3752
-11.4095
-11.4468
-11.4864
-11.5277
-11.5702
-11.6134
-11.6568
-11.7001
-11.7431
-11.7856
-11.8272
-11.868
-11.9077
-11.9463
-11.9837
-12.0198
-12.0548
-12.0884
-12.1209
-12.152
-12.1819
-12.2106
-12.2382
-12.2645
-12.2898
-12.314
-12.3371
-12.3593
-12.3805
-12.4007
-11.2902
-11.2951
-11.3083
-11.3282
-11.3531
-11.382
-11.4147
-11.4503
-11.4882
-11.5278
-11.5686
-11.6102
-11.6521
-11.694
-11.7358
-11.777
-11.8176
-11.8574
-11.8962
-11.934
-11.9708
-12.0064
-12.0408
-12.074
-12.1061
-12.137
-12.1667
-12.1953
-12.2227
-12.249
-12.2743
-12.2985
-12.3217
-12.344
-12.3653
-12.3857
-11.2939
-11.2985
-11.3113
-11.3306
-11.3546
-11.3827
-11.4143
-11.4489
-11.4857
-11.5243
-11.564
-11.6045
-11.6455
-11.6865
-11.7274
-11.7678
-11.8077
-11.8468
-11.885
-11.9223
-11.9585
-11.9937
-12.0278
-12.0608
-12.0927
-12.1234
-12.1529
-12.1814
-12.2088
-12.2351
-12.2604
-12.2847
-12.308
-12.3304
-12.3518
-12.3724
-11.2889
-11.2935
-11.3063
-11.3254
-11.3493
-11.3771
-11.4085
-11.4427
-11.4792
-11.5173
-11.5566
-11.5968
-11.6373
-11.6779
-11.7183
-11.7584
-11.7979
-11.8367
-11.8746
-11.9116
-11.9477
-11.9827
-12.0166
-12.0495
-12.0812
-12.1119
-12.1414
-12.1699
-12.1973
-12.2236
-12.249
-12.2734
-12.2968
-12.3193
-12.3408
-12.3616
-11.2765
-11.2814
-11.2944
-11.3139
-11.3381
-11.3663
-11.398
-11.4326
-11.4693
-11.5076
-11.5471
-11.5873
-11.6279
-11.6685
-11.709
-11.749
-11.7885
-11.8273
-11.8652
-11.9022
-11.9382
-11.9732
-12.0072
-12.04
-12.0718
-12.1025
-12.1321
-12.1606
-12.1881
-12.2146
-12.24
-12.2645
-12.288
-12.3106
-12.3323
-12.3532
-11.2579
-11.263
-11.2767
-11.2969
-11.322
-11.3511
-11.3838
-11.4192
-11.4567
-11.4957
-11.5359
-11.5766
-11.6177
-11.6587
-11.6995
-11.7399
-11.7796
-11.8186
-11.8567
-11.8938
-11.93
-11.9652
-11.9992
-12.0322
-12.0641
-12.095
-12.1247
-12.1534
-12.181
-12.2075
-12.2331
-12.2577
-12.2814
-12.3041
-12.3259
-12.347
-11.2339
-11.2393
-11.2539
-11.2754
-11.3018
-11.3324
-11.3664
-11.4032
-11.442
-11.4822
-11.5233
-11.565
-11.6068
-11.6486
-11.69
-11.7309
-11.7711
-11.8105
-11.849
-11.8865
-11.9229
-11.9584
-11.9927
-12.0259
-12.058
-12.089
-12.1189
-12.1478
-12.1755
-12.2023
-12.228
-12.2527
-12.2765
-12.2994
-12.3214
-12.3425
-11.2051
-11.2109
-11.2267
-11.2499
-11.2782
-11.3106
-11.3466
-11.3851
-11.4256
-11.4673
-11.5098
-11.5527
-11.5957
-11.6384
-11.6806
-11.7223
-11.7631
-11.8031
-11.8421
-11.88
-11.9169
-11.9527
-11.9873
-12.0208
-12.0532
-12.0845
-12.1146
-12.1436
-12.1716
-12.1985
-12.2244
-12.2493
-12.2733
-12.2963
-12.3184
-12.3397
-11.1718
-11.1782
-11.1956
-11.2209
-11.2516
-11.2865
-11.3248
-11.3656
-11.4081
-11.4516
-11.4958
-11.5402
-11.5844
-11.6283
-11.6716
-11.7141
-11.7557
-11.7964
-11.836
-11.8745
-11.9118
-11.948
-11.9831
-12.0169
-12.0496
-12.0812
-12.1116
-12.1408
-12.169
-12.1961
-12.2222
-12.2473
-12.2714
-12.2945
-12.3167
-12.3382
-11.1344
-11.1415
-11.161
-11.1891
-11.2226
-11.2604
-11.3015
-11.3449
-11.3897
-11.4355
-11.4815
-11.5276
-11.5733
-11.6185
-11.6629
-11.7064
-11.7489
-11.7903
-11.8306
-11.8698
-11.9077
-11.9444
-11.9798
-12.0141
-12.0471
-12.079
-12.1096
-12.1392
-12.1676
-12.1949
-12.2212
-12.2464
-12.2706
-12.2939
-12.3163
-12.3378
-11.0932
-11.1012
-11.1232
-11.1547
-11.1917
-11.2329
-11.2772
-11.3235
-11.371
-11.4191
-11.4673
-11.5151
-11.5625
-11.609
-11.6547
-11.6993
-11.7428
-11.785
-11.8261
-11.8659
-11.9044
-11.9416
-11.9775
-12.0121
-12.0456
-12.0777
-12.1087
-12.1385
-12.1671
-12.1947
-12.2211
-12.2465
-12.2709
-12.2944
-12.3168
-12.3385
-11.0482
-11.0573
-11.0826
-11.1182
-11.1593
-11.2043
-11.2522
-11.3018
-11.3522
-11.4029
-11.4532
-11.5031
-11.5521
-11.6001
-11.6471
-11.6928
-11.7373
-11.7805
-11.8223
-11.8628
-11.9019
-11.9396
-11.976
-12.0111
-12.0449
-12.0774
-12.1086
-12.1387
-12.1676
-12.1953
-12.222
-12.2476
-12.2721
-12.2957
-12.3183
-12.34
-10.9995
-11.01
-11.0395
-11.08
-11.1258
-11.1752
-11.2271
-11.2802
-11.3337
-11.387
-11.4397
-11.4915
-11.5423
-11.5919
-11.6402
-11.6871
-11.7326
-11.7766
-11.8192
-11.8604
-11.9001
-11.9384
-11.9753
-12.0108
-12.0449
-12.0778
-12.1094
-12.1397
-12.1688
-12.1968
-12.2236
-12.2494
-12.274
-12.2977
-12.3204
-12.3423
-10.9471
-10.9594
-10.9941
-11.0405
-11.0916
-11.1458
-11.202
-11.2589
-11.3156
-11.3717
-11.4268
-11.4806
-11.5332
-11.5843
-11.6339
-11.682
-11.7285
-11.7735
-11.8169
-11.8587
-11.899
-11.9379
-11.9752
-12.0112
-12.0457
-12.0789
-12.1107
-12.1413
-12.1707
-12.1988
-12.2259
-12.2518
-12.2766
-12.3004
-12.3232
-12.3452
-10.8908
-10.9055
-10.9468
-11.0002
-11.0573
-11.1167
-11.1775
-11.2383
-11.2983
-11.3571
-11.4146
-11.4705
-11.5248
-11.5774
-11.6284
-11.6776
-11.7251
-11.771
-11.8151
-11.8577
-11.8986
-11.9379
-11.9758
-12.0121
-12.047
-12.0805
-12.1126
-12.1435
-12.1731
-12.2014
-12.2286
-12.2547
-12.2796
-12.3036
-12.3264
-12.3485
-10.8303
-10.8482
-10.8979
-10.9595
-11.023
-11.0881
-11.1537
-11.2185
-11.2818
-11.3435
-11.4032
-11.4612
-11.5171
-11.5712
-11.6235
-11.6738
-11.7223
-11.769
-11.8139
-11.8571
-11.8986
-11.9385
-11.9767
-12.0135
-12.0487
-12.0825
-12.115
-12.146
-12.1758
-12.2044
-12.2317
-12.2579
-12.283
-12.307
-12.33
-12.3521
-10.7653
-10.7877
-10.8479
-10.9188
-10.9894
-11.0603
-11.1309
-11.1998
-11.2664
-11.3307
-11.3928
-11.4526
-11.5102
-11.5657
-11.6192
-11.6706
-11.72
-11.7675
-11.8132
-11.857
-11.899
-11.9394
-11.9781
-12.0152
-12.0507
-12.0848
-12.1175
-12.1488
-12.1788
-12.2076
-12.2351
-12.2614
-12.2866
-12.3107
-12.3338
-12.3559
-10.6952
-10.7239
-10.7974
-10.8788
-10.9567
-11.0338
-11.1094
-11.1822
-11.252
-11.3189
-11.3831
-11.4447
-11.5039
-11.5607
-11.6153
-11.6677
-11.7181
-11.7664
-11.8127
-11.8571
-11.8997
-11.9404
-11.9795
-12.017
-12.0529
-12.0873
-12.1202
-12.1518
-12.182
-12.2109
-12.2385
-12.265
-12.2903
-12.3145
-12.3377
-12.3599
-10.6192
-10.6569
-10.7471
-10.8399
-10.9253
-11.0086
-11.0892
-11.1658
-11.2386
-11.3079
-11.3741
-11.4374
-11.498
-11.5561
-11.6118
-11.6651
-11.7163
-11.7654
-11.8123
-11.8573
-11.9003
-11.9416
-11.981
-12.0188
-12.0551
-12.0897
-12.1229
-12.1547
-12.1851
-12.2142
-12.242
-12.2686
-12.294
-12.3184
-12.3416
-12.3638
-10.5364
-10.587
-10.6977
-10.8025
-10.8953
-10.9848
-11.0703
-11.1505
-11.226
-11.2976
-11.3656
-11.4304
-11.4923
-11.5516
-11.6083
-11.6626
-11.7146
-11.7643
-11.8119
-11.8575
-11.901
-11.9426
-11.9825
-12.0206
-12.0572
-12.0921
-12.1256
-12.1576
-12.1882
-12.2175
-12.2455
-12.2722
-12.2978
-12.3222
-12.3455
-12.3678
-10.4454
-10.5146
-10.6501
-10.7669
-10.8667
-10.9623
-11.0525
-11.136
-11.214
-11.2876
-11.3573
-11.4236
-11.4867
-11.5471
-11.6048
-11.66
-11.7128
-11.7633
-11.8115
-11.8576
-11.9016
-11.9437
-11.9839
-12.0224
-12.0593
-12.0945
-12.1283
-12.1605
-12.1914
-12.2209
-12.2491
-12.276
-12.3016
-12.3262
-12.3496
-12.372
-10.3447
-10.4402
-10.6047
-10.7328
-10.8391
-10.9407
-11.0354
-11.1219
-11.2023
-11.2778
-11.3491
-11.4168
-11.4811
-11.5426
-11.6012
-11.6574
-11.7111
-11.7623
-11.8112
-11.8578
-11.9024
-11.9449
-11.9855
-12.0243
-12.0615
-12.0971
-12.1311
-12.1637
-12.1948
-12.2245
-12.2528
-12.2799
-12.3057
-12.3303
-12.3539
-12.3763
-10.2315
-10.3637
-10.5617
-10.6999
-10.8122
-10.9197
-11.0189
-11.1083
-11.1909
-11.2683
-11.3412
-11.4102
-11.4759
-11.5384
-11.5981
-11.6552
-11.7097
-11.7617
-11.8112
-11.8585
-11.9035
-11.9465
-11.9875
-12.0267
-12.0642
-12.1001
-12.1345
-12.1673
-12.1986
-12.2285
-12.2571
-12.2843
-12.3103
-12.335
-12.3587
-12.3812
-10.0994
-10.2836
-10.5212
-10.6683
-10.786
-10.8997
-11.0038
-11.0959
-11.1806
-11.2598
-11.3344
-11.4047
-11.4716
-11.5353
-11.5959
-11.6541
-11.7094
-11.762
-11.8122
-11.86
-11.9054
-11.9487
-11.99
-12.0296
-12.0674
-12.1036
-12.1382
-12.1713
-12.2028
-12.233
-12.2617
-12.2891
-12.3151
-12.34
-12.3637
-12.3861
-9.93589
-10.2011
-10.4856
-10.6398
-10.763
-10.8831
-10.9917
-11.0859
-11.1722
-11.253
-11.3288
-11.4004
-11.4683
-11.533
-11.5948
-11.654
-11.7102
-11.7637
-11.8146
-11.863
-11.9091
-11.9528
-11.9945
-12.0343
-12.0725
-12.1089
-12.1438
-12.1771
-12.2089
-12.2392
-12.2681
-12.2956
-12.3218
-12.3467
-12.3705
-12.3929
-9.73349
-10.1311
-10.4588
-10.6135
-10.7429
-10.8719
-10.9839
-11.0809
-11.1691
-11.2512
-11.328
-11.4003
-11.4688
-11.534
-11.5964
-11.6559
-11.7124
-11.7662
-11.8174
-11.8659
-11.912
-11.9558
-11.9978
-12.0378
-12.0762
-12.1128
-12.1479
-12.1813
-12.2132
-12.2436
-12.2726
-12.3002
-12.3264
-12.3513
-12.3752
-12.3973
-9.50157
-10.109
-10.4585
-10.5997
-10.727
-10.8605
-10.9734
-11.0717
-11.1618
-11.2458
-11.3242
-11.3981
-11.4682
-11.5348
-11.5985
-11.6591
-11.7168
-11.7716
-11.8236
-11.8726
-11.9189
-11.9623
-12.0043
-12.0446
-12.0833
-12.1201
-12.1555
-12.1891
-12.2213
-12.2518
-12.281
-12.3086
-12.3351
-12.3599
-12.3839
-12.4061
-9.2131
-10.0644
-10.4597
-10.6009
-10.731
-10.8674
-10.9798
-11.0769
-11.166
-11.249
-11.327
-11.4006
-11.4706
-11.5374
-11.6014
-11.6625
-11.7208
-11.7761
-11.8286
-11.878
-11.9242
-11.9669
-12.0084
-12.0487
-12.0876
-12.1246
-12.16
-12.1937
-12.226
-12.2567
-12.2859
-12.3136
-12.3401
-12.365
-12.3889
-12.4111
-13.016
-13.0169
-13.0177
-13.0188
-13.0196
-13.019
-13.0159
-13.0097
-13.0006
-12.9894
-12.9777
-12.9667
-12.9572
-12.95
-12.9458
-12.9451
-12.9481
-12.9548
-12.965
-12.9786
-12.9953
-13.015
-13.0372
-13.0619
-13.0887
-13.1173
-13.1475
-13.1791
-13.2119
-13.2456
-13.28
-13.3149
-13.3502
-13.3857
-13.4211
-13.4563
-13.4912
-13.5255
-13.5592
-13.592
-13.6238
-13.6545
-13.6839
-13.7118
-13.7382
-13.7628
-13.7856
-13.8064
-13.825
-13.8416
-13.8559
-13.8676
-13.8766
-13.883
-13.8865
-13.8872
-13.8848
-13.8795
-13.871
-13.8594
-13.8447
-13.8269
-13.8062
-13.7827
-13.7567
-13.7286
-13.6989
-13.6683
-13.6379
-13.6088
-13.5824
-13.5607
-13.5452
-13.5377
-13.5356
-13.5351
-13.5343
-13.5321
-13.5283
-13.5235
-13.5185
-13.514
-13.5106
-13.5081
-13.506
-13.5041
-13.5023
-13.5009
-13.4999
-13.4992
-13.4989
-13.4986
-13.4985
-13.4984
-13.4984
-13.4986
-13.499
-13.4992
-13.4988
-13.4971
-13.4937
-13.4882
-13.4804
-13.4707
-13.4595
-13.447
-13.434
-13.4211
-13.4088
-13.3977
-13.3883
-13.381
-13.3759
-13.373
-13.3727
-13.3746
-13.3785
-13.3839
-13.3904
-13.3977
-13.4052
-13.4128
-13.4201
-13.427
-13.4332
-13.439
-13.4444
-13.4493
-13.4542
-13.4593
-13.4648
-13.4709
-13.4779
-13.4858
-13.4945
-13.5037
-13.5133
-13.5228
-13.5322
-13.5426
-13.5553
-13.5692
-13.5803
-13.5864
-13.5913
-13.6093
-13.6783
-13.8285
-14.0512
-14.3297
-14.6469
-14.9885
-15.344
-15.7061
-16.0692
-16.4294
-16.7841
-17.1316
-17.4707
-17.8009
-18.1218
-18.4336
-18.7362
-19.0298
-19.3148
-19.5914
-19.8597
-20.1202
-20.3729
-20.618
-20.8559
-21.0866
-21.3103
-21.527
-21.7366
-21.9393
-22.1354
-22.3249
-22.5075
-22.6827
-22.8503
-23.0104
-23.1627
-23.3073
-23.4438
-23.5722
-23.6922
-23.8036
-23.9062
-23.9997
-24.0838
-24.1583
-24.223
-24.2775
-24.3215
-24.3549
-24.3772
-24.3882
-24.3877
-24.3753
-24.3507
-24.3137
-24.264
-24.2013
-24.1255
-24.0362
-23.9329
-23.8155
-23.6841
-23.5389
-23.379
-23.2028
-23.0111
-22.8055
-22.5854
-22.3494
-22.0979
-21.8306
-21.5474
-21.2484
-20.9335
-20.6026
-20.2559
-19.8933
-19.515
-19.121
-18.7115
-18.2866
-17.8466
-17.3917
-16.9222
-16.4384
-15.9408
-15.4296
-14.9055
-14.3688
-13.8201
-13.26
-12.6891
-12.1081
-11.5176
-10.9184
-10.3113
-9.69711
-9.07659
-8.45062
-7.82011
-7.18596
-6.54911
-5.91048
-5.27101
-4.63164
-3.99336
-3.35712
-2.7239
-2.09468
-1.47038
-0.851951
-0.240359
0.3633
0.958043
1.54366
2.11978
2.68552
3.24005
3.7825
4.31218
4.82848
5.33081
5.81864
6.29146
6.74889
7.19052
7.616
8.02502
8.41733
8.79271
9.15101
9.49208
9.81582
10.1222
10.4111
10.6827
10.9369
11.1738
11.3935
11.5959
11.7827
11.9543
12.1101
12.2496
12.3734
12.4818
12.5753
12.6544
12.7195
12.7711
12.8098
12.8361
12.8504
12.8533
12.8455
12.8275
12.7998
12.7631
12.7179
12.6649
12.6045
12.5374
12.4641
12.3852
12.3016
12.2135
12.121
12.0248
11.9254
11.8232
11.7187
11.6123
11.5044
11.3954
11.2856
11.1751
11.0645
10.9537
10.8432
10.733
10.6235
10.5146
10.4066
10.2995
10.1936
10.0889
9.98555
9.88364
9.78333
9.68478
9.58818
9.49377
9.40184
9.3127
9.22679
9.14457
9.06662
8.99364
8.92642
8.86601
8.81347
8.77037
8.73819
8.71957
8.71692
8.73287
8.77263
8.8421
8.94781
9.11131
9.33359
9.71614
10.1248
-13.0213
-13.0224
-13.0244
-13.0273
-13.0298
-13.0305
-13.0281
-13.0223
-13.014
-13.0044
-12.9944
-12.9853
-12.9782
-12.9738
-12.9723
-12.9739
-12.9786
-12.9866
-12.9977
-13.0119
-13.0289
-13.0485
-13.0705
-13.0947
-13.1209
-13.1488
-13.1783
-13.209
-13.2409
-13.2737
-13.3071
-13.3411
-13.3755
-13.41
-13.4445
-13.4788
-13.5127
-13.5462
-13.579
-13.6109
-13.6419
-13.6717
-13.7003
-13.7275
-13.7531
-13.7771
-13.7992
-13.8194
-13.8376
-13.8536
-13.8674
-13.8787
-13.8875
-13.8937
-13.8971
-13.8978
-13.8956
-13.8904
-13.8823
-13.8712
-13.857
-13.8399
-13.82
-13.7975
-13.7727
-13.7459
-13.7176
-13.6885
-13.6593
-13.6312
-13.6055
-13.5833
-13.5658
-13.5529
-13.5441
-13.5384
-13.5333
-13.526
-13.5182
-13.5131
-13.5108
-13.5096
-13.5085
-13.5074
-13.5058
-13.5039
-13.502
-13.5001
-13.4987
-13.4977
-13.4972
-13.4971
-13.4973
-13.4979
-13.4988
-13.5001
-13.5015
-13.5028
-13.5032
-13.5022
-13.4991
-13.4937
-13.4861
-13.4766
-13.4655
-13.4534
-13.4407
-13.4281
-13.4161
-13.4052
-13.3958
-13.3883
-13.3832
-13.3805
-13.3803
-13.382
-13.3856
-13.3906
-13.3966
-13.4033
-13.4103
-13.4172
-13.4239
-13.4301
-13.4356
-13.4407
-13.4452
-13.4493
-13.4533
-13.4575
-13.4623
-13.468
-13.4746
-13.4822
-13.4908
-13.4998
-13.5089
-13.5175
-13.5245
-13.5291
-13.5319
-13.536
-13.5518
-13.5751
-13.5984
-13.6447
-13.7413
-13.9019
-14.1235
-14.3949
-14.7023
-15.0345
-15.3817
-15.7362
-16.0923
-16.4462
-16.7953
-17.1377
-17.4724
-17.7987
-18.1163
-18.4251
-18.7253
-19.0169
-19.3002
-19.5753
-19.8425
-20.102
-20.3539
-20.5985
-20.8359
-21.0663
-21.2898
-21.5064
-21.716
-21.9188
-22.1149
-22.3042
-22.4867
-22.6619
-22.8298
-22.9902
-23.143
-23.288
-23.4252
-23.5542
-23.6748
-23.7869
-23.8903
-23.9846
-24.0695
-24.145
-24.2105
-24.266
-24.3111
-24.3455
-24.3689
-24.3811
-24.3818
-24.3706
-24.3474
-24.3117
-24.2634
-24.2022
-24.1278
-24.04
-23.9384
-23.8228
-23.6931
-23.5493
-23.3907
-23.2168
-23.0272
-22.8234
-22.6049
-22.371
-22.1214
-21.8562
-21.5751
-21.2782
-20.9655
-20.6368
-20.2923
-19.932
-19.556
-19.1643
-18.7571
-18.3345
-17.8968
-17.4443
-16.9772
-16.4957
-16.0004
-15.4916
-14.9698
-14.4354
-13.8889
-13.331
-12.7622
-12.1833
-11.5949
-10.9977
-10.3926
-9.78025
-9.16155
-8.53733
-7.9085
-7.27596
-6.64064
-6.00346
-5.36536
-4.72728
-4.09016
-3.45499
-2.82274
-2.19435
-1.57071
-0.952674
-0.341035
0.263459
0.859835
1.44657
2.02292
2.58876
3.14333
3.6859
4.21578
4.73235
5.23505
5.72335
6.19676
6.65484
7.09721
7.5235
7.93344
8.32675
8.70324
9.06274
9.40513
9.73032
10.0383
10.3289
10.6023
10.8585
11.0978
11.3207
11.5271
11.7156
11.8865
12.0415
12.1809
12.3048
12.4136
12.5078
12.5877
12.6538
12.7065
12.7464
12.7739
12.7896
12.7939
12.7875
12.771
12.7448
12.7096
12.666
12.6145
12.5556
12.49
12.4182
12.3408
12.258
12.1704
12.0788
11.9838
11.8856
11.7848
11.6817
11.5767
11.4701
11.3624
11.2538
11.1446
11.0351
10.9255
10.816
10.7069
10.5983
10.4904
10.3832
10.2771
10.172
10.0681
9.96549
9.86431
9.76468
9.66679
9.57082
9.47701
9.38566
9.29708
9.21172
9.13002
9.05259
8.98012
8.9134
8.85349
8.8014
8.75881
8.72707
8.70891
8.70643
8.72274
8.7623
8.83053
8.93436
9.09285
9.3075
9.64993
9.98725
-13.0296
-13.0304
-13.0321
-13.0341
-13.0355
-13.0351
-13.0323
-13.0276
-13.0221
-13.0164
-13.0113
-13.0077
-13.0059
-13.0063
-13.0092
-13.0146
-13.0227
-13.0333
-13.0466
-13.0624
-13.0805
-13.1008
-13.1232
-13.1474
-13.1734
-13.2009
-13.2297
-13.2596
-13.2906
-13.3223
-13.3547
-13.3875
-13.4206
-13.4538
-13.4869
-13.5198
-13.5523
-13.5843
-13.6156
-13.646
-13.6755
-13.7039
-13.731
-13.7568
-13.781
-13.8035
-13.8243
-13.8433
-13.8602
-13.8752
-13.8879
-13.8984
-13.9066
-13.9121
-13.9151
-13.9155
-13.9133
-13.9083
-13.9006
-13.8903
-13.8773
-13.8617
-13.8437
-13.8233
-13.8008
-13.7766
-13.7511
-13.7247
-13.6981
-13.6718
-13.6467
-13.6234
-13.6027
-13.5847
-13.5699
-13.5575
-13.5463
-13.5354
-13.5249
-13.5164
-13.5106
-13.506
-13.5026
-13.5013
-13.5012
-13.5008
-13.4996
-13.4977
-13.4959
-13.4944
-13.4935
-13.4935
-13.4944
-13.4961
-13.4987
-13.502
-13.5053
-13.508
-13.5091
-13.5082
-13.505
-13.4996
-13.4922
-13.4832
-13.4727
-13.4613
-13.4494
-13.4377
-13.4267
-13.4169
-13.4085
-13.402
-13.3976
-13.3953
-13.3949
-13.3964
-13.3994
-13.4035
-13.4086
-13.4141
-13.4198
-13.4253
-13.4304
-13.435
-13.4389
-13.4422
-13.445
-13.4474
-13.4497
-13.4524
-13.4559
-13.4605
-13.4662
-13.473
-13.4807
-13.4878
-13.4932
-13.496
-13.4962
-13.4985
-13.509
-13.5304
-13.5695
-13.6243
-13.6907
-13.7844
-13.9214
-14.105
-14.3316
-14.5948
-14.8862
-15.1981
-15.5236
-15.857
-16.1936
-16.5299
-16.8635
-17.1924
-17.5155
-17.8317
-18.1407
-18.4422
-18.736
-19.022
-19.3004
-19.5713
-19.8348
-20.0912
-20.3404
-20.5827
-20.8182
-21.0469
-21.269
-21.4845
-21.6934
-21.8957
-22.0914
-22.2804
-22.4626
-22.6378
-22.8058
-22.9665
-23.1197
-23.2653
-23.4031
-23.5329
-23.6544
-23.7675
-23.8718
-23.9672
-24.0534
-24.1301
-24.197
-24.2539
-24.3005
-24.3364
-24.3615
-24.3754
-24.3778
-24.3685
-24.3471
-24.3134
-24.2672
-24.2081
-24.1358
-24.0502
-23.9509
-23.8378
-23.7106
-23.5688
-23.4121
-23.2408
-23.0547
-22.8538
-22.6379
-22.4066
-22.1599
-21.8975
-21.6193
-21.3254
-21.0156
-20.69
-20.3486
-19.9914
-19.6184
-19.2298
-18.8258
-18.4064
-17.9719
-17.5225
-17.0585
-16.5802
-16.088
-15.5824
-15.0636
-14.5323
-13.9889
-13.4341
-12.8683
-12.2923
-11.7067
-11.1123
-10.5099
-9.90018
-9.284
-8.66221
-8.03569
-7.40536
-6.77214
-6.13697
-5.50076
-4.86444
-4.22895
-3.59527
-2.96439
-2.33727
-1.71484
-1.09799
-0.487573
0.115642
0.710837
1.2969
1.87303
2.43869
2.99312
3.53562
4.06553
4.58224
5.08518
5.57382
6.04769
6.50634
6.94937
7.3764
7.78714
8.18132
8.55874
8.91922
9.26262
9.58885
9.89784
10.1895
10.4639
10.7212
10.9614
11.1845
11.3909
11.5808
11.7544
11.9124
12.0548
12.1816
12.2934
12.3904
12.4732
12.5421
12.5976
12.6403
12.6705
12.6889
12.6959
12.6922
12.6783
12.6547
12.6221
12.5811
12.5321
12.4757
12.4125
12.3432
12.2681
12.1878
12.1027
12.0136
11.9208
11.8248
11.7261
11.6249
11.5219
11.4172
11.3113
11.2044
11.0969
10.989
10.881
10.7731
10.6655
10.5583
10.4517
10.346
10.2411
10.1372
10.0345
9.93295
9.83282
9.73419
9.63725
9.54219
9.44925
9.35872
9.27093
9.18631
9.10532
9.02858
8.95674
8.89062
8.83127
8.77966
8.7375
8.70607
8.68796
8.68513
8.70091
8.73863
8.8029
8.90075
9.0479
9.23968
9.52458
9.7517
-13.0341
-13.0342
-13.0347
-13.0353
-13.0352
-13.0339
-13.0315
-13.0285
-13.0257
-13.0236
-13.0228
-13.0237
-13.0264
-13.0313
-13.0384
-13.0477
-13.0593
-13.073
-13.089
-13.107
-13.127
-13.1488
-13.1724
-13.1975
-13.224
-13.2518
-13.2806
-13.3105
-13.3411
-13.3723
-13.4039
-13.4359
-13.4681
-13.5002
-13.5323
-13.564
-13.5953
-13.6261
-13.6561
-13.6853
-13.7135
-13.7406
-13.7665
-13.7909
-13.8138
-13.8352
-13.8548
-13.8725
-13.8884
-13.9022
-13.9139
-13.9234
-13.9307
-13.9355
-13.938
-13.938
-13.9356
-13.9308
-13.9235
-13.9139
-13.9018
-13.8875
-13.871
-13.8524
-13.8318
-13.8094
-13.7857
-13.7611
-13.736
-13.7109
-13.6864