/*--------------------------------*- C++ -*----------------------------------*\
| =========                 |                                                 |
| \\      /  F ield         | OpenFOAM: The Open Source CFD Toolbox           |
|  \\    /   O peration     | Version:  2.4.0                                 |
|   \\  /    A nd           | Web:      www.OpenFOAM.org                      |
|    \\/     M anipulation  |                                                 |
\*---------------------------------------------------------------------------*/
FoamFile
{
    version     2.0;
    format      ascii;
    class       volVectorField;
    location    "0.3";
    object      U;
}
// * * * * * * * * * * * * * * * * * * * * * * * * * * * * * * * * * * * * * //

dimensions      [0 1 -1 0 0 0 0];

internalField   nonuniform List<vector> 
400
(
(0.261132 0.022617 0)
(0.417009 0.0354502 0)
(0.377622 0.0310394 -5.03155e-18)
(0.421507 0.0324919 0)
(0.453048 0.0328385 -5.28289e-18)
(0.485984 0.0329489 0)
(0.52165 0.0329252 0)
(0.559815 0.0327163 0)
(0.600325 0.0322798 0)
(0.642942 0.0315717 0)
(0.687267 0.0305452 -2.65725e-18)
(0.732703 0.0291533 2.48854e-18)
(0.778425 0.0273516 -4.50361e-18)
(0.823369 0.0251034 1.94994e-18)
(0.866233 0.0223854 0)
(0.90553 0.0191924 0)
(0.939628 0.0155492 0)
(0.967121 0.0115041 1.17769e-19)
(0.986075 0.00715782 0)
(0.997813 0.00247076 2.59367e-21)
(0.261349 0.0262038 0)
(0.416754 0.0383324 0)
(0.376572 0.0324976 0)
(0.421248 0.0341255 0)
(0.452694 0.0345079 5.28291e-18)
(0.485679 0.0346251 0)
(0.521423 0.0345956 0)
(0.559682 0.0343702 0)
(0.600304 0.0339021 0)
(0.643056 0.0331444 0)
(0.687541 0.0320473 2.65727e-18)
(0.733164 0.0305604 0)
(0.7791 0.0286369 2.25187e-18)
(0.824282 0.0262384 0)
(0.867402 0.0233411 0)
(0.906965 0.0199424 0)
(0.941325 0.0160676 0)
(0.969042 0.0117754 -1.19356e-19)
(0.988235 0.00717212 0)
(1.00029 0.00240554 1.21795e-22)
(0.262014 0.0184826 0)
(0.417562 0.0276568 -4.30017e-18)
(0.377476 0.0241797 0)
(0.422371 0.025275 0)
(0.453746 0.0256255 0)
(0.486665 0.0257161 0)
(0.522341 0.0256934 0)
(0.560526 0.0255268 0)
(0.601071 0.0251817 0)
(0.643742 0.0246235 0)
(0.688141 0.0238153 -2.65871e-18)
(0.733676 0.0227202 -2.49017e-18)
(0.779523 0.0213034 0)
(0.824617 0.0195364 9.76797e-19)
(0.867653 0.017401 0)
(0.907138 0.0148954 0)
(0.941429 0.0120341 -2.06489e-19)
(0.969088 0.008861 2.39225e-19)
(0.988252 0.00547085 2.59256e-20)
(1.00033 0.00187237 7.56424e-23)
(0.262502 0.019965 0)
(0.417728 0.0293024 4.41543e-22)
(0.376808 0.0251714 0)
(0.422089 0.02627 0)
(0.453374 0.026637 0)
(0.486276 0.0267294 0)
(0.521954 0.0267038 0)
(0.56014 0.0265286 0)
(0.600686 0.0261674 0)
(0.643357 0.0255842 0)
(0.687758 0.0247407 2.65871e-18)
(0.733293 0.0235986 2.49017e-18)
(0.779141 0.0221219 1.1279e-18)
(0.824237 0.0202809 -9.76797e-19)
(0.867274 0.0180569 0)
(0.906761 0.0154477 0)
(0.941056 0.0124708 2.06489e-19)
(0.968711 0.00917027 -1.19868e-19)
(0.987908 0.00566072 -2.59256e-20)
(1.00009 0.00195052 -2.79113e-21)
(0.262723 0.0141161 0)
(0.41791 0.0202775 4.29973e-18)
(0.37724 0.0175582 -2.51899e-18)
(0.422839 0.0183293 0)
(0.454075 0.0186258 0)
(0.486928 0.0186931 0)
(0.522559 0.0186728 0)
(0.560695 0.0185481 0)
(0.601186 0.018293 0)
(0.643801 0.0178822 0)
(0.688142 0.0172889 0)
(0.733617 0.0164861 1.24589e-18)
(0.779404 0.0154489 -2.25609e-18)
(0.824439 0.0141564 9.78053e-19)
(0.867419 0.0125957 0)
(0.906852 0.0107658 0)
(0.9411 0.00867829 0)
(0.968715 0.00636503 6.04941e-20)
(0.987901 0.00391354 -2.65075e-20)
(1.00013 0.00132012 0)
(0.263256 0.0135991 0)
(0.418299 0.0201513 2.14791e-18)
(0.376969 0.0176103 2.51899e-18)
(0.422718 0.01831 0)
(0.453894 0.0186077 0)
(0.486728 0.0186733 0)
(0.522356 0.0186544 0)
(0.560489 0.0185314 0)
(0.600977 0.0182792 0)
(0.643587 0.0178726 0)
(0.687924 0.0172851 0)
(0.733395 0.0164902 -1.24589e-18)
(0.779177 0.0154627 1.12819e-18)
(0.824208 0.014182 -1.95645e-18)
(0.867184 0.012635 0)
(0.906614 0.0108199 0)
(0.940861 0.00874784 0)
(0.968471 0.00644919 2.06426e-22)
(0.987671 0.00400328 2.65075e-20)
(0.999959 0.00139042 -1.49894e-21)
(0.26329 0.00935317 0)
(0.418224 0.012945 -4.2963e-18)
(0.377105 0.0110017 0)
(0.423149 0.0114559 0)
(0.454299 0.0116608 0)
(0.487102 0.011702 0)
(0.522701 0.0116879 0)
(0.560804 0.0116081 0)
(0.601259 0.0114464 0)
(0.643836 0.0111866 0)
(0.688137 0.010812 0)
(0.733571 0.0103059 0)
(0.779317 0.00965251 0)
(0.824311 0.00883887 9.78395e-19)
(0.867253 0.00785708 0)
(0.906651 0.00670666 0)
(0.94087 0.00539511 0)
(0.968455 0.00394289 -6.07005e-20)
(0.987655 0.00241419 0)
(0.999976 0.000819619 1.49894e-21)
(0.263666 0.00740637 0)
(0.418557 0.0112078 3.22171e-18)
(0.377042 0.0100594 0)
(0.423123 0.0104495 0)
(0.454236 0.0106349 0)
(0.487024 0.0106728 0)
(0.522619 0.0106618 0)
(0.560717 0.0105916 0)
(0.601168 0.0104481 0)
(0.643739 0.0102167 0)
(0.688036 0.00988245 0)
(0.733464 0.00943027 0)
(0.779205 0.00884592 0)
(0.824194 0.00811757 4.89409e-19)
(0.867131 0.00723762 0)
(0.906524 0.00620491 0)
(0.94074 0.00502548 0)
(0.968321 0.00371598 3.04747e-20)
(0.987525 0.00232809 0)
(0.999879 0.000806789 0)
(0.263661 0.00411346 0)
(0.418468 0.00535298 -5.36328e-19)
(0.377058 0.00428752 0)
(0.423312 0.00444557 0)
(0.454415 0.0045305 -6.60427e-19)
(0.487188 0.00454525 0)
(0.52277 0.00453893 0)
(0.560854 0.00450683 0)
(0.60129 0.00444262 0)
(0.643846 0.00433981 0)
(0.688126 0.00419174 0)
(0.733538 0.00399194 -3.11693e-19)
(0.779261 0.00373428 0)
(0.824234 0.00341376 -4.89409e-19)
(0.867155 0.00302743 0)
(0.906534 0.00257532 0)
(0.940737 0.00206057 0)
(0.968307 0.00149196 -4.57406e-20)
(0.987513 0.000891851 3.38707e-21)
(0.999886 0.00030558 3.86022e-22)
(0.263791 0.00150363 0)
(0.418593 0.00268121 -5.36997e-19)
(0.377055 0.00272572 0)
(0.423313 0.0028428 0)
(0.454402 0.00289375 6.60427e-19)
(0.48717 0.00290487 0)
(0.52275 0.00290258 0)
(0.560832 0.00288444 0)
(0.601267 0.0028468 0)
(0.64382 0.00278586 0)
(0.688098 0.00269763 0)
(0.733507 0.00257805 3.11693e-19)
(0.779229 0.00242332 0)
(0.824199 0.00223018 0)
(0.867118 0.00199644 0)
(0.906495 0.00172152 0)
(0.940696 0.00140678 0)
(0.968264 0.00105578 1.52659e-20)
(0.987471 0.000686379 -3.38707e-21)
(0.999854 0.00023662 -3.86022e-22)
(0.263791 -0.00150364 0)
(0.418593 -0.00268121 -5.36997e-19)
(0.377055 -0.00272572 0)
(0.423313 -0.00284279 0)
(0.454402 -0.00289375 6.60427e-19)
(0.48717 -0.00290487 0)
(0.52275 -0.00290258 0)
(0.560832 -0.00288443 0)
(0.601267 -0.0028468 0)
(0.64382 -0.00278586 0)
(0.688098 -0.00269762 0)
(0.733507 -0.00257805 3.11693e-19)
(0.779229 -0.00242332 0)
(0.824199 -0.00223018 0)
(0.867118 -0.00199644 0)
(0.906495 -0.00172152 0)
(0.940696 -0.00140678 0)
(0.968264 -0.00105578 1.52659e-20)
(0.987471 -0.000686378 -3.38707e-21)
(0.999854 -0.000236619 -3.86022e-22)
(0.263661 -0.00411346 0)
(0.418468 -0.00535298 -5.36328e-19)
(0.377058 -0.00428751 0)
(0.423312 -0.00444557 0)
(0.454415 -0.00453049 -6.60427e-19)
(0.487188 -0.00454525 0)
(0.52277 -0.00453893 0)
(0.560854 -0.00450682 0)
(0.60129 -0.00444262 0)
(0.643846 -0.00433981 0)
(0.688126 -0.00419173 0)
(0.733538 -0.00399194 -3.11693e-19)
(0.779261 -0.00373428 0)
(0.824234 -0.00341376 -4.89409e-19)
(0.867155 -0.00302742 0)
(0.906534 -0.00257532 0)
(0.940737 -0.00206057 0)
(0.968307 -0.00149196 -4.57406e-20)
(0.987513 -0.000891848 3.38707e-21)
(0.999886 -0.000305578 3.86022e-22)
(0.263666 -0.00740637 0)
(0.418557 -0.0112078 3.22171e-18)
(0.377042 -0.0100594 0)
(0.423123 -0.0104495 0)
(0.454236 -0.0106349 0)
(0.487024 -0.0106728 0)
(0.522619 -0.0106618 0)
(0.560717 -0.0105916 0)
(0.601168 -0.0104481 0)
(0.643739 -0.0102167 0)
(0.688036 -0.00988245 0)
(0.733464 -0.00943027 0)
(0.779205 -0.00884593 0)
(0.824194 -0.00811757 4.89409e-19)
(0.867131 -0.00723761 0)
(0.906524 -0.00620491 0)
(0.94074 -0.00502549 0)
(0.968321 -0.00371598 3.04747e-20)
(0.987525 -0.00232809 0)
(0.999879 -0.000806788 0)
(0.26329 -0.00935317 0)
(0.418224 -0.012945 -4.2963e-18)
(0.377105 -0.0110017 0)
(0.423149 -0.0114559 0)
(0.454299 -0.0116608 0)
(0.487102 -0.011702 0)
(0.522701 -0.0116879 0)
(0.560804 -0.0116081 0)
(0.601259 -0.0114464 0)
(0.643836 -0.0111866 0)
(0.688137 -0.010812 0)
(0.733571 -0.0103059 0)
(0.779317 -0.00965251 0)
(0.824311 -0.00883887 9.78395e-19)
(0.867253 -0.00785708 0)
(0.906651 -0.00670666 0)
(0.94087 -0.00539511 0)
(0.968455 -0.00394289 -6.07005e-20)
(0.987655 -0.00241419 0)
(0.999976 -0.000819618 1.49894e-21)
(0.263256 -0.0135991 0)
(0.418299 -0.0201513 2.14791e-18)
(0.376969 -0.0176103 2.51899e-18)
(0.422718 -0.01831 0)
(0.453894 -0.0186077 0)
(0.486728 -0.0186733 0)
(0.522356 -0.0186544 0)
(0.560489 -0.0185314 0)
(0.600977 -0.0182792 0)
(0.643587 -0.0178726 0)
(0.687924 -0.0172851 0)
(0.733395 -0.0164902 -1.24589e-18)
(0.779177 -0.0154627 1.12819e-18)
(0.824208 -0.014182 -1.95645e-18)
(0.867184 -0.012635 0)
(0.906614 -0.0108199 0)
(0.940861 -0.00874784 0)
(0.968471 -0.00644919 2.06426e-22)
(0.987671 -0.00400328 2.65074e-20)
(0.999959 -0.00139042 -1.49894e-21)
(0.262723 -0.0141161 0)
(0.41791 -0.0202775 4.29973e-18)
(0.37724 -0.0175582 -2.51899e-18)
(0.422839 -0.0183293 0)
(0.454075 -0.0186258 0)
(0.486928 -0.0186931 0)
(0.522559 -0.0186728 0)
(0.560695 -0.018548 0)
(0.601186 -0.018293 0)
(0.643801 -0.0178822 0)
(0.688142 -0.0172888 0)
(0.733617 -0.0164861 1.24589e-18)
(0.779404 -0.0154489 -2.25609e-18)
(0.824439 -0.0141564 9.78053e-19)
(0.867419 -0.0125957 0)
(0.906852 -0.0107658 0)
(0.9411 -0.00867829 0)
(0.968715 -0.00636503 6.04941e-20)
(0.987901 -0.00391353 -2.65074e-20)
(1.00013 -0.00132012 0)
(0.262502 -0.019965 0)
(0.417728 -0.0293024 4.41554e-22)
(0.376808 -0.0251714 0)
(0.422089 -0.02627 0)
(0.453374 -0.026637 0)
(0.486276 -0.0267294 0)
(0.521954 -0.0267038 0)
(0.56014 -0.0265286 0)
(0.600686 -0.0261674 0)
(0.643357 -0.0255842 0)
(0.687758 -0.0247407 2.65871e-18)
(0.733293 -0.0235986 2.49017e-18)
(0.779141 -0.0221219 1.1279e-18)
(0.824237 -0.0202809 -9.76797e-19)
(0.867274 -0.0180569 0)
(0.906761 -0.0154477 0)
(0.941056 -0.0124708 2.06489e-19)
(0.968711 -0.00917027 -1.19868e-19)
(0.987908 -0.00566071 -2.59255e-20)
(1.00009 -0.00195052 -2.79113e-21)
(0.262014 -0.0184826 0)
(0.417562 -0.0276568 -4.30017e-18)
(0.377476 -0.0241797 0)
(0.422371 -0.025275 0)
(0.453746 -0.0256255 0)
(0.486665 -0.0257161 0)
(0.522341 -0.0256934 0)
(0.560526 -0.0255268 0)
(0.601071 -0.0251817 0)
(0.643742 -0.0246235 0)
(0.688141 -0.0238153 -2.65871e-18)
(0.733676 -0.0227202 -2.49017e-18)
(0.779523 -0.0213034 0)
(0.824617 -0.0195364 9.76797e-19)
(0.867653 -0.017401 0)
(0.907138 -0.0148954 0)
(0.941429 -0.0120341 -2.06489e-19)
(0.969088 -0.008861 2.39225e-19)
(0.988252 -0.00547085 2.59255e-20)
(1.00033 -0.00187237 7.56424e-23)
(0.261349 -0.0262038 0)
(0.416754 -0.0383324 0)
(0.376572 -0.0324976 0)
(0.421248 -0.0341255 0)
(0.452694 -0.0345079 5.28291e-18)
(0.485679 -0.0346251 0)
(0.521423 -0.0345956 0)
(0.559682 -0.0343702 0)
(0.600304 -0.0339021 0)
(0.643056 -0.0331444 0)
(0.687541 -0.0320473 2.65727e-18)
(0.733164 -0.0305604 0)
(0.7791 -0.0286369 2.25187e-18)
(0.824282 -0.0262384 0)
(0.867402 -0.0233411 0)
(0.906965 -0.0199424 0)
(0.941325 -0.0160676 0)
(0.969042 -0.0117754 -1.19356e-19)
(0.988235 -0.00717211 0)
(1.00029 -0.00240554 1.21795e-22)
(0.261132 -0.022617 0)
(0.417009 -0.0354502 0)
(0.377622 -0.0310394 5.03155e-18)
(0.421507 -0.0324919 0)
(0.453048 -0.0328385 -5.28289e-18)
(0.485984 -0.0329489 0)
(0.52165 -0.0329252 0)
(0.559815 -0.0327163 0)
(0.600325 -0.0322798 0)
(0.642942 -0.0315717 0)
(0.687267 -0.0305452 -2.65725e-18)
(0.732703 -0.0291533 -2.48854e-18)
(0.778425 -0.0273516 -5.89789e-23)
(0.823369 -0.0251034 -1.94994e-18)
(0.866233 -0.0223854 0)
(0.90553 -0.0191924 0)
(0.939628 -0.0155492 0)
(0.96712 -0.0115041 -1.17769e-19)
(0.986075 -0.00715782 0)
(0.997814 -0.00247076 2.59367e-21)
)
;

boundaryField
{
    inlet
    {
        type            fixedValue;
        value           uniform (0.3333 0 0);
    }
    outlet
    {
        type            zeroGradient;
    }
    fixedWalls
    {
        type            fixedValue;
        value           uniform (0 0 0);
    }
    frontAndBack
    {
        type            empty;
    }
}


// ************************************************************************* //
