/*--------------------------------*- C++ -*----------------------------------*\
| =========                 |                                                 |
| \\      /  F ield         | OpenFOAM: The Open Source CFD Toolbox           |
|  \\    /   O peration     | Version:  2.4.0                                 |
|   \\  /    A nd           | Web:      www.OpenFOAM.org                      |
|    \\/     M anipulation  |                                                 |
\*---------------------------------------------------------------------------*/
FoamFile
{
    version     2.0;
    format      ascii;
    class       volScalarField;
    location    "450";
    object      p;
}
// * * * * * * * * * * * * * * * * * * * * * * * * * * * * * * * * * * * * * //

dimensions      [0 2 -2 0 0 0 0];

internalField   nonuniform List<scalar> 
48900
(
-0.173149
-1.44071
-2.00896
-2.20574
-2.41789
-2.62887
-2.80251
-2.95356
-3.09268
-3.21784
-3.32864
-3.42552
-3.50828
-3.57928
-3.64013
-3.69079
-3.73022
-3.75811
-3.77456
-3.77977
-3.77413
-3.75813
-3.73262
-3.69849
-3.6562
-3.60634
-3.54924
-3.48525
-3.41458
-3.3372
-3.25336
-3.16303
-3.06527
-2.96258
-2.84724
-2.74251
-0.470047
-1.48726
-2.01011
-2.20864
-2.42085
-2.63144
-2.80573
-2.95631
-3.09443
-3.21834
-3.32784
-3.42404
-3.50697
-3.57808
-3.63852
-3.68838
-3.72706
-3.75433
-3.77033
-3.77525
-3.76944
-3.75325
-3.72764
-3.69355
-3.65139
-3.60173
-3.54487
-3.48117
-3.41079
-3.33373
-3.25026
-3.16029
-3.06312
-2.96052
-2.84689
-2.751
-0.723959
-1.51266
-2.00986
-2.22529
-2.43607
-2.63972
-2.80982
-2.95665
-3.09145
-3.21236
-3.31947
-3.41394
-3.4956
-3.56573
-3.62522
-3.67417
-3.71224
-3.73923
-3.75521
-3.76038
-3.75518
-3.74004
-3.71564
-3.6827
-3.64171
-3.59322
-3.53758
-3.47511
-3.40601
-3.33034
-3.24828
-3.15983
-3.06434
-2.96322
-2.85223
-2.74167
-0.976682
-1.56433
-2.02685
-2.25106
-2.45339
-2.64769
-2.8132
-2.95813
-3.09066
-3.20931
-3.31465
-3.40795
-3.48866
-3.55788
-3.61652
-3.66471
-3.70226
-3.729
-3.745
-3.75045
-3.74592
-3.73185
-3.70864
-3.67686
-3.63714
-3.58999
-3.5358
-3.47488
-3.40744
-3.33361
-3.25354
-3.16732
-3.07462
-2.97644
-2.86862
-2.75751
-1.20314
-1.64082
-2.0578
-2.27939
-2.47341
-2.65975
-2.8208
-2.9636
-3.09251
-3.20808
-3.31091
-3.40192
-3.48118
-3.54915
-3.60671
-3.65397
-3.69087
-3.71731
-3.73337
-3.73925
-3.73544
-3.72232
-3.7003
-3.66997
-3.6319
-3.58659
-3.53441
-3.47566
-3.4106
-3.33938
-3.26218
-3.17919
-3.09033
-2.99633
-2.89428
-2.79052
-1.39238
-1.72684
-2.09756
-2.31214
-2.49851
-2.67653
-2.83242
-2.97113
-3.09623
-3.20876
-3.30912
-3.39753
-3.47512
-3.54171
-3.59809
-3.64446
-3.6807
-3.70677
-3.72281
-3.72903
-3.72584
-3.71366
-3.69292
-3.66414
-3.62784
-3.5845
-3.53448
-3.47811
-3.41565
-3.34735
-3.2734
-3.19409
-3.10945
-3.02015
-2.92487
-2.82876
-1.55219
-1.81281
-2.1418
-2.34789
-2.52657
-2.69627
-2.84655
-2.98077
-3.10208
-3.21135
-3.30892
-3.39506
-3.47068
-3.53554
-3.59045
-3.63577
-3.67134
-3.69706
-3.71304
-3.71948
-3.71685
-3.70557
-3.68605
-3.65877
-3.62422
-3.58284
-3.53503
-3.48111
-3.4214
-3.35614
-3.28563
-3.21019
-3.13001
-3.04585
-2.95749
-2.86875
-1.69321
-1.89713
-2.18833
-2.38506
-2.55581
-2.71756
-2.86219
-2.99198
-3.10946
-3.21538
-3.31007
-3.39386
-3.46736
-3.53055
-3.58407
-3.62811
-3.66283
-3.68818
-3.70418
-3.71083
-3.70874
-3.69837
-3.68008
-3.65429
-3.62149
-3.58213
-3.53659
-3.48522
-3.42834
-3.36626
-3.2993
-3.22787
-3.15231
-3.07342
-2.99169
-2.90997
-1.82138
-1.9806
-2.23673
-2.42313
-2.58565
-2.73975
-2.87875
-3.00412
-3.11777
-3.22035
-3.31218
-3.39358
-3.465
-3.52653
-3.57864
-3.62149
-3.65526
-3.68007
-3.69623
-3.70317
-3.70166
-3.6922
-3.67513
-3.65085
-3.61984
-3.58253
-3.53933
-3.49057
-3.4366
-3.37777
-3.31446
-3.24712
-3.17623
-3.10261
-3.02714
-2.95197
-1.93952
-2.06367
-2.28724
-2.46226
-2.61622
-2.76271
-2.89606
-3.01693
-3.12677
-3.22604
-3.31506
-3.39408
-3.46347
-3.52335
-3.5741
-3.61583
-3.64877
-3.67297
-3.68913
-3.6965
-3.69561
-3.68708
-3.67127
-3.64858
-3.61944
-3.58428
-3.54348
-3.49741
-3.44644
-3.39095
-3.33135
-3.26815
-3.20191
-3.13346
-3.06385
-2.99466
-2.04925
-2.14625
-2.34004
-2.50278
-2.64785
-2.78665
-2.91421
-3.03049
-3.13645
-3.23244
-3.31866
-3.39534
-3.46275
-3.52102
-3.57047
-3.61119
-3.6434
-3.66712
-3.68302
-3.69103
-3.69089
-3.68333
-3.66883
-3.64775
-3.62052
-3.58754
-3.54921
-3.50591
-3.45802
-3.40595
-3.35016
-3.29114
-3.22952
-3.16609
-3.10194
-3.0382
-2.15179
-2.22797
-2.39505
-2.54494
-2.68087
-2.81184
-2.93344
-3.04497
-3.14699
-3.23965
-3.32309
-3.39743
-3.46291
-3.51962
-3.56783
-3.60762
-3.63925
-3.66266
-3.67829
-3.68686
-3.68764
-3.68116
-3.66804
-3.64866
-3.6234
-3.5927
-3.55692
-3.51646
-3.47173
-3.42314
-3.37115
-3.31631
-3.25924
-3.20067
-3.14163
-3.08289
-2.24809
-2.3084
-2.45196
-2.58883
-2.71549
-2.83855
-2.95401
-3.06064
-3.15861
-3.24789
-3.32851
-3.40053
-3.46409
-3.51928
-3.56632
-3.60527
-3.63638
-3.65964
-3.67525
-3.68429
-3.68612
-3.68081
-3.66916
-3.65156
-3.62839
-3.60005
-3.56692
-3.5294
-3.4879
-3.44284
-3.39471
-3.34403
-3.29141
-3.23753
-3.18329
-3.1292
-2.33906
-2.38714
-2.51039
-2.63438
-2.75177
-2.86692
-2.97611
-3.0777
-3.17152
-3.25736
-3.33513
-3.4048
-3.46647
-3.52017
-3.56609
-3.60425
-3.6349
-3.65808
-3.674
-3.68371
-3.68649
-3.68243
-3.67236
-3.65666
-3.63568
-3.60981
-3.57944
-3.54496
-3.50678
-3.46533
-3.42109
-3.37456
-3.32633
-3.277
-3.22736
-3.17768
-2.4148
-2.45438
-2.56245
-2.67551
-2.78482
-2.8931
-2.99671
-3.09379
-3.18389
-3.26665
-3.34187
-3.40947
-3.46947
-3.52187
-3.56682
-3.60433
-3.63463
-3.6578
-3.67412
-3.68447
-3.68807
-3.68515
-3.67651
-3.66251
-3.64348
-3.6198
-3.59186
-3.56004
-3.52475
-3.48642
-3.44551
-3.4025
-3.35795
-3.31237
-3.26649
-3.22039
-2.47878
-2.51253
-2.60848
-2.7125
-2.81489
-2.91717
-3.01587
-3.10893
-3.19569
-3.27569
-3.34864
-3.41438
-3.47289
-3.52414
-3.56824
-3.60521
-3.63524
-3.65846
-3.67516
-3.68605
-3.6904
-3.68853
-3.68118
-3.66871
-3.65142
-3.62968
-3.60388
-3.5744
-3.54164
-3.50602
-3.46799
-3.428
-3.38656
-3.34414
-3.30139
-3.2583
-2.5428
-2.57177
-2.65643
-2.75166
-2.84708
-2.94324
-3.03688
-3.12576
-3.20905
-3.28617
-3.35674
-3.42056
-3.47754
-3.52762
-3.57089
-3.60734
-3.63717
-3.66051
-3.67766
-3.68915
-3.69436
-3.69367
-3.68775
-3.67694
-3.66154
-3.64191
-3.61843
-3.59146
-3.5614
-3.52866
-3.49366
-3.45684
-3.41866
-3.37954
-3.34002
-3.3001
-2.60688
-2.63183
-2.70621
-2.79294
-2.88142
-2.97142
-3.05987
-3.14446
-3.22415
-3.29828
-3.3664
-3.42824
-3.48365
-3.53256
-3.57501
-3.61098
-3.64068
-3.66423
-3.68189
-3.69407
-3.70027
-3.7009
-3.69656
-3.68757
-3.67423
-3.65689
-3.6359
-3.61163
-3.58447
-3.5548
-3.52301
-3.48953
-3.45476
-3.41909
-3.38297
-3.34639
-2.67092
-2.69251
-2.75765
-2.83624
-2.91789
-3.00174
-3.08495
-3.16514
-3.24114
-3.3122
-3.3778
-3.4376
-3.49143
-3.53917
-3.58082
-3.61638
-3.64601
-3.66983
-3.68808
-3.70105
-3.70838
-3.71047
-3.70786
-3.70085
-3.68974
-3.67486
-3.65656
-3.63518
-3.6111
-3.58468
-3.5563
-3.52633
-3.49515
-3.4631
-3.43055
-3.39751
-2.73488
-2.75367
-2.81057
-2.88145
-2.95645
-3.03424
-3.11219
-3.18792
-3.26016
-3.32809
-3.39112
-3.44887
-3.5011
-3.54767
-3.58857
-3.62376
-3.6534
-3.67758
-3.6965
-3.71038
-3.71896
-3.72266
-3.72194
-3.71708
-3.70837
-3.69613
-3.6807
-3.66241
-3.6416
-3.61863
-3.59384
-3.56757
-3.54017
-3.51193
-3.48316
-3.45391
-2.79871
-2.81514
-2.86478
-2.92844
-2.99704
-3.06891
-3.14163
-3.2129
-3.28136
-3.34613
-3.40657
-3.46225
-3.51289
-3.55833
-3.59851
-3.6334
-3.66312
-3.68773
-3.70743
-3.72234
-3.73233
-3.73778
-3.7391
-3.73656
-3.73044
-3.72104
-3.70867
-3.69366
-3.67632
-3.65699
-3.63599
-3.61362
-3.5902
-3.56598
-3.54124
-3.51604
-2.86236
-2.87681
-2.92009
-2.97706
-3.03956
-3.10571
-3.17332
-3.24017
-3.30486
-3.36647
-3.42432
-3.47794
-3.52703
-3.57138
-3.6109
-3.64557
-3.67545
-3.7006
-3.72118
-3.73726
-3.7488
-3.75617
-3.7597
-3.75966
-3.7563
-3.74992
-3.74081
-3.72928
-3.71562
-3.70013
-3.68312
-3.66486
-3.64563
-3.62568
-3.60521
-3.58435
-2.92578
-2.93852
-2.97628
-3.02714
-3.08389
-3.1446
-3.20726
-3.26978
-3.33076
-3.38925
-3.44456
-3.49617
-3.54375
-3.58707
-3.62602
-3.66055
-3.69069
-3.71649
-3.73808
-3.75546
-3.76871
-3.77816
-3.78408
-3.78671
-3.78631
-3.78314
-3.77749
-3.76963
-3.75984
-3.74841
-3.73559
-3.72167
-3.70687
-3.69141
-3.6755
-3.65928
-2.98887
-3.00016
-3.03316
-3.07849
-3.1299
-3.18549
-3.24341
-3.30176
-3.35914
-3.41461
-3.46744
-3.51711
-3.56327
-3.60565
-3.64413
-3.67862
-3.70914
-3.73571
-3.75844
-3.77728
-3.79242
-3.80411
-3.81259
-3.81808
-3.82082
-3.82106
-3.81906
-3.81508
-3.80937
-3.80219
-3.7938
-3.78442
-3.77429
-3.76359
-3.75251
-3.74122
-3.05156
-3.06159
-3.09051
-3.1309
-3.17742
-3.22824
-3.28172
-3.3361
-3.39005
-3.44262
-3.4931
-3.54095
-3.58579
-3.62735
-3.66547
-3.70006
-3.73109
-3.75858
-3.78257
-3.80307
-3.82027
-3.83438
-3.8456
-3.85414
-3.86021
-3.86405
-3.8659
-3.86599
-3.86457
-3.86186
-3.8581
-3.8535
-3.84826
-3.84258
-3.83658
-3.83052
-3.1137
-3.12265
-3.1481
-3.18415
-3.22625
-3.27271
-3.32208
-3.37276
-3.42349
-3.47336
-3.52165
-3.56783
-3.61151
-3.65239
-3.6903
-3.72512
-3.75682
-3.78539
-3.81081
-3.83315
-3.8526
-3.86931
-3.88346
-3.89523
-3.90483
-3.91247
-3.91836
-3.92273
-3.92578
-3.92775
-3.92883
-3.92923
-3.92912
-3.92867
-3.92804
-3.92747
-3.17516
-3.18318
-3.2057
-3.23797
-3.27615
-3.3187
-3.36434
-3.41164
-3.45943
-3.50683
-3.55315
-3.59786
-3.64055
-3.68093
-3.71881
-3.75405
-3.78659
-3.81639
-3.84344
-3.86784
-3.88972
-3.90922
-3.92648
-3.94167
-3.95499
-3.96661
-3.97674
-3.98558
-3.99332
-4.00016
-4.00629
-4.01188
-4.01711
-4.02214
-4.0271
-4.03227
-3.23573
-3.24297
-3.26305
-3.29208
-3.32684
-3.36596
-3.40829
-3.45259
-3.49777
-3.543
-3.58761
-3.63109
-3.67303
-3.71313
-3.75117
-3.78703
-3.8206
-3.85182
-3.88073
-3.9074
-3.93191
-3.95438
-3.97494
-3.99375
-4.01097
-4.02677
-4.04133
-4.05482
-4.06743
-4.07933
-4.09068
-4.10167
-4.11243
-4.12314
-4.13389
-4.145
-3.29515
-3.30173
-3.31982
-3.34617
-3.37801
-3.41418
-3.45368
-3.4954
-3.53835
-3.58175
-3.62497
-3.66751
-3.70896
-3.74903
-3.78749
-3.82418
-3.85899
-3.89189
-3.92289
-3.95203
-3.97937
-4.00501
-4.02908
-4.05169
-4.073
-4.09316
-4.11232
-4.13063
-4.14827
-4.16539
-4.18215
-4.19869
-4.21515
-4.23169
-4.2484
-4.26559
-3.35309
-3.35913
-3.37563
-3.3998
-3.42925
-3.46299
-3.50015
-3.53976
-3.58092
-3.62289
-3.66508
-3.70701
-3.74829
-3.78862
-3.82775
-3.86554
-3.90188
-3.93672
-3.97003
-4.00186
-4.03224
-4.06127
-4.08902
-4.11563
-4.1412
-4.16587
-4.18979
-4.21309
-4.2359
-4.25839
-4.28067
-4.3029
-4.32518
-4.34767
-4.37045
-4.39382
-3.40909
-3.41471
-3.42998
-3.45246
-3.48006
-3.51191
-3.54728
-3.58529
-3.62512
-3.6661
-3.70768
-3.74939
-3.79085
-3.83177
-3.87191
-3.91112
-3.94926
-3.98629
-4.02217
-4.05691
-4.09055
-4.12315
-4.15479
-4.18555
-4.21555
-4.2449
-4.27371
-4.30211
-4.33023
-4.35819
-4.3861
-4.41409
-4.44228
-4.47077
-4.49967
-4.52924
-3.46254
-3.46786
-3.48224
-3.50352
-3.52979
-3.56031
-3.59445
-3.63141
-3.67045
-3.71095
-3.75238
-3.79431
-3.83637
-3.87826
-3.91977
-3.96071
-4.00097
-4.04046
-4.07917
-4.11706
-4.15418
-4.19055
-4.22624
-4.26133
-4.2959
-4.33005
-4.36388
-4.39749
-4.43098
-4.46448
-4.49807
-4.53187
-4.56598
-4.60049
-4.63548
-4.67122
-3.51264
-3.51779
-3.53162
-3.55216
-3.57765
-3.60743
-3.64093
-3.67744
-3.71626
-3.75683
-3.79864
-3.84127
-3.88438
-3.92767
-3.97093
-4.01396
-4.05666
-4.09893
-4.14072
-4.18202
-4.22282
-4.26316
-4.30308
-4.34264
-4.38191
-4.42096
-4.45988
-4.49876
-4.53768
-4.57674
-4.61602
-4.6556
-4.69559
-4.73605
-4.77706
-4.81886
-3.5583
-3.56341
-3.57703
-3.5973
-3.62258
-3.65223
-3.68574
-3.72244
-3.76169
-3.80293
-3.84569
-3.88958
-3.93424
-3.9794
-4.02483
-4.07035
-4.11584
-4.1612
-4.20636
-4.2513
-4.29601
-4.3405
-4.38481
-4.42896
-4.47303
-4.51706
-4.56112
-4.60529
-4.64963
-4.69422
-4.73913
-4.78443
-4.83019
-4.87649
-4.92336
-4.97103
-3.59678
-3.60198
-3.61573
-3.63626
-3.66192
-3.6921
-3.72629
-3.76386
-3.80419
-3.84674
-3.89104
-3.93672
-3.98342
-4.03088
-4.07886
-4.12719
-4.17574
-4.2244
-4.2731
-4.32181
-4.3705
-4.41917
-4.46785
-4.51655
-4.56532
-4.6142
-4.66325
-4.71251
-4.76204
-4.81191
-4.86216
-4.91286
-4.96406
-5.01581
-5.06814
-5.12126
-3.62535
-3.63074
-3.64494
-3.66619
-3.69278
-3.72406
-3.75954
-3.79857
-3.84054
-3.8849
-3.9312
-3.97905
-4.02812
-4.07813
-4.12885
-4.18012
-4.23178
-4.28373
-4.3359
-4.38824
-4.44072
-4.49334
-4.54609
-4.599
-4.65208
-4.70539
-4.75894
-4.81279
-4.86697
-4.92154
-4.97653
-5.03199
-5.08795
-5.14447
-5.20156
-5.2594
-3.64408
-3.64959
-3.66449
-3.68689
-3.71487
-3.74772
-3.78495
-3.82591
-3.86992
-3.91646
-3.96506
-4.01534
-4.06695
-4.11963
-4.17315
-4.22732
-4.28202
-4.33713
-4.39257
-4.4483
-4.50427
-4.56048
-4.61691
-4.67359
-4.73052
-4.78773
-4.84524
-4.90309
-4.96132
-5.01994
-5.07901
-5.13854
-5.19857
-5.25914
-5.32024
-5.38205
-3.65388
-3.65954
-3.67544
-3.69937
-3.72913
-3.76397
-3.80337
-3.84661
-3.89302
-3.94203
-3.99317
-4.04605
-4.10033
-4.15574
-4.21206
-4.26911
-4.32675
-4.38487
-4.4434
-4.50227
-4.56146
-4.62094
-4.68071
-4.74076
-4.80111
-4.86178
-4.92278
-4.98414
-5.04588
-5.10802
-5.1706
-5.23363
-5.29714
-5.36114
-5.42565
-5.49081
-3.65543
-3.66151
-3.6787
-3.70449
-3.7364
-3.77361
-3.81554
-3.86142
-3.9105
-3.96222
-4.01609
-4.0717
-4.12874
-4.18691
-4.24602
-4.30587
-4.36635
-4.42733
-4.48876
-4.55056
-4.61271
-4.67518
-4.73796
-4.80105
-4.86445
-4.92818
-4.99225
-5.05668
-5.12149
-5.18669
-5.2523
-5.31835
-5.38483
-5.45178
-5.51918
-5.58718
-3.64942
-3.6562
-3.675
-3.70298
-3.73743
-3.7774
-3.82221
-3.87102
-3.92305
-3.97767
-4.03441
-4.09286
-4.15269
-4.21363
-4.27548
-4.33807
-4.40126
-4.46496
-4.5291
-4.59363
-4.65849
-4.72369
-4.7892
-4.85501
-4.92114
-4.9876
-5.05438
-5.12151
-5.189
-5.25686
-5.3251
-5.39374
-5.46278
-5.53225
-5.60212
-5.67254
-3.63651
-3.64417
-3.66493
-3.69552
-3.73293
-3.77604
-3.82408
-3.87612
-3.9313
-3.98899
-4.04871
-4.11006
-4.1727
-4.23639
-4.30093
-4.36615
-4.43195
-4.49822
-4.5649
-4.63194
-4.69931
-4.76699
-4.83497
-4.90324
-4.97181
-5.04068
-5.10986
-5.17936
-5.2492
-5.31938
-5.3899
-5.46079
-5.53204
-5.60366
-5.67564
-5.74812
-3.61728
-3.62585
-3.649
-3.68273
-3.72356
-3.77023
-3.82183
-3.87735
-3.93588
-3.99679
-4.05957
-4.12385
-4.1893
-4.25569
-4.32284
-4.3906
-4.45887
-4.52756
-4.59661
-4.66598
-4.73565
-4.8056
-4.87581
-4.94629
-5.01704
-5.08806
-5.15937
-5.23096
-5.30285
-5.37505
-5.44757
-5.5204
-5.59355
-5.66703
-5.74081
-5.81505
-3.59211
-3.60169
-3.62772
-3.6652
-3.70997
-3.7606
-3.8161
-3.87535
-3.93741
-4.00162
-4.06752
-4.13472
-4.20295
-4.27199
-4.34166
-4.41185
-4.48245
-4.55341
-4.62468
-4.69621
-4.76798
-4.83999
-4.91223
-4.9847
-5.0574
-5.13033
-5.20352
-5.27695
-5.35065
-5.42462
-5.49886
-5.57337
-5.64816
-5.72324
-5.79857
-5.87431
-3.56125
-3.57204
-3.6016
-3.64352
-3.69278
-3.74779
-3.80751
-3.87071
-3.93642
-4.00402
-4.07304
-4.14316
-4.21411
-4.2857
-4.3578
-4.4303
-4.50312
-4.5762
-4.64952
-4.72303
-4.79674
-4.87063
-4.94469
-5.01895
-5.09339
-5.16803
-5.24288
-5.31794
-5.39322
-5.46873
-5.54446
-5.62043
-5.69664
-5.77308
-5.84974
-5.92676
-3.52488
-3.53719
-3.57108
-3.61826
-3.6726
-3.73242
-3.79665
-3.86399
-3.93346
-4.00446
-4.0766
-4.14958
-4.22317
-4.29723
-4.37164
-4.44633
-4.52122
-4.59629
-4.6715
-4.74685
-4.82231
-4.8979
-4.97362
-5.04948
-5.12548
-5.20163
-5.27795
-5.35443
-5.4311
-5.50794
-5.58498
-5.66221
-5.73962
-5.81724
-5.89502
-5.97312
-3.48311
-3.49734
-3.53663
-3.59001
-3.65004
-3.71506
-3.78408
-3.85571
-3.92898
-4.00339
-4.0786
-4.15436
-4.2305
-4.30691
-4.38351
-4.46025
-4.53709
-4.61399
-4.69096
-4.76797
-4.84504
-4.92217
-4.99938
-5.07666
-5.15404
-5.23153
-5.30914
-5.38687
-5.46474
-5.54275
-5.6209
-5.69921
-5.77765
-5.85626
-5.93499
-6.01399
-3.43596
-3.45264
-3.49871
-3.55935
-3.62569
-3.69631
-3.77032
-3.84633
-3.92342
-4.00118
-4.07937
-4.15781
-4.23638
-4.31502
-4.39369
-4.47235
-4.55098
-4.62958
-4.70815
-4.78668
-4.8652
-4.94371
-5.02224
-5.10079
-5.17939
-5.25805
-5.33679
-5.4156
-5.49451
-5.57351
-5.65261
-5.73182
-5.81113
-5.89056
-5.97007
-6.04981
-3.38331
-3.40325
-3.45789
-3.52691
-3.60006
-3.67668
-3.75587
-3.83627
-3.91713
-3.99816
-4.07921
-4.1602
-4.24106
-4.32178
-4.40236
-4.4828
-4.56309
-4.64324
-4.72325
-4.80316
-4.88297
-4.96271
-5.0424
-5.12207
-5.20173
-5.28141
-5.36111
-5.44085
-5.52063
-5.60047
-5.68037
-5.76033
-5.84035
-5.92045
-6.00059
-6.08092
-3.32493
-3.34935
-3.41477
-3.49334
-3.57371
-3.65658
-3.74109
-3.82587
-3.9104
-3.99456
-4.07832
-4.16168
-4.24467
-4.32732
-4.40966
-4.49172
-4.57351
-4.65505
-4.73637
-4.8175
-4.89845
-4.97926
-5.05997
-5.14059
-5.22117
-5.30171
-5.38224
-5.46275
-5.54328
-5.62381
-5.70437
-5.78494
-5.86553
-5.94616
-6.02678
-6.10755
-3.26039
-3.29113
-3.37006
-3.45929
-3.54719
-3.63648
-3.72632
-3.81535
-3.90339
-3.9905
-4.07679
-4.16234
-4.24726
-4.33166
-4.41559
-4.49911
-4.58224
-4.66503
-4.74751
-4.8297
-4.91164
-4.99338
-5.07496
-5.15641
-5.23776
-5.31903
-5.40025
-5.48142
-5.56255
-5.64366
-5.72474
-5.80581
-5.88685
-5.96788
-6.04888
-6.12997
-3.18905
-3.2288
-3.32455
-3.42536
-3.52094
-3.61671
-3.71176
-3.80485
-3.89615
-3.98597
-4.07456
-4.16209
-4.24875
-4.33471
-4.42006
-4.50488
-4.58922
-4.67311
-4.7566
-4.83972
-4.92253
-5.00507
-5.08739
-5.16953
-5.25154
-5.33344
-5.41524
-5.49696
-5.57861
-5.66018
-5.7417
-5.82316
-5.90455
-5.9859
-6.06718
-6.14849
-3.11
-3.16272
-3.27916
-3.39208
-3.49521
-3.59741
-3.69745
-3.79432
-3.88858
-3.98083
-4.07147
-4.16077
-4.24898
-4.33633
-4.42295
-4.50894
-4.59435
-4.67923
-4.76363
-4.84758
-4.93115
-5.01438
-5.09735
-5.18011
-5.2627
-5.34514
-5.42745
-5.50964
-5.59172
-5.6737
-5.75558
-5.83737
-5.91905
-6.00065
-6.08213
-6.1636
-3.02207
-3.09341
-3.23478
-3.35974
-3.47004
-3.57848
-3.68322
-3.78352
-3.88045
-3.97486
-4.06731
-4.1582
-4.24781
-4.33642
-4.42421
-4.51129
-4.5977
-4.6835
-4.76874
-4.85346
-4.93773
-5.0216
-5.10516
-5.18846
-5.27157
-5.35451
-5.43728
-5.51991
-5.60239
-5.68474
-5.76695
-5.84903
-5.93097
-6.01278
-6.09445
-6.17603
-2.92367
-3.02145
-3.19201
-3.32822
-3.4451
-3.55957
-3.66876
-3.77221
-3.87153
-3.96791
-4.06204
-4.1544
-4.24534
-4.33515
-4.42407
-4.51219
-4.59959
-4.68629
-4.77236
-4.85783
-4.94278
-5.02728
-5.11142
-5.19526
-5.27888
-5.36229
-5.44551
-5.52855
-5.61141
-5.6941
-5.77661
-5.85895
-5.94112
-6.02312
-6.10494
-6.1866
-2.81218
-2.94679
-3.15093
-3.29719
-3.41995
-3.5404
-3.65396
-3.76044
-3.86198
-3.96027
-4.05604
-4.14983
-4.24211
-4.33319
-4.42326
-4.51245
-4.60084
-4.68846
-4.77537
-4.86157
-4.94721
-5.03231
-5.117
-5.20138
-5.28551
-5.36939
-5.45305
-5.5365
-5.61974
-5.70276
-5.78558
-5.86818
-5.95059
-6.03277
-6.11477
-6.19651
-2.68129
-2.86796
-3.11167
-3.2668
-3.39495
-3.52157
-3.63958
-3.74914
-3.85283
-3.95301
-4.05044
-4.14571
-4.23935
-4.33168
-4.4229
-4.51314
-4.60252
-4.69103
-4.77873
-4.86561
-4.95186
-5.03743
-5.12257
-5.2074
-5.292
-5.37632
-5.4604
-5.54422
-5.62781
-5.71113
-5.79423
-5.87705
-5.95966
-6.04197
-6.12414
-6.20585
-2.51863
-2.78621
-3.07676
-3.23898
-3.37258
-3.50574
-3.62767
-3.73986
-3.8454
-3.94713
-4.04595
-4.14252
-4.23742
-4.33095
-4.42335
-4.51475
-4.60521
-4.69476
-4.78339
-4.87109
-4.95812
-5.04432
-5.12998
-5.21524
-5.30029
-5.38503
-5.46955
-5.55374
-5.63769
-5.72132
-5.80471
-5.88774
-5.97059
-6.05301
-6.1354
-6.21714
-2.31681
-2.71661
-3.05031
-3.21324
-3.35315
-3.49488
-3.62147
-3.73523
-3.84292
-3.94628
-4.04621
-4.14364
-4.23928
-4.33348
-4.42651
-4.51847
-4.60945
-4.69943
-4.78842
-4.87634
-4.96366
-5.05013
-5.13621
-5.22182
-5.30722
-5.39222
-5.47704
-5.56144
-5.64567
-5.72945
-5.81307
-5.89617
-5.9792
-6.06161
-6.14411
-6.22574
-2.08514
-2.69493
-3.05032
-3.19989
-3.33778
-3.48375
-3.6124
-3.7268
-3.83636
-3.9418
-4.0436
-4.14273
-4.24
-4.33573
-4.43021
-4.52351
-4.61576
-4.70684
-4.79678
-4.8853
-4.97292
-5.05906
-5.14527
-5.23124
-5.31702
-5.40233
-5.48747
-5.57214
-5.65663
-5.74061
-5.82443
-5.90769
-5.99081
-6.07332
-6.15579
-6.23743
-1.79674
-2.65067
-3.05183
-3.20132
-3.3421
-3.49115
-3.61904
-3.73232
-3.84093
-3.9456
-4.04685
-4.14572
-4.243
-4.33892
-4.43377
-4.52754
-4.62036
-4.71201
-4.80251
-4.89152
-4.97904
-5.06447
-5.15018
-5.23618
-5.32208
-5.40754
-5.49279
-5.57758
-5.66214
-5.74621
-5.83005
-5.91338
-5.99648
-6.07903
-6.16135
-6.24292
-8.04855
-8.09639
-8.18756
-8.30507
-8.4261
-8.53168
-8.60207
-8.61769
-8.56491
-8.43751
-8.24005
-7.98659
-7.70444
-7.4337
-7.21446
-7.05565
-6.9531
-6.91624
-6.94791
-7.04098
-7.18336
-7.36173
-7.56231
-7.77327
-7.98609
-8.19168
-8.38242
-8.55135
-8.69374
-8.80654
-8.88658
-8.93388
-8.94733
-8.92421
-8.86678
-8.77791
-8.66053
-8.51824
-8.35563
-8.17821
-7.99228
-7.80511
-7.62502
-7.46066
-7.32067
-7.21282
-7.14273
-7.1126
-7.10685
-7.10687
-7.10733
-7.10748
-7.10662
-7.10666
-7.11194
-7.12075
-7.11893
-7.09334
-7.04798
-7.00182
-6.96797
-6.95382
-6.96223
-6.98696
-7.01799
-7.04632
-7.06653
-7.07984
-7.0916
-7.10579
-7.12246
-7.13736
-7.14398
-7.13062
-7.09966
-7.07114
-7.10094
-7.28448
-7.69101
-8.29978
-9.07312
-9.97246
-10.9642
-12.0192
-13.1141
-14.2305
-15.3536
-16.4721
-17.577
-18.6614
-19.7201
-20.7492
-21.7458
-22.7078
-23.634
-24.5233
-25.3753
-26.1897
-26.9666
-27.7058
-28.4078
-29.0727
-29.7008
-30.2927
-30.8486
-31.3692
-31.8547
-32.3057
-32.7226
-33.1058
-33.4559
-33.7733
-34.0585
-34.3121
-34.5345
-34.7263
-34.888
-35.0201
-35.1232
-35.198
-35.2452
-35.2655
-35.2595
-35.2273
-35.1697
-35.0882
-34.9843
-34.8582
-34.7082
-34.5349
-34.3427
-34.1323
-33.9033
-33.6566
-33.3924
-33.1117
-32.8154
-32.5042
-32.1789
-31.8403
-31.4891
-31.1262
-30.7523
-30.3681
-29.9743
-29.5716
-29.1606
-28.7419
-28.3162
-27.8838
-27.4454
-27.0013
-26.5519
-26.0976
-25.6387
-25.1755
-24.708
-24.2365
-23.7609
-23.2814
-22.7977
-22.3098
-21.8173
-21.32
-20.8174
-20.3091
-19.7944
-19.2727
-18.7431
-18.2049
-17.657
-17.0982
-16.5274
-15.943
-15.3438
-14.7283
-14.0946
-13.4411
-12.7659
-12.0669
-11.3423
-10.5902
-9.80855
-8.99516
-8.14808
-7.26572
-6.34678
-5.39005
-4.39431
-3.35873
-2.2835
-1.16996
-0.020012
1.16454
2.38157
3.62739
4.8963
6.1816
7.477
8.77669
10.0745
11.3624
12.631
13.8709
15.0737
16.2314
17.3359
18.38
19.3589
20.2687
21.1046
21.8629
22.5413
23.1392
23.6581
24.1011
24.4708
24.7687
24.9972
25.1651
25.286
25.3646
25.4002
25.3952
25.3539
25.2809
25.1806
25.0567
24.9126
24.7518
24.5773
24.3916
24.1972
23.9961
23.7901
23.5806
23.3687
23.1559
22.9432
22.7319
22.5229
22.3168
22.1145
21.9163
21.7229
21.5345
21.3514
21.1739
21.0022
20.8363
20.6764
20.5224
20.3745
20.2326
20.0965
19.9664
19.8421
19.7234
19.6104
19.5028
19.4006
19.3037
19.2118
19.1249
19.0428
18.9653
18.8923
18.8235
18.759
18.6983
18.6416
18.5885
18.5388
18.4926
18.4495
18.4096
18.3725
18.3382
18.3065
18.2773
18.2505
18.2259
18.2034
18.1829
18.1642
18.1473
18.1321
18.1184
18.1061
18.0951
18.0854
18.0768
18.0692
18.0626
18.057
18.0521
18.048
18.0446
18.0417
18.0395
18.0377
18.0364
18.0354
18.0348
18.0345
18.0345
18.0347
18.035
18.0355
18.0361
18.0368
18.0376
18.0384
18.0393
18.0401
18.0409
18.0415
18.042
18.0424
18.0426
18.0427
18.0426
18.0424
18.042
18.0414
18.0406
18.0396
18.0385
18.0372
18.0357
18.0341
18.0323
18.0304
18.0284
18.0263
18.0241
18.022
18.0199
18.0178
18.0159
18.0143
18.013
18.0121
18.0118
18.0122
18.0135
18.016
18.0199
18.0256
18.0334
18.0439
18.0576
18.0753
18.098
18.1272
18.1631
18.2122
18.2592
18.3455
18.3876
-8.21178
-8.28038
-8.40685
-8.55524
-8.70522
-8.83061
-8.90696
-8.91571
-8.85272
-8.72019
-8.52302
-8.27691
-8.00926
-7.74869
-7.52542
-7.36565
-7.27939
-7.25957
-7.30114
-7.39633
-7.53441
-7.70265
-7.88847
-8.08396
-8.28089
-8.46867
-8.64
-8.7896
-8.91361
-9.00925
-9.07437
-9.10782
-9.10685
-9.07181
-9.0047
-8.90775
-8.78377
-8.63641
-8.47006
-8.28997
-8.10228
-7.9137
-7.73149
-7.56346
-7.41724
-7.29923
-7.21268
-7.15571
-7.12199
-7.10375
-7.09532
-7.09568
-7.10461
-7.11858
-7.13421
-7.14597
-7.14646
-7.12757
-7.08894
-7.04625
-7.01717
-7.00864
-7.01956
-7.04268
-7.06594
-7.08326
-7.09211
-7.09491
-7.0958
-7.08267
-7.03858
-6.98651
-7.00908
-7.10077
-7.15069
-7.18841
-7.31631
-7.59064
-8.03828
-8.65595
-9.42151
-10.3057
-11.2786
-12.3135
-13.388
-14.4842
-15.5876
-16.6871
-17.7739
-18.8413
-19.8841
-20.8985
-21.8816
-22.8313
-23.7463
-24.6257
-25.469
-26.2759
-27.0462
-27.7797
-28.4765
-29.1369
-29.7612
-30.3497
-30.9029
-31.421
-31.9044
-32.3534
-32.7685
-33.1502
-33.4991
-33.8155
-34.0998
-34.3526
-34.5744
-34.7656
-34.9268
-35.0585
-35.1613
-35.2359
-35.2827
-35.3027
-35.2963
-35.2643
-35.2071
-35.1255
-35.0206
-34.8933
-34.744
-34.5722
-34.3794
-34.1685
-33.9391
-33.6919
-33.4274
-33.1465
-32.8499
-32.5384
-32.2128
-31.8738
-31.5223
-31.1589
-30.7846
-30.4
-30.0059
-29.6028
-29.1915
-28.7726
-28.3465
-27.9139
-27.4753
-27.031
-26.5815
-26.1272
-25.6684
-25.2052
-24.738
-24.2667
-23.7916
-23.3126
-22.8296
-22.3424
-21.8509
-21.3547
-20.8535
-20.3467
-19.8338
-19.3141
-18.7868
-18.2511
-17.7059
-17.1502
-16.5826
-16.0019
-15.4067
-14.7955
-14.1665
-13.5182
-12.8485
-12.1556
-11.4375
-10.6923
-9.9179
-9.11232
-8.27353
-7.39978
-6.48969
-5.54214
-4.55596
-3.53009
-2.46434
-1.35997
-0.219197
0.956017
2.16389
3.40104
4.66154
5.93838
7.22569
8.51801
9.80944
11.0927
12.3587
13.5977
14.8013
15.9618
17.0717
18.1237
19.1108
20.0272
20.869
21.6335
22.3188
22.9246
23.4521
23.9034
24.2812
24.589
24.832
25.015
25.141
25.2188
25.2557
25.2544
25.2185
25.1518
25.0584
24.9415
24.8043
24.6502
24.4823
24.303
24.1145
23.9186
23.717
23.5115
23.3037
23.095
22.8865
22.6792
22.4739
22.2715
22.0725
21.8775
21.687
21.5014
21.3209
21.1458
20.9762
20.8124
20.6544
20.5022
20.3559
20.2155
20.0809
19.952
19.8289
19.7114
19.5994
19.4928
19.3915
19.2953
19.2042
19.118
19.0365
18.9595
18.887
18.8188
18.7547
18.6946
18.6382
18.5854
18.536
18.4901
18.4474
18.4078
18.3709
18.3368
18.3054
18.2764
18.2497
18.2253
18.203
18.1826
18.1641
18.1473
18.1322
18.1186
18.1064
18.0955
18.0859
18.0773
18.0699
18.0634
18.0578
18.053
18.0489
18.0455
18.0427
18.0405
18.0388
18.0375
18.0365
18.036
18.0357
18.0357
18.0359
18.0362
18.0368
18.0374
18.0381
18.0389
18.0397
18.0405
18.0412
18.0419
18.0425
18.043
18.0434
18.0436
18.0437
18.0436
18.0433
18.0429
18.0423
18.0415
18.0405
18.0393
18.038
18.0365
18.0349
18.033
18.0311
18.0291
18.0269
18.0248
18.0226
18.0204
18.0183
18.0164
18.0147
18.0133
18.0124
18.012
18.0124
18.0137
18.0161
18.0199
18.0254
18.0331
18.0434
18.0569
18.0743
18.0966
18.1252
18.1602
18.2076
18.2538
18.3356
18.3706
-8.5134
-8.56833
-8.65615
-8.75728
-8.85683
-8.93451
-8.97692
-8.97977
-8.93601
-8.83972
-8.69276
-8.50387
-8.29205
-8.08919
-7.92399
-7.81268
-7.76019
-7.76394
-7.81802
-7.9145
-8.04432
-8.19731
-8.36564
-8.5423
-8.71726
-8.88177
-9.03039
-9.15869
-9.26334
-9.34147
-9.39074
-9.41024
-9.39922
-9.35873
-9.28983
-9.19385
-9.07277
-8.92935
-8.76722
-8.59065
-8.40446
-8.21401
-8.0251
-7.84375
-7.67581
-7.52645
-7.39985
-7.29856
-7.2232
-7.16959
-7.13329
-7.11314
-7.10903
-7.11518
-7.12328
-7.12681
-7.12063
-7.10001
-7.06649
-7.03207
-7.01653
-7.02681
-7.05256
-7.08314
-7.10953
-7.12167
-7.10392
-7.05291
-7.00138
-6.99773
-7.02183
-7.06156
-7.17756
-7.37205
-7.58252
-7.81924
-8.13755
-8.56963
-9.11901
-9.7802
-10.5427
-11.3913
-12.3082
-13.2759
-14.2786
-15.3025
-16.336
-17.3695
-18.3953
-19.407
-20.3993
-21.3681
-22.3101
-23.223
-24.1051
-24.9549
-25.7715
-26.554
-27.3021
-28.0156
-28.6946
-29.3391
-29.9491
-30.5249
-31.0665
-31.5744
-32.0489
-32.4904
-32.8989
-33.2749
-33.6187
-33.9305
-34.2108
-34.4601
-34.6786
-34.8668
-35.0253
-35.1545
-35.255
-35.3275
-35.3724
-35.3904
-35.3822
-35.3486
-35.2901
-35.207
-35.0999
-34.9699
-34.8184
-34.646
-34.4531
-34.2408
-34.01
-33.7613
-33.4954
-33.2131
-32.9151
-32.6022
-32.2752
-31.9349
-31.582
-31.2172
-30.8416
-30.4557
-30.0603
-29.6561
-29.2437
-28.8237
-28.3966
-27.9631
-27.5236
-27.0786
-26.6285
-26.1737
-25.7144
-25.251
-24.7836
-24.3124
-23.8375
-23.3589
-22.8765
-22.3901
-21.8996
-21.4047
-20.905
-20.3999
-19.889
-19.3716
-18.8469
-18.314
-17.772
-17.2199
-16.6565
-16.0805
-15.4904
-14.8848
-14.2619
-13.6201
-12.9576
-12.2724
-11.5626
-10.8261
-10.0611
-9.26545
-8.43711
-7.57415
-6.67503
-5.73868
-4.76412
-3.75016
-2.69608
-1.6029
-0.473338
0.690582
1.88796
3.11639
4.37012
5.64166
6.92499
8.21507
9.50582
10.7899
12.0581
13.3008
14.5094
15.6756
16.7913
17.8491
18.8422
19.7649
20.6124
21.3819
22.0718
22.6822
23.2139
23.6684
24.0475
24.3558
24.5999
24.7861
24.9196
25.0065
25.0517
25.0583
25.0302
24.9717
24.8872
24.7794
24.6513
24.5064
24.3475
24.1767
23.9961
23.8078
23.6134
23.4147
23.2132
23.0104
22.8074
22.6051
22.4047
22.2068
22.012
21.8211
21.6343
21.4522
21.2751
21.1031
20.9365
20.7754
20.62
20.4702
20.3262
20.1878
20.0552
19.9282
19.8068
19.6908
19.5803
19.4751
19.3751
19.2802
19.1901
19.1049
19.0243
18.9483
18.8766
18.8092
18.7458
18.6864
18.6306
18.5784
18.5297
18.4843
18.4421
18.4029
18.3664
18.3328
18.3018
18.2731
18.2468
18.2227
18.2007
18.1806
18.1623
18.1458
18.1309
18.1175
18.1055
18.0948
18.0853
18.077
18.0697
18.0633
18.0578
18.0532
18.0492
18.0459
18.0433
18.0411
18.0395
18.0383
18.0375
18.037
18.0368
18.0368
18.0371
18.0375
18.038
18.0387
18.0394
18.0402
18.0411
18.0419
18.0426
18.0433
18.0439
18.0444
18.0447
18.045
18.045
18.0449
18.0447
18.0442
18.0436
18.0428
18.0418
18.0406
18.0392
18.0377
18.036
18.0342
18.0322
18.0301
18.0279
18.0257
18.0234
18.0212
18.019
18.017
18.0152
18.0137
18.0127
18.0121
18.0123
18.0133
18.0155
18.019
18.0242
18.0314
18.041
18.0538
18.0703
18.0912
18.1179
18.1505
18.193
18.2366
18.303
18.333
-8.57834
-8.61978
-8.68927
-8.76171
-8.82561
-8.8772
-8.91065
-8.91905
-8.89515
-8.83933
-8.75223
-8.63663
-8.51341
-8.40758
-8.3351
-8.30168
-8.30681
-8.34847
-8.42394
-8.52861
-8.65618
-8.79936
-8.95154
-9.10615
-9.25635
-9.39605
-9.52021
-9.62517
-9.70821
-9.76711
-9.80051
-9.80737
-9.78677
-9.73887
-9.66447
-9.56466
-9.44098
-9.29534
-9.13043
-8.94959
-8.75668
-8.55605
-8.3525
-8.15108
-7.95686
-7.77451
-7.60785
-7.45965
-7.33218
-7.22733
-7.14652
-7.08885
-7.04972
-7.02213
-7.00052
-6.98148
-6.96193
-6.94454
-6.9342
-6.93474
-6.95634
-6.99919
-7.05127
-7.08849
-7.09125
-7.06035
-7.02255
-7.01692
-7.0763
-7.20709
-7.3628
-7.52044
-7.72233
-7.99425
-8.32389
-8.70549
-9.15038
-9.67005
-10.2698
-10.9488
-11.7014
-12.5186
-13.3894
-14.3018
-15.2445
-16.2069
-17.1797
-18.1545
-19.1239
-20.0819
-21.0236