/*--------------------------------*- C++ -*----------------------------------*\
| =========                 |                                                 |
| \\      /  F ield         | OpenFOAM: The Open Source CFD Toolbox           |
|  \\    /   O peration     | Version:  2.4.0                                 |
|   \\  /    A nd           | Web:      www.OpenFOAM.org                      |
|    \\/     M anipulation  |                                                 |
\*---------------------------------------------------------------------------*/
FoamFile
{
    version     2.0;
    format      ascii;
    class       volVectorField;
    location    "37";
    object      U;
}
// * * * * * * * * * * * * * * * * * * * * * * * * * * * * * * * * * * * * * //

dimensions      [0 1 -1 0 0 0 0];

internalField   nonuniform List<vector> 
1800
(
(0.811524 -2.21614 0)
(0.968803 -1.76936 0)
(0.988507 -1.65851 0)
(0.962055 -1.60206 0)
(0.930078 -1.57855 0)
(0.898164 -1.57393 0)
(0.867678 -1.57934 0)
(0.838826 -1.59027 0)
(0.811107 -1.60475 0)
(0.78414 -1.62156 0)
(0.757759 -1.63971 0)
(0.731866 -1.6585 0)
(0.706373 -1.67745 0)
(0.681213 -1.69625 0)
(0.656334 -1.71473 0)
(0.63169 -1.73275 0)
(0.60723 -1.75026 0)
(0.582897 -1.76724 0)
(0.558629 -1.78372 0)
(0.53437 -1.79972 0)
(1.09097 -0.933526 0)
(1.02031 -0.807635 0)
(0.970179 -0.735667 0)
(0.945064 -0.69004 0)
(0.922551 -0.666954 0)
(0.897142 -0.657525 0)
(0.870599 -0.655826 0)
(0.844204 -0.65858 0)
(0.818062 -0.664149 0)
(0.792062 -0.671612 0)
(0.766203 -0.680316 0)
(0.740518 -0.689779 0)
(0.715021 -0.699667 0)
(0.689717 -0.709749 0)
(0.664606 -0.719863 0)
(0.639681 -0.729894 0)
(0.614921 -0.739769 0)
(0.590287 -0.749447 0)
(0.56573 -0.758914 0)
(0.541192 -0.768175 0)
(1.01795 -0.729881 0)
(0.992966 -0.656603 0)
(0.961581 -0.597076 0)
(0.93825 -0.553372 0)
(0.917427 -0.523209 0)
(0.895026 -0.504828 0)
(0.871368 -0.495373 0)
(0.847255 -0.491973 0)
(0.822818 -0.492663 0)
(0.798031 -0.496236 0)
(0.772981 -0.501864 0)
(0.747789 -0.508941 0)
(0.722545 -0.517021 0)
(0.697314 -0.525782 0)
(0.672148 -0.534979 0)
(0.647083 -0.544425 0)
(0.622138 -0.553976 0)
(0.597304 -0.56353 0)
(0.572546 -0.573024 0)
(0.547814 -0.582426 0)
(0.994248 -0.542574 0)
(0.969316 -0.528061 0)
(0.945884 -0.508126 0)
(0.927878 -0.485319 0)
(0.91094 -0.461155 0)
(0.892092 -0.43994 0)
(0.871452 -0.424218 0)
(0.849748 -0.413998 0)
(0.827217 -0.408389 0)
(0.803914 -0.406481 0)
(0.779968 -0.40748 0)
(0.755547 -0.410716 0)
(0.730793 -0.415658 0)
(0.70582 -0.421897 0)
(0.680731 -0.429111 0)
(0.655614 -0.43704 0)
(0.630536 -0.445468 0)
(0.605534 -0.454219 0)
(0.580604 -0.46316 0)
(0.555709 -0.472203 0)
(0.995407 -0.405075 0)
(0.97632 -0.404896 0)
(0.956439 -0.404918 0)
(0.938919 -0.403808 0)
(0.921035 -0.398666 0)
(0.901052 -0.389637 0)
(0.879626 -0.378916 0)
(0.857723 -0.368604 0)
(0.835542 -0.360025 0)
(0.81287 -0.353823 0)
(0.789568 -0.350157 0)
(0.765653 -0.348878 0)
(0.741221 -0.349703 0)
(0.716387 -0.352312 0)
(0.691273 -0.356398 0)
(0.666001 -0.361677 0)
(0.640683 -0.367895 0)
(0.615407 -0.374821 0)
(0.590216 -0.382259 0)
(0.565099 -0.390061 0)
(0.996752 -0.317305 0)
(0.982033 -0.317675 0)
(0.965833 -0.319091 0)
(0.951142 -0.321727 0)
(0.936238 -0.323824 0)
(0.919301 -0.324337 0)
(0.900018 -0.323188 0)
(0.878786 -0.320572 0)
(0.856046 -0.31683 0)
(0.832209 -0.31257 0)
(0.807675 -0.308534 0)
(0.782723 -0.305341 0)
(0.757473 -0.30338 0)
(0.731945 -0.302824 0)
(0.706163 -0.303697 0)
(0.680198 -0.305917 0)
(0.654164 -0.30933 0)
(0.628186 -0.313739 0)
(0.602363 -0.318928 0)
(0.576727 -0.324699 0)
(0.997549 -0.25739 0)
(0.985856 -0.257208 0)
(0.972454 -0.257491 0)
(0.959912 -0.258833 0)
(0.947239 -0.26049 0)
(0.933201 -0.261977 0)
(0.917521 -0.263242 0)
(0.900225 -0.264227 0)
(0.881135 -0.264774 0)
(0.859987 -0.264772 0)
(0.836725 -0.264249 0)
(0.811608 -0.263372 0)
(0.785111 -0.262409 0)
(0.757756 -0.261677 0)
(0.72997 -0.261477 0)
(0.702043 -0.262033 0)
(0.674168 -0.263464 0)
(0.646499 -0.265773 0)
(0.61918 -0.268861 0)
(0.592299 -0.272554 0)
(0.998151 -0.21409 0)
(0.989016 -0.213208 0)
(0.978234 -0.212408 0)
(0.967845 -0.212383 0)
(0.95721 -0.212683 0)
(0.945434 -0.212978 0)
(0.932326 -0.213323 0)
(0.917964 -0.213825 0)
(0.902261 -0.214477 0)
(0.884942 -0.215211 0)
(0.865672 -0.215971 0)
(0.844163 -0.216736 0)
(0.820247 -0.217514 0)
(0.793974 -0.218345 0)
(0.765664 -0.219306 0)
(0.735877 -0.220509 0)
(0.705294 -0.222075 0)
(0.674576 -0.224084 0)
(0.64428 -0.226529 0)
(0.614787 -0.229279 0)
(0.998683 -0.181716 0)
(0.991973 -0.180159 0)
(0.983865 -0.178428 0)
(0.975847 -0.17731 0)
(0.967492 -0.176455 0)
(0.958142 -0.175551 0)
(0.947609 -0.174631 0)
(0.935911 -0.173825 0)
(0.92298 -0.173195 0)
(0.908634 -0.172754 0)
(0.892642 -0.172523 0)
(0.874743 -0.172546 0)
(0.854629 -0.172876 0)
(0.831979 -0.173579 0)
(0.806541 -0.174732 0)
(0.778262 -0.176415 0)
(0.747424 -0.178695 0)
(0.714704 -0.181588 0)
(0.681121 -0.184996 0)
(0.64782 -0.188623 0)
(0.99919 -0.157082 0)
(0.994881 -0.154954 0)
(0.989539 -0.15247 0)
(0.984096 -0.150495 0)
(0.978278 -0.148722 0)
(0.971639 -0.146824 0)
(0.964008 -0.144799 0)
(0.955327 -0.142763 0)
(0.94548 -0.14078 0)
(0.934276 -0.138876 0)
(0.921491 -0.137087 0)
(0.90688 -0.135476 0)
(0.890157 -0.134131 0)
(0.87098 -0.133173 0)
(0.848961 -0.132759 0)
(0.823716 -0.133092 0)
(0.794985 -0.134419 0)
(0.762842 -0.136985 0)
(0.727955 -0.140913 0)
(0.691696 -0.145927 0)
(0.999681 -0.138252 0)
(0.997759 -0.135697 0)
(0.995245 -0.132655 0)
(0.992519 -0.130044 0)
(0.989428 -0.127575 0)
(0.985737 -0.124903 0)
(0.981311 -0.121992 0)
(0.976043 -0.118936 0)
(0.96978 -0.115785 0)
(0.962312 -0.112546 0)
(0.95339 -0.109238 0)
(0.94272 -0.105905 0)
(0.929952 -0.102619 0)
(0.914668 -0.0994903 0)
(0.896366 -0.0966837 0)
(0.874473 -0.0944517 0)
(0.84839 -0.0931825 0)
(0.817654 -0.0934358 0)
(0.782377 -0.0959354 0)
(0.743801 -0.101027 0)
(1.00015 -0.123957 0)
(1.00056 -0.121137 0)
(1.00086 -0.117746 0)
(1.00089 -0.114718 0)
(1.00063 -0.111774 0)
(1.00002 -0.108557 0)
(0.999003 -0.105007 0)
(0.997445 -0.10119 0)
(0.995182 -0.0971309 0)
(0.992015 -0.092813 0)
(0.987697 -0.088217 0)
(0.98191 -0.0833437 0)
(0.974248 -0.0782152 0)
(0.96419 -0.072881 0)
(0.951067 -0.0674406 0)
(0.934025 -0.0620799 0)
(0.912008 -0.0571634 0)
(0.883752 -0.053367 0)
(0.848347 -0.052173 0)
(0.806487 -0.0551999 0)
(1.00059 -0.1133 0)
(1.0032 -0.110386 0)
(1.00618 -0.106859 0)
(1.00891 -0.10363 0)
(1.01143 -0.100436 0)
(1.01391 -0.0969186 0)
(1.01635 -0.092999 0)
(1.01863 -0.0887157 0)
(1.0206 -0.0840704 0)
(1.02211 -0.079015 0)
(1.02296 -0.073489 0)
(1.02288 -0.0674366 0)
(1.02146 -0.0608053 0)
(1.01819 -0.0535446 0)
(1.01229 -0.0456237 0)
(1.00271 -0.0370438 0)
(0.98795 -0.0279312 0)
(0.965587 -0.0185113 0)
(0.932624 -0.0117038 0)
(0.887555 -0.0103504 0)
(1.00098 -0.105593 0)
(1.00557 -0.102751 0)
(1.011 -0.0992988 0)
(1.0162 -0.0960819 0)
(1.02133 -0.0928587 0)
(1.02672 -0.0892908 0)
(1.03247 -0.0852859 0)
(1.03848 -0.0808602 0)
(1.04465 -0.0759935 0)
(1.05092 -0.0706122 0)
(1.05716 -0.0646192 0)
(1.06323 -0.0579046 0)
(1.06884 -0.0503371 0)
(1.07358 -0.0417508 0)
(1.07684 -0.0319432 0)
(1.07751 -0.0206791 0)
(1.07443 -0.00779731 0)
(1.06366 0.00657258 0)
(1.03852 0.0204853 0)
(0.994067 0.0300838 0)
(1.00131 -0.100273 0)
(1.00757 -0.0976514 0)
(1.01509 -0.0944678 0)
(1.02243 -0.0914608 0)
(1.02982 -0.0884194 0)
(1.03777 -0.0850407 0)
(1.04646 -0.0812313 0)
(1.05582 -0.0769907 0)
(1.06584 -0.0722842 0)
(1.07653 -0.0670243 0)
(1.08791 -0.0610923 0)
(1.1 -0.0543428 0)
(1.11273 -0.0465867 0)
(1.12595 -0.0375662 0)
(1.1394 -0.0269183 0)
(1.15239 -0.0141745 0)
(1.16384 0.00126508 0)
(1.1698 0.0196446 0)
(1.16162 0.0434196 0)
(1.12744 0.0682717 0)
(1.00156 -0.096843 0)
(1.00912 -0.0945628 0)
(1.01827 -0.0918117 0)
(1.0273 -0.0891849 0)
(1.03648 -0.0865076 0)
(1.04647 -0.0835293 0)
(1.05751 -0.0801664 0)
(1.06961 -0.0764093 0)
(1.08278 -0.0722191 0)
(1.09715 -0.06751 0)
(1.1129 -0.0621637 0)
(1.1302 -0.0560295 0)
(1.14925 -0.0489034 0)
(1.17027 -0.0404966 0)
(1.19347 -0.0303679 0)
(1.21902 -0.0178628 0)
(1.24646 -0.00173949 0)
(1.27469 0.0199101 0)
(1.29637 0.0536896 0)
(1.29257 0.101251 0)
(1.00153 -0.094456 0)
(1.00988 -0.0926678 0)
(1.0201 -0.0904988 0)
(1.03024 -0.0883947 0)
(1.04062 -0.0862347 0)
(1.05199 -0.0838364 0)
(1.06463 -0.0811358 0)
(1.07859 -0.0781217 0)
(1.09395 -0.0747615 0)
(1.11093 -0.0709869 0)
(1.12981 -0.0667034 0)
(1.15093 -0.061789 0)
(1.1747 -0.0560759 0)
(1.2017 -0.0493231 0)
(1.23263 -0.0411452 0)
(1.26872 -0.030902 0)
(1.31089 -0.0171187 0)
(1.36348 0.00331784 0)
(1.42479 0.0388178 0)
(1.49402 0.10698 0)
(1.0004 -0.0923581 0)
(1.00642 -0.0910544 0)
(1.01437 -0.0896917 0)
(1.0223 -0.0883432 0)
(1.03056 -0.0869393 0)
(1.03996 -0.0853692 0)
(1.05083 -0.083593 0)
(1.06323 -0.081603 0)
(1.0773 -0.0793797 0)
(1.09328 -0.0768823 0)
(1.11155 -0.0740556 0)
(1.13254 -0.0708298 0)
(1.1568 -0.067111 0)
(1.18514 -0.0627667 0)
(1.21857 -0.0575876 0)
(1.25908 -0.0512192 0)
(1.30892 -0.0428107 0)
(1.37766 -0.0303948 0)
(1.47036 -0.00872217 0)
(1.649 0.0369611 0)
(0.510071 -1.81527 0)
(0.485696 -1.83039 0)
(0.461219 -1.8451 0)
(0.436616 -1.85941 0)
(0.411859 -1.87331 0)
(0.516622 -0.777244 0)
(0.49198 -0.786136 0)
(0.467239 -0.794858 0)
(0.442377 -0.803413 0)
(0.417368 -0.811797 0)
(0.523051 -0.591735 0)
(0.498211 -0.600959 0)
(0.473264 -0.610102 0)
(0.448192 -0.61916 0)
(0.42298 -0.62812 0)
(0.530788 -0.481308 0)
(0.505782 -0.490464 0)
(0.48065 -0.499668 0)
(0.455378 -0.508906 0)
(0.429964 -0.518144 0)
(0.539993 -0.398138 0)
(0.514813 -0.406456 0)
(0.48949 -0.415013 0)
(0.464001 -0.423794 0)
(0.438355 -0.432751 0)
(0.551223 -0.330915 0)
(0.525728 -0.337524 0)
(0.500112 -0.344545 0)
(0.474308 -0.351999 0)
(0.448326 -0.359852 0)
(0.565833 -0.276688 0)
(0.539613 -0.281193 0)
(0.513401 -0.28613 0)
(0.487022 -0.291612 0)
(0.460449 -0.297673 0)
(0.586232 -0.232145 0)
(0.558448 -0.235027 0)
(0.53103 -0.238045 0)
(0.503584 -0.24149 0)
(0.475959 -0.245562 0)
(0.615696 -0.192005 0)
(0.585034 -0.194751 0)
(0.555419 -0.196879 0)
(0.526133 -0.198915 0)
(0.496754 -0.201392 0)
(0.655793 -0.151177 0)
(0.621515 -0.155514 0)
(0.588908 -0.158281 0)
(0.557034 -0.160046 0)
(0.525105 -0.161805 0)
(0.704349 -0.107981 0)
(0.66658 -0.114779 0)
(0.631289 -0.119259 0)
(0.597127 -0.121633 0)
(0.562563 -0.123481 0)
(0.761472 -0.0628446 0)
(0.718384 -0.0726104 0)
(0.679969 -0.0794885 0)
(0.644355 -0.0827206 0)
(0.608238 -0.0847681 0)
(0.833496 -0.016119 0)
(0.77997 -0.0285758 0)
(0.73477 -0.0392615 0)
(0.69659 -0.0438433 0)
(0.659491 -0.0458913 0)
(0.930562 0.0297855 0)
(0.861018 0.0143137 0)
(0.802179 -0.000576826 0)
(0.756892 -0.00657636 0)
(0.716551 -0.00856113 0)
(1.05637 0.082473 0)
(0.966356 0.0609432 0)
(0.889179 0.0377591 0)
(0.83298 0.0283148 0)
(0.786199 0.0252525 0)
(1.22056 0.153954 0)
(1.10047 0.122607 0)
(0.994733 0.083911 0)
(0.923375 0.0663516 0)
(0.869658 0.0593438 0)
(1.43962 0.247979 0)
(1.26659 0.20676 0)
(1.10084 0.153479 0)
(0.992222 0.121845 0)
(0.921905 0.103459 0)
(1.77332 0.280016 0)
(1.61541 0.269986 0)
(1.39005 0.236923 0)
(1.20111 0.198985 0)
(1.05813 0.16626 0)
(0.386912 -1.88684 0)
(0.361734 -1.9 0)
(0.336278 -1.91282 0)
(0.310489 -1.9253 0)
(0.284291 -1.93749 0)
(0.257575 -1.9494 0)
(0.230167 -1.9611 0)
(0.201763 -1.97268 0)
(0.171748 -1.98433 0)
(0.138773 -1.99664 0)
(0.0995351 -2.012 0)
(0.0482031 -2.04237 0)
(-0.0221293 -2.06112 0)
(-0.322705 -2.18241 0)
(0.32014 -4.43514 0)
(0.392179 -0.820015 0)
(0.366769 -0.828071 0)
(0.341093 -0.83597 0)
(0.315102 -0.843712 0)
(0.288729 -0.851292 0)
(0.261886 -0.858698 0)
(0.234444 -0.865896 0)
(0.206208 -0.872802 0)
(0.176853 -0.879213 0)
(0.145895 -0.88475 0)
(0.11284 -0.889161 0)
(0.0773872 -0.893822 0)
(0.0375425 -0.909524 0)
(0.0392804 -1.08162 0)
(-0.0665246 -1.82651 0)
(0.397598 -0.636973 0)
(0.372011 -0.645716 0)
(0.34618 -0.654345 0)
(0.320063 -0.662855 0)
(0.293617 -0.671223 0)
(0.266789 -0.679413 0)
(0.239519 -0.687351 0)
(0.211752 -0.694887 0)
(0.183451 -0.701733 0)
(0.154786 -0.707465 0)
(0.126235 -0.711949 0)
(0.100335 -0.719127 0)
(0.072147 -0.749624 0)
(0.0990702 -0.888231 0)
(-0.0619456 -1.31635 0)
(0.404392 -0.527351 0)
(0.378636 -0.536507 0)
(0.352661 -0.545599 0)
(0.326442 -0.55461 0)
(0.299957 -0.563508 0)
(0.273194 -0.572246 0)
(0.246157 -0.580744 0)
(0.218902 -0.588874 0)
(0.191566 -0.596439 0)
(0.164592 -0.603344 0)
(0.138387 -0.610463 0)
(0.115478 -0.62335 0)
(0.0862925 -0.658415 0)
(0.103096 -0.74825 0)
(-0.0371059 -1.0239 0)
(0.41256 -0.441821 0)
(0.386601 -0.450956 0)
(0.360452 -0.460127 0)
(0.334093 -0.469307 0)
(0.307523 -0.478457 0)
(0.280755 -0.487528 0)
(0.253826 -0.496461 0)
(0.226825 -0.505192 0)
(0.199895 -0.513683 0)
(0.173392 -0.522167 0)
(0.14716 -0.531997 0)
(0.122967 -0.547811 0)
(0.0892954 -0.579299 0)
(0.091445 -0.636423 0)
(-0.0183129 -0.815495 0)
(0.422199 -0.36802 0)
(0.395933 -0.376429 0)
(0.369501 -0.385038 0)
(0.342883 -0.393818 0)
(0.31608 -0.402731 0)
(0.289111 -0.411732 0)
(0.262003 -0.420784 0)
(0.234809 -0.429873 0)
(0.207557 -0.439059 0)
(0.180374 -0.448656 0)
(0.152626 -0.459761 0)
(0.125626 -0.475135 0)
(0.0889668 -0.499893 0)
(0.0789325 -0.537647 0)
(-0.00586753 -0.659019 0)
(0.433743 -0.304235 0)
(0.406933 -0.311203 0)
(0.379992 -0.318531 0)
(0.35288 -0.326211 0)
(0.325583 -0.33422 0)
(0.298105 -0.342527 0)
(0.27044 -0.351106 0)
(0.242569 -0.359959 0)
(0.214396 -0.369138 0)
(0.185867 -0.37883 0)
(0.156196 -0.389609 0)
(0.126579 -0.402747 0)
(0.0890301 -0.421095 0)
(0.0705268 -0.448025 0)
(0.00320986 -0.535815 0)
(0.448223 -0.250236 0)
(0.420451 -0.255396 0)
(0.392613 -0.260991 0)
(0.364629 -0.267041 0)
(0.336452 -0.273561 0)
(0.30806 -0.280538 0)
(0.279412 -0.287952 0)
(0.250433 -0.295796 0)
(0.220958 -0.30407 0)
(0.19087 -0.312804 0)
(0.159493 -0.322179 0)
(0.127981 -0.332697 0)
(0.0906712 -0.346246 0)
(0.0665469 -0.366982 0)
(0.010601 -0.434591 0)
(0.467311 -0.204438 0)
(0.437951 -0.207924 0)
(0.408652 -0.211781 0)
(0.379275 -0.216068 0)
(0.349714 -0.220847 0)
(0.319917 -0.22613 0)
(0.289825 -0.231901 0)
(0.259339 -0.238142 0)
(0.22829 -0.244821 0)
(0.196594 -0.251887 0)
(0.163775 -0.259355 0)
(0.130871 -0.267455 0)
(0.0939121 -0.277626 0)
(0.0658404 -0.294327 0)
(0.0168519 -0.348357 0)
(0.4931 -0.16396 0)
(0.461327 -0.166368 0)
(0.429838 -0.168915 0)
(0.398422 -0.171702 0)
(0.366881 -0.174866 0)
(0.335124 -0.178457 0)
(0.303083 -0.182473 0)
(0.270665 -0.186898 0)
(0.237735 -0.191704 0)
(0.204264 -0.19684 0)
(0.169961 -0.202302 0)
(0.135683 -0.208261 0)
(0.0985368 -0.21587 0)
(0.0672994 -0.229352 0)
(0.0221344 -0.272715 0)
(0.527446 -0.125616 0)
(0.492473 -0.127807 0)
(0.458003 -0.129781 0)
(0.423837 -0.131641 0)
(0.38967 -0.133616 0)
(0.35536 -0.135823 0)
(0.320834 -0.138288 0)
(0.286008 -0.141025 0)
(0.250774 -0.144041 0)
(0.215143 -0.147327 0)
(0.17894 -0.150915 0)
(0.142838 -0.154972 0)
(0.104608 -0.160404 0)
(0.0703689 -0.17087 0)
(0.0266443 -0.204658 0)
(0.570559 -0.0872521 0)
(0.53232 -0.0898557 0)
(0.494458 -0.0919824 0)
(0.457007 -0.0935978 0)
(0.419655 -0.0949862 0)
(0.382243 -0.0963114 0)
(0.344713 -0.0976392 0)
(0.306984 -0.0990286 0)
(0.268946 -0.100542 0)
(0.2306 -0.102235 0)
(0.191816 -0.104182 0)
(0.153118 -0.10655 0)
(0.112685 -0.110004 0)
(0.075129 -0.117443 0)
(0.0307306 -0.141836 0)
(0.620308 -0.0485463 0)
(0.579697 -0.0516093 0)
(0.538979 -0.0541752 0)
(0.498419 -0.0559696 0)
(0.457768 -0.0572932 0)
(0.416972 -0.0582681 0)
(0.376083 -0.0589496 0)
(0.33506 -0.0594208 0)
(0.29377 -0.0597928 0)
(0.252152 -0.0601829 0)
(0.210037 -0.0607148 0)
(0.167837 -0.0615643 0)
(0.123921 -0.0631362 0)
(0.0823171 -0.0674641 0)
(0.0349589 -0.0820458 0)
(0.675003 -0.010971 0)
(0.632075 -0.0138166 0)
(0.589223 -0.0162834 0)
(0.546548 -0.0182921 0)
(0.503441 -0.0197598 0)
(0.459768 -0.020689 0)
(0.415709 -0.0210945 0)
(0.371373 -0.0210241 0)
(0.326673 -0.0205757 0)
(0.281478 -0.0198871 0)
(0.235486 -0.019116 0)
(0.188987 -0.018481 0)
(0.140243 -0.0182227 0)
(0.0934611 -0.0193415 0)
(0.0403262 -0.0232374 0)
(0.739759 0.0222563 0)
(0.692704 0.0191709 0)
(0.646254 0.0165678 0)
(0.600535 0.0143798 0)
(0.555056 0.0127796 0)
(0.50932 0.0118207 0)
(0.463101 0.0115079 0)
(0.416301 0.0118262 0)
(0.368782 0.012733 0)
(0.320355 0.0141424 0)
(0.270522 0.0159367 0)
(0.219328 0.017896 0)
(0.164575 0.0199705 0)
(0.111638 0.0215546 0)
(0.0488395 0.0272716 0)
(0.818779 0.0539002 0)
(0.767641 0.0497878 0)
(0.716888 0.0466731 0)
(0.666718 0.0441828 0)
(0.617054 0.0422114 0)
(0.567829 0.0408874 0)
(0.518875 0.0403268 0)
(0.46984 0.0406154 0)
(0.420216 0.0418147 0)
(0.369493 0.0439448 0)
(0.316793 0.0470129 0)
(0.261887 0.0508844 0)
(0.200974 0.0559328 0)
(0.141752 0.0615608 0)
(0.0608928 0.0804499 0)
(0.867232 0.0898359 0)
(0.819201 0.0825161 0)
(0.773688 0.0782727 0)
(0.727989 0.0753427 0)
(0.680852 0.0732239 0)
(0.632212 0.0718123 0)
(0.582559 0.0711628 0)
(0.53239 0.0714651 0)
(0.48182 0.07299 0)
(0.43058 0.0760087 0)
(0.377509 0.0808289 0)
(0.322287 0.0875968 0)
(0.258195 0.0976028 0)
(0.197754 0.111683 0)
(0.0888633 0.164759 0)
(0.950805 0.138863 0)
(0.872303 0.123356 0)
(0.813404 0.113606 0)
(0.765782 0.107472 0)
(0.723324 0.103896 0)
(0.682027 0.102088 0)
(0.639689 0.101558 0)
(0.595567 0.102185 0)
(0.5498 0.104177 0)
(0.503006 0.107964 0)
(0.454834 0.114231 0)
(0.406544 0.123726 0)
(0.348031 0.139378 0)
(0.304674 0.169589 0)
(0.115814 0.292403 0)
(0.994049 0.228212 0)
(1.44055 0.237123 0)
(1.46578 0.255986 0)
(1.36844 0.243764 0)
(1.23543 0.221683 0)
(0.0731029 -0.0010391 0)
(0.521506 0.151952 0)
(0.827265 0.224598 0)
(0.973031 0.239229 0)
(0.991875 0.237202 0)
(0.0120083 -0.0619035 0)
(0.0064031 0.00503554 0)
(0.193504 0.106843 0)
(0.370386 0.15862 0)
(0.444235 0.185135 0)
(0.0197747 -0.0590095 0)
(-0.0826998 -0.0353602 0)
(-0.032019 0.00454638 0)
(0.0322117 0.0577124 0)
(0.0401499 0.0956714 0)
(0.0242354 -0.0477512 5.94038e-19)
(-0.0867079 -0.0350767 1.50179e-19)
(-0.0813821 -0.0182054 0)
(-0.0908592 0.00559498 -1.0884e-19)
(-0.095522 0.0254339 -1.16363e-19)
(0.0211248 -0.0361118 -6.14491e-19)
(-0.0800111 -0.0248949 -1.50513e-19)
(-0.0839023 -0.0138582 0)
(-0.104693 -0.00216929 1.05072e-19)
(-0.10703 0.00610827 1.11984e-19)
(0.0139455 -0.0259207 0)
(-0.0728834 -0.0134706 0)
(-0.0704965 -0.00501843 0)
(-0.0814992 0.00145666 0)
(-0.0788412 0.00712968 0)
(0.00496408 -0.0169009 0)
(-0.0652111 -0.00421624 0)
(-0.0530872 0.00300746 0)
(-0.0508811 0.00755106 0)
(-0.0434443 0.01271 0)
(-0.00490275 -0.00836569 -5.89378e-19)
(-0.0562708 0.00254388 0)
(-0.0355297 0.00916096 0)
(-0.0215109 0.0132549 1.69917e-19)
(-0.0152034 0.0170775 0)
(-0.0133589 -0.00156901 -1.63858e-20)
(-0.045742 0.00735449 -2.79597e-19)
(-0.0184119 0.0135395 -1.45788e-19)
(0.00393591 0.0174547 2.89195e-19)
(0.00898119 0.0179976 0)
(-0.0186649 0.0029209 1.05823e-18)
(-0.0332533 0.0109912 2.76592e-19)
(-0.00111147 0.0164428 -2.76074e-19)
(0.0234232 0.0187526 -1.20544e-18)
(0.0264925 0.0167233 0)
(-0.0228982 0.00637532 -1.26572e-19)
(-0.019838 0.0140149 0)
(0.0155545 0.0176659 -2.8096e-19)
(0.0353703 0.0180329 7.24822e-19)
(0.0317489 0.0147864 -1.17575e-18)
(-0.0256786 0.00870167 -1.62173e-19)
(-0.00636689 0.0163134 0)
(0.0268068 0.0178087 -2.68405e-19)
(0.0373913 0.0166526 0)
(0.0267155 0.0120491 -1.41507e-19)
(-0.0266226 0.0102581 -1.70773e-19)
(0.00758517 0.0181167 0)
(0.0302266 0.0175968 -2.51541e-19)
(0.0311999 0.0144408 0)
(0.0182102 0.00881163 1.29278e-18)
(-0.0257861 0.0113727 -4.09755e-19)
(0.0202666 0.0192781 0)
(0.028392 0.0165251 1.18256e-18)
(0.0218222 0.0116413 -2.98831e-18)
(0.0104991 0.00608592 0)
(-0.021588 0.0120254 4.04134e-19)
(0.0264075 0.0195717 0)
(0.0225826 0.0143225 0)
(0.0128931 0.00886289 3.02152e-18)
(0.00530682 0.00424335 0)
(-0.0227344 0.0142633 0)
(0.0208959 0.0250436 0)
(0.0124439 0.0134815 0)
(0.00868845 0.00632406 0)
(-0.000484411 0.00341356 0)
(0.0225958 0.00905992 1.59793e-18)
(0.0695513 0.0164385 3.81985e-18)
(0.0283156 0.00866751 0)
(0.00229504 0.00406356 3.29388e-18)
(-0.00306716 0.00314238 2.84182e-18)
(1.11468 0.190782 0)
(1.004 0.17117 0)
(0.911063 0.155214 0)
(0.836026 0.143552 0)
(0.776505 0.135899 0)
(0.728629 0.131516 0)
(0.688097 0.129668 0)
(0.651248 0.129827 0)
(0.615651 0.131792 0)
(0.580671 0.13571 0)
(0.546007 0.142147 0)
(0.516029 0.152045 0)
(0.484431 0.168067 0)
(0.506948 0.198883 0)
(0.506561 0.250804 0)
(1.00476 0.217228 0)
(0.979745 0.204731 0)
(0.932631 0.190054 0)
(0.877356 0.176891 0)
(0.823017 0.166412 0)
(0.774643 0.158917 0)
(0.734206 0.154349 0)
(0.701607 0.15242 0)
(0.67564 0.152758 0)
(0.655599 0.155064 0)
(0.641047 0.159156 0)
(0.637661 0.164991 0)
(0.64641 0.171672 0)
(0.706269 0.179452 0)
(0.81345 0.158826 0)
(0.599118 0.1935 0)
(0.702506 0.1984 0)
(0.755193 0.195842 0)
(0.773918 0.189867 0)
(0.771947 0.182699 0)
(0.759096 0.175845 0)
(0.742651 0.170234 0)
(0.727828 0.166281 0)
(0.718053 0.163959 0)
(0.715957 0.162871 0)
(0.723414 0.162112 0)
(0.745412 0.160255 0)
(0.785628 0.15359 0)
(0.854288 0.137051 0)
(0.950451 0.0920608 0)
(0.207279 0.130696 0)
(0.351394 0.152905 0)
(0.463193 0.166404 0)
(0.545415 0.172834 0)
(0.603217 0.174236 0)
(0.642725 0.172659 0)
(0.670109 0.169555 0)
(0.691188 0.165802 0)
(0.711186 0.16174 0)
(0.734825 0.157144 0)
(0.76598 0.15098 0)
(0.808267 0.14137 0)
(0.863352 0.124817 0)
(0.927156 0.0974302 0)
(0.987297 0.0566925 0)
(-0.012784 0.0623591 0)
(0.0863748 0.0974642 0)
(0.194992 0.119625 0)
(0.29592 0.134515 0)
(0.38393 0.143781 0)
(0.459166 0.148547 0)
(0.523653 0.14981 0)
(0.580314 0.148303 0)
(0.632557 0.144388 0)
(0.683872 0.137988 0)
(0.737196 0.128393 0)
(0.793919 0.114371 0)
(0.852532 0.0943727 0)
(0.905866 0.0680375 0)
(0.941926 0.0393502 0)
(-0.0826375 0.0222004 0)
(-0.0459558 0.0485446 0)
(0.0262604 0.0746204 0)
(0.108028 0.0922482 0)
(0.192025 0.104586 0)
(0.27395 0.112808 0)
(0.352061 0.117185 0)
(0.42601 0.118002 0)
(0.496301 0.115345 0)
(0.563652 0.109186 0)
(0.628336 0.0992355 0)
(0.689197 0.0852667 0)
(0.742819 0.0675351 0)
(0.783233 0.0479122 0)
(0.804394 0.0311002 0)
(-0.0678085 0.0136457 0)
(-0.0722144 0.023426 0)
(-0.0388504 0.0392056 0)
(0.00872282 0.055785 0)
(0.0689403 0.068371 0)
(0.13563 0.076843 0)
(0.205303 0.0820214 0)
(0.275369 0.0839298 0)
(0.343996 0.0824792 0)
(0.409553 0.0777365 0)
(0.470137 0.0697302 0)
(0.523088 0.0589676 0)
(0.56497 0.0465632 0)
(0.592558 0.0347899 0)
(0.605115 0.0269181 0)
(-0.020092 0.0157396 0)
(-0.0440593 0.0167541 0)
(-0.0312455 0.0228558 0)
(-0.0132569 0.0314162 0)
(0.0197544 0.0401476 0)
(0.06218 0.0467643 0)
(0.111149 0.0512301 0)
(0.163598 0.0532544 0)
(0.216669 0.0526625 0)
(0.267601 0.0497234 0)
(0.313733 0.0445856 0)
(0.352468 0.0381021 0)
(0.3817 0.0313754 0)
(0.400728 0.0260569 0)
(0.411191 0.023723 0)
(0.0265455 0.0180433 0)
(-0.00231447 0.0169051 0)
(0.00732043 0.0175948 0)
(0.0113719 0.0198286 0)
(0.024651 0.0226797 0)
(0.0451899 0.0256164 0)
(0.0716799 0.0279672 0)
(0.102265 0.0292972 0)
(0.134682 0.0291604 0)
(0.166441 0.0279324 0)
(0.195342 0.025561 0)
(0.219647 0.0229434 0)
(0.238412 0.0206621 0)
(0.251926 0.0195704 0)
(0.261791 0.0201503 0)
(0.0510706 0.0169822 0)
(0.0341404 0.0163232 0)
(0.037882 0.0147626 0)
(0.0432842 0.0146444 0)
(0.0489905 0.014506 0)
(0.0568719 0.0144449 0)
(0.0675257 0.0144388 0)
(0.0803904 0.0144327 0)
(0.094604 0.014134 0)
(0.108956 0.0137531 0)
(0.122429 0.0132533 0)
(0.134294 0.0130867 0)
(0.144217 0.0133912 0)
(0.152623 0.0144467 0)
(0.160453 0.0162352 0)
(0.0611325 0.0145189 0)
(0.0521888 0.014052 0)
(0.0525887 0.0127046 0)
(0.0582674 0.0118051 0)
(0.062489 0.0108651 0)
(0.0656506 0.00991704 0)
(0.068984 0.00902125 0)
(0.0725546 0.00828994 0)
(0.0762073 0.00784474 0)
(0.0797501 0.00754074 0)
(0.083154 0.00772897 0)
(0.0864536 0.00825786 0)
(0.0897846 0.00930328 0)
(0.0935709 0.0108064 0)
(0.0982758 0.0126142 0)
(0.058068 0.0114782 0)
(0.050558 0.0112762 0)
(0.0501018 0.0106516 0)
(0.0546847 0.00976663 0)
(0.0576687 0.00891449 0)
(0.0589396 0.00819308 0)
(0.0597164 0.00754683 0)
(0.0602101 0.00698207 0)
(0.0603362 0.00674751 0)
(0.0601078 0.00651948 0)
(0.0597972 0.00676084 0)
(0.059675 0.00712074 0)
(0.0599935 0.00785874 0)
(0.0610758 0.00886698 0)
(0.0632123 0.0100482 0)
(0.0428883 0.00844925 0)
(0.0351618 0.00891589 0)
(0.0358817 0.00884397 0)
(0.0397599 0.00822666 0)
(0.0417524 0.00772751 0)
(0.0424647 0.00737621 0)
(0.0429113 0.0071439 0)
(0.0431708 0.00686733 0)
(0.0431373 0.0068662 0)
(0.0428674 0.00674697 0)
(0.0425455 0.00697485 0)
(0.0423013 0.00716833 0)
(0.0423248 0.00754049 0)
(0.0427733 0.00802181 0)
(0.043824 0.00858939 0)
(0.023249 0.00612704 0)
(0.0183855 0.00700719 0)
(0.0205809 0.0070949 0)
(0.0235625 0.00675911 0)
(0.0251197 0.0066483 0)
(0.0261393 0.00651402 0)
(0.0270837 0.00658253 0)
(0.0279333 0.00645449 0)
(0.0285951 0.00661749 0)
(0.0291263 0.00655327 0)
(0.0296151 0.00682434 0)
(0.0300716 0.00691179 0)
(0.0306515 0.00713977 0)
(0.0313882 0.0073546 0)
(0.0323794 0.00760992 0)
(0.00644837 0.00486082 0)
(0.00718045 0.00556514 0)
(0.00939153 0.0055548 0)
(0.0116584 0.00549107 0)
(0.0132083 0.00554353 0)
(0.0146164 0.00557417 0)
(0.0159723 0.00567652 0)
(0.0172555 0.00573944 0)
(0.018403 0.00583304 0)
(0.0194906 0.00594413 0)
(0.0205647 0.00608421 0)
(0.021551 0.00620573 0)
(0.022617 0.00634414 0)
(0.02373 0.00643239 0)
(0.0249694 0.00656814 0)
(-0.00437672 0.00431688 0)
(0.00108958 0.00449497 0)
(0.000921481 0.00454252 0)
(0.00324405 0.00461716 0)
(0.00460481 0.00467725 0)
(0.00601965 0.00481073 0)
(0.00746277 0.00484886 0)
(0.0088534 0.00502806 0)
(0.0102163 0.00501463 0)
(0.0115898 0.00523267 0)
(0.0130296 0.00520486 0)
(0.0145109 0.00534874 0)
(0.0161038 0.00538991 0)
(0.0177732 0.00542302 0)
(0.0195005 0.0054622 0)
(-0.00502939 0.00380484 0)
(-0.00445226 0.00364724 0)
(-0.00309785 0.00378947 0)
(-0.00227661 0.00384236 0)
(-0.000819336 0.00393141 0)
(0.000264123 0.00402933 0)
(0.00178689 0.00409324 0)
(0.00322177 0.00419522 0)
(0.0047696 0.00421277 0)
(0.00641332 0.00431897 0)
(0.00814383 0.00431159 0)
(0.00992421 0.00436959 0)
(0.0117707 0.0043754 0)
(0.0136559 0.00439541 0)
(0.015568 0.00438536 0)
(-0.00127869 0.00319191 0)
(-0.00552599 0.00314185 0)
(-0.00155234 0.0031905 0)
(-0.0028098 0.00320291 0)
(-0.000461077 0.00324194 0)
(-0.000405922 0.00327136 0)
(0.00145558 0.00329937 0)
(0.0024295 0.00332365 0)
(0.00381248 0.00332815 0)
(0.00526501 0.00335401 0)
(0.00675064 0.00334907 0)
(0.00826741 0.00336024 0)
(0.00982631 0.00335801 0)
(0.0114052 0.00335978 0)
(0.01299 0.00335508 0)
(0.800223 0.00218284 7.22475e-21)
(0.863317 -0.0155897 -7.26481e-21)
(0.798054 -0.0103187 0)
(0.736991 -0.00754038 0)
(0.705671 -0.00818161 0)
(0.681992 -0.00983144 0)
(0.654441 -0.0113322 0)
(0.625749 -0.0123881 0)
(0.599575 -0.0130247 0)
(0.577413 -0.0135254 0)
(0.544324 -0.0178442 1.52467e-19)
(0.508914 -0.018653 -1.80908e-19)
(0.482306 -0.0191808 2.17135e-19)
(0.459103 -0.0203395 -2.26189e-19)
(0.44123 -0.022784 4.31894e-20)
(0.407821 -0.0254911 -6.29441e-20)
(0.337878 -0.027862 0)
(0.257297 -0.0313039 1.94383e-18)
(0.204958 -0.0362824 -5.41878e-19)
(0.208337 -0.035581 0)
(0.240247 -0.0248938 2.89189e-18)
(0.269293 -0.020989 0)
(0.299451 -0.0165554 -2.87452e-19)
(0.330337 -0.0118147 -3.95217e-18)
(0.362608 -0.00668854 -7.63678e-18)
(0.395677 -0.00127479 -7.28724e-18)
(0.428873 0.00426996 0)
(0.462236 0.0098553 0)
(0.496216 0.0154734 5.39867e-18)
(0.531367 0.0210273 0)
(0.568427 0.0263115 5.19843e-18)
(0.609015 0.0311127 -2.94292e-19)
(0.653929 0.0345864 0)
(0.710937 0.035673 6.80737e-19)
(0.766284 0.0279744 0)
(0.986692 0.0252946 0)
(0.929152 -0.0418823 -4.07285e-20)
(0.757206 -0.0126658 3.67077e-20)
(0.653203 0.00860675 -6.54668e-22)
(0.684079 0.00211771 0)
(0.964243 0.0123498 -5.58357e-21)
(0.977147 -0.0155186 1.9438e-20)
(0.924084 -0.000383613 -1.38963e-20)
(0.887513 0.00761968 0)
(0.871333 0.00726952 0)
(0.856759 0.0053482 -9.51822e-20)
(0.836932 0.00420575 9.8384e-20)
(0.814865 0.00359975 1.13309e-19)
(0.793685 0.00308239 -2.42403e-19)
(0.774549 0.00268986 1.28647e-19)
(0.749024 0.0023444 -1.14539e-19)
(0.71804 0.000966869 4.08025e-19)
(0.691663 -1.27307e-05 -1.46206e-19)
(0.667741 -0.00100468 -1.61582e-19)
(0.643203 -0.00238687 2.32776e-22)
(0.616159 -0.00589624 0)
(0.575739 -0.0074961 -4.1081e-19)
(0.521525 -0.00701563 -4.32028e-19)
(0.469702 -0.00539825 3.8847e-19)
(0.438811 -0.00112307 -5.3451e-18)
(0.437105 0.00443379 -1.89066e-18)
(0.444822 0.00971869 -1.11999e-19)
(0.454561 0.0157038 -3.33463e-18)
(0.466055 0.0220148 -2.51624e-18)
(0.480118 0.0286362 -9.34117e-20)
(0.496501 0.0353626 -8.43422e-20)
(0.514794 0.0419467 -4.59722e-18)
(0.535184 0.0481999 0)
(0.558258 0.0538419 -8.37849e-18)
(0.584598 0.0587573 -2.25284e-19)
(0.615121 0.062813 -1.31607e-18)
(0.65071 0.0655408 0)
(0.693702 0.0654626 0)
(0.740925 0.0605622 -9.48638e-19)
(0.79783 0.0449275 -7.8534e-22)
(0.847341 0.0177345 4.2878e-22)
(0.956847 -0.0565484 3.6679e-20)
(0.91112 -0.0141558 3.19579e-20)
(0.880543 0.0185338 5.12144e-21)
(0.896838 0.00507745 -6.08976e-21)
(1.01523 0.0126281 0)
(1.00446 -0.00366598 1.23751e-20)
(0.959973 0.0102414 -1.23214e-20)
(0.927569 0.0175984 0)
(0.910428 0.0171787 0)
(0.895379 0.0155344 -7.89182e-20)
(0.877287 0.0148839 8.12523e-20)
(0.858227 0.014683 0)
(0.840348 0.0142921 -1.02001e-19)
(0.824083 0.0139019 1.05723e-19)
(0.802896 0.0160495 0)
(0.77768 0.0146938 0)
(0.755828 0.0137821 0)
(0.735674 0.0133007 0)
(0.713072 0.0133522 3.54991e-22)
(0.689394 0.0113962 0)
(0.664976 0.0104817 0)
(0.635073 0.0122492 0)
(0.599362 0.0180437 5.76544e-19)
(0.56528 0.0251762 4.41953e-18)
(0.554791 0.0229698 0)
(0.553996 0.0269223 0)
(0.554778 0.0312735 2.54676e-18)
(0.557492 0.0358415 2.67585e-18)
(0.56317 0.0404557 6.75627e-20)
(0.571791 0.044851 -6.59902e-20)
(0.583129 0.0488607 4.12727e-18)
(0.597332 0.0523167 3.11678e-18)
(0.61491 0.0549565 2.01345e-18)
(0.636617 0.0566187 0)
(0.663357 0.0570718 1.36915e-18)
(0.695398 0.0556249 -8.73771e-19)
(0.73346 0.0509204 7.95638e-20)
(0.771493 0.0412626 2.52885e-19)
(0.812113 0.0264768 0)
(0.816064 -0.00293971 0)
(0.850385 -0.0226104 -4.2935e-20)
(0.842687 -0.00587805 -2.36819e-20)
(0.840981 0.0165143 0)
(0.862372 0.00522065 0)
(1.01274 0.0154007 0)
(0.994772 0.00957005 0)
(0.960887 0.021352 0)
(0.935976 0.0273856 0)