/*--------------------------------*- C++ -*----------------------------------*\
| =========                 |                                                 |
| \\      /  F ield         | OpenFOAM: The Open Source CFD Toolbox           |
|  \\    /   O peration     | Version:  2.4.0                                 |
|   \\  /    A nd           | Web:      www.OpenFOAM.org                      |
|    \\/     M anipulation  |                                                 |
\*---------------------------------------------------------------------------*/
FoamFile
{
    version     2.0;
    format      ascii;
    class       volVectorField;
    location    "1050";
    object      U;
}
// * * * * * * * * * * * * * * * * * * * * * * * * * * * * * * * * * * * * * //

dimensions      [0 1 -1 0 0 0 0];

internalField   nonuniform List<vector> 
48900
(
(9.69282 0.0496205 0)
(9.20217 0.084294 0)
(8.68939 0.0898956 0)
(8.17352 0.0859168 0)
(7.68763 0.0785848 0)
(7.23497 0.0702049 0)
(6.81062 0.0621174 0)
(6.41602 0.0546857 0)
(6.05283 0.0479452 0)
(5.72022 0.041882 0)
(5.41778 0.0364614 0)
(5.14392 0.0314082 0)
(4.89855 0.0267646 0)
(4.67739 0.0229408 0)
(4.47923 0.019808 0)
(4.30183 0.0170917 0)
(4.14498 0.0146447 0)
(4.006 0.0124408 0)
(3.88481 0.0104345 0)
(3.77858 0.00866409 0)
(3.68709 0.00707562 0)
(3.60771 0.00565742 0)
(3.54039 0.00436797 0)
(3.48243 0.00324198 0)
(3.43396 0.00225199 0)
(3.39244 0.00141362 0)
(3.35834 0.000670165 0)
(3.32948 3.84943e-05 0)
(3.30651 -0.000559202 0)
(3.28777 -0.0010966 0)
(3.27397 -0.00168274 0)
(3.26417 -0.00228662 0)
(3.25917 -0.00331816 0)
(3.25958 -0.00470371 0)
(3.27062 -0.00350075 0)
(3.26281 -0.0246899 0)
(10.0234 0.107402 0)
(10.0407 0.123472 0)
(10.0034 0.123481 0)
(9.91646 0.124018 0)
(9.80157 0.124618 0)
(9.66621 0.123614 0)
(9.51445 0.12147 0)
(9.35135 0.118311 0)
(9.18146 0.114158 0)
(9.00815 0.109178 0)
(8.83448 0.103513 0)
(8.66258 0.0973814 0)
(8.49513 0.0911096 0)
(8.33323 0.0848406 0)
(8.18009 0.0786407 0)
(8.0342 0.0724263 0)
(7.89831 0.0663297 0)
(7.76996 0.0603413 0)
(7.6521 0.0546193 0)
(7.5414 0.0491413 0)
(7.4411 0.0440512 0)
(7.34704 0.0393309 0)
(7.26198 0.0350515 0)
(7.18199 0.0310879 0)
(7.11048 0.0275241 0)
(7.04297 0.024215 0)
(6.98344 0.0212438 0)
(6.92695 0.0184388 0)
(6.87813 0.015883 0)
(6.83153 0.0133541 0)
(6.79264 0.0109552 0)
(6.75541 0.00829896 0)
(6.72656 0.00556128 0)
(6.69928 0.00150325 0)
(6.68194 -0.0030301 0)
(6.66778 -0.0129858 0)
(10.0331 0.0845913 0)
(10.0834 0.112021 0)
(10.1148 0.119443 0)
(10.1177 0.12527 0)
(10.1145 0.13137 0)
(10.103 0.134335 0)
(10.0818 0.135064 0)
(10.0516 0.134266 0)
(10.0135 0.132159 0)
(9.96818 0.129039 0)
(9.91653 0.125062 0)
(9.85951 0.12037 0)
(9.79811 0.115236 0)
(9.73341 0.109804 0)
(9.66659 0.104121 0)
(9.59845 0.0982059 0)
(9.5298 0.0921708 0)
(9.46118 0.0861037 0)
(9.39326 0.0801123 0)
(9.32619 0.0742686 0)
(9.26094 0.0686406 0)
(9.19681 0.0632459 0)
(9.1359 0.0582698 0)
(9.07612 0.0535661 0)
(9.02006 0.0492616 0)
(8.96507 0.0451608 0)
(8.91412 0.041386 0)
(8.86414 0.0377178 0)
(8.81853 0.0342694 0)
(8.77376 0.0307606 0)
(8.73381 0.0273124 0)
(8.69462 0.0234557 0)
(8.66096 0.0192928 0)
(8.62796 0.0137461 0)
(8.60149 0.00717709 0)
(8.57272 -0.00585441 0)
(10.0287 0.0716455 0)
(10.0725 0.103076 0)
(10.1077 0.11456 0)
(10.1242 0.122649 0)
(10.1384 0.129112 0)
(10.1503 0.132647 0)
(10.1578 0.134215 0)
(10.1624 0.134666 0)
(10.1627 0.134124 0)
(10.1605 0.132537 0)
(10.1551 0.130052 0)
(10.1468 0.126813 0)
(10.1354 0.123012 0)
(10.1214 0.118764 0)
(10.105 0.114163 0)
(10.0864 0.109239 0)
(10.0658 0.104095 0)
(10.0436 0.0988001 0)
(10.0198 0.0934827 0)
(9.99486 0.0881853 0)
(9.9689 0.0830398 0)
(9.94224 0.0780601 0)
(9.91519 0.0733148 0)
(9.88792 0.0687734 0)
(9.86069 0.0644676 0)
(9.8336 0.0603462 0)
(9.80689 0.0564131 0)
(9.78049 0.0525705 0)
(9.75495 0.0488252 0)
(9.72979 0.0449851 0)
(9.70599 0.0410712 0)
(9.68267 0.0367046 0)
(9.66111 0.0318484 0)
(9.63998 0.0257319 0)
(9.62067 0.0182272 0)
(9.59802 0.00688408 0)
(10.0227 0.0607352 0)
(10.0604 0.0949785 0)
(10.0934 0.10897 0)
(10.1127 0.117847 0)
(10.1298 0.1248 0)
(10.1455 0.129088 0)
(10.1585 0.131385 0)
(10.1696 0.132453 0)
(10.179 0.132357 0)
(10.1869 0.13115 0)
(10.1932 0.129087 0)
(10.1978 0.126329 0)
(10.2008 0.123052 0)
(10.2024 0.11933 0)
(10.2026 0.115212 0)
(10.2015 0.110787 0)
(10.199 0.106139 0)
(10.1954 0.101341 0)
(10.1906 0.0964975 0)
(10.1848 0.0916658 0)
(10.1781 0.0869365 0)
(10.1705 0.0823062 0)
(10.1623 0.0778589 0)
(10.1536 0.0735824 0)
(10.1445 0.0695139 0)
(10.135 0.0655947 0)
(10.1254 0.0618336 0)
(10.1158 0.0581252 0)
(10.1061 0.0544566 0)
(10.0965 0.0506748 0)
(10.0872 0.0467198 0)
(10.078 0.0423397 0)
(10.0691 0.037375 0)
(10.0601 0.0313216 0)
(10.0511 0.0242106 0)
(10.0392 0.0150278 0)
(10.017 0.0513424 0)
(10.0501 0.0869951 0)
(10.0809 0.103008 0)
(10.1009 0.112893 0)
(10.1186 0.120317 0)
(10.1351 0.125087 0)
(10.1494 0.127795 0)
(10.1621 0.129146 0)
(10.1736 0.129372 0)
(10.184 0.128504 0)
(10.1931 0.126779 0)
(10.2011 0.124355 0)
(10.2081 0.121354 0)
(10.214 0.11791 0)
(10.219 0.114119 0)
(10.2231 0.110026 0)
(10.2262 0.105714 0)
(10.2285 0.101245 0)
(10.23 0.0967239 0)
(10.2307 0.0921935 0)
(10.2307 0.0877324 0)
(10.2301 0.0833592 0)
(10.229 0.0791391 0)
(10.2275 0.0750715 0)
(10.2256 0.0711692 0)
(10.2234 0.0673922 0)
(10.2211 0.063728 0)
(10.2186 0.0600973 0)
(10.2161 0.0564647 0)
(10.2136 0.0527059 0)
(10.2111 0.0487469 0)
(10.2086 0.0443812 0)
(10.2061 0.0394778 0)
(10.2031 0.0336969 0)
(10.1996 0.0271562 0)
(10.1939 0.0194292 0)
(10.0124 0.0433958 0)
(10.0412 0.0791602 0)
(10.0701 0.0967944 0)
(10.0903 0.107701 0)
(10.1082 0.1156 0)
(10.1247 0.120787 0)
(10.1394 0.123864 0)
(10.1526 0.1255 0)
(10.1647 0.125964 0)
(10.1758 0.125357 0)
(10.1859 0.123888 0)
(10.195 0.121713 0)
(10.2032 0.118986 0)
(10.2105 0.115797 0)
(10.2171 0.112234 0)
(10.2228 0.10837 0)
(10.2278 0.104282 0)
(10.2321 0.100043 0)
(10.2358 0.0957277 0)
(10.2388 0.0914043 0)
(10.2413 0.0871393 0)
(10.2432 0.0829491 0)
(10.2448 0.0788897 0)
(10.2459 0.0749537 0)
(10.2468 0.0711569 0)
(10.2474 0.0674616 0)
(10.2479 0.0638518 0)
(10.2483 0.0602604 0)
(10.2486 0.0566431 0)
(10.2489 0.0529026 0)
(10.2491 0.0489548 0)
(10.2492 0.0446483 0)
(10.2492 0.0398722 0)
(10.2486 0.034431 0)
(10.2473 0.0284514 0)
(10.2444 0.0218607 0)
(10.009 0.0368315 0)
(10.0336 0.071687 0)
(10.0604 0.0904407 0)
(10.0806 0.102258 0)
(10.0985 0.110635 0)
(10.115 0.116231 0)
(10.1297 0.119677 0)
(10.1432 0.1216 0)
(10.1555 0.122307 0)
(10.1669 0.121944 0)
(10.1773 0.120709 0)
(10.1868 0.118763 0)
(10.1955 0.116245 0)
(10.2034 0.113265 0)
(10.2106 0.109913 0)
(10.217 0.106258 0)
(10.2228 0.10238 0)
(10.228 0.0983432 0)
(10.2325 0.0942359 0)
(10.2365 0.090101 0)
(10.2399 0.0860007 0)
(10.243 0.0819633 0)
(10.2456 0.0780285 0)
(10.2479 0.0742014 0)
(10.25 0.0704839 0)
(10.2519 0.0668534 0)
(10.2536 0.0632888 0)
(10.2552 0.0597313 0)
(10.2567 0.0561342 0)
(10.2581 0.0524187 0)
(10.2595 0.0485065 0)
(10.2606 0.0442872 0)
(10.2615 0.0396802 0)
(10.2619 0.0345872 0)
(10.2616 0.0291445 0)
(10.26 0.023414 0)
(10.0065 0.0314493 0)
(10.0272 0.0647097 0)
(10.0517 0.0840675 0)
(10.0716 0.0966126 0)
(10.0893 0.10545 0)
(10.1057 0.111444 0)
(10.1205 0.115253 0)
(10.134 0.117469 0)
(10.1465 0.118424 0)
(10.158 0.118301 0)
(10.1686 0.117296 0)
(10.1783 0.115572 0)
(10.1872 0.113269 0)
(10.1954 0.110496 0)
(10.2028 0.107343 0)
(10.2096 0.103886 0)
(10.2158 0.100201 0)
(10.2214 0.0963562 0)
(10.2263 0.092424 0)
(10.2308 0.0884579 0)
(10.2348 0.0845122 0)
(10.2384 0.080614 0)
(10.2416 0.0767975 0)
(10.2445 0.073068 0)
(10.2472 0.0694316 0)
(10.2497 0.0658631 0)
(10.252 0.0623411 0)
(10.2542 0.0588167 0)
(10.2562 0.0552466 0)
(10.2582 0.0515667 0)
(10.26 0.0477107 0)
(10.2616 0.0436005 0)
(10.2629 0.0391857 0)
(10.2637 0.0344291 0)
(10.2639 0.0294697 0)
(10.263 0.0244003 0)
(10.0047 0.0270392 0)
(10.0219 0.0582986 0)
(10.044 0.077795 0)
(10.0631 0.0908403 0)
(10.0805 0.100078 0)
(10.0967 0.106446 0)
(10.1115 0.110604 0)
(10.1251 0.113116 0)
(10.1376 0.114325 0)
(10.1492 0.114446 0)
(10.1599 0.113675 0)
(10.1697 0.112174 0)
(10.1788 0.110085 0)
(10.1871 0.107517 0)
(10.1947 0.104563 0)
(10.2018 0.101301 0)
(10.2081 0.097806 0)
(10.2139 0.0941461 0)
(10.2192 0.09039 0)
(10.224 0.0865884 0)
(10.2283 0.0827908 0)
(10.2322 0.0790257 0)
(10.2358 0.0753227 0)
(10.239 0.071689 0)
(10.2421 0.068127 0)
(10.2449 0.0646188 0)
(10.2475 0.0611446 0)
(10.25 0.0576612 0)
(10.2524 0.0541313 0)
(10.2546 0.0505032 0)
(10.2567 0.046725 0)
(10.2585 0.0427438 0)
(10.26 0.0385347 0)
(10.261 0.0340963 0)
(10.2614 0.0295634 0)
(10.261 0.0250152 0)
(10.0035 0.0234193 0)
(10.0176 0.0524781 0)
(10.0372 0.0717304 0)
(10.0553 0.0850321 0)
(10.0721 0.0945732 0)
(10.088 0.101265 0)
(10.1027 0.105746 0)
(10.1162 0.108546 0)
(10.1288 0.110014 0)
(10.1404 0.110382 0)
(10.1511 0.109847 0)
(10.1611 0.108573 0)
(10.1703 0.106701 0)
(10.1787 0.104341 0)
(10.1865 0.101589 0)
(10.1937 0.0985233 0)
(10.2002 0.0952194 0)
(10.2062 0.091744 0)
(10.2116 0.0881616 0)
(10.2166 0.0845222 0)
(10.2212 0.0808715 0)
(10.2253 0.0772386 0)
(10.2291 0.0736496 0)
(10.2326 0.070113 0)
(10.2359 0.0666312 0)
(10.2389 0.0631897 0)
(10.2418 0.0597706 0)
(10.2445 0.0563385 0)
(10.247 0.0528625 0)
(10.2494 0.0493023 0)
(10.2515 0.0456196 0)
(10.2535 0.0417812 0)
(10.255 0.0377816 0)
(10.2562 0.0336375 0)
(10.2568 0.0294762 0)
(10.2567 0.0253517 0)
(10.0026 0.0204372 0)
(10.0142 0.0472376 0)
(10.0314 0.0659566 0)
(10.0482 0.0792822 0)
(10.0643 0.0890019 0)
(10.0796 0.0959461 0)
(10.0941 0.100707 0)
(10.1075 0.103777 0)
(10.12 0.105498 0)
(10.1316 0.106111 0)
(10.1424 0.105813 0)
(10.1524 0.104769 0)
(10.1617 0.103117 0)
(10.1702 0.10097 0)
(10.1781 0.0984228 0)
(10.1854 0.095557 0)
(10.1921 0.0924464 0)
(10.1982 0.0891567 0)
(10.2038 0.0857493 0)
(10.209 0.082273 0)
(10.2137 0.0787707 0)
(10.218 0.0752716 0)
(10.222 0.0717996 0)
(10.2257 0.0683642 0)
(10.2291 0.0649679 0)
(10.2323 0.0616001 0)
(10.2353 0.0582455 0)
(10.2382 0.0548772 0)
(10.2408 0.0514686 0)
(10.2433 0.0479913 0)
(10.2455 0.0444191 0)
(10.2475 0.0407331 0)
(10.2491 0.0369419 0)
(10.2504 0.0330639 0)
(10.2511 0.0292294 0)
(10.2514 0.0254636 0)
(10.002 0.0179691 0)
(10.0115 0.042543 0)
(10.0265 0.0605258 0)
(10.0419 0.0736748 0)
(10.057 0.0834395 0)
(10.0717 0.0905489 0)
(10.0857 0.0955318 0)
(10.0989 0.098838 0)
(10.1112 0.100796 0)
(10.1228 0.101644 0)
(10.1336 0.101579 0)
(10.1436 0.100763 0)
(10.1529 0.099333 0)
(10.1616 0.0974009 0)
(10.1695 0.0950623 0)
(10.1769 0.0923991 0)
(10.1837 0.0894844 0)
(10.19 0.0863827 0)
(10.1957 0.0831526 0)
(10.201 0.0798418 0)
(10.2059 0.0764909 0)
(10.2104 0.0731289 0)
(10.2145 0.0697783 0)
(10.2184 0.0664497 0)
(10.2219 0.0631463 0)
(10.2253 0.0598612 0)
(10.2284 0.0565822 0)
(10.2313 0.053289 0)
(10.2341 0.0499627 0)
(10.2366 0.0465815 0)
(10.2389 0.0431311 0)
(10.2409 0.0396022 0)
(10.2426 0.0360134 0)
(10.2439 0.032385 0)
(10.2449 0.028836 0)
(10.2454 0.0253714 0)
(10.0015 0.0159166 0)
(10.0094 0.0383547 0)
(10.0224 0.0554617 0)
(10.0364 0.0682744 0)
(10.0504 0.0779573 0)
(10.0643 0.0851373 0)
(10.0778 0.0902736 0)
(10.0906 0.0937707 0)
(10.1027 0.0959359 0)
(10.1141 0.0970014 0)
(10.1248 0.097158 0)
(10.1348 0.0965639 0)
(10.1441 0.0953522 0)
(10.1528 0.0936345 0)
(10.1608 0.0915054 0)
(10.1683 0.0890464 0)
(10.1751 0.0863294 0)
(10.1815 0.0834177 0)
(10.1874 0.0803673 0)
(10.1928 0.0772248 0)
(10.1978 0.0740288 0)
(10.2024 0.0708082 0)
(10.2067 0.0675844 0)
(10.2107 0.0643691 0)
(10.2144 0.0611669 0)
(10.2179 0.0579739 0)
(10.2211 0.0547817 0)
(10.2241 0.051576 0)
(10.2269 0.0483436 0)
(10.2295 0.0450707 0)
(10.2318 0.0417509 0)
(10.2339 0.0383822 0)
(10.2357 0.0349897 0)
(10.2371 0.0315915 0)
(10.2382 0.0282944 0)
(10.2389 0.0250878 0)
(10.0012 0.0143686 0)
(10.0079 0.0350796 0)
(10.0194 0.051336 0)
(10.0322 0.0637633 0)
(10.0453 0.0732896 0)
(10.0585 0.0804548 0)
(10.0713 0.0856647 0)
(10.0837 0.0892836 0)
(10.0955 0.0915979 0)
(10.1067 0.0928299 0)
(10.1172 0.0931631 0)
(10.1271 0.0927509 0)
(10.1364 0.0917225 0)
(10.145 0.0901873 0)
(10.1531 0.0882385 0)
(10.1606 0.0859564 0)
(10.1675 0.0834116 0)
(10.1739 0.0806659 0)
(10.1799 0.0777735 0)
(10.1854 0.0747796 0)
(10.1905 0.0717215 0)
(10.1952 0.0686276 0)
(10.1996 0.0655192 0)
(10.2037 0.0624086 0)
(10.2075 0.0593018 0)
(10.2111 0.0561975 0)
(10.2144 0.0530905 0)
(10.2175 0.0499712 0)
(10.2203 0.0468309 0)
(10.223 0.0436615 0)
(10.2254 0.0404621 0)
(10.2275 0.0372352 0)
(10.2293 0.0340081 0)
(10.2309 0.0307968 0)
(10.232 0.0276969 0)
(10.2329 0.0246875 0)
(10.001 0.0131436 0)
(10.0069 0.0324204 0)
(10.0172 0.0478803 0)
(10.0289 0.0599217 0)
(10.0412 0.0692635 0)
(10.0536 0.0763703 0)
(10.0659 0.0816068 0)
(10.0779 0.085303 0)
(10.0893 0.0877254 0)
(10.1003 0.089086 0)
(10.1106 0.0895612 0)
(10.1204 0.0892989 0)
(10.1296 0.0884246 0)
(10.1382 0.0870451 0)
(10.1462 0.0852515 0)
(10.1537 0.0831229 0)
(10.1607 0.0807284 0)
(10.1672 0.0781283 0)
(10.1732 0.075375 0)
(10.1788 0.0725126 0)
(10.1839 0.0695775 0)
(10.1887 0.0665975 0)
(10.1932 0.0635936 0)
(10.1974 0.0605791 0)
(10.2013 0.057561 0)
(10.2049 0.0545403 0)
(10.2083 0.0515144 0)
(10.2114 0.0484773 0)
(10.2143 0.0454242 0)
(10.217 0.0423509 0)
(10.2195 0.0392604 0)
(10.2216 0.0361584 0)
(10.2235 0.0330725 0)
(10.2251 0.030017 0)
(10.2264 0.0270776 0)
(10.2275 0.0242272 0)
(10.0009 0.0120244 0)
(10.006 0.0298891 0)
(10.0152 0.0445081 0)
(10.0259 0.0560999 0)
(10.0373 0.0652014 0)
(10.0491 0.0722029 0)
(10.0608 0.0774275 0)
(10.0722 0.0811708 0)
(10.0833 0.0836787 0)
(10.0939 0.0851514 0)
(10.104 0.0857567 0)
(10.1136 0.0856365 0)
(10.1226 0.0849116 0)
(10.1311 0.0836855 0)
(10.1391 0.0820471 0)
(10.1466 0.0800733 0)
(10.1535 0.0778313 0)
(10.1601 0.0753799 0)
(10.1661 0.0727698 0)
(10.1717 0.0700436 0)
(10.177 0.0672367 0)
(10.1819 0.0643764 0)
(10.1864 0.0614838 0)
(10.1906 0.0585725 0)
(10.1946 0.055651 0)
(10.1983 0.0527223 0)
(10.2017 0.0497863 0)
(10.2049 0.0468405 0)
(10.2079 0.0438833 0)
(10.2107 0.0409142 0)
(10.2131 0.037939 0)
(10.2154 0.0349657 0)
(10.2173 0.0320217 0)
(10.219 0.0291186 0)
(10.2204 0.0263334 0)
(10.2216 0.0236339 0)
(10.0008 0.0109925 0)
(10.0052 0.0274757 0)
(10.0134 0.0412283 0)
(10.0232 0.0523145 0)
(10.0338 0.0611236 0)
(10.0447 0.0679754 0)
(10.0558 0.0731495 0)
(10.0667 0.0769085 0)
(10.0773 0.0794771 0)
(10.0875 0.0810423 0)
(10.0974 0.0817628 0)
(10.1067 0.0817735 0)
(10.1156 0.0811903 0)
(10.1239 0.0801126 0)
(10.1318 0.0786263 0)
(10.1392 0.0768061 0)
(10.1462 0.074717 0)
(10.1527 0.0724157 0)
(10.1587 0.0699511 0)
(10.1644 0.0673644 0)
(10.1697 0.0646899 0)
(10.1746 0.0619545 0)
(10.1792 0.0591789 0)
(10.1835 0.0563777 0)
(10.1875 0.0535604 0)
(10.1913 0.0507318 0)
(10.1948 0.0478944 0)
(10.1981 0.0450486 0)
(10.2011 0.0421957 0)
(10.2039 0.0393382 0)
(10.2064 0.0364843 0)
(10.2087 0.0336431 0)
(10.2107 0.0308409 0)
(10.2125 0.0280872 0)
(10.214 0.0254506 0)
(10.2153 0.0228945 0)
(10.0007 0.0100347 0)
(10.0045 0.0251774 0)
(10.0118 0.0380457 0)
(10.0207 0.0485795 0)
(10.0305 0.0570487 0)
(10.0407 0.0637083 0)
(10.0511 0.0687945 0)
(10.0614 0.0725377 0)
(10.0715 0.0751409 0)
(10.0814 0.0767774 0)
(10.0908 0.0775959 0)
(10.0999 0.077724 0)
(10.1085 0.0772719 0)
(10.1167 0.0763348 0)
(10.1245 0.0749952 0)
(10.1318 0.0733249 0)
(10.1386 0.0713865 0)
(10.1451 0.0692346 0)
(10.1511 0.0669161 0)
(10.1568 0.0644707 0)
(10.1621 0.0619315 0)
(10.1671 0.0593248 0)
(10.1717 0.0566714 0)
(10.176 0.0539861 0)
(10.1801 0.0512797 0)
(10.1839 0.0485589 0)
(10.1875 0.0458281 0)
(10.1908 0.0430903 0)
(10.1938 0.0403494 0)
(10.1967 0.0376101 0)
(10.1992 0.0348823 0)
(10.2016 0.0321757 0)
(10.2037 0.0295152 0)
(10.2056 0.0269075 0)
(10.2072 0.0244142 0)
(10.2086 0.021995 0)
(10.0006 0.0091421 0)
(10.0039 0.0229927 0)
(10.0104 0.0349646 0)
(10.0185 0.0449069 0)
(10.0274 0.0529931 0)
(10.0369 0.0594201 0)
(10.0467 0.0643822 0)
(10.0564 0.0680782 0)
(10.066 0.0706898 0)
(10.0754 0.0723756 0)
(10.0845 0.0732737 0)
(10.0932 0.0735039 0)
(10.1016 0.0731706 0)
(10.1096 0.0723642 0)
(10.1171 0.0711635 0)
(10.1243 0.0696373 0)
(10.131 0.0678455 0)
(10.1374 0.0658402 0)
(10.1434 0.0636665 0)
(10.149 0.0613624 0)
(10.1543 0.0589597 0)
(10.1593 0.0564844 0)
(10.1639 0.0539567 0)
(10.1683 0.0513924 0)
(10.1724 0.0488027 0)
(10.1762 0.0461962 0)
(10.1798 0.043579 0)
(10.1831 0.0409562 0)
(10.1862 0.0383338 0)
(10.1891 0.0357183 0)
(10.1917 0.0331203 0)
(10.1941 0.0305499 0)
(10.1963 0.0280299 0)
(10.1983 0.0255647 0)
(10.2 0.0232098 0)
(10.2016 0.020922 0)
(10.0005 0.00830696 0)
(10.0034 0.0209185 0)
(10.0091 0.0319884 0)
(10.0165 0.0413072 0)
(10.0247 0.0489712 0)
(10.0335 0.0551271 0)
(10.0425 0.0599301 0)
(10.0517 0.0635483 0)
(10.0608 0.066142 0)
(10.0697 0.0678547 0)
(10.0784 0.0688133 0)
(10.0868 0.0691297 0)
(10.0948 0.0689016 0)
(10.1025 0.0682147 0)
(10.1099 0.0671437 0)
(10.1169 0.065754 0)
(10.1235 0.0641028 0)
(10.1297 0.0622398 0)
(10.1356 0.0602078 0)
(10.1412 0.0580434 0)
(10.1464 0.0557772 0)
(10.1513 0.0534342 0)
(10.156 0.0510348 0)
(10.1603 0.0485948 0)
(10.1644 0.0461266 0)
(10.1683 0.0436395 0)
(10.1719 0.0411416 0)
(10.1752 0.0386396 0)
(10.1783 0.0361408 0)
(10.1812 0.033653 0)
(10.1839 0.0311874 0)
(10.1864 0.0287535 0)
(10.1886 0.0263724 0)
(10.1906 0.0240462 0)
(10.1925 0.0218248 0)
(10.1941 0.0196633 0)
(10.0004 0.00752203 0)
(10.003 0.0189504 0)
(10.0081 0.0291191 0)
(10.0147 0.0377888 0)
(10.0222 0.044996 0)
(10.0303 0.0508443 0)
(10.0387 0.0554538 0)
(10.0473 0.058964 0)
(10.0559 0.0615136 0)
(10.0643 0.0632305 0)
(10.0726 0.0642304 0)
(10.0806 0.0646163 0)
(10.0883 0.0644794 0)
(10.0957 0.0638999 0)
(10.1028 0.0629484 0)
(10.1096 0.0616867 0)
(10.116 0.0601691 0)
(10.1221 0.0584428 0)
(10.1279 0.0565484 0)
(10.1334 0.0545209 0)
(10.1385 0.0523896 0)
(10.1434 0.050179 0)
(10.148 0.0479089 0)
(10.1523 0.0455955 0)
(10.1564 0.0432518 0)
(10.1602 0.0408883 0)
(10.1638 0.0385139 0)
(10.1671 0.0361367 0)
(10.1703 0.0337652 0)
(10.1732 0.0314077 0)
(10.1759 0.0290755 0)
(10.1784 0.0267777 0)
(10.1807 0.024533 0)
(10.1828 0.0223419 0)
(10.1847 0.020249 0)
(10.1865 0.0182096 0)
(10.0004 0.00678093 0)
(10.0026 0.017083 0)
(10.0071 0.0263578 0)
(10.0131 0.0343587 0)
(10.0199 0.0410786 0)
(10.0273 0.0465852 0)
(10.0352 0.0509679 0)
(10.0432 0.0543397 0)
(10.0512 0.0568186 0)
(10.0592 0.0585169 0)
(10.067 0.0595384 0)
(10.0747 0.0599769 0)
(10.082 0.0599166 0)
(10.0892 0.0594321 0)
(10.096 0.0585894 0)
(10.1025 0.0574467 0)
(10.1088 0.056055 0)
(10.1147 0.054459 0)
(10.1203 0.0526973 0)
(10.1257 0.0508031 0)
(10.1307 0.0488045 0)
(10.1355 0.046725 0)
(10.14 0.0445845 0)
(10.1443 0.0423989 0)
(10.1483 0.0401818 0)
(10.1521 0.0379443 0)
(10.1557 0.0356963 0)
(10.159 0.0334467 0)
(10.1622 0.0312045 0)
(10.1651 0.0289785 0)
(10.1678 0.0267796 0)
(10.1703 0.0246162 0)
(10.1726 0.0225048 0)
(10.1748 0.0204448 0)
(10.1768 0.0184756 0)
(10.1786 0.0165543 0)
(10.0004 0.00607791 0)
(10.0023 0.0153118 0)
(10.0063 0.0237025 0)
(10.0116 0.0310221 0)
(10.0178 0.0372289 0)
(10.0246 0.0423621 0)
(10.0319 0.0464856 0)
(10.0393 0.0496889 0)
(10.0469 0.0520701 0)
(10.0544 0.0537261 0)
(10.0618 0.0547487 0)
(10.069 0.0552224 0)
(10.0761 0.0552236 0)
(10.0829 0.0548211 0)
(10.0895 0.0540761 0)
(10.0957 0.0530429 0)
(10.1018 0.0517692 0)
(10.1075 0.0502969 0)
(10.113 0.0486626 0)
(10.1182 0.0468976 0)
(10.1231 0.0450288 0)
(10.1278 0.043079 0)
(10.1322 0.0410674 0)
(10.1364 0.03901 0)
(10.1404 0.0369206 0)
(10.1441 0.0348107 0)
(10.1476 0.0326907 0)
(10.151 0.0305701 0)
(10.1541 0.0284582 0)
(10.157 0.0263637 0)
(10.1597 0.0242969 0)
(10.1622 0.0222655 0)
(10.1646 0.020284 0)
(10.1668 0.0183509 0)
(10.1688 0.0165008 0)
(10.1707 0.0146938 0)
(10.0003 0.00540837 0)
(10.0021 0.0136294 0)
(10.0056 0.0211536 0)
(10.0103 0.0277804 0)
(10.016 0.0334539 0)
(10.0222 0.0381862 0)
(10.0289 0.0420194 0)
(10.0358 0.0450241 0)
(10.0428 0.0472802 0)
(10.0499 0.0488694 0)
(10.0569 0.0498717 0)
(10.0638 0.0503619 0)
(10.0705 0.0504087 0)
(10.077 0.0500745 0)
(10.0832 0.0494155 0)
(10.0893 0.0484818 0)
(10.0951 0.0473177 0)
(10.1006 0.0459623 0)
(10.1059 0.0444497 0)
(10.111 0.0428097 0)
(10.1158 0.0410677 0)
(10.1203 0.0392455 0)
(10.1247 0.0373618 0)
(10.1288 0.0354325 0)
(10.1327 0.0334712 0)
(10.1363 0.0314896 0)
(10.1398 0.0294985 0)
(10.1431 0.0275074 0)
(10.1462 0.0255257 0)
(10.149 0.0235618 0)
(10.1518 0.0216254 0)
(10.1543 0.0197232 0)
(10.1567 0.017868 0)
(10.1589 0.0160578 0)
(10.1609 0.0143225 0)
(10.1629 0.0126266 0)
(10.0003 0.00476927 0)
(10.0018 0.0120256 0)
(10.005 0.0187077 0)
(10.0092 0.0246386 0)
(10.0143 0.0297601 0)
(10.02 0.0340651 0)
(10.0261 0.0375802 0)
(10.0326 0.0403571 0)
(10.0391 0.0424599 0)
(10.0457 0.0439569 0)
(10.0523 0.0449162 0)
(10.0588 0.0454031 0)
(10.0652 0.0454784 0)
(10.0714 0.0451978 0)
(10.0774 0.0446122 0)
(10.0832 0.0437673 0)
(10.0887 0.0427038 0)
(10.0941 0.0414578 0)
(10.0992 0.0400612 0)
(10.1041 0.0385415 0)
(10.1088 0.0369229 0)
(10.1132 0.0352261 0)
(10.1174 0.033469 0)
(10.1214 0.0316671 0)
(10.1252 0.0298338 0)
(10.1288 0.0279808 0)
(10.1322 0.0261187 0)
(10.1355 0.024257 0)
(10.1385 0.0224048 0)
(10.1414 0.0205702 0)
(10.1441 0.018762 0)
(10.1466 0.0169863 0)
(10.149 0.015254 0)
(10.1512 0.0135632 0)
(10.1533 0.0119391 0)
(10.1553 0.0103513 0)
(10.0003 0.00415793 0)
(10.0016 0.0104934 0)
(10.0044 0.0163556 0)
(10.0082 0.021594 0)
(10.0128 0.0261494 0)
(10.018 0.0300061 0)
(10.0237 0.033177 0)
(10.0296 0.0356986 0)
(10.0357 0.0376209 0)
(10.0419 0.0389995 0)
(10.0481 0.0398914 0)
(10.0542 0.0403531 0)
(10.0602 0.0404379 0)
(10.0661 0.0401949 0)
(10.0719 0.039669 0)
(10.0774 0.0389012 0)
(10.0828 0.0379285 0)
(10.0879 0.0367839 0)
(10.0928 0.0354965 0)
(10.0976 0.0340921 0)
(10.1021 0.032593 0)
(10.1064 0.0310188 0)
(10.1105 0.0293865 0)
(10.1144 0.0277109 0)
(10.1182 0.026005 0)
(10.1217 0.0242802 0)
(10.125 0.0225468 0)
(10.1282 0.0208139 0)
(10.1312 0.0190903 0)
(10.134 0.0173835 0)
(10.1367 0.0157016 0)
(10.1392 0.0140497 0)
(10.1416 0.0124374 0)
(10.1438 0.0108629 0)
(10.1459 0.00934726 0)
(10.1479 0.00786539 0)
(10.0002 0.0035717 0)
(10.0015 0.00902572 0)
(10.0039 0.0140904 0)
(10.0074 0.0186411 0)
(10.0115 0.022622 0)
(10.0163 0.026012 0)
(10.0214 0.0288146 0)
(10.0269 0.0310544 0)
(10.0326 0.0327694 0)
(10.0384 0.0340038 0)
(10.0442 0.0348047 0)
(10.05 0.035219 0)
(10.0557 0.0352927 0)
(10.0613 0.035069 0)
(10.0667 0.0345874 0)
(10.072 0.0338838 0)
(10.0772 0.0329909 0)
(10.0821 0.0319384 0)
(10.0869 0.0307529 0)
(10.0915 0.0294577 0)
(10.0959 0.0280735 0)
(10.1001 0.0266184 0)
(10.1041 0.0251084 0)
(10.1079 0.0235574 0)
(10.1115 0.0219777 0)
(10.115 0.0203802 0)
(10.1182 0.0187746 0)
(10.1214 0.0171696 0)
(10.1243 0.0155734 0)
(10.1271 0.0139929 0)
(10.1297 0.0124352 0)
(10.1322 0.0109051 0)
(10.1346 0.00941044 0)
(10.1368 0.00794991 0)
(10.1389 0.00654086 0)
(10.141 0.00516351 0)
(10.0002 0.0030076 0)
(10.0013 0.00761508 0)
(10.0035 0.0119035 0)
(10.0066 0.015773 0)
(10.0104 0.0191732 0)
(10.0147 0.0220811 0)
(10.0195 0.024494 0)
(10.0245 0.0264274 0)
(10.0298 0.0279092 0)
(10.0352 0.0289738 0)
(10.0406 0.029659 0)
(10.0461 0.0300036 0)
(10.0515 0.0300458 0)
(10.0568 0.0298224 0)
(10.062 0.0293678 0)
(10.0671 0.0287137 0)
(10.072 0.0278884 0)
(10.0768 0.0269177 0)
(10.0814 0.0258253 0)
(10.0858 0.0246323 0)
(10.0901 0.0233574 0)
(10.0941 0.0220171 0)
(10.098 0.020626 0)
(10.1017 0.0191969 0)
(10.1053 0.0177414 0)
(10.1087 0.0162696 0)
(10.1119 0.0147904 0)
(10.115 0.013312 0)
(10.1179 0.0118417 0)
(10.1206 0.0103859 0)
(10.1232 0.00895072 0)
(10.1257 0.00754053 0)
(10.1281 0.00616187 0)
(10.1303 0.00481383 0)
(10.1324 0.00351032 0)
(10.1344 0.00223679 0)
(10.0002 0.00246222 0)
(10.0012 0.00625332 0)
(10.0032 0.00978463 0)
(10.006 0.0129792 0)
(10.0094 0.0157942 0)
(10.0134 0.0182069 0)
(10.0177 0.0202108 0)
(10.0224 0.021815 0)
(10.0273 0.0230389 0)
(10.0324 0.0239086 0)
(10.0375 0.0244538 0)
(10.0426 0.0247056 0)
(10.0477 0.0246952 0)
(10.0528 0.024453 0)
(10.0577 0.0240081 0)
(10.0626 0.0233875 0)
(10.0673 0.022616 0)
(10.0719 0.0217156 0)
(10.0764 0.0207066 0)
(10.0806 0.0196076 0)
(10.0847 0.0184353 0)
(10.0887 0.0172043 0)
(10.0925 0.0159277 0)
(10.0961 0.0146172 0)
(10.0996 0.0132831 0)
(10.1029 0.0119345 0)
(10.1061 0.0105798 0)
(10.1091 0.0092261 0)
(10.112 0.00788003 0)
(10.1147 0.00654721 0)
(10.1173 0.00523308 0)
(10.1197 0.00394135 0)
(10.1221 0.00267745 0)
(10.1243 0.00144095 0)
(10.1264 0.000242684 0)
(10.1284 -0.000927088 0)
(10.0002 0.00193163 0)
(10.0011 0.00493095 0)
(10.0029 0.0077205 0)
(10.0054 0.0102454 0)
(10.0086 0.012471 0)
(10.0122 0.0143767 0)
(10.0162 0.0159542 0)
(10.0206 0.0172076 0)
(10.0251 0.0181503 0)
(10.0299 0.018801 0)
(10.0347 0.0191822 0)
(10.0395 0.0193182 0)
(10.0444 0.0192337 0)
(10.0492 0.0189533 0)
(10.0539 0.0185004 0)
(10.0586 0.0178974 0)
(10.0631 0.0171651 0)
(10.0675 0.0163224 0)
(10.0718 0.0153862 0)
(10.076 0.0143722 0)
(10.08 0.0132948 0)
(10.0838 0.0121667 0)
(10.0875 0.0109994 0)
(10.0911 0.00980305 0)
(10.0945 0.00858673 0)
(10.0977 0.00735852 0)
(10.1008 0.00612564 0)
(10.1038 0.00489445 0)
(10.1066 0.00367068 0)
(10.1093 0.00245921 0)
(10.1119 0.00126464 0)
(10.1143 9.02117e-05 0)
(10.1167 -0.00105971 0)
(10.1189 -0.00218509 0)
(10.121 -0.00327784 0)
(10.123 -0.00434337 0)
(10.0002 0.00141221 0)
(10.001 0.00363718 0)
(10.0026 0.00569449 0)
(10.005 0.00755183 0)
(10.0079 0.00918301 0)
(10.0112 0.01057 0)
(10.015 0.0117044 0)
(10.019 0.012587 0)
(10.0233 0.013226 0)
(10.0278 0.0136346 0)
(10.0323 0.0138289 0)
(10.0369 0.0138267 0)
(10.0415 0.013647 0)
(10.0461 0.0133086 0)
(10.0506 0.01283 0)
(10.0551 0.0122285 0)
(10.0595 0.0115212 0)
(10.0637 0.0107232 0)
(10.0679 0.00984851 0)
(10.0719 0.00890988 0)
(10.0758 0.00791916 0)
(10.0795 0.00688706 0)
(10.0832 0.00582315 0)
(10.0866 0.00473602 0)
(10.09 0.00363336 0)
(10.0932 0.00252201 0)
(10.0962 0.00140808 0)
(10.0991 0.000296964 0)
(10.1019 -0.000806543 0)
(10.1046 -0.00189833 0)
(10.1072 -0.0029746 0)
(10.1096 -0.00403258 0)
(10.1119 -0.00506892 0)
(10.1141 -0.00608314 0)
(10.1162 -0.00706962 0)
(10.1183 -0.00803 0)
(10.0001 0.00089695 0)
(10.0009 0.00235811 0)
(10.0024 0.00368587 0)
(10.0046 0.00487269 0)
(10.0073 0.005901 0)
(10.0105 0.00675618 0)
(10.014 0.00743028 0)
(10.0178 0.00792226 0)
(10.0218 0.00823642 0)
(10.026 0.00838082 0)
(10.0304 0.00836609 0)
(10.0347 0.00820454 0)
(10.0392 0.0079094 0)
(10.0436 0.00749421 0)
(10.0479 0.00697244 0)
(10.0522 0.0063571 0)
(10.0564 0.00566072 0)
(10.0606 0.00489489 0)
(10.0646 0.00407062 0)
(10.0685 0.00319773 0)
(10.0723 0.00228546 0)
(10.076 0.00134225 0)
(10.0795 0.000375736 0)
(10.0829 -0.00060723 0)
(10.0862 -0.00160049 0)
(10.0893 -0.00259852 0)
(10.0923 -0.00359642 0)
(10.0952 -0.00458983 0)
(10.098 -0.00557493 0)
(10.1006 -0.00654839 0)
(10.1032 -0.00750727 0)
(10.1056 -0.00844927 0)
(10.1079 -0.00937193 0)
(10.1101 -0.0102745 0)
(10.1123 -0.0111534 0)
(10.1143 -0.0120072 0)
(10.0001 0.00039993 0)
(10.0008 0.00107093 0)
(10.0023 0.0016618 0)
(10.0043 0.00216991 0)
(10.0069 0.00258316 0)
(10.0099 0.0028909 0)
(10.0132 0.00308665 0)
(10.0169 0.00316815 0)
(10.0207 0.00313659 0)
(10.0247 0.00299578 0)
(10.0289 0.00275141 0)
(10.0331 0.00241057 0)
(10.0374 0.00198122 0)
(10.0416 0.00147178 0)
(10.0458 0.000890892 0)
(10.05 0.000247111 0)
(10.0541 -0.000451245 0)
(10.0581 -0.00119625 0)
(10.0621 -0.00198039 0)
(10.0659 -0.00279648 0)
(10.0696 -0.00363801 0)
(10.0732 -0.00449887 0)
(10.0766 -0.00537352 0)
(10.08 -0.00625695 0)
(10.0832 -0.00714462 0)
(10.0863 -0.00803244 0)
(10.0893 -0.00891678 0)
(10.0922 -0.00979439 0)
(10.0949 -0.0106624 0)
(10.0976 -0.0115184 0)
(10.1001 -0.0123602 0)
(10.1025 -0.0131861 0)
(10.1048 -0.0139944 0)
(10.107 -0.0147841 0)
(10.1091 -0.0155536 0)
(10.1112 -0.016299 0)
(10.0001 -7.59802e-05 0)
(10.0008 -0.000208624 0)
(10.0022 -0.000350799 0)
(10.0042 -0.000518461 0)
(10.0067 -0.000720505 0)
(10.0095 -0.000963064 0)
(10.0128 -0.00125086 0)
(10.0163 -0.00158705 0)
(10.0201 -0.00197313 0)
(10.024 -0.00240915 0)
(10.028 -0.00289392 0)
(10.0321 -0.00342528 0)
(10.0362 -0.00400025 0)
(10.0404 -0.00461528 0)
(10.0445 -0.0052664 0)
(10.0486 -0.0059494 0)
(10.0526 -0.00665995 0)
(10.0566 -0.0073939 0)
(10.0604 -0.00814714 0)
(10.0642 -0.0089151 0)
(10.0678 -0.00969395 0)
(10.0714 -0.01048 0)
(10.0748 -0.0112697 0)
(10.0781 -0.0120601 0)
(10.0813 -0.0128481 0)
(10.0844 -0.0136312 0)
(10.0874 -0.0144069 0)
(10.0902 -0.0151732 0)
(10.0929 -0.0159282 0)
(10.0956 -0.0166703 0)
(10.0981 -0.0173981 0)
(10.1005 -0.0181104 0)
(10.1028 -0.0188064 0)
(10.105 -0.0194851 0)
(10.1072 -0.020146 0)
(10.1092 -0.020784 0)
(10.0001 -0.000531768 0)
(10.0008 -0.00143461 0)
(10.0022 -0.00227899 0)
(10.0042 -0.00309342 0)
(10.0066 -0.00388416 0)
(10.0095 -0.00465344 0)
(10.0127 -0.00540448 0)
(10.0162 -0.00614142 0)
(10.0199 -0.00686839 0)
(10.0237 -0.00758914 0)
(10.0277 -0.00830682 0)
(10.0318 -0.00902391 0)
(10.0359 -0.00974217 0)
(10.04 -0.0104626 0)
(10.0441 -0.0111857 0)
(10.0481 -0.0119112 0)
(10.0521 -0.0126386 0)
(10.056 -0.0133674 0)
(10.0598 -0.0140964 0)
(10.0635 -0.0148237 0)
(10.0672 -0.0155478 0)
(10.0707 -0.0162674 0)
(10.0741 -0.016981 0)
(10.0774 -0.0176871 0)
(10.0806 -0.0183845 0)
(10.0836 -0.0190718 0)
(10.0866 -0.019748 0)
(10.0894 -0.0204118 0)
(10.0921 -0.0210624 0)
(10.0948 -0.021699 0)
(10.0973 -0.0223208 0)
(10.0997 -0.0229273 0)
(10.102 -0.0235182 0)
(10.1043 -0.0240927 0)
(10.1064 -0.0246513 0)
(10.1084 -0.025188 0)
(10.0001 -0.000994558 0)
(10.0008 -0.00259782 0)
(10.0022 -0.00410805 0)
(10.0042 -0.0055371 0)
(10.0067 -0.00688454 0)
(10.0096 -0.00814959 0)
(10.0129 -0.00933485 0)
(10.0164 -0.010446 0)
(10.0201 -0.0114901 0)
(10.024 -0.0124751 0)
(10.028 -0.0134085 0)
(10.0321 -0.0142975 0)
(10.0362 -0.0151483 0)
(10.0403 -0.0159664 0)
(10.0444 -0.0167563 0)
(10.0484 -0.0175216 0)
(10.0524 -0.0182654 0)
(10.0563 -0.0189905 0)
(10.0601 -0.0196981 0)
(10.0638 -0.0203888 0)
(10.0674 -0.0210637 0)
(10.0709 -0.0217232 0)
(10.0743 -0.0223678 0)
(10.0776 -0.0229976 0)
(10.0808 -0.0236127 0)
(10.0839 -0.0242129 0)
(10.0868 -0.0247983 0)
(10.0897 -0.0253686 0)
(10.0924 -0.0259239 0)
(10.095 -0.0264639 0)
(10.0976 -0.0269887 0)