/*--------------------------------*- C++ -*----------------------------------*\
| =========                 |                                                 |
| \\      /  F ield         | OpenFOAM: The Open Source CFD Toolbox           |
|  \\    /   O peration     | Version:  2.4.0                                 |
|   \\  /    A nd           | Web:      www.OpenFOAM.org                      |
|    \\/     M anipulation  |                                                 |
\*---------------------------------------------------------------------------*/
FoamFile
{
    version     2.0;
    format      ascii;
    class       surfaceScalarField;
    location    "4.12";
    object      phi;
}
// * * * * * * * * * * * * * * * * * * * * * * * * * * * * * * * * * * * * * //

dimensions      [0 3 -1 0 0 0 0];

internalField   nonuniform List<scalar> 
11840
(
7.836e-07
9.2164e-06
-9.35886e-07
1.71949e-06
6.58192e-07
-1.59408e-06
1.45268e-07
5.12924e-07
-2.0643e-07
3.51698e-07
-2.96618e-07
9.01874e-08
-3.83625e-07
8.7008e-08
-4.64913e-07
8.12874e-08
-6.52089e-07
1.87177e-07
-8.61881e-07
2.09792e-07
-1.19664e-06
3.34762e-07
-1.51349e-06
3.16849e-07
-1.84451e-06
3.3102e-07
-2.06676e-06
2.22245e-07
-2.1383e-06
7.15442e-08
-1.9756e-06
-1.62699e-07
-1.57409e-06
-4.01516e-07
-9.94897e-07
-5.79189e-07
-4.857e-07
-5.09197e-07
-4.14035e-07
-7.1665e-08
-1.01223e-06
5.98199e-07
-2.10855e-06
1.09631e-06
-3.27482e-06
1.16627e-06
-4.15044e-06
8.75621e-07
-4.73175e-06
5.81313e-07
-5.15e-06
4.18246e-07
-5.47994e-06
3.29938e-07
-5.75442e-06
2.74489e-07
-5.98578e-06
2.31359e-07
-6.17809e-06
1.92307e-07
-6.33075e-06
1.52658e-07
-6.44071e-06
1.09961e-07
-6.50265e-06
6.19374e-08
-6.50781e-06
5.16344e-09
-6.45372e-06
-5.4093e-08
-6.3395e-06
-1.14214e-07
-6.16009e-06
-1.79418e-07
-5.91043e-06
-2.49656e-07
-5.5858e-06
-3.2463e-07
-5.18136e-06
-4.04436e-07
-4.6933e-06
-4.8806e-07
-4.11722e-06
-5.76079e-07
-3.45185e-06
-6.6537e-07
-2.69333e-06
-7.58525e-07
-1.84702e-06
-8.46309e-07
-9.10923e-07
-9.36097e-07
9.64347e-08
-1.00736e-06
1.16513e-06
-1.0687e-06
2.25594e-06
-1.09081e-06
3.37398e-06
-1.11803e-06
4.4216e-06
-1.04763e-06
5.46159e-06
-1.03999e-06
6.30307e-06
-8.41474e-07
7.17547e-06
-8.72398e-07
7.64551e-06
-4.70047e-07
8.36336e-06
-7.17851e-07
8.28143e-06
8.19336e-08
9.01789e-06
-7.36458e-07
8.19906e-06
8.18833e-07
-1.53218e-06
2.45158e-06
1.67648e-05
-5.06507e-07
4.67758e-06
3.67537e-07
-2.46812e-06
-8.74457e-08
9.67907e-07
-3.11174e-07
5.75426e-07
-4.5424e-07
2.33253e-07
-5.34099e-07
1.66867e-07
-6.3951e-07
1.86699e-07
-8.40611e-07
3.88278e-07
-1.08875e-06
4.57927e-07
-1.42295e-06
6.68966e-07
-1.74706e-06
6.40961e-07
-2.04345e-06
6.27406e-07
-2.23339e-06
4.12188e-07
-2.27666e-06
1.14814e-07
-2.11787e-06
-3.21491e-07
-1.74155e-06
-7.7784e-07
-1.21204e-06
-1.10869e-06
-7.48795e-07
-9.72442e-07
-7.27037e-07
-9.34227e-08
-1.43537e-06
1.30653e-06
-2.62619e-06
2.28713e-06
-3.71173e-06
2.25182e-06
-4.44121e-06
1.6051e-06
-4.93041e-06
1.07051e-06
-5.2994e-06
7.87231e-07
-5.59855e-06
6.29092e-07
-5.84904e-06
5.24977e-07
-6.05891e-06
4.41235e-07
-6.23015e-06
3.63542e-07
-6.36125e-06
2.83758e-07
-6.44896e-06
1.97673e-07
-6.48918e-06
1.02153e-07
-6.47993e-06
-4.08528e-09
-6.41571e-06
-1.1831e-07
-6.2902e-06
-2.39725e-07
-6.09788e-06
-3.71734e-07
-5.83349e-06
-5.14049e-07
-5.49199e-06
-6.66129e-07
-5.06855e-06
-8.27875e-07
-4.559e-06
-9.97617e-07
-3.9595e-06
-1.17557e-06
-3.26787e-06
-1.357e-06
-2.48254e-06
-1.54386e-06
-1.60578e-06
-1.72306e-06
-6.42078e-07
-1.8998e-06
3.96411e-07
-2.04585e-06
1.49741e-06
-2.1697e-06
2.63215e-06
-2.22555e-06
3.778e-06
-2.26389e-06
4.88612e-06
-2.15575e-06
5.94521e-06
-2.09908e-06
6.88142e-06
-1.77768e-06
7.74346e-06
-1.73444e-06
8.3787e-06
-1.10528e-06
9.02337e-06
-1.36253e-06
9.23993e-06
-1.34627e-07
9.83814e-06
-1.33466e-06
9.59198e-06
1.06499e-06
-2.48709e-06
3.60713e-06
2.31577e-05
1.75216e-08
8.26718e-06
5.77738e-08
-2.50837e-06
-3.05266e-07
1.33095e-06
-3.66553e-07
6.36713e-07
-5.19555e-07
3.86256e-07
-5.89488e-07
2.368e-07
-7.05285e-07
3.02496e-07
-8.93804e-07
5.76796e-07
-1.14388e-06
7.07998e-07
-1.45461e-06
9.797e-07
-1.76711e-06
9.53463e-07
-2.04733e-06
9.07622e-07
-2.23834e-06
6.03198e-07
-2.29296e-06
1.69438e-07
-2.1603e-06
-4.54148e-07
-1.82327e-06
-1.11487e-06
-1.34565e-06
-1.58631e-06
-9.31449e-07
-1.38664e-06
-9.34579e-07
-9.02928e-08
-1.62987e-06
2.00182e-06
-2.73962e-06
3.39688e-06
-3.70525e-06
3.21745e-06
-4.35999e-06
2.25984e-06
-4.81813e-06
1.52865e-06
-5.17009e-06
1.1392e-06
-5.45657e-06
9.15567e-07
-5.69618e-06
7.64586e-07
-5.89645e-06
6.41505e-07
-6.05917e-06
5.2626e-07
-6.18293e-06
4.07517e-07
-6.26465e-06
2.79392e-07
-6.30065e-06
1.3816e-07
-6.28729e-06
-1.74522e-08
-6.2194e-06
-1.86192e-07
-6.09058e-06
-3.68547e-07
-5.89549e-06
-5.6683e-07
-5.62877e-06
-7.80766e-07
-5.28528e-06
-1.00961e-06
-4.86016e-06
-1.253e-06
-4.34906e-06
-1.50872e-06
-3.74826e-06
-1.77637e-06
-3.05526e-06
-2.05e-06
-2.26902e-06
-2.3301e-06
-1.39098e-06
-2.60111e-06
-4.26832e-07
-2.86395e-06
6.14038e-07
-3.08672e-06
1.7167e-06
-3.27236e-06
2.85616e-06
-3.36501e-06
4.00247e-06
-3.4102e-06
5.11868e-06
-3.27196e-06
6.17478e-06
-3.15518e-06
7.12952e-06
-2.73241e-06
7.97752e-06
-2.58245e-06
8.66025e-06
-1.78801e-06
9.2521e-06
-1.95437e-06
9.59443e-06
-4.76962e-07
1.00184e-05
-1.75862e-06
1.00604e-05
1.02302e-06
-3.06902e-06
4.52863e-06
2.86291e-05
7.56695e-07
1.20391e-05
-2.34551e-07
-1.51713e-06
-4.60584e-07
1.55698e-06
-3.97429e-07
5.73558e-07
-5.53406e-07
5.42232e-07
-6.16828e-07
3.00222e-07
-7.37765e-07
4.23433e-07
-9.13013e-07
7.52044e-07
-1.15572e-06
9.50702e-07
-1.44648e-06
1.27046e-06
-1.74657e-06
1.25355e-06
-2.01756e-06
1.17862e-06
-2.21253e-06
7.98165e-07
-2.28226e-06
2.39171e-07
-2.17824e-06
-5.58171e-07
-1.88241e-06
-1.4107e-06
-1.45488e-06
-2.01384e-06
-1.08645e-06
-1.75508e-06
-1.1073e-06
-6.94375e-08
-1.7606e-06
2.65512e-06
-2.76744e-06
4.40372e-06
-3.63226e-06
4.08228e-06
-4.23448e-06
2.86206e-06
-4.66967e-06
1.96383e-06
-5.00762e-06
1.47715e-06
-5.28322e-06
1.19116e-06
-5.51349e-06
9.94862e-07
-5.7056e-06
8.33613e-07
-5.86124e-06
6.819e-07
-5.97907e-06
5.25341e-07
-6.05608e-06
3.5641e-07
-6.08858e-06
1.70651e-07
-6.07238e-06
-3.36439e-08
-6.00217e-06
-2.56409e-07
-5.8719e-06
-4.98816e-07
-5.67617e-06
-7.6256e-07
-5.40958e-06
-1.04736e-06
-5.06691e-06
-1.35228e-06
-4.64322e-06
-1.67669e-06
-4.13408e-06
-2.01785e-06
-3.53577e-06
-2.37469e-06
-2.84562e-06
-2.74014e-06
-2.06274e-06
-3.11298e-06
-1.18823e-06
-3.47562e-06
-2.27958e-07
-3.82422e-06
8.09601e-07
-4.12428e-06
1.90837e-06
-4.37113e-06
3.04431e-06
-4.50095e-06
4.18521e-06
-4.5511e-06
5.29811e-06
-4.38486e-06
6.34677e-06
-4.20384e-06
7.30151e-06
-3.68716e-06
8.13754e-06
-3.41847e-06
8.83191e-06
-2.48239e-06
9.39546e-06
-2.51792e-06
9.78494e-06
-8.66438e-07
1.01213e-05
-2.09497e-06
1.02929e-05
8.51382e-07
-3.43384e-06
5.30472e-06
3.33243e-05
1.49069e-06
1.58532e-05
-2.60201e-07
2.33759e-07
-5.51612e-07
1.84839e-06
-4.18936e-07
4.40882e-07
-5.73308e-07
6.96605e-07
-6.32357e-07
3.59271e-07
-7.54533e-07
5.45609e-07
-9.17439e-07
9.1495e-07
-1.14883e-06
1.1821e-06
-1.42171e-06
1.54334e-06
-1.70947e-06
1.54131e-06
-1.97354e-06
1.44269e-06
-2.173e-06
9.97634e-07
-2.2588e-06
3.24969e-07
-2.18425e-06
-6.32724e-07
-1.9303e-06
-1.66465e-06
-1.55208e-06
-2.39206e-06
-1.22692e-06
-2.08024e-06
-1.25846e-06
-3.78944e-08
-1.8557e-06
3.25236e-06
-2.75636e-06
5.30438e-06
-3.53273e-06
4.85864e-06
-4.09099e-06
3.42032e-06
-4.50558e-06
2.37842e-06
-4.83041e-06
1.80198e-06
-5.09578e-06
1.45653e-06
-5.31734e-06
1.21642e-06
-5.50188e-06
1.01815e-06
-5.65101e-06
8.31032e-07
-5.76342e-06
6.37756e-07
-5.83616e-06
4.29152e-07
-5.86543e-06
1.99918e-07
-5.84681e-06
-5.22659e-08
-5.77489e-06
-3.2833e-07
-5.64387e-06
-6.29833e-07
-5.4483e-06
-9.5813e-07
-5.18273e-06
-1.31293e-06
-4.84187e-06
-1.69314e-06
-4.42074e-06
-2.09783e-06
-3.91481e-06
-2.52378e-06
-3.32032e-06
-2.96917e-06
-2.63451e-06
-3.42594e-06
-1.85651e-06
-3.89099e-06
-9.87223e-07
-4.34491e-06
-3.24143e-08
-4.77903e-06
9.99645e-07
-5.15633e-06
2.09219e-06
-5.46367e-06
3.22151e-06
-5.63028e-06
4.35452e-06
-5.68411e-06
5.46004e-06
-5.49038e-06
6.49924e-06
-5.24304e-06
7.44768e-06
-4.6356e-06
8.27202e-06
-4.24282e-06
8.96578e-06
-3.17614e-06
9.51042e-06
-3.06256e-06
9.91704e-06
-1.27307e-06
1.02064e-05
-2.38432e-06
1.04335e-05
6.24231e-07
-3.67502e-06
5.9756e-06
3.73487e-05
2.24022e-06
1.95885e-05
-6.29772e-08
2.53696e-06
-5.83032e-07
2.36845e-06
-4.3718e-07
2.95029e-07
-5.8495e-07
8.44375e-07
-6.40811e-07
4.15132e-07
-7.61777e-07
6.66574e-07
-9.12802e-07
1.06598e-06
-1.13107e-06
1.40036e-06
-1.38701e-06
1.79929e-06
-1.66254e-06
1.81684e-06
-1.92046e-06
1.7006e-06
-2.12438e-06
1.20156e-06
-2.2264e-06
4.2699e-07
-2.18157e-06
-6.7755e-07
-1.96972e-06
-1.87651e-06
-1.6402e-06
-2.72159e-06
-1.35583e-06
-2.36461e-06
-1.39127e-06
-2.4533e-09
-1.92422e-06
3.78531e-06
-2.72038e-06
6.10054e-06
-3.41703e-06
5.5553e-06
-3.93594e-06
3.93923e-06
-4.33095e-06
2.77343e-06
-4.64302e-06
2.11405e-06
-4.89844e-06
1.71195e-06
-5.11156e-06
1.42955e-06
-5.2888e-06
1.19538e-06
-5.43167e-06
9.7391e-07
-5.5389e-06
7.4498e-07
-5.60752e-06
4.97778e-07
-5.63368e-06
2.26074e-07
-5.6128e-06
-7.3148e-08
-5.53948e-06
-4.0165e-07
-5.40805e-06
-7.61262e-07
-5.21302e-06
-1.15316e-06
-4.9489e-06
-1.57704e-06
-4.61036e-06
-2.03169e-06
-4.19233e-06
-2.51586e-06
-3.69024e-06
-3.02587e-06
-3.10026e-06
-3.55915e-06
-2.41957e-06
-4.10664e-06
-1.64725e-06
-4.66331e-06
-7.84086e-07
-5.20807e-06
1.64335e-07
-5.72745e-06
1.18966e-06
-6.18166e-06
2.27459e-06
-6.5486e-06
3.3956e-06
-6.75129e-06
4.51927e-06
-6.80778e-06
5.61531e-06
-6.58642e-06
6.64372e-06
-6.27145e-06
7.58287e-06
-5.57475e-06
8.39515e-06
-5.05509e-06
9.08296e-06
-3.86395e-06
9.61216e-06
-3.59176e-06
1.00233e-05
-1.68416e-06
1.02831e-05
-2.64416e-06
1.05332e-05
3.7417e-07
-3.83758e-06
6.56084e-06
4.07879e-05
2.97413e-06
2.31752e-05
2.30488e-07
5.2806e-06
-5.3625e-07
3.13518e-06
-4.53099e-07
2.11879e-07
-5.90593e-07
9.81869e-07
-6.43925e-07
4.68464e-07
-7.6223e-07
7.84879e-07
-9.01573e-07
1.20532e-06
-1.10578e-06
1.60457e-06
-1.34527e-06
2.03877e-06
-1.60854e-06
2.08011e-06
-1.86043e-06
1.95249e-06
-2.06843e-06
1.40956e-06
-2.18641e-06
5.44974e-07
-2.1712e-06
-6.92768e-07
-2.00134e-06
-2.04636e-06
-1.71973e-06
-3.0032e-06
-1.47346e-06
-2.61088e-06
-1.50672e-06
3.08115e-08
-1.97071e-06
4.2493e-06
-2.66598e-06
6.7958e-06
-3.28964e-06
6.17896e-06
-3.77204e-06
4.42164e-06
-4.14795e-06
3.14933e-06
-4.44735e-06
2.41345e-06
-4.69291e-06
1.95751e-06
-4.8977e-06
1.63433e-06
-5.06773e-06
1.36541e-06
-5.20444e-06
1.11062e-06
-5.30654e-06
8.4708e-07
-5.37109e-06
5.62322e-07
-5.39415e-06
2.4914e-07
-5.37108e-06
-9.62227e-08
-5.2965e-06
-4.76226e-07
-5.16483e-06
-8.92935e-07
-4.97054e-06
-1.34744e-06
-4.70812e-06
-1.83947e-06
-4.37216e-06
-2.36764e-06
-3.95757e-06
-2.93045e-06
-3.4597e-06
-3.52375e-06
-2.87467e-06
-4.14417e-06
-2.19958e-06
-4.78173e-06
-1.43346e-06
-5.42943e-06
-5.76995e-07
-6.06454e-06
3.64393e-07
-6.66884e-06
1.38209e-06
-7.19936e-06
2.45844e-06
-7.62495e-06
3.57003e-06
-7.86288e-06
4.6833e-06
-7.92105e-06
5.76851e-06
-7.67162e-06
6.78511e-06
-7.28805e-06
7.71318e-06
-6.50283e-06
8.51282e-06
-5.85473e-06
9.19177e-06
-4.5429e-06
9.70688e-06
-4.10688e-06
1.01161e-05
-2.09337e-06
1.03546e-05
-2.88272e-06
1.0612e-05
1.16862e-07
-3.94446e-06
7.07186e-06
4.3716e-05
3.68672e-06
2.65604e-05
6.54161e-07
8.31316e-06
-4.06399e-07
4.19574e-06
-4.6259e-07
2.6807e-07
-5.91076e-07
1.11035e-06
-6.42394e-07
5.19782e-07
-7.57257e-07
8.99743e-07
-8.85055e-07
1.33312e-06
-1.07475e-06
1.79427e-06
-1.29798e-06
2.262e-06
-1.54884e-06
2.33097e-06
-1.79448e-06
2.19813e-06
-2.00596e-06
1.62105e-06
-2.13935e-06
6.78358e-07
-2.1533e-06
-6.7882e-07
-2.02502e-06
-2.17463e-06
-1.79032e-06
-3.2379e-06
-1.57931e-06
-2.82189e-06
-1.60528e-06
5.67786e-08
-1.99808e-06
4.6421e-06
-2.59692e-06
7.39465e-06
-3.15296e-06
6.735e-06
-3.60077e-06
4.86945e-06
-3.95775e-06
3.50631e-06
-4.24445e-06
2.70015e-06
-4.48011e-06
2.19317e-06
-4.67656e-06
1.83078e-06
-4.83939e-06
1.52825e-06
-4.96994e-06
1.24117e-06
-5.0669e-06
9.44042e-07
-5.12733e-06
6.22752e-07
-5.14727e-06
2.69081e-07
-5.12202e-06
-1.21482e-07
-5.04624e-06
-5.52003e-07
-4.9144e-06
-1.02478e-06
-4.72096e-06
-1.54088e-06
-4.46036e-06
-2.10006e-06
-4.12717e-06
-2.70084e-06
-3.71623e-06
-3.34139e-06
-3.22283e-06
-4.01715e-06
-2.64304e-06
-4.72396e-06
-1.97388e-06
-5.45089e-06
-1.21434e-06
-6.18897e-06
-3.64998e-07
-6.91388e-06
5.68832e-07
-7.60267e-06
1.57822e-06
-8.20875e-06
2.64525e-06
-8.69197e-06
3.74657e-06
-8.96421e-06
4.84863e-06
-9.0231e-06
5.92198e-06
-8.74497e-06
6.92591e-06
-8.29197e-06
7.84161e-06
-7.41853e-06
8.62797e-06
-6.64109e-06
9.29618e-06
-5.21111e-06
9.79764e-06
-4.60834e-06
1.02013e-05
-2.49698e-06
1.04227e-05
-3.10418e-06
1.06789e-05
-1.39316e-07
-4.00855e-06
7.51728e-06
4.61988e-05
4.37169e-06
2.9706e-05
1.1809e-06
1.15039e-05
-2.07409e-07
5.58405e-06
-4.56154e-07
5.16814e-07
-5.86272e-07
1.24047e-06
-6.36421e-07
5.69931e-07
-7.47568e-07
1.01089e-06
-8.64008e-07
1.44956e-06
-1.03899e-06
1.96925e-06
-1.24606e-06
2.46907e-06
-1.48426e-06
2.56917e-06
-1.72321e-06
2.43708e-06
-1.9374e-06
1.83523e-06
-2.08536e-06
8.26322e-07
-2.12773e-06
-6.36453e-07
-2.04031e-06
-2.26206e-06
-1.85124e-06
-3.42697e-06
-1.67267e-06
-3.00046e-06
-1.68728e-06
7.13892e-08
-2.00847e-06
4.96329e-06
-2.51568e-06
7.90185e-06
-3.0085e-06
7.22783e-06
-3.42306e-06
5.284e-06
-3.76114e-06
3.84439e-06
-4.03501e-06
2.97402e-06
-4.26067e-06
2.41884e-06
-4.4487e-06
2.01881e-06
-4.60428e-06
1.68382e-06
-4.72861e-06
1.3655e-06
-4.82036e-06
1.0358e-06
-4.87661e-06
6.78993e-07
-4.89335e-06
2.85828e-07
-4.86588e-06
-1.48957e-07
-4.7889e-06
-6.2898e-07
-4.65692e-06
-1.15676e-06
-4.46437e-06
-1.73343e-06
-4.20568e-06
-2.35876e-06
-3.87536e-06
-3.03116e-06
-3.46821e-06
-3.74854e-06
-2.97946e-06
-4.50591e-06
-2.40512e-06
-5.29829e-06
-1.74216e-06
-6.11386e-06
-9.89475e-07
-6.94165e-06
-1.47584e-07
-7.75577e-06
7.78241e-07
-8.52849e-06
1.77875e-06
-9.20926e-06
2.83585e-06
-9.74906e-06
3.92624e-06
-1.00546e-05
5.01638e-06
-1.01132e-05
6.07705e-06
-9.80565e-06
7.06754e-06
-9.28246e-06
7.96984e-06
-8.32082e-06
8.74227e-06
-7.41351e-06
9.39836e-06
-5.86721e-06
9.88619e-06
-5.09616e-06
1.02818e-05
-2.89257e-06
1.04883e-05
-3.31074e-06
1.07385e-05
-3.8945e-07
-4.03776e-06
7.90479e-06
4.8294e-05
5.02316e-06
3.25876e-05
1.77378e-06
1.47533e-05
5.7905e-08
7.29992e-06
-4.23735e-07
9.98454e-07
-5.75048e-07
1.39179e-06
-6.25881e-07
6.20764e-07
-7.33486e-07
1.1185e-06
-8.38882e-07
1.55495e-06
-9.99154e-07
2.12952e-06
-1.19009e-06
2.66001e-06
-1.41534e-06
2.79442e-06
-1.64701e-06
2.66875e-06
-1.86296e-06
2.05119e-06
-2.02446e-06
9.87816e-07
-2.09421e-06
-5.66702e-07
-2.0466e-06
-2.30967e-06
-1.90169e-06
-3.57188e-06
-1.75284e-06
-3.14931e-06
-1.75313e-06
7.16773e-08
-2.00367e-06
5.21383e-06
-2.42405e-06
8.32223e-06
-2.85732e-06
7.6611e-06
-3.23956e-06
5.66625e-06
-3.55867e-06
4.16349e-06
-3.81952e-06
3.23488e-06
-4.03505e-06
2.63436e-06
-4.21455e-06
2.19831e-06
-4.36277e-06
1.83204e-06
-4.48078e-06
1.48351e-06
-4.56723e-06
1.12226e-06
-4.61919e-06
7.30948e-07
-4.63266e-06
2.99295e-07
-4.60291e-06
-1.78706e-07
-4.5247e-06
-7.07184e-07
-4.39256e-06
-1.2889e-06
-4.20092e-06
-1.92507e-06
-3.94417e-06
-2.61551e-06
-3.61679e-06
-3.35854e-06
-3.21353e-06
-4.1518e-06
-2.72955e-06
-4.98988e-06
-2.16083e-06
-5.86701e-06
-1.50425e-06
-6.77044e-06
-7.5865e-07
-7.68725e-06
7.55057e-08
-8.58993e-06
9.92934e-07
-9.44592e-06
1.98409e-06
-1.02004e-05
3.03074e-06
-1.07957e-05
4.10963e-06
-1.11335e-05
5.18726e-06
-1.11909e-05
6.23452e-06
-1.08529e-05
7.21087e-06
-1.02588e-05
8.09887e-06
-9.20883e-06
8.85672e-06
-8.17136e-06
9.49958e-06
-6.51007e-06
9.97355e-06
-5.57013e-06
1.03594e-05
-3.27839e-06
1.05522e-05
-3.50358e-06
1.07931e-05
-6.30392e-07
-4.0373e-06
8.24134e-06
5.00526e-05
5.63653e-06
3.51924e-05
2.41116e-06
1.79787e-05
4.34912e-07
9.27617e-06
-3.54597e-07
1.78796e-06
-5.54883e-07
1.59207e-06
-6.10322e-07
6.76203e-07
-7.15058e-07
1.22323e-06
-8.09913e-07
1.64981e-06
-9.55652e-07
2.27526e-06
-1.13047e-06
2.83483e-06
-1.34242e-06
3.00636e-06
-1.56612e-06
2.89245e-06
-1.78279e-06
2.26786e-06
-1.95656e-06
1.16159e-06
-2.05238e-06
-4.70883e-07
-2.04325e-06
-2.3188e-06
-1.94083e-06
-3.67429e-06
-1.81925e-06
-3.27089e-06
-1.80332e-06
5.57443e-08
-1.9852e-06
5.39571e-06
-2.32344e-06
8.66048e-06
-2.70019e-06
8.03784e-06
-3.0508e-06
6.01686e-06
-3.35078e-06
4.46348e-06
-3.59841e-06
3.48251e-06
-3.80361e-06
2.83956e-06
-3.97444e-06
2.36914e-06
-4.11517e-06
1.97278e-06
-4.22675e-06
1.59509e-06
-4.30779e-06
1.2033e-06
-4.35535e-06
7.78505e-07
-4.36544e-06
3.09385e-07
-4.33335e-06
-2.10801e-07
-4.25386e-06
-7.86668e-07
-4.12154e-06
-1.42123e-06
-3.93079e-06
-2.11581e-06
-3.67599e-06
-2.87031e-06
-3.35158e-06
-3.68295e-06
-2.95227e-06
-4.55111e-06
-2.47316e-06
-5.46899e-06
-1.91018e-06
-6.42999e-06
-1.26013e-06
-7.42049e-06
-5.21796e-07
-8.42559e-06
3.0438e-07
-9.4161e-06
1.21307e-06
-1.03546e-05
2.19445e-06
-1.11818e-05
3.23024e-06
-1.18315e-05
4.29712e-06
-1.22004e-05
5.36168e-06
-1.22554e-05
6.3949e-06
-1.18861e-05
7.35644e-06
-1.12203e-05
8.22935e-06
-1.00817e-05
8.97196e-06
-8.91397e-06
9.60064e-06
-7.13875e-06
1.00604e-05
-6.02988e-06
1.04351e-05
-3.65309e-06
1.06148e-05
-3.68329e-06
1.08444e-05
-8.59986e-07
-4.01084e-06
8.53317e-06
5.15195e-05
6.20849e-06
3.75171e-05
3.07083e-06
2.11164e-05
8.68313e-07
1.14787e-05
-2.22712e-07
2.87899e-06
-5.20931e-07
1.89029e-06
-5.88842e-07
7.44114e-07
-6.92079e-07
1.32647e-06
-7.77159e-07
1.73489e-06
-9.08722e-07
2.40682e-06
-1.06747e-06
2.99358e-06
-1.26575e-06
3.20464e-06
-1.48074e-06
3.10743e-06
-1.69696e-06
2.48409e-06
-1.88157e-06
1.34619e-06
-2.00188e-06
-3.50571e-07
-2.02962e-06
-2.29106e-06
-1.96789e-06
-3.73601e-06
-1.87147e-06
-3.36731e-06
-1.83843e-06
2.26983e-08
-1.95441e-06
5.5117e-06
-2.215e-06
8.92106e-06
-2.53775e-06
8.36058e-06
-2.85719e-06
6.3363e-06
-3.13787e-06
4.74415e-06
-3.37203e-06
3.71667e-06
-3.56669e-06
3.03422e-06
-3.72868e-06
2.53113e-06
-3.86179e-06
2.10589e-06
-3.96681e-06
1.70011e-06
-4.04231e-06
1.2788e-06
-4.08536e-06
8.21547e-07
-4.09196e-06
3.15992e-07
-4.05744e-06
-2.45325e-07
-3.97662e-06
-8.67493e-07
-3.84405e-06
-1.55379e-06
-3.65417e-06
-2.30569e-06
-3.40132e-06
-3.12316e-06
-3.0799e-06
-4.00437e-06
-2.68458e-06
-4.94644e-06
-2.21041e-06
-5.94316e-06
-1.65325e-06
-6.98714e-06
-1.00986e-06
-8.06388e-06
-2.78929e-07
-9.15652e-06
5.39052e-07
-1.02341e-05
1.43869e-06
-1.12542e-05
2.40996e-06
-1.21531e-05
3.43449e-06
-1.2856e-05
4.48894e-06
-1.32548e-05
5.53993e-06
-1.33064e-05
6.55851e-06
-1.29047e-05
7.50461e-06
-1.21665e-05
8.36169e-06
-1.09388e-05
9.08842e-06
-9.6407e-06
9.70206e-06
-7.75239e-06
1.01472e-05
-6.47499e-06
1.05097e-05
-4.01558e-06
1.06765e-05
-3.85011e-06
1.08932e-05
-1.07669e-06
-3.96106e-06
8.78581e-06
5.27337e-05
6.73711e-06
3.95658e-05
3.73677e-06
2.41167e-05
1.36242e-06
1.3853e-05
-7.71169e-09
4.24912e-06
-4.64611e-07
2.34719e-06
-5.5984e-07
8.39343e-07
-6.64067e-07
1.4307e-06
-7.4051e-07
1.81133e-06
-8.58462e-07
2.52477e-06
-1.00124e-06
3.13635e-06
-1.18553e-06
3.38893e-06
-1.391e-06
3.31291e-06
-1.60556e-06
2.69864e-06
-1.7994e-06
1.54004e-06
-1.94239e-06
-2.07582e-07
-2.00512e-06
-2.22833e-06
-1.98219e-06
-3.75895e-06
-1.90918e-06
-3.44032e-06
-1.85905e-06
-2.74336e-08
-1.91252e-06
5.56517e-06
-2.09969e-06
9.10823e-06
-2.37054e-06
8.63144e-06
-2.65911e-06
6.62487e-06
-2.92025e-06
5.00529e-06
-3.14067e-06
3.93709e-06
-3.32458e-06
3.21813e-06
-3.47756e-06
2.68411e-06
-3.6029e-06
2.23124e-06
-3.70122e-06
1.79843e-06
-3.77105e-06
1.34864e-06
-3.80946e-06
8.59953e-07
-3.81248e-06
3.19011e-07
-3.77544e-06
-2.82365e-07
-3.6932e-06
-9.4973e-07
-3.56035e-06
-1.68664e-06
-3.3713e-06
-2.49475e-06
-3.12037e-06
-3.37409e-06
-2.80194e-06
-4.3228e-06
-2.41063e-06
-5.33774e-06
-1.94144e-06
-6.41235e-06
-1.39018e-06
-7.5384e-06
-7.53537e-07
-8.70052e-06
-3.01283e-08
-9.87993e-06
7.79467e-07
-1.10437e-05
1.66978e-06
-1.21446e-05
2.63065e-06
-1.31139e-05
3.6436e-06
-1.3869e-05
4.68521e-06
-1.42964e-05
5.72218e-06
-1.43434e-05
6.72555e-06
-1.39081e-05
7.65562e-06
-1.30965e-05
8.49618e-06
-1.17794e-05
9.20638e-06
-1.03509e-05
9.80419e-06
-8.3502e-06
1.02342e-05
-6.90498e-06
1.05835e-05
-4.36491e-06
1.07374e-05
-4.00405e-06
1.09401e-05
-1.27937e-06
-3.89e-06
9.00427e-06
5.37294e-05
7.22164e-06
4.13484e-05
4.39684e-06
2.69415e-05
1.9069e-06
1.6343e-05
2.38462e-07
5.91756e-06
-3.72681e-07
2.95833e-06
-5.20601e-07
9.87263e-07
-6.30181e-07
1.54028e-06
-6.99669e-07
1.88082e-06
-8.04832e-07
2.62994e-06
-9.31848e-07
3.26337e-06
-1.10185e-06
3.55894e-06
-1.29703e-06
3.50808e-06
-1.50862e-06
2.91023e-06
-1.70998e-06
1.7414e-06
-1.87362e-06
-4.3947e-08
-1.96922e-06
-2.13273e-06
-1.9831e-06
-3.74507e-06
-1.93215e-06
-3.49127e-06
-1.86578e-06
-9.38086e-08
-1.86058e-06
5.55997e-06
-1.97835e-06
9.226e-06
-2.19906e-06
8.85216e-06
-2.45691e-06
6.88272e-06
-2.69823e-06
5.24661e-06
-2.90463e-06
4.14349e-06
-3.07756e-06
3.39106e-06
-3.22134e-06
2.82788e-06
-3.33875e-06
2.34865e-06
-3.43023e-06
1.8899e-06
-3.49427e-06
1.41267e-06
-3.52792e-06
8.93602e-07
-3.52724e-06
3.18334e-07
-3.48759e-06
-3.22013e-07
-3.40387e-06
-1.03345e-06
-3.27067e-06
-1.81984e-06
-3.0824e-06
-2.68302e-06
-2.83337e-06
-3.62312e-06
-2.51792e-06
-4.63824e-06
-2.13064e-06
-5.72503e-06
-1.66645e-06
-6.87653e-06
-1.12114e-06
-8.08371e-06
-4.913e-07
-9.33036e-06
2.24484e-07
-1.05957e-05
1.02553e-06
-1.18447e-05
1.9063e-06
-1.30253e-05
2.85651e-06
-1.40641e-05
3.85758e-06
-1.48701e-05
4.88602e-06
-1.53249e-05
5.90853e-06
-1.53659e-05
6.89618e-06
-1.48957e-05
7.80962e-06
-1.401e-05
8.63298e-06
-1.26027e-05
9.32602e-06
-1.10439e-05
9.90726e-06
-8.93144e-06
1.03216e-05
-7.31933e-06
1.06569e-05
-4.70022e-06
1.07979e-05
-4.14498e-06
1.09856e-05
-1.46711e-06
-3.79925e-06
9.19306e-06
5.45363e-05
7.66236e-06
4.28791e-05
5.0415e-06
2.95624e-05
2.49278e-06
1.88917e-05
5.77231e-07
7.83311e-06
-2.32812e-07
3.76838e-06
-4.66815e-07
1.22127e-06
-5.89083e-07
1.66254e-06
-6.54109e-07
1.94584e-06
-7.47648e-07
2.72347e-06
-8.59272e-07
3.375e-06
-1.01477e-06
3.71444e-06
-1.19889e-06
3.6922e-06
-1.40621e-06
3.11755e-06
-1.61326e-06
1.94845e-06
-1.79532e-06
1.38118e-07
-1.92148e-06
-2.00658e-06
-1.97013e-06
-3.69641e-06
-1.94026e-06
-3.52114e-06
-1.85918e-06
-1.74885e-07
-1.79954e-06
5.50033e-06
-1.85172e-06
9.27818e-06
-2.02375e-06
9.02419e-06
-2.2509e-06
7.10987e-06
-2.47211e-06
5.46782e-06
-2.66418e-06
4.33556e-06
-2.82589e-06
3.55276e-06
-2.96027e-06
2.96226e-06
-3.0696e-06
2.45798e-06
-3.15409e-06
1.9744e-06
-3.2122e-06
1.47078e-06
-3.24098e-06
9.22377e-07
-3.2365e-06
3.13857e-07
-3.19416e-06
-3.64356e-07
-3.10887e-06
-1.11874e-06
-2.97525e-06
-1.95345e-06
-2.78772e-06
-2.87056e-06
-2.54055e-06
-3.87028e-06
-2.22807e-06
-4.95072e-06
-1.84481e-06
-6.10829e-06
-1.38565e-06
-7.33569e-06
-8.46298e-07
-8.62306e-06
-2.23316e-07
-9.95334e-06
4.84753e-07
-1.13038e-05
1.2771e-06
-1.26371e-05
2.14814e-06
-1.38964e-05
3.08748e-06
-1.50035e-05
4.07644e-06
-1.5859e-05
5.09137e-06
-1.63398e-05
6.09902e-06
-1.63735e-05
7.07045e-06
-1.58672e-05
7.96671e-06
-1.49062e-05
8.77223e-06
-1.34083e-05
9.44748e-06
-1.17192e-05
1.00114e-05
-9.49539e-06
1.04096e-05
-7.71751e-06
1.07301e-05
-5.02075e-06
1.08578e-05
-4.27267e-06
1.10299e-05
-1.6392e-06
-3.69009e-06
9.35624e-06
5.51801e-05
8.0604e-06
4.4175e-05
5.66315e-06
3.19596e-05
3.1097e-06
2.14451e-05
9.95542e-07
9.94727e-06
-4.21694e-08
4.80609e-06
-3.92295e-07
1.57139e-06
-5.38713e-07
1.80896e-06
-6.03017e-07
2.01015e-06
-6.86555e-07
2.80701e-06
-7.83377e-07
3.47182e-06
-9.24272e-07
3.85534e-06
-1.09661e-06
3.86453e-06
-1.29835e-06
3.31929e-06
-1.50919e-06
2.1593e-06
-1.70732e-06
3.36244e-07
-1.86151e-06
-1.85239e-06
-1.94287e-06
-3.61505e-06
-1.93339e-06
-3.53062e-06
-1.83973e-06
-2.68546e-07
-1.73016e-06
5.39076e-06
-1.72044e-06
9.26846e-06
-1.84502e-06
9.14877e-06
-2.0414e-06
7.30625e-06
-2.24214e-06
5.66857e-06
-2.41957e-06
4.51299e-06
-2.56979e-06
3.70298e-06
-2.69459e-06
3.08706e-06
-2.79566e-06
2.55906e-06
-2.87304e-06
2.05178e-06
-2.9251e-06
1.52284e-06
-2.94888e-06
9.46165e-07
-2.94051e-06
3.0548e-07
-2.89538e-06
-4.09482e-07
-2.80846e-06
-1.20567e-06
-2.67436e-06
-2.08754e-06
-2.48751e-06
-3.05741e-06
-2.24217e-06
-4.11562e-06
-1.93263e-06
-5.26027e-06
-1.55337e-06
-6.48755e-06
-1.09924e-06
-7.78982e-06
-5.6587e-07
-9.15643e-06
5.02267e-08
-1.05694e-05
7.50505e-07
-1.20041e-05
1.53403e-06
-1.34206e-05
2.3952e-06
-1.47576e-05
3.32349e-06
-1.59318e-05
4.30012e-06
-1.68356e-05
5.30127e-06
-1.7341e-05
6.29368e-06
-1.7366e-05
7.24842e-06
-1.68219e-05
8.12694e-06
-1.57847e-05
8.914e-06
-1.41953e-05
9.57083e-06
-1.2376e-05
1.01168e-05
-1.00414e-05
1.04983e-05
-8.09899e-06
1.08033e-05
-5.32578e-06
1.09175e-05
-4.38684e-06
1.10733e-05
-1.79504e-06
-3.56361e-06
9.49747e-06
5.56826e-05
8.41752e-06
4.52549e-05
6.25577e-06
3.41214e-05
3.74688e-06
2.3954e-05
1.48438e-06
1.22098e-05
2.29326e-07
6.06115e-06
-2.89004e-07
2.08972e-06
-4.75958e-07
1.99591e-06
-5.45189e-07
2.07938e-06
-6.20989e-07
2.88281e-06
-7.03905e-07
3.55473e-06
-8.30253e-07
3.98168e-06
-9.90192e-07
4.02447e-06
-1.18508e-06
3.51417e-06
-1.39778e-06
2.372e-06
-1.60948e-06
5.47945e-07
-1.78904e-06
-1.67283e-06
-1.90097e-06
-3.50312e-06
-1.91148e-06
-3.52011e-06
-1.80781e-06
-3.72218e-07
-1.65307e-06
5.23601e-06
-1.58507e-06
9.20047e-06
-1.66326e-06
9.22696e-06
-1.8287e-06
7.47168e-06
-2.0086e-06
5.84846e-06
-2.17104e-06
4.67543e-06
-2.30952e-06
3.84146e-06
-2.42452e-06
3.20206e-06
-2.51719e-06
2.65173e-06
-2.5873e-06
2.1219e-06
-2.63319e-06
1.56872e-06
-2.65188e-06
9.64857e-07
-2.63951e-06
2.93106e-07
-2.59151e-06
-4.57474e-07
-2.50288e-06
-1.2943e-06
-2.36825e-06
-2.22218e-06
-2.18202e-06
-3.24364e-06
-1.93847e-06
-4.35918e-06
-1.63184e-06
-5.5669e-06
-1.25657e-06
-6.86281e-06
-8.07453e-07
-8.23894e-06
-2.80064e-07
-9.68382e-06
3.29128e-07
-1.11786e-05
1.02155e-06
-1.26965e-05
1.79616e-06
-1.41952e-05
2.64735e-06
-1.56087e-05
3.56445e-06
-1.68489e-05
4.52856e-06
-1.77997e-05
5.51566e-06
-1.83281e-05
6.49249e-06
-1.83428e-05
7.43008e-06
-1.77595e-05
8.29033e-06
-1.6645e-05
9.05831e-06
-1.49633e-05
9.69611e-06
-1.30138e-05
1.02234e-05
-1.05687e-05
1.05876e-05
-8.46319e-06
1.08765e-05
-5.61464e-06
1.09768e-05
-4.48717e-06
1.11159e-05
-1.93411e-06
-3.42069e-06
9.61998e-06
5.60626e-05
8.73603e-06
4.61388e-05
6.81477e-06
3.60426e-05
4.39383e-06
2.6375e-05
2.0313e-06
1.45723e-05
5.62098e-07
7.53035e-06
-1.43336e-07
2.79516e-06
-3.96207e-07
2.24879e-06
-4.78891e-07
2.16206e-06
-5.50116e-07
2.95404e-06
-6.20451e-07
3.62507e-06
-7.32525e-07
4.09376e-06
-8.79572e-07
4.17152e-06
-1.06639e-06
3.70099e-06
-1.27903e-06
2.58464e-06
-1.50174e-06
7.70656e-07
-1.70386e-06
-1.47071e-06
-1.8442e-06
-3.36278e-06
-1.87446e-06
-3.48984e-06
-1.76368e-06
-4.82995e-07
-1.56873e-06
5.04106e-06
-1.44605e-06
9.07779e-06
-1.47883e-06
9.25974e-06
-1.6131e-06
7.60594e-06
-1.77173e-06
6.0071e-06
-1.91882e-06
4.82253e-06
-2.04528e-06
3.96792e-06
-2.15028e-06
3.30706e-06
-2.23438e-06
2.73582e-06
-2.29711e-06
2.18463e-06
-2.3367e-06
1.60831e-06
-2.35019e-06
9.7835e-07
-2.33373e-06
2.76647e-07
-2.2828e-06
-5.08413e-07
-2.19238e-06
-1.38472e-06
-2.05715e-06
-2.35741e-06
-1.8715e-06
-3.42929e-06
-1.62969e-06
-4.60098e-06
-1.32593e-06
-5.87066e-06
-9.54636e-07
-7.23411e-06
-5.10517e-07
-8.68306e-06
1.09051e-08
-1.02052e-05
6.13175e-07
-1.17809e-05
1.29769e-06
-1.3381e-05
2.06332e-06
-1.49608e-05
2.90444e-06
-1.64499e-05
3.81025e-06
-1.77547e-05
4.76168e-06
-1.87512e-05
5.7345e-06
-1.93009e-05
6.69541e-06
-1.93037e-05
7.61541e-06
-1.86795e-05
8.45687e-06
-1.74864e-05
9.20517e-06
-1.57116e-05
9.82333e-06
-1.3632e-05
1.03313e-05
-1.10767e-05
1.06777e-05
-8.80958e-06
1.09498e-05
-5.88667e-06
1.10359e-05
-4.5733e-06
1.11577e-05
-2.05596e-06
-3.2621e-06
9.72666e-06
5.6336e-05
9.01859e-06
4.68469e-05
7.33684e-06
3.77244e-05
5.04071e-06
2.86711e-05
2.62441e-06
1.69886e-05
9.58457e-07
9.1963e-06
5.49761e-08
3.69864e-06
-2.93001e-07
2.59676e-06
-4.01659e-07
2.27072e-06
-4.72748e-07
3.02513e-06
-5.32414e-07
3.68473e-06
-6.30778e-07
4.19212e-06
-7.64615e-07
4.30536e-06
-9.42265e-07
3.87864e-06
-1.15295e-06
2.79533e-06
-1.38407e-06
1.00178e-06
-1.60585e-06
-1.24893e-06
-1.77235e-06
-3.19627e-06
-1.82224e-06
-3.43995e-06
-1.70749e-06
-5.97753e-07
-1.47745e-06
4.81102e-06
-1.30373e-06
8.90407e-06
-1.29205e-06
9.24806e-06
-1.39487e-06
7.70876e-06
-1.53178e-06
6.14401e-06
-1.66313e-06
4.95388e-06
-1.77728e-06
4.08207e-06
-1.87208e-06
3.40186e-06
-1.94745e-06
2.81118e-06
-2.00266e-06
2.23984e-06
-2.03585e-06
1.6415e-06
-2.04405e-06
9.86549e-07
-2.02342e-06
2.56017e-07
-1.96946e-06
-5.62371e-07
-1.8772e-06
-1.47698e-06
-1.74131e-06
-2.4933e-06
-1.55619e-06
-3.61441e-06
-1.31608e-06
-4.84109e-06
-1.01516e-06
-6.17157e-06
-6.47802e-07
-7.60147e-06
-2.08656e-07
-9.12221e-06
3.06816e-07
-1.07207e-05
9.02152e-07
-1.23762e-05
1.57872e-06
-1.40576e-05
2.33533e-06
-1.57174e-05
3.16633e-06
-1.72809e-05
4.06077e-06
-1.86491e-05
4.99939e-06
-1.96898e-05
5.95772e-06
-2.02592e-05
6.90239e-06
-2.02484e-05
7.80439e-06
-1.95815e-05
8.62654e-06
-1.83086e-05
9.35458e-06
-1.64396e-05
9.95248e-06
-1.42299e-05
1.04405e-05
-1.15647e-05
1.07685e-05
-9.13759e-06
1.10231e-05
-6.14125e-06
1.10947e-05
-4.64489e-06
1.11989e-05
-2.16017e-06
-3.08852e-06
9.82002e-06
5.6516e-05
9.26815e-06
4.73988e-05
7.81986e-06
3.91727e-05
5.67854e-06
3.08124e-05
3.25278e-06
1.94143e-05
1.41696e-06
1.10321e-05
3.03956e-07
4.81164e-06
-1.58184e-07
3.0589e-06
-3.10053e-07
2.42259e-06
-3.87231e-07
3.10231e-06
-4.38953e-07
3.73646e-06
-5.24555e-07
4.27772e-06
-6.45098e-07
4.4259e-06
-8.12615e-07
4.04616e-06
-1.01953e-06
3.00224e-06
-1.25646e-06
1.23871e-06
-1.49494e-06
-1.01045e-06
-1.68531e-06
-3.0059e-06
-1.75474e-06
-3.37053e-06
-1.63924e-06
-7.13252e-07
-1.37934e-06
4.55112e-06
-1.15836e-06
8.68309e-06
-1.10321e-06
9.19291e-06
-1.17427e-06
7.77982e-06
-1.28898e-06
6.25871e-06
-1.40419e-06
5.06909e-06
-1.50574e-06
4.18362e-06
-1.59012e-06
3.48624e-06
-1.65659e-06
2.87766e-06
-1.70416e-06
2.2874e-06
-1.73085e-06
1.66819e-06
-1.73366e-06
9.89364e-07
-1.70878e-06
2.31138e-07
-1.65174e-06
-6.19418e-07
-1.55757e-06
-1.57115e-06
-1.42096e-06
-2.6299e-06