/*--------------------------------*- C++ -*----------------------------------*\
| =========                 |                                                 |
| \\      /  F ield         | OpenFOAM: The Open Source CFD Toolbox           |
|  \\    /   O peration     | Version:  2.4.0                                 |
|   \\  /    A nd           | Web:      www.OpenFOAM.org                      |
|    \\/     M anipulation  |                                                 |
\*---------------------------------------------------------------------------*/
FoamFile
{
    version     2.0;
    format      ascii;
    class       volScalarField;
    location    "9";
    object      epsilon;
}
// * * * * * * * * * * * * * * * * * * * * * * * * * * * * * * * * * * * * * //

dimensions      [0 2 -3 0 0 0 0];

internalField   nonuniform List<scalar> 
400
(
0.000359338
0.00117005
0.00353108
0.00697904
0.0100592
0.0121688
0.0133818
0.013928
0.0140854
0.0138614
0.0132083
0.0124089
0.01138
0.0104316
0.00948913
0.00866463
0.00797346
0.0072945
0.00571768
0.00439416
0.000832419
0.00203785
0.00417348
0.00559982
0.00598723
0.00553218
0.00474991
0.00397119
0.00330432
0.00282405
0.00258809
0.00251894
0.00273722
0.00308224
0.00365745
0.00455698
0.00595562
0.0077933
0.00980301
0.0105961
0.00194588
0.00289757
0.00361311
0.00362786
0.00278794
0.00212695
0.0015719
0.00126273
0.00109125
0.00101725
0.000998192
0.00104603
0.00119468
0.00143136
0.00190226
0.0027194
0.00418318
0.00676612
0.0113407
0.0168158
0.00286477
0.00279254
0.00283669
0.00216419
0.00136075
0.000969937
0.000695537
0.000566411
0.000480258
0.000439141
0.000422589
0.000421437
0.000479686
0.000588265
0.000830086
0.00135053
0.00252321
0.00516502
0.0114024
0.0211689
0.00352096
0.00253261
0.00214587
0.00127396
0.000755286
0.000515158
0.000363268
0.000289801
0.000234926
0.000208574
0.000196279
0.000193803
0.000217325
0.000272909
0.000401913
0.000722616
0.00160306
0.00391269
0.0105583
0.0245633
0.0041693
0.00221716
0.00158411
0.000810785
0.000467391
0.000308243
0.000213141
0.000166146
0.000131072
0.000114404
0.00010676
0.000105086
0.000117905
0.000148578
0.000220817
0.000411524
0.0010409
0.00308931
0.00990359
0.0272038
0.00485856
0.00192013
0.00119874
0.000573265
0.000322667
0.000207659
0.000141644
0.000108171
8.41396e-05
7.26526e-05
6.74022e-05
6.61811e-05
7.44502e-05
9.41709e-05
0.000139461
0.000254037
0.000678672
0.00238675
0.00919591
0.0294265
0.00566648
0.00170824
0.000941369
0.000441527
0.000246909
0.000156696
0.000105343
7.87699e-05
6.07378e-05
5.19769e-05
4.80355e-05
4.71495e-05
5.34161e-05
6.8179e-05
0.00010113
0.000177185
0.000485478
0.00194558
0.00868576
0.0313063
0.00643294
0.00154488
0.000786191
0.000374256
0.000210075
0.000131984
8.73182e-05
6.35977e-05
4.85858e-05
4.12484e-05
3.81401e-05
3.76343e-05
4.26731e-05
5.45198e-05
8.08236e-05
0.000137773
0.000349756
0.00155524
0.00827808
0.0330551
0.00735027
0.00149332
0.00068685
0.000333579
0.000192053
0.000120833
7.81273e-05
5.55997e-05
4.2646e-05
3.61251e-05
3.34712e-05
3.36168e-05
3.78519e-05
4.80722e-05
7.041e-05
0.000119908
0.000285686
0.00135571
0.00801978
0.0347251
0.00801799
0.00157662
0.000644642
0.000323878
0.00019304
0.000122041
7.88832e-05
5.56541e-05
4.23749e-05
3.53733e-05
3.22208e-05
3.25989e-05
3.62238e-05
4.54988e-05
6.56626e-05
0.000112306
0.000255624
0.00122743
0.00789061
0.0364925
0.00864292
0.00182558
0.000661346
0.000330545
0.000199631
0.000127693
8.31947e-05
5.83457e-05
4.44218e-05
3.70105e-05
3.36335e-05
3.39594e-05
3.66928e-05
4.51139e-05
6.44705e-05
0.000110355
0.000249012
0.00118559
0.0078381
0.0384516
0.00874306
0.0022425
0.000727963
0.000352599
0.000215016
0.000140122
9.28397e-05
6.54909e-05
5.00892e-05
4.18146e-05
3.80194e-05
3.8615e-05
4.16824e-05
5.04063e-05
6.96556e-05
0.000116632
0.000256074
0.00120742
0.00804325
0.0408282
0.00856867
0.00278229
0.000894687
0.000405146
0.000242556
0.00016218
0.000112086
8.06434e-05
6.21686e-05
5.22153e-05
4.76487e-05
4.86058e-05
5.23356e-05
6.23938e-05
8.37212e-05
0.00013778
0.00029771
0.001371
0.00923283
0.0438413
0.00796074
0.0032565
0.00113834
0.00050938
0.000293212
0.00019371
0.000137198
0.000103616
8.32014e-05
7.26819e-05
6.7398e-05
6.87386e-05
7.32676e-05
8.52376e-05
0.000110439
0.00017834
0.000377017
0.0016708
0.0107667
0.0482015
0.00691501
0.00353847
0.00157384
0.000749373
0.000409416
0.000259751
0.000182808
0.000139767
0.000114144
0.000101937
9.71729e-05
9.95618e-05
0.000106205
0.000123395
0.000161682
0.000269078
0.000569689
0.00236128
0.013628
0.0543314
0.0049355
0.00333128
0.00181463
0.00100641
0.000607863
0.000400447
0.000285039
0.000220333
0.000181659
0.000162738
0.000157829
0.000162072
0.000176671
0.000219386
0.000311053
0.000546046
0.00113319
0.00406712
0.0188543
0.0636193
0.00366025
0.00287569
0.00217838
0.0015448
0.0011204
0.000853473
0.000681316
0.000592935
0.0005409
0.000543954
0.000561053
0.000615155
0.000684369
0.000875276
0.00118701
0.00197029
0.00363349
0.00970325
0.0309444
0.0790542
0.00439638
0.00603652
0.00740223
0.00756303
0.0073833
0.00727392
0.00724227
0.00738702
0.00763099
0.00812953
0.00852306
0.00934444
0.0100141
0.011235
0.0124955
0.0165414
0.0226209
0.0375646
0.0708143
0.110403
0.045427
0.0896264
0.121606
0.133625
0.135672
0.13555
0.134922
0.135087
0.135368
0.136383
0.137278
0.139464
0.141265
0.144393
0.148373
0.151787
0.155731
0.160658
0.176967
0.152419
)
;

boundaryField
{
    movingWall
    {
        Cmu             0.09;
        kappa           0.41;
        E               9.8;
        type            epsilonWallFunction;
        value           nonuniform List<scalar> 
20
(
0.045427
0.0896264
0.121606
0.133625
0.135672
0.13555
0.134922
0.135087
0.135368
0.136383
0.137278
0.139464
0.141265
0.144393
0.148373
0.151787
0.155731
0.160658
0.176967
0.152419
)
;
    }
    fixedWalls
    {
        Cmu             0.09;
        kappa           0.41;
        E               9.8;
        type            epsilonWallFunction;
        value           nonuniform List<scalar> 
60
(
0.000359338
0.000832419
0.00194588
0.00286477
0.00352096
0.0041693
0.00485856
0.00566648
0.00643294
0.00735027
0.00801799
0.00864292
0.00874306
0.00856867
0.00796074
0.00691501
0.0049355
0.00366025
0.00439638
0.045427
0.00439416
0.0105961
0.0168158
0.0211689
0.0245633
0.0272038
0.0294265
0.0313063
0.0330551
0.0347251
0.0364925
0.0384516
0.0408282
0.0438413
0.0482015
0.0543314
0.0636193
0.0790542
0.110403
0.152419
0.000359338
0.00117005
0.00353108
0.00697904
0.0100592
0.0121688
0.0133818
0.013928
0.0140854
0.0138614
0.0132083
0.0124089
0.01138
0.0104316
0.00948913
0.00866463
0.00797346
0.0072945
0.00571768
0.00439416
)
;
    }
    frontAndBack
    {
        type            empty;
    }
}


// ************************************************************************* //
