/*--------------------------------*- C++ -*----------------------------------*\
| =========                 |                                                 |
| \\      /  F ield         | OpenFOAM: The Open Source CFD Toolbox           |
|  \\    /   O peration     | Version:  2.4.0                                 |
|   \\  /    A nd           | Web:      www.OpenFOAM.org                      |
|    \\/     M anipulation  |                                                 |
\*---------------------------------------------------------------------------*/
FoamFile
{
    version     2.0;
    format      ascii;
    class       volScalarField;
    location    "9";
    object      nut;
}
// * * * * * * * * * * * * * * * * * * * * * * * * * * * * * * * * * * * * * //

dimensions      [0 2 -1 0 0 0 0];

internalField   nonuniform List<scalar> 
400
(
7.34986e-06
1.08952e-05
1.57436e-05
1.9756e-05
2.23147e-05
2.37756e-05
2.45397e-05
2.48686e-05
2.49616e-05
2.48277e-05
2.44313e-05
2.39277e-05
2.32471e-05
2.25824e-05
2.18807e-05
2.12278e-05
2.06476e-05
2.00442e-05
1.84814e-05
1.69282e-05
9.72591e-06
1.84045e-05
2.16632e-05
2.20553e-05
2.24268e-05
1.99809e-05
1.92658e-05
1.84962e-05
1.90564e-05
2.02727e-05
2.13104e-05
2.24052e-05
2.40564e-05
2.52796e-05
2.73552e-05
2.87283e-05
2.94184e-05
2.93171e-05
2.69849e-05
2.27003e-05
1.29081e-05
2.33515e-05
2.29927e-05
2.25062e-05
1.72848e-05
1.65176e-05
1.56531e-05
1.57786e-05
1.55748e-05
1.54131e-05
1.52285e-05
1.45356e-05
1.48297e-05
1.51698e-05
1.65459e-05
1.88081e-05
2.19239e-05
2.56761e-05
2.84773e-05
2.64781e-05
1.46837e-05
2.40766e-05
2.3374e-05
1.82631e-05
1.49384e-05
1.4107e-05
1.30159e-05
1.26099e-05
1.1432e-05
1.0835e-05
1.02899e-05
1.00215e-05
9.45025e-06
9.68468e-06
1.01663e-05
1.20871e-05
1.59088e-05
2.09534e-05
2.74629e-05
2.85898e-05
1.57285e-05
2.53795e-05
2.16229e-05
1.52429e-05
1.31657e-05
1.24489e-05
1.14272e-05
1.11818e-05
1.09149e-05
1.09294e-05
1.08075e-05
1.07025e-05
9.82216e-06
9.36086e-06
8.68759e-06
9.12734e-06
1.20365e-05
1.77145e-05
2.56599e-05
3.00427e-05
1.66395e-05
2.59925e-05
1.93906e-05
1.37557e-05
1.20914e-05
1.16837e-05
1.16211e-05
1.22583e-05
1.33923e-05
1.42169e-05
1.44669e-05
1.44542e-05
1.32445e-05
1.21619e-05
1.03384e-05
8.78221e-06
9.82084e-06
1.53316e-05
2.48054e-05
3.10828e-05
1.75098e-05
2.55039e-05
1.78311e-05
1.28457e-05
1.16256e-05
1.18341e-05
1.31546e-05
1.49841e-05
1.73963e-05
1.86589e-05
1.91421e-05
1.91811e-05
1.7737e-05
1.62728e-05
1.37484e-05
1.03834e-05
9.09867e-06
1.34843e-05
2.38466e-05
3.19072e-05
1.84305e-05
2.35766e-05
1.67695e-05
1.24569e-05
1.18958e-05
1.28079e-05
1.52213e-05
1.80998e-05
2.10579e-05
2.21474e-05
2.23704e-05
2.22574e-05
2.06598e-05
1.95199e-05
1.7435e-05
1.29517e-05
9.23085e-06
1.23453e-05
2.35712e-05
3.25726e-05
1.92265e-05
2.26699e-05
1.6379e-05
1.24176e-05
1.20638e-05
1.35985e-05
1.69789e-05
2.07594e-05
2.40599e-05
2.50306e-05
2.50169e-05
2.47909e-05
2.32433e-05
2.17227e-05
1.9879e-05
1.56979e-05
1.00199e-05
1.13304e-05
2.33245e-05
3.31682e-05
2.01e-05
2.06037e-05
1.61362e-05
1.24959e-05
1.28402e-05
1.48763e-05
1.88181e-05
2.30747e-05
2.64901e-05
2.76271e-05
2.73491e-05
2.66308e-05
2.50899e-05
2.33529e-05
2.13662e-05
1.7644e-05
1.078e-05
1.07904e-05
2.33975e-05
3.37176e-05
2.0691e-05
1.97445e-05
1.62327e-05
1.29403e-05
1.29974e-05
1.50244e-05
1.88853e-05
2.32312e-05
2.68763e-05
2.86178e-05
2.87111e-05
2.74978e-05
2.59507e-05
2.42192e-05
2.22164e-05
1.87177e-05
1.12957e-05
1.01098e-05
2.34671e-05
3.42801e-05
2.12152e-05
1.82796e-05
1.61858e-05
1.31721e-05
1.3223e-05
1.51013e-05
1.85773e-05
2.27108e-05
2.62844e-05
2.83481e-05
2.86457e-05
2.76793e-05
2.65384e-05
2.46576e-05
2.25275e-05
1.9239e-05
1.14422e-05
9.7531e-06
2.35357e-05
3.48828e-05
2.12969e-05
1.70446e-05
1.59259e-05
1.34688e-05
1.32802e-05
1.47489e-05
1.76315e-05
2.11961e-05
2.44962e-05
2.68707e-05
2.73941e-05
2.68758e-05
2.58054e-05
2.43384e-05
2.26093e-05
1.92581e-05
1.12686e-05
9.3952e-06
2.37592e-05
3.5587e-05
2.11544e-05
1.70624e-05
1.56211e-05
1.40293e-05
1.35965e-05
1.43427e-05
1.61476e-05
1.8765e-05
2.14297e-05
2.39649e-05
2.49825e-05
2.48889e-05
2.43177e-05
2.35956e-05
2.18566e-05
1.76772e-05
1.03538e-05
8.88254e-06
2.40617e-05
3.64416e-05
2.06417e-05
1.73609e-05
1.52445e-05
1.39634e-05
1.35197e-05
1.39257e-05
1.49571e-05
1.65518e-05
1.82727e-05
2.0082e-05
2.17744e-05
2.21141e-05
2.21735e-05
2.23181e-05
2.00365e-05
1.51253e-05
9.04129e-06
8.84069e-06
2.51639e-05
3.76116e-05
1.96949e-05
1.87688e-05
1.60475e-05
1.40734e-05
1.35167e-05
1.35837e-05
1.40372e-05
1.50021e-05
1.59022e-05
1.74891e-05
1.86692e-05
1.93897e-05
1.93386e-05
1.9036e-05
1.5958e-05
1.11902e-05
7.27802e-06
9.03772e-06
2.69888e-05
3.91427e-05
1.76001e-05
1.89952e-05
1.73479e-05
1.61057e-05
1.46349e-05
1.39139e-05
1.36035e-05
1.37316e-05
1.38421e-05
1.41467e-05
1.43439e-05
1.42461e-05
1.37064e-05
1.22733e-05
9.69947e-06
7.10926e-06
6.10967e-06
1.03691e-05
2.98602e-05
4.12567e-05
1.59296e-05
1.92268e-05
1.89963e-05
1.71762e-05
1.54556e-05
1.38157e-05
1.21833e-05
1.08182e-05
9.61731e-06
8.49159e-06
7.59615e-06
6.99636e-06
6.53471e-06
5.89854e-06
5.72262e-06
6.15256e-06
8.04323e-06
1.47769e-05
3.46486e-05
4.43547e-05
1.69321e-05
1.59751e-05
1.55584e-05
1.4446e-05
1.30225e-05
1.21223e-05
1.11554e-05
1.1005e-05
1.09381e-05
1.10651e-05
1.14274e-05
1.22965e-05
1.30297e-05
1.47084e-05
1.60457e-05
1.8764e-05
2.20002e-05
2.92309e-05
4.51455e-05
4.95782e-05
3.68763e-05
4.6251e-05
5.1202e-05
5.28361e-05
5.31031e-05
5.30869e-05
5.30038e-05
5.30252e-05
5.30617e-05
5.31942e-05
5.33104e-05
5.35925e-05
5.38222e-05
5.42174e-05
5.4711e-05
5.51276e-05
5.56012e-05
5.61815e-05
5.80219e-05
5.52046e-05
)
;

boundaryField
{
    movingWall
    {
        type            nutkWallFunction;
        Cmu             0.09;
        kappa           0.41;
        E               9.8;
        value           nonuniform List<scalar> 
20
(
0
0
6.5111e-07
9.19681e-07
9.6362e-07
9.60994e-07
9.47503e-07
9.51035e-07
9.57042e-07
9.78732e-07
9.97756e-07
1.04384e-06
1.08142e-06
1.14589e-06
1.22645e-06
1.29434e-06
1.37142e-06
1.46575e-06
1.76393e-06
1.30681e-06
)
;
    }
    fixedWalls
    {
        type            nutkWallFunction;
        Cmu             0.09;
        kappa           0.41;
        E               9.8;
        value           nonuniform List<scalar> 
60
(
0
0
0
0
0
0
0
0
0
0
0
0
0
0
0
0
0
0
0
0
0
0
0
0
0
0
0
0
0
0
0
0
0
0
0
0
0
0
3.83012e-07
1.30681e-06
0
0
0
0
0
0
0
0
0
0
0
0
0
0
0
0
0
0
0
0
)
;
    }
    frontAndBack
    {
        type            empty;
    }
}


// ************************************************************************* //
