/*--------------------------------*- C++ -*----------------------------------*\
| =========                 |                                                 |
| \\      /  F ield         | OpenFOAM: The Open Source CFD Toolbox           |
|  \\    /   O peration     | Version:  2.4.0                                 |
|   \\  /    A nd           | Web:      www.OpenFOAM.org                      |
|    \\/     M anipulation  |                                                 |
\*---------------------------------------------------------------------------*/
FoamFile
{
    version     2.0;
    format      ascii;
    class       volScalarField;
    location    "100";
    object      k;
}
// * * * * * * * * * * * * * * * * * * * * * * * * * * * * * * * * * * * * * //

dimensions      [0 2 -2 0 0 0 0];

internalField   nonuniform List<scalar> 
23567
(
0.739268
1.01059
1.1866
1.28582
1.33045
1.33898
1.32456
1.29633
1.26031
1.22054
1.17942
1.13865
1.0991
1.06147
1.02595
0.992746
0.961727
0.932974
0.906062
0.88105
0.857494
0.835547
0.814589
0.79513
0.775077
0.383368
0.39103
0.39745
0.402748
0.407116
0.41081
0.414416
0.418449
0.423332
0.429373
0.436827
0.445828
0.456513
0.468858
0.482849
0.498242
0.514756
0.530406
0.545308
0.559452
0.572946
0.585766
0.598052
0.609771
0.621453
0.37367
0.370574
0.366006
0.36036
0.354024
0.347346
0.340663
0.33427
0.328401
0.323241
0.318923
0.315548
0.313182
0.311859
0.311584
0.312328
0.31403
0.316497
0.319601
0.32324
0.327337
0.331846
0.33674
0.342048
0.347874
0.373567
0.371328
0.368354
0.364744
0.360623
0.356103
0.351301
0.34633
0.341294
0.336288
0.331394
0.326681
0.32221
0.318026
0.314164
0.310648
0.307492
0.304694
0.302248
0.300141
0.298363
0.296903
0.295758
0.294926
0.294444
0.373726
0.372086
0.370071
0.367714
0.365076
0.362202
0.359135
0.355922
0.352603
0.34922
0.345808
0.3424
0.339026
0.33571
0.332475
0.329337
0.326311
0.323406
0.32063
0.317985
0.315474
0.313099
0.310859
0.308753
0.30679
0.373799
0.372463
0.370926
0.369195
0.367304
0.365277
0.363134
0.360897
0.358587
0.356223
0.353825
0.351408
0.348987
0.346576
0.344186
0.341828
0.33951
0.337239
0.335021
0.33286
0.330759
0.328719
0.326744
0.324832
0.322999
0.373812
0.372622
0.371336
0.369944
0.368461
0.366897
0.365264
0.363573
0.361836
0.360064
0.358267
0.356455
0.354636
0.352818
0.351007
0.34921
0.347433
0.345678
0.343951
0.342255
0.340591
0.338962
0.337369
0.335815
0.334319
0.373797
0.372667
0.371509
0.370305
0.369056
0.367766
0.366436
0.365073
0.363683
0.362272
0.360847
0.359412
0.357974
0.356536
0.355103
0.353679
0.352267
0.35087
0.349491
0.348132
0.346794
0.34548
0.344191
0.342929
0.341716
0.373776
0.372661
0.371559
0.370452
0.369336
0.368207
0.367063
0.365905
0.364735
0.363556
0.36237
0.361182
0.359994
0.358809
0.35763
0.356458
0.355296
0.354146
0.35301
0.351889
0.350784
0.349698
0.348631
0.347586
0.346583
0.37376
0.372644
0.371556
0.370485
0.369424
0.368369
0.367315
0.36626
0.365205
0.36415
0.363095
0.362044
0.360996
0.359953
0.358918
0.357891
0.356874
0.355868
0.354875
0.353895
0.35293
0.351981
0.351049
0.350136
0.349262
0.373748
0.372627
0.371542
0.370485
0.36945
0.368433
0.367429
0.366434
0.365447
0.364467
0.363495
0.362529
0.361571
0.360621
0.35968
0.358749
0.357829
0.35692
0.356024
0.35514
0.354271
0.353416
0.352577
0.351756
0.35097
0.373737
0.37261
0.371523
0.37047
0.369448
0.368452
0.367478
0.366522
0.365582
0.364656
0.363743
0.362842
0.361953
0.361075
0.360209
0.359355
0.358512
0.357682
0.356865
0.356061
0.355271
0.354495
0.353734
0.352991
0.352281
0.373729
0.372595
0.371503
0.370449
0.36943
0.368443
0.367484
0.36655
0.365639
0.364747
0.363874
0.363018
0.362177
0.361352
0.360541
0.359745
0.358963
0.358195
0.35744
0.3567
0.355974
0.355262
0.354566
0.353887
0.353239
0.373722
0.372583
0.371486
0.370428
0.369408
0.368422
0.367468
0.366544
0.365646
0.364773
0.363923
0.363094
0.362285
0.361495
0.360722
0.359966
0.359227
0.358503
0.357796
0.357104
0.356427
0.355765
0.35512
0.354492
0.353894
0.373716
0.372573
0.371471
0.370409
0.369385
0.368397
0.367443
0.366521
0.365628
0.364763
0.363924
0.363109
0.362317
0.361546
0.360796
0.360066
0.359354
0.358661
0.357985
0.357326
0.356684
0.356059
0.355451
0.354862
0.354302
0.373711
0.372564
0.371459
0.370393
0.369365
0.368374
0.367418
0.366494
0.365601
0.364738
0.363902
0.363092
0.362308
0.361547
0.360808
0.360091
0.359395
0.358719
0.358062
0.357424
0.356804
0.356203
0.35562
0.355058
0.354524
0.373708
0.372558
0.371449
0.37038
0.369349
0.368355
0.367395
0.366469
0.365574
0.36471
0.363874
0.363065
0.362282
0.361524
0.36079
0.360079
0.359391
0.358723
0.358076
0.35745
0.356843
0.356256
0.355688
0.355142
0.354625
0.373705
0.372552
0.371441
0.370369
0.369336
0.368339
0.367377
0.366448
0.365551
0.364685
0.363848
0.363038
0.362255
0.361498
0.360765
0.360056
0.35937
0.358706
0.358064
0.357443
0.356843
0.356263
0.355704
0.355166
0.354658
0.373702
0.372548
0.371434
0.370361
0.369325
0.368326
0.367362
0.366431
0.365533
0.364665
0.363826
0.363016
0.362232
0.361474
0.360742
0.360033
0.359348
0.358686
0.358046
0.357428
0.35683
0.356254
0.355699
0.355165
0.354661
0.3737
0.372544
0.371429
0.370354
0.369316
0.368316
0.36735
0.366418
0.365518
0.364649
0.36381
0.362999
0.362214
0.361457
0.360724
0.360016
0.359331
0.35867
0.358031
0.357414
0.356819
0.356244
0.35569
0.355158
0.354656
0.373699
0.372541
0.371425
0.370348
0.36931
0.368308
0.367341
0.366408
0.365508
0.364638
0.363798
0.362986
0.362202
0.361444
0.360712
0.360004
0.35932
0.35866
0.358022
0.357406
0.356811
0.356237
0.355684
0.355153
0.354651
0.373697
0.372539
0.371422
0.370344
0.369304
0.368302
0.367334
0.366401
0.3655
0.36463
0.36379
0.362978
0.362194
0.361437
0.360705
0.359998
0.359315
0.358655
0.358017
0.357402
0.356808
0.356234
0.355681
0.35515
0.354647
0.373696
0.372537
0.371419
0.370341
0.369301
0.368298
0.36733
0.366396
0.365495
0.364625
0.363785
0.362974
0.36219
0.361434
0.360702
0.359996
0.359313
0.358654
0.358017
0.357402
0.356808
0.356234
0.35568
0.355148
0.354643
0.373696
0.372536
0.371418
0.370339
0.369299
0.368296
0.367329
0.366395
0.365494
0.364625
0.363785
0.362975
0.362192
0.361435
0.360705
0.359999
0.359317
0.358658
0.358021
0.357406
0.356811
0.356237
0.355682
0.355148
0.354641
0.373696
0.372536
0.371418
0.370339
0.3693
0.368297
0.36733
0.366397
0.365497
0.364628
0.36379
0.36298
0.362198
0.361442
0.360712
0.360007
0.359325
0.358666
0.35803
0.357414
0.356819
0.356243
0.355687
0.355151
0.354642
0.373696
0.372536
0.371419
0.370341
0.369302
0.3683
0.367334
0.366402
0.365503
0.364636
0.363798
0.362989
0.362208
0.361453
0.360724
0.360019
0.359338
0.35868
0.358043
0.357427
0.356831
0.356255
0.355697
0.355159
0.354648
0.373696
0.372537
0.37142
0.370344
0.369306
0.368306
0.367341
0.366411
0.365513
0.364647
0.363811
0.363003
0.362223
0.36147
0.360741
0.360037
0.359356
0.358698
0.358061
0.357445
0.356848
0.356271
0.355712
0.355172
0.354658
0.373697
0.372539
0.371424
0.370349
0.369313
0.368314
0.367351
0.366423
0.365527
0.364663
0.363828
0.363022
0.362243
0.361491
0.360763
0.36006
0.359379
0.35872
0.358083
0.357466
0.356868
0.356288
0.355727
0.355184
0.354668
0.373698
0.372542
0.371428
0.370356
0.369322
0.368326
0.367365
0.366439
0.365545
0.364683
0.36385
0.363045
0.362267
0.361514
0.360786
0.360082
0.3594
0.358739
0.358099
0.357478
0.356876
0.356292
0.355725
0.355176
0.354652
0.373701
0.372547
0.371435
0.370365
0.369335
0.368341
0.367383
0.366459
0.365567
0.364705
0.363871
0.363065
0.362285
0.361529
0.360796
0.360086
0.359397
0.358728
0.358078
0.357447
0.356833
0.356236
0.355655
0.355092
0.354553
0.373704
0.372553
0.371445
0.370379
0.369351
0.36836
0.367403
0.366478
0.365584
0.364717
0.363877
0.363062
0.36227
0.3615
0.360752
0.360023
0.359314
0.358623
0.357949
0.357292
0.356651
0.356026
0.355416
0.354823
0.354253
0.373709
0.372562
0.371458
0.370395
0.369368
0.368375
0.367413
0.366478
0.365569
0.364684
0.363821
0.362978
0.362155
0.36135
0.360562
0.359792
0.359037
0.358299
0.357576
0.356869
0.356176
0.355498
0.354834
0.354186
0.353563
0.373716
0.372574
0.371473
0.370408
0.369372
0.368363
0.367377
0.36641
0.36546
0.364526
0.363606
0.362701
0.361809
0.360932
0.360068
0.359217
0.358381
0.357558
0.35675
0.355956
0.355176
0.35441
0.353659
0.352924
0.352216
0.373725
0.372586
0.37148
0.370396
0.369326
0.368267
0.367216
0.36617
0.365129
0.364094
0.363064
0.362041
0.361027
0.360021
0.359026
0.358042
0.35707
0.356112
0.355168
0.354238
0.353323
0.352424
0.351542
0.350677
0.349842
0.373736
0.372589
0.371451
0.370304
0.369145
0.367971
0.366782
0.365581
0.364369
0.363151
0.361929
0.360707
0.359487
0.358273
0.357068
0.355872
0.354689
0.353521
0.352368
0.351233
0.350116
0.349017
0.347939
0.346884
0.345863
0.373742
0.372552
0.371318
0.370023
0.368672
0.367271
0.365826
0.364344
0.362833
0.3613
0.359753
0.358198
0.356642
0.355089
0.353544
0.352011
0.350494
0.348996
0.347519
0.346067
0.34464
0.34324
0.341869
0.340529
0.339234
0.373727
0.372413
0.370956
0.369355
0.367629
0.365797
0.363875
0.36188
0.359829
0.357737
0.355619
0.353486
0.35135
0.349221
0.347107
0.345015
0.342954
0.340926
0.338938
0.336993
0.335093
0.333242
0.331441
0.329692
0.328007
0.373677
0.372081
0.370152
0.36792
0.365436
0.362742
0.35988
0.356891
0.35381
0.350673
0.347509
0.344346
0.341207
0.33811
0.335074
0.33211
0.329232
0.326447
0.323763
0.321185
0.318716
0.316358
0.314115
0.311985
0.309977
0.373781
0.371747
0.36894
0.365518
0.361619
0.357364
0.35287
0.348247
0.343592
0.338985
0.334496
0.330179
0.326078
0.322226
0.318645
0.315353
0.312359
0.309669
0.307283
0.3052
0.303415
0.301921
0.300711
0.299777
0.299108
0.378621
0.381019
0.382432
0.38323
0.383539
0.383434
0.383084
0.382676
0.382354
0.382251
0.382459
0.383064
0.384101
0.385619
0.387619
0.390126
0.393121
0.396618
0.400582
0.405025
0.409903
0.415226
0.420943
0.427063
0.433517
0.579068
0.751799
0.888179
0.990131
1.06281
1.11207
1.14322
1.16068
1.16805
1.16807
1.1629
1.15406
1.14276
1.12983
1.11594
1.10151
1.08692
1.07235
1.05804
1.04405
1.03053
1.01745
1.00493
0.992913
0.981479
0.000335804
0.00244489
0.00340306
0.00833217
0.0225082
0.0404535
0.0591774
0.0773919
0.0948087
0.111406
0.127248
0.142418
0.157003
0.171086
0.184763
0.198115
0.211203
0.22409
0.236836
0.2495
0.262134
0.274788
0.287405
0.299809
0.311999
0.323975
0.335734
0.347272
0.358584
0.369663
0.3805
0.391086
0.401411
0.411464
0.421234
0.430711
0.439883
0.44874
0.457271
0.465465
0.473314
0.480808
0.487939
0.494698
0.501081
0.507081
0.512694
0.517916
0.522744
0.527179
0.531219
0.534868
0.538129
0.541005
0.543502
0.545633
0.547411
0.548826
0.54993
0.550751
0.551265
0.551278
0.550779
0.549759
0.54821
0.546126
0.543503
0.540341
0.536645
0.532425
0.527698
0.522486
0.516818
0.510723
0.504231
0.497382
0.490198
0.482698
0.474904
0.46684
0.458534
0.450013
0.441305
0.43244
0.423446
0.414354
0.405192
0.395987
0.386764
0.377547
0.368357
0.359213
0.350136
0.341126
0.332183
0.323292
0.314521
0.30589
0.297436
0.2892
0.281058
0.272967
0.26494
0.257029
0.24927
0.241676
0.23425
0.226993
0.219905
0.212969
0.206172
0.199494
0.19316
0.187303
0.182084
0.178644
0.177319
0.176205
0.175131
0.174099
0.173125
0.172218
0.171385
0.170626
0.169941
0.169326
0.168783
0.168315
0.167927
0.167611
0.167347
0.167116
0.166911
0.166728
0.166576
0.166475
0.166411
0.166406
0.166473
0.166624
0.166863
0.167194
0.167616
0.168128
0.16873
0.169418
0.170188
0.171037
0.171959
0.172949
0.174001
0.175108
0.176264
0.17746
0.178688
0.17994
0.181206
0.182478
0.183746
0.185002
0.186238
0.187446
0.188619
0.18975
0.190834
0.191866
0.192842
0.193759
0.194614
0.195407
0.196136
0.196802
0.197405
0.197947
0.198428
0.198852
0.19922
0.199536
0.199803
0.200024
0.200203
0.200345
0.200453
0.200532
0.200586
0.200619
0.200637
0.200643
0.200642
0.200642
0.200644
0.200652
0.200667
0.200692
0.200731
0.200785
0.200859
0.200953
0.201069
0.201207
0.201364
0.201537
0.201721
0.201914
0.202117
0.202328
0.202548
0.202776
0.203011
0.203254
0.203503
0.203757
0.204015
0.204277
0.204539
0.204802
0.205062
0.205319
0.205569
0.205811
0.206041
0.206259
0.206461
0.206645
0.206812
0.206959
0.207084
0.207185
0.207259
0.207302
0.207313
0.207288
0.207226
0.207123
0.206977
0.206784
0.206543
0.206247
0.205895
0.20548
0.204998
0.204437
0.203791
0.203045
0.202182
0.201181
0.200008
0.198618
0.196959
0.194908
0.192447
0.188943
0.185131
0.177309
0.00221721
0.0208679
0.0396798
0.0528891
0.0678017
0.0842182
0.101051
0.117532
0.133237
0.148119
0.162275
0.175831
0.188917
0.201653
0.214137
0.226433
0.238598
0.250679
0.262713
0.274726
0.286731
0.298737
0.310744
0.322755
0.334776
0.346812
0.358864
0.370932
0.383011
0.395099
0.407191
0.419282
0.431367
0.44344
0.455498
0.467535
0.479546
0.491529
0.503481
0.515399
0.527284
0.539137
0.550963
0.562769
0.574563
0.586352
0.59814
0.609935
0.62174
0.633562
0.645405
0.657274
0.669169
0.68108
0.693004
0.704931
0.716848
0.72874
0.740596
0.752391
0.763915
0.775077
0.785795
0.795982
0.805551
0.814415
0.822492
0.829705
0.835981
0.841252
0.845471
0.848635
0.85074
0.851807
0.851835
0.851086
0.849599
0.847373
0.844415
0.840741
0.836376
0.831351
0.825705
0.819483
0.812729
0.805488
0.797809
0.78974
0.781331
0.77263
0.763688
0.754552
0.745258
0.735848
0.72636
0.716821
0.70717
0.697433
0.687627
0.677765
0.667848
0.657847
0.647705
0.637553
0.627492
0.617547
0.607726
0.598029
0.588415
0.578822
0.569342
0.559576
0.549897
0.540664
0.531835
0.523336
0.515063
0.506912
0.498853
0.490899
0.483067
0.475374
0.467829
0.460438
0.453202
0.446118
0.439184
0.432398
0.425748
0.419199
0.412734
0.406348
0.400059
0.393899
0.387898
0.382095
0.376535
0.371224
0.366165
0.361361
0.356809
0.352508
0.348453
0.344638
0.341055
0.337697
0.334552
0.33161
0.328859
0.326283
0.323869
0.321598
0.319455
0.317419
0.315473
0.313596
0.31177
0.309975
0.308196
0.306414
0.304616
0.302789
0.300923
0.299009
0.297042
0.295018
0.292938
0.290801
0.288611
0.286373
0.284095
0.281782
0.279446
0.277094
0.274738
0.272387
0.270053
0.267745
0.265474
0.263249
0.26108
0.258976
0.256943
0.25499
0.253123
0.251347
0.249667
0.248087
0.246605
0.245218
0.243929
0.242738
0.241651
0.240669
0.239794
0.239028
0.238368
0.237813
0.237357
0.23699
0.236694
0.236439
0.236198
0.235979
0.235788
0.235628
0.235499
0.235402
0.235335
0.235298
0.235286
0.235296
0.235326
0.235371
0.235426
0.235489
0.235555
0.235621
0.235682
0.235735
0.235775
0.235802
0.235811
0.235803
0.235776
0.235725
0.23565
0.235548
0.235419
0.235264
0.235079
0.234868
0.234629
0.234364
0.234072
0.233757
0.233417
0.233055
0.232671
0.232269
0.231848
0.231412
0.23096
0.230493
0.230011
0.229512
0.228995
0.228459
0.22789
0.227316
0.226607
0.22612
0.224986
0.225082
0.00933981
0.0481155
0.0723799
0.0885929
0.105237
0.122897
0.140988
0.158919
0.176466
0.193637
0.210499
0.227133
0.243615
0.260006
0.276345
0.292655
0.308944
0.325216
0.341463
0.357675
0.373841
0.389948
0.405989
0.421955
0.437838
0.453629
0.469316
0.484893
0.50035
0.515678
0.530871
0.545922
0.560828
0.575588
0.590199
0.604657
0.618965
0.633145
0.6472
0.661131
0.674943
0.688642
0.702238
0.715744
0.729211
0.742688
0.756217
0.769835
0.783571
0.797453
0.811507
0.825756
0.840214
0.854883
0.869755
0.884809
0.900013
0.915326
0.930685
0.946007
0.961166
0.976079
0.990622
1.00465
1.01804
1.03063
1.0423
1.05292
1.06235
1.07046
1.07716
1.08238
1.08612
1.08867
1.09
1.09024
1.08943
1.08762
1.08483
1.08111
1.07651
1.07107
1.06485
1.0579
1.05028
1.04204
1.03322
1.02389
1.01408
1.00385
0.993229
0.982267
0.970999
0.959462
0.947693
0.935723
0.923579
0.911282
0.898851
0.886304
0.873665
0.860961
0.848162
0.835278
0.822323
0.809312
0.796221
0.783032
0.769731
0.755896
0.742254
0.728638
0.715107
0.701787
0.688773
0.67614
0.6639
0.651987
0.640331
0.628894
0.617654
0.606602
0.595734
0.585047
0.574542
0.564213
0.554059
0.544075
0.534225
0.524459
0.514816
0.50534
0.496081
0.48708
0.47837
0.469972
0.461906
0.454179
0.446795
0.439751
0.433045
0.426671
0.42062
0.414884
0.409452
0.404311
0.399448
0.394847
0.390491
0.386362
0.38244
0.378703
0.37513
0.371698
0.368383
0.365161
0.36201
0.358906
0.35583
0.352761
0.349682
0.346578
0.343437
0.340249
0.337008
0.333708
0.330348
0.32693
0.323455
0.319929
0.316359
0.312752
0.309117
0.305464
0.301804
0.298148
0.294505
0.290887
0.287305
0.283768
0.280287
0.276871
0.273527
0.270265
0.267091
0.264013
0.261034
0.258162
0.255399
0.252748
0.250211
0.24779
0.245487
0.2433
0.241232
0.23928
0.237445
0.235722
0.234111
0.232604
0.231197
0.229881
0.228644
0.227481
0.226383
0.225346
0.224362
0.223427
0.222535
0.221682
0.220861
0.220069
0.219301
0.218552
0.217818
0.217095
0.216381
0.21567
0.214962
0.214252
0.213537
0.212816
0.212084
0.21134
0.210582
0.209811
0.209025
0.208225
0.20741
0.20658
0.205736
0.204879
0.204009
0.203129
0.202239
0.201341
0.200438
0.199531
0.198625
0.197725
0.196835
0.19596
0.195107
0.194284
0.193502
0.192772
0.192114
0.191553
0.191126
0.190906
0.190969
0.191608
0.192822
0.195532
0.0199004
0.0697949
0.0999881
0.119266
0.137908
0.157293
0.17721
0.197338
0.217564
0.23787
0.258237
0.278676
0.299182
0.319733
0.340294
0.360819
0.381255
0.401548
0.421642
0.441491
0.461057
0.480308
0.499222
0.517784
0.535987
0.553825
0.571291
0.588391
0.605169
0.621635
0.637799
0.653671
0.669267
0.684607
0.699699
0.714553
0.729187
0.743668
0.758001
0.772202
0.786277
0.800232
0.814067
0.827784
0.841456
0.855145
0.868888
0.882795
0.896956
0.91142
0.926228
0.941411
0.956994
0.972984
0.989373
1.00613
1.02323
1.04059
1.05814
1.07577
1.09336
1.11074
1.12776
1.14423
1.15997
1.17482
1.1886
1.20115
1.21228
1.22184
1.22969
1.23574
1.23991
1.24278
1.24443
1.2448
1.24391
1.24181
1.23856
1.23424
1.2289
1.22262
1.21548
1.20753
1.19883
1.18946
1.17947
1.16891
1.15784
1.1463
1.13433
1.12197
1.10926
1.09623
1.08291
1.06933
1.05552
1.0415
1.02727
1.01284
0.998215
0.983407
0.968442
0.953265
0.937762
0.92193
0.90564
0.88868
0.871736
0.854728
0.837802
0.821025
0.80447
0.788205
0.772296
0.756789
0.741695
0.726982
0.712599
0.698504
0.684661
0.671044
0.657638
0.644438
0.631445
0.618661
0.606098
0.593769
0.581671
0.569786
0.55817
0.546879
0.535959
0.525433
0.515316
0.505614
0.496333
0.487471
0.479026
0.470992
0.463362
0.456126
0.449275
0.442797
0.436679
0.430907
0.425465
0.420333
0.415493
0.410922
0.406597
0.402493
0.398583
0.394839
0.391235
0.38774
0.384329
0.380974
0.37765
0.374334
0.371006
0.367647
0.364243
0.360782
0.357257
0.35366
0.349991
0.34625
0.34244
0.338565
0.334633
0.330651
0.32663
0.322579
0.318509
0.314432
0.310357
0.306298
0.302263
0.298264
0.294311
0.290413
0.286579
0.282817
0.279135
0.27554
0.272036
0.268631
0.265328
0.262131
0.259044
0.256067
0.253204
0.250453
0.247817
0.245293
0.24288
0.240577
0.23838
0.236285
0.234288
0.232384
0.230564
0.228824
0.227156
0.225553
0.22401
0.22252
0.221078
0.219678
0.218314
0.216982
0.215677
0.214395
0.213132
0.211883
0.210646
0.209419
0.208197
0.206979
0.205762
0.204545
0.203325
0.202101
0.200872
0.199637
0.198395
0.197145
0.195888
0.194624
0.193352
0.192072
0.190787
0.189496
0.188201
0.186903
0.185606
0.18431
0.183019
0.181736
0.180466
0.179214
0.177984
0.176786
0.175629
0.174526
0.173494
0.17256
0.171761
0.171164
0.170855
0.171046
0.171849
0.173777
0.03113
0.0862189
0.121981
0.144749
0.165932
0.187654
0.210016
0.232858
0.25608
0.279595
0.303366
0.32734
0.351412
0.375502
0.399511
0.423335
0.446867
0.470006
0.492664
0.514775
0.536295
0.5572
0.577472
0.597097
0.616102
0.634515
0.652343
0.669632
0.686543
0.703098
0.719339
0.735298
0.75101
0.766502
0.781805
0.796943
0.811936
0.82679
0.841524
0.856159
0.870719
0.885217
0.899665
0.91408
0.928473
0.94284
0.957188
0.971676
0.98651
1.00176
1.01747
1.03368
1.05043
1.0677
1.0855
1.1038
1.12252
1.14161
1.16096
1.18044
1.19992
1.21917
1.23797
1.25612
1.27341
1.28964
1.30462
1.31816
1.33004
1.3401
1.34819
1.35424
1.35819
1.36049
1.36121
1.36046
1.35832
1.35488
1.35023
1.34447
1.33768
1.32995
1.32138
1.31204
1.30199
1.29132
1.28008
1.26833
1.25611
1.24347
1.23045
1.21707
1.20335
1.18932
1.17499
1.16037
1.14546
1.13026
1.11473
1.09886
1.0826
1.06593
1.04875
1.03107
1.01263
0.993478
0.974123
0.954539
0.934882
0.91525
0.895743
0.876445
0.857425
0.83874
0.820443
0.802569
0.785125
0.768086
0.751414
0.735064
0.718998
0.703186
0.687614
0.67229
0.657236
0.642481
0.628067
0.614026
0.600405
0.587205
0.57443
0.562116
0.550278
0.538923
0.528049
0.517656
0.507743
0.498305
0.48934
0.480841
0.472801
0.465213
0.458067
0.451351
0.445053
0.439156
0.433643
0.428493
0.423686
0.419194
0.41499
0.411045
0.407327
0.403803
0.400439
0.3972
0.394052
0.390963
0.387903
0.384842
0.381757
0.378624
0.375425
0.372148
0.368781
0.365319
0.361758
0.358098
0.354344
0.3505
0.346575
0.342578
0.33852
0.334411
0.330265
0.326093
0.321908
0.317722
0.313547
0.309395
0.305275
0.301198
0.297175
0.293213
0.289321
0.285506
0.281774
0.278132
0.274584
0.271135
0.267787
0.264543
0.261405
0.258374
0.255449
0.252631
0.249918
0.247307
0.244797
0.242382
0.24006
0.237826
0.235674
0.2336
0.231596
0.229657
0.227779
0.225954
0.224178
0.222446
0.220752
0.219092
0.217463
0.215859
0.214277
0.212715
0.211168
0.209636
0.208115
0.206602
0.205097
0.203598
0.202102
0.200609
0.199117
0.197626
0.196135
0.194644
0.193152
0.19166
0.190165
0.18867
0.187174
0.185677
0.18418
0.182685
0.181192
0.179705
0.178224
0.176752
0.175292
0.173848
0.172422
0.171022
0.169653
0.168326
0.167052
0.165852
0.164751
0.163798
0.163052
0.162649
0.16266
0.163454
0.0428842
0.0975989
0.137928
0.164169
0.188063
0.212297
0.237225
0.262761
0.288813
0.315275
0.342036
0.368946
0.395903
0.422789
0.449415
0.475639
0.501322
0.526339
0.550591
0.574017
0.596592
0.618315
0.639177
0.659226
0.678577
0.697363
0.71564
0.733491
0.75096
0.768098
0.784949
0.801547
0.817925
0.834115
0.850147
0.866046
0.88183
0.897511
0.913103
0.928624
0.944096
0.959536
0.97495
0.990338
1.00572
1.02112
1.03657
1.05206
1.06795
1.0843
1.10118
1.11862
1.13665
1.15529
1.1745
1.19427
1.21452
1.23516
1.25608
1.27713
1.29818
1.31889
1.33902
1.35832
1.37656
1.39349
1.4089
1.42257
1.43427
1.44382
1.45109
1.45605
1.45857
1.45916
1.45796
1.45512
1.45078
1.44506
1.43809
1.43
1.4209
1.41092
1.40015
1.3887
1.37664
1.36407
1.35105
1.33763
1.32386
1.30977
1.29541
1.28077
1.26588
1.25072
1.23529
1.21957
1.20352
1.1871
1.17025
1.15291
1.13494
1.11636
1.09678
1.07653
1.05594
1.03502
1.0139
0.992671
0.971407
0.950184
0.929073
0.908143
0.887458
0.867075
0.847044
0.827405
0.808174
0.789346
0.770895
0.752787
0.734994
0.717501
0.700316
0.683473
0.667027
0.651021
0.635503
0.62048
0.60595
0.591938
0.578454
0.565502
0.553079
0.541182
0.529809
0.518959
0.508632
0.498828
0.489544
0.48078
0.47253
0.464791
0.457554
0.45081
0.444547
0.43875
0.433402
0.42848
0.423961
0.419815
0.41601
0.412512
0.409282
0.40628
0.403465
0.400794
0.398226
0.39572
0.393237
0.390742
0.388204
0.385595
0.382892
0.380078
0.37714
0.374069
0.370862
0.367519
0.364044
0.360443
0.356725
0.352902
0.348986
0.344989
0.340927
0.336814
0.332664
0.32849
0.324308
0.320129
0.315966
0.311832
0.307736
0.303689
0.299699
0.295776
0.291926
0.288155
0.28447
0.280874
0.277372
0.273966
0.270659
0.26745
0.264341
0.261331
0.258419
0.255603
0.252879
0.250246
0.247699
0.245235
0.242848
0.240535
0.238289
0.236108
0.233984
0.231915
0.229895
0.227919
0.225985
0.224087
0.222223
0.220389
0.218582
0.2168
0.215039
0.213298
0.211575
0.209867
0.208173
0.206493
0.204823
0.203163
0.201513
0.19987
0.198234
0.196606
0.194985
0.19337
0.19176
0.190156
0.188558
0.186964
0.185377
0.183797
0.182224
0.180659
0.179104
0.177561
0.17603
0.174514
0.173015
0.171536
0.170082
0.168657
0.167271
0.165933
0.16466
0.163482
0.162434
0.161593
0.160996
0.160853
0.0544822
0.10482
0.148459
0.177829
0.204334
0.231008
0.258397
0.286455
0.315064
0.344087
0.373364
0.402719
0.431977
0.460933
0.489468
0.517457
0.544706
0.571088
0.596508
0.620927
0.644331
0.666729
0.688216
0.709048
0.729236
0.748855
0.767993
0.786726
0.805123
0.82324
0.841124
0.858814
0.876342
0.893739
0.911033
0.92825
0.945408
0.962512
0.979565
0.996576
1.01356
1.03054
1.04751
1.06447
1.0814
1.09833
1.11527
1.13227
1.14957
1.16735
1.18568
1.2046
1.22415
1.24432
1.26511
1.28647
1.30834
1.33061
1.35314
1.37577
1.39837
1.42048
1.44181
1.46206
1.48094
1.49819
1.51356
1.5268
1.53766
1.54596
1.55159
1.55453
1.55474
1.55274
1.5487
1.5428
1.53525
1.52621
1.51586
1.50438
1.49192
1.47864
1.46467
1.45013
1.43514
1.41978
1.40413
1.38827
1.37222
1.35604
1.33973
1.3233
1.30675
1.29003
1.27313
1.25599
1.23854
1.22071
1.20234
1.18342
1.16351
1.14304
1.1222
1.10103
1.07961
1.058
1.03624
1.01437
0.99243
0.970463
0.94852
0.92666
0.904948
0.88345
0.862232
0.841352
0.820854
0.800756
0.781056
0.761732
0.742777
0.724204
0.706042
0.688334
0.671132
0.654416
0.638225
0.622577
0.607476
0.592914
0.578888
0.565402
0.552459
0.540062
0.528215
0.516922
0.506187
0.496015
0.48641
0.477374
0.468908
0.461012
0.453683
0.446916
0.440701
0.435026
0.429875
0.425226
0.421054
0.417328
0.414012
0.411067
0.408446
0.406104
0.40399
0.402052
0.40024
0.398503
0.396792
0.395064
0.393278
0.3914
0.389399
0.387254
0.384945
0.382463
0.379801
0.376957
0.373935
0.370742
0.367387
0.363884
0.360245
0.356487
0.352626
0.348678
0.34466
0.340589
0.33648
0.33235
0.328211
0.324079
0.319965
0.315881
0.311839
0.307847
0.303914
0.300048
0.296255
0.292539
0.288907
0.28536
0.281901
0.278533
0.275254
0.272066
0.268967
0.265956
0.26303
0.260187
0.257425
0.254739
0.252125
0.249581
0.247102
0.244685
0.242325
0.240019
0.237764
0.235556
0.233391
0.231267
0.229181
0.227131
0.225114
0.223128
0.221172
0.219242
0.217337
0.215457
0.213598
0.211761
0.209943
0.208144
0.206362
0.204596
0.202846
0.201112
0.199392
0.197687
0.195996
0.194318
0.192653
0.191001
0.189362
0.187736
0.186124
0.184526
0.182942
0.181374
0.179821
0.178285
0.176767
0.175267
0.173787
0.17233
0.170899
0.169499
0.16814
0.166835
0.165604
0.164487
0.163502
0.162763
0.065866
0.108725
0.15447
0.186407
0.215211
0.244065
0.273636
0.303899
0.334708
0.365887
0.397242
0.428573
0.459678
0.490363
0.520468
0.549818
0.57834
0.605951
0.632513
0.657979
0.682342
0.705681
0.728305
0.750232
0.771545
0.792352
0.812745
0.8328
0.852586
0.872165
0.891589
0.910902
0.930137
0.94932
0.968476
0.987628
1.00679
1.02595
1.04512
1.06427
1.08342
1.10257
1.12174
1.14089
1.15999
1.17905
1.19809
1.21714
1.23633
1.25597
1.27616
1.29693
1.31835
1.34041
1.3631
1.38638
1.41017
1.43434
1.45873
1.48316
1.50751
1.53119
1.55382
1.57504
1.59453
1.61196
1.62705
1.63951
1.64908
1.65558
1.65893
1.6591
1.6562
1.65075
1.64292
1.63297
1.62113
1.60767
1.59281
1.57679
1.55981
1.54208
1.52377
1.50504
1.48603
1.46685
1.44759
1.42834
1.40913
1.39
1.37097
1.35203
1.33315
1.31431
1.29544
1.27649
1.25727
1.23778
1.21757
1.19709
1.17643
1.1556
1.13461
1.11347
1.0922
1.07076
1.04917
1.02742
1.00552
0.983479
0.961346
0.939169
0.917017
0.894968
0.87311
0.851531
0.830308
0.809489
0.789089
0.769106
0.749546
0.730443
0.711796
0.693609
0.67592
0.658753
0.642109
0.625981
0.610366
0.595267
0.580691
0.566651
0.553154
0.54021
0.527829
0.51602
0.504793
0.494158
0.484124
0.4747
0.465894
0.457712
0.450156
0.443228
0.436924
0.431237
0.426154
0.421658
0.417725
0.414324
0.411418
0.408964
0.406913
0.405211
0.4038
0.402621
0.401612
0.400712
0.399862
0.399007
0.398097
0.397086
0.395937
0.394618
0.393106
0.391383
0.389437
0.387266
0.384868
0.38225
0.379421
0.376392
0.373179
0.369798
0.366267
0.362604
0.358828
0.354958
0.351012
0.347008
0.342962
0.338891
0.334809
0.330731
0.326669
0.322634
0.318636
0.314685
0.310788
0.306952
0.303182
0.299482
0.295857
0.292307
0.288835
0.285441
0.282125
0.278886
0.275724
0.272635
0.269619
0.266673
0.263794
0.26098
0.258228
0.255536
0.2529
0.25032
0.247791
0.245313
0.242882
0.240498
0.238157
0.235858
0.2336
0.231381
0.229199
0.227053
0.224942
0.222863
0.220816
0.218799
0.216812
0.214852
0.21292
0.211013
0.209131
0.207274
0.205442
0.203633
0.201847
0.200084
0.198343
0.196624
0.194927
0.193251
0.191596
0.189963
0.188352
0.186761
0.185192
0.183643
0.182114
0.180606
0.179117
0.177647
0.176197
0.174768
0.173362
0.171986
0.170646
0.169364
0.168145
0.16706
0.0765571
0.110164
0.156849
0.190742
0.221437
0.252114
0.283491
0.315555
0.348139
0.381044
0.414062
0.446984
0.479611
0.511756
0.543256
0.573974
0.603804
0.632617
0.660386
0.687086
0.712687
0.737338
0.761338
0.784694
0.807522
0.829928
0.852004
0.87383
0.895481
0.917022
0.938513
0.96
0.981518
1.00309
1.02473
1.04646
1.06828
1.09018
1.11214
1.13413
1.15614
1.17817
1.2002
1.22223
1.24419
1.26607
1.28787
1.30961
1.33133
1.35336
1.37586
1.39893
1.42262
1.44696
1.47193
1.49749
1.52354
1.54992
1.57646
1.60292
1.62913
1.65452
1.67858
1.70088
1.72102
1.73862
1.75335
1.76486
1.77287
1.77721
1.77779
1.77454
1.76795
1.7583
1.74587
1.73095
1.71386
1.69493
1.67446
1.65276
1.63011
1.60678
1.58299
1.55895
1.53484
1.51078
1.4869
1.46328
1.43997
1.417
1.39439
1.37215
1.35025
1.32866
1.30722
1.28597
1.26443
1.24313
1.22207
1.20123
1.18056
1.16001
1.13953
1.11904
1.09848
1.0778
1.05695
1.0359
1.01462
0.993108
0.971387
0.949496
0.9275
0.905484
0.883558
0.861839
0.840432
0.819409
0.798804
0.77863
0.758887
0.739552
0.72066
0.702223
0.684243
0.666723
0.649667
0.633085
0.616983
0.601374
0.586268
0.57168
0.557622
0.544108
0.531151
0.518766
0.506967
0.49577
0.48519
0.475243
0.465942
0.4573
0.449329
0.442037
0.435428
0.429504
0.424258
0.419679
0.415749
0.412443
0.409725
0.407555
0.405882
0.40465
0.403797
0.403256
0.402958
0.402832
0.40281
0.402825
0.402816
0.402726
0.402507
0.402117
0.401522
0.400696
0.399621
0.398285
0.396683
0.394817
0.392692
0.390316
0.387704
0.384871
0.381834
0.378612
0.375224
0.371692
0.368033
0.364269
0.360418
0.356499
0.352528
0.348521
0.344494
0.34046
0.336431
0.332419
0.328433
0.324481
0.320571
0.316708
0.312898
0.309143
0.305448
0.301813
0.29824
0.29473
0.291284
0.287899
0.284577
0.281317
0.278116
0.274975
0.271892
0.268867
0.265898
0.262983
0.260123
0.257317
0.254562
0.251859
0.249206
0.246602
0.244047
0.241539
0.239078
0.236662
0.234289
0.23196
0.229672
0.227424
0.225216
0.223046
0.220914
0.218817
0.216757
0.214731
0.21274
0.210784
0.208861
0.206972
0.205116
0.203292
0.2015
0.199741
0.198012
0.196315
0.194648
0.19301
0.191401
0.18982
0.188265
0.186733
0.185225
0.183736
0.182266
0.180811
0.179372
0.177947
0.176538
0.175154
0.173798
0.172519
0.0866027
0.109679
0.156435
0.191675
0.223793
0.255871
0.288629
0.322053
0.35597
0.390177
0.424472
0.45866
0.492557