/*--------------------------------*- C++ -*----------------------------------*\
| =========                 |                                                 |
| \\      /  F ield         | OpenFOAM: The Open Source CFD Toolbox           |
|  \\    /   O peration     | Version:  2.4.0                                 |
|   \\  /    A nd           | Web:      www.OpenFOAM.org                      |
|    \\/     M anipulation  |                                                 |
\*---------------------------------------------------------------------------*/
FoamFile
{
    version     2.0;
    format      ascii;
    class       volScalarField;
    location    "4.63";
    object      nut;
}
// * * * * * * * * * * * * * * * * * * * * * * * * * * * * * * * * * * * * * //

dimensions      [0 2 -1 0 0 0 0];

internalField   nonuniform List<scalar> 
6000
(
1.24054e-05
1.01557e-05
5.68801e-06
3.07651e-06
1.72294e-06
2.94729e-06
2.76442e-06
3.67058e-06
4.14932e-06
5.0242e-06
5.79126e-06
6.64878e-06
7.39767e-06
8.0943e-06
8.65098e-06
9.07334e-06
9.30185e-06
9.34237e-06
9.44657e-06
1.01495e-05
1.15933e-05
1.33501e-05
1.49708e-05
1.63493e-05
1.75224e-05
1.85372e-05
1.94234e-05
2.01995e-05
2.08766e-05
2.14647e-05
2.19601e-05
2.23666e-05
2.26878e-05
2.29267e-05
2.30858e-05
2.31679e-05
2.31757e-05
2.31124e-05
2.29806e-05
2.27845e-05
2.25259e-05
2.22108e-05
2.18385e-05
2.14193e-05
2.09461e-05
2.04366e-05
1.98795e-05
1.94201e-05
1.90692e-05
1.87627e-05
1.8346e-05
1.80435e-05
1.75331e-05
1.72565e-05
1.65952e-05
1.63953e-05
1.55095e-05
1.55106e-05
1.43404e-05
1.50526e-05
2.33582e-05
3.47715e-05
1.72167e-05
7.92684e-06
4.49975e-06
7.40395e-06
1.38e-05
1.68865e-05
2.21406e-05
2.7522e-05
3.32352e-05
4.0148e-05
4.70038e-05
5.47631e-05
6.2337e-05
6.91232e-05
7.37397e-05
7.52092e-05
7.33875e-05
7.36056e-05
8.2724e-05
9.80131e-05
0.000114284
0.000128963
0.000141846
0.000153296
0.000163592
0.000172918
0.000181373
0.000188921
0.000195464
0.000201225
0.000206218
0.000210457
0.000213957
0.000216741
0.000218831
0.00022026
0.000221058
0.000221273
0.000220937
0.000220119
0.000218837
0.000217196
0.000215174
0.000212914
0.000210291
0.000206328
0.000199117
0.00019115
0.000182885
0.000173891
0.000164508
0.000154404
0.000143621
0.000132387
0.00012009
0.000107928
9.34035e-05
8.47235e-05
2.89001e-05
5.03069e-05
2.44427e-05
9.98303e-06
1.02892e-05
1.73747e-05
2.94133e-05
3.72e-05
4.75225e-05
5.95107e-05
7.21995e-05
8.77104e-05
0.000103184
0.000120101
0.000136088
0.000149743
0.000158367
0.000159516
0.000153257
0.000152356
0.000171658
0.000204994
0.000240436
0.000272565
0.000300978
0.000326355
0.000349251
0.000370036
0.000388919
0.000405788
0.000420612
0.000433699
0.000445077
0.00045477
0.000462803
0.000469213
0.000474041
0.00047735
0.000479197
0.000479678
0.000478855
0.00047687
0.000473759
0.000469736
0.00046477
0.000459115
0.000452508
0.000444109
0.000430467
0.000415615
0.000399725
0.000383045
0.000364788
0.000346137
0.000324631
0.000303906
0.00027836
0.00025616
0.000225815
0.000212658
3.21952e-05
5.72116e-05
2.7833e-05
1.08655e-05
1.67195e-05
2.83764e-05
4.43763e-05
5.7189e-05
7.23808e-05
9.08529e-05
0.000110661
0.000134419
0.000158282
0.000183577
0.000207065
0.000226588
0.000238377
0.000238766
0.000228649
0.000227499
0.000256254
0.000306067
0.000359393
0.000408223
0.000451751
0.000490811
0.000526155
0.000558303
0.000587577
0.000613759
0.000636967
0.000657497
0.000675392
0.000690679
0.000703391
0.000713573
0.000721282
0.000726601
0.000729614
0.000730452
0.000729209
0.000726082
0.000721139
0.000714672
0.000706663
0.000697411
0.000686661
0.000673991
0.000655257
0.000635004
0.000613026
0.000590368
0.00056509
0.000539841
0.000509882
0.00048177
0.000445737
0.00041557
0.000374114
0.000357672
3.39567e-05
5.94426e-05
3.42482e-05
1.16194e-05
2.21079e-05
3.80719e-05
5.74125e-05
7.50319e-05
9.49849e-05
0.000119451
0.000146016
0.000177262
0.000208795
0.000241473
0.000271468
0.000295974
0.000310432
0.000310448
0.000297925
0.000297459
0.000334492
0.000398611
0.000467902
0.000532018
0.000589594
0.000641476
0.000688544
0.000731431
0.000770537
0.000805609
0.000836853
0.000864543
0.000888731
0.000909448
0.000926728
0.000940624
0.000951201
0.000958562
0.000962807
0.000964099
0.00096256
0.000958432
0.000951819
0.000943063
0.000932173
0.000919455
0.000904838
0.000888155
0.000865203
0.000840457
0.000813483
0.000785856
0.000754939
0.000724196
0.000687634
0.000653249
0.000609267
0.000572007
0.000522625
0.000502556
3.49042e-05
5.90422e-05
4.16123e-05
1.1998e-05
2.5108e-05
4.57895e-05
6.82668e-05
9.05041e-05
0.000115107
0.000145096
0.000177931
0.00021591
0.00025433
0.000293456
0.00032906
0.000357832
0.000374695
0.000375023
0.000361724
0.000362782
0.00040693
0.000483265
0.000566608
0.000644517
0.000714953
0.000778669
0.000836609
0.000889487
0.000937751
0.000981154
0.00101995
0.00105439
0.00108453
0.0011104
0.00113204
0.0011495
0.00116286
0.00117222
0.00117771
0.00117951
0.00117778
0.00117278
0.00116465
0.00115378
0.0011402
0.00112425
0.0011061
0.00108567
0.00105908
0.00103045
0.000999251
0.000967321
0.00093176
0.00089625
0.000854455
0.000814543
0.000764545
0.000720764
0.00066579
0.000641271
3.5415e-05
5.72007e-05
4.71314e-05
1.45269e-05
2.45538e-05
5.13042e-05
7.68988e-05
0.000103673
0.000132812
0.000167926
0.000206541
0.000250568
0.000295132
0.000339883
0.000380319
0.000412795
0.00043195
0.000433367
0.000420808
0.000424118
0.000474334
0.000560983
0.000656594
0.000746859
0.000828988
0.000903551
0.000971505
0.00103361
0.00109035
0.00114149
0.00118733
0.00122807
0.00126379
0.00129451
0.00132026
0.0013411
0.0013571
0.0013684
0.00137511
0.00137744
0.00137558
0.00136981
0.00136031
0.00134748
0.00133138
0.00131248
0.00129107
0.00126715
0.00123734
0.00120524
0.00117038
0.00113462
0.00109514
0.0010554
0.00100938
0.000964534
0.000909953
0.000860171
0.000801271
0.000771611
3.56743e-05
5.46487e-05
5.08154e-05
2.15382e-05
2.16209e-05
5.44261e-05
8.32915e-05
0.000114621
0.000148198
0.000188116
0.00023206
0.000281533
0.000331574
0.00038124
0.000425855
0.000461609
0.000483038
0.000486284
0.00047578
0.000481968
0.00053735
0.000632619
0.000738869
0.000840148
0.000932864
0.00101733
0.00109448
0.00116508
0.00122963
0.00128794
0.0013403
0.00138692
0.00142784
0.00146309
0.0014927
0.00151673
0.00153524
0.00154837
0.00155627
0.00155914
0.00155719
0.00155072
0.00153997
0.00152531
0.00150687
0.00148528
0.00146086
0.00143368
0.00140093
0.00136566
0.00132755
0.00128833
0.00124546
0.00120191
0.00115241
0.00110313
0.00104503
0.000989763
0.00092812
0.000892874
3.57841e-05
5.18353e-05
5.29303e-05
2.99567e-05
1.9457e-05
5.49098e-05
8.74082e-05
0.000123386
0.000161331
0.000205807
0.000254682
0.000309085
0.000364019
0.000418003
0.000466261
0.000504934
0.000528716
0.000534439
0.00052707
0.000536672
0.000596473
0.000698871
0.000814283
0.000925337
0.00102761
0.0011211
0.00120666
0.00128508
0.00135683
0.00142176
0.00148017
0.00153224
0.00157801
0.0016175
0.00165073
0.00167775
0.00169863
0.00171351
0.00172254
0.00172594
0.00172393
0.00171684
0.00170491
0.00168853
0.00166794
0.00164387
0.00161665
0.00158642
0.00155093
0.00151274
0.00147168
0.00142926
0.00138339
0.00133639
0.00128395
0.00123069
0.00116984
0.00110961
0.00104607
0.00100502
3.58063e-05
4.90308e-05
5.37493e-05
3.80121e-05
1.98596e-05
5.24983e-05
8.91975e-05
0.000129958
0.000172232
0.00022109
0.000274562
0.000333458
0.000392789
0.000450596
0.000502063
0.000543381
0.000569629
0.000578359
0.000574973
0.000588442
0.000652069
0.000760296
0.000883537
0.00100322
0.00111409
0.00121579
0.00130906
0.00139465
0.00147303
0.00154408
0.00160811
0.00166525
0.00171554
0.00175899
0.00179561
0.00182545
0.00184857
0.00186511
0.00187522
0.00187913
0.00187709
0.00186942
0.00185639
0.0018384
0.00181585
0.00178945
0.00175961
0.00172652
0.00168845
0.0016475
0.0016037
0.00155831
0.00150972
0.00145955
0.00140459
0.00134775
0.00128474
0.00122005
0.00115519
0.00110832
3.57785e-05
4.63897e-05
5.35458e-05
4.47006e-05
2.35634e-05
4.73423e-05
8.86226e-05
0.000134289
0.000180881
0.00023401
0.000291808
0.000354837
0.00041815
0.000479379
0.000533721
0.000577492
0.000606318
0.000618458
0.000619683
0.000637394
0.000704395
0.000817334
0.000947203
0.00107448
0.00119306
0.00130221
0.00140253
0.00149471
0.00157919
0.00165591
0.00172513
0.001787
0.00184152
0.00188868
0.00192849
0.00196099
0.00198623
0.00200434
0.0020155
0.00201991
0.00201785
0.00200964
0.00199557
0.00197609
0.00195173
0.00192316
0.00189085
0.00185504
0.0018145
0.00177092
0.00172455
0.00167635
0.00162526
0.00157216
0.00151499
0.00145491
0.00139018
0.0013215
0.00125575
0.00120316
3.57235e-05
4.39915e-05
5.25787e-05
4.98131e-05
3.00409e-05
4.09842e-05
8.57208e-05
0.00013631
0.000187222
0.000244568
0.000306485
0.000373362
0.000440321
0.000504656
0.000561621
0.00060772
0.000639225
0.000655062
0.000661327
0.000683573
0.000753622
0.000870326
0.00100575
0.00113965
0.00126514
0.00138104
0.00148779
0.00158604
0.00167614
0.00175809
0.00183216
0.00189843
0.00195691
0.00200756
0.00205038
0.0020854
0.00211265
0.00213228
0.00214443
0.00214934
0.00214727
0.00213856
0.00212352
0.00210269
0.00207663
0.00204599
0.00201134
0.00197296
0.00193004
0.00188393
0.0018351
0.00178423
0.0017308
0.00167496
0.0016158
0.00155281
0.00148667
0.00141446
0.00134809
0.00129001
3.56549e-05
4.18678e-05
5.10788e-05
5.33641e-05
3.71251e-05
3.56061e-05
8.06911e-05
0.000135965
0.00019118
0.00025273
0.000318619
0.000389128
0.00045947
0.000526676
0.000586086
0.000634441
0.000668685
0.000688431
0.000699989
0.000726976
0.000799847
0.000919529
0.00105955
0.0011992
0.00133083
0.00145285
0.00156547
0.00166929
0.00176458
0.00185139
0.00192996
0.00200036
0.00206255
0.0021165
0.00216217
0.00219958
0.00222876
0.00224984
0.00226296
0.00226837
0.00226631
0.00225713
0.00224121
0.00221912
0.00219145
0.00215886
0.00212199
0.00208116
0.00203591
0.00198736
0.00193615
0.00188272
0.00182704
0.00176865
0.00170765
0.00164204
0.00157472
0.00149941
0.00143262
0.00136932
3.55811e-05
4.00211e-05
4.92413e-05
5.54906e-05
4.36916e-05
3.29391e-05
7.39915e-05
0.000133243
0.000192675
0.000258437
0.000328204
0.000402196
0.000475725
0.000545634
0.000607381
0.000657967
0.000695003
0.000718772
0.000735725
0.000767568
0.000843116
0.000965132
0.0011089
0.0012535
0.00139059
0.00151811
0.0016361
0.00174504
0.0018451
0.00193644
0.00201922
0.00209349
0.00215918
0.00221624
0.00226463
0.00230433
0.00233537
0.00235785
0.00237192
0.00237781
0.00237579
0.00236619
0.00234948
0.00232622
0.00229703
0.00226259
0.00222359
0.0021804
0.00213288
0.00208195
0.00202842
0.00197252
0.00191467
0.00185386
0.00179116
0.00172315
0.00165484
0.0015768
0.00150972
0.00144155
3.5507e-05
3.8437e-05
4.72237e-05
5.63868e-05
4.93567e-05
3.5398e-05
6.65917e-05
0.000128241
0.00019165
0.000261614
0.000335204
0.00041259
0.000489176
0.000561685
0.000625718
0.00067855
0.000718427
0.000746257
0.00076858
0.000805301
0.000883427
0.00100726
0.00115404
0.00130287
0.00144477
0.00157725
0.00170012
0.00181375
0.00191825
0.00201378
0.0021005
0.00217841
0.00224742
0.00230745
0.00235844
0.00240034
0.00243317
0.00245702
0.00247203
0.00247842
0.00247644
0.0024665
0.00244907
0.00242472
0.00239409
0.00235788
0.00231685
0.00227139
0.00222164
0.00216838
0.00211256
0.00205426
0.0019943
0.00193119
0.00186686
0.00179669
0.0017275
0.00164709
0.0015798
0.00150712
3.54358e-05
3.7092e-05
4.51483e-05
5.62672e-05
5.39371e-05
4.08771e-05
5.98247e-05
0.000121238
0.000188104
0.000262189
0.000339568
0.000420309
0.000499878
0.000574944
0.000641264
0.000696392
0.000739157
0.000771028
0.000798594
0.000840121
0.000920751
0.00104601
0.00119516
0.00134754
0.00149366
0.0016306
0.0017579
0.00187585
0.00198444
0.0020839
0.00217431
0.00225566
0.00232782
0.00239068
0.00244416
0.00248819
0.00252277
0.00254797
0.00256391
0.00257081
0.00256894
0.00255872
0.00254063
0.00251526
0.00248328
0.00244537
0.00240238
0.00235473
0.0023028
0.00224724
0.00218917
0.00212851
0.00206649
0.00200116
0.00193527
0.00186312
0.00179315
0.00171069
0.00164324
0.00156644
3.5369e-05
3.59591e-05
4.3105e-05
5.53461e-05
5.73532e-05
4.74445e-05
5.49336e-05
0.000112755
0.000182134
0.000260115
0.000341236
0.000425331
0.000507859
0.000585488
0.000654143
0.000711649
0.000757353
0.000793205
0.000825809
0.000871984
0.00095504
0.0010814
0.00123237
0.00138772
0.00153753
0.00167845
0.00180978
0.00193167
0.00204407
0.00214718
0.00224107
0.00232568
0.00240084
0.00246643
0.00252232
0.00256842
0.00260471
0.00263123
0.00264811
0.00265554
0.00265384
0.0026434
0.00262472
0.0025984
0.00256514
0.00252562
0.00248075
0.00243098
0.00237689
0.00231907
0.00225877
0.0021958
0.00213172
0.00206427
0.00199686
0.00192288
0.00185221
0.00176798
0.0017004
0.00161988
3.53076e-05
3.5011e-05
4.1157e-05
5.3825e-05
5.96042e-05
5.38968e-05
5.42606e-05
0.000103651
0.000173988
0.000255401
0.000340159
0.000427622
0.000513127
0.000593369
0.000664446
0.000724439
0.000773141
0.000812892
0.000850274
0.000900857
0.000986239
0.00111346
0.00126579
0.00142357
0.00157656
0.00172103
0.00185601
0.00198151
0.00209745
0.00220399
0.00230116
0.00238886
0.0024669
0.0025351
0.00259333
0.00264146
0.00267943
0.00270728
0.00272511
0.00273313
0.00273163
0.00272104
0.00270185
0.00267465
0.00264017
0.00259912
0.00255242
0.00250061
0.0024444
0.00238434
0.00232183
0.00225658
0.00219046
0.00212095
0.00205205
0.00197638
0.00190504
0.00181931
0.00175162
0.00166777
3.52519e-05
3.42215e-05
3.93454e-05
5.18856e-05
6.07513e-05
5.96038e-05
5.72347e-05
9.50144e-05
0.000164107
0.000248146
0.000336317
0.00042715
0.000515671
0.000598613
0.000672232
0.000734847
0.000786616
0.000830176
0.000872045
0.000926732
0.0010143
0.00114217
0.00129546
0.0014552
0.00161093
0.00175854
0.00189682
0.00202563
0.00214485
0.0022546
0.00235487
0.00244553
0.00252633
0.00259707
0.00265757
0.00270769
0.00274734
0.00277652
0.00279533
0.00280397
0.00280275
0.00279206
0.00277242
0.00274442
0.0027088
0.00266629
0.00261784
0.00256404
0.00250574
0.00244348
0.00237876
0.00231126
0.00224311
0.00217159
0.00210121
0.00202398
0.00195201
0.001865
0.00179721
0.00171044
3.52018e-05
3.35669e-05
3.76936e-05
4.96849e-05
6.09005e-05
6.42424e-05
6.22255e-05
8.83261e-05
0.000153163
0.000238586
0.000329747
0.000423897
0.000515479
0.000601227
0.000677536
0.000742929
0.000797849
0.000845132
0.000891186
0.000949623
0.00103918
0.00116752
0.00132142
0.00148271
0.00164075
0.00179114
0.0019324
0.00206424
0.0021865
0.00229927
0.00240249
0.00249596
0.00257943
0.00265264
0.00271537
0.00276746
0.00280877
0.0028393
0.00285913
0.00286845
0.00286756
0.00285685
0.00283684
0.0028081
0.00277142
0.00272751
0.00267738
0.00262165
0.00256129
0.00249685
0.00242995
0.00236022
0.00229004
0.00221655
0.0021447
0.00206601
0.00199343
0.00190535
0.00183746
0.00174817
3.51571e-05
3.30261e-05
3.62118e-05
4.73544e-05
6.01886e-05
6.76648e-05
6.78233e-05
8.53853e-05
0.000142041
0.000227124
0.000320574
0.00041788
0.000512541
0.000601211
0.00068037
0.000748716
0.000806886
0.000857823
0.000907768
0.000969568
0.00106086
0.00118948
0.0013437
0.00150615
0.00166614
0.00181896
0.0019629
0.00209751
0.00222261
0.00233822
0.00244423
0.00254041
0.00262645
0.00270207
0.002767
0.00282104
0.00286402
0.00289592
0.00291682
0.00292688
0.00292639
0.00291573
0.00289541
0.00286602
0.00282835
0.00278312
0.00273137
0.00267376
0.00261139
0.0025448
0.00247571
0.00240377
0.00233157
0.00225615
0.00218284
0.00210278
0.00202959
0.00194063
0.00187266
0.00178122
3.51175e-05
3.25809e-05
3.49007e-05
4.49993e-05
5.87692e-05
6.98343e-05
7.31902e-05
8.61251e-05
0.000131861
0.000214354
0.000309044
0.000409173
0.00050687
0.000598561
0.000680738
0.000752219
0.000813755
0.0008683
0.000921867
0.000986632
0.00107936
0.00120804
0.0013623
0.00152558
0.00168717
0.00184211
0.00198844
0.00212558
0.00225333
0.00237161
0.00248029
0.00257908
0.00266762
0.0027456
0.0028127
0.00286866
0.00291333
0.00294665
0.00296867
0.00297953
0.00297951
0.00296897
0.00294842
0.00291846
0.00287987
0.0028334
0.0027801
0.00272068
0.00265633
0.00258761
0.00251636
0.00244223
0.002368
0.00229067
0.0022159
0.00213454
0.00206077
0.0019711
0.00190304
0.00180985
3.50825e-05
3.22154e-05
3.37539e-05
4.27009e-05
5.68015e-05
7.07908e-05
7.78204e-05
8.91945e-05
0.000124658
0.000201049
0.000295553
0.000397931
0.000498515
0.000593287
0.000678633
0.000753436
0.000818468
0.000876604
0.00093356
0.0010009
0.00109473
0.00122322
0.00137725
0.00154102
0.0017039
0.00186067
0.00200913
0.00214859
0.0022788
0.00239961
0.00251083
0.00261214
0.00270312
0.0027834
0.00285264
0.00291055
0.00295694
0.00299172
0.00301492
0.00302664
0.00302716
0.00301682
0.00299614
0.00296568
0.00292625
0.0028786
0.00282382
0.00276266
0.00269636
0.00262556
0.00255215
0.00247585
0.00239959
0.00232039
0.00224415
0.00216156
0.0020872
0.00199697
0.00192884
0.00183426
3.50517e-05
3.19164e-05
3.27612e-05
4.05179e-05
5.44406e-05
7.06296e-05
8.14119e-05
9.33501e-05
0.000121096
0.000188578
0.000280663
0.000384417
0.000487583
0.00058542
0.000674055
0.000752357
0.000821023
0.000882763
0.000942926
0.00101249
0.00110704
0.00123505
0.00138855
0.00155253
0.00171638
0.00187471
0.00202507
0.00216663
0.00229914
0.00242234
0.002536
0.00263975
0.00273309
0.00281564
0.00288701
0.00294689
0.00299504
0.00303133
0.00305576
0.00306843
0.00306956
0.00305951
0.00303876
0.00300789
0.00296771
0.00291897
0.00286278
0.00279992
0.00273173
0.00265887
0.00258333
0.00250488
0.0024266
0.00234554
0.00226782
0.00218406
0.00210912
0.00201847
0.00195028
0.00185468
3.50247e-05
3.16724e-05
3.19094e-05
3.84903e-05
5.18301e-05
6.94848e-05
8.38008e-05
9.76586e-05
0.000120661
0.000178334
0.00026538
0.000369021
0.000474255
0.000575029
0.000667016
0.000748968
0.000821409
0.000886796
0.000950036
0.00102151
0.00111641
0.00124359
0.00139626
0.00156013
0.00172467
0.00188429
0.00203631
0.0021798
0.00231445
0.00243991
0.00255592
0.00266199
0.00275765
0.00284246
0.00291597
0.00297784
0.00302779
0.00306565
0.00309138
0.00310506
0.00310689
0.0030972
0.00307648
0.00304529
0.00300443
0.00295468
0.00289715
0.00283267
0.00276264
0.00268776
0.00261011
0.00252953
0.00244922
0.00236633
0.00228714
0.00220226
0.00212673
0.00203579
0.00196756
0.00187127
3.5001e-05
3.14739e-05
3.11844e-05
3.66418e-05
4.9097e-05
6.75162e-05
8.49252e-05
0.000101476
0.000122372
0.000171021
0.000250825
0.000352535
0.000458855
0.000562236
0.000657553
0.000743264
0.000819611
0.000888713
0.000954958
0.0010281
0.00112298
0.00124897
0.00140045
0.00156388
0.00172882
0.00188948
0.00204293
0.00218816
0.00232482
0.00245241
0.00257063
0.00267899
0.00277693
0.00286398
0.00293965
0.00300354
0.00305533
0.00309482
0.00312192
0.00313669
0.00313931
0.00313007
0.00310946
0.00307804
0.0030366
0.00298592
0.00292713
0.0028611
0.00278927
0.00271242
0.00263269
0.00255
0.00246768
0.00238296
0.00230229
0.00221633
0.00214022
0.00204911
0.00198086
0.00188423
3.49803e-05
3.13131e-05
3.05719e-05
3.49835e-05
4.63483e-05
6.48967e-05
8.48035e-05
0.000104376
0.000125202
0.000166716
0.000237999
0.000335736
0.000441956
0.000547371
0.000645742
0.000735255
0.000815614
0.000888516
0.000957752
0.00103238
0.00112693
0.00125132
0.00140122
0.00156385
0.0017289
0.00189033
0.002045
0.00219181
0.00233028
0.00245989
0.00258026
0.00269083
0.00279103
0.00288032
0.00295816
0.00302411
0.00307779
0.00311897
0.00314752
0.00316346
0.00316695
0.00315826
0.00313786
0.0031063
0.00306436
0.00301284
0.00295287
0.00288536
0.00281179
0.00273301
0.00265123
0.00256645
0.00248213
0.00239561
0.00231346
0.00222646
0.00214977
0.00205859
0.00199036
0.0018937
3.49623e-05
3.11833e-05
3.00581e-05
3.35164e-05
4.36702e-05
6.18019e-05
8.35183e-05
0.000106098
0.000128279
0.000164951
0.000227633
0.000319481
0.00042414
0.000530808
0.000631887
0.000724979
0.000809409
0.0008862
0.000958463
0.00103449
0.00112844
0.00125083
0.00139872
0.00156017
0.00172498
0.0018869
0.00204255
0.00219076
0.00233091
0.00246244
0.00258487
0.00269761
0.00280005
0.00289157
0.00297161
0.00303965
0.00309528
0.00313821
0.00316829
0.00318548
0.00318993
0.00318188
0.00316179
0.00313018
0.00308784
0.00303557
0.00297451
0.00290559
0.00283035
0.0027497
0.00266589
0.00257907
0.00249275
0.00240445
0.00232082
0.00223282
0.00215554
0.00206439
0.00199621
0.00189984
3.49465e-05
3.10789e-05
2.96298e-05
3.22342e-05
4.11276e-05
5.84e-05
8.12016e-05
0.000106504
0.000130937
0.000164957
0.000220024
0.000304596
0.000406087
0.000512979
0.000616238
0.000712673
0.000801031
0.000881761
0.000957131
0.00103454
0.00112772
0.00124773
0.00139308
0.00155291
0.00171714
0.00187926
0.00203566
0.00218509
0.0023268
0.00246013
0.00258455
0.00269942
0.00280406
0.00289782
0.00298007
0.00305025
0.00310788
0.00315264
0.00318432
0.00320286
0.00320836
0.00320105
0.00318136
0.00314981
0.00310717
0.00305424
0.00299217
0.00292192
0.00284508
0.0027626
0.00267683
0.00258798
0.00249968
0.00240962
0.00232451
0.00223554
0.00215768
0.00206667
0.00199856
0.00190278
3.49327e-05
3.09955e-05
2.92752e-05
3.1126e-05
3.87665e-05
5.48451e-05
7.80214e-05
0.000105557
0.000132696
0.00016589
0.000215
0.000291729
0.000388518
0.000494398
0.000599112
0.000698508
0.000790629
0.000875255
0.00095378
0.00103264
0.00112487
0.00124214
0.0013845
0.00154225
0.00170552
0.00186752
0.00202444
0.00217491
0.00231802
0.00245305
0.00257937
0.00269632
0.00280315
0.00289915
0.00298364
0.00305599
0.00311569
0.00316234
0.0031957
0.00321567
0.00322232
0.00321586
0.00319667
0.00316528
0.00312244
0.00306895
0.00300596
0.00293447
0.0028561
0.00277186
0.00268415
0.00259332
0.00250307
0.00241127
0.00232468
0.00223477
0.00215634
0.00206554
0.00199756
0.00190265
3.49206e-05
3.0929e-05
2.89834e-05
3.01776e-05
3.66151e-05
5.12707e-05
7.41676e-05
0.000103303
0.000133238
0.000166987
0.000212034
0.000281228
0.00037211
0.000475637
0.000580894
0.000682707
0.000778304
0.000866731
0.000948447
0.0010288
0.00112003
0.00123429
0.00137321
0.00152841
0.00169028
0.00185182
0.002009
0.00216031
0.00230466
0.00244127
0.00256943
0.0026884
0.00279739
0.00289563
0.00298238
0.00305694
0.00311876
0.00316738
0.00320251
0.00322401
0.00323191
0.00322639
0.00320782
0.00317669
0.00313375
0.0030798
0.00301599
0.00294335
0.00286351
0.00277758
0.00268799
0.00259521
0.00250303
0.00240952
0.00232146
0.00223064
0.00215164
0.00206114
0.00199332
0.00189957
3.49101e-05
3.08766e-05
2.87451e-05
2.93732e-05
3.46873e-05
4.77874e-05
6.98384e-05
9.98551e-05
0.000132373
0.000167617
0.000210412
0.000273083
0.000357399
0.000457281
0.000562022
0.000665543
0.000764198
0.000856238
0.000941142
0.00102308
0.00111335
0.00122441
0.00135949
0.00151163
0.00167164
0.00183232
0.00198948
0.0021414
0.00228684
0.0024249
0.00255479
0.00267572
0.00278685
0.00288733
0.00297635
0.00305318
0.00311717
0.00316783
0.00320481
0.00322793
0.00323718
0.00323271
0.00321486
0.0031841
0.00314118
0.00308687
0.00302234
0.00294863
0.00286742
0.00277986
0.00268845
0.00259377
0.00249969
0.00240448
0.00231497
0.00222327
0.00214371
0.00205358
0.00198598
0.00189365
3.49009e-05
3.08354e-05
2.85517e-05
2.86967e-05
3.29853e-05
4.44808e-05
6.52285e-05
9.53824e-05
0.000130028
0.0001673
0.00020938
0.000266967
0.000344691
0.000439864
0.000542964
0.000647338
0.000748495
0.000843854
0.000931887
0.00101552
0.00110492
0.00121273
0.00134361
0.00149219
0.00164984
0.00180924
0.00196606
0.00211834
0.00226467
0.00240403
0.00253555
0.00265838
0.0027716
0.00287431
0.00296562
0.00304475
0.00311097
0.00316375
0.00320267
0.00322751
0.00323821
0.00323489
0.00321787
0.0031876
0.00314479
0.00309024
0.00302509
0.00295041
0.00286791
0.0027788
0.00268562
0.00258909
0.00249314
0.00239628
0.00230532
0.00221277
0.00213266
0.00204299
0.00197565
0.00188499
3.48929e-05
3.08034e-05
2.83961e-05
2.81325e-05
3.15023e-05
4.14126e-05
6.05177e-05
9.00914e-05
0.000126225
0.000165697
0.000208252
0.000262329
0.000334017
0.000423804
0.00052418
0.000628449
0.00073142
0.000829689
0.000920721
0.00100613
0.00109487
0.00119943
0.00132586
0.0014704
0.00162516
0.0017828
0.00193894
0.0020913
0.00223828
0.00237878
0.00251182
0.00263645
0.00275172
0.00285664
0.00295026
0.00303172
0.00310023
0.00315519
0.00319614
0.00322279
0.00323505
0.00323299
0.00321691
0.00318724
0.00314467
0.00308997
0.00302431
0.00294877
0.00286507
0.00277448
0.0026796
0.00258128
0.0024835
0.00238501
0.00229262
0.00219925
0.0021186
0.00202945
0.00196242
0.00187368
3.48858e-05
3.07788e-05
2.8272e-05
2.76655e-05
3.02256e-05
3.86218e-05
5.58635e-05
8.42123e-05
0.000121073
0.000162598
0.000206447
0.000258512
0.000325149
0.000409338
0.000506078
0.000609245
0.000713232
0.00081389
0.000907705
0.000994966
0.00108325
0.0011847
0.00130651
0.00144657
0.00159791
0.0017533
0.00190834
0.00206045
0.00220786
0.00234929
0.00248369
0.00261005
0.0027273
0.0028344
0.00293034
0.00301415
0.00308501
0.00314222
0.00318527
0.00321383
0.00322774
0.00322707
0.00321204
0.00318308
0.00314086
0.00308614
0.00302007
0.00294376
0.00285896
0.00276698
0.00267047
0.00257041
0.00247085
0.00237076
0.00227696
0.0021828
0.00210163
0.00201308
0.00194642
0.00185982
3.48797e-05
3.07602e-05
2.81739e-05
2.7282e-05
2.91382e-05
3.61281e-05
5.13951e-05
7.79824e-05
0.00011475
0.000157912
0.000203516
0.000254855
0.000317651
0.000396497
0.000488965
0.000590081
0.000694215
0.000796632
0.000892919
0.000982047
0.00107012
0.00116868
0.0012858
0.00142101
0.00156842
0.00172105
0.00187455
0.00202605
0.00217357
0.00231572
0.00245132
0.00257926
0.00269842
0.00280767
0.00290591
0.0029921
0.00306534
0.00312488
0.00317011
0.00320067
0.00321635
0.00321716
0.00320331
0.00317518
0.00313342
0.00307879
0.00301244
0.00293547
0.00284965
0.00275637
0.00265831
0.00255658
0.00245527
0.00235364
0.00225844
0.00216353
0.00208185
0.00199396
0.00192772
0.00184349
3.48743e-05
3.07464e-05
2.80972e-05
2.69697e-05
2.82213e-05
3.39352e-05
4.72109e-05
7.16301e-05
0.000107494
0.00015166
0.000199136
0.000250751
0.000310969
0.000385102
0.000473009
0.000571262
0.000674656
0.000778118
0.000876471
0.000967416
0.00105552
0.00115147
0.00126396
0.00139405
0.00153703
0.00168638
0.00183786
0.00198832
0.00213564
0.00227824
0.00241484
0.00254423
0.0026652
0.00277654
0.00287706
0.00296564
0.00304131
0.00310322
0.00315072
0.00318337
0.00320092
0.00320332
0.00319075
0.00316357
0.0031224
0.00306798
0.00300145
0.00292394
0.00283721
0.00274272
0.00264319
0.00253985
0.00243686
0.00233371
0.00223715
0.00214152
0.00205934
0.00197219
0.00190642
0.00182477
3.48695e-05
3.07364e-05
2.80381e-05
2.67175e-05
2.74553e-05
3.20342e-05
4.33791e-05
6.5362e-05
9.95746e-05
0.000143958
0.000193115
0.00024569
0.0003045
0.000374805
0.000458217
0.000553012
0.000654826
0.000758567
0.000858488
0.000951123
0.00103947
0.00113314
0.00124115
0.00136594
0.00150407
0.00164965
0.00179858
0.00194758
0.00209431
0.00223707
0.00237443
0.0025051
0.00262776
0.0027411
0.00284387
0.00293485
0.00301296
0.0030773
0.00312714
0.00316197
0.00318148
0.00318559
0.00317443
0.00314832
0.00310785
0.00305377
0.00298718
0.00290922
0.0028217
0.00272609
0.00262518
0.0025203
0.00241567
0.00231106
0.00221318
0.00211685
0.00203421
0.00194786
0.00188261
0.00180373
3.48654e-05
3.07294e-05
2.79934e-05
2.65156e-05
2.68211e-05
3.04074e-05
3.99392e-05
5.93523e-05
9.12839e-05
0.000135012
0.000185381
0.000239275
0.000297666
0.000365139
0.000444434
0.000535444
0.000634952
0.000738196
0.000839115
0.000933227
0.00102198
0.00111373
0.00121752
0.00133695
0.00146987
0.00161119
0.00175706
0.00190411
0.00204985
0.00219242
0.00233029
0.00246202
0.00258622
0.00270148
0.00280643
0.00289979
0.00298037
0.00304718
0.00309943
0.00313652
0.0031581
0.00316401
0.00315437
0.00312945
0.00308982
0.00303618
0.00296966
0.00289139
0.00280317
0.00270655
0.00260433
0.002498
0.0023918
0.00228577
0.00218659
0.00208962
0.00200652
0.00192103
0.00185637
0.00178045
3.48617e-05
3.07248e-05
2.79602e-05
2.63557e-05
2.63005e-05
2.90317e-05
3.69064e-05
5.37368e-05
8.29077e-05
0.000125099
0.000175981
0.00023123
0.000289949
0.000355582
0.000431368
0.000518546
0.000615197
0.000717208
0.000818506
0.000913801
0.00100305
0.00109324
0.00119313
0.00130727
0.00143472
0.00157135
0.00171365
0.00185825
0.00200255
0.00214456
0.00228262
0.00241518
0.00254073
0.00265778
0.00276485
0.00286055
0.0029436
0.00301293
0.00306763
0.00310707
0.0031308
0.00313864
0.00313063
0.00310701
0.00306833
0.00301528
0.00294894
0.00287047
0.00278167
0.00268414
0.00258071
0.002473
0.00236529
0.00225791
0.00215746
0.00205988
0.00197637
0.0018918
0.00182777
0.001755
3.48586e-05
3.07221e-05
2.79362e-05
2.62305e-05
2.58769e-05
2.78806e-05
3.42758e-05
4.86103e-05
7.47093e-05
0.000114544
0.000165072
0.000221408
0.000280924
0.000345607
0.000418629
0.000502182
0.000595635
0.000695771
0.000796813
0.000892922
0.000982701
0.00107166
0.00116803
0.00127703
0.00139887
0.00153045
0.0016687
0.00181034
0.00195273
0.00209377
0.00223166
0.00236478
0.00249148
0.00261016
0.00271925
0.00281723
0.00290275
0.0029746
0.00303182
0.00307367
0.00309965
0.00310951
0.00310324
0.00308105
0.00304345
0.0029911
0.00292506
0.00284652
0.00275726
0.00265892
0.00255438
0.00244538
0.00233623
0.00222754
0.00212588
0.00202773
0.00194382
0.00186023
0.00179689
0.00172743
3.48558e-05
3.07209e-05
2.79197e-05
2.61337e-05
2.55354e-05
2.69272e-05
3.20276e-05
4.40282e-05
6.69123e-05
0.000103702
0.000152914
0.000209785
0.000270274
0.000334727
0.000405767
0.000486108
0.000576245
0.000674
0.000774173
0.000870673
0.000960923
0.00104894
0.00114221
0.00124633
0.00136252
0.00148879
0.00162253
0.00176071
0.00190069
0.00204032
0.00217768
0.00231103
0.00243863
0.00255877
0.00266974
0.00276994
0.00285789
0.00293228
0.00299205
0.00303637
0.00306468
0.00307666
0.00307224
0.0030516
0.0030152
0.00296368
0.00289808
0.00281958
0.00272997
0.00263094
0.00252539
0.00241518
0.00230467
0.00219474
0.0020919
0.00199322
0.00190895
0.00182641
0.0017638
0.00169782
3.48533e-05
3.07208e-05
2.79091e-05
2.60601e-05
2.52626e-05
2.61448e-05
3.01317e-05
4.00113e-05
5.96897e-05
9.29242e-05
0.000139851
0.000196468
0.000257802
0.000322523
0.000392321
0.000469994
0.000556908
0.000651941
0.000750699
0.000847133
0.000937723
0.00102503
0.00111561
0.0012152
0.00132582
0.0014466
0.00157546
0.00170969
0.00184678
0.00198452
0.00212094
0.00225417
0.00238239
0.00250377
0.00261648
0.0027188
0.00280912
0.00288604
0.00294838
0.00299524
0.00302595
0.00304014
0.00303769
0.00301871
0.00298363
0.00293306
0.00286803
0.00278969
0.00269986
0.00260025
0.00249379
0.00238246