/*--------------------------------*- C++ -*----------------------------------*\
| =========                 |                                                 |
| \\      /  F ield         | OpenFOAM: The Open Source CFD Toolbox           |
|  \\    /   O peration     | Version:  2.4.0                                 |
|   \\  /    A nd           | Web:      www.OpenFOAM.org                      |
|    \\/     M anipulation  |                                                 |
\*---------------------------------------------------------------------------*/
FoamFile
{
    version     2.0;
    format      ascii;
    class       volVectorField;
    location    "500";
    object      U;
}
// * * * * * * * * * * * * * * * * * * * * * * * * * * * * * * * * * * * * * //

dimensions      [0 1 -1 0 0 0 0];

internalField   nonuniform List<vector> 
12225
(
(9.62411 0.0458779 0)
(9.28993 0.0483098 0)
(8.9338 0.0477239 0)
(8.59164 0.0478229 0)
(8.27425 0.0471923 0)
(7.97933 0.0459776 0)
(7.70418 0.0444929 0)
(7.44747 0.0428769 0)
(7.20818 0.0411953 0)
(6.9853 0.0394931 0)
(6.77781 0.037799 0)
(6.5848 0.0361232 0)
(6.40554 0.0344569 0)
(6.23947 0.0327667 0)
(6.08637 0.03098 0)
(5.94646 0.0289281 0)
(5.82204 0.0264458 0)
(5.69886 0.010646 0)
(10.02 0.104857 0)
(10.0445 0.101602 0)
(10.0224 0.0961133 0)
(9.97933 0.0950112 0)
(9.92895 0.0937838 0)
(9.8734 0.0920341 0)
(9.81346 0.090151 0)
(9.75053 0.0882549 0)
(9.686 0.0863485 0)
(9.62094 0.08442 0)
(9.5562 0.082449 0)
(9.49253 0.080397 0)
(9.43062 0.0781972 0)
(9.37121 0.0757319 0)
(9.31521 0.0727763 0)
(9.264 0.068838 0)
(9.21987 0.0627617 0)
(9.1826 0.0493468 0)
(10.0311 0.0821251 0)
(10.0782 0.0801327 0)
(10.1006 0.0758879 0)
(10.1097 0.0775799 0)
(10.1158 0.0794367 0)
(10.1196 0.0804478 0)
(10.1207 0.0810124 0)
(10.1194 0.0812824 0)
(10.1161 0.0812576 0)
(10.1114 0.0809296 0)
(10.1055 0.0802865 0)
(10.0989 0.0792908 0)
(10.0919 0.0778571 0)
(10.085 0.0758138 0)
(10.0786 0.0728173 0)
(10.0734 0.0681473 0)
(10.0699 0.0600455 0)
(10.0637 0.0440726 0)
(10.0234 0.0660822 0)
(10.0638 0.0756273 0)
(10.0899 0.0765436 0)
(10.105 0.0802588 0)
(10.1179 0.0832793 0)
(10.1301 0.0848345 0)
(10.1411 0.0855547 0)
(10.1509 0.0857929 0)
(10.1599 0.0856458 0)
(10.1682 0.0851466 0)
(10.1759 0.0843 0)
(10.1833 0.0830673 0)
(10.1905 0.0813471 0)
(10.1976 0.0789413 0)
(10.2047 0.0754841 0)
(10.212 0.0703068 0)
(10.2187 0.0622469 0)
(10.2218 0.0497246 0)
(10.0169 0.0534371 0)
(10.0493 0.0684123 0)
(10.0741 0.0707158 0)
(10.0896 0.0735501 0)
(10.1028 0.0759649 0)
(10.1154 0.0771925 0)
(10.1273 0.0776968 0)
(10.1383 0.077813 0)
(10.1487 0.0776179 0)
(10.1587 0.0771096 0)
(10.1683 0.0762616 0)
(10.1777 0.0750118 0)
(10.187 0.0732427 0)
(10.1961 0.0707555 0)
(10.205 0.0672296 0)
(10.2136 0.0621777 0)
(10.221 0.0549966 0)
(10.2253 0.0453653 0)
(10.0121 0.0432157 0)
(10.0378 0.0606918 0)
(10.0603 0.0652121 0)
(10.0758 0.0686776 0)
(10.0887 0.0717513 0)
(10.101 0.0736892 0)
(10.1127 0.0747474 0)
(10.1236 0.0752544 0)
(10.134 0.0753243 0)
(10.1439 0.0749776 0)
(10.1534 0.0742039 0)
(10.1627 0.072958 0)
(10.1718 0.0711452 0)
(10.1806 0.0686078 0)
(10.1891 0.0651149 0)
(10.197 0.06038 0)
(10.2035 0.0541876 0)
(10.2077 0.0467521 0)
(10.0086 0.0350566 0)
(10.0287 0.0531189 0)
(10.0488 0.0594567 0)
(10.0638 0.0633327 0)
(10.0763 0.0664666 0)
(10.0882 0.0684463 0)
(10.0995 0.0694503 0)
(10.1101 0.0698168 0)
(10.1201 0.0697075 0)
(10.1298 0.0691685 0)
(10.139 0.0682009 0)
(10.148 0.0667703 0)
(10.1567 0.064802 0)
(10.165 0.0621794 0)
(10.1728 0.0587559 0)
(10.1798 0.0543966 0)
(10.1855 0.0490961 0)
(10.1895 0.0431908 0)
(10.0065 0.0292841 0)
(10.0228 0.0469192 0)
(10.0407 0.0544165 0)
(10.0551 0.058674 0)
(10.0672 0.0619135 0)
(10.0787 0.0640622 0)
(10.0897 0.0652458 0)
(10.1001 0.0657619 0)
(10.1099 0.0657788 0)
(10.1193 0.0653491 0)
(10.1284 0.0644768 0)
(10.1371 0.0631369 0)
(10.1454 0.0612757 0)
(10.1532 0.0588172 0)
(10.1605 0.0556828 0)
(10.167 0.0518362 0)
(10.1722 0.0473699 0)
(10.1761 0.0426157 0)
(10.0051 0.0250723 0)
(10.0186 0.0417083 0)
(10.0344 0.0497991 0)
(10.0481 0.0543664 0)
(10.0598 0.0576689 0)
(10.0709 0.0598889 0)
(10.0815 0.0611401 0)
(10.0916 0.0616818 0)
(10.1012 0.0616872 0)
(10.1104 0.0612241 0)
(10.1192 0.06031 0)
(10.1275 0.0589355 0)
(10.1355 0.057071 0)
(10.143 0.0546758 0)
(10.1498 0.0517207 0)
(10.1559 0.0482275 0)
(10.1608 0.0443272 0)
(10.1646 0.0403162 0)
(10.004 0.0212108 0)
(10.0149 0.0364494 0)
(10.0288 0.0448086 0)
(10.0415 0.0496437 0)
(10.0528 0.0530003 0)
(10.0635 0.0552701 0)
(10.0737 0.0565907 0)
(10.0835 0.0571871 0)
(10.0928 0.0572312 0)
(10.1017 0.056804 0)
(10.1102 0.0559355 0)
(10.1183 0.0546315 0)
(10.126 0.052884 0)
(10.1331 0.050684 0)
(10.1395 0.0480419 0)
(10.1452 0.0450172 0)
(10.1499 0.0417528 0)
(10.1538 0.0384945 0)
(10.0031 0.0176982 0)
(10.0119 0.0312557 0)
(10.0238 0.0394924 0)
(10.0355 0.0444488 0)
(10.0462 0.0478034 0)
(10.0563 0.0500687 0)
(10.0662 0.0514181 0)
(10.0756 0.0520455 0)
(10.0846 0.0521119 0)
(10.0932 0.0517069 0)
(10.1014 0.0508734 0)
(10.1092 0.049633 0)
(10.1165 0.0479997 0)
(10.1232 0.0459923 0)
(10.1294 0.0436503 0)
(10.1348 0.0410535 0)
(10.1394 0.0383368 0)
(10.1433 0.0356907 0)
(10.0024 0.014518 0)
(10.0094 0.0262129 0)
(10.0195 0.0339469 0)
(10.03 0.0388279 0)
(10.04 0.0421054 0)
(10.0497 0.0443122 0)
(10.059 0.0456516 0)
(10.0681 0.0462943 0)
(10.0767 0.0463865 0)
(10.085 0.0460228 0)
(10.0929 0.0452583 0)
(10.1003 0.0441297 0)
(10.1073 0.0426696 0)
(10.1137 0.0409168 0)
(10.1196 0.0389278 0)
(10.1248 0.0367863 0)
(10.1293 0.0346084 0)
(10.1333 0.0325355 0)
(10.0018 0.0116322 0)
(10.0075 0.0213667 0)
(10.016 0.0282598 0)
(10.0253 0.0328258 0)
(10.0345 0.0359074 0)
(10.0435 0.0379765 0)
(10.0524 0.0392458 0)
(10.061 0.0398675 0)
(10.0693 0.0399707 0)
(10.0772 0.0396484 0)
(10.0847 0.0389636 0)
(10.0918 0.0379641 0)
(10.0985 0.0366948 0)
(10.1047 0.0352054 0)
(10.1103 0.0335578 0)
(10.1153 0.0318293 0)
(10.1198 0.0301124 0)
(10.1239 0.0285067 0)
(10.0014 0.00898922 0)
(10.006 0.0167247 0)
(10.0131 0.0225003 0)
(10.0213 0.0264977 0)
(10.0297 0.0292299 0)
(10.0381 0.0310619 0)
(10.0464 0.0321886 0)
(10.0546 0.0327429 0)
(10.0624 0.0328348 0)
(10.07 0.0325504 0)
(10.0772 0.0319545 0)
(10.084 0.0311001 0)
(10.0904 0.0300375 0)
(10.0963 0.0288194 0)
(10.1017 0.0275044 0)
(10.1067 0.0261576 0)
(10.1112 0.0248483 0)
(10.1154 0.023645 0)
(10.0012 0.00652587 0)
(10.0049 0.0122513 0)
(10.0109 0.0166948 0)
(10.0181 0.0198809 0)
(10.0257 0.0220881 0)
(10.0335 0.0235626 0)
(10.0413 0.0244587 0)
(10.0489 0.0248841 0)
(10.0564 0.0249271 0)
(10.0636 0.0246606 0)
(10.0705 0.0241442 0)
(10.077 0.0234291 0)
(10.0831 0.0225632 0)
(10.0889 0.0215945 0)
(10.0942 0.0205726 0)
(10.0991 0.0195475 0)
(10.1036 0.018568 0)
(10.108 0.0176787 0)
(10.001 0.0041637 0)
(10.0041 0.00785944 0)
(10.0093 0.0107985 0)
(10.0157 0.0129529 0)
(10.0226 0.0144509 0)
(10.0298 0.0154313 0)
(10.0371 0.0159948 0)
(10.0444 0.0162158 0)
(10.0515 0.0161571 0)
(10.0583 0.0158728 0)
(10.0649 0.0154101 0)
(10.0712 0.0148111 0)
(10.0771 0.0141154 0)
(10.0828 0.0133615 0)
(10.088 0.0125866 0)
(10.0929 0.0118262 0)
(10.0975 0.0111129 0)
(10.102 0.0104741 0)
(10.0009 0.00179852 0)
(10.0037 0.00340037 0)
(10.0083 0.00468142 0)
(10.0142 0.00561251 0)
(10.0206 0.00622831 0)
(10.0274 0.0065774 0)
(10.0343 0.00670137 0)
(10.0412 0.00663518 0)
(10.048 0.00641072 0)
(10.0546 0.006058 0)
(10.061 0.00560528 0)
(10.0671 0.00507944 0)
(10.0729 0.00450614 0)
(10.0784 0.0039104 0)
(10.0837 0.00331584 0)
(10.0886 0.00274403 0)
(10.0932 0.00221358 0)
(10.0978 0.00173947 0)
(10.0008 -0.000573424 0)
(10.0036 -0.00109208 0)
(10.0081 -0.00152917 0)
(10.0138 -0.00190056 0)
(10.02 -0.00224453 0)
(10.0267 -0.00259369 0)
(10.0334 -0.00296587 0)
(10.0401 -0.0033684 0)
(10.0468 -0.00380265 0)
(10.0532 -0.00426569 0)
(10.0595 -0.00475087 0)
(10.0655 -0.00524886 0)
(10.0713 -0.0057484 0)
(10.0767 -0.00623793 0)
(10.0819 -0.006706 0)
(10.0869 -0.00714217 0)
(10.0916 -0.00753752 0)
(10.0962 -0.00788533 0)
(10.0009 -0.00287394 0)
(10.0038 -0.00543141 0)
(10.0086 -0.00748766 0)
(10.0145 -0.00906032 0)
(10.021 -0.0102779 0)
(10.0277 -0.0112592 0)
(10.0344 -0.0120799 0)
(10.0412 -0.0127875 0)
(10.0479 -0.0134163 0)
(10.0543 -0.01399 0)
(10.0606 -0.0145233 0)
(10.0666 -0.0150235 0)
(10.0724 -0.0154934 0)
(10.0779 -0.015933 0)
(10.0831 -0.0163411 0)
(10.0881 -0.0167155 0)
(10.0929 -0.0170545 0)
(10.0976 -0.0173572 0)
(10.001 -0.00517353 0)
(10.0044 -0.00970443 0)
(10.0098 -0.0132214 0)
(10.0163 -0.0158009 0)
(10.0231 -0.0177197 0)
(10.0301 -0.0191983 0)
(10.0371 -0.0203634 0)
(10.044 -0.0212972 0)
(10.0508 -0.0220633 0)
(10.0573 -0.0227081 0)
(10.0636 -0.0232626 0)
(10.0697 -0.0237464 0)
(10.0755 -0.0241724 0)
(10.081 -0.0245489 0)
(10.0863 -0.0248815 0)
(10.0913 -0.0251738 0)
(10.0961 -0.0254282 0)
(10.1009 -0.025646 0)
(10.0013 -0.00764875 0)
(10.0054 -0.0141742 0)
(10.0118 -0.0189819 0)
(10.0191 -0.0223394 0)
(10.0266 -0.0247697 0)
(10.0339 -0.0266034 0)
(10.0413 -0.0280048 0)
(10.0484 -0.0290868 0)
(10.0553 -0.0299419 0)
(10.062 -0.0306372 0)
(10.0684 -0.0312168 0)
(10.0746 -0.0317092 0)
(10.0805 -0.0321343 0)
(10.0861 -0.0325058 0)
(10.0914 -0.0328339 0)
(10.0965 -0.0331265 0)
(10.1014 -0.0333899 0)
(10.1062 -0.0336298 0)
(10.0017 -0.0104818 0)
(10.0071 -0.0190613 0)
(10.0148 -0.0249197 0)
(10.0232 -0.0287801 0)
(10.0313 -0.0315257 0)
(10.0391 -0.0335699 0)
(10.0468 -0.0350849 0)
(10.0542 -0.0362071 0)
(10.0613 -0.0370534 0)
(10.0681 -0.0377047 0)
(10.0746 -0.0382126 0)
(10.0808 -0.0386122 0)
(10.0867 -0.038929 0)
(10.0924 -0.0391823 0)
(10.0978 -0.0393876 0)
(10.1029 -0.0395573 0)
(10.1077 -0.0397016 0)
(10.1125 -0.0398269 0)
(10.0024 -0.013896 0)
(10.0095 -0.0245562 0)
(10.0191 -0.0310906 0)
(10.0286 -0.0351403 0)
(10.0374 -0.0380305 0)
(10.0457 -0.0401823 0)
(10.0538 -0.0417555 0)
(10.0615 -0.0429182 0)
(10.0688 -0.043809 0)
(10.0758 -0.044512 0)
(10.0825 -0.0450761 0)
(10.0888 -0.0455334 0)
(10.0948 -0.0459072 0)
(10.1006 -0.0462151 0)
(10.106 -0.0464717 0)
(10.1112 -0.0466916 0)
(10.1161 -0.04689 0)
(10.121 -0.0470835 0)
(10.0035 -0.0181915 0)
(10.0132 -0.0308056 0)
(10.0251 -0.0374505 0)
(10.0357 -0.0413562 0)
(10.0451 -0.0442018 0)
(10.0539 -0.0462539 0)
(10.0622 -0.0476433 0)
(10.0702 -0.0485845 0)
(10.0777 -0.0492428 0)
(10.0847 -0.04971 0)
(10.0915 -0.0500398 0)
(10.0979 -0.0502691 0)
(10.1039 -0.0504238 0)
(10.1097 -0.050523 0)
(10.1152 -0.0505822 0)
(10.1204 -0.050618 0)
(10.1253 -0.0506507 0)
(10.1301 -0.0507027 0)
(10.0053 -0.0237837 0)
(10.0186 -0.037873 0)
(10.0331 -0.0438986 0)
(10.0448 -0.0474901 0)
(10.0547 -0.0503913 0)
(10.064 -0.0525606 0)
(10.0728 -0.0540922 0)
(10.081 -0.0552136 0)
(10.0887 -0.056069 0)
(10.096 -0.0567262 0)
(10.1028 -0.0572265 0)
(10.1093 -0.0576008 0)
(10.1155 -0.057872 0)
(10.1214 -0.0580566 0)
(10.1269 -0.0581688 0)
(10.1321 -0.0582263 0)
(10.1371 -0.0582586 0)
(10.1419 -0.0583154 0)
(10.0082 -0.0312389 0)
(10.0264 -0.0456322 0)
(10.0437 -0.0500563 0)
(10.056 -0.0527515 0)
(10.0661 -0.0549276 0)
(10.0757 -0.0563097 0)
(10.0848 -0.0571229 0)
(10.0931 -0.0576568 0)
(10.101 -0.0580423 0)
(10.1083 -0.0583258 0)
(10.1153 -0.0585326 0)
(10.1219 -0.0586799 0)
(10.1282 -0.0587759 0)
(10.1341 -0.0588225 0)
(10.1397 -0.0588184 0)
(10.145 -0.0587654 0)
(10.1499 -0.058685 0)
(10.1546 -0.0586434 0)
(10.0127 -0.0413162 0)
(10.0377 -0.053988 0)
(10.0576 -0.0572909 0)
(10.0703 -0.0607798 0)
(10.0809 -0.0637834 0)
(10.0908 -0.0656745 0)
(10.1 -0.0668261 0)
(10.1084 -0.067583 0)
(10.1161 -0.0680862 0)
(10.1234 -0.0684005 0)
(10.1301 -0.0685729 0)
(10.1365 -0.0686372 0)
(10.1425 -0.0686139 0)
(10.1481 -0.068511 0)
(10.1534 -0.0683251 0)
(10.1583 -0.0680441 0)
(10.1628 -0.0676659 0)
(10.167 -0.067247 0)
(10.0194 -0.0548078 0)
(10.0521 -0.0590402 0)
(10.0724 -0.0568068 0)
(10.0838 -0.0580529 0)
(10.0932 -0.059794 0)
(10.1018 -0.0609588 0)
(10.1091 -0.0617983 0)
(10.1152 -0.0624997 0)
(10.1202 -0.0630925 0)
(10.1245 -0.0635803 0)
(10.128 -0.0639734 0)
(10.1308 -0.064281 0)
(10.1331 -0.0645063 0)
(10.1349 -0.0646437 0)
(10.1362 -0.0646734 0)
(10.1372 -0.0645473 0)
(10.1376 -0.0641757 0)
(10.1373 -0.0633845 0)
(10.023 -0.0788077 0)
(10.0554 -0.0824824 0)
(10.0597 -0.0793789 0)
(10.0506 -0.0791835 0)
(10.0377 -0.07906 0)
(10.0223 -0.078422 0)
(10.0041 -0.0775963 0)
(9.98384 -0.0767445 0)
(9.96194 -0.0758921 0)
(9.93893 -0.0750448 0)
(9.91513 -0.0742106 0)
(9.89081 -0.0733946 0)
(9.8662 -0.0725964 0)
(9.8415 -0.0718083 0)
(9.81688 -0.0710086 0)
(9.79254 -0.0701389 0)
(9.76865 -0.0690588 0)
(9.74457 -0.0670053 0)
(9.7858 -0.0370742 0)
(9.59964 -0.0422972 0)
(9.39002 -0.0429941 0)
(9.18261 -0.0440461 0)
(8.98743 -0.0445146 0)
(8.8037 -0.0444067 0)
(8.62986 -0.0440024 0)
(8.46529 -0.0434492 0)
(8.30966 -0.0428077 0)
(8.16252 -0.0421107 0)
(8.02342 -0.0413801 0)
(7.89188 -0.0406301 0)
(7.76748 -0.0398694 0)
(7.64981 -0.0391028 0)
(7.5385 -0.0383288 0)
(7.43325 -0.0375272 0)
(7.33414 -0.0366257 0)
(7.23814 -0.0349228 0)
(0.00897409 -0.0288333 0)
(0.0140502 -0.0316711 0)
(-0.00571225 0.014652 0)
(-0.0526623 0.0555058 0)
(-0.112527 0.0749599 0)
(-0.181153 0.0846355 0)
(-0.256138 0.0900931 -2.13899e-19)
(-0.335864 0.093196 1.73454e-19)
(-0.418967 0.0946958 0)
(-0.504234 0.0949741 1.2484e-19)
(-0.590599 0.094278 0)
(-0.677151 0.0927962 0)
(-0.763145 0.0906888 0)
(-0.847992 0.0881011 -8.09433e-20)
(-0.931245 0.0851671 0)
(-1.01258 0.0820072 0)
(-1.09178 0.078725 6.56992e-20)
(-1.16871 0.0754044 0)
(-1.24332 0.0721104 0)
(-1.31559 0.0688913 0)
(-1.38556 0.0657794 -5.43247e-20)
(-1.45331 0.0627932 0)
(-1.5189 0.059941 -5.06212e-20)
(-1.58246 0.0572232 0)
(-1.64407 0.0546354 0)
(-1.70386 0.0521697 -4.64579e-20)
(-1.76192 0.049817 0)
(-1.81837 0.0475675 4.43064e-20)
(-1.87331 0.045413 0)
(-1.92684 0.0433477 -4.24958e-20)
(-1.97905 0.04137 0)
(-2.03003 0.0394833 0)
(-2.07987 0.037697 0)
(-2.12863 0.0360251 0)
(-2.17641 0.034484 0)
(-2.22327 0.0330878 3.82933e-20)
(-2.26929 0.0318441 0)
(-2.31453 0.030751 -7.42842e-20)
(-2.35904 0.029797 0)
(-2.40287 0.0289641 7.21708e-20)
(-2.44605 0.0282314 0)
(-2.48863 0.027578 0)
(-2.53062 0.0269858 -6.93428e-20)
(-2.57203 0.0264391 0)
(-2.61289 0.0259257 -6.76704e-20)
(-2.65319 0.0254355 6.6892e-20)
(-2.69295 0.0249608 0)
(-2.73215 0.0244955 6.54387e-20)
(-2.7708 0.0240345 6.47592e-20)
(-2.80888 0.0235739 0)
(-2.84639 0.0231104 0)
(-2.88331 0.0226413 0)
(-2.91962 0.0221643 0)
(-2.9553 0.0216775 0)
(-2.99033 0.0211792 -6.12033e-20)
(-3.02467 0.0206678 0)
(-3.05831 0.0201422 6.01714e-20)
(-3.09121 0.0196011 0)
(-3.12333 0.0190435 0)
(-3.15464 0.0184684 -5.87238e-20)
(-3.18509 0.017875 0)
(-3.21464 0.0172624 5.781e-20)
(-3.24325 0.0166299 0)
(-3.27086 0.0159769 0)
(-3.29743 0.0153028 0)
(-3.32291 0.0146072 -5.60627e-20)
(-3.34722 0.0138899 0)
(-3.37033 0.0131506 0)
(-3.39216 0.0123894 -5.47882e-20)
(-3.41266 0.0116065 0)
(-3.43177 0.0108022 -5.39401e-20)
(-3.44941 0.00997717 0)
(-3.46554 0.00913195 0)
(-3.48008 0.00826755 0)
(-3.49298 0.00738535 5.22119e-20)
(-3.50418 0.00648621 0)
(-3.51362 0.00556852 0)
(-3.52125 0.00462357 5.08582e-20)
(-3.52701 0.00363646 5.03914e-20)
(-3.53081 0.00260157 0)
(-3.53259 0.00153691 4.93954e-20)
(-3.5323 0.000467041 0)
(-3.52993 -0.00059825 9.66595e-20)
(-3.52545 -0.00165708 0)
(-3.51885 -0.00270738 9.442e-20)
(-3.51012 -0.00374726 0)
(-3.49924 -0.00477489 -9.20621e-20)
(-3.48621 -0.0057884 0)
(-3.47103 -0.006786 0)
(-3.45368 -0.00776579 0)
(-3.43419 -0.00872587 8.69546e-20)
(-3.41254 -0.00966432 0)
(-3.38876 -0.0105792 -8.41894e-20)
(-3.36286 -0.0114683 0)
(-3.33485 -0.0123297 8.12746e-20)
(-3.30477 -0.0131611 7.97595e-20)
(-3.27263 -0.0139603 7.82052e-20)
(-3.23847 -0.0147248 0)
(-3.20232 -0.0154526 0)
(-3.16424 -0.0161412 0)
(-3.12427 -0.0167884 0)
(-3.08246 -0.0173919 0)
(-3.03888 -0.0179503 0)
(-2.99359 -0.0184615 0)
(-2.94665 -0.0189253 0)
(-2.89816 -0.019341 -6.24009e-20)
(-2.84819 -0.0197105 -6.04417e-20)
(-2.79684 -0.0200363 0)
(-2.7442 -0.0203244 0)
(-2.69038 -0.0205827 0)
(-2.63548 -0.0208246 -5.2208e-20)
(-2.57962 -0.0210666 0)
(-2.52292 -0.0213303 0)
(-2.4655 -0.0216371 0)
(-2.40749 -0.0220052 0)
(-2.34904 -0.0224376 4.103e-20)
(-2.29028 -0.0229173 0)
(-2.2314 -0.0233991 0)
(-2.17258 -0.0238192 -3.38043e-20)
(-2.11404 -0.0241075 3.1304e-20)
(-2.056 -0.02421 0)
(-1.9987 -0.0240968 2.61892e-20)
(-1.94239 -0.0237675 0)
(-1.8873 -0.0232388 -2.09762e-20)
(-1.83367 -0.0225378 0)
(-1.78175 -0.0216889 0)
(-1.73177 -0.0207129 0)
(-1.68398 -0.0196227 0)
(-1.63865 -0.0184277 0)
(-1.59604 -0.0171301 1.10839e-20)
(-1.55642 -0.0157311 6.24995e-21)
(-1.52006 -0.0142314 0)
(-1.48719 -0.0126385 0)
(-1.45802 -0.0109668 0)
(-1.43276 -0.00923604 1.10368e-20)
(-1.41167 -0.00746394 0)
(-1.39498 -0.00566309 0)
(-1.38289 -0.00384085 0)
(-1.37554 -0.0020085 2.32162e-20)
(-1.37293 -0.000182067 -2.52081e-20)
(-1.37496 0.00161684 0)
(-1.38183 0.00336704 0)
(-1.39342 0.00504715 -2.8336e-20)
(-1.40959 0.00663519 -2.85452e-20)
(-1.43014 0.00811055 0)
(-1.45477 0.00945409 0)
(-1.48318 0.0106495 2.71254e-20)
(-1.51497 0.0116821 -2.61251e-20)
(-1.54973 0.0125407 0)
(-1.587 0.0132172 0)
(-1.62629 0.0137064 -2.22857e-20)
(-1.66707 0.0140054 0)
(-1.70883 0.0141125 0)
(-1.75101 0.0140287 -1.8323e-20)
(-1.79307 0.0137597 0)
(-1.83451 0.0133181 -1.62843e-20)
(-1.87482 0.012722 0)
(-1.91349 0.0119933 0)
(-1.95 0.0111534 0)
(-1.98386 0.0102199 1.52006e-20)
(-2.01464 0.0092019 0)
(-2.04197 0.00809861 0)
(-2.06549 0.00690372 0)
(-2.08483 0.0056153 0)
(-2.09958 0.00425002 0)
(-2.1093 0.00283961 0)
(-2.11366 0.00141156 2.91565e-20)
(-2.11275 -4.19471e-05 3.336e-20)
(-2.10648 -0.00154483 0)
(-2.09473 -0.00310976 0)
(-2.07742 -0.00474972 0)
(-2.05445 -0.00649205 -5.72368e-20)
(-2.02574 -0.00839275 0)
(-1.99117 -0.0105674 1.48169e-19)
(-1.95058 -0.0132458 -1.67936e-19)
(-1.90385 -0.0168425 -1.89862e-19)
(-1.85102 -0.0220643 2.14189e-19)
(-1.78966 -0.0301117 -2.41809e-19)
(-1.70906 -0.0451578 2.74719e-19)
(-1.60374 -0.0808992 0)
(-0.016391 0.0113938 0)
(-0.0715074 0.0853914 0)
(-0.126175 0.133453 6.21742e-19)
(-0.185617 0.170691 0)
(-0.250017 0.198331 -3.71118e-19)
(-0.319995 0.218662 -3.08449e-19)
(-0.395003 0.233561 -1.3143e-19)
(-0.473783 0.243991 -1.13548e-19)
(-0.554945 0.250403 0)
(-0.63723 0.253192 -8.88735e-20)
(-0.719602 0.252872 0)
(-0.80126 0.250054 0)
(-0.881636 0.245355 1.3377e-19)
(-0.960352 0.239307 6.16701e-20)
(-1.03718 0.232346 -1.15152e-19)
(-1.11197 0.224816 -1.07959e-19)
(-1.18469 0.216984 -5.08129e-20)
(-1.2553 0.209055 0)
(-1.32383 0.201187 0)
(-1.39032 0.193496 0)
(-1.45484 0.186065 -4.25577e-20)
(-1.51745 0.178951 0)
(-1.57824 0.17219 1.1925e-19)
(-1.63727 0.165799 0)
(-1.69466 0.159787 0)
(-1.75047 0.15415 3.6707e-20)
(-1.80481 0.148881 0)
(-1.85776 0.143965 -3.51726e-20)
(-1.90942 0.139385 -6.90357e-20)
(-1.95986 0.13512 3.39e-20)
(-2.00918 0.131148 0)
(-2.05743 0.127444 0)
(-2.1047 0.123981 0)
(-2.15105 0.120733 -6.37841e-20)
(-2.19653 0.117675 -6.29426e-20)
(-2.24119 0.114782 -3.10801e-20)
(-2.28508 0.11203 0)
(-2.32823 0.1094 6.07147e-20)
(-2.37068 0.106875 0)
(-2.41246 0.10444 -5.94172e-20)
(-2.45359 0.102084 0)
(-2.4941 0.0997965 0)
(-2.53402 0.0975675 5.76937e-20)
(-2.57335 0.0953887 0)
(-2.61212 0.093252 1.69967e-19)
(-2.65032 0.0911495 -5.61796e-20)
(-2.68797 0.089074 0)
(-2.72506 0.087018 -5.52612e-20)
(-2.76158 0.0849748 -5.48248e-20)
(-2.79753 0.0829375 0)
(-2.8329 0.0808999 0)
(-2.86766 0.0788557 0)
(-2.9018 0.0767993 0)
(-2.9353 0.074725 0)
(-2.96813 0.0726277 5.24486e-20)
(-3.00027 0.0705022 1.04156e-19)
(-3.03167 0.0683439 -5.17249e-20)
(-3.06231 0.066148 0)
(-3.09215 0.0639102 1.02045e-19)
(-3.12115 0.0616262 -5.06809e-20)
(-3.14927 0.0592921 0)
(-3.17646 0.0569041 -5.00015e-20)
(-3.20268 0.0544585 0)
(-3.22786 0.0519521 0)
(-3.25196 0.0493819 -9.80156e-20)
(-3.27492 0.0467454 4.86629e-20)
(-3.29668 0.0440405 -9.66874e-20)
(-3.31717 0.0412657 9.60199e-20)
(-3.33634 0.0384202 4.76531e-20)
(-3.35412 0.0355041 0)
(-3.37043 0.0325182 4.69668e-20)
(-3.38522 0.0294642 0)
(-3.3984 0.026345 0)
(-3.40992 0.0231645 0)
(-3.4197 0.0199282 4.56142e-20)
(-3.42767 0.0166417 0)
(-3.43379 0.0133087 8.96545e-20)
(-3.43799 0.00992503 -1.33275e-19)
(-3.44019 0.00648424 -4.39908e-20)
(-3.44029 0.00301176 0)
(-3.43842 -0.000453021 -4.30528e-20)
(-3.43454 -0.00389645 0)
(-3.42862 -0.00731365 -8.40896e-20)
(-3.42067 -0.0107002 0)
(-3.41065 -0.0140517 -8.19584e-20)
(-3.39855 -0.0173635 1.61971e-19)
(-3.38438 -0.0206314 7.97054e-20)
(-3.36812 -0.023851 0)
(-3.34977 -0.0270177 0)
(-3.32934 -0.0301274 0)
(-3.30682 -0.0331755 -7.48121e-20)
(-3.28222 -0.0361576 0)
(-3.25556 -0.0390694 7.21636e-20)
(-3.22685 -0.041906 0)
(-3.19612 -0.0446628 -2.08502e-19)
(-3.16338 -0.0473349 -6.79311e-20)
(-3.12867 -0.0499174 -6.64504e-20)
(-3.09202 -0.0524051 0)
(-3.05347 -0.054793 0)
(-3.01307 -0.0570756 0)
(-2.97087 -0.0592478 0)
(-2.92692 -0.061304 0)
(-2.8813 -0.0632387 -1.1413e-19)
(-2.83405 -0.0650459 -1.107e-19)
(-2.78527 -0.0667201 0)
(-2.73503 -0.0682544 5.15896e-20)
(-2.68342 -0.0696426 4.97774e-20)
(-2.63053 -0.0708763 0)
(-2.57647 -0.0719477 9.2616e-20)
(-2.52135 -0.0728465 0)
(-2.4653 -0.0735626 -4.27376e-20)
(-2.40843 -0.0740837 0)
(-2.3509 -0.0743986 0)
(-2.29285 -0.0744946 7.3186e-20)
(-2.23444 -0.0743622 0)
(-2.17585 -0.0739931 -3.23124e-20)
(-2.11726 -0.0733848 0)
(-2.05883 -0.0725382 0)
(-2.00076 -0.0714606 -2.66377e-20)
(-1.94323 -0.0701603 -2.40752e-20)
(-1.88644 -0.0686482 0)
(-1.83056 -0.06693 2.03857e-20)
(-1.77581 -0.0650085 0)
(-1.7224 -0.0628787 -1.6224e-20)
(-1.67054 -0.0605343 -2.79202e-20)
(-1.62046 -0.0579658 0)
(-1.57239 -0.0551683 0)
(-1.52656 -0.0521395 0)
(-1.48321 -0.0488833 0)
(-1.44258 -0.0454018 -8.13465e-21)
(-1.40492 -0.0416964 -1.41126e-20)
(-1.37047 -0.0377663 0)
(-1.33944 -0.0336198 0)
(-1.31201 -0.0292803 0)
(-1.28835 -0.0247888 -7.99801e-21)
(-1.26864 -0.0201908 0)
(-1.25308 -0.0155209 0)
(-1.24184 -0.010795 3.02846e-20)
(-1.23501 -0.00602712 1.70938e-20)
(-1.23255 -0.00124767 1.82939e-20)
(-1.23429 0.00348103 0)
(-1.24049 0.00807754 0)
(-1.25106 0.0124761 2.05422e-20)
(-1.26585 0.0166196 -2.12494e-20)
(-1.28464 0.0204562 0)
(-1.30717 0.0239404 0)
(-1.33312 0.0270331 -1.97792e-20)
(-1.36213 0.0297016 5.7876e-20)
(-1.39378 0.0319205 0)
(-1.42765 0.0336742 0)
(-1.46326 0.034955 1.64303e-20)
(-1.50012 0.0357623 0)
(-1.53771 0.0360967 2.95115e-20)
(-1.57552 0.0359608 -1.40678e-20)
(-1.61302 0.0353593 0)
(-1.64969 0.0343059 1.21972e-20)
(-1.68506 0.0328227 2.36874e-20)
(-1.71861 0.0309386 0)
(-1.74983 0.0286829 0)
(-1.77824 0.0260842 -1.15168e-20)
(-1.80339 0.0231669 0)
(-1.82491 0.0199474 2.55351e-20)
(-1.84245 0.0164331 0)
(-1.85562 0.0126452 0)
(-1.86397 0.00864903 0)
(-1.867 0.0045638 0)
(-1.8649 0.000488548 -2.22757e-20)
(-1.85758 -0.00355619 -2.54293e-20)
(-1.84487 -0.00758467 0)
(-1.82668 -0.0115878 0)
(-1.80292 -0.015551 0)
(-1.77355 -0.0194568 4.30449e-20)
(-1.7385 -0.0232842 0)
(-1.69773 -0.0270145 -1.10336e-19)
(-1.65116 -0.0306654 1.24303e-19)
(-1.59892 -0.0343564 1.39519e-19)
(-1.54138 -0.0381735 1.53677e-19)
(-1.47768 -0.0417651 1.74026e-19)
(-1.40189 -0.0480613 1.89924e-19)
(-1.31661 -0.0740723 0)
(-0.0299964 0.124824 0)
(-0.0935151 0.208393 0)
(-0.158048 0.262605 -4.42488e-19)
(-0.225423 0.307541 -3.46189e-19)
(-0.294918 0.344101 2.82651e-19)
(-0.366678 0.372413 2.37029e-19)
(-0.439976 0.392689 -7.03993e-22)
(-0.513662 0.40539 0)
(-0.586777 0.411454 0)
(-0.658792 0.412078 0)
(-0.729471 0.408393 0)
(-0.798739 0.401461 0)
(-0.866563 0.39219 -2.9674e-19)
(-0.932917 0.381306 0)
(-0.997779 0.369382 8.59549e-20)
(-1.06113 0.356865 8.12589e-20)
(-1.12296 0.344097 0)
(-1.18327 0.331338 0)
(-1.24207 0.318778 0)
(-1.29938 0.306556 0)
(-1.35524 0.294765 6.65481e-20)
(-1.40968 0.283469 0)
(-1.46275 0.272704 -6.30284e-20)
(-1.5145 0.26249 0)
(-1.56497 0.25283 0)
(-1.61424 0.24372 0)
(-1.66235 0.235144 -1.16163e-19)
(-1.70937 0.227085 0)
(-1.75535 0.219519 5.614e-20)
(-1.80037 0.21242 -1.10734e-19)
(-1.84447 0.205763 0)
(-1.88771 0.199521 0)
(-1.93014 0.193666 0)
(-1.97182 0.188173 5.26069e-20)
(-2.01278 0.183015 5.20348e-20)
(-2.05307 0.178166 0)
(-2.09272 0.173598 0)
(-2.13176 0.169284 -1.00988e-19)
(-2.17023 0.165197 -1.00061e-19)
(-2.20815 0.161308 9.91781e-20)
(-2.24552 0.15759 0)
(-2.28238 0.154018 0)
(-2.31873 0.150568 0)
(-2.35458 0.147218 0)
(-2.38993 0.143946 -9.53215e-20)
(-2.4248 0.140736 -9.4581e-20)
(-2.45916 0.137571 9.39047e-20)
(-2.49303 0.134434 0)
(-2.52638 0.131314 0)
(-2.55922 0.128196 0)
(-2.59152 0.12507 0)
(-2.62328 0.121925 -9.07821e-20)
(-2.65446 0.118751 0)
(-2.68505 0.115539 0)
(-2.71502 0.112282 -8.90592e-20)
(-2.74434 0.10897 -8.85241e-20)
(-2.77299 0.105597 0)
(-2.80094 0.102155 1.74811e-19)
(-2.82814 0.0986371 -8.68742e-20)
(-2.85455 0.095037 8.63314e-20)
(-2.88015 0.0913484 0)
(-2.90488 0.087565 0)
(-2.9287 0.0836814 0)
(-2.95156 0.0796922 0)
(-2.97341 0.0755926 8.36223e-20)
(-2.99419 0.0713783 1.66207e-19)
(-3.01385 0.0670457 8.25211e-20)
(-3.03233 0.0625923 -8.19625e-20)
(-3.04956 0.0580164 0)
(-3.06548 0.0533177 1.61763e-19)
(-3.08004 0.048497 1.60612e-19)
(-3.09316 0.0435569 1.59442e-19)
(-3.10477 0.0385018 -1.58248e-19)
(-3.11482 0.0333381 0)
(-3.12323 0.0280739 -2.33577e-19)
(-3.12995 0.0227187 0)
(-3.13492 0.0172815 7.67099e-20)
(-3.13811 0.0117724 7.58066e-20)
(-3.13942 0.00621201 0)
(-3.1389 0.000652182 0)
(-3.13649 -0.0048721 1.46896e-19)
(-3.13217 -0.010361 0)
(-3.12591 -0.015808 1.43207e-19)
(-3.1177 -0.0212054 0)
(-3.10752 -0.0265455 -1.39303e-19)
(-3.09536 -0.0318202 -2.74201e-19)
(-3.08121 -0.0370217 0)
(-3.06507 -0.0421421 0)
(-3.04693 -0.0471738 0)
(-3.02681 -0.0521089 -1.28556e-19)
(-3.00469 -0.0569396 0)
(-2.9806 -0.061658 -1.23849e-19)
(-2.95455 -0.0662561 0)
(-2.92654 -0.0707257 0)
(-2.89661 -0.0750582 2.32255e-19)
(-2.86478 -0.0792451 0)
(-2.83108 -0.0832773 1.11052e-19)
(-2.79554 -0.0871459 0)
(-2.75821 -0.0908416 1.05529e-19)
(-2.71913 -0.0943553 0)
(-2.67835 -0.0976778 0)
(-2.63593 -0.1008 0)
(-2.59194 -0.103713 2.80992e-19)
(-2.54644 -0.106407 9.02697e-20)
(-2.49951 -0.108874 0)
(-2.45124 -0.111104 0)
(-2.4017 -0.11309 0)
(-2.35099 -0.114823 0)
(-2.29923 -0.116293 -7.43462e-20)
(-2.24651 -0.117493 1.4316e-19)
(-2.19296 -0.118413 6.77332e-20)
(-2.13871 -0.119046 -1.2982e-19)
(-2.08388 -0.119384 -1.23081e-19)
(-2.02862 -0.119418 -5.76439e-20)
(-1.97307 -0.119139 0)
(-1.9174 -0.118538 -1.02692e-19)
(-1.86177 -0.117601 0)
(-1.80634 -0.116316 8.90563e-20)
(-1.75127 -0.11467 4.0683e-20)
(-1.69676 -0.112652 0)
(-1.64298 -0.110259 -6.87612e-20)
(-1.59011 -0.107488 -3.0657e-20)
(-1.53835 -0.104341 0)
(-1.48791 -0.100819 -2.48244e-20)
(-1.43898 -0.0969246 6.35129e-20)
(-1.39179 -0.0926566 0)
(-1.34653 -0.0880162 0)
(-1.30343 -0.0830082 0)
(-1.26271 -0.0776431 0)
(-1.22457 -0.0719343 1.26415e-20)
(-1.18923 -0.0658948 6.99508e-21)
(-1.15691 -0.059537 0)
(-1.1278 -0.0528791 0)
(-1.10205 -0.0459536 0)
(-1.07984 -0.0388135 0)
(-1.06129 -0.0315246 0)
(-1.04657 -0.024148 0)
(-1.03583 -0.016724 -2.18347e-20)
(-1.02917 -0.00927809 3.08627e-22)
(-1.02657 -0.00184203 0)
(-1.02792 0.00551005 0)
(-1.03329 0.0126527 -2.96799e-20)
(-1.0426 0.0194758 0)
(-1.05569 0.0258881 3.01857e-20)
(-1.07236 0.0318079 3.06076e-20)
(-1.09236 0.0371632 0)
(-1.11539 0.0418914 0)
(-1.14112 0.0459401 -2.80426e-20)
(-1.16917 0.0492675 -5.47855e-20)
(-1.19914 0.051846 0)
(-1.2306 0.0536612 0)
(-1.2631 0.0547118 0)
(-1.29617 0.0550043 -2.15622e-20)
(-1.32932 0.0545506 2.02858e-20)
(-1.36206 0.0533676 0)
(-1.39394 0.0514825 3.6805e-20)
(-1.42447 0.0489325 1.77954e-20)
(-1.45322 0.0457626 -3.42303e-20)
(-1.4797 0.0420168 0)
(-1.50345 0.0377365 0)
(-1.52406 0.0329596 -3.55014e-20)
(-1.54119 0.027718 -1.89277e-20)
(-1.55454 0.0220339 0)
(-1.56374 0.0159472 0)
(-1.56834 0.00955924 0)
(-1.56795 0.00304426 0)
(-1.56286 -0.00349373 -6.45279e-20)
(-1.55271 -0.0100585 0)
(-1.53735 -0.0166408 0)
(-1.51667 -0.0232194 0)
(-1.49058 -0.0297725 0)
(-1.45902 -0.0362842 0)
(-1.42195 -0.0427467 0)
(-1.37932 -0.0491691 -1.56395e-19)
(-1.33109 -0.0555998 0)
(-1.27739 -0.0622328 0)
(-1.21845 -0.0694164 -4.37162e-19)
(-1.15397 -0.0770863 2.40888e-19)
(-1.07979 -0.0884747 -2.68302e-19)
(-1.00797 -0.11122 2.87775e-19)
(-0.0281906 0.246999 0)
(-0.0935784 0.350684 9.60112e-19)
(-0.161126 0.406646 0)
(-0.230666 0.453397 2.8391e-19)
(-0.30052 0.49143 0)
(-0.369452 0.519076 0)
(-0.436408 0.536454 -1.52985e-19)
(-0.501234 0.544999 0)
(-0.564184 0.546455 0)
(-0.625443 0.542398 0)
(-0.68519 0.534293 0)
(-0.743621 0.523292 0)
(-0.80083 0.510241 3.05298e-19)
(-0.85687 0.495788 1.43813e-19)
(-0.911774 0.48044 -1.36106e-19)
(-0.965558 0.464603 0)
(-1.01823 0.448599 0)
(-1.0698 0.432679 0)
(-1.12027 0.417035 0)
(-1.16965 0.401808 0)
(-1.21795 0.387102 1.08667e-19)
(-1.26521 0.372987 1.05918e-19)
(-1.31144 0.359509 -1.03477e-19)
(-1.35668 0.346693 1.01297e-19)
(-1.40096 0.334549 0)
(-1.44431 0.323074 0)
(-1.48679 0.312255 9.57439e-20)
(-1.52843 0.302071 0)
(-1.56927 0.292496 0)
(-1.60936 0.283499 9.1772e-20)
(-1.64874 0.275048 9.07856e-20)
(-1.68744 0.267105 8.97258e-20)
(-1.72551 0.259635 0)
(-1.76297 0.252601 0)
(-1.79987 0.245967 -8.69428e-20)
(-1.83623 0.239695 0)
(-1.87207 0.233752 0)
(-1.90742 0.228102 8.45565e-20)
(-1.94229 0.222713 -8.39521e-20)
(-1.97671 0.217553 8.32747e-20)
(-2.01068 0.212592 0)
(-2.04421 0.2078 0)
(-2.07732 0.20315 1.62761e-19)
(-2.10999 0.198618 0)
(-2.14224 0.19418 1.60501e-19)
(-2.17407 0.189814 2.39119e-19)
(-2.20545 0.1855 -2.37548e-19)
(-2.2364 0.181219 1.57353e-19)
(-2.2669 0.176955 0)
(-2.29694 0.172691 0)
(-2.3265 0.168412 1.54424e-19)
(-2.35556 0.164106 7.67294e-20)
(-2.38411 0.15976 0)
(-2.41212 0.155361 0)
(-2.43958 0.150899 7.53553e-20)
(-2.46644 0.146364 1.4985e-19)
(-2.49269 0.141744 0)
(-2.51829 0.137031 -1.48034e-19)
(-2.54322 0.132215 1.47201e-19)
(-2.56743 0.127287 -1.46323e-19)
(-2.59089 0.122238 0)
(-2.61355 0.117061 0)
(-2.63538 0.111746 0)
(-2.65633 0.106287 0)
(-2.67634 0.100677 0)
(-2.69537 0.0949086 -1.40878e-19)
(-2.71337 0.0889779 0)
(-2.73028 0.0828806 0)
(-2.74603 0.0766143 0)
(-2.76057 0.0701784 -2.74324e-19)
(-2.77383 0.0635743 -1.36092e-19)
(-2.78576 0.0568056 -1.3508e-19)
(-2.79628 0.0498788 2.68288e-19)
(-2.80534 0.0428031 -1.33197e-19)
(-2.81287 0.0355904 1.31898e-19)
(-2.81882 0.0282544 0)